/*--------------------------------*- C++ -*----------------------------------*\
| =========                 |                                                 |
| \\      /  F ield         | OpenFOAM: The Open Source CFD Toolbox           |
|  \\    /   O peration     | Version:  v1812                                 |
|   \\  /    A nd           | Web:      www.OpenFOAM.com                      |
|    \\/     M anipulation  |                                                 |
\*---------------------------------------------------------------------------*/
FoamFile
{
    version     2.0;
    format      ascii;
    class       volScalarField;
    location    "0.7";
    object      p;
}
// * * * * * * * * * * * * * * * * * * * * * * * * * * * * * * * * * * * * * //

dimensions      [1 -1 -2 0 0 0 0];


internalField   nonuniform List<scalar> 
64512
(
1
1
1
1
1
1
1
1
1
1
1
1
1
1
1
1
1
1
1
1
1
1
1
1
1
1
1
1
1
1
1
1
1
1
1
1
1
1
1
1
1
1
1
1
1
1
1
1
1
1
1
1
1
1
1
1.00003
1.00187
1.11901
7.66681
10.8753
11.1775
11.2591
11.3274
11.3826
11.4125
11.4351
11.456
11.4813
11.5122
11.5463
11.6004
11.6632
11.7264
11.7948
11.8635
11.9267
11.9813
12.0279
12.0681
12.1013
12.1279
12.1514
12.176
12.2034
12.2337
12.2648
12.2921
12.3102
12.3175
12.3184
12.3168
12.3176
12.3185
12.326
12.3275
12.3341
1
1
1
1
1
1
1
1
1
1
1
1
1
1
1
1
1
1
1
1
1
1
1
1
1
1
1
1
1
1
1
1
1
1
1
1
1
1
1
1
1
1
1
1
1
1
1
1
1
1
1
1
1
1
1
1.00003
1.00186
1.11878
7.66069
10.7513
11.1882
11.2648
11.3235
11.3662
11.4
11.4288
11.4588
11.4848
11.5107
11.5426
11.5913
11.6549
11.7241
11.7924
11.8616
11.9253
11.9797
12.0265
12.0667
12.0993
12.125
12.1478
12.1722
12.1997
12.23
12.261
12.2879
12.3056
12.3133
12.3151
12.3147
12.3164
12.3184
12.3262
12.3279
12.3348
1
1
1
1
1
1
1
1
1
1
1
1
1
1
1
1
1
1
1
1
1
1
1
1
1
1
1
1
1
1
1
1
1
1
1
1
1
1
1
1
1
1
1
1
1
1
1
1
1
1
1
1
1
1
1
1.00003
1.00186
1.11888
7.66694
10.6413
11.1511
11.2373
11.3056
11.3706
11.41
11.4375
11.4591
11.4876
11.5036
11.5364
11.5863
11.6485
11.7188
11.788
11.8573
11.9221
11.9776
12.0249
12.065
12.0971
12.1223
12.1443
12.1679
12.1946
12.2241
12.2541
12.2804
12.2983
12.3073
12.3112
12.313
12.3162
12.3191
12.3268
12.3284
12.3352
1
1
1
1
1
1
1
1
1
1
1
1
1
1
1
1
1
1
1
1
1
1
1
1
1
1
1
1
1
1
1
1
1
1
1
1
1
1
1
1
1
1
1
1
1
1
1
1
1
1
1
1
1
1
1
1.00003
1.00185
1.1176
7.59617
10.5643
11.0888
11.1955
11.2606
11.3337
11.3896
11.4333
11.4628
11.4901
11.5055
11.5334
11.5781
11.6377
11.7066
11.7783
11.8489
11.9151
11.9724
12.0212
12.0615
12.0929
12.1171
12.1377
12.16
12.1854
12.2136
12.2423
12.2676
12.2859
12.2968
12.3034
12.3081
12.3132
12.3168
12.3247
12.3261
12.3322
1
1
1
1
1
1
1
1
1
1
1
1
1
1
1
1
1
1
1
1
1
1
1
1
1
1
1
1
1
1
1
1
1
1
1
1
1
1
1
1
1
1
1
1
1
1
1
1
1
1
1
1
1
1
1
1.00003
1.00181
1.11507
7.46413
10.5625
11.0078
11.1405
11.2234
11.3096
11.3841
11.4402
11.4737
11.494
11.5092
11.5293
11.5686
11.6248
11.692
11.7651
11.8387
11.9081
11.9683
12.0188
12.0591
12.0893
12.1116
12.1305
12.1509
12.1746
12.2009
12.2279
12.2521
12.271
12.2844
12.2944
12.3022
12.3092
12.3136
12.3216
12.323
12.3246
1
1
1
1
1
1
1
1
1
1
1
1
1
1
1
1
1
1
1
1
1
1
1
1
1
1
1
1
1
1
1
1
1
1
1
1
1
1
1
1
1
1
1
1
1
1
1
1
1
1
1
1
1
1
1
1.00003
1.00174
1.11069
7.23945
10.565
10.9433
11.1006
11.1833
11.2751
11.3631
11.4331
11.4763
11.502
11.5152
11.5276
11.5607
11.6113
11.6758
11.7497
11.8264
11.8983
11.9616
12.0137
12.0538
12.0829
12.1034
12.1209
12.1396
12.1612
12.1853
12.2102
12.2335
12.2534
12.2696
12.2828
12.2928
12.3012
12.3063
12.3145
12.3178
12.3072
1
1
1
1
1
1
1
1
1
1
1
1
1
1
1
1
1
1
1
1
1
1
1
1
1
1
1
1
1
1
1
1
1
1
1
1
1
1
1
1
1
1
1
1
1
1
1
1
1
1
1
1
1
1
1
1.00003
1.00165
1.10486
6.9484
10.5828
10.8882
11.0487
11.1567
11.2449
11.3427
11.4227
11.4757
11.5031
11.5165
11.5249
11.552
11.5978
11.66
11.7341
11.8134
11.8883
11.9545
12.0079
12.0474
12.0747
12.0933
12.109
12.1257
12.1451
12.1671
12.1904
12.2133
12.2347
12.2537
12.2692
12.2808
12.2901
12.2963
12.3039
12.312
12.2883
1
1
1
1
1
1
1
1
1
1
1
1
1
1
1
1
1
1
1
1
1
1
1
1
1
1
1
1
1
1
1
1
1
1
1
1
1
1
1
1
1
1
1
1
1
1
1
1
1
1
1
1
1
1
1
1.00002
1.00154
1.0979
6.59602
10.5436
10.8704
11.0165
11.118
11.2166
11.321
11.4063
11.4639
11.4966
11.511
11.521
11.543
11.5849
11.6452
11.7187
11.7992
11.8762
11.9444
11.9988
12.0377
12.0638
12.0806
12.0946
12.1092
12.1265
12.1465
12.1689
12.1922
12.2156
12.2366
12.2535
12.2657
12.2752
12.2815
12.2837
12.2882
12.2881
1
1
1
1
1
1
1
1
1
1
1
1
1
1
1
1
1
1
1
1
1
1
1
1
1
1
1
1
1
1
1
1
1
1
1
1
1
1
1
1
1
1
1
1
1
1
1
1
1
1
1
1
1
1
1
1.00002
1.00143
1.09091
6.23817
10.3991
10.8412
10.9828
11.0858
11.2011
11.3053
11.3925
11.4494
11.4837
11.4984
11.5111
11.5306
11.5706
11.6301
11.7035
11.7847
11.8631
11.9321
11.9866
12.0249
12.0497
12.0652
12.0775
12.0901
12.1052
12.1236
12.1457
12.1703
12.1957
12.2183
12.2356
12.2472
12.2552
12.2598
12.2579
12.2614
12.2917
1
1
1
1
1
1
1
1
1
1
1
1
1
1
1
1
1
1
1
1
1
1
1
1
1
1
1
1
1
1
1
1
1
1
1
1
1
1
1
1
1
1
1
1
1
1
1
1
1
1
1
1
1
1
1
1.00002
1.00132
1.08424
5.90206
10.1637
10.8081
10.9716
11.0617
11.1865
11.2969
11.3835
11.4334
11.466
11.4795
11.4943
11.5143
11.5551
11.6153
11.6894
11.7709
11.8495
11.9179
11.9715
12.0087
12.0324
12.0465
12.0571
12.0678
12.0812
12.0987
12.1212
12.1475
12.1747
12.1979
12.2144
12.224
12.2286
12.2326
12.2354
12.2429
12.284
1
1
1
1
1
1
1
1
1
1
1
1
1
1
1
1
1
1
1
1
1
1
1
1
1
1
1
1
1
1
1
1
1
1
1
1
1
1
1
1
1
1
1
1
1
1
1
1
1
1
1
1
1
1
1
1.00002
1.00119
1.07682
5.53153
9.88748
10.7534
10.9768
11.0531
11.1779
11.2899
11.3729
11.4156
11.4451
11.4572
11.4737
11.4962
11.5396
11.601
11.6759
11.7569
11.8347
11.9013
11.9532
11.9891
12.0115
12.0243
12.0335
12.0427
12.0549
12.0721
12.0954
12.1233
12.1515
12.174
12.1881
12.1948
12.1977
12.2044
12.2167
12.2272
12.2638
1
1
1
1
1
1
1
1
1
1
1
1
1
1
1
1
1
1
1
1
1
1
1
1
1
1
1
1
1
1
1
1
1
1
1
1
1
1
1
1
1
1
1
1
1
1
1
1
1
1
1
1
1
1
1
1.00002
1.00102
1.06721
5.05076
9.57788
10.7559
10.9957
11.0605
11.1806
11.2882
11.3564
11.3927
11.4201
11.4322
11.4508
11.4773
11.5241
11.5868
11.6619
11.7415
11.8174
11.8816
11.9314
11.966
11.9871
11.9988
12.0066
12.0146
12.0262
12.0436
12.0681
12.0969
12.1248
12.1451
12.156
12.1609
12.1656
12.1778
12.198
12.2081
12.235
1
1
1
1
1
1
1
1
1
1
1
1
1
1
1
1
1
1
1
1
1
1
1
1
1
1
1
1
1
1
1
1
1
1
1
1
1
1
1
1
1
1
1
1
1
1
1
1
1
1
1
1
1
1
1
1.00001
1.00081
1.05428
4.38418
9.2701
10.8387
10.9914
11.0968
11.1922
11.2804
11.3295
11.3646
11.3913
11.4044
11.4259
11.458
11.5084
11.5726
11.6471
11.7244
11.7976
11.8591
11.9068
11.9398
11.9594
11.9698
11.9764
11.9836
11.9952
12.0132
12.0385
12.0672
12.093
12.11
12.1184
12.1238
12.1334
12.1513
12.1752
12.1834
12.2024
1
1
1
1
1
1
1
1
1
1
1
1
1
1
1
1
1
1
1
1
1
1
1
1
1
1
1
1
1
1
1
1
1
1
1
1
1
1
1
1
1
1
1
1
1
1
1
1
1
1
1
1
1
1
1
1.00001
1.00054
1.03771
3.47235
9.07918
10.9689
11.0392
11.1082
11.1935
11.2588
11.2941
11.3305
11.3603
11.3747
11.4004
11.439
11.4929
11.5583
11.6309
11.705
11.7752
11.8339
11.8792
11.9104
11.9284
11.9376
11.9432
11.9502
11.9622
11.981
12.0065
12.0335
12.0556
12.0694
12.077
12.0855
12.101
12.1224
12.1465
12.153
12.1658
1
1
1
1
1
1
1
1
1
1
1
1
1
1
1
1
1
1
1
1
1
1
1
1
1
1
1
1
1
1
1
1
1
1
1
1
1
1
1
1
1
1
1
1
1
1
1
1
1
1
1
1
1
1
1
1
1.00028
1.02013
2.40399
8.98426
10.9969
11.0839
11.1024
11.172
11.2175
11.2576
11.2941
11.3288
11.3443
11.3758
11.4209
11.4771
11.5425
11.6121
11.6825
11.7493
11.8052
11.8483
11.8776
11.8942
11.9025
11.9076
11.9149
11.9275
11.9465
11.9707
11.9944
12.0123
12.0239
12.0329
12.0461
12.0667
12.0894
12.1129
12.1193
12.1216
1
1
1
1
1
1
1
1
1
1
1
1
1
1
1
1
1
1
1
1
1
1
1
1
1
1
1
1
1
1
1
1
1
1
1
1
1
1
1
1
1
1
1
1
1
1
1
1
1
1
1
1
1
1
1
1
1.0001
1.00733
1.53028
8.69343
10.9705
11.034
11.0769
11.1357
11.172
11.2169
11.2583
11.2935
11.315
11.3534
11.4039
11.4604
11.5234
11.5891
11.6558
11.7191
11.7723
11.8132
11.8409
11.8566
11.8644
11.8697
11.8778
11.8908
11.909
11.9304
11.95
11.9643
11.9755
11.9875
12.0054
12.0292
12.052
12.0754
12.0861
12.0613
1
1
1
1
1
1
1
1
1
1
1
1
1
1
1
1
1
1
1
1
1
1
1
1
1
1
1
1
1
1
1
1
1
1
1
1
1
1
1
1
1
1
1
1
1
1
1
1
1
1
1
1
1
1
1
1
1.00004
1.00237
1.14504
8.11066
10.7832
10.9698
11.0402
11.0766
11.1292
11.1694
11.2226
11.2509
11.2876
11.3355
11.3874
11.441
11.4991
11.5607
11.6241
11.6841
11.7349
11.7738
11.8001
11.8154
11.8235
11.8295
11.8385
11.8514
11.8678
11.8851
11.9002
11.9122
11.9245
11.9402
11.9614
11.9865
12.0095
12.0303
12.0507
11.9997
1
1
1
1
1
1
1
1
1
1
1
1
1
1
1
1
1
1
1
1
1
1
1
1
1
1
1
1
1
1
1
1
1
1
1
1
1
1
1
1
1
1
1
1
1
1
1
1
1
1
1
1
1
1
1
1
1.00003
1.00175
1.11184
7.32264
10.5277
10.9061
10.9777
11.0242
11.0682
11.1228
11.1813
11.2118
11.2662
11.3199
11.3673
11.417
11.4689
11.5271
11.5876
11.6445
11.6928
11.7299
11.7552
11.7706
11.7796
11.7869
11.7965
11.8084
11.8217
11.8344
11.8457
11.8569
11.8718
11.8908
11.9133
11.9377
11.9585
11.9675
11.9783
11.9816
1
1
1
1
1
1
1
1
1
1
1
1
1
1
1
1
1
1
1
1
1
1
1
1
1
1
1
1
1
1
1
1
1
1
1
1
1
1
1
1
1
1
1
1
1
1
1
1
1
1
1
1
1
1
1
1
1.00002
1.00151
1.09602
6.50816
10.2486
10.8227
10.8909
10.9399
11.0084
11.085
11.1252
11.1912
11.2512
11.3015
11.3405
11.3866
11.4343
11.4893
11.5465
11.6005
11.6465
11.6818
11.7063
11.7223
11.7327
11.7413
11.7509
11.7609
11.7703
11.7786
11.7872
11.799
11.8165
11.837
11.8581
11.8775
11.8929
11.8969
11.9081
11.9602
1
1
1
1
1
1
1
1
1
1
1
1
1
1
1
1
1
1
1
1
1
1
1
1
1
1
1
1
1
1
1
1
1
1
1
1
1
1
1
1
1
1
1
1
1
1
1
1
1
1
1
1
1
1
1
1
1.00002
1.00131
1.08309
5.80335
9.91832
10.6426
10.7974
10.8684
10.9567
11.0224
11.0988
11.1746
11.2304
11.2761
11.3087
11.3511
11.3969
11.4481
11.5018
11.5529
11.5966
11.6298
11.6536
11.6705
11.6823
11.6919
11.7008
11.7083
11.7134
11.7181
11.7252
11.7381
11.7573
11.7763
11.7923
11.8043
11.8173
11.8305
11.8501
11.9116
1
1
1
1
1
1
1
1
1
1
1
1
1
1
1
1
1
1
1
1
1
1
1
1
1
1
1
1
1
1
1
1
1
1
1
1
1
1
1
1
1
1
1
1
1
1
1
1
1
1
1
1
1
1
1
1
1.00002
1.00111
1.0711
5.1908
9.53817
10.5144
10.7288
10.8132
10.8961
10.9883
11.0883
11.1518
11.2055
11.2401
11.2731
11.3143
11.3563
11.4039
11.4543
11.5026
11.5435
11.5744
11.5975
11.615
11.6279
11.638
11.6457
11.6499
11.6511
11.6535
11.6598
11.673
11.6911
11.7049
11.714
11.7219
11.7387
11.765
11.7884
11.8404
1
1
1
1
1
1
1
1
1
1
1
1
1
1
1
1
1
1
1
1
1
1
1
1
1
1
1
1
1
1
1
1
1
1
1
1
1
1
1
1
1
1
1
1
1
1
1
1
1
1
1
1
1
1
1
1
1.00001
1.00084
1.05516
4.37387
9.14217
10.5025
10.6876
10.7753
10.8981
10.9984
11.0641
11.1251
11.1698
11.199
11.2346
11.2753
11.3126
11.3571
11.4048
11.4501
11.4876
11.5156
11.5378
11.5557
11.5693
11.5791
11.5848
11.5854
11.5837
11.5844
11.5898
11.6017
11.6155
11.6224
11.6269
11.6362
11.6601
11.6935
11.7131
11.7485
1
1
1
1
1
1
1
1
1
1
1
1
1
1
1
1
1
1
1
1
1
1
1
1
1
1
1
1
1
1
1
1
1
1
1
1
1
1
1
1
1
1
1
1
1
1
1
1
1
1
1
1
1
1
1
1
1.00001
1.00048
1.03336
3.18077
8.91542
10.6242
10.7394
10.8377
10.9132
10.9721
11.0346
11.0902
11.125
11.1593
11.1969
11.2299
11.2657
11.3089
11.3538
11.395
11.4282
11.4533
11.4748
11.4928
11.5063
11.5148
11.5182
11.5151
11.5109
11.5099
11.5136
11.5215
11.5287
11.5299
11.5332
11.5476
11.5773
11.611
11.6227
11.6356
1
1
1
1
1
1
1
1
1
1
1
1
1
1
1
1
1
1
1
1
1
1
1
1
1
1
1
1
1
1
1
1
1
1
1
1
1
1
1
1
1
1
1
1
1
1
1
1
1
1
1
1
1
1
1
1
1
1.00016
1.01161
1.79121
8.63585
10.7103
10.8075
10.796
10.8665
10.9376
11.002
11.0458
11.0857
11.1202
11.1554
11.18
11.2179
11.2602
11.3
11.3361
11.3647
11.3875
11.4089
11.4265
11.4388
11.4453
11.4457
11.4391
11.432
11.4288
11.429
11.4305
11.4313
11.4297
11.4355
11.4555
11.486
11.5162
11.5232
11.4874
1
1
1
1
1
1
1
1
1
1
1
1
1
1
1
1
1
1
1
1
1
1
1
1
1
1
1
1
1
1
1
1
1
1
1
1
1
1
1
1
1
1
1
1
1
1
1
1
1
1
1
1
1
1
1
1
1
1.00004
1.0026
1.15397
7.67665
10.5948
10.7466
10.7776
10.8266
10.9061
10.956
11.0074
11.0466
11.0829
11.1041
11.1347
11.1727
11.2082
11.2412
11.2733
11.2973
11.3192
11.3405
11.3569
11.3669
11.3708
11.3673
11.3568
11.3466
11.3396
11.3342
11.3288
11.3242
11.3224
11.3314
11.3526
11.3766
11.3975
11.4101
11.3169
1
1
1
1
1
1
1
1
1
1
1
1
1
1
1
1
1
1
1
1
1
1
1
1
1
1
1
1
1
1
1
1
1
1
1
1
1
1
1
1
1
1
1
1
1
1
1
1
1
1
1
1
1
1
1
1
1
1.00002
1.00144
1.09299
6.36144
10.3013
10.6887
10.7448
10.8093
10.8593
10.9157
10.9656
11.0084
11.0328
11.0625
11.0961
11.1232
11.1506
11.1787
11.2067
11.2281
11.2497
11.2697
11.2839
11.2908
11.2912
11.283
11.2683
11.2536
11.2411
11.2292
11.2172
11.2088
11.2075
11.2169
11.2332
11.243
11.2387
11.2219
11.1927
1
1
1
1
1
1
1
1
1
1
1
1
1
1
1
1
1
1
1
1
1
1
1
1
1
1
1
1
1
1
1
1
1
1
1
1
1
1
1
1
1
1
1
1
1
1
1
1
1
1
1
1
1
1
1
1
1
1.00002
1.00106
1.06893
5.12564
9.91694
10.6226
10.6935
10.7578
10.8196
10.8684
10.9163
10.9512
10.9945
11.0291
11.0493
11.0673
11.0896
11.1145
11.1381
11.1589
11.1792
11.1963
11.207
11.211
11.2068
11.1925
11.1728
11.1525
11.1334
11.1141
11.0959
11.0841
11.0811
11.0833
11.0835
11.0701
11.0368
11.0029
11.0707
1
1
1
1
1
1
1
1
1
1
1
1
1
1
1
1
1
1
1
1
1
1
1
1
1
1
1
1
1
1
1
1
1
1
1
1
1
1
1
1
1
1
1
1
1
1
1
1
1
1
1
1
1
1
1
1
1
1.00001
1.00069
1.04625
3.86785
9.58418
10.4972
10.6365
10.7089
10.7674
10.8041
10.8591
10.9211
10.9581
10.9802
10.9936
11.0093
11.0266
11.0503
11.0697
11.0893
11.107
11.1204
11.1269
11.1267
11.1167
11.0966
11.0712
11.0443
11.0175
10.9904
10.9651
10.9475
10.937
10.9254
10.9016
10.8624
10.8197
10.7843
10.8555
1
1
1
1
1
1
1
1
1
1
1
1
1
1
1
1
1
1
1
1
1
1
1
1
1
1
1
1
1
1
1
1
1
1
1
1
1
1
1
1
1
1
1
1
1
1
1
1
1
1
1
1
1
1
1
1
1
1
1.00033
1.02251
2.46515
9.19262
10.418
10.5715
10.6565
10.7205
10.7838
10.8354
10.8759
10.905
10.9218
10.9364
10.9471
10.9653
10.9836
11.001
11.0184
11.0328
11.0416
11.0433
11.0375
11.0206
10.9952
10.9641
10.9298
10.8947
10.8582
10.8236
10.7956
10.7707
10.7369
10.6835
10.6202
10.5732
10.5137
10.5435
1
1
1
1
1
1
1
1
1
1
1
1
1
1
1
1
1
1
1
1
1
1
1
1
1
1
1
1
1
1
1
1
1
1
1
1
1
1
1
1
1
1
1
1
1
1
1
1
1
1
1
1
1
1
1
1
1
1
1.00008
1.00523
1.26918
8.19526
10.2404
10.5859
10.6486
10.6906
10.7367
10.7878
10.8271
10.85
10.8659
10.8747
10.8865
10.9005
10.9148
10.9306
10.9456
10.956
10.959
10.9543
10.9422
10.9199
10.8893
10.8523
10.8108
10.7659
10.7181
10.6706
10.6265
10.5801
10.5188
10.4363
10.3437
10.2598
10.1744
10.068
1
1
1
1
1
1
1
1
1
1
1
1
1
1
1
1
1
1
1
1
1
1
1
1
1
1
1
1
1
1
1
1
1
1
1
1
1
1
1
1
1
1
1
1
1
1
1
1
1
1
1
1
1
1
1
1
1
1
1.00003
1.00163
1.10209
6.5569
9.86765
10.5431
10.6264
10.6692
10.7127
10.7537
10.783
10.799
10.8076
10.8152
10.823
10.8313
10.8439
10.8581
10.8702
10.874
10.8703
10.8596
10.8417
10.8146
10.7794
10.7366
10.6872
10.6313
10.5698
10.5056
10.4403
10.367
10.2733
10.1511
10.0015
9.81823
9.58881
9.46196
1
1
1
1
1
1
1
1
1
1
1
1
1
1
1
1
1
1
1
1
1
1
1
1
1
1
1
1
1
1
1
1
1
1
1
1
1
1
1
1
1
1
1
1
1
1
1
1
1
1
1
1
1
1
1
1
1
1
1.00002
1.00099
1.06613
4.99488
9.45239
10.4796
10.5557
10.6161
10.6662
10.7051
10.7284
10.7413
10.7475
10.7522
10.7522
10.7595
10.7724
10.7839
10.7882
10.7851
10.7755
10.7599
10.7366
10.7056
10.6658
10.6169
10.5591
10.4912
10.4142
10.3302
10.2394
10.1341
10.0002
9.82357
9.59421
9.29612
8.84012
8.24618
1
1
1
1
1
1
1
1
1
1
1
1
1
1
1
1
1
1
1
1
1
1
1
1
1
1
1
1
1
1
1
1
1
1
1
1
1
1
1
1
1
1
1
1
1
1
1
1
1
1
1
1
1
1
1
1
1
1
1.00001
1.00052
1.03592
3.31356
9.20435
10.4784
10.478
10.53
10.5948
10.6429
10.6609
10.672
10.6799
10.6802
10.6834
10.6916
10.6997
10.7023
10.6996
10.6918
10.6771
10.6564
10.6281
10.5928
10.5485
10.4931
10.426
10.3455
10.2517
10.1459
10.0267
9.88555
9.70505
9.46274
9.12648
8.62323
7.67667
5.56917
1
1
1
1
1
1
1
1
1
1
1
1
1
1
1
1
1
1
1
1
1
1
1
1
1
1
1
1
1
1
1
1
1
1
1
1
1
1
1
1
1
1
1
1
1
1
1
1
1
1
1
1
1
1
1
1
1
1
1
1.00015
1.01005
1.61703
8.55395
10.4079
10.4348
10.4518
10.5202
10.5708
10.5861
10.6017
10.6126
10.6165
10.6206
10.6251
10.625
10.6206
10.6114
10.5981
10.5772
10.5505
10.5168
10.477
10.427
10.3648
10.2879
10.1947
10.0842
9.95613
9.80779
9.62879
9.3993
9.08662
8.63983
7.93231
6.72526
4.67348
1
1
1
1
1
1
1
1
1
1
1
1
1
1
1
1
1
1
1
1
1
1
1
1
1
1
1
1
1
1
1
1
1
1
1
1
1
1
1
1
1
1
1
1
1
1
1
1
1
1
1
1
1
1
1
1
1
1
1
1.00003
1.0021
1.12597
6.92152
10.0168
10.3316
10.3928
10.4609
10.4943
10.5102
10.5361
10.5519
10.5588
10.5619
10.562
10.5539
10.5415
10.5255
10.5051
10.4775
10.4445
10.405
10.3596
10.3028
10.2327
10.1459
10.0403
9.91372
9.7644
9.58777
9.37302
9.0968
8.72363
8.19377
7.39809
6.18375
4.40288
1
1
1
1
1
1
1
1
1
1
1
1
1
1
1
1
1
1
1
1
1
1
1
1
1
1
1
1
1
1
1
1
1
1
1
1
1
1
1
1
1
1
1
1
1
1
1
1
1
1
1
1
1
1
1
1
1
1
1
1.00002
1.00102
1.06797
5.05249
9.50735
10.3243
10.4092
10.4313
10.4359
10.4523
10.4771
10.4906
10.4977
10.5013
10.4983
10.4839
10.4627
10.4394
10.4117
10.3782
10.3396
10.2937
10.2418
10.1774
10.0987
10.002
9.88469
9.74353
9.57494
9.37285
9.12619
8.81247
8.39694
7.8341
7.05365
6.06398
4.83069
1
1
1
1
1
1
1
1
1
1
1
1
1
1
1
1
1
1
1
1
1
1
1
1
1
1
1
1
1
1
1
1
1
1
1
1
1
1
1
1
1
1
1
1
1
1
1
1
1
1
1
1
1
1
1
1
1
1
1
1.00001
1.00048
1.03275
3.05285
9.08427
10.3733
10.3952
10.3828
10.3743
10.385
10.4022
10.4144
10.427
10.4361
10.4318
10.4123
10.3837
10.3532
10.3193
10.2807
10.237
10.1852
10.1262
10.0536
9.96586
9.85924
9.73084
9.57655
9.39134
9.16829
8.89651
8.5582
8.12287
7.56832
6.84217
6.00441
4.97943
1
1
1
1
1
1
1
1
1
1
1
1
1
1
1
1
1
1
1
1
1
1
1
1
1
1
1
1
1
1
1
1
1
1
1
1
1
1
1
1
1
1
1
1
1
1
1
1
1
1
1
1
1
1
1
1
1
1
1
1
1.00012
1.00792
1.41957
8.03615
10.2942
10.3361
10.3031
10.29
10.3057
10.3185
10.3317
10.3523
10.3666
10.3592
10.3361
10.3034
10.2675
10.227
10.1842
10.1361
10.0791
10.0128
9.93218
9.83539
9.71926
9.58082
9.41525
9.21639
8.9774
8.68779
8.33657
7.8973
7.36746
6.70448
5.95787
5.08191
1
1
1
1
1
1
1
1
1
1
1
1
1
1
1
1
1
1
1
1
1
1
1
1
1
1
1
1
1
1
1
1
1
1
1
1
1
1
1
1
1
1
1
1
1
1
1
1
1
1
1
1
1
1
1
1
1
1
1
1
1.00003
1.00173
1.10196
6.13166
9.90077
10.2656
10.2382
10.2234
10.2369
10.2381
10.2512
10.2761
10.2928
10.2837
10.2578
10.2211
10.1799
10.1357
10.0881
10.0359
9.97414
9.90129
9.8133
9.70827
9.58357
9.43634
9.26152
9.05245
8.80327
8.50359
8.14926
7.71791
7.21719
6.61503
5.92931
5.16498
1
1
1
1
1
1
1
1
1
1
1
1
1
1
1
1
1
1
1
1
1
1
1
1
1
1
1
1
1
1
1
1
1
1
1
1
1
1
1
1
1
1
1
1
1
1
1
1
1
1
1
1
1
1
1
1
1
1
1
1
1.00001
1.00083
1.05498
4.32151
9.40188
10.1535
10.1686
10.1775
10.1762
10.1642
10.1759
10.1973
10.2136
10.2012
10.175
10.1377
10.0939
10.0467
9.99388
9.93731
9.87041
9.79147
9.69673
9.5844
9.45242
9.29784
9.11577
8.89942
8.64458
8.34085
7.98932
7.57228
7.09742
6.54847
5.91739
5.24047
1
1
1
1
1
1
1
1
1
1
1
1
1
1
1
1
1
1
1
1
1
1
1
1
1
1
1
1
1
1
1
1
1
1
1
1
1
1
1
1
1
1
1
1
1
1
1
1
1
1
1
1
1
1
1
1
1
1
1
1
1.00001
1.00036
1.02383
2.47233
8.8225
10.0147
10.087
10.1278
10.1158
10.1062
10.1163
10.1264
10.1364
10.1224
10.096
10.0573
10.0115
9.95957
9.90275
9.84103
9.76836
9.68304
9.58188
9.46343
9.32572
9.16533
8.97808
8.75768
8.50176
8.20017
7.85633
7.45757
7.00565
6.50083
5.92533
5.31207
1
1
1
1
1
1
1
1
1
1
1
1
1
1
1
1
1
1
1
1
1
1
1
1
1
1
1
1
1
1
1
1
1
1
1
1
1
1
1
1
1
1
1
1
1
1
1
1
1
1
1
1
1
1
1
1
1
1
1
1
1
1.00008
1.005
1.24111
7.32664
9.66871
10.0271
10.0912
10.0728
10.0646
10.071
10.0705
10.0693
10.0525
10.0223
9.98063
9.93255
9.87626
9.81501
9.74764
9.66814
9.57611
9.4694
9.3464
9.20422
9.03928
8.84861
8.62636
8.37169
8.07522
7.74053
7.36049
6.93023
6.46252
5.93697
5.38565
1
1
1
1
1
1
1
1
1
1
1
1
1
1
1
1
1
1
1
1
1
1
1
1
1
1
1
1
1
1
1
1
1
1
1
1
1
1
1
1
1
1
1
1
1
1
1
1
1
1
1
1
1
1
1
1
1
1
1
1
1
1.00002
1.00119
1.07484
5.13108
9.22281
9.99482
10.0467
10.0258
10.0254
10.0269
10.0191
10.0052
9.98138
9.94748
9.90311
9.85289
9.79431
9.72838
9.65564
9.56988
9.47194
9.3604
9.23338
9.08743
8.91933
8.72701
8.50507
8.25393
7.96585
7.64285
7.2816
6.87474
6.43886
5.95802
5.45897
1
1
1
1
1
1
1
1
1
1
1
1
1
1
1
1
1
1
1
1
1
1
1
1
1
1
1
1
1
1
1
1
1
1
1
1
1
1
1
1
1
1
1
1
1
1
1
1
1
1
1
1
1
1
1
1
1
1
1
1
1
1.00001
1.00043
1.03029
2.91541
8.93672
9.88469
9.9697
9.96954
9.97372
9.96975
9.95663
9.93388
9.90846
9.87264
9.82848
9.77671
9.71601
9.64657
9.56865
9.47726
9.3736
9.25714
9.12612
8.97699
8.80681
8.6141
8.39394
8.14685
7.86736
7.55549
7.21136
6.82931
6.41923
5.97952
5.5179
1
1
1
1
1
1
1
1
1
1
1
1
1
1
1
1
1
1
1
1
1
1
1
1
1
1
1
1
1
1
1
1
1
1
1
1
1
1
1
1
1
1
1
1
1
1
1
1
1
1
1
1
1
1
1
1
1
1
1
1
1
1
1.00009
1.00598
1.29999
7.57985
9.55347
9.90478
9.92229
9.93024
9.91938
9.90175
9.8738
9.84264
9.80141
9.75556
9.70008
9.63657
9.56413
9.48175
9.38549
9.27732
9.15694
9.02233
8.87068
8.69969
8.50799
8.29133
8.04955
7.78
7.48107
7.15332
6.7962
6.40795
6.00592
5.57202
1
1
1
1
1
1
1
1
1
1
1
1
1
1
1
1
1
1
1
1
1
1
1
1
1
1
1
1
1
1
1
1
1
1
1
1
1
1
1
1
1
1
1
1
1
1
1
1
1
1
1
1
1
1
1
1
1
1
1
1
1
1
1.00002
1.00121
1.07663
5.11825
9.10886
9.88693
9.87513
9.86652
9.85473
9.83373
9.804
9.77006
9.72798
9.68039
9.62309
9.5581
9.48346
9.39719
9.29812
9.18737
9.06381
8.92563
8.77186
8.60073
8.41049
8.19822
7.96188
7.70177
7.4146
7.10122
6.76713
6.39892
6.02936
5.62219
1
1
1
1
1
1
1
1
1
1
1
1
1
1
1
1
1
1
1
1
1
1
1
1
1
1
1
1
1
1
1
1
1
1
1
1
1
1
1
1
1
1
1
1
1
1
1
1
1
1
1
1
1
1
1
1
1
1
1
1
1
1
1.00001
1.00037
1.02618
2.62679
8.721
9.83961
9.82035
9.80069
9.78757
9.76008
9.72883
9.69844
9.65734
9.60872
9.55192
9.48489
9.40746
9.31734
9.21522
9.10144
8.97456
8.83289
8.67699
8.50565
8.31685
8.10973
7.87998
7.63047
7.35661
7.05839
6.74546
6.39782
6.05389
5.67211
1
1
1
1
1
1
1
1
1
1
1
1
1
1
1
1
1
1
1
1
1
1
1
1
1
1
1
1
1
1
1
1
1
1
1
1
1
1
1
1
1
1
1
1
1
1
1
1
1
1
1
1
1
1
1
1
1
1
1
1
1
1
1
1.00007
1.0046
1.23442
7.01207
9.45713
9.7677
9.77017
9.75572
9.72057
9.68031
9.64398
9.59567
9.54123
9.48072
9.41042
9.33001
9.23709
9.13412
9.01914
8.89054
8.7468
8.58972
8.41873
8.23163
8.02983
7.80686
7.56718
7.30518
7.0209
6.72486
6.39751
6.07364
5.71658
1
1
1
1
1
1
1
1
1
1
1
1
1
1
1
1
1
1
1
1
1
1
1
1
1
1
1
1
1
1
1
1
1
1
1
1
1
1
1
1
1
1
1
1
1
1
1
1
1
1
1
1
1
1
1
1
1
1
1
1
1
1
1
1.00001
1.00091
1.06
4.38478
9.00595
9.73592
9.72834
9.71411
9.67418
9.62778
9.58552
9.52934
9.47053
9.40613
9.33336
9.25108
9.15852
9.05685
8.94135
8.81189
8.66724
8.50942
8.33821
8.1512
7.95273
7.73564
7.50561
7.25615
6.98719
6.70739
6.40128
6.09336
5.7615
1
1
1
1
1
1
1
1
1
1
1
1
1
1
1
1
1
1
1
1
1
1
1
1
1
1
1
1
1
1
1
1
1
1
1
1
1
1
1
1
1
1
1
1
1
1
1
1
1
1
1
1
1
1
1
1
1
1
1
1
1
1
1
1
1.0002
1.01415
1.82712
8.09664
9.67191
9.65023
9.62798
9.59267
9.56188
9.52577
9.46796
9.40828
9.34048
9.26366
9.17725
9.08282
8.98028
8.86427
8.73519
8.59117
8.43382
8.26343
8.07755
7.88292
7.67266
7.45138
7.21278
6.95691
6.68962
6.40191
6.10663
5.79836
1
1
1
1
1
1
1
1
1
1
1
1
1
1
1
1
1
1
1
1
1
1
1
1
1
1
1
1
1
1
1
1
1
1
1
1
1
1
1
1
1
1
1
1
1
1
1
1
1
1
1
1
1
1
1
1
1
1
1
1
1
1
1
1
1.00003
1.00215
1.11814
5.66438
9.1413
9.59716
9.57898
9.54226
9.51273
9.47308
9.4099
9.34767
9.2756
9.19434
9.10293
9.00696
8.90513
8.78958
8.66218
8.52059
8.36559
8.19755
8.01341
7.82088
7.61477
7.39893
7.16891
6.9251
6.67163
6.40088
6.12504
5.83097
1
1
1
1
1
1
1
1
1
1
1
1
1
1
1
1
1
1
1
1
1
1
1
1
1
1
1
1
1
1
1
1
1
1
1
1
1
1
1
1
1
1
1
1
1
1
1
1
1
1
1
1
1
1
1
1
1
1
1
1
1
1
1
1
1.00001
1.00049
1.03359
2.98711
8.59411
9.61652
9.54028
9.49796
9.45289
9.40503
9.34324
9.28294
9.21483
9.13453
9.04156
8.94461
8.84064
8.72273
8.59467
8.45395
8.30019
8.13439
7.95291
7.76348
7.56298
7.35297
7.13218
6.89788
6.65646
6.39622
6.13775
5.85359
1
1
1
1
1
1
1
1
1
1
1
1
1
1
1
1
1
1
1
1
1
1
1
1
1
1
1
1
1
1
1
1
1
1
1
1
1
1
1
1
1
1
1
1
1
1
1
1
1
1
1
1
1
1
1
1
1
1
1
1
1
1
1
1
1
1.0001
1.00604
1.29627
6.8597
9.36558
9.48624
9.44679
9.38804
9.33207
9.2759
9.21882
9.15553
9.07913
8.98637
8.88628
8.77904
8.65868
8.52953
8.38959
8.23809
8.07627
7.90016
7.7155
7.5208
7.31498
7.09956
6.87107
6.6399
6.39
6.1491
5.87461
1
1
1
1
1
1
1
1
1
1
1
1
1
1
1
1
1
1
1
1
1
1
1
1
1
1
1
1
1
1
1
1
1
1
1
1
1
1
1
1
1
1
1
1
1
1
1
1
1
1
1
1
1
1
1
1
1
1
1
1
1
1
1
1
1
1.00002
1.001
1.06142
4.20827
8.95032
9.43375
9.38778
9.32729
9.25863
9.19724
9.14149
9.08092
9.00879
8.92198
8.82753
8.72214
8.60226
8.47308
8.3333
8.18212
8.02176
7.84888
7.6679
7.47939
7.27811
7.07115
6.84926
6.63031
6.38696
6.15821
5.89443
1
1
1
1
1
1
1
1
1
1
1
1
1
1
1
1
1
1
1
1
1
1
1
1
1
1
1
1
1
1
1
1
1
1
1
1
1
1
1
1
1
1
1
1
1
1
1
1
1
1
1
1
1
1
1
1
1
1
1
1
1
1
1
1
1
1
1.00021
1.01394
1.76953
7.95585
9.3075
9.29611
9.26011
9.19102
9.12498
9.06731
9.00528
8.9364
8.8578
8.76939
8.666
8.54733
8.4182
8.27805
8.12652
7.96727
7.79845
7.62368
7.44293
7.24929
7.05019
6.83267
6.6214
6.38358
6.16623
5.91486
1
1
1
1
1
1
1
1
1
1
1
1
1
1
1
1
1
1
1
1
1
1
1
1
1
1
1
1
1
1
1
1
1
1
1
1
1
1
1
1
1
1
1
1
1
1
1
1
1
1
1
1
1
1
1
1
1
1
1
1
1
1
1
1
1
1
1.00003
1.00207
1.11039
5.29012
8.76966
9.21978
9.20852
9.14818
9.07995
9.00993
8.93847
8.86299
8.78254
8.69669
8.59867
8.48648
8.36287
8.22737
8.07945
7.92278
7.75629
7.58316
7.40703
7.21723
7.02635
6.8152
6.61365
6.38614
6.17846
5.93437
1
1
1
1
1
1
1
1
1
1
1
1
1
1
1
1
1
1
1
1
1
1
1
1
1
1
1
1
1
1
1
1
1
1
1
1
1
1
1
1
1
1
1
1
1
1
1
1
1
1
1
1
1
1
1
1
1
1
1
1
1
1
1
1
1
1
1.00001
1.00038
1.02576
2.44966
8.23996
9.14606
9.1603
9.11277
9.0511
8.97518
8.89231
8.80202
8.71732
8.63224
8.537
8.42999
8.31137
8.18044
8.03474
7.87862
7.71308
7.54268
7.37107
7.18806
7.00782
6.80402
6.61082
6.38993
6.18803
5.95153
1
1
1
1
1
1
1
1
1
1
1
1
1
1
1
1
1
1
1
1
1
1
1
1
1
1
1
1
1
1
1
1
1
1
1
1
1
1
1
1
1
1
1
1
1
1
1
1
1
1
1
1
1
1
1
1
1
1
1
1
1
1
1
1
1
1
1
1.00006
1.0038
1.19296
6.04141
8.68358
9.08726
9.08939
9.04308
8.96085
8.86186
8.75462
8.6596
8.56895
8.47185
8.36721
8.25393
8.13005
7.99165
7.84177
7.68194
7.51471
7.3459
7.16404
6.98744
6.79025
6.60359
6.39271
6.20227
5.97393
1
1
1
1
1
1
1
1
1
1
1
1
1
1
1
1
1
1
1
1
1
1
1
1
1
1
1
1
1
1
1
1
1
1
1
1
1
1
1
1
1
1
1
1
1
1
1
1
1
1
1
1
1
1
1
1
1
1
1
1
1
1
1
1
1
1
1
1.00001
1.00057
1.03706
2.96663
8.2475
9.06017
9.06154
9.02035
8.93908
8.83469
8.71672
8.61246
8.51398
8.41257
8.30992
8.20193
8.08516
7.9539
7.80781
7.64974
7.48447
7.31825
7.13843
6.96838
6.77948
6.60276
6.39973
6.21461
5.99204
1
1
1
1
1
1
1
1
1
1
1
1
1
1
1
1
1
1
1
1
1
1
1
1
1
1
1
1
1
1
1
1
1
1
1
1
1
1
1
1
1
1
1
1
1
1
1
1
1
1
1
1
1
1
1
1
1
1
1
1
1
1
1
1
1
1
1
1
1.00008
1.00542
1.27646
6.39118
8.70579
8.98688
8.96797
8.89767
8.80538
8.68973
8.57826
8.47255
8.36463
8.25798
8.14925
8.03648
7.91134
7.77182
7.62224
7.46348
7.3021
7.12445
6.95742
6.77109
6.59853
6.40148
6.22518
6.0124
1
1
1
1
1
1
1
1
1
1
1
1
1
1
1
1
1
1
1
1
1
1
1
1
1
1
1
1
1
1
1
1
1
1
1
1
1
1
1
1
1
1
1
1
1
1
1
1
1
1
1
1
1
1
1
1
1
1
1
1
1
1
1
1
1
1
1
1
1.00001
1.00071
1.04533
3.25788
8.26192
8.91434
8.90247
8.84591
8.7614
8.65102
8.54238
8.43313
8.31845
8.20876
8.10194
7.99365
7.87558
7.74174
7.59623
7.44037
7.28256
7.10669
6.94294
6.76172
6.59719
6.40779
6.23789
6.03058
1
1
1
1
1
1
1
1
1
1
1
1
1
1
1
1
1
1
1
1
1
1
1
1
1
1
1
1
1
1
1
1
1
1
1
1
1
1
1
1
1
1
1
1
1
1
1
1
1
1
1
1
1
1
1
1
1
1
1
1
1
1
1
1
1
1
1
1
1
1.0001
1.00636
1.33242
6.39079
8.58416
8.80867
8.78756
8.7186
8.61757
8.51455
8.40404
8.28602
8.17353
8.06206
7.95277
7.83691
7.70668
7.56859
7.4205
7.26951
7.09743
6.9389
6.76081
6.59832
6.41138
6.2471
6.04653
1
1
1
1
1
1
1
1
1
1
1
1
1
1
1
1
1
1
1
1
1
1
1
1
1
1
1
1
1
1
1
1
1
1
1
1
1
1
1
1
1
1
1
1
1
1
1
1
1
1
1
1
1
1
1
1
1
1
1
1
1
1
1
1
1
1
1
1
1
1.00001
1.00074
1.04636
3.16009
8.14753
8.74948
8.72237
8.6739
8.58326
8.4814
8.37347
8.25326
8.13678
8.02482
7.91718
7.80569
7.68016
7.54627
7.40111
7.25419
7.08504
6.92996
6.7551
6.59793
6.41661
6.25974
6.06501
1
1
1
1
1
1
1
1
1
1
1
1
1
1
1
1
1
1
1
1
1
1
1
1
1
1
1
1
1
1
1
1
1
1
1
1
1
1
1
1
1
1
1
1
1
1
1
1
1
1
1
1
1
1
1
1
1
1
1
1
1
1
1
1
1
1
1
1
1
1
1.00009
1.00592
1.30899
6.09116
8.42317
8.62656
8.60942
8.53801
8.44736
8.34318
8.2274
8.11293
7.99852
7.88783
7.77549
7.6508
7.52072
7.38141
7.24116
7.07714
6.92791
6.757
6.60302
6.42317
6.27009
6.08043
1
1
1
1
1
1
1
1
1
1
1
1
1
1
1
1
1
1
1
1
1
1
1
1
1
1
1
1
1
1
1
1
1
1
1
1
1
1
1
1
1
1
1
1
1
1
1
1
1
1
1
1
1
1
1
1
1
1
1
1
1
1
1
1
1
1
1
1
1
1
1.00001
1.00063
1.03935
2.76352
7.93317
8.63461
8.55124
8.49569
8.4146
8.31752
8.20273
8.08528
7.97061
7.86089
7.75152
7.63097
7.50292
7.36535
7.2282
7.06769
6.92199
6.75389
6.60429
6.42782
6.28232
6.0984
1
1
1
1
1
1
1
1
1
1
1
1
1
1
1
1
1
1
1
1
1
1
1
1
1
1
1
1
1
1
1
1
1
1
1
1
1
1
1
1
1
1
1
1
1
1
1
1
1
1
1
1
1
1
1
1
1
1
1
1
1
1
1
1
1
1
1
1
1
1
1
1.00007
1.00455
1.23349
5.62533
8.25047
8.47898
8.44127
8.37813
8.28777
8.18158
8.06833
7.95633
7.84181
7.73011
7.60956
7.48208
7.34767
7.21429
7.05991
6.91946
6.75558
6.61102
6.43643
6.29468
6.11411
1
1
1
1
1
1
1
1
1
1
1
1
1
1
1
1
1
1
1
1
1
1
1
1
1
1
1
1
1
1
1
1
1
1
1
1
1
1
1
1
1
1
1
1
1
1
1
1
1
1
1
1
1
1
1
1
1
1
1
1
1
1
1
1
1
1
1
1
1
1
1
1.00001
1.00047
1.02936
2.30496
7.59197
8.51726
8.41206
8.34596
8.26757
8.1608
8.04563
7.93418
7.82183
7.7128
7.59697
7.46963
7.33599
7.20227
7.05429
6.91416
6.7534
6.61278
6.44057
6.30741
6.13005
1
1
1
1
1
1
1
1
1
1
1
1
1
1
1
1
1
1
1
1
1
1
1
1
1
1
1
1
1
1
1
1
1
1
1
1
1
1
1
1
1
1
1
1
1
1
1
1
1
1
1
1
1
1
1
1
1
1
1
1
1
1
1
1
1
1
1
1
1
1
1
1
1.00005
1.0032
1.16264
4.97286
8.081
8.32962
8.30563
8.23784
8.14602
8.038
7.92702
7.81157
7.69813
7.58109
7.45319
7.32237
7.18805
7.04922
6.90796
6.75612
6.61869
6.44926
6.32079
6.14336
1
1
1
1
1
1
1
1
1
1
1
1
1
1
1
1
1
1
1
1
1
1
1
1
1
1
1
1
1
1
1
1
1
1
1
1
1
1
1
1
1
1
1
1
1
1
1
1
1
1
1
1
1
1
1
1
1
1
1
1
1
1
1
1
1
1
1
1
1
1
1
1
1.00001
1.00032
1.02014
1.91173
7.01284
8.36194
8.31253
8.23423
8.13332
8.02166
7.90531
7.79854
7.68478
7.57096
7.44602
7.31485
7.17905
7.04795
6.90099
6.75965
6.61839
6.45544
6.3334
6.15598
1
1
1
1
1
1
1
1
1
1
1
1
1
1
1
1
1
1
1
1
1
1
1
1
1
1
1
1
1
1
1
1
1
1
1
1
1
1
1
1
1
1
1
1
1
1
1
1
1
1
1
1
1
1
1
1
1
1
1
1
1
1
1
1
1
1
1
1
1
1
1
1
1
1.00003
1.00199
1.10434
3.9819
7.97994
8.30573
8.20774
8.11872
8.01346
7.89989
7.78983
7.67018
7.55378
7.42975
7.30149
7.16902
7.04505
6.89638
6.76791
6.61823
6.46955
6.3455
6.16906
1
1
1
1
1
1
1
1
1
1
1
1
1
1
1
1
1
1
1
1
1
1
1
1
1
1
1
1
1
1
1
1
1
1
1
1
1
1
1
1
1
1
1
1
1
1
1
1
1
1
1
1
1
1
1
1
1
1
1
1
1
1
1
1
1
1
1
1
1
1
1
1
1
1
1.00019
1.0114
1.51743
6.24552
8.14486
8.16211
8.09891
7.9957
7.88203
7.7679
7.6543
7.54257
7.42572
7.29908
7.16888
7.04328
6.8977
6.77391
6.61459
6.48754
6.35119
6.1881
1
1
1
1
1
1
1
1
1
1
1
1
1
1
1
1
1
1
1
1
1
1
1
1
1
1
1
1
1
1
1
1
1
1
1
1
1
1
1
1
1
1
1
1
1
1
1
1
1
1
1
1
1
1
1
1
1
1
1
1
1
1
1
1
1
1
1
1
1
1
1
1
1
1
1.00002
1.001
1.05573
2.86346
7.64742
8.13547
8.09483
7.99261
7.87289
7.75385
7.63779
7.52542
7.4128
7.29006
7.16803
7.03866
6.90411
6.779
6.62103
6.50848
6.35308
6.2095
1
1
1
1
1
1
1
1
1
1
1
1
1
1
1
1
1
1
1
1
1
1
1
1
1
1
1
1
1
1
1
1
1
1
1
1
1
1
1
1
1
1
1
1
1
1
1
1
1
1
1
1
1
1
1
1
1
1
1
1
1
1
1
1
1
1
1
1
1
1
1
1
1
1
1
1.00009
1.0055
1.25147
5.29144
7.76776
8.01212
7.95136
7.83814
7.73486
7.63161
7.5211
7.41172
7.29072
7.16969
7.03444
6.91261
6.77636
6.63022
6.52045
6.35768
6.23293
1
1
1
1
1
1
1
1
1
1
1
1
1
1
1
1
1
1
1
1
1
1
1
1
1
1
1
1
1
1
1
1
1
1
1
1
1
1
1
1
1
1
1
1
1
1
1
1
1
1
1
1
1
1
1
1
1
1
1
1
1
1
1
1
1
1
1
1
1
1
1
1
1
1
1