/*--------------------------------*- C++ -*----------------------------------*\
| =========                 |                                                 |
| \\      /  F ield         | OpenFOAM: The Open Source CFD Toolbox           |
|  \\    /   O peration     | Version:  v1812                                 |
|   \\  /    A nd           | Web:      www.OpenFOAM.com                      |
|    \\/     M anipulation  |                                                 |
\*---------------------------------------------------------------------------*/
FoamFile
{
    version     2.0;
    format      ascii;
    class       surfaceScalarField;
    location    "0.7";
    object      phi;
}
// * * * * * * * * * * * * * * * * * * * * * * * * * * * * * * * * * * * * * //

dimensions      [1 0 -1 0 0 0 0];
oriented        oriented;


internalField   nonuniform List<scalar> 
128384
(
0.00262501
2.71051e-19
0.00262501
-7.04731e-19
0.00262501
0
0.00262501
1.0842e-19
0.00262501
2.54788e-18
0.00262501
-2.1684e-19
0.00262501
7.04731e-19
0.00262501
1.0842e-18
0.00262501
1.0842e-19
0.00262501
-8.13152e-19
0.00262501
-3.25261e-19
0.00262501
-6.50521e-19
0.00262501
-5.42101e-19
0.00262501
-2.71051e-18
0.00262501
3.25261e-19
0.00262501
-1.40946e-18
0.00262501
-6.50521e-19
0.00262501
-8.67362e-19
0.00262501
-1.95156e-18
0.00262501
0
0.00262501
-3.25261e-19
0.00262501
1.57209e-18
0.00262501
-1.78893e-18
0.00262501
-1.30104e-18
0.00262501
1.02999e-18
0.00262501
-5.42101e-19
0.00262501
-8.13152e-19
0.00262501
8.67362e-19
0.00262501
9.21572e-19
0.00262501
-3.79471e-19
0.00262501
-1.40946e-18
0.00262501
7.04731e-19
0.00262501
-2.1684e-19
0.00262501
-8.67362e-19
0.00262501
2.71051e-19
0.00262501
1.30104e-18
0.00262501
-1.19262e-18
0.00262501
-1.24683e-18
0.00262501
-2.00577e-18
0.00262501
8.67362e-19
0.00262501
4.11997e-18
0.00262501
2.05998e-18
0.00262501
2.71051e-19
0.00262501
5.42101e-20
0.00262501
2.1684e-19
0.00262501
0
0.00262501
5.42101e-20
0.00262501
4.33681e-19
0.00262501
1.13841e-18
0.00262501
1.46367e-18
0.00262501
-9.21572e-19
0.00262501
1.51788e-18
0.00262501
-8.51099e-17
0.00262501
1.83063e-14
0.00262501
-5.19853e-13
0.00262501
6.41141e-11
0.00262486
1.1346e-10
0.00261633
1.21902e-07
0.00243037
1.94916e-05
0.00254612
-0.000121899
0.00242554
0.000120457
0.0022753
0.0001442
0.00217061
9.43044e-05
0.00211743
3.46512e-05
0.00207368
2.40376e-05
0.00201327
4.27175e-05
0.00191305
8.32915e-05
0.00177513
0.000124982
0.00164458
0.000126005
0.00156078
8.78804e-05
0.00152829
4.07356e-05
0.00151511
1.98068e-05
0.00149414
2.44996e-05
0.00145585
4.03592e-05
0.00140204
5.49234e-05
0.00134229
6.08087e-05
0.00128264
6.19191e-05
0.00122453
6.25917e-05
0.00116781
6.37538e-05
0.00111003
6.70184e-05
0.00104793
7.23124e-05
0.000979754
7.7408e-05
0.000905416
8.01031e-05
0.000824811
8.03863e-05
0.00073813
7.92712e-05
0.000646269
7.7877e-05
0.000552025
7.67412e-05
0.00045892
7.55173e-05
0.000369678
7.35477e-05
0.000286722
7.02058e-05
0.000212326
6.52672e-05
0.000149116
5.91099e-05
9.87636e-05
5.1834e-05
5.84776e-05
4.6542e-05
2.48936e-05
4.24105e-05
3.48173e-05
0.00262501
2.71051e-19
0.00262501
3.25261e-19
0.00262501
1.30104e-18
0.00262501
-1.24683e-18
0.00262501
-4.17418e-18
0.00262501
-1.6263e-19
0.00262501
-3.79471e-19
0.00262501
7.04731e-19
0.00262501
5.42101e-19
0.00262501
1.0842e-18
0.00262501
2.71051e-19
0.00262501
-5.42101e-19
0.00262501
-3.25261e-19
0.00262501
-5.42101e-20
0.00262501
-9.21572e-19
0.00262501
-4.33681e-19
0.00262501
-1.35525e-18
0.00262501
2.1684e-19
0.00262501
5.42101e-19
0.00262501
-2.1684e-19
0.00262501
-4.33681e-19
0.00262501
-2.00577e-18
0.00262501
8.67362e-19
0.00262501
8.67362e-19
0.00262501
1.95156e-18
0.00262501
-2.71051e-19
0.00262501
-5.42101e-20
0.00262501
-1.6263e-19
0.00262501
-1.0842e-19
0.00262501
-1.6263e-19
0.00262501
2.1684e-19
0.00262501
5.96311e-19
0.00262501
1.24683e-18
0.00262501
2.11419e-18
0.00262501
8.67362e-19
0.00262501
1.6263e-19
0.00262501
4.87891e-19
0.00262501
8.13152e-19
0.00262501
2.1684e-19
0.00262501
6.50521e-19
0.00262501
1.40946e-18
0.00262501
2.38524e-18
0.00262501
1.78893e-18
0.00262501
3.14419e-18
0.00262501
9.21572e-19
0.00262501
1.02999e-18
0.00262501
1.40946e-18
0.00262501
3.08998e-18
0.00262501
1.40946e-18
0.00262501
9.21572e-19
0.00262501
1.6263e-18
0.00262501
7.48099e-18
0.00262501
-6.3003e-16
0.00262501
3.59602e-14
0.00262501
-2.35953e-12
0.00262501
1.27748e-10
0.00262487
-7.526e-09
0.002616
3.61184e-07
0.00249907
-4.11515e-05
0.00249329
-0.000111058
0.00236249
0.000252071
0.00220787
0.00029171
0.00208532
0.000202409
0.00200594
9.26387e-05
0.00196224
4.6627e-05
0.00192824
5.98219e-05
0.0018865
0.000112867
0.00182385
0.000177702
0.0017436
0.000203518
0.00166311
0.000171782
0.00160056
0.000110596
0.00156255
6.34881e-05
0.00152692
6.29605e-05
0.00147873
9.00571e-05
0.00141825
0.000116301
0.00135294
0.00012733
0.00128877
0.000128678
0.00122975
0.000126427
0.00117734
0.000123405
0.00112768
0.000125888
0.00107413
0.000135856
0.00101204
0.000148399
0.000940384
0.000157175
0.00085986
0.000160465
0.000772301
0.000159417
0.000679915
0.000156575
0.000585766
0.000153886
0.000492798
0.000151364
0.000402803
0.000148001
0.000317804
0.000142314
0.000240547
0.00013333
0.000174632
0.000120694
0.000121787
0.000105886
7.86221e-05
9.57684e-05
3.8502e-05
9.14079e-05
8.3436e-05
0.00262501
-3.79471e-19
0.00262501
5.42101e-20
0.00262501
-9.75782e-19
0.00262501
9.21572e-19
0.00262501
1.68051e-18
0.00262501
-7.04731e-19
0.00262501
-2.22261e-18
0.00262501
-2.00577e-18
0.00262501
-1.78893e-18
0.00262501
-1.35525e-18
0.00262501
0
0.00262501
-1.89735e-18
0.00262501
-1.0842e-19
0.00262501
3.79471e-19
0.00262501
-1.51788e-18
0.00262501
2.1684e-19
0.00262501
-2.38524e-18
0.00262501
-2.71051e-19
0.00262501
4.87891e-19
0.00262501
-2.71051e-19
0.00262501
4.87891e-19
0.00262501
-1.0842e-18
0.00262501
-1.46367e-18
0.00262501
-1.57209e-18
0.00262501
-1.6263e-18
0.00262501
-8.13152e-19
0.00262501
1.89735e-18
0.00262501
-5.42101e-20
0.00262501
6.50521e-19
0.00262501
2.71051e-19
0.00262501
-1.0842e-19
0.00262501
1.46367e-18
0.00262501
2.1684e-19
0.00262501
4.33681e-19
0.00262501
1.51788e-18
0.00262501
2.6563e-18
0.00262501
5.09575e-18
0.00262501
2.6563e-18
0.00262501
2.71051e-18
0.00262501
1.19262e-18
0.00262501
2.1684e-19
0.00262501
-5.42101e-19
0.00262501
4.33681e-19
0.00262501
-3.25261e-19
0.00262501
8.13152e-19
0.00262501
-1.6263e-19
0.00262501
2.1684e-18
0.00262501
1.6263e-18
0.00262501
5.42101e-19
0.00262501
1.24683e-18
0.00262501
-1.35525e-18
0.00262501
9.97466e-18
0.00262501
-5.91432e-16
0.00262501
5.21551e-14
0.00262501
-2.14067e-12
0.00262501
2.08129e-10
0.00262486
-5.92946e-09
0.00261588
8.23098e-07
0.00245422
-5.96372e-05
0.00238809
-5.18079e-05
0.00226591
0.000373616
0.00215005
0.000404766
0.00205078
0.000292583
0.00198286
0.00014635
0.00194378
6.15479e-05
0.0019192
6.73683e-05
0.00189258
0.000128838
0.00185603
0.00020702
0.0018096
0.000248514
0.00175185
0.000232769
0.00168451
0.000183374
0.00161775
0.000133624
0.00155557
0.000126724
0.00149023
0.00015583
0.00142435
0.000183112
0.00136289
0.000190822
0.00130586
0.000189313
0.00125258
0.000185388
0.00120316
0.000180533
0.00115545
0.000182816
0.00110415
0.000196701
0.00104475
0.000216084
0.000976231
0.000230652
0.000899251
0.000236839
0.000815305
0.000236251
0.000726081
0.000232818
0.000633948
0.000229758
0.000541477
0.00022713
0.000450293
0.00022357
0.000362605
0.000216697
0.000281465
0.00020466
0.000210861
0.000186293
0.000151663
0.000165772
0.00010086
0.000152383
5.11427e-05
0.00015007
0.000145117
0.00262501
-5.42101e-19
0.00262501
1.0842e-18
0.00262501
1.57209e-18
0.00262501
-1.0842e-19
0.00262501
-1.46367e-18
0.00262501
-3.25261e-19
0.00262501
8.13152e-19
0.00262501
-5.96311e-19
0.00262501
1.46367e-18
0.00262501
1.13841e-18
0.00262501
7.04731e-19
0.00262501
2.71051e-18
0.00262501
-2.71051e-19
0.00262501
-2.33103e-18
0.00262501
-5.42101e-20
0.00262501
-5.42101e-19
0.00262501
1.6263e-19
0.00262501
-1.6263e-18
0.00262501
-2.05998e-18
0.00262501
0
0.00262501
-7.58942e-19
0.00262501
-1.24683e-18
0.00262501
9.21572e-19
0.00262501
-8.13152e-19
0.00262501
2.71051e-19
0.00262501
-5.96311e-19
0.00262501
-1.13841e-18
0.00262501
-1.6263e-19
0.00262501
-1.13841e-18
0.00262501
7.04731e-19
0.00262501
-3.25261e-19
0.00262501
-2.76472e-18
0.00262501
3.25261e-19
0.00262501
6.50521e-19
0.00262501
8.67362e-19
0.00262501
1.51788e-18
0.00262501
2.43945e-18
0.00262501
1.57209e-18
0.00262501
1.0842e-18
0.00262501
2.1684e-19
0.00262501
1.19262e-18
0.00262501
5.42101e-19
0.00262501
-1.30104e-18
0.00262501
2.71051e-19
0.00262501
-3.25261e-19
0.00262501
8.67362e-19
0.00262501
9.75782e-19
0.00262501
1.95156e-18
0.00262501
4.87891e-19
0.00262501
8.13152e-19
0.00262501
1.19262e-18
0.00262501
1.65883e-17
0.00262501
-3.05474e-16
0.00262501
5.89518e-14
0.00262501
-1.57382e-12
0.00262501
2.47958e-10
0.00262487
-6.62641e-09
0.00261649
1.03271e-06
0.00243854
-6.41021e-05
0.00227002
8.57295e-05
0.00220057
0.000444312
0.00217012
0.000439142
0.00211208
0.000347697
0.00203678
0.000211969
0.00197148
0.000108867
0.00192495
9.75548e-05
0.00188434
0.000157005
0.00185187
0.000232999
0.00182011
0.00027697
0.00177495
0.000279254
0.00170938
0.00025243
0.00162836
0.000216089
0.00154969
0.000205539
0.00148029
0.000225528
0.00142228
0.000242884
0.00137255
0.000243735
0.00132462
0.00024212
0.00127479
0.000241887
0.0012231
0.000240369
0.00117063
0.000244271
0.00111616
0.00025996
0.00105715
0.000282443
0.000992467
0.000299534
0.000921328
0.000307039
0.000843318
0.000307388
0.000758863
0.000305058
0.000669789
0.000303413
0.00057876
0.00030187
0.00048764
0.000298961
0.000398656
0.000291913
0.000314571
0.000278379
0.000238683
0.000256588
0.000172048
0.000232578
0.000113339
0.000216645
5.68873e-05
0.000215416
0.000213159
0.00262501
1.51788e-18
0.00262501
2.1684e-19
0.00262501
4.33681e-19
0.00262501
-6.50521e-19
0.00262501
7.58942e-19
0.00262501
2.33103e-18
0.00262501
1.24683e-18
0.00262501
6.50521e-19
0.00262501
-8.67362e-19
0.00262501
2.71051e-19
0.00262501
-4.33681e-19
0.00262501
3.79471e-19
0.00262501
-2.71051e-19
0.00262501
1.0842e-19
0.00262501
8.13152e-19
0.00262501
7.04731e-19
0.00262501
9.75782e-19
0.00262501
1.40946e-18
0.00262501
8.13152e-19
0.00262501
-1.6263e-19
0.00262501
-1.68051e-18
0.00262501
4.33681e-19
0.00262501
-9.21572e-19
0.00262501
-5.42101e-19
0.00262501
-4.22839e-18
0.00262501
-1.6263e-18
0.00262501
-1.13841e-18
0.00262501
-7.58942e-19
0.00262501
-7.04731e-19
0.00262501
-8.67362e-19
0.00262501
2.05998e-18
0.00262501
3.25261e-19
0.00262501
-7.04731e-19
0.00262501
5.42101e-19
0.00262501
1.24683e-18
0.00262501
9.21572e-19
0.00262501
2.71051e-19
0.00262501
-2.22261e-18
0.00262501
1.0842e-19
0.00262501
0
0.00262501
1.6263e-19
0.00262501
-2.92735e-18
0.00262501
1.78893e-18
0.00262501
1.35525e-18
0.00262501
-2.11419e-18
0.00262501
4.87891e-19
0.00262501
-1.46367e-18
0.00262501
-1.02999e-18
0.00262501
1.57209e-18
0.00262501
-3.25261e-19
0.00262501
-1.0842e-19
0.00262501
8.89046e-18
0.00262501
2.59666e-16
0.00262501
5.05729e-14
0.00262501
4.47798e-13
0.00262501
2.41338e-10
0.00262487
-4.0498e-11
0.00261724
1.19987e-06
0.00240906
-3.02364e-05
0.00217371
0.000264798
0.00217241
0.000445715
0.0021871
0.000432148
0.00218634
0.000353867
0.00212337
0.000270963
0.00201607
0.000203298
0.00192029
0.000175712
0.00186438
0.00019941
0.00183153
0.000257452
0.00180107
0.000301721
0.00176096
0.000317901
0.00170597
0.000308778
0.00163542
0.0002872
0.00156
0.000280954
0.00149144
0.000295135
0.00143569
0.000301724
0.00138806
0.0002959
0.00134042
0.000295783
0.00128739
0.000302272
0.00122876
0.000307278
0.00116814
0.000313311
0.00110817
0.000327653
0.00104869
0.000348122
0.00098788
0.000363593
0.000923079
0.000370518
0.000852039
0.000371871
0.0007741
0.000371619
0.000690648
0.000372256
0.0006041
0.000372338
0.000516131
0.000370825
0.000428421
0.000365243
0.000343066
0.00035285
0.000262832
0.000330735
0.000189616
0.000305325
0.00012372
0.000287665
6.21881e-05
0.000285381
0.000287973
0.00262501
-1.19262e-18
0.00262501
-1.57209e-18
0.00262501
2.1684e-19
0.00262501
3.57787e-18
0.00262501
1.35525e-18
0.00262501
1.13841e-18
0.00262501
7.04731e-19
0.00262501
2.00577e-18
0.00262501
2.54788e-18
0.00262501
4.87891e-19
0.00262501
1.73472e-18
0.00262501
-1.40946e-18
0.00262501
-1.68051e-18
0.00262501
-7.04731e-19
0.00262501
1.78893e-18
0.00262501
2.33103e-18
0.00262501
1.89735e-18
0.00262501
2.11419e-18
0.00262501
-9.75782e-19
0.00262501
2.71051e-19
0.00262501
5.42101e-19
0.00262501
2.1684e-19
0.00262501
-7.04731e-19
0.00262501
-1.40946e-18
0.00262501
-9.21572e-19
0.00262501
-1.57209e-18
0.00262501
-5.42101e-20
0.00262501
-1.02999e-18
0.00262501
-5.42101e-20
0.00262501
-4.87891e-19
0.00262501
-1.19262e-18
0.00262501
7.04731e-19
0.00262501
2.11419e-18
0.00262501
2.71051e-18
0.00262501
1.35525e-18
0.00262501
-8.67362e-19
0.00262501
-4.33681e-19
0.00262501
-8.67362e-19
0.00262501
-1.68051e-18
0.00262501
-3.14419e-18
0.00262501
-1.78893e-18
0.00262501
-6.50521e-19
0.00262501
-2.49366e-18
0.00262501
-2.1684e-19
0.00262501
2.27682e-18
0.00262501
4.87891e-19
0.00262501
-1.6263e-19
0.00262501
-3.08998e-18
0.00262501
-2.22261e-18
0.00262501
-3.57787e-18
0.00262501
-7.04731e-19
0.00262501
1.25767e-17
0.00262501
7.83336e-16
0.00262501
4.60219e-14
0.00262501
2.42429e-12
0.00262501
2.23006e-10
0.00262489
6.32467e-09
0.0026182
1.12906e-06
0.00240418
2.78653e-05
0.00216175
0.000426586
0.00215514
0.00045212
0.00219456
0.000405102
0.00221657
0.000343805
0.00218595
0.000302993
0.00208886
0.000294252
0.00196485
0.000285377
0.00187111
0.000279885
0.00182325
0.000295973
0.00178816
0.000328858
0.00174711
0.000354339
0.00169623
0.00035828
0.00163392
0.000348737
0.00156544
0.000349661
0.00150062
0.000362061
0.00144456
0.000362123
0.00139336
0.000352847
0.00134101
0.000355211
0.00128266
0.00036855
0.00121802
0.000380079
0.00115169
0.000387311
0.0010882
0.000397778
0.00102894
0.000412577
0.000971377
0.000423698
0.000911341
0.000429036
0.000845671
0.000431437
0.000773239
0.000433503
0.000695007
0.000436503
0.00061301
0.000438257
0.000528708
0.000438585
0.000443194
0.000435904
0.000357936
0.000426887
0.000275274
0.000406912
0.000198013
0.000381496
0.000127636
0.000362864
6.31124e-05
0.000357367
0.000366129
0.00262501
5.42101e-20
0.00262501
2.1684e-18
0.00262501
-5.42101e-20
0.00262501
-2.6563e-18
0.00262501
-1.46367e-18
0.00262501
2.22261e-18
0.00262501
1.40946e-18
0.00262501
9.75782e-19
0.00262501
1.30104e-18
0.00262501
1.46367e-18
0.00262501
1.02999e-18
0.00262501
9.21572e-19
0.00262501
-8.13152e-19
0.00262501
-1.6263e-19
0.00262501
-1.78893e-18
0.00262501
2.1684e-19
0.00262501
5.96311e-19
0.00262501
-2.71051e-19
0.00262501
1.95156e-18
0.00262501
-1.0842e-19
0.00262501
-5.96311e-19
0.00262501
-2.1684e-19
0.00262501
-5.96311e-19
0.00262501
-1.46367e-18
0.00262501
-9.21572e-19
0.00262501
-1.78893e-18
0.00262501
-8.13152e-19
0.00262501
3.25261e-19
0.00262501
1.6263e-18
0.00262501
-1.0842e-18
0.00262501
-2.00577e-18
0.00262501
1.0842e-19
0.00262501
5.42101e-19
0.00262501
1.6263e-19
0.00262501
4.87891e-19
0.00262501
-1.6263e-19
0.00262501
-1.6263e-19
0.00262501
3.79471e-19
0.00262501
2.00577e-18
0.00262501
1.46367e-18
0.00262501
0
0.00262501
-2.71051e-19
0.00262501
5.96311e-19
0.00262501
1.6263e-19
0.00262501
-2.00577e-18
0.00262501
2.1684e-19
0.00262501
-2.71051e-19
0.00262501
2.6563e-18
0.00262501
-1.0842e-19
0.00262501
1.6263e-18
0.00262501
1.30104e-18
0.00262501
1.02999e-17
0.00262501
1.05813e-15
0.00262501
4.85679e-14
0.00262501
3.47984e-12
0.00262501
2.40262e-10
0.00262489
1.03337e-08
0.00261849
1.28091e-06
0.00245668
5.38819e-05
0.00220796
0.000576896
0.00215694
0.000498124
0.00219334
0.000390917
0.00221163
0.000333673
0.00219968
0.000322808
0.00213998
0.000351969
0.00203133
0.000383729
0.00191997
0.000380253
0.00184387
0.000362086
0.001793
0.000370344
0.00174489
0.000395412
0.00169244
0.000406968
0.00163393
0.000405238
0.00157179
0.000412393
0.00151108
0.000426262
0.00145366
0.000425381
0.00139694
0.000416645
0.00133789
0.000422182
0.00127347
0.000441039
0.0012042
0.000457016
0.00113485
0.000463428
0.0010701
0.000468103
0.00101159
0.000475298
0.000955998
0.000481288
0.000898519
0.00048515
0.000835638
0.000488885
0.000766134
0.000493223
0.000690827
0.000498197
0.000611757
0.000501089
0.000530545
0.000502909
0.000447866
0.000503492
0.000364409
0.000498942
0.000281761
0.000482761
0.000202881
0.000458768
0.000130026
0.000441495
6.0654e-05
0.000435578
0.000437165
0.00262501
1.6263e-19
0.00262501
-1.0842e-19
0.00262501
8.67362e-19
0.00262501
-1.0842e-19
0.00262501
3.79471e-19
0.00262501
-1.0842e-19
0.00262501
4.87891e-19
0.00262501
1.46367e-18
0.00262501
3.25261e-19
0.00262501
-1.30104e-18
0.00262501
6.50521e-19
0.00262501
5.42101e-19
0.00262501
1.84314e-18
0.00262501
3.79471e-19
0.00262501
-1.6263e-19
0.00262501
-5.42101e-19
0.00262501
-3.25261e-18
0.00262501
-2.27682e-18
0.00262501
-7.04731e-19
0.00262501
-3.63208e-18
0.00262501
-2.1684e-19
0.00262501
-1.13841e-18
0.00262501
4.33681e-19
0.00262501
-2.71051e-19
0.00262501
-1.13841e-18
0.00262501
-3.25261e-19
0.00262501
7.04731e-19
0.00262501
-3.79471e-19
0.00262501
-2.71051e-18
0.00262501
-3.57787e-18
0.00262501
-6.50521e-19
0.00262501
-2.00577e-18
0.00262501
-7.58942e-19
0.00262501
2.71051e-19
0.00262501
-1.0842e-18
0.00262501
-5.42101e-19
0.00262501
-2.1684e-19
0.00262501
1.6263e-18
0.00262501
-8.13152e-19
0.00262501
-1.6263e-19
0.00262501
1.30104e-18
0.00262501
7.58942e-19
0.00262501
8.67362e-19
0.00262501
4.87891e-19
0.00262501
1.0842e-18
0.00262501
-1.35525e-18
0.00262501
-7.58942e-19
0.00262501
-1.95156e-18
0.00262501
-5.96311e-19
0.00262501
-1.57209e-18
0.00262501
2.1684e-19
0.00262501
1.18178e-17
0.00262501
1.00549e-15
0.00262501
4.98394e-14
0.00262501
3.21325e-12
0.00262501
2.38721e-10
0.0026249
8.63256e-09
0.00261878
1.29738e-06
0.00250989
3.21103e-05
0.00226229
0.000712706
0.00217025
0.000579672
0.00218166
0.000403696
0.00218995
0.000334023
0.00218432
0.00033708
0.00214977
0.000386412
0.00206915
0.000456677
0.00196819
0.000474295
0.00187772
0.0004445
0.00181004
0.000428839
0.00175102
0.000446118
0.00169211
0.000460331
0.00163323
0.000461075
0.00157587
0.000470863
0.00151991
0.000487167
0.00146302
0.000489618
0.00140302
0.000484905
0.00133916
0.000494532
0.0012706
0.000517561
0.00119915
0.000535389
0.00112926
0.000538971
0.0010647
0.000537144
0.00100649
0.000536876
0.000950923
0.000538659
0.000893335
0.000541901
0.000830233
0.00054733
0.000760562
0.000553655
0.000685199
0.000559987
0.000606516
0.000563271
0.000526598
0.000565758
0.000445929
0.000569062
0.000364399
0.000569048
0.000282749
0.000557638
0.000204346
0.000536217
0.000132838
0.000520995
7.13196e-05
0.000513119
0.000507032
0.00262501
-9.21572e-19
0.00262501
-1.6263e-19
0.00262501
-1.24683e-18
0.00262501
1.30104e-18
0.00262501
1.6263e-19
0.00262501
-1.19262e-18
0.00262501
-5.42101e-20
0.00262501
2.1684e-19
0.00262501
-2.22261e-18
0.00262501
-1.57209e-18
0.00262501
-1.13841e-18
0.00262501
-5.42101e-19
0.00262501
2.11419e-18
0.00262501
9.21572e-19
0.00262501
1.30104e-18
0.00262501
2.71051e-19
0.00262501
0
0.00262501
-1.95156e-18
0.00262501
-2.05998e-18
0.00262501
3.79471e-19
0.00262501
-1.6263e-18
0.00262501
3.25261e-19
0.00262501
-9.75782e-19
0.00262501
3.79471e-19
0.00262501
2.1684e-19
0.00262501
1.19262e-18
0.00262501
-2.1684e-19
0.00262501
-1.0842e-18
0.00262501
-1.13841e-18
0.00262501
-2.71051e-19
0.00262501
1.46367e-18
0.00262501
3.41524e-18
0.00262501
8.67362e-19
0.00262501
-4.33681e-19
0.00262501
1.0842e-19
0.00262501
1.0842e-19
0.00262501
5.96311e-19
0.00262501
2.1684e-19
0.00262501
7.04731e-19
0.00262501
0
0.00262501
5.42101e-19
0.00262501
1.35525e-18
0.00262501
7.58942e-19
0.00262501
2.00577e-18
0.00262501
2.27682e-18
0.00262501
1.02999e-18
0.00262501
2.71051e-19
0.00262501
-1.46367e-18
0.00262501
-5.42101e-19
0.00262501
-1.6263e-19
0.00262501
7.04731e-19
0.00262501
1.13841e-17
0.00262501
1.03118e-15
0.00262501
4.7915e-14
0.00262501
3.22566e-12
0.00262501
2.01503e-10
0.0026249
7.93019e-09
0.002619
1.06764e-06
0.00248849
2.98201e-05
0.00224861
0.000824738
0.00217446
0.000648471
0.00217547
0.000428258
0.00217956
0.000338397
0.00217432
0.000346445
0.00214028
0.00041952
0.00207091
0.000519994
0.00198514
0.000556255
0.00189755
0.000525392
0.00182116
0.000496338
0.00175438
0.000504243
0.00169096
0.000517261
0.00163244
0.000516408
0.00157992
0.000525555
0.00152876
0.000544762
0.00147337
0.000553745
0.00141197
0.000555492
0.00134568
0.000569497
0.00127577
0.000594824
0.00120503
0.000611912
0.00113702
0.000611401
0.00107364
0.000604133
0.00101498
0.000598618
0.000957729
0.000598007
0.000897924
0.000601567
0.000832508
0.000608745
0.000760607
0.000616538
0.000683128
0.000623652
0.000602777
0.000626861
0.000522238
0.000629262
0.000442081
0.000634408
0.000361731
0.000638452
0.000282021
0.000632023
0.000205881
0.000613114
0.000134531
0.000598416
7.00198e-05
0.000589259
0.000579366
0.00262501
-4.87891e-19
0.00262501
-2.1684e-18
0.00262501
-7.04731e-19
0.00262501
-2.49366e-18
0.00262501
-4.87891e-19
0.00262501
-2.71051e-19
0.00262501
-1.35525e-18
0.00262501
-1.68051e-18
0.00262501
9.75782e-19
0.00262501
-2.1684e-19
0.00262501
7.58942e-19
0.00262501
-4.87891e-19
0.00262501
-3.25261e-19
0.00262501
5.96311e-19
0.00262501
1.6263e-19
0.00262501
-9.21572e-19
0.00262501
-1.6263e-18
0.00262501
-4.33681e-19
0.00262501
2.1684e-18
0.00262501
3.79471e-18
0.00262501
2.81893e-18
0.00262501
-5.96311e-19
0.00262501
-1.57209e-18
0.00262501
-5.42101e-19
0.00262501
8.13152e-19
0.00262501
-1.24683e-18
0.00262501
-2.05998e-18
0.00262501
-3.52366e-18
0.00262501
-2.92735e-18
0.00262501
3.79471e-19
0.00262501
1.0842e-19
0.00262501
0
0.00262501
1.0842e-19
0.00262501
2.1684e-19
0.00262501
4.33681e-19
0.00262501
2.1684e-19
0.00262501
3.79471e-19
0.00262501
9.75782e-19
0.00262501
9.75782e-19
0.00262501
2.1684e-18
0.00262501
6.50521e-19
0.00262501
8.13152e-19
0.00262501
2.76472e-18
0.00262501
1.95156e-18
0.00262501
1.0842e-19
0.00262501
3.79471e-19
0.00262501
1.24683e-18
0.00262501
-1.40946e-18
0.00262501
-1.51788e-18
0.00262501
-1.68051e-18
0.00262501
-4.87891e-19
0.00262501
1.69136e-17
0.00262501
1.30495e-15
0.00262501
5.78751e-14
0.00262501
4.47061e-12
0.00262501
2.01443e-10
0.00262489
1.33115e-08
0.00261859
9.13417e-07
0.00242131
8.55456e-05
0.00219436
0.000923792
0.00218276
0.000669394
0.00220226
0.000440089
0.00220352
0.000347299
0.00218037
0.00036769
0.00212847
0.000469223
0.00204978
0.000594546
0.00197181
0.000632048
0.00189485
0.000595957
0.00182352
0.000559366
0.00175902
0.000560953
0.00169677
0.000573466
0.0016393
0.000571655
0.00158885
0.000579604
0.00153914
0.000602239
0.00148327
0.000619332
0.00142042
0.000627911
0.00135348
0.000644747
0.00128522
0.000669418
0.00121847
0.000683163
0.00115457
0.000678655
0.00109323
0.000668564
0.00103375
0.000661185
0.000973779
0.000660525
0.000910575
0.000665288
0.000841661
0.000674105
0.000766316
0.000682811
0.000685533
0.000690267
0.000602277
0.000693233
0.0005198
0.000695066
0.000439064
0.000701171
0.000359609
0.000708281
0.000281713
0.000705795
0.000206674
0.000688542
0.000133671
0.000673778
6.53605e-05
0.000663872
0.000652323
0.00262501
8.13152e-19
0.00262501
3.25261e-19
0.00262501
-2.1684e-19
0.00262501
-4.33681e-19
0.00262501
1.02999e-18
0.00262501
9.21572e-19
0.00262501
0
0.00262501
-4.87891e-19
0.00262501
2.1684e-18
0.00262501
1.40946e-18
0.00262501
1.78893e-18
0.00262501
6.50521e-19
0.00262501
-1.46367e-18
0.00262501
3.79471e-19
0.00262501
-1.0842e-19
0.00262501
-3.25261e-19
0.00262501
6.50521e-19
0.00262501
6.50521e-19
0.00262501
-1.51788e-18
0.00262501
-1.24683e-18
0.00262501
-1.84314e-18
0.00262501
-1.40946e-18
0.00262501
-1.30104e-18
0.00262501
-1.46367e-18
0.00262501
-2.22261e-18
0.00262501
2.71051e-19
0.00262501
-2.71051e-19
0.00262501
-4.33681e-19
0.00262501
-1.6263e-19
0.00262501
1.0842e-19
0.00262501
-4.87891e-19
0.00262501
-3.79471e-19
0.00262501
1.30104e-18
0.00262501
1.0842e-19
0.00262501
-1.30104e-18
0.00262501
1.6263e-19
0.00262501
1.73472e-18
0.00262501
1.78893e-18
0.00262501
-7.58942e-19
0.00262501
2.71051e-19
0.00262501
1.0842e-19
0.00262501
1.35525e-18
0.00262501
-4.33681e-19
0.00262501
-2.1684e-19
0.00262501
-1.02999e-18
0.00262501
1.0842e-19
0.00262501
1.57209e-18
0.00262501
-7.58942e-19
0.00262501
-7.04731e-19
0.00262501
-1.30104e-18
0.00262501
-1.13841e-18
0.00262501
2.1684e-17
0.00262501
1.68317e-15
0.00262501
8.32852e-14
0.00262501
6.3861e-12
0.00262501
2.71755e-10
0.00262487
2.26714e-08
0.00261741
9.85253e-07
0.00236208
0.000183323
0.00216769
0.00100287
0.00221727
0.000654444
0.00226613
0.000420735
0.00226068
0.000358989
0.00221447
0.000408999
0.00212966
0.0005529
0.00203161
0.000687924
0.00195569
0.000705343
0.00188992
0.000655928
0.00182843
0.000613572
0.00177043
0.000612739
0.00171111
0.000628098
0.00165307
0.000628743
0.00160106
0.000636471
0.00154981
0.000662284
0.00149257
0.000686802
0.00142935
0.00070052
0.00136422
0.000717331
0.00130043
0.000738199
0.00123961
0.000747098
0.00118023
0.000740368
0.00112038
0.000731111
0.00105923
0.000725528
0.000995677
0.000727081
0.000928258
0.000733712
0.000855115
0.000743861
0.000775728
0.000752895
0.000691278
0.000760255
0.000604976
0.000762843
0.000520419
0.000763864
0.000438952
0.00077014
0.000359817
0.000779071
0.000281938
0.000779173
0.000206164
0.000762761
0.000132074
0.000747494
6.26578e-05
0.00073828
0.000727037
0.00262501
1.35525e-18
0.00262501
1.13841e-18
0.00262501
1.0842e-18
0.00262501
2.00577e-18
0.00262501
-1.6263e-19
0.00262501
-1.6263e-18
0.00262501
7.04731e-19
0.00262501
-1.02999e-18
0.00262501
0
0.00262501
4.33681e-19
0.00262501
1.40946e-18
0.00262501
-3.79471e-19
0.00262501
9.75782e-19
0.00262501
-2.43945e-18
0.00262501
-8.13152e-19
0.00262501
-2.27682e-18
0.00262501
-8.13152e-19
0.00262501
-1.73472e-18
0.00262501
-1.84314e-18
0.00262501
-1.68051e-18
0.00262501
-1.73472e-18
0.00262501
5.42101e-20
0.00262501
9.21572e-19
0.00262501
6.50521e-19
0.00262501
-1.6263e-19
0.00262501
2.1684e-19
0.00262501
1.30104e-18
0.00262501
2.1684e-18
0.00262501
5.96311e-19
0.00262501
8.13152e-19
0.00262501
-9.21572e-19
0.00262501
-5.42101e-19
0.00262501
-1.78893e-18
0.00262501
-1.6263e-18
0.00262501
-7.04731e-19
0.00262501
7.58942e-19
0.00262501
-7.58942e-19
0.00262501
-4.87891e-19
0.00262501
7.04731e-19
0.00262501
-9.75782e-19
0.00262501
-1.24683e-18
0.00262501
-1.46367e-18
0.00262501
-2.38524e-18
0.00262501
-1.0842e-18
0.00262501
-1.40946e-18
0.00262501
-1.35525e-18
0.00262501
-1.13841e-18
0.00262501
1.51788e-18
0.00262501
-7.58942e-19
0.00262501
-1.0842e-19
0.00262501
-4.33681e-19
0.00262501
2.96529e-17
0.00262501
2.00024e-15
0.00262501
1.14599e-13
0.00262501
8.1011e-12
0.00262501
3.9749e-10
0.00262484
3.16904e-08
0.00261531
1.29561e-06
0.00231388
0.000291242
0.00219693
0.00103529
0.00231837
0.000594151
0.00235165
0.000388559
0.00233914
0.00037962
0.00225865
0.000487563
0.00213033
0.000680023
0.0020196
0.000791675
0.00194771
0.000773195
0.00189198
0.00070689
0.0018389
0.000660418
0.00178681
0.000660447
0.00173014
0.000681674
0.00167032
0.000689132
0.00161524
0.000697613
0.001562
0.000725132
0.00150459
0.000754531
0.00144306
0.000770803
0.00138139
0.000785172
0.00132238
0.000800649
0.00126582
0.000805374
0.00120862
0.00079898
0.00114854
0.000793554
0.00108501
0.000792357
0.00101784
0.000797569
0.00094649
0.000806293
0.000869542
0.000817302
0.000786662
0.000826164
0.000699202
0.000833229
0.000610585
0.000835523
0.00052446
0.000835716
0.000442121
0.000841506
0.000362138
0.000851009
0.000282767
0.000852379
0.000205071
0.000836439
0.000130682
0.000820916
6.17312e-05
0.000813093
0.000802252
0.00262501
-7.58942e-19
0.00262501
-7.04731e-19
0.00262501
-2.38524e-18
0.00262501
-1.30104e-18
0.00262501
5.42101e-20
0.00262501
1.30104e-18
0.00262501
1.0842e-19
0.00262501
-3.25261e-19
0.00262501
1.78893e-18
0.00262501
-5.96311e-19
0.00262501
-4.33681e-19
0.00262501
4.87891e-19
0.00262501
-6.50521e-19
0.00262501
-1.02999e-18
0.00262501
-2.71051e-19
0.00262501
1.40946e-18
0.00262501
-1.0842e-19
0.00262501
1.46367e-18
0.00262501
-7.04731e-19
0.00262501
-1.19262e-18
0.00262501
1.6263e-19
0.00262501
5.96311e-19
0.00262501
-3.79471e-19
0.00262501
-1.84314e-18
0.00262501
5.42101e-20
0.00262501
-3.79471e-19
0.00262501
-2.49366e-18
0.00262501
-8.13152e-19
0.00262501
2.1684e-19
0.00262501
-1.0842e-19
0.00262501
-5.42101e-19
0.00262501
-1.0842e-18
0.00262501
-1.51788e-18
0.00262501
-1.68051e-18
0.00262501
-3.25261e-19
0.00262501
-1.0842e-18
0.00262501
-7.58942e-19
0.00262501
-1.30104e-18
0.00262501
-9.75782e-19
0.00262501
-9.75782e-19
0.00262501
-3.25261e-19
0.00262501
6.50521e-19
0.00262501
1.35525e-18
0.00262501
-1.6263e-18
0.00262501
-2.54788e-18
0.00262501
-6.50521e-19
0.00262501
-2.87314e-18
0.00262501
-2.00577e-18
0.00262501
-8.13152e-19
0.00262501
-1.35525e-18
0.00262501
-2.1684e-18
0.00262501
2.79724e-17
0.00262501
2.02594e-15
0.00262501
1.31031e-13
0.00262501
8.90443e-12
0.00262501
5.32842e-10
0.00262481
3.82668e-08
0.00261288
1.96271e-06
0.00229505
0.000367804
0.00230502
0.00102696
0.00246748
0.000500082
0.00247828
0.000375584
0.00240974
0.000445056
0.00226419
0.000629144
0.00210752
0.000831902
0.00200717
0.000884883
0.00194671
0.000829559
0.00190126
0.000748353
0.00185522
0.000701381
0.00180742
0.000705584
0.00175217
0.000735467
0.00168994
0.000753772
0.00163156
0.000763367
0.00157674
0.000790182
0.00152012
0.000821183
0.00146086
0.000837752
0.00140182
0.000848823
0.00134486
0.000859399
0.00128885
0.000861729
0.0012311
0.000857367
0.0011698
0.000856942
0.00110439
0.000861096
0.00103498
0.000870424
0.000961292
0.000881192
0.00088211
0.000892683
0.000797275
0.000901201
0.000708315
0.000908171
0.000618696
0.000910551
0.000531735
0.000910038
0.000448108
0.000914918
0.000366332
0.000923993
0.000284814
0.000925756
0.000205257
0.000910613
0.00013115
0.000895057
6.23857e-05
0.000888969
0.000877895
0.00262501
3.25261e-19
0.00262501
-2.71051e-19
0.00262501
0
0.00262501
-1.40946e-18
0.00262501
-2.1684e-18
0.00262501
-3.79471e-19
0.00262501
9.75782e-19
0.00262501
8.67362e-19
0.00262501
-1.57209e-18
0.00262501
1.89735e-18
0.00262501
5.42101e-19
0.00262501
1.24683e-18
0.00262501
-5.42101e-19
0.00262501
4.87891e-19
0.00262501
-7.58942e-19
0.00262501
-2.98156e-18
0.00262501