/*--------------------------------*- C++ -*----------------------------------*\
| =========                 |                                                 |
| \\      /  F ield         | OpenFOAM: The Open Source CFD Toolbox           |
|  \\    /   O peration     | Version:  v1812                                 |
|   \\  /    A nd           | Web:      www.OpenFOAM.com                      |
|    \\/     M anipulation  |                                                 |
\*---------------------------------------------------------------------------*/
FoamFile
{
    version     2.0;
    format      ascii;
    class       volScalarField;
    location    "0.7";
    object      rho;
}
// * * * * * * * * * * * * * * * * * * * * * * * * * * * * * * * * * * * * * //

dimensions      [1 -3 0 0 0 0 0];


internalField   nonuniform List<scalar> 
64512
(
1.40001
1.40001
1.40001
1.40001
1.40001
1.40001
1.40001
1.40001
1.40001
1.40001
1.40001
1.40001
1.40001
1.40001
1.40001
1.40001
1.40001
1.40001
1.40001
1.40001
1.40001
1.40001
1.40001
1.40001
1.40001
1.40001
1.40001
1.40001
1.40001
1.40001
1.40001
1.40001
1.40001
1.40001
1.40001
1.40001
1.40001
1.40001
1.40001
1.40001
1.40001
1.40001
1.40001
1.40001
1.40001
1.40001
1.40001
1.40001
1.40001
1.40001
1.40001
1.40001
1.40001
1.40001
1.40001
1.40003
1.40187
1.51512
4.28633
5.47001
5.58304
5.61051
5.64298
5.67277
5.68981
5.69784
5.69268
5.67695
5.66594
5.66941
5.69095
5.71859
5.74642
5.77498
5.80058
5.82108
5.83721
5.85105
5.8632
5.87178
5.87502
5.87266
5.86576
5.85539
5.84243
5.82576
5.80115
5.76048
5.69287
5.58912
5.44998
5.29965
5.17829
5.11589
5.09845
5.1003
1.40001
1.40001
1.40001
1.40001
1.40001
1.40001
1.40001
1.40001
1.40001
1.40001
1.40001
1.40001
1.40001
1.40001
1.40001
1.40001
1.40001
1.40001
1.40001
1.40001
1.40001
1.40001
1.40001
1.40001
1.40001
1.40001
1.40001
1.40001
1.40001
1.40001
1.40001
1.40001
1.40001
1.40001
1.40001
1.40001
1.40001
1.40001
1.40001
1.40001
1.40001
1.40001
1.40001
1.40001
1.40001
1.40001
1.40001
1.40001
1.40001
1.40001
1.40001
1.40001
1.40001
1.40001
1.40001
1.40003
1.40187
1.51491
4.31983
5.4415
5.59121
5.60399
5.62285
5.63907
5.65295
5.66544
5.67548
5.67649
5.67495
5.6814
5.7005
5.72662
5.75373
5.77868
5.80163
5.82097
5.83686
5.85103
5.86343
5.87204
5.87524
5.8731
5.86673
5.85701
5.84472
5.82876
5.80508
5.766
5.70121
5.60139
5.46582
5.31606
5.19101
5.1223
5.10019
5.10049
1.40001
1.40001
1.40001
1.40001
1.40001
1.40001
1.40001
1.40001
1.40001
1.40001
1.40001
1.40001
1.40001
1.40001
1.40001
1.40001
1.40001
1.40001
1.40001
1.40001
1.40001
1.40001
1.40001
1.40001
1.40001
1.40001
1.40001
1.40001
1.40001
1.40001
1.40001
1.40001
1.40001
1.40001
1.40001
1.40001
1.40001
1.40001
1.40001
1.40001
1.40001
1.40001
1.40001
1.40001
1.40001
1.40001
1.40001
1.40001
1.40001
1.40001
1.40001
1.40001
1.40001
1.40001
1.40001
1.40003
1.40187
1.51498
4.3314
5.38138
5.56775
5.58423
5.60522
5.62777
5.63846
5.65015
5.66245
5.67605
5.68149
5.69462
5.71469
5.73654
5.75856
5.77884
5.79924
5.81898
5.83653
5.85196
5.86454
5.87257
5.87525
5.87301
5.86738
5.85894
5.8481
5.83365
5.8118
5.77575
5.71611
5.6235
5.49478
5.34649
5.2146
5.13424
5.10335
5.10087
1.40001
1.40001
1.40001
1.40001
1.40001
1.40001
1.40001
1.40001
1.40001
1.40001
1.40001
1.40001
1.40001
1.40001
1.40001
1.40001
1.40001
1.40001
1.40001
1.40001
1.40001
1.40001
1.40001
1.40001
1.40001
1.40001
1.40001
1.40001
1.40001
1.40001
1.40001
1.40001
1.40001
1.40001
1.40001
1.40001
1.40001
1.40001
1.40001
1.40001
1.40001
1.40001
1.40001
1.40001
1.40001
1.40001
1.40001
1.40001
1.40001
1.40001
1.40001
1.40001
1.40001
1.40001
1.40001
1.40003
1.40185
1.51378
4.30418
5.31641
5.52779
5.56845
5.59631
5.62474
5.64054
5.65049
5.66011
5.67549
5.68534
5.70039
5.72006
5.73969
5.75715
5.77495
5.79454
5.81525
5.83455
5.85122
5.86375
5.87075
5.87232
5.86956
5.86435
5.85723
5.8481
5.83544
5.81571
5.78309
5.72936
5.6452
5.52489
5.37925
5.24032
5.14722
5.1063
5.10035
1.40001
1.40001
1.40001
1.40001
1.40001
1.40001
1.40001
1.40001
1.40001
1.40001
1.40001
1.40001
1.40001
1.40001
1.40001
1.40001
1.40001
1.40001
1.40001
1.40001
1.40001
1.40001
1.40001
1.40001
1.40001
1.40001
1.40001
1.40001
1.40001
1.40001
1.40001
1.40001
1.40001
1.40001
1.40001
1.40001
1.40001
1.40001
1.40001
1.40001
1.40001
1.40001
1.40001
1.40001
1.40001
1.40001
1.40001
1.40001
1.40001
1.40001
1.40001
1.40001
1.40001
1.40001
1.40001
1.40003
1.40181
1.51143
4.2313
5.28874
5.48316
5.55253
5.59943
5.63703
5.65763
5.66102
5.6632
5.67432
5.68575
5.69872
5.71703
5.73694
5.75423
5.77187
5.79184
5.81333
5.83358
5.85042
5.86212
5.86769
5.86774
5.86436
5.85926
5.85299
5.84508
5.83371
5.81569
5.78615
5.73798
5.66187
5.54982
5.40761
5.26346
5.15932
5.10928
5.09873
1.40001
1.40001
1.40001
1.40001
1.40001
1.40001
1.40001
1.40001
1.40001
1.40001
1.40001
1.40001
1.40001
1.40001
1.40001
1.40001
1.40001
1.40001
1.40001
1.40001
1.40001
1.40001
1.40001
1.40001
1.40001
1.40001
1.40001
1.40001
1.40001
1.40001
1.40001
1.40001
1.40001
1.40001
1.40001
1.40001
1.40001
1.40001
1.40001
1.40001
1.40001
1.40001
1.40001
1.40001
1.40001
1.40001
1.40001
1.40001
1.40001
1.40001
1.40001
1.40001
1.40001
1.40001
1.40001
1.40003
1.40174
1.50735
4.12885
5.28007
5.45773
5.54578
5.5996
5.64058
5.66647
5.67036
5.66848
5.6778
5.68749
5.69731
5.71268
5.73084
5.74833
5.76722
5.78845
5.81037
5.83095
5.84745
5.85789
5.86194
5.86081
5.85728
5.85262
5.84686
5.83943
5.82859
5.81154
5.78423
5.74036
5.67057
5.56523
5.42649
5.27933
5.16735
5.11083
5.09413
1.40001
1.40001
1.40001
1.40001
1.40001
1.40001
1.40001
1.40001
1.40001
1.40001
1.40001
1.40001
1.40001
1.40001
1.40001
1.40001
1.40001
1.40001
1.40001
1.40001
1.40001
1.40001
1.40001
1.40001
1.40001
1.40001
1.40001
1.40001
1.40001
1.40001
1.40001
1.40001
1.40001
1.40001
1.40001
1.40001
1.40001
1.40001
1.40001
1.40001
1.40001
1.40001
1.40001
1.40001
1.40001
1.40001
1.40001
1.40001
1.40001
1.40001
1.40001
1.40001
1.40001
1.40001
1.40001
1.40003
1.40165
1.50185
4.01422
5.28844
5.44086
5.53455
5.59632
5.63599
5.6658
5.67293
5.67355
5.68017
5.68872
5.69624
5.70848
5.72431
5.74182
5.76231
5.78537
5.80801
5.82855
5.84427
5.8533
5.85597
5.85399
5.85022
5.84553
5.83989
5.83255
5.8218
5.8052
5.77932
5.7383
5.6727
5.57207
5.43641
5.28829
5.17124
5.11176
5.08923
1.40001
1.40001
1.40001
1.40001
1.40001
1.40001
1.40001
1.40001
1.40001
1.40001
1.40001
1.40001
1.40001
1.40001
1.40001
1.40001
1.40001
1.40001
1.40001
1.40001
1.40001
1.40001
1.40001
1.40001
1.40001
1.40001
1.40001
1.40001
1.40001
1.40001
1.40001
1.40001
1.40001
1.40001
1.40001
1.40001
1.40001
1.40001
1.40001
1.40001
1.40001
1.40001
1.40001
1.40001
1.40001
1.40001
1.40001
1.40001
1.40001
1.40001
1.40001
1.40001
1.40001
1.40001
1.40001
1.40003
1.40154
1.49525
3.87606
5.2738
5.44158
5.53227
5.58352
5.62388
5.65291
5.66393
5.67064
5.68101
5.68889
5.69572
5.70474
5.71766
5.73493
5.75702
5.78198
5.8055
5.82575
5.84058
5.84849
5.85018
5.84759
5.84349
5.83858
5.83287
5.82535
5.81443
5.798
5.77298
5.73356
5.67027
5.57242
5.43894
5.29074
5.16968
5.10679
5.08967
1.40001
1.40001
1.40001
1.40001
1.40001
1.40001
1.40001
1.40001
1.40001
1.40001
1.40001
1.40001
1.40001
1.40001
1.40001
1.40001
1.40001
1.40001
1.40001
1.40001
1.40001
1.40001
1.40001
1.40001
1.40001
1.40001
1.40001
1.40001
1.40001
1.40001
1.40001
1.40001
1.40001
1.40001
1.40001
1.40001
1.40001
1.40001
1.40001
1.40001
1.40001
1.40001
1.40001
1.40001
1.40001
1.40001
1.40001
1.40001
1.40001
1.40001
1.40001
1.40001
1.40001
1.40001
1.40001
1.40003
1.40143
1.4886
3.72194
5.20692
5.43669
5.52774
5.57446
5.6129
5.63597
5.65127
5.66422
5.67936
5.68703
5.69356
5.69994
5.71041
5.72777
5.7516
5.77836
5.80286
5.82278
5.83647
5.84303
5.84389
5.841
5.83691
5.83209
5.8262
5.81824
5.80696
5.7906
5.76613
5.72745
5.66515
5.56856
5.43597
5.28768
5.16459
5.09995
5.09115
1.40001
1.40001
1.40001
1.40001
1.40001
1.40001
1.40001
1.40001
1.40001
1.40001
1.40001
1.40001
1.40001
1.40001
1.40001
1.40001
1.40001
1.40001
1.40001
1.40001
1.40001
1.40001
1.40001
1.40001
1.40001
1.40001
1.40001
1.40001
1.40001
1.40001
1.40001
1.40001
1.40001
1.40001
1.40001
1.40001
1.40001
1.40001
1.40001
1.40001
1.40001
1.40001
1.40001
1.40001
1.40001
1.40001
1.40001
1.40001
1.40001
1.40001
1.40001
1.40001
1.40001
1.40001
1.40001
1.40003
1.40132
1.48222
3.57021
5.0944
5.43292
5.53614
5.56966
5.60068
5.62073
5.63968
5.65623
5.67381
5.68237
5.68928
5.6945
5.70387
5.7214
5.74663
5.7746
5.79967
5.81902
5.83165
5.83716
5.8375
5.83467
5.83075
5.82595
5.81974
5.81126
5.79961
5.78329
5.75908
5.72049
5.65817
5.56162
5.42891
5.28108
5.1592
5.09502
5.08929
1.40001
1.40001
1.40001
1.40001
1.40001
1.40001
1.40001
1.40001
1.40001
1.40001
1.40001
1.40001
1.40001
1.40001
1.40001
1.40001
1.40001
1.40001
1.40001
1.40001
1.40001
1.40001
1.40001
1.40001
1.40001
1.40001
1.40001
1.40001
1.40001
1.40001
1.40001
1.40001
1.40001
1.40001
1.40001
1.40001
1.40001
1.40001
1.40001
1.40001
1.40001
1.40001
1.40001
1.40001
1.40001
1.40001
1.40001
1.40001
1.40001
1.40001
1.40001
1.40001
1.40001
1.40001
1.40001
1.40002
1.40119
1.47505
3.40595
4.97254
5.42987
5.55409
5.57136
5.59197
5.61057
5.63145
5.64909
5.66728
5.67678
5.68438
5.68966
5.69855
5.71577
5.74169
5.77022
5.79545
5.81421
5.82606
5.83108
5.83127
5.82864
5.8248
5.81983
5.81324
5.80427
5.79234
5.776
5.7517
5.71261
5.64946
5.5523
5.41963
5.27321
5.1543
5.0907
5.08355
1.40001
1.40001
1.40001
1.40001
1.40001
1.40001
1.40001
1.40001
1.40001
1.40001
1.40001
1.40001
1.40001
1.40001
1.40001
1.40001
1.40001
1.40001
1.40001
1.40001
1.40001
1.40001
1.40001
1.40001
1.40001
1.40001
1.40001
1.40001
1.40001
1.40001
1.40001
1.40001
1.40001
1.40001
1.40001
1.40001
1.40001
1.40001
1.40001
1.40001
1.40001
1.40001
1.40001
1.40001
1.40001
1.40001
1.40001
1.40001
1.40001
1.40001
1.40001
1.40001
1.40001
1.40001
1.40001
1.40002
1.40103
1.46571
3.20509
4.84926
5.46628
5.57729
5.57554
5.58713
5.60556
5.62362
5.64197
5.66109
5.67113
5.67921
5.68501
5.6936
5.71029
5.7364
5.76508
5.79021
5.80846
5.81984
5.82476
5.82498
5.82248
5.81845
5.81313
5.80612
5.79681
5.78478
5.76837
5.74367
5.70359
5.6392
5.5416
5.40985
5.26554
5.1492
5.08523
5.07514
1.40001
1.40001
1.40001
1.40001
1.40001
1.40001
1.40001
1.40001
1.40001
1.40001
1.40001
1.40001
1.40001
1.40001
1.40001
1.40001
1.40001
1.40001
1.40001
1.40001
1.40001
1.40001
1.40001
1.40001
1.40001
1.40001
1.40001
1.40001
1.40001
1.40001
1.40001
1.40001
1.40001
1.40001
1.40001
1.40001
1.40001
1.40001
1.40001
1.40001
1.40001
1.40001
1.40001
1.40001
1.40001
1.40001
1.40001
1.40001
1.40001
1.40001
1.40001
1.40001
1.40001
1.40001
1.40001
1.40002
1.40081
1.45313
2.93848
4.76172
5.54041
5.57967
5.58386
5.58361
5.59978
5.61382
5.63474
5.65559
5.66531
5.67364
5.6799
5.68842
5.70498
5.73103
5.75946
5.78423
5.80201
5.81304
5.8179
5.81802
5.81538
5.81094
5.8052
5.79787
5.78844
5.77648
5.75991
5.73446
5.69317
5.62783
5.53046
5.40047
5.25817
5.143
5.07809
5.06549
1.40001
1.40001
1.40001
1.40001
1.40001
1.40001
1.40001
1.40001
1.40001
1.40001
1.40001
1.40001
1.40001
1.40001
1.40001
1.40001
1.40001
1.40001
1.40001
1.40001
1.40001
1.40001
1.40001
1.40001
1.40001
1.40001
1.40001
1.40001
1.40001
1.40001
1.40001
1.40001
1.40001
1.40001
1.40001
1.40001
1.40001
1.40001
1.40001
1.40001
1.40001
1.40001
1.40001
1.40001
1.40001
1.40001
1.40001
1.40001
1.40001
1.40001
1.40001
1.40001
1.40001
1.40001
1.40001
1.40001
1.40055
1.43707
2.57964
4.76958
5.62186
5.594
5.57312
5.57385
5.58852
5.60363
5.62846
5.6513
5.65956
5.6677
5.67396
5.68278
5.69989
5.72571
5.75355
5.77767
5.7948
5.80535
5.80999
5.80993
5.80699
5.80208
5.796
5.7885
5.77913
5.76725
5.75031
5.72391
5.68166
5.61613
5.51979
5.39181
5.25057
5.1352
5.06928
5.05452
1.40001
1.40001
1.40001
1.40001
1.40001
1.40001
1.40001
1.40001
1.40001
1.40001
1.40001
1.40001
1.40001
1.40001
1.40001
1.40001
1.40001
1.40001
1.40001
1.40001
1.40001
1.40001
1.40001
1.40001
1.40001
1.40001
1.40001
1.40001
1.40001
1.40001
1.40001
1.40001
1.40001
1.40001
1.40001
1.40001
1.40001
1.40001
1.40001
1.40001
1.40001
1.40001
1.40001
1.40001
1.40001
1.40001
1.40001
1.40001
1.40001
1.40001
1.40001
1.40001
1.40001
1.40001
1.40001
1.40001
1.40028
1.41997
2.137
4.8422
5.64051
5.59341
5.5494
5.5574
5.57102
5.5962
5.62529
5.64821
5.65438
5.66096
5.66698
5.67673
5.69488
5.72038
5.74736
5.77046
5.78666
5.79659
5.801
5.80079
5.79752
5.79217
5.78583
5.77822
5.76888
5.75679
5.73921
5.71187
5.66932
5.60454
5.5099
5.38369
5.24262
5.12643
5.05963
5.04148
1.40001
1.40001
1.40001
1.40001
1.40001
1.40001
1.40001
1.40001
1.40001
1.40001
1.40001
1.40001
1.40001
1.40001
1.40001
1.40001
1.40001
1.40001
1.40001
1.40001
1.40001
1.40001
1.40001
1.40001
1.40001
1.40001
1.40001
1.40001
1.40001
1.40001
1.40001
1.40001
1.40001
1.40001
1.40001
1.40001
1.40001
1.40001
1.40001
1.40001
1.40001
1.40001
1.40001
1.40001
1.40001
1.40001
1.40001
1.40001
1.40001
1.40001
1.40001
1.40001
1.40001
1.40001
1.40001
1.40001
1.40011
1.40731
1.72567
4.80387
5.61523
5.54289
5.52413
5.5385
5.55789
5.59178
5.62486
5.64368
5.64898
5.6531
5.65937
5.67047
5.68978
5.71485
5.74078
5.76246
5.77739
5.7866
5.79087
5.79064
5.7872
5.78158
5.77503
5.76725
5.75772
5.74504
5.72667
5.69882
5.65683
5.59361
5.50088
5.37587
5.23438
5.1169
5.05023
5.02406
1.40001
1.40001
1.40001
1.40001
1.40001
1.40001
1.40001
1.40001
1.40001
1.40001
1.40001
1.40001
1.40001
1.40001
1.40001
1.40001
1.40001
1.40001
1.40001
1.40001
1.40001
1.40001
1.40001
1.40001
1.40001
1.40001
1.40001
1.40001
1.40001
1.40001
1.40001
1.40001
1.40001
1.40001
1.40001
1.40001
1.40001
1.40001
1.40001
1.40001
1.40001
1.40001
1.40001
1.40001
1.40001
1.40001
1.40001
1.40001
1.40001
1.40001
1.40001
1.40001
1.40001
1.40001
1.40001
1.40001
1.40004
1.40236
1.5359
4.58882
5.50175
5.49465
5.50348
5.51578
5.55155
5.58905
5.62514
5.63605
5.64144
5.64481
5.65129
5.66394
5.68425
5.70884
5.73353
5.75335
5.76671
5.77521
5.77953
5.77959
5.77623
5.77055
5.76378
5.75563
5.74551
5.73183
5.71264
5.68486
5.64418
5.583
5.49204
5.36786
5.22577
5.10567
5.04151
5.00551
1.40001
1.40001
1.40001
1.40001
1.40001
1.40001
1.40001
1.40001
1.40001
1.40001
1.40001
1.40001
1.40001
1.40001
1.40001
1.40001
1.40001
1.40001
1.40001
1.40001
1.40001
1.40001
1.40001
1.40001
1.40001
1.40001
1.40001
1.40001
1.40001
1.40001
1.40001
1.40001
1.40001
1.40001
1.40001
1.40001
1.40001
1.40001
1.40001
1.40001
1.40001
1.40001
1.40001
1.40001
1.40001
1.40001
1.40001
1.40001
1.40001
1.40001
1.40001
1.40001
1.40001
1.40001
1.40001
1.40001
1.40003
1.40175
1.50846
4.26563
5.35756
5.4571
5.47514
5.50409
5.54604
5.592
5.62219
5.62746
5.63245
5.63544
5.64181
5.6572
5.67823
5.70224
5.72526
5.74275
5.75433
5.76225
5.76693
5.76763
5.76464
5.75905
5.75194
5.74312
5.73195
5.71708
5.69727
5.67025
5.63154
5.57256
5.48309
5.35925
5.21587
5.09016
5.02183
4.99966
1.40001
1.40001
1.40001
1.40001
1.40001
1.40001
1.40001
1.40001
1.40001
1.40001
1.40001
1.40001
1.40001
1.40001
1.40001
1.40001
1.40001
1.40001
1.40001
1.40001
1.40001
1.40001
1.40001
1.40001
1.40001
1.40001
1.40001
1.40001
1.40001
1.40001
1.40001
1.40001
1.40001
1.40001
1.40001
1.40001
1.40001
1.40001
1.40001
1.40001
1.40001
1.40001
1.40001
1.40001
1.40001
1.40001
1.40001
1.40001
1.40001
1.40001
1.40001
1.40001
1.40001
1.40001
1.40001
1.40001
1.40003
1.40151
1.49357
3.91643
5.20738
5.41258
5.44597
5.49085
5.55006
5.59986
5.61022
5.62098
5.62148
5.62393
5.63122
5.65055
5.67215
5.69496
5.71557
5.73031
5.74007
5.74766
5.75302
5.75466
5.75228
5.74683
5.73921
5.72943
5.71692
5.70085
5.68074
5.65499
5.61847
5.56135
5.47279
5.34832
5.20279
5.07334
5.00193
4.99412
1.40001
1.40001
1.40001
1.40001
1.40001
1.40001
1.40001
1.40001
1.40001
1.40001
1.40001
1.40001
1.40001
1.40001
1.40001
1.40001
1.40001
1.40001
1.40001
1.40001
1.40001
1.40001
1.40001
1.40001
1.40001
1.40001
1.40001
1.40001
1.40001
1.40001
1.40001
1.40001
1.40001
1.40001
1.40001
1.40001
1.40001
1.40001
1.40001
1.40001
1.40001
1.40001
1.40001
1.40001
1.40001
1.40001
1.40001
1.40001
1.40001
1.40001
1.40001
1.40001
1.40001
1.40001
1.40001
1.40001
1.40003
1.40131
1.48124
3.58939
5.03326
5.33361
5.42995
5.49733
5.56302
5.58865
5.60482
5.60805
5.60518
5.6111
5.62236
5.64449
5.66591
5.68666
5.7041
5.71587
5.72394
5.73146
5.73772
5.74049
5.73884
5.73349
5.72521
5.71425
5.70024
5.68325
5.66323
5.63893
5.60446
5.54848
5.46002
5.33445
5.18793
5.05889
4.98629
4.97998
1.40001
1.40001
1.40001
1.40001
1.40001
1.40001
1.40001
1.40001
1.40001
1.40001
1.40001
1.40001
1.40001
1.40001
1.40001
1.40001
1.40001
1.40001
1.40001
1.40001
1.40001
1.40001
1.40001
1.40001
1.40001
1.40001
1.40001
1.40001
1.40001
1.40001
1.40001
1.40001
1.40001
1.40001
1.40001
1.40001
1.40001
1.40001
1.40001
1.40001
1.40001
1.40001
1.40001
1.40001
1.40001
1.40001
1.40001
1.40001
1.40001
1.40001
1.40001
1.40001
1.40001
1.40001
1.40001
1.40001
1.40002
1.40111
1.46959
3.28612
4.83117
5.31167
5.44725
5.52108
5.55855
5.58285
5.59324
5.58533
5.58875
5.59752
5.61615
5.63974
5.659
5.67687
5.69061
5.69939
5.7061
5.71376
5.72102
5.72494
5.72401
5.71861
5.70963
5.69731
5.68201
5.66447
5.64473
5.62158
5.5883
5.53247
5.44394
5.31867
5.17327
5.04573
4.97015
4.95925
1.40001
1.40001
1.40001
1.40001
1.40001
1.40001
1.40001
1.40001
1.40001
1.40001
1.40001
1.40001
1.40001
1.40001
1.40001
1.40001
1.40001
1.40001
1.40001
1.40001
1.40001
1.40001
1.40001
1.40001
1.40001
1.40001
1.40001
1.40001
1.40001
1.40001
1.40001
1.40001
1.40001
1.40001
1.40001
1.40001
1.40001
1.40001
1.40001
1.40001
1.40001
1.40001
1.40001
1.40001
1.40001
1.40001
1.40001
1.40001
1.40001
1.40001
1.40001
1.40001
1.40001
1.40001
1.40001
1.40001
1.40002
1.40084
1.45396
2.93697
4.65465
5.36691
5.49198
5.53308
5.57086
5.57707
5.56218
5.56151
5.57253
5.58841
5.61229
5.63483
5.65092
5.66492
5.67471
5.68094
5.6868
5.69472
5.70295
5.7079
5.70751
5.70188
5.69203
5.67837
5.66229
5.64439
5.62479
5.60219
5.56899
5.51304
5.42568
5.30283
5.15975
5.03159
4.9504
4.93228
1.40001
1.40001
1.40001
1.40001
1.40001
1.40001
1.40001
1.40001
1.40001
1.40001
1.40001
1.40001
1.40001
1.40001
1.40001
1.40001
1.40001
1.40001
1.40001
1.40001
1.40001
1.40001
1.40001
1.40001
1.40001
1.40001
1.40001
1.40001
1.40001
1.40001
1.40001
1.40001
1.40001
1.40001
1.40001
1.40001
1.40001
1.40001
1.40001
1.40001
1.40001
1.40001
1.40001
1.40001
1.40001
1.40001
1.40001
1.40001
1.40001
1.40001
1.40001
1.40001
1.40001
1.40001
1.40001
1.40001
1.40001
1.40049
1.43272
2.47495
4.63767
5.49348
5.54603
5.56529
5.55379
5.53265
5.52806
5.54322
5.56062
5.58507
5.61118
5.62739
5.64046
5.65
5.65614
5.66061
5.66627
5.67461
5.68372
5.68939
5.68911
5.68294
5.67221
5.65756
5.64086
5.62271
5.60291
5.57988
5.54584
5.49035
5.4057
5.28688
5.14582
5.01476
4.92667
4.89946
1.40001
1.40001
1.40001
1.40001
1.40001
1.40001
1.40001
1.40001
1.40001
1.40001
1.40001
1.40001
1.40001
1.40001
1.40001
1.40001
1.40001
1.40001
1.40001
1.40001
1.40001
1.40001
1.40001
1.40001
1.40001
1.40001
1.40001
1.40001
1.40001
1.40001
1.40001
1.40001
1.40001
1.40001
1.40001
1.40001
1.40001
1.40001
1.40001
1.40001
1.40001
1.40001
1.40001
1.40001
1.40001
1.40001
1.40001
1.40001
1.40001
1.40001
1.40001
1.40001
1.40001
1.40001
1.40001
1.40001
1.40001
1.40017
1.41137
1.87052
4.6828
5.56789
5.56156
5.5074
5.48743
5.48792
5.50991
5.5316
5.55894
5.5864
5.60794
5.61744
5.62643
5.63155
5.63466
5.63874
5.64504
5.65394
5.66366
5.66949
5.66866
5.66165
5.64999
5.63472
5.61747
5.59891
5.57828
5.55375
5.519
5.46517
5.38481
5.27072
5.13023
4.99468
4.90061
4.85647
1.40001
1.40001
1.40001
1.40001
1.40001
1.40001
1.40001
1.40001
1.40001
1.40001
1.40001
1.40001
1.40001
1.40001
1.40001
1.40001
1.40001
1.40001
1.40001
1.40001
1.40001
1.40001
1.40001
1.40001
1.40001
1.40001
1.40001
1.40001
1.40001
1.40001
1.40001
1.40001
1.40001
1.40001
1.40001
1.40001
1.40001
1.40001
1.40001
1.40001
1.40001
1.40001
1.40001
1.40001
1.40001
1.40001
1.40001
1.40001
1.40001
1.40001
1.40001
1.40001
1.40001
1.40001
1.40001
1.40001
1.40001
1.40005
1.40257
1.53872
4.37418
5.49085
5.4812
5.445
5.44342
5.47394
5.50039
5.53305
5.56404
5.58911
5.59816
5.60533
5.60847
5.60885
5.61074
5.61656
5.62393
5.63343
5.64307
5.6481
5.64588
5.63791
5.62546
5.60958
5.59189
5.57255
5.55015
5.52377
5.48886
5.43785
5.36198
5.25158
5.10955
4.96775
4.8728
4.80532
1.40001
1.40001
1.40001
1.40001
1.40001
1.40001
1.40001
1.40001
1.40001
1.40001
1.40001
1.40001
1.40001
1.40001
1.40001
1.40001
1.40001
1.40001
1.40001
1.40001
1.40001
1.40001
1.40001
1.40001
1.40001
1.40001
1.40001
1.40001
1.40001
1.40001
1.40001
1.40001
1.40001
1.40001
1.40001
1.40001
1.40001
1.40001
1.40001
1.40001
1.40001
1.40001
1.40001
1.40001
1.40001
1.40001
1.40001
1.40001
1.40001
1.40001
1.40001
1.40001
1.40001
1.40001
1.40001
1.40001
1.40001
1.40003
1.40144
1.49043
3.83457
5.30427
5.40381
5.41245
5.44056
5.46947
5.50616
5.54235
5.57003
5.58068
5.58802
5.58893
5.58445
5.58326
5.58714
5.59526
5.60392
5.61356
5.62187
5.62494
5.62083
5.61163
5.59852
5.58217
5.56372
5.5429
5.51848
5.49056
5.45594
5.40798
5.33596
5.22777
5.08248
4.93005
4.82237
4.76765
1.40001
1.40001
1.40001
1.40001
1.40001
1.40001
1.40001
1.40001
1.40001
1.40001
1.40001
1.40001
1.40001
1.40001
1.40001
1.40001
1.40001
1.40001
1.40001
1.40001
1.40001
1.40001
1.40001
1.40001
1.40001
1.40001
1.40001
1.40001
1.40001
1.40001
1.40001
1.40001
1.40001
1.40001
1.40001
1.40001
1.40001
1.40001
1.40001
1.40001
1.40001
1.40001
1.40001
1.40001
1.40001
1.40001
1.40001
1.40001
1.40001
1.40001
1.40001
1.40001
1.40001
1.40001
1.40001
1.40001
1.40001
1.40002
1.40106
1.46731
3.31378
5.10483
5.36316
5.40074
5.43884
5.48194
5.51876
5.54441
5.5591
5.57153
5.572
5.56397
5.55749
5.559
5.56642
5.57591
5.58539
5.59401
5.59956
5.59959
5.5936
5.58316
5.56913
5.55229
5.53272
5.50992
5.48333
5.45405
5.41984
5.37416
5.30374
5.19418
5.04361
4.88001
4.75948
4.73446
1.40001
1.40001
1.40001
1.40001
1.40001
1.40001
1.40001
1.40001
1.40001
1.40001
1.40001
1.40001
1.40001
1.40001
1.40001
1.40001
1.40001
1.40001
1.40001
1.40001
1.40001
1.40001
1.40001
1.40001
1.40001
1.40001
1.40001
1.40001
1.40001
1.40001
1.40001
1.40001
1.40001
1.40001
1.40001
1.40001
1.40001
1.40001
1.40001
1.40001
1.40001
1.40001
1.40001
1.40001
1.40001
1.40001
1.40001
1.40001
1.40001
1.40001
1.40001
1.40001
1.40001
1.40001
1.40001
1.40001
1.40001
1.40002
1.4007
1.44524
2.78937
4.98897
5.33086
5.41078
5.45764
5.49291
5.51166
5.53402
5.55056
5.55114
5.54396
5.53515
5.53385
5.53909
5.54945
5.55887
5.56778
5.57386
5.57551
5.572
5.56393
5.55244
5.53776
5.52017
5.49914
5.4743
5.44536
5.41407
5.37944
5.33416
5.26355
5.15062
4.99446
4.82639
4.69856
4.67154
1.40001
1.40001
1.40001
1.40001
1.40001
1.40001
1.40001
1.40001
1.40001
1.40001
1.40001
1.40001
1.40001
1.40001
1.40001
1.40001
1.40001
1.40001
1.40001
1.40001
1.40001
1.40001
1.40001
1.40001
1.40001
1.40001
1.40001
1.40001
1.40001
1.40001
1.40001
1.40001
1.40001
1.40001
1.40001
1.40001
1.40001
1.40001
1.40001
1.40001
1.40001
1.40001
1.40001
1.40001
1.40001
1.40001
1.40001
1.40001
1.40001
1.40001
1.40001
1.40001
1.40001
1.40001
1.40001
1.40001
1.40001
1.40001
1.40034
1.42201
2.2065
4.90623
5.36061
5.43515
5.47245
5.49486
5.50949
5.51704
5.5199
5.51753
5.51197
5.51152
5.51539
5.5246
5.53458
5.54314
5.54979
5.55183
5.5489
5.54201
5.53223
5.51963
5.50444
5.48606
5.46361
5.43634
5.40437
5.37013
5.33343
5.28631
5.21293
5.09508
4.9339
4.76442
4.62088
4.58006
1.40001
1.40001
1.40001
1.40001
1.40001
1.40001
1.40001
1.40001
1.40001
1.40001
1.40001
1.40001
1.40001
1.40001
1.40001
1.40001
1.40001
1.40001
1.40001
1.40001
1.40001
1.40001
1.40001
1.40001
1.40001
1.40001
1.40001
1.40001
1.40001
1.40001
1.40001
1.40001
1.40001
1.40001
1.40001
1.40001
1.40001
1.40001
1.40001
1.40001
1.40001
1.40001
1.40001
1.40001
1.40001
1.40001
1.40001
1.40001
1.40001
1.40001
1.40001
1.40001
1.40001
1.40001
1.40001
1.40001
1.40001
1.40001
1.40009
1.40479
1.62037
4.54287
5.33872
5.47505
5.48069
5.47856
5.47884
5.48188
5.48395
5.48557
5.48918
5.49399
5.5022
5.51249
5.52068
5.52719
5.52973
5.52658
5.51895
5.50948
5.49848
5.48539
5.46967
5.45065
5.42657
5.39624
5.36037
5.32198
5.28113
5.22966
5.15189
5.03062
4.86445
4.68318
4.52788
4.43184
1.40001
1.40001
1.40001
1.40001
1.40001
1.40001
1.40001
1.40001
1.40001
1.40001
1.40001
1.40001
1.40001
1.40001
1.40001
1.40001
1.40001
1.40001
1.40001
1.40001
1.40001
1.40001
1.40001
1.40001
1.40001
1.40001
1.40001
1.40001
1.40001
1.40001
1.40001
1.40001
1.40001
1.40001
1.40001
1.40001
1.40001
1.40001
1.40001
1.40001
1.40001
1.40001
1.40001
1.40001
1.40001
1.40001
1.40001
1.40001
1.40001
1.40001
1.40001
1.40001
1.40001
1.40001
1.40001
1.40001
1.40001
1.40001
1.40003
1.40164
1.49881
3.86288
5.17273
5.46177
5.47266
5.46866
5.46317
5.46077
5.46265
5.46664
5.47266
5.48142
5.49173
5.49969
5.50546
5.50834
5.50538
5.49656
5.48587
5.47521
5.46371
5.45032
5.43411
5.41395
5.38755
5.35365
5.31313
5.26927
5.22228
5.16449
5.08106
4.95386
4.77418
4.55897
4.34997
4.24562
1.40001
1.40001
1.40001
1.40001
1.40001
1.40001
1.40001
1.40001
1.40001
1.40001
1.40001
1.40001
1.40001
1.40001
1.40001
1.40001
1.40001
1.40001
1.40001
1.40001
1.40001
1.40001
1.40001
1.40001
1.40001
1.40001
1.40001
1.40001
1.40001
1.40001
1.40001
1.40001
1.40001
1.40001
1.40001
1.40001
1.40001
1.40001
1.40001
1.40001
1.40001
1.40001
1.40001
1.40001
1.40001
1.40001
1.40001
1.40001
1.40001
1.40001
1.40001
1.40001
1.40001
1.40001
1.40001
1.40001
1.40001
1.40001
1.40002
1.401
1.46408
3.23473
4.9864
5.45247
5.459
5.45532
5.44753
5.443
5.44543
5.45211
5.45969
5.46969
5.47645
5.48182
5.48568
5.48319
5.47388
5.46239
5.45121
5.44063
5.42859
5.41453
5.39791
5.37579
5.34628
5.3085
5.26291
5.21262
5.15786
5.09173
4.99994
4.86188
4.66059
4.41389
4.14842
3.88702
1.40001
1.40001
1.40001
1.40001
1.40001
1.40001
1.40001
1.40001
1.40001
1.40001
1.40001
1.40001
1.40001
1.40001
1.40001
1.40001
1.40001
1.40001
1.40001
1.40001
1.40001
1.40001
1.40001
1.40001
1.40001
1.40001
1.40001
1.40001
1.40001
1.40001
1.40001
1.40001
1.40001
1.40001
1.40001
1.40001
1.40001
1.40001
1.40001
1.40001
1.40001
1.40001
1.40001
1.40001
1.40001
1.40001
1.40001
1.40001
1.40001
1.40001
1.40001
1.40001
1.40001
1.40001
1.40001
1.40001
1.40001
1.40001
1.40001
1.40053
1.43491
2.58662
4.94596
5.49557
5.45282
5.43905
5.43085
5.42797
5.43191
5.43976
5.44871
5.45414
5.45781
5.45938
5.4562
5.44792
5.43776
5.42762
5.4174
5.40636
5.39334
5.37877
5.36061
5.33579
5.30266
5.26049
5.20963
5.15239
5.08871
5.01226
4.90905
4.75583
4.52682
4.22659
3.79968
2.95006
1.40001
1.40001
1.40001
1.40001
1.40001
1.40001
1.40001
1.40001
1.40001
1.40001
1.40001
1.40001
1.40001
1.40001
1.40001
1.40001
1.40001
1.40001
1.40001
1.40001
1.40001
1.40001
1.40001
1.40001
1.40001
1.40001
1.40001
1.40001
1.40001
1.40001
1.40001
1.40001
1.40001
1.40001
1.40001
1.40001
1.40001
1.40001
1.40001
1.40001
1.40001
1.40001
1.40001
1.40001
1.40001
1.40001
1.40001
1.40001
1.40001
1.40001
1.40001
1.40001
1.40001
1.40001
1.40001
1.40001
1.40001
1.40001
1.40001
1.40016
1.40954
1.80951
4.7597
5.47577
5.43116
5.41761
5.41796
5.41864
5.42413
5.43386
5.44104
5.44166
5.43783
5.43056
5.42106
5.41251
5.40403
5.39528
5.38499
5.3729
5.35904
5.34274
5.32159
5.2935
5.25659
5.21006
5.15419
5.09013
5.01752
4.92928
4.81171
4.64162
4.39269
4.03549
3.50152
2.64743
1.40001
1.40001
1.40001
1.40001
1.40001
1.40001
1.40001
1.40001
1.40001
1.40001
1.40001
1.40001
1.40001
1.40001
1.40001
1.40001
1.40001
1.40001
1.40001
1.40001
1.40001
1.40001
1.40001
1.40001
1.40001
1.40001
1.40001
1.40001
1.40001
1.40001
1.40001
1.40001
1.40001
1.40001
1.40001
1.40001
1.40001
1.40001
1.40001
1.40001
1.40001
1.40001
1.40001
1.40001
1.40001
1.40001
1.40001
1.40001
1.40001
1.40001
1.40001
1.40001
1.40001
1.40001
1.40001
1.40001
1.40001
1.40001
1.40001
1.40004
1.4021
1.51782
4.07873
5.25811
5.35603
5.3826
5.40413
5.40885
5.41931
5.43279
5.43769
5.43145
5.41815
5.40282
5.39013
5.38147
5.37383
5.36502
5.35443
5.34137
5.32554
5.30603
5.28096
5.24897
5.20831
5.15783
5.09733
5.02677
4.94489
4.84558
4.71458
4.53094
4.26632
3.88324
3.34158
2.6492
1.40001
1.40001
1.40001
1.40001
1.40001
1.40001
1.40001
1.40001
1.40001
1.40001
1.40001
1.40001
1.40001
1.40001
1.40001
1.40001
1.40001
1.40001
1.40001
1.40001
1.40001
1.40001
1.40001
1.40001
1.40001
1.40001
1.40001
1.40001
1.40001
1.40001
1.40001
1.40001
1.40001
1.40001
1.40001
1.40001
1.40001
1.40001
1.40001
1.40001
1.40001
1.40001
1.40001
1.40001
1.40001
1.40001
1.40001
1.40001
1.40001
1.40001
1.40001
1.40001
1.40001
1.40001
1.40001
1.40001
1.40001
1.40001
1.40001
1.40002
1.40103
1.46546
3.31838
5.00318
5.32811
5.38731
5.40027
5.40712
5.42224
5.43374
5.43264
5.41897
5.39878
5.37818
5.36413
5.3536
5.34492
5.33583
5.32505
5.31043
5.29159
5.26826
5.23899
5.20289
5.15856
5.1047
5.04024
4.964
4.87379
4.7643
4.62301
4.43107
4.16616
3.79802
3.3364
2.81457
1.40001
1.40001
1.40001
1.40001
1.40001
1.40001
1.40001
1.40001
1.40001
1.40001
1.40001
1.40001
1.40001
1.40001
1.40001
1.40001
1.40001
1.40001
1.40001
1.40001
1.40001
1.40001
1.40001
1.40001
1.40001
1.40001
1.40001
1.40001
1.40001
1.40001
1.40001
1.40001
1.40001
1.40001
1.40001
1.40001
1.40001
1.40001
1.40001
1.40001
1.40001
1.40001
1.40001
1.40001
1.40001
1.40001
1.40001
1.40001
1.40001
1.40001
1.40001
1.40001
1.40001
1.40001
1.40001
1.40001
1.40001
1.40001
1.40001
1.40001
1.40049
1.43137
2.52895
4.91289
5.37032
5.3902
5.39115
5.40111
5.41535
5.42132
5.41587
5.40026
5.37896
5.35628
5.34171
5.32814
5.31761
5.30795
5.29607
5.27915
5.25707
5.22988
5.19656
5.15652
5.10875
5.05186
4.98401
4.9029
4.80567
4.68756
4.53957
4.34527
4.09254
3.75675
3.35392
2.91056
1.40001
1.40001
1.40001
1.40001
1.40001
1.40001
1.40001
1.40001
1.40001
1.40001
1.40001
1.40001
1.40001
1.40001
1.40001
1.40001
1.40001
1.40001
1.40001
1.40001
1.40001
1.40001
1.40001
1.40001
1.40001
1.40001
1.40001
1.40001
1.40001
1.40001
1.40001
1.40001
1.40001
1.40001
1.40001
1.40001
1.40001
1.40001
1.40001
1.40001
1.40001
1.40001
1.40001
1.40001
1.40001
1.40001
1.40001
1.40001
1.40001
1.40001
1.40001
1.40001
1.40001
1.40001
1.40001
1.40001
1.40001
1.40001
1.40001
1.40001
1.40013
1.40713
1.71781
4.56144
5.37411
5.38947
5.37541
5.38452
5.39857
5.3993
5.39026
5.37665
5.3584
5.33586
5.32047
5.30503
5.29212
5.28024
5.26584
5.24613
5.22104
5.19049
5.15379
5.1104
5.05964
5.00014
4.92951
4.8446
4.74246
4.61845
4.46766
4.27601
4.04021
3.74214
3.37898
2.98531
1.40001
1.40001
1.40001
1.40001
1.40001
1.40001
1.40001
1.40001
1.40001
1.40001
1.40001
1.40001
1.40001
1.40001