/*--------------------------------*- C++ -*----------------------------------*\
| =========                 |                                                 |
| \\      /  F ield         | OpenFOAM: The Open Source CFD Toolbox           |
|  \\    /   O peration     | Version:  v1812                                 |
|   \\  /    A nd           | Web:      www.OpenFOAM.com                      |
|    \\/     M anipulation  |                                                 |
\*---------------------------------------------------------------------------*/
FoamFile
{
    version     2.0;
    format      ascii;
    class       volScalarField;
    location    "0.7";
    object      T;
}
// * * * * * * * * * * * * * * * * * * * * * * * * * * * * * * * * * * * * * //

dimensions      [0 0 0 1 0 0 0];


internalField   nonuniform List<scalar> 
64512
(
1
1
1
1
1
1
1
1
1
1
1
1
1
1
1
1
1
1
1
1
1
1
1
1
1
1
1
1
1
1
1
1
1
1
1
1
1
1
1
1
1
1
1
1
1
1
1
1
1
1
1
1
1
1
1
1.00001
1.00053
1.03399
2.50414
2.78344
2.80287
2.80951
2.8103
2.80914
2.80811
2.80968
2.81739
2.83142
2.84456
2.85124
2.85375
2.85533
2.8569
2.85937
2.86332
2.86845
2.87361
2.87796
2.88161
2.88531
2.89006
2.89681
2.90609
2.91779
2.93151
2.94738
2.96649
2.99182
3.02915
3.0856
3.16396
3.25394
3.33043
3.37312
3.38505
3.38564
1
1
1
1
1
1
1
1
1
1
1
1
1
1
1
1
1
1
1
1
1
1
1
1
1
1
1
1
1
1
1
1
1
1
1
1
1
1
1
1
1
1
1
1
1
1
1
1
1
1
1
1
1
1
1
1.00001
1.00053
1.03392
2.48274
2.76612
2.80145
2.81421
2.81939
2.82188
2.82332
2.8242
2.82661
2.83251
2.83967
2.84432
2.84675
2.84932
2.85271
2.85695
2.86236
2.86816
2.8734
2.87765
2.88116
2.88471
2.88926
2.89573
2.9047
2.9161
2.9295
2.94496
2.96346
2.98785
3.02369
3.07802
3.15425
3.24357
3.32226
3.36894
3.38403
3.38572
1
1
1
1
1
1
1
1
1
1
1
1
1
1
1
1
1
1
1
1
1
1
1
1
1
1
1
1
1
1
1
1
1
1
1
1
1
1
1
1
1
1
1
1
1
1
1
1
1
1
1
1
1
1
1
1.00001
1.00053
1.03396
2.47813
2.76841
2.80394
2.81726
2.82377
2.82863
2.83305
2.834
2.83319
2.83342
2.83466
2.8362
2.83845
2.84282
2.84905
2.85581
2.8625
2.86837
2.87307
2.87681
2.8802
2.88391
2.88861
2.89495
2.90336
2.91392
2.92638
2.94084
2.95822
2.98103
3.01434
3.06494
3.13722
3.22507
3.30741
3.36129
3.38205
3.38556
1
1
1
1
1
1
1
1
1
1
1
1
1
1
1
1
1
1
1
1
1
1
1
1
1
1
1
1
1
1
1
1
1
1
1
1
1
1
1
1
1
1
1
1
1
1
1
1
1
1
1
1
1
1
1
1.00001
1.00053
1.03361
2.47078
2.78197
2.80842
2.81476
2.81703
2.82098
2.82696
2.83279
2.83528
2.83434
2.83322
2.8326
2.83378
2.83862
2.84677
2.85537
2.86278
2.86854
2.87278
2.87628
2.87976
2.88381
2.8888
2.89508
2.90297
2.91258
2.92387
2.9371
2.95316
2.97424
3.00479
3.05122
3.11887
3.20464
3.29055
3.35224
3.37946
3.38508
1
1
1
1
1
1
1
1
1
1
1
1
1
1
1
1
1
1
1
1
1
1
1
1
1
1
1
1
1
1
1
1
1
1
1
1
1
1
1
1
1
1
1
1
1
1
1
1
1
1
1
1
1
1
1
1.00001
1.00052
1.03287
2.46965
2.79604
2.81059
2.80894
2.80614
2.80884
2.81706
2.82923
2.83643
2.83587
2.83391
2.83241
2.83295
2.83683
2.84466
2.8537
2.86167
2.86778
2.87229
2.8761
2.87999
2.88445
2.88974
2.89593
2.90333
2.9121
2.92235
2.93451
2.94943
2.96907
2.99727
3.04003
3.10337
3.1868
3.27525
3.34353
3.37666
3.38409
1
1
1
1
1
1
1
1
1
1
1
1
1
1
1
1
1
1
1
1
1
1
1
1
1
1
1
1
1
1
1
1
1
1
1
1
1
1
1
1
1
1
1
1
1
1
1
1
1
1
1
1
1
1
1
1.00001
1.0005
1.0316
2.45475
2.80131
2.80716
2.80229
2.79604
2.79851
2.80746
2.82282
2.83442
2.83611
2.83453
2.83269
2.83317
2.83657
2.84365
2.85228
2.86035
2.8669
2.87198
2.87633
2.8808
2.88575
2.89121
2.89713
2.9039
2.91194
2.92143
2.93285
2.94705
2.96579
2.99241
3.03249
3.09242
3.17364
3.26345
3.33641
3.3742
3.38236
1
1
1
1
1
1
1
1
1
1
1
1
1
1
1
1
1
1
1
1
1
1
1
1
1
1
1
1
1
1
1
1
1
1
1
1
1
1
1
1
1
1
1
1
1
1
1
1
1
1
1
1
1
1
1
1.00001
1.00047
1.02994
2.42333
2.80157
2.80169
2.79486
2.79102
2.7933
2.80274
2.81897
2.83173
2.83519
2.83424
2.83257
2.83312
2.8365
2.84302
2.85091
2.85873
2.86563
2.87144
2.87651
2.88151
2.88674
2.89215
2.89779
2.9041
2.91157
2.92051
2.93151
2.94541
2.96379
2.9896
3.028
3.08559
3.16499
3.25528
3.33102
3.372
3.38042
1
1
1
1
1
1
1
1
1
1
1
1
1
1
1
1
1
1
1
1
1
1
1
1
1
1
1
1
1
1
1
1
1
1
1
1
1
1
1
1
1
1
1
1
1
1
1
1
1
1
1
1
1
1
1
1.00001
1.00044
1.02796
2.38244
2.79894
2.79672
2.78786
2.7877
2.79226
2.80376
2.81939
2.83028
2.83317
2.8328
2.83185
2.83278
2.83663
2.84281
2.84978
2.85698
2.86397
2.87039
2.87614
2.88157
2.88698
2.89229
2.89768
2.90362
2.91059
2.91917
2.93003
2.94398
2.96239
2.98791
3.02543
3.0816
3.1597
3.24987
3.32655
3.36877
3.38006
1
1
1
1
1
1
1
1
1
1
1
1
1
1
1
1
1
1
1
1
1
1
1
1
1
1
1
1
1
1
1
1
1
1
1
1
1
1
1
1
1
1
1
1
1
1
1
1
1
1
1
1
1
1
1
1.00001
1.00041
1.02598
2.34648
2.79604
2.79172
2.78161
2.78417
2.79386
2.80829
2.8223
2.82992
2.83082
2.83062
2.8305
2.83212
2.83673
2.84268
2.84877
2.85525
2.86211
2.86891
2.87526
2.88119
2.88672
2.89185
2.89683
2.90225
2.9088
2.91723
2.92821
2.94244
2.96109
2.98661
3.02374
3.07911
3.15626
3.24598
3.32285
3.36592
3.38007
1
1
1
1
1
1
1
1
1
1
1
1
1
1
1
1
1
1
1
1
1
1
1
1
1
1
1
1
1
1
1
1
1
1
1
1
1
1
1
1
1
1
1
1
1
1
1
1
1
1
1
1
1
1
1
1.00001
1.00038
1.0241
2.31441
2.79311
2.78513
2.77456
2.7805
2.79629
2.81383
2.82585
2.82994
2.82922
2.82829
2.82849
2.83081
2.83618
2.84221
2.8478
2.85375
2.86041
2.86734
2.87401
2.88021
2.88573
2.8905
2.895
2.89997
2.90627
2.91473
2.92601
2.94063
2.95961
2.98526
3.02222
3.07709
3.15352
3.24282
3.32022
3.3641
3.37918
1
1
1
1
1
1
1
1
1
1
1
1
1
1
1
1
1
1
1
1
1
1
1
1
1
1
1
1
1
1
1
1
1
1
1
1
1
1
1
1
1
1
1
1
1
1
1
1
1
1
1
1
1
1
1
1.00001
1.00034
1.02204
2.27372
2.78379
2.77259
2.7669
2.7775
2.79849
2.81717
2.82737
2.82912
2.82733
2.82556
2.82587
2.82877
2.83502
2.84151
2.84696
2.85252
2.8589
2.86571
2.87236
2.8785
2.88379
2.88817
2.89229
2.89696
2.90319
2.91181
2.92346
2.93848
2.95775
2.98352
3.02037
3.07491
3.15094
3.2402
3.31829
3.36263
3.37745
1
1
1
1
1
1
1
1
1
1
1
1
1
1
1
1
1
1
1
1
1
1
1
1
1
1
1
1
1
1
1
1
1
1
1
1
1
1
1
1
1
1
1
1
1
1
1
1
1
1
1
1
1
1
1
1
1.00029
1.01937
2.2062
2.76518
2.75475
2.76012
2.77728
2.8016
2.81925
2.82718
2.827
2.82422
2.8222
2.82278
2.82644
2.83366
2.84075
2.84617
2.85133
2.85731
2.8638
2.87019
2.87607
2.88104
2.8851
2.88897
2.89354
2.89983
2.90869
2.92066
2.93597
2.95538
2.98114
3.01789
3.07228
3.1483
3.23784
3.31647
3.36097
3.3751
1
1
1
1
1
1
1
1
1
1
1
1
1
1
1
1
1
1
1
1
1
1
1
1
1
1
1
1
1
1
1
1
1
1
1
1
1
1
1
1
1
1
1
1
1
1
1
1
1
1
1
1
1
1
1
1
1.00023
1.01574
2.08879
2.72552
2.73883
2.75788
2.78223
2.80627
2.82021
2.82542
2.82363
2.81983
2.81824
2.81942
2.82422
2.83239
2.83992
2.84521
2.84994
2.85547
2.86156
2.86762
2.87316
2.87781
2.88164
2.88542
2.89001
2.89645
2.90554
2.9177
2.93306
2.95236
2.97796
3.01462
3.06908
3.14543
3.23534
3.31429
3.35889
3.3725
1
1
1
1
1
1
1
1
1
1
1
1
1
1
1
1
1
1
1
1
1
1
1
1
1
1
1
1
1
1
1
1
1
1
1
1
1
1
1
1
1
1
1
1
1
1
1
1
1
1
1
1
1
1
1
1
1.00016
1.01095
1.88449
2.66499
2.73157
2.76276
2.79046
2.81151
2.8205
2.8217
2.81831
2.8143
2.81375
2.81607
2.82248
2.83137
2.83894
2.8439
2.84817
2.85328
2.85903
2.86477
2.86998
2.87435
2.87803
2.88182
2.88654
2.89318
2.90241
2.91458
2.92974
2.94868
2.97399
3.01059
3.0653
3.14208
3.23231
3.31149
3.35633
3.36968
1
1
1
1
1
1
1
1
1
1
1
1
1
1
1
1
1
1
1
1
1
1
1
1
1
1
1
1
1
1
1
1
1
1
1
1
1
1
1
1
1
1
1
1
1
1
1
1
1
1
1
1
1
1
1
1
1.00008
1.00579
1.57491
2.59758
2.7295
2.77425
2.80093
2.81442
2.81896
2.81633
2.81085
2.80803
2.80881
2.81333
2.82148
2.83051
2.83755
2.84195
2.84576
2.85056
2.85611
2.86162
2.86652
2.87065
2.87426
2.87814
2.88308
2.88992
2.89919
2.91117
2.92588
2.94428
2.96923
3.00579
3.06078
3.1379
3.22839
3.30799
3.35341
3.36614
1
1
1
1
1
1
1
1
1
1
1
1
1
1
1
1
1
1
1
1
1
1
1
1
1
1
1
1
1
1
1
1
1
1
1
1
1
1
1
1
1
1
1
1
1
1
1
1
1
1
1
1
1
1
1
1
1.00003
1.0021
1.24149
2.53355
2.73521
2.78694
2.80728
2.81486
2.81418
2.80836
2.80215
2.80154
2.80424
2.81169
2.82108
2.82951
2.83541
2.83906
2.8425
2.84719
2.85273
2.85808
2.86267
2.86658
2.87017
2.87423
2.87946
2.8865
2.89571
2.90732
2.92143
2.93922
2.96381
3.00031
3.05543
3.13268
3.22347
3.30388
3.35046
3.361
1
1
1
1
1
1
1
1
1
1
1
1
1
1
1
1
1
1
1
1
1
1
1
1
1
1
1
1
1
1
1
1
1
1
1
1
1
1
1
1
1
1
1
1
1
1
1
1
1
1
1
1
1
1
1
1
1.00001
1.00068
1.04373
2.47449
2.74396
2.79505
2.80845
2.81144
2.80659
2.79782
2.79313
2.79475
2.80118
2.8114
2.82101
2.82798
2.83218
2.83509
2.83837
2.84319
2.84892
2.85416
2.8584
2.86207
2.8657
2.86999
2.87554
2.88275
2.89182
2.90294
2.91641
2.9336
2.95781
2.99415
3.04913
3.12623
3.21739
3.29877
3.34643
3.35623
1
1
1
1
1
1
1
1
1
1
1
1
1
1
1
1
1
1
1
1
1
1
1
1
1
1
1
1
1
1
1
1
1
1
1
1
1
1
1
1
1
1
1
1
1
1
1
1
1
1
1
1
1
1
1
1
1.00001
1.0005
1.0319
2.40333
2.75103
2.79794
2.80702
2.80408
2.79398
2.78469
2.78429
2.78928
2.80034
2.81219
2.82077
2.82541
2.82773
2.83012
2.83352
2.83876
2.84482
2.84991
2.85374
2.85714
2.86081
2.86536
2.87122
2.87854
2.8874
2.89802
2.91088
2.92752
2.95134
2.98734
3.04185
3.1185
3.20981
3.29156
3.33937
3.35508
1
1
1
1
1
1
1
1
1
1
1
1
1
1
1
1
1
1
1
1
1
1
1
1
1
1
1
1
1
1
1
1
1
1
1
1
1
1
1
1
1
1
1
1
1
1
1
1
1
1
1
1
1
1
1
1
1.00001
1.00043
1.02736
2.32647
2.75534
2.79937
2.79974
2.78936
2.77688
2.77134
2.77625
2.78737
2.80205
2.81336
2.81941
2.82119
2.82223
2.82444
2.82827
2.83417
2.84059
2.84542
2.84874
2.85183
2.85553
2.86035
2.86647
2.87382
2.88242
2.89257
2.90492
2.92108
2.94443
2.97982
3.03343
3.10912
3.20022
3.283
3.333
3.3528
1
1
1
1
1
1
1
1
1
1
1
1
1
1
1
1
1
1
1
1
1
1
1
1
1
1
1
1
1
1
1
1
1
1
1
1
1
1
1
1
1
1
1
1
1
1
1
1
1
1
1
1
1
1
1
1
1.00001
1.00038
1.02369
2.26354
2.75879
2.79356
2.78389
2.76785
2.7574
2.76122
2.77233
2.78964
2.80502
2.81345
2.81594
2.81542
2.81608
2.81843
2.82298
2.82969
2.83638
2.84078
2.84349
2.84623
2.84992
2.85494
2.86124
2.86855
2.87686
2.88663
2.89857
2.91428
2.93699
2.97143
3.02366
3.09799
3.18898
3.274
3.32715
3.34866
1
1
1
1
1
1
1
1
1
1
1
1
1
1
1
1
1
1
1
1
1
1
1
1
1
1
1
1
1
1
1
1
1
1
1
1
1
1
1
1
1
1
1
1
1
1
1
1
1
1
1
1
1
1
1
1
1
1.00032
1.02038
2.21147
2.76403
2.77129
2.75742
2.74195
2.74435
2.75553
2.77543
2.79529
2.80702
2.81127
2.81018
2.80867
2.80949
2.81239
2.81799
2.82551
2.83223
2.83601
2.83804
2.84038
2.84401
2.84917
2.85554
2.86274
2.87073
2.88022
2.89186
2.90707
2.92891
2.96196
3.01247
3.08549
3.17676
3.26435
3.32059
3.34256
1
1
1
1
1
1
1
1
1
1
1
1
1
1
1
1
1
1
1
1
1
1
1
1
1
1
1
1
1
1
1
1
1
1
1
1
1
1
1
1
1
1
1
1
1
1
1
1
1
1
1
1
1
1
1
1
1
1.00024
1.016
2.08495
2.74974
2.73967
2.72446
2.72642
2.73878
2.76092
2.78485
2.80052
2.80623
2.80556
2.8025
2.80142
2.80267
2.80675
2.81367
2.82175
2.82808
2.83104
2.83239
2.83432
2.83787
2.84307
2.84939
2.85638
2.86407
2.87332
2.88469
2.89929
2.92004
2.95145
3.00013
3.07209
3.16377
3.25363
3.31253
3.33476
1
1
1
1
1
1
1
1
1
1
1
1
1
1
1
1
1
1
1
1
1
1
1
1
1
1
1
1
1
1
1
1
1
1
1
1
1
1
1
1
1
1
1
1
1
1
1
1
1
1
1
1
1
1
1
1
1
1.00014
1.00976
1.79926
2.69136
2.70756
2.71098
2.72633
2.75101
2.77642
2.79455
2.80096
2.80096
2.79729
2.79365
2.79383
2.79623
2.80222
2.81029
2.81827
2.82364
2.82568
2.82646
2.82806
2.83153
2.83671
2.8429
2.84949
2.85688
2.86587
2.87692
2.89078
2.91033
2.94004
2.98696
3.05789
3.14979
3.24152
3.30282
3.32485
1
1
1
1
1
1
1
1
1
1
1
1
1
1
1
1
1
1
1
1
1
1
1
1
1
1
1
1
1
1
1
1
1
1
1
1
1
1
1
1
1
1
1
1
1
1
1
1
1
1
1
1
1
1
1
1
1
1.00005
1.00346
1.34064
2.58184
2.69303
2.72055
2.74438
2.77236
2.79026
2.79549
2.7956
2.7919
2.78682
2.78492
2.78634
2.7913
2.79929
2.80764
2.81457
2.81851
2.81971
2.82018
2.82161
2.82509
2.83018
2.83611
2.84215
2.84912
2.85776
2.86839
2.88142
2.89978
2.92792
2.97314
3.04279
3.13444
3.228
3.29194
3.31155
1
1
1
1
1
1
1
1
1
1
1
1
1
1
1
1
1
1
1
1
1
1
1
1
1
1
1
1
1
1
1
1
1
1
1
1
1
1
1
1
1
1
1
1
1
1
1
1
1
1
1
1
1
1
1
1
1
1.00001
1.00077
1.04994
2.45699
2.70135
2.74489
2.7711
2.78451
2.78933
2.78862
2.78515
2.7795
2.77612
2.77694
2.78103
2.78896
2.79763
2.80493
2.81002
2.81233
2.81302
2.8135
2.81505
2.81864
2.82359
2.82898
2.83437
2.84077
2.84887
2.85902
2.87129
2.88838
2.91502
2.9586
3.02645
3.11717
3.21204
3.27822
3.29713
1
1
1
1
1
1
1
1
1
1
1
1
1
1
1
1
1
1
1
1
1
1
1
1
1
1
1
1
1
1
1
1
1
1
1
1
1
1
1
1
1
1
1
1
1
1
1
1
1
1
1
1
1
1
1
1
1
1.00001
1.00041
1.02668
2.32257
2.71891
2.76921
2.77928
2.78153
2.77962
2.77545
2.76992
2.76691
2.76775
2.77155
2.77953
2.78855
2.79603
2.80112
2.80405
2.80508
2.80565
2.80647
2.80847
2.81225
2.81695
2.82151
2.82608
2.83175
2.83924
2.84877
2.86022
2.8762
2.90138
2.94299
3.00827
3.09698
3.19148
3.25789
3.28671
1
1
1
1
1
1
1
1
1
1
1
1
1
1
1
1
1
1
1
1
1
1
1
1
1
1
1
1
1
1
1
1
1
1
1
1
1
1
1
1
1
1
1
1
1
1
1
1
1
1
1
1
1
1
1
1
1
1
1.0003
1.0199
2.16548
2.71973
2.77293
2.77203
2.76915
2.76317
2.75711
2.75646
2.75796
2.76268
2.77115
2.78022
2.788
2.79285
2.7954
2.79657
2.79703
2.7978
2.7993
2.80197
2.80596
2.81016
2.81365
2.81722
2.82204
2.82886
2.83766
2.84822
2.86315
2.88671
2.92561
2.98738
3.07283
3.16629
3.23652
3.27366
1
1
1
1
1
1
1
1
1
1
1
1
1
1
1
1
1
1
1
1
1
1
1
1
1
1
1
1
1
1
1
1
1
1
1
1
1
1
1
1
1
1
1
1
1
1
1
1
1
1
1
1
1
1
1
1
1
1
1.0002
1.01351
1.9413
2.68951
2.75679
2.75214
2.74707
2.74434
2.74432
2.74714
2.7546
2.76365
2.7728
2.78061
2.78523
2.78696
2.78775
2.78791
2.78839
2.78979
2.79232
2.79571
2.79971
2.80298
2.80533
2.80784
2.81171
2.81764
2.82563
2.83543
2.84909
2.87052
2.90595
2.9632
3.04487
3.1385
3.21334
3.25325
1
1
1
1
1
1
1
1
1
1
1
1
1
1
1
1
1
1
1
1
1
1
1
1
1
1
1
1
1
1
1
1
1
1
1
1
1
1
1
1
1
1
1
1
1
1
1
1
1
1
1
1
1
1
1
1
1
1
1.00009
1.00669
1.56411
2.62314
2.72081
2.72303
2.72623
2.73141
2.74024
2.74959
2.75843
2.76702
2.77406
2.778
2.77877
2.77876
2.77837
2.77848
2.77953
2.78214
2.78584
2.78972
2.79318
2.79528
2.79652
2.79795
2.80068
2.80568
2.81284
2.82173
2.8338
2.85246
2.88355
2.93557
3.01349
3.10688
3.18538
3.22288
1
1
1
1
1
1
1
1
1
1
1
1
1
1
1
1
1
1
1
1
1
1
1
1
1
1
1
1
1
1
1
1
1
1
1
1
1
1
1
1
1
1
1
1
1
1
1
1
1
1
1
1
1
1
1
1
1
1
1.00002
1.00181
1.09658
2.52558
2.68541
2.70688
2.7201
2.73189
2.74354
2.75508
2.76407
2.7691
2.77134
2.77114
2.77002
2.76839
2.7679
2.76865
2.77118
2.77539
2.77999
2.78358
2.78606
2.78701
2.78719
2.78741
2.78908
2.79313
2.79932
2.80701
2.81705
2.83235
2.85844
2.90437
2.97695
3.06711
3.14588
3.18045
1
1
1
1
1
1
1
1
1
1
1
1
1
1
1
1
1
1
1
1
1
1
1
1
1
1
1
1
1
1
1
1
1
1
1
1
1
1
1
1
1
1
1
1
1
1
1
1
1
1
1
1
1
1
1
1
1
1
1.00001
1.00046
1.02943
2.37639
2.67069
2.70249
2.71843
2.73136
2.74526
2.75699
2.76355
2.76562
2.76478
2.76231
2.75911
2.75723
2.75754
2.75971
2.76426
2.76967
2.77411
2.77679
2.77805
2.77792
2.77713
2.7764
2.77717
2.78014
2.78514
2.79126
2.79887
2.81032
2.83063
2.86879
2.93289
3.01506
3.08609
3.12011
1
1
1
1
1
1
1
1
1
1
1
1
1
1
1
1
1
1
1
1
1
1
1
1
1
1
1
1
1
1
1
1
1
1
1
1
1
1
1
1
1
1
1
1
1
1
1
1
1
1
1
1
1
1
1
1
1
1
1
1.00028
1.01948
2.16181
2.6539
2.6908
2.7071
2.72442
2.74118
2.75347
2.75825
2.75818
2.75594
2.75209
2.74871
2.74787
2.74923
2.75342
2.75921
2.76421
2.76741
2.76878
2.76892
2.76809
2.7663
2.76495
2.76506
2.76683
2.77032
2.77449
2.77928
2.78645
2.8001
2.82875
2.88202
2.94856
2.98336
2.97006
1
1
1
1
1
1
1
1
1
1
1
1
1
1
1
1
1
1
1
1
1
1
1
1
1
1
1
1
1
1
1
1
1
1
1
1
1
1
1
1
1
1
1
1
1
1
1
1
1
1
1
1
1
1
1
1
1
1
1
1.00015
1.01072
1.79346
2.60539
2.66938
2.69022
2.71042
2.73121
2.74507
2.74771
2.7466
2.74413
2.74147
2.74045
2.74176
2.74543
2.75028
2.75472
2.75784
2.75925
2.75952
2.75885
2.75713
2.75489
2.75317
2.75266
2.75331
2.755
2.75684
2.75855
2.76119
2.76777
2.78561
2.82254
2.85634
2.82849
2.64295
1
1
1
1
1
1
1
1
1
1
1
1
1
1
1
1
1
1
1
1
1
1
1
1
1
1
1
1
1
1
1
1
1
1
1
1
1
1
1
1
1
1
1
1
1
1
1
1
1
1
1
1
1
1
1
1
1
1
1
1.00004
1.00322
1.25108
2.51603
2.66102
2.68982
2.70092
2.71844
2.73117
2.73235
2.73147
2.73068
2.73136
2.73435
2.73917
2.74394
2.74714
2.74907
2.75006
2.7499
2.74911
2.74743
2.74539
2.74314
2.74124
2.74001
2.73945
2.73912
2.73836
2.7366
2.73475
2.7348
2.7407
2.75362
2.7519
2.68895
2.47142
1
1
1
1
1
1
1
1
1
1
1
1
1
1
1
1
1
1
1
1
1
1
1
1
1
1
1
1
1
1
1
1
1
1
1
1
1
1
1
1
1
1
1
1
1
1
1
1
1
1
1
1
1
1
1
1
1
1
1
1.00001
1.0006
1.03857
2.37578
2.66703
2.70055
2.70315
2.71002
2.71631
2.71515
2.71511
2.71673
2.72162
2.72912
2.73689
2.74122
2.74241
2.74214
2.74131
2.73951
2.73756
2.73531
2.7334
2.73131
2.72926
2.72725
2.72526
2.72285
2.71948
2.71451
2.70809
2.70132
2.69549
2.68881
2.6672
2.59077
2.32676
1
1
1
1
1
1
1
1
1
1
1
1
1
1
1
1
1
1
1
1
1
1
1
1
1
1
1
1
1
1
1
1
1
1
1
1
1
1
1
1
1
1
1
1
1
1
1
1
1
1
1
1
1
1
1
1
1
1
1
1
1.00029
1.02027
2.13162
2.66037
2.71279
2.70506
2.70429
2.70206
2.69876
2.69943
2.70345
2.7121
2.72318
2.73285
2.73623
2.73607
2.73442
2.73181
2.72851
2.72585
2.72342
2.72169
2.71969
2.71739
2.7145
2.71096
2.70642
2.70044
2.69237
2.68176
2.66871
2.65303
2.63259
2.60008
2.54454
2.40285
1
1
1
1
1
1
1
1
1
1
1
1
1
1
1
1
1
1
1
1
1
1
1
1
1
1
1
1
1
1
1
1
1
1
1
1
1
1
1
1
1
1
1
1
1
1
1
1
1
1
1
1
1
1
1
1
1
1
1
1
1.00013
1.01012
1.69003
2.5887
2.70425
2.69996
2.69627
2.68908
2.68477
2.68626
2.69212
2.70316
2.71625
2.72662
2.72896
2.7284
2.72577
2.72177
2.71768
2.7148
2.71242
2.71071
2.70855
2.70575
2.70184
2.69667
2.69004
2.68167
2.67094
2.65707
2.63935
2.61711
2.58902
2.54983
2.50638
2.39515
1
1
1
1
1
1
1
1
1
1
1
1
1
1
1
1
1
1
1
1
1
1
1
1
1
1
1
1
1
1
1
1
1
1
1
1
1
1
1
1
1
1
1
1
1
1
1
1
1
1
1
1
1
1
1
1
1
1
1
1
1.00003
1.00281
1.15694
2.46647
2.68173
2.68498
2.6834
2.67546
2.67256
2.67553
2.68345
2.69561
2.70851
2.71801
2.7198
2.71909
2.71622
2.71159
2.70762
2.70496
2.70268
2.70071
2.69803
2.69443
2.68933
2.68256
2.67398
2.66337
2.65019
2.63355
2.61238
2.58565
2.55295
2.50827
2.46851
2.38323
1
1
1
1
1
1
1
1
1
1
1
1
1
1
1
1
1
1
1
1
1
1
1
1
1
1
1
1
1
1
1
1
1
1
1
1
1
1
1
1
1
1
1
1
1
1
1
1
1
1
1
1
1
1
1
1
1
1
1
1
1.00001
1.0005
1.02952
2.28971
2.67312
2.67404
2.67015
2.66291
2.66292
2.66751
2.67729
2.68843
2.69896
2.70669
2.70868
2.70754
2.70473
2.70117
2.69805
2.69603
2.6939
2.69145
2.68794
2.68321
2.67675
2.66845
2.65818
2.64579
2.63077
2.61235
2.58942
2.56056
2.52673
2.4796
2.4376
2.3691
1
1
1
1
1
1
1
1
1
1
1
1
1
1
1
1
1
1
1
1
1
1
1
1
1
1
1
1
1
1
1
1
1
1
1
1
1
1
1
1
1
1
1
1
1
1
1
1
1
1
1
1
1
1
1
1
1
1
1
1
1
1.00023
1.01627
2.0113
2.65658
2.66233
2.65893
2.65406
2.65614
2.66324
2.67325
2.68095
2.68809
2.69328
2.69542
2.69404
2.69201
2.69048
2.68871
2.68752
2.68562
2.68274
2.67823
2.67215
2.66424
2.65457
2.64292
2.62907
2.61249
2.59252
2.5683
2.53803
2.50389
2.45727
2.41004
2.35026
1
1
1
1
1
1
1
1
1
1
1
1
1
1
1
1
1
1
1
1
1
1
1
1
1
1
1
1
1
1
1
1
1
1
1
1
1
1
1
1
1
1
1
1
1
1
1
1
1
1
1
1
1
1
1
1
1
1
1
1
1
1.0001
1.00738
1.5356
2.58148
2.64134
2.64538
2.64701
2.65319
2.66222
2.67141
2.67474
2.6775
2.67957
2.68071
2.67946
2.67854
2.67895
2.67891
2.67866
2.67722
2.67404
2.66844
2.66084
2.65146
2.64054
2.62778
2.61294
2.59552
2.57489
2.55064
2.52041
2.48691
2.44297
2.39575
2.33645
1
1
1
1
1
1
1
1
1
1
1
1
1
1
1
1
1
1
1
1
1
1
1
1
1
1
1
1
1
1
1
1
1
1
1
1
1
1
1
1
1
1
1
1
1
1
1
1
1
1
1
1
1
1
1
1
1
1
1
1
1
1.00002
1.00181
1.08251
2.42322
2.61795
2.63356
2.64188
2.65231
2.66118
2.66751
2.66737
2.66716
2.66687
2.66647
2.66516
2.66518
2.66695
2.66882
2.66949
2.66836
2.66503
2.65859
2.64977
2.63915
2.62713
2.61347
2.59791
2.57989
2.55863
2.53418
2.50401
2.47056
2.4295
2.38271
2.3272
1
1
1
1
1
1
1
1
1
1
1
1
1
1
1
1
1
1
1
1
1
1
1
1
1
1
1
1
1
1
1
1
1
1
1
1
1
1
1
1
1
1
1
1
1
1
1
1
1
1
1
1
1
1
1
1
1
1
1
1
1
1.00001
1.00033
1.02203
2.13385
2.58501
2.62567
2.64176
2.65079
2.65677
2.65905
2.65795
2.65695
2.65564
2.65383
2.65213
2.65239
2.65487
2.65797
2.65957
2.65856
2.65515
2.64817
2.63847
2.62683
2.61389
2.5995
2.58344
2.56524
2.54402
2.52025
2.49117
2.4585
2.42088
2.37661
2.32671
1
1
1
1
1
1
1
1
1
1
1
1
1
1
1
1
1
1
1
1
1
1
1
1
1
1
1
1
1
1
1
1
1
1
1
1
1
1
1
1
1
1
1
1
1
1
1
1
1
1
1
1
1
1
1
1
1
1
1
1
1
1
1.00012
1.00961
1.64613
2.5452
2.60675
2.63422
2.64514
2.6488
2.6484
2.64728
2.6468
2.64543
2.64279
2.64112
2.64111
2.64327
2.64678
2.64882
2.64802
2.64466
2.63753
2.62751
2.61542
2.60199
2.58717
2.5708
2.55244
2.53109
2.50746
2.47903
2.44718
2.41155
2.36982
2.32435
1
1
1
1
1
1
1
1
1
1
1
1
1
1
1
1
1
1
1
1
1
1
1
1
1
1
1
1
1
1
1
1
1
1
1
1
1
1
1
1
1
1
1
1
1
1
1
1
1
1
1
1
1
1
1
1
1
1
1
1
1
1
1.00003
1.00215
1.10392
2.41577
2.58838
2.63023
2.63685
2.63705
2.63514
2.63545
2.63692
2.63551
2.63317
2.63209
2.6317
2.63299
2.63534
2.63685
2.63608
2.63269
2.62573
2.61589
2.60388
2.59043
2.57547
2.55893
2.54052
2.51932
2.49637
2.46911
2.43899
2.40501
2.3671
2.32407
1
1
1
1
1
1
1
1
1
1
1
1
1
1
1
1
1
1
1
1
1
1
1
1
1
1
1
1
1
1
1
1
1
1
1
1
1
1
1
1
1
1
1
1
1
1
1
1
1
1
1
1
1
1
1
1
1
1
1
1
1
1
1.00001
1.00033
1.02297
2.10484
2.553
2.62172
2.62418
2.6225
2.62071
2.62275
2.62611
2.62537
2.62458
2.62435
2.62373
2.62385
2.62405
2.62404
2.62292
2.61941
2.61295
2.6038
2.59253
2.57979
2.56536
2.54914
2.53089
2.50979
2.48701
2.46015
2.4315
2.39803
2.36349
2.32235
1
1
1
1
1
1
1
1
1
1
1
1
1
1
1
1
1
1
1
1
1
1
1
1
1
1
1
1
1
1
1
1
1
1
1
1
1
1
1
1
1
1
1
1
1
1
1
1
1
1
1
1
1
1
1
1
1
1
1
1
1
1
1
1.0001
1.00869
1.55165
2.51127
2.60468
2.60542
2.60752
2.60959
2.6135
2.61553
2.61552
2.61624
2.61697
2.61641
2.61519
2.6134
2.61159
2.60899
2.60493
2.59886
2.59064
2.58054
2.56891
2.5553
2.53958
2.52157
2.50077
2.47844
2.45222
2.42556
2.3929
2.36154
2.32221
1
1
1
1
1
1
1
1
1
1
1
1
1
1
1
1
1
1
1
1
1
1
1
1
1
1
1
1
1
1
1
1
1
1
1
1
1
1
1
1
1
1
1
1
1
1
1
1
1
1
1
1
1
1
1
1
1
1
1
1
1
1
1
1.00002
1.00164
1.0792
2.35097
2.58432
2.59104
2.59355
2.59927
2.60575
2.60609
2.60687
2.60845
2.60967
2.60887
2.60657
2.60319
2.59935
2.59497
2.59009
2.58414
2.57673
2.5679
2.55766
2.54539
2.53086
2.5138
2.49381
2.47194
2.44609
2.42037
2.38812
2.3585
2.32072
1
1
1
1
1
1
1
1
1
1
1
1
1
1
1
1
1
1
1
1
1
1
1
1
1
1
1
1
1
1
1
1
1
1
1
1
1
1
1
1
1
1
1
1
1
1
1
1
1
1
1
1
1
1
1
1
1
1
1
1
1
1
1
1
1.00025
1.01851
1.95392
2.53435
2.58742
2.58248
2.58765
2.59528
2.5967
2.59841
2.60025
2.60133
2.60004
2.59693
2.59245
2.58714
2.58169
2.57594
2.56972
2.56279
2.55505
2.54614
2.53515
2.52172
2.50548
2.4864
2.46511
2.43994
2.41538
2.3847
2.35627
2.32114
1
1
1
1
1
1
1
1
1
1
1
1
1
1
1
1
1
1
1
1
1
1
1
1
1
1
1
1
1
1
1
1
1
1
1
1
1
1
1
1
1
1
1
1
1
1
1
1
1
1
1
1
1
1
1
1
1
1
1
1
1
1
1
1
1.00005
1.00508
1.29607
2.43341
2.57391
2.56873
2.57711
2.58307
2.5856
2.58895
2.59108
2.5917
2.5899
2.58638
2.58153
2.57561
2.56958
2.56318
2.55657
2.54966
2.54234
2.53417
2.52412
2.51185
2.49696
2.47942
2.45936
2.43537
2.41138
2.38218
2.35288
2.31993
1
1
1
1
1
1
1
1
1
1
1
1
1
1
1
1
1
1
1
1
1
1
1
1
1
1
1
1
1
1
1
1
1
1
1
1
1
1
1
1
1
1
1
1
1
1
1
1
1
1
1
1
1
1
1
1
1
1
1
1
1
1
1
1
1.00001
1.0007
1.03696
2.16463
2.53559
2.55206
2.56896
2.57104
2.57448
2.57929
2.58148
2.58171
2.57924
2.57512
2.56996
2.56387
2.55805
2.55146
2.54457
2.53747
2.53025
2.52248
2.51313
2.50185
2.48801
2.47178
2.45257
2.42974
2.40656
2.37931
2.35203
2.32023
1
1
1
1
1
1
1
1
1
1
1
1
1
1
1
1
1
1
1
1
1
1
1
1
1
1
1
1
1
1
1
1
1
1
1
1
1
1
1
1
1
1
1
1
1
1
1
1
1
1
1
1
1
1
1
1
1
1
1
1
1
1
1
1
1
1.00013
1.01093
1.62971
2.47779
2.55254
2.5558
2.56069
2.56329
2.56822
2.57015
2.56995
2.56713
2.56279
2.55778
2.5525
2.54749
2.54119
2.53435
2.52712
2.51965
2.51162
2.50211
2.49107
2.47796
2.46283
2.44514
2.42392
2.40236
2.37629
2.35072
2.31944
1
1
1
1
1
1
1
1
1
1
1
1
1
1
1
1
1
1
1
1
1
1
1
1
1
1
1
1
1
1
1
1
1
1
1
1
1
1
1
1
1
1
1
1
1
1
1
1
1
1
1
1
1
1
1
1
1
1
1
1
1
1
1
1
1
1.00003
1.00231
1.09945
2.31122
2.53179
2.5438
2.54705
2.5505
2.55529
2.55738
2.55706
2.5549
2.55123
2.54676
2.54209
2.53764
2.53167
2.52482
2.5173
2.50932
2.50073
2.49095
2.48023
2.46789
2.45394
2.4374
2.41734
2.39687
2.37189
2.34897
2.31838
1
1
1
1
1
1
1
1
1
1
1
1
1
1
1
1
1
1
1
1
1
1
1
1
1
1
1
1
1
1
1
1
1
1
1
1
1
1
1
1
1
1
1
1
1
1
1
1
1
1
1
1
1
1
1
1
1
1
1
1
1
1
1
1
1
1.00001
1.00027
1.01847
1.90536
2.50039
2.53786
2.53566
2.53761
2.54168
2.54338
2.5429
2.54091
2.53773
2.53388
2.53037
2.5269
2.52174
2.5155
2.50829
2.50035
2.49147
2.4812
2.46997
2.45774
2.44374
2.42816
2.40902
2.39079
2.3671
2.34668
2.31742
1
1
1
1
1
1
1
1
1
1
1
1
1
1
1
1
1
1
1
1
1
1
1
1
1
1
1
1
1
1
1
1
1
1
1
1
1
1
1
1
1
1
1
1
1
1
1
1
1
1
1
1
1
1
1
1
1
1
1
1
1
1
1
1
1
1
1.00006
1.00514
1.27115
2.40762
2.51646
2.52244
2.52437
2.52775
2.52913
2.52855
2.5261
2.52349
2.52104
2.51931
2.51693
2.51257
2.50668
2.49947
2.4911
2.48143
2.47032
2.45878
2.44684
2.43365
2.4195
2.40128
2.3846
2.36152
2.34282
2.31563
1
1
1
1
1
1
1
1
1
1
1
1
1
1
1
1
1
1
1
1
1
1
1
1
1
1
1
1
1
1
1
1
1
1
1
1
1
1
1
1
1
1
1
1
1
1
1
1
1
1
1
1
1
1
1
1
1
1
1
1
1
1
1
1
1
1
1.00001
1.00068
1.03449
2.09079
2.46569
2.50552
2.51794
2.51884
2.51858
2.51611
2.51228
2.50941
2.50745
2.50665
2.50515
2.5015
2.49614
2.48943
2.48162
2.47242
2.46158
2.44973
2.43791
2.42422
2.41034
2.39215
2.37666
2.35497
2.33876
2.31368
1
1
1
1
1
1
1
1
1
1
1
1
1
1
1
1
1
1
1
1
1
1
1
1
1
1
1
1
1
1
1
1
1
1
1
1
1
1
1
1
1
1
1
1
1
1
1
1
1
1
1
1
1
1
1
1
1
1
1
1
1
1
1
1
1
1
1
1.0001
1.00901
1.4744
2.42684
2.48415
2.51052
2.51143
2.50998
2.50438
2.49902
2.49523
2.49375
2.49396
2.49347
2.49105
2.48638
2.48014
2.47242
2.46289
2.4514
2.43906
2.42719
2.41366
2.40149
2.38417
2.37027
2.3497
2.33371
2.30937
1
1
1
1
1
1
1
1
1
1
1
1
1
1
1
1
1
1
1
1
1
1
1
1
1
1
1
1
1
1
1
1
1
1
1
1
1
1
1
1
1
1
1
1
1
1
1
1
1
1
1
1
1
1
1
1
1
1
1
1
1
1
1
1
1
1
1
1.00002
1.00138
1.06358
2.18815
2.45819
2.49473
2.50269
2.50083
2.49559
2.48877
2.48335
2.4816
2.48187
2.48139
2.47903
2.47454
2.46856
2.46128
2.45253
2.44238
2.43094
2.4198
2.40626
2.39409
2.37687
2.36271
2.34243
2.32843
2.30611
1
1
1
1
1
1
1
1
1
1
1
1
1
1
1
1
1
1
1
1
1
1
1
1
1
1
1
1
1
1
1
1
1
1
1
1
1
1
1
1
1
1
1
1
1
1
1
1
1
1
1
1
1
1
1
1
1
1
1
1
1
1
1
1
1
1
1
1
1.00015
1.01261
1.59313
2.41875
2.48145
2.49357
2.49145
2.48516
2.47682
2.47052
2.46905
2.46933
2.46881
2.46708
2.46339
2.45806
2.45141
2.44293
2.43262
2.42108
2.4103
2.39678
2.38552
2.36934
2.35687
2.33803
2.32398
2.3016
1
1
1
1
1
1
1
1
1
1
1
1
1
1
1
1
1
1
1
1
1
1
1
1
1
1
1
1
1
1
1
1
1
1
1
1
1
1
1
1
1
1
1
1
1
1
1
1
1
1
1
1
1
1
1
1
1
1
1
1
1
1
1
1
1
1
1
1
1.00002
1.00203
1.09223
2.22867
2.45274
2.4806
2.47989
2.47371
2.46673
2.46055
2.45843
2.4587
2.45805
2.45585
2.45147
2.44599
2.43937
2.43124
2.42228
2.41233
2.40308
2.39034
2.37982
2.36393
2.35108
2.332
2.31851
2.29694
1
1
1
1
1
1
1
1
1
1
1
1
1
1
1
1
1
1
1
1
1
1
1
1
1
1
1
1
1
1
1
1
1
1
1
1
1
1
1
1
1
1
1
1
1
1
1
1
1
1
1
1
1
1
1
1
1
1
1
1
1
1
1
1
1
1
1
1
1
1.00019
1.01531
1.65575
2.40701
2.46837
2.46834
2.46191
2.455
2.44861
2.44658
2.44701
2.44623
2.44419
2.44026
2.43519
2.4291
2.42144
2.41259
2.40261
2.39396
2.38177
2.37201
2.35685
2.34529
2.32758
2.31465
2.29315
1
1
1
1
1
1
1
1
1
1
1
1
1
1
1
1
1
1
1
1
1
1
1
1
1
1
1
1
1
1
1
1
1
1
1
1
1
1
1
1
1
1
1
1
1
1
1
1
1
1
1
1
1
1
1
1
1
1
1
1
1
1
1
1
1
1
1
1
1
1.00003
1.00239
1.11268
2.21484
2.43423
2.45541
2.45137
2.44406
2.43812
2.43678
2.43701
2.43632
2.43445
2.42969
2.42401
2.41749
2.40954
2.40137
2.39267
2.38575
2.37475
2.36627
2.35205
2.34053
2.32265
2.30973
2.2881
1
1
1
1
1
1
1
1
1
1
1
1
1
1
1
1
1
1
1
1
1
1
1
1
1
1
1
1
1
1
1
1
1
1
1
1
1
1
1
1
1
1
1
1
1
1
1
1
1
1
1
1
1
1
1
1
1
1
1
1
1
1
1
1
1
1
1
1
1
1
1.00019
1.01591
1.62615
2.38846
2.44183
2.43783
2.43389
2.42885
2.42636
2.42656
2.42553
2.42375
2.41936
2.41392
2.40758
2.39983
2.39172
2.38283
2.37629
2.36595
2.35837
2.34495
2.33435
2.31743
2.30575
2.28479
1
1
1
1
1
1
1
1
1
1
1
1
1
1
1
1
1
1
1
1
1
1
1
1
1
1
1
1
1
1
1
1
1
1
1
1
1
1
1
1
1
1
1
1
1
1
1
1
1
1
1
1
1
1
1
1
1
1
1
1
1
1
1
1
1
1
1
1
1
1
1.00002
1.00222
1.10521
2.16306
2.4018
2.42688
2.42302
2.41831
2.41731
2.41731
2.41637
2.41505
2.41026
2.40397
2.39687
2.38837
2.3802
2.37192
2.36685
2.3577
2.35154
2.33927
2.32939
2.31264
2.30082
2.28005
1
1
1
1
1
1
1
1
1
1
1
1
1
1
1
1
1
1
1
1
1
1
1
1
1
1
1
1
1
1
1
1
1
1
1
1
1
1
1
1
1
1
1
1
1
1
1
1
1
1
1
1
1
1
1
1
1
1
1
1
1
1
1
1
1
1
1
1
1
1
1
1.00016
1.0139
1.52236
2.34581
2.4213
2.40645
2.40813
2.4076
2.408
2.40695
2.40551
2.40103
2.39471
2.38756
2.37907
2.37057
2.36181
2.35681
2.34828
2.34297
2.33155
2.32261
2.30647
2.29607
2.27625
1
1
1
1
1
1
1
1
1
1
1
1
1
1
1
1
1
1
1
1
1
1
1
1
1
1
1
1
1
1
1
1
1
1
1
1
1
1
1
1
1
1
1
1
1
1
1
1
1
1
1
1
1
1
1
1
1
1
1
1
1
1
1
1
1
1
1
1
1
1
1
1.00002
1.0017
1.07851
2.08056
2.37062
2.40139
2.39593
2.39738
2.39839
2.39783
2.39683
2.39312
2.38572
2.37778
2.36843
2.35925
2.35047
2.34636
2.33888
2.3349
2.32461
2.31681
2.30117
2.29071
2.27114
1
1
1
1
1
1
1
1
1
1
1
1
1
1
1
1
1
1
1
1
1
1
1
1
1
1
1
1
1
1
1
1
1
1
1
1
1
1
1
1
1
1
1
1
1
1
1
1
1
1
1
1
1
1
1
1
1
1
1
1
1
1
1
1
1
1
1
1
1
1
1
1
1.00012
1.01075
1.39496
2.30043
2.40278
2.38329
2.38575
2.38738
2.3868
2.38637
2.38396
2.37713
2.36921
2.36016
2.35042
2.34071
2.33586
2.32915
2.32564
2.31622
2.30954
2.29439
2.28544
2.26641
1
1
1
1
1
1
1
1
1
1
1
1
1
1
1
1
1
1
1
1
1
1
1
1
1
1
1
1
1
1
1
1
1
1
1
1
1
1
1
1
1
1
1
1
1
1
1
1
1
1
1
1
1
1
1
1
1
1
1
1
1
1
1
1
1
1
1
1
1
1
1
1
1.00001
1.00117
1.05413
1.96496
2.34428
2.36758
2.37437
2.37504
2.37561
2.3757
2.37433
2.36838
2.36015
2.35076
2.3403
2.33047
2.32506
2.31981
2.31622
2.30839
2.30269
2.28829
2.27978
2.26065
1
1
1
1
1
1
1
1
1
1
1
1
1
1
1
1
1
1
1
1
1
1
1
1
1
1
1
1
1
1
1
1
1
1
1
1
1
1
1
1
1
1
1
1
1
1
1
1
1
1
1
1
1
1
1
1
1
1
1
1
1
1
1
1
1
1
1
1
1
1
1
1
1
1.00008
1.00755
1.28724
2.23684
2.36998
2.35972
2.36268
2.36283
2.36313
2.36216
2.3593
2.35153
2.34294
2.33284
2.32232
2.31465
2.3105
2.30618
2.3002
2.29466
2.28127
2.27423
2.25535
1
1
1
1
1
1
1
1
1
1
1
1
1
1
1
1
1
1
1
1
1
1
1
1
1
1
1
1
1
1
1
1
1
1
1
1
1
1
1
1
1
1
1
1
1
1
1
1
1
1
1
1
1
1
1
1
1
1
1
1
1
1
1
1
1
1
1
1
1
1
1
1
1
1.00001
1.00067
1.03581
1.77204
2.31306
2.36163
2.34974
2.35038
2.35087
2.35065
2.34906
2.34203
2.33404
2.32427
2.31385
2.30508
2.30165
2.29602
2.29278
2.28621
2.27531
2.26817
2.24937
1
1
1
1
1
1
1
1
1
1
1
1
1
1
1
1
1
1
1
1
1
1
1
1
1
1
1
1
1
1
1
1
1
1
1
1
1
1
1
1
1
1
1
1
1
1
1
1
1
1
1
1
1
1
1
1
1
1
1
1
1
1
1
1
1
1
1
1
1
1
1
1
1
1
1.00005
1.00434
1.16983
2.13547
2.32374
2.34275
2.33986
2.33899
2.33922
2.3377
2.33225
2.32538
2.31712
2.30702
2.29633
2.29239
2.28567
2.28436
2.27628
2.26992
2.26137
2.24506
1
1
1
1
1
1
1
1
1
1
1
1
1
1
1
1
1
1
1
1
1
1
1
1
1
1
1
1
1
1
1
1
1
1
1
1
1
1
1
1
1
1
1
1
1
1
1
1
1
1
1
1
1
1
1
1
1
1
1
1
1
1
1
1
1
1
1
1
1
1
1
1
1
1
1.00001
1.00029
1.02029
1.51918
2.27642
2.33233
2.33363
2.32989
2.32669
2.3253
2.32152
2.31586
2.30897
2.29982
2.28985
2.28332
2.27668
2.27504
2.26644
2.26395
2.25317
2.24093
1
1
1
1
1
1
1
1
1
1
1
1
1
1
1
1
1
1
1
1
1
1
1
1
1
1
1
1
1
1
1
1
1
1
1
1
1
1
1
1
1
1
1
1
1
1
1
1
1
1
1
1
1
1
1
1
1
1
1
1
1
1
1
1
1
1
1
1
1
1
1
1
1
1
1
1.00002
1.00208
1.0834
2.009
2.26801
2.31795
2.31635
2.31127
2.31231
2.31101
2.3065
2.3011
2.29257
2.28285
2.27369
2.26848
2.26468
2.25669
2.25589
2.24442
2.23652
1
1
1
1
1
1
1
1
1
1
1
1
1
1
1
1
1
1
1
1
1
1
1
1
1
1
1
1
1
1
1
1
1
1
1
1
1
1
1
1
1
1
1
1
1
1
1
1
1
1
1
1
1
1
1
1
1
1
1
1
1
1
1
1
1
1
1
1
1
1
1
1
1
1
1
1
1.00012
1.0103
1.32941
2.20795
2.29219
2.30746
2.30309
2.30061
2.30134
2.29856
2.29317
2.28576
2.27708
2.26504
2.2611
2.25397
2.24839
2.24656