/*--------------------------------*- C++ -*----------------------------------*\
| =========                 |                                                 |
| \\      /  F ield         | OpenFOAM: The Open Source CFD Toolbox           |
|  \\    /   O peration     | Version:  v1812                                 |
|   \\  /    A nd           | Web:      www.OpenFOAM.com                      |
|    \\/     M anipulation  |                                                 |
\*---------------------------------------------------------------------------*/
FoamFile
{
    version     2.0;
    format      ascii;
    class       volVectorField;
    location    "0.7";
    object      U;
}
// * * * * * * * * * * * * * * * * * * * * * * * * * * * * * * * * * * * * * //

dimensions      [0 1 -1 0 0 0 0];


internalField   nonuniform List<vector> 
64512
(
(3 1.20278e-17 0)
(3 -8.08787e-17 0)
(3 -2.60676e-16 0)
(3 -3.27404e-16 0)
(3 6.98926e-16 0)
(3 6.38985e-16 0)
(3 6.79738e-16 0)
(3 7.49124e-16 0)
(3 3.17448e-16 0)
(3 -1.82606e-16 0)
(3 -7.88459e-16 0)
(3 -1.02959e-15 0)
(3 -1.02805e-15 0)
(3 -9.88125e-16 0)
(3 -5.42485e-16 0)
(3 -7.63771e-16 0)
(3 -5.64455e-16 0)
(3 -4.8108e-16 0)
(3 -5.46251e-16 0)
(3 -3.3387e-16 0)
(3 -6.07481e-16 0)
(3 -2.7298e-16 0)
(3 -9.01767e-16 0)
(3 -1.06532e-15 0)
(3 -7.34568e-16 0)
(3 -4.413e-16 0)
(3 -6.30596e-16 0)
(3 1.05198e-17 0)
(3 2.99706e-16 0)
(3 5.90914e-17 0)
(3 -4.18237e-16 0)
(3 -2.45678e-16 0)
(3 -2.71328e-16 0)
(3 -2.71568e-16 0)
(3 -7.49259e-17 0)
(3 -4.62167e-17 0)
(3 -5.78831e-16 0)
(3 -1.56418e-16 0)
(3 -3.25069e-16 0)
(3 4.42958e-17 0)
(3 9.72183e-16 0)
(3 9.81373e-16 0)
(3 1.93755e-16 0)
(3 1.17583e-16 0)
(3 -2.93624e-16 0)
(3 -5.19588e-16 0)
(3 -8.31614e-16 0)
(3 -8.98102e-16 0)
(3 -5.11729e-16 0)
(3 -6.51021e-16 0)
(3 -1.38232e-15 0)
(3 -1.43956e-15 0)
(3 5.62334e-14 0)
(3 -6.54235e-12 0)
(3 6.94716e-10 0)
(2.99999 -5.6902e-08 0)
(2.99957 5.33933e-06 0)
(2.97231 -0.000407724 0)
(1.31363 0.0330665 0)
(0.769804 -0.0474175 0)
(0.721292 0.0183542 0)
(0.671036 0.0237503 0)
(0.628644 0.0161557 0)
(0.60519 0.0035919 0)
(0.589391 0.00161901 0)
(0.573972 0.0065748 0)
(0.551739 0.0136158 0)
(0.519199 0.0206347 0)
(0.481722 0.0218282 0)
(0.451104 0.0147437 0)
(0.434225 0.0054522 0)
(0.426016 0.00276789 0)
(0.419291 0.00417243 0)
(0.408832 0.00601427 0)
(0.394069 0.0076503 0)
(0.376995 0.00804181 0)
(0.359679 0.00793329 0)
(0.342826 0.00803688 0)
(0.326503 0.00839151 0)
(0.310425 0.00909608 0)
(0.293865 0.0100142 0)
(0.276175 0.0107874 0)
(0.25706 0.0111373 0)
(0.236385 0.0111112 0)
(0.2141 0.0109292 0)
(0.190289 0.0107685 0)
(0.165491 0.0106967 0)
(0.140588 0.0106571 0)
(0.116446 0.0105551 0)
(0.0936089 0.0102829 0)
(0.0726337 0.00979631 0)
(0.0541642 0.00912936 0)
(0.0377833 0.00836077 0)
(0.0252019 0.00767607 0)
(0.0124838 0.00685586 0)
(0.00443731 0.00526826 0)
(3 3.22868e-16 0)
(3 3.35185e-16 0)
(3 6.68676e-16 0)
(3 2.44028e-16 0)
(3 -2.65274e-17 0)
(3 5.65178e-17 0)
(3 2.80602e-16 0)
(3 8.37236e-16 0)
(3 6.93442e-16 0)
(3 9.66276e-16 0)
(3 1.01166e-15 0)
(3 4.15958e-16 0)
(3 7.69814e-17 0)
(3 -2.99799e-16 0)
(3 -2.25509e-17 0)
(3 -4.46476e-16 0)
(3 -6.01644e-16 0)
(3 -4.6364e-16 0)
(3 -6.08427e-16 0)
(3 -4.50148e-16 0)
(3 -6.14626e-16 0)
(3 -4.10561e-16 0)
(3 -5.99753e-16 0)
(3 -1.42906e-16 0)
(3 7.32536e-16 0)
(3 1.62304e-16 0)
(3 -5.31013e-16 0)
(3 -2.99231e-16 0)
(3 1.41264e-16 0)
(3 -6.54447e-16 0)
(3 -8.62145e-16 0)
(3 -3.30542e-16 0)
(3 -2.39809e-16 0)
(3 -1.26647e-16 0)
(3 2.22222e-16 0)
(3 2.34735e-17 0)
(3 -1.64835e-15 0)
(3 -1.86734e-15 0)
(3 -1.18398e-15 0)
(3 4.30163e-16 0)
(3 1.50382e-15 0)
(3 2.28553e-15 0)
(3 1.72645e-15 0)
(3 1.42562e-15 0)
(3 6.82774e-16 0)
(3 4.84474e-16 0)
(3 3.7934e-16 0)
(3 1.5295e-15 0)
(3 1.339e-15 0)
(3 4.41418e-16 0)
(3 -4.32645e-16 0)
(3 5.95837e-15 0)
(3 -4.29935e-13 0)
(3 2.47236e-11 0)
(3 -1.38162e-09 0)
(2.99999 7.50245e-08 0)
(2.99957 -3.23605e-06 0)
(2.97238 0.000122837 0)
(1.35702 0.000780816 0)
(0.766543 -0.0337124 0)
(0.707193 0.0544603 0)
(0.652208 0.06001 0)
(0.609331 0.0391025 0)
(0.580865 0.0166035 0)
(0.56118 0.0111731 0)
(0.548761 0.0166039 0)
(0.538145 0.0287166 0)
(0.52366 0.0431945 0)
(0.501976 0.0467735 0)
(0.478638 0.0370356 0)
(0.458142 0.0211528 0)
(0.442264 0.0101178 0)
(0.429504 0.0109052 0)
(0.416419 0.0172883 0)
(0.399596 0.0231871 0)
(0.380793 0.0257922 0)
(0.362032 0.0263616 0)
(0.344346 0.026282 0)
(0.328459 0.0260683 0)
(0.314093 0.0267939 0)
(0.299857 0.0287541 0)
(0.28418 0.03106 0)
(0.266214 0.032604 0)
(0.245874 0.0331803 0)
(0.223467 0.0330465 0)
(0.199477 0.0326587 0)
(0.174652 0.0323453 0)
(0.149824 0.0320918 0)
(0.125674 0.0317189 0)
(0.102622 0.0309776 0)
(0.08114 0.0296754 0)
(0.0619392 0.0275951 0)
(0.0450803 0.0247161 0)
(0.0317353 0.0223467 0)
(0.0177213 0.0208876 0)
(0.00639421 0.0183523 0)
(3 2.62895e-17 0)
(3 9.73846e-17 0)
(3 3.30657e-17 0)
(3 5.36871e-16 0)
(3 -5.58232e-16 0)
(3 -1.49012e-15 0)
(3 -1.78593e-15 0)
(3 -1.56586e-15 0)
(3 -1.35028e-15 0)
(3 -7.73585e-16 0)
(3 1.30469e-16 0)
(3 -4.74595e-16 0)
(3 1.15416e-16 0)
(3 1.26639e-16 0)
(3 -7.96445e-16 0)
(3 -1.09062e-15 0)
(3 -1.30559e-15 0)
(3 1.84356e-16 0)
(3 7.06666e-16 0)
(3 -3.28311e-16 0)
(3 -4.20176e-16 0)
(3 -1.40969e-15 0)
(3 -1.22245e-15 0)
(3 -1.22021e-15 0)
(3 -7.81144e-16 0)
(3 -8.28949e-16 0)
(3 5.60359e-16 0)
(3 6.17177e-16 0)
(3 1.00955e-15 0)
(3 6.65754e-16 0)
(3 5.02724e-16 0)
(3 1.14187e-15 0)
(3 1.85695e-15 0)
(3 2.40364e-15 0)
(3 2.77952e-15 0)
(3 2.34861e-15 0)
(3 2.30466e-15 0)
(3 1.44306e-15 0)
(3 1.96403e-15 0)
(3 1.77945e-15 0)
(3 1.55294e-15 0)
(3 1.35431e-15 0)
(3 1.50998e-15 0)
(3 1.04484e-15 0)
(3 1.19077e-15 0)
(3 1.36716e-15 0)
(3 2.22684e-15 0)
(3 2.5764e-15 0)
(3 2.03873e-15 0)
(3 1.95935e-15 0)
(3 1.65169e-15 0)
(3 1.40335e-14 0)
(3 -7.95508e-13 0)
(3 5.05268e-11 0)
(3 -3.03462e-09 0)
(2.99999 1.82205e-07 0)
(2.99957 -9.96043e-06 0)
(2.97233 0.000549647 0)
(1.36425 -0.0223839 0)
(0.741648 -0.0299044 0)
(0.68152 0.0887321 0)
(0.631218 0.0991107 0)
(0.596511 0.0711858 0)
(0.574547 0.0333874 0)
(0.557196 0.014455 0)
(0.545045 0.0177053 0)
(0.538873 0.0338287 0)
(0.530378 0.0538251 0)
(0.51575 0.0626423 0)
(0.499611 0.0554908 0)
(0.481614 0.0392769 0)
(0.460961 0.025821 0)
(0.440325 0.0254591 0)
(0.421809 0.0338378 0)
(0.402217 0.0412981 0)
(0.383194 0.0437619 0)
(0.365851 0.0436698 0)
(0.349814 0.0426828 0)
(0.335061 0.0413329 0)
(0.321273 0.041729 0)
(0.307663 0.0448567 0)
(0.292787 0.0491949 0)
(0.275583 0.0524395 0)
(0.256079 0.0538369 0)
(0.234602 0.0537342 0)
(0.211524 0.0530167 0)
(0.187418 0.0524192 0)
(0.162964 0.052037 0)
(0.138787 0.0516382 0)
(0.115327 0.0507561 0)
(0.0931276 0.0489198 0)
(0.072986 0.045599 0)
(0.0549993 0.0412819 0)
(0.0397192 0.0383234 0)
(0.0231751 0.0376123 0)
(0.00840391 0.0358669 0)
(3 -5.14243e-16 0)
(3 6.93106e-17 0)
(3 -1.48988e-16 0)
(3 5.56427e-17 0)
(3 1.05155e-16 0)
(3 -5.0204e-16 0)
(3 -5.73637e-16 0)
(3 -1.42561e-15 0)
(3 -7.71937e-16 0)
(3 -6.63103e-16 0)
(3 -5.16914e-16 0)
(3 -4.78825e-16 0)
(3 -3.78342e-16 0)
(3 -4.47838e-16 0)
(3 -7.92337e-16 0)
(3 -8.39817e-16 0)
(3 -8.36623e-16 0)
(3 -1.1259e-15 0)
(3 -7.90145e-16 0)
(3 -1.05443e-15 0)
(3 -1.0455e-15 0)
(3 -1.55591e-15 0)
(3 -1.11609e-15 0)
(3 -2.09327e-15 0)
(3 -1.91879e-15 0)
(3 -1.47793e-15 0)
(3 -4.45188e-16 0)
(3 6.79083e-17 0)
(3 -1.42753e-16 0)
(3 -7.38449e-17 0)
(3 -5.61956e-16 0)
(3 -7.84433e-16 0)
(3 -6.96282e-19 0)
(3 4.21143e-16 0)
(3 1.12056e-15 0)
(3 2.51544e-15 0)
(3 3.82134e-15 0)
(3 3.54856e-15 0)
(3 2.51375e-15 0)
(3 2.14865e-15 0)
(3 1.75641e-15 0)
(3 9.01437e-16 0)
(3 -1.66123e-16 0)
(3 -5.94975e-17 0)
(3 2.35491e-16 0)
(3 4.42173e-16 0)
(3 1.21429e-15 0)
(3 1.24988e-15 0)
(3 7.27391e-16 0)
(3 7.47261e-16 0)
(3 -1.72373e-17 0)
(3 1.42255e-14 0)
(3 -6.71798e-13 0)
(3 6.26919e-11 0)
(3 -2.92961e-09 0)
(2.99999 2.64325e-07 0)
(2.99957 -1.08328e-05 0)
(2.97261 0.00100746 0)
(1.3809 -0.0267085 0)
(0.731625 0.00368792 0)
(0.652704 0.121493 0)
(0.626125 0.122225 0)
(0.611577 0.094819 0)
(0.592142 0.0527374 0)
(0.569466 0.0231677 0)
(0.549473 0.0234172 0)
(0.536647 0.040452 0)
(0.528171 0.0626436 0)
(0.517092 0.0744616 0)
(0.504151 0.0720418 0)
(0.487619 0.061097 0)
(0.465494 0.0489643 0)
(0.440968 0.0464617 0)
(0.419613 0.0530539 0)
(0.400802 0.0590651 0)
(0.384549 0.0600551 0)
(0.369979 0.0592397 0)
(0.355533 0.0582888 0)
(0.340861 0.0571987 0)
(0.326069 0.0580114 0)
(0.311409 0.0621339 0)
(0.296305 0.0679318 0)
(0.279686 0.0723084 0)
(0.261431 0.0742082 0)
(0.241474 0.0742064 0)
(0.219786 0.0735151 0)
(0.196695 0.0731035 0)
(0.172839 0.072976 0)
(0.148881 0.0728291 0)
(0.125304 0.0720157 0)
(0.102624 0.0699182 0)
(0.0815729 0.065829 0)
(0.0620424 0.0607884 0)
(0.0447226 0.0573379 0)
(0.0258956 0.0572992 0)
(0.0092706 0.056199 0)
(3 2.93703e-16 0)
(3 6.83018e-16 0)
(3 9.04461e-16 0)
(3 1.37668e-17 0)
(3 5.46933e-17 0)
(3 5.98501e-16 0)
(3 6.62877e-16 0)
(3 -1.89674e-16 0)
(3 7.97336e-17 0)
(3 7.0059e-16 0)
(3 1.43495e-16 0)
(3 9.40575e-16 0)
(3 1.7992e-16 0)
(3 -1.41628e-16 0)
(3 5.90115e-16 0)
(3 8.80274e-16 0)
(3 1.08608e-15 0)
(3 7.53813e-16 0)
(3 -2.60484e-16 0)
(3 -2.64884e-16 0)
(3 -7.90531e-16 0)
(3 -5.98255e-16 0)
(3 -5.08114e-16 0)
(3 -5.03862e-16 0)
(3 -9.38911e-16 0)
(3 -1.00616e-15 0)
(3 -1.30408e-15 0)
(3 -9.2042e-16 0)
(3 -8.60394e-16 0)
(3 -1.9298e-17 0)
(3 3.96119e-16 0)
(3 9.35966e-18 0)
(3 -6.34159e-16 0)
(3 -5.87815e-16 0)
(3 3.26873e-17 0)
(3 7.30512e-16 0)
(3 1.85092e-16 0)
(3 -2.25367e-16 0)
(3 -6.44535e-16 0)
(3 -2.1831e-16 0)
(3 1.54937e-16 0)
(3 2.43297e-16 0)
(3 2.76511e-16 0)
(3 6.21231e-16 0)
(3 -2.05104e-16 0)
(3 1.88734e-16 0)
(3 -2.79858e-16 0)
(3 8.40817e-16 0)
(3 1.48986e-15 0)
(3 1.45693e-15 0)
(3 1.38595e-15 0)
(3 1.15939e-14 0)
(3 -4.04366e-14 0)
(3 5.21814e-11 0)
(3 -8.05651e-10 0)
(2.99999 2.50437e-07 0)
(2.99958 -5.28747e-06 0)
(2.97316 0.00113199 0)
(1.38933 -0.0206232 0)
(0.732039 0.0530647 0)
(0.628993 0.130544 0)
(0.626839 0.126124 0)
(0.628116 0.102748 0)
(0.615186 0.0679804 0)
(0.586307 0.0430418 0)
(0.554241 0.0384475 0)
(0.531625 0.0504908 0)
(0.521357 0.0685741 0)
(0.512219 0.0811943 0)
(0.500135 0.083808 0)
(0.485179 0.0786402 0)
(0.46611 0.0703051 0)
(0.443799 0.067685 0)
(0.422782 0.0721976 0)
(0.404222 0.075183 0)
(0.388701 0.074082 0)
(0.374378 0.0735363 0)
(0.359508 0.0742178 0)
(0.343447 0.0746328 0)
(0.32667 0.0759998 0)
(0.310142 0.0801579 0)
(0.294284 0.086123 0)
(0.278166 0.0906701 0)
(0.261274 0.092724 0)
(0.243052 0.0930047 0)
(0.22312 0.0927492 0)
(0.201616 0.0928254 0)
(0.179104 0.093044 0)
(0.156182 0.093179 0)
(0.133224 0.0926339 0)
(0.110595 0.0907609 0)
(0.0889267 0.0866568 0)
(0.0680346 0.0815472 0)
(0.0488918 0.0780528 0)
(0.0282901 0.0783631 0)
(0.0104074 0.078466 0)
(3 1.02525e-16 0)
(3 -7.01259e-16 0)
(3 -1.27723e-16 0)
(3 5.90905e-16 0)
(3 1.23691e-15 0)
(3 1.32166e-15 0)
(3 6.54739e-16 0)
(3 1.24608e-15 0)
(3 9.90869e-16 0)
(3 5.21852e-16 0)
(3 1.27325e-16 0)
(3 -1.08115e-15 0)
(3 -2.09744e-15 0)
(3 -1.10812e-15 0)
(3 3.27753e-16 0)
(3 7.71766e-16 0)
(3 1.42507e-15 0)
(3 1.9055e-15 0)
(3 9.46332e-16 0)
(3 7.32465e-16 0)
(3 2.51154e-16 0)
(3 -1.40253e-16 0)
(3 -1.211e-15 0)
(3 -1.53676e-15 0)
(3 -2.08616e-15 0)
(3 -1.98421e-15 0)
(3 -1.6817e-15 0)
(3 -1.38073e-15 0)
(3 -8.86776e-16 0)
(3 -1.74283e-16 0)
(3 5.36188e-16 0)
(3 8.26745e-16 0)
(3 1.03624e-15 0)
(3 1.35113e-15 0)
(3 1.8014e-15 0)
(3 8.03041e-16 0)
(3 4.37815e-16 0)
(3 -1.39966e-15 0)
(3 -1.24672e-15 0)
(3 -1.46172e-15 0)
(3 -2.06363e-15 0)
(3 -1.85681e-15 0)
(3 -9.85651e-16 0)
(3 1.1053e-17 0)
(3 2.30507e-16 0)
(3 2.84326e-16 0)
(3 -3.41492e-16 0)
(3 -2.21369e-15 0)
(3 -1.81773e-15 0)
(3 -1.85049e-15 0)
(3 -9.60436e-16 0)
(3 9.21754e-15 0)
(3 5.4944e-13 0)
(3 4.61434e-11 0)
(3 1.4508e-09 0)
(2.99999 2.31703e-07 0)
(2.99959 2.84192e-06 0)
(2.97417 0.00112681 0)
(1.41949 0.00305683 0)
(0.74648 0.108421 0)
(0.625124 0.130736 0)
(0.626371 0.121251 0)
(0.6349 0.100301 0)
(0.626999 0.0807299 0)
(0.603561 0.0701956 0)
(0.570682 0.0655493 0)
(0.539298 0.0684132 0)
(0.519656 0.0785535 0)
(0.508768 0.0887493 0)
(0.497044 0.0942613 0)
(0.48223 0.0933481 0)
(0.464917 0.0887965 0)
(0.444995 0.0878128 0)
(0.425204 0.0911867 0)
(0.406942 0.0917246 0)
(0.390881 0.0892615 0)
(0.375304 0.089281 0)
(0.359142 0.0917799 0)
(0.341592 0.0938734 0)
(0.323322 0.0956063 0)
(0.305551 0.0989679 0)
(0.289168 0.103833 0)
(0.27351 0.107587 0)
(0.257696 0.109412 0)
(0.240808 0.110073 0)
(0.2223 0.110529 0)
(0.202207 0.111344 0)
(0.180985 0.112104 0)
(0.159147 0.112776 0)
(0.136951 0.112985 0)
(0.114603 0.112047 0)
(0.0926498 0.108727 0)
(0.0709122 0.104099 0)
(0.0505866 0.100762 0)
(0.0295403 0.1007 0)
(0.0113526 0.102476 0)
(3 -1.65168e-16 0)
(3 6.9156e-18 0)
(3 2.17403e-16 0)
(3 4.07019e-16 0)
(3 1.29513e-16 0)
(3 6.16824e-16 0)
(3 1.04012e-15 0)
(3 1.35782e-15 0)
(3 1.96626e-15 0)
(3 2.12633e-15 0)
(3 2.31153e-15 0)
(3 1.20816e-15 0)
(3 -9.36451e-16 0)
(3 -7.55203e-16 0)
(3 -2.80486e-16 0)
(3 1.60661e-15 0)
(3 1.70208e-15 0)
(3 1.28732e-15 0)
(3 5.35129e-16 0)
(3 1.0166e-16 0)
(3 6.44866e-16 0)
(3 3.7208e-16 0)
(3 -3.14187e-16 0)
(3 -1.37707e-15 0)
(3 -1.61238e-15 0)
(3 -1.74653e-15 0)
(3 -1.21994e-15 0)
(3 -6.38316e-16 0)
(3 2.86028e-16 0)
(3 -5.22576e-16 0)
(3 -1.15187e-15 0)
(3 -1.3732e-16 0)
(3 9.99062e-16 0)
(3 1.56884e-15 0)
(3 1.76597e-15 0)
(3 9.88819e-16 0)
(3 7.52164e-16 0)
(3 7.07329e-16 0)
(3 4.36034e-16 0)
(3 -8.21833e-18 0)
(3 -6.33687e-16 0)
(3 -1.07436e-15 0)
(3 -1.47351e-15 0)
(3 -1.18072e-15 0)
(3 -1.26638e-16 0)
(3 -1.94076e-16 0)
(3 -2.11803e-16 0)
(3 -1.0609e-16 0)
(3 -1.90275e-16 0)
(3 -1.81109e-16 0)
(3 2.58872e-16 0)
(3 9.90188e-15 0)
(3 1.05872e-12 0)
(3 4.20842e-11 0)
(3 3.39374e-09 0)
(2.99999 2.19209e-07 0)
(2.99962 9.50551e-06 0)
(2.97553 0.00113154 0)
(1.47806 0.0214668 0)
(0.779935 0.153061 0)
(0.631892 0.139156 0)
(0.626661 0.113516 0)
(0.63209 0.0955523 0)
(0.626418 0.0892137 0)
(0.612517 0.0914409 0)
(0.587148 0.0942275 0)
(0.556163 0.0924332 0)
(0.529259 0.0923749 0)
(0.511353 0.098326 0)
(0.49767 0.105345 0)
(0.481868 0.107226 0)
(0.46487 0.105349 0)
(0.446545 0.106184 0)
(0.428003 0.10944 0)
(0.409941 0.108875 0)
(0.392791 0.105963 0)
(0.375434 0.10666 0)
(0.357654 0.110763 0)
(0.338739 0.114322 0)
(0.319504 0.116124 0)
(0.301191 0.118216 0)
(0.284639 0.121286 0)
(0.269338 0.123757 0)
(0.254142 0.125153 0)
(0.237951 0.126163 0)
(0.220181 0.127297 0)
(0.200855 0.128781 0)
(0.180384 0.130021 0)
(0.159312 0.131262 0)
(0.13788 0.132482 0)
(0.116118 0.132922 0)
(0.0943778 0.130921 0)
(0.0725102 0.127111 0)
(0.0513897 0.124342 0)
(0.0309985 0.123777 0)
(0.0125611 0.125968 0)
(3 1.56834e-16 0)
(3 5.50597e-16 0)
(3 5.55455e-16 0)
(3 -6.15761e-16 0)
(3 -2.26629e-16 0)
(3 3.99221e-16 0)
(3 1.14687e-15 0)
(3 1.25138e-15 0)
(3 1.19045e-15 0)
(3 8.89884e-16 0)
(3 1.83069e-16 0)
(3 3.56676e-16 0)
(3 -2.86946e-16 0)
(3 -6.34591e-16 0)
(3 -8.39217e-16 0)
(3 -4.58228e-16 0)
(3 -5.28159e-16 0)
(3 -6.66954e-16 0)
(3 -6.89312e-16 0)
(3 -1.67993e-15 0)
(3 -1.27017e-15 0)
(3 -1.00186e-15 0)
(3 1.1958e-17 0)
(3 2.91988e-17 0)
(3 3.4504e-16 0)
(3 -1.01697e-16 0)
(3 2.67987e-16 0)
(3 -2.75458e-17 0)
(3 -5.29424e-16 0)
(3 -1.61665e-15 0)
(3 -1.25391e-15 0)
(3 -6.12802e-16 0)
(3 -7.92047e-17 0)
(3 6.11187e-17 0)
(3 -3.03569e-16 0)
(3 -3.90672e-16 0)
(3 -4.41585e-16 0)
(3 5.66556e-16 0)
(3 5.60349e-16 0)
(3 6.0817e-16 0)
(3 8.35595e-16 0)
(3 7.85316e-16 0)
(3 1.21294e-15 0)
(3 9.49356e-16 0)
(3 7.50012e-16 0)
(3 4.08975e-16 0)
(3 -8.02466e-16 0)
(3 1.64264e-16 0)
(3 9.48802e-17 0)
(3 3.39523e-16 0)
(3 3.64829e-16 0)
(3 1.21925e-14 0)
(3 1.13197e-12 0)
(3 5.37662e-11 0)
(3 3.58386e-09 0)
(2.99999 2.61498e-07 0)
(2.99964 9.66086e-06 0)
(2.97718 0.00131871 0)
(1.55092 0.0187469 0)
(0.81265 0.191854 0)
(0.641075 0.157877 0)
(0.628341 0.113953 0)
(0.626991 0.0945947 0)
(0.621192 0.093517 0)
(0.613958 0.104414 0)
(0.595697 0.118572 0)
(0.568697 0.120246 0)
(0.541346 0.113084 0)
(0.518055 0.112009 0)
(0.500542 0.118021 0)
(0.483013 0.121548 0)
(0.465246 0.121172 0)
(0.447653 0.123223 0)
(0.430342 0.126966 0)
(0.412802 0.126645 0)
(0.395061 0.124288 0)
(0.376541 0.125938 0)
(0.357661 0.131348 0)
(0.337951 0.135785 0)
(0.318379 0.13712 0)
(0.300066 0.1376 0)
(0.283523 0.138651 0)
(0.268257 0.139817 0)
(0.253036 0.140888 0)
(0.236776 0.142296 0)
(0.218933 0.144013 0)
(0.199559 0.145974 0)
(0.179081 0.147465 0)
(0.158172 0.149088 0)
(0.137152 0.15131 0)
(0.115901 0.153317 0)
(0.0945055 0.153016 0)
(0.0730064 0.150407 0)
(0.0516923 0.148828 0)
(0.0319867 0.148374 0)
(0.0128743 0.148526 0)
(3 -4.24086e-16 0)
(3 -1.25577e-16 0)
(3 -1.58789e-16 0)
(3 1.96992e-16 0)
(3 2.36436e-16 0)
(3 -3.86319e-16 0)
(3 -3.16108e-16 0)
(3 8.3825e-17 0)
(3 -1.12568e-15 0)
(3 -1.74941e-15 0)
(3 -2.31063e-15 0)
(3 -1.42453e-15 0)
(3 1.56242e-15 0)
(3 1.36144e-15 0)
(3 1.10872e-15 0)
(3 3.6008e-16 0)
(3 -9.41316e-16 0)
(3 -2.49893e-15 0)
(3 -2.83596e-15 0)
(3 -3.0671e-15 0)
(3 -3.04345e-15 0)
(3 -2.38629e-15 0)
(3 -1.40771e-15 0)
(3 -7.95513e-16 0)
(3 -5.47248e-16 0)
(3 -5.14279e-17 0)
(3 2.15096e-16 0)
(3 9.61851e-17 0)
(3 -5.28449e-16 0)
(3 -8.60642e-16 0)
(3 2.25863e-16 0)
(3 7.05719e-16 0)
(3 7.82191e-16 0)
(3 4.74508e-16 0)
(3 -3.19605e-17 0)
(3 -3.67894e-16 0)
(3 1.40895e-16 0)
(3 7.79209e-16 0)
(3 3.98904e-16 0)
(3 1.31886e-16 0)
(3 8.84953e-16 0)
(3 8.57729e-16 0)
(3 1.36436e-15 0)
(3 1.57291e-15 0)
(3 2.0197e-15 0)
(3 1.5184e-15 0)
(3 5.6202e-16 0)
(3 -1.36934e-15 0)
(3 -9.0677e-16 0)
(3 -8.03389e-16 0)
(3 -2.73394e-17 0)
(3 1.48051e-14 0)
(3 1.1715e-12 0)
(3 6.03863e-11 0)
(3 3.6436e-09 0)
(2.99999 2.74625e-07 0)
(2.99967 8.78806e-06 0)
(2.97885 0.00137642 0)
(1.61502 0.00706308 0)
(0.819191 0.234476 0)
(0.638733 0.180918 0)
(0.629793 0.120912 0)
(0.625198 0.0967682 0)
(0.618758 0.0975422 0)
(0.61293 0.113962 0)
(0.59739 0.137981 0)
(0.571946 0.145702 0)
(0.547032 0.136658 0)
(0.522677 0.130096 0)
(0.502298 0.133487 0)
(0.483651 0.137227 0)
(0.465549 0.137003 0)
(0.44869 0.139242 0)
(0.432693 0.143587 0)
(0.415807 0.144476 0)
(0.397858 0.143455 0)
(0.37881 0.146222 0)
(0.359511 0.152523 0)
(0.339758 0.157176 0)
(0.320579 0.15763 0)
(0.302731 0.156512 0)
(0.286262 0.155826 0)
(0.270654 0.156072 0)
(0.254865 0.157115 0)
(0.237992 0.159023 0)
(0.21953 0.161246 0)
(0.199549 0.163535 0)
(0.178498 0.165109 0)
(0.157211 0.166893 0)
(0.136145 0.169917 0)
(0.115136 0.173436 0)
(0.0940301 0.175017 0)
(0.0732075 0.173811 0)
(0.0521399 0.17339 0)
(0.0316651 0.172983 0)
(0.0117687 0.170736 0)
(3 -2.94645e-16 0)
(3 -1.03921e-15 0)
(3 -1.49959e-15 0)
(3 -1.22748e-15 0)
(3 -1.24515e-15 0)
(3 -1.12939e-15 0)
(3 -1.0817e-15 0)
(3 -1.37776e-15 0)
(3 -1.39964e-15 0)
(3 -1.87391e-15 0)
(3 -1.437e-15 0)
(3 -5.10258e-16 0)
(3 5.22302e-16 0)
(3 9.39363e-16 0)
(3 7.68356e-16 0)
(3 -1.66418e-16 0)
(3 -1.25214e-15 0)
(3 -1.12386e-15 0)
(3 -7.65874e-16 0)
(3 6.72428e-16 0)
(3 7.4939e-16 0)
(3 1.32192e-16 0)
(3 -8.55995e-16 0)
(3 -7.00299e-16 0)
(3 -5.24497e-16 0)
(3 -8.67283e-16 0)
(3 -1.56365e-15 0)
(3 -1.6152e-15 0)
(3 -1.51255e-15 0)
(3 -5.83623e-16 0)
(3 7.51828e-16 0)
(3 5.11868e-16 0)
(3 2.80523e-16 0)
(3 -3.71996e-16 0)
(3 1.77506e-16 0)
(3 2.43758e-16 0)
(3 3.45525e-16 0)
(3 2.34543e-16 0)
(3 2.97998e-16 0)
(3 4.24493e-16 0)
(3 2.29953e-16 0)
(3 7.22941e-16 0)
(3 1.67389e-15 0)
(3 1.55287e-15 0)
(3 7.16522e-16 0)
(3 3.55197e-16 0)
(3 2.04235e-16 0)
(3 -4.31662e-16 0)
(3 -9.29841e-17 0)
(3 -6.3884e-16 0)
(3 -3.47483e-16 0)
(3 1.72548e-14 0)
(3 1.39596e-12 0)
(3 6.37731e-11 0)
(3 4.74758e-09 0)
(3 2.50564e-07 0)
(2.9997 1.35389e-05 0)
(2.98047 0.00117339 0)
(1.67586 0.0235975 0)
(0.80488 0.273573 0)
(0.631889 0.194618 0)
(0.636529 0.127557 0)
(0.631781 0.0989342 0)
(0.623033 0.10232 0)
(0.613385 0.126316 0)
(0.594632 0.157707 0)
(0.567855 0.168096 0)
(0.545412 0.158164 0)
(0.523444 0.148725 0)
(0.503548 0.149916 0)
(0.48552 0.153403 0)
(0.467851 0.15276 0)
(0.451333 0.154594 0)
(0.435837 0.159675 0)
(0.41895 0.162497 0)
(0.400572 0.163234 0)
(0.381277 0.166961 0)
(0.362169 0.173512 0)
(0.343187 0.177666 0)
(0.325177 0.17705 0)
(0.308214 0.174748 0)
(0.291868 0.173034 0)
(0.275708 0.172944 0)
(0.259062 0.174236 0)
(0.24127 0.176666 0)
(0.221862 0.179275 0)
(0.200944 0.18178 0)
(0.178999 0.183386 0)
(0.157003 0.185198 0)
(0.135563 0.188807 0)
(0.114603 0.193666 0)
(0.0937166 0.197074 0)
(0.0732595 0.19714 0)
(0.0523894 0.197316 0)
(0.0304262 0.196821 0)
(0.0101489 0.193416 0)
(3 3.65008e-17 0)
(3 -8.78709e-16 0)
(3 -5.06929e-16 0)
(3 -7.6488e-16 0)
(3 -8.13737e-17 0)
(3 1.65417e-16 0)
(3 -2.64682e-17 0)
(3 -1.64369e-16 0)
(3 1.13917e-15 0)
(3 1.27068e-15 0)
(3 1.44613e-15 0)
(3 6.48269e-16 0)
(3 -5.31546e-16 0)
(3 2.23971e-16 0)
(3 -2.2178e-17 0)
(3 -4.72248e-16 0)
(3 3.52681e-17 0)
(3 4.1158e-16 0)
(3 6.63588e-16 0)
(3 1.47597e-15 0)
(3 1.17866e-15 0)
(3 4.73226e-16 0)
(3 -6.14824e-16 0)
(3 -3.18509e-16 0)
(3 -2.6796e-17 0)
(3 1.11192e-16 0)
(3 -4.87025e-16 0)
(3 -1.32267e-15 0)
(3 -1.32991e-15 0)
(3 -1.87545e-16 0)
(3 4.07399e-16 0)
(3 2.5006e-16 0)
(3 1.07496e-16 0)
(3 -1.91472e-16 0)
(3 -4.04718e-16 0)
(3 -8.01865e-17 0)
(3 1.24226e-15 0)
(3 1.49548e-15 0)
(3 1.23787e-15 0)
(3 1.68401e-15 0)
(3 1.65184e-15 0)
(3 2.29528e-15 0)
(3 1.14758e-15 0)
(3 6.40728e-16 0)
(3 -5.49256e-16 0)
(3 -6.55721e-16 0)
(3 -8.12132e-16 0)
(3 -1.93876e-15 0)
(3 -2.70573e-15 0)
(3 -3.36508e-15 0)
(3 -3.33707e-15 0)
(3 1.9249e-14 0)
(3 1.70221e-12 0)
(3 7.87757e-11 0)
(3 6.40081e-09 0)
(3 2.69083e-07 0)
(2.99973 2.19159e-05 0)
(2.98231 0.00105122 0)
(1.75098 0.0653668 0)
(0.793542 0.311443 0)
(0.632147 0.195756 0)
(0.650853 0.126597 0)
(0.648703 0.101458 0)
(0.636778 0.110316 0)
(0.619938 0.145382 0)
(0.592879 0.181958 0)
(0.563319 0.189334 0)
(0.543256 0.176696 0)
(0.524328 0.165405 0)
(0.506267 0.165343 0)
(0.489535 0.169112 0)
(0.472193 0.168607 0)
(0.455306 0.170218 0)
(0.439395 0.176175 0)
(0.422097 0.181096 0)
(0.40338 0.183425 0)
(0.384321 0.187522 0)
(0.366055 0.193469 0)
(0.34848 0.196477 0)
(0.331993 0.194892 0)
(0.31584 0.192216 0)
(0.299401 0.190482 0)
(0.282488 0.190742 0)
(0.264777 0.192532 0)
(0.245851 0.195454 0)
(0.225308 0.198313 0)
(0.203313 0.200929 0)
(0.180427 0.20255 0)
(0.157705 0.204322 0)
(0.135834 0.208334 0)
(0.114814 0.214273 0)
(0.0939903 0.219175 0)
(0.0733352 0.220181 0)
(0.052355 0.220618 0)
(0.0291033 0.220352 0)
(0.00870081 0.216987 0)
(3 3.83512e-16 0)
(3 9.62169e-16 0)
(3 8.8516e-16 0)
(3 1.78373e-15 0)
(3 1.73602e-15 0)
(3 1.1031e-15 0)
(3 5.52097e-16 0)
(3 5.65392e-16 0)
(3 1.21794e-15 0)
(3 1.62108e-15 0)
(3 1.4567e-15 0)
(3 4.39545e-16 0)
(3 -2.19024e-17 0)
(3 -5.12946e-16 0)
(3 -6.38436e-16 0)
(3 -1.13534e-15 0)
(3 -5.60347e-16 0)
(3 -8.50056e-16 0)
(3 -1.75121e-15 0)
(3 -2.2605e-15 0)
(3 -2.84251e-15 0)
(3 -2.00988e-15 0)
(3 -1.09612e-15 0)
(3 -1.22511e-15 0)
(3 -1.87751e-15 0)
(3 -6.09735e-16 0)
(3 -4.02911e-17 0)
(3 3.82489e-16 0)
(3 2.48494e-16 0)
(3 -1.48636e-16 0)
(3 -1.00666e-15 0)
(3 -7.23609e-16 0)
(3 -6.60062e-16 0)
(3 -4.30697e-16 0)
(3 -5.10737e-16 0)
(3 -1.26777e-16 0)
(3 2.18645e-16 0)
(3 2.60775e-16 0)
(3 5.41654e-18 0)
(3 -3.952e-16 0)
(3 -7.20759e-16 0)
(3 -6.36932e-16 0)
(3 -2.49957e-15 0)
(3 -1.88584e-15 0)
(3 -1.50082e-15 0)
(3 -8.78951e-16 0)
(3 -9.08115e-17 0)
(3 1.21059e-15 0)
(3 4.29426e-16 0)
(3 2.61794e-16 0)
(3 -3.13842e-16 0)
(3 2.72734e-14 0)
(3 1.96048e-12 0)
(3 1.04095e-10 0)
(3 7.97988e-09 0)
(3 3.50908e-07 0)
(2.99977 3.12097e-05 0)
(2.98469 0.00115584 0)
(1.8553 0.12425 0)
(0.787766 0.34044 0)
(0.650828 0.185181 0)
(0.675834 0.116566 0)
(0.671985 0.105125 0)
(0.655968 0.126665 0)
(0.627626 0.175466 0)
(0.590776 0.2106 0)
(0.560597 0.209649 0)
(0.543394 0.192693 0)
(0.526846 0.179888 0)
(0.510452 0.179514 0)
(0.494962 0.184457 0)
(0.477644 0.185221 0)
(0.460052 0.186913 0)
(0.443407 0.193507 0)
(0.425889 0.200064 0)
(0.407326 0.203381 0)
(0.388996 0.207072 0)
(0.371778 0.211664 0)
(0.355472 0.213281 0)
(0.339922 0.211348 0)
(0.323962 0.209358 0)
(0.307117 0.208567 0)
(0.289395 0.209723 0)
(0.27066 0.212135 0)
(0.250685 0.215432 0)
(0.22912 0.218382 0)
(0.206211 0.221021 0)
(0.182585 0.222657 0)
(0.15932 0.224384 0)
(0.137046 0.228644 0)
(0.115783 0.235324 0)
(0.0947435 0.24128 0)
(0.0733943 0.242982 0)
(0.0522771 0.243674 0)
(0.0283162 0.244035 0)
(0.00753069 0.241059 0)
(3 1.29511e-16 0)
(3 1.80645e-16 0)
(3 -4.27319e-16 0)
(3 -1.77159e-17 0)
(3 -2.70928e-17 0)
(3 -4.41819e-16 0)
(3 -3.72715e-16 0)
(3 -7.212e-16 0)
(3 7.74485e-18 0)
(3 -4.95602e-16 0)
(3 -6.98773e-16 0)
(3 -1.05499e-15 0)
(3 -7.50122e-16 0)
(3 -1.31149e-15 0)
(3 -9.94086e-16 0)
(3 -6.05221e-16 0)
(3 -2.54614e-16 0)
(3 -6.46077e-17 0)
(3 -8.77021e-16 0)
(3 -1.36224e-15 0)
(3 -9.47494e-16 0)
(3 -3.01817e-17 0)
(3 1.05313e-16 0)
(3 -5.40246e-17 0)
(3 7.12032e-17 0)
(3 -1.37202e-16 0)
(3 -1.45635e-16 0)
(3 3.88379e-16 0)
(3 9.52065e-16 0)
(3 7.98748e-16 0)
(3 -2.56009e-16 0)
(3 -7.81482e-16 0)
(3 -1.97317e-15 0)
(3 -1.98023e-15 0)
(3 -1.20525e-15 0)
(3 -6.94101e-16 0)
(3 -7.72488e-16 0)
(3 -1.06638e-15 0)
(3 -7.60908e-16 0)
(3 -1.14861e-15 0)
(3 -1.15799e-15 0)
(3 -1.38778e-15 0)
(3 -1.33336e-15 0)
(3 -1.71222e-15 0)
(3 -1.89667e-15 0)
(3 -1.48487e-15 0)
(3 -1.75054e-15 0)
(3 -1.08346e-15 0)
(3 -9.40994e-16 0)
(3 -7.55317e-16 0)
(3 -1.00963e-15 0)
(3 2.93198e-14 0)
(3 1.99722e-12 0)
(3 1.2354e-10 0)
(3 8.65323e-09 0)
(3 4.68398e-07 0)
(2.99982 3.72238e-05 0)
(2.98787 0.00156554 0)
(2.00367 0.189217 0)
(0.799097 0.350639 0)
(0.698062 0.163039 0)
(0.707263 0.105949 0)
(0.697034 0.115708 0)
(0.668293 0.159721 0)
(0.626842 0.216424 0)
(0.584934 0.239246 0)
(0.559131 0.227626 0)
(0.545655 0.206173 0)
(0.531049 0.192558 0)
(0.516004 0.192806 0)
(0.501498 0.19969 0)
(0.483918 0.202913 0)
(0.46548 0.204855 0)
(0.448058 0.211542 0)
(0.43054 0.218921 0)
(0.412385 0.222542 0)
(0.394736 0.225346 0)
(0.378082 0.228435 0)
(0.362192 0.229123 0)
(0.346612 0.2276 0)
(0.330355 0.226911 0)
(0.31308 0.227525 0)
(0.294831 0.22979 0)
(0.275462 0.232803 0)
(0.254847 0.236318 0)
(0.232668 0.239235 0)
(0.209261 0.241883 0)
(0.185287 0.24361 0)
(0.161753 0.245328 0)
(0.139142 0.249689 0)
(0.117502 0.25677 0)
(0.0959184 0.263418 0)
(0.0737376 0.265813 0)
(0.0526095 0.266899 0)
(0.0283301 0.268115 0)
(0.00675477 0.265402 0)
(3 -1.25197e-16 0)
(3 -8.07382e-16 0)
(3 -8.28825e-16 0)
(3 -1.38568e-15 0)
(3 -1.19429e-15 0)
(3 1.53257e-16 0)
(3 4.15954e-16 0)
(3 3.53645e-16 0)
(3 1.46424e-16 0)
(3 2.08177e-16 0)
(3 -4.99336e-16 0)
(3 3.23803e-16 0)
(3 -5.33917e-16 0)
(3 -4.64112e-16 0)
(3 -4.3157e-16 0)
(3 -5.35392e-16 0)
(3 -5.41208e-16 0)
(3 -3.62798e-16 0)
(3 -8.43005e-16 0)
(3 -9.43736e-16 0)
(3 2.51998e-16 0)
(3 -6.15678e-17 0)
(3 -2.36997e-16 0)
(3 4.27721e-16 0)
(3 7.8755e-16 0)
(3 -4.99254e-16 0)
(3 -1.07005e-15 0)
(3 -1.32924e-15 0)
(3 -1.07679e-15 0)
(3 -8.68684e-16 0)
(3 -1.23092e-15 0)
(3 -2.11859e-15 0)
(3 -1.98079e-15 0)
(3 -1.91914e-15 0)
(3 -1.71153e-15 0)
(3 -1.32673e-15 0)
(3 -1.1754e-15 0)
(3 -1.65548e-15 0)
(3 -1.62687e-15 0)
(3 -1.31293e-15 0)
(3 -1.11549e-15 0)
(3 -5.39389e-16 0)
(3 -8.83567e-16 0)
(3 -1.78098e-15 0)
(3 -1.01316e-15 0)
(3 -8.26939e-16 0)
(3 -8.22676e-16 0)
(3 -1.33621e-15 0)
(3 -1.52981e-15 0)
(3 -2.0582e-15 0)
(3 -2.35644e-15 0)
(3 2.18051e-14 0)
(3 1.65614e-12 0)
(3 1.12992e-10 0)
(3 7.77942e-09 0)
(3 5.08722e-07 0)
(2.99988 3.61205e-05 0)
(2.99185 0.00205144 0)
(2.2243 0.232457 0)
(0.856901 0.34162 0)
(0.754817 0.134631 0)
(0.734387 0.111699 0)
(0.711146 0.144533 0)
(0.663248 0.207761 0)
(0.614678 0.258324 0)
(0.577432 0.262322 0)
(0.559891 0.241876 0)
(0.550329 0.216996 0)
(0.537093 0.203815 0)
(0.523 0.205713 0)
(0.508803 0.215401 0)
(0.49047 0.221976 0)
(0.471068 0.224084 0)
(0.45298 0.230105 0)
(0.435601 0.237449 0)
(0.417832 0.240921 0)
(0.400478 0.242857 0)
(0.383706 0.244833 0)
(0.367379 0.245137 0)
(0.351148 0.244282 0)
(0.334415 0.244946 0)
(0.316871 0.24702 0)
(0.298459 0.250404 0)
(0.278891 0.25399 0)
(0.25806 0.257651 0)
(0.235684 0.260545 0)
(0.212182 0.263318 0)
(0.188161 0.2653 0)
(0.164464 0.267067 0)
(0.141473 0.27142 0)
(0.119228 0.278635 0)
(0.0968911 0.285759 0)
(0.0740645 0.28896 0)
(0.0530096 0.290539 0)
(0.0286881 0.292639 0)
(0.00604382 0.290097 0)
(3 4.50005e-16 0)
(3 -3.99479e-16 0)
(3 -3.4169e-16 0)
(3 -6.36673e-16 0)
(3 -8.61788e-16 0)
(3 -6.82406e-16 0)
(3 -1.15829e-16 0)
(3 1.34875e-15 0)
(3 1.22113e-15 0)
(3 2.05431e-15 0)
(3 1.30603e-15 0)
(3 1.25841e-15 0)
(3 4.12534e-16 0)
(3 4.8668e-16 0)
(3 1.85871e-16 0)
(3 -7.22715e-16 0)
(3 -1.84379e-15 0)
(3 -3.45948e-15 0)
(3 -2.13424e-15 0)
(3 -1.89888e-15 0)
(3 -9.68112e-16 0)
(3 -6.82369e-16 0)
(3 -2.00692e-16 0)
(3 7.78403e-17 0)
(3 -1.51335e-16 0)
(3 -4.94096e-16 0)
(3 -8.2759e-16 0)
(3 -1.41328e-15 0)
(3 -2.18042e-15 0)
(3 -2.68164e-15 0)
(3 -2.67935e-15 0)
(3 -3.03872e-15 0)
(3 -2.22849e-15 0)
(3 -9.22866e-16 0)
(3 -8.11439e-16 0)
(3 -8.6415e-16 0)
(3 -2.11572e-15 0)
(3 -2.90096e-15 0)
(3 -3.10001e-15 0)
(3 -2.1447e-15 0)
(3 -1.10903e-15 0)
(3 -1.18684e-15 0)
(3 -1.13709e-15 0)
(3 -8.58649e-16 0)
(3 -2.05018e-16 0)
(3 -1.1112e-15 0)
(3 -3.93227e-16 0)
(3 -8.46363e-16 0)
(3 -1.09408e-15 0)
(3 -1.64967e-15 0)
(3 -5.84486e-16 0)
(3 1.28543e-14 0)
(3 9.75216e-13 0)
(3 6.94485e-11 0)
(3 5.1243e-09 0)
(3 3.70633e-07 0)
(2.99994 2.61484e-05 0)
(2.99588 0.00187536 0)
(2.52401 0.212267 0)
(0.988442 0.300075 0)
(0.791245 0.104452 0)
(0.748628 0.132954 0)
(0.699765 0.193938 0)
(0.643132 0.26142 0)
(0.597609 0.289892 0)
(0.573551 0.278274 0)
(0.564438 0.251406 0)
(0.557722 0.225197 0)
(0.545032 0.214274 0)
(0.531488 0.219026 0)
(0.516499 0.232667 0)
(0.496713 0.242625 0)
(0.476535 0.244319 0)
(0.458182 0.248832 0)
(0.441133 0.255493 0)
(0.423696 0.258681 0)
(0.406316 0.260082 0)
(0.389001 0.261495 0)
(0.371782 0.261803 0)
(0.354618 0.261608 0)
(0.337322 0.263403 0)
(0.319607 0.266761 0)
(0.301241 0.271116 0)
(0.28178 0.275245 0)
(0.261071 0.27905 0)
(0.2389 0.282021 0)
(0.215699 0.285071 0)
(0.191905 0.287491 0)
(0.168138 0.289362 0)
(0.144769 0.293641 0)
(0.121793 0.300874 0)
(0.098744 0.308451 0)
(0.0754513 0.312581 0)
(0.0542527 0.314594 0)
(0.0299726 0.317366 0)
(0.0058072 0.315965 0)
(3 -5.48935e-17 0)
(3 4.8784e-16 0)
(3 -1.91197e-16 0)
(3 3.67637e-17 0)
(3 -4.83988e-16 0)
(3 -8.15661e-16 0)
(3 -1.27639e-15 0)
(3 -2.7819e-16 0)