/*--------------------------------*- C++ -*----------------------------------*\
| =========                 |                                                 |
| \\      /  F ield         | OpenFOAM: The Open Source CFD Toolbox           |
|  \\    /   O peration     | Version:  v1812                                 |
|   \\  /    A nd           | Web:      www.OpenFOAM.com                      |
|    \\/     M anipulation  |                                                 |
\*---------------------------------------------------------------------------*/
FoamFile
{
    version     2.0;
    format      ascii;
    class       volScalarField;
    location    "0.8";
    object      p;
}
// * * * * * * * * * * * * * * * * * * * * * * * * * * * * * * * * * * * * * //

dimensions      [1 -1 -2 0 0 0 0];


internalField   nonuniform List<scalar> 
20400
(
96849.4
96852.9
96848.7
96847.3
96845.9
96844
96841.4
96839.1
96836.4
96831.5
96827.3
96823.9
96820
96816.3
96813.2
96808.6
96804.3
96801.3
96799.8
96797.3
96795
96793
96790.9
96789
96787.1
96784.8
96782.1
96779.8
96777.5
96774.7
96770.4
96766.4
96763.3
96759.7
96755.2
96749.8
96744.7
96741
96736.8
96733.1
96729.2
96725.7
96722.5
96719.8
96718.7
96718.1
96717.7
96718.5
96719.5
96721.6
96724.8
96728.7
96732.8
96737.9
96744.4
96747.4
96755
96763.1
96765.5
96769.7
96775.5
96777.9
96781.3
96781.1
96779.7
96781.2
96777.8
96777.2
96775.2
96770.8
96769.5
96769.2
96768.4
96769.6
96769.5
96770.6
96774.9
96778.7
96781.3
96781.9
96787.4
96796.6
96801.5
96812.8
96824.5
96836.3
96853.5
96872.8
96889.3
96906.1
96924.5
96943.6
96964.4
96985.5
97006.3
97026.8
97046.4
97065
97085.3
97101
97123.3
97126.3
97136.5
97148.6
97162.8
97169.9
97198.3
97213.9
97188.7
97194.7
97199.3
97203.4
97203.4
97202.5
97201.4
97198.9
97196.2
97193
97188
97186.8
97180.8
97181.7
97177
97174.4
97173.5
97173.6
97170.1
97171.5
97176.2
97179.2
97189.9
97196.7
97204.2
97210.8
97216.9
97223.3
97233.5
97244.7
97257.7
97270.5
97284
97300.1
97315.2
97333.6
97352.2
97372.7
97392.9
97414.2
97435.8
97458.1
97480.3
97502.9
97525.2
97548.2
97571.8
97595
97617.8
97640
97662
97683.7
97704.9
97725.2
97744.1
97761.4
97778.7
97791
97804.5
97818.1
97828.1
97837.5
97844.8
97850.3
97855.7
97860
97864.3
97867.9
97873.2
97872.3
97870.3
97865.8
97861.3
97855.4
97850.4
97844.3
97837.8
97831.1
97823.2
97812.7
97803.9
97793.1
97780.7
97766.9
97752.8
97733.3
97717.2
97705.4
97685.7
97672.7
97658.3
97639.1
97621.1
97602.7
97584.6
97565.3
97545.9
97525.7
97506.1
97485.2
97464.3
97445.2
97423.2
97401
97381.2
97359.4
97335.7
97312.5
97292.4
97271
97249.1
97227.7
97209
97190.1
97169.7
97149.8
97132.4
97114.6
97095.8
97075.2
97059.3
97045.1
97031.5
97017.8
97006.6
96995.7
96988.3
96980.7
96977.1
96973.4
96972.1
96975.5
96978.6
96983.2
96994.6
97004.3
97018
97033.4
97053.5
97075.5
97097.6
97120.5
97146.4
97173.4
97199
97224.7
97252.9
97281
97309.1
97339.8
97369.8
97398.8
97426.4
97453.1
97481.8
97514.3
97536.1
97560.8
97585.4
97611.2
97637.2
97667.7
97690.9
97715.2
97737.8
97763.4
97789.1
97814.9
97840.9
97864.9
97890.4
97915.2
97939.9
97964.5
97989.7
98014.7
98039.9
98065
98089.9
98115.2
98140.8
98166
98191.1
98216.1
98241.2
98266
98290.8
98315.4
98340
98364.4
98388.9
98413.2
98437.5
98461.6
98485.8
98509.8
98533.7
98557.7
98581.7
98605.5
98629.4
98653.3
98677.1
98700.9
98724.7
98748.6
98772.5
98796.5
98820.7
98844.9
98869.2
98893.7
98918.3
98943
98967.9
98993
99018.3
99043.9
99069.6
99095.6
99121.8
99148.2
99174.7
99201.5
99228.5
99255.6
99283
99310.5
99338.2
99366.1
99394.2
99422.4
99450.8
99479.3
99508
99536.8
99565.7
99594.7
99623.8
99653
99682.3
99711.6
99740.9
99770.2
99799.6
99828.9
99858.2
99887.4
99916.6
99945.6
99974.5
100003
100032
100060
100088
100116
100143
100171
100198
100225
100251
100278
100303
100329
100354
100379
100403
100427
100450
100474
100496
100518
100540
100561
100582
100602
100622
100641
100660
100679
100696
100714
100731
100747
100763
100778
100793
100808
100822
100836
100849
100862
100875
100887
100899
100910
100921
100932
100943
100953
100963
100972
100982
100991
101000
101008
101017
101025
101033
101041
101048
101056
101063
101070
101077
101084
101091
101098
101104
101111
101117
101124
101130
101136
101143
101149
101155
101161
101167
101173
101179
101185
101191
101197
101202
101208
101214
101219
101225
101231
101236
101241
101247
101252
101257
101262
101267
101272
101276
101281
101285
101289
101294
101298
101301
101305
101309
101312
101315
101318
101321
101324
101326
101328
101330
101332
101334
101336
101337
101338
101339
101340
101341
101341
101341
101341
101341
101341
101341
101340
101340
101339
101338
101337
101336
101334
101333
101332
101330
101329
101327
101326
96848.2
96851.4
96847.3
96844.3
96841.2
96838.4
96836.1
96833.4
96833.5
96827.8
96824.2
96820.6
96816.8
96813.6
96809.2
96811
96807.9
96806.6
96804.9
96802.3
96799.9
96797.7
96795.3
96793.1
96790.9
96788.3
96785.6
96783.2
96780.6
96777.3
96772.7
96769.3
96766
96761.6
96756.5
96751.3
96746.4
96742.7
96738.3
96734.6
96732.2
96729.8
96727.4
96725.7
96725.1
96724.9
96725.1
96726.3
96727.5
96729.4
96731.7
96733.7
96734.7
96739.3
96741
96745.7
96741.9
96748.6
96759.6
96765.3
96772.3
96778.3
96785.6
96789.2
96791.3
96795.5
96795.1
96796.1
96793.5
96788.1
96788.2
96790.5
96791.6
96787.7
96783.4
96778.5
96777.1
96776.6
96776.6
96777.2
96788.5
96794.5
96803.8
96810
96819.5
96828.1
96819.5
96840.8
96874.9
96864.6
96869.6
96888.1
96906.6
96920.1
96931.3
96940.9
96950.2
96959.8
96968.7
96982.8
97006.1
97033.2
97051.4
97067.3
97084.3
97115.6
97152.4
97162.8
97148.8
97167.1
97181.1
97191.8
97197
97200.9
97204.4
97207
97209.9
97210.6
97206.3
97198.5
97180.4
97179
97173.4
97171.4
97172.2
97174.6
97173
97172
97169.9
97164.7
97170.1
97174.8
97177.8
97184.4
97193.2
97205.1
97224.5
97241.4
97255.3
97269
97283.9
97299.2
97314.5
97333.2
97352.2
97372.5
97392.6
97413.7
97435
97457.2
97479.7
97502.1
97524.3
97547
97569.9
97592.3
97614.1
97635.5
97656.8
97678.5
97700.6
97722.1
97742.5
97760.9
97778.9
97793.6
97807.1
97820.8
97831.5
97841.4
97849.3
97855.6
97860.5
97864.5
97868.6
97872.6
97876.7
97877.3
97875.9
97872.9
97869.4
97863.1
97856.4
97848.6
97841
97833.9
97825.6
97815.2
97806.5
97796
97783
97769.9
97755.7
97736.3
97719.6
97707.2
97687.2
97671.9
97656.6
97636.9
97619.1
97601.1
97582.6
97562.8
97544.9
97525
97506.3
97486.8
97465.3
97447.2
97427.2
97407.8
97390.8
97371.3
97350.9
97328.1
97307.9
97286.4
97264.7
97242.2
97221.5
97202.3
97182.8
97162.8
97145.4
97127.9
97110.6
97092.2
97076.9
97062.1
97048.1
97033.7
97021.1
97008.8
96998.6
96988.5
96982.4
96976.6
96973.7
96974.1
96976.5
96979.7
96988.5
96994.3
97005.5
97017.1
97033.5
97052.6
97073.4
97095.6
97121.1
97149.5
97178.3
97208.2
97241.5
97275.1
97303.6
97327.3
97352.5
97379.4
97406.3
97432.9
97459.2
97496.4
97524.3
97552
97579.6
97608.3
97637.5
97668.9
97692.4
97717.1
97739.5
97764.9
97789.9
97815.6
97842.9
97868.3
97893.8
97918.7
97943.4
97967.3
97991.9
98016.9
98042
98067
98091.7
98116.9
98142.6
98168.2
98193.2
98218.2
98243.3
98268
98292.7
98317.2
98341.6
98365.9
98390.1
98414.2
98438.1
98462.1
98486.1
98510
98533.9
98557.9
98582
98606
98629.9
98653.6
98677.2
98701
98724.8
98748.6
98772.5
98796.8
98821
98845.3
98869.4
98893.7
98918.2
98942.8
98967.7
98992.8
99018.2
99044
99069.8
99095.7
99121.8
99148
99174.4
99201.1
99228.1
99255.3
99282.9
99310.6
99338.4
99366.2
99394.1
99422.3
99450.6
99479.1
99507.8
99536.8
99565.8
99594.8
99623.9
99652.9
99682.1
99711.4
99740.7
99770
99799.5
99829
99858.4
99887.6
99916.6
99945.5
99974.4
100003
100032
100060
100088
100116
100144
100171
100199
100225
100251
100278
100303
100329
100354
100379
100403
100427
100451
100474
100496
100518
100540
100561
100582
100602
100622
100642
100660
100679
100697
100714
100731
100747
100763
100778
100793
100808
100822
100836
100849
100862
100875
100887
100898
100910
100921
100932
100943
100953
100963
100972
100982
100991
100999
101008
101017
101025
101033
101040
101048
101055
101063
101070
101077
101084
101091
101097
101104
101111
101117
101124
101130
101136
101142
101149
101155
101161
101167
101173
101179
101185
101191
101196
101202
101208
101214
101219
101225
101230
101236
101241
101247
101252
101257
101262
101267
101271
101276
101281
101285
101289
101294
101298
101301
101305
101309
101312
101315
101318
101321
101324
101326
101328
101330
101332
101334
101336
101337
101338
101339
101340
101340
101341
101341
101342
101341
101341
101341
101340
101340
101339
101338
101337
101336
101335
101333
101332
101330
101329
101327
101326
96851.6
96853.7
96850.3
96848.7
96847.4
96845.7
96843.2
96840.7
96837.2
96834.3
96830.2
96826.4
96822.1
96817.6
96813.6
96806.8
96801.1
96795.6
96793.4
96788.6
96784.5
96781.2
96779.6
96778
96775.5
96772
96769.6
96769.2
96769.2
96765.8
96759.9
96758.1
96759.3
96757.9
96749.6
96746.4
96745.8
96743.8
96738.6
96738.2
96736.9
96734.6
96731.2
96728.7
96727.7
96726.7
96726
96727
96728.1
96729.9
96732
96734.4
96738.4
96740.6
96749.1
96754.7
96760.5
96768.9
96774.8
96773.8
96784.4
96794.7
96802.2
96805.4
96806.6
96809.2
96810
96814
96815.7
96811.8
96809
96809.7
96806.2
96818.7
96810.4
96809.2
96805
96803
96801
96794.9
96791
96792.4
96787.5
96796.9
96793.6
96793.1
96823
96816.7
96814.4
96857.6
96892.4
96910.3
96932.9
96958.6
96982.2
97002.7
97022.5
97041.8
97061
97084
97098.4
97117.1
97134.1
97148.6
97165
97170.9
97194
97210.4
97192.4
97186.3
97183
97186.6
97188
97188.5
97189.1
97188.8
97188.6
97188.3
97184.1
97177.3
97175.2
97177.1
97177.1
97174.5
97172.5
97169.2
97167.8
97171.8
97176.5
97177.3
97195.5
97217.2
97229.8
97230.6
97226.7
97228.3
97234.4
97244.7
97259
97272.2
97285.7
97301.2
97317.7
97336.2
97354
97373.7
97393.8
97414.4
97435.9
97457.8
97479.7
97502.2
97524.2
97546.2
97569.5
97593.8
97618.5
97643.4
97667.8
97690.6
97710.7
97728.5
97746.2
97760.6
97777
97790.4
97805.3
97820.4
97831.3
97840.9
97848.2
97853.7
97858
97862.2
97865.5
97869.5
97873.5
97875.1
97874.9
97871.5
97865.3
97856.8
97851.2
97844.6
97838
97832
97824.3
97811.7
97802.6
97792.5
97778.6
97768.5
97755
97739.4
97713.1
97702.8
97680.6
97671.6
97660.9
97643
97623.7
97603.6
97586.6
97570.4
97547
97524.8
97504.8
97485.4
97466.2
97448.1
97430
97399.6
97373.4
97356
97334.5
97310.9
97293.2
97273
97250.9
97229.1
97210.5
97195.1
97179
97160.7
97143.5
97124.6
97103.5
97084.3
97067.6
97052
97038.7
97025.1
97012.7
97001.5
96993.1
96984.6
96978.8
96971.5
96967.9
96969.3
96979.6
96985.5
96993.4
97002
97017.2
97031.7
97045.8
97061.7
97082.3
97104.2
97129.7
97158.8
97188.4
97217.8
97249.7
97287.7
97321.9
97351.6
97381.4
97413
97445.1
97477.7
97514.2
97518.4
97533.8
97556.9
97581.3
97606.3
97631.2
97666.3
97690.8
97715.7
97739.3
97765.3
97791.7
97817.4
97843.1
97864.7
97890.5
97915.3
97940.7
97965.2
97990.6
98016.5
98041.7
98067
98091.2
98116.2
98141.3
98165.9
98191
98215.9
98241.1
98265.8
98290.5
98315.1
98339.6
98363.9
98388.5
98412.9
98437.7
98461.8
98485.9
98509.9
98533.8
98557.7
98581.2
98604.8
98628.6
98652.8
98677
98700.8
98724.7
98748.5
98772.2
98795.8
98819.6
98843.8
98868.4
98893.3
98918.1
98943
98967.8
98992.7
99017.9
99043
99068.5
99094.4
99120.9
99147.8
99174.5
99201.3
99228.2
99255.2
99282.3
99309.6
99337.2
99365.3
99393.6
99422.1
99450.5
99479
99507.5
99536.1
99564.8
99593.8
99623.1
99652.6
99682
99711.3
99740.6
99769.8
99799
99828
99857.2
99886.6
99916.1
99945.5
99974.4
100003
100032
100060
100088
100115
100143
100170
100198
100225
100252
100278
100304
100329
100354
100378
100402
100426
100450
100473
100496
100518
100540
100562
100582
100603
100622
100641
100660
100678
100696
100714
100731
100747
100763
100778
100793
100808
100822
100835
100849
100862
100874
100887
100899
100910
100921
100932
100942
100952
100962
100972
100982
100991
101000
101008
101016
101024
101032
101040
101048
101055
101063
101070
101077
101084
101090
101097
101104
101110
101117
101123
101130
101136
101142
101148
101155
101161
101167
101173
101179
101185
101191
101196
101202
101208
101214
101219
101225
101230
101236
101241
101246
101252
101257
101262
101267
101271
101276
101281
101285
101289
101294
101298
101301
101305
101308
101312
101315
101318
101321
101324
101326
101329
101330
101332
101334
101335
101337
101338
101339
101340
101341
101341
101341
101341
101341
101341
101341
101341
101340
101339
101338
101337
101336
101334
101333
101332
101331
101329
101327
101326
96852.4
96855.9
96851.1
96848.8
96846.2
96843.6
96840
96836.7
96832.9
96829.2
96824.7
96820.7
96816.5
96812.2
96809.2
96805.5
96802.2
96799.1
96794
96791.1
96789.1
96787.2
96783.4
96779.7
96777.6
96777.1
96776
96772.7
96768
96766.3
96767.1
96766.1
96759
96752.9
96755.2
96753.5
96748.8
96746.6
96746.8
96740.4
96735.1
96731.6
96728.9
96726.5
96724.3
96722.1
96720.5
96720.8
96721.9
96724.7
96728.7
96733.5
96738.5
96743.9
96750.7
96753.2
96761.6
96771.1
96773.9
96775.1
96786.1
96790.9
96797.3
96800.4
96800.8
96802
96797.1
96794.1
96789.8
96786
96789.2
96787.6
96779.3
96770.1
96764.9
96760.7
96758.6
96758.8
96761.8
96763.5
96770.3
96775.6
96781.3
96792.1
96808.9
96819.2
96841.5
96859.7
96868.5
96885.1
96898.6
96909.3
96922.1
96938.5
96959.2
96982
97004.4
97026.3
97046.8
97070.2
97086.4
97104.6
97123.6
97140.2
97157.6
97168.7
97196.9
97219.7
97213.5
97211.1
97211.2
97211
97208.8
97206.2
97203.2
97200.1
97197.9
97195.7
97192.7
97188
97179.2
97173.1
97166.7
97164.6
97165
97164.8
97164.3
97167.8
97180
97180.7
97169.8
97172.1
97181.1
97182.8
97194.6
97203
97206.9
97222.5
97248.3
97270.3
97289.1
97300.7
97309.2
97324.1
97346.9
97367.7
97387.7
97409.7
97432
97456.1
97478.9
97502.1
97525.4
97548.6
97571.2
97593.3
97615.4
97638.2
97660.5
97682.7
97703.8
97724.4
97744.8
97764.6
97783.5
97799.8
97809.8
97818.7
97829
97838.7
97846.5
97853.2
97856.4
97861.3
97865.4
97871.8
97877.9
97880.9
97878
97872.4
97866.2
97858
97851
97841.6
97833.5
97829.3
97822.1
97811.1
97806.3
97799.6
97785.8
97768.6
97751.3
97722.9
97721.4
97710.7
97693.7
97672.4
97652.4
97630.8
97617.5
97601.3
97583.6
97561
97546.4
97526.7
97509.5
97491
97458.6
97439.7
97420.2
97395.1
97375.9
97358.4
97333.4
97307
97292.2
97277.2
97257.7
97233.8
97207.7
97184.7
97166.8
97147.1
97128.4
97106.4
97085.7
97071.2
97054.6
97038.6
97029.4
97019.9
97010
96998.7
96985.7
96976.2
96971.9
96967.7
96967.2
96968.5
96975.8
96985.1
96995.9
97004.1
97020.9
97042.5
97060.4
97077
97099.3
97121.9
97145.7
97172.1
97199
97224.4
97249.7
97272.7
97303.1
97335.8
97367.3
97397.8
97429.7
97466.5
97505.1
97518.4
97540.5
97567.3
97595.9
97624.7
97658.6
97674.4
97684.3
97710.9
97734.5
97761.8
97786.9
97813.1
97841
97866.1
97892.1
97917.2
97942.5
97964.5
97987.8
98012.7
98037.8
98063.1
98088.3
98114.2
98140
98165.8
98191.3
98216.4
98241.7
98266.3
98291
98315.6
98340.2
98364.9
98389.2
98413.4
98436.9
98460.7
98484.9
98509.1
98533.1
98557.2
98581.5
98605.9
98629.8
98653.1
98676.4
98699.9
98723.6
98747.6
98771.8
98796.2
98820.9
98845.3
98869.1
98892.9
98916.9
98941.5
98966.6
98991.9
99017.4
99043.5
99069.7
99095.7
99121.4
99147
99173.1
99200
99227.1
99254.5
99282.2
99310.1
99338.1
99365.7
99393.4
99421.3
99449.6
99478.2
99507.1
99536.1
99565.4
99594.5
99623.4
99652.2
99681.2
99710.5
99739.9
99769.4
99798.9
99828.7
99858.3
99887.3
99916.1
99944.7
99973.5
100002
100031
100059
100087
100116
100144
100172
100199
100224
100250
100277
100303
100328
100353
100378
100403
100427
100451
100474
100496
100518
100539
100561
100582
100602
100622
100641
100661
100679
100697
100714
100730
100746
100762
100778
100793
100808
100822
100836
100849
100862
100874
100886
100898
100909
100921
100932
100943
100953
100963
100972
100981
100990
100999
101008
101016
101025
101033
101040
101048
101055
101062
101069
101077
101084
101090
101097
101103
101110
101117
101123
101130
101136
101142
101148
101154
101160
101167
101173
101179
101184
101190
101196
101202
101208
101213
101219
101225
101230
101236
101241
101246
101252
101257
101262
101267
101271
101276
101281
101285
101289
101293
101297
101301
101305
101309
101312
101315
101318
101321
101323
101326
101328
101330
101332
101334
101336
101337
101338
101339
101340
101340
101341
101341
101342
101342
101342
101341
101340
101339
101339
101338
101337
101336
101335
101333
101332
101330
101329
101327
101326
96856.2
96860.9
96856.1
96854.4
96852.3
96850.4
96847.3
96844.3
96840.7
96837.3
96833.5
96829.6
96825
96820.7
96816.8
96812.4
96808.2
96803.8
96800
96797.6
96795.3
96793.3
96790.4
96787.8
96786.4
96785.4
96783.4
96780.7
96778.2
96776.9
96774.5
96771.1
96766.5
96763.7
96762.5
96757.2
96751.8
96748.3
96744.5
96740.7
96737.1
96733.9
96730.4
96728.4
96726.9
96724.6
96723
96723.1
96722.7
96723.8
96726.3
96729.3
96733.5
96738.4
96746.6
96752.1
96761.8
96771.2
96776.1
96782.8
96786.1
96800.3
96795.7
96796.1
96795.9
96796
96792.1
96788.6
96784.3
96775.4
96774.9
96776.2
96771.1
96768
96764.1
96760.7
96761.3
96761.9
96767.7
96760.7
96771.6
96779.2
96782.7
96800.9
96813.9
96826.5
96851
96870.1
96894.6
96918.9
96936.2
96954.4
96970.8
96987.4
97003.7
97019.6
97035.3
97050.9
97064.6
97079.6
97090.1
97101.9
97114.2
97123.1
97133.2
97133
97142.9
97157
97160.4
97167.5
97173
97179.8
97183.1
97185.3
97186.2
97186.8
97187.9
97188.9
97188.2
97186.5
97184.3
97179
97171.9
97169
97169.4
97164.9
97157.8
97154.7
97155.8
97158.3
97160.9
97176.2
97187.2
97192.9
97209.5
97231.7
97240
97243.1
97247.6
97263.1
97277.5
97287.1
97304.7
97318.6
97346.6
97368.1
97390.4
97413.6
97435.3
97457.2
97479.6
97502.7
97525.8
97548.6
97571.5
97595.7
97619.4
97642.6
97664.3
97685.7
97705.7
97724.2
97741.7
97758.3
97775.7
97790.1
97803.9
97816.4
97827.6
97838.1
97846.6
97851.7
97855.1
97863
97868.5
97870.9
97871.8
97870.8
97867.2
97863.2
97857.4
97850.2
97842.5
97836.7
97829.5
97830.8
97830.2
97818
97802.6
97791.5
97775.5
97756.3
97744.4
97724.1
97721.2
97706.4
97679.9
97667.8
97651.6
97638.2
97621.4
97602.6
97586.2
97572.5
97544.6
97522.1
97503.4
97483.8
97462.3
97443.1
97420.2
97398.4
97381
97363.3
97346
97312.1
97281.2
97264.8
97246.2
97225.3
97200.3
97175.2
97162.7
97146.8
97126.5
97107.3
97092.3
97080.5
97065.1
97045.5
97023.7
97012.8
97001.2
96987.9
96975.1
96969.3
96963.8
96961.7
96962.9
96965
96968.3
96979.5
96978.6
96990
97000.3
97024.1
97040
97061.5
97086.5
97112.1
97138.1
97167.2
97201.7
97236.3
97265.1
97287.1
97312.5
97340.3
97368.1
97396.4
97425
97451.9
97483.3
97515.3
97537.5
97562
97587.9
97616.1
97653.3
97673.3
97691.1
97717.8
97741.8
97768.7
97794.8
97819.9
97842.3
97863.1
97889.3
97913.2
97938.4
97963.1
97988
98013.5
98039.2
98066.8
98091.9
98117.3
98141.4
98165.9
98190.8
98215.7
98241.1
98265.8
98290.5
98315.1
98339.7
98364
98388.6
98412.3
98436.9
98461
98485.3
98509.5
98533.8
98557.7
98581.3
98604.7
98628.6
98652.3
98676.3
98700
98724.2
98748.2
98772
98795.8
98819.3
98843.7
98868
98892.6
98917.2
98942.1
98967.2
98992.4
99017.5
99042.5
99068
99094.1
99120.5
99146.9
99173.5
99200.4
99227.5
99254.6
99281.7
99309
99336.7
99364.7
99392.9
99421.2
99449.7
99478.3
99507
99535.6
99564.3
99593.4
99622.6
99651.9
99681.2
99710.6
99740
99769.4
99798.7
99827.7
99856.9
99886.3
99915.6
99944.7
99973.6
100002
100031
100059
100087
100115
100142
100170
100198
100224
100251
100277
100303
100329
100354
100378
100402
100426
100450
100473
100496
100518
100540
100561
100582
100603
100622
100641
100660
100678
100696
100714
100730
100747
100763
100779
100794
100808
100822
100835
100849
100862
100874
100887
100899
100910
100921
100932
100942
100952
100962
100972
100981
100990
100999
101008
101016
101024
101032
101040
101047
101055
101062
101069
101076
101083
101090
101097
101103
101110
101116
101123
101129
101135
101142
101148
101154
101160
101166
101172
101178
101184
101190
101196
101202
101208
101213
101219
101225
101230
101236
101241
101246
101251
101256
101262
101266
101271
101276
101280
101285
101289
101293
101297
101301
101305
101309
101312
101315
101318
101321
101324
101326
101329
101331
101332
101334
101335
101337
101338
101339
101340
101341
101341
101341
101341
101341
101341
101341
101341
101340
101339
101338
101337
101336
101335
101333
101332
101331
101329
101328
101326
96859.4
96864.7
96859.7
96857.6
96855
96853.3
96849.8
96847
96842.9
96839
96834.6
96830.1
96825.6
96820.7
96816.5
96811.8
96808.3
96805
96801.7
96798.4
96796.1
96794.7
96792.8
96790.6
96788.6
96787.5
96786.3
96785
96783.2
96780.6
96777.2
96775.3
96772.1
96767.3
96763.5
96759.8
96754
96749.3
96744.9
96739.7
96734.4
96729.5
96724.8
96722.7
96720.9
96718.3
96717.5
96718.4
96718.5
96720.9
96724.4
96728.3
96734
96739.7
96748
96752.3
96760.7
96771.4
96777.1
96782.4
96791.4
96797.7
96796.8
96799.4
96799.5
96799.3
96794.9
96792.8
96787.7
96778
96773.5
96768.6
96767.5
96764
96764.8
96756
96754.6
96761
96768.3
96787.7
96772.1
96778.5
96786.4
96783.5
96808.1
96814.6
96814.4
96826.7
96844
96867.7
96890.6
96914.8
96939.6
96962.8
96984.6
97004.4
97022.4
97039.8
97055.9
97073.6
97088.9
97103.8
97121.8
97141.9
97161.2
97165.9
97167.2
97174.3
97168.2
97169
97169.6
97171
97170
97169.1
97166.7
97164.8
97163.8
97161.2
97158.2
97156.1
97158.6
97159.5
97154.4
97151.4
97154.2
97152.5
97154.7
97154.3
97159.6
97163.7
97174.6
97190.2
97203
97205.6
97191.9
97197.8
97211.7
97220.9
97233.3
97255.4
97274.5
97286.8
97313.7
97334.2
97350.8
97371.7
97388.5
97407.6
97432.5
97456
97479.8
97502.8
97526
97549.1
97571.4
97594.8
97617.2
97641
97663
97686
97707.8
97727.7
97746.6
97764
97780.3
97795.1
97806.6
97817
97825.8
97835.5
97843.3
97850
97852.4
97858.5
97859.3
97862.6
97865.6
97867.6
97868.6
97866.2
97862.4
97852.8
97850.6
97848.5
97839.7
97826.5
97819.8
97810.4
97793.8
97781.9
97774.9
97751
97748.2
97738.9
97723.6
97708
97689.8
97675.9
97664.3
97638.1
97621.1
97600.9
97581.3
97555.6
97545.4
97525.3
97504.3
97483.2
97464.8
97445.5
97426.8
97397.3
97375.6
97354.7
97333.5
97310.1
97281.9
97266
97248.9
97228.3
97207.6
97183.2
97174.1
97160
97142.5
97118.7
97094.4
97072.3
97054.9
97037.2
97019.2
97009.8
96998.6
96986.9
96972.4
96976
96968.5
96961.5
96960
96963.9
96968.7
96978.6
96988.4
96996.2
97006.7
97019.7
97036.7
97055.5
97078.4
97100.9
97124
97149
97176.4
97207.8
97238
97269.6
97300.8
97331.8
97361.9
97395.1
97431
97457.2
97483.2
97512.8
97534.5
97560.1
97585.2
97610.5
97638.2
97670.3
97692.5
97717.2
97740
97765.9
97792.5
97819.2
97842.6
97865
97890.3
97914.8
97941.6
97966
97991.4
98015.2
98038.5
98062.7
98086.5
98113.2
98138.7
98164.9
98191.1
98216.4
98241.6
98266.5
98291.2
98315.5
98339.8
98364.3
98388.9
98413.6
98437.8
98461.7
98485.6
98509.6
98533.5
98557.4
98581.1
98604.8
98628.8
98652.8
98676.8
98700.4
98724.2
98747.8
98771.7
98795.7
98819.5
98843.8
98868.3
98892.9
98917.4
98942.1
98966.8
98991.8
99017.1
99042.6
99068.2
99094.2
99120.4
99146.9
99173.4
99200.1
99226.9
99254
99281.4
99309
99336.7
99364.6
99392.8
99421.1
99449.4
99477.9
99506.5
99535.4
99564.3
99593.3
99622.5
99651.8
99681.1
99710.4
99739.7
99769
99798.4
99827.7
99857
99886.3
99915.5
99944.6
99973.5
100002
100031
100059
100087
100115
100143
100170
100198
100225
100251
100277
100303
100328
100354
100378
100403
100427
100450
100473
100496
100518
100540
100561
100582
100602
100622
100641
100660
100678
100696
100714
100731
100747
100763
100778
100793
100808
100822
100835
100849
100862
100875
100887
100898
100910
100921
100932
100942
100952
100962
100972
100981
100990
100999
101007
101016
101024
101032
101040
101047
101055
101062
101069
101076
101083
101090
101096
101103
101110
101116
101122
101129
101135
101141
101148
101154
101160
101166
101172
101178
101184
101190
101196
101202
101207
101213
101219
101224
101230
101235
101241
101246
101251
101256
101261
101266
101271
101276
101280
101285
101289
101293
101297
101301
101305
101309
101312
101315
101318
101321
101324
101326
101328
101330
101332
101334
101336
101337
101338
101339
101340
101341
101341
101341
101342
101342
101341
101341
101341
101340
101339
101338
101337
101336
101335
101333
101332
101331
101329
101327
101326
96863.6
96868.3
96863.9
96862.2
96859
96857.1
96853.6
96850.3
96846
96842.4
96838.3
96834.1
96829.6
96824.7
96819.9
96814.6
96810
96805.9
96802.8
96799.6
96797
96795.3
96793.7
96791.9
96790.3
96789.4
96788.6
96787.7
96786.9
96785.6
96783.2
96780.3
96777.1
96773
96768
96764.5
96758.8
96754.6
96750.5
96745.5
96739.9
96733.8
96727.1
96723.7
96720.4
96715.8
96713.6
96713.1
96711.3
96713
96716.2
96720.9
96725.5
96731.1
96739
96749.6
96757.4
96763.8
96770.6
96778
96784.7
96790.4
96792.8
96796.5
96794.3
96797.6
96793.3
96786.5
96781.4
96771
96762.7
96767.9
96761.9
96768.4
96761.6
96757.5
96762.4
96770.9
96780.5
96774.1
96777
96787.1
96791.5
96826.7
96831.2
96827.6
96848.1
96859.6
96870.9
96885.9
96900.9
96916.3
96934.2
96952.4
96971.4
96989.8
97007
97023.1
97036.8
97050.6
97061.8
97070.8
97079.6
97091.4
97108.5
97122.2
97136.5
97148.4
97152.2
97157.8
97162.4
97165.9
97166.5
97166.8
97164.7
97164
97163.7
97161.6
97157.6
97153
97151
97148.3
97142.6
97142.8
97143
97145.7
97148.8
97150.5
97156
97158.6
97160.9
97166.2
97172.4
97179.4
97186.1
97202.9
97220.3
97241.8
97260.3
97281
97295.5
97303.3
97308.3
97329.7
97345.8
97365.3
97388.6
97406.8
97435.4
97459
97481.7
97504.8
97528.1
97551
97574
97598
97620.8
97642.7
97661.9
97679.5
97699.5
97720.6
97740.7
97758.7
97775.7
97791.5
97805.4
97817.1
97826.4
97835.3
97844.5
97847.3
97852.2
97857.7
97861.7
97867.1
97871.6
97873.5
97872.2
97867.9
97860.2
97856.5
97838.3
97831
97826.5
97817.7
97813
97810.8
97801
97788.1
97789.7
97779.7
97757.1
97737
97723.2
97705.4
97683.7
97669.6
97652.3
97630.2
97613.1
97595.9
97577.3
97556.1
97542.8
97527.6
97508.2
97485.4
97462.4
97444.9
97423.9
97400.5
97384.4
97360.7
97338.8
97315.6
97294.7
97276.3
97258.7
97235.5
97217.2
97191.5
97165.2
97147.6
97128.2
97105.7
97086.1
97071.8
97055
97039
97025.8
97019.4
97007.8
96992.2
96976.1
96965.6
96959.2
96955.7
96956.3
96956.1
96956.2
96958.4
96978.8
96987.1
97001.5
97019.6
97037.9
97059.8
97084.7
97112.9
97143.3
97167.6
97189.7
97214.5
97241.8
97271
97300
97329.4
97358.8
97385.9
97417.6
97449
97479.8
97509.3
97531.3
97557.6
97583.5
97611.5
97639.5
97665.6
97688.3
97713.7
97737.4
97762.4
97787.6
97814.4
97842.1
97866.5
97891.8
97914.9
97937.7
97961.9
97987.3
98013.1
98036.6
98063.2
98089.2
98116.2
98142.4
98168.1
98192.3
98216.7
98241.7
98266.3
98291
98315.7
98340.6
98365
98389.5
98413.5
98437.6
98461.7
98485.8
98509.8
98533.6
98557.6
98581.7
98605.6
98629.3
98652.8
98676.3
98700
98723.7
98747.5
98771.5
98795.8
98820
98844.1
98868.2
98892.4
98916.9
98941.5
98966.4
98991.5
99017
99042.7
99068.5
99094.2
99120.2
99146.4
99172.8
99199.5
99226.5
99253.7
99281.2
99308.8
99336.6
99364.4
99392.3
99420.5
99448.9
99477.5
99506.2
99535.1
99564.2
99593.2
99622.2
99651.4
99680.6
99709.9
99739.3
99768.7
99798.2
99827.7
99857
99886.1
99915.2
99944.2
99973
100002
100030
100059
100087
100115
100143
100171
100198
100224
100251
100277
100303
100328
100354
100378
100403
100427
100451
100474
100496
100518
100540
100561
100582
100602
100622
100642
100660
100679
100697
100714
100731
100747
100763
100778
100793
100808
100822
100836
100849
100862
100874
100887
100898
100910
100921
100932
100942
100952
100962
100972
100981
100990
100999
101007
101016
101024
101032
101039
101047
101054
101062
101069
101076
101083
101089
101096
101103
101109
101116
101122
101129
101135
101141
101147
101153
101160
101166
101172
101178
101184
101190
101196
101201
101207
101213
101219
101224
101230
101235
101241
101246
101251
101256
101261
101266
101271
101276
101280
101285
101289
101293
101297
101301
101305
101309
101312
101315
101318
101321
101324
101326
101328
101331
101333
101334
101336
101337
101338
101339
101340
101341
101341
101342
101342
101342
101342
101341
101340
101340
101339
101338
101337
101336
101335
101333
101332
101330
101329
101327
101326
96869.4
96871.9
96868.3
96866.3
96863.6
96861.1
96856.9
96853.9
96848.6
96844.1
96839.1
96834.1
96829.2
96824.2
96819.5
96814.8
96810.5
96806.2
96802.6
96799.5
96797.2
96795.5
96794.4
96793.1
96791.9
96791.2
96790.4
96789.6
96789.1
96788.7
96787.1
96783.8
96782
96776.8
96772.3
96769.4
96763.1
96757.8
96752.9
96747.6
96742
96735.6
96729.1
96726
96721
96715.1
96712.6
96711.3
96708.3
96709.8
96711.9
96715.6
96722.5
96729.1
96738.9
96747.5
96755.3
96762.7
96772.8
96780.6
96788.4
96794.6
96800.7
96803.7
96805.4
96802.3
96797.6
96794.1
96787.6
96780.8
96781.1
96771.8
96763.7
96752.3
96773.3
96754.3
96746.8
96752.7
96756
96767.8
96754.3
96768.7
96775.4
96775.9
96799
96807.4
96819.9
96840.1
96861.5
96881.8
96901
96921.1
96939.6
96956.7
96973.4
96990.1
97006.8
97024.5
97041
97057.8
97079
97097.2
97107.3
97111.9
97116.8
97121.3
97127.2
97134.3
97135.5
97137.6
97139.7
97140.9
97140.3
97139.8
97136.5
97135.6
97134.9
97134.1
97133.2
97132.5
97131.8
97129.6
97127.1
97127.3
97127.3
97128.7
97130.4
97133.2
97139.1
97143
97151.3
97162.9
97174.4
97187.8
97202.8
97219.7
97229.6
97244.2
97256.3
97265
97275.9
97292.5
97307.8
97327.8
97350.2
97375.5
97393.1
97418.5
97437
97460.8
97483.6
97506.5
97529.7
97553
97575.8
97599.7
97622.5
97646.1
97668.2
97688.8
97706.8
97724.2
97742.3
97758.6
97771.9
97783.4
97796.1
97809
97818.8
97829.1
97838.7
97843.6
97851.2
97855.5
97858.9
97863.3
97866
97864.3
97862.8
97852.3
97852.6
97846.3
97839.9
97837.5
97840.2
97841
97836.6
97831.5
97815.4
97790.3
97770.1
97757.2
97740.7
97721.4
97705.3
97692.9
97678.8
97666.2
97652.6
97638.3
97625.2
97608.5
97587.7
97562
97543.6
97524.5
97505.7
97481.7
97462.4
97444.6
97420.3
97406.9
97384.2
97362.3
97342.6
97319.5
97298.6
97278.3
97251.7
97223.9
97208
97185.2
97166.4
97150.2
97131.1
97111.9
97094
97081.4
97065.8
97045.6
97029.2
97010.3
96995.3
96985.4
96972.4
96963
96959.7
96955.3
96953.4
96955.1
96955.1
96968.2
96977.1
96982.8
96992.7
97007.2
97025
97043.7
97062.2
97089.4
97118.2
97145.8
97177
97207.1
97238.1
97270
97300.9
97334.1
97368.9
97396.9
97421.3
97450.9
97480.5
97509
97532.4
97558.6
97582.2
97609
97637.1
97664.8
97688
97712.4
97736.6
97761.7
97787.3
97812.8
97838.7
97863.5
97889.1
97913.9
97938.2
97962.8
97988.1
98015.3
98041.6
98065.9
98087.7
98112.9
98137
98164.8
98190
98215.2
98240.6
98266.5
98291.5
98316.3
98340.8
98365.1
98389.6
98414.1
98438.3
98462.3
98486.3
98510.4
98534.4
98558.2
98581.8
98605.5
98629.2
98653
98676.7
98700.4
98724.2
98748
98771.8
98795.6
98819.6
98843.7
98868.1
98892.5
98917.1
98941.7
98966.6
98991.5
99016.8
99042.1
99067.7
99093.6
99119.9
99146.2
99172.8
99199.4
99226.3
99253.4
99280.7