/*--------------------------------*- C++ -*----------------------------------*\
| =========                 |                                                 |
| \\      /  F ield         | OpenFOAM: The Open Source CFD Toolbox           |
|  \\    /   O peration     | Version:  v1812                                 |
|   \\  /    A nd           | Web:      www.OpenFOAM.com                      |
|    \\/     M anipulation  |                                                 |
\*---------------------------------------------------------------------------*/
FoamFile
{
    version     2.0;
    format      ascii;
    class       surfaceScalarField;
    location    "0.8";
    object      phi;
}
// * * * * * * * * * * * * * * * * * * * * * * * * * * * * * * * * * * * * * //

dimensions      [1 0 -1 0 0 0 0];
oriented        oriented;


internalField   nonuniform List<scalar> 
40240
(
0.000191765
-0.000179811
0.000413461
-0.000204183
0.000538712
-0.000115667
0.000644178
-9.4085e-05
0.0007581
-9.96987e-05
0.00087235
-0.000104845
0.000977047
-9.86705e-05
0.00104436
-6.74405e-05
0.00107295
-3.09448e-05
0.00108695
-2.02639e-05
0.0010751
1.79894e-06
0.00104269
1.7587e-05
0.00100935
1.35364e-05
0.00100101
-1.65794e-05
0.000989273
-1.53178e-05
0.00096359
-3.93334e-06
0.000942171
-1.54822e-05
0.000939161
-4.07959e-05
0.000961448
-7.44784e-05
0.00100989
-0.000101926
0.0010834
-0.000130995
0.00118988
-0.000171159
0.00131547
-0.000200103
0.00145039
-0.000216544
0.00160022
-0.000233781
0.00176575
-0.000252359
0.00194093
-0.000271111
0.00212115
-0.000289248
0.00230184
-0.000294267
0.00247121
-0.000280045
0.00260483
-0.000243234
0.00270138
-0.000217851
0.00273934
-0.000172171
0.00275044
-0.0001484
0.00272581
-0.000102864
0.00264114
-4.78657e-05
0.00246966
3.26638e-05
0.00222601
0.000101428
0.00193181
0.000151962
0.00159508
0.000185366
0.00122498
0.000212733
0.000831505
0.000234001
0.000409717
0.000262847
-3.0647e-05
0.000281816
-0.000452681
0.000263557
-0.000849545
0.000238388
-0.00122923
0.000221608
-0.00158296
0.000196268
-0.00192463
0.000184995
-0.00225047
0.000170302
-0.00254723
0.000143979
-0.0028189
0.000124582
-0.00307231
0.000116335
-0.00327054
5.83973e-05
-0.00344194
3.06739e-05
-0.00359322
8.30177e-06
-0.00361263
-0.00011135
-0.00359967
-0.000136095
-0.00374501
2.76499e-05
-0.00395613
9.91273e-05
-0.00407173
1.05545e-05
-0.00414639
-2.281e-05
-0.0041967
-4.07056e-05
-0.00431776
3.63199e-05
-0.00461075
0.000214713
-0.00506086
0.000377377
-0.00577003
0.000642145
-0.00672898
0.000897271
-0.00799232
0.00120749
-0.00960786
0.00157017
-0.0113997
0.00175749
-0.0132293
0.00180394
-0.0149941
0.00175286
-0.0166098
0.00161125
-0.0181007
0.00149691
-0.0194309
0.00134406
-0.0205639
0.00115523
-0.0215831
0.00104896
-0.0226201
0.00107596
-0.0237192
0.00115269
-0.024761
0.00109437
-0.0256241
0.000934044
-0.0263712
0.000821711
-0.0268845
0.000578432
-0.0271696
0.000383802
-0.0272954
0.000229186
-0.027268
9.30511e-05
-0.026926
-0.000199746
-0.0264012
-0.000420741
-0.0257256
-0.00056579
-0.0248505
-0.000733313
-0.0237405
-0.000964384
-0.0225041
-0.00106447
-0.0212037
-0.00112317
-0.0198203
-0.00120915
-0.0182979
-0.00133893
-0.0166356
-0.00146312
-0.0148629
-0.00156653
-0.0129331
-0.00172053
-0.010939
-0.00178334
-0.00881945
-0.00190106
-0.0069489
-0.0016455
-0.00498506
-0.00172908
-0.00278948
-0.00195988
-0.000452834
-0.00209553
0.00199803
-0.00220805
0.00416021
-0.00192174
0.0047777
-0.000374375
0.00613134
-0.00110665
0.00820691
-0.00182275
0.0105486
-0.00208384
0.0127241
-0.00191518
0.0145131
-0.00152727
0.0159225
-0.00114651
0.0170092
-0.000823862
0.0178021
-0.000531738
0.0183329
-0.000274359
0.0186246
-4.20828e-05
0.0187123
0.000152783
0.0186488
0.000297936
0.0185659
0.000308698
0.0184452
0.000339201
0.0181433
0.000513536
0.0175416
0.000808363
0.0167829
0.000955414
0.0159572
0.00101352
0.0150444
0.00109291
0.0141791
0.00104093
0.0134988
0.000849779
0.0130683
0.000596056
0.0127305
0.00048988
0.012285
0.000590579
0.0117226
0.000695824
0.0110695
0.000778569
0.0102976
0.000887692
0.00945918
0.000947746
0.00868855
0.000873099
0.00802149
0.000762115
0.00742921
0.000679618
0.00686132
0.000647111
0.00629673
0.00063673
0.00576745
0.000595338
0.00526157
0.000564296
0.00484682
0.000466924
0.00452373
0.000368196
0.00428891
0.000273451
0.0040977
0.000222978
0.00393803
0.000184896
0.0037991
0.000157499
0.00367922
0.000132207
0.00356704
0.00011828
0.0034718
9.54265e-05
0.00340364
6.28301e-05
0.00337831
1.46679e-05
0.00338751
-2.43794e-05
0.00347784
-0.000110216
0.00364503
-0.000191877
0.00385698
-0.000241295
0.00409288
-0.000269583
0.00434697
-0.000291718
0.00459924
-0.000294144
0.00481493
-0.000260933
0.00496641
-0.00020143
0.00505785
-0.000142597
0.00509328
-8.82171e-05
0.00507455
-4.26487e-05
0.00497227
4.40221e-05
0.00482524
8.48346e-05
0.00461255
0.000149487
0.00433539
0.000212525
0.00398736
0.000282506
0.00358263
0.000337981
0.00319613
0.000320339
0.00289837
0.000231344
0.0027429
9.06663e-05
0.00272634
-4.86187e-05
0.00274856
-8.71732e-05
0.0027531
-6.66676e-05
0.00263268
5.86505e-05
0.00228305
0.000289176
0.0017508
0.000473367
0.00117707
0.000516609
0.00070166
0.00041946
0.000357249
0.000289542
0.000133034
0.000171514
-5.89058e-06
8.79657e-05
-0.000109536
5.38358e-05
-0.000195971
4.02886e-05
-0.000231491
-8.99592e-06
-0.000260717
-1.32297e-05
-0.000301814
2.80731e-06
-0.000385944
4.66055e-05
-0.000543225
0.000121765
-0.000843621
0.000267169
-0.00114087
0.000268333
-0.00130389
0.000134729
-0.00141597
8.77592e-05
-0.00139376
-4.55772e-05
-0.0013095
-0.000104485
-0.00125603
-7.10719e-05
-0.00122377
-4.77237e-05
-0.00119634
-4.07803e-05
-0.00113604
-7.14995e-05
-0.00104805
-9.6721e-05
-0.000950701
-0.000104851
-0.00086338
-9.21366e-05
-0.000783529
-8.20839e-05
-0.000728313
-5.59613e-05
-0.00066473
-6.21809e-05
-0.000593723
-6.82231e-05
-0.000574356
-1.48794e-05
-0.000542932
-2.59012e-05
-0.000473491
-6.2185e-05
-0.000429794
-3.51642e-05
-0.000473296
5.33443e-05
-0.000693367
0.000231745
-0.00100457
0.000323472
-0.00135699
0.000365557
-0.00173823
0.000394871
-0.00209566
0.000371996
-0.00236971
0.000290001
-0.00260239
0.000248431
-0.00287973
0.000292624
-0.00319326
0.000330236
-0.00348202
0.000305283
-0.00377049
0.000304909
-0.0041704
0.000416047
-0.00478899
0.000634928
-0.00552321
0.000751395
-0.00624982
0.0007445
-0.0069468
0.000715015
-0.00764033
0.000712172
-0.00831247
0.000692004
-0.00897614
0.000683882
-0.00960602
0.000650657
-0.0102268
0.000641665
-0.0108058
0.000599427
-0.0113866
0.000602483
-0.0119493
0.000584124
-0.0124391
0.00051427
-0.0129052
0.000491176
-0.0133054
0.000426136
-0.0135418
0.000264899
-0.0136738
0.000161957
-0.0136796
4.06315e-05
-0.0136155
-3.1047e-05
-0.0133791
-0.000199803
-0.0128755
-0.000465793
-0.0121898
-0.000646287
-0.0114437
-0.000704294
-0.0106555
-0.000744119
-0.00985984
-0.000749728
-0.00913895
-0.000673467
-0.0084916
-0.000596927
-0.00784746
-0.000590806
-0.00720733
-0.000584629
-0.00657016
-0.000578204
-0.00588522
-0.000622917
-0.00519721
-0.000624068
-0.00457479
-0.000556198
-0.00405355
-0.000453038
-0.00360367
-0.000378681
-0.00311198
-0.000416629
-0.00261424
-0.000419333
-0.00232915
-0.000205913
-0.00216479
-8.08496e-05
-0.00204702
-2.98572e-05
-0.00191273
-4.15018e-05
-0.00172866
-8.59797e-05
-0.00147933
-0.000147053
-0.0013454
-2.57901e-05
-0.00134487
0.000110868
-0.00141134
0.000184129
-0.00146791
0.000178987
-0.00148374
0.00014306
-0.00148165
0.00013172
-0.00147215
0.000128622
-0.00150099
0.000174703
-0.00157311
0.000222473
-0.00167525
0.000258783
-0.00179775
0.000284401
-0.00192509
0.000295532
-0.00203116
0.000280309
-0.00211408
0.000262849
-0.00217663
0.000248585
-0.00222376
0.000238771
-0.002253
0.000226938
-0.00225663
0.000206853
-0.0022443
0.000196536
-0.0022174
0.000187267
-0.00218293
0.000185104
-0.00214608
0.00018805
-0.0021044
0.000188296
-0.00205885
0.000189483
-0.0020064
0.000187347
-0.00194767
0.000185627
-0.00188123
0.000182258
-0.00180385
0.000175525
-0.00171014
0.000163161
-0.00159837
0.000148939
-0.00147166
0.000137514
-0.00133676
0.000132745
-0.00119503
0.000129054
-0.00104848
0.000127121
-0.000897348
0.000125188
-0.000738789
0.000120162
-0.000572665
0.000114731
-0.00040092
0.000110969
-0.000224611
0.000108048
-4.61213e-05
0.00010727
0.000129742
0.000110904
0.000301138
0.000116234
0.000470695
0.000118606
0.000640942
0.000118201
0.000814341
0.000115079
0.000990865
0.000111734
0.00117027
0.000108438
0.00135088
0.000106573
0.00153178
0.000105463
0.00171081
0.000106205
0.00188605
0.000108739
0.00205804
0.000110551
0.00222863
0.000110317
0.00239928
0.000108437
0.00257203
0.000104322
0.00274587
0.000101011
0.00291969
9.86464e-05
0.00309165
9.80032e-05
0.00326225
9.6668e-05
0.00343087
9.58123e-05
0.00359595
9.64093e-05
0.00375881
9.5586e-05
0.00392034
9.37693e-05
0.00408017
9.22634e-05
0.0042368
9.21376e-05
0.0043878
9.45422e-05
0.00453363
9.64688e-05
0.00467572
9.69701e-05
0.00481504
9.65601e-05
0.00495032
9.73619e-05
0.00508164
9.81556e-05
0.00520998
9.79732e-05
0.00533608
9.70651e-05
0.00545866
9.73803e-05
0.00557729
9.81744e-05
0.00569307
9.79006e-05
0.0058078
9.58494e-05
0.00592203
9.32737e-05
0.00603423
9.22543e-05
0.00614486
9.08431e-05
0.00625496
8.84651e-05
0.00636558
8.51154e-05
0.00647679
8.16923e-05
0.00658747
7.95336e-05
0.00669785
7.71925e-05
0.00680899
7.39141e-05
0.00691942
7.21989e-05
0.00702556
7.40322e-05
0.00712518
7.82997e-05
0.00721829
8.26031e-05
0.00730471
8.71794e-05
0.00738547
9.08486e-05
0.00746236
9.2806e-05
0.00753766
9.25907e-05
0.00761483
8.90331e-05
0.00769809
8.13955e-05
0.00779024
7.0987e-05
0.00788322
6.86458e-05
0.00796842
7.51291e-05
0.00804961
7.7904e-05
0.00812897
7.85734e-05
0.00820706
7.87425e-05
0.00828589
7.70095e-05
0.00836684
7.39249e-05
0.00844986
7.09275e-05
0.00853542
6.75216e-05
0.00862713
6.0612e-05
0.00872674
5.19802e-05
0.00882917
4.84042e-05
0.0089289
5.0484e-05
0.00902789
5.06443e-05
0.00912747
4.95254e-05
0.00922664
4.94211e-05
0.00932523
4.95557e-05
0.00942373
4.92317e-05
0.00952081
5.02565e-05
0.0096154
5.24059e-05
0.0097122
4.99671e-05
0.00981386
4.48819e-05
0.0099175
4.26617e-05
0.0100184
4.51805e-05
0.0101174
4.68622e-05
0.0102153
4.78241e-05
0.0103132
4.74695e-05
0.010412
4.64553e-05
0.0105115
4.53738e-05
0.0106107
4.53518e-05
0.0107102
4.46121e-05
0.0108134
4.04353e-05
0.0109206
3.61098e-05
0.011029
3.41991e-05
0.0111366
3.43806e-05
0.0112445
3.34572e-05
0.0113535
3.15494e-05
0.0114633
2.999e-05
0.0115721
3.00145e-05
0.011679
3.10338e-05
0.0117849
3.09759e-05
0.011891
2.96395e-05
0.0119974
2.81515e-05
0.0121036
2.71129e-05
0.0122086
2.68978e-05
0.0123132
2.59954e-05
0.0124164
2.57703e-05
0.0125168
2.69737e-05
0.0126141
2.84184e-05
0.0127097
2.84256e-05
0.0128045
2.73874e-05
0.0128981
2.65988e-05
0.0129899
2.65251e-05
0.0130801
2.60898e-05
0.0131681
2.6077e-05
0.0132529
2.70635e-05
0.0133345
2.79514e-05
0.0134143
2.74187e-05
0.0134931
2.5974e-05
0.0135705
2.48692e-05
0.0136461
2.40988e-05
0.0137193
2.3816e-05
0.0137893
2.42592e-05
0.0138562
2.471e-05
0.0139205
2.44931e-05
0.0139823
2.41277e-05
0.0140414
2.3979e-05
0.0140976
2.40201e-05
0.0141503
2.4608e-05
0.014199
2.56606e-05
0.014244
2.65999e-05
0.0142859
2.67767e-05
0.0143254
2.62974e-05
0.0143628
2.5642e-05
0.0143978
2.50918e-05
0.0144304
2.47001e-05
0.0144607
2.41609e-05
0.0144892
2.31143e-05
0.0145161
2.19468e-05
0.0145409
2.11706e-05
0.0145637
2.04068e-05
0.0145849
1.92721e-05
0.0146038
1.88892e-05
0.0146192
1.97244e-05
0.0146312
2.0584e-05
0.0146404
2.08351e-05
0.0146471
2.0801e-05
0.0146523
1.99504e-05
0.0146561
1.90062e-05
0.0146584
1.84322e-05
0.0146584
1.80021e-05
0.014657
1.76994e-05
0.0146541
1.70476e-05
0.014651
1.51959e-05
0.0146478
1.33415e-05
0.014644
1.2054e-05
0.0146392
1.12612e-05
0.0146339
1.00544e-05
0.0146273
9.82089e-06
0.014618
1.10358e-05
0.0146074
1.10656e-05
0.0145957
1.09185e-05
0.0145852
8.38885e-06
0.0145741
7.91358e-06
0.0145592
1.04236e-05
0.0145428
1.10552e-05
0.014527
9.4383e-06
0.0145121
7.81301e-06
0.0144951
9.04537e-06
0.0144779
8.76821e-06
0.0144626
6.34633e-06
0.0144516
1.58356e-06
0.0144413
5.68178e-07
0.0144281
3.01352e-06
0.0144133
4.60624e-06
0.0143993
3.81059e-06
0.0143861
3.00882e-06
0.0143707
5.34037e-06
0.0143556
5.33511e-06
0.0143427
3.52148e-06
0.0143347
-1.02525e-06
0.0143269
-9.11752e-07
0.0143178
8.28237e-07
0.0143089
1.22795e-06
0.0143023
-4.66746e-07
0.0142947
1.12588e-06
0.014287
1.94718e-06
0.0142817
4.34704e-07
0.0142791
-1.30307e-06
0.0142771
-1.12145e-06
0.0142767
-1.71066e-06
0.0142777
-2.44334e-06
-2.95484e-06
0.000228242
-0.000396956
0.000388415
-0.00035522
0.000508541
-0.000231656
0.000621188
-0.000206048
0.000734566
-0.000214165
0.000851163
-0.000217191
0.000956606
-0.000201965
0.00105904
-0.000167749
0.00117876
-0.000151933
0.00122298
-6.89711e-05
0.00123702
-2.12563e-05
0.00123259
8.44576e-06
0.00120166
2.55135e-05
0.00113181
3.01985e-05
0.00107085
1.99343e-05
0.0011273
-9.11335e-05
0.00122586
-0.000154252
0.00133078
-0.00019157
0.00144827
-0.000242465
0.00157162
-0.000277784
0.00170718
-0.000325127
0.00186812
-0.000398682
0.00205116
-0.00045846
0.00225353
-0.000500108
0.0024781
-0.000541979
0.0027229
-0.000585146
0.00297996
-0.000625785
0.00324344
-0.000660747
0.00350951
-0.000672351
0.00376054
-0.000639475
0.00397265
-0.000568912
0.00413497
-0.00050611
0.00424819
-0.000415624
0.00429961
-0.000325717
0.00429422
-0.000228415
0.00420813
-0.000100338
0.00403529
5.95504e-05
0.00379386
0.000195431
0.00349185
0.000298921
0.00314077
0.000395204
0.00273854
0.000466329
0.0022739
0.000542635
0.00174562
0.000630577
0.00117864
0.000688114
0.000605227
0.000677905
3.7087e-05
0.00064816
-0.000514895
0.00061556
-0.0010287
0.000552739
-0.00150673
0.000506632
-0.0019485
0.000456854
-0.00235373
0.000395082
-0.00272751
0.000347737
-0.00304946
0.000294477
-0.00327147
0.000150857
-0.00347507
0.000103632
-0.00372216
0.000126078
-0.00437228
0.000408465
-0.0053537
0.000727815
-0.0063889
0.00094648
-0.00752388
0.00112275
-0.00872439
0.00110727
-0.00994708
0.00110544
-0.0111286
0.00105447
-0.0123739
0.00120128
-0.0137581
0.00152118
-0.0152613
0.00180727
-0.0169981
0.00231498
-0.0189641
0.00281372
-0.0211856
0.00339467
-0.0236828
0.0040318
-0.0262891
0.00430959
-0.0288138
0.00426686
-0.0311562
0.0040535
-0.03335
0.00380165
-0.0354176
0.00356488
-0.0372725
0.00320927
-0.0387677
0.002672
-0.0398826
0.00219442
-0.0406461
0.00187713
-0.041081
0.00162194
-0.0410829
0.00115869
-0.0410197
0.000926622
-0.0407761
0.000664141
-0.0403456
0.000163779
-0.0396715
-0.000150763
-0.0388015
-0.000647503
-0.0379423
-0.000744485
-0.0367131
-0.000959008
-0.0350535
-0.00195073
-0.0334634
-0.0022447
-0.0314839
-0.00259708
-0.0291669
-0.00306922
-0.0267167
-0.00336466
-0.0242078
-0.00350472
-0.0217856
-0.00347621
-0.0195792
-0.00337353
-0.0175334
-0.00333611
-0.0155333
-0.00338817
-0.0134904
-0.0035754
-0.0112341
-0.00383697
-0.00837635
-0.0045521
-0.0048331
-0.00498882
-0.00120481
-0.00515289
0.00221321
-0.00516846
0.00548757
-0.00515699
0.00933327
-0.00583881
0.0135311
-0.00590682
0.017536
-0.0041641
0.0211163
-0.00446761
0.0245581
-0.00503973
0.0279068
-0.00520645
0.0311283
-0.0049081
0.0341287
-0.00429549
0.0369341
-0.00371541
0.0395625
-0.00320894
0.0419773
-0.00269365
0.0440394
-0.00207148
0.0454997
-0.00123095
0.0461459
-0.000226809
0.0462129
0.000478367
0.0459452
0.000818052
0.0452544
0.0012665
0.0442268
0.00177157
0.0430323
0.00222949
0.0417983
0.00240684
0.0406204
0.00239715
0.0394472
0.00245796
0.0381618
0.00250766
0.0366796
0.00250557
0.0350803
0.00236423
0.0335276
0.00220521
0.0319549
0.00231657
0.030214
0.00257854
0.0284429
0.00268239
0.0268053
0.0026473
0.0254454
0.00242434
0.0244138
0.00201363
0.0234979
0.00177398
0.0225317
0.00173314
0.0215437
0.00171398
0.0206284
0.00162241
0.0198059
0.00148181
0.0191019
0.00132387
0.0185782
0.00104025
0.018221
0.000767705
0.0179734
0.000557068
0.0177906
0.000435509
0.0176785
0.000320938
0.0176285
0.000225256
0.0176285
0.000144432
0.0176649
8.79787e-05
0.0177573
3.60795e-06
0.0179083
-9.2882e-05
0.0181236
-0.000210364
0.0183983
-0.000313033
0.018703
-0.000432903
0.0190012
-0.000511575
0.0192771
-0.000542099
0.0195375
-0.000557803
0.0198039
-0.000588685
0.0200808
-0.000604649
0.0203357
-0.000552145
0.0205277
-0.000435288
0.0206306
-0.000289471
0.0206402
-0.000148019
0.0205234
2.21239e-05
0.0202308
0.000281313
0.0198266
0.000431811
0.0193269
0.000589553
0.0187556
0.000722415
0.0181248
0.000850709
0.0174541
0.000944194
0.0167702
0.000940313
0.0161262
0.000810557
0.0155796
0.000572844
0.015138
0.000329526
0.0147515
0.000234365
0.0143211
0.000300001
0.0137937
0.000523102
0.0131513
0.000869645
0.0124349
0.00113014
0.0116828
0.00121088
0.0109598
0.00108595
0.010328
0.000866586
0.00984346
0.000603342
0.00950953
0.000370791
0.0092637
0.000250419
0.00906599
0.000191991
0.00893407
7.91587e-05
0.00881561
6.31943e-05
0.00866639
0.000107967
0.008503
0.000172727
0.00833058
0.000259855
0.00807561
0.00049049
0.00794214
0.000373778
0.00785132
0.000200079
0.00773986
0.000175199
0.00774985
-7.80141e-05
0.00779106
-0.000165352
0.00783468
-0.000132377
0.00788151
-0.000110104
0.00792099
-9.36435e-05
0.0079724
-0.000134478
0.0079984
-0.00013129
0.00805614
-0.000170007
0.00810247
-0.000143591
0.00813409
-0.000116432
0.00813913
-6.2825e-05
0.00805835
1.95676e-05
0.0079441
4.8761e-05
0.00777002
0.000162959
0.00753798
0.000213797
0.00728203
0.000200851
0.00692365
0.00033134
0.00635987
0.000626317
0.00552007
0.00108186
0.00453378
0.00132095
0.00352613
0.00138525
0.00256986
0.00136349
0.00170034
0.00125459
0.000958612
0.00104573
0.000340492
0.000881068
-0.00025029
0.000897447
-0.000866418
0.000961466
-0.00148721
0.000941235
-0.00212582
0.000958755
-0.00283719
0.00114242
-0.00368143
0.0014938
-0.00459502
0.00167988
-0.00549837
0.00166269
-0.00635615
0.00158692
-0.00717993
0.00154922
-0.00794623
0.00147124
-0.00865006
0.00139977
-0.00927298
0.00128621
-0.00981626
0.00119782
-0.0102529
0.00105037
-0.0106041
0.000970156
-0.0108157
0.000810431
-0.0109106
0.000626485
-0.0109133
0.000513035
-0.0108633
0.000395026
-0.0106662
8.89285e-05
-0.0103163
-0.000166074
-0.00984893
-0.000401547
-0.00928118
-0.000573211
-0.00857375
-0.000878621
-0.0076641
-0.0013448
-0.0065489
-0.00172827
-0.00526942
-0.00194746
-0.00380624
-0.00216727
-0.00213098
-0.00238141
-0.000282711
-0.00247464
0.00171128
-0.00253893
0.00385138
-0.00267448
0.00596261
-0.00263605
0.00771263
-0.00226742
0.00898017
-0.00182669
0.00992147
-0.00149754
0.0106936
-0.00125691
0.0113501
-0.00103538
0.0119002
-0.000851937
0.0124473
-0.000880572
0.0131982
-0.00108302
0.0139681
-0.00088911
0.0146751
-0.000697052
0.0153157
-0.000576188
0.0159376
-0.000563749
0.0165524
-0.00059705
0.0170639
-0.000549244
0.0172613
-0.000110166
0.0172787
0.000208565
0.017229
0.000354008
0.0171497
0.000382818
0.0170869
0.000335722
0.0170732
0.000281238
0.017081
0.000260691
0.017081
0.000321325
0.0170505
0.00040398
0.0169604
0.000505998
0.0168073
0.000599532
0.0166065
0.000664634
0.0164142
0.00064706
0.0162709
0.000586047
0.0161741
0.000531457
0.0161103
0.000494089
0.0160701
0.000464902
0.0160587
0.000421335
0.0160617
0.000402388
0.0160983
0.0003647
0.016155
0.000347536
0.016221
0.000346488
0.0162971
0.000341857
0.0163794
0.000341849
0.0164695
0.000336659
0.0165675
0.000331666
0.0166748
0.0003234
0.0167935
0.00030954
0.0169274
0.000285915
0.0170791
0.000257727
0.0172441
0.000236574
0.0174258
0.00021855
0.0176253
0.000200165
0.0178386
0.000187333
0.0180625
0.000177501
0.018299
0.000162408
0.0185529
0.00014176
0.0188159
0.000130765
0.0190769
0.000131497
0.0193267
0.000143176
0.0195659
0.000158568
0.0198012
0.000168586
0.0200387
0.000169401
0.0202818
0.000163781
0.0205356
0.000150043
0.0208045
0.000131514
0.0210806
0.000120549
0.0213513
0.000123338
0.0216079
0.000135421
0.021851
0.000148624
0.0220884
0.000155513
0.0223257
0.000156055
0.0225681
0.000149159
0.0228184
0.000137572
0.0230791
0.000121203
0.0233512
0.000104365
0.0236244
9.83951e-05
0.0238867
0.00010604
0.0241345
0.000116579
0.0243683
0.00012679
0.0245955
0.000131168
0.0248229
0.000127036
0.0250555
0.000116961
0.0252942
0.000106213
0.0255394
9.64337e-05
0.0257824
9.77356e-05
0.0260155
0.000106119
0.0262343
0.000117706
0.0264383
0.000128934
0.0266332
0.000135538
0.0268253
0.000135976
0.0270185
0.000131593
0.0272158
0.000123456
0.0274186
0.000115175
0.0276205
0.00011363
0.0278145
0.000118066
0.0279976
0.000123756
0.02817
0.00012884
0.0283372
0.000130028
0.0285044
0.000125595
0.0286746
0.000117465
0.0288501
0.000105891
0.0290347
9.08415e-05
0.0292246
8.04528e-05
0.0294117
7.8246e-05
0.0295893
8.18959e-05
0.0297536
9.08543e-05
0.0299069
0.000101446
0.0300528
0.000110694
0.0301942
0.000117372
0.0303304
0.000125093
0.030462
0.000131329
0.0305951
0.000130051
0.0307306
0.000125672
0.0308674
0.000118968
0.0310033
0.000110671
0.0311354
0.000102487
0.0312539
0.00011229
0.0313615
0.000128201
0.031467
0.000131978
0.0315762
0.000127805
0.0316897
0.000122571
0.031808
0.000115155
0.0319349
0.000102618
0.0320699
9.05399e-05
0.0322094
8.18175e-05
0.0323512
7.17322e-05
0.0324921
6.32129e-05
0.0326254
6.64428e-05
0.0327526
7.40959e-05
0.0328778
7.55344e-05
0.0330044
7.25001e-05
0.0331329
7.00428e-05
0.0332641
6.70742e-05
0.0333993
6.24e-05
0.0335386
5.90789e-05
0.0336768
6.18971e-05
0.0338122
6.19058e-05
0.0339429
6.12828e-05
0.0340647
6.77248e-05
0.0341794
7.70034e-05
0.0342915
8.11529e-05
0.0344043
8.11938e-05
0.0345213
7.64018e-05
0.0346452
6.84116e-05
0.0347757
6.03933e-05
0.0349106
5.56186e-05
0.035046
5.38552e-05
0.0351799
5.07911e-05
0.035308
5.16567e-05
0.0354296
5.56524e-05
0.0355474
5.90664e-05
0.0356649
5.77145e-05
0.0357871
5.04634e-05
0.0359176
3.97478e-05
0.0360557
3.13578e-05
0.0361971
2.80248e-05
0.0363365
2.89753e-05
0.0364701
3.21293e-05
0.0365967
3.64903e-05
0.0367171
4.04177e-05
0.0368347
4.16745e-05
0.0369543
3.72956e-05
0.0370785
3.10451e-05
0.0372066
2.67333e-05
0.0373332
2.7911e-05
0.0374541
3.18972e-05
0.0375668
3.71631e-05
0.0376727
4.12847e-05
0.0377752
4.26939e-05
0.0378785
3.94029e-05
0.0379851
3.3917e-05
0.0380944
3.00585e-05
0.038201
3.12797e-05
0.0383009
3.49614e-05
0.0383944
3.75689e-05
0.0384836
3.81331e-05
0.0385714
3.62507e-05
0.0386601
3.23851e-05
0.0387496
2.93119e-05
0.0388367
2.94487e-05
0.0389179
3.21638e-05
0.0389926
3.55444e-05
0.0390621
3.77554e-05
0.0391285
3.8027e-05
0.0391933
3.73324e-05
0.039256
3.75144e-05
0.0393146
3.97405e-05
0.0393677
4.25596e-05
0.0394156
4.43133e-05
0.03946
4.44219e-05
0.0395024
4.30128e-05
0.0395437
4.09072e-05
0.0395835
3.8958e-05
0.0396209
3.7459e-05
0.0396551
3.67349e-05
0.0396858
3.65734e-05
0.0397141
3.55536e-05
0.0397413
3.2701e-05
0.0397679
3.02973e-05
0.0397919
3.09427e-05
0.039812
3.31878e-05
0.0398276
3.53506e-05
0.0398389
3.71263e-05
0.0398473
3.68779e-05
0.0398541
3.51345e-05
0.0398604
3.28577e-05
0.0398651
3.17556e-05
0.039868
3.12181e-05
0.0398686
3.05089e-05
0.0398671
2.89549e-05
0.039864
2.68575e-05
0.0398605
2.40212e-05
0.0398592
1.93485e-05
0.0398605
1.34989e-05
0.0398629
1.07877e-05
0.0398622
1.35433e-05
0.0398547
1.91906e-05
0.0398375
2.73685e-05
0.0398166
2.73212e-05
0.0397953
2.62022e-05
0.0397755
2.60157e-05
0.03976
2.14874e-05
0.0397523
1.11668e-05
0.0397478
5.41653e-06
0.0397407
8.47602e-06
0.0397261
1.50142e-05
0.0397014
2.22208e-05
0.0396752
1.86051e-05
0.0396509
1.52969e-05
0.0396299
1.41811e-05
0.0396145
1.00813e-05
0.0396076
8.33762e-07
0.039605
-4.39996e-06
0.0395999
6.94971e-07
0.0395871
8.5236e-06
0.0395671
1.43718e-05
0.0395473
9.90829e-06
0.0395293
8.72116e-06
0.0395173
4.85836e-06
0.0395152
-3.98226e-06
0.0395172
-9.30262e-06
0.0395198
-7.60718e-06
0.0395193
-3.19334e-06
0.0395124
2.63123e-06
0.0395019
5.46579e-06
0.0394926
5.29199e-06
0.0394884
5.60296e-07
0.0394874
-2.46536e-06
-5.7581e-06
0.000199434
-0.000581494
0.000384036
-0.000521638
0.000587502
-0.000421414
0.000774381
-0.000377728
0.000950141
-0.000377686
0.0011101
-0.000369975
0.00124563
-0.000332101
0.00135949
-0.000279907
0.0014301
-0.000224134
0.00149954
-0.000142917
0.0015676
-9.80618e-05
0.00164055
-7.80568e-05
0.00171836
-7.06382e-05
0.00181151
-8.42453e-05
0.00193011
-0.000120918
0.00206031
-0.000248158
0.00217959
-0.000316534
0.00226127
-0.000343466
0.00237012
-0.000404677
0.00249693
-0.000444123
0.00264339
-0.000518599
0.00280665
-0.000629757
0.00299507
-0.000731682
0.00320779
-0.000796757
0.00344311
-0.000850083
0.00368892
-0.000908551
0.00392576
-0.000967158
0.00415479
-0.00101367
0.00438757
-0.00102015
0.00461219
-0.000945725
0.00477593
-0.000830877
0.00486367
-0.00074201
0.00492007
-0.000652318
0.0049707
-0.000496104
0.00495824
-0.000297247
0.00487709
-0.000168438
0.00476018
2.85181e-05
0.00455549
0.000234554
0.00429141
0.000429799
0.00396859
0.00057526
0.00358372
0.000709497
0.00310922
0.00085511
0.00253974
0.00103485
0.00189636
0.00117142
0.00121519
0.00120045
0.000517561
0.0011866
-0.000171118
0.00114601
-0.000805973
0.00103094
-0.00137519
0.000920411
-0.00187439
0.000801728
-0.00231253
0.000681495
-0.00269856
0.000586484
-0.00304562
0.000489477
-0.00345118
0.000402064
-0.00392113
0.000421177
-0.00446218
0.000528211
-0.00519224
0.00101311
-0.00611493
0.00152941
-0.00738509
0.00209984
-0.00934721
0.00297483
-0.0117287
0.00338574
-0.0141937
0.0034773
-0.0166856
0.00346466
-0.019274
0.00371485
-0.0219541
0.00412857
-0.0246339
0.00441047
-0.0273221
0.0049195
-0.0298626
0.0052869
-0.0321077
0.00561761
-0.0339758
0.00592692
-0.0353821
0.00577325
-0.0364378
0.00535354
-0.0374403
0.00503195
-0.0382752
0.00460499
-0.0391381
0.0044214
-0.0397551
0.00383598
-0.0402267
0.00316213
-0.0405858
0.00257703
-0.0408571
0.00218212
-0.0410408
0.00185139
-0.0411308
0.00130538
-0.0410575
0.00091746
-0.0408379
0.000490293
-0.0403688
-0.000139652
-0.0397348
-0.000752281
-0.0390117
-0.00118907
-0.0378319
-0.00172656
-0.0365829
-0.00245197
-0.0350136
-0.0033504
-0.0326018
-0.00431127
-0.0298768
-0.00517408
-0.0270109
-0.00586097
-0.0239407
-0.00631008
-0.0207763
-0.00651135
-0.0175987
-0.00649883
-0.0143897
-0.00642619
-0.0110869
-0.00647423
-0.00764162
-0.0066613
-0.00399046
-0.00705269
-0.000122105
-0.00751722
0.00374563
-0.00823693
0.00768152
-0.00873901
0.0117268
-0.0090063
0.0158794
-0.0091262
0.0201245
-0.00920526
0.0243146
-0.00983334
0.0284845
-0.0098824
0.0326286
-0.00811408
0.0364033
-0.00805217
0.0395628
-0.00800911
0.0423681
-0.0078193
0.0450768
-0.00742455
0.0477808
-0.00680895
0.0504929
-0.00623668
0.0532076
-0.00572955
0.055839
-0.00512981
0.0582299
-0.00426519
0.0601711
-0.00296872
0.0615667
-0.00141091
0.0624282
-0.000156801
0.0628415
0.000639142
0.0630113
0.00133019
0.0629788
0.00203767
0.0629286
0.0025158
0.0625415
0.00302343
0.0615392
0.00363385
0.0598412
0.00438526
0.0577673
0.00479598
0.0556312
0.00483212
0.0536947
0.00447871
0.0524343
0.00365075
0.0516706
0.00325975
0.0507892
0.00362854
0.0492723
0.00435124
0.0468874
0.00516909
0.0441034
0.00532993
0.0415554
0.00467199
0.039587
0.00384695
0.0381708
0.00324328
0.0370705
0.0028982
0.0361121
0.00265461
0.0352727
0.0023886
0.0345893
0.00206299
0.0340385
0.00164093
0.0335511
0.00129391
0.0331509
0.000990929
0.0328759
0.000736008
0.0327104
0.000505657
0.0326518
0.000296855
0.0326746
0.000129495
0.0327681
-3.62882e-06
0.0329294
-0.000161042
0.0331538
-0.000326423
0.0334554
-0.000526039
0.0339088
-0.000784484
0.03455
-0.00109555
0.0353832
-0.00136866
0.0363333
-0.00151772
0.037261
-0.00151246
0.0380086
-0.00136588
0.0384777
-0.00110626
0.0386937
-0.00080313
0.0387514
-0.000529962
0.0387139
-0.000290335
0.0385881
-6.28585e-05
0.0384155
0.000152832
0.0382084
0.00044419
0.037903
0.000692365
0.037481
0.00096293
0.0369005
0.00125265
0.0361443
0.00155365
0.0352354
0.00179722
0.0342535
0.00186658
0.0332949
0.00171147
0.0323944
0.00141563
0.0315801
0.00108759
0.0308295
0.000925857
0.0300316
0.00103808
0.0291041
0.00138839
0.0279493
0.00196016
0.0265307
0.00248501
0.0250343
0.00264643
0.0237854
0.00227777
0.0228985
0.00169774
0.0223167
0.00113203
0.0218977
0.000736861
0.0214979
0.000597827
0.02105
0.00059068
0.0206692
0.000415127
0.02035
0.000339938
0.0200845
0.000337636
0.0199923
0.000227658
0.0199588
0.000261178
0.0199471
0.000468325
0.0194488
0.000845309
0.0188514
0.000772372
0.0184874
0.000518744
0.018463
-6.99162e-05
0.0186113
-0.00033353
0.0189305
-0.000468845
0.0192489
-0.000444124
0.019504
-0.000362959
0.0197451
-0.000387683
0.0198947
-0.00029274
0.0199159
-0.000202016
0.0198849
-0.000120023
0.0198211
-5.87488e-05
0.0197865
-3.15424e-05
0.0198304
-2.43005e-05
0.0199154
-3.61057e-05
0.0199471
0.000130821
0.0195308
0.000627909
0.0182842
0.00145137
0.0166326
0.0019881
0.0149425
0.00232176
0.0133648
0.00266651
0.0120776
0.00261689
0.0110076
0.00246294
0.010033
0.00234606
0.00915848
0.00213839
0.00847123
0.00174356
0.00796214
0.00140103
0.00748563
0.00138446
0.00693319
0.00152448
0.00622219
0.00166295
0.00522203
0.00196879
0.00383369
0.00254016
0.00218918
0.00314723
0.000563775
0.00331444
-0.000832592
0.0030687
-0.00192841
0.00269275
-0.00280507
0.00243547
-0.00355106
0.00222726
-0.00419833
0.00205675
-0.00475261
0.00185078
-0.00525531
0.00170965
-0.00573809
0.0015428
-0.00622122
0.00146315
-0.00650025
0.00110012
-0.00653414
0.000676321
-0.00625117
0.000241291
-0.00551139
-0.000331614
-0.00443418
-0.000973567
-0.00310992
-0.00147347
-0.00162731
-0.00186532
-0.000202495
-0.00197933
0.000984519
-0.00204571
0.0020378
-0.00237702
0.00314005
-0.00280803
0.00434508
-0.00312831
0.00569569
-0.00349083
0.00725522
-0.00391122
0.00897433
-0.00416133
0.0107538
-0.0042823
0.0126521
-0.0045305
0.0147992
-0.00473626
0.0171336
-0.00455277
0.0195124
-0.00415329
0.0219593
-0.0038875
0.0245162
-0.0037504
0.027147
-0.00359689
0.029646
-0.00327224
0.0312466
-0.00239887
0.031683
-0.00143507
0.0317401
-0.00085959
0.0318414
-0.000700474
0.0320871
-0.00072035
0.0324418
-0.000810628
0.0328087
-0.000850349
0.0332949
-0.000912907
0.0337688
-0.000458624
0.034189
-8.50221e-05
0.0344675
0.000204902
0.0346885
0.00029576
0.0348817
0.000280895
0.0350068
0.000298829
0.03503
0.000382212
0.0349451
0.000557679
0.0347433
0.000760988
0.0344865
0.000923637
0.0342546
0.000997432
0.0340732
0.0010174
0.0339713
0.000926422
0.0339117
0.000827326
0.0338656
0.000764955
0.0338185
0.000733762
0.0337684
0.000713248
0.0337278