/*--------------------------------*- C++ -*----------------------------------*\
| =========                 |                                                 |
| \\      /  F ield         | OpenFOAM: The Open Source CFD Toolbox           |
|  \\    /   O peration     | Version:  v1812                                 |
|   \\  /    A nd           | Web:      www.OpenFOAM.com                      |
|    \\/     M anipulation  |                                                 |
\*---------------------------------------------------------------------------*/
FoamFile
{
    version     2.0;
    format      ascii;
    class       volScalarField;
    location    "0.8";
    object      T;
}
// * * * * * * * * * * * * * * * * * * * * * * * * * * * * * * * * * * * * * //

dimensions      [0 0 0 1 0 0 0];


internalField   nonuniform List<scalar> 
20400
(
288.358
288.334
288.282
288.213
288.136
288.058
287.981
287.914
287.849
287.792
287.745
287.709
287.683
287.666
287.66
287.663
287.674
287.694
287.724
287.759
287.8
287.844
287.89
287.936
287.98
288.02
288.053
288.081
288.105
288.126
288.144
288.164
288.19
288.224
288.267
288.32
288.384
288.458
288.539
288.627
288.721
288.82
288.925
289.036
289.152
289.267
289.371
289.449
289.485
289.47
289.393
289.243
289.015
288.725
288.406
288.096
287.864
287.724
287.675
287.709
287.811
287.961
288.149
288.355
288.564
288.761
288.938
289.098
289.247
289.391
289.527
289.65
289.755
289.845
289.918
289.978
290.029
290.071
290.109
290.145
290.182
290.224
290.268
290.296
290.321
290.37
290.414
290.457
290.491
290.514
290.517
290.504
290.477
290.435
290.397
290.369
290.349
290.334
290.324
290.308
290.284
290.241
290.199
290.157
290.116
290.069
290.012
289.868
289.782
289.717
289.614
289.472
289.301
289.109
288.905
288.694
288.493
288.313
288.159
288.028
287.908
287.804
287.705
287.621
287.551
287.497
287.453
287.422
287.401
287.383
287.38
287.383
287.396
287.418
287.448
287.484
287.525
287.57
287.617
287.664
287.712
287.763
287.812
287.865
287.918
287.973
288.029
288.086
288.144
288.204
288.264
288.325
288.386
288.447
288.508
288.569
288.628
288.685
288.741
288.798
288.856
288.915
288.973
289.028
289.08
289.123
289.163
289.199
289.229
289.256
289.279
289.299
289.317
289.333
289.348
289.363
289.38
289.391
289.402
289.41
289.414
289.417
289.42
289.424
289.431
289.439
289.449
289.459
289.472
289.487
289.503
289.52
289.539
289.555
289.575
289.6
289.62
289.645
289.67
289.69
289.711
289.73
289.748
289.765
289.782
289.797
289.813
289.829
289.846
289.865
289.883
289.901
289.921
289.942
289.963
289.985
290.011
290.035
290.056
290.075
290.095
290.112
290.126
290.137
290.148
290.155
290.159
290.16
290.163
290.165
290.165
290.157
290.146
290.132
290.119
290.105
290.095
290.086
290.079
290.075
290.071
290.066
290.064
290.059
290.057
290.054
290.055
290.058
290.062
290.068
290.078
290.09
290.103
290.117
290.133
290.149
290.165
290.183
290.202
290.221
290.24
290.26
290.283
290.312
290.333
290.357
290.382
290.409
290.437
290.47
290.498
290.527
290.555
290.585
290.616
290.646
290.678
290.707
290.736
290.765
290.793
290.821
290.849
290.877
290.905
290.932
290.959
290.986
291.013
291.04
291.066
291.092
291.118
291.143
291.168
291.192
291.216
291.24
291.264
291.288
291.312
291.336
291.359
291.383
291.405
291.428
291.451
291.473
291.496
291.518
291.54
291.562
291.584
291.606
291.628
291.649
291.671
291.693
291.715
291.737
291.759
291.781
291.803
291.825
291.847
291.87
291.893
291.916
291.939
291.963
291.986
292.01
292.033
292.057
292.082
292.106
292.131
292.155
292.18
292.204
292.229
292.253
292.278
292.303
292.328
292.354
292.379
292.405
292.431
292.456
292.482
292.508
292.533
292.559
292.585
292.611
292.637
292.662
292.687
292.712
292.737
292.762
292.786
292.81
292.834
292.858
292.881
292.905
292.928
292.951
292.973
292.995
293.017
293.039
293.06
293.081
293.102
293.123
293.143
293.163
293.182
293.201
293.22
293.238
293.255
293.272
293.289
293.306
293.322
293.337
293.352
293.367
293.381
293.395
293.408
293.421
293.434
293.446
293.459
293.47
293.482
293.493
293.504
293.515
293.525
293.536
293.546
293.555
293.565
293.574
293.583
293.591
293.6
293.608
293.616
293.624
293.632
293.639
293.647
293.654
293.661
293.669
293.676
293.682
293.689
293.696
293.703
293.709
293.716
293.722
293.728
293.734
293.741
293.747
293.753
293.759
293.765
293.771
293.777
293.783
293.789
293.795
293.801
293.807
293.812
293.818
293.823
293.829
293.834
293.84
293.845
293.85
293.856
293.861
293.866
293.871
293.875
293.88
293.885
293.889
293.894
293.898
293.902
293.906
293.91
293.914
293.917
293.921
293.924
293.927
293.93
293.933
293.935
293.938
293.94
293.942
293.944
293.946
293.948
293.95
293.952
293.953
293.955
293.956
293.957
293.958
293.958
293.959
293.959
293.96
293.96
293.96
293.96
293.96
293.959
293.959
293.958
293.958
293.957
293.955
288.285
288.259
288.204
288.13
288.047
287.965
287.889
287.817
287.76
287.705
287.662
287.627
287.603
287.588
287.583
287.591
287.604
287.627
287.658
287.695
287.738
287.784
287.834
287.886
287.937
287.985
288.029
288.07
288.107
288.141
288.173
288.207
288.245
288.286
288.332
288.385
288.445
288.512
288.584
288.657
288.734
288.813
288.897
288.986
289.079
289.173
289.262
289.334
289.373
289.367
289.306
289.178
288.974
288.706
288.398
288.113
287.875
287.754
287.734
287.805
287.949
288.144
288.374
288.619
288.853
289.062
289.239
289.401
289.555
289.703
289.849
289.988
290.116
290.229
290.327
290.41
290.489
290.567
290.637
290.695
290.765
290.838
290.888
290.989
291.073
291.131
291.179
291.245
291.293
291.29
291.303
291.312
291.303
291.284
291.263
291.245
291.231
291.222
291.214
291.208
291.2
291.195
291.18
291.163
291.147
291.144
291.14
291.095
291.046
291.034
291.005
290.954
290.876
290.775
290.641
290.459
290.215
289.91
289.583
289.301
289.058
288.847
288.638
288.434
288.244
288.078
287.941
287.842
287.767
287.695
287.627
287.557
287.496
287.459
287.459
287.473
287.506
287.546
287.589
287.636
287.687
287.741
287.798
287.86
287.923
287.986
288.047
288.107
288.165
288.223
288.281
288.339
288.398
288.457
288.515
288.569
288.616
288.657
288.692
288.725
288.755
288.786
288.818
288.851
288.886
288.92
288.953
288.985
289.013
289.04
289.065
289.087
289.106
289.123
289.141
289.162
289.19
289.221
289.256
289.29
289.318
289.331
289.336
289.338
289.34
289.345
289.351
289.356
289.362
289.368
289.374
289.382
289.392
289.399
289.408
289.425
289.439
289.459
289.485
289.51
289.537
289.564
289.591
289.619
289.649
289.677
289.705
289.732
289.758
289.787
289.815
289.844
289.879
289.915
289.954
289.995
290.039
290.082
290.123
290.162
290.2
290.239
290.274
290.302
290.324
290.34
290.353
290.363
290.38
290.399
290.415
290.422
290.421
290.408
290.391
290.371
290.354
290.339
290.331
290.326
290.325
290.325
290.329
290.329
290.331
290.331
290.332
290.333
290.335
290.338
290.346
290.356
290.366
290.377
290.388
290.396
290.396
290.389
290.379
290.367
290.353
290.34
290.328
290.328
290.324
290.326
290.331
290.339
290.35
290.366
290.379
290.396
290.415
290.438
290.462
290.49
290.521
290.552
290.584
290.615
290.646
290.676
290.706
290.737
290.767
290.796
290.825
290.854
290.884
290.914
290.945
290.975
291.005
291.035
291.063
291.091
291.118
291.144
291.17
291.195
291.221
291.247
291.273
291.298
291.323
291.348
291.373
291.397
291.421
291.445
291.469
291.493
291.516
291.539
291.562
291.585
291.607
291.63
291.653
291.675
291.698
291.721
291.744
291.766
291.789
291.812
291.834
291.857
291.881
291.904
291.927
291.951
291.975
291.998
292.022
292.047
292.071
292.095
292.12
292.145
292.169
292.194
292.219
292.244
292.269
292.294
292.319
292.345
292.37
292.395
292.42
292.446
292.471
292.496
292.521
292.547
292.572
292.598
292.624
292.649
292.674
292.699
292.723
292.747
292.771
292.794
292.818
292.841
292.864
292.887
292.91
292.932
292.953
292.974
292.995
293.016
293.036
293.056
293.075
293.095
293.115
293.134
293.152
293.17
293.188
293.205
293.221
293.237
293.253
293.268
293.283
293.298
293.313
293.326
293.34
293.353
293.365
293.377
293.389
293.401
293.413
293.424
293.434
293.445
293.455
293.465
293.475
293.484
293.493
293.502
293.511
293.52
293.528
293.536
293.544
293.552
293.559
293.567
293.574
293.581
293.588
293.595
293.602
293.609
293.616
293.622
293.629
293.635
293.641
293.648
293.654
293.661
293.667
293.673
293.679
293.685
293.691
293.697
293.703
293.709
293.715
293.721
293.726
293.732
293.738
293.743
293.749
293.754
293.759
293.765
293.77
293.775
293.78
293.785
293.79
293.795
293.8
293.805
293.809
293.813
293.818
293.822
293.826
293.829
293.833
293.837
293.841
293.845
293.848
293.851
293.854
293.857
293.859
293.862
293.864
293.866
293.868
293.87
293.872
293.873
293.875
293.876
293.877
293.878
293.88
293.88
293.881
293.881
293.882
293.882
293.882
293.882
293.882
293.882
293.882
293.882
293.881
293.881
293.88
293.879
288.156
288.127
288.066
287.986
287.897
287.81
287.73
287.66
287.601
287.553
287.514
287.484
287.465
287.455
287.455
287.462
287.478
287.503
287.54
287.583
287.631
287.684
287.745
287.809
287.874
287.938
288
288.064
288.129
288.189
288.244
288.301
288.361
288.417
288.467
288.518
288.568
288.62
288.672
288.715
288.77
288.824
288.875
288.928
288.985
289.043
289.097
289.139
289.156
289.137
289.073
288.956
288.781
288.552
288.305
288.077
287.916
287.855
287.888
288.009
288.201
288.439
288.711
288.991
289.244
289.459
289.645
289.821
289.99
290.149
290.307
290.466
290.615
290.773
290.907
291.039
291.154
291.254
291.348
291.444
291.543
291.612
291.674
291.705
291.726
291.718
291.729
291.696
291.679
291.7
291.698
291.678
291.657
291.636
291.61
291.581
291.552
291.524
291.494
291.469
291.441
291.42
291.401
291.381
291.363
291.341
291.346
291.365
291.357
291.36
291.369
291.391
291.421
291.451
291.47
291.472
291.462
291.421
291.326
291.158
290.935
290.688
290.43
290.161
289.867
289.539
289.201
288.916
288.715
288.572
288.458
288.317
288.133
287.933
287.772
287.687
287.66
287.661
287.673
287.693
287.722
287.765
287.82
287.887
287.961
288.041
288.124
288.207
288.287
288.364
288.437
288.509
288.582
288.658
288.738
288.818
288.891
288.951
288.994
289.02
289.029
289.027
289.017
288.997
288.975
288.95
288.928
288.909
288.889
288.872
288.858
288.848
288.841
288.836
288.834
288.835
288.842
288.863
288.909
288.976
289.045
289.093
289.12
289.133
289.145
289.159
289.176
289.189
289.204
289.214
289.216
289.218
289.218
289.219
289.212
289.215
289.211
289.22
289.238
289.258
289.284
289.315
289.352
289.396
289.439
289.485
289.533
289.58
289.627
289.678
289.733
289.778
289.822
289.874
289.927
289.985
290.054
290.128
290.201
290.273
290.346
290.424
290.5
290.565
290.615
290.646
290.666
290.686
290.715
290.749
290.777
290.793
290.791
290.769
290.732
290.684
290.635
290.587
290.547
290.513
290.493
290.47
290.448
290.433
290.431
290.436
290.443
290.45
290.464
290.484
290.515
290.555
290.601
290.645
290.688
290.732
290.766
290.792
290.812
290.826
290.825
290.809
290.779
290.714
290.65
290.603
290.563
290.525
290.482
290.441
290.394
290.355
290.329
290.318
290.313
290.312
290.318
290.328
290.347
290.368
290.391
290.415
290.441
290.471
290.502
290.534
290.566
290.598
290.629
290.662
290.695
290.73
290.766
290.802
290.837
290.871
290.904
290.936
290.967
290.998
291.029
291.059
291.09
291.121
291.152
291.183
291.212
291.24
291.268
291.296
291.324
291.352
291.381
291.408
291.435
291.461
291.486
291.51
291.535
291.56
291.586
291.611
291.636
291.661
291.686
291.709
291.733
291.756
291.78
291.804
291.829
291.854
291.878
291.903
291.927
291.951
291.974
291.998
292.023
292.048
292.073
292.099
292.124
292.148
292.173
292.197
292.222
292.247
292.273
292.299
292.324
292.35
292.374
292.398
292.423
292.447
292.472
292.498
292.523
292.549
292.575
292.6
292.624
292.648
292.671
292.693
292.717
292.74
292.764
292.787
292.81
292.833
292.855
292.876
292.896
292.916
292.935
292.954
292.973
292.992
293.011
293.03
293.049
293.068
293.086
293.102
293.118
293.133
293.148
293.163
293.178
293.193
293.208
293.222
293.236
293.249
293.261
293.272
293.283
293.294
293.306
293.317
293.329
293.339
293.35
293.359
293.368
293.377
293.385
293.394
293.403
293.412
293.421
293.429
293.436
293.443
293.451
293.458
293.465
293.473
293.48
293.486
293.493
293.499
293.505
293.512
293.518
293.525
293.531
293.537
293.543
293.549
293.555
293.562
293.568
293.574
293.58
293.586
293.592
293.598
293.604
293.61
293.615
293.621
293.626
293.632
293.637
293.643
293.648
293.653
293.658
293.663
293.668
293.673
293.678
293.683
293.687
293.692
293.696
293.7
293.705
293.709
293.713
293.717
293.72
293.723
293.726
293.73
293.733
293.737
293.741
293.744
293.747
293.749
293.75
293.752
293.753
293.755
293.757
293.759
293.76
293.761
293.762
293.763
293.763
293.764
293.764
293.766
293.766
293.766
293.766
293.766
293.765
293.764
293.764
293.764
293.764
293.764
293.763
293.763
287.97
287.937
287.867
287.775
287.675
287.58
287.496
287.427
287.373
287.331
287.302
287.283
287.275
287.277
287.29
287.312
287.343
287.384
287.429
287.485
287.548
287.621
287.695
287.774
287.857
287.949
288.044
288.138
288.232
288.324
288.414
288.493
288.553
288.603
288.649
288.684
288.712
288.733
288.75
288.772
288.783
288.796
288.812
288.832
288.853
288.873
288.887
288.888
288.869
288.824
288.747
288.635
288.49
288.326
288.169
288.052
288.009
288.043
288.151
288.306
288.503
288.735
289.005
289.284
289.537
289.754
289.944
290.13
290.315
290.499
290.689
290.873
291.037
291.182
291.311
291.422
291.512
291.583
291.64
291.683
291.713
291.728
291.733
291.721
291.69
291.685
291.667
291.641
291.601
291.559
291.503
291.443
291.383
291.327
291.272
291.216
291.159
291.099
291.034
290.969
290.903
290.845
290.792
290.735
290.673
290.6
290.55
290.533
290.507
290.487
290.483
290.496
290.538
290.613
290.712
290.845
291.025
291.245
291.469
291.664
291.797
291.841
291.834
291.781
291.634
291.364
290.998
290.616
290.296
290.043
289.822
289.58
289.274
288.9
288.552
288.305
288.164
288.095
288.048
288
287.96
287.961
287.982
288.031
288.105
288.19
288.284
288.383
288.485
288.59
288.695
288.8
288.907
289.018
289.133
289.254
289.375
289.487
289.579
289.645
289.685
289.699
289.695
289.673
289.626
289.554
289.466
289.372
289.278
289.186
289.097
289.017
288.946
288.885
288.823
288.758
288.689
288.628
288.607
288.619
288.661
288.709
288.741
288.761
288.782
288.814
288.855
288.9
288.954
289.004
289.037
289.054
289.059
289.049
289.055
289.054
289.047
289.041
289.041
289.045
289.063
289.09
289.128
289.171
289.23
289.295
289.369
289.447
289.513
289.587
289.66
289.727
289.794
289.86
289.92
289.982
290.062
290.158
290.265
290.378
290.492
290.61
290.734
290.847
290.933
290.977
290.998
291.02
291.047
291.072
291.081
291.066
291.025
290.954
290.849
290.721
290.593
290.472
290.355
290.241
290.139
290.048
289.952
289.871
289.818
289.798
289.793
289.793
289.806
289.836
289.887
289.969
290.083
290.217
290.354
290.482
290.603
290.711
290.807
290.898
290.988
291.078
291.151
291.178
291.193
291.197
291.191
291.167
291.116
291.02
290.89
290.767
290.651
290.558
290.48
290.414
290.357
290.305
290.261
290.228
290.21
290.2
290.197
290.202
290.213
290.231
290.252
290.278
290.305
290.334
290.365
290.399
290.435
290.472
290.509
290.546
290.584
290.623
290.662
290.701
290.738
290.775
290.812
290.85
290.888
290.926
290.964
291.001
291.038
291.075
291.111
291.146
291.182
291.216
291.25
291.284
291.316
291.348
291.379
291.41
291.44
291.47
291.5
291.528
291.557
291.585
291.613
291.641
291.668
291.695
291.722
291.748
291.774
291.8
291.825
291.851
291.876
291.902
291.927
291.952
291.977
292.002
292.027
292.052
292.077
292.102
292.128
292.153
292.178
292.203
292.228
292.253
292.278
292.303
292.328
292.353
292.377
292.402
292.427
292.451
292.476
292.5
292.524
292.549
292.573
292.597
292.62
292.643
292.666
292.689
292.711
292.733
292.754
292.775
292.796
292.817
292.838
292.858
292.877
292.896
292.913
292.931
292.948
292.965
292.982
292.999
293.016
293.032
293.048
293.063
293.078
293.092
293.105
293.119
293.132
293.144
293.156
293.168
293.18
293.191
293.203
293.213
293.224
293.234
293.244
293.253
293.262
293.271
293.28
293.289
293.298
293.306
293.314
293.322
293.329
293.336
293.344
293.351
293.358
293.365
293.372
293.378
293.384
293.39
293.397
293.403
293.409
293.416
293.421
293.427
293.433
293.438
293.444
293.451
293.457
293.463
293.469
293.474
293.48
293.486
293.492
293.498
293.504
293.509
293.515
293.52
293.526
293.531
293.537
293.542
293.546
293.551
293.556
293.561
293.565
293.57
293.574
293.579
293.583
293.587
293.591
293.595
293.599
293.603
293.606
293.609
293.612
293.616
293.619
293.622
293.625
293.628
293.63
293.633
293.635
293.637
293.639
293.641
293.643
293.644
293.645
293.645
293.646
293.646
293.647
293.647
293.648
293.648
293.649
293.648
293.648
293.648
293.647
293.647
293.647
293.647
293.646
293.645
293.644
293.643
287.753
287.715
287.636
287.532
287.423
287.323
287.24
287.177
287.132
287.104
287.089
287.087
287.096
287.115
287.145
287.184
287.232
287.289
287.355
287.43
287.513
287.604
287.702
287.808
287.923
288.048
288.18
288.314
288.443
288.558
288.652
288.721
288.762
288.782
288.784
288.773
288.75
288.725
288.7
288.68
288.66
288.643
288.631
288.625
288.619
288.608
288.587
288.556
288.512
288.454
288.385
288.308
288.23
288.17
288.144
288.148
288.223
288.349
288.504
288.666
288.832
289.029
289.248
289.488
289.713
289.909
290.083
290.258
290.437
290.61
290.78
290.939
291.078
291.198
291.299
291.375
291.428
291.457
291.469
291.455
291.419
291.368
291.317
291.272
291.216
291.154
291.101
291.047
291.002
290.957
290.91
290.866
290.821
290.777
290.731
290.683
290.632
290.579
290.521
290.46
290.394
290.331
290.269
290.203
290.128
290.034
289.938
289.852
289.763
289.681
289.6
289.529
289.475
289.446
289.446
289.479
289.581
289.765
290.034
290.381
290.787
291.21
291.591
291.917
292.156
292.215
292.197
292.107
291.924
291.673
291.373
291.044
290.67
290.258
289.872
289.561
289.333
289.158
288.984
288.791
288.591
288.432
288.413
288.43
288.49
288.57
288.66
288.757
288.861
288.975
289.095
289.224
289.359
289.5
289.649
289.808
289.973
290.133
290.279
290.408
290.518
290.601
290.635
290.632
290.603
290.531
290.425
290.301
290.171
290.034
289.887
289.727
289.568
289.427
289.298
289.17
289.025
288.858
288.7
288.575
288.486
288.43
288.395
288.376
288.369
288.38
288.42
288.485
288.574
288.675
288.754
288.8
288.828
288.842
288.868
288.887
288.892
288.899
288.897
288.898
288.904
288.922
288.954
289.006
289.066
289.145
289.237
289.336
289.435
289.535
289.627
289.712
289.794
289.87
289.946
290.015
290.098
290.21
290.344
290.495
290.654
290.813
290.98
291.133
291.246
291.304
291.324
291.333
291.326
291.302
291.24
291.137
291.008
290.856
290.665
290.441
290.193
289.95
289.717
289.499
289.314
289.173
289.035
288.902
288.78
288.701
288.645
288.607
288.581
288.571
288.576
288.61
288.691
288.819
288.98
289.152
289.326
289.496
289.668
289.862
290.102
290.4
290.734
291.031
291.24
291.39
291.497
291.574
291.627
291.625
291.59
291.51
291.399
291.285
291.171
291.047
290.907
290.757
290.611
290.476
290.363
290.271
290.198
290.141
290.098
290.071
290.053
290.044
290.04
290.041
290.048
290.061
290.079
290.103
290.131
290.161
290.193
290.227
290.264
290.303
290.346
290.389
290.432
290.477
290.521
290.567
290.612
290.658
290.705
290.754
290.802
290.849
290.895
290.941
290.986
291.03
291.074
291.117
291.16
291.202
291.243
291.282
291.32
291.358
291.395
291.43
291.465
291.5
291.535
291.569
291.602
291.634
291.665
291.695
291.725
291.754
291.783
291.811
291.839
291.866
291.893
291.92
291.946
291.972
291.997
292.023
292.048
292.074
292.099
292.124
292.15
292.175
292.2
292.225
292.249
292.274
292.299
292.323
292.348
292.372
292.397
292.421
292.446
292.47
292.493
292.516
292.539
292.562
292.585
292.608
292.63
292.652
292.674
292.695
292.715
292.735
292.755
292.775
292.795
292.814
292.832
292.85
292.867
292.884
292.9
292.917
292.932
292.948
292.964
292.979
292.994
293.008
293.021
293.035
293.047
293.06
293.072
293.083
293.094
293.105
293.116
293.126
293.137
293.146
293.156
293.166
293.175
293.183
293.192
293.201
293.209
293.217
293.225
293.232
293.24
293.247
293.254
293.261
293.268
293.275
293.281
293.288
293.294
293.3
293.306
293.312
293.318
293.324
293.329
293.335
293.34
293.346
293.352
293.358
293.363
293.369
293.375
293.38
293.386
293.392
293.398
293.403
293.409
293.415
293.42
293.426
293.431
293.437
293.442
293.447
293.452
293.457
293.462
293.466
293.471
293.475
293.479
293.483
293.488
293.492
293.495
293.499
293.503
293.506
293.51
293.513
293.516
293.519
293.522
293.525
293.527
293.53
293.532
293.535
293.537
293.539
293.541
293.543
293.544
293.546
293.547
293.547
293.548
293.548
293.549
293.549
293.549
293.549
293.549
293.548
293.548
293.548
293.547
293.547
293.546
293.546
293.545
293.544
293.543
293.542
287.529
287.487
287.398
287.285
287.169
287.07
286.992
286.941
286.912
286.902
286.907
286.925
286.956
286.997
287.049
287.108
287.178
287.256
287.343
287.44
287.547
287.666
287.796
287.936
288.088
288.251
288.419
288.581
288.719
288.823
288.884
288.899
288.876
288.823
288.755
288.684
288.614
288.549
288.489
288.436
288.391
288.358
288.336
288.32
288.302
288.279
288.253
288.227
288.202
288.184
288.174
288.178
288.201
288.24
288.31
288.414
288.555
288.714
288.869
289.009
289.14
289.277
289.431
289.601
289.758
289.907
290.059
290.211
290.367
290.514
290.649
290.765
290.864
290.939
290.993
291.012
291.01
290.989
290.958
290.925
290.835
290.747
290.674
290.6
290.545
290.49
290.431
290.384
290.345
290.316
290.291
290.271
290.252
290.233
290.212
290.187
290.159
290.127
290.09
290.049
289.999
289.945
289.889
289.832
289.768
289.686
289.587
289.486
289.371
289.257
289.14
289.021
288.905
288.795
288.691
288.618
288.612
288.644
288.746
288.939
289.237
289.63
290.089
290.585
291.094
291.561
291.948
292.282
292.527
292.567
292.523
292.373
292.12
291.795
291.443
291.131
290.853
290.569
290.26
289.925
289.587
289.307
289.192
289.196
289.229
289.29
289.359
289.438
289.534
289.644
289.77
289.906
290.053
290.21
290.377
290.557
290.743
290.928
291.101
291.261
291.41
291.549
291.658
291.695
291.688
291.65
291.569
291.455
291.323
291.18
291.018
290.834
290.64
290.447
290.25
290.039
289.793
289.503
289.193
288.913
288.706
288.567
288.476
288.402
288.311
288.208
288.154
288.158
288.2
288.289
288.385
288.432
288.475
288.517
288.574
288.641
288.697
288.734
288.753
288.755
288.767
288.785
288.814
288.856
288.928
289.015
289.12
289.238
289.364
289.489
289.61
289.715
289.818
289.914
290.006
290.099
290.197
290.325
290.477
290.649
290.833
291.018
291.209
291.382
291.516
291.583
291.582
291.558
291.497
291.39
291.237
291.053
290.828
290.569
290.269
289.955
289.622
289.301
289.015
288.775
288.587
288.446
288.324
288.207
288.098
288.005
287.93
287.865
287.808
287.758
287.715
287.685
287.675
287.692
287.743
287.822
287.914
288.015
288.127
288.273
288.486
288.793
289.199
289.652
290.074
290.452
290.787
291.098
291.396
291.652
291.82
291.918
291.966
291.975
291.965
291.914
291.796
291.619
291.411
291.189
290.974
290.778
290.612
290.473
290.36
290.266
290.184
290.112
290.043
289.979
289.922
289.875
289.841
289.822
289.812
289.809
289.811
289.821
289.838
289.862
289.892
289.925
289.962
290.003
290.047
290.094
290.144
290.197
290.252
290.308
290.366
290.423
290.48
290.538
290.597
290.657
290.716
290.775
290.834
290.892
290.948
291.002
291.054
291.105
291.155
291.205
291.254
291.302
291.349
291.396
291.44
291.483
291.524
291.564
291.603
291.64
291.676
291.712
291.746
291.778
291.81
291.84
291.869
291.898
291.926
291.954
291.981
292.008
292.034
292.06
292.085
292.111
292.136
292.161
292.186
292.211
292.236
292.261
292.286
292.31
292.334
292.358
292.382
292.407
292.43
292.453
292.477
292.5
292.522
292.544
292.566
292.588
292.609
292.63
292.651
292.671
292.691
292.711
292.731
292.75
292.768
292.786
292.803
292.82
292.836
292.852
292.868
292.883
292.899
292.914
292.928
292.942
292.955
292.968
292.981
292.993
293.005
293.016
293.028
293.039
293.049
293.059
293.069
293.078
293.087
293.096
293.105
293.114
293.122
293.131
293.139
293.146
293.154
293.161
293.168
293.176
293.183
293.19
293.197
293.203
293.209
293.216
293.222
293.228
293.234
293.24
293.245
293.251
293.256
293.261
293.267
293.272
293.278
293.283
293.289
293.294
293.3
293.305
293.311
293.316
293.322
293.328
293.333
293.339
293.344
293.35
293.355
293.36
293.365
293.37
293.375
293.38
293.385
293.39
293.394
293.399
293.403
293.407
293.411
293.415
293.419
293.423
293.426
293.429
293.433
293.436
293.439
293.442
293.445
293.447
293.45
293.452
293.454
293.456
293.458
293.46
293.462
293.464
293.465
293.467
293.468
293.468
293.469
293.469
293.47
293.47
293.47
293.47
293.469
293.469
293.468
293.468
293.467
293.466
293.466
293.465
293.464
293.463
293.462
293.461
287.319
287.274
287.179
287.062
286.946
286.855
286.792
286.759
286.751
286.765
286.795
286.838
286.893
286.957
287.029
287.11
287.2
287.299
287.41
287.532
287.668
287.82
287.988
288.17
288.36
288.552
288.732
288.881
288.981
289.022
289.006
288.935
288.824
288.693
288.557
288.432
288.324
288.237
288.164
288.106
288.064
288.038
288.024
288.019
288.017
288.018
288.029
288.054
288.093
288.143
288.204
288.276
288.365
288.474
288.601
288.743
288.887
289.025
289.148
289.251
289.338
289.423
289.512
289.611
289.721
289.83
289.932
290.032
290.139
290.236
290.306
290.357
290.391
290.41
290.404
290.389
290.383
290.374
290.345
290.261
290.181
290.11
290.048
290.025
289.988
289.952
289.939
289.921
289.905
289.892
289.878
289.863
289.847
289.831
289.815
289.798
289.78
289.758
289.732
289.701
289.662
289.611
289.547
289.476
289.401
289.317
289.222
289.12
289.007
288.893
288.776
288.658
288.541
288.425
288.308
288.196
288.096
288.049
288.055
288.1
288.21
288.397
288.661
289.015
289.472
290.037
290.688
291.354
291.928
292.348
292.677
292.895
292.912
292.851
292.697
292.483
292.23
291.942
291.611
291.248
290.877
290.557
290.36
290.321
290.308
290.322
290.356
290.411
290.501
290.614
290.747
290.888
291.036
291.19
291.353
291.53
291.712
291.891
292.059
292.216
292.368
292.514
292.646
292.73
292.74
292.728
292.685
292.607
292.501
292.373
292.222
292.041
291.845
291.635
291.409
291.156
290.861
290.513
290.123
289.736
289.405
289.156
288.961
288.802
288.626
288.423
288.234
288.091
288.016
288.005
288.022
288.04
288.059
288.1
288.18
288.285
288.387
288.47
288.524
288.559
288.592
288.626
288.662
288.707
288.775
288.865
288.978
289.114
289.266
289.428
289.584
289.727
289.864
289.986
290.104
290.218
290.338
290.473
290.63
290.802
290.993
291.19
291.39
291.577
291.722
291.765
291.749
291.691
291.569
291.387
291.156
290.884
290.573
290.233
289.869
289.501
289.154
288.851
288.606
288.413
288.263
288.145
288.057
287.969
287.891
287.818
287.748
287.68
287.615
287.552
287.493
287.429
287.363
287.3
287.247
287.209
287.182
287.173
287.179
287.214
287.303
287.465
287.714
288.033
288.385
288.76
289.144
289.554
290.006
290.486
290.941
291.339
291.668
291.936
292.149
292.302
292.354
292.342
292.28
292.141
291.941
291.716
291.492
291.281
291.09
290.921
290.764
290.615
290.469
290.327
290.189
290.057
289.937
289.83
289.735
289.658
289.596
289.549
289.52
289.503
289.493
289.491
289.494
289.507
289.529
289.56
289.598
289.642
289.69
289.744
289.801
289.862
289.925
289.992
290.061
290.134
290.209
290.285
290.361
290.437
290.511
290.584
290.655
290.725
290.794
290.862
290.93
290.996
291.062
291.127
291.19
291.251
291.309
291.366
291.421
291.473
291.524
291.572
291.618
291.662
291.704
291.743
291.78
291.816
291.85
291.882
291.913
291.943
291.973
292.001
292.028
292.055
292.082
292.108
292.134
292.159
292.184
292.209
292.234
292.258
292.283
292.307
292.331
292.355
292.378
292.402
292.425
292.448
292.471
292.493
292.515
292.536
292.558
292.579
292.599
292.62
292.64
292.659
292.679
292.698
292.716
292.734
292.751
292.768
292.785
292.801
292.817
292.832
292.847
292.861
292.876
292.889
292.903
292.916
292.928
292.94
292.952
292.963
292.974
292.985
292.995
293.005
293.015
293.024
293.033
293.042
293.05
293.058
293.066
293.074
293.082
293.09
293.097
293.104
293.111
293.118
293.125
293.132
293.138
293.145
293.151
293.157
293.163
293.169
293.175
293.18
293.186
293.192
293.197
293.202
293.207
293.213
293.218
293.223
293.228
293.233
293.239
293.244
293.249
293.255
293.26
293.266
293.271
293.277
293.282
293.287
293.293
293.298
293.303
293.308
293.313
293.318
293.323
293.327
293.332
293.336
293.341
293.345
293.349
293.353
293.357
293.36
293.364
293.367
293.37
293.373
293.376
293.379
293.382
293.384
293.386
293.389
293.391
293.393
293.394
293.396
293.398
293.399
293.401
293.402
293.403
293.404
293.405
293.405
293.405
293.405
293.405
293.405
293.405
293.404
293.404
293.403
293.402
293.401
293.4
293.399
293.398
293.398
293.397
293.395
287.137
287.088
286.99
286.876
286.769
286.694
286.654
286.647
286.665
286.706
286.763
286.832
286.909
286.994
287.087
287.189
287.301
287.423
287.557
287.705
287.872
288.061
288.269
288.487
288.702
288.896
289.046
289.133
289.152
289.098
288.985
288.828
288.644
288.454
288.276
288.123
287.999
287.906
287.84
287.796
287.775
287.772
287.786
287.818
287.862
287.924
288.004
288.089
288.179
288.284
288.4
288.524
288.655
288.79
288.924
289.048
289.159
289.252
289.328
289.385
289.429
289.468
289.511
289.568
289.622
289.668
289.704
289.734
289.776
289.821
289.838
289.826
289.806
289.786
289.759
289.71
289.694
289.716
289.726
289.674
289.622
289.598
289.578
289.574
289.591
289.602
289.618
289.634
289.643
289.646
289.639
289.629
289.612
289.59
289.565
289.538
289.509
289.479
289.444
289.402
289.358
289.303
289.23
289.139
289.037
288.925
288.805
288.686
288.565
288.452
288.346
288.247
288.156
288.069
287.98
287.894
287.81
287.729
287.675
287.675
287.697
287.754
287.86
288.033
288.295
288.671
289.184
289.826
290.553
291.301
291.989
292.517
292.882
293.173
293.283
293.266
293.183
293.017
292.766
292.456
292.13
291.849
291.66
291.576
291.528
291.497
291.5
291.539
291.616
291.73
291.862
292.003
292.142
292.282
292.427
292.58
292.736
292.889
293.033
293.168
293.294
293.414
293.524
293.609
293.64
293.638
293.622
293.584
293.517
293.421
293.296
293.138
292.96
292.768
292.551
292.304
292.013
291.668
291.279
290.871
290.499
290.173
289.892
289.621
289.318
288.969
288.615
288.331
288.147
288.038
287.948
287.855
287.781
287.773