/*--------------------------------*- C++ -*----------------------------------*\
| =========                 |                                                 |
| \\      /  F ield         | OpenFOAM: The Open Source CFD Toolbox           |
|  \\    /   O peration     | Version:  v1812                                 |
|   \\  /    A nd           | Web:      www.OpenFOAM.com                      |
|    \\/     M anipulation  |                                                 |
\*---------------------------------------------------------------------------*/
FoamFile
{
    version     2.0;
    format      ascii;
    class       volVectorField;
    location    "0.8";
    object      U;
}
// * * * * * * * * * * * * * * * * * * * * * * * * * * * * * * * * * * * * * //

dimensions      [0 1 -1 0 0 0 0];


internalField   nonuniform List<vector> 
20400
(
(0.0316307 -0.0281828 0)
(0.103085 -0.0446381 0)
(0.162903 -0.0376604 0)
(0.201219 -0.0315445 0)
(0.238878 -0.0338944 0)
(0.278137 -0.0348453 0)
(0.315348 -0.0318631 0)
(0.34908 -0.0210524 0)
(0.360863 0.0333326 0)
(0.3701 -0.0288928 0)
(0.37051 -0.0433057 0)
(0.361007 -0.0482292 0)
(0.34912 -0.0555612 0)
(0.342073 -0.0656533 0)
(0.335287 -0.0539468 0)
(0.337854 0.0462653 0)
(0.325264 0.0678845 0)
(0.32029 0.0725856 0)
(0.323461 0.070477 0)
(0.336189 0.0675561 0)
(0.356614 0.0653655 0)
(0.387609 0.0633979 0)
(0.427715 0.066728 0)
(0.472015 0.0734862 0)
(0.520308 0.0798908 0)
(0.57414 0.0861214 0)
(0.632532 0.0928012 0)
(0.693554 0.0997166 0)
(0.755022 0.107718 0)
(0.814299 0.115664 0)
(0.866284 0.12284 0)
(0.905997 0.121884 0)
(0.932184 0.119349 0)
(0.941422 0.0947535 0)
(0.936785 0.0642336 0)
(0.923911 0.0200444 0)
(0.875527 -0.0149024 0)
(0.801827 -0.010901 0)
(0.711113 0.00688518 0)
(0.603457 0.026224 0)
(0.482559 0.0429911 0)
(0.351999 0.0576415 0)
(0.212963 0.0732818 0)
(0.0647448 0.0899563 0)
(-0.0834029 0.0894213 0)
(-0.223347 0.0807799 0)
(-0.356484 0.0750533 0)
(-0.482638 0.0664043 0)
(-0.601572 0.0621906 0)
(-0.716371 0.0568497 0)
(-0.823194 0.0477911 0)
(-0.919807 0.0405991 0)
(-1.00915 0.035633 0)
(-1.08846 0.0191259 0)
(-1.14376 -0.0224322 0)
(-1.21392 -0.0430404 0)
(-1.24005 -0.222363 0)
(-1.22682 -0.313676 0)
(-1.23285 -0.175941 0)
(-1.30779 -0.0888052 0)
(-1.3687 -0.0696528 0)
(-1.40268 -0.0788977 0)
(-1.42266 -0.0795405 0)
(-1.4537 -0.0830068 0)
(-1.52639 -0.0719393 0)
(-1.65586 -0.0715122 0)
(-1.85521 -0.0685634 0)
(-2.14208 -0.083883 0)
(-2.52196 -0.0919553 0)
(-3.01812 -0.079714 0)
(-3.60749 -0.051211 0)
(-4.22901 0.0680689 0)
(-4.84632 0.211014 0)
(-5.42554 0.339546 0)
(-5.96154 0.386455 0)
(-6.44886 0.396867 0)
(-6.87431 0.365137 0)
(-7.24349 0.349756 0)
(-7.5947 0.373231 0)
(-7.96344 0.394118 0)
(-8.33572 0.33639 0)
(-8.66131 0.291658 0)
(-8.93858 0.247585 0)
(-9.15756 0.201566 0)
(-9.2934 0.177059 0)
(-9.37227 0.210216 0)
(-9.39368 0.256547 0)
(-9.31405 0.305165 0)
(-9.16129 0.41716 0)
(-8.96692 0.625358 0)
(-8.70773 0.836503 0)
(-8.3516 0.926991 0)
(-7.943 0.964849 0)
(-7.49788 0.913136 0)
(-7.03857 0.743922 0)
(-6.54611 0.515854 0)
(-5.99591 0.319571 0)
(-5.40413 0.169551 0)
(-4.76768 0.0401707 0)
(-4.08611 -0.0570494 0)
(-3.37673 -0.303766 0)
(-2.70431 -0.562099 0)
(-2.04539 -0.592371 0)
(-1.3371 -0.671515 0)
(-0.544548 -0.714633 0)
(0.265237 -0.422539 0)
(1.07202 -0.0470338 0)
(1.53432 0.44387 0)
(1.84531 0.115895 0)
(2.44437 -0.11623 0)
(3.20846 -0.196173 0)
(3.97918 -0.29409 0)
(4.64951 -0.363889 0)
(5.19103 -0.383046 0)
(5.61206 -0.395325 0)
(5.92947 -0.381262 0)
(6.15317 -0.346953 0)
(6.29619 -0.285367 0)
(6.36591 -0.196121 0)
(6.35866 -0.0247695 0)
(6.32247 0.0610607 0)
(6.27499 0.050133 0)
(6.22036 -0.0533139 0)
(6.0717 -0.235267 0)
(5.82527 -0.340931 0)
(5.54287 -0.298486 0)
(5.25468 -0.126587 0)
(4.96544 0.0814535 0)
(4.69895 0.192705 0)
(4.47886 0.14896 0)
(4.37347 -0.103223 0)
(4.26247 -0.378827 0)
(4.08427 -0.555303 0)
(3.86332 -0.609779 0)
(3.61635 -0.536121 0)
(3.34894 -0.373243 0)
(3.07867 -0.201227 0)
(2.83664 -0.0776062 0)
(2.62098 -0.0172382 0)
(2.42399 0.0195588 0)
(2.23233 0.06409 0)
(2.04667 0.0929232 0)
(1.87096 0.107046 0)
(1.71353 0.100249 0)
(1.58867 0.0837799 0)
(1.49434 0.0690827 0)
(1.42244 0.0601178 0)
(1.36281 0.0535061 0)
(1.31198 0.0491452 0)
(1.26829 0.0432197 0)
(1.22887 0.0407897 0)
(1.19323 0.0351882 0)
(1.16453 0.0230496 0)
(1.14833 0.00673809 0)
(1.14418 -0.00175293 0)
(1.16178 -0.0230704 0)
(1.20731 -0.0403037 0)
(1.27226 -0.0449625 0)
(1.34779 -0.042124 0)
(1.4306 -0.0400499 0)
(1.51651 -0.0397802 0)
(1.59616 -0.0399319 0)
(1.65848 -0.0377131 0)
(1.6988 -0.0394404 0)
(1.7225 -0.0371097 0)
(1.72557 -0.0354579 0)
(1.7041 -0.0161559 0)
(1.6606 -0.00904572 0)
(1.60024 0.0011175 0)
(1.51693 0.0161025 0)
(1.41196 0.0390532 0)
(1.28414 0.0618255 0)
(1.14895 0.064711 0)
(1.03098 0.0433718 0)
(0.952707 0.00218302 0)
(0.92227 -0.0374675 0)
(0.930342 -0.0494161 0)
(0.937042 -0.042407 0)
(0.918148 -0.00463191 0)
(0.839827 0.067628 0)
(0.686385 0.131572 0)
(0.495398 0.154209 0)
(0.316377 0.131037 0)
(0.1782 0.0926766 0)
(0.082415 0.0554391 0)
(0.0218094 0.0290246 0)
(-0.018771 0.0182275 0)
(-0.0530415 0.0131705 0)
(-0.0724992 -0.00275932 0)
(-0.0836842 -0.00356619 0)
(-0.0961989 0.00124922 0)
(-0.115681 0.016884 0)
(-0.156479 0.0426949 0)
(-0.230825 0.0904661 0)
(-0.343397 0.0887851 0)
(-0.415771 0.0447339 0)
(-0.468684 0.0275418 0)
(-0.485478 -0.0161212 0)
(-0.460582 -0.0346148 0)
(-0.434777 -0.0231627 0)
(-0.422298 -0.0156084 0)
(-0.411631 -0.0137967 0)
(-0.398071 -0.0239741 0)
(-0.372195 -0.0325785 0)
(-0.340201 -0.0346788 0)
(-0.309231 -0.0310008 0)
(-0.280195 -0.0274622 0)
(-0.257944 -0.0174082 0)
(-0.238971 -0.0210798 0)
(-0.213699 -0.0229525 0)
(-0.198503 -0.00379373 0)
(-0.191575 -0.00842586 0)
(-0.174242 -0.0209293 0)
(-0.148356 -0.0106114 0)
(-0.145728 0.0203656 0)
(-0.194047 0.0795783 0)
(-0.290581 0.110112 0)
(-0.40351 0.124459 0)
(-0.528842 0.134482 0)
(-0.65759 0.126065 0)
(-0.764721 0.097988 0)
(-0.850846 0.0857911 0)
(-0.937213 0.101707 0)
(-1.04059 0.113332 0)
(-1.14448 0.104724 0)
(-1.24377 0.10507 0)
(-1.35948 0.143599 0)
(-1.53148 0.217768 0)
(-1.76871 0.256251 0)
(-2.01992 0.253532 0)
(-2.26291 0.244144 0)
(-2.50183 0.242872 0)
(-2.73599 0.235065 0)
(-2.96591 0.232099 0)
(-3.18714 0.220602 0)
(-3.403 0.217622 0)
(-3.60776 0.203476 0)
(-3.80651 0.203144 0)
(-4.00244 0.196777 0)
(-4.18298 0.171829 0)
(-4.34501 0.165472 0)
(-4.49683 0.143362 0)
(-4.60484 0.0880525 0)
(-4.6697 0.0527261 0)
(-4.69615 0.0123974 0)
(-4.68104 -0.0142217 0)
(-4.63288 -0.0731296 0)
(-4.50422 -0.162803 0)
(-4.29363 -0.221612 0)
(-4.04654 -0.240199 0)
(-3.78441 -0.253037 0)
(-3.51105 -0.253218 0)
(-3.25013 -0.226002 0)
(-3.01689 -0.200695 0)
(-2.79555 -0.198632 0)
(-2.57435 -0.195975 0)
(-2.35603 -0.195188 0)
(-2.13017 -0.21073 0)
(-1.8935 -0.20983 0)
(-1.66835 -0.186076 0)
(-1.47311 -0.151121 0)
(-1.30832 -0.127201 0)
(-1.15066 -0.14063 0)
(-0.971787 -0.139717 0)
(-0.84035 -0.0657415 0)
(-0.767466 -0.0249855 0)
(-0.71934 -0.00860515 0)
(-0.675603 -0.0133781 0)
(-0.623955 -0.0290564 0)
(-0.54512 -0.047805 0)
(-0.473753 -0.00630825 0)
(-0.450536 0.0393375 0)
(-0.466847 0.0628614 0)
(-0.492685 0.0608022 0)
(-0.504072 0.0483548 0)
(-0.505835 0.0445803 0)
(-0.502412 0.0443734 0)
(-0.503321 0.0602096 0)
(-0.522732 0.0761321 0)
(-0.552756 0.0879299 0)
(-0.590922 0.0965242 0)
(-0.633912 0.0996725 0)
(-0.673636 0.0942937 0)
(-0.705468 0.0886214 0)
(-0.730007 0.0837815 0)
(-0.748503 0.0805966 0)
(-0.761978 0.0763982 0)
(-0.768013 0.0697071 0)
(-0.766005 0.0661395 0)
(-0.758565 0.0631379 0)
(-0.74784 0.0624627 0)
(-0.735661 0.0634642 0)
(-0.722222 0.0636641 0)
(-0.707298 0.0639709 0)
(-0.690551 0.063165 0)
(-0.671502 0.0625518 0)
(-0.650143 0.0613819 0)
(-0.625651 0.0590251 0)
(-0.596584 0.0548188 0)
(-0.561624 0.0500178 0)
(-0.520959 0.0462519 0)
(-0.47645 0.0446289 0)
(-0.429479 0.0433749 0)
(-0.380478 0.0427208 0)
(-0.329974 0.0420578 0)
(-0.277459 0.0403516 0)
(-0.222341 0.0385419 0)
(-0.165029 0.0372996 0)
(-0.106048 0.0362636 0)
(-0.0458586 0.0359612 0)
(0.0142323 0.037237 0)
(0.0730145 0.0389202 0)
(0.130706 0.0396203 0)
(0.188205 0.0394054 0)
(0.246352 0.0383098 0)
(0.305551 0.037071 0)
(0.365744 0.0358145 0)
(0.426605 0.0350607 0)
(0.4877 0.0347275 0)
(0.548531 0.0351836 0)
(0.608357 0.0360148 0)
(0.666939 0.0366094 0)
(0.724737 0.0364622 0)
(0.78227 0.0357106 0)
(0.840161 0.0341778 0)
(0.898596 0.0328712 0)
(0.957186 0.0318054 0)
(1.01542 0.0314869 0)
(1.07306 0.0312526 0)
(1.13017 0.0312631 0)
(1.1863 0.0317415 0)
(1.24139 0.0315111 0)
(1.29589 0.0308171 0)
(1.34987 0.029999 0)
(1.40303 0.0295848 0)
(1.45466 0.0300583 0)
(1.5044 0.0304031 0)
(1.55262 0.030626 0)
(1.59976 0.030766 0)
(1.64574 0.0312795 0)
(1.69032 0.0315054 0)
(1.7337 0.0313225 0)
(1.77621 0.0306867 0)
(1.81775 0.0304856 0)
(1.85799 0.0302941 0)
(1.89704 0.0300709 0)
(1.93542 0.0296896 0)
(1.97358 0.0293133 0)
(2.01128 0.0293282 0)
(2.04833 0.0289262 0)
(2.08501 0.0280336 0)
(2.12167 0.026592 0)
(2.15854 0.0251674 0)
(2.1954 0.0238963 0)
(2.23205 0.0228568 0)
(2.26878 0.0221798 0)
(2.30558 0.0223834 0)
(2.3415 0.0237897 0)
(2.37555 0.0252221 0)
(2.40742 0.0262143 0)
(2.43707 0.0272272 0)
(2.46462 0.0279955 0)
(2.49059 0.0274007 0)
(2.51562 0.026221 0)
(2.54067 0.0244436 0)
(2.56695 0.0218648 0)
(2.59592 0.020202 0)
(2.62666 0.0216153 0)
(2.65597 0.0240144 0)
(2.68327 0.0247748 0)
(2.7097 0.024588 0)
(2.73558 0.0241921 0)
(2.76136 0.0231988 0)
(2.78763 0.0214246 0)
(2.81463 0.0196017 0)
(2.84236 0.0180429 0)
(2.87145 0.0158609 0)
(2.90305 0.014565 0)
(2.93651 0.015393 0)
(2.96985 0.016647 0)
(3.00255 0.0172001 0)
(3.03532 0.0170097 0)
(3.06814 0.0167549 0)
(3.10074 0.0162636 0)
(3.13325 0.015065 0)
(3.16557 0.0138555 0)
(3.19716 0.0132637 0)
(3.22863 0.0121746 0)
(3.2614 0.0116549 0)
(3.2954 0.0129242 0)
(3.32917 0.0143351 0)
(3.36213 0.015361 0)
(3.39463 0.0156724 0)
(3.42695 0.0152797 0)
(3.45944 0.0141175 0)
(3.49219 0.0125712 0)
(3.52504 0.0113331 0)
(3.55781 0.0103598 0)
(3.59128 0.009103 0)
(3.62612 0.00949681 0)
(3.66181 0.0104073 0)
(3.69754 0.0114083 0)
(3.73315 0.0117606 0)
(3.76903 0.0111463 0)
(3.80525 0.00968282 0)
(3.84146 0.00824672 0)
(3.87715 0.00780192 0)
(3.91233 0.00733569 0)
(3.94741 0.0076148 0)
(3.98261 0.0079691 0)
(4.01781 0.00905539 0)
(4.05277 0.00936485 0)
(4.08745 0.00872496 0)
(4.12186 0.00719837 0)
(4.15559 0.00647161 0)
(4.1883 0.00653542 0)
(4.2202 0.00682782 0)
(4.25172 0.00734275 0)
(4.28292 0.00843904 0)
(4.31362 0.00869742 0)
(4.34371 0.00760365 0)
(4.3732 0.00603607 0)
(4.40181 0.00555732 0)
(4.42932 0.00581301 0)
(4.456 0.00605755 0)
(4.48223 0.00679624 0)
(4.50807 0.00728868 0)
(4.53335 0.0064665 0)
(4.55794 0.00519609 0)
(4.58162 0.00464916 0)
(4.60422 0.00473617 0)
(4.62587 0.00520949 0)
(4.64668 0.00601654 0)
(4.66664 0.00634958 0)
(4.68565 0.0056428 0)
(4.7036 0.0047322 0)
(4.72032 0.00455685 0)
(4.73574 0.00480987 0)
(4.75 0.00519631 0)
(4.76338 0.00541129 0)
(4.77601 0.00519913 0)
(4.78788 0.00467739 0)
(4.79897 0.00431676 0)
(4.80925 0.00406446 0)
(4.81885 0.00404822 0)
(4.8279 0.00434964 0)
(4.83633 0.00467652 0)
(4.84409 0.00442303 0)
(4.85123 0.00367957 0)
(4.85775 0.00300438 0)
(4.8633 0.00302568 0)
(4.86768 0.00326146 0)
(4.87104 0.00361401 0)
(4.87354 0.00384669 0)
(4.87537 0.00361075 0)
(4.8767 0.00333547 0)
(4.87761 0.00316168 0)
(4.87787 0.00315428 0)
(4.87751 0.00336969 0)
(4.87659 0.00351247 0)
(4.87542 0.00336233 0)
(4.87429 0.00268363 0)
(4.87302 0.0017162 0)
(4.87157 0.000452479 0)
(4.86976 -0.000578578 0)
(4.86757 -0.000395448 0)
(4.86491 0.00107841 0)
(4.86157 0.00286959 0)
(4.85774 0.00421727 0)
(4.85388 0.00480112 0)
(4.85031 0.00381925 0)
(4.84588 0.00257002 0)
(4.84055 0.00054876 0)
(4.8353 -0.0020873 0)
(4.83008 -0.00301015 0)
(4.82468 -0.00183361 0)
(4.81906 0.000587952 0)
(4.81358 0.00248237 0)
(4.80916 0.00296547 0)
(4.80569 0.00301029 0)
(4.80175 0.00224686 0)
(4.79703 0.000672311 0)
(4.79237 -0.00144055 0)
(4.78779 -0.00227733 0)
(4.78304 -0.000956008 0)
(4.778 0.000546228 0)
(4.77333 0.00141754 0)
(4.76984 0.00188301 0)
(4.76734 0.00133302 0)
(4.76453 0.000400157 0)
(4.76161 -0.00123888 0)
(4.75911 -0.00283419 0)
(4.75669 -0.0019547 0)
(4.75424 -0.000431644 0)
(4.75214 0.00113668 0)
(4.75097 0.00217339 0)
(4.75011 0.0019975 0)
(4.74973 0.00136967 0)
(4.74937 -0.00118995 0)
(4.75114 -0.00340286 0)
(0.051462 -0.0973984 0)
(0.105008 -0.0924499 0)
(0.151713 -0.0579686 0)
(0.192602 -0.0515415 0)
(0.231004 -0.0541601 0)
(0.270206 -0.0546384 0)
(0.308554 -0.0503471 0)
(0.340338 -0.0392488 0)
(0.381173 -0.040903 0)
(0.411229 -0.00368886 0)
(0.420016 0.0113133 0)
(0.422364 0.0222467 0)
(0.415083 0.0275287 0)
(0.398674 0.0249132 0)
(0.368839 0.0216828 0)
(0.364527 -0.0373705 0)
(0.400341 -0.0611387 0)
(0.43555 -0.0752192 0)
(0.472926 -0.0914874 0)
(0.514684 -0.103304 0)
(0.558884 -0.116699 0)
(0.608942 -0.136306 0)
(0.66814 -0.152426 0)
(0.734181 -0.163233 0)
(0.806892 -0.173967 0)
(0.8872 -0.184133 0)
(0.973141 -0.193037 0)
(1.06225 -0.200506 0)
(1.15251 -0.201853 0)
(1.24137 -0.192059 0)
(1.32072 -0.17061 0)
(1.38638 -0.150813 0)
(1.43274 -0.12214 0)
(1.464 -0.099791 0)
(1.47434 -0.0682555 0)
(1.45725 -0.026394 0)
(1.4133 0.023558 0)
(1.33966 0.0550443 0)
(1.24617 0.0729396 0)
(1.13517 0.0832496 0)
(1.00634 0.091976 0)
(0.85822 0.0985418 0)
(0.688533 0.109831 0)
(0.500561 0.116707 0)
(0.30546 0.110956 0)
(0.110182 0.105501 0)
(-0.0816485 0.104137 0)
(-0.264924 0.0970324 0)
(-0.434813 0.0951422 0)
(-0.592699 0.0909296 0)
(-0.73744 0.0812116 0)
(-0.869884 0.0743852 0)
(-0.990382 0.0673066 0)
(-1.08142 0.03604 0)
(-1.15343 0.025503 0)
(-1.22593 0.0337171 0)
(-1.37304 0.0694358 0)
(-1.66189 0.080167 0)
(-2.00291 0.0818221 0)
(-2.3724 0.0834507 0)
(-2.7717 0.0390102 0)
(-3.18898 0.0404041 0)
(-3.60203 0.0390071 0)
(-4.01986 0.101328 0)
(-4.47091 0.220926 0)
(-4.9697 0.340651 0)
(-5.52394 0.521754 0)
(-6.16528 0.697113 0)
(-6.88386 0.877751 0)
(-7.69751 1.04616 0)
(-8.58262 1.07549 0)
(-9.46935 0.967722 0)
(-10.3101 0.823586 0)
(-11.0891 0.658374 0)
(-11.8269 0.569542 0)
(-12.5086 0.48514 0)
(-13.0882 0.405873 0)
(-13.5394 0.360155 0)
(-13.8656 0.363631 0)
(-14.0716 0.387672 0)
(-14.1553 0.381713 0)
(-14.1551 0.325788 0)
(-14.0927 0.288278 0)
(-13.9912 0.198583 0)
(-13.7938 0.127976 0)
(-13.5208 0.0628641 0)
(-13.2366 -0.0347427 0)
(-12.8758 -0.125876 0)
(-12.3393 -0.211498 0)
(-11.8227 -0.337404 0)
(-11.2049 -0.470695 0)
(-10.4512 -0.607182 0)
(-9.63176 -0.708374 0)
(-8.77828 -0.787042 0)
(-7.92295 -0.840411 0)
(-7.12347 -0.870946 0)
(-6.39213 -0.885883 0)
(-5.69423 -0.902741 0)
(-4.99695 -0.950781 0)
(-4.2517 -1.02402 0)
(-3.39112 -1.28891 0)
(-2.27326 -1.41805 0)
(-1.03181 -1.42855 0)
(0.178837 -1.41219 0)
(1.33236 -1.4108 0)
(2.51953 -1.73947 0)
(3.9681 -1.76434 0)
(5.31572 -1.0904 0)
(6.65687 -1.09622 0)
(7.83917 -1.22962 0)
(9.01568 -1.22561 0)
(10.1407 -0.963185 0)
(11.1965 -0.644973 0)
(12.1876 -0.400473 0)
(13.1126 -0.203486 0)
(13.9673 -0.0401647 0)
(14.723 0.0920625 0)
(15.3094 0.19171 0)
(15.658 0.247821 0)
(15.771 0.208177 0)
(15.7186 0.13456 0)
(15.5313 0.156956 0)
(15.2271 0.32899 0)
(14.8669 0.645143 0)
(14.4349 0.836722 0)
(14.008 0.862063 0)
(13.5961 0.785562 0)
(13.1842 0.579861 0)
(12.7203 0.353775 0)
(12.1824 0.214089 0)
(11.6249 0.351446 0)
(11.1213 0.662202 0)
(10.5566 0.90876 0)
(9.9527 1.04854 0)
(9.36761 1.07547 0)
(8.84931 0.971153 0)
(8.44999 0.769482 0)
(8.13215 0.585297 0)
(7.80946 0.475923 0)
(7.47386 0.424959 0)
(7.14979 0.380914 0)
(6.85792 0.322799 0)
(6.59623 0.289431 0)
(6.3887 0.229019 0)
(6.23816 0.17755 0)
(6.13979 0.123232 0)
(6.06514 0.0955529 0)
(6.01479 0.0738228 0)
(5.9862 0.0569659 0)
(5.97722 0.0444042 0)
(5.98396 0.0372129 0)
(6.00608 0.0257453 0)
(6.04802 0.0163009 0)
(6.10956 0.000199972 0)
(6.19369 -0.022949 0)
(6.29088 -0.0671572 0)
(6.39228 -0.113286 0)
(6.48916 -0.150285 0)
(6.57883 -0.179622 0)
(6.66699 -0.200258 0)
(6.76048 -0.19805 0)
(6.85153 -0.165071 0)
(6.92694 -0.114368 0)
(6.97628 -0.0612505 0)
(7.0004 -0.01963 0)
(6.98008 0.0205732 0)
(6.90613 0.0639331 0)
(6.78473 0.0879139 0)
(6.63307 0.129221 0)
(6.45122 0.163578 0)
(6.24807 0.193067 0)
(6.02723 0.211918 0)
(5.79702 0.194476 0)
(5.57133 0.152227 0)
(5.36968 0.0943692 0)
(5.20469 0.0358871 0)
(5.06562 0.0163082 0)
(4.92529 0.0271522 0)
(4.76275 0.0797726 0)
(4.57046 0.174925 0)
(4.33878 0.242761 0)
(4.08716 0.247686 0)
(3.83795 0.19367 0)
(3.60906 0.13314 0)
(3.41977 0.0828809 0)
(3.2818 0.0482301 0)
(3.18477 0.0323993 0)
(3.10833 0.02985 0)
(3.05347 0.0103124 0)
(3.01179 0.00823284 0)
(2.96642 0.0120347 0)
(2.9132 0.0287442 0)
(2.85697 0.0528296 0)
(2.79172 0.100325 0)
(2.71387 0.113501 0)
(2.68573 0.0596928 0)
(2.64145 0.0457021 0)
(2.62205 -0.0171604 0)
(2.64025 -0.0475191 0)
(2.65828 -0.0398815 0)
(2.67188 -0.0293346 0)
(2.68879 -0.0231166 0)
(2.70516 -0.0369666 0)
(2.71776 -0.0486805 0)
(2.73385 -0.0457315 0)
(2.75222 -0.0359024 0)
(2.76759 -0.0287925 0)
(2.77431 -0.0161908 0)
(2.76125 -0.018584 0)
(2.72712 -0.0164573 0)
(2.68109 0.00459011 0)
(2.61191 0.031267 0)
(2.52849 0.0364486 0)
(2.42582 0.0534033 0)
(2.27079 0.0976453 0)
(2.03228 0.16639 0)
(1.71735 0.202203 0)
(1.3772 0.222258 0)
(1.04241 0.240523 0)
(0.729625 0.236378 0)
(0.454196 0.202799 0)
(0.221583 0.186014 0)
(0.0161608 0.213135 0)
(-0.190737 0.244972 0)
(-0.403952 0.250307 0)
(-0.620924 0.265229 0)
(-0.851858 0.329524 0)
(-1.11277 0.438462 0)
(-1.41951 0.491725 0)
(-1.73264 0.484404 0)
(-2.03415 0.465813 0)
(-2.32322 0.460375 0)
(-2.5963 0.443489 0)
(-2.84955 0.427565 0)
(-3.07644 0.397307 0)
(-3.27914 0.374675 0)
(-3.44468 0.330426 0)
(-3.58247 0.30484 0)
(-3.68365 0.258816 0)
(-3.73254 0.207796 0)
(-3.75289 0.168321 0)
(-3.73842 0.132518 0)
(-3.70535 0.0570241 0)
(-3.60102 -0.00822765 0)
(-3.46342 -0.0767296 0)
(-3.27997 -0.119125 0)
(-3.0633 -0.197227 0)
(-2.79 -0.312392 0)
(-2.43861 -0.390534 0)
(-2.02572 -0.411792 0)
(-1.55631 -0.42005 0)
(-1.0173 -0.408794 0)
(-0.413022 -0.356637 0)
(0.243109 -0.296996 0)
(0.94988 -0.263706 0)
(1.68 -0.235087 0)
(2.34436 -0.226894 0)
(2.8586 -0.271325 0)
(3.23257 -0.298198 0)
(3.5243 -0.291015 0)
(3.76792 -0.26427 0)
(3.97434 -0.241958 0)
(4.15658 -0.270965 0)
(4.38258 -0.253414 0)
(4.63715 -0.148339 0)
(4.88824 -0.0807494 0)
(5.11613 -0.0440847 0)
(5.32924 -0.0245589 0)
(5.53742 -0.028558 0)
(5.73257 -0.051179 0)
(5.85927 -0.00884157 0)
(5.89456 0.0425986 0)
(5.88244 0.0703124 0)
(5.85455 0.0676265 0)
(5.8318 0.0512265 0)
(5.81626 0.0466837 0)
(5.81364 0.0508589 0)
(5.81858 0.0739839 0)
(5.81225 0.0914043 0)
(5.7894 0.105419 0)
(5.74641 0.114476 0)
(5.68475 0.117195 0)
(5.61664 0.109507 0)
(5.55879 0.102625 0)
(5.51742 0.0969547 0)
(5.48945 0.0930532 0)
(5.47045 0.0884127 0)
(5.4604 0.0808046 0)
(5.45851 0.0775598 0)
(5.46484 0.076119 0)
(5.48018 0.074621 0)
(5.5 0.075523 0)
(5.52323 0.0751419 0)
(5.54929 0.0753273 0)
(5.57767 0.0741954 0)
(5.60877 0.0731269 0)
(5.64276 0.0713504 0)
(5.68023 0.0683278 0)
(5.72208 0.0627625 0)
(5.7697 0.0566514 0)
(5.8225 0.0503559 0)
(5.88038 0.0481437 0)
(5.94415 0.0464344 0)
(6.01332 0.0454225 0)
(6.08651 0.0444991 0)
(6.16343 0.0424379 0)
(6.24553 0.04148 0)
(6.33226 0.0405689 0)
(6.42012 0.0396961 0)
(6.50566 0.0386214 0)
(6.58736 0.0390699 0)
(6.66658 0.041017 0)
(6.7456 0.0418374 0)
(6.82586 0.0415551 0)
(6.90874 0.0404969 0)
(6.99605 0.0404553 0)
(7.08722 0.0400512 0)
(7.17864 0.0396495 0)
(7.26665 0.0384085 0)
(7.34984 0.0373908 0)
(7.42978 0.0381038 0)
(7.50877 0.0382692 0)
(7.58855 0.0381368 0)
(7.67049 0.0378084 0)
(7.7554 0.0368884 0)
(7.844 0.0364977 0)
(7.93483 0.0364795 0)
(8.02387 0.0362795 0)
(8.10849 0.0350252 0)
(8.18826 0.0337888 0)
(8.26447 0.0329707 0)
(8.33958 0.0323794 0)
(8.41562 0.0318939 0)
(8.49348 0.0321289 0)
(8.57347 0.0331851 0)
(8.65421 0.0346329 0)
(8.7328 0.0358671 0)
(8.8073 0.0358001 0)
(8.87677 0.0349156 0)
(8.94212 0.0346573 0)
(9.00552 0.0348387 0)
(9.0686 0.0348895 0)
(9.13247 0.0351238 0)
(9.19797 0.0358315 0)
(9.26429 0.0369677 0)
(9.32904 0.0370087 0)
(9.39059 0.0356862 0)
(9.44843 0.033874 0)
(9.50352 0.0328791 0)
(9.55778 0.0321746 0)
(9.61254 0.0314285 0)
(9.66859 0.0307086 0)
(9.72705 0.0301397 0)
(9.78802 0.030313 0)
(9.84938 0.0299557 0)
(9.90863 0.0281946 0)
(9.96401 0.026373 0)
(10.0153 0.0258876 0)
(10.0634 0.0271807 0)
(10.1096 0.0292557 0)
(10.1542 0.0314896 0)
(10.1971 0.0332376 0)
(10.2394 0.0356954 0)
(10.2824 0.0372182 0)
(10.3261 0.0369081 0)
(10.3698 0.034353 0)
(10.4127 0.0285091 0)
(10.4529 0.0246051 0)
(10.4888 0.0263548 0)
(10.5225 0.0273071 0)
(10.5565 0.0280317 0)
(10.592 0.0286499 0)
(10.6289 0.0284979 0)
(10.668 0.0284458 0)
(10.7101 0.0286142 0)
(10.7542 0.0280973 0)
(10.7995 0.0256383 0)
(10.845 0.0208208 0)
(10.8892 0.0170076 0)
(10.9311 0.0169536 0)
(10.9716 0.0162818 0)
(11.0121 0.0156082 0)
(11.0532 0.0157878 0)
(11.095 0.0164852 0)
(11.138 0.0176537 0)
(11.1823 0.0199772 0)
(11.2272 0.0223103 0)
(11.2715 0.0218176 0)
(11.3146 0.0188194 0)
(11.3554 0.0157005 0)
(11.3935 0.0158171 0)
(11.4301 0.0157173 0)
(11.4664 0.0159082 0)
(11.5035 0.0160127 0)
(11.5425 0.0165763 0)
(11.5838 0.0175662 0)
(11.627 0.0189488 0)
(11.671 0.0195706 0)
(11.7149 0.0180641 0)
(11.7575 0.0146471 0)
(11.7982 0.0123243 0)
(11.8371 0.0112943 0)
(11.8754 0.0101239 0)
(11.9144 0.00934159 0)
(11.9556 0.00977094 0)
(11.9995 0.0114147 0)
(12.0453 0.0126347 0)
(12.0913 0.0130823 0)
(12.136 0.0119464 0)
(12.1786 0.0106287 0)
(12.219 0.00877506 0)
(12.2579 0.00814696 0)
(12.2966 0.00809376 0)
(12.3365 0.00944114 0)
(12.3779 0.011144 0)
(12.4197 0.0120083 0)
(12.4604 0.0117505 0)
(12.4986 0.0106189 0)
(12.5344 0.00901941 0)
(12.5685 0.00851058 0)
(12.6021 0.00917097 0)
(12.6364 0.0107073 0)
(12.6719 0.0119055 0)
(12.7073 0.0122485 0)
(12.7412 0.0116812 0)
(12.7728 0.0100743 0)
(12.8026 0.00883921 0)
(12.8315 0.00895886 0)
(12.8603 0.00995041 0)
(12.8895 0.0108235 0)
(12.9184 0.0110662 0)
(12.9459 0.0105143 0)
(12.9714 0.00955508 0)
(12.9948 0.00909171 0)
(13.0169 0.00966008 0)
(13.0382 0.0108588 0)
(13.0589 0.0117346 0)
(13.0787 0.0121188 0)
(13.0967 0.0118954 0)
(13.113 0.0113903 0)
(13.1279 0.0111212 0)
(13.1418 0.0112126 0)
(13.1552 0.0113116 0)
(13.1683 0.0112226 0)
(13.1806 0.0106058 0)
(13.1921 0.00963135 0)
(13.2024 0.00884343 0)
(13.2117 0.0085273 0)
(13.2205 0.00845762 0)
(13.2289 0.00887255 0)
(13.2369 0.0093996 0)
(13.2438 0.00973456 0)
(13.2493 0.0096001 0)
(13.2534 0.0093839 0)
(13.2563 0.00902925 0)
(13.2583 0.00868488 0)
(13.2602 0.0085024 0)
(13.2616 0.00826929 0)
(13.2626 0.00795726 0)
(13.2629 0.00740189 0)
(13.2624 0.00636074 0)
(13.2611 0.00575746 0)
(13.2597 0.00578705 0)
(13.2584 0.00629195 0)
(13.2582 0.00674906 0)
(13.2588 0.00653061 0)
(13.2589 0.00601181 0)
(13.2573 0.00451663 0)
(13.2527 0.00317301 0)
(13.2463 0.00102228 0)
(13.2389 0.00137521 0)
(13.232 0.00404294 0)
(13.2259 0.00607818 0)
(13.2219 0.00750288 0)
(13.2198 0.00757653 0)
(13.2178 0.00744146 0)
(13.2142 0.00528209 0)
(13.2075 0.00202092 0)
(13.1991 -0.00150706 0)
(13.1905 -0.00233346 0)
(13.183 -0.000193398 0)
(13.177 0.00208936 0)
(13.1731 0.0033817 0)
(13.1718 0.00405862 0)
(13.1705 0.00442068 0)
(13.1676 0.00308692 0)
(13.1621 0.00112989 0)
(13.1558 -0.00233494 0)
(13.1494 -0.0018165 0)
(13.1445 -3.39932e-05 0)
(13.1421 0.00159943 0)
(13.1422 0.00238423 0)
(13.1435 0.00268966 0)
(13.1443 0.00178588 0)
(13.1431 -0.000466864 0)
(13.1402 -0.00268014 0)
(13.1369 -0.0023879 0)
(13.1348 -0.00237164 0)
(13.1336 -0.00065826 0)
(13.1351 0.0010864 0)
(0.0651972 -0.166528 0)
(0.0989044 -0.149599 0)
(0.165867 -0.112896 0)
(0.23221 -0.0973289 0)
(0.293818 -0.0962631 0)
(0.351246 -0.0940793 0)
(0.401742 -0.0842628 0)
(0.443824 -0.0690928 0)
(0.477 -0.0564173 0)
(0.497622 -0.033618 0)
(0.521602 -0.0167133 0)
(0.545916 -0.00721374 0)
(0.571808 -0.000662482 0)
(0.60029 0.00271149 0)
(0.638682 -0.000189906 0)
(0.678099 -0.0321698 0)
(0.72266 -0.0611347 0)
(0.756637 -0.081195 0)
(0.786963 -0.10017 0)
(0.828833 -0.116128 0)
(0.876245 -0.136029 0)
(0.928213 -0.165194 0)
(0.988813 -0.186371 0)
(1.05759 -0.201057 0)
(1.13368 -0.217076 0)
(1.21633 -0.234277 0)
(1.29928 -0.249213 0)
(1.37945 -0.259371 0)
(1.4569 -0.259253 0)
(1.53647 -0.24684 0)
(1.60377 -0.221628 0)
(1.65161 -0.196717 0)
(1.67466 -0.157251 0)
(1.68593 -0.116731 0)
(1.70288 -0.0896495 0)
(1.68191 -0.042959 0)
(1.65308 0.0192395 0)
(1.59641 0.0682117 0)
(1.51345 0.110721 0)
(1.41257 0.147994 0)
(1.29409 0.183652 0)
(1.14571 0.220551 0)
(0.96778 0.265479 0)
(0.760048 0.301456 0)
(0.532905 0.309746 0)
(0.29703 0.308433 0)
(0.0592204 0.303909 0)
(-0.167844 0.281642 0)
(-0.374126 0.261528 0)
(-0.557458 0.236001 0)
(-0.717446 0.204731 0)
(-0.859422 0.178591 0)
(-0.982879 0.147274 0)
(-1.10828 0.122404 0)
(-1.25767 0.122276 0)
(-1.44093 0.144921 0)
(-1.64224 0.312133 0)
(-1.92539 0.474311 0)
(-2.28937 0.616339 0)
(-2.84305 0.72572 0)
(-3.60224 0.713927 0)
(-4.43222 0.666088 0)
(-5.2802 0.603358 0)
(-6.15506 0.626915 0)
(-7.06292 0.715018 0)
(-7.98884 0.784637 0)
(-8.91054 0.941346 0)
(-9.81712 1.09771 0)
(-10.6468 1.29413 0)
(-11.3546 1.51659 0)
(-11.9292 1.61082 0)
(-12.3579 1.59793 0)
(-12.7131 1.51827 0)
(-13.0368 1.44224 0)
(-13.3444 1.35 0)
(-13.6195 1.21148 0)
(-13.7958 1.00253 0)
(-13.9411 0.820085 0)
(-14.057 0.697959 0)
(-14.156 0.597453 0)
(-14.1944 0.430023 0)
(-14.2214 0.319906 0)
(-14.1463 0.200847 0)
(-14.0422 -0.0082743 0)
(-13.8508 -0.197981 0)
(-13.6067 -0.329115 0)
(-13.2505 -0.494816 0)
(-12.8504 -0.728816 0)
(-12.3871 -1.02995 0)
(-11.6731 -1.38777 0)
(-10.7824 -1.69287 0)
(-9.82551 -1.90903 0)
(-8.79377 -2.03216 0)
(-7.70883 -2.04826 0)
(-6.6137 -1.95437 0)
(-5.51478 -1.80856 0)
(-4.39095 -1.70243 0)
(-3.22676 -1.65181 0)
(-2.00555 -1.66684 0)
(-0.704275 -1.69985 0)
(0.626239 -1.86603 0)
(1.96409 -2.00374 0)
(3.33888 -2.05725 0)
(4.74593 -2.03857 0)
(6.19597 -1.99147 0)
(7.63875 -2.15154 0)
(9.08812 -2.18545 0)
(10.4856 -1.62536 0)
(11.884 -1.81021 0)
(13.0576 -2.09225 0)
(14.0836 -2.20914 0)
(15.0345 -2.22616 0)
(15.9671 -2.09574 0)
(16.8981 -1.92758 0)
(17.8339 -1.7594 0)
(18.7572 -1.5561 0)
(19.6307 -1.27367 0)
(20.3849 -0.854584 0)
(20.9365 -0.329114 0)
(21.3087 0.090834 0)
(21.5293 0.368838 0)
(21.5975 0.629917 0)
(21.6047 0.813786 0)
(21.5601 0.852631 0)
(21.4655 0.810168 0)
(21.2 0.777065 0)
(20.7123 0.870005 0)
(20.0493 1.07391 0)
(19.3288 1.28942 0)
(18.6177 1.36707 0)
(18.0424 1.19056 0)
(17.7106 1.008 0)
(17.4223 0.969452 0)
(17.0001 0.895908 0)
(16.3228 0.820199 0)
(15.4351 0.743808 0)
(14.5281 0.627397 0)
(13.7573 0.625267 0)
(13.1862 0.70663 0)
(12.7616 0.748384 0)
(12.4117 0.728646 0)
(12.1046 0.697848 0)
(11.8392 0.624106 0)
(11.6359 0.485974 0)
(11.4682 0.346098 0)
(11.3152 0.25557 0)
(11.1974 0.20064 0)
(11.1241 0.143962 0)
(11.0832 0.0970113 0)
(11.0771 0.0546508 0)
(11.1023 0.0228761 0)
(11.1457 -0.0217263 0)
(11.2121 -0.077044 0)
(11.2986 -0.140343 0)
(11.4288 -0.185505 0)
(11.6156 -0.218558 0)
(11.867 -0.218995 0)
(12.169 -0.195829 0)
(12.4867 -0.171803 0)
(12.7702 -0.170414 0)
(12.9745 -0.187516 0)
(13.0884 -0.19241 0)
(13.1373 -0.169956 0)
(13.1381 -0.133833 0)
(13.1023 -0.0849752 0)
(13.0378 -0.0135795 0)
(12.9926 0.122909 0)
(12.8938 0.206473 0)
(12.768 0.273096 0)
(12.5945 0.329483 0)
(12.3667 0.387619 0)
(12.0828 0.431831 0)
(11.76 0.449345 0)
(11.4277 0.404841 0)
(11.1155 0.297125 0)
(10.8287 0.188715 0)
(10.5614 0.142978 0)
(10.2977 0.181825 0)
(10.0078 0.287381 0)
(9.66577 0.428107 0)
(9.23081 0.530724 0)
(8.73413 0.575774 0)
(8.26631 0.549424 0)
(7.90197 0.467081 0)
(7.6551 0.336785 0)
(7.49774 0.209346 0)
(7.35873 0.141504 0)
(7.21283 0.0958688 0)
(7.07558 0.0347614 0)
(6.95594 0.0268223 0)
(6.8555 0.0522433 0)
(6.79127 0.0865325 0)
(6.7715 0.12344 0)
(6.77631 0.232409 0)
(6.69458 0.123814 0)
(6.49914 0.0647624 0)
(6.32484 0.0568448 0)
(6.26474 -0.0359637 0)
(6.2919 -0.0542662 0)
(6.37821 -0.0348581 0)
(6.48919 -0.0339398 0)
(6.58633 -0.0337357 0)
(6.67041 -0.044151 0)
(6.74312 -0.0233329 0)
(6.77715 -0.0635051 0)
(6.77574 -0.0606668 0)
(6.7581 -0.0533178 0)
(6.73993 -0.0297613 0)
(6.74295 0.031378 0)
(6.77984 0.0476064 0)
(6.80142 0.102823 0)
(6.74315 0.0958567 0)
(6.44998 0.0555455 0)
(5.95225 0.130333 0)
(5.38277 0.287495 0)
(4.84038 0.545172 0)
(4.34966 0.699903 0)
(3.94921 0.757051 0)
(3.60065 0.745037 0)
(3.28233 0.687052 0)
(3.01516 0.586552 0)
(2.81854 0.488586 0)
(2.64846 0.463551 0)
(2.47269 0.467068 0)
(2.25812 0.437229 0)
(1.9657 0.427034 0)
(1.55374 0.486312 0)
(1.03672 0.631968 0)
(0.472425 0.726763 0)
(-0.0489707 0.741116 0)
(-0.476057 0.71859 0)
(-0.814451 0.704259 0)
(-1.09201 0.659482 0)
(-1.33358 0.621045 0)
(-1.53897 0.567939 0)
(-1.72254 0.511758 0)
(-1.88484 0.43397 0)
(-2.05807 0.387651 0)
(-2.19636 0.29909 0)
(-2.24212 0.217178 0)
(-2.20123 0.199288 0)
(-2.01295 0.158172 0)
(-1.71232 0.00406548 0)
(-1.29489 -0.100032 0)
(-0.814027 -0.18206 0)
(-0.308231 -0.255748 0)
(0.146119 -0.392797 0)
(0.517244 -0.605521 0)
(0.881872 -0.795267 0)
(1.28382 -0.928402 0)
(1.71986 -1.0713 0)
(2.2163 -1.22229 0)
(2.78312 -1.32026 0)
(3.38344 -1.39426 0)
(4.00911 -1.47285 0)
(4.71187 -1.42222 0)
(5.47646 -1.15379 0)
(6.27095 -0.822501 0)
(7.09714 -0.594139 0)
(7.95219 -0.44956 0)
(8.83515 -0.331239 0)
(9.70322 -0.231231 0)
(10.4427 -0.208199 0)
(10.7676 -0.400808 0)
(10.8452 -0.399431 0)
(10.8524 -0.35026 0)
(10.9139 -0.314411 0)
(11.0161 -0.330302 0)
(11.1318 -0.36544 0)
(11.2958 -0.308369 0)
(11.4197 -0.0622635 0)
(11.5748 0.0934716 0)
(11.6924 0.160803 0)
(11.7743 0.180423 0)
(11.8438 0.167185 0)
(11.8942 0.137775 0)
(11.9186 0.119121 0)
(11.9059 0.129933 0)
(11.8523 0.167593 0)
(11.7719 0.2195 0)
(11.6873 0.272277 0)
(11.6172 0.313662 0)
(11.561 0.312332 0)
(11.533 0.280304 0)
(11.5169 0.250439 0)
(11.4992 0.230004 0)
(11.4787 0.215283 0)
(11.464 0.194103 0)
(11.4485 0.183952 0)
(11.4476 0.158325 0)
(11.4447 0.148702 0)
(11.4457 0.146982 0)
(11.4478 0.144664 0)
(11.4525 0.1444 0)
(11.4583 0.142082 0)
(11.4671 0.14001 0)
(11.4806 0.136646 0)
(11.5006 0.130767 0)
(11.5316 0.12164 0)
(11.5784 0.109849 0)
(11.6449 0.104428 0)
(11.726 0.0951956 0)
(11.8118 0.0851532 0)
(11.896 0.0779879 0)
(11.9755 0.0726174 0)
(12.0501 0.0649499 0)
(12.1194 0.0514152 0)
(12.1868 0.0446664 0)
(12.2571 0.0456531 0)
(12.3367 0.0547314 0)