/*--------------------------------*- C++ -*----------------------------------*\
| =========                 |                                                 |
| \\      /  F ield         | OpenFOAM: The Open Source CFD Toolbox           |
|  \\    /   O peration     | Version:  v1812                                 |
|   \\  /    A nd           | Web:      www.OpenFOAM.com                      |
|    \\/     M anipulation  |                                                 |
\*---------------------------------------------------------------------------*/
FoamFile
{
    version     2.0;
    format      ascii;
    class       volScalarField;
    location    "0.8";
    object      p;
}
// * * * * * * * * * * * * * * * * * * * * * * * * * * * * * * * * * * * * * //

dimensions      [1 -1 -2 0 0 0 0];


internalField   nonuniform List<scalar> 
64512
(
1
1
1
1
1
1
1
1
1
1
1
1
1
1
1
1
1
1
1
1
1
1
1
1
1
1
1
1
1
1
1
1
1
1
1
1
1
1
1
1
1
1
1
1
1
1
1
1
1
1
1
1
1
1.00001
1.00059
1.03765
3.28314
9.52875
10.7014
10.9388
11.0066
11.0874
11.1584
11.2331
11.3033
11.3762
11.4548
11.5272
11.5917
11.6509
11.7008
11.7385
11.7682
11.7962
11.8264
11.8584
11.8925
11.9265
11.9571
11.9846
12.0111
12.0372
12.0627
12.0873
12.111
12.1332
12.1536
12.1722
12.1904
12.2101
12.2327
12.2573
12.2828
12.3038
12.3212
12.3319
1
1
1
1
1
1
1
1
1
1
1
1
1
1
1
1
1
1
1
1
1
1
1
1
1
1
1
1
1
1
1
1
1
1
1
1
1
1
1
1
1
1
1
1
1
1
1
1
1
1
1
1
1
1.00001
1.00059
1.03798
3.30185
9.39667
10.6863
10.9327
11.0173
11.0857
11.1608
11.2277
11.2984
11.3726
11.449
11.5251
11.5919
11.6496
11.7005
11.7381
11.7652
11.7906
11.8196
11.8518
11.8859
11.921
11.9542
11.9834
12.01
12.0357
12.0607
12.0848
12.108
12.13
12.1503
12.1692
12.1879
12.208
12.2309
12.2556
12.281
12.3024
12.32
12.3308
1
1
1
1
1
1
1
1
1
1
1
1
1
1
1
1
1
1
1
1
1
1
1
1
1
1
1
1
1
1
1
1
1
1
1
1
1
1
1
1
1
1
1
1
1
1
1
1
1
1
1
1
1
1.00001
1.0006
1.0386
3.35803
9.19757
10.6889
10.9274
11.0253
11.1027
11.1701
11.2308
11.2967
11.3743
11.4518
11.5248
11.5924
11.6501
11.6958
11.7306
11.7569
11.7815
11.8082
11.8398
11.8761
11.914
11.9496
11.9809
12.0081
12.0335
12.058
12.0816
12.1043
12.1259
12.146
12.1649
12.1839
12.2044
12.2276
12.253
12.2788
12.301
12.3191
12.3301
1
1
1
1
1
1
1
1
1
1
1
1
1
1
1
1
1
1
1
1
1
1
1
1
1
1
1
1
1
1
1
1
1
1
1
1
1
1
1
1
1
1
1
1
1
1
1
1
1
1
1
1
1
1.00001
1.00056
1.03604
3.21912
9.02778
10.7384
10.9125
11.0223
11.1074
11.1756
11.2312
11.2939
11.3707
11.4452
11.5182
11.5871
11.6456
11.6902
11.7224
11.746
11.7696
11.7949
11.8271
11.8645
11.904
11.9416
11.9745
12.0024
12.0277
12.0515
12.0745
12.0969
12.1181
12.138
12.157
12.1762
12.1973
12.2212
12.2472
12.2734
12.296
12.3142
12.3251
1
1
1
1
1
1
1
1
1
1
1
1
1
1
1
1
1
1
1
1
1
1
1
1
1
1
1
1
1
1
1
1
1
1
1
1
1
1
1
1
1
1
1
1
1
1
1
1
1
1
1
1
1
1.00001
1.00048
1.03134
2.96594
8.92419
10.8186
10.9464
11.023
11.1165
11.1802
11.2282
11.2907
11.3682
11.4407
11.5132
11.5825
11.639
11.6803
11.7097
11.7327
11.7575
11.7816
11.8131
11.8509
11.8917
11.9311
11.9659
11.9952
12.021
12.0447
12.0675
12.0894
12.11
12.1294
12.1481
12.1676
12.1893
12.2139
12.2408
12.2677
12.2911
12.3094
12.3206
1
1
1
1
1
1
1
1
1
1
1
1
1
1
1
1
1
1
1
1
1
1
1
1
1
1
1
1
1
1
1
1
1
1
1
1
1
1
1
1
1
1
1
1
1
1
1
1
1
1
1
1
1
1.00001
1.00038
1.02532
2.62331
8.83862
10.8726
10.9825
11.0279
11.1135
11.1747
11.2206
11.2832
11.3618
11.4344
11.5068
11.5757
11.6302
11.6693
11.6969
11.7197
11.7436
11.7678
11.7986
11.8359
11.8772
11.918
11.9546
11.9854
12.0118
12.0355
12.0579
12.079
12.0988
12.1174
12.1359
12.1554
12.1778
12.2032
12.2307
12.2581
12.2816
12.2995
12.3106
1
1
1
1
1
1
1
1
1
1
1
1
1
1
1
1
1
1
1
1
1
1
1
1
1
1
1
1
1
1
1
1
1
1
1
1
1
1
1
1
1
1
1
1
1
1
1
1
1
1
1
1
1
1
1.00027
1.01865
2.22361
8.74628
10.9073
11.0132
11.0465
11.1176
11.1661
11.2105
11.2738
11.3519
11.4253
11.4978
11.5663
11.6198
11.6569
11.6829
11.7047
11.727
11.7516
11.7826
11.82
11.8618
11.9039
11.942
11.9743
12.0015
12.0254
12.0473
12.0674
12.086
12.1038
12.1218
12.1414
12.1644
12.1906
12.2187
12.2463
12.2699
12.287
12.2981
1
1
1
1
1
1
1
1
1
1
1
1
1
1
1
1
1
1
1
1
1
1
1
1
1
1
1
1
1
1
1
1
1
1
1
1
1
1
1
1
1
1
1
1
1
1
1
1
1
1
1
1
1
1
1.00018
1.01226
1.825
8.62321
10.9172
11.0236
11.0497
11.1129
11.1519
11.1979
11.2624
11.3384
11.4123
11.4856
11.5537
11.6079
11.6431
11.6678
11.688
11.7088
11.7332
11.7644
11.8022
11.8448
11.8883
11.928
11.9617
11.9898
12.0138
12.0349
12.0538
12.0712
12.088
12.1055
12.1253
12.1487
12.1754
12.2036
12.2309
12.2541
12.27
12.281
1
1
1
1
1
1
1
1
1
1
1
1
1
1
1
1
1
1
1
1
1
1
1
1
1
1
1
1
1
1
1
1
1
1
1
1
1
1
1
1
1
1
1
1
1
1
1
1
1
1
1
1
1
1
1.0001
1.00692
1.47857
8.45221
10.9035
11.0226
11.0439
11.1072
11.1396
11.1839
11.248
11.321
11.3946
11.4697
11.5374
11.5915
11.6266
11.6503
11.6689
11.6881
11.7123
11.7438
11.7825
11.8263
11.8711
11.9121
11.9471
11.9759
11.9998
12.0201
12.0378
12.0541
12.0702
12.0874
12.1073
12.1312
12.1579
12.1856
12.2122
12.2346
12.249
12.2598
1
1
1
1
1
1
1
1
1
1
1
1
1
1
1
1
1
1
1
1
1
1
1
1
1
1
1
1
1
1
1
1
1
1
1
1
1
1
1
1
1
1
1
1
1
1
1
1
1
1
1
1
1
1
1.00005
1.00339
1.23044
8.21494
10.8072
11.0071
11.0328
11.0914
11.1183
11.1636
11.2295
11.2992
11.3724
11.4498
11.5186
11.5733
11.6087
11.6311
11.6477
11.6654
11.6892
11.7211
11.7607
11.8054
11.8514
11.8936
11.9296
11.9591
11.9829
12.0025
12.0193
12.0348
12.0506
12.0678
12.088
12.112
12.1383
12.1649
12.19
12.2112
12.2236
12.2341
1
1
1
1
1
1
1
1
1
1
1
1
1
1
1
1
1
1
1
1
1
1
1
1
1
1
1
1
1
1
1
1
1
1
1
1
1
1
1
1
1
1
1
1
1
1
1
1
1
1
1
1
1
1
1.00004
1.00221
1.13433
7.88979
10.658
10.9735
11.0194
11.0672
11.0965
11.1435
11.2111
11.2744
11.3482
11.4286
11.4983
11.5522
11.5867
11.6078
11.6229
11.6399
11.6636
11.6961
11.7366
11.7823
11.8291
11.8723
11.9092
11.9392
11.9629
11.9818
11.9979
12.0131
12.0289
12.0463
12.0668
12.0906
12.116
12.141
12.1643
12.184
12.1944
12.2047
1
1
1
1
1
1
1
1
1
1
1
1
1
1
1
1
1
1
1
1
1
1
1
1
1
1
1
1
1
1
1
1
1
1
1
1
1
1
1
1
1
1
1
1
1
1
1
1
1
1
1
1
1
1
1.00003
1.002
1.12155
7.46822
10.5067
10.9275
11.0053
11.0282
11.0717
11.1156
11.1894
11.2455
11.323
11.4078
11.477
11.5284
11.5612
11.5812
11.5955
11.6127
11.6367
11.6699
11.711
11.7573
11.8047
11.8485
11.8859
11.916
11.9394
11.9579
11.9738
11.9892
12.0054
12.0233
12.044
12.0672
12.0911
12.1139
12.1349
12.1529
12.1612
12.1711
1
1
1
1
1
1
1
1
1
1
1
1
1
1
1
1
1
1
1
1
1
1
1
1
1
1
1
1
1
1
1
1
1
1
1
1
1
1
1
1
1
1
1
1
1
1
1
1
1
1
1
1
1
1
1.00003
1.00182
1.11101
6.99095
10.3671
10.882
10.9671
10.9855
11.029
11.0802
11.158
11.2132
11.298
11.3861
11.4524
11.5002
11.5313
11.5507
11.5656
11.5838
11.6089
11.6429
11.6843
11.7309
11.7783
11.822
11.8593
11.8892
11.9122
11.9308
11.9471
11.963
11.9799
11.9982
12.0185
12.0407
12.0626
12.0831
12.1019
12.1181
12.1247
12.1343
1
1
1
1
1
1
1
1
1
1
1
1
1
1
1
1
1
1
1
1
1
1
1
1
1
1
1
1
1
1
1
1
1
1
1
1
1
1
1
1
1
1
1
1
1
1
1
1
1
1
1
1
1
1
1.00003
1.00163
1.09949
6.44504
10.2299
10.8347
10.8847
10.9369
10.9832
11.048
11.1102
11.1837
11.2759
11.3624
11.4228
11.4668
11.4972
11.5172
11.5336
11.5538
11.5804
11.6152
11.6566
11.7027
11.7494
11.7924
11.8291
11.8585
11.8815
11.9006
11.9177
11.9346
11.9522
11.9705
11.9901
12.0107
12.0305
12.0487
12.0651
12.0796
12.0844
12.0935
1
1
1
1
1
1
1
1
1
1
1
1
1
1
1
1
1
1
1
1
1
1
1
1
1
1
1
1
1
1
1
1
1
1
1
1
1
1
1
1
1
1
1
1
1
1
1
1
1
1
1
1
1
1
1.00002
1.00145
1.08816
5.86838
10.0727
10.7645
10.8244
10.8684
10.9352
11.0186
11.0624
11.1577
11.2528
11.3343
11.3867
11.4288
11.4599
11.4819
11.5005
11.5232
11.5514
11.5865
11.6272
11.6721
11.7176
11.7594
11.795
11.824
11.8474
11.8674
11.8857
11.9036
11.9215
11.9394
11.9577
11.9764
11.9941
12.0102
12.0243
12.0373
12.0403
12.0491
1
1
1
1
1
1
1
1
1
1
1
1
1
1
1
1
1
1
1
1
1
1
1
1
1
1
1
1
1
1
1
1
1
1
1
1
1
1
1
1
1
1
1
1
1
1
1
1
1
1
1
1
1
1
1.00002
1.00129
1.0784
5.36793
9.85821
10.616
10.7543
10.8079
10.8956
10.9579
11.0421
11.1354
11.2246
11.2986
11.3461
11.3883
11.4213
11.4454
11.467
11.4922
11.5217
11.5566
11.5957
11.6388
11.6824
11.7226
11.7571
11.7859
11.8099
11.8313
11.8508
11.8694
11.8871
11.904
11.9209
11.9377
11.9534
11.9676
11.9795
11.9908
11.9917
11.9997
1
1
1
1
1
1
1
1
1
1
1
1
1
1
1
1
1
1
1
1
1
1
1
1
1
1
1
1
1
1
1
1
1
1
1
1
1
1
1
1
1
1
1
1
1
1
1
1
1
1
1
1
1
1
1.00002
1.00111
1.06862
4.89142
9.57966
10.4954
10.7008
10.774
10.8607
10.9168
11.0242
11.113
11.1953
11.2555
11.3035
11.3476
11.3821
11.4086
11.4337
11.4612
11.4913
11.525
11.5619
11.6025
11.6439
11.6822
11.7156
11.7443
11.7693
11.792
11.8124
11.8311
11.8482
11.8637
11.8789
11.894
11.908
11.9203
11.9299
11.9396
11.9381
11.9453
1
1
1
1
1
1
1
1
1
1
1
1
1
1
1
1
1
1
1
1
1
1
1
1
1
1
1
1
1
1
1
1
1
1
1
1
1
1
1
1
1
1
1
1
1
1
1
1
1
1
1
1
1
1
1.00001
1.00088
1.05545
4.24648
9.2839
10.467
10.6665
10.7657
10.8318
10.9285
11.0087
11.0885
11.16
11.2113
11.2609
11.3095
11.3428
11.3724
11.4009
11.4299
11.4597
11.4912
11.5251
11.563
11.602
11.6384
11.6707
11.6996
11.7256
11.7492
11.77
11.7882
11.804
11.8183
11.8319
11.8455
11.858
11.8681
11.8752
11.8831
11.8783
11.8846
1
1
1
1
1
1
1
1
1
1
1
1
1
1
1
1
1
1
1
1
1
1
1
1
1
1
1
1
1
1
1
1
1
1
1
1
1
1
1
1
1
1
1
1
1
1
1
1
1
1
1
1
1
1
1.00001
1.00057
1.03725
3.30213
9.06309
10.5165
10.7304
10.7623
10.8699
10.9265
10.9898
11.0629
11.1173
11.1694
11.2222
11.2735
11.3048
11.3377
11.3686
11.3978
11.4261
11.4544
11.485
11.5202
11.5568
11.5914
11.6229
11.6518
11.6785
11.7024
11.7228
11.74
11.7543
11.7672
11.7793
11.7917
11.8022
11.8097
11.8142
11.8207
11.812
11.8184
1
1
1
1
1
1
1
1
1
1
1
1
1
1
1
1
1
1
1
1
1
1
1
1
1
1
1
1
1
1
1
1
1
1
1
1
1
1
1
1
1
1
1
1
1
1
1
1
1
1
1
1
1
1
1
1.00025
1.01702
2.12983
8.82836
10.6772
10.8221
10.7861
10.8693
10.9209
10.9747
11.028
11.0771
11.1302
11.1892
11.2355
11.2697
11.3049
11.3365
11.3635
11.3892
11.4137
11.4415
11.4743
11.5088
11.5418
11.5724
11.6012
11.6277
11.651
11.6703
11.686
11.699
11.7109
11.7215
11.7325
11.7403
11.7444
11.7461
11.751
11.7386
11.746
1
1
1
1
1
1
1
1
1
1
1
1
1
1
1
1
1
1
1
1
1
1
1
1
1
1
1
1
1
1
1
1
1
1
1
1
1
1
1
1
1
1
1
1
1
1
1
1
1
1
1
1
1
1
1
1.00006
1.00399
1.22475
8.17564
10.7135
10.8117
10.7823
10.8619
10.91
10.9533
10.9918
11.04
11.0965
11.157
11.1957
11.2369
11.274
11.3032
11.3257
11.348
11.3688
11.3946
11.4256
11.4583
11.4898
11.5194
11.5474
11.5728
11.5946
11.6121
11.6262
11.6381
11.6487
11.6573
11.6655
11.6691
11.6694
11.669
11.673
11.6591
11.6699
1
1
1
1
1
1
1
1
1
1
1
1
1
1
1
1
1
1
1
1
1
1
1
1
1
1
1
1
1
1
1
1
1
1
1
1
1
1
1
1
1
1
1
1
1
1
1
1
1
1
1
1
1
1
1
1.00003
1.00186
1.11393
7.0488
10.5415
10.777
10.7719
10.8416
10.89
10.9226
10.9608
11.0069
11.0661
11.1153
11.1599
11.2068
11.2419
11.2659
11.2836
11.3015
11.3202
11.3449
11.3742
11.4054
11.4356
11.4638
11.4902
11.5135
11.5329
11.5482
11.5607
11.5714
11.5802
11.5861
11.5896
11.5879
11.5849
11.583
11.5865
11.5721
11.585
1
1
1
1
1
1
1
1
1
1
1
1
1
1
1
1
1
1
1
1
1
1
1
1
1
1
1
1
1
1
1
1
1
1
1
1
1
1
1
1
1
1
1
1
1
1
1
1
1
1
1
1
1
1
1
1.00002
1.00141
1.08765
5.90056
10.2355
10.7372
10.7704
10.8338
10.8628
10.8972
10.9314
10.977
11.0282
11.0711
11.1286
11.1736
11.2041
11.2221
11.237
11.251
11.269
11.2926
11.3204
11.35
11.3786
11.4051
11.429
11.4494
11.4659
11.4788
11.4893
11.4984
11.5042
11.5053
11.502
11.4943
11.4886
11.4865
11.4908
11.4755
11.492
1
1
1
1
1
1
1
1
1
1
1
1
1
1
1
1
1
1
1
1
1
1
1
1
1
1
1
1
1
1
1
1
1
1
1
1
1
1
1
1
1
1
1
1
1
1
1
1
1
1
1
1
1
1
1
1.00002
1.00104
1.0651
4.73664
9.81377
10.7143
10.7836
10.815
10.8526
10.8736
10.9047
10.9441
10.9805
11.0398
11.0924
11.1315
11.1595
11.1726
11.1861
11.1987
11.2158
11.2378
11.2639
11.2916
11.3181
11.3421
11.363
11.3801
11.3934
11.4037
11.4118
11.4181
11.4193
11.4139
11.4024
11.3896
11.383
11.381
11.3845
11.3654
11.3786
1
1
1
1
1
1
1
1
1
1
1
1
1
1
1
1
1
1
1
1
1
1
1
1
1
1
1
1
1
1
1
1
1
1
1
1
1
1
1
1
1
1
1
1
1
1
1
1
1
1
1
1
1
1
1
1.00001
1.00066
1.04185
3.4937
9.39028
10.6968
10.7848
10.8078
10.8328
10.8479
10.873
10.9047
10.9536
11.0024
11.0465
11.0822
11.1073
11.1194
11.1332
11.1442
11.1604
11.1807
11.2046
11.2297
11.2533
11.274
11.2914
11.305
11.315
11.3224
11.3277
11.3299
11.3244
11.3101
11.2903
11.2738
11.266
11.2624
11.2636
11.2374
11.2421
1
1
1
1
1
1
1
1
1
1
1
1
1
1
1
1
1
1
1
1
1
1
1
1
1
1
1
1
1
1
1
1
1
1
1
1
1
1
1
1
1
1
1
1
1
1
1
1
1
1
1
1
1
1
1
1
1.00031
1.01981
2.21935
8.91305
10.7126
10.7585
10.7664
10.7833
10.813
10.8478
10.8767
10.9128
10.9548
10.9932
11.0295
11.0475
11.0652
11.0777
11.0873
11.1023
11.121
11.1422
11.1635
11.1831
11.1999
11.2135
11.2235
11.2302
11.2343
11.2357
11.2318
11.2177
11.1938
11.1669
11.1477
11.1382
11.1302
11.125
11.0944
11.0609
1
1
1
1
1
1
1
1
1
1
1
1
1
1
1
1
1
1
1
1
1
1
1
1
1
1
1
1
1
1
1
1
1
1
1
1
1
1
1
1
1
1
1
1
1
1
1
1
1
1
1
1
1
1
1
1
1.00009
1.00507
1.24612
8.00499
10.614
10.7568
10.7319
10.7488
10.7772
10.7978
10.8252
10.8621
10.9007
10.9405
10.9684
10.9911
11.008
11.0179
11.0286
11.0422
11.0588
11.076
11.0923
11.1072
11.1197
11.1295
11.1359
11.1389
11.139
11.1349
11.1228
11.0992
11.0659
11.0324
11.0078
10.9906
10.97
10.9487
10.927
10.8525
1
1
1
1
1
1
1
1
1
1
1
1
1
1
1
1
1
1
1
1
1
1
1
1
1
1
1
1
1
1
1
1
1
1
1
1
1
1
1
1
1
1
1
1
1
1
1
1
1
1
1
1
1
1
1
1
1.00003
1.00187
1.10991
6.69777
10.2338
10.6348
10.6764
10.7024
10.7231
10.7481
10.7794
10.8132
10.8492
10.883
10.9111
10.9338
10.948
10.957
10.9683
10.9808
10.9936
11.0055
11.0165
11.0263
11.0343
11.0399
11.0423
11.0409
11.0352
11.0234
11.0023
10.9684
10.9254
10.8836
10.8487
10.816
10.7747
10.7214
10.6757
10.6655
1
1
1
1
1
1
1
1
1
1
1
1
1
1
1
1
1
1
1
1
1
1
1
1
1
1
1
1
1
1
1
1
1
1
1
1
1
1
1
1
1
1
1
1
1
1
1
1
1
1
1
1
1
1
1
1
1.00002
1.00132
1.0813
5.54013
9.73681
10.4688
10.5886
10.6416
10.6751
10.7003
10.7291
10.7622
10.7975
10.8284
10.8564
10.8748
10.8861
10.8979
10.9082
10.9167
10.9242
10.9303
10.9366
10.9413
10.9445
10.946
10.9436
10.9357
10.9227
10.9021
10.8706
10.8253
10.7714
10.7172
10.6641
10.604
10.5281
10.4471
10.3729
10.4217
1
1
1
1
1
1
1
1
1
1
1
1
1
1
1
1
1
1
1
1
1
1
1
1
1
1
1
1
1
1
1
1
1
1
1
1
1
1
1
1
1
1
1
1
1
1
1
1
1
1
1
1
1
1
1
1
1.00002
1.00095
1.05935
4.42056
9.30109
10.3758
10.5358
10.5582
10.6019
10.6427
10.6825
10.7145
10.7421
10.7722
10.7973
10.8139
10.8292
10.84
10.846
10.8487
10.8514
10.8522
10.8542
10.8538
10.8527
10.8489
10.8396
10.824
10.802
10.7707
10.7271
10.6691
10.6011
10.5283
10.449
10.3556
10.2445
10.1325
10.046
9.96267
1
1
1
1
1
1
1
1
1
1
1
1
1
1
1
1
1
1
1
1
1
1
1
1
1
1
1
1
1
1
1
1
1
1
1
1
1
1
1
1
1
1
1
1
1
1
1
1
1
1
1
1
1
1
1
1
1.00001
1.00053
1.03419
3.07105
9.02002
10.2975
10.4631
10.473
10.5315
10.5791
10.6222
10.6558
10.6826
10.7125
10.7387
10.759
10.7722
10.7784
10.779
10.7781
10.777
10.773
10.7692
10.7642
10.7581
10.7478
10.7309
10.7066
10.6741
10.6306
10.5733
10.5006
10.4146
10.3176
10.2055
10.07
9.90333
9.70307
9.47973
9.34953
1
1
1
1
1
1
1
1
1
1
1
1
1
1
1
1
1
1
1
1
1
1
1
1
1
1
1
1
1
1
1
1
1
1
1
1
1
1
1
1
1
1
1
1
1
1
1
1
1
1
1
1
1
1
1
1
1
1.00017
1.01071
1.62649
8.45338
10.2455
10.433
10.4551
10.4924
10.5345
10.5667
10.5968
10.6227
10.6542
10.6821
10.7018
10.7122
10.7152
10.7128
10.7084
10.7018
10.6927
10.6825
10.6724
10.6605
10.6433
10.618
10.5837
10.5392
10.4823
10.4103
10.3206
10.2127
10.0864
9.93381
9.74351
9.5003
9.18906
8.74169
8.14784
1
1
1
1
1
1
1
1
1
1
1
1
1
1
1
1
1
1
1
1
1
1
1
1
1
1
1
1
1
1
1
1
1
1
1
1
1
1
1
1
1
1
1
1
1
1
1
1
1
1
1
1
1
1
1
1
1
1.00004
1.00242
1.13674
7.01755
9.93604
10.3348
10.4077
10.4625
10.489
10.5091
10.5344
10.5619
10.5944
10.622
10.6408
10.6501
10.6521
10.6471
10.6389
10.6257
10.6105
10.5938
10.5772
10.5585
10.5338
10.4998
10.4551
10.3986
10.3282
10.2407
10.1324
10.0003
9.84034
9.64141
9.38585
9.03813
8.53041
7.59546
5.51017
1
1
1
1
1
1
1
1
1
1
1
1
1
1
1
1
1
1
1
1
1
1
1
1
1
1
1
1
1
1
1
1
1
1
1
1
1
1
1
1
1
1
1
1
1
1
1
1
1
1
1
1
1
1
1
1
1
1.00002
1.00121
1.07647
5.2896
9.54251
10.3211
10.4058
10.4396
10.4475
10.4602
10.4815
10.5074
10.5343
10.5581
10.575
10.5832
10.5846
10.5786
10.5649
10.5464
10.5258
10.5026
10.4787
10.4523
10.4195
10.3764
10.3216
10.2537
10.1701
10.0669
9.93907
9.78115
9.58621
9.33905
9.01293
8.55685
7.853
6.65647
4.61598
1
1
1
1
1
1
1
1
1
1
1
1
1
1
1
1
1
1
1
1
1
1
1
1
1
1
1
1
1
1
1
1
1
1
1
1
1
1
1
1
1
1
1
1
1
1
1
1
1
1
1
1
1
1
1
1
1
1.00001
1.00065
1.04217
3.52838
9.24402
10.3846
10.3649
10.3812
10.3949
10.4081
10.4312
10.4524
10.472
10.4911
10.5054
10.5118
10.5119
10.5043
10.4869
10.465
10.4393
10.4102
10.3785
10.3433
10.3013
10.2493
10.185
10.1061
10.01
9.89151
9.74446
9.56123
9.33233
9.03975
8.65334
8.11882
7.32691
6.12438
4.36044
1
1
1
1
1
1
1
1
1
1
1
1
1
1
1
1
1
1
1
1
1
1
1
1
1
1
1
1
1
1
1
1
1
1
1
1
1
1
1
1
1
1
1
1
1
1
1
1
1
1
1
1
1
1
1
1
1
1
1.00021
1.01376
1.8176
8.66761
10.3242
10.2912
10.3121
10.3374
10.3534
10.3799
10.3973
10.4109
10.4257
10.4358
10.4378
10.4353
10.426
10.4073
10.3836
10.3533
10.3187
10.2788
10.2338
10.1821
10.1207
10.0467
9.95737
9.84933
9.71675
9.55205
9.3462
9.08813
8.76039
8.33338
7.76839
6.99405
6.01613
4.79812
1
1
1
1
1
1
1
1
1
1
1
1
1
1
1
1
1
1
1
1
1
1
1
1
1
1
1
1
1
1
1
1
1
1
1
1
1
1
1
1
1
1
1
1
1
1
1
1
1
1
1
1
1
1
1
1
1
1
1.00005
1.00281
1.15177
7.07164
9.91006
10.2637
10.2683
10.2864
10.2992
10.3291
10.3454
10.3563
10.3689
10.3746
10.3708
10.3631
10.3482
10.3274
10.3016
10.2684
10.2271
10.1792
10.1247
10.0629
9.99164
9.90814
9.80901
9.69007
9.54469
9.36454
9.14008
8.85952
8.50914
8.0626
7.50485
6.78306
5.95449
4.94404
1
1
1
1
1
1
1
1
1
1
1
1
1
1
1
1
1
1
1
1
1
1
1
1
1
1
1
1
1
1
1
1
1
1
1
1
1
1
1
1
1
1
1
1
1
1
1
1
1
1
1
1
1
1
1
1
1
1
1.00002
1.00117
1.07419
5.16841
9.34184
10.2459
10.2682
10.2594
10.2605
10.283
10.2943
10.3002
10.3097
10.3133
10.3074
10.2935
10.2732
10.2492
10.2205
10.1834
10.1356
10.0809
10.0175
9.94581
9.86452
9.77138
9.66265
9.53353
9.37705
9.18458
8.94699
8.65234
8.29273
7.84521
7.31422
6.65587
5.90808
5.04384
1
1
1
1
1
1
1
1
1
1
1
1
1
1
1
1
1
1
1
1
1
1
1
1
1
1
1
1
1
1
1
1
1
1
1
1
1
1
1
1
1
1
1
1
1
1
1
1
1
1
1
1
1
1
1
1
1
1
1.00001
1.00056
1.03674
3.19215
8.93855
10.2555
10.2477
10.2253
10.2152
10.2278
10.2308
10.2343
10.2434
10.2466
10.2417
10.2242
10.1999
10.1716
10.1384
10.0968
10.0436
9.9828
9.91161
9.83108
9.74063
9.63858
9.52093
9.3825
9.21646
9.01425
8.76812
8.46599
8.10584
7.66735
7.16546
6.56596
5.87717
5.13334
1
1
1
1
1
1
1
1
1
1
1
1
1
1
1
1
1
1
1
1
1
1
1
1
1
1
1
1
1
1
1
1
1
1
1
1
1
1
1
1
1
1
1
1
1
1
1
1
1
1
1
1
1
1
1
1
1
1
1
1.00016
1.00983
1.51908
7.93781
10.1877
10.2045
10.1689
10.1531
10.1605
10.1586
10.1622
10.1713
10.1748
10.1722
10.1551
10.1284
10.0959
10.0576
10.0106
9.9521
9.88536
9.80681
9.71818
9.6193
9.50897
9.38306
9.23641
9.06274
8.85398
8.60431
8.30201
7.9492
7.52893
7.0561
6.50833
5.8748
5.20444
1
1
1
1
1
1
1
1
1
1
1
1
1
1
1
1
1
1
1
1
1
1
1
1
1
1
1
1
1
1
1
1
1
1
1
1
1
1
1
1
1
1
1
1
1
1
1
1
1
1
1
1
1
1
1
1
1
1
1
1.00004
1.00204
1.11168
6.06267
9.82503
10.1356
10.1087
10.103
10.1055
10.0961
10.0973
10.1017
10.1036
10.1002
10.0839
10.0555
10.0203
9.97756
9.92493
9.86125
9.78784
9.70246
9.60728
9.50194
9.38504
9.25216
9.09858
8.919
8.70595
8.45552
8.15688
7.81346
7.41336
6.96333
6.45621
5.86417
5.27109
1
1
1
1
1
1
1
1
1
1
1
1
1
1
1
1
1
1
1
1
1
1
1
1
1
1
1
1
1
1
1
1
1
1
1
1
1
1
1
1
1
1
1
1
1
1
1
1
1
1
1
1
1
1
1
1
1
1
1
1.00001
1.00088
1.05596
4.20376
9.37176
10.0323
10.0446
10.0652
10.0563
10.0357
10.035
10.0329
10.0296
10.0228
10.0071
9.97864
9.9425
9.89684
9.83993
9.7722
9.69243
9.60082
9.49951
9.38793
9.26482
9.12583
8.96671
8.78307
8.56819
8.31999
8.02941
7.69866
7.31983
6.8933
6.42373
5.90603
5.37939
1
1
1
1
1
1
1
1
1
1
1
1
1
1
1
1
1
1
1
1
1
1
1
1
1
1
1
1
1
1
1
1
1
1
1
1
1
1
1
1
1
1
1
1
1
1
1
1
1
1
1
1
1
1
1
1
1
1
1
1.00001
1.00035
1.02268
2.32923
8.71631
9.88095
9.97426
10.0264
10.0089
9.98876
9.97923
9.96771
9.95764
9.94621
9.92838
9.89979
9.86266
9.81569
9.75628
9.68501
9.60015
9.50291
9.39599
9.27905
9.15103
9.00738
8.84425
8.65807
8.4429
8.19767
7.91553
7.59636
7.23729
6.83549
6.4011
5.93053
5.43757
1
1
1
1
1
1
1
1
1
1
1
1
1
1
1
1
1
1
1
1
1
1
1
1
1
1
1
1
1
1
1
1
1
1
1
1
1
1
1
1
1
1
1
1
1
1
1
1
1
1
1
1
1
1
1
1
1
1
1
1
1.00008
1.00463
1.21605
7.01498
9.53351
9.92482
9.98947
9.9685
9.9524
9.93863
9.9186
9.89796
9.87613
9.8522
9.82089
9.78246
9.73351
9.67252
9.59858
9.51081
9.40949
9.29805
9.17655
9.044
8.89612
8.72972
8.54197
8.32785
8.08674
7.81455
7.50839
7.16885
6.79229
6.38723
5.95388
5.49337
1
1
1
1
1
1
1
1
1
1
1
1
1
1
1
1
1
1
1
1
1
1
1
1
1
1
1
1
1
1
1
1
1
1
1
1
1
1
1
1
1
1
1
1
1
1
1
1
1
1
1
1
1
1
1
1
1
1
1
1
1.00002
1.00115
1.06993
4.75688
9.13302
9.85525
9.92329
9.91584
9.90484
9.88896
9.8651
9.83655
9.80577
9.77666
9.74186
9.70143
9.65014
9.58775
9.51252
9.4232
9.31984
9.20548
9.08066
8.94437
8.79317
8.62469
8.43639
8.22438
7.98713
7.72387
7.42924
7.10776
6.75468
6.37547
5.97731
5.55084
1
1
1
1
1
1
1
1
1
1
1
1
1
1
1
1
1
1
1
1
1
1
1
1
1
1
1
1
1
1
1
1
1
1
1
1
1
1
1
1
1
1
1
1
1
1
1
1
1
1
1
1
1
1
1
1
1
1
1
1
1.00001
1.0004
1.02652
2.58979
8.76767
9.67964
9.81814
9.86022
9.84894
9.82708
9.80138
9.76816
9.73566
9.70406
9.66671
9.62344
9.57078
9.50698
9.42987
9.33902
9.23436
9.11812
8.99125
8.8521
8.69837
8.5285
8.34009
8.13096
7.8982
7.64428
7.3612
7.05636
6.72425
6.36941
5.99972
5.60316
1
1
1
1
1
1
1
1
1
1
1
1
1
1
1
1
1
1
1
1
1
1
1
1
1
1
1
1
1
1
1
1
1
1
1
1
1
1
1
1
1
1
1
1
1
1
1
1
1
1
1
1
1
1
1
1
1
1
1
1
1
1.00009
1.00511
1.24395
7.12253
9.30438
9.79862
9.8326
9.81472
9.7823
9.75129
9.71087
9.67378
9.63843
9.59758
9.55024
9.49551
9.4292
9.34936
9.25661
9.15102
9.03414
8.90632
8.76499
8.60951
8.43894
8.25105
8.04546
7.81733
7.57214
7.30011
7.01137
6.69812
6.36641
6.02032
5.65156
1
1
1
1
1
1
1
1
1
1
1
1
1
1
1
1
1
1
1
1
1
1
1
1
1
1
1
1
1
1
1
1
1
1
1
1
1
1
1
1
1
1
1
1
1
1
1
1
1
1
1
1
1
1
1
1
1
1
1
1
1
1.00002
1.00111
1.06822
4.60906
8.91221
9.82683
9.79871
9.76387
9.72432
9.69075
9.64446
9.60408
9.5675
9.5247
9.47544
9.41999
9.35259
9.27156
9.17783
9.07172
8.95471
8.82616
8.68333
8.52719
8.35665
8.16967
7.96782
7.74521
7.50887
7.24794
6.97364
6.67637
6.36527
6.03729
5.69262
1
1
1
1
1
1
1
1
1
1
1
1
1
1
1
1
1
1
1
1
1
1
1
1
1
1
1
1
1
1
1
1
1
1
1
1
1
1
1
1
1
1
1
1
1
1
1
1
1
1
1
1
1
1
1
1
1
1
1
1
1
1.00001
1.00031
1.02073
2.18671
8.4373
9.71617
9.72207
9.69611
9.66348
9.62731
9.57567
9.53306
9.49608
9.4519
9.4021
9.34712
9.27954
9.19785
9.10278
8.99548
8.87836
8.74952
8.60596
8.44964
8.27916
8.09286
7.89402
7.67663
7.44834
7.1984
6.9382
6.65691
6.36478
6.05581
5.73461
1
1
1
1
1
1
1
1
1
1
1
1
1
1
1
1
1
1
1
1
1
1
1
1
1
1
1
1
1
1
1
1
1
1
1
1
1
1
1
1
1
1
1
1
1
1
1
1
1
1
1
1
1
1
1
1
1
1
1
1
1
1
1.00006
1.00359
1.17645
6.51361
9.30215
9.6221
9.63671
9.62165
9.58425
9.52556
9.47782
9.43514
9.38444
9.33107
9.27228
9.20239
9.1198
9.02426
8.91789
8.80256
8.67491
8.53225
8.37714
8.20789
8.02292
7.82705
7.61555
7.39486
7.15549
6.90739
6.63965
6.36429
6.06931
5.76841
1
1
1
1
1
1
1
1
1
1
1
1
1
1
1
1
1
1
1
1
1
1
1
1
1
1
1
1
1
1
1
1
1
1
1
1
1
1
1
1
1
1
1
1
1
1
1
1
1
1
1
1
1
1
1
1
1
1
1
1
1
1
1.00001
1.00085
1.05425
3.97641
8.94738
9.57559
9.56276
9.54725
9.51783
9.46673
9.41813
9.37274
9.31686
9.26141
9.19688
9.12419
9.04085
8.94576
8.84156
8.72847
8.60297
8.46273
8.31005
8.1431
7.95982
7.76602
7.55893
7.34361
7.1124
6.87568
6.61995
6.36193
6.08361
5.80095
1
1
1
1
1
1
1
1
1
1
1
1
1
1
1
1
1
1
1
1
1
1
1
1
1
1
1
1
1
1
1
1
1
1
1
1
1
1
1
1
1
1
1
1
1
1
1
1
1
1
1
1
1
1
1
1
1
1
1
1
1
1
1
1.00019
1.01195
1.58603
8.00353
9.43497
9.46462
9.45729
9.44084
9.40832
9.36444
9.31943
9.26397
9.20298
9.13305
9.05583
8.96891
8.87131
8.76663
8.65453
8.53128
8.39435
8.24529
8.08216
7.90226
7.71171
7.5099
7.29986
7.07672
6.85004
6.60429
6.35997
6.09499
5.82724
1
1
1
1
1
1
1
1
1
1
1
1
1
1
1
1
1
1
1
1
1
1
1
1
1
1
1
1
1
1
1
1
1
1
1
1
1
1
1
1
1
1
1
1
1
1
1
1
1
1
1
1
1
1
1
1
1
1
1
1
1
1
1
1.00003
1.00192
1.10381
5.41891
8.88337
9.40427
9.41638
9.39449
9.36083
9.31773
9.27132
9.2142
9.14766
9.07291
8.99093
8.89948
8.79892
8.69417
8.58309
8.46226
8.32911
8.18485
8.02729
7.85266
7.66667
7.46968
7.26377
7.04524
6.82598
6.58711
6.35519
6.10443
5.85139
1
1
1
1
1
1
1
1
1
1
1
1
1
1
1
1
1
1
1
1
1
1
1
1
1
1
1
1
1
1
1
1
1
1
1
1
1
1
1
1
1
1
1
1
1
1
1
1
1
1
1
1
1
1
1
1
1
1
1
1
1
1
1
1.00001
1.00045
1.02953
2.66205
8.35919
9.37145
9.36062
9.33245
9.29558
9.25146
9.20889
9.15915
9.09391
9.02013
8.93789
8.84474
8.74174
8.63484
8.52199
8.40086
8.26913
8.12764
7.97412
7.80467
7.6239
7.43322
7.23237
7.02009
6.80848
6.57798
6.35684
6.11494
5.8732
1
1
1
1
1
1
1
1
1
1
1
1
1
1
1
1
1
1
1
1
1
1
1
1
1
1
1
1
1
1
1
1
1
1
1
1
1
1
1
1
1
1
1
1
1
1
1
1
1
1
1
1
1
1
1
1
1
1
1
1
1
1
1
1
1.00008
1.0049
1.23502
6.41369
8.96728
9.30687
9.29008
9.25212
9.20278
9.15745
9.10869
9.04687
8.97313
8.88912
8.79354
8.6877
8.57814
8.46361
8.34169
8.21075
8.07153
7.92214
7.75916
7.58619
7.4034
7.20927
7.00302
6.79684
6.57279
6.35671
6.12286
5.89438
1
1
1
1
1
1
1
1
1
1
1
1
1
1
1
1
1
1
1
1
1
1
1
1
1
1
1
1
1
1
1
1
1
1
1
1
1
1
1
1
1
1
1
1
1
1
1
1
1
1
1
1
1
1
1
1
1
1
1
1
1
1
1
1
1.00002
1.00083
1.05073
3.63032
8.5349
9.32533
9.26458
9.21469
9.16281
9.10917
9.05368
8.98957
8.9167
8.8344
8.74102
8.63742
8.52958
8.4156
8.2935
8.1627
8.02421
7.87621
7.71654
7.54752
7.3713
7.18359
6.98487
6.78657
6.5699
6.36227
6.13833
5.9183
1
1
1
1
1
1
1
1
1
1
1
1
1
1
1
1
1
1
1
1
1
1
1
1
1
1
1
1
1
1
1
1
1
1
1
1
1
1
1
1
1
1
1
1
1
1
1
1
1
1
1
1
1
1
1
1
1
1
1
1
1
1
1
1
1
1.00016
1.00962
1.46168
7.22555
9.21642
9.212
9.16841
9.12031
9.06064
8.99814
8.93399
8.86094
8.78025
8.68965
8.58921
8.48381
8.37077
8.24814
8.11676
7.97758
7.8298
7.6722
7.50767
7.33895
7.16059
6.97202
6.78027
6.57372
6.36854
6.15197
5.93877
1
1
1
1
1
1
1
1
1
1
1
1
1
1
1
1
1
1
1
1
1
1
1
1
1
1
1
1
1
1
1
1
1
1
1
1
1
1
1
1
1
1
1
1
1
1
1
1
1
1
1
1
1
1
1
1
1
1
1
1
1
1
1
1
1
1.00003
1.00146
1.07917
4.50987
8.68962
9.19021
9.15144
9.09263
9.02213
8.94885
8.8748
8.79847
8.71488
8.62479
8.52909
8.43021
8.32198
8.20346
8.07591
7.93992
7.79396
7.63843
7.47535
7.30998
7.13482
6.95389
6.7682
6.57306
6.37164
6.17125
5.95976
1
1
1
1
1
1
1
1
1
1
1
1
1
1
1
1
1
1
1
1
1
1
1
1
1
1
1
1
1
1
1
1
1
1
1
1
1
1
1
1
1
1
1
1
1
1
1
1
1
1
1
1
1
1
1
1
1
1
1
1
1
1
1
1
1
1.00001
1.00029
1.018
1.91924
7.81577
9.15676
9.10903
9.05084
8.98111
8.90493
8.82505
8.74362
8.65575
8.56338
8.47239
8.37979
8.27583
8.16148
8.03786
7.90384
7.75839
7.60292
7.44122
7.27882
7.10776
6.93682
6.75899
6.57632
6.37743
6.19014
5.97448
1
1
1
1
1
1
1
1
1
1
1
1
1
1
1
1
1
1
1
1
1
1
1
1
1
1
1
1
1
1
1
1
1
1
1
1
1
1
1
1
1
1
1
1
1
1
1
1
1
1
1
1
1
1
1
1
1
1
1
1
1
1
1
1
1
1
1.00005
1.00272
1.12939
5.31776
8.64768
9.00051
8.99449
8.94612
8.87552
8.78984
8.70014
8.60662
8.50945
8.41628
8.32349
8.22203
8.11189
7.99391
7.86616
7.72631
7.57641
7.41861
7.25872
7.0899
6.92291
6.74577
6.57259
6.37868
6.20273
5.99439
1
1
1
1
1
1
1
1
1
1
1
1
1
1
1
1
1
1
1
1
1
1
1
1
1
1
1
1
1
1
1
1
1
1
1
1
1
1
1
1
1
1
1
1
1
1
1
1
1
1
1
1
1
1
1
1
1
1
1
1
1
1
1
1
1
1
1.00001
1.00046
1.02866
2.46591
8.09543
8.92854
8.95018
8.90797
8.84304
8.75592
8.66644
8.5689
8.46562
8.37042
8.27665
8.17545
8.06793
7.95443
7.83176
7.69645
7.54871
7.39337
7.2355
7.06911
6.9063
6.73417
6.57146
6.38474
6.21681
6.01351
1
1
1
1
1
1
1
1
1
1
1
1
1
1
1
1
1
1
1
1
1
1
1
1
1
1
1
1
1
1
1
1
1
1
1
1
1
1
1
1
1
1
1
1
1
1
1
1
1
1
1
1
1
1
1
1
1
1
1
1
1
1
1
1
1
1
1
1.00007
1.00429
1.20118
5.91103
8.51231
8.84694
8.85368
8.81521
8.73858
8.64756
8.54293
8.43259
8.33382
8.23655
8.13239
8.02314
7.91113
7.79202
7.66163
7.52076
7.37339
7.22032
7.05835
6.89865
6.72886
6.56876
6.3868
6.22527
6.02797
1
1
1
1
1
1
1
1
1
1
1
1
1
1
1
1
1
1
1
1
1
1
1
1
1
1
1
1
1
1
1
1
1
1
1
1
1
1
1
1
1
1
1
1
1
1
1
1
1
1
1
1
1
1
1
1
1
1
1
1
1
1
1
1
1
1
1
1.00001
1.00061
1.03697
2.8022
8.08747
8.80525
8.81337
8.78356
8.71573
8.62804
8.52255
8.40723
8.30398
8.20201
8.09386
7.98362
7.87399
7.75824
7.63297
7.49613
7.35263
7.20179
7.0441
6.88619
6.72074
6.56548
6.39201
6.23664
6.04481
1
1
1
1
1
1
1
1
1
1
1
1
1
1
1
1
1
1
1
1
1
1
1
1
1
1
1
1
1
1
1
1
1
1
1
1
1
1
1
1
1
1
1
1
1
1
1
1
1
1
1
1
1
1
1
1
1
1
1
1
1
1
1
1
1
1
1
1
1.00009
1.00523
1.25071
6.11227
8.44404
8.73979
8.73696
8.68103
8.59876
8.49998
8.38449
8.27848
8.17412
8.06342
7.95052
7.839
7.72355
7.60054
7.46772
7.33115
7.18643
7.03557
6.88048
6.72147
6.566
6.39741
6.24322
6.05697
1
1
1
1
1
1
1
1
1
1
1
1
1
1
1
1
1
1
1
1
1
1
1
1
1
1
1
1
1
1
1
1
1
1
1
1
1
1
1
1
1
1
1
1
1
1
1
1
1
1
1
1
1
1
1
1
1
1
1
1
1
1
1
1
1
1
1
1
1.00001
1.00067
1.04024
2.86031
7.99522
8.71485
8.69855
8.64696
8.57139
8.47244
8.3556
8.24969
8.14367
8.03101
7.91733
7.8076
7.69479
7.57578
7.44717
7.31366
7.17117
7.02472
6.87062
6.71743
6.56207
6.40377
6.25008
6.07345
1
1
1
1
1
1
1
1
1
1
1
1
1
1
1
1
1
1
1
1
1
1
1
1
1
1
1
1
1
1
1
1
1
1
1
1
1
1
1
1
1
1
1
1
1
1
1
1
1
1
1
1
1
1
1
1
1
1
1
1
1
1
1
1
1
1
1
1
1
1.00009
1.00533
1.25863
5.93484
8.3462
8.63854
8.61181
8.53762
8.44208
8.33004
8.22467
8.11959
8.00675
7.89328
7.78178
7.66852
7.5501
7.42367
7.29363
7.15627
7.01594
6.86503
6.71929
6.56309
6.41303
6.25359
6.08968
1
1
1
1
1
1
1
1
1
1
1
1
1
1
1
1
1
1
1
1
1
1
1
1
1
1
1
1
1
1
1
1
1
1
1
1
1
1
1
1
1
1
1
1
1
1
1
1
1
1
1
1
1
1
1
1
1
1
1
1
1
1
1
1
1
1
1
1
1
1.00001
1.00061
1.03641
2.58668
7.85323
8.60901
8.57347
8.49707
8.40865
8.29663
8.19475
8.09107
7.97807
7.86536
7.75594
7.64612
7.53099
7.40868
7.27963
7.14588
7.0061
6.85906
6.71546
6.56114
6.41748
6.25514
6.11071
1
1
1
1
1
1
1
1
1
1
1
1
1
1
1
1
1
1
1
1
1
1
1
1
1
1
1
1
1
1
1
1
1
1
1
1
1
1
1
1
1
1
1
1
1
1
1
1
1
1
1
1
1
1
1
1
1
1
1
1
1
1
1
1
1
1
1
1
1
1
1.00007
1.00438
1.21195
5.51356
8.18403
8.48019
8.44833
8.36835
8.26277
8.16641
8.06769
7.95744
7.84717
7.73737
7.62746
7.51224
7.39133
7.26287
7.13421
6.99608
6.85587
6.71419
6.56572
6.42338
6.26322
6.12839
1
1
1
1
1
1
1
1
1
1
1
1
1
1
1
1
1
1
1
1
1
1
1
1
1
1
1
1
1
1
1
1
1
1
1
1
1
1
1
1
1
1
1
1
1
1
1
1
1
1
1
1
1
1
1
1
1
1
1
1
1
1
1
1
1
1
1
1
1
1
1.00001
1.00048
1.02862
2.24272
7.47715
8.46042
8.4157
8.33125
8.23283
8.13843
8.04093
7.9328
7.82329
7.71583
7.61057
7.49883
7.38156
7.25315
7.12774
6.98838
6.85393
6.70932
6.56915
6.42151
6.27514
6.13983
1
1
1
1
1
1
1
1
1
1
1
1
1
1
1
1
1
1
1
1
1
1
1
1
1
1
1
1
1
1
1
1
1
1
1
1
1
1
1
1
1
1
1
1
1
1
1
1
1
1
1
1
1
1
1
1
1
1
1
1
1
1
1
1
1
1
1
1
1
1
1
1.00005
1.00316
1.15556
4.79789
8.00288
8.31959
8.27336
8.19975
8.11051
8.01896
7.91542
7.80932
7.70311
7.59696
7.48546
7.36886
7.24058
7.11913
6.98053
6.85408
6.70693
6.5772
6.42329
6.2915
6.14646
1
1
1
1
1
1
1
1
1
1
1
1
1
1
1
1
1
1
1
1
1
1
1
1
1
1
1
1
1
1
1
1
1
1
1
1
1
1
1
1
1
1
1
1
1
1
1
1
1
1
1
1
1
1
1
1
1
1
1
1
1
1
1
1
1
1
1
1
1
1
1
1.00001
1.00033
1.01933
1.84219
6.88198
8.25502
8.23856
8.16936
8.082
7.99385
7.89173
7.78673
7.68516
7.58296
7.47546
7.36211
7.23428
7.11452
6.97792
6.85463
6.70769
6.58119
6.42604
6.3065
6.15044
1
1
1
1
1
1
1
1
1
1
1
1
1
1
1
1
1
1
1
1
1
1
1
1
1
1
1
1
1
1
1
1
1
1
1
1
1
1
1
1
1
1
1
1
1
1
1
1
1
1
1
1
1
1
1