/*--------------------------------*- C++ -*----------------------------------*\
| =========                 |                                                 |
| \\      /  F ield         | OpenFOAM: The Open Source CFD Toolbox           |
|  \\    /   O peration     | Version:  v1812                                 |
|   \\  /    A nd           | Web:      www.OpenFOAM.com                      |
|    \\/     M anipulation  |                                                 |
\*---------------------------------------------------------------------------*/
FoamFile
{
    version     2.0;
    format      ascii;
    class       surfaceScalarField;
    location    "0.8";
    object      phi;
}
// * * * * * * * * * * * * * * * * * * * * * * * * * * * * * * * * * * * * * //

dimensions      [1 0 -1 0 0 0 0];
oriented        oriented;


internalField   nonuniform List<scalar> 
128384
(
0.00262501
-1.0842e-19
0.00262501
5.42101e-20
0.00262501
2.43945e-18
0.00262501
1.78893e-18
0.00262501
4.87891e-19
0.00262501
1.84314e-18
0.00262501
4.33681e-19
0.00262501
2.1684e-19
0.00262501
-2.1684e-19
0.00262501
-2.81893e-18
0.00262501
-1.0842e-18
0.00262501
-1.0842e-18
0.00262501
-1.89735e-18
0.00262501
-3.25261e-19
0.00262501
-1.6263e-19
0.00262501
-2.81893e-18
0.00262501
-5.42101e-19
0.00262501
-2.54788e-18
0.00262501
0
0.00262501
1.51788e-18
0.00262501
5.42101e-19
0.00262501
7.04731e-19
0.00262501
-1.6263e-19
0.00262501
1.19262e-18
0.00262501
9.75782e-19
0.00262501
1.24683e-18
0.00262501
5.42101e-20
0.00262501
5.42101e-20
0.00262501
1.68051e-18
0.00262501
-1.46367e-18
0.00262501
3.25261e-19
0.00262501
-5.42101e-20
0.00262501
-3.79471e-19
0.00262501
1.35525e-18
0.00262501
1.95156e-18
0.00262501
1.13841e-18
0.00262501
3.46945e-18
0.00262501
1.95156e-18
0.00262501
2.71051e-19
0.00262501
-1.0842e-19
0.00262501
2.71051e-19
0.00262501
-1.24683e-18
0.00262501
1.6263e-19
0.00262501
-1.35525e-18
0.00262501
-8.13152e-19
0.00262501
-1.30104e-18
0.00262501
-8.67362e-19
0.00262501
-1.84314e-18
0.00262501
1.89735e-18
0.00262501
-5.42101e-19
0.00262501
4.94938e-17
0.00262501
3.2294e-15
0.00262501
-7.19654e-14
0.00262501
-3.91626e-12
0.00262489
-1.43602e-09
0.00261761
-1.75831e-08
0.00245012
-1.38441e-05
0.00216149
0.000217997
0.00217398
6.27325e-06
0.00222453
-3.27101e-05
0.00226454
-3.2589e-05
0.00226752
2.8599e-06
0.00219824
6.85538e-05
0.00207604
0.000119514
0.00196046
0.000112736
0.00189681
6.54826e-05
0.00187428
2.70396e-05
0.00185969
2.10979e-05
0.00183743
3.07127e-05
0.00180371
4.20938e-05
0.00175937
5.07239e-05
0.00169996
6.29527e-05
0.00161821
8.23645e-05
0.00151222
0.000103511
0.00139455
0.000112095
0.001287
9.95543e-05
0.00120389
7.36649e-05
0.00114127
5.21415e-05
0.00108633
4.4434e-05
0.00103049
4.71974e-05
0.000971803
5.3357e-05
0.000911085
5.92435e-05
0.000848061
6.52302e-05
0.00078125
7.20678e-05
0.000710438
7.81695e-05
0.000637232
8.15285e-05
0.000563611
8.16401e-05
0.000490262
7.96325e-05
0.000416843
7.66035e-05
0.000342779
7.31361e-05
0.000268728
6.87716e-05
0.000197375
6.31274e-05
0.000132927
5.58973e-05
7.89778e-05
4.71493e-05
3.43876e-05
4.04025e-05
3.05166e-05
0.00262501
-5.96311e-19
0.00262501
1.0842e-18
0.00262501
-6.50521e-19
0.00262501
-1.6263e-19
0.00262501
-6.50521e-19
0.00262501
3.79471e-19
0.00262501
-1.6263e-19
0.00262501
2.71051e-19
0.00262501
5.96311e-19
0.00262501
1.46367e-18
0.00262501
3.25261e-19
0.00262501
0
0.00262501
-5.42101e-19
0.00262501
-7.58942e-19
0.00262501
-1.6263e-18
0.00262501
9.75782e-19
0.00262501
1.6263e-19
0.00262501
-1.24683e-18
0.00262501
-8.67362e-19
0.00262501
-1.46367e-18
0.00262501
2.71051e-19
0.00262501
5.42101e-19
0.00262501
-1.68051e-18
0.00262501
-1.6263e-19
0.00262501
-6.50521e-19
0.00262501
1.0842e-19
0.00262501
7.04731e-19
0.00262501
4.33681e-19
0.00262501
5.96311e-19
0.00262501
2.81893e-18
0.00262501
3.79471e-19
0.00262501
4.33681e-19
0.00262501
1.0842e-18
0.00262501
5.96311e-19
0.00262501
5.42101e-19
0.00262501
-6.50521e-19
0.00262501
1.0842e-19
0.00262501
-5.42101e-19
0.00262501
-4.87891e-19
0.00262501
-3.03577e-18
0.00262501
-1.30104e-18
0.00262501
3.25261e-19
0.00262501
-6.50521e-19
0.00262501
4.33681e-19
0.00262501
7.58942e-19
0.00262501
2.11419e-18
0.00262501
1.35525e-18
0.00262501
-3.25261e-19
0.00262501
-9.75782e-19
0.00262501
3.25261e-19
0.00262501
1.73635e-16
0.00262501
9.23691e-15
0.00262501
2.21e-13
0.00262501
1.71216e-11
0.00262488
-1.4723e-09
0.00261746
-1.00557e-07
0.00245423
-3.6183e-05
0.00216775
0.000429538
0.00217155
2.0784e-05
0.00221143
-5.53773e-05
0.00223975
-5.34025e-05
0.00223408
1.28553e-05
0.00218309
0.000121223
0.00210872
0.000194132
0.0020367
0.00018543
0.00197626
0.000128596
0.00193217
7.58269e-05
0.00189489
6.47659e-05
0.00184616
8.56786e-05
0.00178008
0.000114065
0.00170863
0.000126873
0.00163992
0.000134084
0.00156818
0.000154367
0.00148881
0.000180918
0.00140653
0.000189913
0.00132739
0.000171682
0.00125378
0.000138442
0.00118649
0.000109426
0.00112262
9.82385e-05
0.00105747
0.000103858
0.000990185
0.000115238
0.000923145
0.000124653
0.000857937
0.000132528
0.000793248
0.000141946
0.000727073
0.000151669
0.000658552
0.000158378
0.000587802
0.000160463
0.000515192
0.000158638
0.000441217
0.000153946
0.00036621
0.000147463
0.000291009
0.000138962
0.000218205
0.000127859
0.000152132
0.000113347
9.56226e-05
9.66186e-05
4.5912e-05
8.56287e-05
7.23918e-05
0.00262501
-2.1684e-19
0.00262501
-1.0842e-19
0.00262501
-1.30104e-18
0.00262501
-1.0842e-19
0.00262501
1.57209e-18
0.00262501
5.42101e-20
0.00262501
1.0842e-19
0.00262501
2.71051e-19
0.00262501
-1.02999e-18
0.00262501
-9.21572e-19
0.00262501
-7.04731e-19
0.00262501
-2.1684e-18
0.00262501
-1.57209e-18
0.00262501
-1.13841e-18
0.00262501
1.24683e-18
0.00262501
-1.6263e-19
0.00262501
-2.33103e-18
0.00262501
-1.40946e-18
0.00262501
1.6263e-19
0.00262501
5.42101e-19
0.00262501
8.13152e-19
0.00262501
-5.42101e-19
0.00262501
0
0.00262501
-1.89735e-18
0.00262501
-7.58942e-19
0.00262501
0
0.00262501
5.42101e-20
0.00262501
3.79471e-19
0.00262501
1.19262e-18
0.00262501
1.02999e-18
0.00262501
1.51788e-18
0.00262501
-3.25261e-19
0.00262501
1.6263e-18
0.00262501
1.46367e-18
0.00262501
6.50521e-19
0.00262501
6.50521e-19
0.00262501
-3.25261e-19
0.00262501
-6.50521e-19
0.00262501
-8.67362e-19
0.00262501
1.46367e-18
0.00262501
-5.42101e-20
0.00262501
-2.81893e-18
0.00262501
-1.0842e-19
0.00262501
1.19262e-18
0.00262501
2.22261e-18
0.00262501
5.42101e-19
0.00262501
-4.87891e-19
0.00262501
-1.68051e-18
0.00262501
2.27682e-18
0.00262501
1.13841e-17
0.00262501
6.12141e-16
0.00262501
4.07002e-14
0.00262501
2.58922e-12
0.00262501
1.8534e-10
0.00262486
1.02095e-08
0.00261617
6.87061e-07
0.00236842
2.17626e-05
0.00219166
0.000543079
0.0021915
5.54636e-05
0.00221767
-6.69527e-05
0.00222162
-4.97535e-05
0.00220871
3.09664e-05
0.00215756
0.000177525
0.00209271
0.000260438
0.00203309
0.000248024
0.00197991
0.000186045
0.00192843
0.000130811
0.00187294
0.000124649
0.00180813
0.000155605
0.00173285
0.000193541
0.00165576
0.000207134
0.00159017
0.000201343
0.00153617
0.000208842
0.00148558
0.000229986
0.00143383
0.000237916
0.00137617
0.000223314
0.00131074
0.000195791
0.00123921
0.000171337
0.001165
0.000162631
0.00109007
0.000170364
0.0010163
0.000183491
0.000946912
0.00019226
0.000883262
0.000198134
0.00082298
0.000207303
0.00076231
0.000219568
0.000698716
0.000230258
0.000631357
0.000235954
0.000560479
0.000236132
0.000486763
0.00023144
0.000410739
0.000223395
0.000333172
0.000212139
0.000256574
0.000196755
0.000184926
0.000176267
0.000120664
0.000153362
6.04601e-05
0.000140811
0.000128402
0.00262501
5.96311e-19
0.00262501
2.1684e-19
0.00262501
-2.1684e-19
0.00262501
-1.57209e-18
0.00262501
-1.40946e-18
0.00262501
1.6263e-19
0.00262501
1.51788e-18
0.00262501
1.0842e-19
0.00262501
-1.0842e-19
0.00262501
-1.95156e-18
0.00262501
-1.6263e-18
0.00262501
-2.1684e-19
0.00262501
4.33681e-19
0.00262501
-1.02999e-18
0.00262501
-5.42101e-19
0.00262501
-1.46367e-18
0.00262501
3.25261e-19
0.00262501
1.46367e-18
0.00262501
1.0842e-18
0.00262501
2.71051e-19
0.00262501
-1.0842e-19
0.00262501
-8.13152e-19
0.00262501
-1.02999e-18
0.00262501
-1.6263e-18
0.00262501
-7.04731e-19
0.00262501
-3.25261e-19
0.00262501
6.50521e-19
0.00262501
4.87891e-19
0.00262501
-1.6263e-19
0.00262501
5.42101e-20
0.00262501
1.0842e-19
0.00262501
2.81893e-18
0.00262501
1.02999e-18
0.00262501
-2.71051e-19
0.00262501
1.6263e-19
0.00262501
1.0842e-19
0.00262501
-4.87891e-19
0.00262501
1.0842e-19
0.00262501
-9.21572e-19
0.00262501
-8.13152e-19
0.00262501
-1.95156e-18
0.00262501
-4.33681e-19
0.00262501
3.25261e-19
0.00262501
-5.96311e-19
0.00262501
9.75782e-19
0.00262501
3.25261e-19
0.00262501
-9.75782e-19
0.00262501
-5.42101e-19
0.00262501
1.0842e-19
0.00262501
1.14383e-17
0.00262501
7.89895e-16
0.00262501
5.24928e-14
0.00262501
3.20053e-12
0.00262501
2.0584e-10
0.00262486
1.19846e-08
0.00261612
7.20984e-07
0.00235013
8.08006e-05
0.00226674
0.000586494
0.00229329
6.91044e-05
0.00229944
-5.66188e-05
0.00226502
-1.06831e-05
0.00219477
0.000107985
0.00211031
0.00026745
0.00204071
0.000331684
0.00198945
0.00030265
0.00194665
0.000233077
0.00189888
0.000181072
0.00184296
0.000184178
0.00177561
0.000227323
0.00169994
0.000272894
0.0016286
0.000281385
0.00157076
0.00026068
0.00152959
0.000250558
0.00149482
0.000263293
0.00145635
0.000273149
0.00140723
0.000266902
0.00134316
0.000252091
0.00126617
0.00023909
0.00118393
0.000235422
0.00110338
0.0002428
0.00102881
0.000252703
0.000962284
0.000257006
0.000902894
0.000259337
0.000847124
0.000267929
0.000790591
0.000283088
0.000730309
0.00029864
0.000665289
0.000309058
0.000595827
0.000312368
0.000522479
0.000308962
0.000445608
0.00030076
0.000365713
0.000288247
0.000285026
0.000270033
0.00020727
0.000245047
0.000135495
0.000216964
6.74221e-05
0.000203175
0.00019087
0.00262501
-7.58942e-19
0.00262501
1.6263e-19
0.00262501
7.58942e-19
0.00262501
-2.1684e-19
0.00262501
3.25261e-19
0.00262501
7.58942e-19
0.00262501
-1.6263e-19
0.00262501
-1.6263e-19
0.00262501
-4.33681e-19
0.00262501
-1.6263e-19
0.00262501
-1.0842e-19
0.00262501
9.21572e-19
0.00262501
1.0842e-19
0.00262501
1.68051e-18
0.00262501
5.42101e-20
0.00262501
7.58942e-19
0.00262501
-3.25261e-19
0.00262501
3.79471e-19
0.00262501
-3.25261e-19
0.00262501
-1.46367e-18
0.00262501
5.96311e-19
0.00262501
5.96311e-19
0.00262501
3.25261e-19
0.00262501
-3.25261e-19
0.00262501
5.42101e-20
0.00262501
9.21572e-19
0.00262501
-1.13841e-18
0.00262501
-2.49366e-18
0.00262501
-2.92735e-18
0.00262501
-1.35525e-18
0.00262501
-4.33681e-19
0.00262501
3.79471e-19
0.00262501
-1.6263e-19
0.00262501
1.19262e-18
0.00262501
5.42101e-19
0.00262501
1.46367e-18
0.00262501
1.0842e-18
0.00262501
-2.1684e-18
0.00262501
2.1684e-19
0.00262501
-9.75782e-19
0.00262501
-2.1684e-19
0.00262501
1.35525e-18
0.00262501
-2.1684e-19
0.00262501
8.67362e-19
0.00262501
-7.04731e-19
0.00262501
-2.71051e-19
0.00262501
-5.96311e-19
0.00262501
6.50521e-19
0.00262501
1.51788e-18
0.00262501
1.33357e-17
0.00262501
7.08472e-16
0.00262501
4.75425e-14
0.00262501
2.91242e-12
0.00262501
1.94138e-10
0.00262486
1.17023e-08
0.00261567
7.61841e-07
0.00236687
0.000101512
0.00235493
0.000581269
0.00238908
6.6147e-05
0.00236161
-1.23927e-05
0.00227722
7.06386e-05
0.00216189
0.000225588
0.00206688
0.000366127
0.00200451
0.000396692
0.00195962
0.00035145
0.00192
0.000277017
0.00187305
0.000229981
0.00181782
0.000242262
0.00175571
0.000293535
0.00169108
0.000340792
0.00163188
0.000343325
0.0015787
0.000315221
0.00153643
0.000292988
0.00150077
0.000297397
0.0014615
0.000308955
0.00141176
0.000310975
0.0013482
0.000307963
0.00127298
0.000305464
0.00119347
0.000306122
0.00111689
0.000311915
0.00104677
0.000317875
0.000983343
0.000318745
0.000925026
0.000319275
0.000869421
0.000328026
0.000813348
0.000345743
0.000754412
0.000365352
0.000691641
0.000379775
0.000624923
0.000385986
0.000554062
0.000384394
0.000478734
0.000377169
0.000398719
0.000365058
0.000315528
0.000346061
0.000232409
0.000318888
0.00015298
0.000287495
7.63191e-05
0.000273365
0.000261657
0.00262501
2.1684e-19
0.00262501
1.95156e-18
0.00262501
5.42101e-19
0.00262501
2.27682e-18
0.00262501
2.1684e-19
0.00262501
-3.25261e-19
0.00262501
-4.87891e-19
0.00262501
-5.42101e-19
0.00262501
-2.11419e-18
0.00262501
-9.75782e-19
0.00262501
-7.04731e-19
0.00262501
-2.76472e-18
0.00262501
-2.54788e-18
0.00262501
-4.11997e-18
0.00262501
-9.75782e-19
0.00262501
-1.40946e-18
0.00262501
-1.0842e-18
0.00262501
-1.24683e-18
0.00262501
-1.0842e-18
0.00262501
1.95156e-18
0.00262501
1.68051e-18
0.00262501
4.87891e-19
0.00262501
-1.19262e-18
0.00262501
4.87891e-19
0.00262501
-1.6263e-18
0.00262501
-2.92735e-18
0.00262501
1.6263e-19
0.00262501
9.75782e-19
0.00262501
-4.33681e-19
0.00262501
5.96311e-19
0.00262501
-5.42101e-19
0.00262501
1.0842e-19
0.00262501
3.25261e-19
0.00262501
-1.46367e-18
0.00262501
2.71051e-19
0.00262501
-8.13152e-19
0.00262501
-4.87891e-19
0.00262501
5.96311e-19
0.00262501
5.42101e-20
0.00262501
8.67362e-19
0.00262501
-2.1684e-19
0.00262501
-7.58942e-19
0.00262501
-9.75782e-19
0.00262501
-9.21572e-19
0.00262501
-1.24683e-18
0.00262501
-2.1684e-18
0.00262501
5.42101e-19
0.00262501
5.42101e-19
0.00262501
0
0.00262501
8.0231e-18
0.00262501
6.19622e-16
0.00262501
4.2657e-14
0.00262501
2.7034e-12
0.00262501
1.87821e-10
0.00262487
1.16511e-08
0.00261607
8.12509e-07
0.00237732
0.000107912
0.00240521
0.000550433
0.00242177
6.758e-05
0.00236118
5.4159e-05
0.00225884
0.000175317
0.00215412
0.000336205
0.00206861
0.000454389
0.00200831
0.000460354
0.00196156
0.000402905
0.00191635
0.000326175
0.00186187
0.000286199
0.00180279
0.00030331
0.00174566
0.000354092
0.00169537
0.000394028
0.00164869
0.000392753
0.00159901
0.000366545
0.00154985
0.000342108
0.001504
0.000341375
0.00145696
0.00035203
0.00140371
0.000358217
0.00134112
0.000362925
0.00127027
0.000367977
0.00119654
0.000371876
0.00112538
0.000376435
0.00105869
0.000380136
0.00099554
0.000380265
0.000934897
0.000381229
0.000876439
0.000390466
0.000818981
0.000409269
0.000760974
0.000430768
0.000701128
0.00044743
0.000638358
0.000455777
0.000571361
0.000456315
0.000499006
0.000451099
0.000420256
0.00044105
0.000335846
0.000423435
0.000248799
0.00039629
0.000163616
0.000363042
8.13971e-05
0.000348321
0.000336909
0.00262501
-2.1684e-19
0.00262501
1.51788e-18
0.00262501
7.58942e-19
0.00262501
2.60209e-18
0.00262501
-1.6263e-18
0.00262501
-8.13152e-19
0.00262501
-8.13152e-19
0.00262501
-8.67362e-19
0.00262501
6.50521e-19
0.00262501
4.87891e-19
0.00262501
3.25261e-19
0.00262501
-5.42101e-19
0.00262501
-4.33681e-19
0.00262501
4.33681e-19
0.00262501
-1.02999e-18
0.00262501
-1.6263e-18
0.00262501
-1.78893e-18
0.00262501
3.25261e-19
0.00262501
-3.25261e-19
0.00262501
-1.46367e-18
0.00262501
-1.0842e-18
0.00262501
8.13152e-19
0.00262501
3.90313e-18
0.00262501
7.58942e-19
0.00262501
-1.30104e-18
0.00262501
-5.42101e-19
0.00262501
-4.87891e-19
0.00262501
-1.0842e-19
0.00262501
-8.13152e-19
0.00262501
-1.6263e-19
0.00262501
2.05998e-18
0.00262501
7.58942e-19
0.00262501
2.1684e-19
0.00262501
-1.40946e-18
0.00262501
-3.08998e-18
0.00262501
-1.84314e-18
0.00262501
-2.38524e-18
0.00262501
-8.13152e-19
0.00262501
-9.21572e-19
0.00262501
-1.6263e-18
0.00262501
1.0842e-19
0.00262501
8.13152e-19
0.00262501
1.95156e-18
0.00262501
-5.42101e-20
0.00262501
4.33681e-19
0.00262501
1.78893e-18
0.00262501
7.58942e-19
0.00262501
3.25261e-19
0.00262501
1.0842e-19
0.00262501
8.34836e-18
0.00262501
5.42535e-16
0.00262501
3.76277e-14
0.00262501
2.4601e-12
0.00262501
1.71149e-10
0.00262489
1.06996e-08
0.00261745
7.65566e-07
0.00241306
9.78676e-05
0.00244449
0.000513696
0.00242193
8.97116e-05
0.00233784
0.000133538
0.00223588
0.000278997
0.00214242
0.000435623
0.00207145
0.000526391
0.00202113
0.000514671
0.00198037
0.000449979
0.00193383
0.000376158
0.00187528
0.000346285
0.00181441
0.000365442
0.00176169
0.00040916
0.00172034
0.000438141
0.00167884
0.000436856
0.0016293
0.000417545
0.00157339
0.000397693
0.00151638
0.000396005
0.00145959
0.00040431
0.00140083
0.000410691
0.00133729
0.000419057
0.00126887
0.000428726
0.00119887
0.000434779
0.00113066
0.000438794
0.00106455
0.000442243
0.000999229
0.000443944
0.000934546
0.000446865
0.000872007
0.000456464
0.000812321
0.000474534
0.000754782
0.00049539
0.000697748
0.000512163
0.000639099
0.00052156
0.000576512
0.000524113
0.000508136
0.000521413
0.000432086
0.000514632
0.000348246
0.000500259
0.000259453
0.000475068
0.000170641
0.000441566
8.47639e-05
0.000426225
0.000414985
0.00262501
6.50521e-19
0.00262501
-1.13841e-18
0.00262501
-2.38524e-18
0.00262501
-1.0842e-18
0.00262501
2.38524e-18
0.00262501
-1.30104e-18
0.00262501
-7.58942e-19
0.00262501
-3.25261e-19
0.00262501
-2.71051e-19
0.00262501
-5.42101e-20
0.00262501
-5.42101e-20
0.00262501
-1.6263e-19
0.00262501
-4.33681e-19
0.00262501
-2.22261e-18
0.00262501
-1.57209e-18
0.00262501
-1.6263e-19
0.00262501
1.40946e-18
0.00262501
9.21572e-19
0.00262501
2.11419e-18
0.00262501
1.35525e-18
0.00262501
1.73472e-18
0.00262501
8.67362e-19
0.00262501
0
0.00262501
5.42101e-19
0.00262501
1.89735e-18
0.00262501
4.33681e-19
0.00262501
-6.50521e-19
0.00262501
7.04731e-19
0.00262501
7.58942e-19
0.00262501
-3.25261e-19
0.00262501
-4.87891e-19
0.00262501
-2.71051e-18
0.00262501
-2.05998e-18
0.00262501
-1.6263e-18
0.00262501
5.42101e-19
0.00262501
-2.38524e-18
0.00262501
-1.95156e-18
0.00262501
-2.22261e-18
0.00262501
-1.73472e-18
0.00262501
5.42101e-19
0.00262501
-3.79471e-19
0.00262501
-1.46367e-18
0.00262501
-4.87891e-19
0.00262501
5.96311e-19
0.00262501
7.58942e-19
0.00262501
4.33681e-19
0.00262501
5.42101e-19
0.00262501
-1.6263e-19
0.00262501
1.6263e-19
0.00262501
2.71051e-18
0.00262501
3.8847e-16
0.00262501
2.83858e-14
0.00262501
1.9808e-12
0.00262501
1.40856e-10
0.00262492
9.29205e-09
0.00261932
6.65844e-07
0.00246596
7.5723e-05
0.00249718
0.000463327
0.00244238
0.000130037
0.00235324
0.000211589
0.00225681
0.000373423
0.00216481
0.000530549
0.00209453
0.000597983
0.00204468
0.00056986
0.00200761
0.00049478
0.001964
0.000423139
0.00190918
0.000402431
0.00185135
0.000423963
0.00180036
0.00046144
0.00175875
0.000482105
0.00171544
0.000482224
0.00166298
0.000470739
0.00160168
0.000458104
0.0015366
0.000458175
0.00147199
0.000463935
0.00140811
0.000468171
0.00134265
0.00047754
0.00127452
0.000489985
0.00120536
0.000497704
0.00113696
0.000501998
0.00106875
0.00050673
0.000999544
0.000511395
0.000930005
0.000516967
0.000862906
0.000526542
0.000800362
0.000542264
0.000742428
0.000560186
0.000687138
0.000575119
0.000631528
0.000584427
0.000572594
0.000588492
0.000508003
0.000588201
0.000435172
0.000585166
0.000353174
0.000575213
0.000264568
0.000553346
0.000174163
0.000521165
8.65082e-05
0.00050532
0.000494351
0.00262501
-1.46367e-18
0.00262501
-2.6563e-18
0.00262501
5.42101e-19
0.00262501
1.40946e-18
0.00262501
-5.42101e-20
0.00262501
-2.38524e-18
0.00262501
1.57209e-18
0.00262501
5.42101e-20
0.00262501
-1.6263e-19
0.00262501
-5.42101e-19
0.00262501
-9.75782e-19
0.00262501
5.96311e-19
0.00262501
4.33681e-19
0.00262501
1.6263e-19
0.00262501
1.0842e-19
0.00262501
-2.38524e-18
0.00262501
1.02999e-18
0.00262501
-1.46367e-18
0.00262501
7.04731e-19
0.00262501
7.04731e-19
0.00262501
-1.35525e-18
0.00262501
-2.1684e-19
0.00262501
1.35525e-18
0.00262501
1.24683e-18
0.00262501
-4.33681e-19
0.00262501
-1.0842e-19
0.00262501
-6.50521e-19
0.00262501
-2.6563e-18
0.00262501
-2.71051e-19
0.00262501
-6.50521e-19
0.00262501
-2.49366e-18
0.00262501
-9.21572e-19
0.00262501
-8.67362e-19
0.00262501
1.35525e-18
0.00262501
-3.41524e-18
0.00262501
1.6263e-19
0.00262501
5.96311e-19
0.00262501
-1.24683e-18
0.00262501
-2.00577e-18
0.00262501
-2.71051e-19
0.00262501
-5.42101e-19
0.00262501
-4.87891e-19
0.00262501
-1.6263e-18
0.00262501
-5.42101e-19
0.00262501
-1.84314e-18
0.00262501
-1.19262e-18
0.00262501
-2.05998e-18
0.00262501
3.79471e-19
0.00262501
0
0.00262501
3.63208e-18
0.00262501
1.6778e-16
0.00262501
1.45863e-14
0.00262501
1.15989e-12
0.00262501
9.55609e-11
0.00262496
7.15449e-09
0.00262134
5.26116e-07
0.00252912
4.53964e-05
0.0025247
0.000426503
0.0024624
0.000151631
0.0023848
0.000274416
0.00229198
0.000465651
0.00219218
0.000632077
0.00211457
0.000677934
0.00206204
0.000628301
0.00202904
0.000535983
0.00199246
0.00046255
0.00194737
0.000448319
0.00189644
0.000474647
0.00184433
0.000513337
0.00179612
0.000531607
0.00174697
0.000532671
0.00169091
0.000526671
0.00162706
0.000520351
0.00155853
0.00052328
0.00148956
0.000527693
0.00142183
0.0005297
0.00135409
0.000539017
0.00128489
0.00055323
0.00121479
0.000562363
0.00114457
0.000567488
0.00107339
0.000574291
0.00100037
0.00058246
0.000926729
0.000590811
0.000855878
0.000600008
0.000790719
0.00061235
0.00073179
0.000625873
0.000676932
0.000637676
0.000622657
0.000646087
0.000565697
0.000651076
0.000503568
0.000652686
0.000433333
0.000653182
0.000353396
0.000648057
0.000265952
0.000630222
0.000175244
0.000600692
8.70446e-05
0.000584532
0.000573927
0.00262501
-2.1684e-19
0.00262501
2.1684e-19
0.00262501
8.67362e-19
0.00262501
-5.42101e-19
0.00262501
-1.0842e-18
0.00262501
8.67362e-19
0.00262501
1.0842e-19
0.00262501
0
0.00262501
1.13841e-18
0.00262501
1.35525e-18
0.00262501
3.03577e-18
0.00262501
5.42101e-19
0.00262501
5.96311e-19
0.00262501
5.42101e-19
0.00262501
2.71051e-19
0.00262501
1.57209e-18
0.00262501
-1.51788e-18
0.00262501
5.96311e-19
0.00262501
-2.71051e-19
0.00262501
-1.02999e-18
0.00262501
-4.33681e-19
0.00262501
-2.05998e-18
0.00262501
-1.35525e-18
0.00262501
-2.81893e-18
0.00262501
-1.51788e-18
0.00262501
-1.6263e-18
0.00262501
-1.6263e-18
0.00262501
-1.13841e-18
0.00262501
-1.40946e-18
0.00262501
-2.49366e-18
0.00262501
5.42101e-20
0.00262501
-3.25261e-19
0.00262501
3.79471e-19
0.00262501
-3.79471e-19
0.00262501
-2.71051e-19
0.00262501
-8.67362e-19
0.00262501
-1.95156e-18
0.00262501
-1.35525e-18
0.00262501
6.50521e-19
0.00262501
-9.21572e-19
0.00262501
-7.58942e-19
0.00262501
1.24683e-18
0.00262501
1.73472e-18
0.00262501
-3.79471e-19
0.00262501
5.42101e-20
0.00262501
3.79471e-19
0.00262501
-2.71051e-19
0.00262501
-1.24683e-18
0.00262501
-2.11419e-18
0.00262501
7.58942e-19
0.00262501
1.68051e-17
0.00262501
1.55659e-15
0.00262501
1.02902e-13
0.00262501
1.34493e-11
0.00262499
9.76334e-10
0.00262358
1.32566e-07
0.00259663
1.30278e-05
0.0025351
0.000426956
0.00248021
0.000138204
0.00240061
0.000334017
0.00229272
0.000573692
0.00218229
0.000742091
0.00210919
0.00075453
0.00206702
0.000678771
0.00204612
0.000565796
0.00201818
0.000492074
0.00198191
0.000484278
0.00193564
0.000519235
0.00187908
0.000568264
0.00182123
0.000589848
0.00176482
0.000589568
0.00170558
0.000584804
0.00164136
0.00058219
0.00157278
0.000587927
0.00150246
0.000592724
0.00143275
0.000593723
0.00136371
0.000602726
0.00129411
0.000617852
0.00122365
0.000628071
0.00115232
0.000634384
0.00107927
0.000643712
0.00100394
0.000655629
0.000927887
0.000666805
0.000854748
0.000675543
0.000787723
0.000684182
0.000727516
0.000692824
0.000671924
0.000701039
0.0006172
0.00070831
0.00056018
0.00071384
0.000498531
0.000716759
0.000429397
0.0007201
0.000350818
0.000719482
0.000264649
0.000705653
0.000174365
0.000679544
8.64906e-05
0.000663154
0.000652764
0.00262501
3.79471e-19
0.00262501
-9.75782e-19
0.00262501
2.71051e-19
0.00262501
-1.30104e-18
0.00262501
-4.33681e-19
0.00262501
2.71051e-19
0.00262501
6.50521e-19
0.00262501
1.24683e-18
0.00262501
7.58942e-19
0.00262501
3.25261e-19
0.00262501
-1.02999e-18
0.00262501
2.1684e-19
0.00262501
1.30104e-18
0.00262501
5.42101e-19
0.00262501
1.84314e-18
0.00262501
1.19262e-18
0.00262501
3.84892e-18
0.00262501
7.58942e-19
0.00262501
2.71051e-19
0.00262501
-4.87891e-19
0.00262501
-1.0842e-18
0.00262501
7.04731e-19
0.00262501
0
0.00262501
5.96311e-19
0.00262501
-1.24683e-18
0.00262501
-1.40946e-18
0.00262501
-1.6263e-19
0.00262501
8.67362e-19
0.00262501
-7.04731e-19
0.00262501
-7.58942e-19
0.00262501
-1.6263e-18
0.00262501
-2.43945e-18
0.00262501
-1.51788e-18
0.00262501
-9.75782e-19
0.00262501
-1.19262e-18
0.00262501
-1.02999e-18
0.00262501
4.33681e-19
0.00262501
4.33681e-19
0.00262501
-1.02999e-18
0.00262501
-2.71051e-19
0.00262501
1.6263e-19
0.00262501
1.6263e-19
0.00262501
5.42101e-19
0.00262501
-2.71051e-19
0.00262501
1.73472e-18
0.00262501
3.25261e-19
0.00262501
-1.6263e-19
0.00262501
-1.30104e-18
0.00262501
-2.87314e-18
0.00262501
-9.75782e-19
0.00262501
1.12215e-17
0.00262501
1.06306e-16
0.00262501
6.14092e-15
0.00262501
9.09225e-13
0.00262501
-2.04343e-10
0.0026249
5.26994e-09
0.00262857
-1.47489e-06
0.00254736
0.000415944
0.00249215
0.000118742
0.0023863
0.000416873
0.00225119
0.000709124
0.00214637
0.00084243
0.00209265
0.00081527
0.00207273
0.000709395
0.0020642
0.00058295
0.00204064
0.000515176
0.00200637
0.000516182
0.00195685
0.000565599
0.00189122
0.000631061
0.0018241
0.000656547
0.00176256
0.000650658
0.00170257
0.000642849
0.00164045
0.000641407
0.00157479
0.000649429
0.00150648
0.000656076
0.00143786
0.000657562
0.00136998
0.000666485
0.00130181
0.000682087
0.00123228
0.00069346
0.00116084
0.000701566
0.00108696
0.000713874
0.00101063
0.000729618
0.000933715
0.00074351
0.000859804
0.000751763
0.000791975
0.000756809
0.00073077
0.000760831
0.000673967
0.000765716
0.000617794
0.000772091
0.00055936
0.000778094
0.00049664
0.000781905
0.000427177
0.000787284
0.000348914
0.000790497
0.000263434
0.000780255
0.000173478
0.0007579
8.59016e-05
0.000741348
0.000730954
0.00262501
-2.1684e-19
0.00262501
5.96311e-19
0.00262501
-3.25261e-19
0.00262501
0
0.00262501
-3.79471e-19
0.00262501
-5.42101e-20
0.00262501
1.24683e-18
0.00262501
1.95156e-18
0.00262501
8.67362e-19
0.00262501
2.1684e-19
0.00262501
6.50521e-19
0.00262501
5.42101e-20
0.00262501
-8.13152e-19
0.00262501
6.50521e-19
0.00262501
1.46367e-18
0.00262501
1.19262e-18
0.00262501
1.02999e-18
0.00262501
2.00577e-18
0.00262501
6.50521e-19
0.00262501
1.84314e-18
0.00262501
1.35525e-18
0.00262501
-1.89735e-18
0.00262501
-9.21572e-19
0.00262501
-2.87314e-18
0.00262501
9.21572e-19
0.00262501
6.50521e-19
0.00262501
1.0842e-19
0.00262501
0
0.00262501
-3.25261e-19
0.00262501
3.25261e-19
0.00262501
-2.71051e-19
0.00262501
-1.35525e-18
0.00262501
-2.11419e-18
0.00262501
-2.22261e-18
0.00262501
-1.30104e-18
0.00262501
-7.04731e-19
0.00262501
2.1684e-19
0.00262501
-1.24683e-18
0.00262501
-3.25261e-19
0.00262501
8.13152e-19
0.00262501
5.42101e-20
0.00262501
7.04731e-19
0.00262501
2.71051e-19
0.00262501
2.71051e-19
0.00262501
-4.33681e-19
0.00262501
-8.13152e-19
0.00262501
-9.21572e-19
0.00262501
-2.71051e-18
0.00262501
-2.1684e-18
0.00262501
-2.1684e-19
0.00262501
2.90566e-17
0.00262501
7.96184e-16
0.00262501
9.61664e-14
0.00262501
3.8013e-12
0.00262501
2.19766e-10
0.00262489
2.01525e-08
0.00261768
1.61677e-07
0.00257697
0.000361135
0.00249173
0.000132843
0.00233307
0.000555539
0.00218065
0.000858896
0.00210867
0.000911165
0.00208364
0.000850281
0.00208791
0.000715093
0.00208764
0.000588756
0.00206577
0.000534864
0.00202665
0.000550251
0.00196487
0.00062272
0.00188725
0.000704765
0.00181502
0.000727808
0.00175231
0.000711981
0.00169398
0.000698842
0.00163499
0.000697426
0.00157308
0.00070741
0.00150806
0.000716881
0.00144204
0.000720031
0.00137649
0.000729239
0.00131038
0.000745247
0.001242
0.00075818
0.0011706
0.000768767
0.00109633
0.000784292
0.00101995
0.000803524
0.00094355
0.000819627
0.000870356
0.000827282
0.000802788
0.000829263
0.000740874
0.000829691
0.0006824
0.000832225
0.00062382
0.00083841
0.000562651
0.000845142
0.000497313
0.000849609
0.000426019
0.000856149
0.000346923
0.000862169
0.000261493
0.000854657
0.000171927
0.000835751
8.48813e-05
0.00081899
0.000808177
0.00262501
4.87891e-19
0.00262501
-2.1684e-19
0.00262501
-1.13841e-18
0.00262501
-1.19262e-18
0.00262501
9.75782e-19
0.00262501
1.46367e-18
0.00262501
-2.71051e-19
0.00262501
-1.46367e-18
0.00262501
5.96311e-19
0.00262501
5.42101e-19
0.00262501
6.50521e-19
0.00262501
-1.19262e-18
0.00262501
7.04731e-19
0.00262501
3.79471e-19
0.00262501
-2.1684e-19
0.00262501
-1.02999e-18
0.00262501
1.0842e-18
0.00262501
7.04731e-19
0.00262501
1.46367e-18
0.00262501
3.79471e-19
0.00262501
-1.89735e-18
0.00262501
-1.0842e-19
0.00262501
-9.21572e-19
0.00262501
-8.13152e-19
0.00262501
-5.96311e-19
0.00262501
-1.02999e-18
0.00262501
-1.46367e-18
0.00262501
5.42101e-19
0.00262501
3.79471e-19
0.00262501
-5.42101e-20
0.00262501
-5.42101e-19
0.00262501
2.71051e-19
0.00262501
-5.42101e-19
0.00262501
-1.95156e-18
0.00262501
-1.57209e-18
0.00262501
3.79471e-19
0.00262501
-1.51788e-18
0.00262501
1.6263e-18
0.00262501
3.25261e-19
0.00262501
5.42101e-20
0.00262501
5.42101e-19
0.00262501
8.13152e-19
0.00262501
1.24683e-18
0.00262501
-5.42101e-19
0.00262501
-4.55365e-18
0.00262501
-1.78893e-18
0.00262501
-1.6263e-18
0.00262501
-1.68051e-18
0.00262501
-2.11419e-18
0.00262501
3.79471e-19
0.00262501
3.23634e-17
0.00262501
9.84239e-16
0.00262501
1.27943e-13
0.00262501
4.01946e-12
0.00262501
4.55824e-10
0.0026249
2.00538e-08
0.0026178
1.36217e-06
0.00259561
0.000268137
0.0024559
0.000202672
0.002239
0.000755498
0.00211027
0.000970794
0.00208074
0.000947398
0.00208823
0.000849197
0.00211734
0.000697587
0.00212174
0.000585127
0.00209965
0.000553745
0.0020484
0.000595039
0.00196559
0.00069896
0.00187697
0.000788483
0.00180557
0.000797969
0.00174607
0.000769626
0.00169131
0.000751306
0.00163566
0.000750467
0.00157691
0.000762824
0.00151464
0.000775987
0.00145078
0.000781721
0.00138694
0.000791533
0.00132209
0.000807959
0.00125411
0.000822773
0.00118243
0.000836189
0.00110804
0.000854678
0.0010325
0.000876508
0.000957941
0.000893923
0.000886764
0.000900881
0.00082026
0.000900814
0.000757781
0.00089933
0.000697302
0.000900964
0.000635778
0.000907842
0.000571179
0.00091565
0.00050237
0.000920632
0.00042829
0.000927512
0.000347439
0.000935303
0.000261231
0.000929656
0.000171582
0.000913624
8.45338e-05
0.000896709
0.000885233
0.00262501
-3.25261e-19
0.00262501
-1.0842e-19
0.00262501
2.1684e-19
0.00262501
4.33681e-19
0.00262501
8.67362e-19
0.00262501
-1.19262e-18
0.00262501
2.71051e-19
0.00262501
-5.42101e-20
0.00262501
-2.1684e-19
0.00262501
6.50521e-19
0.00262501
7.04731e-19
0.00262501
1.40946e-18
0.00262501
4.87891e-19
0.00262501
5.42101e-20
0.00262501
0
0.00262501
1.6263e-18
0.00262501