/*--------------------------------*- C++ -*----------------------------------*\
| =========                 |                                                 |
| \\      /  F ield         | OpenFOAM: The Open Source CFD Toolbox           |
|  \\    /   O peration     | Version:  v1812                                 |
|   \\  /    A nd           | Web:      www.OpenFOAM.com                      |
|    \\/     M anipulation  |                                                 |
\*---------------------------------------------------------------------------*/
FoamFile
{
    version     2.0;
    format      ascii;
    class       volScalarField;
    location    "0.8";
    object      rho;
}
// * * * * * * * * * * * * * * * * * * * * * * * * * * * * * * * * * * * * * //

dimensions      [1 -3 0 0 0 0 0];


internalField   nonuniform List<scalar> 
64512
(
1.40001
1.40001
1.40001
1.40001
1.40001
1.40001
1.40001
1.40001
1.40001
1.40001
1.40001
1.40001
1.40001
1.40001
1.40001
1.40001
1.40001
1.40001
1.40001
1.40001
1.40001
1.40001
1.40001
1.40001
1.40001
1.40001
1.40001
1.40001
1.40001
1.40001
1.40001
1.40001
1.40001
1.40001
1.40001
1.40001
1.40001
1.40001
1.40001
1.40001
1.40001
1.40001
1.40001
1.40001
1.40001
1.40001
1.40001
1.40001
1.40001
1.40001
1.40001
1.40001
1.40001
1.40001
1.40059
1.43717
2.53058
4.92377
5.4336
5.54818
5.56682
5.58184
5.58767
5.6019
5.62428
5.65455
5.68816
5.7176
5.74222
5.76267
5.77846
5.78883
5.79478
5.79759
5.7985
5.79971
5.805
5.81467
5.82608
5.83763
5.84869
5.85813
5.86469
5.86755
5.8661
5.85916
5.84473
5.81952
5.77763
5.7086
5.60003
5.45076
5.28989
5.16663
5.11075
5.10061
1.40001
1.40001
1.40001
1.40001
1.40001
1.40001
1.40001
1.40001
1.40001
1.40001
1.40001
1.40001
1.40001
1.40001
1.40001
1.40001
1.40001
1.40001
1.40001
1.40001
1.40001
1.40001
1.40001
1.40001
1.40001
1.40001
1.40001
1.40001
1.40001
1.40001
1.40001
1.40001
1.40001
1.40001
1.40001
1.40001
1.40001
1.40001
1.40001
1.40001
1.40001
1.40001
1.40001
1.40001
1.40001
1.40001
1.40001
1.40001
1.40001
1.40001
1.40001
1.40001
1.40001
1.40001
1.4006
1.43747
2.53671
4.87604
5.43029
5.52938
5.55121
5.56514
5.58189
5.60066
5.62954
5.66376
5.69759
5.72741
5.7483
5.76162
5.77221
5.77983
5.78521
5.78974
5.79438
5.79964
5.80739
5.81828
5.83021
5.84119
5.85069
5.85853
5.8642
5.86698
5.866
5.85984
5.8464
5.82248
5.78247
5.71632
5.61163
5.46599
5.30546
5.17772
5.11506
5.10117
1.40001
1.40001
1.40001
1.40001
1.40001
1.40001
1.40001
1.40001
1.40001
1.40001
1.40001
1.40001
1.40001
1.40001
1.40001
1.40001
1.40001
1.40001
1.40001
1.40001
1.40001
1.40001
1.40001
1.40001
1.40001
1.40001
1.40001
1.40001
1.40001
1.40001
1.40001
1.40001
1.40001
1.40001
1.40001
1.40001
1.40001
1.40001
1.40001
1.40001
1.40001
1.40001
1.40001
1.40001
1.40001
1.40001
1.40001
1.40001
1.40001
1.40001
1.40001
1.40001
1.40001
1.40001
1.4006
1.43805
2.53615
4.77966
5.44766
5.5268
5.54494
5.5598
5.57835
5.59856
5.62882
5.6663
5.69965
5.72453
5.74254
5.7534
5.75989
5.76633
5.77351
5.78153
5.78957
5.79902
5.81058
5.82317
5.83494
5.84478
5.85249
5.85881
5.86376
5.86674
5.86662
5.86175
5.84999
5.82845
5.79209
5.7317
5.6349
5.49666
5.33706
5.20043
5.12448
5.1032
1.40001
1.40001
1.40001
1.40001
1.40001
1.40001
1.40001
1.40001
1.40001
1.40001
1.40001
1.40001
1.40001
1.40001
1.40001
1.40001
1.40001
1.40001
1.40001
1.40001
1.40001
1.40001
1.40001
1.40001
1.40001
1.40001
1.40001
1.40001
1.40001
1.40001
1.40001
1.40001
1.40001
1.40001
1.40001
1.40001
1.40001
1.40001
1.40001
1.40001
1.40001
1.40001
1.40001
1.40001
1.40001
1.40001
1.40001
1.40001
1.40001
1.40001
1.40001
1.40001
1.40001
1.40001
1.40056
1.43556
2.47245
4.72303
5.49431
5.53081
5.54227
5.55197
5.57148
5.59229
5.62316
5.66077
5.69181
5.71515
5.73242
5.74334
5.75087
5.7584
5.76637
5.77609
5.7858
5.79773
5.81116
5.82458
5.83625
5.8451
5.85149
5.85673
5.86116
5.86435
5.865
5.8613
5.85126
5.83245
5.80057
5.74731
5.66026
5.53118
5.37317
5.22649
5.13502
5.10476
1.40001
1.40001
1.40001
1.40001
1.40001
1.40001
1.40001
1.40001
1.40001
1.40001
1.40001
1.40001
1.40001
1.40001
1.40001
1.40001
1.40001
1.40001
1.40001
1.40001
1.40001
1.40001
1.40001
1.40001
1.40001
1.40001
1.40001
1.40001
1.40001
1.40001
1.40001
1.40001
1.40001
1.40001
1.40001
1.40001
1.40001
1.40001
1.40001
1.40001
1.40001
1.40001
1.40001
1.40001
1.40001
1.40001
1.40001
1.40001
1.40001
1.40001
1.40001
1.40001
1.40001
1.40001
1.40048
1.43096
2.36671
4.70869
5.55227
5.55333
5.53947
5.54733
5.56716
5.58749
5.61909
5.65684
5.68538
5.70676
5.72397
5.73615
5.74546
5.75424
5.76258
5.77296
5.78269
5.79467
5.80836
5.82233
5.83458
5.84379
5.8501
5.8549
5.85889
5.86187
5.86258
5.85935
5.85052
5.83413
5.80656
5.76033
5.683
5.56349
5.40825
5.25302
5.14675
5.1075
1.40001
1.40001
1.40001
1.40001
1.40001
1.40001
1.40001
1.40001
1.40001
1.40001
1.40001
1.40001
1.40001
1.40001
1.40001
1.40001
1.40001
1.40001
1.40001
1.40001
1.40001
1.40001
1.40001
1.40001
1.40001
1.40001
1.40001
1.40001
1.40001
1.40001
1.40001
1.40001
1.40001
1.40001
1.40001
1.40001
1.40001
1.40001
1.40001
1.40001
1.40001
1.40001
1.40001
1.40001
1.40001
1.40001
1.40001
1.40001
1.40001
1.40001
1.40001
1.40001
1.40001
1.40001
1.40038
1.42505
2.21728
4.70767
5.58365
5.55993
5.53289
5.54398
5.56497
5.58562
5.61771
5.6552
5.68214
5.7015
5.71796
5.73112
5.74246
5.75324
5.76243
5.77186
5.78057
5.79104
5.80369
5.81757
5.83045
5.84046
5.84725
5.85191
5.85532
5.85757
5.8577
5.85435
5.84622
5.83172
5.80772
5.76743
5.69849
5.58761
5.43579
5.27431
5.15569
5.10847
1.40001
1.40001
1.40001
1.40001
1.40001
1.40001
1.40001
1.40001
1.40001
1.40001
1.40001
1.40001
1.40001
1.40001
1.40001
1.40001
1.40001
1.40001
1.40001
1.40001
1.40001
1.40001
1.40001
1.40001
1.40001
1.40001
1.40001
1.40001
1.40001
1.40001
1.40001
1.40001
1.40001
1.40001
1.40001
1.40001
1.40001
1.40001
1.40001
1.40001
1.40001
1.40001
1.40001
1.40001
1.40001
1.40001
1.40001
1.40001
1.40001
1.40001
1.40001
1.40001
1.40001
1.40001
1.40028
1.41851
2.03955
4.71049
5.59745
5.56028
5.53183
5.54291
5.56033
5.58363
5.61838
5.65532
5.68179
5.70004
5.71542
5.72878
5.74192
5.75393
5.76347
5.77182
5.77911
5.7877
5.79893
5.81234
5.82555
5.83623
5.84354
5.84819
5.8511
5.85254
5.85185
5.84801
5.84004
5.82672
5.8053
5.76949
5.707
5.60316
5.45491
5.28969
5.16189
5.10845
1.40001
1.40001
1.40001
1.40001
1.40001
1.40001
1.40001
1.40001
1.40001
1.40001
1.40001
1.40001
1.40001
1.40001
1.40001
1.40001
1.40001
1.40001
1.40001
1.40001
1.40001
1.40001
1.40001
1.40001
1.40001
1.40001
1.40001
1.40001
1.40001
1.40001
1.40001
1.40001
1.40001
1.40001
1.40001
1.40001
1.40001
1.40001
1.40001
1.40001
1.40001
1.40001
1.40001
1.40001
1.40001
1.40001
1.40001
1.40001
1.40001
1.40001
1.40001
1.40001
1.40001
1.40001
1.40018
1.41221
1.85522
4.70085
5.60071
5.55873
5.5335
5.54395
5.55785
5.58373
5.62105
5.65686
5.68336
5.70116
5.71483
5.72849
5.74203
5.75409
5.76339
5.77089
5.77692
5.78388
5.79391
5.80687
5.82029
5.83147
5.8392
5.84385
5.84625
5.84677
5.84511
5.84063
5.83258
5.81993
5.80021
5.76741
5.70934
5.61055
5.46539
5.29829
5.16422
5.10637
1.40001
1.40001
1.40001
1.40001
1.40001
1.40001
1.40001
1.40001
1.40001
1.40001
1.40001
1.40001
1.40001
1.40001
1.40001
1.40001
1.40001
1.40001
1.40001
1.40001
1.40001
1.40001
1.40001
1.40001
1.40001
1.40001
1.40001
1.40001
1.40001
1.40001
1.40001
1.40001
1.40001
1.40001
1.40001
1.40001
1.40001
1.40001
1.40001
1.40001
1.40001
1.40001
1.40001
1.40001
1.40001
1.40001
1.40001
1.40001
1.40001
1.40001
1.40001
1.40001
1.40001
1.40001
1.4001
1.40692
1.69129
4.66511
5.58576
5.55287
5.53379
5.54635
5.5591
5.5854
5.62341
5.65742
5.68344
5.70143
5.71354
5.72638
5.74016
5.7519
5.76056
5.76726
5.77249
5.77855
5.78807
5.80092
5.81454
5.82605
5.83412
5.8388
5.84072
5.84033
5.83769
5.83256
5.82438
5.81221
5.79367
5.76276
5.70736
5.61174
5.46883
5.30103
5.16299
5.10231
1.40001
1.40001
1.40001
1.40001
1.40001
1.40001
1.40001
1.40001
1.40001
1.40001
1.40001
1.40001
1.40001
1.40001
1.40001
1.40001
1.40001
1.40001
1.40001
1.40001
1.40001
1.40001
1.40001
1.40001
1.40001
1.40001
1.40001
1.40001
1.40001
1.40001
1.40001
1.40001
1.40001
1.40001
1.40001
1.40001
1.40001
1.40001
1.40001
1.40001
1.40001
1.40001
1.40001
1.40001
1.40001
1.40001
1.40001
1.40001
1.40001
1.40001
1.40001
1.40001
1.40001
1.40001
1.40006
1.40343
1.57583
4.5911
5.53052
5.53946
5.52873
5.54171
5.55536
5.58477
5.62438
5.6559
5.68014
5.69763
5.70906
5.72185
5.73619
5.74738
5.75505
5.76081
5.76533
5.77102
5.78059
5.79372
5.80767
5.81955
5.82803
5.83289
5.83451
5.83336
5.82985
5.82414
5.81595
5.80424
5.78657
5.75671
5.70261
5.60859
5.46697
5.299
5.1586
5.09623
1.40001
1.40001
1.40001
1.40001
1.40001
1.40001
1.40001
1.40001
1.40001
1.40001
1.40001
1.40001
1.40001
1.40001
1.40001
1.40001
1.40001
1.40001
1.40001
1.40001
1.40001
1.40001
1.40001
1.40001
1.40001
1.40001
1.40001
1.40001
1.40001
1.40001
1.40001
1.40001
1.40001
1.40001
1.40001
1.40001
1.40001
1.40001
1.40001
1.40001
1.40001
1.40001
1.40001
1.40001
1.40001
1.40001
1.40001
1.40001
1.40001
1.40001
1.40001
1.40001
1.40001
1.40001
1.40004
1.40222
1.52929
4.4631
5.45523
5.51628
5.51948
5.53093
5.5504
5.58582
5.626
5.65255
5.67369
5.68941
5.70031
5.71367
5.72871
5.73941
5.74635
5.75149
5.75558
5.76139
5.7715
5.78528
5.79976
5.81209
5.82101
5.82613
5.82756
5.82587
5.82173
5.81566
5.80756
5.79628
5.77919
5.74976
5.69603
5.60252
5.46143
5.29352
5.15177
5.08853
1.40001
1.40001
1.40001
1.40001
1.40001
1.40001
1.40001
1.40001
1.40001
1.40001
1.40001
1.40001
1.40001
1.40001
1.40001
1.40001
1.40001
1.40001
1.40001
1.40001
1.40001
1.40001
1.40001
1.40001
1.40001
1.40001
1.40001
1.40001
1.40001
1.40001
1.40001
1.40001
1.40001
1.40001
1.40001
1.40001
1.40001
1.40001
1.40001
1.40001
1.40001
1.40001
1.40001
1.40001
1.40001
1.40001
1.40001
1.40001
1.40001
1.40001
1.40001
1.40001
1.40001
1.40001
1.40004
1.402
1.51737
4.30495
5.38034
5.48589
5.50686
5.51375
5.54739
5.58634
5.6268
5.64696
5.66474
5.67875
5.68948
5.70384
5.71948
5.72989
5.73643
5.74116
5.74496
5.75103
5.76175
5.77621
5.79118
5.80386
5.8131
5.81841
5.81975
5.8178
5.81344
5.80738
5.79956
5.78871
5.77193
5.7424
5.68828
5.59445
5.45326
5.2854
5.14286
5.07917
1.40001
1.40001
1.40001
1.40001
1.40001
1.40001
1.40001
1.40001
1.40001
1.40001
1.40001
1.40001
1.40001
1.40001
1.40001
1.40001
1.40001
1.40001
1.40001
1.40001
1.40001
1.40001
1.40001
1.40001
1.40001
1.40001
1.40001
1.40001
1.40001
1.40001
1.40001
1.40001
1.40001
1.40001
1.40001
1.40001
1.40001
1.40001
1.40001
1.40001
1.40001
1.40001
1.40001
1.40001
1.40001
1.40001
1.40001
1.40001
1.40001
1.40001
1.40001
1.40001
1.40001
1.40001
1.40003
1.40183
1.50756
4.12611
5.30215
5.45664
5.48326
5.49934
5.54182
5.58709
5.62517
5.63941
5.65355
5.66612
5.67736
5.69332
5.70939
5.72006
5.72652
5.73094
5.73449
5.74084
5.75204
5.76695
5.78216
5.79494
5.80424
5.80962
5.81102
5.80916
5.80501
5.7993
5.7919
5.78139
5.76458
5.73453
5.67951
5.58492
5.4433
5.2755
5.1325
5.06865
1.40001
1.40001
1.40001
1.40001
1.40001
1.40001
1.40001
1.40001
1.40001
1.40001
1.40001
1.40001
1.40001
1.40001
1.40001
1.40001
1.40001
1.40001
1.40001
1.40001
1.40001
1.40001
1.40001
1.40001
1.40001
1.40001
1.40001
1.40001
1.40001
1.40001
1.40001
1.40001
1.40001
1.40001
1.40001
1.40001
1.40001
1.40001
1.40001
1.40001
1.40001
1.40001
1.40001
1.40001
1.40001
1.40001
1.40001
1.40001
1.40001
1.40001
1.40001
1.40001
1.40001
1.40001
1.40003
1.40164
1.4968
3.90679
5.21564
5.42733
5.44714
5.48954
5.54199
5.59317
5.61721
5.63099
5.64075
5.65199
5.66418
5.68279
5.69942
5.71064
5.71721
5.7212
5.72447
5.73103
5.74248
5.7575
5.77263
5.7852
5.79431
5.79971
5.80136
5.79996
5.7964
5.7913
5.78436
5.77404
5.75697
5.72614
5.66996
5.57436
5.43206
5.2642
5.12084
5.05686
1.40001
1.40001
1.40001
1.40001
1.40001
1.40001
1.40001
1.40001
1.40001
1.40001
1.40001
1.40001
1.40001
1.40001
1.40001
1.40001
1.40001
1.40001
1.40001
1.40001
1.40001
1.40001
1.40001
1.40001
1.40001
1.40001
1.40001
1.40001
1.40001
1.40001
1.40001
1.40001
1.40001
1.40001
1.40001
1.40001
1.40001
1.40001
1.40001
1.40001
1.40001
1.40001
1.40001
1.40001
1.40001
1.40001
1.40001
1.40001
1.40001
1.40001
1.40001
1.40001
1.40001
1.40001
1.40003
1.40145
1.48609
3.65213
5.11767
5.38953
5.42899
5.4836
5.54923
5.59967
5.60626
5.61823
5.62453
5.63672
5.65085
5.67245
5.6903
5.7019
5.7085
5.71175
5.71468
5.72137
5.73284
5.74764
5.76238
5.77449
5.78324
5.78864
5.79075
5.79011
5.78736
5.78296
5.77639
5.76604
5.74852
5.71683
5.65947
5.56288
5.41986
5.25188
5.10807
5.04394
1.40001
1.40001
1.40001
1.40001
1.40001
1.40001
1.40001
1.40001
1.40001
1.40001
1.40001
1.40001
1.40001
1.40001
1.40001
1.40001
1.40001
1.40001
1.40001
1.40001
1.40001
1.40001
1.40001
1.40001
1.40001
1.40001
1.40001
1.40001
1.40001
1.40001
1.40001
1.40001
1.40001
1.40001
1.40001
1.40001
1.40001
1.40001
1.40001
1.40001
1.40001
1.40001
1.40001
1.40001
1.40001
1.40001
1.40001
1.40001
1.40001
1.40001
1.40001
1.40001
1.40001
1.40001
1.40003
1.40129
1.47673
3.4068
4.99368
5.32525
5.42184
5.49287
5.56372
5.58677
5.59909
5.60019
5.60484
5.62042
5.63916
5.66309
5.68227
5.69385
5.69993
5.70215
5.70474
5.71157
5.7229
5.73722
5.75131
5.76272
5.77097
5.7764
5.7791
5.77938
5.77753
5.77378
5.7674
5.75684
5.73883
5.70639
5.64809
5.55063
5.40686
5.2386
5.09409
5.02951
1.40001
1.40001
1.40001
1.40001
1.40001
1.40001
1.40001
1.40001
1.40001
1.40001
1.40001
1.40001
1.40001
1.40001
1.40001
1.40001
1.40001
1.40001
1.40001
1.40001
1.40001
1.40001
1.40001
1.40001
1.40001
1.40001
1.40001
1.40001
1.40001
1.40001
1.40001
1.40001
1.40001
1.40001
1.40001
1.40001
1.40001
1.40001
1.40001
1.40001
1.40001
1.40001
1.40001
1.40001
1.40001
1.40001
1.40001
1.40001
1.40001
1.40001
1.40001
1.40001
1.40001
1.40001
1.40002
1.40112
1.46724
3.16668
4.84221
5.29916
5.43952
5.5227
5.56708
5.57543
5.58221
5.57647
5.58674
5.60432
5.62949
5.65618
5.67508
5.68634
5.69115
5.69206
5.69439
5.70138
5.71247
5.72613
5.73935
5.74986
5.75753
5.763
5.76637
5.76757
5.76654
5.76323
5.7568
5.74593
5.72742
5.69444
5.63557
5.53747
5.39307
5.22441
5.07887
5.01374
1.40001
1.40001
1.40001
1.40001
1.40001
1.40001
1.40001
1.40001
1.40001
1.40001
1.40001
1.40001
1.40001
1.40001
1.40001
1.40001
1.40001
1.40001
1.40001
1.40001
1.40001
1.40001
1.40001
1.40001
1.40001
1.40001
1.40001
1.40001
1.40001
1.40001
1.40001
1.40001
1.40001
1.40001
1.40001
1.40001
1.40001
1.40001
1.40001
1.40001
1.40001
1.40001
1.40001
1.40001
1.40001
1.40001
1.40001
1.40001
1.40001
1.40001
1.40001
1.40001
1.40001
1.40001
1.40002
1.40088
1.45434
2.88153
4.70808
5.333
5.48215
5.54679
5.56505
5.57189
5.55458
5.55191
5.56945
5.59226
5.62232
5.65202
5.6685
5.6788
5.68155
5.68106
5.68338
5.69061
5.70142
5.71433
5.7265
5.73593
5.74298
5.74853
5.75254
5.75453
5.75407
5.75094
5.74426
5.73311
5.71423
5.68105
5.62196
5.52348
5.37852
5.20925
5.06204
4.99612
1.40001
1.40001
1.40001
1.40001
1.40001
1.40001
1.40001
1.40001
1.40001
1.40001
1.40001
1.40001
1.40001
1.40001
1.40001
1.40001
1.40001
1.40001
1.40001
1.40001
1.40001
1.40001
1.40001
1.40001
1.40001
1.40001
1.40001
1.40001
1.40001
1.40001
1.40001
1.40001
1.40001
1.40001
1.40001
1.40001
1.40001
1.40001
1.40001
1.40001
1.40001
1.40001
1.40001
1.40001
1.40001
1.40001
1.40001
1.40001
1.40001
1.40001
1.40001
1.40001
1.40001
1.40001
1.40001
1.40057
1.43656
2.50112
4.65068
5.41945
5.55535
5.55684
5.57036
5.54108
5.52162
5.53329
5.55368
5.58491
5.61998
5.64899
5.66253
5.67029
5.67038
5.66878
5.67157
5.67916
5.68973
5.70187
5.71281
5.72103
5.72746
5.73307
5.73759
5.74009
5.73989
5.73665
5.72962
5.71819
5.699
5.66599
5.60688
5.50828
5.36302
5.19316
5.04372
4.9771
1.40001
1.40001
1.40001
1.40001
1.40001
1.40001
1.40001
1.40001
1.40001
1.40001
1.40001
1.40001
1.40001
1.40001
1.40001
1.40001
1.40001
1.40001
1.40001
1.40001
1.40001
1.40001
1.40001
1.40001
1.40001
1.40001
1.40001
1.40001
1.40001
1.40001
1.40001
1.40001
1.40001
1.40001
1.40001
1.40001
1.40001
1.40001
1.40001
1.40001
1.40001
1.40001
1.40001
1.40001
1.40001
1.40001
1.40001
1.40001
1.40001
1.40001
1.40001
1.40001
1.40001
1.40001
1.40001
1.40025
1.4168
2.01637
4.64393
5.54767
5.5974
5.54838
5.53011
5.50173
5.49973
5.51753
5.54572
5.58342
5.62146
5.64447
5.65616
5.65971
5.65721
5.65513
5.65899
5.66698
5.67743
5.68882
5.69839
5.70529
5.71108
5.7167
5.72149
5.72415
5.72385
5.72033
5.71302
5.70136
5.68205
5.64938
5.59036
5.49178
5.34636
5.17578
5.02369
4.9563
1.40001
1.40001
1.40001
1.40001
1.40001
1.40001
1.40001
1.40001
1.40001
1.40001
1.40001
1.40001
1.40001
1.40001
1.40001
1.40001
1.40001
1.40001
1.40001
1.40001
1.40001
1.40001
1.40001
1.40001
1.40001
1.40001
1.40001
1.40001
1.40001
1.40001
1.40001
1.40001
1.40001
1.40001
1.40001
1.40001
1.40001
1.40001
1.40001
1.40001
1.40001
1.40001
1.40001
1.40001
1.40001
1.40001
1.40001
1.40001
1.40001
1.40001
1.40001
1.40001
1.40001
1.40001
1.40001
1.40007
1.40386
1.58835
4.47492
5.57322
5.55685
5.49911
5.47999
5.47439
5.48729
5.50916
5.54577
5.58743
5.62204
5.63796
5.64687
5.64639
5.64209
5.64031
5.64579
5.65415
5.66464
5.67522
5.68324
5.68876
5.69392
5.69945
5.7042
5.70664
5.70595
5.702
5.69446
5.68253
5.663
5.63032
5.57121
5.47307
5.32805
5.15698
5.00248
4.93483
1.40001
1.40001
1.40001
1.40001
1.40001
1.40001
1.40001
1.40001
1.40001
1.40001
1.40001
1.40001
1.40001
1.40001
1.40001
1.40001
1.40001
1.40001
1.40001
1.40001
1.40001
1.40001
1.40001
1.40001
1.40001
1.40001
1.40001
1.40001
1.40001
1.40001
1.40001
1.40001
1.40001
1.40001
1.40001
1.40001
1.40001
1.40001
1.40001
1.40001
1.40001
1.40001
1.40001
1.40001
1.40001
1.40001
1.40001
1.40001
1.40001
1.40001
1.40001
1.40001
1.40001
1.40001
1.40001
1.40004
1.40186
1.50992
4.07192
5.48212
5.4935
5.4461
5.44274
5.46089
5.48
5.51207
5.55281
5.59303
5.61578
5.62914
5.63392
5.62991
5.62507
5.62524
5.6322
5.64101
5.6515
5.66092
5.66719
5.67134
5.67591
5.68121
5.68565
5.68756
5.68625
5.68176
5.67397
5.66162
5.64178
5.60851
5.54935
5.45229
5.30807
5.13667
4.97964
4.91083
1.40001
1.40001
1.40001
1.40001
1.40001
1.40001
1.40001
1.40001
1.40001
1.40001
1.40001
1.40001
1.40001
1.40001
1.40001
1.40001
1.40001
1.40001
1.40001
1.40001
1.40001
1.40001
1.40001
1.40001
1.40001
1.40001
1.40001
1.40001
1.40001
1.40001
1.40001
1.40001
1.40001
1.40001
1.40001
1.40001
1.40001
1.40001
1.40001
1.40001
1.40001
1.40001
1.40001
1.40001
1.40001
1.40001
1.40001
1.40001
1.40001
1.40001
1.40001
1.40001
1.40001
1.40001
1.40001
1.40003
1.40141
1.48499
3.63874
5.32493
5.4392
5.42091
5.43895
5.45619
5.48485
5.52314
5.56271
5.58944
5.60439
5.61625
5.61541
5.61011
5.60684
5.61093
5.61872
5.62792
5.63788
5.64568
5.64999
5.65283
5.65685
5.66181
5.66572
5.66689
5.66482
5.65968
5.65147
5.63825
5.61741
5.58295
5.52369
5.42838
5.28581
5.11468
4.9547
4.885
1.40001
1.40001
1.40001
1.40001
1.40001
1.40001
1.40001
1.40001
1.40001
1.40001
1.40001
1.40001
1.40001
1.40001
1.40001
1.40001
1.40001
1.40001
1.40001
1.40001
1.40001
1.40001
1.40001
1.40001
1.40001
1.40001
1.40001
1.40001
1.40001
1.40001
1.40001
1.40001
1.40001
1.40001
1.40001
1.40001
1.40001
1.40001
1.40001
1.40001
1.40001
1.40001
1.40001
1.40001
1.40001
1.40001
1.40001
1.40001
1.40001
1.40001
1.40001
1.40001
1.40001
1.40001
1.40001
1.40002
1.40105
1.46342
3.17886
5.13404
5.423
5.43311
5.44349
5.46966
5.50146
5.53783
5.56287
5.57617
5.59128
5.59475
5.5906
5.58877
5.58931
5.59746
5.60603
5.6149
5.62353
5.62906
5.63124
5.63287
5.63637
5.64089
5.64416
5.64451
5.64157
5.63564
5.62652
5.61191
5.5896
5.55349
5.49476
5.40227
5.2618
5.09054
4.92647
4.85307
1.40001
1.40001
1.40001
1.40001
1.40001
1.40001
1.40001
1.40001
1.40001
1.40001
1.40001
1.40001
1.40001
1.40001
1.40001
1.40001
1.40001
1.40001
1.40001
1.40001
1.40001
1.40001
1.40001
1.40001
1.40001
1.40001
1.40001
1.40001
1.40001
1.40001
1.40001
1.40001
1.40001
1.40001
1.40001
1.40001
1.40001
1.40001
1.40001
1.40001
1.40001
1.40001
1.40001
1.40001
1.40001
1.40001
1.40001
1.40001
1.40001
1.40001
1.40001
1.40001
1.40001
1.40001
1.40001
1.40002
1.40066
1.44088
2.66646
4.99749
5.44366
5.45692
5.46694
5.49161
5.51987
5.54139
5.55292
5.56351
5.56688
5.56451
5.56421
5.56792
5.57431
5.5851
5.59358
5.6015
5.60791
5.61056
5.61058
5.61117
5.61418
5.6182
5.62079
5.62026
5.61631
5.60939
5.59883
5.58227
5.55761
5.51994
5.46233
5.37287
5.23443
5.06285
4.89338
4.81522
1.40001
1.40001
1.40001
1.40001
1.40001
1.40001
1.40001
1.40001
1.40001
1.40001
1.40001
1.40001
1.40001
1.40001
1.40001
1.40001
1.40001
1.40001
1.40001
1.40001
1.40001
1.40001
1.40001
1.40001
1.40001
1.40001
1.40001
1.40001
1.40001
1.40001
1.40001
1.40001
1.40001
1.40001
1.40001
1.40001
1.40001
1.40001
1.40001
1.40001
1.40001
1.40001
1.40001
1.40001
1.40001
1.40001
1.40001
1.40001
1.40001
1.40001
1.40001
1.40001
1.40001
1.40001
1.40001
1.40001
1.40031
1.41937
2.10708
4.87255
5.50793
5.48893
5.49059
5.50602
5.52803
5.53921
5.53693
5.53358
5.53187
5.53275
5.54149
5.54918
5.56161
5.57323
5.58057
5.58686
5.59017
5.58966
5.58769
5.58749
5.59004
5.59344
5.59527
5.5938
5.58865
5.58025
5.56763
5.54868
5.52134
5.48277
5.42684
5.34045
5.20359
5.03066
4.85641
4.7641
1.40001
1.40001
1.40001
1.40001
1.40001
1.40001
1.40001
1.40001
1.40001
1.40001
1.40001
1.40001
1.40001
1.40001
1.40001
1.40001
1.40001
1.40001
1.40001
1.40001
1.40001
1.40001
1.40001
1.40001
1.40001
1.40001
1.40001
1.40001
1.40001
1.40001
1.40001
1.40001
1.40001
1.40001
1.40001
1.40001
1.40001
1.40001
1.40001
1.40001
1.40001
1.40001
1.40001
1.40001
1.40001
1.40001
1.40001
1.40001
1.40001
1.40001
1.40001
1.40001
1.40001
1.40001
1.40001
1.40001
1.40009
1.40457
1.60668
4.51431
5.49763
5.52085
5.51021
5.51767
5.5227
5.51284
5.50162
5.49578
5.4981
5.50968
5.5215
5.53539
5.55035
5.56011
5.56631
5.56993
5.56939
5.56585
5.5625
5.56199
5.56411
5.56675
5.5676
5.56496
5.55824
5.54786
5.53271
5.511
5.48114
5.44196
5.38693
5.30168
5.16417
4.98671
4.81448
4.70324
1.40001
1.40001
1.40001
1.40001
1.40001
1.40001
1.40001
1.40001
1.40001
1.40001
1.40001
1.40001
1.40001
1.40001
1.40001
1.40001
1.40001
1.40001
1.40001
1.40001
1.40001
1.40001
1.40001
1.40001
1.40001
1.40001
1.40001
1.40001
1.40001
1.40001
1.40001
1.40001
1.40001
1.40001
1.40001
1.40001
1.40001
1.40001
1.40001
1.40001
1.40001
1.40001
1.40001
1.40001
1.40001
1.40001
1.40001
1.40001
1.40001
1.40001
1.40001
1.40001
1.40001
1.40001
1.40001
1.40001
1.40004
1.40187
1.50676
3.94652
5.30843
5.47069
5.49847
5.50608
5.49921
5.48507
5.47357
5.47073
5.47752
5.49157
5.50721
5.52479
5.53849
5.54585
5.55001
5.5495
5.54486
5.53924
5.53566
5.53523
5.53676
5.53821
5.5376
5.5333
5.52447
5.51148
5.4936
5.46879
5.43647
5.39618
5.34058
5.25427
5.11435
4.92745
4.74688
4.64971
1.40001
1.40001
1.40001
1.40001
1.40001
1.40001
1.40001
1.40001
1.40001
1.40001
1.40001
1.40001
1.40001
1.40001
1.40001
1.40001
1.40001
1.40001
1.40001
1.40001
1.40001
1.40001
1.40001
1.40001
1.40001
1.40001
1.40001
1.40001
1.40001
1.40001
1.40001
1.40001
1.40001
1.40001
1.40001
1.40001
1.40001
1.40001
1.40001
1.40001
1.40001
1.40001
1.40001
1.40001
1.40001
1.40001
1.40001
1.40001
1.40001
1.40001
1.40001
1.40001
1.40001
1.40001
1.40001
1.40001
1.40003
1.40133
1.47945
3.46008
5.05703
5.39136
5.45917
5.48187
5.48267
5.46841
5.45538
5.45347
5.46386
5.47966
5.49796
5.51399
5.52416
5.52992
5.52995
5.52397
5.51677
5.51086
5.50819
5.50771
5.5082
5.50805
5.50548
5.49868
5.48719
5.47136
5.45032
5.42222
5.38706
5.34428
5.28553
5.19415
5.04722
4.85349
4.65857
4.58427
1.40001
1.40001
1.40001
1.40001
1.40001
1.40001
1.40001
1.40001
1.40001
1.40001
1.40001
1.40001
1.40001
1.40001
1.40001
1.40001
1.40001
1.40001
1.40001
1.40001
1.40001
1.40001
1.40001
1.40001
1.40001
1.40001
1.40001
1.40001
1.40001
1.40001
1.40001
1.40001
1.40001
1.40001
1.40001
1.40001
1.40001
1.40001
1.40001
1.40001
1.40001
1.40001
1.40001
1.40001
1.40001
1.40001
1.40001
1.40001
1.40001
1.40001
1.40001
1.40001
1.40001
1.40001
1.40001
1.40001
1.40002
1.40096
1.45806
3.00209
4.85862
5.36916
5.45804
5.46187
5.46307
5.45523
5.44706
5.44576
5.4552
5.47163
5.48776
5.49991
5.50782
5.5091
5.50283
5.49403
5.48736
5.48274
5.48085
5.48003
5.47906
5.47671
5.47123
5.46119
5.44642
5.42717
5.40248
5.37067
5.33155
5.28405
5.21934
5.12157
4.96898
4.769
4.57117
4.44309
1.40001
1.40001
1.40001
1.40001
1.40001
1.40001
1.40001
1.40001
1.40001
1.40001
1.40001
1.40001
1.40001
1.40001
1.40001
1.40001
1.40001
1.40001
1.40001
1.40001
1.40001
1.40001
1.40001
1.40001
1.40001
1.40001
1.40001
1.40001
1.40001
1.40001
1.40001
1.40001
1.40001
1.40001
1.40001
1.40001
1.40001
1.40001
1.40001
1.40001
1.40001
1.40001
1.40001
1.40001
1.40001
1.40001
1.40001
1.40001
1.40001
1.40001
1.40001
1.40001
1.40001
1.40001
1.40001
1.40001
1.40001
1.40054
1.4334
2.47115
4.81163
5.38506
5.4548
5.44428
5.44738
5.44457
5.43942
5.43999
5.45026
5.46501
5.47742
5.48484
5.48488
5.47855
5.46976
5.46385
5.45962
5.45611
5.45372
5.45194
5.44903
5.44394
5.43475
5.42095
5.40246
5.37945
5.35076
5.3145
5.27001
5.21572
5.14299
5.03649
4.87189
4.64504
4.39941
4.25653
1.40001
1.40001
1.40001
1.40001
1.40001
1.40001
1.40001
1.40001
1.40001
1.40001
1.40001
1.40001
1.40001
1.40001
1.40001
1.40001
1.40001
1.40001
1.40001
1.40001
1.40001
1.40001
1.40001
1.40001
1.40001
1.40001
1.40001
1.40001
1.40001
1.40001
1.40001
1.40001
1.40001
1.40001
1.40001
1.40001
1.40001
1.40001
1.40001
1.40001
1.40001
1.40001
1.40001
1.40001
1.40001
1.40001
1.40001
1.40001
1.40001
1.40001
1.40001
1.40001
1.40001
1.40001
1.40001
1.40001
1.40001
1.40018
1.41021
1.80985
4.67872
5.40463
5.43748
5.42706
5.42908
5.43622
5.43495
5.43695
5.44659
5.45849
5.46551
5.46501
5.45747
5.44726
5.43968
5.43734
5.43399
5.43031
5.42699
5.42387
5.41854
5.40971
5.39614
5.37821
5.35573
5.3283
5.29508
5.25402
5.20231
5.13845
5.05487
4.93543
4.75125
4.4944
4.19762
3.90507
1.40001
1.40001
1.40001
1.40001
1.40001
1.40001
1.40001
1.40001
1.40001
1.40001
1.40001
1.40001
1.40001
1.40001
1.40001
1.40001
1.40001
1.40001
1.40001
1.40001
1.40001
1.40001
1.40001
1.40001
1.40001
1.40001
1.40001
1.40001
1.40001
1.40001
1.40001
1.40001
1.40001
1.40001
1.40001
1.40001
1.40001
1.40001
1.40001
1.40001
1.40001
1.40001
1.40001
1.40001
1.40001
1.40001
1.40001
1.40001
1.40001
1.40001
1.40001
1.40001
1.40001
1.40001
1.40001
1.40001
1.40001
1.40005
1.40241
1.52712
4.10568
5.25117
5.36275
5.38463
5.40495
5.41841
5.42324
5.4287
5.44017
5.45049
5.45241
5.44494
5.43181
5.42026
5.41528
5.41268
5.40917
5.40502
5.40042
5.39471
5.38591
5.37303
5.35513
5.33285
5.30615
5.27459
5.23666
5.1899
5.13094
5.05653
4.95792
4.82045
4.60865
4.30649
3.85626
2.97426
1.40001
1.40001
1.40001
1.40001
1.40001
1.40001
1.40001
1.40001
1.40001
1.40001
1.40001
1.40001
1.40001
1.40001
1.40001
1.40001
1.40001
1.40001
1.40001
1.40001
1.40001
1.40001
1.40001
1.40001
1.40001
1.40001
1.40001
1.40001
1.40001
1.40001
1.40001
1.40001
1.40001
1.40001
1.40001
1.40001
1.40001
1.40001
1.40001
1.40001
1.40001
1.40001
1.40001
1.40001
1.40001
1.40001
1.40001
1.40001
1.40001
1.40001
1.40001
1.40001
1.40001
1.40001
1.40001
1.40001
1.40001
1.40002
1.40122
1.47379
3.40135
5.06062
5.33595
5.37722
5.39556
5.40442
5.41176
5.42234
5.43444
5.44182
5.43919
5.42619
5.40906
5.39684
5.39311
5.38817
5.38407
5.37925
5.37258
5.36341
5.35064
5.33373
5.31174
5.28521
5.25454
5.21901
5.1762
5.12304
5.05557
4.97019
4.85748
4.69927
4.46119
4.10488
3.55874
2.67403
1.40001
1.40001
1.40001
1.40001
1.40001
1.40001
1.40001
1.40001
1.40001
1.40001
1.40001
1.40001
1.40001
1.40001
1.40001
1.40001
1.40001
1.40001
1.40001
1.40001
1.40001
1.40001
1.40001
1.40001
1.40001
1.40001
1.40001
1.40001
1.40001
1.40001
1.40001
1.40001
1.40001
1.40001
1.40001
1.40001
1.40001
1.40001
1.40001
1.40001
1.40001
1.40001
1.40001
1.40001
1.40001
1.40001
1.40001
1.40001
1.40001
1.40001
1.40001
1.40001
1.40001
1.40001
1.40001
1.40001
1.40001
1.40002
1.40066
1.4407
2.70419
4.98795
5.39019
5.37485
5.38255
5.39179
5.40021
5.41485
5.4249
5.42914
5.42388
5.40836
5.3891
5.37593
5.37141
5.3646
5.35907
5.35236
5.34276
5.32963
5.31271
5.29184
5.26625
5.23612
5.20169
5.16225
5.11465
5.05515
4.97919
4.88267
4.75569
4.58074
4.32672
3.94983
3.406
2.69617
1.40001
1.40001
1.40001
1.40001
1.40001
1.40001
1.40001
1.40001
1.40001
1.40001
1.40001
1.40001
1.40001
1.40001
1.40001
1.40001
1.40001
1.40001
1.40001
1.40001
1.40001
1.40001
1.40001
1.40001
1.40001
1.40001
1.40001
1.40001
1.40001
1.40001
1.40001
1.40001
1.40001
1.40001
1.40001
1.40001
1.40001
1.40001
1.40001
1.40001
1.40001
1.40001
1.40001
1.40001
1.40001
1.40001
1.40001
1.40001
1.40001
1.40001
1.40001
1.40001
1.40001
1.40001
1.40001
1.40001
1.40001
1.40001
1.40022
1.41308
1.92293
4.82744
5.40563
5.37746
5.37528
5.38202
5.39073
5.40522
5.41168
5.41166
5.40486
5.39013
5.37073
5.35644
5.35028
5.34256
5.33483
5.32495
5.31146
5.294
5.27305
5.24862
5.21991
5.18672
5.1489
5.10555
5.05312
4.98741
4.90337
4.79644
4.65777
4.47173
4.2164
3.85592
3.39483
2.86787
1.40001
1.40001
1.40001
1.40001
1.40001
1.40001
1.40001
1.40001
1.40001
1.40001
1.40001
1.40001
1.40001
1.40001
1.40001
1.40001
1.40001
1.40001
1.40001
1.40001
1.40001
1.40001
1.40001
1.40001
1.40001
1.40001
1.40001
1.40001
1.40001
1.40001
1.40001
1.40001
1.40001
1.40001
1.40001
1.40001
1.40001
1.40001
1.40001
1.40001
1.40001
1.40001
1.40001
1.40001
1.40001
1.40001
1.40001
1.40001
1.40001
1.40001
1.40001
1.40001
1.40001
1.40001
1.40001
1.40001
1.40001
1.40001
1.40005
1.40272
1.53823
4.15648
5.20827
5.38387
5.3741
5.37399
5.38146
5.39516
5.39661
5.39183
5.38506
5.37421
5.35726
5.34103
5.33178
5.32253
5.31172
5.2972
5.27887
5.25715
5.23244
5.2047
5.17314
5.13725
5.09636
5.04914
4.99202
4.92074
4.8302
4.71543
4.56997
4.38018
4.1367
3.81082
3.41157
2.96689
1.40001
1.40001
1.40001
1.40001
1.40001
1.40001
1.40001
1.40001
1.40001
1.40001
1.40001
1.40001
1.40001
1.40001
1.40001
1.40001
1.40001
1.40001
1.40001
1.40001
1.40001
1.40001
1.40001
1.40001
1.40001
1.40001
1.40001
1.40001
1.40001
1.40001
1.40001
1.40001
1.40001
1.40001
1.40001
1.40001
1.40001
1.40001
1.40001
1.40001
1.40001
1.40001
1.40001
1.40001
1.40001
1.40001
1.40001
1.40001
1.40001
1.40001
1.40001
1.40001
1.40001
1.40001
1.40001
1.40001
1.40001
1.40001
1.40002
1.40119
1.47175
3.36497
4.92816
5.37008
5.37879
5.37355
5.37849
5.38654
5.3799
5.36904
5.36299
5.35733
5.34579
5.32904
5.31626
5.30465
5.28972
5.26949
5.24642
5.2207
5.1924
5.16155
5.12746
5.08923
5.04553
4.99453
4.93291
4.85662
4.76108
4.64084
4.4925
4.30392
4.07496
3.78594
3.42601
3.03483
1.40001
1.40001
1.40001
1.40001
1.40001
1.40001
1.40001
1.40001
1.40001
1.40001
1.40001
1.40001
1.40001
1.40001
1.40001
1.40001