/*--------------------------------*- C++ -*----------------------------------*\
| =========                 |                                                 |
| \\      /  F ield         | OpenFOAM: The Open Source CFD Toolbox           |
|  \\    /   O peration     | Version:  v1812                                 |
|   \\  /    A nd           | Web:      www.OpenFOAM.com                      |
|    \\/     M anipulation  |                                                 |
\*---------------------------------------------------------------------------*/
FoamFile
{
    version     2.0;
    format      ascii;
    class       volScalarField;
    location    "0.8";
    object      T;
}
// * * * * * * * * * * * * * * * * * * * * * * * * * * * * * * * * * * * * * //

dimensions      [0 0 0 1 0 0 0];


internalField   nonuniform List<scalar> 
64512
(
1
1
1
1
1
1
1
1
1
1
1
1
1
1
1
1
1
1
1
1
1
1
1
1
1
1
1
1
1
1
1
1
1
1
1
1
1
1
1
1
1
1
1
1
1
1
1
1
1
1
1
1
1
1
1.00017
1.01082
1.81635
2.70937
2.7573
2.76025
2.76806
2.78087
2.79577
2.80733
2.81362
2.81662
2.81933
2.82253
2.82617
2.83051
2.83486
2.83891
2.84316
2.84855
2.85539
2.86252
2.86814
2.87156
2.87329
2.87419
2.8751
2.87672
2.87958
2.88404
2.8904
2.89915
2.91119
2.92827
2.95392
2.99446
3.05817
3.14824
3.25072
3.33396
3.37518
3.38484
1
1
1
1
1
1
1
1
1
1
1
1
1
1
1
1
1
1
1
1
1
1
1
1
1
1
1
1
1
1
1
1
1
1
1
1
1
1
1
1
1
1
1
1
1
1
1
1
1
1
1
1
1
1
1.00017
1.01092
1.82229
2.69797
2.75508
2.76809
2.77854
2.78879
2.79926
2.80659
2.8098
2.81116
2.81324
2.81718
2.82322
2.83072
2.83786
2.84323
2.84715
2.85106
2.8558
2.86097
2.86536
2.86846
2.87055
2.87215
2.87386
2.87615
2.87934
2.88373
2.88976
2.89805
2.90957
2.92606
2.95083
2.98991
3.05139
3.13904
3.24072
3.32645
3.37201
3.38416
1
1
1
1
1
1
1
1
1
1
1
1
1
1
1
1
1
1
1
1
1
1
1
1
1
1
1
1
1
1
1
1
1
1
1
1
1
1
1
1
1
1
1
1
1
1
1
1
1
1
1
1
1
1
1.00017
1.01112
1.8537
2.69405
2.74697
2.76805
2.7837
2.79575
2.80338
2.80844
2.80972
2.81032
2.8129
2.81854
2.82618
2.83487
2.8428
2.84808
2.85091
2.85291
2.8554
2.85839
2.86143
2.86437
2.86713
2.86979
2.87252
2.8755
2.8789
2.88307
2.88855
2.89612
2.90675
2.92204
2.94496
2.98101
3.03799
3.12085
3.22096
3.31154
3.36556
3.38262
1
1
1
1
1
1
1
1
1
1
1
1
1
1
1
1
1
1
1
1
1
1
1
1
1
1
1
1
1
1
1
1
1
1
1
1
1
1
1
1
1
1
1
1
1
1
1
1
1
1
1
1
1
1
1.00016
1.01038
1.8228
2.67603
2.73624
2.76227
2.78428
2.80088
2.80821
2.81168
2.81186
2.81217
2.81516
2.82155
2.82987
2.83874
2.84588
2.84999
2.8518
2.85271
2.85405
2.85594
2.85835
2.86125
2.86457
2.8681
2.87166
2.87513
2.87864
2.88258
2.88758
2.89448
2.90421
2.91814
2.93882
2.97119
3.02278
3.0999
3.1979
3.2937
3.35732
3.38023
1
1
1
1
1
1
1
1
1
1
1
1
1
1
1
1
1
1
1
1
1
1
1
1
1
1
1
1
1
1
1
1
1
1
1
1
1
1
1
1
1
1
1
1
1
1
1
1
1
1
1
1
1
1
1.00014
1.00904
1.75447
2.65337
2.72792
2.75961
2.78588
2.80552
2.81156
2.81334
2.8131
2.81351
2.81724
2.82447
2.83292
2.8407
2.84616
2.84897
2.85042
2.85133
2.85235
2.85407
2.85645
2.85941
2.86287
2.86669
2.87061
2.87441
2.87812
2.88211
2.88699
2.89351
2.90251
2.91516
2.93369
2.96251
3.00889
3.08029
3.17568
3.27575
3.34837
3.37718
1
1
1
1
1
1
1
1
1
1
1
1
1
1
1
1
1
1
1
1
1
1
1
1
1
1
1
1
1
1
1
1
1
1
1
1
1
1
1
1
1
1
1
1
1
1
1
1
1
1
1
1
1
1
1.00011
1.00729
1.65638
2.6285
2.72611
2.76544
2.79042
2.80646
2.81127
2.81238
2.8119
2.81273
2.8173
2.82551
2.83424
2.84103
2.84497
2.84634
2.84735
2.84848
2.85005
2.85235
2.85514
2.85827
2.86175
2.8656
2.86965
2.87369
2.87769
2.88192
2.88692
2.8933
2.90179
2.91342
2.93018
2.95607
2.99808
3.06447
3.15711
3.26001
3.33986
3.37379
1
1
1
1
1
1
1
1
1
1
1
1
1
1
1
1
1
1
1
1
1
1
1
1
1
1
1
1
1
1
1
1
1
1
1
1
1
1
1
1
1
1
1
1
1
1
1
1
1
1
1
1
1
1
1.00008
1.00536
1.52635
2.59948
2.72809
2.77298
2.79568
2.80805
2.81144
2.81087
2.80924
2.81023
2.81521
2.824
2.8332
2.83967
2.84221
2.84261
2.84318
2.8445
2.84687
2.85013
2.85363
2.85713
2.86076
2.86466
2.86881
2.87306
2.87735
2.88187
2.88702
2.89338
2.90158
2.91253
2.92803
2.95178
2.99051
3.05296
3.14301
3.24743
3.33247
3.37037
1
1
1
1
1
1
1
1
1
1
1
1
1
1
1
1
1
1
1
1
1
1
1
1
1
1
1
1
1
1
1
1
1
1
1
1
1
1
1
1
1
1
1
1
1
1
1
1
1
1
1
1
1
1
1.00005
1.00351
1.3772
2.56816
2.72897
2.77637
2.79564
2.80634
2.80913
2.80765
2.80508
2.80613
2.81123
2.82047
2.83041
2.83689
2.83878
2.83884
2.83917
2.84053
2.84349
2.8476
2.85181
2.85573
2.8596
2.86365
2.86793
2.87238
2.87695
2.88175
2.88709
2.89348
2.90151
2.91202
2.92669
2.94904
2.98556
3.04516
3.13305
3.238
3.32637
3.36707
1
1
1
1
1
1
1
1
1
1
1
1
1
1
1
1
1
1
1
1
1
1
1
1
1
1
1
1
1
1
1
1
1
1
1
1
1
1
1
1
1
1
1
1
1
1
1
1
1
1
1
1
1
1
1.00003
1.00197
1.22392
2.53652
2.73284
2.77905
2.79403
2.80366
2.8054
2.8033
2.80031
2.80153
2.80684
2.81642
2.82704
2.83393
2.83568
2.83567
2.83592
2.83729
2.84059
2.84525
2.84993
2.85417
2.85828
2.8625
2.86692
2.87153
2.87632
2.88138
2.88693
2.89338
2.90131
2.91153
2.92566
2.94715
2.98231
3.04004
3.12629
3.23118
3.32145
3.36392
1
1
1
1
1
1
1
1
1
1
1
1
1
1
1
1
1
1
1
1
1
1
1
1
1
1
1
1
1
1
1
1
1
1
1
1
1
1
1
1
1
1
1
1
1
1
1
1
1
1
1
1
1
1
1.00001
1.00094
1.09315
2.50506
2.73575
2.78186
2.79375
2.80204
2.80192
2.79853
2.79521
2.79688
2.80299
2.81341
2.82466
2.83172
2.83328
2.83323
2.83348
2.83496
2.83851
2.84346
2.84833
2.85269
2.8569
2.86123
2.86572
2.87041
2.87534
2.8806
2.88636
2.89292
2.90079
2.91079
2.92458
2.94559
2.97997
3.03657
3.12167
3.22621
3.31739
3.36089
1
1
1
1
1
1
1
1
1
1
1
1
1
1
1
1
1
1
1
1
1
1
1
1
1
1
1
1
1
1
1
1
1
1
1
1
1
1
1
1
1
1
1
1
1
1
1
1
1
1
1
1
1
1
1.00001
1.00063
1.03843
2.4749
2.73521
2.78503
2.79505
2.80137
2.79892
2.79295
2.78982
2.79242
2.80021
2.81226
2.82401
2.8306
2.83161
2.83147
2.83172
2.83333
2.83709
2.84213
2.84696
2.85124
2.85543
2.85977
2.86427
2.86896
2.87394
2.87934
2.88525
2.89192
2.89975
2.9096
2.92318
2.94394
2.97794
3.03389
3.11825
3.22236
3.31386
3.35788
1
1
1
1
1
1
1
1
1
1
1
1
1
1
1
1
1
1
1
1
1
1
1
1
1
1
1
1
1
1
1
1
1
1
1
1
1
1
1
1
1
1
1
1
1
1
1
1
1
1
1
1
1
1
1.00001
1.00057
1.03481
2.42872
2.73393
2.7887
2.79788
2.8002
2.7942
2.78571
2.78403
2.788
2.79841
2.81241
2.82413
2.82964
2.82995
2.82967
2.82995
2.83179
2.83579
2.84086
2.84556
2.84968
2.85377
2.85808
2.86255
2.86719
2.87214
2.87758
2.88356
2.89027
2.89809
2.90785
2.92132
2.942
2.97586
3.03149
3.11538
3.21907
3.31057
3.35481
1
1
1
1
1
1
1
1
1
1
1
1
1
1
1
1
1
1
1
1
1
1
1
1
1
1
1
1
1
1
1
1
1
1
1
1
1
1
1
1
1
1
1
1
1
1
1
1
1
1
1
1
1
1
1.00001
1.00052
1.03174
2.37205
2.73739
2.79198
2.80016
2.79666
2.78622
2.77647
2.77702
2.78372
2.79775
2.81331
2.8241
2.82793
2.82761
2.82708
2.82752
2.8298
2.83418
2.83933
2.84388
2.84784
2.85182
2.85609
2.86051
2.86506
2.86992
2.87532
2.88129
2.88798
2.89576
2.90544
2.91886
2.93956
2.97344
3.02895
3.11258
3.21589
3.30727
3.35159
1
1
1
1
1
1
1
1
1
1
1
1
1
1
1
1
1
1
1
1
1
1
1
1
1
1
1
1
1
1
1
1
1
1
1
1
1
1
1
1
1
1
1
1
1
1
1
1
1
1
1
1
1
1
1.00001
1.00047
1.02838
2.30959
2.74595
2.79487
2.79755
2.78924
2.77456
2.7654
2.76906
2.78054
2.79863
2.81448
2.82334
2.82494
2.82416
2.82354
2.82429
2.82727
2.83217
2.83742
2.84184
2.84564
2.84953
2.85374
2.85811
2.86256
2.86729
2.87258
2.87848
2.88511
2.89282
2.90243
2.91581
2.93653
2.97053
3.02605
3.10953
3.21256
3.30379
3.34813
1
1
1
1
1
1
1
1
1
1
1
1
1
1
1
1
1
1
1
1
1
1
1
1
1
1
1
1
1
1
1
1
1
1
1
1
1
1
1
1
1
1
1
1
1
1
1
1
1
1
1
1
1
1
1.00001
1.00042
1.02513
2.24958
2.75551
2.79622
2.79135
2.77479
2.75881
2.75481
2.76251
2.78038
2.80095
2.81513
2.82107
2.82072
2.81952
2.81918
2.8205
2.82443
2.8299
2.8352
2.83944
2.84308
2.84685
2.85102
2.85534
2.85969
2.86429
2.86945
2.87524
2.88176
2.88938
2.8989
2.91221
2.93293
2.96702
3.0226
3.10601
3.20882
3.29997
3.34436
1
1
1
1
1
1
1
1
1
1
1
1
1
1
1
1
1
1
1
1
1
1
1
1
1
1
1
1
1
1
1
1
1
1
1
1
1
1
1
1
1
1
1
1
1
1
1
1
1
1
1
1
1
1
1.00001
1.00037
1.02237
2.20592
2.7638
2.79093
2.77694
2.75468
2.74167
2.74597
2.76099
2.78376
2.80375
2.81439
2.81683
2.81537
2.81399
2.8142
2.8165
2.82158
2.82754
2.83273
2.83669
2.84012
2.84378
2.84791
2.85221
2.8565
2.86099
2.86602
2.87167
2.87804
2.88554
2.89493
2.90814
2.92879
2.96292
3.01853
3.10186
3.20451
3.29567
3.3402
1
1
1
1
1
1
1
1
1
1
1
1
1
1
1
1
1
1
1
1
1
1
1
1
1
1
1
1
1
1
1
1
1
1
1
1
1
1
1
1
1
1
1
1
1
1
1
1
1
1
1
1
1
1
1.00001
1.00032
1.01965
2.16252
2.76972
2.77282
2.75413
2.73121
2.73123
2.74125
2.76484
2.78997
2.80548
2.81173
2.81108
2.80874
2.80789
2.80886
2.81265
2.81896
2.82521
2.83004
2.83357
2.83674
2.84031
2.84444
2.84877
2.85304
2.85745
2.86235
2.86782
2.87402
2.88137
2.89061
2.90368
2.92419
2.95821
3.01374
3.09692
3.19949
3.29078
3.33554
1
1
1
1
1
1
1
1
1
1
1
1
1
1
1
1
1
1
1
1
1
1
1
1
1
1
1
1
1
1
1
1
1
1
1
1
1
1
1
1
1
1
1
1
1
1
1
1
1
1
1
1
1
1
1
1.00025
1.01602
2.06317
2.76068
2.74778
2.72396
2.71725
2.72496
2.74592
2.77468
2.79614
2.80533
2.80672
2.80406
2.80137
2.80145
2.80367
2.80933
2.81673
2.8229
2.82707
2.83003
2.83291
2.83643
2.84065
2.84505
2.84933
2.85368
2.85844
2.86372
2.86972
2.8769
2.88598
2.89887
2.91915
2.95292
3.00814
3.09106
3.19362
3.28517
3.33029
1
1
1
1
1
1
1
1
1
1
1
1
1
1
1
1
1
1
1
1
1
1
1
1
1
1
1
1
1
1
1
1
1
1
1
1
1
1
1
1
1
1
1
1
1
1
1
1
1
1
1
1
1
1
1
1.00016
1.01085
1.84837
2.72828
2.71671
2.70417
2.71147
2.73194
2.76069
2.78645
2.79907
2.80253
2.7999
2.79558
2.79394
2.79499
2.79929
2.80689
2.81488
2.82048
2.82369
2.82599
2.8286
2.83216
2.83655
2.84106
2.84536
2.84963
2.85422
2.85929
2.86508
2.8721
2.88101
2.89368
2.91361
2.94693
3.0016
3.08408
3.18669
3.2787
3.32439
1
1
1
1
1
1
1
1
1
1
1
1
1
1
1
1
1
1
1
1
1
1
1
1
1
1
1
1
1
1
1
1
1
1
1
1
1
1
1
1
1
1
1
1
1
1
1
1
1
1
1
1
1
1
1
1.00007
1.00496
1.47878
2.66148
2.6945
2.70678
2.72162
2.75168
2.779
2.7937
2.79823
2.7964
2.79083
2.78663
2.78675
2.78946
2.79641
2.80546
2.81319
2.81763
2.81971
2.82137
2.82379
2.82753
2.8322
2.83684
2.84109
2.84521
2.8496
2.85445
2.86006
2.86691
2.87568
2.88808
2.90751
2.94014
2.99397
3.07585
3.17854
3.27133
3.31789
1
1
1
1
1
1
1
1
1
1
1
1
1
1
1
1
1
1
1
1
1
1
1
1
1
1
1
1
1
1
1
1
1
1
1
1
1
1
1
1
1
1
1
1
1
1
1
1
1
1
1
1
1
1
1
1.00002
1.00124
1.07952
2.5578
2.69125
2.72392
2.74505
2.77495
2.79009
2.79458
2.79326
2.787
2.78039
2.77832
2.78008
2.78592
2.79536
2.80472
2.81119
2.814
2.81499
2.81615
2.81854
2.82263
2.82765
2.83237
2.83648
2.84036
2.84449
2.84912
2.85458
2.86127
2.86989
2.88192
2.90068
2.93235
2.98503
3.06617
3.16895
3.26295
3.31073
1
1
1
1
1
1
1
1
1
1
1
1
1
1
1
1
1
1
1
1
1
1
1
1
1
1
1
1
1
1
1
1
1
1
1
1
1
1
1
1
1
1
1
1
1
1
1
1
1
1
1
1
1
1
1
1.00001
1.00053
1.03284
2.42352
2.69205
2.74648
2.76907
2.78873
2.79186
2.79045
2.78393
2.77512
2.76997
2.77102
2.77554
2.78484
2.79554
2.80394
2.80825
2.80924
2.80948
2.81038
2.81296
2.81756
2.82294
2.82764
2.83149
2.83502
2.83885
2.84327
2.84859
2.85514
2.86355
2.87508
2.89302
2.92342
2.9747
3.05503
3.15792
3.25345
3.30273
1
1
1
1
1
1
1
1
1
1
1
1
1
1
1
1
1
1
1
1
1
1
1
1
1
1
1
1
1
1
1
1
1
1
1
1
1
1
1
1
1
1
1
1
1
1
1
1
1
1
1
1
1
1
1
1.00001
1.0004
1.0254
2.27024
2.69108
2.76368
2.78156
2.78866
2.78728
2.7815
2.77089
2.76267
2.76227
2.76563
2.7741
2.78573
2.79599
2.80212
2.80379
2.80339
2.80329
2.80418
2.80721
2.81241
2.81808
2.82262
2.82608
2.82917
2.83265
2.83687
2.84206
2.84844
2.85654
2.86742
2.8843
2.91327
2.96297
3.04234
3.14529
3.24252
3.29351
1
1
1
1
1
1
1
1
1
1
1
1
1
1
1
1
1
1
1
1
1
1
1
1
1
1
1
1
1
1
1
1
1
1
1
1
1
1
1
1
1
1
1
1
1
1
1
1
1
1
1
1
1
1
1
1
1.0003
1.01894
2.08607
2.67612
2.766
2.77872
2.7815
2.77782
2.7671
2.7568
2.7543
2.75687
2.76426
2.77572
2.78757
2.7955
2.79851
2.79781
2.79666
2.79653
2.79771
2.80145
2.80726
2.81303
2.81724
2.82017
2.82276
2.82589
2.82992
2.83493
2.84109
2.84877
2.8588
2.87448
2.90195
2.94991
3.02813
3.13097
3.22982
3.28249
1
1
1
1
1
1
1
1
1
1
1
1
1
1
1
1
1
1
1
1
1
1
1
1
1
1
1
1
1
1
1
1
1
1
1
1
1
1
1
1
1
1
1
1
1
1
1
1
1
1
1
1
1
1
1
1
1.00019
1.01229
1.83434
2.63061
2.751
2.7669
2.76773
2.76167
2.75137
2.74702
2.7493
2.75638
2.76698
2.77924
2.78839
2.79284
2.79268
2.79074
2.78925
2.78936
2.79123
2.79588
2.80214
2.80773
2.8114
2.81373
2.8158
2.81856
2.8224
2.82718
2.83308
2.8401
2.84911
2.86352
2.88948
2.93557
3.01226
3.11467
3.21504
3.26858
1
1
1
1
1
1
1
1
1
1
1
1
1
1
1
1
1
1
1
1
1
1
1
1
1
1
1
1
1
1
1
1
1
1
1
1
1
1
1
1
1
1
1
1
1
1
1
1
1
1
1
1
1
1
1
1
1.00009
1.0059
1.4746
2.56094
2.72293
2.74406
2.74523
2.74185
2.73847
2.74171
2.75015
2.76096
2.77245
2.78172
2.78649
2.78719
2.7854
2.78273
2.78149
2.78212
2.78515
2.79072
2.79703
2.80204
2.80497
2.80668
2.80827
2.81067
2.81429
2.81887
2.82428
2.83036
2.83833
2.85143
2.87585
2.91989
2.99454
3.09603
3.19829
3.25041
1
1
1
1
1
1
1
1
1
1
1
1
1
1
1
1
1
1
1
1
1
1
1
1
1
1
1
1
1
1
1
1
1
1
1
1
1
1
1
1
1
1
1
1
1
1
1
1
1
1
1
1
1
1
1
1
1.00002
1.0018
1.08582
2.48255
2.70292
2.72776
2.72671
2.72731
2.73201
2.74213
2.75469
2.76703
2.7757
2.77998
2.7811
2.77986
2.77662
2.77424
2.77384
2.77545
2.7799
2.78601
2.79179
2.7958
2.79788
2.79901
2.80019
2.80228
2.80568
2.80989
2.81454
2.81964
2.82647
2.83821
2.86081
2.90226
2.97397
3.07381
3.17746
3.23045
1
1
1
1
1
1
1
1
1
1
1
1
1
1
1
1
1
1
1
1
1
1
1
1
1
1
1
1
1
1
1
1
1
1
1
1
1
1
1
1
1
1
1
1
1
1
1
1
1
1
1
1
1
1
1
1
1.00001
1.00054
1.03128
2.376
2.699
2.72155
2.7184
2.72126
2.72992
2.74334
2.7571
2.7672
2.77295
2.77448
2.77374
2.77068
2.7674
2.76599
2.76678
2.77019
2.77575
2.78156
2.78613
2.78885
2.79009
2.79078
2.7917
2.79352
2.79653
2.80011
2.80387
2.80789
2.81352
2.82369
2.84393
2.88194
2.94946
3.04619
3.1486
3.21132
1
1
1
1
1
1
1
1
1
1
1
1
1
1
1
1
1
1
1
1
1
1
1
1
1
1
1
1
1
1
1
1
1
1
1
1
1
1
1
1
1
1
1
1
1
1
1
1
1
1
1
1
1
1
1
1
1.00001
1.00038
1.02324
2.24163
2.69557
2.71848
2.71546
2.71773
2.7259
2.73946
2.75338
2.76285
2.76665
2.76655
2.76448
2.76112
2.75891
2.75901
2.76161
2.76675
2.77226
2.77679
2.77975
2.78117
2.78175
2.78218
2.78288
2.78431
2.78683
2.78961
2.79228
2.79507
2.79931
2.80752
2.82466
2.85814
2.9203
3.0135
3.1173
3.18272
1
1
1
1
1
1
1
1
1
1
1
1
1
1
1
1
1
1
1
1
1
1
1
1
1
1
1
1
1
1
1
1
1
1
1
1
1
1
1
1
1
1
1
1
1
1
1
1
1
1
1
1
1
1
1
1
1
1.00027
1.01718
2.0615
2.68009
2.70549
2.70248
2.70631
2.71693
2.7313
2.74563
2.75449
2.75681
2.75625
2.75454
2.75267
2.75262
2.75472
2.7594
2.76449
2.76854
2.77109
2.77255
2.77285
2.77307
2.7733
2.77369
2.77479
2.77667
2.77844
2.77982
2.78119
2.78374
2.78947
2.80277
2.83076
2.88637
2.97453
3.07678
3.13921
1
1
1
1
1
1
1
1
1
1
1
1
1
1
1
1
1
1
1
1
1
1
1
1
1
1
1
1
1
1
1
1
1
1
1
1
1
1
1
1
1
1
1
1
1
1
1
1
1
1
1
1
1
1
1
1
1
1.00015
1.01009
1.73987
2.62449
2.67713
2.68542
2.69314
2.70665
2.72028
2.73397
2.74232
2.74404
2.74428
2.74475
2.74624
2.74959
2.75434
2.75892
2.76168
2.76353
2.76429
2.76452
2.76414
2.76405
2.76399
2.76431
2.76507
2.76611
2.76661
2.76648
2.76619
2.7667
2.76945
2.7781
2.79918
2.84586
2.92449
3.01669
3.07513
1
1
1
1
1
1
1
1
1
1
1
1
1
1
1
1
1
1
1
1
1
1
1
1
1
1
1
1
1
1
1
1
1
1
1
1
1
1
1
1
1
1
1
1
1
1
1
1
1
1
1
1
1
1
1
1
1
1.00005
1.0034
1.25816
2.52949
2.65398
2.68622
2.69708
2.7057
2.71298
2.72192
2.72867
2.73047
2.73261
2.73624
2.74156
2.748
2.75393
2.75714
2.7572
2.7572
2.75673
2.75578
2.75475
2.75439
2.75443
2.75479
2.75504
2.75498
2.75421
2.75245
2.75007
2.74837
2.74811
2.75129
2.76389
2.79936
2.86239
2.91556
2.92108
1
1
1
1
1
1
1
1
1
1
1
1
1
1
1
1
1
1
1
1
1
1
1
1
1
1
1
1
1
1
1
1
1
1
1
1
1
1
1
1
1
1
1
1
1
1
1
1
1
1
1
1
1
1
1
1
1
1.00001
1.0007
1.04212
2.39293
2.64903
2.69801
2.70599
2.71003
2.71013
2.71293
2.71672
2.71807
2.72127
2.72738
2.73596
2.74497
2.75134
2.75259
2.75178
2.75016
2.74831
2.74633
2.74494
2.74456
2.74471
2.745
2.74472
2.74364
2.74136
2.73782
2.73327
2.72865
2.7245
2.72252
2.72593
2.74558
2.77317
2.75751
2.59368
1
1
1
1
1
1
1
1
1
1
1
1
1
1
1
1
1
1
1
1
1
1
1
1
1
1
1
1
1
1
1
1
1
1
1
1
1
1
1
1
1
1
1
1
1
1
1
1
1
1
1
1
1
1
1
1
1
1.00001
1.00034
1.02258
2.17722
2.63991
2.70796
2.70923
2.7088
2.70641
2.70601
2.70623
2.70689
2.71013
2.71758
2.72843
2.73921
2.74576
2.74611
2.74508
2.74235
2.73944
2.73681
2.73523
2.73486
2.73492
2.73489
2.73411
2.73197
2.72814
2.72279
2.71611
2.70863
2.70024
2.69167
2.68513
2.6853
2.67834
2.61865
2.41673
1
1
1
1
1
1
1
1
1
1
1
1
1
1
1
1
1
1
1
1
1
1
1
1
1
1
1
1
1
1
1
1
1
1
1
1
1
1
1
1
1
1
1
1
1
1
1
1
1
1
1
1
1
1
1
1
1
1
1.00018
1.01273
1.8267
2.59459
2.69722
2.69977
2.70015
2.69908
2.69829
2.69697
2.69744
2.70039
2.70795
2.71942
2.7308
2.73753
2.73785
2.73679
2.73389
2.73059
2.72787
2.72627
2.72566
2.72531
2.72472
2.7232
2.72001
2.71471
2.70755
2.69869
2.68835
2.67585
2.66117
2.64471
2.62702
2.597
2.51737
2.26419
1
1
1
1
1
1
1
1
1
1
1
1
1
1
1
1
1
1
1
1
1
1
1
1
1
1
1
1
1
1
1
1
1
1
1
1
1
1
1
1
1
1
1
1
1
1
1
1
1
1
1
1
1
1
1
1
1
1
1.00006
1.00438
1.32332
2.51369
2.67386
2.67927
2.68581
2.68902
2.68883
2.68849
2.68978
2.69332
2.70055
2.71056
2.72086
2.72745
2.72816
2.72721
2.72494
2.72203
2.71981
2.71823
2.7171
2.71595
2.71441
2.71181
2.70744
2.70081
2.6921
2.68133
2.66852
2.65268
2.63314
2.60901
2.5794
2.53939
2.48101
2.3423
1
1
1
1
1
1
1
1
1
1
1
1
1
1
1
1
1
1
1
1
1
1
1
1
1
1
1
1
1
1
1
1
1
1
1
1
1
1
1
1
1
1
1
1
1
1
1
1
1
1
1
1
1
1
1
1
1
1
1.00001
1.00087
1.04828
2.3819
2.66386
2.66894
2.675
2.67976
2.67938
2.68031
2.68383
2.68905
2.69569
2.70264
2.71018
2.71639
2.71721
2.71644
2.71517
2.71385
2.71231
2.71077
2.70899
2.70681
2.70404
2.70017
2.6946
2.68682
2.67679
2.66432
2.6492
2.63038
2.60677
2.57699
2.53991
2.49194
2.44355
2.33298
1
1
1
1
1
1
1
1
1
1
1
1
1
1
1
1
1
1
1
1
1
1
1
1
1
1
1
1
1
1
1
1
1
1
1
1
1
1
1
1
1
1
1
1
1
1
1
1
1
1
1
1
1
1
1
1
1
1
1.00001
1.00033
1.02183
2.15033
2.65386
2.67116
2.67264
2.67295
2.67077
2.67264
2.67887
2.68584
2.69134
2.69512
2.69939
2.70423
2.70538
2.70497
2.70502
2.70553
2.70469
2.70333
2.70097
2.69767
2.69341
2.68802
2.68114
2.67232
2.66129
2.64761
2.63088
2.61016
2.58428
2.55193
2.5129
2.46128
2.41428
2.32679
1
1
1
1
1
1
1
1
1
1
1
1
1
1
1
1
1
1
1
1
1
1
1
1
1
1
1
1
1
1
1
1
1
1
1
1
1
1
1
1
1
1
1
1
1
1
1
1
1
1
1
1
1
1
1
1
1
1
1
1.00016
1.01128
1.72798
2.58939
2.66837
2.66736
2.66614
2.66258
2.66558
2.67405
2.68197
2.68618
2.6875
2.68913
2.69182
2.69313
2.69315
2.69435
2.69658
2.69627
2.69529
2.69264
2.68844
2.68279
2.67594
2.66781
2.65809
2.64626
2.63167
2.61363
2.59131
2.56364
2.52933
2.48951
2.43614
2.38432
2.31593
1
1
1
1
1
1
1
1
1
1
1
1
1
1
1
1
1
1
1
1
1
1
1
1
1
1
1
1
1
1
1
1
1
1
1
1
1
1
1
1
1
1
1
1
1
1
1
1
1
1
1
1
1
1
1
1
1
1
1
1.00004
1.0034
1.19963
2.45727
2.64867
2.65754
2.65653
2.65437
2.65925
2.66951
2.67752
2.68005
2.67958
2.67958
2.68038
2.68118
2.68132
2.68313
2.68658
2.68691
2.68641
2.68379
2.67888
2.67191
2.6636
2.65422
2.64362
2.63115
2.61607
2.59744
2.57461
2.54684
2.51244
2.47459
2.42269
2.36898
2.30848
1
1
1
1
1
1
1
1
1
1
1
1
1
1
1
1
1
1
1
1
1
1
1
1
1
1
1
1
1
1
1
1
1
1
1
1
1
1
1
1
1
1
1
1
1
1
1
1
1
1
1
1
1
1
1
1
1
1
1
1.00001
1.0006
1.0331
2.27427
2.63116
2.64762
2.6462
2.64697
2.65427
2.66451
2.67098
2.67178
2.6707
2.6701
2.67016
2.67003
2.66997
2.67157
2.67537
2.67672
2.67647
2.674
2.66877
2.66097
2.65165
2.64129
2.62994
2.61693
2.6015
2.5825
2.55925
2.53135
2.49679
2.45957
2.41051
2.34817
2.29446
1
1
1
1
1
1
1
1
1
1
1
1
1
1
1
1
1
1
1
1
1
1
1
1
1
1
1
1
1
1
1
1
1
1
1
1
1
1
1
1
1
1
1
1
1
1
1
1
1
1
1
1
1
1
1
1
1
1
1
1
1.00025
1.01669
1.97839
2.61145
2.6333
2.63515
2.64055
2.65059
2.65872
2.66253
2.66189
2.66061
2.66056
2.66051
2.65985
2.65969
2.66049
2.66357
2.6657
2.66557
2.66332
2.65808
2.64989
2.63991
2.62874
2.61673
2.6032
2.58756
2.56862
2.54572
2.51888
2.48541
2.44941
2.40383
2.35175
2.30243
1
1
1
1
1
1
1
1
1
1
1
1
1
1
1
1
1
1
1
1
1
1
1
1
1
1
1
1
1
1
1
1
1
1
1
1
1
1
1
1
1
1
1
1
1
1
1
1
1
1
1
1
1
1
1
1
1
1
1
1
1.0001
1.00715
1.48621
2.53681
2.60407
2.62057
2.63375
2.64637
2.65275
2.65394
2.65184
2.6504
2.65106
2.65102
2.65041
2.65015
2.65038
2.65214
2.65376
2.65365
2.6516
2.64661
2.63856
2.62848
2.61699
2.60462
2.59073
2.5749
2.55595
2.53316
2.50685
2.47439
2.43937
2.39721
2.34874
2.30117
1
1
1
1
1
1
1
1
1
1
1
1
1
1
1
1
1
1
1
1
1
1
1
1
1
1
1
1
1
1
1
1
1
1
1
1
1
1
1
1
1
1
1
1
1
1
1
1
1
1
1
1
1
1
1
1
1
1
1
1
1.00002
1.00166
1.07224
2.37081
2.58377
2.61024
2.62734
2.64014
2.6445
2.64413
2.64117
2.64028
2.64141
2.6415
2.6414
2.64153
2.64135
2.64177
2.64175
2.64124
2.63903
2.63436
2.62688
2.61725
2.60589
2.59346
2.57935
2.56336
2.54459
2.52229
2.49707
2.46628
2.43277
2.3933
2.34786
2.3028
1
1
1
1
1
1
1
1
1
1
1
1
1
1
1
1
1
1
1
1
1
1
1
1
1
1
1
1
1
1
1
1
1
1
1
1
1
1
1
1
1
1
1
1
1
1
1
1
1
1
1
1
1
1
1
1
1
1
1
1
1.00001
1.00032
1.02069
2.0584
2.56054
2.60334
2.62212
2.63216
2.63386
2.63263
2.6296
2.62965
2.63138
2.63202
2.63278
2.63366
2.633
2.63217
2.63049
2.62857
2.62567
2.6212
2.6145
2.60575
2.59502
2.58295
2.56896
2.55294
2.5342
2.51202
2.48725
2.45789
2.42587
2.38854
2.34696
2.30441
1
1
1
1
1
1
1
1
1
1
1
1
1
1
1
1
1
1
1
1
1
1
1
1
1
1
1
1
1
1
1
1
1
1
1
1
1
1
1
1
1
1
1
1
1
1
1
1
1
1
1
1
1
1
1
1
1
1
1
1
1
1.00011
1.0085
1.5537
2.51964
2.58387
2.61042
2.62332
2.62383
2.6215
2.6185
2.61892
2.62127
2.62263
2.62436
2.62578
2.62501
2.62326
2.62012
2.61654
2.61245
2.60768
2.60158
2.59383
2.58414
2.57289
2.55943
2.54368
2.52527
2.50361
2.47944
2.45148
2.42083
2.3854
2.34702
2.30544
1
1
1
1
1
1
1
1
1
1
1
1
1
1
1
1
1
1
1
1
1
1
1
1
1
1
1
1
1
1
1
1
1
1
1
1
1
1
1
1
1
1
1
1
1
1
1
1
1
1
1
1
1
1
1
1
1
1
1
1
1
1.00002
1.00183
1.08238
2.36282
2.5651
2.60326
2.61561
2.61363
2.60904
2.6069
2.608
2.61106
2.61322
2.61587
2.61762
2.61698
2.61475
2.61051
2.60542
2.59987
2.59431
2.58835
2.58132
2.57267
2.5624
2.54977
2.53458
2.51652
2.49526
2.47128
2.44453
2.41514
2.38174
2.34645
2.30696
1
1
1
1
1
1
1
1
1
1
1
1
1
1
1
1
1
1
1
1
1
1
1
1
1
1
1
1
1
1
1
1
1
1
1
1
1
1
1
1
1
1
1
1
1
1
1
1
1
1
1
1
1
1
1
1
1
1
1
1
1
1.00001
1.0003
1.02051
2.00567
2.52456
2.6028
2.60681
2.60331
2.59657
2.59469
2.59639
2.60023
2.60335
2.60669
2.60866
2.60813
2.60575
2.60102
2.59504
2.58834
2.58188
2.57556
2.56869
2.56077
2.55145
2.53986
2.52562
2.5085
2.48835
2.4651
2.43962
2.411
2.37936
2.34547
2.30741
1
1
1
1
1
1
1
1
1
1
1
1
1
1
1
1
1
1
1
1
1
1
1
1
1
1
1
1
1
1
1
1
1
1
1
1
1
1
1
1
1
1
1
1
1
1
1
1
1
1
1
1
1
1
1
1
1
1
1
1
1
1
1.00008
1.00711
1.41623
2.47169
2.57849
2.59251
2.5914
2.58657
2.58435
2.58606
2.58929
2.5928
2.59639
2.59832
2.5979
2.59571
2.59119
2.58511
2.57787
2.57071
2.56379
2.55658
2.54883
2.54002
2.52921
2.51589
2.49963
2.48061
2.45797
2.43372
2.40602
2.37605
2.34436
2.30906
1
1
1
1
1
1
1
1
1
1
1
1
1
1
1
1
1
1
1
1
1
1
1
1
1
1
1
1
1
1
1
1
1
1
1
1
1
1
1
1
1
1
1
1
1
1
1
1
1
1
1
1
1
1
1
1
1
1
1
1
1
1
1.00002
1.00123
1.05706
2.28774
2.55657
2.5807
2.57837
2.575
2.57444
2.57676
2.57967
2.58262
2.58576
2.58739
2.58682
2.58464
2.58047
2.57473
2.5677
2.56055
2.55326
2.54552
2.53742
2.5285
2.518
2.50539
2.49026
2.47289
2.45176
2.42916
2.40281
2.3746
2.34337
2.30981
1
1
1
1
1
1
1
1
1
1
1
1
1
1
1
1
1
1
1
1
1
1
1
1
1
1
1
1
1
1
1
1
1
1
1
1
1
1
1
1
1
1
1
1
1
1
1
1
1
1
1
1
1
1
1
1
1
1
1
1
1
1
1
1.00023
1.01713
1.86909
2.52461
2.56991
2.56548
2.5614
2.56242
2.56723
2.57059
2.57287
2.57487
2.57598
2.57483
2.57236
2.56841
2.56328
2.55719
2.5507
2.54356
2.53555
2.52702
2.51771
2.50707
2.49476
2.48033
2.46424
2.44426
2.42322
2.39788
2.37176
2.34223
2.31094
1
1
1
1
1
1
1
1
1
1
1
1
1
1
1
1
1
1
1
1
1
1
1
1
1
1
1
1
1
1
1
1
1
1
1
1
1
1
1
1
1
1
1
1
1
1
1
1
1
1
1
1
1
1
1
1
1
1
1
1
1
1
1
1.00005
1.00457
1.19772
2.42806
2.5551
2.55256
2.54777
2.55077
2.55808
2.56133
2.56339
2.56449
2.56456
2.56318
2.56035
2.55644
2.55181
2.54666
2.54113
2.53461
2.52674
2.51791
2.50794
2.49662
2.48389
2.46975
2.45464
2.43618
2.41716
2.39363
2.37006
2.34226
2.31225
1
1
1
1
1
1
1
1
1
1
1
1
1
1
1
1
1
1
1
1
1
1
1
1
1
1
1
1
1
1
1
1
1
1
1
1
1
1
1
1
1
1
1
1
1
1
1
1
1
1
1
1
1
1
1
1
1
1
1
1
1
1
1
1.00001
1.00059
1.03179
2.12178
2.51806
2.53472
2.5354
2.54129
2.55002
2.55267
2.55439
2.55473
2.55412
2.55203
2.54849
2.54425
2.53979
2.53552
2.531
2.52529
2.51781
2.50905
2.49882
2.48709
2.4741
2.45997
2.44552
2.42801
2.41051
2.38803
2.36642
2.34067
2.31223
1
1
1
1
1
1
1
1
1
1
1
1
1
1
1
1
1
1
1
1
1
1
1
1
1
1
1
1
1
1
1
1
1
1
1
1
1
1
1
1
1
1
1
1
1
1
1
1
1
1
1
1
1
1
1
1
1
1
1
1
1
1
1
1
1.00012
1.01009
1.54036
2.46159
2.52647
2.51965
2.52865
2.54042
2.54253
2.54406
2.54424
2.54323
2.54072
2.53671
2.53234
2.5282
2.52482
2.52125
2.51642
2.5096
2.50119
2.49094
2.47885
2.46514
2.45059
2.43588
2.41877
2.40274
2.38161
2.36276
2.33935
2.31272
1
1
1
1
1
1
1
1
1
1
1
1
1
1
1
1
1
1
1
1
1
1
1
1
1
1
1
1
1
1
1
1
1
1
1
1
1
1
1
1
1
1
1
1
1
1
1
1
1
1
1
1
1
1
1
1
1
1
1
1
1
1
1
1
1.00002
1.00182
1.07749
2.25025
2.51255
2.50648
2.51791
2.53052
2.53168
2.53332
2.53374
2.53276
2.53036
2.52619
2.52157
2.51743
2.51438
2.51131
2.50697
2.50053
2.49232
2.48207
2.46995
2.45635
2.44199
2.42768
2.41118
2.396
2.37625
2.3581
2.33572
2.31132
1
1
1
1
1
1
1
1
1
1
1
1
1
1
1
1
1
1
1
1
1
1
1
1
1
1
1
1
1
1
1
1
1
1
1
1
1
1
1
1
1
1
1
1
1
1
1
1
1
1
1
1
1
1
1
1
1
1
1
1
1
1
1
1
1
1.00022
1.0159
1.76623
2.46524
2.50988
2.51224
2.52167
2.52201
2.52266
2.52254
2.52155
2.51895
2.51465
2.50986
2.50589
2.5034
2.50092
2.4972
2.4914
2.48384
2.47407
2.46239
2.44882
2.43462
2.41993
2.40316
2.38838
2.36884
2.35249
2.33266
2.31077
1
1
1
1
1
1
1
1
1
1
1
1
1
1
1
1
1
1
1
1
1
1
1
1
1
1
1
1
1
1
1
1
1
1
1
1
1
1
1
1
1
1
1
1
1
1
1
1
1
1
1
1
1
1
1
1
1
1
1
1
1
1
1
1
1
1.00004
1.00378
1.15501
2.33117
2.49262
2.51013
2.51239
2.51207
2.51194
2.51111
2.50949
2.5068
2.50308
2.49902
2.49553
2.49351
2.49139
2.48781
2.48207
2.47443
2.46468
2.45299
2.43959
2.42593
2.4122
2.39665
2.38267
2.36456
2.34827
2.32873
2.30829
1
1
1
1
1
1
1
1
1
1
1
1
1
1
1
1
1
1
1
1
1
1
1
1
1
1
1
1
1
1
1
1
1
1
1
1
1
1
1
1
1
1
1
1
1
1
1
1
1
1
1
1
1
1
1
1
1
1
1
1
1
1
1
1
1
1.00001
1.00043
1.0236
1.94713
2.44468
2.50461
2.50508
2.50319
2.50218
2.50043
2.4975
2.49453
2.4908
2.48717
2.484
2.48236
2.48042
2.47694
2.47142
2.4643
2.4553
2.4447
2.43211
2.41928
2.40579
2.39071
2.37637
2.35882
2.34191
2.3247
2.30566
1
1
1
1
1
1
1
1
1
1
1
1
1
1
1
1
1
1
1
1
1
1
1
1
1
1
1
1
1
1
1
1
1
1
1
1
1
1
1
1
1
1
1
1
1
1
1
1
1
1
1
1
1
1
1
1
1
1
1
1
1
1
1
1
1
1
1.00008
1.00667
1.31071
2.36909
2.48987
2.49348
2.49293
2.49057
2.4881
2.48511
2.48227
2.47878
2.47524
2.47262
2.47202
2.47053
2.46723
2.46177
2.45458
2.44561
2.43499
2.42262
2.41038
2.39744
2.38391
2.37077
2.35571
2.33832
2.32276
2.3016
1
1
1
1
1
1
1
1
1
1
1
1
1
1
1
1
1
1
1
1
1
1
1
1
1
1
1
1
1
1
1
1
1
1
1
1
1
1
1
1
1
1
1
1
1
1
1
1
1
1
1
1
1
1
1
1
1
1
1
1
1
1
1
1
1
1
1.00001
1.00097
1.03994
2.07982
2.45092
2.47634
2.48152
2.48038
2.47864
2.47531
2.47192
2.4681
2.46425
2.46179
2.46131
2.45982
2.45617
2.45031
2.44305
2.43451
2.4252
2.41436
2.40352
2.39155
2.37926
2.36558
2.35155
2.33329
2.31885
2.29747
1
1
1
1
1
1
1
1
1
1
1
1
1
1
1
1
1
1
1
1
1
1
1
1
1
1
1
1
1
1
1
1
1
1
1
1
1
1
1
1
1
1
1
1
1
1
1
1
1
1
1
1
1
1
1
1
1
1
1
1
1
1
1
1
1
1
1
1.00012
1.01006
1.46778
2.40838
2.45141
2.47281
2.47175
2.4702
2.46631
2.46214
2.45787
2.45355
2.4513
2.45091
2.44956
2.4462
2.4404
2.43308
2.42475
2.41549
2.40488
2.39457
2.38328
2.37221
2.35907
2.34754
2.33037
2.31701
2.29539
1
1
1
1
1
1
1
1
1
1
1
1
1
1
1
1
1
1
1
1
1
1
1
1
1
1
1
1
1
1
1
1
1
1
1
1
1
1
1
1
1
1
1
1
1
1
1
1
1
1
1
1
1
1
1
1
1
1
1
1
1
1
1
1
1
1
1
1.00002
1.00161
1.06482
2.16616
2.42231
2.45055
2.46261
2.46212
2.45898
2.45488
2.44951
2.44433
2.44207
2.44156
2.43994
2.43593
2.42949
2.42166
2.41311
2.40448
2.39538
2.38668
2.37676
2.36715
2.35461
2.34354
2.3264
2.31352
2.29165
1
1
1
1
1
1
1
1
1
1
1
1
1
1
1
1
1
1
1
1
1
1
1
1
1
1
1
1
1
1
1
1
1
1
1
1
1
1
1
1
1
1
1
1
1
1
1
1
1
1
1
1
1
1
1
1
1
1
1
1
1
1
1
1
1
1
1
1
1.00016
1.01276
1.54536
2.38763
2.43332
2.45245
2.45372
2.45139
2.44644
2.43982
2.43402
2.43208
2.43148
2.42972
2.42593
2.42
2.41219
2.40379
2.39518
2.38621
2.37759
2.36832
2.35953
2.34781
2.33799
2.32249
2.31083
2.28958
1
1
1
1
1
1
1
1
1
1
1
1
1
1
1
1
1
1
1
1
1
1
1
1
1
1
1
1
1
1
1
1
1
1
1
1
1
1
1
1
1
1
1
1
1
1
1
1
1
1
1
1
1
1
1
1
1
1
1
1
1
1
1
1
1
1
1
1
1.00002
1.00197
1.08251
2.17904
2.40873
2.4351
2.4437
2.44141
2.43696
2.4307
2.42454
2.42256
2.42218
2.42059
2.41674
2.41033
2.40208
2.39326
2.38442
2.37617
2.36863
2.36088
2.35307
2.34273
2.33323
2.31834
2.30675
2.28582
1
1
1
1
1
1
1
1
1
1
1
1
1
1
1
1
1
1
1
1
1
1
1
1
1
1
1
1
1
1
1
1
1
1
1
1
1
1
1
1
1
1
1
1
1
1
1
1
1
1
1
1
1
1
1
1
1
1
1
1
1
1
1
1
1
1
1
1
1
1.00017
1.01406
1.54725
2.36505
2.4251
2.43419
2.4325
2.42785
2.41986
2.41252
2.41118
2.41109
2.4099
2.40669
2.40129
2.39347
2.38487
2.37599
2.36761
2.35973
2.35228
2.34467
2.33532
2.32606
2.31304
2.30198
2.28273
1
1
1
1
1
1
1
1
1
1
1
1
1
1
1
1
1
1
1
1
1
1
1
1
1
1
1
1
1
1
1
1
1
1
1
1
1
1
1
1
1
1
1
1
1
1
1
1
1
1
1
1
1
1
1
1
1
1
1
1
1
1
1
1
1
1
1
1
1
1.00002
1.002
1.08572
2.14286
2.38885
2.42347
2.4231
2.41785
2.40995
2.40248
2.40061
2.40097
2.40022
2.39765
2.39227
2.38437
2.37555
2.36628
2.35795
2.35041
2.3442
2.33685
2.32936
2.3197
2.30835
2.29626
2.27849
1
1
1
1
1
1
1
1
1
1
1
1
1
1
1
1
1
1
1
1
1
1
1
1
1
1
1
1
1
1
1
1
1
1
1
1
1
1
1
1
1
1
1
1
1
1
1
1
1
1
1
1
1
1
1
1
1
1
1
1
1
1
1
1
1
1
1
1
1
1
1.00016
1.01314
1.46694
2.34133
2.41494
2.41465
2.4071
2.39932
2.39025
2.3885
2.38946
2.38911
2.38742
2.38315
2.37607
2.36761
2.35848
2.34978
2.34199
2.33546
2.32832
2.3213
2.3115
2.3017
2.28908
2.27522
1
1
1
1
1
1
1
1
1
1
1
1
1
1
1
1
1
1
1
1
1
1
1
1
1
1
1
1
1
1
1
1
1
1
1
1
1
1
1
1
1
1
1
1
1
1
1
1
1
1
1
1
1
1
1
1
1
1
1
1
1
1
1
1
1
1
1
1
1
1
1.00002
1.00162
1.06995
2.06967
2.36212
2.40123
2.39721
2.38941
2.38105
2.37879
2.37977
2.37959
2.37852
2.37432
2.36725
2.3587
2.34939
2.34035
2.33314
2.32672
2.32048
2.31404
2.30488
2.29558
2.28229
2.27043
1
1
1
1
1
1
1
1
1
1
1
1
1
1
1
1
1
1
1
1
1
1
1
1
1
1
1
1
1
1
1
1
1
1
1
1
1
1
1
1
1
1
1
1
1
1
1
1
1
1
1
1
1
1
1
1
1
1
1
1
1
1
1
1
1
1
1
1
1
1
1
1.00012
1.01057
1.37757
2.29354
2.39616
2.38891
2.37911
2.37068
2.36848
2.36949
2.36962
2.36902
2.36547
2.35905
2.35073
2.34173
2.33215
2.32499
2.31792
2.31247
2.30568
2.29749
2.28766
2.27612
2.26445
1
1
1
1
1
1
1
1
1
1
1
1
1
1
1
1
1
1
1
1
1
1
1
1
1
1
1
1
1
1
1
1
1
1
1
1
1
1
1
1
1
1
1
1
1
1
1
1
1
1
1
1
1
1
1
1
1
1
1
1
1
1
1
1
1
1
1
1
1
1
1
1.00001
1.00112
1.05226
1.93473
2.32731
2.37251
2.368
2.3635
2.35995
2.3607
2.36061
2.36038
2.35711
2.35035
2.34177
2.33269
2.32273
2.31642
2.30906
2.30522
2.29779
2.29181
2.2804
2.27092
2.25766
1
1
1
1
1
1
1
1
1
1
1
1
1
1
1
1
1
1
1
1
1
1
1
1
1
1
1
1
1
1
1
1
1
1
1
1
1
1
1
1
1
1
1
1
1
1
1
1
1
1
1
1
1
1
1
1
1
1
1
1
1
1
1
1
1
1
1
1
1
1
1
1
1.00008
1.00731
1.2665
2.21353
2.36643
2.35716
2.3509
2.34927
2.35078
2.35052
2.35062
2.3485
2.34212
2.3337
2.32497
2.31463
2.30823
2.30058
2.29774
2.29
2.28519
2.27279
2.26558
2.25009
1
1
1
1
1
1
1
1
1
1
1
1
1
1
1
1
1
1
1
1
1
1
1
1
1
1
1
1
1
1
1
1
1
1
1
1
1
1
1
1
1
1
1
1
1
1
1
1
1
1
1
1
1
1
1
1
1
1
1
1
1
1
1
1
1
1
1
1
1
1
1
1
1.00001
1.00062
1.03397
1.73066
2.29606
2.35463
2.33809
2.33877
2.34099
2.34063
2.3409
2.33951
2.33308
2.32452
2.31601
2.30562
2.30003
2.29266