/*--------------------------------*- C++ -*----------------------------------*\
| =========                 |                                                 |
| \\      /  F ield         | OpenFOAM: The Open Source CFD Toolbox           |
|  \\    /   O peration     | Version:  v1812                                 |
|   \\  /    A nd           | Web:      www.OpenFOAM.com                      |
|    \\/     M anipulation  |                                                 |
\*---------------------------------------------------------------------------*/
FoamFile
{
    version     2.0;
    format      ascii;
    class       volVectorField;
    location    "0.8";
    object      U;
}
// * * * * * * * * * * * * * * * * * * * * * * * * * * * * * * * * * * * * * //

dimensions      [0 1 -1 0 0 0 0];


internalField   nonuniform List<vector> 
64512
(
(3 -2.49229e-17 0)
(3 -2.83938e-17 0)
(3 6.71316e-16 0)
(3 7.92603e-16 0)
(3 6.07964e-16 0)
(3 6.29677e-16 0)
(3 4.32665e-16 0)
(3 2.29678e-16 0)
(3 -4.15921e-16 0)
(3 -9.97614e-16 0)
(3 -8.8355e-16 0)
(3 -1.04634e-15 0)
(3 -1.08158e-15 0)
(3 -8.08372e-16 0)
(3 -5.23059e-16 0)
(3 -8.8689e-16 0)
(3 -2.54655e-16 0)
(3 -3.4928e-16 0)
(3 1.93355e-16 0)
(3 6.99909e-16 0)
(3 4.84491e-16 0)
(3 3.58795e-16 0)
(3 1.98237e-16 0)
(3 5.17426e-16 0)
(3 1.34986e-16 0)
(3 -2.65882e-16 0)
(3 -3.34513e-16 0)
(3 -1.31231e-16 0)
(3 3.86263e-16 0)
(3 1.30735e-16 0)
(3 2.66528e-16 0)
(3 -2.47982e-16 0)
(3 -1.02226e-16 0)
(3 1.85698e-16 0)
(3 7.93519e-16 0)
(3 6.71305e-16 0)
(3 1.17019e-15 0)
(3 1.03092e-15 0)
(3 6.57186e-16 0)
(3 7.31101e-16 0)
(3 6.14718e-16 0)
(3 1.54582e-16 0)
(3 -5.87893e-17 0)
(3 -7.12277e-16 0)
(3 -9.79032e-16 0)
(3 -9.24791e-16 0)
(3 -9.39412e-16 0)
(3 -7.46841e-16 0)
(3 -1.07682e-16 0)
(3 -2.61105e-16 0)
(3 -7.02591e-15 0)
(3 1.13977e-12 0)
(3 -6.97199e-11 0)
(3 5.70008e-09 0)
(2.99987 -5.667e-07 0)
(2.99157 3.64171e-05 0)
(2.28557 -0.00478528 0)
(0.913484 0.0282434 0)
(0.624648 -0.00133629 0)
(0.632375 -0.00644786 0)
(0.64918 -0.00626749 0)
(0.650663 -0.000288966 0)
(0.639482 0.00940452 0)
(0.609874 0.0180358 0)
(0.572749 0.0181817 0)
(0.54469 0.00945637 0)
(0.530571 0.00132192 0)
(0.522676 0.000470487 0)
(0.515281 0.00227394 0)
(0.50549 0.00427477 0)
(0.493318 0.00698994 0)
(0.478211 0.0102579 0)
(0.458234 0.0130145 0)
(0.431978 0.015024 0)
(0.400795 0.0156415 0)
(0.369452 0.0141447 0)
(0.342988 0.0107673 0)
(0.322665 0.00776012 0)
(0.306023 0.00668491 0)
(0.290221 0.0067751 0)
(0.273915 0.00723292 0)
(0.257108 0.00776834 0)
(0.239954 0.00848562 0)
(0.222167 0.0094267 0)
(0.203457 0.010318 0)
(0.184016 0.0108638 0)
(0.164374 0.0109553 0)
(0.144899 0.0107454 0)
(0.125615 0.0104287 0)
(0.10636 0.0101141 0)
(0.0870477 0.00973569 0)
(0.0678314 0.00920791 0)
(0.0494983 0.0084584 0)
(0.0323095 0.00741645 0)
(0.0179014 0.00638929 0)
(0.00513535 0.00455632 0)
(3 -6.93789e-17 0)
(3 2.19377e-16 0)
(3 7.22251e-16 0)
(3 6.90756e-16 0)
(3 3.01027e-16 0)
(3 3.67262e-16 0)
(3 7.36421e-17 0)
(3 1.9419e-16 0)
(3 1.32774e-16 0)
(3 -2.05135e-16 0)
(3 -1.88514e-16 0)
(3 -5.3719e-16 0)
(3 -7.76078e-16 0)
(3 -9.17406e-16 0)
(3 -9.57533e-16 0)
(3 -9.70092e-16 0)
(3 -9.43234e-16 0)
(3 -1.3614e-15 0)
(3 -9.38915e-16 0)
(3 -8.57526e-16 0)
(3 2.06382e-18 0)
(3 -1.11543e-17 0)
(3 -4.24297e-16 0)
(3 3.08407e-17 0)
(3 7.17857e-16 0)
(3 3.69032e-16 0)
(3 1.22e-16 0)
(3 1.45604e-16 0)
(3 8.01367e-16 0)
(3 8.17418e-16 0)
(3 4.87028e-16 0)
(3 2.69621e-16 0)
(3 4.83765e-16 0)
(3 8.34097e-16 0)
(3 1.56811e-15 0)
(3 1.53165e-15 0)
(3 2.07385e-15 0)
(3 1.40937e-15 0)
(3 6.74518e-17 0)
(3 -1.0374e-15 0)
(3 -8.92345e-16 0)
(3 -6.38446e-16 0)
(3 -4.14462e-16 0)
(3 -3.22691e-16 0)
(3 -7.63371e-16 0)
(3 -1.74489e-16 0)
(3 2.42219e-17 0)
(3 -1.06346e-15 0)
(3 -1.21728e-15 0)
(3 -1.58731e-17 0)
(3 7.51753e-14 0)
(3 5.18941e-12 0)
(3 2.30584e-12 0)
(3 1.72171e-08 0)
(2.99987 -1.4165e-06 0)
(2.99151 7.51386e-05 0)
(2.27831 -0.0212199 0)
(0.911573 0.105085 0)
(0.63054 0.0027428 0)
(0.633687 -0.012556 0)
(0.643284 -0.0119957 0)
(0.645101 0.00345146 0)
(0.635323 0.0288601 0)
(0.613036 0.0451923 0)
(0.587708 0.0416963 0)
(0.56664 0.0265057 0)
(0.549206 0.0142923 0)
(0.534513 0.0125956 0)
(0.520884 0.0174629 0)
(0.503535 0.0229101 0)
(0.483327 0.0246465 0)
(0.463275 0.0266481 0)
(0.443732 0.0324998 0)
(0.422667 0.0392261 0)
(0.399577 0.042002 0)
(0.376694 0.0382305 0)
(0.355521 0.0300599 0)
(0.335749 0.0225646 0)
(0.316948 0.0195213 0)
(0.298646 0.0206491 0)
(0.280022 0.0231536 0)
(0.261243 0.0253625 0)
(0.242952 0.0273648 0)
(0.22518 0.0296936 0)
(0.207401 0.0319647 0)
(0.189211 0.0334393 0)
(0.170573 0.033846 0)
(0.151576 0.0334745 0)
(0.132321 0.0326454 0)
(0.112895 0.0316243 0)
(0.0933693 0.030348 0)
(0.0739124 0.0286498 0)
(0.0552569 0.0260976 0)
(0.0377263 0.0225381 0)
(0.0221033 0.0197367 0)
(0.00648019 0.0159915 0)
(3 -2.34156e-16 0)
(3 1.63795e-16 0)
(3 -8.20547e-16 0)
(3 -6.03843e-16 0)
(3 -3.13869e-16 0)
(3 -7.51997e-17 0)
(3 1.32641e-16 0)
(3 3.35904e-16 0)
(3 8.65292e-17 0)
(3 5.78197e-16 0)
(3 5.82976e-16 0)
(3 3.07638e-16 0)
(3 -5.80344e-16 0)
(3 -7.97765e-16 0)
(3 -5.898e-16 0)
(3 -1.61619e-16 0)
(3 -5.63928e-16 0)
(3 -1.15778e-15 0)
(3 -8.70181e-16 0)
(3 -7.54963e-16 0)
(3 -4.44002e-16 0)
(3 -8.87736e-16 0)
(3 -1.38146e-15 0)
(3 -1.47868e-15 0)
(3 -1.0698e-15 0)
(3 -1.2461e-16 0)
(3 1.51224e-16 0)
(3 5.71825e-16 0)
(3 8.60779e-16 0)
(3 1.1223e-15 0)
(3 9.20625e-16 0)
(3 6.54848e-16 0)
(3 1.53314e-15 0)
(3 1.77958e-15 0)
(3 1.23105e-15 0)
(3 5.22049e-16 0)
(3 -1.60271e-16 0)
(3 -8.88201e-16 0)
(3 -6.00673e-16 0)
(3 -4.15376e-16 0)
(3 -3.87957e-16 0)
(3 -1.0331e-15 0)
(3 -6.19354e-16 0)
(3 6.94965e-16 0)
(3 1.18909e-15 0)
(3 1.37622e-15 0)
(3 1.12544e-15 0)
(3 -4.69918e-17 0)
(3 3.2359e-17 0)
(3 6.64627e-15 0)
(3 2.99246e-13 0)
(3 1.71877e-11 0)
(3 7.8861e-10 0)
(3 4.19557e-08 0)
(2.99987 7.5113e-07 0)
(2.9914 0.000147312 0)
(2.24657 -0.00995541 0)
(0.888292 0.162947 0)
(0.647103 0.0132721 0)
(0.637028 -0.0202322 0)
(0.639428 -0.0157748 0)
(0.637943 0.00557273 0)
(0.629522 0.0418856 0)
(0.607836 0.0654083 0)
(0.584528 0.062773 0)
(0.5667 0.0453303 0)
(0.549353 0.0292334 0)
(0.530879 0.0264273 0)
(0.51282 0.0331514 0)
(0.492533 0.0420656 0)
(0.470458 0.0459057 0)
(0.450026 0.0460076 0)
(0.432932 0.0500243 0)
(0.418514 0.0569913 0)
(0.403192 0.0595064 0)
(0.387407 0.0544566 0)
(0.370197 0.0452801 0)
(0.350592 0.0375288 0)
(0.329624 0.0348938 0)
(0.30863 0.0369117 0)
(0.287934 0.0404184 0)
(0.268041 0.043004 0)
(0.249665 0.0449435 0)
(0.232696 0.0474997 0)
(0.216266 0.0504848 0)
(0.199471 0.0528459 0)
(0.181926 0.053953 0)
(0.163608 0.053881 0)
(0.144642 0.0529007 0)
(0.12517 0.0514243 0)
(0.105285 0.0495091 0)
(0.0851786 0.0468954 0)
(0.0654917 0.0430259 0)
(0.0464453 0.0380401 0)
(0.0281061 0.0350229 0)
(0.00839243 0.0313659 0)
(3 4.34707e-17 0)
(3 -3.11651e-16 0)
(3 -5.0595e-16 0)
(3 -6.25481e-16 0)
(3 -2.27947e-17 0)
(3 1.8967e-16 0)
(3 1.36343e-15 0)
(3 6.80246e-16 0)
(3 -7.58978e-16 0)
(3 -1.79148e-15 0)
(3 -2.09879e-15 0)
(3 -2.05877e-15 0)
(3 -1.19889e-15 0)
(3 -1.00756e-15 0)
(3 -4.78621e-16 0)
(3 -7.98297e-16 0)
(3 -3.68107e-16 0)
(3 2.64705e-17 0)
(3 9.01905e-16 0)
(3 1.73198e-15 0)
(3 1.27984e-15 0)
(3 -7.19648e-18 0)
(3 -5.2105e-16 0)
(3 -1.02645e-15 0)
(3 -6.78741e-16 0)
(3 2.40636e-16 0)
(3 9.56514e-16 0)
(3 1.45732e-15 0)
(3 1.901e-15 0)
(3 1.99399e-15 0)
(3 2.43957e-15 0)
(3 2.14108e-15 0)
(3 2.12094e-15 0)
(3 9.7848e-16 0)
(3 4.18564e-16 0)
(3 2.48692e-16 0)
(3 -6.27262e-16 0)
(3 -1.70915e-16 0)
(3 -3.88708e-16 0)
(3 3.30392e-16 0)
(3 -1.52473e-16 0)
(3 -9.04321e-16 0)
(3 -7.61443e-16 0)
(3 -6.15676e-16 0)
(3 1.06207e-15 0)
(3 5.47876e-16 0)
(3 -1.47004e-16 0)
(3 -1.31648e-16 0)
(3 3.66113e-16 0)
(3 9.87703e-15 0)
(3 5.97742e-13 0)
(3 3.9025e-11 0)
(3 2.27442e-09 0)
(3 1.48722e-07 0)
(2.99988 8.7352e-06 0)
(2.99206 0.000538005 0)
(2.281 0.0431651 0)
(0.892779 0.199003 0)
(0.68077 0.0235699 0)
(0.661791 -0.0204883 0)
(0.656583 -0.0114378 0)
(0.641065 0.0202168 0)
(0.62091 0.0634825 0)
(0.593519 0.084097 0)
(0.57131 0.0778274 0)
(0.557051 0.0590995 0)
(0.541175 0.044066 0)
(0.523037 0.0435069 0)
(0.505082 0.0536616 0)
(0.484375 0.0648785 0)
(0.462664 0.0676584 0)
(0.444375 0.0639883 0)
(0.429715 0.0637341 0)
(0.419141 0.0684331 0)
(0.408026 0.0704843 0)
(0.395144 0.0671842 0)
(0.378846 0.0612043 0)
(0.358517 0.0560797 0)
(0.335767 0.0544441 0)
(0.312956 0.0565927 0)
(0.291469 0.0597992 0)
(0.271947 0.0615875 0)
(0.254573 0.062616 0)
(0.238742 0.0648997 0)
(0.223474 0.0685379 0)
(0.207683 0.0721045 0)
(0.190859 0.0744171 0)
(0.172998 0.0751597 0)
(0.154237 0.0745031 0)
(0.134678 0.072992 0)
(0.114366 0.0708163 0)
(0.0934725 0.0676528 0)
(0.072563 0.0628758 0)
(0.0518965 0.0568134 0)
(0.0312263 0.0537038 0)
(0.00882595 0.0501564 0)
(3 2.60135e-16 0)
(3 -2.48175e-16 0)
(3 5.08166e-16 0)
(3 -2.46812e-16 0)
(3 -3.22138e-17 0)
(3 1.35993e-16 0)
(3 1.98127e-16 0)
(3 1.03677e-16 0)
(3 -1.81114e-16 0)
(3 -5.48602e-16 0)
(3 -4.05611e-16 0)
(3 1.84437e-16 0)
(3 1.80055e-15 0)
(3 1.92452e-15 0)
(3 1.06622e-15 0)
(3 7.072e-16 0)
(3 -3.2154e-16 0)
(3 -1.67372e-17 0)
(3 2.80641e-17 0)
(3 -1.26392e-16 0)
(3 2.85397e-16 0)
(3 1.08825e-16 0)
(3 2.33811e-16 0)
(3 1.31125e-16 0)
(3 1.78552e-16 0)
(3 2.71126e-16 0)
(3 -1.90795e-16 0)
(3 -7.18161e-16 0)
(3 -1.63477e-15 0)
(3 -1.41783e-15 0)
(3 -6.41837e-16 0)
(3 7.60375e-16 0)
(3 6.65996e-16 0)
(3 2.80228e-16 0)
(3 2.27614e-16 0)
(3 6.10221e-16 0)
(3 6.39252e-16 0)
(3 2.6267e-16 0)
(3 -6.06558e-16 0)
(3 -1.1068e-15 0)
(3 -1.30908e-15 0)
(3 1.58113e-16 0)
(3 7.09507e-16 0)
(3 7.8003e-16 0)
(3 5.99345e-16 0)
(3 4.33892e-16 0)
(3 -3.40275e-16 0)
(3 1.4433e-16 0)
(3 4.19711e-16 0)
(3 1.20574e-14 0)
(3 7.17122e-13 0)
(3 4.80348e-11 0)
(3 2.90074e-09 0)
(3 1.92186e-07 0)
(2.9999 1.13955e-05 0)
(2.99319 0.000708986 0)
(2.35169 0.0619915 0)
(0.909246 0.202471 0)
(0.714354 0.0200945 0)
(0.684118 -0.0114446 0)
(0.669517 0.00797362 0)
(0.637424 0.0488192 0)
(0.609908 0.0908442 0)
(0.581844 0.103673 0)
(0.562522 0.0926286 0)
(0.55008 0.0716372 0)
(0.534118 0.0572704 0)
(0.516257 0.0593274 0)
(0.499585 0.0724985 0)
(0.481162 0.0855195 0)
(0.462117 0.0872144 0)
(0.446401 0.0803822 0)
(0.432312 0.0755727 0)
(0.420885 0.0775739 0)
(0.409959 0.0804142 0)
(0.396751 0.0797531 0)
(0.380247 0.0771614 0)
(0.360206 0.074852 0)
(0.338111 0.0742686 0)
(0.316192 0.0759353 0)
(0.295833 0.0779881 0)
(0.277383 0.0785478 0)
(0.260583 0.0787896 0)
(0.244852 0.0810733 0)
(0.229674 0.08555 0)
(0.214169 0.090407 0)
(0.197811 0.0939423 0)
(0.180566 0.0955067 0)
(0.162454 0.0952681 0)
(0.143393 0.093895 0)
(0.123256 0.0917212 0)
(0.102081 0.0883571 0)
(0.0802782 0.0831922 0)
(0.0581043 0.0766095 0)
(0.034997 0.0739067 0)
(0.00984716 0.0707392 0)
(3 5.83553e-17 0)
(3 3.6468e-16 0)
(3 5.97603e-16 0)
(3 6.84421e-16 0)
(3 3.6935e-16 0)
(3 3.61618e-16 0)
(3 -2.07291e-16 0)
(3 -5.85398e-16 0)
(3 -1.50473e-15 0)
(3 -1.12444e-15 0)
(3 -1.17285e-15 0)
(3 -1.27862e-15 0)
(3 -1.21054e-15 0)
(3 -1.02071e-15 0)
(3 -3.24078e-16 0)
(3 -9.01106e-17 0)
(3 -1.11924e-16 0)
(3 3.85235e-16 0)
(3 2.78298e-16 0)
(3 4.22876e-16 0)
(3 1.37047e-15 0)
(3 9.09194e-16 0)
(3 -6.14531e-16 0)
(3 -9.38619e-16 0)
(3 -1.04134e-15 0)
(3 -1.33185e-15 0)
(3 -7.77796e-16 0)
(3 -9.91535e-16 0)
(3 -1.13422e-15 0)
(3 -4.40832e-16 0)
(3 -8.34035e-16 0)
(3 -1.17976e-16 0)
(3 -1.25843e-16 0)
(3 6.70393e-17 0)
(3 9.43902e-16 0)
(3 2.85684e-16 0)
(3 5.76148e-16 0)
(3 1.85802e-16 0)
(3 1.22736e-16 0)
(3 -8.1467e-17 0)
(3 -1.29817e-16 0)
(3 -1.53545e-17 0)
(3 -4.72851e-16 0)
(3 -6.83093e-16 0)
(3 -1.40702e-15 0)
(3 -1.43627e-15 0)
(3 -7.35124e-16 0)
(3 -2.39232e-17 0)
(3 6.09306e-16 0)
(3 1.05022e-14 0)
(3 6.79597e-13 0)
(3 4.66198e-11 0)
(3 2.88331e-09 0)
(3 1.97742e-07 0)
(2.99992 1.19489e-05 0)
(2.99458 0.000792987 0)
(2.44596 0.0756541 0)
(0.938532 0.191838 0)
(0.73146 0.0184194 0)
(0.688538 0.00632124 0)
(0.668177 0.0363976 0)
(0.636559 0.081385 0)
(0.6089 0.11818 0)
(0.582151 0.122993 0)
(0.564127 0.107798 0)
(0.550341 0.0855499 0)
(0.532068 0.0727264 0)
(0.512855 0.076514 0)
(0.496503 0.0906512 0)
(0.480693 0.10292 0)
(0.465298 0.103102 0)
(0.451812 0.0951603 0)
(0.437234 0.0883259 0)
(0.423112 0.0885895 0)
(0.409866 0.0914489 0)
(0.395289 0.0923869 0)
(0.37847 0.0924414 0)
(0.359164 0.092611 0)
(0.33844 0.0930542 0)
(0.317988 0.0943041 0)
(0.298787 0.095476 0)
(0.280846 0.0954964 0)
(0.263756 0.0956444 0)
(0.24729 0.0980977 0)
(0.231533 0.103117 0)
(0.216012 0.108811 0)
(0.200181 0.113201 0)
(0.183812 0.115442 0)
(0.166682 0.115739 0)
(0.148466 0.114804 0)
(0.128841 0.113088 0)
(0.107671 0.110114 0)
(0.0852429 0.105233 0)
(0.0619308 0.0986903 0)
(0.037095 0.0965174 0)
(0.01024 0.093808 0)
(3 -8.90074e-17 0)
(3 7.26849e-16 0)
(3 9.6096e-16 0)
(3 1.61904e-15 0)
(3 1.72131e-17 0)
(3 -1.93839e-16 0)
(3 -7.61041e-16 0)
(3 -6.7737e-16 0)
(3 -3.02808e-16 0)
(3 -4.34593e-16 0)
(3 -3.11714e-16 0)
(3 -1.57123e-15 0)
(3 -1.89801e-15 0)
(3 -1.9836e-15 0)
(3 -1.6388e-15 0)
(3 -1.87572e-15 0)
(3 -1.47774e-15 0)
(3 -1.10432e-15 0)
(3 -6.15737e-16 0)
(3 -2.02338e-16 0)
(3 -1.56493e-16 0)
(3 2.88501e-16 0)
(3 2.85656e-16 0)
(3 5.65693e-17 0)
(3 -4.31945e-16 0)
(3 -2.01367e-15 0)
(3 -1.24086e-15 0)
(3 -8.64579e-16 0)
(3 -6.5459e-16 0)
(3 7.39167e-16 0)
(3 1.06966e-15 0)
(3 1.16177e-15 0)
(3 4.99964e-16 0)
(3 -8.50344e-16 0)
(3 -1.01715e-15 0)
(3 -1.14026e-15 0)
(3 -9.86093e-16 0)
(3 -1.55183e-16 0)
(3 -1.22114e-16 0)
(3 5.96514e-17 0)
(3 1.58871e-16 0)
(3 8.3736e-17 0)
(3 -5.37259e-18 0)
(3 -4.73168e-16 0)
(3 -6.34316e-16 0)
(3 -4.27696e-16 0)
(3 4.32479e-16 0)
(3 1.38851e-16 0)
(3 -4.32962e-16 0)
(3 8.09911e-15 0)
(3 5.84318e-13 0)
(3 4.09125e-11 0)
(3 2.63155e-09 0)
(3 1.85696e-07 0)
(2.99994 1.14213e-05 0)
(2.99607 0.000804967 0)
(2.56455 0.0803295 0)
(0.989459 0.181823 0)
(0.739973 0.0211099 0)
(0.684654 0.0269953 0)
(0.662047 0.0661399 0)
(0.633206 0.111745 0)
(0.607107 0.141425 0)
(0.584348 0.140008 0)
(0.569612 0.12184 0)
(0.555576 0.0997535 0)
(0.536186 0.0896157 0)
(0.516607 0.0945821 0)
(0.500497 0.107665 0)
(0.486349 0.117054 0)
(0.473297 0.116058 0)
(0.460174 0.109185 0)
(0.444642 0.102748 0)
(0.428044 0.102307 0)
(0.411924 0.104819 0)
(0.395428 0.106355 0)
(0.377859 0.107912 0)
(0.358805 0.109678 0)
(0.338894 0.110792 0)
(0.319299 0.111746 0)
(0.300533 0.112557 0)
(0.282345 0.112707 0)
(0.264398 0.113195 0)
(0.246837 0.115765 0)
(0.230199 0.120838 0)
(0.21445 0.126736 0)
(0.199087 0.131504 0)
(0.183634 0.134224 0)
(0.167593 0.13512 0)
(0.15043 0.134836 0)
(0.131641 0.133937 0)
(0.110873 0.131852 0)
(0.0882903 0.127771 0)
(0.0644027 0.121671 0)
(0.0383837 0.120029 0)
(0.010384 0.117735 0)
(3 6.02603e-17 0)
(3 9.15741e-17 0)
(3 -4.12216e-16 0)
(3 -3.30859e-16 0)
(3 3.35393e-16 0)
(3 1.0247e-16 0)
(3 -8.53221e-16 0)
(3 -6.25088e-16 0)
(3 8.44166e-17 0)
(3 1.17775e-15 0)
(3 1.37273e-15 0)
(3 1.07309e-15 0)
(3 3.35651e-16 0)
(3 -5.15535e-16 0)
(3 -1.457e-15 0)
(3 -1.41481e-15 0)
(3 -6.27076e-16 0)
(3 -1.73698e-17 0)
(3 -2.92787e-16 0)
(3 -5.77847e-16 0)
(3 -5.6602e-16 0)
(3 6.94894e-16 0)
(3 1.50437e-15 0)
(3 1.39128e-15 0)
(3 1.16644e-15 0)
(3 5.78917e-16 0)
(3 3.9775e-17 0)
(3 2.98337e-16 0)
(3 4.34899e-17 0)
(3 -3.16576e-16 0)
(3 7.48199e-17 0)
(3 -1.24497e-15 0)
(3 -1.35546e-15 0)
(3 -1.6034e-15 0)
(3 -1.90607e-15 0)
(3 -2.62377e-15 0)
(3 -3.10066e-15 0)
(3 -2.86662e-15 0)
(3 -2.24832e-15 0)
(3 -1.66817e-15 0)
(3 -5.56843e-16 0)
(3 -3.41419e-16 0)
(3 1.37915e-15 0)
(3 1.46594e-15 0)
(3 1.75788e-15 0)
(3 1.95273e-15 0)
(3 1.33814e-15 0)
(3 7.98136e-16 0)
(3 3.27685e-16 0)
(3 5.37284e-15 0)
(3 4.20767e-13 0)
(3 3.05399e-11 0)
(3 2.08957e-09 0)
(3 1.51498e-07 0)
(2.99996 9.70017e-06 0)
(2.99746 0.000716142 0)
(2.69581 0.0739266 0)
(1.05704 0.166495 0)
(0.752451 0.0316021 0)
(0.689339 0.0506473 0)
(0.668207 0.0951856 0)
(0.640585 0.139733 0)
(0.61298 0.161724 0)
(0.590821 0.155176 0)
(0.577174 0.134287 0)
(0.563439 0.113094 0)
(0.54489 0.105715 0)
(0.526778 0.11128 0)
(0.511073 0.122258 0)
(0.497028 0.1285 0)
(0.48398 0.127822 0)
(0.469836 0.123292 0)
(0.453164 0.118665 0)
(0.434843 0.1184 0)
(0.416516 0.120316 0)
(0.398342 0.121664 0)
(0.379912 0.123881 0)
(0.360689 0.12662 0)
(0.340901 0.128189 0)
(0.321345 0.129054 0)
(0.302221 0.129987 0)
(0.283178 0.130758 0)
(0.26404 0.131873 0)
(0.245231 0.134485 0)
(0.227567 0.139137 0)
(0.211344 0.144552 0)
(0.196171 0.149117 0)
(0.181362 0.152022 0)
(0.166181 0.153461 0)
(0.149951 0.153922 0)
(0.132054 0.154111 0)
(0.11191 0.153355 0)
(0.0895634 0.150544 0)
(0.0655954 0.145373 0)
(0.0389262 0.144314 0)
(0.0103353 0.142468 0)
(3 -1.982e-17 0)
(3 -1.0952e-15 0)
(3 -1.17012e-15 0)
(3 -8.89864e-16 0)
(3 -9.56047e-18 0)
(3 2.34215e-17 0)
(3 1.46787e-16 0)
(3 -9.63457e-17 0)
(3 -4.99228e-16 0)
(3 -4.10168e-16 0)
(3 -9.29586e-16 0)
(3 -3.95782e-16 0)
(3 -8.43539e-16 0)
(3 -1.52509e-15 0)
(3 -1.36361e-15 0)
(3 -1.06289e-15 0)
(3 7.50481e-16 0)
(3 5.68246e-16 0)
(3 1.64998e-15 0)
(3 1.90603e-15 0)
(3 1.10313e-15 0)
(3 4.33487e-16 0)
(3 6.60707e-16 0)
(3 1.14971e-15 0)
(3 8.01117e-16 0)
(3 6.63759e-16 0)
(3 -1.86063e-17 0)
(3 -2.7225e-16 0)
(3 6.18394e-17 0)
(3 -2.72042e-16 0)
(3 -1.50011e-15 0)
(3 -1.65597e-15 0)
(3 -1.41858e-15 0)
(3 -6.01068e-16 0)
(3 -8.1017e-16 0)
(3 -7.23237e-16 0)
(3 -1.24248e-15 0)
(3 -1.593e-15 0)
(3 -1.73927e-15 0)
(3 -6.33197e-16 0)
(3 -7.36814e-16 0)
(3 -1.40698e-15 0)
(3 -2.75088e-15 0)
(3 -2.08922e-15 0)
(3 -2.17454e-15 0)
(3 -1.58336e-15 0)
(3 -1.74761e-15 0)
(3 -1.09427e-15 0)
(3 -8.14382e-16 0)
(3 1.84104e-15 0)
(3 2.0727e-13 0)
(3 1.61071e-11 0)
(3 1.20265e-09 0)
(3 9.18608e-08 0)
(2.99998 6.55739e-06 0)
(2.99859 0.000512961 0)
(2.82432 0.0565816 0)
(1.13379 0.149218 0)
(0.761445 0.0406422 0)
(0.696692 0.0700806 0)
(0.679761 0.120769 0)
(0.650217 0.167037 0)
(0.618628 0.183338 0)
(0.595663 0.171339 0)
(0.582711 0.146578 0)
(0.5704 0.125447 0)
(0.554147 0.120057 0)
(0.538784 0.126331 0)
(0.523682 0.136313 0)
(0.508461 0.141073 0)
(0.493826 0.140925 0)
(0.478226 0.138368 0)
(0.460737 0.135649 0)
(0.441726 0.135997 0)
(0.422295 0.137345 0)
(0.403 0.138096 0)
(0.38374 0.140469 0)
(0.364083 0.143843 0)
(0.343985 0.14583 0)
(0.324002 0.146841 0)
(0.304177 0.14823 0)
(0.284176 0.149882 0)
(0.26396 0.151744 0)
(0.244117 0.15432 0)
(0.225584 0.15822 0)
(0.208823 0.162652 0)
(0.193556 0.166543 0)
(0.178979 0.169328 0)
(0.164207 0.17113 0)
(0.148512 0.172243 0)
(0.131263 0.17357 0)
(0.111698 0.174384 0)
(0.0897225 0.173139 0)
(0.0659432 0.169305 0)
(0.0389587 0.168873 0)
(0.0101784 0.167503 0)
(3 -2.54428e-16 0)
(3 -2.27674e-16 0)
(3 3.01761e-16 0)
(3 5.47032e-16 0)
(3 -1.42337e-17 0)
(3 -3.84185e-16 0)
(3 6.11765e-16 0)
(3 3.58343e-16 0)
(3 3.96303e-16 0)
(3 2.90509e-16 0)
(3 7.9114e-16 0)
(3 9.94882e-16 0)
(3 7.31522e-16 0)
(3 4.05932e-16 0)
(3 5.38058e-18 0)
(3 -2.56455e-16 0)
(3 -7.45211e-16 0)
(3 -5.3965e-16 0)
(3 -1.42266e-16 0)
(3 1.39465e-17 0)
(3 -1.39676e-16 0)
(3 -1.13662e-15 0)
(3 -1.03266e-15 0)
(3 -1.39474e-15 0)
(3 -1.84919e-15 0)
(3 -2.24716e-15 0)
(3 -3.16321e-15 0)
(3 -3.89391e-15 0)
(3 -3.19941e-15 0)
(3 -3.03431e-15 0)
(3 -2.06454e-15 0)
(3 -9.07418e-16 0)
(3 1.8899e-16 0)
(3 3.91002e-16 0)
(3 -6.87235e-16 0)
(3 -5.53501e-16 0)
(3 -9.88446e-16 0)
(3 -9.43226e-16 0)
(3 -3.98683e-16 0)
(3 -4.18679e-16 0)
(3 -4.70961e-17 0)
(3 1.05078e-15 0)
(3 2.37768e-16 0)
(3 1.90342e-16 0)
(3 -4.26667e-16 0)
(3 -1.06116e-15 0)
(3 -9.66459e-16 0)
(3 -1.01141e-15 0)
(3 -1.37782e-15 0)
(3 -1.10553e-15 0)
(3 6.17492e-14 0)
(3 5.35737e-12 0)
(3 3.51058e-10 0)
(3 2.9758e-08 0)
(2.99999 2.26071e-06 0)
(2.99928 0.000172094 0)
(2.9291 0.0222818 0)
(1.21408 0.145006 0)
(0.767745 0.0414306 0)
(0.703981 0.0874526 0)
(0.684127 0.15017 0)
(0.648999 0.198769 0)
(0.615521 0.206551 0)
(0.595535 0.187158 0)
(0.586267 0.157009 0)
(0.576666 0.135221 0)
(0.562705 0.131357 0)
(0.549665 0.139264 0)
(0.534609 0.151027 0)
(0.517157 0.156288 0)
(0.500149 0.1562 0)
(0.483106 0.154537 0)
(0.465193 0.153148 0)
(0.44624 0.154221 0)
(0.426609 0.155394 0)
(0.406819 0.155674 0)
(0.387046 0.157972 0)
(0.367139 0.161688 0)
(0.346897 0.163982 0)
(0.326658 0.165232 0)
(0.306369 0.167216 0)
(0.285767 0.169841 0)
(0.264902 0.172478 0)
(0.244435 0.174973 0)
(0.225335 0.177956 0)
(0.208112 0.181164 0)
(0.192542 0.184155 0)
(0.177781 0.18667 0)
(0.162897 0.188681 0)
(0.1472 0.190281 0)
(0.130139 0.192624 0)
(0.110878 0.195039 0)
(0.0891728 0.195465 0)
(0.0656617 0.193267 0)
(0.0385718 0.193486 0)
(0.00987482 0.192568 0)
(3 2.10685e-16 0)
(3 -8.01775e-18 0)
(3 2.68746e-16 0)
(3 -3.44718e-16 0)
(3 7.73071e-17 0)
(3 4.65147e-16 0)
(3 4.43475e-16 0)
(3 6.90532e-16 0)
(3 5.44808e-16 0)
(3 8.8024e-16 0)
(3 6.6214e-16 0)
(3 1.56947e-16 0)
(3 8.00557e-16 0)
(3 7.94368e-16 0)
(3 7.66547e-16 0)
(3 1.17948e-15 0)
(3 9.50288e-16 0)
(3 1.2244e-15 0)
(3 -1.46009e-17 0)
(3 -1.10085e-15 0)
(3 -8.47193e-16 0)
(3 -9.63768e-16 0)
(3 -1.59319e-15 0)
(3 -1.89078e-15 0)
(3 -1.86311e-15 0)
(3 -1.56565e-15 0)
(3 -9.67497e-16 0)
(3 -7.49618e-16 0)
(3 -1.40983e-15 0)
(3 -1.87683e-15 0)
(3 -1.93226e-15 0)
(3 -2.25925e-15 0)
(3 -2.05646e-15 0)
(3 -1.88695e-15 0)
(3 -2.28622e-15 0)
(3 -2.816e-15 0)
(3 -2.74754e-15 0)
(3 -2.19314e-15 0)
(3 -1.19351e-15 0)
(3 -1.04651e-15 0)
(3 -3.04991e-17 0)
(3 4.4243e-16 0)
(3 1.38058e-15 0)
(3 7.68001e-16 0)
(3 1.17368e-15 0)
(3 5.0343e-16 0)
(3 1.10701e-16 0)
(3 -6.66062e-16 0)
(3 -2.13549e-15 0)
(3 -2.13167e-15 0)
(3 2.91877e-14 0)
(3 1.90296e-12 0)
(3 9.34513e-11 0)
(3 1.05403e-08 0)
(2.99999 2.65635e-07 0)
(2.99949 5.19193e-05 0)
(2.96861 0.00176215 0)
(1.29341 0.153227 0)
(0.777182 0.0353768 0)
(0.708121 0.108147 0)
(0.677842 0.185989 0)
(0.637002 0.230036 0)
(0.607257 0.226227 0)
(0.594673 0.199288 0)
(0.590447 0.164194 0)
(0.582484 0.142817 0)
(0.569546 0.1411 0)
(0.556988 0.152273 0)
(0.540338 0.168083 0)
(0.519906 0.174435 0)
(0.500878 0.173186 0)
(0.483045 0.171118 0)
(0.465343 0.170344 0)
(0.447158 0.172106 0)
(0.4282 0.173574 0)
(0.408776 0.173749 0)
(0.389215 0.175939 0)
(0.369604 0.179781 0)
(0.349635 0.182316 0)
(0.329439 0.183914 0)
(0.30896 0.186608 0)
(0.288084 0.190249 0)
(0.26695 0.193654 0)
(0.246254 0.196058 0)
(0.226937 0.198091 0)
(0.209448 0.200043 0)
(0.193545 0.202113 0)
(0.178391 0.204366 0)
(0.163075 0.20654 0)
(0.146992 0.20851 0)
(0.129716 0.211687 0)
(0.110456 0.215587 0)
(0.0887943 0.217634 0)
(0.0654463 0.217221 0)
(0.0382049 0.218094 0)
(0.00957313 0.217548 0)
(3 -6.33886e-17 0)
(3 5.48799e-17 0)
(3 -3.53327e-16 0)
(3 -6.73582e-16 0)
(3 -4.84041e-16 0)
(3 -3.53816e-16 0)
(3 6.86115e-16 0)
(3 1.16614e-15 0)
(3 8.65522e-16 0)
(3 -1.47804e-17 0)
(3 -2.62207e-16 0)
(3 -2.37745e-16 0)
(3 -1.47411e-16 0)
(3 6.74084e-16 0)
(3 1.73907e-15 0)
(3 1.94274e-15 0)
(3 1.93633e-15 0)
(3 1.27731e-15 0)
(3 6.45085e-16 0)
(3 1.00276e-16 0)
(3 -5.77984e-16 0)
(3 -1.0409e-15 0)
(3 -1.1296e-15 0)
(3 -5.93153e-16 0)
(3 -2.55286e-16 0)
(3 1.98433e-16 0)
(3 4.21163e-16 0)
(3 1.15341e-15 0)
(3 4.63029e-16 0)
(3 7.69411e-16 0)
(3 -1.54759e-17 0)
(3 -1.46229e-15 0)
(3 -1.73062e-15 0)
(3 -1.64198e-15 0)
(3 -1.33775e-15 0)
(3 -1.08935e-15 0)
(3 1.39349e-16 0)
(3 -3.32997e-17 0)
(3 -5.18431e-17 0)
(3 2.82913e-17 0)
(3 -1.54905e-17 0)
(3 1.31171e-16 0)
(3 8.27494e-17 0)
(3 -1.96226e-16 0)
(3 4.63596e-16 0)
(3 1.16001e-16 0)
(3 -7.18993e-16 0)
(3 -1.64184e-15 0)
(3 -1.68684e-15 0)
(3 -1.01342e-15 0)
(3 3.23802e-14 0)
(3 1.07814e-12 0)
(3 1.01823e-10 0)
(3 5.90098e-09 0)
(2.99999 2.13143e-07 0)
(2.99953 3.25297e-05 0)
(2.9714 -2.55964e-05 0)
(1.38998 0.147785 0)
(0.791819 0.0342657 0)
(0.706493 0.141318 0)
(0.661864 0.228387 0)
(0.620219 0.25464 0)
(0.601078 0.240055 0)
(0.597418 0.205277 0)
(0.597024 0.167652 0)
(0.589108 0.149115 0)
(0.576478 0.150636 0)
(0.562166 0.16715 0)
(0.54209 0.187729 0)
(0.518808 0.194167 0)
(0.499022 0.190581 0)
(0.481258 0.187302 0)
(0.464166 0.186705 0)
(0.446975 0.189087 0)
(0.428999 0.191226 0)
(0.410326 0.191681 0)
(0.391353 0.193848 0)
(0.372273 0.19774 0)
(0.352692 0.200578 0)
(0.332583 0.202707 0)
(0.311997 0.206215 0)
(0.291044 0.210846 0)
(0.269953 0.21494 0)
(0.249399 0.217227 0)
(0.230206 0.218379 0)
(0.212642 0.219226 0)
(0.196372 0.220529 0)
(0.180624 0.222653 0)
(0.164571 0.225035 0)
(0.147721 0.227314 0)
(0.129809 0.231126 0)
(0.110207 0.236309 0)
(0.0883364 0.239819 0)
(0.0650624 0.241201 0)
(0.0376989 0.242716 0)
(0.00911222 0.24243 0)
(3 -3.11818e-17 0)
(3 -7.37341e-18 0)
(3 -3.51624e-16 0)
(3 -2.34316e-16 0)
(3 -3.35205e-16 0)
(3 7.44755e-16 0)
(3 9.82889e-16 0)
(3 6.11847e-16 0)
(3 7.10906e-16 0)
(3 7.26833e-16 0)
(3 1.05479e-15 0)
(3 5.08798e-16 0)
(3 8.07679e-16 0)
(3 9.14404e-16 0)
(3 1.04798e-15 0)
(3 8.39999e-16 0)
(3 1.34586e-15 0)
(3 1.44009e-15 0)
(3 1.41644e-15 0)
(3 1.38573e-15 0)
(3 4.47646e-16 0)
(3 -1.9368e-16 0)
(3 -6.67972e-16 0)
(3 -9.03943e-16 0)
(3 -6.623e-16 0)
(3 -6.95552e-16 0)
(3 -5.5682e-16 0)
(3 -4.15584e-18 0)
(3 1.00568e-16 0)
(3 1.36245e-16 0)
(3 9.55517e-17 0)
(3 -4.91139e-16 0)
(3 -1.2274e-15 0)
(3 -2.37232e-15 0)
(3 -2.14561e-15 0)
(3 -7.54503e-16 0)
(3 -5.25461e-16 0)
(3 2.4568e-17 0)
(3 -3.59344e-16 0)
(3 2.81626e-16 0)
(3 4.88529e-16 0)
(3 9.97001e-16 0)
(3 1.06007e-15 0)
(3 2.61851e-16 0)
(3 -1.25194e-15 0)
(3 -1.79706e-15 0)
(3 -1.93088e-15 0)
(3 -2.56494e-15 0)
(3 -2.68541e-15 0)
(3 -2.14286e-15 0)
(3 3.53358e-14 0)
(3 9.42134e-13 0)
(3 1.35594e-10 0)
(3 4.31034e-09 0)
(2.99999 4.16982e-07 0)
(2.99957 2.39569e-05 0)
(2.97401 0.000917247 0)
(1.50038 0.12543 0)
(0.802209 0.0485155 0)
(0.696669 0.192557 0)
(0.637811 0.267795 0)
(0.607126 0.269845 0)
(0.600505 0.246046 0)
(0.603216 0.203112 0)
(0.607315 0.167265 0)
(0.598472 0.154752 0)
(0.585339 0.161641 0)
(0.566894 0.186293 0)
(0.541848 0.210404 0)
(0.516787 0.214436 0)
(0.49781 0.20766 0)
(0.480898 0.202925 0)
(0.464658 0.202405 0)
(0.448386 0.205369 0)
(0.431255 0.208386 0)
(0.413197 0.209375 0)
(0.394683 0.211597 0)
(0.375939 0.215533 0)
(0.356542 0.218791 0)
(0.336386 0.221618 0)
(0.315701 0.225957 0)
(0.29483 0.23142 0)
(0.274077 0.236008 0)
(0.254009 0.238124 0)
(0.23522 0.238569 0)
(0.217702 0.238644 0)
(0.20103 0.2395 0)
(0.184568 0.24172 0)
(0.167622 0.244417 0)
(0.149811 0.246992 0)
(0.131014 0.251251 0)
(0.110829 0.25747 0)
(0.0885139 0.262228 0)
(0.0651378 0.265277 0)
(0.0375034 0.267428 0)
(0.00869655 0.267286 0)
(3 4.69871e-17 0)
(3 -3.06946e-16 0)
(3 -3.00456e-16 0)
(3 7.09404e-17 0)
(3 4.99057e-16 0)
(3 3.38638e-16 0)
(3 3.14547e-17 0)
(3 -8.84619e-17 0)
(3 2.03634e-16 0)
(3 6.01592e-16 0)
(3 4.97394e-16 0)
(3 5.26033e-16 0)
(3 4.98267e-16 0)
(3 1.32089e-16 0)
(3 -3.38413e-16 0)
(3 -3.28246e-16 0)
(3 -2.87269e-16 0)
(3 1.03531e-16 0)
(3 -4.51985e-17 0)
(3 -4.14152e-16 0)
(3 -8.6129e-16 0)
(3 -4.99152e-16 0)
(3 -6.08744e-16 0)
(3 -6.93911e-16 0)
(3 -7.46845e-16 0)
(3 -1.57503e-15 0)
(3 -1.71964e-15 0)
(3 -1.69807e-15 0)
(3 -1.25761e-15 0)
(3 -9.65141e-16 0)
(3 -8.24293e-16 0)
(3 -6.4814e-16 0)
(3 -1.04519e-15 0)
(3 -8.77381e-16 0)
(3 -1.40019e-15 0)
(3 -9.35742e-16 0)
(3 -6.72338e-16 0)
(3 -9.13389e-18 0)
(3 1.75655e-16 0)
(3 5.51483e-17 0)
(3 -1.93618e-16 0)
(3 -3.76805e-16 0)
(3 -1.10761e-16 0)
(3 -5.02074e-16 0)
(3 -1.32294e-15 0)
(3 -2.35683e-15 0)
(3 -2.49686e-15 0)
(3 -1.90161e-15 0)
(3 -1.38633e-15 0)
(3 6.49816e-16 0)
(3 3.45933e-14 0)
(3 1.04425e-12 0)
(3 1.37043e-10 0)
(3 3.33419e-09 0)
(2.99999 5.19482e-07 0)
(2.99962 1.50767e-05 0)
(2.9768 0.00166846 0)
(1.61046 0.0864144 0)
(0.806954 0.0879026 0)
(0.674166 0.254257 0)
(0.615838 0.289852 0)
(0.604118 0.277636 0)
(0.605009 0.241381 0)
(0.618706 0.193878 0)
(0.62228 0.165023 0)
(0.611765 0.160997 0)
(0.595227 0.17788 0)
(0.570175 0.211769 0)
(0.540161 0.234995 0)
(0.515743 0.233673 0)
(0.498969 0.223483 0)
(0.483329 0.217549 0)
(0.467958 0.217394 0)
(0.452323 0.221142 0)
(0.435644 0.225272 0)
(0.417813 0.22702 0)
(0.399421 0.229372 0)
(0.380706 0.233356 0)
(0.361283 0.237095 0)
(0.341026 0.240668 0)
(0.320331 0.245727 0)
(0.299725 0.251738 0)
(0.279534 0.256542 0)
(0.26014 0.258462 0)
(0.241823 0.258511 0)
(0.22429 0.258322 0)
(0.207094 0.259167 0)
(0.189787 0.261747 0)
(0.171803 0.264884 0)
(0.152853 0.267752 0)
(0.132949 0.272272 0)
(0.111953 0.279265 0)
(0.0890092 0.28505 0)
(0.0654077 0.28958 0)
(0.0374405 0.292391 0)
(0.00822549 0.292319 0)
(3 -1.51072e-17 0)
(3 3.01811e-16 0)
(3 1.07729e-16 0)
(3 -3.62137e-16 0)
(3 -4.26566e-17 0)
(3 -5.1551e-16 0)
(3 -2.05686e-16 0)
(3 -1.22758e-16 0)
(3 1.12831e-15 0)
(3 1.11004e-15 0)
(3 1.78726e-15 0)
(3 1.74603e-15 0)
(3 1.32728e-15 0)
(3 1.19392e-15 0)
(3 5.13715e-16 0)
(3 -4.97852e-17 0)
(3 -1.56801e-15 0)
(3 -1.6551e-15 0)
(3 -2.14411e-15 0)
(3 -2.3989e-15 0)
(3 -1.12105e-15 0)
(3 -1.20578e-15 0)
(3 -5.97529e-16 0)
(3 -2.55819e-17 0)
(3 -2.10489e-16 0)
(3 -5.05598e-16 0)
(3 -4.00935e-16 0)
(3 -8.3033e-16 0)
(3 -4.73825e-16 0)
(3 -4.46207e-16 0)
(3 -1.40511e-15 0)
(3 -1.15763e-15 0)
(3 -9.54585e-16 0)
(3 -5.16729e-16 0)
(3 -1.0499e-15 0)
(3 -8.47962e-16 0)
(3 -4.26156e-16 0)
(3 -1.80824e-16 0)
(3 8.51964e-16 0)
(3 3.74182e-16 0)
(3 -5.29063e-16 0)
(3 -6.37354e-16 0)
(3 -7.31048e-16 0)
(3 -3.34757e-16 0)
(3 1.20299e-16 0)
(3 -1.81471e-16 0)
(3 -7.31148e-16 0)
(3 6.76259e-17 0)
(3 1.39751e-16 0)
(3 3.17985e-16 0)
(3 2.85567e-14 0)
(3 1.48211e-12 0)
(3 1.13568e-10 0)
(3 3.89106e-09 0)
(2.99999 4.7696e-07 0)
(2.99966 1.03124e-05 0)
(2.97941 0.00187625 0)
(1.70562 0.0427977 0)
(0.8133 0.159583 0)
(0.643428 0.30403 0)
(0.608447 0.29853 0)
(0.610043 0.273884 0)
(0.623285 0.224671 0)
(0.642844 0.181717 0)
(0.640356 0.164125 0)
(0.626976 0.17166 0)
(0.602132 0.203525 0)
(0.569703 0.24275 0)
(0.53756 0.258592 0)
(0.516966 0.250506 0)
(0.50296 0.237409 0)
(0.48845 0.231066 0)
(0.473744 0.23192 0)
(0.458344 0.236886 0)
(0.441662 0.242357 0)
(0.423693 0.244965 0)
(0.405176 0.247428 0)
(0.386318 0.251386 0)
(0.366802 0.255548 0)
(0.346509 0.259798 0)
(0.325931 0.265389 0)
(0.305684 0.271639 0)
(0.286085 0.276423 0)
(0.26731 0.278232 0)
(0.249323 0.278328 0)
(0.231638 0.278437 0)
(0.21386 0.2797 0)
(0.195711 0.282865 0)
(0.176716 0.286524 0)
(0.156644 0.289677 0)
(0.135607 0.294278 0)
(0.113728 0.301798 0)
(0.0900757 0.308416 0)
(0.066149 0.314237 0)
(0.037712 0.317764 0)
(0.00790314 0.317742 0)
(3 2.44906e-16 0)
(3 7.81729e-16 0)
(3 7.52328e-16 0)
(3 7.35144e-16 0)