/*--------------------------------*- C++ -*----------------------------------*\
| =========                 |                                                 |
| \\      /  F ield         | OpenFOAM: The Open Source CFD Toolbox           |
|  \\    /   O peration     | Version:  v1812                                 |
|   \\  /    A nd           | Web:      www.OpenFOAM.com                      |
|    \\/     M anipulation  |                                                 |
\*---------------------------------------------------------------------------*/
FoamFile
{
    version     2.0;
    format      ascii;
    class       volScalarField;
    location    "0.2";
    object      p;
}
// * * * * * * * * * * * * * * * * * * * * * * * * * * * * * * * * * * * * * //

dimensions      [1 -1 -2 0 0 0 0];


internalField   nonuniform List<scalar> 
20400
(
94655
94653.4
94651.8
94648.2
94644
94639.8
94632.5
94626.9
94616.6
94608.5
94597
94587.4
94575.3
94564.7
94552.8
94541.5
94529.6
94518.2
94506.6
94495.8
94485.2
94475.7
94467.2
94460
94454.4
94451.7
94451.8
94454.6
94460.6
94470.2
94483.7
94501.8
94524.5
94551.9
94583.4
94619.5
94658.3
94702.4
94760.3
94812.1
94864.2
94926.1
94990.7
95059.2
95128.7
95201.5
95274.3
95348.1
95421.9
95492.9
95563.6
95631.4
95697
95759.7
95819.1
95874.8
95926.8
95974.3
96019.3
96062.7
96104
96142.2
96177.3
96208.5
96236.5
96260.5
96281.7
96299.7
96314.5
96326.2
96335.1
96340.9
96342.9
96341.4
96336.8
96328.8
96317.4
96302.8
96285.2
96264.5
96241.6
96216.2
96187
96156.4
96123.4
96087.5
96050.3
96010
95969
95924.8
95880.4
95832.9
95785.5
95735.1
95684.9
95631.9
95579.9
95525.2
95472.3
95416.9
95363.2
95308.5
95253.9
95200.3
95143.8
95091.9
95036.5
94986.7
94935.2
94887.4
94840.2
94794
94750.5
94708.6
94670.1
94633
94599.8
94567.8
94539.7
94512.9
94489.8
94468.7
94451
94435.5
94423.3
94414.4
94409.6
94408
94408.9
94412.4
94419
94428.9
94441.9
94458.2
94478.1
94501.2
94527.5
94555.7
94587
94620.1
94656.1
94692.9
94732.1
94772.3
94815.2
94859.5
94905.3
94952.9
95001.5
95050.8
95101.3
95152.8
95204
95258.3
95309.7
95363.2
95413.7
95466.7
95518.5
95571.8
95623.8
95676.3
95727.5
95778.9
95829.1
95879.1
95927.4
95975.3
96021.9
96067.9
96112.2
96155.6
96197.4
96237.9
96276.9
96314.2
96350.7
96384.5
96418.1
96448.6
96478.1
96504.1
96528
96548.6
96566.5
96581.5
96594
96604.2
96612.3
96618.4
96622
96623.3
96622.7
96618.6
96611
96599.6
96586.5
96568.5
96549.4
96525.7
96500.5
96471.1
96440.4
96405.7
96369.1
96329.5
96288.2
96243.7
96197.9
96148.7
96098.2
96044.4
95989.9
95932.6
95874.2
95812.9
95751.3
95687.2
95622.6
95556.2
95489.6
95421.5
95353.6
95284.7
95216.9
95149.1
95082.1
95016.3
94951
94888.1
94825.3
94766.8
94709.1
94655.7
94603.8
94556
94510.7
94468.8
94430.1
94394.5
94362.5
94333.9
94309.2
94287.9
94270.2
94255.4
94243.3
94233.7
94226.5
94221.7
94219.4
94219.3
94221.3
94226.4
94234.1
94244.3
94256.8
94271.5
94287.9
94305.8
94324.9
94346.5
94369.8
94395
94421.9
94450.3
94480.3
94511.9
94544.8
94579.3
94615.3
94652.6
94691.5
94731.9
94773.6
94816.7
94861
94906.8
94953.8
95002.1
95051.5
95102.4
95154.6
95208
95262.5
95318.2
95377.2
95435.8
95496.7
95556.2
95618.3
95680.9
95745.4
95811
95877.5
95944.8
96013.2
96082.3
96152.4
96222.6
96293.5
96366.8
96439.3
96514.9
96587.3
96662
96735.7
96811.3
96886.3
96962.4
97037.7
97114.1
97189.9
97266.8
97343
97420.2
97496.6
97573.9
97650.3
97727.6
97803.8
97880.7
97956.5
98032.7
98107.6
98182.8
98256.8
98330.9
98403.5
98475.7
98546.5
98617.2
98686.5
98755.7
98823.6
98891
98957.1
99022.8
99087
99150.5
99212.8
99274.3
99334.5
99393.9
99451.9
99509.1
99564.8
99619.6
99673.2
99725.7
99776.7
99826.9
99875.5
99923.1
99968.9
100013
100058
100101
100145
100185
100225
100263
100300
100336
100372
100406
100440
100473
100504
100536
100566
100597
100625
100653
100680
100707
100733
100758
100783
100808
100831
100855
100877
100900
100921
100943
100964
100985
101006
101025
101045
101062
101080
101097
101114
101131
101147
101163
101178
101193
101207
101220
101233
101245
101258
101269
101280
101291
101301
101311
101320
101330
101338
101347
101355
101363
101370
101377
101384
101390
101397
101403
101409
101414
101420
101425
101430
101435
101440
101444
101449
101453
101457
101461
101465
101469
101472
101476
101479
101482
101485
101487
101490
101492
101494
101496
101498
101499
101501
101502
101503
101504
101504
101505
101505
101505
101505
101505
101504
101504
101503
101502
101501
101499
101498
101496
101494
101491
101489
101486
101483
101480
101477
101474
101470
101466
101462
101458
101453
101449
101444
101439
101434
101429
101423
101418
101412
101406
101400
101394
101388
101382
101376
101369
101363
101356
101349
101342
101335
101328
94656.3
94654.3
94652.9
94649.4
94645.2
94638.2
94632.9
94622.7
94616.7
94604.3
94597.3
94584.6
94576.3
94563.9
94554.4
94542.2
94531.6
94519.6
94508.9
94497.8
94488
94478.3
94470.2
94462.9
94457.4
94454.5
94454.7
94457.7
94463.9
94473.6
94487.1
94504.4
94525.6
94551.2
94580.5
94614.4
94654.4
94702.6
94758.3
94814.6
94871.1
94933.4
94995.9
95060.9
95124.6
95193
95260.9
95332.1
95403
95473.4
95541.6
95610.8
95675.3
95740.1
95800.6
95858.9
95912.8
95962.9
96011
96058.8
96103.2
96141.9
96175.3
96205.8
96233.6
96257.6
96278.9
96297.1
96312.1
96323.9
96333
96338.9
96340.8
96339.3
96334.7
96326.6
96315.2
96300.6
96283.1
96262.5
96239.4
96214
96185.1
96153.8
96121.2
96085.7
96047.4
96008.5
95966.1
95923.8
95877.6
95832.4
95782.5
95734.9
95682
95632.3
95577.3
95526
95470.3
95417.6
95362.1
95309.8
95253.9
95199.3
95147.9
95089.5
95041.1
94985
94938.8
94889.2
94842.7
94796.8
94753.7
94712.2
94673.3
94636.6
94602.9
94571.9
94543.1
94517.4
94493.3
94473.6
94455.1
94440.6
94427.9
94419.2
94414.3
94412.9
94413.8
94417.3
94424
94433.9
94446.8
94462.7
94482.4
94505.6
94531.3
94559.5
94589.5
94623.8
94658
94696.6
94734.1
94774.8
94817
94861.2
94906.8
94954.4
95002.2
95052.1
95101.9
95152.1
95205.9
95255.2
95312.2
95360.6
95414.4
95465.3
95518.7
95570.3
95623.2
95674.3
95726.8
95776.9
95828.4
95877
95926.3
95973
96020.9
96065.5
96111
96153.3
96196.4
96235.6
96275.7
96312.3
96348.5
96383.2
96415.2
96447.1
96474.9
96502
96525.2
96546.5
96564.2
96579.4
96591.9
96602.2
96610.6
96616.7
96620
96621.7
96620.3
96616.8
96608.3
96598.6
96583.7
96567.8
96546.4
96525
96497.7
96470.2
96438.3
96405.2
96366.9
96329
96286.1
96243.5
96195.7
96148.3
96096.1
96044.4
95987.9
95932.3
95872.6
95813.6
95749.6
95687.8
95621.6
95556.9
95488.8
95422.5
95352.9
95286.3
95216.2
95150.7
95082.4
95018
94952.3
94889.4
94828.6
94767.6
94712.7
94657
94607.2
94558.5
94513.9
94472
94433.3
94398.1
94365.8
94337.4
94312.4
94291.2
94273.4
94258.5
94246.5
94237
94229.9
94225.1
94222.9
94222.9
94224.8
94230
94237.5
94247.7
94260.8
94274.8
94291.7
94308.4
94328.3
94349.5
94373.2
94398.1
94425.3
94453.4
94483.7
94514.8
94548
94582.1
94618.4
94655.4
94694.7
94734.5
94776.6
94819.2
94863.9
94909.4
94956.7
95004.5
95054.3
95105
95157.4
95210.1
95265
95321.9
95377.4
95440.1
95497.2
95559.6
95620.1
95683.3
95747.3
95813.4
95879.1
95946.9
96014.6
96084.1
96153.1
96224.3
96295.4
96365.4
96442.5
96513.2
96590.3
96661.3
96737
96811
96887.6
96961.9
97038.7
97113.3
97190.9
97265.8
97343.9
97419.1
97497.3
97572.5
97650.9
97726
97804.2
97879
97956.7
98030.7
98107.6
98180.7
98256.7
98328.6
98403.1
98473.2
98545.4
98614.7
98685.2
98753.4
98822.1
98888.6
98955.7
99020.1
99085.3
99148
99211
99271.8
99332.8
99391.4
99450.2
99506.4
99562.7
99616.8
99671.1
99722.7
99774.7
99824
99873.6
99920.3
99966.5
100012
100054
100101
100141
100184
100223
100260
100298
100335
100370
100405
100438
100471
100503
100534
100566
100594
100624
100651
100679
100705
100732
100757
100782
100806
100831
100853
100877
100898
100921
100941
100963
100984
101004
101025
101043
101062
101079
101097
101113
101131
101146
101163
101177
101192
101206
101220
101232
101245
101257
101269
101280
101291
101301
101311
101320
101329
101338
101346
101355
101362
101370
101377
101384
101390
101396
101402
101408
101414
101419
101424
101430
101434
101439
101444
101448
101453
101457
101461
101465
101468
101472
101475
101478
101481
101484
101487
101489
101491
101493
101495
101497
101498
101500
101501
101502
101503
101503
101504
101504
101504
101504
101504
101503
101503
101502
101501
101500
101498
101497
101495
101493
101490
101488
101485
101482
101479
101476
101473
101469
101465
101461
101457
101452
101448
101443
101438
101433
101428
101423
101417
101411
101406
101400
101394
101388
101381
101375
101369
101362
101356
101349
101342
101335
101328
94657.9
94655.4
94654.8
94652.5
94648.8
94644.8
94636.1
94630.7
94615.8
94610.8
94596.5
94588.9
94575.7
94566.6
94553.9
94544.3
94531.6
94521.1
94509.1
94498.9
94488.1
94478.8
94470
94463.2
94457.3
94453.9
94452.8
94454.5
94458.8
94466.8
94478.7
94495.1
94516.3
94542.7
94573.8
94610.7
94651.1
94692.3
94738.8
94791.6
94847.9
94906
94972.7
95039
95110.9
95182.9
95258.9
95328.2
95404.2
95471
95545.9
95609.4
95679.2
95738.4
95801.1
95856.9
95913
95964.9
96016.2
96061.1
96103.1
96141.7
96177.4
96208.5
96236
96259.6
96280.2
96297.6
96311.9
96323.3
96331.9
96337.6
96339.4
96337.8
96333
96324.9
96313.4
96298.8
96281.1
96260.7
96237.6
96211.9
96183.5
96152.6
96119.1
96083.9
96046.6
96006.4
95965.8
95922
95877.8
95830
95784
95732.2
95684.2
95629.6
95580
95524.3
95472.7
95417
95364.2
95308.3
95255.9
95201.9
95145.5
95096.2
95037.4
94990.8
94938.2
94890.5
94843.6
94798.7
94754.5
94714.2
94674.7
94638.5
94604.1
94572.8
94544.8
94518.4
94496.7
94474.9
94458
94442.1
94430.3
94421.1
94416.5
94415.1
94415.9
94419.3
94426.2
94435.6
94448.9
94464.7
94484.7
94506.6
94532
94559.9
94591.8
94623.4
94661
94696.3
94735.8
94775.6
94818.1
94862.6
94907.4
94954.1
95003.2
95051.1
95102.3
95153.9
95202.5
95259.6
95307.9
95363.8
95412.7
95465.7
95517.1
95571.4
95621.5
95675.4
95725
95778.2
95826.3
95877.8
95924.8
95973.9
96018.9
96066.5
96109.1
96154.3
96194.4
96236.8
96273.9
96313.6
96347.6
96383.2
96415.3
96445.3
96474.5
96500.1
96524.4
96545
96563.4
96578.5
96591.2
96601.7
96609.9
96615.6
96618.9
96619.6
96619.4
96614.6
96607.7
96596
96583.3
96565.3
96546.9
96522.5
96498.6
96468.2
96439
96403
96368.1
96327
96287.5
96241.4
96197.4
96146.4
96098.1
96042.2
95989.4
95930.7
95874.1
95811.6
95751.3
95686
95623.3
95555.1
95490.4
95420.9
95354.8
95284.2
95218.3
95148.8
95083.8
95016.5
94953.7
94888.6
94828.7
94769.8
94712
94659.6
94607.3
94560.1
94514.8
94473.1
94434.7
94399
94367.3
94338.5
94313.7
94292.4
94274.5
94259.6
94247.5
94238
94230.8
94226
94223.9
94223.6
94225.7
94230.3
94237.9
94248.6
94259.9
94276.1
94290.4
94308.6
94327.6
94349.6
94372.8
94398.4
94424.5
94453.5
94482.8
94514.7
94547
94582
94617.2
94655.5
94693.6
94734.6
94775.2
94819.3
94862.7
94909.4
94955.5
95004.6
95053.2
95105.3
95156.4
95210.8
95264.8
95319.6
95380.5
95435.8
95500.7
95557.9
95620.2
95682.8
95747.8
95812.5
95879.7
95945.7
96015.1
96082.8
96154.1
96222.6
96293.8
96368.4
96437.2
96517.6
96586.6
96662.4
96734.4
96812.1
96884.6
96962.9
97036.1
97114.2
97187.8
97266.8
97340.6
97419.9
97494
97573.2
97647
97726.8
97800
97879.4
97952.5
98030.9
98102.7
98181.3
98251.8
98328.7
98399.2
98472.2
98541.6
98613.6
98681.6
98752.3
98818.8
98887.2
98952.2
99018.8
99081.6
99146.5
99207.5
99270.3
99329.5
99390
99446.7
99504.7
99559.2
99614.9
99666.9
99721.1
99771.1
99822.3
99869.8
99918.8
99963.3
100007
100054
100095
100142
100180
100220
100257
100296
100332
100369
100402
100437
100469
100502
100532
100562
100593
100621
100651
100677
100704
100730
100756
100780
100806
100829
100853
100875
100899
100919
100942
100962
100983
101004
101022
101044
101060
101079
101096
101114
101129
101147
101161
101178
101191
101206
101219
101233
101244
101257
101268
101280
101290
101301
101310
101320
101329
101338
101346
101354
101362
101369
101376
101383
101390
101396
101402
101408
101413
101419
101424
101429
101434
101439
101443
101448
101452
101456
101460
101464
101467
101471
101474
101477
101480
101483
101485
101488
101490
101492
101494
101496
101497
101498
101499
101501
101501
101502
101502
101502
101503
101503
101502
101502
101501
101500
101499
101498
101497
101495
101493
101491
101489
101486
101484
101481
101478
101474
101471
101467
101464
101460
101455
101451
101446
101442
101437
101432
101427
101421
101416
101411
101405
101399
101393
101387
101381
101375
101368
101362
101355
101349
101342
101335
101328
94660.4
94658.4
94657.5
94654.8
94650.2
94645.5
94639.1
94630.4
94625.5
94607.9
94603.9
94588.2
94580.5
94566.9
94557.4
94544.9
94534.7
94522.8
94512
94500.7
94490.5
94480.2
94471.4
94464
94458.2
94454.4
94453.6
94455
94459.6
94467.2
94478.7
94494.4
94514.1
94538
94566.8
94600.6
94640.6
94686.7
94737.3
94788.5
94851.5
94905.5
94972.3
95037.9
95106.5
95178.7
95250.7
95323.4
95391.9
95466.9
95532.4
95607.4
95667.7
95736.9
95793
95854.8
95907.8
95963.2
96011.5
96058.4
96097.4
96136.7
96170.4
96203.7
96231.3
96256.3
96276.8
96294.3
96308.5
96319.7
96328.4
96333.8
96335.5
96333.8
96329.1
96321
96309.6
96295
96277.6
96257.2
96234.3
96208.6
96180.7
96150.1
96117.3
96082.2
96044.1
96005.7
95963.5
95921.4
95876.3
95831.4
95781.7
95735
95681.8
95633.6
95578.3
95529.6
95472.5
95420.7
95364.7
95313.1
95256.6
95202
95152
95093.6
95046.3
94989.6
94944.1
94894.7
94848.6
94802.5
94759.9
94719.2
94680
94643.2
94609.5
94577.6
94549.5
94523.4
94500.7
94480.3
94461.6
94447.4
94434.4
94425.9
94420.9
94419.5
94420.2
94423.3
94430
94440.2
94452.5
94469.1
94488.1
94510.7
94535.3
94563.7
94593.2
94628.5
94661.8
94701.1
94737.3
94777.6
94820.8
94865
94909.7
94957
95004.1
95054
95102.4
95152.8
95207.3
95255.2
95313.9
95361.3
95414.2
95464.9
95519.5
95569.7
95623.4
95673.3
95727.1
95775.8
95828.1
95875.7
95925.9
95971.5
96020.2
96063.9
96110.6
96151.5
96195.5
96234.1
96275.4
96311
96349
96381.3
96415
96445.1
96472.5
96498.9
96522.4
96543.9
96562.1
96577.6
96590.3
96601.1
96608.9
96614.5
96618
96619.3
96618.1
96614.2
96606.4
96596.6
96582
96566.5
96545.1
96524.2
96496.5
96470.2
96436.8
96405.3
96366.4
96330.4
96285.7
96244.9
96196
96150.6
96096.8
96047
95989.5
95935.5
95874.8
95817
95752.1
95691.1
95623.3
95560.5
95490.4
95425.4
95355.1
95289.4
95218.5
95153.7
95084.6
95020.5
94954.2
94893.2
94829.8
94770.9
94715.7
94660.1
94610.5
94561.5
94517
94475.1
94436.3
94401.2
94368.8
94340.4
94315.2
94293.9
94275.8
94261
94248.7
94239.4
94232.1
94227.4
94224.9
94224.8
94226.5
94231.5
94239.4
94248.6
94263.1
94275.6
94293.6
94309.4
94329.2
94350.5
94374.9
94399
94426.7
94454.1
94484.9
94515.3
94549.1
94582.8
94619.7
94656.2
94696
94735.3
94777.6
94820.4
94865.2
94910.1
94958.4
95006.2
95055.9
95106.7
95159.8
95211.9
95267.2
95324.4
95377.9
95443.1
95498.4
95562.6
95621.5
95685.7
95749.5
95815.1
95880.7
95948.5
96016
96085.7
96153.6
96225.8
96296.7
96365.8
96444
96512.1
96591.7
96660.2
96737.2
96809.9
96888.4
96960.4
97038.8
97111.7
97190.7
97263.9
97343.5
97416.5
97496.4
97569.4
97649.4
97722.6
97802.5
97874.7
97954.1
98026
98104.5
98175.6
98253.4
98322.8
98397.8
98467.6
98540.5
98609.2
98680.2
98747.7
98817.2
98882
98950.2
99013.7
99079.4
99141.3
99205.6
99265.4
99327.1
99384.8
99444
99499.5
99556.4
99609.2
99664.5
99715.3
99768.6
99816.5
99867.3
99912.8
99960.4
100006
100047
100095
100135
100179
100215
100255
100291
100330
100364
100400
100433
100467
100498
100531
100560
100589
100620
100647
100676
100701
100728
100753
100780
100803
100829
100850
100875
100895
100920
100938
100962
100982
101001
101023
101040
101061
101077
101096
101112
101130
101145
101162
101176
101192
101205
101220
101231
101245
101256
101269
101279
101291
101300
101311
101320
101329
101337
101346
101354
101362
101369
101376
101383
101389
101396
101401
101407
101413
101418
101423
101428
101433
101438
101442
101447
101451
101455
101459
101462
101466
101469
101473
101475
101478
101481
101483
101486
101488
101490
101492
101493
101495
101496
101497
101498
101499
101499
101500
101500
101500
101500
101500
101499
101498
101497
101496
101495
101494
101492
101490
101488
101486
101484
101481
101478
101475
101472
101468
101465
101461
101457
101453
101449
101444
101440
101435
101430
101425
101420
101414
101409
101403
101398
101392
101386
101380
101374
101367
101361
101355
101348
101342
101335
101328
94664.8
94662.2
94663.3
94660.1
94655.1
94650.4
94644.1
94637.8
94625.4
94621.8
94603.4
94599.6
94583.5
94574.4
94560.9
94549.3
94537
94525.1
94513.1
94501.6
94490.7
94480.4
94470.9
94463.3
94456.2
94451.6
94449.1
94449.6
94452.5
94458.7
94468.7
94483
94502
94526.4
94555.6
94591
94629.5
94673.5
94720.2
94776.1
94824.7
94896.9
94953.1
95028.6
95094.3
95168.7
95238.8
95312.7
95387
95456.5
95529.2
95592.7
95666.7
95724.6
95791.9
95845.2
95904.7
95952.8
96004.9
96045.3
96089.4
96124.4
96161.4
96191.6
96220.9
96245.3
96267.7
96285.9
96301.1
96312.8
96321.6
96327.5
96329.4
96328
96323.5
96315.7
96304.5
96290.3
96272.9
96253
96230.2
96205.1
96177.1
96147.1
96114.2
96079.8
96042.7
96002.6
95962.9
95919
95876.3
95828.5
95783
95732.5
95684.7
95630.7
95582.1
95526
95476.3
95419.1
95367.9
95311.6
95259.6
95205.4
95149.9
95100.7
95042.4
94996.3
94943.1
94897
94849.4
94804.7
94761.7
94721.3
94682.2
94645.9
94611.7
94580.5
94551.3
94526
94502.5
94482.3
94465.7
94449.7
94438.3
94428.9
94424.3
94422.7
94423.2
94426.5
94433.5
94443.3
94456.5
94472.2
94491.8
94513.7
94539.2
94566.3
94597.6
94628.8
94667.2
94702.2
94741.3
94782.1
94823.3
94867.1
94911.8
94959
95006.6
95055.7
95105.3
95156.8
95205
95262.4
95310.6
95366.6
95415.5
95467.5
95519.1
95572.6
95623.1
95676.1
95725.9
95778.7
95827.1
95878
95925.2
95974
96019.8
96066.4
96109.6
96153.9
96194.3
96236.4
96274
96313.9
96347.5
96383.4
96414.7
96445
96472.9
96498.5
96522.3
96543.3
96561.9
96577.5
96590.6
96600.9
96609
96614.6
96617.7
96618.5
96617.5
96613.1
96606.1
96595.3
96582.7
96564.4
96546.5
96521.8
96498.5
96467.6
96439.3
96402.6
96369.2
96327.4
96288.8
96242.1
96199.2
96147.8
96099.9
96044.5
95992.5
95932.9
95877.6
95813.8
95755.1
95687.7
95626.2
95556.6
95493.1
95421.6
95356.9
95285.5
95220.3
95150.3
95086
95017.8
94955.5
94889.7
94831
94770.8
94713.9
94661.4
94609.2
94562.2
94516.8
94475.3
94436.8
94401.2
94369.4
94340.4
94315.5
94293.7
94275.8
94260.8
94249.1
94239.5
94232.3
94227.2
94225.1
94224.6
94226.8
94231.4
94238.9
94250.6
94261.1
94278.7
94292.1
94310.2
94329.1
94352.1
94374.5
94400.5
94426.6
94455.5
94484.7
94516.9
94549.2
94584.7
94619.8
94658.6
94696.9
94737.8
94779
94822.7
94866.4
94913.3
94960.1
95009.2
95058.1
95109.8
95161.4
95215.9
95269.6
95324
95384.9
95439.2
95506
95562.6
95625.3
95686.9
95752.2
95816.6
95883.5
95949.9
96018.7
96086.6
96157.3
96225.3
96296.5
96370.5
96438.4
96519.9
96587.8
96664.3
96735.8
96813.8
96885.3
96963.8
97036.6
97114.6
97187.7
97266.8
97339.9
97419.7
97492.7
97572
97645
97724.1
97797
97876.2
97948.1
98026.8
98097.9
98176.3
98247.1
98323
98392.6
98466.2
98535.1
98607.4
98674.9
98745.7
98811.5
98879.8
98944.1
99011.2
99073.5
99138.9
99199.5
99263
99320.9
99382
99437.6
99496.1
99549.9
99606.7
99658.3
99712.4
99763.1
99813.6
99862
99910.1
99955.8
99999.2
100046
100087
100134
100172
100213
100250
100289
100324
100362
100394
100431
100462
100497
100527
100559
100588
100617
100646
100672
100700
100725
100753
100776
100803
100825
100850
100872
100896
100916
100940
100958
100981
101001
101020
101042
101058
101079
101094
101114
101128
101146
101160
101177
101190
101206
101218
101233
101244
101257
101268
101280
101290
101301
101310
101320
101329
101337
101346
101354
101361
101369
101376
101382
101389
101395
101401
101406
101412
101417
101422
101427
101432
101437
101441
101445
101449
101453
101457
101461
101464
101467
101470
101473
101476
101479
101481
101483
101485
101487
101489
101491
101492
101493
101494
101495
101496
101496
101496
101497
101497
101496
101496
101495
101495
101494
101493
101492
101490
101488
101487
101485
101482
101480
101477
101474
101472
101468
101465
101462
101458
101454
101450
101446
101441
101437
101432
101427
101422
101417
101412
101407
101401
101396
101390
101384
101378
101373
101366
101360
101354
101348
101341
101335
101328
94670.4
94668.1
94667.5
94665.2
94659.7
94654.6
94647.1
94639.8
94634.1
94617
94614.7
94595.8
94589.4
94575.2
94564.4
94551.6
94539.3
94526.9
94514.4
94502.4
94491.2
94479.7
94469.7
94460.2
94453
94446.1
94442.8
94442.9
94445.7
94452.1
94462.1
94475.9
94494.3
94517
94545.7
94578.4
94618.4
94660.1
94711.8
94756.4
94826.7
94876.6
94950.1
95014
95085.3
95155.9
95229.3
95301.8
95377
95445.7
95516.6
95588.6
95650.3
95721.9
95777.9
95841
95892.6
95947.5
95991.9
96039.8
96076.7
96116.6
96148.9
96182.6
96209.2
96235.2
96256.1
96275
96290.1
96302.3
96311.6
96317.9
96320.3
96319.1
96315.1
96307.7
96297.1
96283.3
96266.6
96246.9
96224.9
96199.9
96172.9
96142.7
96111
96076
96039.8
96000.9
95959.8
95918.4
95873.4
95829.6
95780.1
95733.8
95682.3
95633.7
95579.7
95530.6
95473.5
95424.3
95366.8
95315.5
95260.1
95206.4
95155
95098.3
95050.1
94994.9
94949.2
94899.7
94853.9
94809.1
94766.5
94725.7
94687
94650.8
94615.7
94585.2
94555.6
94530.5
94506.4
94487.5
94468.9
94455
94442.1
94433.7
94428.6
94427.1
94427.7
94431.1
94437.8
94448.2
94460.8
94477.1
94495.8
94518.6
94543.2
94570.9
94600.6
94634.7
94668.4
94707.7
94746.8
94786.3
94827.7
94870.6
94917.4
94962.3
95011.7
95059.7
95109.4
95158.2
95212.2
95259.2
95318.1
95365.9
95418.4
95469.3
95521.9
95574.1
95626
95677.3
95728.9
95779.3
95829.7
95878.6
95928
95974.9
96022.1
96066.7
96112.3
96154.6
96196.6
96237.1
96276.8
96313.1
96350.2
96382.6
96415.4
96445.3
96472.8
96498.8
96522.2
96543.6
96562.1
96577.9
96591.1
96601.4
96609.2
96615.1
96618.2
96619.3
96617.6
96613.9
96605.8
96596.1
96581
96566
96544.3
96523.9
96496
96470.1
96436.5
96405.3
96366.6
96330.4
96286.5
96245.4
96196.9
96151.3
96098
96047.9
95990.6
95936.6
95875.1
95817.4
95752.2
95691.3
95623.4
95560
95489.6
95424.6
95353.7
95287.8
95217.6
95152.4
95083.1
95019.6
94952.3
94891.5
94828.8
94770
94714.5
94659.6
94609.7
94561.1
94516.6
94474.9
94436.3
94401.1
94368.9
94340.5
94315.2
94293.5
94275.1
94260.7
94248.8
94239.5
94232
94227.4
94224.6
94224.8
94226.8
94231.6
94240.2
94249.4
94264.7
94276.7
94294.6
94311.1
94330.8
94352.3
94377
94401.6
94429
94456.9
94487.3
94518.4
94552.1
94586.4
94623.1
94660.2
94700
94739.7
94781.7
94824.7
94869.4
94915.5
94962.7
95011.3
95061.1
95112.2
95164.7
95218.1
95272.7
95329.4
95383.5
95448
95504.9
95568.8
95627.9
95690
95754.4
95819.5
95885.7
95952.5
96020.9
96089
96158.4
96228.5
96300
96368.9
96445.9
96515.2
96594.5
96663.2
96738.6
96811.5
96888.8
96962.3
97039
97113.1
97190.4
97264.6
97342.2
97416.2
97494.6
97568.5
97646.5
97720.9
97798.4
97872.1
97949
98021.9
98098.1
98170.3
98245.6
98316.9
98390.6
98460.8
98532.7
98601.6
98671.9
98740.2
98808.2
98873.5
98941
99004.6
99069.8
99131.9
99195.3
99257.5
99317.3
99376.9
99434.2
99488.6
99545.7
99599.1
99654.3
99704.6
99755.8
99805.2
99855
99903.5
99948.2
99995.3
100038
100086
100126
100170
100207
100247
100283
100321
100356
100392
100424
100460
100491
100525
100555
100586
100614
100643
100671
100696
100725
100748
100776
100799
100825
100847
100872
100893
100918
100936
100961
100979
100999
101020
101038
101060
101076
101096
101111
101130
101144
101162
101176
101192
101204
101220
101231
101245
101256
101269
101279
101291
101300
101311
101319
101329
101337
101345
101353
101361
101368
101375
101382
101388
101394
101400
101406
101411
101416
101421
101426
101431
101435
101439
101444
101448
101451
101455
101458
101462
101465
101468
101471
101473
101476
101478
101480
101482
101484
101486
101487
101488
101489
101490
101491
101492
101492
101492
101492
101492
101492
101492
101491
101490
101489
101488
101487
101485
101484
101482
101480
101478
101476
101473
101470
101467
101464
101461
101457
101454
101450
101446
101442
101438
101433
101429
101424
101419
101414
101409
101404
101399
101394
101388
101382
101377
101371
101365
101359
101353
101347
101341
101335
101328
94678.1
94675.1
94676.5
94672.2
94665.7
94660.6
94654.2
94644.4
94634.8
94628.7
94610.6
94607
94589.7
94579.7
94566.2
94553.6
94540.5
94527.5
94514.3
94501.8
94489.4
94478.3
94466.4
94458.3
94450
94442.9
94438.4
94436.9
94438.9
94443.1
94451.3
94464.1
94481.4
94504.8
94532.2
94566.2
94601.7
94647.6
94688.2
94752.4
94794.6
94870.9
94928.8
95003.9
95070.9
95144.8
95215.8
95293.4
95365.3
95435.7
95505
95575.3
95643.1
95703.7
95770.6
95825.1
95885.2
95930.9
95984.1
96023
96069.2
96101.8
96139.8
96168.5
96197.7
96221.3
96243.7
96261.9
96277.6
96289.8
96299.3
96306
96308.8
96308.1
96304.5
96297.8
96287.7
96274.6
96258.4
96239.6
96217.9
96193.9
96166.9
96138
96105.9
96072.4
96035.7
95997.9
95957.6
95915
95872.6
95825.9
95781.2
95730.6
95683.7
95631.2
95582.5
95528.1
95478.5
95421.6
95370.6
95314.5
95261.8
95209.1
95154.4
95104.7
95049.2
95001.9
94950.2
94905
94858.1
94812.7
94770.1
94728.9
94690.2
94654
94620.8
94588.7
94560.8
94534.4
94512.1
94491.2
94474.2
94458.7
94447.1
94437.9
94433.3
94431.7
94432.4
94435.9
94443
94452.8
94466.1
94481.9
94501.3
94523.1
94548
94575.7
94606.1
94637.8
94675.4
94713.4
94752
94791.4
94832.7
94876.7
94921.3
94968.1
95015.2
95064.1
95112.2
95163.1
95211
95267.8
95316.1
95371.6
95420.8
95472.1
95525.7
95578.1
95629.1
95680.5
95732.2
95782.5
95832.3
95881.8
95929.4
95978
96023.6
96070.1
96113.4
96157.5
96199.2
96239.6
96277.8
96315.9
96350.2
96384.4
96416.6
96445.5
96474.2
96499.1
96523
96543.9
96562.6
96578.4
96591.4
96601.9
96609.7
96615.2
96618.7
96619.2
96617.9
96613.2
96606.1
96594.5
96581.9
96563.6
96545.7
96521.1
96497.5
96467.4
96438.3
96403.1
96368.7
96328.3
96288.9
96243.6
96199.6
96149.3
96100.7
96046
95993.4
95934.4
95877.7
95814.8
95754.4
95688.6
95625.4
95556.7
95491.3
95421
95354.5
95284.6
95218.3
95148.8
95083.2
95016.1
94952.5
94888.4
94828
94769.9
94711.9
94659.7
94607.8
94560.4
94515.5
94473.7
94435.6
94400
94368.3
94339.7
94314.4
94292.8
94274.8
94259.9
94248.4
94238.9
94232.2
94227
94225
94224.5
94226.8
94232.5
94239.7
94251.8
94262.8
94279.8
94294
94312.3
94331.8
94354.2
94377.7
94403
94430.2
94458.4
94488.9
94520.5
94553.9
94588.5
94625.2
94662.7
94702.2
94742.7
94785.8
94828.5
94874.5
94919.2
94967.5
95014.8
95066
95115.5
95168.9
95221.7
95276.9
95331.5
95391.5
95448
95512.7
95570.3
95632.1
95695.3
95757.7
95824.9
95890.2
95957.3
96024.7
96093.7
96161.9
96232.3
96301.5
96374.7
96443.6
96522.1
96591.8
96668.2
96739.3
96814
96888.1
96964.5
97038.6
97114.8
97188.7
97266
97341
97417.6
97492.8
97569.5
97643.8
97719.6
97794.2
97870
97944.6
98020.4
98093.7
98168.3
98241.3
98314.2
98386.3
98458.3
98528.2
98598.2
98666.7
98734.5
98802.9
98870.3
98936.4
99001.5
99064.3
99126.7
99188.5
99247.7
99310.3
99367
99428.1
99485.3
99540.6
99595.1
99648.2
99700.3
99751.1
99801.6
99849.1
99896.1
99943.7
99988
100035
100078
100123
100163
100202
100241
100278
100315
100350
100385
100421
100453
100489
100519
100553
100581
100612
100640
100667
100696
100720
100750
100772
100799
100822
100846
100869
100893
100914
100938
100957
100979
100998
101018
101039
101057
101078
101093
101113
101128
101146
101160
101177
101191
101206
101218
101233
101244
101258
101268
101280
101290
101301
101310
101320
101328
101337
101345
101353
101361
101368
101375
101381
101387
101393
101399
101405
101410
101415
101420
101425
101429
101433
101438
101442
101445
101449
101453
101456
101459
101462
101465
101468
101470
101472
101474
101477
101478
101480
101481
101483
101484
101485
101486
101486
101487
101487
101487
101487
101487
101487
101486
101486
101485
101484
101483
101481
101480
101478
101477
101475
101473
101470
101468
101465
101462
101459
101456
101453
101449
101445
101441
101438
101433
101429
101425
101420
101416
101411
101406
101401
101396
101391
101386
101380
101375
101369
101364
101358
101352
101346
101340
101334
101328
94686.5
94685.2
94680.8
94682.2
94673.6
94667.2
94659.4
94652.1
94640.9
94629.1
94622.4
94605.4
94595.7
94581.4
94568.3
94554.7
94541.2
94527.2
94514.1
94500.3
94489.4
94476.4
94465.8
94455.7
94446.8
94438.2
94432.4
94430.6
94431.1
94435.5
94443.4
94455.2
94472.1
94493
94520.2
94550.7
94591.3
94627.7
94684.9
94725.1
94798.6
94850
94922.2
94986.6
95061.6
95134.3
95207.7
95280.1
95353.2
95424.5
95497.2
95563.6
95629
95696.6
95753.8
95816.6
95867.8
95923
95967.2
96016.7
96051.4
96094.5
96124.4
96158.3
96184
96210
96230.6
96249.6
96264.8
96277.1
96286.6
96293.4
96296.4
96295.8
96292.6
96286.2
96276.8
96264.2
96248.8
96230.5
96209.7
96186.1
96160.3
96131.5
96100.9
96067
96031.9
95993.5
95954.4
95912.9
95868.8
95825.4
95777.1
95732.1
95680.6
95633.2
95580.7
95531.4
95476.6
95425.7
95369.8
95319
95265.3
95210.8
95159.7
95104.8
95055.6
95003
94956.5
94907.4
94862.6
94817.5
94774.2
94734.4
94694.7
94659.9
94625.4
94594.9
94565.8
94540.4
94516.9
94496.9
94479.1
94464.4
94451.9
94443.5
94438.7
94437.3
94438.1
94441.6
94448.6
94458.9
94471.7
94487.9
94506.7
94529
94553.7
94581.1
94611
94644.8
94679.9
94719.4
94757.1
94796.6
94838.7
94881.3
94927
94972.4
95020.5
95068
95117.3
95166.1
95219.1
95266.9
95324.5
95372.8
95423.9
95477.1
95529.1
95580.3
95632.4
95684
95734
95784.6
95833.9
95883.6
95931.4
95979.6
96025.6
96071.2
96115.3
96158.5
96200.6
96241
96280.5
96317.2
96352.4
96387
96417.7
96448
96474.7
96500.7
96523.8
96545
96563.4
96579.1
96592
96602.4
96610.3
96615.8
96618.8
96619.7
96617.9
96613.5
96605.2
96595.1
96580.3
96564.7
96543.7
96522.5
96495.8
96469.1
96437
96405
96367.6
96330.6
96288.1
96246
96198.7
96151.6
96100.1
96048.4
95992
95936.6
95875.9
95816.7
95752.5
95690.3
95623
95558.4
95488.1
95422.2
95351.7
95285
95215.7
95149
95080.6
95015.7
94950.6
94887.4
94827.2
94767.3
94712
94657.3
94607
94558.8
94513.9
94472.6
94433.9
94399
94367.1
94338.6
94313.5
94291.6
94273.8
94259.3
94247.7
94238.7
94231.5
94227.1
94224.5
94224.8
94227.4
94232.1
94241.4
94250.5
94265.4
94278.8
94296
94313.1
94332.8
94355.3
94379.3
94405.4
94431.8
94461.5
94491.2
94524
94556.6
94592.4
94627.9
94666.9
94705.3
94747.1
94788.7
94833.3
94877.2
94924.3
94970.6
95020.3
95069.2
95121.7
95172.5
95226.9
95280.8
95338
95393.7
95456
95514.5
95577.4
95637.3
95698.5
95764.1
95826.8
95893
95960.2
96026.7
96095.7
96166.2
96234.5
96306.2
96374.9
96450.2
96521.4
96597.3
96667.5
96742.7
96815.5
96890.3
96964.4
97040
97115.1
97191.8
97265
97341.4
97415.9
97492.1
97567.3
97643.4
97718
97793.4
97866.7
97942.7
98015.8
98090.8
98164.8
98236.4
98310
98380.1
98452
98522.1
98592.9
98660.6
98729.1