/*--------------------------------*- C++ -*----------------------------------*\
| =========                 |                                                 |
| \\      /  F ield         | OpenFOAM: The Open Source CFD Toolbox           |
|  \\    /   O peration     | Version:  v1812                                 |
|   \\  /    A nd           | Web:      www.OpenFOAM.com                      |
|    \\/     M anipulation  |                                                 |
\*---------------------------------------------------------------------------*/
FoamFile
{
    version     2.0;
    format      ascii;
    class       surfaceScalarField;
    location    "0.2";
    object      phi;
}
// * * * * * * * * * * * * * * * * * * * * * * * * * * * * * * * * * * * * * //

dimensions      [1 0 -1 0 0 0 0];
oriented        oriented;


internalField   nonuniform List<scalar> 
40240
(
-1.89224e-05
-6.33379e-05
-5.20345e-05
-4.72211e-05
-0.000100929
-3.08638e-05
-0.000183974
1.68802e-06
-0.00031198
4.55011e-05
-0.000387692
-5.51719e-06
-0.000552815
8.53915e-05
-0.000692077
6.12474e-05
-0.000962383
0.000194788
-0.00123559
0.000202335
-0.00160691
0.000305408
-0.00199453
0.000326512
-0.00242845
0.000379057
-0.0029029
0.000425311
-0.003415
0.000470155
-0.00401541
0.000563007
-0.00468108
0.000636063
-0.00547638
0.000772059
-0.00637021
0.00087876
-0.00742084
0.00104219
-0.00860323
0.00118158
-0.00996039
0.00136309
-0.0114683
0.00152195
-0.0131561
0.00170923
-0.0150145
0.00189111
-0.0170556
0.00208374
-0.0192563
0.00225268
-0.0216016
0.00240731
-0.0240564
0.00252561
-0.0265907
0.00261508
-0.0291593
0.00265917
-0.0316881
0.00262865
-0.0340733
0.00249346
-0.0361825
0.00222544
-0.0378858
0.00182623
-0.0390635
0.00130592
-0.0396762
0.000747161
-0.0397954
0.000263456
-0.0395303
-0.00012407
-0.0387815
-0.00060096
-0.0378367
-0.000795454
-0.0366838
-0.00100147
-0.0353822
-0.00114845
-0.033918
-0.00130398
-0.0323334
-0.00141981
-0.0305
-0.00166568
-0.0285132
-0.00181994
-0.0262979
-0.00204657
-0.0239938
-0.00213724
-0.0215901
-0.0022402
-0.0191476
-0.00228413
-0.0166571
-0.00233655
-0.014173
-0.0023338
-0.0116993
-0.00232766
-0.00927036
-0.00228808
-0.00691934
-0.00221561
-0.00467178
-0.00211693
-0.0026089
-0.00193884
-0.000850844
-0.00163953
0.000574747
-0.00131587
0.00174192
-0.00106652
0.00277083
-0.000935105
0.00378921
-0.0009321
0.00480315
-0.000934294
0.00580307
-0.000926915
0.00676288
-0.000893941
0.00767838
-0.000857626
0.008569
-0.000842064
0.00941946
-0.000812043
0.0102377
-0.000788368
0.0110105
-0.000751779
0.0117196
-0.000703754
0.0123567
-0.000644691
0.0129171
-0.000577432
0.0133963
-0.000509934
0.0137945
-0.000442617
0.0141157
-0.000378906
0.0143657
-0.000319477
0.014548
-0.000262583
0.0146676
-0.000209563
0.0147271
-0.000159284
0.0147359
-0.000124004
0.0146897
-7.73502e-05
0.0145968
-4.19461e-05
0.0144504
5.04697e-07
0.0142827
9.16935e-06
0.0140679
4.005e-05
0.0138413
3.58607e-05
0.0136007
3.9526e-05
0.0133437
4.25787e-05
0.0130931
1.96987e-05
0.0128129
3.23207e-05
0.0125545
-7.05821e-06
0.0122654
8.51519e-06
0.0120033
-3.46949e-05
0.0117121
-1.98683e-05
0.0114492
-6.4197e-05
0.0111591
-5.19224e-05
0.0108877
-8.45752e-05
0.0106007
-8.16322e-05
0.0103281
-0.00010742
0.0100344
-9.75132e-05
0.00977744
-0.000143573
0.00945469
-8.87898e-05
0.00920926
-0.000171985
0.00889934
-0.000115099
0.00864626
-0.000174562
0.0083323
-0.000117067
0.00805803
-0.000159802
0.0077699
-0.000145583
0.00749012
-0.000154925
0.00722155
-0.000160011
0.00695682
-0.000153445
0.00669976
-0.000156116
0.00644275
-0.000145579
0.00619929
-0.000146521
0.0059611
-0.000138641
0.00573835
-0.000142667
0.00551322
-0.000133179
0.00530776
-0.000133974
0.00510193
-0.000117476
0.00491422
-0.000115628
0.00472868
-0.000101683
0.00455775
-9.51551e-05
0.00439481
-8.1151e-05
0.00424986
-6.90851e-05
0.00412196
-5.54953e-05
0.00400272
-4.32706e-05
0.00389015
-2.97134e-05
0.00378896
-1.29418e-05
0.00370044
2.79979e-06
0.00362376
2.22927e-05
0.00356587
3.57444e-05
0.00352021
5.73494e-05
0.00349549
7.06212e-05
0.0034792
9.24931e-05
0.00348564
0.000101744
0.00350274
0.00012175
0.00352058
0.000149557
0.00356798
0.000151118
0.00361243
0.00018569
0.00368801
0.000183343
0.00376177
0.000214136
0.00385327
0.000222237
0.00394792
0.00024696
0.00406037
0.00025393
0.00418787
0.000265858
0.00432774
0.000274677
0.00447349
0.000290674
0.004633
0.00029809
0.00481488
0.000295814
0.00496867
0.000340486
0.00519244
0.000290081
0.00534923
0.000372658
0.00557343
0.000319877
0.0057711
0.000361289
0.0060012
0.000338903
0.00622758
0.000354105
0.00646538
0.000348421
0.00671054
0.000345978
0.00695381
0.000354947
0.00721366
0.000342081
0.00746462
0.000353042
0.00772955
0.000335241
0.00798399
0.000344403
0.00825534
0.000322202
0.00850716
0.000337839
0.00878032
0.000309946
0.00903324
0.000322971
0.00930404
0.000292581
0.00955053
0.000305839
0.0098129
0.000274822
0.0100495
0.000287361
0.0102996
0.00025682
0.0105282
0.000263453
0.0107706
0.000230942
0.0109914
0.000235073
0.0112244
0.00020275
0.0114305
0.000208828
0.0116501
0.000174436
0.0118415
0.000175928
0.0120354
0.000144492
0.0122046
0.000136397
0.0123666
0.000110664
0.0125073
9.83104e-05
0.0126405
7.33072e-05
0.0127556
5.99189e-05
0.01286
3.98414e-05
0.0129491
2.72312e-05
0.0130307
5.54126e-06
0.0130926
-4.59035e-06
0.013153
-3.19396e-05
0.0131955
-4.73284e-05
0.0132151
-6.29514e-05
0.0132253
-9.04679e-05
0.0132015
-9.58875e-05
0.0131738
-0.000121221
0.0131137
-0.000124266
0.01305
-0.00015278
0.0129581
-0.000155815
0.012858
-0.000179205
0.0127384
-0.000187726
0.012608
-0.00020464
0.0124513
-0.000208072
0.0122936
-0.000234102
0.0121021
-0.000219879
0.0119198
-0.000257808
0.0117053
-0.000246131
0.0114934
-0.000269886
0.0112549
-0.000262587
0.0110154
-0.000279338
0.010757
-0.000277911
0.0104958
-0.00028677
0.010207
-0.000281857
0.00992438
-0.00029918
0.00962938
-0.000293329
0.00932476
-0.000299994
0.00900903
-0.00029378
0.00869468
-0.000304934
0.00836561
-0.000290657
0.00804616
-0.000302893
0.00771069
-0.000285079
0.007385
-0.000289662
0.0070513
-0.000273055
0.00672983
-0.000273278
0.0064004
-0.000252778
0.00609068
-0.000259324
0.00576751
-0.00022657
0.00547323
-0.000237145
0.00516516
-0.000200881
0.00489535
-0.000212923
0.004607
-0.000168615
0.00436021
-0.000180079
0.00409724
-0.000135314
0.00386983
-0.000138058
0.00363672
-0.000100931
0.00342834
-9.19972e-05
0.00322853
-6.71201e-05
0.00304176
-4.61946e-05
0.0028726
-2.89444e-05
0.00271189
-1.83627e-06
0.00257167
1.39684e-05
0.00244252
3.93132e-05
0.00233071
5.65762e-05
0.00222973
7.81841e-05
0.0021422
9.45232e-05
0.00206163
0.00011478
0.00199125
0.000130222
0.00192669
0.000149731
0.00187438
0.000164576
0.00182196
0.0001852
0.00177708
0.000197147
0.00173791
0.000217829
0.00171185
0.0002276
0.00169123
0.000243571
0.00167289
0.00025977
0.00166598
0.000265969
0.00166302
0.000280784
0.00167094
0.000285875
0.00168266
0.000299979
0.00169733
0.000311039
0.00171252
0.000323263
0.00173359
0.000328855
0.00175793
0.000339397
0.00179024
0.000341226
0.00182398
0.000352169
0.00186446
0.000355151
0.00190414
0.000364149
0.00195088
0.000367015
0.00199914
0.000374455
0.00204906
0.000378572
0.0021044
0.000383376
0.00216282
0.000385126
0.00222313
0.000390927
0.00228823
0.000391989
0.002356
0.000396347
0.00242858
0.000397126
0.00250497
0.000399011
0.00258577
0.000400206
0.00266963
0.000402852
0.00275691
0.000404502
0.00284562
0.000406696
0.00294166
0.000404997
0.00303584
0.00040815
0.00313295
0.000407419
0.00325526
0.000388449
0.00333558
0.000432492
0.00346576
0.000384428
0.00356977
0.000414937
0.00369623
0.00039182
0.00381551
0.000405659
0.00393847
0.000400551
0.00406216
0.000402418
0.0041989
0.000391427
0.00433735
0.000389767
0.00447794
0.000388983
0.00462595
0.000382488
0.00477006
0.000385983
0.00492407
0.000376231
0.00507426
0.000380104
0.00525102
0.000356954
0.00537618
0.000406452
0.00556427
0.000341624
0.00570337
0.000392877
0.0058883
0.000346903
0.00605591
0.000365162
0.00623378
0.000353741
0.00641214
0.00035364
0.00659058
0.000353329
0.00677832
0.000343482
0.00695994
0.000349332
0.00715398
0.000336813
0.00734155
0.000341621
0.00753986
0.000329469
0.00772998
0.000335786
0.00793025
0.000323442
0.00812157
0.000330485
0.00832555
0.000316567
0.00851938
0.000324574
0.00872504
0.000310736
0.00891951
0.000319696
0.00912939
0.000305252
0.00932532
0.000316627
0.00953822
0.000299586
0.00973554
0.000314192
0.00995035
0.00029586
0.0101485
0.000310339
0.0103657
0.000290536
0.0105666
0.000308253
0.0107876
0.000293191
0.0109966
0.000304568
0.0112163
0.000291774
0.0114225
0.000303427
0.0116423
0.00028793
0.0118463
0.000300773
0.012065
0.000286997
0.0122735
0.000296243
0.012491
0.000282866
0.0126949
0.000294405
0.0129125
0.000279305
0.0131141
0.000291702
0.0133295
0.000276779
0.0135294
0.000289371
0.0137428
0.0002737
0.0139427
0.000285559
0.0141554
0.000272231
0.0143539
0.000285588
0.0145663
0.000271202
0.0147645
0.000283119
0.0149729
0.000270534
0.0151668
0.00028305
0.0153727
0.000266024
0.0155626
0.000280061
0.0157681
0.000263681
0.0159479
0.000284846
0.0161707
0.000242891
0.0163275
0.000301834
0.0165403
0.00023882
0.0166942
0.000294465
0.0168949
0.00024702
0.0170797
0.000262578
0.0172661
0.000256793
0.017449
0.000257965
0.0176228
0.000263009
0.0177996
0.000252543
0.0179687
0.000261917
0.0181417
0.000247886
0.018303
0.000259354
0.018492
0.000228531
0.0186366
0.000271525
0.0188319
0.000217131
0.0189718
0.000267765
0.0191532
0.000220358
0.0193043
0.00024413
0.0194651
0.000231365
0.0196232
0.000228175
0.0197704
0.000234019
0.0199272
0.000217707
0.0200687
0.000226534
0.0202195
0.000211797
0.0203566
0.000218584
0.0205044
0.000201203
0.0206372
0.000210665
0.0207825
0.000189434
0.0209074
0.000202501
0.0210506
0.000174404
0.021164
0.00019507
0.021308
0.000155268
0.0214104
0.000185923
0.0215407
0.000147566
0.0216453
0.000162514
0.0217592
0.000142078
0.0218672
0.00013824
0.0219631
0.000141558
0.0220644
0.000122753
0.0221529
0.000125352
0.0222454
0.000107993
0.0223237
0.00010976
0.0224065
9.24888e-05
0.0224752
9.3959e-05
0.0225477
7.79134e-05
0.0226078
7.8871e-05
0.0226715
6.40028e-05
0.0227229
6.58388e-05
0.0227785
5.11865e-05
0.0228231
5.15692e-05
0.0228682
4.00291e-05
0.0229054
3.71963e-05
0.0229418
2.76504e-05
0.022972
2.38492e-05
0.0230029
1.37707e-05
0.0230246
1.32152e-05
0.0230482
1.93889e-06
0.0230651
-1.29516e-07
0.0230809
-8.08297e-06
0.023093
-1.29642e-05
0.0231023
-1.83197e-05
0.0231092
-2.3834e-05
0.0231139
-2.90744e-05
0.0231164
-3.41415e-05
0.0231173
-3.89936e-05
0.0231162
-4.32735e-05
0.0231135
-4.74886e-05
0.0231092
-5.1363e-05
0.0231035
-5.53285e-05
0.0230965
-5.88308e-05
0.0230886
-6.24362e-05
0.0230797
-6.55622e-05
0.0230701
-6.89029e-05
0.0230597
-7.16334e-05
0.023049
-7.47509e-05
0.0230375
-7.69688e-05
0.0230261
-7.98398e-05
0.0230139
-8.14659e-05
0.0230021
-8.41294e-05
0.0229893
-8.52116e-05
0.0229772
-8.77333e-05
0.0229642
-8.8363e-05
0.0229522
-9.07216e-05
0.0229394
-9.11237e-05
0.0229272
-9.26627e-05
0.0229152
-9.37355e-05
0.0229027
-9.42122e-05
0.0228906
-9.48842e-05
0.0228786
-9.53897e-05
0.0228673
-9.60796e-05
0.0228553
-9.56893e-05
0.0228437
-9.59101e-05
0.0228317
-9.54943e-05
0.0228204
-9.59192e-05
0.0228088
-9.50733e-05
0.0227972
-9.48211e-05
0.0227854
-9.36968e-05
0.0227746
-9.3774e-05
0.0227631
-9.17589e-05
0.0227522
-9.15936e-05
0.0227394
-8.89192e-05
0.0227292
-9.05295e-05
0.0227161
-8.56664e-05
0.0227073
-8.80587e-05
0.0226948
-8.24297e-05
0.022686
-8.46181e-05
0.0226742
-8.03005e-05
0.0226637
-8.00834e-05
0.0226534
-7.87515e-05
0.0226427
-7.62755e-05
0.022633
-7.5221e-05
0.0226228
-7.23931e-05
0.0226142
-7.19013e-05
0.022604
-6.77894e-05
0.0225958
-6.75411e-05
0.0225859
-6.33647e-05
0.0225781
-6.29189e-05
0.0225692
-5.94164e-05
0.0225619
-5.84576e-05
0.0225544
-5.56646e-05
0.0225476
-5.39194e-05
0.0225411
-5.15212e-05
0.0225347
-4.91525e-05
0.0225288
-4.68874e-05
0.0225229
-4.42751e-05
0.0225176
-4.20492e-05
0.0225125
-3.93973e-05
0.0225079
-3.71834e-05
0.0225036
-3.45881e-05
0.0224997
-3.23868e-05
0.0224962
-2.99124e-05
0.0224933
-2.77501e-05
0.0224906
-2.5376e-05
0.0224885
-2.32334e-05
0.0224868
-2.09419e-05
0.0224855
-1.87751e-05
0.0224846
-1.65693e-05
0.0224841
-1.43929e-05
0.0224836
-1.21228e-05
0.0224829
-9.62085e-06
0.0224816
-6.85242e-06
0.0224806
-4.5213e-06
0.0224818
-3.48785e-06
-3.86446e-06
-3.33056e-05
-0.0001129
-7.12264e-05
-8.8633e-05
-0.000106334
-7.73885e-05
-0.000215826
3.07951e-05
-0.000335501
8.73619e-05
-0.000666065
0.000243483
-0.000995898
0.000351296
-0.00164634
0.000632896
-0.00226258
0.000736483
-0.00312069
0.000986184
-0.0039994
0.00111446
-0.00500431
0.00126626
-0.00609025
0.00140671
-0.00724956
0.00153456
-0.00853799
0.00171502
-0.00991916
0.00190716
-0.0114852
0.00217195
-0.0131852
0.00244906
-0.0150995
0.00277738
-0.0171714
0.00310528
-0.0194534
0.00346179
-0.0218875
0.00380203
-0.0244854
0.00413217
-0.0271815
0.00442518
-0.0299649
0.00470533
-0.032779
0.0049393
-0.0355841
0.00510893
-0.0383036
0.00518772
-0.0408802
0.00517203
-0.0432448
0.0050593
-0.0453455
0.00484922
-0.0471237
0.00450548
-0.0485351
0.00401277
-0.0495632
0.00336935
-0.0502392
0.00262422
-0.0506226
0.00181779
-0.0507669
0.00102744
-0.0506663
0.000305437
-0.0503158
-0.000329307
-0.0496644
-0.00110336
-0.0486819
-0.00162722
-0.047379
-0.00214984
-0.0457412
-0.00263233
-0.0438397
-0.00305045
-0.0417098
-0.00338861
-0.0393245
-0.00388839
-0.036746
-0.00423285
-0.0339008
-0.00472351
-0.0308964
-0.00497655
-0.0277282
-0.00524558
-0.0244848
-0.00536827
-0.0211346
-0.00553031
-0.0177811
-0.00553387
-0.0143915
-0.0055671
-0.0110711
-0.0054634
-0.00785821
-0.00529078
-0.00487943
-0.00496348
-0.00217136
-0.00451844
0.000310827
-0.00399382
0.00278922
-0.00366928
0.00530824
-0.00346913
0.00780044
-0.00332177
0.0101379
-0.00317386
0.0122963
-0.00300587
0.0143426
-0.00289508
0.0162499
-0.00273213
0.0180799
-0.0026273
0.0198133
-0.00252524
0.0214686
-0.00242731
0.0230275
-0.00231649
0.0244803
-0.00218231
0.0258091
-0.00202624
0.0270024
-0.00184532
0.028067
-0.00165895
0.0289925
-0.00146615
0.0297829
-0.00127769
0.0304431
-0.00109742
0.030978
-0.000924941
0.0313965
-0.000763065
0.0316988
-0.000604214
0.0318959
-0.000459064
0.0319765
-0.000318625
0.0319712
-0.000200656
0.0318706
-7.77724e-05
0.0317039
1.78346e-05
0.0314252
0.000127107
0.031114
0.000175167
0.0307236
0.000234297
0.0303112
0.000249859
0.0298613
0.000275279
0.029374
0.000276008
0.0288914
0.000264633
0.0283563
0.00026234
0.0278516
0.000230772
0.0272916
0.000229674
0.026778
0.000178937
0.0262114
0.000178692
0.025694
0.00011866
0.0251306
0.000122777
0.0246078
6.82339e-05
0.0240493
6.96374e-05
0.0235369
3.19669e-05
0.022948
3.80191e-05
0.022511
-5.91006e-05
0.0218588
5.68465e-05
0.0214492
-0.000129149
0.0208284
1.81481e-05
0.0203845
-0.000101534
0.0198471
-5.28053e-05
0.0193439
-7.61356e-05
0.0188945
-0.000120694
0.0183896
-8.84011e-05
0.0179284
-0.000126184
0.0174596
-8.68177e-05
0.0170429
-0.000136224
0.0165926
-8.19733e-05
0.0162145
-0.000136996
0.0157912
-8.32078e-05
0.0154379
-0.000145762
0.0150582
-8.57047e-05
0.0147346
-0.000111209
0.0143955
-8.07314e-05
0.0141037
-8.97503e-05
0.0138095
-6.78342e-05
0.0135546
-6.54998e-05
0.0133189
-4.75432e-05
0.0131195
-3.61024e-05
0.012935
-1.86909e-05
0.0127715
-4.12868e-06
0.0126314
1.53953e-05
0.0125134
3.59089e-05
0.0124282
5.52758e-05
0.0123679
7.43031e-05
0.0123479
9.0305e-05
0.0123498
0.000114144
0.0123899
0.000130414
0.0124573
0.00014121
0.012544
0.000174496
0.0126893
0.000172479
0.0128011
0.000240279
0.0130063
0.000203701
0.0131777
0.000271763
0.0134112
0.000264012
0.0136464
0.00030285
0.013914
0.000323932
0.0142006
0.000340159
0.0144989
0.000349506
0.0148365
0.000355038
0.0151958
0.000370247
0.0155544
0.000387725
0.0159117
0.000412562
0.0163746
0.000373322
0.0166957
0.000480301
0.0172136
0.000381406
0.0175577
0.000518089
0.0180432
0.000425747
0.0184834
0.000474511
0.0189479
0.000465758
0.0194122
0.000463173
0.0198762
0.000472683
0.0203695
0.000456272
0.0208411
0.000468158
0.0213417
0.000452295
0.0218122
0.000461785
0.0223092
0.00044315
0.022769
0.000452671
0.0232651
0.000428274
0.0237133
0.000442361
0.0241905
0.000418078
0.0246227
0.000421399
0.025084
0.000393954
0.0254869
0.000407295
0.0259227
0.000373073
0.0263001
0.000387057
0.0267093
0.000342733
0.0270565
0.000358942
0.0274419
0.000300717
0.0277463
0.000333065
0.0281098
0.000260872
0.0283839
0.000288737
0.0286962
0.000232425
0.02894
0.000238837
0.0291885
0.000195967
0.0293888
0.000182998
0.0295753
0.000151555
0.0297279
0.000127344
0.0298614
0.000100572
0.0299651
7.99868e-05
0.0300488
5.85902e-05
0.0301054
3.65434e-05
0.0301416
1.29173e-05
0.0301541
-1.8969e-05
0.0301403
-4.19517e-05
0.0301053
-7.14017e-05
0.0300174
-8.24916e-05
0.0299144
-0.000109829
0.0297651
-0.000119633
0.0296023
-0.000147021
0.0293969
-0.000161298
0.029171
-0.00018111
0.0289144
-0.000198297
0.0286407
-0.000221274
0.0283236
-0.000226499
0.0280015
-0.000249089
0.0276383
-0.00025621
0.0272687
-0.000268323
0.0268514
-0.000275518
0.0264389
-0.000293266
0.0259799
-0.000291586
0.0255287
-0.000308181
0.0250329
-0.000301725
0.0245365
-0.000314487
0.0239923
-0.000301356
0.0234812
-0.000326775
0.0229018
-0.000305228
0.0223189
-0.000319698
0.021739
-0.000306429
0.0211606
-0.000319852
0.0205318
-0.000295403
0.0199389
-0.000317324
0.0192984
-0.000282119
0.0186893
-0.00029242
0.0180495
-0.000263722
0.0174236
-0.000260389
0.016798
-0.00023523
0.0162033
-0.000230865
0.0155707
-0.000194824
0.0150031
-0.0002085
0.0143858
-0.000146469
0.0138737
-0.000195024
0.0132749
-9.38605e-05
0.0128134
-0.000158465
0.0122547
-4.94184e-05
0.0118222
-9.65651e-05
0.0113311
-1.41743e-05
0.0109205
-2.18802e-05
0.0105049
2.36534e-05
0.0101259
4.59412e-05
0.00977646
7.13371e-05
0.00944329
0.000106078
0.00915254
0.000125836
0.00887767
0.000161288
0.00864599
0.000179189
0.00843205
0.000213908
0.00825314
0.000233148
0.00809011
0.000263514
0.00795289
0.000285447
0.00782979
0.000312307
0.00773134
0.000332452
0.00764966
0.000358223
0.00758678
0.000378974
0.0075347
0.000399745
0.00750676
0.000422634
0.00749488
0.000438185
0.00749656
0.000461252
0.00752728
0.000468888
0.00755252
0.000498239
0.0076189
0.000486433
0.00768222
0.0005178
0.00777495
0.00051676
0.00786762
0.000542334
0.00797539
0.000551719
0.0080926
0.00055972
0.00822353
0.000571508
0.00836302
0.000574012
0.00850876
0.000587297
0.00867379
0.000586087
0.00884649
0.00060012
0.00902661
0.000597045
0.00920738
0.000613035
0.00941119
0.000608061
0.00960805
0.00062092
0.00982182
0.000614236
0.0100376
0.000624712
0.0102698
0.000617437
0.0105025
0.000626351
0.0107519
0.000616659
0.0110023
0.000622251
0.0112713
0.000611754
0.0115371
0.000622717
0.0118197
0.00061191
0.0121046
0.000619296
0.0123955
0.000608633
0.0126992
0.000607123
0.0130216
0.000587949
0.0132768
0.000640135
0.0136872
0.000535674
0.0139403
0.000646846
0.0143295
0.000540245
0.0146471
0.000597859
0.0149884
0.000579218
0.015343
0.000573366
0.0157071
0.000570345
0.0160749
0.000543611
0.0164493
0.000546716
0.0168396
0.000525512
0.0172176
0.000532111
0.0176211
0.000514826
0.0180122
0.000516477
0.0184345
0.000492473
0.0187805
0.000541598
0.0192932
0.000431549
0.0196011
0.000567811
0.0200927
0.000428696
0.020464
0.000509749
0.0209003
0.000459607
0.0213324
0.000456937
0.0217542
0.000465876
0.0222015
0.000438913
0.0226278
0.000449558
0.0230903
0.000419901
0.023523
0.000436318
0.0239859
0.000409329
0.0244217
0.000422769
0.0248881
0.000396708
0.025323
0.000414821
0.025792
0.000385227
0.0262258
0.00040553
0.0266909
0.00038003
0.0271237
0.000395151
0.0275902
0.000371466
0.0280186
0.000391606
0.0284859
0.000363514
0.0289127
0.000388085
0.0293818
0.000360819
0.0298092
0.000381539
0.0302709
0.000357076
0.030694
0.000380119
0.0311626
0.000353118
0.0315904
0.000381897
0.0320517
0.000358781
0.032475
0.000381115
0.0329346
0.000357878
0.0333502
0.000379233
0.0338096
0.000355079
0.0342263
0.000378674
0.0346661
0.000357385
0.03508
0.000375179
0.0355222
0.000352625
0.0359207
0.0003757
0.0363637
0.000350379
0.0367536
0.000377626
0.0371824
0.000353596
0.0375717
0.000374245
0.0379945
0.000351314
0.0383807
0.000373881
0.0387969
0.000355927
0.0391735
0.000378273
0.0395821
0.000359521
0.0399601
0.000378133
0.0403505
0.000360339
0.0407131
0.000377776
0.0411041
0.00036096
0.0414549
0.000379937
0.0418578
0.000355405
0.0421688
0.000392084
0.0426138
0.000321076
0.0428823
0.000424074
0.0432846
0.00033118
0.0436035
0.00038828
0.0439366
0.000350944
0.0442847
0.000358843
0.0446019
0.000380953
0.0449485
0.000354339
0.0452699
0.00037516
0.0455901
0.000360516
0.0458934
0.00037089
0.0462296
0.000343144
0.0464946
0.000380131
0.0468721
0.000308772
0.0471091
0.000392689
0.0474869
0.000298602
0.0477258
0.00038472
0.0480404
0.000328601
0.0483223
0.00033723
0.0485851
0.000348544
0.0488763
0.000325473
0.0491325
0.000336777
0.0494185
0.000311201
0.0496648
0.00032553
0.0499379
0.000303163
0.0501786
0.000310432
0.0504412
0.000288372
0.0506701
0.000292494
0.0509312
0.000268086
0.0511375
0.000284784
0.0514058
0.000235747
0.0515809
0.000279773
0.0518472
0.000210043
0.0520098
0.000263221
0.0522355
0.00020451
0.0524187
0.000214277
0.0525915
0.000209864
0.0527821
0.000185678
0.0529392
0.00018934
0.0531136
0.000162648
0.0532574
0.000164177
0.0534142
0.000140158
0.0535399
0.000142246
0.0536783
0.000118683
0.053789
0.000118914
0.0539118
9.56293e-05
0.0540065
9.76433e-05
0.0541137
7.63954e-05
0.0541959
7.62062e-05
0.0542863
5.77449e-05
0.0543564
5.54927e-05
0.0544305
3.83595e-05
0.0544886
3.4159e-05
0.0545498
1.76584e-05
0.0545925
1.59836e-05
0.054645
-3.21009e-06
0.0546782
-4.99468e-06
0.0547143
-1.95476e-05
0.0547406
-2.59719e-05
0.0547631
-3.57178e-05
0.054781
-4.443e-05
0.0547944
-5.33172e-05
0.054804
-6.20767e-05
0.0548098
-7.05675e-05
0.0548122
-7.85458e-05
0.0548116
-8.60745e-05
0.054808
-9.3175e-05
0.0548019
-0.00010004
0.0547932
-0.000106636
0.0547825
-0.000112958
0.0547698
-0.00011898
0.0547555
-0.000124825
0.0547396
-0.000130321
0.0547226
-0.000135742
0.0547042
-0.000140632
0.0546854
-0.000145556
0.0546653
-0.000149634
0.0546452
-0.000154032
0.0546237
-0.000157277
0.0546028
-0.000161212
0.0545805
-0.000163845
0.0545591
-0.000167343
0.0545365
-0.000169623
0.0545153
-0.000171686
0.0544936
-0.000174813
0.0544704
-0.000175033
0.0544491
-0.000178433
0.0544269
-0.00017811
0.0544059
-0.000180383
0.054382
-0.000179119
0.0543618
-0.00018193
0.0543401
-0.000180078
0.0543197
-0.000181545
0.0542973
-0.000179139
0.0542771
-0.000180502
0.054255
-0.000177715
0.0542345
-0.000177713
0.0542124
-0.000174497
0.0541924
-0.000173918
0.0541701
-0.000170836
0.0541511
-0.000170556
0.0541259
-0.000164438
0.0541086
-0.000166116
0.054083
-0.000158075
0.0540668
-0.000160216
0.0540427
-0.000152992
0.0540244
-0.000152886
0.0540037
-0.00014904
0.0539821
-0.000144812
0.053963
-0.00014315
0.0539425
-0.000138511
0.053925
-0.000136974
0.0539044
-0.00013043
0.053889
-0.00012937
0.0538682
-0.000121495
0.0538527
-0.000120033
0.0538336
-0.000113787
0.0538182
-0.000111321
0.0538016
-0.000106802
0.0537867
-0.000103127
0.0537723
-9.94231e-05
0.0537581
-9.46048e-05
0.0537451
-9.09646e-05
0.0537317
-8.56704e-05
0.0537198
-8.18918e-05
0.0537077
-7.66304e-05
0.053697
-7.27078e-05
0.0536863
-6.76797e-05
0.0536768
-6.36552e-05
0.0536677
-5.8929e-05
0.0536596
-5.48866e-05
0.053652
-5.04726e-05
0.0536453
-4.64321e-05
0.0536393
-4.22326e-05
0.0536341
-3.81836e-05
0.0536296
-3.40738e-05
0.0536258
-3.0081e-05
0.0536227
-2.602e-05
0.05362
-2.17986e-05
0.0536171
-1.68848e-05
0.0536135
-1.13612e-05
0.0536103
-6.83056e-06
0.0536094
-4.81978e-06
-4.89634e-06
-4.94495e-05
-0.000146223
-8.85251e-05
-0.000130111
-0.000197014
-4.62142e-05
-0.000302522
5.63901e-05
-0.000616889
0.000322429
-0.000926186
0.000473335
-0.00156748
0.000891925
-0.00220493
0.00119687
-0.00326549
0.00173023
-0.00440073
0.00204934
-0.00574302
0.00239249
-0.00718661
0.00264521
-0.00873473
0.00289847
-0.0104164
0.00316741
-0.012206
0.00346295
-0.0141437
0.00380675
-0.0162106
0.00421134
-0.0184467
0.00466493
-0.0208172
0.00513413
-0.0233499
0.0056313
-0.0259936
0.0061048
-0.0287497
0.00656343
-0.0315504
0.006945
-0.0343571
0.00725152
-0.0371034
0.0074813
-0.0397404
0.00762025
-0.0422148
0.00763666
-0.0444775
0.00751091
-0.0464762
0.00724086
-0.0481744
0.00683734
-0.0495468
0.00631104
-0.050584
0.00564102
-0.0513027
0.00483915
-0.0517501
0.00393238
-0.0519805
0.00297607
-0.0520482
0.00201332
-0.0519655
0.00107765
-0.0517673
0.000246544
-0.0513815
-0.000571904
-0.0509047
-0.00142998
-0.0499989
-0.00237921
-0.0487551
-0.00323889
-0.0469655
-0.00426414
-0.0448836
-0.00497594
-0.0423831
-0.00573114
-0.0397746
-0.00633904
-0.0367535
-0.0070933
-0.0337667
-0.00754941
-0.030427
-0.00815248
-0.0271232
-0.00838465
-0.0235916
-0.00873647
-0.0201322
-0.00883
-0.0165773
-0.0089324
-0.0131212
-0.00886186
-0.00972075
-0.00871731
-0.00645218
-0.00842049
-0.00329765
-0.00798569
-0.000231023
-0.00745986
0.00288549
-0.00699403
0.00604971
-0.00672423
0.00919764
-0.0065096
0.012232
-0.00625567
0.0151129
-0.00595899
0.0178607
-0.00566468
0.0204341
-0.00538773
0.0228572
-0.00508222
0.0251145
-0.00482113
0.0272423
-0.00459954
0.0292304
-0.00437327
0.0310963
-0.00414925
0.0328315
-0.00389392
0.0344178
-0.00360574
0.0358581
-0.00329295
0.0371496
-0.00296785
0.0382946
-0.00264307
0.039293
-0.0023223
0.0401511
-0.00201597
0.0408725
-0.00171993
0.0414608
-0.001437
0.0419218
-0.00116204
0.0422543
-0.000899608
0.0424673
-0.000651328
0.0425564
-0.000420362
0.0425528
-0.000217205
0.0424398
-2.56295e-05
0.0422541
0.000144313
0.0419538
0.00029581
0.0416096
0.000384793
0.0411625
0.000486503
0.0406985
0.000521735
0.0401796
0.000559077
0.0396222
0.000571158
0.0390448
0.000568925
0.0384341
0.000561758
0.0378313
0.000531894
0.0371814
0.000518119
0.0365789
0.000457366
0.0359046
0.00044
0.0352947
0.00037391
0.0346293
0.000367184
0.0340233
0.000296752
0.0333888
0.000276946
0.0328183
0.000213561
0.0320935
0.000250139
0.0316306
9.88909e-05
0.0308677
0.000204346
0.030425
3.42322e-05
0.0297774
0.000122367
0.0292428
4.67253e-05
0.0287225
5.06649e-06
0.028175
6.99459e-06
0.0276725
-2.07956e-05
0.0271643
-2.31016e-05
0.0267119
-4.6679e-05
0.0262144
-4.17397e-05
0.0257967
-6.2255e-05
0.0253447
-6.10327e-05
0.0249781
-8.20175e-05
0.0245698
-7.07935e-05
0.024248
-9.83261e-05
0.0238874
-7.4907e-05
0.0236049
-9.68361e-05
0.0232975
-7.04241e-05
0.0230518
-7.8318e-05
0.0228079
-6.50327e-05
0.0226135
-6.00653e-05
0.0224436
-4.68866e-05
0.0223034
-3.51892e-05
0.0221839
-2.02392e-05
0.0220941
-3.32649e-06
0.0220349
1.33097e-05
0.0220036
3.45448e-05
0.0220131
4.90069e-05
0.0220451
7.22614e-05
0.0221219
8.7252e-05
0.022224
0.000110518
0.0223666
0.000120219
0.0225499
0.000134378
0.0227072
0.00019225
0.023003
0.000143842
0.0231908
0.000244972
0.0235047
0.000207347
0.0237988
0.000261984
0.0241123
0.000297614
0.0244692
0.000315899
0.024836
0.000327357
0.0252391
0.00035117
0.0256569
0.000353258
0.0260771
0.000375018
0.0265287
0.000392756
0.0270013
0.000410368
0.0273965
0.000467583
0.0280074
0.000384222
0.02837
0.000544535
0.0289726
0.000449205
0.0294233
0.000538128
0.0299218
0.00052653
0.0304615
0.000507875
0.0309896
0.000536806
0.0315231
0.000516504
0.0320369
0.000538357
0.0325818
0.000520475
0.0330898
0.000537567
0.0336269
0.000522821
0.0341275
0.000532886
0.0346663
0.000509873
0.0351396
0.000535954
0.0356505
0.00050989
0.0361141
0.000527192
0.0366002
0.000494929
0.0370265
0.000512712
0.0374837
0.000487673
0.0378762
0.000497645
0.0383034
0.000470813
0.038661
0.000469217
0.0390558
0.000439381
0.0393706
0.000440896
0.039735
0.000399361
0.0399906
0.000416386
0.0403162
0.000353181
0.0405397
0.000369554
0.0407937
0.000319179
0.0409837
0.00031149
0.0411659
0.000274616
0.0413047
0.000251992
0.0414204
0.000217517
0.0415046
0.000190749
0.0415631
0.000162821
0.0415934
0.000141148
0.0415984
0.000112127
0.0415794
9.00777e-05
0.0415365
5.17261e-05
0.0414552
3.18447e-05
0.0413375
3.63745e-06
0.0411889
-1.87822e-05
0.0410088
-4.4072e-05
0.0407959
-6.31076e-05
0.0405562
-8.60764e-05
0.0402795
-0.000106139
0.0399778
-0.000124166
0.0396451
-0.000144323
0.0392772
-0.00016194
0.0389108
-0.000185781
0.0384873
-0.000191614
0.0380456
-0.000212071
0.0375798
-0.000209313
0.0371084
-0.000237144
0.0365812
-0.000224801
0.0360635
-0.000253234
0.035496
-0.000236257
0.0349417
-0.000260586
0.0343236
-0.000240496
0.0337524
-0.000265212
0.0330815
-0.000234499
0.0324541
-0.000258335
0.0317798
-0.000233894
0.0311091
-0.00025123
0.030416
-0.000218461
0.0297422
-0.000243394
0.0290184
-0.000205365
0.0283361
-0.000217043
0.0275986
-0.000170334
0.0269113
-0.000187125
0.0261885
-0.000140166
0.0255003
-0.00014189
0.02479
-9.94509e-05
0.0241386
-0.000103243
0.0234338
-5.727e-05
0.0228156
-5.65959e-05
0.0221462
-2.74048e-05
0.0216038
-3.51889e-05
0.0209375
5.47126e-05
0.0204738
-7.71035e-06
0.0198705
0.000108306
0.0194242
7.04924e-05
0.0189233
0.000145027
0.0184999
0.000148999
0.0180936
0.000187447
0.0177144
0.000219823
0.0173867
0.000237854
0.0170714
0.0002791
0.0168139
0.000291601
0.0165725
0.000329546
0.0163818
0.000347379
0.0162116
0.000380033
0.0160779
0.000402739
0.0159646
0.00043162
0.015882
0.000453267
0.0158226
0.000478289
0.0157932
0.000496975
0.0157789
0.000524998
0.0157938
0.000537379
0.0158241
0.000566974
0.0158821
0.000576827
0.0159745
0.000588013
0.0160612
0.000621309
0.0162233
0.00059096
0.0163384
0.000648182
0.0165287
0.000615499
0.0167031
0.000662461
0.0169037
0.00066324
0.0171178
0.000664967
0.0173469
0.000680321
0.0175949
0.000682525
0.0178464
0.000691694
0.0181277
0.000693352
0.0184053
0.000704349
0.0187079
0.000698891
0.0190108
0.000708416
0.0193423
0.000705006
0.0196545
0.000713498
0.0200064
0.000711272
0.0203588
0.000714251
0.0207204
0.000705211
0.0210856
0.000711611
0.0214716
0.000697636
0.0218498
0.000702952
0.022256
0.000690262
0.0226583
0.00068709
0.0230864
0.000675288
0.0235023
0.00068224
0.023943
0.000669823
0.0243845
0.00066379
0.0248267
0.000660743
0.0252476
0.000664196
0.0258084
0.000590155
0.0261638
0.000698573
0.0267717
0.000551471
0.027163
0.000669741
0.0276747
0.00059392
0.0281864
0.000596367
0.028672
0.000609818
0.0291974
0.00056862
0.0297227
0.000566529
0.0302505
0.000534959
0.0307762
0.0005311
0.0313264
0.000511398
0.0318503
0.000514092