/*--------------------------------*- C++ -*----------------------------------*\
| =========                 |                                                 |
| \\      /  F ield         | OpenFOAM: The Open Source CFD Toolbox           |
|  \\    /   O peration     | Version:  v1812                                 |
|   \\  /    A nd           | Web:      www.OpenFOAM.com                      |
|    \\/     M anipulation  |                                                 |
\*---------------------------------------------------------------------------*/
FoamFile
{
    version     2.0;
    format      ascii;
    class       volScalarField;
    location    "0.2";
    object      T;
}
// * * * * * * * * * * * * * * * * * * * * * * * * * * * * * * * * * * * * * //

dimensions      [0 0 0 1 0 0 0];


internalField   nonuniform List<scalar> 
20400
(
287.503
287.501
287.495
287.483
287.46
287.415
287.346
287.244
287.107
286.929
286.723
286.486
286.239
285.99
285.759
285.55
285.376
285.23
285.115
285.021
284.948
284.886
284.836
284.791
284.754
284.723
284.698
284.676
284.659
284.646
284.637
284.632
284.629
284.629
284.63
284.634
284.64
284.647
284.655
284.661
284.669
284.67
284.681
284.697
284.723
284.757
284.796
284.839
284.889
284.947
285.012
285.083
285.157
285.237
285.319
285.405
285.494
285.587
285.686
285.792
285.905
286.024
286.148
286.277
286.407
286.54
286.676
286.815
286.96
287.111
287.269
287.432
287.599
287.764
287.926
288.081
288.227
288.362
288.484
288.593
288.685
288.76
288.816
288.855
288.88
288.894
288.898
288.896
288.883
288.855
288.817
288.774
288.727
288.676
288.625
288.569
288.515
288.458
288.404
288.35
288.3
288.248
288.201
288.147
288.101
288.051
288.014
287.975
287.943
287.906
287.868
287.831
287.791
287.756
287.72
287.69
287.66
287.638
287.616
287.599
287.582
287.569
287.554
287.542
287.53
287.52
287.514
287.51
287.509
287.511
287.516
287.524
287.535
287.549
287.568
287.59
287.616
287.644
287.675
287.709
287.743
287.778
287.811
287.845
287.881
287.919
287.959
288
288.043
288.085
288.128
288.168
288.215
288.255
288.301
288.342
288.387
288.432
288.482
288.531
288.58
288.629
288.675
288.72
288.76
288.801
288.838
288.878
288.917
288.958
288.999
289.041
289.081
289.122
289.158
289.195
289.225
289.257
289.283
289.31
289.332
289.355
289.374
289.391
289.406
289.418
289.428
289.436
289.443
289.447
289.449
289.449
289.448
289.445
289.441
289.435
289.427
289.414
289.397
289.376
289.351
289.325
289.296
289.265
289.235
289.201
289.168
289.131
289.095
289.055
289.014
288.971
288.927
288.88
288.831
288.778
288.726
288.669
288.612
288.552
288.493
288.432
288.373
288.313
288.256
288.198
288.144
288.088
288.037
287.982
287.934
287.882
287.836
287.789
287.746
287.703
287.664
287.627
287.594
287.566
287.541
287.52
287.501
287.485
287.47
287.457
287.446
287.436
287.429
287.425
287.423
287.425
287.43
287.439
287.451
287.464
287.479
287.495
287.51
287.526
287.541
287.558
287.577
287.597
287.62
287.645
287.674
287.705
287.738
287.774
287.811
287.849
287.887
287.926
287.964
288.003
288.041
288.08
288.118
288.159
288.2
288.244
288.289
288.337
288.383
288.433
288.483
288.539
288.589
288.643
288.693
288.746
288.8
288.855
288.914
288.974
289.038
289.103
289.169
289.233
289.3
289.365
289.437
289.502
289.568
289.63
289.693
289.756
289.819
289.884
289.948
290.014
290.08
290.148
290.215
290.284
290.352
290.422
290.491
290.56
290.628
290.696
290.762
290.829
290.892
290.956
291.018
291.081
291.142
291.205
291.267
291.33
291.391
291.453
291.512
291.573
291.631
291.689
291.745
291.802
291.855
291.91
291.961
292.014
292.063
292.114
292.161
292.21
292.254
292.3
292.342
292.385
292.425
292.467
292.503
292.542
292.575
292.616
292.65
292.686
292.718
292.75
292.782
292.813
292.846
292.875
292.906
292.932
292.961
292.985
293.015
293.038
293.064
293.085
293.107
293.13
293.152
293.176
293.198
293.221
293.24
293.261
293.28
293.301
293.319
293.339
293.355
293.376
293.394
293.413
293.428
293.444
293.46
293.476
293.492
293.506
293.52
293.533
293.546
293.557
293.568
293.578
293.589
293.598
293.608
293.616
293.625
293.633
293.641
293.648
293.655
293.662
293.67
293.676
293.683
293.689
293.695
293.701
293.707
293.712
293.717
293.723
293.728
293.733
293.737
293.742
293.746
293.75
293.754
293.758
293.762
293.765
293.768
293.771
293.774
293.777
293.779
293.781
293.783
293.785
293.787
293.789
293.791
293.792
293.794
293.795
293.797
293.799
293.8
293.802
293.803
293.804
293.805
293.806
293.807
293.808
293.808
293.809
293.808
293.809
293.808
293.808
293.807
293.807
293.806
293.805
293.804
293.802
293.801
293.8
293.799
293.797
293.795
293.793
293.792
293.79
293.787
293.785
293.782
293.78
293.777
293.773
293.77
293.766
293.762
293.758
293.754
293.75
293.746
293.741
293.737
293.732
293.728
293.724
293.719
293.714
293.707
293.698
293.691
293.688
287.502
287.5
287.494
287.481
287.457
287.416
287.345
287.247
287.101
286.931
286.711
286.48
286.222
285.98
285.743
285.541
285.363
285.221
285.104
285.013
284.937
284.877
284.825
284.78
284.741
284.708
284.682
284.661
284.643
284.63
284.621
284.615
284.613
284.614
284.618
284.624
284.631
284.639
284.648
284.656
284.66
284.664
284.671
284.689
284.712
284.746
284.781
284.82
284.866
284.92
284.984
285.051
285.129
285.204
285.288
285.37
285.458
285.549
285.646
285.748
285.858
285.974
286.096
286.219
286.347
286.475
286.608
286.743
286.884
287.031
287.185
287.346
287.509
287.673
287.834
287.991
288.138
288.276
288.403
288.516
288.614
288.694
288.757
288.804
288.834
288.855
288.863
288.865
288.853
288.833
288.793
288.759
288.706
288.666
288.606
288.562
288.499
288.452
288.389
288.342
288.284
288.241
288.183
288.144
288.079
288.044
287.995
287.969
287.934
287.897
287.863
287.819
287.785
287.744
287.714
287.678
287.655
287.626
287.611
287.588
287.576
287.558
287.547
287.532
287.522
287.511
287.506
287.502
287.501
287.502
287.508
287.516
287.528
287.541
287.561
287.583
287.609
287.636
287.67
287.7
287.739
287.769
287.803
287.837
287.872
287.911
287.948
287.993
288.033
288.079
288.115
288.165
288.199
288.255
288.288
288.334
288.375
288.419
288.473
288.517
288.573
288.614
288.667
288.704
288.752
288.784
288.83
288.861
288.908
288.941
288.989
289.023
289.071
289.103
289.147
289.175
289.214
289.237
289.271
289.289
289.317
289.335
289.356
289.372
289.387
289.4
289.41
289.418
289.425
289.429
289.431
289.431
289.43
289.428
289.423
289.419
289.409
289.399
289.379
289.362
289.333
289.311
289.276
289.252
289.215
289.19
289.149
289.121
289.077
289.045
288.997
288.961
288.909
288.871
288.813
288.769
288.709
288.662
288.597
288.546
288.478
288.426
288.359
288.307
288.243
288.192
288.131
288.083
288.023
287.979
287.92
287.88
287.823
287.784
287.735
287.697
287.656
287.62
287.588
287.558
287.535
287.513
287.495
287.478
287.464
287.451
287.439
287.43
287.422
287.418
287.417
287.418
287.423
287.432
287.444
287.457
287.471
287.488
287.502
287.518
287.533
287.549
287.569
287.589
287.612
287.636
287.666
287.696
287.73
287.764
287.802
287.838
287.877
287.913
287.953
287.99
288.029
288.066
288.107
288.144
288.188
288.229
288.276
288.32
288.371
288.413
288.476
288.521
288.58
288.626
288.676
288.732
288.782
288.841
288.895
288.959
289.017
289.086
289.147
289.217
289.272
289.352
289.411
289.487
289.545
289.606
289.672
289.73
289.8
289.857
289.928
289.986
290.059
290.118
290.193
290.253
290.329
290.39
290.467
290.528
290.604
290.662
290.737
290.793
290.867
290.921
290.991
291.044
291.114
291.168
291.238
291.293
291.362
291.416
291.484
291.536
291.601
291.65
291.715
291.762
291.824
291.869
291.929
291.973
292.031
292.072
292.127
292.166
292.219
292.255
292.306
292.34
292.389
292.42
292.467
292.49
292.539
292.566
292.609
292.641
292.669
292.707
292.732
292.771
292.795
292.832
292.854
292.889
292.907
292.943
292.96
292.994
293.011
293.033
293.057
293.075
293.105
293.121
293.15
293.166
293.193
293.205
293.231
293.243
293.27
293.281
293.307
293.317
293.343
293.355
293.372
293.389
293.401
293.422
293.432
293.452
293.46
293.478
293.486
293.502
293.508
293.522
293.529
293.542
293.548
293.56
293.566
293.576
293.581
293.591
293.596
293.605
293.611
293.618
293.624
293.631
293.637
293.642
293.648
293.653
293.658
293.663
293.668
293.673
293.678
293.682
293.687
293.691
293.695
293.699
293.702
293.706
293.709
293.712
293.715
293.717
293.72
293.722
293.725
293.726
293.728
293.729
293.732
293.733
293.735
293.736
293.738
293.739
293.741
293.742
293.744
293.745
293.747
293.747
293.748
293.749
293.749
293.749
293.749
293.749
293.749
293.749
293.748
293.748
293.747
293.746
293.745
293.744
293.742
293.742
293.74
293.739
293.737
293.735
293.733
293.731
293.729
293.727
293.724
293.721
293.719
293.715
293.712
293.708
293.705
293.701
293.697
293.692
293.688
293.684
293.679
293.675
293.671
293.666
293.662
293.656
293.65
293.641
293.634
293.631
287.5
287.498
287.492
287.478
287.454
287.411
287.348
287.238
287.107
286.908
286.698
286.441
286.194
285.939
285.714
285.508
285.339
285.198
285.087
284.997
284.924
284.864
284.812
284.768
284.729
284.696
284.67
284.65
284.635
284.623
284.614
284.609
284.607
284.609
284.614
284.625
284.637
284.649
284.662
284.666
284.678
284.674
284.685
284.695
284.72
284.742
284.776
284.807
284.84
284.875
284.919
284.984
285.043
285.119
285.184
285.266
285.339
285.428
285.511
285.61
285.705
285.816
285.922
286.039
286.152
286.272
286.391
286.517
286.647
286.784
286.929
287.081
287.24
287.4
287.562
287.72
287.875
288.022
288.161
288.289
288.405
288.504
288.588
288.655
288.709
288.745
288.771
288.78
288.785
288.771
288.756
288.709
288.685
288.624
288.596
288.526
288.494
288.422
288.383
288.315
288.275
288.208
288.174
288.107
288.071
288.006
287.984
287.946
287.915
287.889
287.837
287.81
287.759
287.735
287.687
287.666
287.627
287.613
287.581
287.574
287.548
287.543
287.522
287.514
287.499
287.492
287.484
287.481
287.479
287.481
287.486
287.495
287.505
287.523
287.539
287.564
287.586
287.618
287.642
287.685
287.714
287.75
287.78
287.81
287.852
287.883
287.928
287.963
288.012
288.048
288.1
288.126
288.189
288.219
288.274
288.308
288.344
288.401
288.439
288.501
288.538
288.599
288.631
288.688
288.715
288.768
288.792
288.845
288.871
288.925
288.952
289.006
289.033
289.085
289.11
289.157
289.176
289.218
289.231
289.267
289.28
289.308
289.322
289.341
289.355
289.368
289.379
289.388
289.395
289.399
289.402
289.402
289.402
289.398
289.398
289.389
289.387
289.368
289.36
289.329
289.315
289.276
289.26
289.216
289.199
289.154
289.137
289.086
289.066
289.01
288.986
288.926
288.898
288.834
288.801
288.734
288.695
288.626
288.585
288.51
288.466
288.391
288.346
288.273
288.228
288.158
288.116
288.049
288.007
287.945
287.91
287.844
287.81
287.751
287.718
287.671
287.635
287.599
287.565
287.538
287.511
287.491
287.472
287.456
287.441
287.428
287.416
287.406
287.399
287.395
287.393
287.394
287.399
287.406
287.417
287.426
287.446
287.457
287.474
287.486
287.501
287.522
287.538
287.562
287.581
287.609
287.632
287.667
287.694
287.734
287.763
287.804
287.835
287.877
287.908
287.951
287.982
288.026
288.058
288.104
288.137
288.186
288.223
288.276
288.312
288.378
288.416
288.489
288.529
288.578
288.632
288.675
288.739
288.784
288.851
288.898
288.97
289.02
289.099
289.146
289.229
289.274
289.369
289.421
289.484
289.549
289.599
289.679
289.724
289.806
289.85
289.933
289.978
290.063
290.109
290.196
290.243
290.332
290.381
290.47
290.516
290.603
290.647
290.734
290.776
290.863
290.901
290.985
291.025
291.104
291.148
291.227
291.272
291.35
291.392
291.468
291.51
291.582
291.621
291.693
291.729
291.8
291.836
291.902
291.936
291.999
292.03
292.092
292.122
292.18
292.207
292.263
292.288
292.344
292.364
292.419
292.434
292.491
292.518
292.548
292.588
292.607
292.653
292.671
292.715
292.731
292.773
292.786
292.829
292.838
292.883
292.895
292.925
292.943
292.957
292.99
293.003
293.039
293.049
293.084
293.093
293.123
293.129
293.161
293.168
293.202
293.207
293.238
293.241
293.267
293.278
293.289
293.313
293.32
293.347
293.351
293.374
293.377
293.399
293.401
293.422
293.423
293.441
293.444
293.46
293.463
293.477
293.479
293.493
293.495
293.507
293.51
293.52
293.524
293.532
293.537
293.543
293.548
293.554
293.559
293.564
293.568
293.573
293.578
293.582
293.587
293.591
293.595
293.599
293.603
293.606
293.61
293.612
293.616
293.618
293.622
293.623
293.627
293.628
293.631
293.631
293.635
293.635
293.638
293.638
293.641
293.641
293.644
293.644
293.646
293.646
293.649
293.649
293.65
293.65
293.652
293.651
293.652
293.652
293.652
293.652
293.652
293.652
293.651
293.651
293.649
293.649
293.647
293.647
293.644
293.644
293.642
293.641
293.639
293.637
293.635
293.632
293.631
293.628
293.626
293.622
293.619
293.616
293.612
293.608
293.605
293.601
293.597
293.592
293.588
293.584
293.579
293.575
293.571
293.567
293.562
293.555
293.547
293.54
293.537
287.497
287.494
287.488
287.472
287.448
287.406
287.339
287.241
287.079
286.897
286.643
286.404
286.134
285.895
285.665
285.471
285.307
285.173
285.067
284.982
284.913
284.854
284.804
284.762
284.724
284.692
284.666
284.647
284.633
284.624
284.617
284.614
284.613
284.615
284.622
284.638
284.657
284.687
284.705
284.731
284.712
284.739
284.72
284.746
284.735
284.771
284.777
284.815
284.823
284.824
284.846
284.877
284.931
284.968
285.034
285.077
285.15
285.202
285.286
285.35
285.446
285.522
285.621
285.706
285.807
285.902
286.006
286.11
286.223
286.343
286.471
286.61
286.757
286.91
287.068
287.231
287.393
287.556
287.714
287.868
288.012
288.148
288.267
288.375
288.462
288.537
288.591
288.634
288.658
288.674
288.663
288.656
288.613
288.6
288.537
288.519
288.447
288.424
288.35
288.317
288.242
288.2
288.136
288.103
288.033
288.005
287.952
287.93
287.905
287.855
287.827
287.772
287.747
287.696
287.674
287.628
287.611
287.575
287.564
287.535
287.531
287.505
287.502
287.481
287.475
287.462
287.457
287.452
287.451
287.452
287.459
287.466
287.481
287.492
287.516
287.533
287.564
287.585
287.623
287.649
287.693
287.72
287.75
287.788
287.816
287.861
287.891
287.94
287.972
288.024
288.054
288.113
288.136
288.203
288.235
288.276
288.323
288.358
288.422
288.454
288.521
288.55
288.613
288.639
288.698
288.719
288.776
288.798
288.853
288.877
288.935
288.959
289.016
289.038
289.093
289.111
289.159
289.172
289.214
289.224
289.257
289.267
289.291
289.305
289.321
289.334
289.345
289.355
289.361
289.366
289.369
289.371
289.369
289.37
289.366
289.367
289.352
289.35
289.32
289.312
289.272
289.261
289.214
289.203
289.154
289.144
289.091
289.079
289.02
289.003
288.939
288.92
288.852
288.826
288.756
288.725
288.65
288.616
288.537
288.5
288.418
288.381
288.298
288.259
288.181
288.142
288.067
288.032
287.959
287.922
287.855
287.822
287.752
287.724
287.669
287.637
287.596
287.56
287.528
287.497
287.474
287.45
287.431
287.414
287.399
287.386
287.374
287.364
287.355
287.351
287.348
287.348
287.351
287.359
287.362
287.379
287.386
287.407
287.417
287.43
287.451
287.464
287.49
287.503
287.534
287.549
287.585
287.603
287.644
287.667
287.71
287.734
287.778
287.801
287.847
287.872
287.92
287.947
287.997
288.024
288.077
288.105
288.161
288.196
288.256
288.283
288.365
288.403
288.466
288.512
288.551
288.619
288.657
288.728
288.768
288.84
288.881
288.957
289
289.084
289.12
289.217
289.263
289.349
289.404
289.449
289.533
289.573
289.661
289.694
289.785
289.819
289.911
289.947
290.042
290.078
290.174
290.211
290.31
290.349
290.445
290.478
290.575
290.61
290.708
290.741
290.837
290.864
290.955
290.987
291.072
291.107
291.193
291.229
291.313
291.345
291.426
291.459
291.537
291.568
291.646
291.675
291.751
291.778
291.849
291.874
291.943
291.967
292.033
292.055
292.118
292.136
292.196
292.215
292.277
292.287
292.353
292.374
292.418
292.454
292.472
292.523
292.536
292.587
292.596
292.644
292.654
292.701
292.707
292.758
292.766
292.813
292.824
292.848
292.871
292.881
292.919
292.928
292.967
292.974
293.012
293.016
293.048
293.049
293.087
293.091
293.13
293.131
293.161
293.165
293.185
293.202
293.206
293.236
293.24
293.27
293.271
293.294
293.295
293.318
293.32
293.342
293.342
293.361
293.362
293.38
293.38
293.396
293.398
293.411
293.412
293.424
293.427
293.436
293.441
293.447
293.452
293.457
293.462
293.466
293.471
293.475
293.48
293.484
293.488
293.492
293.496
293.5
293.504
293.508
293.512
293.514
293.519
293.521
293.525
293.526
293.531
293.531
293.535
293.535
293.539
293.539
293.543
293.542
293.545
293.545
293.548
293.548
293.55
293.55
293.552
293.552
293.553
293.553
293.554
293.554
293.555
293.554
293.555
293.555
293.555
293.555
293.554
293.554
293.552
293.552
293.55
293.551
293.548
293.548
293.546
293.545
293.543
293.541
293.54
293.537
293.536
293.532
293.531
293.527
293.525
293.521
293.519
293.515
293.511
293.507
293.504
293.499
293.495
293.491
293.487
293.482
293.478
293.474
293.47
293.465
293.46
293.452
293.445
293.442
287.492
287.49
287.478
287.467
287.44
287.398
287.325
287.217
287.065
286.837
286.615
286.334
286.09
285.84
285.627
285.438
285.281
285.155
285.054
284.973
284.907
284.85
284.801
284.759
284.724
284.694
284.672
284.655
284.645
284.639
284.638
284.638
284.64
284.645
284.658
284.676
284.715
284.742
284.782
284.776
284.809
284.78
284.815
284.782
284.817
284.792
284.828
284.816
284.821
284.797
284.781
284.79
284.79
284.829
284.839
284.891
284.904
284.96
284.986
285.064
285.103
285.172
285.215
285.291
285.352
285.428
285.498
285.579
285.665
285.76
285.867
285.983
286.112
286.25
286.399
286.557
286.724
286.896
287.075
287.255
287.437
287.611
287.782
287.936
288.081
288.201
288.309
288.392
288.464
288.508
288.538
288.537
288.543
288.515
288.508
288.451
288.44
288.37
288.349
288.274
288.237
288.165
288.134
288.072
288.046
287.98
287.95
287.913
287.876
287.851
287.793
287.765
287.712
287.687
287.639
287.618
287.578
287.562
287.531
287.521
287.494
287.491
287.467
287.464
287.446
287.441
287.432
287.429
287.427
287.43
287.434
287.446
287.455
287.475
287.49
287.519
287.542
287.575
287.596
287.638
287.667
287.704
287.735
287.76
287.803
287.831
287.877
287.907
287.956
287.987
288.038
288.065
288.127
288.163
288.218
288.257
288.29
288.347
288.38
288.442
288.474
288.537
288.566
288.626
288.652
288.709
288.734
288.786
288.813
288.866
288.89
288.944
288.969
289.023
289.045
289.098
289.113
289.159
289.171
289.208
289.217
289.244
289.256
289.275
289.288
289.301
289.313
289.322
289.33
289.334
289.339
289.339
289.341
289.339
289.341
289.333
289.332
289.308
289.303
289.266
289.257
289.213
289.203
289.154
289.145
289.093
289.083
289.026
289.013
288.949
288.932
288.862
288.84
288.768
288.742
288.664
288.636
288.553
288.522
288.437
288.402
288.317
288.281
288.195
288.161
288.078
288.044
287.966
287.932
287.857
287.825
287.755
287.726
287.661
287.633
287.586
287.551
287.515
287.481
287.453
287.425
287.403
287.382
287.364
287.348
287.334
287.323
287.311
287.303
287.295
287.292
287.29
287.293
287.294
287.306
287.307
287.329
287.337
287.352
287.37
287.381
287.41
287.419
287.449
287.461
287.495
287.51
287.548
287.566
287.609
287.629
287.674
287.696
287.742
287.763
287.813
287.836
287.889
287.917
287.971
287.998
288.053
288.085
288.145
288.176
288.242
288.273
288.353
288.396
288.441
288.503
288.543
288.613
288.652
288.724
288.763
288.837
288.876
288.951
288.989
289.076
289.111
289.211
289.264
289.325
289.396
289.433
289.523
289.556
289.643
289.676
289.766
289.802
289.894
289.931
290.027
290.06
290.156
290.193
290.294
290.325
290.42
290.456
290.559
290.589
290.691
290.72
290.816
290.843
290.929
290.959
291.044
291.076
291.16
291.192
291.274
291.304
291.385
291.413
291.493
291.522
291.599
291.628
291.701
291.726
291.797
291.82
291.89
291.912
291.98
291.996
292.061
292.072
292.135
292.151
292.218
292.236
292.293
292.326
292.351
292.401
292.412
292.468
292.476
292.526
292.534
292.585
292.594
292.641
292.646
292.701
292.711
292.757
292.767
292.789
292.814
292.825
292.865
292.872
292.912
292.918
292.953
292.955
292.986
292.988
293.032
293.037
293.072
293.072
293.097
293.105
293.118
293.141
293.144
293.177
293.181
293.209
293.209
293.229
293.23
293.256
293.257
293.278
293.277
293.296
293.297
293.316
293.316
293.332
293.332
293.346
293.348
293.358
293.362
293.369
293.373
293.379
293.383
293.387
293.391
293.395
293.399
293.403
293.407
293.411
293.415
293.419
293.423
293.426
293.43
293.433
293.437
293.44
293.444
293.446
293.451
293.451
293.456
293.456
293.46
293.46
293.464
293.464
293.467
293.467
293.469
293.469
293.471
293.471
293.472
293.472
293.473
293.473
293.474
293.473
293.474
293.474
293.474
293.474
293.474
293.474
293.473
293.473
293.472
293.472
293.47
293.47
293.468
293.468
293.466
293.465
293.463
293.462
293.46
293.458
293.456
293.453
293.452
293.448
293.446
293.442
293.44
293.436
293.433
293.429
293.425
293.421
293.417
293.413
293.409
293.405
293.401
293.397
293.393
293.388
293.384
293.379
293.372
293.365
293.362
287.485
287.48
287.472
287.455
287.436
287.388
287.317
287.196
287.019
286.816
286.549
286.306
286.042
285.815
285.6
285.418
285.268
285.146
285.049
284.97
284.905
284.852
284.804
284.768
284.734
284.714
284.697
284.689
284.685
284.686
284.69
284.697
284.703
284.715
284.728
284.762
284.789
284.838
284.838
284.875
284.844
284.874
284.846
284.887
284.86
284.897
284.859
284.886
284.839
284.819
284.759
284.711
284.706
284.686
284.71
284.705
284.731
284.713
284.755
284.774
284.818
284.8
284.835
284.857
284.901
284.931
284.977
285.022
285.08
285.145
285.222
285.312
285.414
285.529
285.657
285.8
285.958
286.131
286.316
286.516
286.722
286.937
287.149
287.362
287.558
287.746
287.906
288.054
288.174
288.276
288.341
288.395
288.412
288.434
288.416
288.416
288.368
288.359
288.293
288.27
288.2
288.17
288.114
288.086
288.026
287.989
287.937
287.903
287.871
287.821
287.792
287.734
287.709
287.657
287.634
287.59
287.573
287.536
287.525
287.495
287.489
287.464
287.46
287.441
287.436
287.423
287.419
287.415
287.415
287.416
287.424
287.432
287.448
287.462
287.487
287.505
287.538
287.561
287.596
287.623
287.666
287.697
287.727
287.762
287.786
287.831
287.857
287.905
287.932
287.981
288.012
288.064
288.1
288.163
288.203
288.242
288.289
288.323
288.379
288.413
288.471
288.506
288.564
288.596
288.653
288.683
288.736
288.763
288.812
288.838
288.888
288.913
288.962
288.988
289.035
289.057
289.103
289.119
289.16
289.172
289.205
289.215
289.236
289.249
289.264
289.276
289.286
289.296
289.303
289.309
289.312
289.315
289.315
289.317
289.311
289.312
289.294
289.29
289.26
289.252
289.213
289.202
289.159
289.147
289.1
289.087
289.035
289.019
288.962
288.943
288.878
288.855
288.786
288.759
288.686
288.655
288.576
288.542
288.461
288.425
288.342
288.304
288.22
288.181
288.099
288.061
287.982
287.948
287.869
287.832
287.763
287.731
287.663
287.635
287.582
287.548
287.509
287.472
287.443
287.411
287.386
287.361
287.339
287.321
287.303
287.291
287.278
287.268
287.256
287.251
287.244
287.243
287.241
287.248
287.248
287.266
287.272
287.291
287.305
287.315
287.341
287.35
287.379
287.391
287.423
287.438
287.473
287.491
287.529
287.55
287.591
287.614
287.658
287.682
287.729
287.754
287.805
287.833
287.887
287.917
287.975
288.006
288.065
288.1
288.159
288.187
288.261
288.304
288.365
288.414
288.454
288.523
288.565
288.637
288.677
288.749
288.788
288.859
288.901
288.974
289.015
289.102
289.149
289.231
289.289
289.332
289.409
289.449
289.533
289.574
289.655
289.699
289.781
289.825
289.911
289.953
290.041
290.08
290.166
290.21
290.298
290.341
290.431
290.471
290.563
290.6
290.689
290.725
290.806
290.843
290.92
290.956
291.034
291.069
291.147
291.181
291.257
291.291
291.364
291.398
291.471
291.501
291.579
291.603
291.676
291.703
291.768
291.796
291.86
291.886
291.95
291.971
292.033
292.043
292.105
292.125
292.187
292.219
292.258
292.301
292.314
292.366
292.379
292.432
292.439
292.487
292.501
292.555
292.56
292.601
292.613
292.669
292.678
292.721
292.729
292.753
292.779
292.793
292.836
292.838
292.871
292.88
292.915
292.915
292.951
292.953
292.995
293.001
293.031
293.03
293.055
293.066
293.074
293.102
293.103
293.138
293.141
293.167
293.166
293.185
293.188
293.213
293.213
293.233
293.232
293.252
293.253
293.271
293.271
293.286
293.287
293.299
293.302
293.31
293.314
293.32
293.323
293.328
293.331
293.336
293.339
293.343
293.347
293.35
293.354
293.358
293.362
293.365
293.369
293.372
293.376
293.379
293.384
293.386
293.39
293.392
293.396
293.397
293.402
293.402
293.406
293.406
293.409
293.409
293.411
293.411
293.413
293.413
293.414
293.414
293.415
293.414
293.415
293.414
293.414
293.414
293.414
293.413
293.414
293.413
293.413
293.413
293.411
293.411
293.41
293.41
293.408
293.408
293.406
293.405
293.403
293.402
293.4
293.398
293.397
293.394
293.392
293.389
293.387
293.383
293.381
293.377
293.374
293.37
293.367
293.363
293.359
293.355
293.351
293.347
293.343
293.339
293.335
293.33
293.326
293.322
293.317
293.311
293.305
293.302
287.475
287.47
287.457
287.452
287.425
287.384
287.296
287.179
287.002
286.77
286.538
286.272
286.034
285.799
285.591
285.412
285.263
285.144
285.05
284.973
284.915
284.862
284.828
284.791
284.773
284.755
284.75
284.75
284.755
284.766
284.781
284.794
284.811
284.823
284.849
284.865
284.912
284.914
284.947
284.919
284.948
284.916
284.951
284.955
284.981
284.965
284.976
284.931
284.899
284.837
284.775
284.701
284.636
284.628
284.593
284.612
284.584
284.584
284.577
284.599
284.557
284.545
284.508
284.517
284.507
284.514
284.518
284.538
284.563
284.6
284.646
284.705
284.777
284.862
284.962
285.079
285.215
285.37
285.547
285.743
285.961
286.192
286.439
286.687
286.939
287.177
287.409
287.612
287.802
287.957
288.09
288.181
288.262
288.299
288.333
288.323
288.327
288.29
288.281
288.222
288.205
288.153
288.121
288.069
288.036
287.978
287.94
287.897
287.859
287.824
287.774
287.746
287.691
287.662
287.618
287.595
287.555
287.539
287.509
287.497
287.473
287.465
287.445
287.439
287.424
287.419
287.411
287.41
287.409
287.411
287.417
287.43
287.442
287.462
287.481
287.509
287.53
287.563
287.588
287.627
287.66
287.698
287.73
287.755
287.793
287.821
287.865
287.892
287.939
287.968
288.015
288.05
288.107
288.152
288.204
288.242
288.278
288.329
288.361
288.417
288.451
288.51
288.547
288.603
288.637
288.69
288.721
288.771
288.799
288.845
288.873
288.917
288.942
288.988
289.012
289.056
289.077
289.118
289.134
289.168
289.182
289.206
289.22
289.237
289.25
289.262
289.272
289.279
289.286
289.29
289.294
289.296
289.298
289.296
289.296
289.283
289.278
289.255
289.247
289.216
289.205
289.169
289.156
289.116
289.098
289.054
289.032
288.982
288.959
288.903
288.875
288.815
288.782
288.718
288.683
288.613
288.573
288.5
288.458
288.383
288.339
288.261
288.216
288.139
288.094
288.017
287.974
287.901
287.856
287.789
287.749
287.685
287.653
287.595
287.561
287.517
287.479
287.446
287.412
287.385
287.357
287.334
287.313
287.292
287.278
287.263
287.253
287.24
287.232
287.222
287.218
287.214
287.215
287.215
287.228
287.233
287.253
287.265
287.276
287.296
287.307
287.332
287.346
287.375
287.393
287.426
287.445
287.48
287.501
287.539
287.562
287.604
287.629
287.675
287.701
287.749
287.779
287.829
287.861
287.915
287.951
288.01
288.043
288.103
288.136
288.199
288.239
288.308
288.352
288.402
288.454
288.496
288.57
288.614
288.683
288.722
288.792
288.835
288.905
288.95
289.024
289.071
289.155
289.206
289.268
289.33
289.376
289.448
289.497
289.575
289.624
289.703
289.747
289.828
289.874
289.953
290.002
290.081
290.126
290.201
290.255
290.339
290.385
290.465
290.509
290.59
290.636
290.714
290.754
290.835
290.87
290.949
290.982
291.062
291.094
291.174
291.204
291.28
291.31
291.385
291.415
291.493
291.522
291.596
291.621
291.69
291.716
291.78
291.806
291.87
291.897
291.958
291.981
292.042
292.056
292.118
292.143
292.191
292.225
292.248
292.294
292.307
292.354
292.373
292.426
292.435
292.479
292.5
292.552
292.553
292.589
292.606
292.66
292.661
292.698
292.708
292.739
292.77
292.787
292.823
292.822
292.846
292.858
292.895
292.897
292.935
292.934
292.968
292.972
293.007
293.008
293.03
293.045
293.049
293.08
293.08
293.114
293.117
293.141
293.139
293.159
293.162
293.186
293.185
293.204
293.205
293.224
293.225
293.241
293.243
293.255
293.259
293.267
293.271
293.277
293.281
293.286
293.289
293.294
293.297
293.301
293.304
293.308
293.311
293.315
293.319
293.322
293.326
293.329
293.333
293.337
293.341
293.343
293.348
293.35
293.354
293.355
293.359
293.36
293.364
293.365
293.368
293.368
293.37
293.371
293.372
293.372
293.373
293.373
293.373
293.373
293.373
293.373
293.373
293.372
293.372
293.371
293.371
293.37
293.37
293.369
293.369
293.368
293.367
293.366
293.365
293.364
293.363
293.362
293.36
293.359
293.358
293.356
293.354
293.352
293.35
293.347
293.345
293.342
293.339
293.336
293.333
293.329
293.326
293.322
293.318
293.314
293.311
293.306
293.303
293.299
293.295
293.29
293.286
293.282
293.278
293.273
293.267
293.262
293.259
287.467
287.457
287.457
287.439
287.421
287.368
287.291
287.15
286.98
286.769
286.519
286.274
286.027
285.796
285.589
285.412
285.265
285.152
285.06
284.998
284.938
284.905
284.865
284.849
284.83
284.825
284.825
284.832
284.849
284.873
284.897
284.922
284.942
284.969
284.983
285.015
285.017
285.042
285.023
285.042
285.017
285.048
285.04
285.066
285.071
285.064
285.034
284.996
284.949
284.868
284.81
284.712
284.643
284.574
284.576
284.537
284.546
284.504
284.526
284.449
284.426
284.324
284.308
284.246
284.228
284.192
284.178
284.168
284.17
284.179
284.199
284.231
284.273
284.329
284.398
284.485
284.589
284.715
284.864
285.04
285.241
285.47
285.719
285.991
286.268
286.557
286.833
287.106
287.349
287.576
287.765
287.929
288.045
288.15
288.2
288.244
288.243
288.251
288.225
288.222
288.181
288.164
288.114
288.08
288.023
287.985
287.934
287.898
287.858
287.814
287.78
287.73
287.699
287.651
287.624
287.584
287.563
287.53
287.514
287.489
287.476
287.457
287.447
287.431
287.423
287.413
287.409
287.406
287.406
287.408
287.416
287.426
287.442
287.458
287.482
287.504
287.534
287.558
287.592
287.621
287.662
287.697
287.727
287.761
287.787
287.826
287.856
287.899
287.93
287.975
288.009
288.059
288.099
288.157
288.201
288.242
288.283
288.318
288.369
288.405
288.461
288.498
288.554
288.593
288.645
288.68
288.728
288.761
288.805
288.836
288.878
288.907
288.95
288.978
289.021
289.041
289.084
289.102
289.137
289.155
289.181
289.197
289.218
289.232
289.246
289.258
289.267
289.274
289.278