/*--------------------------------*- C++ -*----------------------------------*\
| =========                 |                                                 |
| \\      /  F ield         | OpenFOAM: The Open Source CFD Toolbox           |
|  \\    /   O peration     | Version:  v1812                                 |
|   \\  /    A nd           | Web:      www.OpenFOAM.com                      |
|    \\/     M anipulation  |                                                 |
\*---------------------------------------------------------------------------*/
FoamFile
{
    version     2.0;
    format      ascii;
    class       volVectorField;
    location    "0.2";
    object      U;
}
// * * * * * * * * * * * * * * * * * * * * * * * * * * * * * * * * * * * * * //

dimensions      [0 1 -1 0 0 0 0];


internalField   nonuniform List<vector> 
20400
(
(-0.00703772 -0.00968425 0)
(-0.0120179 -0.00566221 0)
(-0.0264095 -0.000994332 0)
(-0.0508495 -0.00434787 0)
(-0.0837933 -0.0127884 0)
(-0.126318 -0.0250014 0)
(-0.150791 -0.0573834 0)
(-0.23083 -0.0385024 0)
(-0.264252 -0.0658108 0)
(-0.406611 -0.0170614 0)
(-0.466144 -0.0471768 0)
(-0.651627 -0.00717389 0)
(-0.741872 -0.0397051 0)
(-0.947013 -0.00330352 0)
(-1.07371 -0.0291778 0)
(-1.30501 0.00463728 0)
(-1.48906 -0.0112806 0)
(-1.77168 0.0210805 0)
(-2.03794 0.0119501 0)
(-2.39509 0.0451981 0)
(-2.76383 0.0392449 0)
(-3.21603 0.0704117 0)
(-3.70084 0.0660401 0)
(-4.26045 0.0910541 0)
(-4.86869 0.0837745 0)
(-5.54629 0.0947955 0)
(-6.27332 0.0892379 0)
(-7.06072 0.101728 0)
(-7.88815 0.106867 0)
(-8.74974 0.12546 0)
(-9.62879 0.146451 0)
(-10.5072 0.171549 0)
(-11.3528 0.186559 0)
(-12.1259 0.171654 0)
(-12.7806 0.130429 0)
(-13.2727 0.0657375 0)
(-13.5789 -0.0177476 0)
(-13.705 -0.0667832 0)
(-13.6843 -0.132511 0)
(-13.4729 -0.228824 0)
(-13.2037 -0.342029 0)
(-12.7875 -0.334712 0)
(-12.4114 -0.226043 0)
(-11.8719 -0.0869412 0)
(-11.4008 0.04586 0)
(-10.7508 0.187563 0)
(-10.1422 0.349095 0)
(-9.36921 0.428225 0)
(-8.62576 0.523656 0)
(-7.78819 0.516358 0)
(-6.97412 0.5151 0)
(-6.11552 0.455831 0)
(-5.26919 0.382977 0)
(-4.41731 0.266132 0)
(-3.57958 0.127343 0)
(-2.76332 -0.0413483 0)
(-1.98055 -0.208914 0)
(-1.24604 -0.345457 0)
(-0.586779 -0.378253 0)
(-0.0374848 -0.24559 0)
(0.389858 -0.0718597 0)
(0.769236 0.0155675 0)
(1.11629 0.00220131 0)
(1.46669 -0.0322189 0)
(1.81001 -0.0216119 0)
(2.14516 -0.0102672 0)
(2.46685 0.02223 0)
(2.7734 0.0214642 0)
(3.07561 0.0225197 0)
(3.35733 0.0074564 0)
(3.6357 -0.000261971 0)
(3.88826 0.00359746 0)
(4.12218 0.00424541 0)
(4.32601 0.0103085 0)
(4.5093 0.00695744 0)
(4.66105 0.00567197 0)
(4.78913 0.00408848 0)
(4.88873 0.00493667 0)
(4.96731 0.00628764 0)
(5.02042 0.00820223 0)
(5.05559 0.00944574 0)
(5.07022 0.00941092 0)
(5.06804 0.0108551 0)
(5.03991 0.00983445 0)
(5.0135 0.0146628 0)
(4.94197 -0.000350608 0)
(4.90851 0.0135021 0)
(4.7959 -0.0070947 0)
(4.76565 0.0131545 0)
(4.62564 -0.0120949 0)
(4.59906 0.0105049 0)
(4.44371 -0.0165153 0)
(4.41897 0.00787196 0)
(4.25643 -0.021399 0)
(4.23332 0.00205696 0)
(4.06744 -0.0266316 0)
(4.046 -0.000560669 0)
(3.87719 -0.0279 0)
(3.85953 -0.00514426 0)
(3.68219 -0.024634 0)
(3.66968 -0.012923 0)
(3.48757 -0.0188161 0)
(3.46978 -0.0196045 0)
(3.30434 -0.00309095 0)
(3.2528 -0.0331189 0)
(3.14196 0.000923164 0)
(3.04046 -0.0312888 0)
(2.97721 0.00137677 0)
(2.82264 -0.023018 0)
(2.79059 -0.00615802 0)
(2.61985 -0.00634025 0)
(2.59494 -0.0117869 0)
(2.43578 -0.00223264 0)
(2.40932 -0.0123503 0)
(2.26001 0.000142274 0)
(2.22866 -0.0107423 0)
(2.09532 0.00201683 0)
(2.0597 -0.00830691 0)
(1.94355 0.00368145 0)
(1.90178 -0.00521733 0)
(1.80331 0.00427821 0)
(1.75751 -0.00134154 0)
(1.67474 0.00594191 0)
(1.62734 0.0038466 0)
(1.55733 0.00920551 0)
(1.51268 0.00908824 0)
(1.45745 0.0139015 0)
(1.42186 0.0143671 0)
(1.3763 0.0193711 0)
(1.3439 0.0203914 0)
(1.30572 0.0264322 0)
(1.28143 0.0270405 0)
(1.25305 0.0334492 0)
(1.23945 0.034174 0)
(1.22234 0.0395599 0)
(1.21887 0.0412598 0)
(1.21128 0.0454232 0)
(1.22234 0.0496829 0)
(1.22261 0.0552332 0)
(1.23746 0.0508083 0)
(1.25302 0.0618155 0)
(1.26431 0.0540905 0)
(1.30656 0.0698182 0)
(1.31158 0.0632189 0)
(1.37276 0.0776261 0)
(1.3751 0.0713439 0)
(1.45437 0.0818678 0)
(1.45921 0.0736395 0)
(1.55215 0.0857666 0)
(1.55749 0.0754111 0)
(1.6687 0.0856549 0)
(1.68129 0.0828852 0)
(1.78027 0.0766881 0)
(1.82801 0.099253 0)
(1.88337 0.0731188 0)
(1.98198 0.0984034 0)
(2.01286 0.0752688 0)
(2.14545 0.0949044 0)
(2.16408 0.0739812 0)
(2.31462 0.0826998 0)
(2.32739 0.0692983 0)
(2.48804 0.0776299 0)
(2.49978 0.06609 0)
(2.66516 0.0734147 0)
(2.67679 0.0646709 0)
(2.84418 0.0711232 0)
(2.8567 0.0637309 0)
(3.02226 0.0657774 0)
(3.03732 0.0598067 0)
(3.19967 0.0595264 0)
(3.21689 0.0534855 0)
(3.37221 0.0526297 0)
(3.39176 0.0490996 0)
(3.53694 0.0502952 0)
(3.56003 0.0528066 0)
(3.69473 0.0496346 0)
(3.72489 0.0580847 0)
(3.84405 0.0462905 0)
(3.88476 0.0562884 0)
(3.98154 0.0422338 0)
(4.03431 0.0505464 0)
(4.10864 0.0400352 0)
(4.16632 0.0435019 0)
(4.22244 0.0366779 0)
(4.27627 0.039918 0)
(4.31909 0.0337202 0)
(4.36587 0.0330108 0)
(4.39842 0.0294623 0)
(4.43618 0.0274347 0)
(4.46055 0.0242278 0)
(4.49092 0.0267576 0)
(4.50516 0.0218342 0)
(4.52764 0.0226908 0)
(4.53378 0.0181354 0)
(4.54435 0.0162729 0)
(4.53858 0.00862159 0)
(4.5373 0.00960305 0)
(4.51192 -0.00617688 0)
(4.50658 0.00247755 0)
(4.46053 -0.0161048 0)
(4.45412 -0.0034296 0)
(4.38546 -0.0244922 0)
(4.38164 -0.0142675 0)
(4.28857 -0.0240947 0)
(4.28377 -0.0121196 0)
(4.17316 -0.0257666 0)
(4.16396 -0.00863605 0)
(4.04121 -0.0302922 0)
(4.02833 -0.0106735 0)
(3.88964 -0.0317954 0)
(3.87616 -0.0123761 0)
(3.71975 -0.0323741 0)
(3.7086 -0.0163597 0)
(3.533 -0.0320387 0)
(3.52157 -0.0204126 0)
(3.3348 -0.0346823 0)
(3.32525 -0.0258297 0)
(3.1227 -0.0394214 0)
(3.11281 -0.0319804 0)
(2.90399 -0.0383664 0)
(2.89181 -0.0369977 0)
(2.68125 -0.044069 0)
(2.66617 -0.0402312 0)
(2.45552 -0.0443059 0)
(2.44006 -0.0433495 0)
(2.23172 -0.0435223 0)
(2.21405 -0.0469213 0)
(2.01666 -0.0388168 0)
(1.99087 -0.0509005 0)
(1.81482 -0.0325083 0)
(1.77541 -0.0541691 0)
(1.63181 -0.0260421 0)
(1.57466 -0.047395 0)
(1.46494 -0.0233024 0)
(1.39232 -0.0384098 0)
(1.3094 -0.0221481 0)
(1.23121 -0.0249801 0)
(1.16457 -0.0174018 0)
(1.09286 -0.011899 0)
(1.03417 -0.00834475 0)
(0.975365 -0.000634335 0)
(0.922325 0.00153071 0)
(0.877762 0.00992868 0)
(0.832364 0.0129203 0)
(0.799474 0.019869 0)
(0.762197 0.0236925 0)
(0.73731 0.0295271 0)
(0.706609 0.034854 0)
(0.687171 0.0406578 0)
(0.662138 0.0455057 0)
(0.647838 0.0515494 0)
(0.628099 0.0559408 0)
(0.617417 0.061126 0)
(0.601787 0.0652807 0)
(0.59718 0.0701711 0)
(0.586808 0.0749475 0)
(0.58406 0.0788688 0)
(0.582106 0.0833834 0)
(0.581366 0.0836522 0)
(0.587982 0.0893846 0)
(0.587828 0.0886027 0)
(0.598956 0.0952794 0)
(0.597956 0.0937919 0)
(0.61448 0.100279 0)
(0.614145 0.0985534 0)
(0.636906 0.105021 0)
(0.63705 0.102442 0)
(0.664617 0.108641 0)
(0.664497 0.105607 0)
(0.697445 0.111472 0)
(0.697644 0.108358 0)
(0.732927 0.114242 0)
(0.734638 0.110266 0)
(0.773755 0.115897 0)
(0.775525 0.111707 0)
(0.819518 0.11739 0)
(0.821512 0.112667 0)
(0.870588 0.118096 0)
(0.87325 0.113207 0)
(0.926826 0.119742 0)
(0.929889 0.113992 0)
(0.987304 0.120594 0)
(0.990158 0.113738 0)
(1.05323 0.122114 0)
(1.05581 0.112411 0)
(1.12514 0.117282 0)
(1.13882 0.124671 0)
(1.17671 0.107671 0)
(1.22569 0.123819 0)
(1.24227 0.10783 0)
(1.31628 0.122313 0)
(1.32268 0.11055 0)
(1.4028 0.119888 0)
(1.40661 0.109192 0)
(1.49661 0.117771 0)
(1.49949 0.106515 0)
(1.59448 0.11574 0)
(1.59792 0.104144 0)
(1.69538 0.114827 0)
(1.70065 0.100682 0)
(1.80401 0.110329 0)
(1.82049 0.110659 0)
(1.88522 0.0943383 0)
(1.94374 0.115294 0)
(1.97271 0.0917559 0)
(2.07223 0.110552 0)
(2.08433 0.0935268 0)
(2.19597 0.10756 0)
(2.20323 0.092371 0)
(2.31927 0.105499 0)
(2.32645 0.0903068 0)
(2.44476 0.103974 0)
(2.45318 0.0878468 0)
(2.57359 0.102014 0)
(2.58278 0.0853426 0)
(2.70381 0.100398 0)
(2.71352 0.0833525 0)
(2.83516 0.0982112 0)
(2.84583 0.0811619 0)
(2.96781 0.0965983 0)
(2.97897 0.0788547 0)
(3.10178 0.0943663 0)
(3.11327 0.0770229 0)
(3.23725 0.0927547 0)
(3.24921 0.0757047 0)
(3.37337 0.0921102 0)
(3.38585 0.0743404 0)
(3.5105 0.0896191 0)
(3.52318 0.0713888 0)
(3.64963 0.0871084 0)
(3.66293 0.069872 0)
(3.79206 0.0842642 0)
(3.80386 0.0683945 0)
(3.93282 0.0817791 0)
(3.94444 0.066205 0)
(4.0718 0.0793228 0)
(4.08367 0.0639287 0)
(4.21261 0.0752209 0)
(4.22309 0.0611002 0)
(4.35117 0.0728283 0)
(4.36198 0.0590391 0)
(4.48756 0.0707716 0)
(4.49894 0.0573365 0)
(4.62287 0.0682495 0)
(4.63451 0.0552389 0)
(4.75788 0.0668082 0)
(4.76958 0.0533563 0)
(4.8924 0.0637386 0)
(4.90433 0.0516501 0)
(5.02558 0.062691 0)
(5.03677 0.0504889 0)
(5.15661 0.0597967 0)
(5.16769 0.0479155 0)
(5.28538 0.0590701 0)
(5.29897 0.047355 0)
(5.41138 0.0536595 0)
(5.44015 0.0552604 0)
(5.51134 0.0461691 0)
(5.57478 0.064042 0)
(5.60926 0.0441597 0)
(5.70789 0.0593664 0)
(5.72828 0.0459066 0)
(5.83281 0.0550592 0)
(5.84616 0.0439681 0)
(5.94899 0.0529547 0)
(5.96038 0.0417294 0)
(6.06111 0.0511921 0)
(6.07327 0.0402862 0)
(6.17153 0.0467353 0)
(6.19422 0.051385 0)
(6.26628 0.0385576 0)
(6.31656 0.0552397 0)
(6.355 0.0381798 0)
(6.43463 0.0511664 0)
(6.45196 0.0380594 0)
(6.54377 0.0460936 0)
(6.55339 0.0365223 0)
(6.644 0.0436887 0)
(6.65218 0.0350274 0)
(6.73995 0.0430983 0)
(6.74691 0.0359708 0)
(6.83322 0.039934 0)
(6.83953 0.0356367 0)
(6.92385 0.0389418 0)
(6.93089 0.0351826 0)
(7.00981 0.0340046 0)
(7.02224 0.0366077 0)
(7.08549 0.0281978 0)
(7.11319 0.0395146 0)
(7.14953 0.0271019 0)
(7.19746 0.0375865 0)
(7.21486 0.0262115 0)
(7.27446 0.0326854 0)
(7.28386 0.0253003 0)
(7.33975 0.0308702 0)
(7.34786 0.0233792 0)
(7.39877 0.0288525 0)
(7.40573 0.0223269 0)
(7.45131 0.0264451 0)
(7.45729 0.0211533 0)
(7.49734 0.0245913 0)
(7.50241 0.0197873 0)
(7.53747 0.0222474 0)
(7.54204 0.0185567 0)
(7.5717 0.0210294 0)
(7.57628 0.0169948 0)
(7.60087 0.0198121 0)
(7.60445 0.0163698 0)
(7.6249 0.0180581 0)
(7.62761 0.0158855 0)
(7.64404 0.0149551 0)
(7.64743 0.0147635 0)
(7.65698 0.0121267 0)
(7.66202 0.0125766 0)
(7.66712 0.010984 0)
(7.6715 0.010599 0)
(7.6745 0.00989658 0)
(7.67686 0.00933337 0)
(7.67847 0.00880875 0)
(7.67936 0.00829929 0)
(7.67955 0.00774299 0)
(7.67913 0.00731371 0)
(7.6782 0.00673987 0)
(7.67671 0.00642276 0)
(7.67476 0.00584917 0)
(7.6724 0.00561365 0)
(7.66961 0.0050495 0)
(7.66666 0.00486594 0)
(7.66314 0.00430755 0)
(7.65985 0.00417518 0)
(7.65569 0.00360637 0)
(7.65235 0.00354371 0)
(7.64754 0.00297118 0)
(7.64443 0.00298916 0)
(7.63892 0.0024133 0)
(7.63632 0.00250585 0)
(7.62998 0.00193802 0)
(7.62808 0.00209983 0)
(7.62089 0.00153186 0)
(7.6198 0.00181904 0)
(7.61194 0.0012079 0)
(7.61143 0.00152069 0)
(7.60341 0.000983045 0)
(7.60309 0.00128374 0)
(7.59499 0.000856344 0)
(7.59492 0.00107522 0)
(7.58707 0.000750352 0)
(7.58692 0.000928426 0)
(7.57915 0.000721681 0)
(7.57895 0.00073071 0)
(7.57147 0.00076725 0)
(7.5713 0.000612146 0)
(7.56367 0.000895852 0)
(7.56352 0.00049921 0)
(7.55632 0.00103713 0)
(7.55587 0.00061129 0)
(7.54869 0.00127991 0)
(7.5476 0.000538086 0)
(7.54184 0.00157425 0)
(7.53944 0.000706151 0)
(7.53618 0.00158152 0)
(7.53163 0.00105033 0)
(7.53051 0.00142034 0)
(7.52383 0.00160059 0)
(7.52355 0.00133432 0)
(7.51701 0.00202654 0)
(7.51668 0.00159021 0)
(7.5108 0.00243553 0)
(7.51015 0.00185139 0)
(7.50528 0.00284197 0)
(7.50386 0.00234897 0)
(7.50024 0.00312124 0)
(7.49784 0.00284699 0)
(7.49548 0.0033006 0)
(7.4925 0.00333477 0)
(7.491 0.00351825 0)
(7.48804 0.00389325 0)
(7.48687 0.00388549 0)
(7.48425 0.00443357 0)
(7.4831 0.00436567 0)
(7.48093 0.00496211 0)
(7.47975 0.00490099 0)
(7.47804 0.00547171 0)
(7.47689 0.00546721 0)
(7.47561 0.00599425 0)
(7.47459 0.00607211 0)
(7.47369 0.00653036 0)
(7.4729 0.00665811 0)
(7.47234 0.00705078 0)
(7.47184 0.00724229 0)
(7.47158 0.00758499 0)
(7.47137 0.00784461 0)
(7.47136 0.00814386 0)
(7.47145 0.00844065 0)
(7.47167 0.00875171 0)
(7.47197 0.00906025 0)
(7.47207 0.00953374 0)
(7.47237 0.0100671 0)
(7.47282 0.0104183 0)
(7.4713 0.0104511 0)
(-0.0138979 -0.0303114 0)
(-0.0167551 -0.0242781 0)
(-0.0350158 -0.0159325 0)
(-0.0464921 0.00689681 0)
(-0.1075 0.0295411 0)
(-0.144944 0.0422916 0)
(-0.321891 0.0928128 0)
(-0.405609 0.0609362 0)
(-0.741198 0.169038 0)
(-0.870417 0.129363 0)
(-1.30775 0.226934 0)
(-1.50048 0.203195 0)
(-1.98721 0.26986 0)
(-2.26071 0.265954 0)
(-2.78418 0.31799 0)
(-3.15567 0.345232 0)
(-3.741 0.401883 0)
(-4.23928 0.450298 0)
(-4.91779 0.520421 0)
(-5.56181 0.580757 0)
(-6.34872 0.661702 0)
(-7.1365 0.729765 0)
(-8.02555 0.811682 0)
(-8.92582 0.882228 0)
(-9.88315 0.966611 0)
(-10.8423 1.03996 0)
(-11.8153 1.1047 0)
(-12.765 1.1501 0)
(-13.6815 1.17803 0)
(-14.5316 1.18511 0)
(-15.3016 1.16946 0)
(-15.9693 1.11862 0)
(-16.5198 1.027 0)
(-16.9412 0.893475 0)
(-17.238 0.719661 0)
(-17.4159 0.506526 0)
(-17.4995 0.294744 0)
(-17.5048 0.117716 0)
(-17.3961 -0.0209715 0)
(-17.2459 -0.187803 0)
(-16.8914 -0.233392 0)
(-16.5482 -0.314096 0)
(-15.9705 -0.393007 0)
(-15.4142 -0.478352 0)
(-14.6538 -0.56424 0)
(-13.9252 -0.675088 0)
(-13.0173 -0.82403 0)
(-12.125 -0.909429 0)
(-11.0759 -1.04782 0)
(-10.0497 -1.0801 0)
(-8.91501 -1.18527 0)
(-7.81312 -1.20447 0)
(-6.63955 -1.2735 0)
(-5.50477 -1.27526 0)
(-4.34211 -1.30811 0)
(-3.23596 -1.27015 0)
(-2.16715 -1.23738 0)
(-1.20351 -1.12915 0)
(-0.311649 -0.991345 0)
(0.519455 -0.853752 0)
(1.38557 -0.758876 0)
(2.2291 -0.669824 0)
(3.0663 -0.602842 0)
(3.8236 -0.548927 0)
(4.54662 -0.53778 0)
(5.22161 -0.514304 0)
(5.85771 -0.507548 0)
(6.47396 -0.488617 0)
(7.04696 -0.464624 0)
(7.60758 -0.433307 0)
(8.11735 -0.402982 0)
(8.6065 -0.374386 0)
(9.03374 -0.339697 0)
(9.43025 -0.30477 0)
(9.77289 -0.265189 0)
(10.077 -0.227165 0)
(10.3292 -0.191906 0)
(10.5438 -0.160433 0)
(10.7113 -0.13153 0)
(10.8445 -0.104396 0)
(10.9336 -0.0802849 0)
(10.9936 -0.060902 0)
(11.0109 -0.0389689 0)
(11.0068 -0.0208113 0)
(10.9391 -0.00270908 0)
(10.914 0.0138994 0)
(10.7492 0.0138546 0)
(10.726 0.032614 0)
(10.4767 0.0127171 0)
(10.462 0.0367671 0)
(10.1578 0.00369108 0)
(10.1453 0.0312392 0)
(9.81347 -0.0103678 0)
(9.80109 0.0211125 0)
(9.45162 -0.0212311 0)
(9.44126 0.00970079 0)
(9.0825 -0.0353047 0)
(9.07539 -0.00705449 0)
(8.71187 -0.0431068 0)
(8.70785 -0.0260119 0)
(8.341 -0.0485026 0)
(8.34135 -0.0375725 0)
(7.96827 -0.0605296 0)
(7.94834 -0.0548611 0)
(7.64406 -0.0469255 0)
(7.52798 -0.0798038 0)
(7.38523 -0.0511212 0)
(7.11834 -0.0797167 0)
(7.0829 -0.063446 0)
(6.73504 -0.078349 0)
(6.7311 -0.0808281 0)
(6.41131 -0.0788852 0)
(6.39801 -0.0811543 0)
(6.08975 -0.0759313 0)
(6.07867 -0.0799138 0)
(5.79414 -0.0715635 0)
(5.77403 -0.0786007 0)
(5.52482 -0.0691882 0)
(5.48837 -0.0773463 0)
(5.27956 -0.0660324 0)
(5.22743 -0.070959 0)
(5.05677 -0.0597699 0)
(4.99387 -0.0609907 0)
(4.85559 -0.0517758 0)
(4.78956 -0.0497161 0)
(4.68052 -0.0410507 0)
(4.62336 -0.0370914 0)
(4.54262 -0.0283425 0)
(4.49541 -0.0238693 0)
(4.43035 -0.01334 0)
(4.39537 -0.00719764 0)
(4.34989 0.00389122 0)
(4.33314 0.00971177 0)
(4.30911 0.0190715 0)
(4.31451 0.0259974 0)
(4.30527 0.0370203 0)
(4.34643 0.0433101 0)
(4.34754 0.0524214 0)
(4.41538 0.0560666 0)
(4.44151 0.0769069 0)
(4.48398 0.0702877 0)
(4.58008 0.0961657 0)
(4.59341 0.085322 0)
(4.75014 0.107606 0)
(4.7521 0.104029 0)
(4.94017 0.116511 0)
(4.9443 0.112723 0)
(5.15291 0.12822 0)
(5.16428 0.122056 0)
(5.40204 0.141564 0)
(5.41061 0.128768 0)
(5.66873 0.151639 0)
(5.71897 0.147156 0)
(5.88406 0.145212 0)
(6.05052 0.168887 0)
(6.10704 0.142043 0)
(6.39337 0.164985 0)
(6.40688 0.150556 0)
(6.71988 0.167812 0)
(6.72266 0.155899 0)
(7.04503 0.173038 0)
(7.04981 0.155057 0)
(7.37503 0.173012 0)
(7.38042 0.15327 0)
(7.7043 0.167305 0)
(7.70872 0.146396 0)
(8.02764 0.16188 0)
(8.03384 0.141532 0)
(8.34103 0.154918 0)
(8.34727 0.134841 0)
(8.64375 0.147905 0)
(8.64999 0.129188 0)
(8.92693 0.139645 0)
(8.93382 0.11939 0)
(9.19319 0.121131 0)
(9.20177 0.105542 0)
(9.43792 0.096487 0)
(9.4575 0.0933746 0)
(9.65031 0.0770181 0)
(9.69624 0.0802672 0)
(9.83268 0.062717 0)
(9.903 0.0615122 0)
(9.99377 0.0480929 0)
(10.0692 0.0419133 0)
(10.129 0.0303633 0)
(10.194 0.0217153 0)
(10.2332 0.0132409 0)
(10.2823 0.00489765 0)
(10.3054 -0.000958345 0)
(10.3378 -0.00893361 0)
(10.3447 -0.0189834 0)
(10.3622 -0.0275548 0)
(10.3536 -0.0421923 0)
(10.3565 -0.0426888 0)
(10.3181 -0.0639898 0)
(10.3129 -0.0535867 0)
(10.2349 -0.0766631 0)
(10.2287 -0.0607269 0)
(10.1115 -0.0903329 0)
(10.1059 -0.072601 0)
(9.94642 -0.100648 0)
(9.94588 -0.0859444 0)
(9.74704 -0.104914 0)
(9.74631 -0.0992348 0)
(9.51741 -0.123169 0)
(9.51537 -0.105827 0)
(9.25315 -0.1386 0)
(9.2495 -0.117753 0)
(8.95956 -0.145855 0)
(8.95509 -0.127368 0)
(8.64025 -0.151404 0)
(8.63425 -0.134967 0)
(8.28923 -0.154073 0)
(8.27926 -0.140177 0)
(7.92565 -0.158399 0)
(7.90657 -0.142251 0)
(7.52488 -0.158358 0)
(7.51823 -0.141622 0)
(7.11442 -0.155677 0)
(7.10356 -0.141441 0)
(6.69734 -0.151724 0)
(6.68034 -0.133994 0)
(6.27194 -0.143746 0)
(6.25592 -0.125763 0)
(5.83852 -0.133663 0)
(5.83443 -0.115269 0)
(5.41529 -0.119782 0)
(5.41328 -0.104241 0)
(5.00921 -0.10188 0)
(4.99708 -0.0972629 0)
(4.6414 -0.0725384 0)
(4.59203 -0.0882734 0)
(4.32055 -0.054237 0)
(4.21609 -0.068668 0)
(4.0268 -0.0384594 0)
(3.88201 -0.0414939 0)
(3.74416 -0.0249807 0)
(3.59522 -0.017269 0)
(3.48082 -0.00852171 0)
(3.35365 0.0037986 0)
(3.24936 0.011259 0)
(3.15258 0.0250529 0)
(3.05915 0.0310484 0)
(2.99037 0.0436606 0)
(2.91189 0.0506133 0)
(2.86341 0.0607195 0)
(2.8001 0.0693007 0)
(2.76556 0.0769789 0)
(2.71644 0.0850947 0)
(2.69429 0.0928782 0)
(2.65954 0.100757 0)
(2.64937 0.107992 0)
(2.62792 0.115264 0)
(2.62741 0.123711 0)
(2.61663 0.127634 0)
(2.63247 0.133565 0)
(2.63532 0.140939 0)
(2.65034 0.135449 0)
(2.68035 0.150455 0)
(2.68732 0.144089 0)
(2.74932 0.162742 0)
(2.74879 0.159606 0)
(2.82804 0.169743 0)
(2.82671 0.166347 0)
(2.92079 0.173531 0)
(2.92067 0.169957 0)
(3.02624 0.178943 0)
(3.02875 0.173564 0)
(3.1485 0.183307 0)
(3.14978 0.17821 0)
(3.27956 0.188274 0)
(3.28501 0.181306 0)
(3.4194 0.191271 0)
(3.427 0.183294 0)
(3.5726 0.193554 0)
(3.58152 0.18487 0)
(3.73756 0.195001 0)
(3.74742 0.185348 0)
(3.91485 0.195659 0)
(3.92577 0.184498 0)
(4.10232 0.196886 0)
(4.11294 0.185294 0)
(4.30078 0.196818 0)
(4.30748 0.18141 0)
(4.51779 0.196885 0)
(4.53216 0.18863 0)
(4.70249 0.185051 0)
(4.7937 0.198876 0)
(4.85644 0.173549 0)
(5.05997 0.195307 0)
(5.07695 0.176581 0)
(5.30165 0.189924 0)
(5.31379 0.175026 0)
(5.55101 0.183592 0)
(5.55785 0.166233 0)
(5.81128 0.182728 0)
(5.81658 0.163259 0)
(6.07399 0.180983 0)
(6.08105 0.156848 0)
(6.34925 0.178886 0)
(6.36575 0.160806 0)
(6.60063 0.168325 0)
(6.6916 0.173487 0)
(6.78518 0.152085 0)
(7.01463 0.172863 0)
(7.03613 0.147498 0)
(7.32041 0.164762 0)
(7.3244 0.146255 0)
(7.61067 0.163345 0)
(7.61471 0.140096 0)
(7.90515 0.160553 0)
(7.91183 0.135699 0)
(8.20216 0.157436 0)
(8.20955 0.131949 0)
(8.50136 0.154961 0)
(8.50906 0.12908 0)
(8.79988 0.151975 0)
(8.80881 0.125602 0)
(9.09648 0.149401 0)
(9.10568 0.122391 0)
(9.39258 0.147413 0)
(9.40172 0.120618 0)
(9.68661 0.1456 0)
(9.69642 0.117917 0)
(9.9796 0.143965 0)
(9.99041 0.115207 0)
(10.2717 0.142538 0)
(10.2803 0.113898 0)
(10.5631 0.14194 0)
(10.5717 0.116063 0)
(10.856 0.141312 0)
(10.8619 0.117849 0)
(11.1445 0.140901 0)
(11.1507 0.117766 0)
(11.4283 0.140273 0)
(11.4369 0.118575 0)
(11.7082 0.139252 0)
(11.714 0.118859 0)
(11.9874 0.139622 0)
(11.9921 0.119306 0)
(12.259 0.139331 0)
(12.2671 0.119745 0)
(12.5229 0.139123 0)
(12.5335 0.11956 0)
(12.7855 0.138293 0)
(12.7964 0.119202 0)
(13.0457 0.13939 0)
(13.0561 0.121111 0)
(13.2994 0.139386 0)
(13.3096 0.120936 0)
(13.5505 0.140105 0)
(13.5557 0.121512 0)
(13.7946 0.140161 0)
(13.7997 0.120783 0)
(14.0359 0.141119 0)
(14.0557 0.125538 0)
(14.2474 0.13264 0)
(14.3291 0.128158 0)
(14.402 0.124527 0)
(14.5901 0.126191 0)
(14.6089 0.123154 0)
(14.819 0.127929 0)
(14.8313 0.122009 0)
(15.0303 0.133682 0)
(15.0451 0.120073 0)
(15.2417 0.135239 0)
(15.2482 0.120083 0)
(15.4487 0.133951 0)
(15.4594 0.11718 0)
(15.6387 0.127571 0)
(15.6888 0.121378 0)
(15.7875 0.11862 0)
(15.917 0.120053 0)
(15.9434 0.114775 0)
(16.1266 0.121182 0)
(16.128 0.114698 0)
(16.3066 0.123392 0)
(16.3091 0.11085 0)
(16.48 0.119383 0)
(16.4849 0.107522 0)
(16.6473 0.115245 0)
(16.6524 0.104302 0)
(16.8099 0.111082 0)
(16.813 0.098039 0)
(16.9682 0.106185 0)
(16.9717 0.0939574 0)
(17.117 0.0998011 0)
(17.1359 0.0935106 0)
(17.2339 0.0862097 0)
(17.2974 0.0892779 0)
(17.3315 0.0785831 0)
(17.4451 0.0831895 0)
(17.4509 0.074942 0)
(17.5645 0.0800472 0)
(17.5687 0.0678436 0)
(17.6701 0.0730294 0)
(17.6748 0.0613261 0)
(17.7667 0.0648085 0)
(17.7707 0.0546144 0)
(17.8508 0.0575969 0)
(17.8544 0.0477881 0)
(17.9255 0.0503528 0)
(17.9286 0.0420938 0)
(17.9894 0.0439503 0)
(17.9927 0.035349 0)
(18.0442 0.037447 0)
(18.0468 0.0301678 0)
(18.0902 0.0300373 0)
(18.0917 0.0248486 0)
(18.1277 0.0232861 0)
(18.1295 0.0197522 0)
(18.1552 0.0172875 0)
(18.161 0.0153712 0)
(18.1739 0.0123373 0)
(18.1825 0.00972477 0)
(18.1893 0.00722002 0)
(18.1955 0.00460359 0)
(18.1996 0.0020531 0)
(18.2027 -0.000508058 0)
(18.2045 -0.00291992 0)
(18.205 -0.00518908 0)
(18.2044 -0.00726496 0)
(18.2029 -0.00922617 0)
(18.2006 -0.0111735 0)
(18.1975 -0.0130002 0)
(18.1935 -0.0148078 0)
(18.1891 -0.0164477 0)
(18.1837 -0.018099 0)
(18.1785 -0.0196035 0)
(18.1718 -0.0210885 0)
(18.1663 -0.0224594 0)
(18.1583 -0.0237292 0)
(18.153 -0.0249562 0)
(18.1435 -0.0259702 0)
(18.1391 -0.0270744 0)
(18.1279 -0.0278328 0)
(18.1248 -0.0288826 0)
(18.1116 -0.029411 0)
(18.1101 -0.0303885 0)
(18.0953 -0.0307206 0)
(18.0951 -0.0315214 0)
(18.0793 -0.0317561 0)
(18.0794 -0.0323956 0)
(18.0642 -0.0325686 0)
(18.0645 -0.0329207 0)
(18.049 -0.0329349 0)
(18.0489 -0.0331688 0)
(18.0349 -0.0330363 0)
(18.0349 -0.0330672 0)
(18.0203 -0.0328199 0)
(18.0203 -0.0328781 0)
(18.0062 -0.0323666 0)
(18.0062 -0.0322272 0)
(17.9919 -0.0316971 0)
(17.9922 -0.0312447 0)
(17.9782 -0.0308307 0)
(17.9778 -0.0300869 0)
(17.9643 -0.0298269 0)
(17.9622 -0.0287389 0)
(17.9529 -0.0285499 0)
(17.9467 -0.027148 0)
(17.9431 -0.0271421 0)
(17.9313 -0.0255839 0)
(17.931 -0.0255157 0)
(17.9174 -0.0241506 0)
(17.9174 -0.0237727 0)
(17.9049 -0.0224867 0)
(17.9048 -0.0220139 0)
(17.8933 -0.0206618 0)
(17.8923 -0.0199077 0)
(17.8832 -0.0185424 0)
(17.8799 -0.017497 0)
(17.8739 -0.0165441 0)
(17.8685 -0.0152402 0)
(17.8647 -0.0145958 0)
(17.8586 -0.0131239 0)
(17.8559 -0.0125338 0)
(17.8501 -0.0109526 0)
(17.8477 -0.0102457 0)
(17.8427 -0.0086709 0)
(17.8402 -0.00784667 0)
(17.8361 -0.00634814 0)
(17.8335 -0.00541604 0)
(17.8303 -0.00402372 0)
(17.8279 -0.00301947 0)
(17.8254 -0.0017432 0)
(17.8233 -0.000700466 0)
(17.8214 0.000480085 0)
(17.8198 0.00154975 0)
(17.8185 0.00265652 0)
(17.8175 0.00373836 0)
(17.8167 0.00481441 0)
(17.8161 0.00588911 0)
(17.8158 0.00694719 0)
(17.8157 0.00802607 0)
(17.8157 0.00918679 0)
(17.8156 0.0103933 0)
(17.8154 0.011344 0)
(17.8158 0.0117591 0)
(17.814 0.0116998 0)
(-0.0199029 -0.0455598 0)
(-0.0248901 -0.0365845 0)
(-0.0429345 -0.0309717 0)
(-0.0979186 0.0203877 0)
(-0.121491 0.0324494 0)
(-0.310912 0.145432 0)
(-0.367981 0.143147 0)
(-0.729078 0.370261 0)
(-0.877769 0.34149 0)
(-1.41887 0.554371 0)
(-1.69397 0.535202 0)
(-2.31383 0.660119 0)
(-2.70597 0.670731 0)
(-3.3719 0.761238 0)
(-3.87626 0.814188 0)
(-4.60172 0.915253 0)
(-5.22187 1.01891 0)
(-6.02354 1.14548 0)
(-6.77003 1.27718 0)
(-7.65506 1.41562 0)
(-8.51899 1.55153 0)
(-9.47333 1.68312 0)
(-10.4178 1.7962 0)
(-11.3968 1.89314 0)
(-12.3488 1.97278 0)
(-13.2835 2.03062 0)
(-14.1611 2.05608 0)
(-14.9812 2.04551 0)
(-15.7153 1.99644 0)
(-16.354 1.91415 0)
(-16.8845 1.79857 0)
(-17.3029 1.64218 0)
(-17.6088 1.4414 0)
(-17.8077 1.19635 0)
(-17.9183 0.925518 0)
(-17.9551 0.63953 0)
(-17.9488 0.360795 0)
(-17.8932 0.0896157 0)
(-17.7905 -0.160026 0)
(-17.6074 -0.451246 0)
(-17.4297 -0.65572 0)
(-16.939 -0.977659 0)
(-16.534 -1.1268 0)
(-15.7061 -1.47376 0)
(-15.0669 -1.51233 0)
(-14.0031 -1.89647 0)
(-13.2182 -1.92641 0)
(-11.9833 -2.26517 0)
(-11.0861 -2.2647 0)
(-9.75265 -2.48794 0)
(-8.75779 -2.44334 0)
(-7.39589 -2.59333 0)
(-6.33562 -2.51719 0)
(-5.01692 -2.57626 0)
(-3.93956 -2.4786 0)
(-2.72517 -2.42298 0)
(-1.68634 -2.26331 0)
(-0.579682 -2.1024 0)
(0.43034 -1.89311 0)
(1.53704 -1.77641 0)
(2.58533 -1.66483 0)
(3.66539 -1.58674 0)
(4.65359 -1.4921 0)
(5.62628 -1.39673 0)
(6.52761 -1.30917 0)
(7.38241 -1.21487 0)
(8.18421 -1.14598 0)
(8.92969 -1.09585 0)
(9.64194 -1.04963 0)
(10.2952 -1.00162 0)
(10.9234 -0.940739 0)
(11.4899 -0.867323 0)
(12.0171 -0.78599 0)
(12.4861 -0.702217 0)
(12.9144 -0.619632 0)
(13.2872 -0.539172 0)
(13.6169 -0.4623 0)
(13.8946 -0.388068 0)
(14.1313 -0.317938 0)
(14.3185 -0.249254 0)
(14.4674 -0.185145 0)
(14.5682 -0.123196 0)
(14.6353 -0.0715035 0)
(14.654 -0.01774 0)
(14.656 0.0248868 0)
(14.5759 0.0680482 0)
(14.5582 0.0946125 0)
(14.3673 0.114349 0)
(14.3538 0.137819 0)
(14.059 0.138313 0)
(14.054 0.154882 0)
(13.6993 0.138063 0)
(13.6913 0.16126 0)
(13.2989 0.129863 0)
(13.2924 0.153991 0)
(12.8755 0.113806 0)
(12.8688 0.139066 0)
(12.4446 0.0944833 0)
(12.4336 0.110805 0)
(12.0101 0.0789505 0)
(12.003 0.0819042 0)
(11.5845 0.0620934 0)
(11.5783 0.0711626 0)
(11.1613 0.0462891 0)
(11.1031 0.053792 0)
(10.8404 0.0434912 0)
(10.6281 0.0292027 0)
(10.5529 0.0313951 0)
(10.1784 0.0203221 0)
(10.1776 0.013122 0)
(9.8095 0.00857292 0)
(9.80721 0.00724603 0)
(9.46366 0.00236236 0)
(9.4645 0.00524214 0)
(9.14334 -0.000838791 0)
(9.13772 0.00453178 0)
(8.84415 -0.00355244 0)
(8.83719 0.000571458 0)
(8.58238 -0.00601946 0)
(8.56367 -0.00373417 0)
(8.35557 -0.00382725 0)
(8.3205 -0.00424551 0)
(8.15773 -0.00016527 0)
(8.1114 -0.000725342 0)
(7.98779 0.00367943 0)
(7.94155 0.00503325 0)
(7.85496 0.0110021 0)
(7.82057 0.013475 0)
(7.76109 0.020051 0)
(7.73613 0.0235699 0)
(7.69957 0.0311441 0)
(7.69015 0.0345924 0)
(7.67658 0.0412596 0)
(7.69479 0.0441044 0)
(7.69255 0.0533769 0)
(7.75301 0.0540802 0)
(7.75354 0.0644062 0)
(7.86204 0.0670239 0)
(7.87591 0.0771625 0)
(7.97462 0.0840546 0)
(8.05983 0.0936291 0)
(8.091 0.0909706 0)
(8.28423 0.107557 0)
(8.28855 0.113768 0)
(8.51372 0.121846 0)
(8.52352 0.125948 0)
(8.77067 0.130188 0)
(8.78766 0.129879 0)
(9.05676 0.13932 0)
(9.06742 0.135891 0)
(9.37487 0.154034 0)
(9.39265 0.143417 0)
(9.66531 0.163181 0)
(9.78182 0.167323 0)
(9.88575 0.165229 0)
(10.1826 0.174142 0)
(10.2014 0.168151 0)
(10.5432 0.170191 0)
(10.5567 0.16412 0)
(10.9047 0.171786 0)
(10.9102 0.157409 0)
(11.2648 0.169229 0)
(11.2677 0.154814 0)
(11.6198 0.167089 0)
(11.6168 0.15303 0)
(11.9707 0.164343 0)
(11.9676 0.152063 0)
(12.2987 0.161572 0)
(12.3019 0.147179 0)
(12.6194 0.153806 0)
(12.6192 0.138999 0)
(12.9156 0.149316 0)
(12.9162 0.132331 0)
(13.1892 0.144966 0)
(13.1912 0.127751 0)
(13.4414 0.138288 0)
(13.4427 0.124754 0)
(13.666 0.126498 0)
(13.678 0.11903 0)
(13.8459 0.110844 0)
(13.887 0.106409 0)
(13.9914 0.0967443 0)
(14.0536 0.0895624 0)
(14.1155 0.080866 0)
(14.1741 0.0729243 0)
(14.2086 0.0630389 0)
(14.2496 0.0539898 0)
(14.2662 0.0468947 0)
(14.2871 0.0392361 0)
(14.2881 0.0300156 0)
(14.2931 0.0255774 0)
(14.2688 0.00742846 0)
(14.2666 0.00935943 0)
(14.205 -0.0127032 0)
(14.2003 -0.0038766 0)
(14.0956 -0.029065 0)
(14.0919 -0.0180178 0)
(13.9424 -0.0427486 0)
(13.9409 -0.0310837 0)
(13.7462 -0.0522961 0)
(13.749 -0.0446932 0)
(13.5102 -0.0620729 0)
(13.5138 -0.0596102 0)
(13.2497 -0.0674934 0)
(13.2454 -0.0626852 0)
(12.9432 -0.0714771 0)
(12.9443 -0.0625334 0)
(12.6096 -0.0753393 0)
(12.6065 -0.0652164 0)
(12.246 -0.0763253 0)
(12.2407 -0.0655598 0)
(11.8529 -0.0748947 0)
(11.8421 -0.0652224 0)
(11.4417 -0.0737775 0)
(11.4154 -0.0636552 0)
(11.0026 -0.0723056 0)
(10.9785 -0.0625082 0)
(10.5355 -0.0694777 0)
(10.522 -0.057117 0)
(10.0604 -0.0677239 0)
(10.0471 -0.0516085 0)
(9.57889 -0.0579373 0)
(9.5638 -0.043545 0)
(9.09775 -0.0487873 0)
(9.08646 -0.0314257 0)
(8.61714 -0.0381173 0)
(8.61223 -0.018687 0)
(8.15568 -0.0303372 0)
(8.14828 -0.00333119 0)
(7.71534 -0.0223606 0)
(7.70159 0.000178117 0)
(7.31959 0.00380468 0)
(7.25957 0.00992617 0)
(6.99426 0.0246988 0)
(6.86279 0.0261571 0)
(6.6901 0.0361213 0)
(6.52345 0.0429796 0)
(6.39705 0.0534749 0)
(6.24436 0.0649041 0)
(6.13491 0.0738342 0)
(6.01888 0.085695 0)
(5.91859 0.0923682 0)
(5.83998 0.103372 0)
(5.75442 0.112609 0)
(5.70511 0.121512 0)
(5.63901 0.131749 0)
(5.6097 0.140127 0)
(5.56305 0.150331 0)
(5.54966 0.157648 0)
(5.52406 0.167002 0)
(5.52478 0.175835 0)
(5.51516 0.181834 0)
(5.53629 0.193126 0)
(5.5328 0.196317 0)
(5.58646 0.206052 0)
(5.59287 0.21195 0)
(5.64983 0.21245 0)
(5.69791 0.22597 0)
(5.71873 0.215563 0)
(5.83522 0.233445 0)
(5.837 0.226384 0)
(5.98204 0.237469 0)
(5.98075 0.234069 0)
(6.14477 0.243786 0)
(6.14519 0.238125 0)
(6.32716 0.250698 0)
(6.3296 0.241509 0)
(6.52623 0.255564 0)
(6.53048 0.243863 0)
(6.74241 0.258962 0)
(6.75021 0.246462 0)
(6.96757 0.261312 0)
(6.97982 0.247889 0)
(7.21415 0.260756 0)
(7.22143 0.247608 0)
(7.47232 0.260059 0)
(7.47778 0.24618 0)
(7.74015 0.25616 0)
(7.74602 0.242294 0)
(8.02299 0.255774 0)
(8.0292 0.241331 0)
(8.31448 0.252869 0)
(8.32034 0.239994 0)
(8.61883 0.248872 0)
(8.62344 0.233879 0)
(8.93004 0.241123 0)
(8.99337 0.233953 0)
(9.15268 0.225556 0)
(9.37981 0.235592 0)
(9.41646 0.219424 0)
(9.74737 0.229574 0)
(9.76116 0.224066 0)
(10.085 0.22409 0)
(10.1016 0.208309 0)
(10.4426 0.215832 0)
(10.4503 0.197314 0)
(10.8059 0.207572 0)
(10.8113 0.192764 0)
(11.1649 0.204049 0)
(11.1749 0.180889 0)
(11.5379 0.198053 0)
(11.5912 0.183357 0)
(11.8112 0.185731 0)
(12.0288 0.187144 0)
(12.0798 0.169903 0)
(12.4506 0.177701 0)
(12.4549 0.163519 0)
(12.8256 0.176794 0)
(12.8252 0.153753 0)
(13.2062 0.170017 0)
(13.2061 0.147517 0)
(13.5797 0.164418 0)
(13.5861 0.141146 0)
(13.9584 0.159379 0)
(13.9639 0.135956 0)
(14.3355 0.155726 0)
(14.3419 0.132127 0)
(14.7053 0.151767 0)
(14.7143 0.1282 0)
(15.0749 0.147673 0)
(15.0819 0.12336 0)
(15.44 0.145237 0)
(15.4472 0.121687 0)
(15.8007 0.143483 0)