/*--------------------------------*- C++ -*----------------------------------*\
| =========                 |                                                 |
| \\      /  F ield         | OpenFOAM: The Open Source CFD Toolbox           |
|  \\    /   O peration     | Version:  v1812                                 |
|   \\  /    A nd           | Web:      www.OpenFOAM.com                      |
|    \\/     M anipulation  |                                                 |
\*---------------------------------------------------------------------------*/
FoamFile
{
    version     2.0;
    format      ascii;
    class       volScalarField;
    location    "1.4";
    object      p;
}
// * * * * * * * * * * * * * * * * * * * * * * * * * * * * * * * * * * * * * //

dimensions      [1 -1 -2 0 0 0 0];


internalField   nonuniform List<scalar> 
20400
(
98488.1
98488.2
98488.2
98488.2
98488.1
98487.9
98487.5
98487
98486.5
98485.8
98485.2
98484.5
98483.7
98483
98482.2
98481.3
98480.4
98479.3
98478.1
98476.8
98475.4
98473.7
98472.1
98470.3
98468.5
98466.4
98464.5
98462.3
98460.3
98457.5
98454.5
98451
98447.7
98444.3
98441.8
98439.7
98439.7
98442
98446.9
98455
98467.6
98483.6
98504.8
98528.7
98557.1
98586
98616.5
98647.4
98674
98697.5
98719.1
98738
98755.5
98768.7
98778.4
98784.8
98788.7
98790.7
98791.4
98791.4
98789.7
98788.4
98786.3
98783.4
98778.4
98771.1
98758
98742.4
98722.9
98709.7
98684.2
98661.2
98631.9
98602.5
98571.1
98542.4
98516.9
98495.2
98478.4
98466.9
98459.9
98461.1
98469.7
98484.5
98505
98533.8
98566.7
98604.9
98645.4
98689.5
98734.6
98779.6
98824.4
98865.4
98907.2
98938.5
98971.3
99000.5
99028.6
99051.1
99073.5
99090.1
99103.1
99111
99115.9
99117.1
99115
99110.8
99104.3
99096.3
99086.8
99076.9
99065.9
99055.1
99044.2
99033.4
99023.1
99013.3
99004.1
98995.6
98987.7
98980.4
98973.6
98967.5
98961.9
98957
98952.7
98949.1
98946
98943.9
98942.4
98941.8
98942.2
98943.3
98945.5
98948.3
98952.1
98956.5
98961.4
98967.1
98973.1
98979.3
98985.8
98992.2
98998.6
99004.5
99010.1
99015.2
99019.1
99022.7
99024.4
99025.7
99024.6
99022.9
99018.3
99013.8
99006.8
98999.4
98991
98982.6
98974.4
98966.2
98957.9
98951.2
98946.3
98945.7
98949
98954.4
98962.1
98974.1
98987.6
99005.8
99025.1
99047.4
99070.3
99094.2
99117.7
99140.6
99162.9
99183.6
99202.1
99218.2
99231.9
99243.2
99252.4
99259.4
99265
99268.5
99271.4
99272.7
99273.9
99274.6
99274.8
99274.8
99274.7
99274.5
99274.3
99274.2
99274.2
99274.4
99274.6
99275.1
99275.8
99276.8
99278.2
99280.1
99282.5
99285.4
99289.1
99292.9
99298
99302.7
99308.1
99313.4
99318.6
99323.4
99327.8
99331.7
99334.5
99337.1
99338
99338.5
99337.5
99336.2
99333.4
99330.1
99325.7
99320.8
99315.3
99309.5
99303.4
99297.4
99291.6
99286.4
99282.4
99278.9
99276.4
99274.9
99275.3
99277.4
99281.4
99287.2
99295.5
99305.4
99317.7
99331.9
99348.6
99366.3
99386.1
99406.9
99428.8
99451.3
99474.2
99497.1
99519.4
99542
99563.9
99584.5
99603.7
99621.2
99636.8
99650.7
99662.6
99672.9
99681.2
99688.1
99693.7
99697.5
99701.3
99702.8
99704.6
99705.5
99706.1
99706.4
99706.5
99706.7
99707
99707.5
99708.3
99709.4
99711
99713
99715.5
99718.6
99722.1
99726.2
99730.8
99735.8
99741.2
99747.1
99753.2
99759.6
99766.2
99772.9
99779.7
99786.6
99793.4
99800
99806.5
99812.8
99818.8
99824.4
99829.4
99834
99837.6
99840.5
99842.4
99843.4
99843.5
99842.5
99841
99839
99836.8
99834.6
99832.7
99831.3
99830.3
99830.5
99831.9
99834
99837.3
99841.8
99847.7
99854.7
99863.3
99872.9
99883.8
99896
99909.4
99923.7
99939.1
99955.1
99972
99989.3
100007
100025
100043
100062
100080
100098
100115
100131
100147
100162
100176
100190
100202
100213
100223
100233
100241
100249
100256
100263
100269
100275
100279
100284
100289
100293
100297
100302
100306
100310
100314
100319
100323
100328
100333
100338
100344
100350
100355
100362
100368
100374
100380
100386
100392
100397
100403
100408
100412
100416
100419
100422
100424
100426
100428
100429
100430
100432
100433
100435
100437
100440
100443
100447
100452
100457
100464
100472
100480
100489
100500
100510
100522
100535
100548
100562
100576
100591
100606
100622
100637
100652
100667
100682
100696
100710
100724
100736
100748
100760
100771
100781
100790
100799
100808
100816
100823
100831
100838
100844
100851
100857
100864
100870
100876
100882
100889
100895
100902
100908
100915
100922
100929
100936
100943
100951
100958
100966
100973
100981
100988
100996
101003
101010
101017
101024
101030
101037
101043
101049
101054
101059
101064
101069
101073
101077
101082
101085
101089
101093
101097
101101
101106
101110
101115
101121
101126
101132
101139
101146
101154
101162
101170
101179
101189
101199
101210
101220
101232
101244
101255
101268
101280
101294
101304
101322
98488
98488.1
98488.1
98488
98487.8
98487.5
98487.1
98486.5
98485.8
98485.1
98484.4
98483.6
98482.9
98482.2
98481.5
98480.7
98479.9
98478.9
98477.9
98476.8
98475.6
98474.1
98472.6
98470.9
98469.2
98467.4
98465.5
98463.4
98460.7
98458.1
98455.1
98451.7
98448.2
98444.4
98441.3
98438.7
98437.9
98439.7
98444.2
98452.2
98464
98480.7
98500.5
98524
98550.7
98578.6
98609.3
98638
98669.7
98697.5
98722.4
98743.1
98758.6
98771
98779.9
98785.9
98788.9
98790.8
98791
98790.9
98790.6
98789.2
98786.8
98782.8
98777
98771.2
98764.6
98754.9
98740.6
98713.9
98689.1
98659.8
98628.6
98596
98563.9
98532.9
98505.6
98482.4
98465.4
98455
98451.1
98458
98467
98479.8
98497.2
98520.7
98549.1
98582.5
98619.3
98659.8
98701.7
98747.2
98792.4
98839.5
98881.6
98928.6
98967.9
99002.8
99031.3
99056.3
99074.2
99089.1
99100.7
99108.3
99113.1
99114.4
99112.6
99108.7
99102.4
99094.5
99085.6
99075.6
99065.7
99054.8
99043.2
99032.7
99022.6
99013.2
99004.2
98995.7
98987.8
98980.5
98973.8
98967.7
98962.1
98957.1
98952.8
98949.1
98946
98943.8
98942.2
98941.5
98941.7
98942.8
98944.8
98947.6
98951.3
98955.8
98960.8
98966.6
98972.7
98979.1
98985.7
98992.2
98998.6
99004.8
99010.4
99016
99019.8
99023.6
99025.8
99026.9
99026.4
99024.6
99020.8
99016.2
99009.7
99002.4
98993.9
98985
98975.6
98967.4
98960.5
98955.5
98951.7
98949.2
98946.5
98948.7
98956.3
98967.5
98982.3
99000.9
99021.7
99045
99069.4
99094.2
99119.1
99142.6
99164.4
99184.4
99202.4
99218.2
99231.8
99243.1
99252.3
99259.5
99265
99269.1
99271.4
99274
99274.1
99274.9
99275.2
99275.2
99275.1
99274.9
99274.7
99274.6
99274.6
99274.7
99274.9
99275.4
99276
99276.8
99278.1
99279.8
99282.1
99285
99288.7
99292.8
99297.6
99302.6
99308.1
99313.5
99318.8
99323.8
99328.3
99332.2
99335.4
99337.7
99339.1
99339.6
99338.8
99337.4
99334.7
99331.3
99327.1
99322.3
99316.9
99311.1
99305.1
99299.1
99293.1
99287.5
99281.7
99277.3
99274.4
99272.2
99272.1
99273.7
99277.1
99282.5
99291
99301.2
99313.8
99328.5
99345.3
99363.7
99383.8
99405.2
99427.6
99450.7
99474.2
99497.8
99521.2
99543.5
99564.9
99585.2
99604
99621.4
99637
99650.9
99662.9
99673.2
99681.8
99688.7
99694.4
99698.3
99702.2
99703.4
99705.1
99706
99706.5
99706.7
99706.8
99706.9
99707.1
99707.5
99708.2
99709.3
99710.8
99712.8
99715.3
99718.3
99721.8
99725.9
99730.5
99735.5
99741
99746.8
99753
99759.4
99766.1
99772.9
99779.8
99786.7
99793.5
99800.2
99806.8
99813.1
99819.2
99824.9
99830.2
99834.8
99838.6
99841.6
99843.6
99844.6
99844.6
99843.6
99842.1
99840
99837.6
99835.2
99832.9
99831.3
99829.9
99829.5
99830.1
99831.9
99835
99839.4
99845.1
99852.2
99860.8
99870.6
99881.7
99894
99907.6
99922.1
99937.6
99954
99971.2
99988.9
100007
100026
100044
100062
100080
100098
100115
100132
100147
100162
100176
100190
100202
100213
100223
100233
100241
100249
100257
100263
100269
100275
100280
100284
100289
100293
100298
100302
100306
100310
100314
100319
100323
100328
100333
100338
100344
100350
100355
100362
100368
100374
100380
100386
100392
100398
100403
100408
100413
100417
100420
100423
100425
100427
100428
100430
100431
100432
100433
100435
100437
100439
100442
100446
100451
100456
100463
100470
100479
100488
100498
100509
100521
100534
100547
100561
100576
100591
100606
100621
100637
100652
100667
100682
100696
100710
100724
100737
100749
100760
100771
100781
100791
100800
100808
100816
100824
100831
100838
100844
100851
100857
100864
100870
100876
100882
100889
100895
100902
100908
100915
100922
100929
100936
100943
100951
100958
100966
100973
100981
100988
100996
101003
101010
101017
101024
101031
101037
101043
101049
101054
101060
101065
101069
101074
101078
101082
101086
101090
101093
101097
101101
101106
101110
101115
101120
101126
101132
101139
101146
101153
101161
101170
101179
101188
101199
101209
101220
101231
101243
101255
101268
101279
101294
101304
101324
98488
98488.1
98488.1
98488.1
98488
98487.7
98487.4
98487
98486.6
98486.1
98485.6
98485
98484.3
98483.6
98482.8
98481.9
98481
98479.8
98478.5
98477.2
98475.5
98473.9
98472.2
98470.6
98469
98467.3
98465.5
98463.5
98461.1
98458.3
98455.1
98451.2
98447
98442.4
98438.4
98435.1
98433.2
98433.7
98437
98443.4
98454.4
98469.7
98490.6
98514.5
98542.9
98572.7
98604.2
98634.8
98663.7
98692.3
98717
98737.9
98754.2
98766.7
98776
98783
98787.4
98790.9
98791.4
98795
98788.3
98789.3
98788.4
98787.4
98784.5
98778.1
98765.8
98750.9
98733.1
98712.1
98685.5
98653.3
98618.7
98583.4
98551.4
98523.5
98500.2
98480.5
98465.4
98453.3
98445.4
98441
98448.8
98464.7
98489.3
98517.4
98550.9
98588.6
98629.7
98673.4
98718.5
98763.4
98807.6
98850
98890.6
98927.6
98961.9
98993.2
99021.3
99045.8
99066.3
99083
99095.6
99103.5
99108.6
99109.9
99108.2
99104.2
99098.1
99090.3
99081.4
99071.6
99061.4
99050.8
99040.3
99030.2
99019.5
99009.7
99000.8
98992.8
98985.3
98978.2
98971.7
98965.8
98960.5
98955.7
98951.4
98947.9
98944.9
98942.8
98941.3
98940.7
98941.1
98942.3
98944.4
98947.3
98951.1
98955.6
98960.7
98966.4
98972.5
98978.9
98985.6
98992.2
98998.9
99004.9
99010.8
99016.2
99020.6
99024.4
99026.8
99028.2
99027.8
99025.9
99022.1
99017.1
99010.4
99002.6
98993.6
98983.9
98973.6
98963.8
98954
98946.7
98940.5
98937.9
98940
98945.1
98953
98964.2
98978.4
98996.1
99016.2
99038.7
99062.5
99087.2
99112
99136.2
99159.1
99180
99198.8
99215.3
99229.3
99241
99250.5
99258.1
99263.7
99267.9
99270.6
99272.6
99273.6
99274.5
99274.8
99274.5
99274.3
99274.2
99274.1
99274.2
99274.4
99274.5
99274.8
99275.2
99275.8
99276.7
99277.9
99279.7
99281.9
99284.8
99288.4
99292.5
99297.3
99302.5
99308
99313.7
99319.1
99324.2
99328.9
99332.9
99336.3
99338.6
99340.1
99340.5
99339.6
99338.1
99335.4
99332
99327.7
99322.6
99317
99310.9
99304.5
99298.2
99291.8
99286.1
99281.1
99276.6
99273.5
99271
99270.7
99272.3
99275.6
99281.3
99289.4
99299.5
99312
99326.3
99342.8
99360.9
99380.6
99401.5
99423.6
99446.4
99469.7
99493.3
99516.7
99539.6
99561.7
99582.6
99602
99619.8
99635.8
99650
99662.2
99672.7
99681.3
99688.4
99693.9
99698.2
99701.4
99703.6
99705.2
99705.7
99706.1
99706.2
99706.4
99706.5
99706.6
99707.1
99707.8
99708.9
99710.4
99712.4
99714.9
99718
99721.6
99725.6
99730.2
99735.3
99740.8
99746.6
99752.8
99759.3
99766
99772.8
99779.8
99786.7
99793.6
99800.4
99807
99813.4
99819.5
99825.2
99830.5
99835.2
99839.1
99842.2
99844.2
99845.3
99845.2
99844.2
99842.4
99840.1
99837.3
99834.7
99832.1
99830.4
99829
99828.7
99829.6
99831.3
99834.3
99838.6
99844.3
99851.4
99859.8
99869.6
99880.6
99892.8
99906.2
99920.6
99936
99952.2
99969.1
99986.6
100005
100023
100042
100060
100079
100096
100114
100131
100147
100162
100176
100189
100201
100213
100223
100233
100241
100249
100256
100263
100269
100275
100280
100284
100289
100293
100297
100301
100306
100310
100314
100318
100323
100328
100333
100338
100344
100349
100355
100361
100368
100374
100380
100386
100392
100398
100403
100408
100413
100417
100420
100423
100425
100427
100429
100430
100431
100432
100433
100434
100436
100439
100442
100446
100450
100456
100462
100470
100478
100487
100497
100508
100520
100533
100546
100560
100575
100590
100605
100620
100636
100651
100667
100682
100696
100710
100724
100736
100749
100760
100771
100781
100791
100800
100808
100816
100824
100831
100838
100844
100851
100857
100864
100870
100876
100882
100889
100895
100902
100908
100915
100922
100929
100936
100943
100951
100958
100966
100973
100981
100988
100996
101003
101010
101017
101024
101031
101037
101043
101049
101055
101060
101065
101069
101074
101078
101082
101086
101090
101093
101097
101101
101106
101110
101115
101120
101126
101132
101138
101145
101153
101161
101169
101178
101188
101198
101209
101220
101231
101243
101255
101267
101279
101294
101303
101325
98488
98488.1
98488.1
98488
98487.7
98487.2
98486.7
98485.9
98485.2
98484.4
98483.7
98483.1
98482.5
98481.9
98481.3
98480.6
98479.9
98479.1
98478.1
98477.2
98476.1
98474.8
98473.2
98471.4
98469.6
98467.8
98465.8
98463.6
98461.1
98458
98454.2
98449.6
98444.4
98438.7
98433
98427.6
98423.6
98421.4
98423.3
98428.9
98439.3
98454.5
98474.1
98497.7
98525.2
98555.5
98588.3
98621.5
98655.9
98686.6
98714.4
98737.3
98755.6
98769.2
98778.2
98783.9
98786.7
98788.4
98789.1
98790.2
98792
98792.4
98791.2
98788.8
98784.6
98778.6
98769.7
98755.3
98733.2
98704.3
98670.8
98636.1
98600.1
98564.6
98529.6
98496.2
98466
98440.4
98423.4
98412.6
98411.9
98418.4
98427
98442.5
98462
98488.3
98519.8
98556.6
98597.2
98641
98686.8
98733.8
98780.7
98827.1
98871.3
98913.9
98952
98985.9
99014.7
99039.1
99058.7
99074.4
99086.5
99094.5
99099.6
99101.4
99100
99096.3
99090.4
99082.8
99074
99064.3
99054.3
99043.5
99033.1
99023
99013.3
99004.4
98995.6
98987.3
98980
98973.4
98967.5
98962
98957.2
98952.8
98949
98945.7
98943.1
98941.2
98939.9
98939.5
98940.1
98941.5
98943.8
98946.9
98950.8
98955.4
98960.7
98966.5
98972.7
98979.2
98985.9
98992.6
98999.3
99005.6
99011.7
99017.3
99022.1
99026.1
99028.8
99030.4
99030.3
99028.2
99024.5
99019.1
99011.9
99003.5
98993.7
98983.5
98972.7
98962.4
98952.8
98944.3
98938.2
98933
98931.7
98935
98941.5
98952.9
98967.8
98986.4
99007.8
99031.5
99056.8
99082.6
99108.3
99132.9
99156
99177.1
99196
99212.5
99226.6
99238.3
99247.7
99255.1
99260.8
99264.9
99267.9
99269.9
99271.2
99272.2
99272.7
99272.8
99272.7
99273
99272.8
99272.7
99272.9
99273.2
99273.8
99274.6
99275.2
99276.2
99277.5
99279.3
99281.7
99284.7
99288.3
99292.5
99297.2
99302.4
99308.1
99313.8
99319.5
99324.8
99329.6
99333.8
99337.2
99339.6
99341.2
99341.7
99340.9
99339.2
99336.3
99332.6
99328
99322.7
99316.7
99310.4
99303.7
99296.9
99290.1
99283.4
99277.4
99271.9
99268.4
99265.4
99264.6
99265.9
99269
99274.7
99282.6
99292.9
99305.5
99320.2
99337
99355.5
99375.6
99397
99419.5
99442.8
99466.5
99490.4
99514
99537.1
99559.3
99580.3
99599.9
99617.8
99634
99648.2
99660.6
99671.1
99679.8
99686.9
99692.5
99696.8
99700.1
99702.2
99703.8
99704.5
99705.3
99705.3
99705.1
99705.1
99705.4
99706
99706.8
99707.9
99709.6
99711.7
99714.3
99717.4
99721
99725.2
99729.9
99735
99740.5
99746.4
99752.6
99759.1
99765.8
99772.7
99779.7
99786.7
99793.7
99800.5
99807.2
99813.7
99819.9
99825.8
99831.2
99836
99840.1
99843.2
99845.2
99846.1
99845.8
99844.5
99842.3
99839.6
99836.5
99833.6
99830.6
99828.5
99826.7
99826
99826.4
99828.1
99831
99835.3
99840.9
99848.1
99856.6
99866.4
99877.5
99889.8
99903.4
99917.9
99933.5
99950
99967.1
99984.9
100003
100022
100040
100059
100077
100095
100113
100130
100146
100161
100175
100188
100201
100212
100222
100232
100240
100248
100256
100262
100268
100274
100279
100284
100288
100293
100297
100301
100305
100309
100313
100318
100323
100327
100332
100338
100343
100349
100355
100361
100367
100374
100380
100386
100392
100398
100404
100409
100414
100418
100421
100424
100426
100428
100429
100430
100430
100431
100432
100433
100435
100437
100440
100444
100449
100454
100460
100468
100476
100485
100496
100507
100519
100531
100545
100559
100573
100588
100604
100619
100635
100651
100666
100681
100696
100710
100723
100736
100749
100760
100771
100781
100791
100800
100808
100816
100823
100831
100838
100844
100851
100857
100863
100870
100876
100882
100888
100895
100901
100908
100915
100922
100929
100936
100943
100951
100958
100966
100973
100981
100988
100996
101003
101010
101018
101024
101031
101038
101044
101049
101055
101060
101065
101070
101074
101078
101082
101086
101090
101093
101097
101101
101105
101110
101114
101119
101125
101131
101137
101144
101152
101160
101168
101178
101187
101197
101208
101219
101230
101242
101254
101267
101279
101294
101303
101326
98488.2
98488.3
98488.3
98488.1
98487.9
98487.5
98487.2
98486.7
98486.3
98485.8
98485.4
98484.9
98484.4
98483.8
98483.2
98482.5
98481.7
98480.6
98479.5
98478.1
98476.3
98474.5
98472.8
98471
98469.1
98467.1
98465
98462.4
98459.5
98455.8
98451.3
98445.5
98438.7
98430.6
98422.6
98414.4
98409
98404.3
98403.9
98407
98414.9
98428.5
98448
98472.5
98501.4
98533.4
98567.5
98602.3
98636.4
98669.2
98699
98724.7
98746
98762.5
98774.3
98782.5
98787
98790.4
98791.4
98793.8
98792.5
98793
98792.6
98791.8
98788.4
98780.8
98767.7
98747.4
98720.6
98688.6
98652.4
98613.6
98574.2
98536.2
98502
98472.7
98447.9
98427
98411.9
98400.7
98396.7
98400.7
98410.4
98427.5
98450.6
98479.3
98512.8
98550.5
98592
98636.1
98682.1
98728.8
98775.1
98820
98862.6
98901.9
98937.7
98970.3
98999
99023.8
99044.5
99061.1
99073.8
99082.1
99087.5
99089.3
99088
99084.5
99078.7
99071.3
99062.6
99053.1
99043
99032.5
99022.3
99012.2
99002.6
98993.7
98985.5
98978.1
98971.3
98965.1
98959.7
98955
98950.9
98947.4
98944.4
98941.9
98940
98938.8
98938.2
98938.3
98939.3
98941.1
98943.6
98947
98951.1
98955.9
98961.2
98967
98973.1
98979.6
98986.2
98993
98999.7
99006.1
99012.2
99017.7
99022.7
99026.8
99029.6
99031.3
99031.2
99029.1
99025.2
99019.3
99011.5
99002.2
98991.5
98980
98967.9
98956
98945
98935.2
98928.7
98924
98923.1
98926.4
98932.7
98943.4
98957.5
98975.4
98996.4
99019.9
99045.3
99071.5
99097.8
99123.3
99147.3
99169.3
99189
99206.2
99220.8
99233
99242.9
99250.7
99256.6
99260.9
99263.8
99265.8
99267.1
99268
99268.5
99268.9
99269.4
99269.9
99270.3
99270.5
99270.9
99271.4
99271.6
99272.3
99273.3
99275
99276.7
99278.7
99281.3
99284.5
99288.2
99292.5
99297.3
99302.5
99308.1
99314
99319.8
99325.3
99330.1
99334.3
99337.8
99340.3
99341.8
99342.2
99341.2
99339.3
99336.2
99332.1
99327.1
99321.4
99315.2
99308.4
99301.4
99294.3
99287.3
99280.7
99274.8
99269.2
99265.3
99262.1
99261
99261.9
99264.8
99270.2
99277.8
99287.8
99300
99314.4
99330.8
99349
99368.8
99389.9
99412.2
99435.3
99459.1
99483.1
99507.1
99530.8
99553.6
99575.2
99595.4
99613.9
99630.5
99645.1
99657.8
99668.5
99677.3
99684.4
99690
99694.3
99697.4
99699.6
99701.1
99701.9
99702.5
99702.8
99703.1
99703.2
99703.3
99703.9
99705
99706.4
99708.2
99710.5
99713.3
99716.6
99720.4
99724.7
99729.4
99734.7
99740.3
99746.2
99752.5
99759
99765.7
99772.5
99779.5
99786.5
99793.5
99800.4
99807
99813.5
99819.7
99825.6
99831
99835.8
99839.9
99843
99845
99845.9
99845.3
99843.7
99841.3
99838.3
99835
99831.8
99828.7
99826.4
99824.7
99824
99824.4
99826
99828.9
99833.1
99838.7
99845.7
99854.1
99863.8
99874.9
99887.1
99900.5
99915
99930.4
99946.7
99963.8
99981.6
99999.9
100018
100037
100056
100075
100093
100111
100128
100144
100159
100173
100187
100199
100210
100221
100230
100239
100247
100254
100261
100267
100272
100278
100282
100287
100291
100296
100300
100304
100308
100312
100317
100322
100327
100332
100337
100343
100349
100355
100361
100367
100373
100380
100386
100392
100398
100403
100409
100413
100417
100421
100424
100426
100427
100429
100429
100430
100431
100431
100433
100434
100436
100439
100443
100447
100452
100459
100466
100474
100483
100494
100505
100517
100529
100543
100557
100572
100587
100602
100618
100634
100650
100665
100680
100695
100709
100723
100736
100748
100760
100771
100781
100790
100799
100808
100815
100823
100830
100837
100844
100850
100856
100863
100869
100875
100882
100888
100894
100901
100908
100914
100921
100928
100936
100943
100950
100958
100965
100973
100981
100988
100996
101003
101010
101018
101025
101031
101038
101044
101050
101055
101060
101065
101070
101074
101078
101082
101086
101089
101093
101097
101100
101105
101109
101114
101119
101124
101130
101137
101144
101151
101159
101168
101177
101186
101196
101207
101218
101229
101241
101253
101266
101278
101294
101303
101327
98488.3
98488.4
98488.3
98488.1
98487.8
98487.2
98486.6
98485.9
98485.2
98484.6
98484
98483.5
98483.1
98482.8
98482.4
98481.9
98481.4
98480.6
98479.7
98478.6
98477.3
98475.6
98473.7
98471.6
98469.4
98467.1
98464.7
98461.9
98458.3
98453.6
98447.3
98439.3
98429.7
98418.6
98406.9
98394.6
98383.7
98375.3
98371
98373.2
98382
98395.5
98414
98437.6
98466.4
98499.9
98536.6
98575.4
98614.5
98651.7
98685.8
98715.5
98740.1
98759.2
98772.9
98781.9
98787
98790.3
98791.9
98794.1
98795.8
98796.5
98796.2
98794.4
98790
98781
98764.7
98740.4
98708.9
98671.8
98631.4
98589.8
98548.4
98508.7
98471.5
98438.8
98411.7
98391
98378.1
98369.8
98368.9
98374.7
98384.5
98400.9
98422.6
98450.1
98483.1
98520.9
98562.8
98607.8
98655.1
98703.3
98751.5
98798.5
98843.3
98885
98922.7
98955.9
98984.7
99009
99029
99044.9
99057.2
99065.5
99070.8
99072.9
99071.8
99068.4
99062.8
99055.6
99047.1
99037.7
99027.8
99017.6
99007.6
98997.8
98988.6
98980.1
98972.3
98965.4
98959.3
98954
98949.4
98945.5
98942.4
98939.9
98938
98936.6
98935.8
98935.5
98935.7
98936.7
98938.3
98940.6
98943.6
98947.2
98951.5
98956.4
98961.8
98967.6
98973.8
98980.3
98986.9
98993.6
99000.2
99006.6
99012.7
99018.3
99023.4
99027.6
99030.6
99032.4
99032.2
99029.8
99025.6
99019.5
99011.4
99001.7
98990.5
98978.4
98965.6
98953
98941.1
98930
98921.7
98915
98912.2
98914.2
98919.7
98930.2
98944.5
98962.9
98984.6
99008.9
99035.2
99062.3
99089.4
99115.6
99140.1
99162.4
99182.3
99199.7
99214.5
99226.8
99236.8
99244.7
99250.7
99255.1
99258.3
99260.5
99262
99263
99263.6
99264.1
99264.5
99264.9
99265.3
99266
99266.9
99268
99268.8
99270.1
99271
99272.1
99273.8
99276.8
99279.9
99283.4
99287.5
99292.1
99297.1
99302.5
99308
99313.8
99319.9
99325.5
99330.4
99334.5
99337.9
99340.3
99341.8
99342
99340.7
99338.5
99335.2
99330.9
99325.8
99319.8
99313.2
99306.2
99298.7
99291.1
99283.5
99275.9
99269.2
99262.9
99258.2
99254.6
99252.8
99253.4
99256.1
99261.2
99268.8
99278.9
99291.4
99306.1
99322.8
99341.3
99361.3
99382.6
99405.1
99428.4
99452.3
99476.5
99500.7
99524.5
99547.5
99569.5
99590
99608.8
99625.6
99640.5
99653.4
99664.3
99673.2
99680.5
99686.1
99690.4
99693.6
99695.7
99697.2
99698.1
99698.7
99699
99699.4
99699.8
99700.5
99701.2
99702.2
99703.8
99705.9
99708.5
99711.6
99715.1
99719.2
99723.7
99728.7
99734
99739.8
99745.8
99752.2
99758.8
99765.5
99772.3
99779.3
99786.2
99793.2
99800
99806.7
99813
99819.2
99825
99830.3
99835
99839.1
99842.1
99844.1
99844.9
99844.2
99842.6
99839.9
99836.6
99833
99829.6
99826.2
99823.6
99821.7
99820.6
99820.9
99822.3
99825.1
99829.2
99834.8
99841.8
99850.2
99860
99871.1
99883.4
99896.9
99911.4
99927
99943.5
99960.7
99978.6
99997
100016
100035
100053
100072
100090
100108
100125
100141
100157
100171
100184
100197
100208
100218
100228
100237
100245
100252
100258
100264
100270
100275
100280
100285
100289
100294
100298
100302
100307
100311
100316
100320
100325
100331
100336
100342
100348
100354
100360
100366
100372
100379
100385
100391
100397
100403
100408
100413
100417
100420
100423
100425
100427
100428
100429
100429
100430
100430
100431
100433
100435
100437
100441
100445
100450
100456
100463
100472
100481
100491
100502
100514
100527
100540
100554
100569
100585
100600
100616
100632
100648
100664
100679
100694
100709
100722
100735
100748
100759
100770
100780
100790
100799
100807
100815
100822
100829
100836
100843
100849
100856
100862
100868
100874
100881
100887
100893
100900
100907
100914
100921
100928
100935
100942
100950
100957
100965
100973
100980
100988
100996
101003
101010
101018
101024
101031
101038
101044
101050
101055
101060
101065
101070
101074
101078
101082
101085
101089
101092
101096
101100
101104
101108
101113
101118
101123
101129
101136
101143
101150
101158
101167
101176
101185
101195
101206
101217
101228
101240
101253
101266
101278
101294
101303
101327
98488.7
98488.8
98488.7
98488.4
98488.1
98487.4
98487
98486.3
98485.8
98485.3
98484.9
98484.6
98484.3
98484
98483.7
98483.4
98482.9
98482.2
98481.2
98479.8
98478.1
98476.2
98474.1
98472
98469.7
98467.2
98464.2
98460.3
98455.5
98448.9
98440.8
98430.2
98417
98401.1
98384.1
98367.9
98354.1
98345
98339.2
98339.3
98343.2
98352.8
98371
98396
98426.9
98462
98500.4
98540.7
98581.7
98622.2
98660.7
98695.8
98725.9
98750.2
98768.9
98782.1
98790.7
98795.9
98799.1
98800.6
98802.4
98802.8
98802.1
98799.3
98792.8
98779.5
98759.1
98729.2
98693
98652
98608.2
98563.5
98520.5
98481.2
98446.4
98417.1
98393
98374.1
98361.9
98353.2
98351.9
98357.9
98368.1
98385.6
98408.7
98437.3
98471.1
98509.3
98551.4
98596.4
98643.3
98690.8
98737.9
98783.6
98826.7
98866.7
98903.1
98935.7
98964.3
98988.7
99008.9
99025.1
99037.4
99045.6
99050.9
99052.8
99051.6
99048.1
99042.5
99035.4
99026.9
99017.6
99007.8
98997.9
98988.1
98978.7
98969.9
98961.9
98954.8
98948.6
98943.5
98939.3
98935.9
98933.2
98931.1
98929.9
98929.3
98929.3
98929.8
98930.8
98932.3
98934.3
98936.9
98939.9
98943.5
98947.6
98952.2
98957.3
98962.7
98968.6
98974.7
98981
98987.5
98994.1
99000.6
99006.9
99013
99018.5
99023.5
99027.6
99030.6
99032.4
99032.3
99029.8
99025.4
99018.8
99010.1
98999.7
98987.8
98974.7
98961
98947
98934
98922
98912.9
98906.1
98902.7
98903.9
98909.1
98919
98932.7
98950.7
98972.1
98996.4
99022.7
99050.1
99077.7
99104.5
99129.6
99152.6
99173.1
99191
99206.2
99219
99229.3
99237.5
99243.8
99248.5
99251.8
99254.1
99255.7
99256.8
99257.7
99258.4
99259.2
99259.8
99260.4
99261
99261.6
99262.3
99263.3
99265
99266.8
99269
99271.1
99273.2
99276.3
99280.8
99285.4
99290.5
99295.9
99301.6
99307.5
99313.3
99319.1
99325.1
99330.1
99334.3
99337.4
99339.6
99340.9
99340.9
99339.5
99337
99333.4
99328.8
99323.3
99317
99310.1
99302.7
99295
99287.1
99279.3
99271.7
99264.7
99258.2
99253.1
99249.3
99247.1
99247.2
99249.7
99254.6
99261.9
99271.8
99284
99298.4
99314.7
99332.9
99352.5
99373.5
99395.6
99418.7
99442.6
99466.9
99491.3
99515.5
99539
99561.5
99582.5
99601.8
99619.1
99634.4
99647.5
99658.6
99667.7
99675.1
99680.8
99685.1
99688.3
99690.5
99692
99692.9
99693.6
99694.1
99694.6
99695.3
99696.1
99697.3
99698.8
99700.6
99702.9
99705.8
99709.1
99713
99717.4
99722.1
99727.4
99733
99738.9
99745.1
99751.6
99758.3
99765.1
99772
99778.9
99785.8
99792.7
99799.5
99806.1
99812.4
99818.3
99824
99829.2
99833.8
99837.8
99840.7
99842.6
99843.3
99842.4
99840.6
99837.8
99834.5
99830.7
99827.1
99823.6
99820.9
99819
99817.8
99818
99819.5
99822.2
99826.2
99831.7
99838.7
99847
99856.7
99867.7
99879.9
99893.3
99907.8
99923.3
99939.6
99956.8
99974.6
99993
100012
100031
100050
100068
100087
100105
100122
100138
100154
100168
100181
100194
100205
100215
100225
100233
100241
100249
100255
100261
100267
100272
100277
100282
100286
100291
100295
100300
100304
100309
100313
100318
100323
100329
100334
100340
100346
100352
100359
100365
100371
100378
100384
100390
100396
100402
100407
100412
100416
100419
100422
100425
100426
100427
100428
100428
100429
100429
100430
100431
100433
100435
100439
100443
100448
100454
100461
100469
100478
100488
100499
100511
100524
100537
100552
100566
100582
100598
100614
100630
100646
100662
100678
100693
100708
100721
100735
100747
100759
100769
100779
100789
100798
100806
100814
100821
100828
100835
100842
100848
100854
100861
100867
100873
100879
100886
100892
100899
100906
100913
100920
100927
100934
100942
100949
100957
100965
100972
100980
100988
100995
101003
101010
101017
101024
101031
101037
101044
101049
101055
101060
101065
101069
101074
101077
101081
101085
101088
101092
101095
101099
101103
101107
101112
101117
101122
101128
101134
101141
101149
101157
101165
101174
101184
101194
101205
101216
101227
101239
101252
101265
101277
101293
101303
101326
98489.1
98489
98488.9
98488.5
98488.2
98487.3
98486.9
98486
98485.5
98484.8
98484.4
98484.1
98483.9
98483.8
98483.8
98483.6
98483.3
98482.9
98482.4
98481.4
98480.3
98478.8
98476.9
98474.7
98472
98468.9
98465.2
98460.5
98454.5
98446.1
98434.1
98418.4
98399.7
98378.5
98356.5
98335.4
98315.4
98300
98287.9
98285
98291.9
98304
98324.7
98350.9
98383.8
98421.9
98464.1
98508.9
98554.4
98598.9
98640.9
98679.7
98714.6
98744.8
98767.7
98784.9
98795.9
98802.8
98807
98810
98812.3
98813
98811.1
98808
98798.5
98781.4
98755.9
98721.9
98681.3
98635.9
98589.1
98542.3
98497.8
98457.4
98422.1
98392.8
98369.2
98351.2
98340
98332.3
98331.6
98337.6
98347.5
98364
98386
98413.4
98446.4
98483.9
98525.9
98571
98618.4
98667
98715.2
98762
98806.3
98847.1
98884
98916.3
98944.3
98967.9
98987.2
99002.6
99014.2
99022.1
99027
99028.6
99027.2
99023.6
99017.9
99010.7
99002.3
98993.1
98983.5
98973.9
98964.5
98955.7
98947.5
98940.3
98934
98928.7
98924.4
98921.2
98919.1
98918
98917.5
98917.8
98918.6
98920.1
98922.2
98924.7
98927.6
98930.9
98934.5
98938.5
98942.8
98947.6
98952.6
98957.9
98963.5
98969.4
98975.6
98981.9
98988.2
98994.6
99001
99007.2
99013.1
99018.4
99023.2
99027.2
99030.1
99032
99031.9
99029.5
99025.1
99018.5
99009.7
98999
98986.7
98973.2
98958.9
98944.3
98930.6
98917.8
98907.6
98900.1
98895.9
98896.3
98901.1
98910.3
98923.7
98941.3
98962.3
98986.4
99012.7
99040.6
99068.6
99095.8
99121.1
99144.1
99164.6
99182.5
99197.8
99210.6
99221
99229.4
99235.8
99240.7
99244.3
99246.8
99248.6
99250
99251
99251.9
99252.7
99253.4
99254.1
99255
99255.8
99256.8
99257.9
99259.2
99260.6
99262.8
99265.6
99269.2
99272.4
99276
99281.1
99286.9
99293
99299.3
99305.5
99311.8
99317.8
99323.6
99329.1
99333.4
99336.5
99338.5
99339.6
99339.2
99337.6
99334.7
99330.9
99326
99320.3
99313.8
99306.7
99299.1
99291
99282.6
99274.2
99265.9
99258.2
99251.1
99245.3
99241.1
99238.4
99238.3
99240.8
99245.6
99253
99263.1
99275.6
99290.2
99306.8
99325
99344.6
99365.4
99387.4
99410.2
99433.8
99457.9
99482.3
99506.5
99530.2
99552.9
99574.2
99593.7
99611.3
99626.8
99640.1
99651.4
99660.7
99668.1
99673.9
99678.3
99681.5
99683.8
99685.3
99686.4
99687.3
99688
99688.7
99689.6
99690.8
99692.2
99694.1
99696.3
99699
99702.1
99705.8
99710
99714.7
99719.8
99725.3
99731.2
99737.4
99743.8
99750.5
99757.3
99764.3
99771.3
99778.2
99785.2
99792
99798.7
99805.4
99811.6
99817.4
99822.7
99827.8
99832.2
99836
99838.8
99840.7
99841.3
99840.3
99838.6
99835.7
99832.2
99828.4
99824.7
99821.1
99818.2
99816.1
99814.8
99814.8
99816.1
99818.7
99822.7
99828.2
99835.1
99843.4
99853
99864
99876.2
99889.6
99904.1
99919.6
99936
99953.2
99971.1
99989.4
100008
100027
100046
100065
100083
100101
100118
100135
100150
100164
100177
100190
100201
100211
100221
100229
100237
100244
100251
100257
100263
100268
100273
100278
100282
100287