/*--------------------------------*- C++ -*----------------------------------*\
| =========                 |                                                 |
| \\      /  F ield         | OpenFOAM: The Open Source CFD Toolbox           |
|  \\    /   O peration     | Version:  v1812                                 |
|   \\  /    A nd           | Web:      www.OpenFOAM.com                      |
|    \\/     M anipulation  |                                                 |
\*---------------------------------------------------------------------------*/
FoamFile
{
    version     2.0;
    format      ascii;
    class       surfaceScalarField;
    location    "1.4";
    object      phi;
}
// * * * * * * * * * * * * * * * * * * * * * * * * * * * * * * * * * * * * * //

dimensions      [1 0 -1 0 0 0 0];
oriented        oriented;


internalField   nonuniform List<scalar> 
40240
(
2.69896e-05
1.52885e-05
0.000107947
-3.86879e-05
0.000269221
-0.00011902
0.000492982
-0.000181519
0.000753727
-0.000218513
0.00101744
-0.000221492
0.00126344
-0.000203775
0.00147266
-0.000166993
0.00164095
-0.000126051
0.00176794
-8.47509e-05
0.00186067
-5.04623e-05
0.00192696
-2.40137e-05
0.00197788
-8.6175e-06
0.00202475
-4.54949e-06
0.0020768
-9.713e-06
0.00214026
-2.11072e-05
0.00221518
-3.25473e-05
0.00229933
-4.1783e-05
0.00237961
-3.79064e-05
0.00245072
-2.8773e-05
0.00247884
1.42361e-05
0.00246818
5.29339e-05
0.00238385
0.000126605
0.00222242
0.000203615
0.00195521
0.000309383
0.00157019
0.00042714
0.00105755
0.000554754
0.000483316
0.000616373
-0.000123435
0.000648889
-0.000934201
0.000852983
-0.00194577
0.00105392
-0.00311447
0.00121138
-0.00444935
0.00137782
-0.00596844
0.00156264
-0.00767015
0.00174563
-0.00951239
0.00188711
-0.0114048
0.00193822
-0.0132407
0.00188241
-0.0149128
0.00171985
-0.0162886
0.00142434
-0.0172694
0.00103125
-0.0176254
0.000406373
-0.0175454
-2.69346e-05
-0.0167817
-0.000712105
-0.0155193
-0.00120912
-0.0137091
-0.001758
-0.0114409
-0.00221703
-0.00886412
-0.00252952
-0.0066099
-0.00221779
-0.00418192
-0.00238307
-0.00165267
-0.00248266
0.000763995
-0.00237011
0.00312894
-0.00232052
0.00516063
-0.00198953
0.00679405
-0.00159354
0.00803619
-0.00120484
0.00893137
-0.000860538
0.0095422
-0.000579345
0.0100017
-0.000431015
0.0103917
-0.000364564
0.0107547
-0.000338576
0.0112615
-0.000483394
0.0119474
-0.000662386
0.0127822
-0.000810307
0.0136547
-0.000847012
0.0141502
-0.000468637
0.0140255
0.000150821
0.0129313
0.00112285
0.0113125
0.0016492
0.00993433
0.00141012
0.00761592
0.0023525
0.00458777
0.00306191
0.00119137
0.00343034
-0.00260812
0.00383191
-0.00689966
0.00432496
-0.0113269
0.00446031
-0.0156828
0.00438977
-0.0197825
0.00413369
-0.0235885
0.00384131
-0.027022
0.00346898
-0.0299626
0.00297805
-0.0322947
0.00237121
-0.0339805
0.00172555
-0.0351122
0.00117329
-0.0355832
0.000513605
-0.0355211
-1.67108e-05
-0.0348344
-0.000642289
-0.0336811
-0.00110716
-0.0319938
-0.00164117
-0.0298581
-0.00208899
-0.0272948
-0.00251677
-0.0244337
-0.00281469
-0.0213333
-0.00305437
-0.0180222
-0.00326544
-0.0145646
-0.00341374
-0.0118938
-0.00262949
-0.0088672
-0.00298272
-0.00553496
-0.00328733
-0.00222534
-0.00326461
0.00107875
-0.00325805
0.0045355
-0.00341094
0.00785081
-0.00326921
0.0109025
-0.00300518
0.0136813
-0.00273169
0.0161491
-0.00241933
0.0182815
-0.00208261
0.0200695
-0.00173625
0.0214666
-0.00134321
0.022459
-0.000936484
0.0230675
-0.000551583
0.0233114
-0.000185338
0.0233192
5.06221e-05
0.0230534
0.000325971
0.0224486
0.000665321
0.0216351
0.000874653
0.0206732
0.00102274
0.0195977
0.00113573
0.0184621
0.00119486
0.0173014
0.0012187
0.0161404
0.00121765
0.0149923
0.00120345
0.0138685
0.00117792
0.0127792
0.00114255
0.0117307
0.00110086
0.0107258
0.00105691
0.00976568
0.00101181
0.00885054
0.000966732
0.00798071
0.000921393
0.0071591
0.000873277
0.00638928
0.000821701
0.00567909
0.000762146
0.00503434
0.000697002
0.00446503
0.000621896
0.00398289
0.000534891
0.00359188
0.000444111
0.00329922
0.00034596
0.00310093
0.000252016
0.00300312
0.000151629
0.00299379
6.37075e-05
0.00307476
-2.66514e-05
0.0032361
-0.000106461
0.00347539
-0.000184321
0.0037731
-0.000242479
0.00411974
-0.000291349
0.00449651
-0.000321424
0.00489386
-0.000342232
0.00529594
-0.000347033
0.0056961
-0.000345721
0.00605755
-0.000306985
0.00636586
-0.000254514
0.00658503
-0.000165747
0.00667995
-4.1227e-05
0.00664191
8.98286e-05
0.00640166
0.000292604
0.00596549
0.00048808
0.00529728
0.000719385
0.00441185
0.000936593
0.00332563
0.00113676
0.00208277
0.00129346
0.000766109
0.00136711
-0.000587299
0.00140416
-0.00206403
0.00152763
-0.0036344
0.00162212
-0.00515583
0.00157299
-0.00652324
0.00141756
-0.00767793
0.00120159
-0.0084178
0.000791585
-0.0088803
0.000517915
-0.00909177
0.00026785
-0.00901945
-1.32462e-05
-0.00858684
-0.000372927
-0.00781579
-0.00071049
-0.00671729
-0.00103686
-0.00533684
-0.00131883
-0.00372938
-0.00154565
-0.00198064
-0.00168734
-0.000163328
-0.00175687
0.00177666
-0.00187984
0.00375712
-0.00192181
0.00565543
-0.0018411
0.00740902
-0.00169796
0.00897063
-0.00150753
0.0103164
-0.00129315
0.0114269
-0.00105898
0.012303
-0.000825484
0.0129368
-0.00058359
0.0133516
-0.000364805
0.0135552
-0.000153494
0.0135941
1.11607e-05
0.0135235
0.000121398
0.0133347
0.000240014
0.0130669
0.000319546
0.0127117
0.000407622
0.01229
0.000474639
0.0118279
0.000515698
0.0113431
0.000539066
0.0108494
0.000548541
0.0103558
0.000549022
0.00986704
0.000544749
0.00938771
0.000535759
0.00892182
0.000522721
0.008471
0.000508016
0.00804069
0.000487812
0.00763806
0.000460394
0.00727466
0.000421355
0.00696101
0.000371824
0.00670886
0.000310434
0.00652506
0.000242322
0.00641703
0.00016655
0.0063877
8.81164e-05
0.00642091
2.52973e-05
0.00652176
-4.19779e-05
0.00667233
-9.18622e-05
0.00685062
-0.000119511
0.00704061
-0.000131147
0.00723061
-0.000131097
0.00740484
-0.000115075
0.00754982
-8.5813e-05
0.00765232
-4.29301e-05
0.00769035
2.15328e-05
0.00767248
7.7965e-05
0.0075715
0.000161167
0.00738607
0.000245908
0.00711049
0.000336281
0.00674418
0.000427309
0.00628295
0.000522284
0.0057245
0.000619719
0.00506698
0.000718793
0.00431371
0.000814649
0.00347274
0.000902395
0.00254802
0.000986241
0.00153932
0.00107034
0.000475146
0.00112583
-0.000584839
0.001122
-0.00161658
0.00109382
-0.00268258
0.00112877
-0.00373234
0.00111256
-0.00473659
0.00106798
-0.00565211
0.000979951
-0.00645004
0.000862814
-0.00711995
0.000735633
-0.00763988
0.000586402
-0.00799113
0.000418687
-0.00816189
0.000238794
-0.00816221
7.0093e-05
-0.00796183
-0.000130439
-0.00757799
-0.000312879
-0.00700479
-0.000501439
-0.00625749
-0.00067492
-0.00534668
-0.000837677
-0.00429068
-0.000982372
-0.00310963
-0.00110694
-0.00183684
-0.0011982
-0.000502546
-0.00125951
0.000902905
-0.00132998
0.00238639
-0.00140799
0.0038776
-0.00141556
0.00533393
-0.00138065
0.00672199
-0.00131232
0.00801547
-0.00121777
0.00919237
-0.00110124
0.0102336
-0.000965613
0.0111274
-0.000818199
0.011865
-0.00066193
0.0124521
-0.000511856
0.0128864
-0.000358624
0.0131801
-0.000218826
0.0133374
-8.19596e-05
0.0133814
3.04843e-05
0.0133283
0.000128454
0.0131866
0.000216517
0.0129565
0.000305164
0.012658
0.000373474
0.0123102
0.000422605
0.0119276
0.000457353
0.0115213
0.000481097
0.0111024
0.000493615
0.0106803
0.000496768
0.0102639
0.000491134
0.00986139
0.000477408
0.0094794
0.000456955
0.00912338
0.000431118
0.00879755
0.000401064
0.00850518
0.000367742
0.0082484
0.000332263
0.00802811
0.000295854
0.00784399
0.000259737
0.00769503
0.00022457
0.00757919
0.000191406
0.00749398
0.000160629
0.00743646
0.000132755
0.00740295
0.000108469
0.00739137
8.61655e-05
0.0073953
7.04637e-05
0.00741498
5.43076e-05
0.00744594
4.26681e-05
0.00748694
3.21311e-05
0.0075376
2.2026e-05
0.00759761
1.22904e-05
0.00766667
2.80879e-06
0.00773885
-6.4351e-07
0.00780862
1.29811e-06
0.00785715
2.23607e-05
0.0078718
5.57539e-05
0.00783129
0.000110934
0.00771235
0.000189011
0.00749795
0.000284421
0.00717531
0.000392336
0.0067387
0.000505956
0.00619118
0.000617038
0.00554336
0.000717039
0.00481546
0.000797148
0.00403183
0.000852953
0.00321359
0.000887599
0.0023766
0.000906642
0.00154926
0.000897111
0.000744121
0.000875313
-8.34496e-06
0.000823059
-0.000692852
0.000755397
-0.00134203
0.00072059
-0.00192824
0.000658028
-0.00243438
0.00057851
-0.00285308
0.000491539
-0.00316768
0.000387967
-0.00338419
0.000290517
-0.00349286
0.000182889
-0.00350513
8.74302e-05
-0.00340943
-2.07318e-05
-0.00321423
-0.000119549
-0.0029162
-0.000222127
-0.0025232
-0.000316836
-0.00203874
-0.000408082
-0.0014707
-0.000491629
-0.000830247
-0.000564052
-0.000130014
-0.000624114
0.000643778
-0.000697301
0.00148455
-0.000764305
0.00236959
-0.00080873
0.00328241
-0.000836793
0.00420743
-0.000849352
0.00512969
-0.000847
0.00603497
-0.000830493
0.00690999
-0.00080072
0.00774288
-0.0007591
0.00852261
-0.00070645
0.00923956
-0.000644181
0.00988774
-0.000575894
0.0104628
-0.00050329
0.0109618
-0.000427577
0.0113845
-0.00035177
0.0117314
-0.000276372
0.0120064
-0.000204943
0.0122119
-0.000135672
0.0123526
-7.15031e-05
0.0124338
-1.21366e-05
0.0124603
4.21054e-05
0.0124449
8.40981e-05
0.0123837
0.000129442
0.0122801
0.000171718
0.0121422
0.000205642
0.0119793
0.000230406
0.0117975
0.00024902
0.011603
0.000261473
0.0114015
0.000268149
0.0111983
0.000269611
0.0109986
0.000265914
0.0108065
0.000257925
0.0106256
0.000246507
0.0104585
0.000232311
0.0103075
0.000215836
0.0101746
0.000197516
0.010061
0.000177767
0.00996727
0.000157492
0.0098925
0.000138176
0.00983496
0.000120537
0.00979252
0.000105036
0.00976065
9.40668e-05
0.00973332
8.91293e-05
0.00970395
9.07681e-05
0.00966575
9.92073e-05
0.00961011
0.000116236
0.00952672
0.000143574
0.00940495
0.000181487
0.00923623
0.000227955
0.00901353
0.000281403
0.00873558
0.000336113
0.00840017
0.000393003
0.00801604
0.000441173
0.00758351
0.000489052
0.00711774
0.000521789
0.00662576
0.000547558
0.00612051
0.000560449
0.00561398
0.000561388
0.00511114
0.000557435
0.00462803
0.000537486
0.00417121
0.000511044
0.00375
0.000475328
0.00336946
0.000434595
0.00303694
0.000386534
0.00275498
0.000335971
0.00253175
0.00027724
0.00237
0.000215935
0.00226967
0.000154517
0.0022354
8.83733e-05
0.0022584
3.0746e-05
0.00234945
-3.68188e-05
0.00250417
-0.000100676
0.00272011
-0.000161803
0.00299578
-0.000221644
0.00332719
-0.000277485
0.00371073
-0.000329767
0.00414097
-0.000376683
0.0046117
-0.000417434
0.00511559
-0.000450906
0.00564441
-0.000476221
0.00618949
-0.000492909
0.00674171
-0.000500528
0.00729099
-0.000498134
0.00782796
-0.0004864
0.0083448
-0.00046689
0.00883474
-0.000440619
0.00929216
-0.000408769
0.00971297
-0.000372843
0.0100933
-0.000333026
0.0104305
-0.000290613
0.0107232
-0.000246776
0.0109713
-0.000202899
0.0111756
-0.000159829
0.0113382
-0.00011882
0.0114612
-7.9818e-05
0.0115482
-4.45797e-05
0.0116034
-1.34364e-05
0.0116298
1.4551e-05
0.0116308
3.93246e-05
0.0116124
5.8184e-05
0.0115739
7.77385e-05
0.0115189
9.36011e-05
0.0114526
0.000104382
0.011378
0.000111992
0.0112984
0.000116562
0.0112166
0.000118063
0.0111353
0.000117095
0.0110565
0.000113967
0.0109821
0.000109057
0.0109136
0.000102685
0.010852
9.5196e-05
0.0107981
8.69433e-05
0.0107524
7.82811e-05
0.0107149
6.95764e-05
0.0106852
6.11745e-05
0.0106627
5.34507e-05
0.0106464
4.67061e-05
0.010635
4.12683e-05
0.0106267
3.7543e-05
0.0106196
3.56948e-05
0.0106117
3.58013e-05
0.010601
3.8047e-05
0.0105849
4.26844e-05
0.0105607
4.9995e-05
0.0105258
6.00729e-05
0.0104772
7.28563e-05
0.0104124
8.82705e-05
0.0103289
0.000106157
0.0102243
0.000126343
0.0100967
0.000148445
0.00994455
0.000172037
0.00976719
0.000196381
0.00956443
0.000220862
0.00933686
0.000244768
0.00908578
0.000267381
0.00881304
0.000288178
0.00852135
0.00030627
0.00821444
0.000320677
0.00789781
0.000329598
0.00757576
0.000334277
0.00725109
0.000336162
0.00692875
0.000333141
0.00661349
0.000325403
0.00630944
0.000313563
0.00602078
0.00029755
0.00575103
0.000278046
0.00550306
0.000255697
0.00527921
0.000231016
0.00508151
0.000204317
0.00491266
0.000174921
0.00477273
0.000145474
0.00466823
0.000109518
0.00459387
7.88991e-05
0.00455498
4.27576e-05
0.00454772
1.07695e-05
0.00457628
-2.58385e-05
0.00463292
-5.43033e-05
0.004738
-0.000103443
0.00484949
-0.000110447
0.00503543
-0.000185572
0.00519053
-0.000155405
0.00540468
-0.000215367
0.00562948
-0.000227219
0.00593884
-0.000313829
-0.000683775
0.000109962
-5.24267e-05
0.000383276
-0.000269765
0.000795365
-0.000488887
0.00130946
-0.000653399
0.00187891
-0.000745764
0.00245326
-0.000753642
0.00299814
-0.000706462
0.00347881
-0.000605452
0.00387814
-0.000483157
0.00418606
-0.000350422
0.00440719
-0.000229339
0.00455831
-0.000132839
0.00466251
-7.04981e-05
0.00474201
-4.17023e-05
0.0048164
-4.1724e-05
0.00489709
-5.93881e-05
0.00498558
-7.85997e-05
0.00507804
-9.17959e-05
0.00516278
-8.01922e-05
0.00521997
-4.3526e-05
0.00523103
4.55995e-05
0.00516023
0.0001661
0.00494934
0.000379842
0.00455041
0.000644818
0.00393196
0.000970067
0.0030818
0.00131949
0.00198555
0.00169317
0.000571473
0.00207258
-0.00119521
0.00245782
-0.00317511
0.0028753
-0.00536479
0.0032862
-0.00777504
0.00366457
-0.0103628
0.0040089
-0.0130682
0.00431183
-0.0158006
0.00452263
-0.0184201
0.00455189
-0.0208177
0.00438216
-0.022833
0.00394514
-0.0243282
0.0032638
-0.0252171
0.00236287
-0.0254252
0.00129086
-0.0250196
5.28592e-05
-0.0238561
-0.00113674
-0.0220852
-0.00242898
-0.0196796
-0.00355944
-0.0167047
-0.00467738
-0.013298
-0.0055682
-0.00947113
-0.00629977
-0.00496487
-0.00666211
-0.000464802
-0.00682881
0.00390577
-0.00680171
0.00812209
-0.00653741
0.0118984
-0.00604909
0.015289
-0.00533448
0.0182051
-0.0044656
0.0205488
-0.00350737
0.0222848
-0.00255763
0.0234286
-0.00168754
0.0240261
-0.000995953
0.0243844
-0.000694518
0.02455
-0.000479804
0.0246244
-0.000539004
0.0244744
-0.000499437
0.0237835
-0.000109837
0.0223031
0.00064404
0.0203134
0.00153624
0.0180576
0.00242677
0.0153107
0.00389427
0.0113358
0.00565011
0.00527777
0.00749982
-0.00152935
0.00919175
-0.00882755
0.0103934
-0.016453
0.0110883
-0.0239024
0.0113139
-0.0306383
0.0110924
-0.0364745
0.0103278
-0.0413361
0.00928265
-0.0452267
0.00805535
-0.0481934
0.00684009
-0.0501924
0.00550009
-0.051435
0.00425348
-0.0516564
0.00262564
-0.0515088
0.00160918
-0.0510296
0.000726591
-0.0499151
-0.000568214
-0.0482681
-0.00163069
-0.0461495
-0.00272837
-0.0435736
-0.0036496
-0.0405949
-0.00458713
-0.0372547
-0.00539643
-0.0335735
-0.00616529
-0.029481
-0.00687503
-0.0250507
-0.0074531
-0.0203871
-0.00789848
-0.0155963
-0.00817382
-0.00985734
-0.00833648
-0.00420622
-0.00860602
0.00121183
-0.0086802
0.00661482
-0.00864371
0.0118792
-0.00850053
0.0167804
-0.00829084
0.0215174
-0.00798528
0.0261125
-0.00757933
0.0304955
-0.00709339
0.034632
-0.00653339
0.0384532
-0.00587989
0.0419421
-0.00519939
0.0450439
-0.00441669
0.0477167
-0.00357784
0.0499267
-0.00272726
0.0516862
-0.00190796
0.0528566
-0.0010776
0.0532996
-6.76183e-05
0.0532519
0.000766727
0.0527247
0.00145987
0.0516661
0.00214165
0.0501289
0.0027355
0.048217
0.00317074
0.0460041
0.00349601
0.0435733
0.00371225
0.0410195
0.00381957
0.0384322
0.0038257
0.0358815
0.00375164
0.0334175
0.00362138
0.0310733
0.00345625
0.0288689
0.00327015
0.0268157
0.0030732
0.0249201
0.00286998
0.0231872
0.00265899
0.0216209
0.00244097
0.0202251
0.00221099
0.0190049
0.00197062
0.0179618
0.00171871
0.0171019
0.00144861
0.0164269
0.00117315
0.0159352
0.000891983
0.015616
0.000625673
0.0154569
0.000365255
0.0154352
0.00014029
0.0155301
-6.67856e-05
0.0157302
-0.000251414
0.0160117
-0.00041056
0.0163443
-0.000519528
0.0166926
-0.00058382
0.0170166
-0.000589131
0.0172847
-0.000553956
0.017459
-0.000464615
0.0175005
-0.000331309
0.0173951
-0.000145806
0.0170752
0.000120226
0.0165125
0.000451042
0.0157074
0.000817231
0.0146253
0.00122413
0.0132949
0.0016751
0.0117221
0.00211229
0.00994765
0.00254474
0.00800207
0.00293266
0.00593622
0.00325252
0.00380285
0.00347654
0.00162011
0.00359935
-0.000536315
0.00361038
-0.0024703
0.00351168
-0.00412715
0.0033288
-0.00549313
0.00298879
-0.00660922
0.00258566
-0.00741643
0.00206286
-0.00798717
0.00141643
-0.0080882
0.000675255
-0.00760257
-0.000160414
-0.00658973
-0.0009657
-0.00509868
-0.00180211
-0.00316091
-0.00258451
-0.00081184
-0.00332061
0.00190374
-0.00396799
0.00492636
-0.0045008
0.00820848
-0.00490157
0.0116881
-0.00516803
0.0151814
-0.00530564
0.0186276
-0.00530047
0.0220155
-0.00516204
0.0252819
-0.00489866
0.0283631
-0.00452468
0.0311899
-0.0040582
0.033703
-0.00351286
0.0358409
-0.00290701
0.0375712
-0.0022603
0.0388504
-0.00159232
0.0396949
-0.000948271
0.040119
-0.000363338
0.0401958
9.27697e-05
0.0400398
0.000444122
0.039597
0.000810132
0.0388747
0.00117766
0.0379346
0.00146277
0.036841
0.00165779
0.0356374
0.00179187
0.0343525
0.00188332
0.0330284
0.00192388
0.0317012
0.00192365
0.0304007
0.00188914
0.0291548
0.00182251
0.0279794
0.00173848
0.0268917
0.0016315
0.0259124
0.00149664
0.0250598
0.00133184
0.0243475
0.00114261
0.0237811
0.000935933
0.0233584
0.000724481
0.023067
0.000517577
0.0228837
0.0003311
0.022795
0.000173312
0.0227621
5.00177e-05
0.0227493
-2.06055e-05
0.0227238
-3.64335e-05
0.0226467
2.76259e-06
0.0224901
8.17278e-05
0.0222329
0.000197871
0.0218623
0.000340102
0.0213673
0.000507365
0.020751
0.000693265
0.0199933
0.000891626
0.0191047
0.00110615
0.0180777
0.00132998
0.0169184
0.00155321
0.0156319
0.0017721
0.0142309
0.00198194
0.0127317
0.00217819
0.0111545
0.0023554
0.0095173
0.00251137
0.00784053
0.00263871
0.00615269
0.0027338
0.00449527
0.00278751
0.00287879
0.00280207
0.00128974
0.00277073
-0.000247729
0.00269096
-0.00163252
0.00257359
-0.00286344
0.00240324
-0.00392469
0.00218977
-0.00479399
0.00191012
-0.00544501
0.00157493
-0.00583863
0.00119106
-0.00595533
0.000765776
-0.00579845
0.000325105
-0.00535204
-0.000143549
-0.00462036
-0.000597142
-0.0036247
-0.00106143
-0.00236713
-0.00150552
-0.000866734
-0.0019368
0.000865357
-0.00234199
0.00281073
-0.00271808
0.00495249
-0.00305939
0.00726711
-0.003357
0.00973891
-0.00360578
0.0123458
-0.00380238
0.0150216
-0.0039424
0.017698
-0.00402095
0.0203712
-0.00402523
0.0230075
-0.00395334
0.0255651
-0.00380577
0.0279987
-0.00358662
0.0302654
-0.00330231
0.0323242
-0.00295768
0.0341389
-0.00256494
0.0356811
-0.00213505
0.0369326
-0.00169336
0.0378814
-0.00123461
0.0385338
-0.000796913
0.0388986
-0.000370924
0.0389937
1.09972e-05
0.0388982
0.000300298
0.0385835
0.000608036
0.0380805
0.000885665
0.037436
0.00109546
0.0366738
0.00126207
0.0358274
0.00138081
0.0349309
0.00145438
0.0340153
0.00148576
0.0331029
0.00148532
0.0322129
0.0014569
0.0313624
0.00140362
0.0305647
0.00133008
0.0298305
0.00124083
0.0291672
0.00113996
0.0285795
0.00103117
0.0280695
0.000918322
0.0276361
0.000805596
0.0272756
0.000696994
0.0269818
0.000595547
0.0267465
0.000504131
0.0265601
0.000424761
0.0264112
0.000359483
0.0262881
0.000309402
0.0261767
0.000275329
0.0260641
0.000260501
0.0259323
0.000263163
0.025769
0.000282442
0.0255645
0.00031239
0.0253129
0.000348419
0.0250126
0.000386664
0.024662
0.000426835
0.0242581
0.00047568
0.0237912
0.000539609
0.0232481
0.000635992
0.0226082
0.000765352
0.0218474
0.000940775
0.0209508
0.00115405
0.0199072
0.00139632
0.0187174
0.00165009
0.0173968
0.00189433
0.0159759
0.00210586
0.0144947
0.00226609
0.0129862
0.00237355
0.0114836
0.00242355
0.0100259
0.0024134
0.00864732
0.00235365
0.00737042
0.00224267
0.00621512
0.00209959
0.00519405
0.00191353
0.00432068
0.00169872
0.00363645
0.00147524
0.00313046
0.00123496
0.00279502
0.000985467
0.00263862
0.000719922
0.00263709
0.000462287
0.00279877
0.000202012
0.00311887
-6.34618e-05
0.00359859
-0.000318011
0.00422777
-0.000575261
0.00500588
-0.000822486
0.00592566
-0.00106637
0.00698301
-0.0012983
0.00817037
-0.00151925
0.00948093
-0.0017258
0.0109084
-0.0019149
0.0124426
-0.0020815
0.0140511
-0.00222926
0.0157163
-0.00235319
0.0174318
-0.00244797
0.019181
-0.00250995
0.0209446
-0.00253715
0.0227016
-0.00252853
0.0244308
-0.00248461
0.026111
-0.00240615
0.0277219
-0.00229572
0.029245
-0.00215563
0.0306633
-0.00198909
0.031963
-0.00180265
0.0331324
-0.00160015
0.0341619
-0.00138504
0.0350451
-0.00116339
0.0357783
-0.000938312
0.0363619
-0.000717708
0.0367962
-0.000499562
0.037091
-0.000296586
0.0372473
-9.87808e-05
0.0372841
7.42042e-05
0.0372276
0.000209321
0.0370654
0.000359696
0.0368186
0.000486707
0.0365001
0.000591889
0.0361233
0.000674777
0.0357047
0.000734838
0.0352607
0.000772505
0.0348039
0.00079184
0.0343451
0.000795024
0.033893
0.000784482
0.0334537
0.000763652
0.0330306
0.000735855
0.0326249
0.00070416
0.0322356
0.000671056
0.0318602
0.000638622
0.0314948
0.000608517
0.0311347
0.000582626
0.0307738
0.000563654
0.0304032
0.000555091
0.030011
0.000560533
0.029588
0.00057969
0.0291318
0.000607264
0.0286446
0.000639031
0.0281239
0.000680402
0.0275615
0.000738483
0.0269482
0.000816245
0.0262762
0.000912398
0.0255413
0.00102125
0.0247438
0.001137
0.0238897
0.0012478
0.0229883
0.0013516
0.0220567
0.00142959
0.0211094
0.00149268
0.0201725
0.00151471
0.0192581
0.00151757
0.0183845
0.00148933
0.0175698
0.00143104
0.0168251
0.00135698
0.016163
0.00125423
0.0155926
0.00113598
0.0151213
0.00100109
0.0147556
0.000854612
0.0144977
0.000698887
0.0143524
0.000535458
0.0143184
0.000365743
0.0143836
0.00020511
0.014559
3.35097e-05
0.0148388
-0.000137129
0.0152265
-0.000302775
0.0157105
-0.000466495
0.0162901
-0.000626181
0.0169611
-0.00077878
0.0177178
-0.000924495
0.0185538
-0.00105981
0.0194607
-0.00118337
0.0204294
-0.00129239
0.0214491
-0.00138456
0.022508
-0.00145754
0.0235927
-0.00150927
0.0246891
-0.0015382
0.0257825
-0.00154327
0.0268588
-0.00152448
0.0279052
-0.00148344
0.0289092
-0.00142216
0.0298593
-0.00134256
0.0307446
-0.00124665
0.0315559
-0.00113719
0.0322869
-0.0010178
0.0329347
-0.000892638
0.0334981
-0.000765021
0.0339775
-0.000637546
0.0343736
-0.000511668
0.0346885
-0.000389926
0.0349273
-0.000275303
0.0350945
-0.000168884
0.0351953
-7.19426e-05
0.0352334
1.83286e-05
0.0352291
8.46492e-05
0.0351771
0.000150801
0.0350847
0.000210491
0.0349609
0.000257279
0.0348095
0.000295157
0.0346376
0.000322767
0.0344518
0.000340673
0.0342581
0.000349483
0.0340606
0.000351759
0.0338628
0.000348306
0.0336678
0.000339932
0.0334781
0.000327724
0.0332951
0.000312905
0.0331193
0.000296747
0.0329506
0.000280457
0.0327877
0.000265213
0.032629
0.000252103
0.0324718
0.000242163
0.032313
0.00023637
0.032149
0.000235573
0.0319762
0.00024007
0.0317906
0.000250244
0.0315879
0.000266927
0.0313633
0.000290339
0.0311125
0.000320554
0.030832
0.0003569
0.0305192
0.000398584
0.030172
0.000444995
0.0297889
0.000495638
0.0293688
0.00054979
0.0289112
0.000606608
0.0284167
0.000664762
0.0278868
0.000722922
0.027324
0.000779403
0.0267313
0.00083277
0.0261135
0.000881029
0.0254763
0.000922048
0.0248275
0.000953741
0.0241763
0.000973357
0.0235301
0.000981902
0.0228948
0.000979297
0.0222779
0.000964681
0.0216881
0.000938891
0.0211332
0.000900208
0.0206193
0.000850966
0.0201512
0.000792597
0.0197336
0.000725502
0.0193705
0.000650896
0.019065
0.000570502
0.0188191
0.000485563
0.0186354
0.000396032
0.0185135
0.000304369
0.0184575
0.000208328
0.0184589
0.000114634
0.018521
2.25534e-05
0.0186441
-7.50853e-05
0.0188293
-0.00016973
0.0190751
-0.000267726
0.0193765
-0.000352262
0.0197406
-0.000464957
0.0201472
-0.000515108
0.0206287
-0.000665907
0.0211323
-0.000658697
0.0217513
-0.000834826
0.0223181
-0.000795568
0.0230564
-0.00105598
-0.00147001
0.000179053
-0.000189286
0.000574701
-0.000623234
0.00113141
-0.00100343
0.00179109
-0.00127092
0.00249899
-0.00141152
0.00319492
-0.00140742
0.00384825
-0.00131764
0.00443307
-0.0011481
0.00494074
-0.000948647
0.00537087
-0.000738354
0.00572768
-0.00054393
0.00601054
-0.00037346
0.00622337
-0.000241073
0.00638178
-0.000157823
0.00650544
-0.000123087
0.00661365
-0.000125283
0.00671875
-0.000141375
0.00681515
-0.000145869
0.00689336
-0.000116074
0.00692252
-3.03285e-05
0.00688605
0.000124387
0.00670194
0.000392545
0.00636543
0.000758674
0.00583838
0.00121417
0.00506807
0.00178266
0.00399127
0.00243853
0.0025774
0.00314927
0.000799987
0.00389223
-0.00134809
0.00464814
-0.00383194
0.00540152
-0.00661522
0.00611197
-0.00964886
0.00674099
-0.0128528
0.00725599
-0.0160925
0.00759535
-0.0192063
0.00768094
-0.022054
0.00744512
-0.0245353
0.00691009
-0.0265653
0.00602344
-0.0280537
0.00480166
-0.0289452
0.0033056
-0.0291605
0.00155898
-0.0286725
-0.000380611
-0.0273544
-0.00239843
-0.0252953
-0.00442987
-0.0224499
-0.00634525
-0.0189462
-0.00812002
-0.0148333
-0.00961865
-0.0102776
-0.0107911
-0.0053732
-0.0114988
-0.000167705
-0.0119689
0.00504799
-0.0119534
0.0100769
-0.0115045
0.0147168
-0.0106302
0.0188782
-0.00944106
0.0224991
-0.00803552
0.0255633
-0.00652377
0.0280486
-0.00499851
0.029922
-0.00352059
0.0311488
-0.00218589
0.0314757
-0.000991817
0.0311781
-0.000157834
0.0301349
0.00051869
0.0286149
0.00102455
0.0267817
0.00171964
0.0244315
0.00298959
0.0209819
0.00498703
0.0157819
0.00763703
0.00908026
0.0106153
0.00127458
0.0134839
-0.00716257
0.0159696
-0.0156145
0.0176768
-0.0235949
0.0184064
-0.0305489
0.0180744
-0.0361795
0.0169765
-0.0404736
0.0154185
-0.04378
0.0136665
-0.046337
0.0118715
-0.0482944
0.0100447
-0.0497064
0.00828349
-0.0507165
0.0065418
-0.0512739
0.00484256
-0.051559
0.00294266
-0.0508866
0.000972561
-0.0492512
-0.000873815
-0.0472187
-0.00256567
-0.0447145
-0.00409948
-0.0418318
-0.00557502
-0.0384743
-0.00697036
-0.0347256
-0.00829965
-0.0305793
-0.00950641
-0.0261149
-0.0105942
-0.0214155
-0.0115398
-0.0164942
-0.0123411
-0.0113913
-0.0129692
-0.00607565
-0.0134587
-0.000704637
-0.0136775
0.00456775
-0.013851
0.00981997
-0.0139071
0.0150745
-0.0138754
0.0202653
-0.013671
0.0253866
-0.0133944
0.0304538
-0.0130378
0.0353824
-0.0124967
0.040097
-0.0118001
0.0445959
-0.0110275
0.048824
-0.0101063
0.0527677
-0.0091442
0.056396
-0.00804794
0.0596907
-0.00687626
0.0626477
-0.00568758
0.0652167
-0.00447784
0.0672919
-0.00314988
0.068984
-0.00174929
0.0702437
-0.000472703
0.0708996
0.000833501
0.0709438
0.00213005
0.0704314
0.0032875
0.0693315
0.00431929
0.0676648
0.00521955
0.0655071
0.00593233
0.0629429
0.00645003
0.0600635
0.00677283
0.0569762
0.00690608
0.0537982
0.00686466
0.0506355
0.00668147
0.0475745
0.00639103
0.0446784
0.00602673
0.0419895
0.00561464
0.039533
0.0051701
0.0373207
0.00470745
0.0353569
0.00422876
0.0336369
0.00374503
0.032152
0.00325859
0.030899
0.00275704
0.0298679
0.00226042
0.0290331
0.00178358
0.0283791
0.00133724
0.0278832
0.000919082
0.0275418
0.000539885
0.0273399
0.000193521
0.0272537
-0.000106998
0.0272521
-0.000350857
0.0273071
-0.00051678
0.0273721
-0.000591218
0.02741
-0.000569617
0.0273823
-0.000468535
0.0272231
-0.000247267
0.0268666
8.35828e-05
0.0262432
0.000535657
0.0253261
0.00109396
0.0240996
0.00173266
0.0225786
0.00239153
0.0207766
0.00307805
0.0187531
0.00374961
0.0165444
0.00437125
0.0142215
0.00491704
0.0118464
0.00535668
0.00947047
0.00567671
0.00712345
0.00587137
0.00485232
0.00591784
0.00270178
0.00580814
0.000738739
0.00552195
-0.000961286
0.00507671
-0.00236479
0.00444236
-0.00333927
0.00361208
-0.00387339
0.00265174
-0.00393307
0.00153102
-0.00356733
0.000364909
-0.00281067
-0.000859853
-0.00158987
-0.00212722
8.20324e-05
-0.00341245
0.00220633
-0.00464501
0.00474538
-0.00579338
0.00765492
-0.00680917
0.0108892
-0.00766452
0.0144057
-0.00834573
0.0181356
-0.00882412
0.0220089
-0.00910421
0.0259516
-0.009168
0.029895
-0.0090306
0.0337776
-0.00870675
0.0375453
-0.00821847
0.0411454
-0.00758551
0.0445339
-0.00682971
0.0476679
-0.00597064
0.0505089
-0.00503292
0.0530201
-0.00403847
0.0551688
-0.00303499
0.0569443
-0.00207845
0.0583024
-0.00120811
0.0591657
-0.00036551
0.0595354
0.000491542
0.0595248
0.0012369
0.0592154
0.00181926
0.0586133
0.00230578
0.0577118
0.00273844
0.056515
0.00312458
0.0550762
0.00340691
0.0534465
0.00359765
0.0516582
0.00372231
0.0497605
0.00376621
0.0478159
0.00373054
0.0458929
0.00360375
0.0440572
0.0033835
0.042355
0.00308731
0.0408281
0.00272452
0.0395055
0.00231513
0.038401
0.00188696
0.0375138
0.00146368
0.0368313
0.00107302
0.0363283
0.000735951
0.0359642
0.000473593
0.0356876
0.000314686
0.0354136
0.000294907
0.0350551
0.000416789
0.03455
0.000640444
0.0338723
0.000927309
0.0330121
0.0012503
0.031969
0.00159931
0.0307502
0.00196033
0.0293579
0.00233263
0.0278142
0.00269934
0.0261386
0.00305638
0.0243545
0.00338952
0.0224856
0.00369475
0.0205508
0.00397179
0.0185687
0.00421666
0.0165591
0.00442231
0.0145436
0.00458457
0.012546
0.0046946
0.0105946
0.0047444
0.00871566
0.00472624
0.00694117
0.00463662
0.00530269
0.00446976
0.00380735
0.00424668
0.00247405
0.00396798
0.0013395
0.00359897
0.00042973
0.00316165
-0.000235782
0.00263836
-0.000640942
0.0020433
-0.000783358
0.00139743
-0.00066915
0.000716281
-0.000280045
1.39719e-06
0.00037515
-0.000733225
0.00131529
-0.00147175
0.00252286
-0.00220356
0.00399716
-0.00291472
0.00572208
-0.00359713
0.0076867
-0.00424281
0.00987521
-0.00484362
0.0122706
-0.0053934
0.0148569
-0.00588372
0.017621
-0.00631243
0.0205386
-0.00666503
0.0235827
-0.00693435
0.0267158
-0.00710466
0.0299015
-0.00716459
0.0330994
-0.00710782
0.0362682
-0.00693359
0.0393651
-0.0066445
0.0423478
-0.0062469
0.0451747
-0.00574638
0.0478049
-0.00515558
0.0502032
-0.00449106
0.0523295
-0.0037739
0.0541619
-0.00301693
0.0556711
-0.00225127
0.0568477
-0.00148765
0.0576714
-0.000749335
0.0580703
-3.17952e-05
0.0581348
0.000615057
0.0579454
0.00115091
0.0575148
0.00160431
0.0568566
0.00200015
0.0560216
0.00229664
0.0550444
0.0025129
0.053956
0.00265582
0.0527953
0.00272753
0.0516016
0.00273163
0.050406
0.00267956
0.0492342
0.00258149
0.0481077
0.00244627
0.0470445
0.00228162
0.0460586
0.00209507
0.0451604
0.00189429
0.0443566
0.00168715
0.0436503
0.00148125
0.0430411
0.0012831
0.0425257
0.00109859
0.042097
0.000933166
0.0417444
0.000792534
0.0414534
0.000681545
0.0412057
0.000604751
0.0409816
0.00056661
0.0407531
0.000573603
0.0404873
0.000629702
0.0401502
0.000730175
0.0397149
0.000863261
0.0391621
0.00101761
0.0384789
0.00118618
0.0376608
0.00136818
0.0367052
0.00156855
0.0356126
0.00180035
0.0343746
0.00207309
0.0329884
0.00239499
0.0314549
0.00275402