/*--------------------------------*- C++ -*----------------------------------*\
| =========                 |                                                 |
| \\      /  F ield         | OpenFOAM: The Open Source CFD Toolbox           |
|  \\    /   O peration     | Version:  v1812                                 |
|   \\  /    A nd           | Web:      www.OpenFOAM.com                      |
|    \\/     M anipulation  |                                                 |
\*---------------------------------------------------------------------------*/
FoamFile
{
    version     2.0;
    format      ascii;
    class       volScalarField;
    location    "1.4";
    object      rho;
}
// * * * * * * * * * * * * * * * * * * * * * * * * * * * * * * * * * * * * * //

dimensions      [1 -3 0 0 0 0 0];


internalField   nonuniform List<scalar> 
20400
(
1.19008
1.19007
1.19006
1.19004
1.19003
1.19002
1.19001
1.19
1.19
1.19
1.19
1.19
1.19001
1.19001
1.19002
1.19003
1.19004
1.19005
1.19007
1.19008
1.19009
1.19009
1.1901
1.19011
1.19011
1.19011
1.19011
1.1901
1.19009
1.19005
1.19001
1.18996
1.1899
1.18983
1.18977
1.18971
1.18966
1.18963
1.18963
1.18966
1.18974
1.18985
1.19002
1.1902
1.19043
1.19066
1.1909
1.19114
1.19133
1.19147
1.19159
1.19165
1.19165
1.19156
1.19136
1.19101
1.19052
1.18985
1.18901
1.18804
1.18697
1.18586
1.18474
1.18364
1.18255
1.18146
1.18034
1.17926
1.17826
1.17751
1.17686
1.17641
1.17604
1.17572
1.17543
1.17518
1.17498
1.17483
1.17474
1.1747
1.17471
1.17481
1.17497
1.17519
1.17546
1.17581
1.17619
1.17661
1.17704
1.17749
1.17793
1.17836
1.17877
1.17914
1.17951
1.17978
1.18007
1.18032
1.18056
1.18075
1.18095
1.1811
1.18124
1.18134
1.18145
1.18155
1.18166
1.1818
1.18196
1.18213
1.18232
1.18251
1.18271
1.18294
1.18319
1.18345
1.18372
1.18397
1.1842
1.18441
1.1846
1.18475
1.18488
1.185
1.18511
1.18521
1.18532
1.18544
1.18556
1.1857
1.18585
1.186
1.18617
1.18634
1.18653
1.18672
1.18691
1.18712
1.18733
1.18754
1.18775
1.18797
1.18818
1.18839
1.18859
1.18878
1.18895
1.18909
1.18922
1.18932
1.1894
1.18946
1.1895
1.18953
1.18954
1.18954
1.18952
1.18949
1.18946
1.18942
1.18938
1.18933
1.18929
1.18925
1.18923
1.18925
1.18929
1.18936
1.18944
1.18955
1.18967
1.18983
1.18999
1.19017
1.19034
1.19051
1.19065
1.19078
1.19088
1.19093
1.19095
1.19093
1.19087
1.19078
1.19067
1.19054
1.1904
1.19026
1.19013
1.19
1.18987
1.18975
1.18964
1.18953
1.18942
1.18932
1.18922
1.18912
1.18903
1.18894
1.18886
1.18878
1.18869
1.18861
1.18853
1.18843
1.18833
1.18822
1.1881
1.18797
1.18783
1.18766
1.18749
1.18731
1.18711
1.1869
1.18668
1.18646
1.18623
1.18602
1.1858
1.1856
1.18542
1.18525
1.1851
1.18496
1.18485
1.18475
1.18467
1.18461
1.18455
1.18451
1.18448
1.18446
1.18446
1.18446
1.18447
1.18449
1.18453
1.18457
1.18463
1.1847
1.18479
1.18488
1.185
1.18513
1.18527
1.18542
1.18558
1.18574
1.18591
1.18608
1.18626
1.18643
1.18661
1.18679
1.18697
1.18715
1.18733
1.1875
1.18768
1.18786
1.18804
1.18823
1.18843
1.18864
1.18885
1.18906
1.18928
1.1895
1.18973
1.18997
1.19021
1.19045
1.19069
1.19092
1.19116
1.19139
1.19162
1.19185
1.19207
1.1923
1.19251
1.19273
1.19294
1.19315
1.19336
1.19355
1.19374
1.19392
1.19409
1.19424
1.19437
1.19448
1.19458
1.19466
1.19471
1.19475
1.19476
1.19476
1.19474
1.1947
1.19464
1.19458
1.1945
1.19442
1.19434
1.19425
1.19415
1.19406
1.19396
1.19387
1.19378
1.1937
1.19362
1.19355
1.1935
1.19345
1.19342
1.1934
1.1934
1.1934
1.19342
1.19345
1.1935
1.19355
1.19362
1.1937
1.1938
1.1939
1.19401
1.19412
1.19425
1.19438
1.19451
1.19464
1.19478
1.19492
1.19506
1.1952
1.19533
1.19547
1.19559
1.19571
1.19583
1.19594
1.19605
1.19615
1.19625
1.19635
1.19645
1.19654
1.19663
1.19672
1.1968
1.19689
1.19696
1.19705
1.19712
1.1972
1.19728
1.19735
1.19741
1.19747
1.19753
1.19758
1.19763
1.19767
1.1977
1.19773
1.19775
1.19777
1.19778
1.19778
1.19778
1.19778
1.19777
1.19775
1.19773
1.19771
1.19768
1.19766
1.19763
1.1976
1.19756
1.19753
1.19749
1.19745
1.1974
1.19735
1.1973
1.19726
1.19721
1.19717
1.19713
1.19709
1.19706
1.19704
1.19702
1.19701
1.19701
1.19702
1.19704
1.19706
1.1971
1.19714
1.19719
1.19725
1.19732
1.1974
1.19748
1.19757
1.19766
1.19776
1.19787
1.19797
1.19808
1.19819
1.1983
1.19841
1.19852
1.19863
1.19873
1.19884
1.19894
1.19904
1.19914
1.19923
1.19932
1.19941
1.1995
1.19958
1.19966
1.19974
1.19981
1.19989
1.19996
1.20004
1.20011
1.20018
1.20025
1.20033
1.2004
1.20048
1.20055
1.20063
1.20071
1.20079
1.20088
1.20096
1.20105
1.20114
1.20123
1.20132
1.20141
1.2015
1.20159
1.20168
1.20177
1.20185
1.20194
1.20201
1.20209
1.20216
1.20222
1.20228
1.20234
1.20238
1.20243
1.20247
1.2025
1.20253
1.20255
1.20257
1.20259
1.20261
1.20262
1.20264
1.20265
1.20267
1.20268
1.2027
1.20272
1.20274
1.20276
1.20279
1.20282
1.20285
1.20288
1.20292
1.20296
1.203
1.20305
1.2031
1.20315
1.20321
1.20325
1.20336
1.20354
1.2039
1.19004
1.19003
1.19002
1.19
1.18999
1.18998
1.18998
1.18998
1.18998
1.18998
1.18998
1.18998
1.18999
1.18999
1.19
1.19002
1.19003
1.19004
1.19006
1.19007
1.19009
1.1901
1.19012
1.19013
1.19014
1.19014
1.19014
1.19013
1.19011
1.19007
1.19003
1.18997
1.18991
1.18984
1.18978
1.18971
1.18966
1.18963
1.18963
1.18965
1.18971
1.18981
1.18993
1.19009
1.19028
1.19049
1.19074
1.19099
1.19127
1.19151
1.19173
1.19189
1.19199
1.19203
1.192
1.19189
1.19166
1.19131
1.19079
1.1901
1.1892
1.18806
1.18667
1.18509
1.18342
1.18182
1.18038
1.17912
1.17805
1.1772
1.17666
1.17631
1.17606
1.17585
1.17569
1.17559
1.17555
1.17558
1.17568
1.17584
1.17606
1.17638
1.17669
1.17703
1.1774
1.1778
1.17821
1.17863
1.17906
1.17949
1.1799
1.18031
1.18069
1.18106
1.18136
1.1817
1.18195
1.18213
1.18222
1.18226
1.18222
1.18214
1.18201
1.18185
1.18168
1.18148
1.18128
1.1811
1.18094
1.18081
1.18072
1.18067
1.18075
1.18091
1.18115
1.18144
1.18177
1.18214
1.18252
1.18291
1.18327
1.1836
1.18389
1.18414
1.18435
1.18454
1.1847
1.18486
1.18501
1.18517
1.18533
1.1855
1.18568
1.18586
1.18604
1.18623
1.18643
1.18662
1.18682
1.18703
1.18724
1.18745
1.18767
1.1879
1.18813
1.18837
1.1886
1.18882
1.189
1.18914
1.18925
1.18933
1.18937
1.18939
1.1894
1.18939
1.18936
1.18933
1.18928
1.18923
1.18917
1.18913
1.18909
1.18908
1.18907
1.18908
1.18909
1.18915
1.18926
1.18941
1.18959
1.18981
1.19006
1.19034
1.19063
1.19092
1.19122
1.1915
1.19176
1.19201
1.19223
1.19241
1.19254
1.1926
1.19259
1.19252
1.19239
1.19221
1.19201
1.19179
1.19155
1.19131
1.19106
1.19082
1.19058
1.19035
1.19013
1.18992
1.18973
1.18956
1.18941
1.18928
1.18917
1.18907
1.18899
1.18892
1.18885
1.18878
1.18871
1.18863
1.18853
1.1884
1.18825
1.18806
1.18783
1.18757
1.18728
1.18697
1.18663
1.1863
1.18596
1.18565
1.18535
1.18509
1.18486
1.18467
1.18452
1.1844
1.18431
1.18425
1.18421
1.18419
1.1842
1.18421
1.18423
1.18427
1.18432
1.18438
1.18446
1.18455
1.18465
1.18476
1.1849
1.18505
1.18521
1.18538
1.18556
1.18573
1.18591
1.18608
1.18624
1.18639
1.18652
1.18665
1.18676
1.18685
1.18693
1.187
1.18707
1.18714
1.1872
1.18728
1.18736
1.18746
1.18757
1.18771
1.18788
1.18807
1.18828
1.18847
1.1887
1.18894
1.18919
1.18944
1.18969
1.18994
1.19019
1.19044
1.19068
1.19092
1.19115
1.19138
1.19161
1.19183
1.19207
1.1923
1.19254
1.19278
1.19302
1.19327
1.19351
1.19374
1.19397
1.19418
1.19437
1.19455
1.19469
1.1948
1.19488
1.19495
1.19497
1.19496
1.19492
1.19484
1.19474
1.19462
1.19448
1.19434
1.19419
1.19405
1.19391
1.19378
1.19366
1.19354
1.19344
1.19335
1.19327
1.19321
1.19317
1.19314
1.19312
1.19313
1.19315
1.19318
1.19324
1.1933
1.19338
1.19348
1.19358
1.1937
1.19383
1.19397
1.19412
1.19427
1.19443
1.19459
1.19475
1.19491
1.19506
1.19522
1.19537
1.19551
1.19565
1.19579
1.19591
1.19603
1.19615
1.19625
1.19635
1.19645
1.19654
1.19663
1.19672
1.1968
1.19687
1.19695
1.19701
1.19707
1.19714
1.19721
1.19727
1.19734
1.1974
1.19746
1.19753
1.19759
1.19765
1.19772
1.19778
1.19784
1.19789
1.19795
1.19799
1.19803
1.19806
1.19808
1.19808
1.19807
1.19805
1.19802
1.19797
1.19793
1.19787
1.19782
1.19777
1.19772
1.19767
1.19762
1.19757
1.19752
1.19747
1.19742
1.19738
1.19735
1.19731
1.19729
1.19727
1.19725
1.19725
1.19725
1.19726
1.19728
1.1973
1.19733
1.19737
1.19742
1.19747
1.19753
1.1976
1.19767
1.19775
1.19783
1.19791
1.19799
1.19807
1.19816
1.19825
1.19833
1.19842
1.1985
1.19858
1.19866
1.19874
1.19883
1.19891
1.19899
1.19907
1.19915
1.19923
1.19932
1.19941
1.19949
1.19958
1.19966
1.19975
1.19983
1.19992
1.20001
1.2001
1.20019
1.20028
1.20037
1.20046
1.20055
1.20063
1.20072
1.20081
1.2009
1.20098
1.20107
1.20116
1.20124
1.20133
1.20142
1.20151
1.2016
1.20169
1.20178
1.20187
1.20196
1.20204
1.20213
1.20222
1.2023
1.20238
1.20246
1.20254
1.2026
1.20267
1.20273
1.20279
1.20284
1.20289
1.20294
1.20298
1.20303
1.20307
1.20311
1.20315
1.2032
1.20324
1.20329
1.20333
1.20338
1.20343
1.20348
1.20353
1.20359
1.20365
1.2037
1.20377
1.20383
1.20389
1.20396
1.20402
1.20409
1.20414
1.20423
1.20436
1.20474
1.18997
1.18996
1.18995
1.18994
1.18994
1.18994
1.18995
1.18996
1.18996
1.18997
1.18998
1.18999
1.19
1.19
1.19001
1.19002
1.19003
1.19004
1.19006
1.19007
1.19009
1.19011
1.19013
1.19015
1.19017
1.19018
1.19017
1.19016
1.19013
1.19009
1.19003
1.18996
1.18987
1.18978
1.18968
1.18958
1.18948
1.18938
1.18929
1.18922
1.18918
1.18916
1.18919
1.18927
1.18941
1.18958
1.1898
1.19005
1.19033
1.19065
1.19099
1.19132
1.19162
1.19186
1.19201
1.19209
1.19207
1.19195
1.19169
1.19129
1.19051
1.18945
1.18792
1.18597
1.18377
1.18162
1.17973
1.17828
1.17735
1.17689
1.17666
1.17649
1.17645
1.17651
1.17668
1.17695
1.1773
1.1777
1.17814
1.17859
1.17905
1.1795
1.18002
1.18055
1.1811
1.18161
1.18213
1.18262
1.18312
1.18359
1.18404
1.18444
1.18481
1.18512
1.18539
1.18561
1.18578
1.1859
1.18596
1.18597
1.1859
1.18577
1.18555
1.18525
1.18488
1.18444
1.18392
1.18335
1.18273
1.1821
1.18146
1.18086
1.18033
1.17993
1.17972
1.17961
1.17958
1.17969
1.17995
1.18034
1.18081
1.18132
1.18184
1.18232
1.18276
1.18313
1.18345
1.18372
1.18395
1.18416
1.18436
1.18457
1.18477
1.18498
1.1852
1.18542
1.18566
1.18591
1.18615
1.1864
1.18665
1.18689
1.18713
1.18736
1.1876
1.18784
1.18811
1.18839
1.18865
1.18887
1.18903
1.18912
1.18916
1.18916
1.18913
1.18909
1.18903
1.18897
1.18889
1.1888
1.18871
1.18862
1.18853
1.18847
1.18841
1.18839
1.18842
1.18847
1.18856
1.18869
1.18887
1.18909
1.18936
1.18966
1.19
1.19038
1.19079
1.19121
1.19163
1.19204
1.19243
1.19281
1.19315
1.19345
1.19372
1.19394
1.19409
1.19417
1.19418
1.19414
1.19402
1.19383
1.19357
1.19326
1.19293
1.19258
1.19221
1.19183
1.19146
1.1911
1.19076
1.19045
1.19018
1.18995
1.18976
1.18962
1.18951
1.18942
1.18936
1.1893
1.18924
1.18917
1.18906
1.18892
1.18871
1.18844
1.1881
1.18769
1.18723
1.18672
1.18621
1.18571
1.18524
1.18483
1.18448
1.1842
1.18399
1.18386
1.18379
1.18376
1.18378
1.18387
1.18401
1.18417
1.18433
1.1845
1.1847
1.18491
1.18515
1.18541
1.1857
1.186
1.18632
1.18664
1.18696
1.18727
1.18757
1.18786
1.18813
1.18837
1.18859
1.18878
1.18893
1.18904
1.1891
1.18911
1.18906
1.18896
1.1888
1.1886
1.18835
1.18809
1.18782
1.18757
1.18734
1.18717
1.18705
1.187
1.18702
1.18708
1.1872
1.18738
1.18762
1.18788
1.18817
1.18847
1.18877
1.18908
1.18938
1.18967
1.18995
1.19022
1.19048
1.19073
1.19097
1.19122
1.19147
1.19172
1.19199
1.19227
1.19256
1.19286
1.19318
1.19349
1.19381
1.19411
1.19438
1.19463
1.19484
1.195
1.1951
1.19516
1.19518
1.19514
1.19505
1.19489
1.19469
1.19448
1.19425
1.19403
1.19382
1.19362
1.19344
1.19328
1.19313
1.19301
1.19291
1.19284
1.19278
1.19275
1.19274
1.19275
1.19278
1.19283
1.1929
1.19299
1.1931
1.19322
1.19335
1.1935
1.19365
1.19382
1.19399
1.19416
1.19434
1.19452
1.1947
1.19488
1.19506
1.19523
1.1954
1.19555
1.1957
1.19584
1.19597
1.1961
1.19621
1.19632
1.19642
1.19652
1.19661
1.1967
1.19679
1.19687
1.19696
1.19704
1.19712
1.19719
1.19726
1.19732
1.19738
1.19744
1.1975
1.19755
1.19761
1.19767
1.19773
1.19779
1.19785
1.19791
1.19798
1.19806
1.19813
1.1982
1.19827
1.19833
1.19837
1.1984
1.19841
1.19839
1.19835
1.19829
1.19821
1.19812
1.19803
1.19795
1.19788
1.19781
1.19775
1.1977
1.19765
1.19762
1.19758
1.19756
1.19754
1.19753
1.19753
1.19753
1.19755
1.19757
1.19759
1.19763
1.19767
1.19771
1.19777
1.19783
1.19789
1.19796
1.19804
1.19811
1.19819
1.19827
1.19834
1.19842
1.19849
1.19856
1.19863
1.19869
1.19874
1.19879
1.19883
1.19887
1.19891
1.19894
1.19897
1.199
1.19904
1.19907
1.19911
1.19916
1.19921
1.19928
1.19935
1.19943
1.19951
1.1996
1.19969
1.1998
1.19991
1.20002
1.20014
1.20027
1.20039
1.20052
1.20064
1.20076
1.20088
1.201
1.20111
1.20122
1.20132
1.20142
1.20152
1.20161
1.2017
1.20179
1.20188
1.20196
1.20205
1.20213
1.20222
1.20231
1.2024
1.2025
1.20259
1.20269
1.20278
1.20288
1.20298
1.20307
1.20316
1.20326
1.20335
1.20344
1.20353
1.20361
1.2037
1.20379
1.20387
1.20396
1.20404
1.20413
1.20422
1.20431
1.20439
1.20448
1.20457
1.20466
1.20476
1.20485
1.20494
1.20504
1.20513
1.20523
1.20532
1.20542
1.20549
1.20561
1.20572
1.20613
1.18988
1.18988
1.18988
1.18988
1.18989
1.1899
1.18992
1.18993
1.18994
1.18995
1.18996
1.18997
1.18998
1.18999
1.19
1.19001
1.19003
1.19005
1.19007
1.1901
1.19013
1.19016
1.19019
1.19021
1.19022
1.19022
1.19021
1.19018
1.19013
1.19006
1.18998
1.18988
1.18975
1.18959
1.1894
1.18918
1.18894
1.18868
1.18847
1.18829
1.18817
1.18812
1.18815
1.18823
1.18834
1.18847
1.18863
1.18879
1.18899
1.18921
1.18947
1.1898
1.1902
1.19065
1.19108
1.19143
1.19163
1.19169
1.19163
1.19137
1.19079
1.18972
1.18804
1.18578
1.18318
1.1807
1.17878
1.17761
1.17711
1.1769
1.17685
1.177
1.17734
1.1778
1.17835
1.17894
1.17955
1.18016
1.18078
1.18136
1.18193
1.18247
1.18292
1.18335
1.18373
1.18413
1.18453
1.18493
1.18533
1.18574
1.18614
1.18653
1.18691
1.18726
1.18758
1.18788
1.18812
1.18831
1.18844
1.18851
1.18852
1.18847
1.18836
1.18818
1.18794
1.18762
1.18722
1.18673
1.18616
1.1855
1.18476
1.18394
1.18305
1.18211
1.18116
1.1803
1.17959
1.17907
1.17879
1.17869
1.17871
1.17892
1.1793
1.17982
1.18039
1.18097
1.1815
1.18197
1.18237
1.1827
1.18297
1.18322
1.18345
1.18368
1.18391
1.18415
1.18442
1.18471
1.18503
1.18537
1.18572
1.18608
1.18644
1.18678
1.1871
1.1874
1.1877
1.188
1.18831
1.18858
1.18879
1.18891
1.18894
1.18891
1.18885
1.18876
1.18865
1.18854
1.18842
1.1883
1.18817
1.18805
1.18793
1.18782
1.18774
1.18767
1.18763
1.18765
1.18771
1.18782
1.18797
1.18817
1.18842
1.18871
1.18904
1.1894
1.18979
1.19021
1.19067
1.19114
1.19163
1.19214
1.19264
1.19314
1.19361
1.19404
1.19442
1.19474
1.19503
1.19527
1.19543
1.19547
1.19546
1.1954
1.19526
1.19504
1.19475
1.19439
1.19397
1.19352
1.19304
1.19255
1.19206
1.1916
1.19118
1.19082
1.19052
1.19028
1.1901
1.18996
1.18985
1.18975
1.18966
1.18954
1.18938
1.18916
1.18884
1.18841
1.18787
1.18724
1.18655
1.18585
1.18517
1.18457
1.18407
1.18369
1.18346
1.18336
1.18333
1.1834
1.1836
1.18388
1.18418
1.18452
1.18491
1.18534
1.1858
1.18627
1.18675
1.18723
1.18768
1.18812
1.18854
1.18893
1.1893
1.18965
1.19
1.19033
1.19066
1.19099
1.1913
1.1916
1.19188
1.19213
1.19233
1.19248
1.19256
1.19257
1.19249
1.19232
1.19204
1.19166
1.19117
1.1906
1.18995
1.18925
1.18855
1.18788
1.18728
1.1868
1.18648
1.18632
1.1863
1.18632
1.18642
1.18662
1.18691
1.18726
1.18764
1.18802
1.18841
1.18879
1.18916
1.18951
1.18984
1.19016
1.19046
1.19075
1.19103
1.19132
1.19162
1.19194
1.19229
1.19265
1.19303
1.19343
1.19382
1.1942
1.19455
1.19485
1.19508
1.19523
1.1953
1.19533
1.19529
1.19516
1.19495
1.19467
1.19436
1.19404
1.19374
1.19346
1.19321
1.19299
1.1928
1.19265
1.19254
1.19246
1.19242
1.1924
1.19242
1.19247
1.19254
1.19263
1.19274
1.19287
1.19302
1.19318
1.19336
1.19355
1.19375
1.19395
1.19417
1.19439
1.1946
1.19482
1.19503
1.19524
1.19544
1.19563
1.1958
1.19596
1.1961
1.19623
1.19634
1.19643
1.19651
1.19658
1.19664
1.19669
1.19674
1.19679
1.19684
1.19689
1.19695
1.19702
1.19708
1.19716
1.19724
1.19733
1.1974
1.19748
1.19756
1.19764
1.19771
1.19778
1.19784
1.1979
1.19796
1.19802
1.19808
1.19814
1.19821
1.19828
1.19835
1.19843
1.1985
1.19857
1.19862
1.19865
1.19865
1.19861
1.19854
1.19843
1.19832
1.19819
1.19808
1.19798
1.1979
1.19783
1.19778
1.19775
1.19772
1.19771
1.1977
1.19771
1.19772
1.19774
1.19777
1.19781
1.19786
1.19791
1.19797
1.19804
1.19811
1.19818
1.19826
1.19835
1.19843
1.19852
1.19861
1.19871
1.19879
1.19888
1.19896
1.19904
1.1991
1.19916
1.19921
1.19925
1.19927
1.19928
1.19929
1.19928
1.19926
1.19923
1.1992
1.19917
1.19914
1.19912
1.1991
1.19909
1.19908
1.1991
1.19913
1.19918
1.19925
1.19933
1.19942
1.19954
1.19967
1.19982
1.19998
1.20015
1.20032
1.2005
1.20068
1.20086
1.20103
1.20119
1.20134
1.20149
1.20162
1.20175
1.20186
1.20197
1.20207
1.20216
1.20225
1.20234
1.20243
1.20251
1.2026
1.2027
1.2028
1.2029
1.20301
1.20313
1.20325
1.20338
1.20351
1.20364
1.20377
1.20391
1.20404
1.20418
1.20431
1.20444
1.20457
1.20469
1.20482
1.20494
1.20506
1.20518
1.2053
1.20542
1.20553
1.20565
1.20576
1.20587
1.20599
1.2061
1.20622
1.20634
1.20646
1.20658
1.20668
1.20683
1.20695
1.20738
1.18981
1.18981
1.18982
1.18984
1.18987
1.1899
1.18993
1.18995
1.18997
1.18999
1.19
1.19002
1.19003
1.19004
1.19005
1.19006
1.19008
1.1901
1.19012
1.19015
1.19019
1.19022
1.19025
1.19027
1.19026
1.19024
1.19019
1.19014
1.19006
1.18996
1.18984
1.18966
1.18943
1.18913
1.18879
1.18844
1.18814
1.18785
1.18765
1.18755
1.18753
1.18759
1.18772
1.18787
1.18802
1.18816
1.18826
1.18833
1.18838
1.18843
1.18848
1.18851
1.18864
1.18893
1.18937
1.1899
1.19039
1.19071
1.19081
1.19074
1.19027
1.18923
1.18744
1.18495
1.18211
1.17959
1.17795
1.17723
1.17704
1.17708
1.17738
1.17793
1.17866
1.17949
1.18036
1.18121
1.18198
1.18263
1.18316
1.18358
1.18393
1.18425
1.18454
1.18482
1.18513
1.18543
1.18575
1.18608
1.18642
1.18678
1.18713
1.18749
1.18782
1.18815
1.18844
1.1887
1.18894
1.18914
1.18931
1.18945
1.18954
1.18959
1.18959
1.18953
1.18942
1.18925
1.18902
1.18872
1.18835
1.1879
1.18737
1.18674
1.18602
1.18518
1.18423
1.18315
1.18199
1.18086
1.17988
1.1791
1.17849
1.17808
1.17795
1.17798
1.17818
1.17859
1.17913
1.17972
1.18029
1.18079
1.18121
1.18156
1.18184
1.18209
1.18232
1.18255
1.1828
1.18308
1.18339
1.18376
1.18418
1.18466
1.18517
1.18572
1.18625
1.18675
1.1872
1.18761
1.18798
1.1883
1.18855
1.18869
1.18871
1.18867
1.18858
1.18843
1.18826
1.1881
1.18795
1.18781
1.18766
1.18752
1.18738
1.18727
1.18718
1.18711
1.18708
1.18708
1.18711
1.18719
1.18732
1.18748
1.1877
1.18795
1.18825
1.18858
1.18893
1.18932
1.18975
1.19021
1.19069
1.19121
1.19175
1.19231
1.19287
1.19342
1.19395
1.19444
1.19489
1.19528
1.19562
1.19591
1.19615
1.19633
1.19642
1.19643
1.1964
1.1963
1.19612
1.19585
1.19549
1.19503
1.19451
1.19395
1.19335
1.19277
1.19221
1.19172
1.19129
1.19093
1.19065
1.19042
1.19023
1.19006
1.18988
1.18966
1.18937
1.18898
1.18844
1.18775
1.18694
1.18606
1.18518
1.18437
1.18371
1.18325
1.18301
1.18295
1.18299
1.18321
1.18361
1.18411
1.18468
1.18532
1.18599
1.18667
1.18733
1.18792
1.18845
1.1889
1.18927
1.18959
1.18986
1.19009
1.19033
1.19058
1.19085
1.19114
1.19145
1.19178
1.19212
1.19249
1.19285
1.19323
1.1936
1.19395
1.19426
1.19452
1.19472
1.19483
1.19484
1.19475
1.19455
1.19421
1.19374
1.19311
1.19235
1.19145
1.19046
1.18941
1.18838
1.18743
1.18664
1.18606
1.18568
1.18552
1.1855
1.18556
1.18573
1.18603
1.18643
1.18688
1.18737
1.18786
1.18835
1.18882
1.18927
1.18968
1.19008
1.19045
1.1908
1.19116
1.19152
1.1919
1.1923
1.19274
1.1932
1.19366
1.19412
1.19455
1.19491
1.19518
1.19534
1.1954
1.19542
1.19535
1.19517
1.19488
1.19451
1.19411
1.19372
1.19335
1.19302
1.19275
1.19254
1.19239
1.19229
1.19225
1.19225
1.19228
1.19234
1.19244
1.19257
1.19272
1.19289
1.19308
1.19329
1.1935
1.19373
1.19396
1.1942
1.19445
1.1947
1.19495
1.1952
1.19546
1.1957
1.19594
1.19617
1.19639
1.1966
1.19678
1.19695
1.19709
1.1972
1.19729
1.19736
1.1974
1.19742
1.19741
1.19739
1.19736
1.19732
1.19728
1.19724
1.19721
1.19719
1.19719
1.19721
1.19726
1.19732
1.19739
1.19746
1.19755
1.19765
1.19774
1.19784
1.19794
1.19803
1.19811
1.19817
1.19824
1.1983
1.19836
1.19842
1.19849
1.19856
1.19863
1.1987
1.19875
1.19879
1.1988
1.19877
1.19869
1.19857
1.19843
1.19828
1.19814
1.19802
1.19793
1.19786
1.19781
1.19779
1.19778
1.19778
1.1978
1.19782
1.19786
1.1979
1.19796
1.19801
1.19808
1.19815
1.19822
1.1983
1.19839
1.19848
1.19857
1.19867
1.19877
1.19887
1.19898
1.19908
1.19918
1.19928
1.19937
1.19946
1.19954
1.19961
1.19967
1.19971
1.19973
1.19974
1.19974
1.19971
1.19967
1.19962
1.19954
1.19946
1.19937
1.19927
1.19918
1.19908
1.199
1.19893
1.19887
1.19883
1.19883
1.19886
1.19892
1.199
1.1991
1.19923
1.19941
1.19961
1.19983
1.20007
1.20032
1.20058
1.20083
1.20107
1.2013
1.20151
1.2017
1.20188
1.20203
1.20218
1.2023
1.20242
1.20252
1.20262
1.20271
1.2028
1.2029
1.203
1.20311
1.20322
1.20335
1.20349
1.20364
1.2038
1.20396
1.20413
1.2043
1.20448
1.20465
1.20482
1.20498
1.20514
1.2053
1.20544
1.20558
1.20572
1.20584
1.20597
1.20608
1.2062
1.20631
1.20642
1.20653
1.20664
1.20675
1.20686
1.20697
1.20709
1.20722
1.20732
1.20748
1.20761
1.20803
1.18976
1.18977
1.1898
1.18983
1.18987
1.18991
1.18994
1.18997
1.18999
1.19001
1.19003
1.19004
1.19005
1.19007
1.19009
1.19011
1.19014
1.19017
1.19021
1.19025
1.1903
1.19032
1.19033
1.19031
1.19027
1.19021
1.19013
1.19004
1.18993
1.18976
1.18954
1.18925
1.18888
1.18847
1.18808
1.18775
1.18755
1.18744
1.18741
1.18753
1.18779
1.1881
1.18843
1.18875
1.18903
1.18924
1.18935
1.18932
1.18913
1.18881
1.18846
1.1882
1.18804
1.18793
1.18799
1.18827
1.18873
1.18921
1.18949
1.18951
1.1892
1.18819
1.1863
1.18366
1.18083
1.17862
1.17746
1.17714
1.17715
1.17751
1.1782
1.17913
1.18017
1.18121
1.18214
1.18291
1.18351
1.18395
1.18429
1.18452
1.18471
1.18488
1.18505
1.18522
1.18542
1.18565
1.18592
1.18622
1.18655
1.1869
1.18725
1.1876
1.18795
1.18828
1.1886
1.18889
1.18915
1.18939
1.18959
1.18975
1.18989
1.18998
1.19004
1.19006
1.19003
1.18996
1.18983
1.18965
1.18941
1.18912
1.18876
1.18833
1.18783
1.18723
1.18654
1.18572
1.18476
1.18365
1.18242
1.18113
1.17992
1.17891
1.17816
1.1776
1.17728
1.17724
1.17733
1.17763
1.17809
1.17863
1.17917
1.17965
1.18004
1.18036
1.18062
1.18085
1.18106
1.18128
1.18154
1.18186
1.18225
1.18274
1.18333
1.18402
1.18478
1.18556
1.18631
1.18698
1.18754
1.18799
1.18831
1.18848
1.18852
1.18847
1.18835
1.18816
1.18794
1.18774
1.18758
1.18742
1.18728
1.18715
1.18703
1.18691
1.18681
1.18673
1.18668
1.18666
1.18667
1.18672
1.18682
1.18697
1.18718
1.18742
1.18771
1.18803
1.18837
1.18873
1.18912
1.18954
1.18999
1.19047
1.191
1.19156
1.19214
1.19273
1.19331
1.19386
1.19436
1.19482
1.19523
1.1956
1.19592
1.19621
1.19646
1.19668
1.19685
1.19696
1.19698
1.19697
1.1969
1.19674
1.19648
1.1961
1.19562
1.19506
1.19442
1.19375
1.19309
1.19247
1.19191
1.19144
1.19105
1.19072
1.19043
1.19014
1.18982
1.18942
1.1889
1.18821
1.18735
1.18634
1.18528
1.18426
1.18343
1.18289
1.18267
1.18263
1.18275
1.18313
1.18374
1.18452
1.18539
1.18628
1.18714
1.1879
1.18853
1.18901
1.18935
1.18959
1.18975
1.18985
1.18993
1.19001
1.1901
1.19022
1.19039
1.1906
1.19087
1.19121
1.19162
1.19208
1.19257
1.19307
1.19356
1.19403
1.19448
1.19488
1.19523
1.19554
1.19577
1.19594
1.19603
1.19602
1.1959
1.19567
1.19529
1.19475
1.19404
1.19314
1.19206
1.19084
1.18954
1.18828
1.18715
1.18624
1.18554
1.18503
1.18475
1.18471
1.18478
1.18498
1.18533
1.18581
1.18637
1.18698
1.1876
1.18821
1.1888
1.18934
1.18985
1.19033
1.19078
1.19122
1.19166
1.19213
1.19262
1.19314
1.19367
1.19419
1.19466
1.19505
1.19531
1.19544
1.19548
1.19546
1.19533
1.19507
1.19469
1.19425
1.19378
1.19334
1.19294
1.19263
1.1924
1.19226
1.19221
1.1922
1.19222
1.1923
1.19243
1.1926
1.1928
1.19301
1.19324
1.19347
1.19371
1.19395
1.1942
1.19445
1.19471
1.19497
1.19524
1.1955
1.19577
1.19603
1.1963
1.19656
1.19682
1.19707
1.19731
1.19754
1.19774
1.19792
1.19808
1.19821
1.19831
1.19838
1.19842
1.19843
1.19842
1.19837
1.1983
1.19821
1.1981
1.19797
1.19785
1.19772
1.1976
1.19751
1.19745
1.19743
1.19745
1.19748
1.19754
1.19761
1.19771
1.19783
1.19794
1.19806
1.19817
1.19827
1.19835
1.19842
1.19849
1.19855
1.19861
1.19867
1.19874
1.1988
1.19885
1.19888
1.19889
1.19885
1.19876
1.19863
1.19846
1.19829
1.19813
1.198
1.1979
1.19784
1.1978
1.19779
1.19779
1.19781
1.19784
1.19788
1.19793
1.19799
1.19805
1.19812
1.1982
1.19828
1.19836
1.19845
1.19854
1.19864
1.19874
1.19885
1.19896
1.19907
1.19919
1.1993
1.19941
1.19952
1.19963
1.19972
1.19981
1.19989
1.19996
1.20001
1.20005
1.20008
1.20008
1.20007
1.20004
1.19999
1.19991
1.19982
1.19971
1.19958
1.19943
1.19928
1.19911
1.19895
1.1988
1.19867
1.19855
1.19847
1.19843
1.19844
1.1985
1.19859
1.19872
1.1989
1.19913
1.19941
1.19972
1.20006
1.2004
1.20075
1.20108
1.20139
1.20166
1.20191
1.20212
1.20231
1.20248
1.20262
1.20275
1.20287
1.20298
1.20308
1.20319
1.2033
1.20342
1.20356
1.2037
1.20387
1.20404
1.20423
1.20442
1.20462
1.20482
1.20502
1.20522
1.2054
1.20557
1.20574
1.20588
1.20602
1.20615
1.20626
1.20636
1.20646
1.20655
1.20665
1.20673
1.20682
1.2069
1.20699
1.20707
1.20717
1.20727
1.20739
1.20749
1.20764
1.20777
1.20817
1.18973
1.18976
1.18979
1.18984
1.18989
1.18993
1.18997
1.19001
1.19004
1.19006
1.19008
1.1901
1.19012
1.19015
1.19017
1.19021
1.19025
1.19029
1.19034
1.19038
1.1904
1.19039
1.19034
1.19028
1.1902
1.1901
1.18998
1.18984
1.18965
1.1894
1.18908
1.18868
1.18826
1.18789
1.18763
1.18747
1.18742
1.18753
1.18775
1.18807
1.18839
1.1887
1.18907
1.18947
1.1899
1.19033
1.1907
1.19094
1.19096
1.19069
1.1901
1.18925
1.18835
1.18771
1.1874
1.18723
1.18734
1.18765
1.18798
1.18806
1.1878
1.1868
1.18487
1.18227
1.1797
1.17794
1.17719
1.17709
1.17738
1.17809
1.17912
1.18031
1.18151
1.18257
1.18342
1.18403
1.18444
1.18469
1.18485
1.18493
1.18501
1.18512
1.18522
1.18537
1.18557
1.1858
1.18608
1.18638
1.1867
1.18704
1.18738
1.18772
1.18804
1.18834
1.18862
1.18889
1.18914
1.18939
1.18961
1.18982
1.18999
1.19014
1.19025
1.19031
1.19033
1.19031
1.19024
1.19012
1.18996
1.18974
1.18947
1.18915
1.18878
1.18834
1.18783
1.18724
1.18655
1.18573
1.18475
1.18361
1.18232
1.18096
1.17965
1.17851
1.17765
1.17704
1.17664
1.17653
1.17659
1.17682
1.17721
1.17768
1.17815
1.17857
1.1789
1.17917
1.17938
1.17957
1.17977
1.18001
1.18031
1.18072
1.18126
1.18196
1.18282
1.18381
1.18486
1.18588
1.18678
1.18749
1.18799
1.18826
1.18833
1.1883
1.18817
1.18795
1.18768
1.18744
1.18726
1.1871
1.18696
1.18684
1.18675
1.18664
1.18654
1.18645
1.18639
1.18635
1.18633
1.18635
1.18642
1.18654
1.18672
1.18697
1.18726
1.18758
1.18792
1.18828
1.18866
1.18905
1.18947
1.18992
1.19042
1.19096
1.19155
1.19216
1.19276
1.19332
1.19383
1.19427
1.19465
1.19498
1.19527
1.19553
1.19577
1.19601
1.19624
1.19645
1.19664
1.1968
1.19694
1.19702
1.19704
1.19703
1.19692
1.19666
1.19627
1.19576
1.19512
1.1944
1.19366
1.19294
1.19228
1.1917
1.1912
1.19076
1.19032
1.18986
1.18932
1.18862
1.18775
1.18667
1.18547
1.18428
1.18327
1.18262
1.18239
1.18236
1.18255
1.18307
1.18391
1.18496
1.18607
1.18712
1.18801
1.18869
1.18914
1.18937
1.18944
1.18944
1.18937
1.18921
1.18903
1.18887
1.18878
1.18877
1.18884
1.18901
1.18925
1.18958
1.19003
1.19057
1.19119
1.19185
1.19254
1.19322
1.19388
1.1945
1.19504
1.19549
1.19585
1.19612
1.19632
1.19646
1.19654
1.19656
1.19649
1.19633
1.19604
1.19559
1.19496
1.19411
1.19305
1.19178
1.19036
1.18891
1.18753
1.18635
1.18541
1.18471
1.1842
1.18398
1.184
1.18413
1.18443
1.18492
1.18555
1.18627
1.18702
1.18778
1.18852
1.1892
1.18984
1.19042
1.19098
1.19152
1.19207
1.19264
1.19322
1.19381
1.19438
1.19487
1.19523
1.19544
1.19551
1.19552
1.19544
1.19523
1.19487
1.19441
1.1939
1.1934
1.19296
1.19262
1.19238
1.19226
1.19222
1.19222
1.19229
1.19244
1.19264
1.19287
1.19312
1.19337
1.19362
1.19387
1.19412
1.19437
1.19461
1.19486
1.19511
1.19537
1.19562
1.19588
1.19614
1.19641
1.19667
1.19694
1.19721
1.19748
1.19775
1.19801
1.19826
1.19849
1.1987
1.19887
1.19902
1.19914
1.19923
1.19928
1.1993
1.1993
1.19926
1.19919
1.1991
1.19897
1.19883
1.19866
1.19848
1.19828
1.19809
1.19792
1.19778
1.19768
1.19762
1.19762
1.19765
1.19772
1.1978
1.19792
1.19805
1.19818
1.19831
1.19842
1.19851
1.19859
1.19865
1.19871
1.19877
1.19882
1.19887
1.19891
1.19894
1.19893
1.19888
1.19877
1.19862
1.19844
1.19825
1.19808
1.19794
1.19785
1.19779
1.19777
1.19776
1.19778
1.19781
1.19785
1.1979
1.19796
1.19802
1.1981
1.19817
1.19826
1.19834
1.19843
1.19853
1.19863
1.19874
1.19885
1.19897
1.19909
1.19922
1.19934
1.19947
1.19959
1.1997
1.19981
1.19991
1.2
1.20008
1.20014
1.2002
1.20024
1.20026
1.20028
1.20028
1.20026
1.20023
1.20017
1.20009
1.2
1.19987
1.19972
1.19955
1.19936
1.19915
1.19893
1.19872
1.19851
1.19832
1.19815
1.19803
1.19798
1.198
1.19808
1.1982
1.19839
1.19865
1.19899
1.19938
1.19981
1.20026
1.2007
1.20112
1.20151
1.20185
1.20215
1.2024
1.20261
1.20279
1.20295
1.2031
1.20323
1.20335
1.20348
1.20361
1.20375
1.2039
1.20407
1.20426
1.20445
1.20466
1.20488
1.20509
1.20531
1.20551
1.2057
1.20587
1.20603
1.20617
1.20629
1.20639
1.20647
1.20656
1.20664
1.2067
1.20677
1.20683
1.20688
1.20694
1.207
1.20707
1.20714
1.20722
1.20731
1.20739
1.20753
1.20765
1.20802
1.18973
1.18976
1.1898
1.18985
1.18991
1.18995
1.18999
1.19003
1.19007
1.1901
1.19013
1.19017
1.1902
1.19024
1.19029
1.19034
1.19039
1.19044
1.19048
1.19049
1.19046
1.19039
1.19029
1.19016
1.19003
1.18989
1.18973
1.18953
1.18928
1.18895
1.18855
1.18814
1.18782
1.18757
1.1874
1.18736
1.18744
1.18759
1.18773
1.18791
1.18814
1.18839
1.18875
1.18919
1.18972
1.1903
1.1909
1.19152
1.19203
1.1923
1.19219
1.19157
1.19047
1.18902
1.18768
1.18697
1.18658
1.18643
1.18651
1.18654
1.18625
1.18523
1.18337
1.18101
1.17886
1.17754
1.17708
1.17715
1.17773
1.17873
1.17998
1.18128
1.18245
1.18338
1.18404
1.18447
1.18472
1.18485
1.18492
1.18495
1.18499
1.18506
1.18515
1.18529
1.18547
1.1857
1.18597
1.18628
1.18661
1.18696
1.18731
1.18765
1.18797
1.18827
1.18856
1.18884
1.18911
1.18937
1.18963
1.18987
1.19008
1.19026
1.1904
1.19049
1.19055
1.19055
1.19051
1.19042
1.19027
1.19008
1.18984
1.18955
1.18922
1.18886
1.18845
1.188
1.18748
1.18689
1.1862
1.18537
1.18436
1.18317
1.18183
1.18041
1.17905
1.17787
1.17699
1.17638
1.17597
1.17584
1.17591
1.17611
1.17644
1.17684
1.17722
1.17755
1.1778
1.17801
1.17818
1.17837
1.17859
1.17889
1.17931
1.1799
1.1807
1.18172
1.18293
1.18424
1.18552
1.18663
1.18745
1.18795
1.18814
1.18814
1.18804
1.18782
1.18752
1.18723
1.18702
1.18686
1.18671
1.18661
1.18653
1.18643
1.18633
1.18623
1.18614
1.18608
1.18603
1.18601
1.18604
1.18615
1.18633
1.18658
1.18688
1.18722
1.18759
1.18797
1.18835
1.18873
1.18912
1.18953
1.18999
1.19051
1.19109
1.19171
1.19233
1.1929
1.19339
1.19378
1.19408
1.19431
1.19448
1.19462
1.19474
1.19485