/*--------------------------------*- C++ -*----------------------------------*\
| =========                 |                                                 |
| \\      /  F ield         | OpenFOAM: The Open Source CFD Toolbox           |
|  \\    /   O peration     | Version:  v1812                                 |
|   \\  /    A nd           | Web:      www.OpenFOAM.com                      |
|    \\/     M anipulation  |                                                 |
\*---------------------------------------------------------------------------*/
FoamFile
{
    version     2.0;
    format      ascii;
    class       volScalarField;
    location    "1.4";
    object      T;
}
// * * * * * * * * * * * * * * * * * * * * * * * * * * * * * * * * * * * * * //

dimensions      [0 0 0 1 0 0 0];


internalField   nonuniform List<scalar> 
20400
(
288.651
288.653
288.656
288.659
288.662
288.664
288.665
288.665
288.664
288.663
288.661
288.658
288.655
288.651
288.647
288.642
288.636
288.63
288.624
288.618
288.611
288.604
288.597
288.59
288.584
288.578
288.573
288.569
288.567
288.567
288.568
288.571
288.576
288.582
288.59
288.599
288.61
288.623
288.638
288.654
288.671
288.692
288.713
288.739
288.766
288.795
288.826
288.859
288.892
288.925
288.961
289.002
289.052
289.112
289.191
289.292
289.425
289.593
289.798
290.035
290.292
290.56
290.828
291.09
291.344
291.591
291.829
292.051
292.24
292.387
292.474
292.517
292.521
292.513
292.494
292.47
292.445
292.418
292.391
292.366
292.341
292.322
292.308
292.296
292.29
292.288
292.292
292.301
292.315
292.334
292.357
292.384
292.413
292.443
292.475
292.502
292.527
292.551
292.575
292.593
292.611
292.621
292.626
292.624
292.612
292.59
292.557
292.51
292.452
292.384
292.31
292.234
292.152
292.064
291.969
291.873
291.778
291.686
291.602
291.525
291.457
291.397
291.345
291.298
291.255
291.215
291.175
291.136
291.096
291.057
291.017
290.977
290.937
290.898
290.859
290.821
290.783
290.746
290.709
290.674
290.639
290.605
290.572
290.539
290.509
290.481
290.456
290.435
290.417
290.402
290.388
290.376
290.363
290.35
290.336
290.322
290.306
290.291
290.276
290.261
290.246
290.233
290.22
290.209
290.2
290.194
290.192
290.193
290.196
290.203
290.213
290.228
290.245
290.267
290.292
290.322
290.355
290.391
290.433
290.48
290.529
290.582
290.636
290.692
290.746
290.799
290.848
290.892
290.933
290.97
291.003
291.035
291.063
291.09
291.116
291.14
291.164
291.187
291.21
291.232
291.254
291.275
291.297
291.321
291.346
291.374
291.406
291.441
291.481
291.526
291.575
291.629
291.687
291.749
291.813
291.879
291.945
292.011
292.074
292.135
292.191
292.241
292.285
292.322
292.351
292.374
292.39
292.399
292.403
292.402
292.397
292.389
292.38
292.37
292.359
292.348
292.337
292.328
292.32
292.316
292.313
292.313
292.316
292.321
292.329
292.34
292.353
292.369
292.388
292.409
292.431
292.455
292.479
292.503
292.526
292.548
292.568
292.584
292.596
292.604
292.606
292.603
292.593
292.576
292.552
292.522
292.486
292.445
292.402
292.352
292.3
292.244
292.187
292.129
292.071
292.014
291.957
291.902
291.848
291.795
291.745
291.697
291.65
291.606
291.565
291.525
291.489
291.456
291.425
291.399
291.376
291.358
291.346
291.338
291.334
291.335
291.341
291.353
291.368
291.387
291.41
291.435
291.463
291.492
291.521
291.549
291.576
291.601
291.624
291.645
291.664
291.681
291.696
291.71
291.723
291.735
291.746
291.757
291.768
291.78
291.791
291.803
291.815
291.828
291.842
291.857
291.871
291.887
291.904
291.921
291.939
291.957
291.976
291.995
292.015
292.034
292.053
292.073
292.092
292.11
292.127
292.144
292.159
292.174
292.186
292.197
292.206
292.214
292.219
292.223
292.225
292.225
292.224
292.221
292.217
292.214
292.209
292.204
292.198
292.191
292.186
292.181
292.177
292.174
292.174
292.174
292.176
292.179
292.186
292.194
292.205
292.217
292.232
292.248
292.266
292.286
292.307
292.328
292.35
292.372
292.393
292.414
292.433
292.452
292.47
292.487
292.504
292.52
292.535
292.551
292.566
292.581
292.597
292.612
292.628
292.645
292.662
292.679
292.698
292.716
292.736
292.756
292.776
292.797
292.818
292.84
292.861
292.883
292.905
292.927
292.948
292.97
292.991
293.011
293.03
293.049
293.066
293.082
293.097
293.111
293.123
293.133
293.142
293.15
293.156
293.162
293.166
293.169
293.171
293.172
293.174
293.174
293.175
293.176
293.177
293.178
293.178
293.178
293.178
293.179
293.179
293.18
293.181
293.182
293.183
293.184
293.184
293.185
293.186
293.186
293.186
293.186
293.186
293.186
293.185
293.185
293.184
293.183
293.182
293.181
293.18
293.179
293.179
293.178
293.178
293.179
293.18
293.182
293.184
293.187
293.191
293.195
293.201
293.207
293.214
293.222
293.231
293.241
293.251
293.263
293.276
293.289
293.304
293.319
293.336
293.353
293.371
293.39
293.409
293.429
293.45
293.471
293.493
293.515
293.537
293.559
293.582
293.598
293.584
293.546
288.66
288.662
288.665
288.668
288.67
288.671
288.671
288.67
288.668
288.666
288.663
288.66
288.657
288.653
288.649
288.644
288.638
288.632
288.626
288.619
288.611
288.604
288.596
288.588
288.58
288.574
288.568
288.565
288.563
288.563
288.565
288.569
288.574
288.579
288.586
288.594
288.604
288.617
288.631
288.649
288.669
288.694
288.722
288.753
288.784
288.814
288.844
288.869
288.894
288.916
288.937
288.958
288.98
289.006
289.038
289.083
289.147
289.238
289.364
289.532
289.751
290.025
290.357
290.733
291.126
291.502
291.839
292.123
292.344
292.477
292.536
292.537
292.507
292.464
292.407
292.34
292.268
292.194
292.118
292.047
291.981
291.922
291.872
291.825
291.784
291.756
291.739
291.732
291.736
291.75
291.772
291.805
291.844
291.891
291.941
291.998
292.051
292.11
292.171
292.234
292.298
292.363
292.427
292.49
292.547
292.599
292.643
292.677
292.698
292.706
292.704
292.685
292.638
292.563
292.471
292.368
292.256
292.138
292.016
291.896
291.783
291.68
291.589
291.51
291.442
291.382
291.328
291.279
291.232
291.186
291.142
291.098
291.056
291.015
290.975
290.937
290.901
290.866
290.831
290.798
290.765
290.731
290.696
290.66
290.622
290.582
290.542
290.505
290.473
290.447
290.427
290.413
290.401
290.39
290.378
290.366
290.353
290.34
290.327
290.314
290.3
290.287
290.275
290.264
290.254
290.245
290.234
290.226
290.221
290.219
290.217
290.217
290.218
290.219
290.22
290.221
290.222
290.222
290.222
290.22
290.219
290.221
290.23
290.248
290.276
290.316
290.364
290.418
290.475
290.534
290.594
290.655
290.716
290.776
290.835
290.891
290.943
290.993
291.039
291.081
291.119
291.152
291.182
291.208
291.232
291.255
291.278
291.303
291.331
291.364
291.402
291.447
291.501
291.564
291.635
291.714
291.798
291.887
291.978
292.068
292.154
292.233
292.304
292.364
292.413
292.45
292.476
292.491
292.497
292.495
292.488
292.473
292.454
292.435
292.413
292.391
292.369
292.348
292.329
292.311
292.296
292.284
292.275
292.268
292.265
292.266
292.272
292.283
292.3
292.321
292.347
292.378
292.414
292.452
292.494
292.537
292.58
292.621
292.66
292.695
292.725
292.747
292.761
292.767
292.765
292.752
292.727
292.692
292.651
292.606
292.556
292.5
292.441
292.379
292.317
292.255
292.194
292.135
292.078
292.024
291.971
291.921
291.872
291.825
291.779
291.733
291.688
291.644
291.6
291.558
291.517
291.478
291.443
291.411
291.384
291.362
291.347
291.339
291.338
291.342
291.353
291.372
291.398
291.43
291.466
291.505
291.544
291.582
291.618
291.65
291.679
291.705
291.728
291.748
291.767
291.784
291.799
291.813
291.826
291.839
291.851
291.863
291.875
291.886
291.899
291.911
291.924
291.937
291.95
291.964
291.977
291.991
292.005
292.02
292.035
292.049
292.064
292.078
292.092
292.106
292.12
292.133
292.145
292.156
292.166
292.175
292.183
292.19
292.195
292.199
292.202
292.203
292.203
292.203
292.202
292.2
292.199
292.197
292.195
292.191
292.187
292.183
292.179
292.176
292.173
292.17
292.168
292.167
292.167
292.168
292.17
292.174
292.18
292.188
292.199
292.213
292.23
292.25
292.273
292.297
292.323
292.349
292.375
292.4
292.422
292.443
292.462
292.48
292.496
292.512
292.526
292.541
292.554
292.568
292.581
292.595
292.609
292.624
292.639
292.655
292.672
292.69
292.708
292.728
292.747
292.768
292.79
292.812
292.835
292.858
292.882
292.906
292.93
292.955
292.979
293.002
293.026
293.048
293.069
293.089
293.108
293.125
293.141
293.154
293.166
293.176
293.184
293.19
293.194
293.196
293.197
293.197
293.196
293.194
293.193
293.191
293.187
293.184
293.18
293.176
293.173
293.17
293.167
293.165
293.163
293.161
293.161
293.16
293.16
293.16
293.16
293.161
293.161
293.161
293.162
293.161
293.161
293.16
293.159
293.157
293.154
293.151
293.148
293.144
293.14
293.137
293.133
293.129
293.126
293.123
293.121
293.119
293.118
293.118
293.119
293.12
293.122
293.125
293.129
293.133
293.139
293.146
293.153
293.162
293.172
293.183
293.195
293.208
293.222
293.236
293.252
293.268
293.286
293.304
293.323
293.342
293.366
293.386
293.383
293.348
288.677
288.679
288.682
288.683
288.683
288.682
288.679
288.676
288.673
288.67
288.666
288.663
288.659
288.655
288.651
288.646
288.64
288.634
288.627
288.619
288.61
288.601
288.591
288.582
288.573
288.566
288.56
288.558
288.558
288.561
288.565
288.571
288.579
288.588
288.6
288.615
288.635
288.66
288.69
288.727
288.771
288.82
288.872
288.924
288.973
289.018
289.057
289.086
289.103
289.109
289.101
289.081
289.056
289.034
289.024
289.027
289.044
289.082
289.148
289.256
289.426
289.687
290.057
290.531
291.062
291.573
292.002
292.318
292.496
292.548
292.527
292.475
292.381
292.261
292.124
291.974
291.818
291.661
291.508
291.361
291.224
291.099
290.994
290.912
290.849
290.805
290.777
290.766
290.764
290.778
290.801
290.834
290.875
290.922
290.975
291.031
291.09
291.152
291.219
291.291
291.367
291.45
291.539
291.637
291.742
291.856
291.978
292.108
292.242
292.376
292.507
292.628
292.729
292.795
292.817
292.814
292.791
292.734
292.642
292.523
292.384
292.237
292.09
291.953
291.83
291.723
291.633
291.556
291.49
291.431
291.377
291.326
291.277
291.229
291.182
291.134
291.087
291.041
290.995
290.951
290.909
290.869
290.83
290.792
290.753
290.71
290.663
290.611
290.559
290.516
290.484
290.466
290.457
290.451
290.447
290.442
290.436
290.43
290.422
290.415
290.407
290.4
290.393
290.387
290.383
290.38
290.38
290.382
290.383
290.383
290.382
290.38
290.374
290.365
290.351
290.332
290.306
290.274
290.238
290.199
290.159
290.116
290.075
290.034
289.998
289.965
289.945
289.94
289.943
289.959
289.991
290.041
290.104
290.178
290.259
290.345
290.434
290.526
290.617
290.706
290.789
290.866
290.934
290.993
291.042
291.083
291.116
291.145
291.172
291.198
291.227
291.26
291.301
291.353
291.419
291.501
291.599
291.711
291.835
291.966
292.096
292.221
292.334
292.431
292.51
292.57
292.608
292.625
292.626
292.616
292.59
292.55
292.498
292.441
292.386
292.331
292.274
292.214
292.154
292.093
292.033
291.975
291.92
291.871
291.829
291.795
291.769
291.752
291.744
291.745
291.755
291.776
291.808
291.85
291.904
291.969
292.046
292.133
292.228
292.331
292.437
292.544
292.646
292.74
292.82
292.884
292.929
292.953
292.959
292.952
292.926
292.882
292.825
292.76
292.69
292.617
292.542
292.468
292.395
292.327
292.263
292.203
292.147
292.095
292.045
291.997
291.95
291.902
291.853
291.802
291.749
291.693
291.636
291.578
291.522
291.47
291.422
291.381
291.349
291.329
291.322
291.324
291.335
291.358
291.394
291.44
291.494
291.55
291.605
291.656
291.703
291.744
291.78
291.812
291.84
291.864
291.885
291.903
291.919
291.932
291.944
291.954
291.963
291.971
291.978
291.985
291.991
291.997
292.003
292.009
292.016
292.024
292.032
292.04
292.049
292.058
292.068
292.078
292.088
292.099
292.109
292.12
292.13
292.14
292.149
292.158
292.166
292.172
292.177
292.181
292.184
292.185
292.185
292.183
292.18
292.176
292.172
292.168
292.165
292.163
292.161
292.158
292.156
292.154
292.152
292.151
292.15
292.15
292.149
292.149
292.148
292.147
292.146
292.147
292.148
292.152
292.159
292.17
292.185
292.206
292.232
292.262
292.295
292.327
292.359
292.387
292.412
292.433
292.452
292.468
292.481
292.494
292.505
292.515
292.525
292.534
292.544
292.554
292.565
292.576
292.588
292.602
292.616
292.631
292.648
292.665
292.684
292.704
292.725
292.747
292.77
292.795
292.82
292.847
292.874
292.902
292.931
292.96
292.989
293.018
293.046
293.074
293.101
293.126
293.15
293.172
293.191
293.208
293.223
293.235
293.244
293.25
293.252
293.253
293.252
293.248
293.243
293.235
293.227
293.217
293.206
293.194
293.183
293.172
293.161
293.151
293.143
293.135
293.129
293.124
293.12
293.118
293.116
293.115
293.115
293.115
293.115
293.115
293.115
293.114
293.111
293.108
293.104
293.098
293.091
293.083
293.073
293.063
293.053
293.041
293.03
293.019
293.007
292.997
292.986
292.977
292.968
292.96
292.953
292.947
292.942
292.939
292.936
292.935
292.936
292.937
292.94
292.944
292.95
292.956
292.964
292.973
292.982
292.993
293.005
293.018
293.035
293.05
293.047
293.014
288.697
288.699
288.699
288.698
288.695
288.69
288.685
288.679
288.674
288.67
288.665
288.661
288.657
288.653
288.649
288.644
288.638
288.631
288.623
288.614
288.603
288.592
288.58
288.569
288.561
288.555
288.553
288.555
288.56
288.565
288.574
288.586
288.602
288.624
288.654
288.691
288.738
288.793
288.851
288.911
288.97
289.026
289.077
289.128
289.181
289.238
289.297
289.354
289.406
289.444
289.462
289.447
289.403
289.335
289.257
289.189
289.148
289.139
289.155
289.221
289.368
289.63
290.035
290.581
291.207
291.801
292.249
292.497
292.557
292.524
292.437
292.295
292.106
291.885
291.647
291.402
291.162
290.935
290.733
290.557
290.414
290.302
290.216
290.158
290.12
290.101
290.094
290.105
290.126
290.157
290.193
290.236
290.281
290.331
290.382
290.435
290.487
290.541
290.594
290.648
290.703
290.761
290.823
290.89
290.965
291.049
291.144
291.252
291.375
291.514
291.67
291.844
292.034
292.235
292.438
292.623
292.77
292.871
292.916
292.915
292.889
292.818
292.705
292.562
292.404
292.249
292.105
291.98
291.875
291.788
291.716
291.654
291.599
291.547
291.497
291.445
291.391
291.333
291.271
291.205
291.136
291.066
290.999
290.936
290.877
290.822
290.766
290.708
290.648
290.592
290.548
290.525
290.518
290.518
290.522
290.529
290.534
290.536
290.537
290.536
290.536
290.535
290.536
290.537
290.54
290.543
290.547
290.552
290.558
290.564
290.57
290.576
290.578
290.577
290.572
290.559
290.538
290.507
290.464
290.41
290.346
290.271
290.189
290.102
290.015
289.933
289.858
289.791
289.73
289.678
289.644
289.635
289.639
289.656
289.689
289.742
289.813
289.9
290.001
290.112
290.23
290.352
290.473
290.589
290.695
290.788
290.868
290.935
290.991
291.037
291.078
291.116
291.156
291.201
291.257
291.328
291.421
291.538
291.679
291.842
292.016
292.191
292.354
292.497
292.613
292.695
292.739
292.749
292.739
292.702
292.633
292.545
292.451
292.347
292.232
292.11
291.986
291.862
291.741
291.629
291.526
291.434
291.355
291.289
291.236
291.193
291.158
291.13
291.109
291.092
291.081
291.076
291.076
291.085
291.105
291.137
291.182
291.241
291.317
291.413
291.528
291.664
291.818
291.99
292.175
292.366
292.556
292.734
292.891
293.015
293.1
293.141
293.149
293.143
293.118
293.068
292.998
292.913
292.823
292.731
292.64
292.552
292.469
292.392
292.321
292.256
292.197
292.14
292.086
292.032
291.977
291.918
291.853
291.784
291.711
291.635
291.559
291.486
291.42
291.366
291.328
291.31
291.308
291.315
291.337
291.377
291.435
291.505
291.58
291.654
291.722
291.783
291.835
291.879
291.916
291.947
291.97
291.987
291.999
292.007
292.011
292.013
292.012
292.01
292.008
292.004
292.001
291.997
291.993
291.99
291.986
291.983
291.981
291.98
291.98
291.981
291.983
291.987
291.992
291.999
292.008
292.018
292.03
292.043
292.058
292.073
292.09
292.106
292.122
292.137
292.15
292.162
292.171
292.177
292.18
292.18
292.179
292.175
292.168
292.16
292.153
292.146
292.138
292.132
292.126
292.123
292.121
292.121
292.121
292.122
292.123
292.125
292.126
292.127
292.127
292.127
292.127
292.129
292.134
292.144
292.161
292.185
292.216
292.253
292.292
292.33
292.364
292.393
292.416
292.435
292.449
292.46
292.469
292.477
292.483
292.488
292.493
292.499
292.504
292.511
292.518
292.527
292.537
292.548
292.56
292.574
292.589
292.605
292.623
292.642
292.662
292.684
292.707
292.732
292.757
292.784
292.813
292.842
292.873
292.905
292.939
292.973
293.008
293.044
293.08
293.115
293.15
293.184
293.216
293.245
293.272
293.296
293.316
293.332
293.343
293.349
293.35
293.349
293.345
293.335
293.321
293.303
293.283
293.261
293.238
293.214
293.191
293.169
293.149
293.13
293.114
293.101
293.09
293.081
293.075
293.071
293.068
293.067
293.065
293.064
293.062
293.06
293.056
293.05
293.041
293.031
293.018
293.003
292.986
292.967
292.947
292.926
292.904
292.882
292.86
292.839
292.819
292.8
292.782
292.766
292.752
292.74
292.729
292.72
292.713
292.708
292.705
292.704
292.704
292.706
292.708
292.712
292.716
292.722
292.728
292.735
292.746
292.755
292.749
292.713
288.715
288.715
288.713
288.707
288.7
288.692
288.684
288.677
288.67
288.665
288.66
288.656
288.652
288.648
288.643
288.638
288.632
288.624
288.614
288.602
288.589
288.576
288.563
288.554
288.55
288.55
288.554
288.561
288.57
288.583
288.601
288.627
288.663
288.711
288.77
288.831
288.89
288.946
288.993
289.028
289.055
289.08
289.106
289.141
289.188
289.25
289.325
289.41
289.498
289.583
289.658
289.726
289.756
289.734
289.661
289.556
289.451
289.381
289.362
289.385
289.495
289.751
290.186
290.794
291.482
292.081
292.449
292.57
292.537
292.432
292.249
291.999
291.702
291.384
291.067
290.771
290.509
290.289
290.113
289.977
289.879
289.812
289.772
289.752
289.746
289.756
289.777
289.807
289.845
289.888
289.937
289.987
290.04
290.094
290.147
290.198
290.246
290.292
290.334
290.374
290.412
290.449
290.486
290.525
290.566
290.613
290.667
290.73
290.804
290.892
290.997
291.122
291.271
291.445
291.649
291.885
292.144
292.397
292.614
292.786
292.919
293.002
293.018
292.998
292.935
292.823
292.679
292.526
292.38
292.252
292.146
292.061
291.993
291.936
291.887
291.84
291.791
291.737
291.675
291.602
291.516
291.418
291.31
291.197
291.086
290.983
290.89
290.806
290.73
290.663
290.611
290.582
290.576
290.578
290.591
290.611
290.628
290.639
290.645
290.647
290.648
290.647
290.647
290.647
290.649
290.653
290.658
290.667
290.677
290.689
290.701
290.712
290.722
290.728
290.73
290.727
290.717
290.696
290.662
290.615
290.554
290.478
290.389
290.289
290.181
290.071
289.96
289.853
289.753
289.663
289.585
289.517
289.46
289.418
289.398
289.398
289.406
289.431
289.475
289.541
289.63
289.742
289.871
290.014
290.163
290.311
290.453
290.584
290.699
290.799
290.883
290.954
291.016
291.075
291.136
291.205
291.29
291.4
291.542
291.717
291.921
292.139
292.354
292.547
292.702
292.805
292.847
292.847
292.819
292.744
292.625
292.481
292.318
292.141
291.957
291.774
291.602
291.447
291.314
291.207
291.123
291.061
291.019
290.991
290.969
290.95
290.932
290.915
290.897
290.878
290.858
290.838
290.817
290.797
290.776
290.759
290.75
290.75
290.761
290.788
290.834
290.899
290.986
291.099
291.241
291.413
291.616
291.848
292.101
292.365
292.624
292.86
293.055
293.201
293.295
293.336
293.34
293.327
293.288
293.219
293.126
293.02
292.908
292.796
292.687
292.584
292.488
292.4
292.32
292.247
292.178
292.11
292.041
291.968
291.889
291.803
291.712
291.617
291.525
291.439
291.369
291.321
291.298
291.297
291.305
291.331
291.381
291.454
291.542
291.634
291.724
291.805
291.875
291.932
291.975
292.005
292.024
292.033
292.035
292.032
292.024
292.012
291.998
291.981
291.963
291.945
291.928
291.911
291.895
291.88
291.866
291.853
291.842
291.832
291.824
291.817
291.811
291.807
291.805
291.805
291.806
291.811
291.818
291.829
291.842
291.859
291.879
291.902
291.928
291.956
291.986
292.017
292.048
292.078
292.106
292.13
292.149
292.163
292.17
292.172
292.171
292.166
292.159
292.149
292.139
292.129
292.118
292.109
292.102
292.099
292.099
292.1
292.102
292.106
292.109
292.111
292.112
292.113
292.114
292.118
292.125
292.138
292.16
292.191
292.23
292.273
292.316
292.355
292.387
292.411
292.43
292.442
292.451
292.457
292.46
292.463
292.465
292.466
292.468
292.471
292.475
292.481
292.487
292.496
292.506
292.518
292.53
292.545
292.56
292.576
292.594
292.613
292.633
292.654
292.675
292.698
292.722
292.747
292.774
292.802
292.831
292.862
292.895
292.931
292.968
293.007
293.049
293.092
293.137
293.182
293.227
293.272
293.315
293.355
293.392
293.424
293.451
293.47
293.481
293.484
293.484
293.478
293.463
293.441
293.412
293.377
293.339
293.298
293.257
293.217
293.18
293.146
293.117
293.093
293.072
293.055
293.042
293.033
293.026
293.021
293.017
293.012
293.008
293.001
292.993
292.982
292.967
292.949
292.928
292.903
292.876
292.847
292.816
292.785
292.753
292.722
292.693
292.665
292.64
292.618
292.599
292.582
292.568
292.557
292.549
292.544
292.541
292.541
292.542
292.544
292.548
292.553
292.559
292.565
292.572
292.579
292.589
292.596
292.59
292.555
288.728
288.726
288.719
288.71
288.699
288.688
288.678
288.67
288.662
288.656
288.651
288.646
288.641
288.637
288.631
288.625
288.616
288.606
288.594
288.58
288.566
288.554
288.547
288.546
288.55
288.557
288.568
288.582
288.6
288.625
288.66
288.709
288.77
288.837
288.898
288.942
288.958
288.96
288.956
288.931
288.895
288.858
288.834
288.824
288.842
288.888
288.969
289.091
289.251
289.437
289.623
289.774
289.884
289.967
289.994
289.952
289.854
289.747
289.684
289.684
289.765
290.014
290.474
291.117
291.802
292.322
292.563
292.571
292.475
292.275
291.984
291.631
291.251
290.877
290.539
290.253
290.027
289.857
289.738
289.656
289.607
289.581
289.571
289.576
289.591
289.616
289.647
289.684
289.727
289.775
289.828
289.884
289.941
289.997
290.052
290.103
290.149
290.19
290.225
290.256
290.282
290.305
290.326
290.348
290.369
290.394
290.422
290.456
290.497
290.548
290.61
290.687
290.781
290.897
291.038
291.21
291.419
291.668
291.949
292.246
292.529
292.763
292.936
293.063
293.134
293.137
293.108
293.031
292.912
292.777
292.645
292.529
292.435
292.362
292.307
292.262
292.223
292.182
292.133
292.072
291.993
291.892
291.765
291.615
291.448
291.275
291.109
290.962
290.839
290.742
290.672
290.635
290.626
290.63
290.647
290.677
290.707
290.726
290.734
290.735
290.733
290.728
290.722
290.718
290.718
290.72
290.724
290.734
290.748
290.765
290.783
290.8
290.815
290.825
290.831
290.833
290.83
290.818
290.795
290.758
290.707
290.639
290.554
290.453
290.341
290.22
290.098
289.978
289.864
289.76
289.664
289.578
289.501
289.433
289.373
289.322
289.281
289.258
289.255
289.26
289.28
289.322
289.388
289.484
289.604
289.749
289.913
290.086
290.259
290.424
290.573
290.704
290.816
290.914
291.003
291.089
291.182
291.291
291.429
291.605
291.821
292.069
292.328
292.572
292.769
292.889
292.929
292.922
292.873
292.758
292.584
292.369
292.132
291.891
291.661
291.455
291.286
291.159
291.069
291.012
290.982
290.972
290.975
290.985
290.999
291.012
291.021
291.022
291.015
290.994
290.961
290.917
290.868
290.816
290.767
290.722
290.681
290.647
290.621
290.602
290.593
290.596
290.612
290.647
290.701
290.779
290.887
291.03
291.214
291.44
291.707
292.008
292.329
292.642
292.92
293.146
293.321
293.451
293.523
293.537
293.526
293.485
293.407
293.298
293.171
293.034
292.896
292.761
292.634
292.517
292.41
292.313
292.222
292.134
292.045
291.951
291.851
291.745
291.635
291.526
291.428
291.351
291.303
291.286
291.288
291.302
291.338
291.404
291.494
291.599
291.705
291.804
291.889
291.956
292.002
292.028
292.037
292.036
292.03
292.015
291.992
291.962
291.93
291.898
291.868
291.839
291.813
291.79
291.768
291.749
291.731
291.716
291.702
291.689
291.678
291.667
291.658
291.648
291.64
291.632
291.625
291.62
291.618
291.618
291.621
291.628
291.639
291.655
291.676
291.701
291.731
291.765
291.804
291.845
291.89
291.936
291.982
292.028
292.07
292.105
292.132
292.149
292.158
292.162
292.161
292.156
292.146
292.133
292.119
292.107
292.096
292.089
292.087
292.087
292.09
292.093
292.097
292.101
292.103
292.105
292.109
292.116
292.128
292.15
292.181
292.223
292.269
292.316
292.358
292.392
292.417
292.434
292.445
292.451
292.454
292.455
292.455
292.455
292.455
292.456
292.458
292.462
292.468
292.475
292.484
292.495
292.507
292.52
292.534
292.55
292.566
292.583
292.601
292.619
292.638
292.658
292.679
292.7
292.722
292.744
292.768
292.793
292.819
292.846
292.876
292.909
292.944
292.982
293.024
293.07
293.119
293.172
293.227
293.285
293.343
293.4
293.456
293.507
293.553
293.592
293.62
293.636
293.641
293.638
293.627
293.603
293.567
293.52
293.465
293.405
293.342
293.28
293.222
293.169
293.123
293.086
293.055
293.031
293.011
292.995
292.984
292.974
292.965
292.957
292.947
292.934
292.918
292.899
292.875
292.847
292.815
292.781
292.744
292.705
292.667
292.63
292.594
292.562
292.533
292.509
292.488
292.472
292.46
292.453
292.45
292.45
292.451
292.455
292.462
292.471
292.481
292.492
292.504
292.515
292.525
292.535
292.547
292.555
292.552
292.521
288.735
288.73
288.72
288.708
288.695
288.683
288.672
288.662
288.654
288.646
288.639
288.633
288.628
288.621
288.614
288.605
288.594
288.58
288.566
288.553
288.543
288.54
288.545
288.555
288.568
288.584
288.604
288.627
288.657
288.699
288.754
288.82
288.883
288.926
288.939
288.93
288.902
288.849
288.779
288.702
288.636
288.587
288.552
288.528
288.515
288.512
288.535
288.595
288.71
288.894
289.15
289.46
289.769
289.995
290.126
290.206
290.205
290.143
290.073
290.059
290.127
290.373
290.842
291.475
292.091
292.487
292.612
292.551
292.371
292.073
291.688
291.261
290.839
290.461
290.152
289.915
289.744
289.627
289.552
289.506
289.483
289.476
289.48
289.494
289.515
289.541
289.574
289.613
289.657
289.707
289.761
289.82
289.88
289.94
289.997
290.049
290.094
290.131
290.159
290.181
290.197
290.208
290.219
290.228
290.237
290.248
290.263
290.281
290.305
290.336
290.377
290.428
290.491
290.569
290.665
290.782
290.926
291.103
291.321
291.585
291.887
292.21
292.527
292.802
293.009
293.156
293.255
293.282
293.267
293.214
293.121
293.01
292.9
292.806
292.734
292.68
292.641
292.608
292.575
292.534
292.476
292.394
292.279
292.125
291.933
291.708
291.467
291.233
291.026
290.863
290.75
290.689
290.671
290.673
290.69
290.725
290.766
290.794
290.804
290.803
290.798
290.785
290.771
290.762
290.76
290.762
290.767
290.78
290.8
290.824
290.848
290.87
290.888
290.9
290.907
290.908
290.905
290.895
290.877
290.848
290.806
290.748
290.672
290.576
290.464
290.34
290.212
290.088
289.974
289.874
289.787
289.71
289.643
289.582
289.525
289.47
289.416
289.366
289.321
289.284
289.254
289.239
289.239
289.25
289.282
289.35
289.454
289.591
289.759
289.948
290.145
290.337
290.514
290.672
290.811
290.937
291.058
291.183
291.326
291.502
291.721
291.985
292.276
292.563
292.804
292.949
292.991
292.979
292.913
292.763
292.532
292.249
291.953
291.673
291.432
291.246
291.121
291.053
291.03
291.032
291.055
291.108
291.175
291.242
291.301
291.346
291.376
291.388
291.387
291.367
291.322
291.256
291.175
291.085
290.989
290.893
290.801
290.717
290.646
290.592
290.555
290.533
290.524
290.523
290.529
290.546
290.579
290.632
290.712
290.827
290.985
291.194
291.455
291.768
292.116
292.476
292.818
293.113
293.348
293.529
293.66
293.724
293.728
293.708
293.646
293.539
293.399
293.238
293.068
292.899
292.737
292.588
292.452
292.328
292.212
292.099
291.984
291.866
291.742
291.616
291.496
291.392
291.319
291.282
291.276
291.282
291.307
291.361
291.445
291.552
291.669
291.782
291.878
291.951
291.999
292.022
292.026
292.021
292.004
291.973
291.933
291.888
291.843
291.802
291.765
291.732
291.703
291.679
291.657
291.638
291.622
291.609
291.596
291.585
291.575
291.565
291.555
291.545
291.534
291.522
291.509
291.496
291.483
291.471
291.462
291.459
291.459
291.463
291.472
291.486
291.505
291.53
291.56
291.596
291.637
291.683
291.734
291.789
291.847
291.908
291.967
292.022
292.068
292.106
292.133
292.149
292.154
292.153
292.148
292.137
292.122
292.106
292.093
292.085
292.081
292.081
292.083
292.087
292.091
292.095
292.099
292.104
292.112
292.127
292.15
292.184
292.228
292.278
292.327
292.37
292.404
292.428
292.444
292.452
292.457
292.458
292.458
292.458
292.457
292.458
292.459
292.462
292.466
292.473
292.481
292.49
292.502
292.514
292.527
292.54
292.555
292.57
292.586
292.602
292.62
292.637
292.656
292.675
292.695
292.715
292.737
292.759
292.781
292.805
292.83
292.855
292.883
292.913
292.945
292.981
293.022
293.066
293.116
293.172
293.232
293.298
293.367
293.438
293.51
293.579
293.645
293.703
293.752
293.785
293.8
293.8
293.792
293.767
293.724
293.665
293.591
293.508
293.421
293.335
293.254
293.181
293.12
293.069
293.03
292.998
292.973
292.952
292.935
292.92
292.906
292.891
292.873
292.851
292.826
292.796
292.762
292.724
292.684
292.642
292.6
292.559
292.521
292.487
292.458
292.434
292.416
292.404
292.398
292.398
292.399
292.404
292.411
292.422
292.436
292.451
292.468
292.485
292.503
292.52
292.537
292.551
292.569
292.582
292.581
292.557
288.738
288.731
288.719
288.705
288.692
288.68
288.667
288.656
288.645
288.635
288.626
288.617
288.608
288.598
288.587
288.574
288.56
288.546
288.535
288.531
288.535
288.548
288.567
288.59
288.615
288.64
288.668
288.702
288.745
288.801
288.863
288.915
288.94
288.938
288.914
288.862
288.785
288.703
288.633
288.582
288.545
288.519
288.493
288.463
288.432
288.403
288.38
288.362
288.37
288.435
288.587
288.848
289.219
289.661
290.053
290.279
290.407
290.462
290.455
290.457
290.536
290.786
291.238
291.81
292.316
292.592
292.631
292.513
292.249
291.868
291.418
290.959
290.54
290.194
289.928
289.736
289.605
289.52
289.47
289.441
289.429
289.43
289.438
289.452
289.472
289.497
289.527
289.562
289.604
289.652
289.707
289.766
289.83
289.893
289.953
290.005
290.047
290.077
290.097
290.108
290.113
290.114
290.115
290.115
290.116
290.119
290.126
290.137
290.155
290.181
290.215
290.258
290.31
290.371
290.443
290.529
290.631
290.754
290.904
291.093
291.328
291.612
291.938
292.284
292.62
292.915
293.136
293.292
293.401
293.44
293.432
293.392
293.32
293.233
293.15
293.083
293.034
292.999
292.972
292.944
292.907
292.851
292.764
292.636
292.457
292.223
291.942
291.634
291.333
291.074
290.88
290.764
290.717
290.711
290.722
290.755
290.803
290.843
290.859
290.859
290.852
290.836
290.815
290.8
290.796
290.799
290.807
290.825
290.851
290.882
290.913
290.939
290.957
290.967
290.969
290.967
290.96
290.946
290.927
290.902
290.867
290.818
290.751
290.661
290.551
290.425
290.293
290.168
290.059
289.971
289.903
289.853