/*--------------------------------*- C++ -*----------------------------------*\
| =========                 |                                                 |
| \\      /  F ield         | OpenFOAM: The Open Source CFD Toolbox           |
|  \\    /   O peration     | Version:  v1812                                 |
|   \\  /    A nd           | Web:      www.OpenFOAM.com                      |
|    \\/     M anipulation  |                                                 |
\*---------------------------------------------------------------------------*/
FoamFile
{
    version     2.0;
    format      ascii;
    class       volVectorField;
    location    "1.4";
    object      U;
}
// * * * * * * * * * * * * * * * * * * * * * * * * * * * * * * * * * * * * * //

dimensions      [0 1 -1 0 0 0 0];


internalField   nonuniform List<vector> 
20400
(
(0.00422273 0.00680422 0)
(0.0213572 0.0050248 0)
(0.0642582 0.00107736 0)
(0.12707 0.0012669 0)
(0.210601 0.00411746 0)
(0.297147 0.0103419 0)
(0.383914 0.0175445 0)
(0.459793 0.0263628 0)
(0.523519 0.0348754 0)
(0.57295 0.0426418 0)
(0.609902 0.0476937 0)
(0.636712 0.0490612 0)
(0.656613 0.0459051 0)
(0.672771 0.0393056 0)
(0.689346 0.0302481 0)
(0.708195 0.0199064 0)
(0.732293 0.00926195 0)
(0.757661 -0.00202432 0)
(0.787471 -0.0120896 0)
(0.80973 -0.0226923 0)
(0.830879 -0.0300524 0)
(0.833256 -0.0372936 0)
(0.81369 -0.0344555 0)
(0.775479 -0.0315163 0)
(0.700614 -0.0234251 0)
(0.593897 -0.0128778 0)
(0.441332 0.00885747 0)
(0.256473 0.0444075 0)
(0.06033 0.0748116 0)
(-0.173585 0.0547218 0)
(-0.486746 0.0375152 0)
(-0.84931 0.0340017 0)
(-1.27217 0.0465378 0)
(-1.7503 0.0639113 0)
(-2.28984 0.064962 0)
(-2.8935 0.0701521 0)
(-3.50952 0.0761266 0)
(-4.14464 0.078772 0)
(-4.72828 0.0775913 0)
(-5.24593 0.07289 0)
(-5.63098 0.0638966 0)
(-5.87655 0.0482471 0)
(-5.93278 0.0425575 0)
(-5.74678 0.01041 0)
(-5.44489 -0.0130812 0)
(-4.88967 -0.0664289 0)
(-4.25032 -0.150994 0)
(-3.38581 -0.255736 0)
(-2.59689 -0.454184 0)
(-1.82665 -0.482862 0)
(-0.966454 -0.482716 0)
(-0.157325 -0.403505 0)
(0.656165 -0.295808 0)
(1.39164 -0.205784 0)
(2.01053 -0.133449 0)
(2.48973 -0.0724914 0)
(2.85324 -0.0296533 0)
(3.10696 -0.00982753 0)
(3.28795 -0.0123076 0)
(3.4335 -0.0425449 0)
(3.56113 -0.0682406 0)
(3.71198 -0.0730788 0)
(3.91453 -0.0709483 0)
(4.18209 -0.0884438 0)
(4.46901 -0.175007 0)
(4.7452 -0.344174 0)
(4.80983 -0.585395 0)
(4.53625 -0.607741 0)
(4.09269 -0.234698 0)
(3.61959 0.262868 0)
(3.02403 0.524161 0)
(2.05897 0.659768 0)
(0.981877 0.699417 0)
(-0.233913 0.675236 0)
(-1.61618 0.714928 0)
(-3.10432 0.790085 0)
(-4.59546 0.858363 0)
(-6.04342 0.867789 0)
(-7.37969 0.78834 0)
(-8.61463 0.702824 0)
(-9.71355 0.662612 0)
(-10.5914 0.717625 0)
(-11.2896 0.87204 0)
(-11.7605 1.04796 0)
(-12.06 1.24224 0)
(-12.1268 1.42748 0)
(-11.9519 1.51993 0)
(-11.6576 1.54911 0)
(-11.1485 1.50303 0)
(-10.5123 1.41483 0)
(-9.69526 1.2483 0)
(-8.78566 1.00483 0)
(-7.75013 0.713114 0)
(-6.7039 0.340063 0)
(-5.49522 -0.00698802 0)
(-4.48572 -0.532886 0)
(-3.54942 -0.679177 0)
(-2.42751 -0.720957 0)
(-1.31169 -0.67976 0)
(-0.199035 -0.567894 0)
(0.950051 -0.412151 0)
(2.0964 -0.321757 0)
(3.18343 -0.248703 0)
(4.15284 -0.193071 0)
(5.06331 -0.146439 0)
(5.81762 -0.107805 0)
(6.49616 -0.0722492 0)
(7.02535 -0.0383132 0)
(7.43496 -0.00891374 0)
(7.70073 0.0130742 0)
(7.84791 0.0302314 0)
(7.89202 0.0374997 0)
(7.84481 0.0452979 0)
(7.69118 0.0632478 0)
(7.44892 0.0746973 0)
(7.1508 0.0781345 0)
(6.80322 0.0794129 0)
(6.42913 0.0814543 0)
(6.03964 0.0826159 0)
(5.64686 0.0830169 0)
(5.25621 0.0825613 0)
(4.87193 0.0814218 0)
(4.49789 0.080222 0)
(4.13655 0.07923 0)
(3.78978 0.0787037 0)
(3.45788 0.0784473 0)
(3.14083 0.0783732 0)
(2.84032 0.0778238 0)
(2.5529 0.0766346 0)
(2.28679 0.075594 0)
(2.03351 0.0747185 0)
(1.80775 0.0736285 0)
(1.60135 0.0714299 0)
(1.42487 0.0673871 0)
(1.27695 0.0610005 0)
(1.16091 0.051367 0)
(1.079 0.039723 0)
(1.0273 0.025875 0)
(1.00724 0.0121802 0)
(1.02179 -0.00240091 0)
(1.06149 -0.0131346 0)
(1.13087 -0.0227305 0)
(1.21975 -0.03004 0)
(1.32793 -0.0365609 0)
(1.4509 -0.0428015 0)
(1.57818 -0.0479046 0)
(1.71557 -0.053458 0)
(1.84716 -0.0533743 0)
(1.97695 -0.0490366 0)
(2.09016 -0.0503008 0)
(2.17449 -0.0489075 0)
(2.23405 -0.0472256 0)
(2.2473 -0.0509412 0)
(2.18234 -0.0478627 0)
(2.08657 -0.048249 0)
(1.88749 -0.0404403 0)
(1.63515 -0.0191595 0)
(1.29951 0.0218237 0)
(0.910872 0.0835994 0)
(0.476663 0.145265 0)
(0.0308141 0.180627 0)
(-0.442583 0.161732 0)
(-0.958236 0.133229 0)
(-1.47539 0.12098 0)
(-1.97243 0.132063 0)
(-2.37718 0.155349 0)
(-2.71702 0.168901 0)
(-2.90639 0.132958 0)
(-3.03704 0.0663612 0)
(-3.06716 -0.0136019 0)
(-2.95652 -0.0993522 0)
(-2.76496 -0.171443 0)
(-2.44036 -0.228166 0)
(-2.02669 -0.268961 0)
(-1.52514 -0.293129 0)
(-0.955821 -0.306373 0)
(-0.361245 -0.302732 0)
(0.268414 -0.253868 0)
(0.930264 -0.202579 0)
(1.58059 -0.155765 0)
(2.19409 -0.119623 0)
(2.75123 -0.0917143 0)
(3.23904 -0.0687231 0)
(3.65236 -0.0492033 0)
(3.98615 -0.0343814 0)
(4.23973 -0.0231441 0)
(4.4179 -0.0185668 0)
(4.51953 -0.0107253 0)
(4.56713 -0.00848718 0)
(4.56022 -0.00389363 0)
(4.51302 0.012099 0)
(4.43837 0.0160633 0)
(4.33457 0.0191679 0)
(4.20288 0.0210456 0)
(4.05543 0.0229984 0)
(3.89647 0.0258003 0)
(3.73208 0.0289818 0)
(3.56649 0.0317871 0)
(3.40164 0.0345706 0)
(3.23903 0.0371761 0)
(3.08023 0.0397651 0)
(2.92636 0.0425512 0)
(2.77822 0.044265 0)
(2.63844 0.0438334 0)
(2.50946 0.0412358 0)
(2.39594 0.0368671 0)
(2.30085 0.0301956 0)
(2.22723 0.0225848 0)
(2.17992 0.0134842 0)
(2.15348 0.00516095 0)
(2.15396 -0.00156897 0)
(2.18046 -0.00941882 0)
(2.22218 -0.015354 0)
(2.27765 -0.0181938 0)
(2.34079 -0.0208337 0)
(2.40422 -0.0223865 0)
(2.46655 -0.0221805 0)
(2.52153 -0.0217433 0)
(2.56036 -0.0205783 0)
(2.59086 -0.0189077 0)
(2.59397 -0.0196595 0)
(2.56751 -0.0169407 0)
(2.52634 -0.0136825 0)
(2.44311 -0.010203 0)
(2.33959 -0.00644581 0)
(2.19786 -0.00355742 0)
(2.02707 -0.000373901 0)
(1.8219 0.00406426 0)
(1.58321 0.0155164 0)
(1.31497 0.0386119 0)
(1.01572 0.0711238 0)
(0.69201 0.116171 0)
(0.338991 0.16838 0)
(-0.0186107 0.228548 0)
(-0.372144 0.266865 0)
(-0.723003 0.279899 0)
(-1.08512 0.277556 0)
(-1.43013 0.268108 0)
(-1.75352 0.252538 0)
(-2.04249 0.229929 0)
(-2.29091 0.200473 0)
(-2.49355 0.159092 0)
(-2.63837 0.110565 0)
(-2.73343 0.0614169 0)
(-2.76595 0.0184515 0)
(-2.72129 -0.0308257 0)
(-2.62611 -0.0719682 0)
(-2.45906 -0.110204 0)
(-2.2384 -0.14232 0)
(-1.95738 -0.168599 0)
(-1.62522 -0.188905 0)
(-1.24888 -0.203547 0)
(-0.832873 -0.213869 0)
(-0.394131 -0.218335 0)
(0.0660913 -0.201046 0)
(0.554109 -0.174464 0)
(1.05542 -0.147927 0)
(1.55188 -0.125875 0)
(2.03068 -0.107809 0)
(2.48231 -0.0932959 0)
(2.89727 -0.0811566 0)
(3.27184 -0.0707043 0)
(3.59469 -0.0617385 0)
(3.87221 -0.0531804 0)
(4.09016 -0.0462441 0)
(4.26534 -0.0373982 0)
(4.38503 -0.0306237 0)
(4.45867 -0.020406 0)
(4.49809 -0.0109599 0)
(4.49354 0.00363582 0)
(4.45694 0.0115511 0)
(4.39401 0.0179001 0)
(4.30414 0.0244768 0)
(4.19463 0.0311877 0)
(4.07126 0.0366685 0)
(3.93796 0.0404542 0)
(3.79866 0.0426046 0)
(3.65676 0.0434106 0)
(3.51533 0.0432066 0)
(3.37723 0.0426949 0)
(3.24496 0.0418712 0)
(3.12055 0.0406832 0)
(3.00561 0.0390767 0)
(2.90138 0.0370125 0)
(2.8088 0.0344954 0)
(2.7283 0.0315805 0)
(2.66009 0.0283626 0)
(2.60379 0.0249144 0)
(2.559 0.0214018 0)
(2.52504 0.0178597 0)
(2.50048 0.0144745 0)
(2.48539 0.0113239 0)
(2.47668 0.00837672 0)
(2.4753 0.00628092 0)
(2.47993 0.00389545 0)
(2.4877 0.00146962 0)
(2.4999 -0.00111079 0)
(2.51493 -0.00398492 0)
(2.53378 -0.00719748 0)
(2.55459 -0.0107184 0)
(2.57942 -0.013733 0)
(2.60171 -0.0166938 0)
(2.6228 -0.0170771 0)
(2.63456 -0.0175361 0)
(2.62995 -0.0149747 0)
(2.6025 -0.00994067 0)
(2.54715 -0.00313482 0)
(2.45903 0.00489743 0)
(2.32867 0.0131983 0)
(2.16579 0.0216742 0)
(1.96636 0.0307126 0)
(1.73432 0.0444629 0)
(1.48334 0.0622304 0)
(1.21299 0.0807147 0)
(0.937738 0.099955 0)
(0.657181 0.116935 0)
(0.383786 0.137564 0)
(0.123788 0.162256 0)
(-0.117017 0.175645 0)
(-0.340394 0.172389 0)
(-0.548 0.159324 0)
(-0.731414 0.141001 0)
(-0.885481 0.12066 0)
(-1.0105 0.0945715 0)
(-1.0971 0.0710336 0)
(-1.15532 0.0454126 0)
(-1.17735 0.0241993 0)
(-1.15924 -0.00059494 0)
(-1.11158 -0.0215432 0)
(-1.02614 -0.0417169 0)
(-0.911858 -0.059281 0)
(-0.763883 -0.0745836 0)
(-0.588104 -0.0869133 0)
(-0.384829 -0.0962309 0)
(-0.160856 -0.103357 0)
(0.0853966 -0.103103 0)
(0.356362 -0.0986795 0)
(0.644945 -0.0924222 0)
(0.945839 -0.0859053 0)
(1.25325 -0.0794142 0)
(1.5622 -0.0729579 0)
(1.86781 -0.066551 0)
(2.16542 -0.0601811 0)
(2.45088 -0.0541812 0)
(2.72041 -0.0484549 0)
(2.97043 -0.0430266 0)
(3.19851 -0.0380214 0)
(3.40259 -0.0332358 0)
(3.58225 -0.028651 0)
(3.73546 -0.0243943 0)
(3.86456 -0.0201751 0)
(3.96737 -0.0164097 0)
(4.04795 -0.012319 0)
(4.10563 -0.00852057 0)
(4.1411 -0.00409297 0)
(4.16204 0.0018273 0)
(4.16308 0.00704302 0)
(4.14764 0.00971292 0)
(4.1205 0.0127423 0)
(4.07989 0.0161775 0)
(4.02926 0.0191411 0)
(3.97168 0.0213468 0)
(3.90849 0.0227358 0)
(3.84222 0.0231944 0)
(3.77443 0.0228108 0)
(3.70697 0.022011 0)
(3.64139 0.0208658 0)
(3.57897 0.0193858 0)
(3.52075 0.0175978 0)
(3.46755 0.0155502 0)
(3.42007 0.0132913 0)
(3.37883 0.0109075 0)
(3.34418 0.00849624 0)
(3.31606 0.00616006 0)
(3.29393 0.00448138 0)
(3.27721 0.00404672 0)
(3.26483 0.00355878 0)
(3.25504 0.00227916 0)
(3.24569 0.000275338 0)
(3.2345 -0.00171951 0)
(3.21889 -0.00305253 0)
(3.1958 -0.00321023 0)
(3.16153 -0.00179818 0)
(3.11325 0.00114467 0)
(3.04779 0.00570413 0)
(2.96449 0.011188 0)
(2.86202 0.0178016 0)
(2.74184 0.0239872 0)
(2.60603 0.030756 0)
(2.45514 0.0361753 0)
(2.29644 0.0421611 0)
(2.12866 0.0483468 0)
(1.96093 0.0522361 0)
(1.79155 0.0550076 0)
(1.62736 0.0563997 0)
(1.47009 0.057697 0)
(1.32364 0.0575279 0)
(1.18958 0.0565382 0)
(1.07046 0.0537335 0)
(0.968006 0.050526 0)
(0.883229 0.0438682 0)
(0.818831 0.0363718 0)
(0.776182 0.0280664 0)
(0.750112 0.0195825 0)
(0.747911 0.0114054 0)
(0.770695 0.00227873 0)
(0.810729 -0.00618826 0)
(0.872532 -0.0135578 0)
(0.954987 -0.0202512 0)
(1.05593 -0.0259001 0)
(1.17548 -0.0306183 0)
(1.31119 -0.0343194 0)
(1.46157 -0.0370273 0)
(1.62418 -0.0387656 0)
(1.79647 -0.039588 0)
(1.97558 -0.0396063 0)
(2.15859 -0.0390594 0)
(2.34229 -0.0388199 0)
(2.52338 -0.0384681 0)
(2.69902 -0.037379 0)
(2.8668 -0.0353749 0)
(3.02462 -0.0323039 0)
(3.17085 -0.0282742 0)
(3.3043 -0.0241574 0)
(3.42364 -0.0204401 0)
(3.52849 -0.0172471 0)
(3.61838 -0.0143142 0)
(3.69348 -0.0116127 0)
(3.75463 -0.00911159 0)
(3.80151 -0.00699327 0)
(3.83699 -0.00457544 0)
(3.85937 -0.00169811 0)
(3.874 0.000772131 0)
(3.87835 0.00450293 0)
(3.8742 0.00601484 0)
(3.86505 0.00728537 0)
(3.84866 0.00862478 0)
(3.82854 0.00954295 0)
(3.80475 0.00994966 0)
(3.77882 0.0100032 0)
(3.75171 0.00986081 0)
(3.72429 0.0095663 0)
(3.6974 0.00911896 0)
(3.67164 0.00851988 0)
(3.6476 0.0077738 0)
(3.62568 0.00689949 0)
(3.60621 0.00591388 0)
(3.58938 0.00484453 0)
(3.57526 0.00370949 0)
(3.5638 0.00254966 0)
(3.55485 0.00137379 0)
(3.54812 0.000229841 0)
(3.54323 -0.000869049 0)
(3.53969 -0.00187886 0)
(3.53689 -0.00272204 0)
(3.53414 -0.00327879 0)
(3.53077 -0.00343636 0)
(3.52604 -0.0032811 0)
(3.51909 -0.00299953 0)
(3.509 -0.0026883 0)
(3.49486 -0.00235245 0)
(3.47577 -0.00193069 0)
(3.45088 -0.00135296 0)
(3.41938 -0.000518892 0)
(3.38057 0.000645988 0)
(3.33388 0.00226271 0)
(3.27892 0.00435377 0)
(3.21557 0.00692478 0)
(3.14388 0.00974785 0)
(3.06418 0.0125215 0)
(2.97698 0.0150282 0)
(2.88304 0.0171552 0)
(2.78342 0.0194619 0)
(2.67961 0.0221921 0)
(2.57343 0.0247111 0)
(2.46585 0.0261341 0)
(2.35816 0.0265853 0)
(2.25215 0.0269636 0)
(2.14909 0.0271097 0)
(2.05052 0.0269258 0)
(1.95761 0.0264081 0)
(1.87151 0.0255502 0)
(1.79302 0.0243858 0)
(1.7229 0.0228721 0)
(1.66185 0.0209569 0)
(1.61074 0.0191584 0)
(1.56942 0.0153083 0)
(1.54054 0.012614 0)
(1.5209 0.00891764 0)
(1.51258 0.00619673 0)
(1.51636 0.00229336 0)
(1.53226 -0.000417082 0)
(1.55354 -0.00606331 0)
(1.60035 -0.00564705 0)
(1.62409 -0.0148536 0)
(1.71821 -0.00846217 0)
(1.72057 -0.0123989 0)
(1.8882 -0.0200634 0)
(1.81809 -0.0241323 0)
(2.20796 -0.0901217 0)
(0.0149016 -0.00501298 0)
(0.0808562 -0.0475531 0)
(0.197098 -0.091825 0)
(0.352778 -0.123537 0)
(0.536307 -0.138797 0)
(0.728009 -0.137929 0)
(0.916557 -0.127772 0)
(1.08879 -0.110776 0)
(1.23665 -0.093196 0)
(1.35566 -0.0764143 0)
(1.44462 -0.0623732 0)
(1.50707 -0.050296 0)
(1.5499 -0.0407928 0)
(1.58049 -0.034655 0)
(1.60628 -0.0313851 0)
(1.63219 -0.0303131 0)
(1.66109 -0.0287693 0)
(1.69105 -0.025412 0)
(1.72224 -0.0154738 0)
(1.74682 -0.00253007 0)
(1.76188 0.0264411 0)
(1.75099 0.0518967 0)
(1.70064 0.0893835 0)
(1.59819 0.128824 0)
(1.42513 0.183921 0)
(1.17901 0.252775 0)
(0.85063 0.343252 0)
(0.435274 0.444872 0)
(-0.105185 0.538758 0)
(-0.736029 0.605076 0)
(-1.43384 0.658286 0)
(-2.20845 0.700667 0)
(-3.04716 0.748787 0)
(-3.93961 0.809494 0)
(-4.84783 0.880557 0)
(-5.75821 0.921959 0)
(-6.58903 0.918898 0)
(-7.34234 0.866472 0)
(-7.93012 0.773552 0)
(-8.34621 0.62908 0)
(-8.56275 0.447225 0)
(-8.51887 0.174279 0)
(-8.22297 -0.02426 0)
(-7.72747 -0.33316 0)
(-7.02545 -0.584017 0)
(-6.1176 -0.873347 0)
(-5.03136 -1.13503 0)
(-3.84198 -1.35976 0)
(-2.43009 -1.60117 0)
(-0.898019 -1.62841 0)
(0.570288 -1.55975 0)
(2.02482 -1.39901 0)
(3.36313 -1.18976 0)
(4.55884 -0.971536 0)
(5.62257 -0.767409 0)
(6.50509 -0.587062 0)
(7.18939 -0.435325 0)
(7.67879 -0.30257 0)
(7.97568 -0.226425 0)
(8.13003 -0.181142 0)
(8.22991 -0.130448 0)
(8.29934 -0.205787 0)
(8.28864 -0.293032 0)
(8.15344 -0.353143 0)
(7.78012 -0.341449 0)
(7.19416 -0.123275 0)
(6.48659 0.232925 0)
(5.66599 0.763984 0)
(4.57168 1.27408 0)
(2.82871 1.73865 0)
(0.627301 2.11791 0)
(-1.75443 2.38442 0)
(-4.29119 2.50395 0)
(-6.87125 2.40525 0)
(-9.27873 2.24545 0)
(-11.4223 2.00967 0)
(-13.2347 1.78323 0)
(-14.7306 1.56015 0)
(-15.8885 1.39946 0)
(-16.7502 1.24297 0)
(-17.289 1.05767 0)
(-17.5843 0.83483 0)
(-17.5445 0.570164 0)
(-17.4587 0.339465 0)
(-17.1557 0.0580851 0)
(-16.682 -0.187654 0)
(-16.0304 -0.471501 0)
(-15.2303 -0.681596 0)
(-14.2775 -0.913891 0)
(-13.2012 -1.11509 0)
(-12.0098 -1.31374 0)
(-10.6832 -1.49811 0)
(-9.24803 -1.66892 0)
(-7.67325 -1.84817 0)
(-6.10988 -1.98725 0)
(-4.32538 -2.19244 0)
(-2.3536 -2.31928 0)
(-0.516365 -2.3925 0)
(1.32343 -2.33069 0)
(3.13474 -2.22686 0)
(4.85455 -2.03085 0)
(6.47311 -1.79988 0)
(8.06363 -1.58681 0)
(9.57484 -1.40577 0)
(11.0313 -1.22395 0)
(12.3674 -1.04348 0)
(13.6141 -0.867337 0)
(14.7294 -0.675137 0)
(15.712 -0.478359 0)
(16.5388 -0.291998 0)
(17.2094 -0.111253 0)
(17.7153 0.00684962 0)
(18.0109 0.150535 0)
(18.0773 0.324895 0)
(17.9574 0.436348 0)
(17.6747 0.525686 0)
(17.2268 0.600912 0)
(16.6379 0.646223 0)
(15.9353 0.6713 0)
(15.1449 0.681244 0)
(14.2975 0.683066 0)
(13.4248 0.677473 0)
(12.5537 0.66428 0)
(11.7041 0.645457 0)
(10.8902 0.623555 0)
(10.1207 0.599809 0)
(9.40028 0.575481 0)
(8.73324 0.551018 0)
(8.11837 0.5259 0)
(7.56231 0.497798 0)
(7.05934 0.46392 0)
(6.61785 0.424651 0)
(6.23557 0.377776 0)
(5.91325 0.322182 0)
(5.65283 0.263314 0)
(5.45452 0.201294 0)
(5.31575 0.142799 0)
(5.23187 0.0817881 0)
(5.19579 0.0306042 0)
(5.21113 -0.0204173 0)
(5.26301 -0.067753 0)
(5.34453 -0.113096 0)
(5.44814 -0.14513 0)
(5.561 -0.169195 0)
(5.67488 -0.17977 0)
(5.77185 -0.183281 0)
(5.84452 -0.177952 0)
(5.88614 -0.169278 0)
(5.87449 -0.148439 0)
(5.79696 -0.111789 0)
(5.65018 -0.0562454 0)
(5.41815 0.0146562 0)
(5.10187 0.0935952 0)
(4.69166 0.20381 0)
(4.20989 0.317443 0)
(3.6419 0.448659 0)
(3.02074 0.578772 0)
(2.34379 0.704119 0)
(1.63868 0.81087 0)
(0.916042 0.893397 0)
(0.182681 0.944962 0)
(-0.508048 0.946859 0)
(-1.11137 0.904295 0)
(-1.62073 0.818151 0)
(-2.03702 0.725227 0)
(-2.36443 0.610725 0)
(-2.60458 0.496125 0)
(-2.7459 0.320227 0)
(-2.66072 0.0986074 0)
(-2.39868 -0.107946 0)
(-1.96772 -0.336714 0)
(-1.39519 -0.55079 0)
(-0.66922 -0.757194 0)
(0.179486 -0.940364 0)
(1.14658 -1.08553 0)
(2.20225 -1.16667 0)
(3.34052 -1.19511 0)
(4.51319 -1.16942 0)
(5.6729 -1.11104 0)
(6.81957 -1.0279 0)
(7.93454 -0.92784 0)
(8.9981 -0.812997 0)
(9.9885 -0.692995 0)
(10.8829 -0.567865 0)
(11.6648 -0.444764 0)
(12.3124 -0.315843 0)
(12.8216 -0.19632 0)
(13.1799 -0.0771305 0)
(13.3931 0.0133512 0)
(13.4964 0.0858155 0)
(13.4779 0.13918 0)
(13.3713 0.188606 0)
(13.1777 0.244181 0)
(12.8998 0.289608 0)
(12.5607 0.319113 0)
(12.1778 0.33628 0)
(11.7616 0.343199 0)
(11.3249 0.343899 0)
(10.8814 0.340822 0)
(10.4411 0.333995 0)
(10.0141 0.323768 0)
(9.60836 0.311205 0)
(9.22853 0.295144 0)
(8.88158 0.275797 0)
(8.57387 0.250689 0)
(8.3109 0.219808 0)
(8.0961 0.183143 0)
(7.92924 0.143248 0)
(7.80966 0.0992576 0)
(7.72923 0.0550882 0)
(7.68352 0.0169131 0)
(7.66385 -0.0192566 0)
(7.66165 -0.0462552 0)
(7.65671 -0.0611711 0)
(7.63954 -0.0652727 0)
(7.60141 -0.0629284 0)
(7.53372 -0.0516383 0)
(7.42946 -0.0335389 0)
(7.28659 -0.00645733 0)
(7.09995 0.0301312 0)
(6.87345 0.0664776 0)
(6.59274 0.113038 0)
(6.2756 0.160586 0)
(5.90436 0.209687 0)
(5.49534 0.259326 0)
(5.04107 0.312221 0)
(4.55269 0.368668 0)
(4.03338 0.428936 0)
(3.49146 0.4892 0)
(2.93148 0.541078 0)
(2.36355 0.592254 0)
(1.79768 0.64583 0)
(1.24475 0.698638 0)
(0.708208 0.753681 0)
(0.173536 0.788733 0)
(-0.317461 0.785355 0)
(-0.758651 0.756946 0)
(-1.15146 0.711627 0)
(-1.47021 0.643596 0)
(-1.73353 0.557222 0)
(-1.91424 0.456359 0)
(-2.01243 0.341025 0)
(-2.00263 0.220864 0)
(-1.88975 0.0921578 0)
(-1.68668 -0.0262158 0)
(-1.39348 -0.155027 0)
(-1.01272 -0.275245 0)
(-0.546446 -0.396769 0)
(-0.00140986 -0.511341 0)
(0.619098 -0.619722 0)
(1.30781 -0.718375 0)
(2.05966 -0.802606 0)
(2.86506 -0.85952 0)
(3.72133 -0.890964 0)
(4.61324 -0.896219 0)
(5.51359 -0.879625 0)
(6.41451 -0.847132 0)
(7.30885 -0.80269 0)
(8.1837 -0.747084 0)
(9.02435 -0.681987 0)
(9.81545 -0.608536 0)
(10.5443 -0.527788 0)
(11.1951 -0.44187 0)
(11.761 -0.353455 0)
(12.2294 -0.267675 0)
(12.5997 -0.182921 0)
(12.8695 -0.103208 0)
(13.0352 -0.028576 0)
(13.1256 0.0343262 0)
(13.118 0.079599 0)
(13.0385 0.127586 0)
(12.8969 0.179588 0)
(12.7011 0.218447 0)
(12.4615 0.244716 0)
(12.1882 0.262719 0)
(11.8927 0.275425 0)
(11.5857 0.282656 0)
(11.2762 0.284973 0)
(10.9712 0.282664 0)
(10.6767 0.275119 0)
(10.3979 0.263153 0)
(10.1387 0.247686 0)
(9.90215 0.229555 0)
(9.69029 0.209469 0)
(9.50422 0.18821 0)
(9.34407 0.166621 0)
(9.20905 0.145469 0)
(9.09745 0.125191 0)
(9.00686 0.106365 0)
(8.93439 0.0891822 0)
(8.87635 0.0739915 0)
(8.82922 0.0607995 0)
(8.78833 0.0491541 0)
(8.74937 0.0407359 0)
(8.7072 0.0326842 0)
(8.65635 0.0272744 0)
(8.59375 0.0230919 0)
(8.51643 0.0193859 0)
(8.42347 0.0161956 0)
(8.31392 0.0136573 0)
(8.1876 0.0144345 0)
(8.04161 0.0187439 0)
(7.8732 0.0330023 0)
(7.67541 0.0537373 0)
(7.44224 0.0863837 0)
(7.16508 0.129408 0)
(6.84156 0.181177 0)
(6.47008 0.23921 0)
(6.0469 0.300915 0)
(5.59006 0.362991 0)
(5.10495 0.421247 0)
(4.60404 0.468203 0)
(4.10039 0.498708 0)
(3.60471 0.520664 0)
(3.12811 0.536275 0)
(2.68671 0.544633 0)
(2.27376 0.550411 0)
(1.91522 0.538834 0)
(1.59347 0.510816 0)
(1.3332 0.469453 0)
(1.13221 0.416606 0)
(0.989983 0.357107 0)
(0.901424 0.290211 0)
(0.871559 0.222331 0)
(0.904625 0.154869 0)
(0.987839 0.0831805 0)
(1.12446 0.0169923 0)
(1.3105 -0.0545506 0)
(1.54623 -0.122833 0)
(1.83118 -0.193534 0)
(2.16189 -0.260642 0)
(2.53795 -0.3258 0)
(2.95599 -0.386888 0)
(3.41361 -0.440629 0)
(3.90969 -0.480926 0)
(4.43587 -0.505186 0)
(4.98277 -0.52062 0)
(5.5481 -0.528263 0)
(6.12721 -0.529045 0)
(6.71428 -0.52318 0)
(7.30251 -0.51084 0)
(7.88489 -0.492411 0)
(8.45432 -0.468327 0)
(9.00385 -0.438961 0)
(9.52708 -0.40467 0)
(10.018 -0.366025 0)
(10.4715 -0.324899 0)
(10.8834 -0.282076 0)
(11.2502 -0.23817 0)
(11.5689 -0.194418 0)
(11.8385 -0.151432 0)
(12.0575 -0.110512 0)
(12.2272 -0.0713667 0)
(12.3487 -0.0349505 0)
(12.4233 -0.00193562 0)
(12.4597 0.0273696 0)
(12.4543 0.0472342 0)
(12.4132 0.0735572 0)
(12.3437 0.0982114 0)
(12.2487 0.116594 0)
(12.1314 0.129571 0)
(11.998 0.139343 0)
(11.8532 0.146007 0)
(11.7021 0.149837 0)
(11.5486 0.151214 0)
(11.3959 0.149703 0)
(11.2464 0.145724 0)
(11.1018 0.139831 0)
(10.9628 0.132426 0)
(10.8295 0.123789 0)
(10.7014 0.114159 0)
(10.5772 0.103726 0)
(10.4557 0.0929851 0)
(10.335 0.0827976 0)
(10.2127 0.0733091 0)
(10.0854 0.0638017 0)
(9.94924 0.0568808 0)
(9.80234 0.0545051 0)
(9.64489 0.0573085 0)
(9.47698 0.0645379 0)
(9.29652 0.0765443 0)
(9.10069 0.0938005 0)
(8.88647 0.116036 0)
(8.65213 0.142008 0)
(8.39652 0.170721 0)
(8.12136 0.199391 0)
(7.82831 0.228548 0)
(7.52278 0.253112 0)
(7.20911 0.277501 0)
(6.89449 0.294667 0)
(6.5861 0.308308 0)
(6.28703 0.3137 0)
(6.00575 0.313857 0)
(5.74516 0.312986 0)
(5.51047 0.303034 0)
(5.30443 0.288536 0)
(5.1307 0.268655 0)
(4.99015 0.244978 0)
(4.88587 0.217021 0)
(4.81629 0.186024 0)
(4.78186 0.149836 0)
(4.78915 0.115254 0)
(4.8326 0.0772686 0)
(4.90959 0.0380744 0)
(5.02119 0.000775147 0)
(5.16707 -0.0386729 0)
(5.34434 -0.0771332 0)
(5.55298 -0.113473 0)
(5.79126 -0.148467 0)
(6.05678 -0.180565 0)
(6.34751 -0.209822 0)
(6.66026 -0.23538 0)
(6.99181 -0.256832 0)
(7.33835 -0.273725 0)
(7.69568 -0.285721 0)
(8.05925 -0.292707 0)
(8.42422 -0.294439 0)
(8.78575 -0.289559 0)
(9.1394 -0.279061 0)
(9.48094 -0.26483 0)
(9.80635 -0.247712 0)
(10.112 -0.228576 0)
(10.3944 -0.208434 0)
(10.651 -0.186582 0)
(10.8803 -0.163018 0)
(11.0817 -0.138248 0)
(11.2549 -0.113326 0)
(11.4001 -0.088748 0)
(11.5181 -0.0653094 0)
(11.6092 -0.0428285 0)
(11.677 -0.0226266 0)
(11.7199 -0.00602951 0)
(11.7449 0.00981335 0)
(11.7497 0.021161 0)
(11.7373 0.0315741 0)
(11.7124 0.0428419 0)
(11.675 0.0515831 0)
(11.6284 0.0574542 0)
(11.5735 0.0617373 0)
(11.513 0.0645644 0)
(11.449 0.0656455 0)
(11.3829 0.0652898 0)
(11.3162 0.0636864 0)
(11.25 0.0610805 0)
(11.185 0.0576789 0)
(11.1221 0.0536878 0)
(11.0616 0.0493211 0)
(11.0034 0.0447823 0)
(10.9474 0.04029 0)
(10.8931 0.0360268 0)
(10.8397 0.032219 0)
(10.7863 0.029016 0)
(10.7318 0.0266291 0)
(10.6749 0.025177 0)
(10.6144 0.0249046 0)
(10.549 0.0256063 0)
(10.4771 0.0272519 0)
(10.3972 0.0299877 0)
(10.308 0.0341869 0)
(10.2085 0.0400331 0)
(10.098 0.0475126 0)
(9.97576 0.0565367 0)
(9.84142 0.0669509 0)
(9.69474 0.0785644 0)
(9.53573 0.0910839 0)
(9.36475 0.104141 0)
(9.18244 0.117258 0)
(8.98976 0.130011 0)
(8.78796 0.142106 0)
(8.57885 0.153459 0)
(8.36456 0.16399 0)
(8.14798 0.173488 0)
(7.93202 0.181081 0)
(7.71864 0.18505 0)
(7.51016 0.186279 0)
(7.30926 0.186826 0)
(7.11868 0.185568 0)
(6.94078 0.181415 0)
(6.77725 0.174841 0)
(6.6298 0.165819 0)
(6.49975 0.154711 0)
(6.38833 0.141853 0)
(6.29645 0.127599 0)
(6.22423 0.111865 0)
(6.17339 0.0948979 0)
(6.14098 0.0766745 0)
(6.13055 0.0564591 0)
(6.1433 0.0385433 0)
(6.17449 0.0176858 0)
(6.22603 -0.00112744 0)
(6.29737 -0.0225268 0)
(6.38845 -0.0392067 0)
(6.49681 -0.0665682 0)
(6.62923 -0.0718907 0)
(6.76515 -0.112742 0)
(6.95011 -0.0989921 0)
(7.08944 -0.135843 0)
(7.36124 -0.131396 0)
(7.428 -0.188679 0)
(7.91448 -0.35124 0)
(0.0198774 -0.041504 0)
(0.118957 -0.148918 0)
(0.283831 -0.245924 0)
(0.48782 -0.313414 0)
(0.721693 -0.34632 0)
(0.957384 -0.338893 0)
(1.18524 -0.307196 0)
(1.39313 -0.252324 0)
(1.57633 -0.190367 0)
(1.73331 -0.127165 0)
(1.86488 -0.0724939 0)
(1.97246 -0.0314596 0)
(2.05586 -0.00647592 0)
(2.11839 0.00424046 0)
(2.16622 0.00256583 0)
(2.20479 -0.00667813 0)
(2.24019 -0.0174202 0)
(2.27439 -0.0265033 0)
(2.30358 -0.0275824 0)
(2.32629 -0.0178651 0)
(2.32671 0.0093523 0)
(2.28428 0.0540344 0)
(2.19772 0.14227 0)
(2.05343 0.262546 0)
(1.83652 0.41759 0)
(1.52691 0.598183 0)
(1.10697 0.797963 0)
(0.571901 1.0026 0)
(-0.0902469 1.20513 0)
(-0.868513 1.40702 0)
(-1.75367 1.59745 0)
(-2.73162 1.76837 0)
(-3.77904 1.90692 0)
(-4.86564 2.00316 0)
(-5.93275 2.03936 0)
(-6.94018 2.00361 0)
(-7.84111 1.89737 0)
(-8.60569 1.6793 0)
(-9.21248 1.35139 0)
(-9.6327 0.924939 0)
(-9.83299 0.418675 0)
(-9.78214 -0.14054 0)
(-9.46474 -0.742182 0)
(-8.88212 -1.33319 0)
(-8.0507 -1.8883 0)
(-6.97417 -2.38721 0)
(-5.68925 -2.773 0)
(-4.22269 -3.04985 0)
(-2.63383 -3.1164 0)
(-0.932302 -3.21596 0)
(0.822323 -3.17932 0)
(2.54396 -3.0288 0)
(4.17069 -2.75237 0)
(5.64474 -2.37637 0)
(6.95088 -1.94003 0)
(8.07028 -1.47941 0)
(8.99416 -1.0396 0)
(9.73665 -0.660176 0)
(10.2276 -0.364927 0)
(10.5422 -0.219892 0)
(10.5405 -0.189464 0)
(10.2979 -0.178461 0)
(9.878 -0.127956 0)
(9.31919 0.0960247 0)
(8.6506 0.539716 0)
(7.71067 1.15586 0)
(6.26158 1.89797 0)
(4.22778 2.66251 0)
(1.77212 3.29345 0)
(-0.998271 3.84861 0)
(-3.86644 4.26371 0)
(-6.66095 4.5124 0)
(-9.20667 4.55519 0)
(-11.3514 4.49104 0)
(-13.0437 4.27394 0)
(-14.3304 3.90812 0)
(-15.3258 3.46263 0)
(-16.0891 2.96773 0)
(-16.6578 2.48685 0)
(-17.0612 1.98753 0)
(-17.3402 1.52867 0)
(-17.4677 1.02751 0)
(-17.4735 0.339346 0)
(-16.9583 -0.328222 0)
(-16.3808 -1.00199 0)
(-15.5627 -1.54786 0)
(-14.6614 -2.05712 0)
(-13.5857 -2.49711 0)
(-12.3824 -2.91238 0)
(-11.0412 -3.26962 0)
(-9.5797 -3.57134 0)
(-8.0282 -3.79523 0)
(-6.40137 -3.96063 0)
(-4.70672 -4.03597 0)
(-2.95066 -4.04588 0)
(-1.13918 -3.85182 0)
(0.652552 -3.71499 0)
(2.42324 -3.63815 0)
(4.19893 -3.6079 0)
(5.96014 -3.56156 0)
(7.69951 -3.5353 0)
(9.41666 -3.48758 0)
(11.1136 -3.35949 0)
(12.7347 -3.16246 0)
(14.3049 -2.92753 0)
(15.7729 -2.64236 0)
(17.1663 -2.34607 0)
(18.4524 -2.00899 0)
(19.6342 -1.65142 0)
(20.6994 -1.2883 0)
(21.654 -0.94557 0)
(22.4601 -0.5659 0)
(23.0878 -0.120201 0)
(23.6112 0.223156 0)
(23.9601 0.530502 0)
(24.1006 0.843174 0)
(24.0061 1.12055 0)
(23.71 1.34014 0)
(23.2265 1.52337 0)
(22.567 1.66408 0)
(21.7567 1.75117 0)
(20.8251 1.78426 0)
(19.8057 1.77299 0)
(18.7375 1.72798 0)
(17.6584 1.65872 0)
(16.6009 1.57254 0)
(15.5896 1.47533 0)
(14.6429 1.37038 0)
(13.77 1.25854 0)
(12.9802 1.14321 0)
(12.2707 1.02385 0)
(11.6483 0.902429 0)
(11.1047 0.77994 0)
(10.6403 0.653356 0)
(10.252 0.526538 0)
(9.93572 0.398489 0)
(9.68195 0.277355 0)
(9.48668 0.162818 0)
(9.34138 0.0630139 0)
(9.24737 -0.0247302 0)
(9.19554 -0.0999454 0)
(9.17894 -0.160291 0)
(9.18673 -0.20008 0)
(9.20796 -0.219133 0)
(9.23025 -0.212971 0)
(9.23043 -0.190411 0)
(9.19628 -0.14093 0)
(9.10552 -0.0702103 0)
(8.93886 0.025045 0)
(8.6766 0.155939 0)
(8.31598 0.313044 0)
(7.8533 0.484956 0)
(7.29185 0.679093 0)
(6.64842 0.882752 0)
(5.93949 1.08119 0)
(5.17496 1.2671 0)
(4.38653 1.42783 0)
(3.58685 1.55114 0)
(2.79258 1.62942 0)
(2.01569 1.66515 0)
(1.27024 1.66352 0)
(0.580105 1.62315 0)
(-0.0478524 1.53219 0)
(-0.562955 1.36389 0)
(-0.99743 1.11629 0)
(-1.2447 0.789407 0)
(-1.35381 0.394938 0)
(-1.29087 0.0412843 0)
(-1.0957 -0.286689 0)
(-0.754751 -0.592114 0)
(-0.262537 -0.896155 0)
(0.377968 -1.17531 0)
(1.16456 -1.43679 0)
(2.08174 -1.66488 0)
(3.11386 -1.85908 0)
(4.24794 -2.02071 0)
(5.46417 -2.13628 0)
(6.73957 -2.20751 0)
(8.04973 -2.21526 0)
(9.37094 -2.16362 0)
(10.6808 -2.05669 0)
(11.9607 -1.90284 0)
(13.1926 -1.70851 0)
(14.3606 -1.48252 0)
(15.4502 -1.23146 0)
(16.4489 -0.968573 0)
(17.3421 -0.694691 0)
(18.1229 -0.43518 0)
(18.7738 -0.188515 0)
(19.3067 0.000420543 0)
(19.6848 0.155395 0)
(19.9098 0.321363 0)
(19.9785 0.49055 0)
(19.9171 0.624986 0)
(19.7602 0.724631 0)
(19.5107 0.800508 0)
(19.1632 0.861649 0)
(18.7254 0.8987 0)
(18.2164 0.913226 0)
(17.6484 0.907959 0)
(17.034 0.882575 0)
(16.3929 0.845791 0)
(15.7463 0.794978 0)
(15.1175 0.72633 0)
(14.5252 0.641034 0)
(13.9839 0.543466 0)
(13.5061 0.439513 0)
(13.099 0.336034 0)
(12.7651 0.240417 0)
(12.5016 0.158721 0)
(12.3034 0.0923572 0)
(12.1583 0.0451355 0)
(12.0515 0.0229271 0)
(11.9606 0.0245162 0)
(11.8569 0.0499657 0)
(11.7141 0.0946452 0)
(11.5185 0.154804 0)
(11.263 0.226257 0)
(10.9478 0.305346 0)
(10.5693 0.389387 0)
(10.1374 0.47944 0)
(9.64096 0.573123 0)
(9.10564 0.672578 0)
(8.52212 0.77328 0)
(7.90968 0.874082 0)
(7.26852 0.970092 0)
(6.6085 1.05786 0)
(5.93478 1.13329 0)
(5.25504 1.19607 0)
(4.57762 1.25118 0)
(3.90933 1.2857 0)
(3.26344 1.28903 0)
(2.64233 1.26034 0)
(2.06863 1.18958 0)
(1.53771 1.11012 0)
(1.05876 1.03292 0)
(0.643418 0.934232 0)
(0.28739 0.816164 0)
(0.0285297 0.669713 0)
(-0.163875 0.504549 0)
(-0.260895 0.327521 0)
(-0.26609 0.147147 0)
(-0.172714 -0.0301599 0)
(0.00704506 -0.210395 0)
(0.279269 -0.386671 0)
(0.64292 -0.557188 0)
(1.09543 -0.719346 0)
(1.63459 -0.872959 0)
(2.25573 -1.01548 0)
(2.95447 -1.14649 0)
(3.72566 -1.26486 0)
(4.5631 -1.3701 0)
(5.46262 -1.46614 0)
(6.41787 -1.54781 0)
(7.42034 -1.61426 0)
(8.45948 -1.65636 0)
(9.52292 -1.66788 0)
(10.5978 -1.64652 0)
(11.6707 -1.59274 0)
(12.7272 -1.50828 0)
(13.7532 -1.39607 0)
(14.7347 -1.25821 0)
(15.6568 -1.09972 0)
(16.5075 -0.924492 0)
(17.273 -0.74242 0)
(17.9424 -0.550641 0)
(18.5084 -0.366871 0)
(18.9607 -0.183592 0)
(19.3003 -0.0174819 0)
(19.5167 0.11575 0)
(19.6014 0.257639 0)
(19.5682 0.380902 0)
(19.4512 0.476266 0)
(19.2591 0.557744 0)
(19.0011 0.619104 0)
(18.6911 0.657251 0)
(18.3385 0.67343 0)
(17.9551 0.674041 0)
(17.5545 0.661175 0)
(17.1486 0.636504 0)
(16.7467 0.602199 0)
(16.3567 0.560436 0)
(15.9853 0.513152 0)
(15.6377 0.462213 0)
(15.3181 0.409519 0)
(15.0293 0.357106 0)
(14.7727 0.306945 0)
(14.5488 0.260616 0)
(14.3569 0.219453 0)
(14.1952 0.18451 0)
(14.0608 0.156643 0)
(13.9493 0.136494 0)
(13.8553 0.124595 0)
(13.7723 0.121796 0)
(13.693 0.128908 0)
(13.6071 0.14408 0)
(13.5031 0.164413 0)
(13.371 0.18846 0)
(13.2032 0.213766 0)
(12.9944 0.239913 0)
(12.7419 0.268937 0)
(12.444 0.304176 0)
(12.1013 0.351097 0)
(11.7113 0.413067 0)
(11.2738 0.493308 0)
(10.7863 0.589345 0)
(10.2523 0.697108 0)
(9.67779 0.808675 0)
(9.06484 0.913716 0)
(8.43647 0.99951 0)
(7.79933 1.05768 0)
(7.16796 1.09226 0)
(6.55882 1.10606 0)
(5.98519 1.08829 0)
(5.45426 1.04286 0)
(4.98481 0.967618 0)
(4.56623 0.872376 0)
(4.22589 0.761143 0)
(3.93765 0.644757 0)
(3.71931 0.532903 0)
(3.56178 0.42125 0)
(3.46648 0.310285 0)
(3.43202 0.197475 0)
(3.4611 0.0920083 0)
(3.54793 -0.0143561 0)
(3.68777 -0.118881 0)
(3.88252 -0.220287 0)
(4.13064 -0.317463 0)
(4.43017 -0.410143 0)
(4.78011 -0.498603 0)
(5.17771 -0.582075 0)
(5.62175 -0.660718 0)