/*--------------------------------*- C++ -*----------------------------------*\
| =========                 |                                                 |
| \\      /  F ield         | OpenFOAM: The Open Source CFD Toolbox           |
|  \\    /   O peration     | Version:  v1812                                 |
|   \\  /    A nd           | Web:      www.OpenFOAM.com                      |
|    \\/     M anipulation  |                                                 |
\*---------------------------------------------------------------------------*/
FoamFile
{
    version     2.0;
    format      ascii;
    class       volScalarField;
    location    "1.2";
    object      p;
}
// * * * * * * * * * * * * * * * * * * * * * * * * * * * * * * * * * * * * * //

dimensions      [1 -1 -2 0 0 0 0];


internalField   nonuniform List<scalar> 
20400
(
99527.3
99527.5
99527.3
99527.2
99526.8
99526.3
99525.6
99524.8
99523.8
99522.9
99521.9
99520.9
99520
99519.2
99518.4
99517.7
99517.1
99516.7
99516.1
99515.7
99515.1
99514.5
99513.4
99512.3
99510.6
99508.5
99505.7
99502.6
99498.8
99494.8
99490.6
99486.3
99481.5
99476.5
99471.1
99464.5
99459.5
99449.6
99440.4
99427.7
99414.3
99398
99380.6
99362.5
99345
99329.5
99315.3
99306
99298.4
99296.4
99299.1
99306.6
99319
99337.5
99360.7
99390.3
99423.4
99465.3
99506.5
99554.2
99601.5
99651.7
99701.3
99750.8
99798.3
99843.2
99884.7
99922.2
99955.7
99984.6
100009
100030
100046
100059
100067
100075
100081
100084
100086
100085
100083
100080
100076
100071
100067
100063
100059
100055
100050
100046
100038
100029
100013
99997.7
99981.9
99960.4
99937.2
99910.7
99883
99853.9
99827.1
99803.4
99783.4
99770.4
99760
99759.4
99768.5
99782.1
99804.9
99833.8
99867.5
99903.2
99941.3
99978
100014
100047
100076
100102
100120
100138
100152
100163
100172
100176
100179
100178
100176
100172
100168
100162
100157
100151
100145
100139
100134
100129
100125
100121
100117
100114
100111
100108
100105
100102
100100
100097
100095
100093
100091
100088
100085
100082
100078
100073
100068
100062
100056
100049
100043
100038
100032
100028
100024
100022
100021
100022
100022
100023
100024
100026
100028
100030
100033
100036
100039
100042
100045
100047
100050
100052
100054
100057
100059
100062
100065
100068
100072
100078
100084
100092
100101
100112
100126
100141
100158
100175
100192
100209
100226
100242
100258
100272
100285
100298
100309
100317
100325
100330
100336
100342
100347
100351
100355
100358
100360
100363
100365
100367
100368
100369
100370
100371
100372
100373
100373
100373
100373
100373
100372
100370
100369
100368
100366
100365
100364
100364
100364
100365
100366
100367
100369
100371
100372
100373
100374
100375
100375
100374
100373
100372
100370
100368
100365
100362
100359
100356
100353
100350
100347
100345
100343
100341
100340
100339
100339
100340
100342
100345
100349
100353
100359
100365
100373
100381
100391
100402
100413
100426
100440
100454
100469
100485
100500
100516
100531
100545
100560
100573
100588
100599
100614
100621
100631
100640
100649
100657
100664
100671
100677
100681
100685
100688
100691
100693
100694
100694
100693
100693
100692
100691
100690
100689
100689
100689
100689
100689
100689
100690
100689
100689
100688
100688
100686
100685
100683
100681
100679
100677
100675
100672
100670
100668
100667
100665
100665
100664
100664
100664
100666
100667
100670
100673
100678
100683
100688
100695
100702
100711
100719
100729
100739
100750
100762
100773
100785
100796
100806
100817
100828
100838
100848
100857
100866
100875
100884
100890
100899
100903
100909
100914
100919
100923
100927
100931
100935
100937
100940
100942
100944
100946
100947
100949
100949
100950
100950
100950
100951
100951
100950
100950
100950
100950
100950
100950
100950
100951
100951
100951
100951
100951
100952
100952
100953
100953
100954
100955
100956
100957
100959
100960
100962
100963
100965
100967
100968
100970
100972
100974
100976
100978
100981
100983
100986
100989
100992
100995
100999
101004
101008
101013
101019
101024
101032
101040
101048
101056
101064
101073
101081
101089
101097
101105
101112
101120
101127
101133
101140
101146
101152
101157
101162
101167
101171
101176
101180
101183
101187
101190
101193
101196
101199
101202
101205
101207
101210
101213
101215
101218
101221
101223
101226
101229
101232
101234
101237
101240
101243
101246
101249
101252
101255
101258
101261
101265
101268
101271
101274
101278
101281
101284
101288
101291
101295
101298
101302
101306
101310
101315
101317
101323
99527.5
99527.6
99527.4
99527.2
99526.6
99526
99525.2
99524.3
99523.3
99522.2
99521.2
99520.1
99519.2
99518.4
99517.7
99517.1
99516.5
99516.1
99515.6
99515.3
99514.7
99514.3
99513.3
99512.3
99510.8
99509
99506.5
99503.5
99500
99495.8
99491.6
99487
99484.7
99480.9
99476.6
99471.1
99461.8
99453.6
99442.3
99430
99415.2
99398.5
99380.7
99362.2
99343.8
99326.6
99310
99297.3
99286.9
99285.4
99289.8
99299.2
99314.8
99337.7
99364.9
99398.2
99434.3
99473.2
99512.8
99555.1
99599.3
99645.3
99691.9
99738.7
99784.6
99828.7
99870.1
99908.2
99942.5
99972.8
99998.9
100021
100040
100055
100068
100076
100080
100083
100085
100084
100083
100079
100076
100071
100067
100062
100059
100055
100051
100046
100038
100031
100021
100010
99986
99964.6
99936.8
99908.1
99876.9
99846.3
99817.3
99791.6
99770.7
99757.5
99750
99754.3
99765.6
99778.5
99795.3
99817.8
99847.2
99880.9
99917.7
99955.5
99992.7
100028
100061
100090
100118
100138
100154
100164
100171
100175
100177
100177
100174
100171
100166
100161
100156
100150
100145
100139
100134
100129
100125
100121
100118
100115
100112
100109
100106
100104
100101
100099
100096
100094
100092
100090
100087
100083
100079
100075
100069
100064
100058
100052
100046
100041
100036
100032
100028
100022
100018
100017
100018
100019
100020
100022
100024
100027
100029
100032
100034
100037
100039
100042
100044
100046
100048
100050
100052
100054
100057
100061
100066
100072
100080
100090
100100
100112
100126
100136
100148
100162
100177
100192
100208
100224
100240
100255
100269
100282
100295
100307
100317
100328
100336
100342
100347
100352
100355
100358
100361
100363
100365
100367
100368
100370
100371
100372
100373
100373
100374
100374
100374
100373
100373
100373
100372
100372
100371
100370
100369
100369
100368
100368
100368
100368
100369
100370
100371
100371
100372
100373
100373
100373
100372
100371
100370
100368
100366
100363
100360
100356
100353
100349
100346
100342
100339
100337
100335
100335
100335
100336
100339
100343
100348
100353
100360
100368
100377
100387
100397
100409
100421
100433
100445
100456
100469
100481
100492
100505
100519
100533
100547
100562
100575
100589
100600
100617
100629
100641
100650
100658
100666
100673
100678
100683
100687
100690
100692
100694
100695
100696
100696
100696
100695
100695
100694
100693
100692
100691
100690
100689
100687
100687
100686
100686
100685
100684
100683
100682
100680
100679
100677
100674
100672
100669
100667
100664
100662
100661
100659
100659
100659
100660
100662
100664
100668
100673
100678
100684
100691
100699
100708
100717
100726
100736
100745
100755
100763
100770
100778
100788
100797
100808
100818
100828
100838
100848
100858
100867
100875
100884
100891
100901
100908
100914
100920
100924
100928
100932
100935
100938
100941
100943
100945
100946
100948
100949
100951
100952
100953
100953
100954
100954
100954
100954
100954
100953
100952
100951
100949
100948
100947
100946
100946
100946
100947
100947
100948
100948
100949
100951
100952
100953
100955
100956
100958
100960
100962
100963
100965
100967
100969
100971
100973
100975
100978
100981
100984
100987
100990
100995
100999
101004
101009
101015
101022
101028
101037
101041
101047
101053
101060
101068
101076
101084
101091
101099
101107
101114
101122
101129
101135
101142
101148
101154
101159
101164
101169
101173
101178
101182
101186
101189
101193
101196
101199
101202
101205
101208
101210
101213
101216
101219
101221
101224
101227
101230
101232
101235
101238
101241
101244
101247
101250
101253
101256
101259
101262
101265
101268
101271
101274
101278
101281
101284
101287
101290
101294
101297
101300
101304
101306
101311
101312
101320
99527.6
99527.7
99527.6
99527.4
99526.9
99526.4
99525.7
99524.9
99524
99523.1
99522.3
99521.4
99520.5
99519.6
99518.8
99518.2
99517.5
99517.1
99516.6
99516.2
99515.5
99514.6
99513.5
99512
99510
99507.4
99504.1
99500.4
99496.6
99493.1
99489.9
99486.8
99481.6
99477.7
99472.8
99467.7
99462.2
99454.1
99443.6
99430.4
99414.3
99394.8
99372.6
99348.2
99324.7
99304.5
99287.3
99280
99275
99274.9
99276.6
99282.6
99294.7
99312.4
99335.9
99364.4
99397.5
99436.6
99480
99527.3
99577.9
99630.1
99682.1
99732.8
99781.3
99827
99869.4
99908
99942.5
99972.8
99998.8
100021
100039
100053
100063
100071
100077
100080
100082
100082
100080
100078
100075
100071
100068
100062
100059
100056
100052
100049
100043
100035
100022
100006
99987.1
99963.4
99934
99901.7
99868
99836.2
99808.3
99784.2
99765.7
99752.9
99741.7
99736.4
99740.3
99755.1
99782
99812.5
99846.2
99882.5
99920.9
99959.4
99997
100032
100063
100090
100113
100131
100146
100158
100166
100171
100173
100173
100171
100168
100163
100158
100153
100148
100142
100137
100132
100127
100122
100119
100115
100112
100110
100107
100105
100103
100100
100098
100096
100094
100092
100090
100087
100084
100080
100074
100068
100062
100055
100049
100042
100037
100032
100027
100024
100024
100025
100024
100023
100023
100024
100026
100029
100031
100035
100038
100042
100045
100049
100052
100055
100057
100060
100063
100065
100068
100070
100073
100076
100079
100084
100090
100100
100109
100120
100136
100154
100172
100189
100206
100224
100240
100256
100270
100284
100296
100306
100315
100323
100329
100335
100341
100346
100350
100354
100357
100360
100363
100365
100367
100368
100370
100371
100372
100373
100373
100374
100374
100374
100373
100372
100371
100369
100367
100365
100364
100363
100362
100363
100364
100365
100367
100369
100371
100373
100374
100376
100377
100377
100377
100376
100374
100372
100369
100367
100363
100360
100357
100354
100351
100348
100346
100344
100343
100342
100341
100341
100342
100343
100345
100347
100351
100356
100362
100369
100377
100386
100396
100407
100420
100434
100449
100464
100480
100497
100513
100529
100544
100558
100572
100586
100598
100611
100621
100631
100641
100650
100658
100666
100673
100679
100683
100687
100690
100693
100694
100695
100695
100694
100693
100692
100690
100689
100688
100688
100688
100688
100689
100691
100691
100691
100691
100691
100691
100690
100688
100686
100684
100682
100679
100677
100675
100673
100672
100670
100669
100668
100667
100667
100667
100667
100668
100670
100673
100676
100680
100685
100691
100698
100706
100715
100724
100735
100745
100757
100771
100783
100795
100806
100817
100827
100837
100847
100857
100866
100875
100883
100891
100897
100903
100909
100914
100920
100924
100928
100932
100935
100938
100941
100943
100945
100947
100948
100949
100950
100950
100950
100951
100951
100950
100950
100950
100950
100949
100950
100950
100952
100952
100953
100953
100953
100954
100954
100954
100955
100956
100956
100957
100958
100959
100961
100962
100964
100965
100967
100968
100970
100972
100974
100976
100978
100980
100982
100984
100987
100989
100992
100996
100999
101003
101007
101012
101017
101023
101028
101038
101047
101056
101064
101072
101081
101089
101097
101105
101113
101120
101128
101134
101141
101147
101153
101158
101163
101168
101172
101176
101180
101184
101187
101190
101194
101197
101199
101202
101205
101207
101210
101213
101215
101218
101221
101223
101226
101229
101231
101234
101237
101240
101243
101246
101249
101252
101255
101258
101261
101264
101268
101271
101274
101277
101281
101284
101288
101291
101295
101298
101302
101306
101310
101315
101317
101323
99528
99528.1
99527.8
99527.5
99526.9
99526.1
99525.1
99524
99522.8
99521.5
99520.4
99519.3
99518.4
99517.6
99517
99516.5
99516.1
99515.8
99515.5
99515.2
99514.8
99514.7
99514.1
99513.2
99511.7
99509.6
99506.8
99503.6
99499.6
99495.1
99490.6
99486.9
99484.1
99481.6
99478.2
99473.2
99464.9
99454.8
99440.7
99422.8
99400.3
99375.3
99350.4
99327.3
99306.7
99287.7
99270.7
99256.8
99242.1
99239.1
99247.1
99259.4
99279.5
99302.7
99330.9
99362.4
99398.1
99436.6
99478.5
99523.1
99570.2
99618.8
99668.5
99718.1
99766.7
99813
99856.3
99896
99931.4
99962.7
99989.4
100012
100031
100046
100058
100067
100073
100077
100079
100080
100078
100075
100072
100068
100065
100062
100058
100056
100054
100050
100045
100037
100026
100009
99983.3
99953.5
99919.6
99884.2
99848.1
99812.5
99779.7
99749.8
99727.1
99710.2
99705.3
99709
99718.8
99734.1
99755.2
99782.5
99816
99853.9
99894.4
99935.6
99975.8
100014
100048
100079
100105
100125
100141
100153
100160
100165
100167
100167
100165
100162
100158
100153
100148
100143
100137
100132
100127
100122
100118
100114
100111
100108
100105
100103
100101
100099
100098
100096
100094
100093
100092
100090
100088
100085
100081
100076
100071
100064
100057
100050
100044
100038
100033
100028
100025
100022
100019
100016
100016
100017
100018
100020
100023
100026
100029
100032
100035
100038
100041
100044
100046
100048
100049
100051
100052
100053
100055
100057
100061
100067
100074
100082
100092
100105
100117
100129
100143
100158
100174
100191
100208
100224
100240
100256
100270
100284
100296
100307
100317
100325
100333
100339
100345
100349
100353
100356
100359
100362
100364
100366
100368
100369
100370
100371
100372
100373
100374
100374
100374
100374
100373
100373
100371
100370
100369
100367
100366
100365
100365
100365
100365
100366
100368
100369
100371
100372
100374
100374
100375
100375
100375
100374
100373
100371
100368
100365
100361
100358
100354
100350
100345
100342
100338
100335
100333
100332
100331
100332
100335
100338
100342
100348
100355
100363
100371
100381
100391
100402
100413
100425
100437
100449
100462
100475
100489
100503
100518
100533
100548
100562
100577
100591
100604
100617
100629
100640
100650
100659
100667
100674
100680
100685
100689
100692
100695
100696
100697
100698
100697
100696
100695
100694
100692
100691
100690
100689
100688
100688
100687
100687
100687
100687
100686
100685
100685
100683
100682
100680
100678
100676
100673
100670
100667
100664
100662
100659
100658
100656
100656
100657
100658
100661
100664
100668
100674
100680
100687
100695
100703
100712
100721
100730
100739
100749
100758
100767
100777
100787
100798
100808
100819
100829
100839
100849
100859
100869
100878
100886
100894
100902
100908
100914
100920
100924
100928
100932
100936
100939
100941
100943
100945
100947
100949
100950
100951
100952
100953
100953
100954
100954
100954
100953
100953
100952
100952
100951
100949
100948
100947
100946
100946
100946
100946
100946
100947
100948
100949
100950
100951
100953
100955
100956
100958
100960
100962
100964
100965
100967
100969
100971
100973
100975
100978
100980
100983
100986
100989
100993
100997
101002
101007
101013
101019
101025
101032
101038
101045
101052
101060
101068
101076
101084
101093
101101
101109
101116
101124
101131
101138
101144
101150
101156
101161
101166
101171
101175
101179
101183
101187
101190
101193
101196
101199
101202
101205
101208
101210
101213
101216
101218
101221
101224
101226
101229
101232
101235
101238
101240
101243
101246
101249
101252
101255
101258
101262
101265
101268
101271
101274
101277
101281
101284
101287
101290
101293
101297
101300
101303
101307
101311
101315
101321
99528.5
99528.6
99528.4
99528
99527.4
99526.6
99525.8
99524.8
99523.9
99522.9
99521.9
99521
99519.9
99519.2
99518.3
99517.8
99517.4
99517.2
99517
99517
99516.7
99516.2
99515.4
99514.1
99512.2
99509.9
99506.5
99502.3
99497.8
99493.5
99489.7
99486.6
99483.6
99480.6
99476.5
99470.9
99462.2
99448.3
99429.6
99406.7
99382.2
99355.7
99327.8
99299
99271.4
99246.9
99228.7
99218.3
99212.5
99211.4
99216.9
99227.1
99244
99266.5
99293.3
99325.3
99361.4
99401.9
99446.4
99494.3
99545
99597.4
99650.7
99703.4
99754.5
99802.8
99847.6
99888.3
99924.6
99956.3
99983.5
100006
100025
100040
100052
100061
100067
100071
100073
100074
100074
100073
100070
100067
100064
100060
100059
100056
100054
100051
100046
100037
100022
100001
99972.5
99938.3
99900.6
99861.3
99822.7
99786.7
99755.7
99728.7
99708.4
99693.5
99684.9
99686
99695.1
99712.6
99737.3
99768.7
99804.2
99843.2
99884.3
99926
99966.6
100004
100038
100068
100092
100113
100129
100141
100150
100155
100158
100159
100157
100154
100150
100146
100140
100135
100129
100124
100118
100114
100109
100105
100102
100099
100097
100095
100093
100092
100091
100090
100090
100089
100088
100088
100086
100084
100080
100074
100068
100060
100053
100045
100038
100032
100026
100022
100019
100016
100015
100015
100015
100016
100018
100021
100024
100028
100032
100036
100040
100044
100048
100051
100054
100056
100058
100059
100060
100061
100062
100064
100066
100069
100074
100081
100091
100101
100115
100129
100145
100161
100178
100195
100212
100228
100244
100259
100272
100285
100296
100306
100315
100323
100330
100336
100341
100346
100350
100353
100356
100359
100362
100364
100366
100367
100369
100370
100371
100372
100372
100372
100372
100372
100371
100370
100368
100367
100365
100363
100362
100362
100362
100362
100364
100366
100368
100370
100373
100375
100377
100378
100379
100379
100378
100376
100374
100371
100368
100364
100360
100356
100352
100349
100345
100342
100339
100337
100335
100334
100333
100333
100334
100337
100340
100344
100349
100355
100363
100372
100381
100392
100404
100416
100430
100444
100458
100474
100489
100504
100519
100534
100548
100563
100577
100591
100604
100616
100628
100638
100648
100657
100665
100673
100679
100684
100689
100692
100694
100696
100697
100697
100695
100694
100692
100691
100689
100688
100687
100687
100687
100688
100689
100690
100691
100691
100691
100691
100690
100688
100686
100684
100681
100679
100676
100673
100670
100668
100666
100664
100662
100661
100660
100660
100660
100661
100663
100666
100670
100675
100681
100688
100696
100704
100713
100723
100734
100744
100756
100767
100778
100789
100800
100810
100821
100831
100841
100851
100861
100870
100879
100887
100894
100901
100908
100913
100919
100923
100928
100931
100935
100938
100941
100943
100945
100947
100948
100949
100950
100951
100951
100951
100951
100951
100951
100951
100950
100950
100950
100950
100950
100950
100950
100950
100950
100951
100951
100951
100952
100953
100954
100955
100956
100957
100959
100960
100962
100964
100965
100967
100969
100971
100973
100974
100976
100978
100980
100982
100984
100987
100990
100993
100996
101000
101005
101010
101016
101022
101029
101037
101045
101053
101061
101070
101078
101087
101095
101103
101111
101119
101126
101134
101140
101147
101152
101158
101163
101168
101172
101177
101181
101184
101188
101191
101194
101197
101200
101202
101205
101208
101210
101213
101215
101218
101221
101223
101226
101229
101232
101234
101237
101240
101243
101246
101249
101252
101255
101258
101261
101264
101268
101271
101274
101277
101281
101284
101287
101291
101294
101298
101301
101305
101309
101314
101318
101322
99529.1
99529.1
99528.9
99528.3
99527.7
99526.6
99525.6
99524.3
99523
99521.6
99520.3
99519.1
99518.1
99517.3
99516.6
99516.2
99515.9
99516
99516
99516.3
99516.4
99516.6
99516.5
99515.9
99514.6
99512.4
99509.5
99505.8
99501.7
99497.6
99493.8
99490.6
99487.8
99484.6
99479.3
99470.6
99456.8
99439.3
99417.5
99391.3
99361.1
99328.9
99297.1
99267.2
99241.1
99217.4
99198.6
99184.8
99178.4
99181.4
99190.4
99206.5
99226.9
99253.2
99282.7
99315.9
99352.1
99391.2
99433.2
99478.3
99526.4
99577.2
99629.9
99683.1
99735.4
99785.2
99831.5
99873.7
99911.3
99944.2
99972.4
99996.3
100016
100032
100044
100054
100061
100066
100069
100070
100070
100069
100067
100064
100061
100059
100056
100054
100052
100049
100043
100033
100016
99990.1
99957.1
99919.3
99878.3
99836.3
99794.8
99755.4
99720.7
99691.1
99670.3
99656.4
99651
99654.6
99664.7
99682.3
99706
99736.7
99772.8
99813.5
99856.8
99901
99944.2
99984.6
100021
100053
100079
100101
100117
100130
100138
100144
100147
100148
100146
100144
100140
100136
100130
100125
100119
100114
100108
100103
100098
100094
100091
100088
100085
100084
100082
100081
100081
100081
100081
100082
100083
100083
100082
100080
100077
100073
100067
100059
100052
100045
100038
100031
100026
100021
100017
100015
100013
100012
100012
100013
100014
100017
100020
100024
100028
100032
100036
100039
100043
100046
100048
100050
100051
100052
100053
100054
100055
100057
100060
100064
100070
100078
100088
100099
100111
100124
100139
100154
100170
100187
100204
100220
100236
100250
100264
100277
100289
100300
100309
100318
100325
100332
100337
100342
100346
100350
100353
100356
100358
100360
100362
100364
100365
100367
100368
100369
100369
100370
100370
100370
100369
100369
100367
100366
100365
100363
100362
100362
100362
100362
100363
100365
100367
100369
100372
100374
100376
100377
100378
100378
100378
100377
100375
100372
100368
100364
100360
100355
100350
100346
100341
100337
100333
100330
100328
100326
100326
100327
100329
100332
100336
100341
100347
100354
100362
100371
100381
100391
100403
100415
100427
100440
100453
100467
100481
100496
100510
100526
100541
100555
100570
100584
100598
100611
100624
100635
100646
100655
100664
100671
100677
100683
100687
100690
100693
100695
100696
100696
100695
100694
100692
100691
100689
100688
100687
100687
100686
100687
100687
100688
100688
100688
100688
100688
100687
100685
100683
100681
100678
100675
100672
100668
100665
100662
100659
100657
100655
100654
100653
100653
100654
100656
100659
100663
100668
100674
100680
100688
100696
100704
100713
100723
100733
100743
100753
100763
100773
100784
100794
100805
100815
100826
100836
100846
100856
100866
100875
100884
100892
100899
100906
100912
100917
100922
100926
100930
100934
100937
100939
100941
100944
100945
100947
100948
100949
100950
100950
100951
100951
100951
100951
100951
100951
100950
100950
100949
100948
100948
100947
100947
100946
100946
100947
100947
100947
100948
100949
100951
100952
100954
100955
100957
100959
100961
100963
100964
100966
100968
100970
100972
100974
100976
100978
100980
100982
100985
100988
100991
100995
100999
101004
101009
101015
101021
101028
101035
101042
101050
101059
101067
101076
101084
101093
101101
101110
101117
101125
101132
101139
101146
101152
101157
101163
101168
101172
101176
101180
101184
101188
101191
101194
101197
101200
101202
101205
101208
101210
101213
101216
101218
101221
101223
101226
101229
101232
101234
101237
101240
101243
101246
101249
101252
101255
101258
101261
101265
101268
101271
101274
101277
101281
101284
101287
101291
101294
101297
101301
101305
101309
101313
101318
101322
99530.1
99530.1
99529.7
99529.1
99528.5
99527.3
99526.3
99524.9
99523.7
99522.3
99521.1
99519.8
99518.7
99517.8
99517
99516.5
99516.2
99516.4
99516.6
99517.1
99517.5
99517.8
99517.8
99517.2
99515.9
99513.9
99511.1
99507.6
99503.7
99500.1
99497
99494.6
99491.8
99487.2
99479.6
99468.6
99452.8
99430.7
99402.6
99371.2
99337.4
99302.5
99267.4
99233.4
99203.6
99178.4
99161.4
99149.9
99145.6
99149.4
99158.3
99174.9
99195.5
99222.1
99251.9
99285.7
99322.4
99362.4
99405.5
99451.9
99501.7
99554.3
99609.1
99664.5
99718.9
99770.6
99818.6
99862.1
99900.7
99934.4
99963.3
99987.5
100008
100024
100036
100046
100054
100059
100063
100065
100066
100065
100064
100062
100060
100057
100055
100053
100051
100047
100039
100026
100005
99975.5
99939
99897.6
99853.5
99809.2
99766.8
99728.2
99695.3
99667.6
99648.4
99634.8
99629.4
99633.2
99643.5
99662.4
99687.4
99719.2
99755.8
99796.6
99840
99884.3
99927.8
99968.2
100005
100036
100062
100084
100101
100114
100123
100130
100133
100134
100134
100131
100128
100123
100118
100113
100107
100101
100095
100090
100085
100080
100076
100073
100071
100069
100068
100067
100067
100068
100069
100070
100071
100073
100073
100072
100070
100065
100060
100053
100045
100038
100031
100025
100019
100014
100011
100008
100007
100007
100008
100010
100012
100015
100019
100023
100028
100032
100037
100041
100045
100049
100052
100054
100055
100056
100057
100057
100058
100060
100062
100066
100072
100079
100088
100099
100112
100125
100140
100155
100171
100188
100204
100220
100235
100249
100262
100275
100286
100296
100305
100313
100320
100326
100332
100337
100341
100345
100348
100351
100354
100356
100358
100359
100361
100362
100363
100364
100365
100365
100366
100366
100365
100364
100363
100362
100361
100360
100359
100359
100360
100361
100362
100364
100367
100370
100373
100375
100378
100379
100380
100380
100379
100378
100375
100372
100368
100364
100359
100354
100349
100345
100340
100336
100333
100330
100327
100326
100325
100325
100326
100329
100332
100336
100341
100348
100356
100364
100374
100385
100396
100409
100422
100435
100450
100464
100479
100493
100508
100523
100538
100553
100567
100581
100595
100608
100620
100631
100642
100652
100660
100668
100674
100679
100684
100687
100690
100691
100693
100693
100692
100690
100689
100688
100686
100685
100685
100685
100685
100686
100687
100688
100689
100689
100689
100689
100688
100687
100685
100682
100679
100676
100673
100669
100666
100663
100661
100658
100656
100655
100654
100653
100654
100655
100657
100660
100665
100670
100676
100683
100691
100700
100709
100719
100730
100740
100751
100762
100772
100783
100794
100804
100815
100825
100835
100845
100855
100865
100874
100882
100890
100897
100904
100910
100915
100920
100924
100928
100931
100934
100937
100939
100941
100943
100944
100946
100947
100947
100948
100948
100948
100949
100949
100948
100948
100948
100948
100947
100947
100947
100947
100947
100947
100947
100948
100948
100949
100950
100951
100952
100954
100955
100957
100959
100960
100962
100964
100966
100968
100970
100971
100973
100975
100976
100978
100980
100982
100985
100987
100990
100994
100998
101002
101007
101013
101019
101026
101034
101042
101050
101058
101067
101076
101085
101093
101102
101110
101118
101126
101133
101140
101146
101152
101158
101163
101168
101173
101177
101181
101184
101188
101191
101194
101197
101200
101202
101205
101208
101210
101213
101215
101218
101221
101223
101226
101229
101231
101234
101237
101240
101243
101246
101249
101252
101255
101258
101261
101265
101268
101271
101274
101278
101281
101284
101288
101291
101295
101298
101302
101306
101310
101314
101318
101322
99531.2
99530.9
99530.7
99529.8
99529.1
99527.8
99526.5
99525
99523.5
99521.9
99520.3
99518.9
99517.6
99516.5
99515.6
99515.1
99514.9
99515.2
99515.7
99516.6
99517.5
99518.4
99519.1
99519.5
99519.3
99518.2
99516.7
99514.7
99512.4
99510.3
99508
99505
99501
99495.6
99486.3
99470.7
99449.3
99423
99390.8
99355.6
99317.2
99278.4
99240.7
99205.8
99176
99150.5
99133.8
99122
99119.1
99125.5
99136.2
99155.8
99178.7
99207.5
99238.6
99273
99309.2
99347.7
99388.6
99432.7
99480.4
99531.9
99586.6
99643
99698.9
99752.5
99802.1
99847.1
99887.1
99922
99951.9
99977.1
99997.9
100015
100028
100039
100047
100053
100057
100060
100062
100062
100062
100059
100057
100056
100053
100052
100048
100043
100034
100018
99993.4
99960.1
99920.7
99876.7
99830.8
99785
99741.4
99701.9
99668.5
99640.8
99622.1
99609.1
99604.6
99609
99619.3
99638
99662.6
99694.4
99731.5
99773.1
99817.6
99863
99907.7
99949.4
99986.7
100019
100046
100068
100085
100098
100108
100114
100118
100119
100119
100117
100113
100109
100104
100098
100092
100086
100080
100074
100069
100064
100060
100056
100053
100051
100050
100050
100050
100051
100053
100055
100057
100059
100060
100061
100060
100058
100054
100048
100042
100035
100029
100022
100017
100012
100008
100006
100004
100003
100004
100005
100008
100011
100015
100019
100024
100029
100034
100038
100043
100046
100049
100051
100053
100055
100056
100057
100059
100061
100064
100068
100074
100082
100091
100101
100113
100126
100140
100155
100170
100185
100201
100216
100230
100244
100257
100269
100280
100290
100299
100307
100314
100321
100327
100331
100336
100340
100343
100346
100348
100350
100352
100354
100356
100357
100358
100359
100359
100360
100360
100361
100360
100360
100360
100359
100358
100358
100358
100358
100359
100360
100361
100363
100366
100369
100371
100374
100376
100378
100379
100379
100378
100377
100374
100371
100367
100362
100357
100352
100346
100341
100336
100332
100328
100325
100322
100321
100320
100321
100322
100325
100329
100333
100339
100346
100354
100362
100372
100382
100394
100405
100418
100430
100444
100457
100471
100486
100500
100515
100530
100545
100559
100574
100588
100601
100614
100626
100637
100647
100655
100663
100669
100675
100679
100683
100685
100687
100687
100688
100688
100687
100686
100685
100684
100683
100683
100683
100683
100684
100684
100685
100686
100686
100687
100686
100685
100684
100681
100679
100676
100673
100669
100666
100663
100660
100657
100654
100652
100651
100650
100650
100651
100652
100655
100658
100663
100669
100675
100682
100690
100699
100708
100718
100728
100738
100748
100758
100768
100779
100789
100800
100810
100820
100831
100841
100851
100861
100870
100879
100887
100894
100901
100907
100912
100917
100921
100925
100928
100931
100934
100936
100938
100940
100941
100942
100943
100944
100945
100946
100946
100946
100947
100946
100946
100946
100946
100946
100946
100945
100945
100945
100945
100945
100946
100946
100947
100948
100949
100950
100952
100954
100955
100957
100959
100961
100963
100965
100967
100969
100970
100972
100974
100975
100977
100979
100981
100983
100986
100989
100992
100996
101001
101006
101011
101017
101024
101031
101039
101047
101056
101065
101074
101083
101092
101101
101109
101117
101125
101133
101140
101146
101152
101158
101163
101168
101172
101177
101180
101184
101187
101191
101194
101197
101199
101202
101205
101207
101210
101213
101215
101218
101220
101223
101226
101229
101231
101234
101237
101240
101243
101246
101249
101252
101255
101258
101261
101265
101268
101271
101274
101278
101281
101284
101288
101291
101295
101298
101302
101306
101310
101314
101318
101322
99532.7
99532.5
99532
99531.2
99530.3
99528.9
99527.5
99525.9
99524.2
99522.4
99520.8
99519.1
99517.6
99516.3
99515.4
99514.7
99514.5
99514.8
99515.4
99516.3
99517.5
99518.7
99519.8
99520.7
99521.2
99521.3
99521.1
99520.7
99520.2
99519.3
99518.6
99517.7
99514.1
99506
99492
99473.2
99448.2
99418
99380.4
99341.5
99298.9
99256.9
99216.5
99179.7
99149.1
99123.1
99106.8
99095
99092.5
99099.4
99110.9
99131.5
99155.5
99185.3
99217.2
99252.1
99288.4
99327
99367.8
99411.7
99459.3
99511
99566.5
99624.2
99681.9
99737
99788.1
99834.2