/*--------------------------------*- C++ -*----------------------------------*\
| =========                 |                                                 |
| \\      /  F ield         | OpenFOAM: The Open Source CFD Toolbox           |
|  \\    /   O peration     | Version:  v1812                                 |
|   \\  /    A nd           | Web:      www.OpenFOAM.com                      |
|    \\/     M anipulation  |                                                 |
\*---------------------------------------------------------------------------*/
FoamFile
{
    version     2.0;
    format      ascii;
    class       surfaceScalarField;
    location    "1.2";
    object      phi;
}
// * * * * * * * * * * * * * * * * * * * * * * * * * * * * * * * * * * * * * //

dimensions      [1 0 -1 0 0 0 0];
oriented        oriented;


internalField   nonuniform List<scalar> 
40240
(
-9.16619e-05
-7.33897e-05
-8.29761e-05
-0.000173731
-5.2394e-06
-0.000242691
0.000131789
-0.000301928
0.000309066
-0.00034205
0.000487658
-0.000343254
0.000648053
-0.000324905
0.000764759
-0.000281055
0.000838788
-0.000238199
0.000856994
-0.000182174
0.000844096
-0.000150868
0.00078357
-0.000103014
0.00069837
-7.80975e-05
0.000590293
-5.49718e-05
0.000474223
-4.67016e-05
0.000360094
-4.83572e-05
0.000266382
-6.84757e-05
0.000200945
-9.64341e-05
0.00018697
-0.000147594
0.000226857
-0.00020115
0.000356503
-0.000290566
0.000574306
-0.000378327
0.000897591
-0.000483404
0.0013246
-0.000586754
0.00185831
-0.000693023
0.00247897
-0.000779616
0.00313253
-0.000812121
0.00376205
-0.000787717
0.00427004
-0.000665838
0.00463329
-0.00052076
0.00481078
-0.00033467
0.00491059
-0.000256757
0.00486295
-0.000108915
0.00473916
-3.24594e-05
0.00449674
8.66075e-05
0.00411142
0.00022994
0.00413945
-0.000182975
0.00392355
6.12346e-05
0.00310695
0.000662343
0.00192726
0.00102561
0.000254565
0.00151881
-0.00193928
0.00203993
-0.00492871
0.00283584
-0.00862234
0.00354017
-0.0129416
0.00416617
-0.0176686
0.00457436
-0.0225828
0.00476209
-0.0273894
0.0046551
-0.0319572
0.00441672
-0.0360599
0.00395246
-0.0396905
0.00348144
-0.0427313
0.0028925
-0.0452083
0.00232961
-0.0470646
0.00171004
-0.0484436
0.00123386
-0.0491622
0.000574147
-0.0493706
6.57056e-05
-0.0489944
-0.000518658
-0.0479783
-0.00115769
-0.0464739
-0.00164591
-0.0445821
-0.00203291
-0.042234
-0.00248927
-0.039474
-0.00290117
-0.0363792
-0.00323627
-0.0330358
-0.00348519
-0.0295338
-0.00364432
-0.0259473
-0.00372915
-0.0223397
-0.00375082
-0.0187755
-0.00370769
-0.0152926
-0.00362694
-0.011956
-0.00348064
-0.00877591
-0.00332475
-0.00586453
-0.00305584
-0.00343073
-0.0025785
-0.00130722
-0.00226789
0.000861799
-0.00231387
0.0029223
-0.00220588
0.00465343
-0.00187702
0.005975
-0.00146743
0.00691969
-0.00109016
0.00751195
-0.000736742
0.00779036
-0.000420611
0.00788089
-0.000229689
0.00786546
-0.000119423
0.00782209
-8.71998e-05
0.00783025
-0.000133989
0.00802955
-0.000319797
0.00843852
-0.000524823
0.00904135
-0.00071494
0.00976184
-0.000830349
0.0105075
-0.000855981
0.0108318
-0.000436184
0.010514
0.000199714
0.00925099
0.00114505
0.00823609
0.000895265
0.00641373
0.00170236
0.00373465
0.00255976
0.000567871
0.00304765
-0.0032831
0.00373259
-0.00773501
0.00433555
-0.0124506
0.00460116
-0.0171266
0.00456321
-0.0215117
0.00427527
-0.0254539
0.00383358
-0.0287495
0.00319194
-0.031294
0.00244395
-0.0328615
0.0014662
-0.0335494
0.00058676
-0.0335091
-0.000136919
-0.0324038
-0.00120173
-0.0307011
-0.00179568
-0.028365
-0.00242884
-0.0256042
-0.00285217
-0.0224526
-0.00324282
-0.0190867
-0.00345634
-0.0155571
-0.00362109
-0.0120822
-0.00356502
-0.00901057
-0.00316297
-0.00619858
-0.00290355
-0.00329888
-0.00299242
-0.000535021
-0.00285709
0.002221
-0.00285002
0.00477986
-0.00265425
0.00698473
-0.00230155
0.00881866
-0.00193187
0.0103083
-0.00158847
0.0114768
-0.00126791
0.012326
-0.000948983
0.0128655
-0.0006392
0.0131017
-0.00033548
0.0131307
-0.000127679
0.0129887
4.46342e-05
0.012586
0.000306304
0.0119736
0.000517461
0.0112135
0.000666724
0.0103245
0.000797555
0.00935375
0.000881164
0.00833014
0.000935818
0.00729061
0.000953802
0.00626486
0.000941781
0.00527308
0.000909287
0.0043298
0.000862068
0.00344631
0.000803387
0.00263457
0.000732712
0.00192219
0.00063426
0.00133863
0.000506138
0.000901626
0.000360117
0.000595536
0.000229732
0.00038888
0.000130761
0.000227298
8.60617e-05
6.75548e-05
8.47625e-05
-7.94201e-05
7.22351e-05
-0.000305925
0.000152104
-0.000803048
0.000423219
-0.00141967
0.000542767
-0.0021505
0.000657653
-0.00297287
0.000749671
-0.00382642
0.000781612
-0.00469143
0.000793813
-0.00553369
0.000771832
-0.00632446
0.000721261
-0.00703724
0.000644525
-0.0076618
0.000557552
-0.00822255
0.000494029
-0.00869698
0.000406118
-0.00905129
0.00028545
-0.00928827
0.000170752
-0.00943245
7.92997e-05
-0.00952036
2.38604e-05
-0.00955426
-2.90876e-05
-0.0095436
-7.26659e-05
-0.00950678
-9.7938e-05
-0.00945487
-0.000112097
-0.00940294
-0.00011121
-0.00936787
-9.34543e-05
-0.00936355
-6.18255e-05
-0.00940953
-1.06759e-05
-0.00954341
7.80603e-05
-0.00979141
0.000193026
-0.0101697
0.00032414
-0.0106831
0.000459886
-0.0113398
0.000604078
-0.0121402
0.000748415
-0.0130799
0.000888375
-0.014142
0.00101144
-0.0153062
0.00111414
-0.0165443
0.00118867
-0.0178231
0.00122961
-0.0190872
0.00121579
-0.0202248
0.00109002
-0.02116
0.000886538
-0.0218664
0.00065991
-0.0221608
0.000250547
-0.0221599
-4.45054e-05
-0.0218625
-0.000342594
-0.021271
-0.000636678
-0.0204255
-0.00089062
-0.019332
-0.00113806
-0.0180448
-0.00133127
-0.0166003
-0.00148816
-0.0150381
-0.00160532
-0.0134198
-0.00166082
-0.0117412
-0.00172104
-0.0100817
-0.0017007
-0.00843486
-0.00168921
-0.00692259
-0.00155343
-0.00579362
-0.00116929
-0.00495748
-0.000875895
-0.0039831
-0.00101431
-0.00305666
-0.000966053
-0.00222975
-0.00086674
-0.00153482
-0.000734708
-0.00097335
-0.000601323
-0.0005419
-0.000471389
-0.000230901
-0.000350991
-2.95103e-05
-0.000241543
8.17537e-05
-0.000151485
9.57753e-05
-5.43514e-05
4.55233e-05
1.00019e-05
-6.41125e-05
6.94e-05
-0.000221046
0.00011681
-0.000408651
0.000147633
-0.000622354
0.000174007
-0.000847017
0.000185262
-0.00108869
0.00020268
-0.00132783
0.000200538
-0.00157477
0.000208771
-0.00175038
0.000137909
-0.00192407
0.000136331
-0.00237887
0.000417924
-0.00287811
0.000462809
-0.00336891
0.000454808
-0.00388736
0.000482962
-0.00438366
0.000461275
-0.00484269
0.00042441
-0.00522776
0.000350956
-0.00551914
0.000257736
-0.00570197
0.0001496
-0.0057701
3.52166e-05
-0.00573501
-6.7679e-05
-0.00561806
-0.000149335
-0.00542659
-0.000223621
-0.00517356
-0.000285004
-0.00490432
-0.000301067
-0.0046411
-0.000294873
-0.00439378
-0.000278921
-0.00417706
-0.000248101
-0.00399911
-0.00020917
-0.0039192
-0.000110941
-0.00392171
-2.842e-05
-0.00403615
8.37728e-05
-0.00424175
0.000174926
-0.00455478
0.000282568
-0.00495684
0.000371696
-0.00545893
0.000471962
-0.00604259
0.000553741
-0.0067048
0.000632452
-0.00742721
0.000692804
-0.008198
0.000741371
-0.00899958
0.000772362
-0.00982116
0.000792519
-0.0106534
0.000803398
-0.0114912
0.000809151
-0.0123224
0.00080288
-0.0131347
0.000784206
-0.0139193
0.000756697
-0.0146695
0.000722643
-0.0153747
0.00067787
-0.0160198
0.000618204
-0.0165981
0.000551636
-0.0171317
0.000507233
-0.0175872
0.000429383
-0.0179437
0.000330818
-0.0182172
0.000248074
-0.0183828
0.000140532
-0.0184487
4.13116e-05
-0.0183813
-9.16395e-05
-0.0181773
-0.00022793
-0.0178278
-0.000373012
-0.0173469
-0.000503996
-0.0167474
-0.000622464
-0.0160142
-0.000755643
-0.0152072
-0.000829362
-0.0143468
-0.000882693
-0.0134253
-0.000943586
-0.0124563
-0.000990663
-0.0114452
-0.00103254
-0.0104014
-0.00106454
-0.00934633
-0.00107556
-0.00830226
-0.00106333
-0.00717434
-0.00114597
-0.00666685
-0.000527043
-0.00607418
-0.000611507
-0.00537522
-0.000717249
-0.00471155
-0.000681472
-0.00410306
-0.000625775
-0.00356675
-0.000553264
-0.00310952
-0.00047384
-0.00271983
-0.000406117
-0.00241538
-0.000320682
-0.00217604
-0.0002556
-0.00201768
-0.000174482
-0.00189912
-0.000134857
-0.00179954
-0.000115769
-0.0017647
-5.14035e-05
-0.00196643
0.0001853
-0.00222386
0.000240904
-0.002539
0.000298637
-0.00289448
0.000339039
-0.00326626
0.000355366
-0.00362597
0.000343496
-0.00394759
0.000305496
-0.00420803
0.000244551
-0.00438935
0.000165653
-0.00448617
8.12609e-05
-0.0045018
4.78418e-07
-0.00442115
-9.57109e-05
-0.00430239
-0.000133632
-0.00417146
-0.00014571
-0.00405195
-0.000134158
-0.00396002
-0.000106472
-0.0039129
-6.1562e-05
-0.00391547
-1.17845e-05
-0.00398223
5.24727e-05
-0.00413594
0.000139505
-0.00436927
0.000219164
-0.00468002
0.000296665
-0.00506174
0.000367681
-0.00550881
0.000433099
-0.00601461
0.000491896
-0.00657126
0.000542813
-0.00717249
0.000587495
-0.0078111
0.000624904
-0.00848428
0.000659594
-0.00918048
0.000682629
-0.009892
0.000698104
-0.0106062
0.000700868
-0.0113123
0.000692879
-0.0119979
0.000672569
-0.0126492
0.000638327
-0.0132554
0.000593402
-0.0137952
0.000527115
-0.0142726
0.000464827
-0.0146965
0.000411526
-0.0150412
0.000332486
-0.0152822
0.000228942
-0.0154456
0.000151548
-0.0155133
5.60305e-05
-0.0154964
-2.84131e-05
-0.0153635
-0.000144118
-0.0151251
-0.000249372
-0.0147767
-0.000358353
-0.01429
-0.000496078
-0.0137603
-0.000539822
-0.0132028
-0.000568406
-0.012611
-0.000602862
-0.0119804
-0.00064172
-0.0113107
-0.000680871
-0.0106044
-0.00071746
-0.00987052
-0.000744963
-0.00911042
-0.000771201
-0.00834656
-0.000774842
-0.00756725
-0.000790465
-0.00681291
-0.000765001
-0.00604871
-0.000775519
-0.00530595
-0.00075324
-0.00467358
-0.000643283
-0.00437325
-0.000310765
-0.00396417
-0.000419819
-0.00354343
-0.000431092
-0.0031568
-0.000397138
-0.00282936
-0.00033768
-0.00255605
-0.000283465
-0.00234078
-0.000225187
-0.00217224
-0.000178268
-0.00205793
-0.000123813
-0.00198496
-8.22343e-05
-0.00195131
-4.26947e-05
-0.00194459
-1.5522e-05
-0.00196066
7.43227e-06
-0.00195637
-1.27233e-05
-0.00190468
-5.99728e-05
-0.0020503
0.00013743
-0.00221365
0.000155317
-0.00237139
0.000149801
-0.00254626
0.000167033
-0.00273003
0.000176009
-0.00292974
0.00019202
-0.00314024
0.000202869
-0.00336229
0.00021444
-0.0035956
0.000225693
-0.00384489
0.000241462
-0.00411384
0.000260806
-0.00440503
0.000282319
-0.00470627
0.000292319
-0.00495723
0.000243081
-0.00519304
0.000228317
-0.00541751
0.000217125
-0.00563599
0.000211408
-0.00585193
0.000208927
-0.00606376
0.000204895
-0.00627142
0.000200762
-0.00647311
0.00019485
-0.00666696
0.000187086
-0.00685155
0.000177901
-0.00702675
0.000168577
-0.00719276
0.000159458
-0.00735095
0.000151724
-0.00750279
0.000145438
-0.00765034
0.000141233
-0.00779604
0.000139451
-0.00794268
0.00014044
-0.0080932
0.000144395
-0.00825061
0.000151337
-0.00841855
0.000161934
-0.00859986
0.000175354
-0.00879649
0.000190735
-0.00901013
0.000207801
-0.00924141
0.000225512
-0.00949007
0.000242973
-0.00975498
0.000259287
-0.0100328
0.000272241
-0.0103206
0.000282253
-0.0106154
0.000289346
-0.0109094
0.000288652
-0.0111978
0.000282965
-0.0114649
0.000261972
-0.0117157
0.000245874
-0.0119548
0.000234614
-0.012161
0.000202592
-0.0123079
0.000143915
-0.0124089
9.83103e-05
-0.012409
-1.4758e-06
-0.012349
-6.23539e-05
-0.0122444
-0.000107303
-0.0121025
-0.000145109
-0.0119141
-0.000192018
-0.0116825
-0.000235377
-0.0114124
-0.000273873
-0.0111107
-0.000305456
-0.0107846
-0.00032974
-0.0104415
-0.000346686
-0.0100886
-0.000356478
-0.00973256
-0.00035957
-0.00937953
-0.000356519
-0.00903497
-0.000348016
-0.0087036
-0.000334797
-0.00838936
-0.000317649
-0.00809535
-0.000297383
-0.00782391
-0.000274784
-0.00757661
-0.000250607
-0.00735438
-0.0002255
-0.00715754
-0.000200082
-0.00698591
-0.000174822
-0.00683882
-0.000150236
-0.00671535
-0.00012657
-0.00661414
-0.000104252
-0.006534
-8.31334e-05
-0.00647323
-6.37056e-05
-0.00643102
-4.50761e-05
-0.006405
-2.88222e-05
-0.00639303
-1.47002e-05
-0.00639224
-3.45315e-06
-0.00640186
7.02441e-06
-0.00641984
1.5459e-05
-0.00644487
2.25768e-05
-0.00647534
2.80975e-05
-0.00651004
3.23965e-05
-0.00654772
3.54583e-05
-0.00658743
3.75482e-05
-0.00662822
3.87175e-05
-0.00666942
3.91897e-05
-0.00671038
3.90312e-05
-0.00675065
3.84072e-05
-0.00678982
3.73823e-05
-0.0068276
3.606e-05
-0.00686377
3.45088e-05
-0.00689814
3.27864e-05
-0.00693063
3.09673e-05
-0.00696115
2.90568e-05
-0.0069897
2.715e-05
-0.00701623
2.51953e-05
-0.00704089
2.3384e-05
-0.00706364
2.15274e-05
-0.00708482
1.99907e-05
-0.00710391
1.79209e-05
-0.00712183
1.67839e-05
-0.00713935
1.63764e-05
-0.00715707
1.65055e-05
-0.00717849
2.00394e-05
-0.00720718
2.70302e-05
-0.00724752
3.83616e-05
-0.00729635
4.6602e-05
-0.00734308
4.44949e-05
-0.00733619
-8.82112e-06
-0.0072541
-8.35405e-05
-0.00701242
-0.000242574
-0.00667312
-0.000339802
-0.00619333
-0.000480048
-0.000488413
-8.31056e-05
-0.000155314
-4.7789e-06
-0.000417059
0.000253503
-0.000665882
0.000629822
-0.000843089
0.00106303
-0.000939973
0.00149434
-0.000939164
0.00189262
-0.000887645
0.00222631
-0.00077905
0.00247696
-0.00065298
0.00264186
-0.000511017
0.00270512
-0.000377871
0.0026981
-0.000259517
0.00262463
-0.000167915
0.0025055
-9.88707e-05
0.00236301
-6.69714e-05
0.0022144
-6.21969e-05
0.00208705
-0.000103264
0.0020036
-0.000174782
0.00198702
-0.000292488
0.00206289
-0.000438168
0.00225076
-0.000639248
0.00259462
-0.000882607
0.00308974
-0.00113853
0.00373984
-0.00139648
0.00455012
-0.00166251
0.00549678
-0.00188512
0.00652559
-0.00199938
0.00753416
-0.00195439
0.00838979
-0.00167927
0.00889366
-0.00118204
0.00890305
-0.000501246
0.00836107
0.000128523
0.0077978
0.000297824
0.00705938
0.000549809
0.0060757
0.000914506
0.00476338
0.00138689
0.002195
0.00223045
-0.00124214
0.00334382
-0.00549794
0.00476397
-0.0110524
0.00642626
-0.0178291
0.00814189
-0.0256239
0.00968148
-0.0339071
0.0109662
-0.0422579
0.0117384
-0.0501864
0.0119426
-0.0573828
0.0116192
-0.0636864
0.0109149
-0.0689328
0.00975156
-0.0729896
0.00832455
-0.0759371
0.00675213
-0.0779345
0.00533268
-0.0791052
0.00391801
-0.079447
0.00252742
-0.0791406
0.0012607
-0.0779806
-6.80633e-05
-0.0763521
-0.00119497
-0.0741522
-0.00227405
-0.07165
-0.00316012
-0.0688697
-0.00407627
-0.065717
-0.00493616
-0.0621629
-0.00572371
-0.058277
-0.00651163
-0.0540817
-0.00723284
-0.0496072
-0.00784722
-0.0449072
-0.00832212
-0.0400425
-0.00864689
-0.0350768
-0.00883396
-0.0300752
-0.00889321
-0.0250882
-0.00883769
-0.0201833
-0.00867627
-0.0153869
-0.00842327
-0.0107908
-0.00806855
-0.00632619
-0.00766997
-0.00182034
-0.00723445
0.00255772
-0.00679702
0.006392
-0.00629948
0.00975098
-0.00571615
0.0127962
-0.00507246
0.0155127
-0.00433268
0.0178036
-0.00352835
0.0195267
-0.00260636
0.0206008
-0.00164054
0.0209738
-0.000747741
0.0209353
-0.000225171
0.0207196
-1.32009e-05
0.020365
8.39419e-05
0.0199814
-6.57514e-05
0.0196668
-0.000334685
0.0193057
-0.000470296
0.0185912
-0.00022352
0.0171981
0.000434483
0.0153327
0.00132436
0.0131116
0.00230888
0.0102153
0.00392349
0.00520746
0.00578306
-0.000999083
0.00778771
-0.00796187
0.00940217
-0.0155888
0.0105545
-0.0231347
0.0111604
-0.0300381
0.0111216
-0.0360118
0.0104593
-0.0408633
0.00930029
-0.0445825
0.00788263
-0.0470782
0.00621911
-0.0485308
0.00453826
-0.0488098
0.00262031
-0.0482247
0.000772653
-0.0470811
-0.000663257
-0.0454043
-0.00191574
-0.043144
-0.00356137
-0.0400918
-0.00494418
-0.036453
-0.00616216
-0.0322933
-0.00710419
-0.0277602
-0.00786664
-0.0229425
-0.00836356
-0.0179953
-0.0086553
-0.0129594
-0.00868851
-0.00765073
-0.00855757
-0.00222111
-0.00841888
0.00282501
-0.0081233
0.00758155
-0.00769886
0.0118481
-0.00720213
0.0156965
-0.00658872
0.0192451
-0.00593643
0.0224825
-0.00525586
0.0253808
-0.00457425
0.0279271
-0.00390302
0.0301005
-0.00321238
0.0318777
-0.00250671
0.0332636
-0.001813
0.0342664
-0.00122368
0.0347308
-0.000514124
0.0347601
0.000181672
0.0344072
0.000775196
0.033615
0.00136391
0.032369
0.00194903
0.0307121
0.00244434
0.0286897
0.00286581
0.0263577
0.00319493
0.0237909
0.0034196
0.0210782
0.003535
0.0183186
0.00353645
0.0156069
0.00343109
0.0130277
0.00322956
0.0106602
0.00292131
0.0085745
0.00251308
0.00679634
0.00206054
0.00529826
0.00165106
0.00402894
0.00132422
0.00291488
0.00112472
0.00182282
0.00110152
0.000562543
0.00125767
-0.000846039
0.00148631
-0.00219625
0.00169941
-0.00364857
0.00192217
-0.00514029
0.002077
-0.00663628
0.00217416
-0.00812333
0.00219793
-0.00951692
0.00211767
-0.0107759
0.00196217
-0.0118875
0.00176548
-0.0128415
0.00153182
-0.0136266
0.0012784
-0.0142498
0.0010584
-0.0148398
0.000937449
-0.0153622
0.000740632
-0.0157738
0.00051611
-0.016082
0.000323291
-0.016274
0.000152242
-0.0164034
3.73254e-05
-0.0165198
-1.84119e-05
-0.0166535
-2.54135e-05
-0.0168427
1.67227e-05
-0.0171308
0.000117562
-0.0175476
0.000264919
-0.0181208
0.00045393
-0.01887
0.000681884
-0.0198057
0.000958104
-0.0209158
0.00124816
-0.0222233
0.00157758
-0.0237287
0.00191207
-0.0254054
0.00222811
-0.0271909
0.0024821
-0.029028
0.00267415
-0.0308367
0.00276936
-0.0325241
0.00275127
-0.0339793
0.00259411
-0.0350938
0.00229444
-0.0357485
0.00182216
-0.0359552
0.00124841
-0.0358945
0.000776738
-0.0351818
-9.34782e-05
-0.0344082
-0.000566787
-0.0336053
-0.000893848
-0.0324055
-0.00159024
-0.0308802
-0.00220884
-0.0290698
-0.00274739
-0.0270323
-0.00322132
-0.0248062
-0.00360273
-0.0224324
-0.00390664
-0.0199683
-0.00411364
-0.0174394
-0.00423331
-0.0149467
-0.00425644
-0.0124815
-0.00420843
-0.010089
-0.00412205
-0.0077566
-0.0039268
-0.00522282
-0.00374364
-0.00265076
-0.00348837
-0.000538186
-0.00316612
0.00127918
-0.00282242
0.00284175
-0.0024679
0.00417535
-0.00210671
0.00526656
-0.00173074
0.00611951
-0.00136246
0.00671928
-0.000988795
0.00708778
-0.000648075
0.00719785
-0.000299679
0.00712862
-2.35368e-05
0.00682776
0.000272319
0.0063485
0.000509971
0.00570794
0.000718576
0.00493889
0.000877799
0.00407392
0.00100014
0.00313987
0.00108062
0.00216961
0.00113455
0.00115682
0.00117531
0.000106274
0.00122183
-0.00107486
0.00128214
-0.00228895
0.00131412
-0.00323038
0.00132382
-0.00418071
0.00137807
-0.00514977
0.00138912
-0.00605473
0.0013535
-0.00688097
0.00125328
-0.00759308
0.00110239
-0.00817921
0.000902978
-0.00862979
0.00067441
-0.00895315
0.000439267
-0.00915845
0.000206862
-0.0092544
-5.16028e-06
-0.00925647
-0.000180459
-0.00917997
-0.000333082
-0.00905181
-0.000445898
-0.00893216
-0.000453274
-0.00889449
-0.000364893
-0.00894184
-0.000263842
-0.00915362
-6.83368e-05
-0.0095232
0.000128617
-0.00996951
0.000303718
-0.0105474
0.000518117
-0.0112774
0.000782501
-0.0121574
0.00102404
-0.0131846
0.00127911
-0.0143498
0.0015065
-0.0156353
0.00172731
-0.0170151
0.00190354
-0.0184576
0.00204535
-0.0199436
0.00214935
-0.0214526
0.00222128
-0.0229558
0.00224685
-0.0244198
0.00222807
-0.0258089
0.00216462
-0.0270899
0.00206249
-0.028256
0.0019419
-0.0292882
0.00178976
-0.030164
0.00160615
-0.0308699
0.00140265
-0.0314032
0.0011857
-0.0318033
0.000993149
-0.0320427
0.000766173
-0.0320693
0.000509685
-0.0319073
0.000243176
-0.031591
-9.04307e-06
-0.0310775
-0.00028894
-0.0303982
-0.000562
-0.0295268
-0.000853204
-0.028517
-0.00112451
-0.0274207
-0.00134725
-0.0262522
-0.00156469
-0.0250162
-0.00176317
-0.0236979
-0.00196335
-0.0223724
-0.00210574
-0.0209661
-0.00225866
-0.019387
-0.0024845
-0.0177137
-0.0026392
-0.0159806
-0.00274597
-0.0142281
-0.00280717
-0.0124924
-0.00282246
-0.0107885
-0.00280144
-0.00914859
-0.00272576
-0.00770168
-0.00261588
-0.00578563
-0.00246431
-0.00415056
-0.00226776
-0.00289395
-0.00199502
-0.00188605
-0.00171001
-0.00110729
-0.00142451
-0.000539901
-0.0011399
-0.00016765
-0.000864575
4.0139e-06
-0.000595622
1.68982e-05
-0.000350906
-0.000111751
-0.000143879
-0.000374016
7.11376e-05
-0.000793511
0.000268203
-0.00141122
0.000485605
-0.00211147
0.000632703
-0.00273507
0.000792716
-0.00344851
0.000938218
-0.00420374
0.00103778
-0.00496393
0.0010832
-0.00569317
0.0010686
-0.00635236
0.000986823
-0.00692086
0.000858159
-0.00737372
0.000681757
-0.00771145
0.000487809
-0.00789638
0.000250733
-0.00802389
0.000112946
-0.00830448
0.000169605
-0.00851987
6.67306e-05
-0.008714
3.35155e-05
-0.00894156
7.86378e-05
-0.00923806
0.000175367
-0.00963255
0.00031822
-0.0101542
0.000495188
-0.0107862
0.000669844
-0.0114882
0.000826851
-0.0122872
0.00100366
-0.0131896
0.00118455
-0.01419
0.00135375
-0.0152785
0.00150734
-0.016441
0.00164022
-0.0176605
0.00174836
-0.0189214
0.00183461
-0.0201958
0.00188574
-0.0214538
0.00190425
-0.0226673
0.0018829
-0.02382
0.00183789
-0.0248828
0.00175107
-0.0258262
0.00162382
-0.02663
0.00146421
-0.027271
0.00126735
-0.0277346
0.00104534
-0.0280674
0.000848496
-0.0282283
0.000614466
-0.0281924
0.000364862
-0.0279606
8.986e-05
-0.0276053
-0.000136688
-0.0270682
-0.000395846
-0.0264025
-0.000619881
-0.025582
-0.000858653
-0.0246438
-0.00109245
-0.0236939
-0.00120931
-0.0226757
-0.0013849
-0.0217806
-0.00140271
-0.0209097
-0.00142061
-0.0198429
-0.00164516
-0.0186601
-0.00179501
-0.0173991
-0.00191171
-0.01609
-0.001999
-0.0147473
-0.00206903
-0.0133827
-0.00211844
-0.0120164
-0.0021465
-0.0106511
-0.00214922
-0.00932625
-0.00212437
-0.008031
-0.00206971
-0.0068233
-0.00199239
-0.00571549
-0.00187129
-0.00458723
-0.00178138
-0.00328473
-0.00162359
-0.00227284
-0.00144184
-0.00149007
-0.00122448
-0.000882721
-0.00101518
-0.000419236
-0.00081194
-9.5245e-05
-0.000618189
0.000104067
-0.000435105
0.000181348
-0.000265977
0.000156069
-0.000108772
3.41303e-05
2.97175e-05
-0.000180479
0.00016217
-0.000488179
0.000282696
-0.000876195
0.000386231
-0.00140001
0.000502151
-0.00203108
0.000562395
-0.0024954
0.000593381
-0.00298828
0.000640015
-0.00353972
0.000693251
-0.0041174
0.000736856
-0.00472587
0.000776793
-0.00534925
0.00080781
-0.00598324
0.000829378
-0.00661656
0.000840391
-0.00723845
0.000840274
-0.00783048
0.00082626
-0.00836246
0.000785836
-0.00878977
0.000701731
-0.00932783
0.000822795
-0.00998858
0.000895917
-0.0106514
0.000884511
-0.0113038
0.000862534
-0.0119191
0.000819958
-0.0125035
0.00078681
-0.0130582
0.000753
-0.0135806
0.000716671
-0.0140677
0.000675533
-0.014522
0.000634954
-0.0149442
0.000593844
-0.0153382
0.000556286
-0.0157071
0.000522222
-0.0160555
0.000494053
-0.0163885
0.000472472
-0.0167115
0.000458333
-0.0170294
0.000451537
-0.0173472
0.00045247
-0.0176697
0.000461214
-0.0180008
0.000476753
-0.018343
0.000498514
-0.0186987
0.000525579
-0.0190687
0.000555259
-0.0194507
0.000584441
-0.0198419
0.000611459
-0.0202361
0.000631969
-0.0206277
0.000645802
-0.0210092
0.000648636
-0.0213687
0.000636792
-0.0216955
0.000611192
-0.0219789
0.00056721
-0.0222054
0.000504649
-0.022392
0.000443977
-0.0224991
0.000348462
-0.0224956
0.000227246
-0.0223935
9.70613e-05
-0.0222252
-2.77527e-05
-0.0219312
-0.000197764
-0.021558
-0.000376142
-0.0213796
-0.000245047
-0.0211005
-0.000391009
-0.0206988
-0.000550701
-0.0202302
-0.000664797
-0.0197131
-0.000756375
-0.0191612
-0.000829645
-0.0185852
-0.000885212
-0.0179949
-0.000923758
-0.0173999
-0.000945423
-0.016809
-0.000950971
-0.0162306
-0.000941613
-0.0156718
-0.000918813
-0.015139
-0.00088429
-0.0146374
-0.00083986
-0.0141711
-0.000787403
-0.013743
-0.000728823
-0.0133552
-0.000665919
-0.0130087
-0.000600404
-0.0127037
-0.000533748
-0.0124396
-0.000467321
-0.0122154
-0.0004022
-0.0120293
-0.000339425
-0.0118792
-0.000279708
-0.0117628
-0.000223663
-0.0116772
-0.000171676
-0.01162
-0.00012381
-0.0115874
-8.04404e-05
-0.0115773
-4.17156e-05
-0.0115855
-9.13086e-06
-0.0116113
1.96562e-05
-0.0116506
4.37489e-05
-0.0117014
6.38635e-05
-0.0117614
8.00862e-05
-0.0118284
9.2764e-05
-0.0119005
0.000102226
-0.011976
0.000108771
-0.0120534
0.000112833
-0.0121314
0.000114658
-0.0122088
0.000114696
-0.0122849
0.000113159
-0.0123587
0.000110404
-0.0124297
0.000106613
-0.0124973
0.000102024
-0.0125612
9.67957e-05
-0.0126211
9.10711e-05
-0.0126766
8.49726e-05
-0.0127275
7.85567e-05
-0.0127736
7.1897e-05
-0.0128147
6.49958e-05
-0.0128504
5.78995e-05
-0.0128806
5.05412e-05
-0.0129047
4.28962e-05
-0.0129222
3.43658e-05
-0.0129323
2.57016e-05
-0.0129337
1.66625e-05
-0.0129252
6.80929e-06
-0.012905
-1.60172e-06
-0.0128699
-9.78672e-06
-0.0128156
-1.7982e-05
-0.0127303
-4.09627e-05
-0.012604
-8.40539e-05
-0.0124054
-0.00020939
-0.0121266
-0.000363794
-0.0117026
-0.000667492
-0.0111786
-0.000864286
-0.0104622
-0.00119655
-0.00112521
-2.72332e-05
-0.000293049
0.000163172
-0.000772401
0.000542513
-0.00121009
0.00103701
-0.0015024
0.00158619
-0.00165385
0.00212621
-0.00164379
0.0026233
-0.00154923
0.00304689
-0.001367
0.00339143
-0.00116171
0.00365691
-0.000940505
0.00385276
-0.000737525
0.00397867
-0.000549018
0.00403213
-0.000384721
0.00402382
-0.00025363
0.00396662
-0.000172575
0.00387919
-0.000137244
0.00377529
-0.000161551
0.00369884
-0.000260153
0.00367036
-0.000425523
0.0037411
-0.000670093
0.00393426
-0.000993233
0.00421182
-0.00132055
0.00463977
-0.00172649
0.00525726
-0.00217357
0.00603149
-0.00259595
0.00691905
-0.00293152
0.00776715
-0.00300603
0.00845306
-0.00279843
0.00884783
-0.00223196
0.0089787
-0.00147053
0.00885571
-0.000535672
0.00833085
0.000496113
0.00690256
0.00156935
0.00464322
0.00265278
0.00151663
0.00388534
-0.00270342
0.00545177
-0.00807393
0.00744643
-0.0148806
0.00999636
-0.0229981
0.0127279
-0.0320028
0.0152778
-0.0414191
0.0174054
-0.0506695
0.0187795
-0.0591706
0.0193153
-0.0665454
0.0189618
-0.072533
0.0177798
-0.0771338
0.0160704
-0.080372
0.0140048
-0.082399
0.0116312
-0.0836787
0.00945816
-0.0843931
0.00732187
-0.0847527
0.00554901
-0.0846349
0.00365843
-0.0839558
0.00170814
-0.0827804
-5.30173e-05
-0.0811902
-0.00179499
-0.0792231
-0.00329684
-0.0769066
-0.00472322
-0.0741107
-0.00608697
-0.0708802
-0.00743577
-0.0672264
-0.00871769
-0.0631222
-0.00995433
-0.0586757
-0.0110838
-0.0539924
-0.0120412
-0.0491307
-0.0128338
-0.0441441
-0.0134336
-0.0390714
-0.0138448
-0.033958
-0.0140727
-0.0288473
-0.0141295
-0.0237779
-0.0140325
-0.0187804
-0.013802
-0.0138817
-0.0134537
-0.00908338
-0.0130023
-0.00443647
-0.0124566
-3.75795e-05
-0.0117788
0.00412269
-0.0111078
0.00813349
-0.0104655
0.0120055
-0.0097477
0.015656
-0.0088846
0.0190058
-0.00784366
0.0219697
-0.00665089
0.024497
-0.00528822
0.0265593
-0.00385307
0.0281662
-0.00250235
0.028945
-0.00115031
0.0289895
-0.000206846
0.0284491
0.000476111
0.0274786
0.000760982
0.0260775
0.000933771
0.0242777
0.00120493
0.0221589
0.00178427
0.0194985
0.00299606
0.0156753
0.00504741
0.0101756
0.00769723
0.00337621
0.0106043
-0.00436331
0.0134014
-0.0125335
0.0158357
-0.0205325
0.0172789
-0.0277199
0.0176198
-0.0337069
0.0170255
-0.0384117
0.0157053
-0.042033
0.0139602
-0.0447644
0.0119119
-0.046627
0.00962691
-0.0479174
0.00739181
-0.048628
0.00513068
-0.0487593
0.0026348
-0.0481708
7.77945e-05
-0.0464189
-0.0025203
-0.0436503
-0.00479075
-0.0404265
-0.00689028
-0.03671
-0.00876444
-0.032503
-0.0104712
-0.0278146
-0.0118929
-0.0227774
-0.0130022
-0.0174767
-0.0137611
-0.0120544
-0.0141728
-0.00654126
-0.0142949
-0.00112825
-0.0140622
0.00401351
-0.0136503
0.00893926
-0.0131361
0.0136592
-0.012504
0.0181408
-0.0117668
0.0224136
-0.0109433
0.0264387
-0.0100421
0.030169
-0.00906663
0.0335902
-0.00807582
0.0367029
-0.00709593
0.0395054
-0.00609555
0.0420013
-0.00508361
0.0442107
-0.004104
0.0460495
-0.00314568
0.0475367
-0.00208675
0.0486864
-0.00105373
0.0494025
-2.79188e-05
0.049627
0.00105068
0.0493728
0.00211247
0.0485936
0.00313127
0.0472541
0.00411199
0.0453406
0.00501461
0.0428758
0.00579077
0.0399068
0.00641114
0.0365113
0.0068405
0.0328014
0.00705147
0.0289174
0.00702637
0.0250107
0.00674327
0.0212241
0.00621661
0.0176716
0.0055319
0.0144529
0.00479031
0.0116341
0.00406605
0.00918071
0.00350267
0.00697494
0.00323273
0.00490342
0.00325496
0.00286496
0.00345053
0.000773573
0.00371671
-0.00131088
0.00393269
-0.00334904
0.00404164
-0.00526483
0.00401689
-0.0070092
0.00386988
-0.00858774
0.00362435
-0.0100055
0.00330873
-0.0112625
0.00295165
-0.0123697
0.00256936
-0.013359
0.00219697
-0.0142239
0.00184792
-0.0148947
0.00153314
-0.0154299
0.00121081
-0.0159039
0.000925396
-0.016342
0.000695996
-0.0167662
0.000511841
-0.0171906
0.000397783
-0.0176389
0.000366923
-0.0181345
0.000408338
-0.0186989
0.000520339
-0.0193565
0.000715525
-0.0201332
0.000983152
-0.021054
0.00131739
-0.0221278
0.00169947
-0.0233544
0.00212957
-0.0247541
0.00259368
-0.0262452
0.00301522
-0.0277586
0.00337276
-0.0292647
0.00368203
-0.030731
0.00389674
-0.0321082
0.0040001
-0.0333409
0.00395121
-0.0343921
0.00375193
-0.0352186
0.00337041
-0.0357924
0.00281832
-0.0361225
0.00210261
-0.0361772
0.00125368
-0.0357634
0.000313457
-0.0351197
-0.000793162
-0.0338735
-0.00186394
-0.0319928
-0.0028249
-0.0299578
-0.00367375
-0.0277198
-0.00449502
-0.0253063
-0.00520894
-0.0227304
-0.00584462
-0.0200226
-0.00635756
-0.0172165
-0.00675903
-0.0143452
-0.00703063
-0.0114482
-0.00717536
-0.0085506
-0.00719836
-0.0056951
-0.0071076
-0.00297006
-0.00689023
-0.000346368
-0.00659234
0.00203833
-0.00617005
0.00424914
-0.00574011
0.00633772
-0.00529503
0.00830724
-0.00483138
0.0101297
-0.00432905
0.0117767
-0.00379179
0.0132349
-0.00322635
0.0144839
-0.00264849
0.0155157
-0.00205707
0.016298
-0.0014665
0.016826
-0.000863646
0.0170196
-0.000253154
0.0169294
0.000326351
0.0165412
0.000861996
0.0158521
0.00137135
0.0148769
0.00181633
0.0136525
0.00218758
0.0122176
0.00247834
0.0106214
0.00269357
0.00891309
0.00284642
0.00715752
0.00294063
0.00541634
0.00298728
0.0036977
0.00299738
0.00195608
0.00303095
0.000288124
0.0030123
-0.00128977
0.00293386
-0.00275068
0.00278165
-0.00407335
0.0025433
-0.00522972
0.00222596
-0.00621165
0.00185187
-0.00701544
0.00144487
-0.00763538
0.00102555
-0.00810278
0.000640361
-0.00845313
0.000311385
-0.00869951
3.21751e-05
-0.00891018
-0.000155952
-0.00914951
-0.00023986
-0.00941326
-0.00022245
-0.00972789
-8.29024e-05
-0.0101265
0.000102446
-0.0106096
0.000382772
-0.0112322
0.000719529
-0.012183
0.00122334
-0.0133516
0.00165569
-0.0146577
0.00205812
-0.0160949
0.00243106
-0.01763
0.00278451
-0.0192308
0.00307802
-0.0208454
0.00331305
-0.0224539
0.00348351
-0.0240303
0.00359372
-0.0255353
0.00362683
-0.0269379
0.00359681
-0.0282199
0.00350221
-0.0293687
0.00335046
-0.03039
0.00315985
-0.0313075
0.00295412
-0.0320939
0.00270295
-0.0327367
0.00240752