/*--------------------------------*- C++ -*----------------------------------*\
| =========                 |                                                 |
| \\      /  F ield         | OpenFOAM: The Open Source CFD Toolbox           |
|  \\    /   O peration     | Version:  v1812                                 |
|   \\  /    A nd           | Web:      www.OpenFOAM.com                      |
|    \\/     M anipulation  |                                                 |
\*---------------------------------------------------------------------------*/
FoamFile
{
    version     2.0;
    format      ascii;
    class       volScalarField;
    location    "1.2";
    object      T;
}
// * * * * * * * * * * * * * * * * * * * * * * * * * * * * * * * * * * * * * //

dimensions      [0 0 0 1 0 0 0];


internalField   nonuniform List<scalar> 
20400
(
289.43
289.433
289.437
289.442
289.447
289.451
289.454
289.456
289.456
289.454
289.451
289.448
289.443
289.438
289.432
289.427
289.423
289.42
289.417
289.415
289.414
289.414
289.415
289.417
289.421
289.427
289.435
289.447
289.463
289.482
289.506
289.533
289.563
289.594
289.623
289.648
289.663
289.668
289.665
289.654
289.638
289.62
289.602
289.587
289.574
289.565
289.559
289.558
289.559
289.566
289.576
289.589
289.605
289.624
289.644
289.667
289.691
289.719
289.753
289.797
289.847
289.905
289.972
290.047
290.131
290.223
290.324
290.433
290.551
290.678
290.814
290.96
291.117
291.284
291.455
291.637
291.834
292.044
292.261
292.477
292.683
292.866
293.011
293.102
293.133
293.109
293.018
292.865
292.667
292.44
292.212
292.016
291.872
291.784
291.742
291.728
291.729
291.733
291.74
291.743
291.742
291.737
291.727
291.716
291.701
291.689
291.679
291.672
291.667
291.668
291.667
291.668
291.668
291.667
291.666
291.665
291.662
291.662
291.659
291.66
291.664
291.67
291.684
291.704
291.735
291.774
291.819
291.87
291.923
291.976
292.027
292.072
292.112
292.146
292.174
292.193
292.201
292.199
292.187
292.165
292.135
292.099
292.059
292.018
291.975
291.934
291.898
291.868
291.843
291.824
291.811
291.802
291.798
291.795
291.794
291.793
291.793
291.792
291.79
291.786
291.781
291.774
291.765
291.753
291.739
291.724
291.705
291.683
291.661
291.639
291.617
291.598
291.581
291.566
291.555
291.546
291.542
291.541
291.544
291.55
291.56
291.572
291.586
291.601
291.617
291.632
291.647
291.661
291.672
291.682
291.691
291.697
291.703
291.709
291.714
291.717
291.718
291.718
291.715
291.711
291.706
291.699
291.691
291.682
291.673
291.662
291.655
291.646
291.642
291.64
291.642
291.649
291.662
291.683
291.711
291.748
291.795
291.852
291.917
291.992
292.075
292.166
292.263
292.366
292.471
292.578
292.683
292.786
292.884
292.976
293.06
293.134
293.195
293.242
293.272
293.285
293.286
293.268
293.237
293.194
293.14
293.079
293.015
292.948
292.883
292.819
292.757
292.697
292.639
292.583
292.529
292.479
292.43
292.385
292.343
292.304
292.269
292.237
292.209
292.184
292.162
292.142
292.126
292.112
292.101
292.092
292.086
292.082
292.08
292.079
292.081
292.085
292.091
292.098
292.107
292.118
292.131
292.145
292.162
292.18
292.201
292.223
292.246
292.271
292.296
292.321
292.347
292.371
292.395
292.416
292.437
292.451
292.463
292.47
292.475
292.477
292.477
292.474
292.471
292.467
292.464
292.462
292.462
292.463
292.466
292.471
292.477
292.484
292.492
292.5
292.508
292.516
292.523
292.528
292.532
292.533
292.532
292.529
292.524
292.517
292.508
292.497
292.486
292.474
292.461
292.448
292.434
292.421
292.408
292.395
292.383
292.372
292.362
292.353
292.344
292.337
292.332
292.327
292.324
292.323
292.322
292.324
292.326
292.33
292.336
292.343
292.352
292.362
292.373
292.387
292.402
292.418
292.437
292.458
292.48
292.504
292.529
292.556
292.584
292.614
292.646
292.679
292.713
292.748
292.785
292.82
292.86
292.893
292.928
292.961
292.993
293.023
293.05
293.075
293.097
293.117
293.133
293.147
293.159
293.168
293.174
293.179
293.182
293.183
293.183
293.181
293.179
293.176
293.172
293.168
293.164
293.16
293.156
293.153
293.151
293.149
293.148
293.147
293.148
293.149
293.151
293.154
293.157
293.161
293.166
293.172
293.178
293.184
293.191
293.198
293.206
293.214
293.222
293.23
293.239
293.247
293.256
293.264
293.273
293.282
293.291
293.3
293.309
293.319
293.328
293.338
293.348
293.359
293.369
293.38
293.391
293.402
293.414
293.427
293.439
293.452
293.464
293.477
293.489
293.502
293.514
293.526
293.539
293.551
293.562
293.573
293.584
293.595
293.604
293.614
293.622
293.631
293.639
293.646
293.653
293.66
293.666
293.672
293.678
293.683
293.689
293.694
293.698
293.703
293.708
293.712
293.717
293.721
293.725
293.729
293.733
293.737
293.741
293.745
293.749
293.753
293.757
293.76
293.764
293.768
293.771
293.775
293.778
293.781
293.784
293.786
293.787
293.786
293.783
293.775
293.758
293.728
293.684
293.628
293.566
293.511
293.469
293.444
293.434
293.432
289.439
289.443
289.449
289.457
289.464
289.47
289.474
289.475
289.474
289.472
289.468
289.463
289.457
289.451
289.444
289.437
289.431
289.426
289.421
289.418
289.415
289.413
289.413
289.413
289.416
289.421
289.429
289.441
289.457
289.476
289.499
289.526
289.556
289.587
289.616
289.638
289.648
289.645
289.629
289.602
289.569
289.531
289.487
289.437
289.383
289.326
289.266
289.207
289.149
289.098
289.052
289.015
288.984
288.964
288.952
288.948
288.964
288.987
289.016
289.05
289.09
289.136
289.188
289.246
289.31
289.382
289.461
289.551
289.652
289.767
289.896
290.04
290.2
290.374
290.559
290.754
290.963
291.181
291.403
291.627
291.855
292.087
292.321
292.547
292.749
292.897
292.957
292.94
292.844
292.64
292.353
292.068
291.873
291.786
291.76
291.769
291.789
291.812
291.829
291.843
291.853
291.86
291.864
291.87
291.877
291.891
291.909
291.927
291.941
291.952
291.958
291.961
291.957
291.948
291.931
291.906
291.874
291.832
291.792
291.743
291.692
291.642
291.594
291.548
291.506
291.469
291.447
291.44
291.442
291.455
291.483
291.526
291.585
291.651
291.72
291.791
291.859
291.922
291.976
292.018
292.046
292.059
292.06
292.054
292.035
292.003
291.967
291.932
291.896
291.864
291.839
291.823
291.812
291.806
291.803
291.8
291.798
291.795
291.791
291.786
291.78
291.773
291.763
291.751
291.736
291.72
291.703
291.683
291.66
291.637
291.615
291.595
291.579
291.566
291.559
291.556
291.556
291.563
291.574
291.588
291.605
291.623
291.643
291.664
291.685
291.705
291.724
291.744
291.763
291.782
291.802
291.821
291.843
291.858
291.873
291.885
291.895
291.903
291.907
291.909
291.909
291.904
291.895
291.883
291.867
291.851
291.83
291.812
291.792
291.771
291.751
291.733
291.719
291.709
291.706
291.711
291.725
291.752
291.791
291.843
291.906
291.983
292.072
292.17
292.276
292.386
292.498
292.608
292.715
292.818
292.911
292.996
293.071
293.134
293.185
293.221
293.241
293.245
293.23
293.194
293.141
293.073
292.995
292.912
292.828
292.747
292.671
292.598
292.53
292.465
292.405
292.347
292.294
292.243
292.195
292.151
292.11
292.072
292.036
292.003
291.972
291.943
291.917
291.894
291.872
291.853
291.836
291.822
291.81
291.799
291.791
291.786
291.783
291.781
291.784
291.789
291.798
291.81
291.825
291.842
291.862
291.885
291.909
291.938
291.972
292.009
292.049
292.093
292.138
292.187
292.233
292.284
292.33
292.373
292.41
292.441
292.464
292.479
292.488
292.491
292.491
292.489
292.486
292.482
292.48
292.479
292.479
292.482
292.486
292.491
292.497
292.505
292.512
292.519
292.524
292.526
292.527
292.525
292.519
292.51
292.499
292.485
292.47
292.454
292.437
292.419
292.401
292.383
292.365
292.348
292.331
292.314
292.298
292.283
292.269
292.255
292.243
292.232
292.222
292.214
292.207
292.201
292.197
292.194
292.193
292.193
292.195
292.2
292.206
292.215
292.224
292.236
292.249
292.26
292.273
292.289
292.307
292.327
292.349
292.373
292.399
292.427
292.458
292.491
292.526
292.564
292.603
292.647
292.692
292.738
292.784
292.83
292.874
292.916
292.956
292.992
293.025
293.054
293.08
293.102
293.121
293.135
293.146
293.154
293.158
293.16
293.16
293.158
293.155
293.15
293.144
293.137
293.13
293.123
293.114
293.109
293.104
293.099
293.096
293.093
293.091
293.09
293.091
293.092
293.094
293.096
293.1
293.104
293.108
293.114
293.12
293.126
293.132
293.138
293.145
293.151
293.158
293.164
293.17
293.177
293.184
293.19
293.197
293.204
293.211
293.219
293.227
293.235
293.245
293.255
293.266
293.277
293.291
293.303
293.315
293.328
293.343
293.357
293.373
293.388
293.404
293.42
293.436
293.452
293.467
293.482
293.496
293.51
293.523
293.536
293.548
293.559
293.569
293.579
293.589
293.598
293.606
293.614
293.621
293.628
293.635
293.641
293.647
293.653
293.659
293.664
293.669
293.674
293.679
293.684
293.689
293.693
293.698
293.702
293.706
293.711
293.715
293.719
293.723
293.727
293.731
293.734
293.738
293.742
293.744
293.746
293.747
293.747
293.743
293.735
293.717
293.689
293.648
293.598
293.544
293.494
293.451
293.42
293.402
293.398
289.458
289.465
289.476
289.488
289.498
289.506
289.51
289.511
289.509
289.505
289.499
289.491
289.482
289.473
289.463
289.454
289.445
289.437
289.429
289.423
289.418
289.414
289.411
289.411
289.413
289.418
289.429
289.445
289.465
289.488
289.512
289.539
289.566
289.593
289.613
289.62
289.608
289.575
289.524
289.459
289.381
289.291
289.194
289.093
288.993
288.902
288.815
288.743
288.684
288.643
288.616
288.601
288.596
288.603
288.62
288.643
288.669
288.699
288.732
288.766
288.802
288.838
288.874
288.909
288.942
288.974
289.006
289.036
289.066
289.098
289.144
289.208
289.294
289.412
289.567
289.758
289.987
290.246
290.521
290.797
291.062
291.313
291.556
291.804
292.075
292.361
292.622
292.774
292.776
292.674
292.411
292.08
291.861
291.798
291.812
291.856
291.908
291.962
292.013
292.062
292.111
292.156
292.195
292.226
292.249
292.265
292.271
292.271
292.276
292.279
292.283
292.284
292.283
292.276
292.262
292.239
292.203
292.156
292.094
292.018
291.929
291.83
291.724
291.614
291.506
291.405
291.313
291.23
291.157
291.094
291.047
291.024
291.024
291.035
291.068
291.126
291.208
291.308
291.42
291.538
291.655
291.762
291.854
291.924
291.969
291.994
292.006
292.003
291.982
291.944
291.905
291.872
291.85
291.838
291.832
291.83
291.828
291.825
291.82
291.814
291.806
291.797
291.788
291.78
291.771
291.757
291.74
291.72
291.696
291.671
291.645
291.622
291.604
291.593
291.588
291.587
291.597
291.613
291.633
291.657
291.685
291.714
291.746
291.778
291.811
291.844
291.878
291.911
291.944
291.975
292.005
292.032
292.049
292.071
292.09
292.105
292.118
292.128
292.135
292.139
292.141
292.14
292.135
292.126
292.113
292.097
292.076
292.053
292.026
291.996
291.963
291.929
291.894
291.858
291.823
291.79
291.761
291.741
291.735
291.738
291.751
291.782
291.832
291.898
291.982
292.079
292.186
292.296
292.406
292.513
292.612
292.705
292.793
292.877
292.957
293.032
293.099
293.152
293.183
293.19
293.165
293.106
293.019
292.912
292.796
292.683
292.576
292.479
292.391
292.31
292.234
292.163
292.097
292.034
291.975
291.919
291.867
291.817
291.77
291.726
291.685
291.646
291.61
291.577
291.546
291.518
291.493
291.471
291.451
291.434
291.419
291.408
291.399
291.394
291.391
291.39
291.392
291.397
291.405
291.416
291.429
291.446
291.467
291.49
291.517
291.548
291.584
291.626
291.674
291.728
291.791
291.86
291.936
292.019
292.107
292.195
292.279
292.354
292.416
292.461
292.491
292.509
292.518
292.519
292.516
292.51
292.503
292.497
292.492
292.489
292.487
292.49
292.494
292.501
292.509
292.517
292.522
292.523
292.521
292.512
292.498
292.481
292.46
292.437
292.414
292.39
292.366
292.341
292.318
292.294
292.272
292.25
292.229
292.209
292.19
292.172
292.155
292.14
292.126
292.114
292.104
292.095
292.088
292.082
292.079
292.077
292.077
292.078
292.08
292.083
292.088
292.094
292.101
292.111
292.121
292.132
292.143
292.154
292.165
292.177
292.19
292.203
292.215
292.229
292.245
292.263
292.285
292.31
292.341
292.378
292.421
292.47
292.525
292.583
292.643
292.703
292.762
292.819
292.873
292.924
292.969
293.009
293.042
293.07
293.091
293.107
293.117
293.123
293.125
293.123
293.119
293.111
293.102
293.092
293.081
293.067
293.054
293.041
293.029
293.017
293.007
292.998
292.99
292.983
292.978
292.975
292.972
292.971
292.97
292.971
292.972
292.974
292.976
292.978
292.981
292.984
292.987
292.989
292.991
292.994
292.996
292.998
293
293.003
293.005
293.009
293.012
293.017
293.022
293.029
293.037
293.046
293.056
293.071
293.086
293.102
293.119
293.138
293.157
293.177
293.197
293.219
293.24
293.261
293.282
293.303
293.324
293.344
293.363
293.381
293.399
293.415
293.431
293.446
293.46
293.473
293.486
293.497
293.508
293.518
293.528
293.537
293.546
293.554
293.562
293.57
293.577
293.584
293.59
293.597
293.603
293.609
293.615
293.621
293.626
293.632
293.637
293.642
293.648
293.653
293.658
293.662
293.667
293.671
293.676
293.679
293.682
293.683
293.684
293.681
293.673
293.659
293.636
293.605
293.568
293.526
293.481
293.432
293.385
293.361
289.487
289.498
289.515
289.531
289.545
289.553
289.556
289.554
289.548
289.54
289.53
289.519
289.507
289.494
289.481
289.469
289.457
289.446
289.436
289.427
289.42
289.414
289.41
289.41
289.413
289.423
289.441
289.465
289.49
289.515
289.538
289.559
289.578
289.589
289.587
289.56
289.506
289.427
289.328
289.216
289.097
288.979
288.873
288.781
288.711
288.663
288.634
288.619
288.608
288.617
288.63
288.658
288.695
288.744
288.792
288.843
288.895
288.948
289
289.049
289.092
289.125
289.148
289.159
289.161
289.147
289.123
289.093
289.061
289.032
289.009
288.996
288.998
289.015
289.049
289.13
289.273
289.49
289.777
290.114
290.469
290.808
291.112
291.391
291.667
291.973
292.301
292.563
292.654
292.598
292.367
292.037
291.848
291.832
291.895
291.987
292.086
292.186
292.278
292.354
292.409
292.436
292.446
292.433
292.411
292.388
292.363
292.343
292.33
292.325
292.327
292.334
292.339
292.341
292.334
292.319
292.294
292.254
292.199
292.126
292.035
291.927
291.807
291.678
291.547
291.414
291.281
291.152
291.031
290.921
290.826
290.744
290.677
290.63
290.613
290.619
290.644
290.694
290.776
290.889
291.026
291.183
291.349
291.512
291.66
291.787
291.882
291.946
291.978
291.988
291.978
291.948
291.914
291.89
291.879
291.878
291.882
291.888
291.891
291.89
291.885
291.875
291.862
291.845
291.827
291.807
291.788
291.768
291.745
291.72
291.693
291.667
291.646
291.633
291.628
291.631
291.648
291.672
291.704
291.74
291.779
291.821
291.864
291.907
291.949
291.989
292.027
292.062
292.093
292.12
292.143
292.163
292.178
292.19
292.2
292.21
292.218
292.226
292.232
292.238
292.241
292.243
292.243
292.24
292.233
292.223
292.21
292.194
292.174
292.151
292.124
292.094
292.061
292.024
291.986
291.945
291.903
291.86
291.818
291.78
291.75
291.732
291.729
291.736
291.761
291.807
291.876
291.961
292.055
292.154
292.249
292.337
292.42
292.502
292.586
292.677
292.777
292.884
292.987
293.074
293.124
293.132
293.08
292.978
292.84
292.688
292.537
292.399
292.278
292.172
292.077
291.989
291.908
291.832
291.762
291.696
291.634
291.576
291.523
291.473
291.427
291.386
291.348
291.314
291.285
291.26
291.238
291.22
291.206
291.195
291.187
291.183
291.181
291.18
291.182
291.186
291.191
291.197
291.205
291.213
291.222
291.231
291.242
291.255
291.268
291.284
291.302
291.323
291.348
291.377
291.413
291.456
291.507
291.57
291.645
291.735
291.839
291.956
292.081
292.203
292.309
292.394
292.457
292.501
292.528
292.541
292.542
292.537
292.528
292.517
292.507
292.498
292.491
292.488
292.49
292.497
292.506
292.515
292.519
292.519
292.51
292.494
292.472
292.448
292.421
292.395
292.368
292.342
292.316
292.291
292.268
292.245
292.225
292.206
292.189
292.173
292.16
292.148
292.138
292.13
292.124
292.12
292.119
292.119
292.119
292.121
292.124
292.127
292.131
292.136
292.141
292.147
292.153
292.159
292.166
292.174
292.181
292.189
292.196
292.202
292.206
292.209
292.21
292.208
292.205
292.201
292.196
292.192
292.189
292.19
292.194
292.204
292.219
292.242
292.278
292.327
292.385
292.45
292.52
292.594
292.668
292.739
292.807
292.868
292.923
292.969
293.006
293.035
293.056
293.069
293.076
293.077
293.073
293.064
293.052
293.036
293.018
292.997
292.976
292.954
292.933
292.912
292.892
292.874
292.858
292.845
292.833
292.823
292.815
292.808
292.803
292.799
292.797
292.794
292.792
292.791
292.789
292.787
292.785
292.782
292.779
292.776
292.773
292.77
292.767
292.765
292.764
292.764
292.766
292.769
292.774
292.781
292.79
292.8
292.812
292.828
292.845
292.865
292.886
292.908
292.932
292.957
292.983
293.008
293.034
293.06
293.085
293.11
293.134
293.158
293.181
293.203
293.224
293.245
293.264
293.283
293.3
293.317
293.332
293.347
293.361
293.374
293.387
293.399
293.41
293.421
293.432
293.442
293.452
293.461
293.47
293.479
293.488
293.496
293.504
293.512
293.52
293.527
293.535
293.542
293.549
293.556
293.562
293.569
293.575
293.581
293.587
293.592
293.596
293.599
293.6
293.599
293.594
293.585
293.571
293.551
293.523
293.48
293.413
293.346
289.526
289.54
289.561
289.579
289.592
289.595
289.592
289.584
289.573
289.559
289.545
289.531
289.516
289.501
289.487
289.473
289.46
289.448
289.437
289.427
289.418
289.411
289.409
289.411
289.42
289.439
289.467
289.495
289.521
289.54
289.554
289.562
289.564
289.549
289.508
289.435
289.334
289.215
289.089
288.97
288.871
288.797
288.752
288.727
288.715
288.708
288.729
288.769
288.821
288.887
288.953
289.019
289.078
289.134
289.193
289.255
289.323
289.398
289.478
289.561
289.643
289.718
289.779
289.821
289.84
289.837
289.807
289.751
289.67
289.563
289.435
289.294
289.153
289.039
288.975
288.958
288.982
289.06
289.233
289.527
289.927
290.381
290.823
291.21
291.546
291.866
292.191
292.454
292.558
292.509
292.286
291.979
291.845
291.886
292.007
292.154
292.302
292.432
292.525
292.568
292.572
292.51
292.44
292.367
292.276
292.185
292.108
292.056
292.033
292.033
292.058
292.098
292.144
292.185
292.213
292.226
292.224
292.21
292.175
292.114
292.024
291.909
291.77
291.614
291.448
291.278
291.112
290.955
290.811
290.681
290.567
290.471
290.39
290.324
290.274
290.248
290.249
290.261
290.293
290.351
290.441
290.564
290.721
290.905
291.107
291.314
291.51
291.683
291.82
291.912
291.96
291.976
291.971
291.955
291.943
291.943
291.954
291.977
292.002
292.023
292.035
292.037
292.026
292.004
291.973
291.936
291.896
291.858
291.823
291.789
291.757
291.726
291.699
291.681
291.673
291.673
291.691
291.72
291.758
291.803
291.85
291.899
291.947
291.994
292.036
292.075
292.108
292.135
292.156
292.172
292.183
292.192
292.2
292.206
292.212
292.219
292.225
292.232
292.239
292.245
292.252
292.259
292.264
292.267
292.267
292.264
292.259
292.249
292.237
292.22
292.2
292.175
292.147
292.116
292.083
292.047
292.009
291.97
291.929
291.884
291.838
291.794
291.756
291.726
291.704
291.698
291.706
291.731
291.778
291.841
291.914
291.987
292.056
292.121
292.186
292.259
292.347
292.458
292.593
292.745
292.894
293.012
293.065
293.043
292.936
292.775
292.588
292.405
292.235
292.089
291.964
291.855
291.757
291.671
291.593
291.521
291.457
291.4
291.35
291.305
291.267
291.233
291.205
291.182
291.163
291.148
291.137
291.13
291.126
291.124
291.124
291.127
291.132
291.137
291.144
291.151
291.159
291.166
291.174
291.182
291.19
291.198
291.205
291.213
291.22
291.228
291.237
291.246
291.257
291.269
291.281
291.297
291.317
291.342
291.376
291.419
291.476
291.55
291.645
291.763
291.902
292.049
292.191
292.315
292.411
292.478
292.521
292.55
292.563
292.564
292.559
292.547
292.53
292.515
292.502
292.494
292.492
292.498
292.508
292.515
292.518
292.513
292.498
292.476
292.449
292.422
292.394
292.367
292.343
292.32
292.3
292.284
292.27
292.259
292.252
292.249
292.248
292.25
292.255
292.261
292.269
292.277
292.284
292.291
292.297
292.302
292.307
292.312
292.318
292.323
292.33
292.338
292.347
292.357
292.368
292.381
292.395
292.411
292.428
292.444
292.459
292.471
292.478
292.478
292.471
292.455
292.431
292.4
292.363
292.321
292.278
292.236
292.199
292.17
292.15
292.142
292.144
292.158
292.189
292.237
292.299
292.369
292.446
292.529
292.612
292.692
292.766
292.832
292.888
292.933
292.968
292.994
293.011
293.019
293.02
293.015
293.004
292.987
292.966
292.94
292.911
292.881
292.849
292.818
292.787
292.758
292.731
292.708
292.688
292.671
292.657
292.645
292.636
292.628
292.622
292.616
292.61
292.605
292.599
292.593
292.586
292.579
292.571
292.564
292.556
292.548
292.541
292.535
292.531
292.528
292.526
292.527
292.531
292.538
292.548
292.56
292.576
292.595
292.617
292.642
292.668
292.696
292.725
292.754
292.784
292.813
292.841
292.868
292.894
292.919
292.943
292.966
292.988
293.01
293.03
293.051
293.07
293.089
293.106
293.123
293.14
293.155
293.171
293.185
293.2
293.214
293.227
293.241
293.254
293.267
293.279
293.291
293.303
293.315
293.326
293.338
293.349
293.36
293.37
293.381
293.391
293.401
293.411
293.421
293.43
293.44
293.449
293.457
293.465
293.473
293.48
293.486
293.491
293.494
293.494
293.493
293.488
293.476
293.436
293.351
289.569
289.586
289.606
289.621
289.625
289.618
289.606
289.59
289.572
289.553
289.535
289.518
289.502
289.487
289.473
289.461
289.448
289.437
289.427
289.418
289.411
289.407
289.409
289.417
289.437
289.466
289.497
289.521
289.537
289.542
289.543
289.534
289.507
289.454
289.37
289.26
289.136
289.016
288.919
288.85
288.814
288.796
288.788
288.81
288.858
288.931
289.017
289.102
289.18
289.245
289.298
289.34
289.38
289.419
289.465
289.52
289.589
289.673
289.774
289.892
290.022
290.155
290.28
290.384
290.456
290.49
290.492
290.456
290.391
290.294
290.162
289.996
289.797
289.572
289.337
289.122
288.984
288.954
288.993
289.131
289.43
289.897
290.469
291.036
291.518
291.909
292.228
292.443
292.499
292.433
292.199
291.928
291.854
291.958
292.139
292.335
292.507
292.623
292.669
292.642
292.556
292.434
292.278
292.097
291.925
291.782
291.682
291.621
291.597
291.619
291.676
291.758
291.853
291.946
292.02
292.061
292.07
292.063
292.036
291.977
291.881
291.748
291.583
291.395
291.195
290.994
290.8
290.621
290.461
290.322
290.205
290.11
290.034
289.974
289.931
289.909
289.909
289.916
289.934
289.966
290.017
290.091
290.194
290.332
290.507
290.715
290.948
291.192
291.429
291.638
291.8
291.902
291.953
291.978
291.991
292
292.02
292.059
292.113
292.169
292.218
292.254
292.27
292.265
292.236
292.187
292.122
292.049
291.977
291.912
291.857
291.81
291.771
291.741
291.722
291.715
291.723
291.746
291.781
291.824
291.87
291.918
291.965
292.009
292.049
292.083
292.111
292.132
292.146
292.153
292.157
292.158
292.158
292.159
292.161
292.166
292.174
292.185
292.199
292.214
292.23
292.245
292.259
292.271
292.279
292.283
292.284
292.281
292.273
292.261
292.244
292.223
292.197
292.167
292.133
292.097
292.059
292.02
291.981
291.943
291.904
291.863
291.82
291.776
291.736
291.703
291.675
291.655
291.655
291.664
291.69
291.728
291.773
291.819
291.863
291.909
291.963
292.035
292.138
292.279
292.461
292.667
292.855
292.968
292.981
292.898
292.723
292.504
292.29
292.102
291.935
291.795
291.68
291.583
291.501
291.431
291.37
291.319
291.277
291.242
291.214
291.192
291.175
291.163
291.154
291.149
291.147
291.149
291.155
291.164
291.174
291.186
291.199
291.213
291.228
291.242
291.256
291.268
291.28
291.289
291.296
291.3
291.302
291.301
291.298
291.294
291.288
291.282
291.276
291.273
291.273
291.277
291.283
291.293
291.306
291.322
291.342
291.371
291.411
291.468
291.547
291.656
291.791
291.944
292.099
292.242
292.362
292.453
292.514
292.554
292.582
292.596
292.594
292.584
292.563
292.538
292.517
292.503
292.498
292.502
292.51
292.516
292.517
292.509
292.492
292.471
292.448
292.425
292.405
292.388
292.376
292.369
292.366
292.368
292.375
292.385
292.398
292.414
292.43
292.446
292.461
292.475
292.486
292.495
292.502
292.507
292.509
292.511
292.513
292.514
292.517
292.522
292.528
292.536
292.547
292.561
292.58
292.603
292.632
292.664
292.699
292.734
292.767
292.795
292.814
292.819
292.814
292.794
292.761
292.716
292.66
292.595
292.523
292.448
292.371
292.297
292.227
292.168
292.128
292.11
292.11
292.121
292.149
292.197
292.259
292.333
292.415
292.501
292.587
292.668
292.74
292.804
292.856
292.897
292.927
292.947
292.957
292.956
292.95
292.935
292.914
292.888
292.857
292.823
292.784
292.741
292.698
292.657
292.62
292.587
292.559
292.535
292.516
292.502
292.49
292.48
292.471
292.464
292.456
292.448
292.439
292.43
292.42
292.409
292.397
292.385
292.373
292.361
292.35
292.339
292.33
292.323
292.318
292.316
292.318
292.323
292.333
292.347
292.366
292.39
292.418
292.449
292.483
292.519
292.557
292.594
292.63
292.665
292.697
292.726
292.752
292.775
292.796
292.814
292.83
292.845
292.859
292.872
292.885
292.898
292.91
292.922
292.934
292.946
292.958
292.97
292.982
292.995
293.008
293.021
293.035
293.048
293.062
293.075
293.089
293.103
293.117
293.131
293.145
293.159
293.173
293.187
293.201
293.214
293.228
293.241
293.254
293.267
293.28
293.292
293.304
293.315
293.326
293.336
293.345
293.354
293.363
293.369
293.354
293.301
289.613
289.628
289.643
289.646
289.637
289.618
289.591
289.563
289.537
289.514
289.495
289.479
289.465
289.454
289.444
289.434
289.426
289.419
289.412
289.407
289.404
289.406
289.414
289.433
289.462
289.494
289.517
289.527
289.526
289.516
289.497
289.462
289.403
289.316
289.206
289.09
288.987
288.913
288.87
288.853
288.846
288.874
288.939
289.036
289.152
289.27
289.372
289.449
289.503
289.535
289.557
289.569
289.583
289.599
289.622
289.658
289.714
289.795
289.905
290.049
290.223
290.415
290.612
290.794
290.941
291.038
291.08
291.072
291.03
290.953
290.836
290.677
290.477
290.237
289.962
289.66
289.354
289.1
288.979
288.995
289.121
289.452
290.017
290.724
291.407
291.939
292.287
292.453
292.462
292.369
292.121
291.89
291.875
292.032
292.271
292.498
292.663
292.735
292.728
292.63
292.477
292.26
292.012
291.768
291.562
291.403
291.294
291.232
291.21
291.24
291.316
291.431
291.572
291.718
291.842
291.918
291.943
291.939
291.913
291.848
291.734
291.571
291.368
291.138
290.898
290.661
290.44
290.243
290.075
289.936
289.826
289.742
289.68
289.636
289.611
289.607
289.611
289.622
289.642
289.671
289.71
289.76
289.825
289.912
290.029
290.183
290.378
290.612
290.878
291.157
291.425
291.652
291.817
291.918
291.972
292.01
292.051
292.105
292.177
292.265
292.359
292.447
292.516
292.554
292.561
292.537
292.478
292.39
292.282
292.168
292.061
291.97
291.896
291.838
291.798
291.773
291.763
291.769
291.79
291.821
291.859
291.9
291.942
291.982
292.018
292.047
292.07
292.084
292.09
292.092
292.092
292.093
292.095
292.1
292.109
292.122
292.138
292.157
292.179
292.2
292.222
292.243
292.265
292.287
292.308
292.328
292.341
292.344
292.342
292.333
292.318
292.295
292.266
292.231
292.19
292.145
292.097
292.048
292
291.955
291.914
291.875
291.839
291.803
291.766
291.728
291.691
291.657
291.628
291.605
291.594
291.597
291.607
291.625
291.647
291.672
291.7
291.734
291.786
291.869
292
292.189
292.429
292.673
292.849
292.9
292.85
292.684
292.45
292.206
291.994
291.824
291.689
291.579
291.488
291.417
291.361
291.316
291.279
291.251
291.23
291.215
291.207
291.204
291.205
291.212
291.222
291.234
291.249
291.266
291.284
291.304
291.325
291.347
291.368
291.389
291.409
291.428
291.444
291.457
291.466
291.471
291.472
291.468
291.459
291.445
291.428
291.409
291.388
291.367
291.349
291.334
291.322
291.315
291.313
291.315
291.322
291.335
291.352
291.375
291.407
291.452
291.519
291.614
291.737
291.883
292.039
292.19
292.322
292.431
292.511
292.566
292.605
292.63
292.632
292.622
292.596
292.56
292.529
292.511
292.504
292.506
292.512
292.517
292.519
292.515
292.504
292.493
292.482
292.474
292.471
292.474
292.482
292.495
292.511
292.532
292.553
292.576
292.597
292.617
292.633
292.647
292.657
292.664
292.667
292.668
292.665
292.661
292.655
292.649
292.645
292.642
292.643
292.647
292.655
292.667
292.686
292.713
292.749
292.794
292.848
292.907
292.969
293.031
293.087
293.133
293.159
293.164
293.154
293.129
293.087
293.031
292.961
292.88
292.79
292.692
292.59
292.485
292.382
292.289
292.214
292.156
292.114
292.09
292.089
292.1
292.13
292.181
292.246
292.324
292.409
292.496
292.58
292.658
292.726
292.784
292.83
292.864
292.886
292.896
292.895
292.886
292.87
292.845
292.811
292.771
292.725
292.677
292.629
292.58
292.532
292.491
292.457
292.43
292.409
292.392
292.38
292.37
292.362
292.353
292.344
292.334
292.323
292.31
292.296
292.28
292.263
292.245
292.227
292.209
292.191
292.175
292.16
292.148
292.138
292.131
292.128
292.13
292.137
292.151
292.171
292.198
292.231
292.27
292.315
292.363
292.414
292.465
292.514
292.56
292.602
292.639
292.669
292.694
292.713
292.728
292.737
292.743
292.747
292.749
292.75
292.75
292.75
292.751
292.751
292.753
292.755
292.759
292.763
292.769
292.776
292.784
292.793
292.803
292.813
292.825
292.838
292.851
292.866
292.881
292.896
292.912
292.928
292.944
292.961
292.978
292.995
293.012
293.029
293.046
293.062
293.079
293.095
293.111
293.127
293.143
293.162
293.18
293.179
293.154
289.652
289.662
289.666
289.654
289.626
289.587
289.546
289.51
289.482
289.46
289.445
289.435
289.428
289.422
289.417
289.412
289.408
289.404
289.402
289.401
289.404
289.413
289.432
289.459
289.49
289.51
289.516
289.506
289.485
289.456
289.415
289.356
289.273
289.172
289.071
288.985
288.927
288.901
288.889
288.899
288.955
289.057
289.196
289.349
289.494
289.613
289.699
289.751
289.777
289.782
289.769
289.748
289.729
289.716
289.712
289.724
289.76
289.828
289.936
290.093
290.301
290.548
290.814
291.074
291.303
291.479
291.581
291.605
291.584
291.528
291.43
291.285
291.093
290.853
290.57
290.247
289.892
289.523
289.201
289.022
289.026
289.165
289.571
290.269
291.11
291.839
292.281
292.443
292.433
292.311
292.058
291.865
291.885
292.076
292.356
292.6
292.746
292.788
292.737
292.598
292.368
292.079
291.786
291.522
291.305
291.142
291.03
290.969
290.948
290.972
291.047
291.175
291.342
291.524
291.688
291.794
291.83
291.826
291.795
291.713
291.568
291.363
291.112
290.835
290.555
290.292
290.058
289.862
289.705
289.586
289.501
289.442
289.404
289.385
289.382
289.386
289.395
289.411
289.433
289.461
289.495
289.534
289.581
289.637
289.71
289.806
289.936
290.108
290.328
290.594
290.895
291.203
291.485
291.708
291.861
291.959
292.029
292.095
292.173
292.276
292.402
292.537
292.662
292.764
292.838
292.873
292.864
292.813
292.718
292.588
292.439
292.288
292.152
292.039
291.951
291.887
291.846
291.824
291.819
291.828
291.847
291.873
291.902
291.932
291.959
291.981
291.999
292.011
292.02
292.027
292.035
292.044