/*--------------------------------*- C++ -*----------------------------------*\
| =========                 |                                                 |
| \\      /  F ield         | OpenFOAM: The Open Source CFD Toolbox           |
|  \\    /   O peration     | Version:  v1812                                 |
|   \\  /    A nd           | Web:      www.OpenFOAM.com                      |
|    \\/     M anipulation  |                                                 |
\*---------------------------------------------------------------------------*/
FoamFile
{
    version     2.0;
    format      ascii;
    class       volVectorField;
    location    "1.2";
    object      U;
}
// * * * * * * * * * * * * * * * * * * * * * * * * * * * * * * * * * * * * * //

dimensions      [0 1 -1 0 0 0 0];


internalField   nonuniform List<vector> 
20400
(
(-0.0183094 -0.0106162 0)
(-0.032353 -0.0274626 0)
(-0.0134236 -0.0382189 0)
(0.0186145 -0.0436924 0)
(0.0760451 -0.0402433 0)
(0.131435 -0.0318277 0)
(0.190596 -0.0213132 0)
(0.235658 -0.00912368 0)
(0.26764 0.00121122 0)
(0.284832 0.0141597 0)
(0.286099 0.0193203 0)
(0.270421 0.0288927 0)
(0.247951 0.0302902 0)
(0.214212 0.0296339 0)
(0.177714 0.0248553 0)
(0.139236 0.0189019 0)
(0.103495 0.00950394 0)
(0.0786111 0.000330275 0)
(0.0615259 -0.0129625 0)
(0.0656049 -0.0227872 0)
(0.098792 -0.0363074 0)
(0.153155 -0.0503965 0)
(0.246841 -0.0665071 0)
(0.369248 -0.0856371 0)
(0.530858 -0.106355 0)
(0.722638 -0.126627 0)
(0.93566 -0.145062 0)
(1.14935 -0.153119 0)
(1.34128 -0.147497 0)
(1.48453 -0.141143 0)
(1.58036 -0.1249 0)
(1.63341 -0.161985 0)
(1.64549 -0.280329 0)
(1.60646 -0.381905 0)
(1.56189 -0.429718 0)
(1.39758 -0.388203 0)
(1.36135 -0.117949 0)
(1.38468 -0.042124 0)
(1.15346 0.109532 0)
(0.859463 0.163638 0)
(0.347468 0.257712 0)
(-0.265912 0.273538 0)
(-1.15475 0.295167 0)
(-2.25551 0.26192 0)
(-3.61194 0.216091 0)
(-5.10517 0.195523 0)
(-6.74433 0.217241 0)
(-8.33875 0.258454 0)
(-9.94442 0.229741 0)
(-11.3619 0.10838 0)
(-12.6707 -0.0219234 0)
(-13.7769 -0.127676 0)
(-14.7049 -0.22074 0)
(-15.4253 -0.304993 0)
(-15.9568 -0.404941 0)
(-16.3146 -0.420178 0)
(-16.4847 -0.37284 0)
(-16.4671 -0.184555 0)
(-16.1803 -0.0831595 0)
(-15.7738 0.00839895 0)
(-15.1884 0.0592391 0)
(-14.4886 0.137632 0)
(-13.625 0.227691 0)
(-12.6499 0.301263 0)
(-11.5709 0.342128 0)
(-10.4299 0.347972 0)
(-9.2458 0.322194 0)
(-8.04895 0.269569 0)
(-6.85027 0.198284 0)
(-5.68203 0.101057 0)
(-4.53829 -0.000855156 0)
(-3.46425 -0.145613 0)
(-2.43936 -0.265442 0)
(-1.54261 -0.410056 0)
(-0.794593 -0.419545 0)
(-0.0816015 -0.336251 0)
(0.637054 -0.22552 0)
(1.26529 -0.156355 0)
(1.78583 -0.107823 0)
(2.15536 -0.0747373 0)
(2.42331 -0.0461061 0)
(2.5682 -0.0227385 0)
(2.63356 -0.010737 0)
(2.64871 0.010582 0)
(2.63053 -0.00844618 0)
(2.624 -0.0246054 0)
(2.66102 -0.0519115 0)
(2.76429 -0.0771465 0)
(2.92878 -0.100674 0)
(3.15705 -0.12773 0)
(3.38127 -0.188338 0)
(3.61413 -0.309573 0)
(3.61683 -0.479677 0)
(3.23091 -0.34312 0)
(2.94639 0.119223 0)
(2.48829 0.340307 0)
(1.68496 0.518121 0)
(0.723807 0.574367 0)
(-0.447499 0.553732 0)
(-1.84806 0.574362 0)
(-3.37899 0.620022 0)
(-4.96039 0.657063 0)
(-6.48136 0.660036 0)
(-7.8588 0.625099 0)
(-9.11623 0.569173 0)
(-10.0386 0.597929 0)
(-10.7685 0.686001 0)
(-11.1439 0.808949 0)
(-11.2757 0.962601 0)
(-11.0203 1.07577 0)
(-10.5798 1.08135 0)
(-9.8749 0.95437 0)
(-9.03762 0.807897 0)
(-8.0385 0.606741 0)
(-6.9411 0.399303 0)
(-5.80143 0.120618 0)
(-4.61308 -0.12536 0)
(-3.51226 -0.47462 0)
(-2.55802 -0.628579 0)
(-1.5778 -0.635769 0)
(-0.641293 -0.568225 0)
(0.275484 -0.407297 0)
(1.17649 -0.289814 0)
(1.95939 -0.208563 0)
(2.64899 -0.149445 0)
(3.186 -0.107549 0)
(3.643 -0.0747084 0)
(3.97389 -0.0466612 0)
(4.21143 -0.0228977 0)
(4.33991 -0.00417043 0)
(4.38999 0.00578682 0)
(4.37212 0.0123732 0)
(4.27557 0.0296838 0)
(4.10755 0.0462792 0)
(3.87923 0.0569399 0)
(3.60361 0.0656329 0)
(3.2928 0.0675985 0)
(2.95929 0.0643343 0)
(2.61382 0.0597657 0)
(2.26822 0.0555163 0)
(1.93049 0.0519849 0)
(1.60669 0.0498007 0)
(1.30103 0.0493646 0)
(1.01767 0.0499103 0)
(0.762041 0.0471174 0)
(0.545178 0.0386579 0)
(0.373787 0.0242037 0)
(0.24991 0.0101075 0)
(0.163861 -0.000308107 0)
(0.103207 -0.00265044 0)
(0.0498393 0.000955753 0)
(-0.0067208 -0.00204375 0)
(-0.0606142 -0.042618 0)
(-0.178689 -0.158227 0)
(-0.374575 -0.235787 0)
(-0.591508 -0.321107 0)
(-0.857632 -0.376256 0)
(-1.1359 -0.410608 0)
(-1.42463 -0.423047 0)
(-1.71027 -0.417514 0)
(-1.98397 -0.393884 0)
(-2.23599 -0.353865 0)
(-2.46002 -0.300496 0)
(-2.65765 -0.232424 0)
(-2.83434 -0.155548 0)
(-2.96843 -0.0683084 0)
(-3.07082 0.00642353 0)
(-3.13097 0.062861 0)
(-3.1707 0.104512 0)
(-3.19323 0.142096 0)
(-3.19561 0.176625 0)
(-3.18522 0.208482 0)
(-3.17014 0.243253 0)
(-3.15079 0.277616 0)
(-3.13556 0.312251 0)
(-3.12684 0.344931 0)
(-3.13233 0.374128 0)
(-3.16464 0.40573 0)
(-3.22939 0.43106 0)
(-3.33512 0.458729 0)
(-3.48387 0.487752 0)
(-3.6796 0.516102 0)
(-3.92315 0.535792 0)
(-4.2143 0.542784 0)
(-4.54907 0.530919 0)
(-4.92134 0.497828 0)
(-5.32229 0.445311 0)
(-5.74199 0.383647 0)
(-6.16658 0.328951 0)
(-6.56989 0.290742 0)
(-6.91835 0.328329 0)
(-7.20436 0.437919 0)
(-7.38082 0.630802 0)
(-7.42743 0.837294 0)
(-7.3739 0.991814 0)
(-7.20285 1.07416 0)
(-6.96606 1.12406 0)
(-6.63393 1.13164 0)
(-6.2396 1.11278 0)
(-5.77812 1.06461 0)
(-5.28125 0.988257 0)
(-4.73983 0.894034 0)
(-4.2046 0.759134 0)
(-3.62576 0.628985 0)
(-3.09758 0.408131 0)
(-2.55287 0.236279 0)
(-2.10557 -0.0417644 0)
(-1.80662 -0.188884 0)
(-1.49036 -0.238139 0)
(-1.17435 -0.220603 0)
(-0.878308 -0.195861 0)
(-0.628874 -0.162717 0)
(-0.416121 -0.132099 0)
(-0.253561 -0.103834 0)
(-0.127612 -0.0791984 0)
(-0.0434012 -0.057562 0)
(0.00923833 -0.0404567 0)
(0.0329694 -0.0187793 0)
(0.0251022 -0.00885084 0)
(-0.00294535 0.00450607 0)
(-0.047453 0.016031 0)
(-0.105295 0.0245699 0)
(-0.171731 0.0326084 0)
(-0.246157 0.0364482 0)
(-0.321965 0.0431544 0)
(-0.405718 0.0431697 0)
(-0.482064 0.0468725 0)
(-0.566758 0.02116 0)
(-0.609576 -0.0199897 0)
(-0.706055 -0.181916 0)
(-0.887797 -0.252029 0)
(-1.03853 -0.324644 0)
(-1.21833 -0.349849 0)
(-1.38326 -0.357973 0)
(-1.54973 -0.333476 0)
(-1.68856 -0.287483 0)
(-1.80547 -0.223532 0)
(-1.88469 -0.150338 0)
(-1.93048 -0.0765502 0)
(-1.93533 -0.0062242 0)
(-1.9058 0.0467749 0)
(-1.85295 0.0926953 0)
(-1.77421 0.121584 0)
(-1.68809 0.150168 0)
(-1.59541 0.160798 0)
(-1.51323 0.184042 0)
(-1.43219 0.186323 0)
(-1.36994 0.185444 0)
(-1.31865 0.164884 0)
(-1.30745 0.143419 0)
(-1.33158 0.132384 0)
(-1.38128 0.125668 0)
(-1.47247 0.135938 0)
(-1.58699 0.15072 0)
(-1.74151 0.176645 0)
(-1.91979 0.208225 0)
(-2.12958 0.247472 0)
(-2.35903 0.289751 0)
(-2.60943 0.331995 0)
(-2.87027 0.367673 0)
(-3.14329 0.391003 0)
(-3.41695 0.395231 0)
(-3.69861 0.380112 0)
(-3.97531 0.345411 0)
(-4.25054 0.294429 0)
(-4.51556 0.229498 0)
(-4.77269 0.154862 0)
(-5.01389 0.0775912 0)
(-5.24002 0.00251763 0)
(-5.4439 -0.0517654 0)
(-5.62676 -0.124474 0)
(-5.79393 -0.162795 0)
(-5.92841 -0.191063 0)
(-6.03514 -0.183738 0)
(-6.11467 -0.15424 0)
(-6.15633 -0.0834468 0)
(-6.15309 0.0187849 0)
(-6.10559 0.148891 0)
(-6.01362 0.293022 0)
(-5.87067 0.436577 0)
(-5.69172 0.557747 0)
(-5.46817 0.680618 0)
(-5.20598 0.736126 0)
(-4.9276 0.751364 0)
(-4.63028 0.732931 0)
(-4.31375 0.694499 0)
(-3.98268 0.630223 0)
(-3.64476 0.550322 0)
(-3.27895 0.440899 0)
(-2.96214 0.296661 0)
(-2.55452 0.161036 0)
(-2.30034 -0.0853407 0)
(-2.14291 -0.15866 0)
(-1.89933 -0.189065 0)
(-1.68467 -0.182274 0)
(-1.46557 -0.168079 0)
(-1.27979 -0.150766 0)
(-1.10984 -0.130556 0)
(-0.973638 -0.115825 0)
(-0.851978 -0.0934129 0)
(-0.767352 -0.0767691 0)
(-0.695669 -0.0535943 0)
(-0.6531 -0.0459647 0)
(-0.616584 -0.0425986 0)
(-0.570684 -0.0957901 0)
(-0.620369 -0.183186 0)
(-0.692687 -0.242165 0)
(-0.793596 -0.28267 0)
(-0.902971 -0.30704 0)
(-1.02684 -0.316632 0)
(-1.1488 -0.307631 0)
(-1.26254 -0.281461 0)
(-1.36324 -0.237693 0)
(-1.43662 -0.180226 0)
(-1.48623 -0.10382 0)
(-1.50434 -0.0231394 0)
(-1.49462 0.0864683 0)
(-1.45618 0.15708 0)
(-1.41408 0.202516 0)
(-1.36954 0.238883 0)
(-1.3351 0.265298 0)
(-1.30979 0.287994 0)
(-1.30139 0.300081 0)
(-1.31479 0.311291 0)
(-1.35232 0.311374 0)
(-1.41676 0.315412 0)
(-1.50744 0.321712 0)
(-1.62248 0.335716 0)
(-1.7607 0.354822 0)
(-1.91888 0.37809 0)
(-2.09612 0.402002 0)
(-2.28857 0.42262 0)
(-2.4951 0.435717 0)
(-2.71411 0.436295 0)
(-2.941 0.425983 0)
(-3.17844 0.400371 0)
(-3.41195 0.360927 0)
(-3.65131 0.30772 0)
(-3.88167 0.240702 0)
(-4.10452 0.165006 0)
(-4.31323 0.0860404 0)
(-4.504 0.00840583 0)
(-4.67352 -0.0443311 0)
(-4.82043 -0.124952 0)
(-4.95116 -0.153334 0)
(-5.04745 -0.180137 0)
(-5.11984 -0.166149 0)
(-5.1625 -0.127222 0)
(-5.16846 -0.0550339 0)
(-5.14293 0.0461411 0)
(-5.07761 0.181393 0)
(-4.98498 0.318849 0)
(-4.84487 0.475654 0)
(-4.67118 0.583056 0)
(-4.48843 0.640807 0)
(-4.29583 0.663855 0)
(-4.09203 0.669458 0)
(-3.87534 0.661808 0)
(-3.64683 0.64362 0)
(-3.40568 0.615633 0)
(-3.15984 0.575714 0)
(-2.90113 0.527998 0)
(-2.65195 0.46031 0)
(-2.38612 0.394265 0)
(-2.144 0.28618 0)
(-1.89136 0.198749 0)
(-1.64382 0.0489868 0)
(-1.51092 -0.0723851 0)
(-1.39324 -0.113666 0)
(-1.2488 -0.115159 0)
(-1.11449 -0.107659 0)
(-0.997122 -0.0913379 0)
(-0.895801 -0.0772339 0)
(-0.81576 -0.0621227 0)
(-0.750971 -0.050168 0)
(-0.704145 -0.0361622 0)
(-0.67274 -0.0251848 0)
(-0.654834 -0.0145871 0)
(-0.647322 -0.00780497 0)
(-0.64742 -0.00190291 0)
(-0.659278 -0.0105327 0)
(-0.625464 -0.036388 0)
(-0.650843 -0.141241 0)
(-0.711352 -0.191948 0)
(-0.760358 -0.243676 0)
(-0.818727 -0.272773 0)
(-0.877368 -0.298467 0)
(-0.942632 -0.313756 0)
(-1.01039 -0.325455 0)
(-1.08299 -0.331174 0)
(-1.15849 -0.331777 0)
(-1.23948 -0.325503 0)
(-1.32612 -0.308331 0)
(-1.42001 -0.267846 0)
(-1.52171 -0.200782 0)
(-1.61046 -0.0998909 0)
(-1.68833 -0.0160626 0)
(-1.76534 0.0609572 0)
(-1.83893 0.118556 0)
(-1.91155 0.161839 0)
(-1.98349 0.19443 0)
(-2.05327 0.216085 0)
(-2.12196 0.229745 0)
(-2.18791 0.235852 0)
(-2.25106 0.236662 0)
(-2.31106 0.233497 0)
(-2.36787 0.227898 0)
(-2.42188 0.220823 0)
(-2.47351 0.213294 0)
(-2.52336 0.205853 0)
(-2.57223 0.199003 0)
(-2.62092 0.192985 0)
(-2.67044 0.18765 0)
(-2.72176 0.183107 0)
(-2.77594 0.178817 0)
(-2.83417 0.174264 0)
(-2.89712 0.169132 0)
(-2.9655 0.163113 0)
(-3.0396 0.155395 0)
(-3.11961 0.146327 0)
(-3.20508 0.134562 0)
(-3.29566 0.120834 0)
(-3.38962 0.105561 0)
(-3.48682 0.088055 0)
(-3.5848 0.0703049 0)
(-3.68148 0.0524577 0)
(-3.77496 0.0358352 0)
(-3.85948 0.0324437 0)
(-3.94214 0.0145198 0)
(-4.01838 0.0302932 0)
(-4.07728 0.0513069 0)
(-4.12454 0.0971216 0)
(-4.13979 0.161454 0)
(-4.12657 0.243384 0)
(-4.1001 0.296894 0)
(-4.05522 0.329475 0)
(-3.99981 0.349291 0)
(-3.92896 0.36163 0)
(-3.84517 0.368351 0)
(-3.74977 0.370065 0)
(-3.64507 0.367209 0)
(-3.53352 0.360162 0)
(-3.41753 0.349364 0)
(-3.29938 0.33526 0)
(-3.18124 0.318323 0)
(-3.06502 0.299021 0)
(-2.95242 0.277827 0)
(-2.84487 0.255203 0)
(-2.74356 0.231602 0)
(-2.64937 0.207453 0)
(-2.56298 0.183164 0)
(-2.48478 0.159111 0)
(-2.41499 0.135639 0)
(-2.35362 0.113047 0)
(-2.30052 0.0915991 0)
(-2.25547 0.0714998 0)
(-2.218 0.0529131 0)
(-2.18782 0.0359931 0)
(-2.16424 0.0207558 0)
(-2.14704 0.00751647 0)
(-2.13551 -0.00404959 0)
(-2.12894 -0.0131365 0)
(-2.12658 -0.0223432 0)
(-2.12822 -0.0295303 0)
(-2.13319 -0.0353837 0)
(-2.14047 -0.0398919 0)
(-2.14982 -0.0432923 0)
(-2.16067 -0.0456554 0)
(-2.17273 -0.0471143 0)
(-2.18558 -0.0477744 0)
(-2.19896 -0.047743 0)
(-2.21257 -0.047124 0)
(-2.22622 -0.0460072 0)
(-2.23969 -0.0444757 0)
(-2.25289 -0.0425976 0)
(-2.26565 -0.0404299 0)
(-2.27793 -0.0380172 0)
(-2.28961 -0.0353923 0)
(-2.30072 -0.032572 0)
(-2.31114 -0.0295722 0)
(-2.32097 -0.0263621 0)
(-2.33006 -0.0229591 0)
(-2.33859 -0.0192278 0)
(-2.34641 -0.0152394 0)
(-2.35372 -0.0106179 0)
(-2.36043 -0.00565848 0)
(-2.36646 0.000527062 0)
(-2.37236 0.00713012 0)
(-2.3782 0.016227 0)
(-2.38399 0.0273653 0)
(-2.39289 0.0426688 0)
(-2.4025 0.0635321 0)
(-2.42031 0.0936226 0)
(-2.43175 0.132707 0)
(-2.45007 0.182436 0)
(-2.41912 0.229621 0)
(-2.4063 0.285812 0)
(-2.23409 0.288167 0)
(-2.21309 0.313409 0)
(-1.89318 0.237273 0)
(-0.0261572 -0.0380449 0)
(-0.0281315 -0.0995086 0)
(0.0403154 -0.153656 0)
(0.142976 -0.189745 0)
(0.285372 -0.206533 0)
(0.424553 -0.202494 0)
(0.566967 -0.189425 0)
(0.685818 -0.167651 0)
(0.78601 -0.147783 0)
(0.852368 -0.126387 0)
(0.894711 -0.11357 0)
(0.903595 -0.0984782 0)
(0.888226 -0.0884295 0)
(0.85521 -0.0786179 0)
(0.812392 -0.072431 0)
(0.763058 -0.0725173 0)
(0.716358 -0.0814789 0)
(0.680237 -0.0968988 0)
(0.659072 -0.124787 0)
(0.670285 -0.154071 0)
(0.717148 -0.196761 0)
(0.805252 -0.226949 0)
(0.949142 -0.260408 0)
(1.13717 -0.289709 0)
(1.3825 -0.318627 0)
(1.67445 -0.337169 0)
(2.00487 -0.327856 0)
(2.34473 -0.298982 0)
(2.65602 -0.234743 0)
(2.88566 -0.172383 0)
(2.98878 -0.101234 0)
(2.87523 -0.0683344 0)
(2.68615 0.0211542 0)
(2.49226 0.0765171 0)
(2.17544 0.153332 0)
(1.82304 0.256085 0)
(1.18375 0.450585 0)
(0.123916 0.576275 0)
(-1.1047 0.889795 0)
(-2.76608 1.21014 0)
(-4.81137 1.51112 0)
(-7.26244 1.75892 0)
(-9.94014 2.10323 0)
(-12.7197 2.42095 0)
(-15.4425 2.64183 0)
(-17.9643 2.67806 0)
(-20.2272 2.55912 0)
(-22.1381 2.29157 0)
(-23.7274 2.04095 0)
(-24.8538 1.78215 0)
(-25.699 1.55973 0)
(-26.2204 1.29807 0)
(-26.5014 1.05921 0)
(-26.5084 0.80844 0)
(-26.1784 0.6515 0)
(-25.7509 0.406353 0)
(-25.0686 0.214235 0)
(-24.2934 -0.0621551 0)
(-23.4016 -0.344666 0)
(-22.4152 -0.584633 0)
(-21.2822 -0.757953 0)
(-20.0415 -0.963758 0)
(-18.691 -1.16562 0)
(-17.2448 -1.34797 0)
(-15.7148 -1.49976 0)
(-14.1213 -1.61538 0)
(-12.4854 -1.69888 0)
(-10.827 -1.75411 0)
(-9.16854 -1.78326 0)
(-7.52196 -1.79403 0)
(-5.91563 -1.78413 0)
(-4.34514 -1.76498 0)
(-2.85055 -1.73641 0)
(-1.36475 -1.72795 0)
(0.13183 -1.65775 0)
(1.50064 -1.47054 0)
(2.69413 -1.20755 0)
(3.75631 -0.957495 0)
(4.73044 -0.722616 0)
(5.56006 -0.530274 0)
(6.24708 -0.35976 0)
(6.71178 -0.211743 0)
(6.97497 -0.119769 0)
(7.03378 -0.0804247 0)
(6.98506 -0.0489592 0)
(6.89277 -0.0607757 0)
(6.7669 -0.149035 0)
(6.65544 -0.241425 0)
(6.54569 -0.319683 0)
(6.36535 -0.353125 0)
(5.99114 -0.331812 0)
(5.42945 -0.101567 0)
(4.74514 0.269629 0)
(3.93149 0.787339 0)
(2.62653 1.28845 0)
(0.671187 1.69196 0)
(-1.47376 2.06447 0)
(-3.94495 2.27171 0)
(-6.48996 2.31536 0)
(-8.91413 2.25603 0)
(-11.0748 2.10744 0)
(-12.8952 1.89777 0)
(-14.336 1.65402 0)
(-15.3868 1.40842 0)
(-16.0705 1.14897 0)
(-16.4018 0.865569 0)
(-16.3239 0.498961 0)
(-16.0039 0.159394 0)
(-15.5168 -0.139193 0)
(-14.8714 -0.591463 0)
(-13.9651 -0.887948 0)
(-12.8311 -1.19056 0)
(-11.5265 -1.4276 0)
(-10.0542 -1.65343 0)
(-8.49684 -1.82021 0)
(-6.84201 -1.96658 0)
(-5.17823 -2.04495 0)
(-3.46389 -2.13199 0)
(-1.63391 -2.18515 0)
(0.0973909 -2.1171 0)
(1.74408 -1.96382 0)
(3.2505 -1.75883 0)
(4.60056 -1.48367 0)
(5.82593 -1.22538 0)
(6.96977 -1.00193 0)
(7.97873 -0.813549 0)
(8.89708 -0.64681 0)
(9.68016 -0.486795 0)
(10.3433 -0.333584 0)
(10.8673 -0.180879 0)
(11.2698 -0.0747565 0)
(11.534 0.0182497 0)
(11.6309 0.156722 0)
(11.5667 0.270646 0)
(11.3671 0.360016 0)
(11.0274 0.445076 0)
(10.5436 0.512265 0)
(9.93144 0.571423 0)
(9.20524 0.611261 0)
(8.38745 0.63254 0)
(7.50525 0.639509 0)
(6.5902 0.633772 0)
(5.67526 0.615474 0)
(4.79017 0.583523 0)
(3.96193 0.529011 0)
(3.21575 0.450434 0)
(2.56958 0.356013 0)
(2.0223 0.265565 0)
(1.55934 0.191743 0)
(1.15964 0.161555 0)
(0.790798 0.185459 0)
(0.405228 0.267458 0)
(-0.0504551 0.381683 0)
(-0.510617 0.458385 0)
(-0.97141 0.524911 0)
(-1.47299 0.55889 0)
(-1.96669 0.565417 0)
(-2.46887 0.543467 0)
(-2.95053 0.508707 0)
(-3.39478 0.464294 0)
(-3.79096 0.414425 0)
(-4.13685 0.359617 0)
(-4.42742 0.297943 0)
(-4.66519 0.230408 0)
(-4.86565 0.157816 0)
(-5.05178 0.0889029 0)
(-5.20661 0.0378698 0)
(-5.32768 -0.0035964 0)
(-5.41256 -0.0326039 0)
(-5.4642 -0.0640697 0)
(-5.50334 -0.0958664 0)
(-5.54454 -0.123582 0)
(-5.59695 -0.150774 0)
(-5.6776 -0.173272 0)
(-5.79496 -0.189835 0)
(-5.96101 -0.200002 0)
(-6.18126 -0.199633 0)
(-6.46423 -0.181665 0)
(-6.80536 -0.145865 0)
(-7.20907 -0.102096 0)
(-7.67927 -0.0529153 0)
(-8.21196 0.00378369 0)
(-8.79107 0.0675546 0)
(-9.3964 0.136315 0)
(-10.0061 0.205607 0)
(-10.5905 0.272738 0)
(-11.1155 0.332483 0)
(-11.5438 0.378244 0)
(-11.847 0.395918 0)
(-11.993 0.37317 0)
(-12.036 0.285499 0)
(-11.859 0.19144 0)
(-11.6251 0.0184224 0)
(-11.3765 -0.146406 0)
(-11.0381 -0.311237 0)
(-10.5771 -0.456668 0)
(-10.0184 -0.58145 0)
(-9.37316 -0.696835 0)
(-8.66 -0.789787 0)
(-7.89032 -0.866793 0)
(-7.07924 -0.923656 0)
(-6.24951 -0.957571 0)
(-5.39887 -0.97901 0)
(-4.58594 -0.970968 0)
(-3.75701 -0.975078 0)
(-2.9781 -0.94141 0)
(-2.18231 -0.942908 0)
(-1.29923 -0.897794 0)
(-0.530041 -0.837878 0)
(0.125 -0.742763 0)
(0.687355 -0.639995 0)
(1.17012 -0.535418 0)
(1.5758 -0.432212 0)
(1.89799 -0.334158 0)
(2.14421 -0.239768 0)
(2.30326 -0.154615 0)
(2.395 -0.0765166 0)
(2.40241 -0.0109681 0)
(2.33012 0.0550074 0)
(2.19909 0.105646 0)
(2.01065 0.144754 0)
(1.77651 0.168848 0)
(1.50296 0.189826 0)
(1.2051 0.204691 0)
(0.88408 0.220851 0)
(0.558245 0.236396 0)
(0.206046 0.265845 0)
(-0.149397 0.306027 0)
(-0.571686 0.348147 0)
(-0.928294 0.336353 0)
(-1.23199 0.350555 0)
(-1.56583 0.346364 0)
(-1.87409 0.336492 0)
(-2.16803 0.307506 0)
(-2.42452 0.267598 0)
(-2.64384 0.215566 0)
(-2.8177 0.157865 0)
(-2.94815 0.0982979 0)
(-3.03696 0.0380452 0)
(-3.08916 -0.017839 0)
(-3.10692 -0.0631605 0)
(-3.0936 -0.105855 0)
(-3.04938 -0.139768 0)
(-3.01572 -0.169125 0)
(-2.97486 -0.187579 0)
(-2.9799 -0.207329 0)
(-3.02508 -0.208105 0)
(-3.12475 -0.200381 0)
(-3.25974 -0.150661 0)
(-3.42571 -0.10646 0)
(-3.64634 -0.0397092 0)
(-3.91271 0.012663 0)
(-4.23194 0.066358 0)
(-4.59666 0.106824 0)
(-5.00582 0.144835 0)
(-5.45002 0.168236 0)
(-5.92115 0.18285 0)
(-6.40829 0.185771 0)
(-6.90863 0.182015 0)
(-7.40912 0.173834 0)
(-7.90593 0.168473 0)
(-8.37892 0.170536 0)
(-8.82711 0.181627 0)
(-9.23132 0.196782 0)
(-9.59874 0.213102 0)
(-9.91505 0.230006 0)
(-10.1795 0.247186 0)
(-10.3849 0.259866 0)
(-10.5365 0.264194 0)
(-10.6446 0.252036 0)
(-10.6944 0.256953 0)
(-10.6639 0.242588 0)
(-10.5872 0.21161 0)
(-10.4418 0.180573 0)
(-10.2478 0.135009 0)
(-9.98451 0.0864407 0)
(-9.67131 0.0197301 0)
(-9.31931 -0.0583764 0)
(-8.94034 -0.1437 0)
(-8.54405 -0.229503 0)
(-8.11259 -0.305242 0)
(-7.67208 -0.384729 0)
(-7.22266 -0.446795 0)
(-6.72102 -0.491283 0)
(-6.17978 -0.525561 0)
(-5.61202 -0.550284 0)
(-5.03226 -0.569119 0)
(-4.44716 -0.579798 0)
(-3.88607 -0.583036 0)
(-3.30457 -0.593166 0)
(-2.81641 -0.578972 0)
(-2.2588 -0.624772 0)
(-1.63879 -0.587653 0)
(-1.17535 -0.546129 0)
(-0.795468 -0.481713 0)
(-0.497048 -0.421564 0)
(-0.273197 -0.356593 0)
(-0.1137 -0.293643 0)
(-0.0189318 -0.222612 0)
(0.0150329 -0.155156 0)
(-0.00972139 -0.103804 0)
(-0.0785517 -0.0419189 0)
(-0.191557 0.0208314 0)
(-0.36014 0.0974901 0)
(-0.592572 0.154706 0)
(-0.80617 0.192559 0)
(-1.02536 0.229311 0)
(-1.27804 0.255283 0)
(-1.52396 0.267493 0)
(-1.77716 0.262773 0)
(-2.00629 0.241043 0)
(-2.2112 0.207504 0)
(-2.38448 0.16278 0)
(-2.51149 0.112957 0)
(-2.61075 0.0541019 0)
(-2.64549 0.0033392 0)
(-2.71715 -0.0748626 0)
(-2.80671 -0.116466 0)
(-2.86869 -0.153311 0)
(-2.94065 -0.177162 0)
(-3.02794 -0.192983 0)
(-3.14255 -0.197325 0)
(-3.29578 -0.190919 0)
(-3.48828 -0.172177 0)
(-3.7114 -0.132998 0)
(-3.95786 -0.100002 0)
(-4.24368 -0.063998 0)
(-4.55859 -0.0368644 0)
(-4.9077 -0.0134802 0)
(-5.28144 0.00325213 0)
(-5.67868 0.0163952 0)
(-6.09048 0.0288113 0)
(-6.51378 0.0425169 0)
(-6.93426 0.0639945 0)
(-7.34606 0.0857028 0)
(-7.73997 0.111487 0)
(-8.10696 0.137327 0)
(-8.44125 0.162574 0)
(-8.73166 0.186485 0)
(-8.97155 0.205741 0)
(-9.15648 0.219815 0)
(-9.2824 0.223322 0)
(-9.37163 0.211867 0)
(-9.39738 0.221119 0)
(-9.33504 0.199013 0)
(-9.25283 0.167533 0)
(-9.09027 0.136085 0)
(-8.89844 0.0937862 0)
(-8.6487 0.0479269 0)
(-8.34944 -0.0075929 0)
(-8.04558 -0.0820292 0)
(-7.70896 -0.14849 0)
(-7.38714 -0.235099 0)
(-7.10606 -0.300123 0)
(-6.77669 -0.34355 0)
(-6.40404 -0.372158 0)
(-5.99535 -0.395224 0)
(-5.56905 -0.413708 0)
(-5.12727 -0.429475 0)
(-4.67789 -0.441124 0)
(-4.22217 -0.450264 0)
(-3.77118 -0.452222 0)
(-3.31835 -0.45419 0)
(-2.89086 -0.443691 0)
(-2.46536 -0.441586 0)
(-2.0815 -0.423231 0)
(-1.72412 -0.425373 0)
(-1.30529 -0.42333 0)
(-0.920451 -0.390205 0)
(-0.624762 -0.340217 0)
(-0.394369 -0.288137 0)
(-0.216235 -0.237944 0)
(-0.0831073 -0.191163 0)
(0.00272627 -0.14558 0)
(0.0551092 -0.10379 0)
(0.0636412 -0.0597144 0)
(0.0349955 -0.025347 0)
(-0.024047 0.00849382 0)
(-0.108604 0.0416302 0)
(-0.231136 0.0748038 0)
(-0.367924 0.114 0)
(-0.578216 0.141823 0)
(-0.75679 0.13645 0)
(-0.908365 0.144966 0)
(-1.08915 0.154531 0)
(-1.27384 0.166592 0)
(-1.47288 0.177818 0)
(-1.67736 0.188241 0)
(-1.88694 0.196161 0)
(-2.09818 0.201774 0)
(-2.30644 0.204822 0)
(-2.50939 0.20539 0)
(-2.69681 0.200106 0)
(-2.86019 0.182698 0)
(-3.01008 0.151491 0)
(-3.21787 0.101638 0)
(-3.43682 0.0698751 0)
(-3.65548 0.0402668 0)
(-3.8669 0.0221175 0)
(-4.06552 0.00682441 0)
(-4.25555 -0.00521258 0)
(-4.43514 -0.0146068 0)
(-4.60282 -0.0221103 0)
(-4.75987 -0.0276738 0)
(-4.90555 -0.0321189 0)
(-5.04154 -0.035004 0)
(-5.16849 -0.0368941 0)
(-5.28793 -0.0375274 0)
(-5.40135 -0.0372914 0)
(-5.51058 -0.0361124 0)
(-5.6173 -0.0340357 0)
(-5.72315 -0.0310049 0)
(-5.82975 -0.0268792 0)
(-5.9386 -0.0216635 0)
(-6.05072 -0.0148378 0)
(-6.16686 -0.00655252 0)
(-6.28775 0.00293411 0)
(-6.41292 0.0136544 0)
(-6.54162 0.0253922 0)
(-6.6725 0.0376676 0)
(-6.80307 0.0504704 0)
(-6.93195 0.0625643 0)
(-7.05508 0.074015 0)
(-7.16949 0.0849511 0)
(-7.2706 0.0928395 0)
(-7.35649 0.098599 0)
(-7.42166 0.0982688 0)
(-7.4743 0.0940575 0)
(-7.49464 0.0998335 0)
(-7.46801 0.0915641 0)
(-7.43111 0.0716119 0)
(-7.3533 0.0500236 0)
(-7.22815 0.0113708 0)
(-7.14524 -0.0518695 0)
(-7.07798 -0.0940979 0)
(-6.95573 -0.127689 0)
(-6.81298 -0.15421 0)
(-6.64812 -0.175945 0)
(-6.47006 -0.193791 0)
(-6.28221 -0.20757 0)
(-6.08792 -0.217402 0)
(-5.89049 -0.223324 0)
(-5.69299 -0.225488 0)
(-5.49825 -0.224152 0)
(-5.30889 -0.219624 0)
(-5.12713 -0.212277 0)
(-4.9549 -0.202509 0)
(-4.79374 -0.190739 0)
(-4.64483 -0.177402 0)
(-4.50899 -0.162915 0)
(-4.38674 -0.147679 0)
(-4.27826 -0.132044 0)
(-4.18352 -0.116338 0)
(-4.10222 -0.10082 0)
(-4.03387 -0.0857563 0)
(-3.97791 -0.0713073 0)
(-3.93339 -0.0576637 0)
(-3.8998 -0.0448599 0)
(-3.87561 -0.0330198 0)
(-3.8607 -0.0220098 0)
(-3.85266 -0.0121725 0)
(-3.85237 -0.00385764 0)
(-3.85904 0.00303707 0)
(-3.86984 0.00932064 0)
(-3.88512 0.0144675 0)
(-3.90345 0.0186997 0)
(-3.92463 0.0220048 0)
(-3.94771 0.0245193 0)
(-3.97226 0.0262841 0)
(-3.99764 0.0274251 0)
(-4.02346 0.0279938 0)
(-4.04927 0.0281081 0)
(-4.07477 0.0278195 0)
(-4.09964 0.0272195 0)
(-4.12369 0.0263537 0)
(-4.14668 0.0252821 0)
(-4.16852 0.0240453 0)
(-4.18902 0.0226789 0)
(-4.20817 0.0212173 0)
(-4.22576 0.0196723 0)
(-4.24188 0.0180719 0)
(-4.25624 0.0164085 0)
(-4.26903 0.0147183 0)
(-4.27982 0.0129563 0)
(-4.2889 0.0111668 0)
(-4.29559 0.00908723 0)
(-4.30022 0.00710132 0)
(-4.30224 0.00519367 0)
(-4.30086 0.00315412 0)
(-4.29509 0.00181615 0)
(-4.28662 0.000962387 0)
(-4.26902 0.000651125 0)
(-4.24929 -0.00299809 0)
(-4.20481 -0.0121139 0)
(-4.16657 -0.0443154 0)
(-4.0584 -0.0835643 0)
(-3.99821 -0.161379 0)
(-3.75479 -0.203098 0)
(-3.68777 -0.270032 0)
(-3.27298 -0.251132 0)
(-0.0218695 -0.0727069 0)
(0.00473357 -0.194863 0)
(0.112832 -0.307786 0)
(0.256438 -0.383156 0)
(0.439641 -0.419086 0)
(0.61846 -0.409279 0)
(0.795296 -0.375585 0)
(0.947196 -0.317231 0)
(1.07622 -0.252238 0)
(1.17716 -0.184233 0)
(1.2536 -0.121647 0)
(1.30801 -0.0691545 0)
(1.33892 -0.029813 0)
(1.34806 -0.000118773 0)
(1.33476 0.013205 0)
(1.30748 0.01696 0)
(1.27483 0.000791086 0)
(1.2423 -0.0270213 0)
(1.22275 -0.0732124 0)
(1.22703 -0.133848 0)
(1.27907 -0.214653 0)
(1.35387 -0.320818 0)
(1.46997 -0.427578 0)
(1.64759 -0.540998 0)
(1.87783 -0.663015 0)
(2.15557 -0.767478 0)
(2.44949 -0.823825 0)
(2.71354 -0.801069 0)
(2.91419 -0.668477 0)
(2.99571 -0.458927 0)
(2.99655 -0.187657 0)
(2.909 0.107145 0)
(2.56969 0.419867 0)
(1.92404 0.672368 0)
(1.03863 0.933936 0)
(-0.202852 1.23227 0)
(-1.79892 1.59287 0)
(-3.82264 2.16249 0)
(-6.32247 2.72143 0)
(-9.17948 3.38394 0)
(-12.2431 4.06091 0)
(-15.3641 4.57818 0)
(-18.3252 4.81266 0)
(-20.9798 4.78034 0)
(-23.2107 4.56233 0)
(-24.9675 4.24745 0)
(-26.3106 3.87333 0)
(-27.1692 3.42203 0)
(-27.7466 2.91281 0)
(-28.0388 2.35032 0)
(-28.2264 1.82937 0)
(-28.2817 1.31856 0)
(-28.1324 0.808503 0)
(-27.8036 0.338201 0)
(-27.3374 -0.17571 0)
(-26.7274 -0.616182 0)
(-26.01 -1.0627 0)
(-25.15 -1.48266 0)
(-24.1332 -1.91381 0)
(-22.9836 -2.34329 0)
(-21.6851 -2.78014 0)
(-20.2521 -3.18124 0)
(-18.7269 -3.51439 0)
(-17.1322 -3.77605 0)
(-15.4902 -3.96095 0)
(-13.8138 -4.07637 0)
(-12.1188 -4.12915 0)
(-10.4184 -4.12527 0)
(-8.72723 -4.07206 0)
(-7.05579 -3.97287 0)
(-5.41364 -3.83628 0)
(-3.80772 -3.65164 0)
(-2.23866 -3.43315 0)
(-0.738944 -3.14285 0)
(0.676565 -2.89454 0)
(2.03432 -2.70094 0)
(3.34935 -2.49941 0)
(4.60414 -2.23822 0)
(5.77931 -1.91011 0)
(6.83257 -1.53098 0)
(7.75733 -1.10946 0)
(8.52557 -0.686449 0)
(9.12983 -0.30065 0)
(9.55767 -0.063131 0)
(9.71385 0.026336 0)
(9.62281 0.07278 0)
(9.37076 0.0514743 0)
(8.9885 -0.0447329 0)
(8.44274 -0.0781305 0)
(7.76847 0.0715786 0)
(6.97535 0.460972 0)
(5.91522 1.07193 0)
(4.34625 1.80119 0)
(2.27572 2.49671 0)
(-0.15884 3.05465 0)
(-2.82214 3.66438 0)
(-5.53207 4.08885 0)
(-8.08616 4.34273 0)
(-10.3032 4.41696 0)
(-12.1124 4.26117 0)
(-13.5162 3.91733 0)
(-14.6017 3.42509 0)
(-15.3937 2.84761 0)
(-15.8938 2.21833 0)
(-16.2956 1.59983 0)
(-16.402 0.904697 0)
(-16.3605 0.125359 0)
(-15.962 -0.768423 0)
(-15.1561 -1.60398 0)
(-14.1425 -2.33686 0)
(-12.9621 -2.90089 0)
(-11.6265 -3.36665 0)
(-10.1241 -3.72478 0)
(-8.48699 -3.98469 0)
(-6.74825 -4.13858 0)
(-4.94606 -4.17392 0)
(-3.11615 -4.10924 0)
(-1.27634 -3.86801 0)
(0.483191 -3.58884 0)
(2.16448 -3.3849 0)
(3.77982 -3.18648 0)
(5.31285 -2.99076 0)
(6.77579 -2.78759 0)
(8.15515 -2.554 0)
(9.45592 -2.28191 0)
(10.6307 -1.99414 0)
(11.7266 -1.70722 0)
(12.707 -1.41553 0)
(13.5875 -1.12024 0)
(14.367 -0.838812 0)
(15.0532 -0.588235 0)
(15.597 -0.276116 0)
(16.042 0.0058711 0)
(16.3655 0.253766 0)
(16.5459 0.514188 0)
(16.5442 0.781542 0)
(16.3593 1.02163 0)
(16.0019 1.23877 0)
(15.4602 1.42955 0)
(14.7331 1.585 0)
(13.8303 1.69525 0)
(12.7712 1.75042 0)
(11.5869 1.74843 0)
(10.3195 1.69072 0)
(9.01758 1.57367 0)
(7.73193 1.3994 0)
(6.50643 1.19858 0)
(5.37319 1.01712 0)
(4.36211 0.874678 0)
(3.48108 0.765633 0)
(2.7019 0.726444 0)
(1.98417 0.767239 0)
(1.29968 0.861151 0)
(0.610896 1.0046 0)
(-0.0891306 1.11597 0)
(-0.777148 1.19285 0)
(-1.44202 1.21902 0)
(-2.05363 1.19853 0)
(-2.60968 1.14333 0)
(-3.1115 1.06322 0)
(-3.55796 0.96595 0)
(-3.95686 0.854644 0)
(-4.30558 0.731163 0)
(-4.61743 0.597744 0)
(-4.87203 0.456204 0)
(-5.07457 0.328133 0)
(-5.23867 0.23058 0)
(-5.39078 0.147619 0)
(-5.53471 0.0824107 0)
(-5.67665 0.0435292 0)
(-5.82271 0.0287838 0)
(-5.98063 0.0340563 0)
(-6.15757 0.0603692 0)
(-6.36116 0.111183 0)
(-6.60006 0.181777 0)
(-6.88279 0.26947 0)
(-7.21729 0.370837 0)
(-7.59956 0.487859 0)
(-8.03914 0.608761 0)
(-8.52465 0.738172 0)
(-9.02635 0.862572 0)
(-9.53094 0.974997 0)
(-10.0287 1.05837 0)
(-10.5057 1.11187 0)
(-10.9441 1.12244 0)
(-11.3294 1.08571 0)
(-11.6492 0.994086 0)
(-11.893 0.851259 0)
(-12.045 0.656279 0)
(-12.1326 0.431778 0)
(-12.0428 0.146069 0)
(-11.8725 -0.17491 0)
(-11.5854 -0.54658 0)
(-11.0066 -0.918834 0)
(-10.3739 -1.23938 0)
(-9.64416 -1.5258 0)
(-8.87184 -1.77127 0)
(-8.03145 -1.98127 0)
(-7.14881 -2.14568 0)
(-6.22384 -2.26932 0)
(-5.27552 -2.34441 0)
(-4.30736 -2.37534 0)
(-3.3439 -2.35379 0)
(-2.37375 -2.29731 0)
(-1.44871 -2.1752 0)
(-0.549243 -2.03912 0)
(0.287881 -1.8103 0)
(1.04746 -1.59446 0)
(1.76571 -1.37197 0)
(2.44262 -1.20793 0)
(3.07722 -1.05271 0)
(3.65557 -0.898912 0)
(4.17282 -0.73991 0)
(4.62506 -0.584234 0)
(5.00311 -0.425975 0)
(5.31051 -0.280828 0)
(5.52449 -0.126535 0)
(5.66385 -0.00430085 0)
(5.68073 0.130034 0)
(5.58882 0.245237 0)
(5.4047 0.357723 0)
(5.12464 0.458292 0)
(4.75757 0.541321 0)
(4.31464 0.604872 0)
(3.80942 0.650574 0)
(3.26041 0.689232 0)
(2.68096 0.717525 0)
(2.09854 0.736782 0)
(1.52252 0.75606 0)
(0.946863 0.821942 0)
(0.373348 0.85467 0)
(-0.166012 0.866931 0)
(-0.677793 0.844315 0)
(-1.14195 0.789011 0)
(-1.56158 0.702181 0)
(-1.91753 0.588918 0)
(-2.21928 0.457787 0)
(-2.45764 0.318037 0)
(-2.63823 0.185253 0)
(-2.77584 0.0696041 0)
(-2.87299 -0.0349728 0)
(-2.9436 -0.106309 0)
(-3.02176 -0.134182 0)
(-3.10795 -0.135505 0)
(-3.20193 -0.0977664 0)
(-3.32054 -0.0487987 0)
(-3.46561 0.0336606 0)
(-3.64695 0.118549 0)
(-3.90477 0.198227 0)
(-4.26842 0.282258 0)
(-4.67443 0.37068 0)
(-5.13308 0.457867 0)
(-5.62741 0.54964 0)
(-6.14964 0.633617 0)
(-6.6859 0.713749 0)
(-7.22079 0.777697 0)
(-7.75216 0.828439 0)
(-8.26446 0.863242 0)
(-8.74893 0.888082 0)
(-9.19461 0.896155 0)
(-9.60048 0.885372 0)
(-9.95926 0.856079 0)
(-10.281 0.810782 0)
(-10.5677 0.756064 0)
(-10.8018 0.687984 0)
(-10.9949 0.608215 0)
(-11.1411 0.520181 0)
(-11.2443 0.426382 0)
(-11.3063 0.342507 0)
(-11.3107 0.257271 0)
(-11.2554 0.153878 0)
(-11.1522 0.0449906 0)
(-10.9958 -0.0540691 0)
(-10.7933 -0.165823 0)
(-10.5409 -0.277261 0)
(-10.2435 -0.400797 0)
(-9.90171 -0.534374 0)
(-9.49774 -0.680055 0)
(-9.03193 -0.831406 0)
(-8.50322 -0.987636 0)
(-7.92781 -1.13996 0)
(-7.2877 -1.29923 0)
(-6.59354 -1.39727 0)
(-5.88663 -1.47867 0)
(-5.16646 -1.53553 0)
(-4.42643 -1.57168 0)
(-3.672 -1.58324 0)
(-2.90014 -1.5701 0)
(-2.13008 -1.52576 0)
(-1.36565 -1.44222 0)
(-0.624979 -1.33447 0)
(0.0627893 -1.14287 0)
(0.691713 -0.996386 0)
(1.26956 -0.845957 0)
(1.78218 -0.702665 0)
(2.2102 -0.558594 0)
(2.52334 -0.421641 0)
(2.72275 -0.286104 0)
(2.80047 -0.164559 0)
(2.75022 -0.0548931 0)
(2.59581 0.0560436 0)
(2.36166 0.160312 0)
(2.05874 0.251923 0)