/*--------------------------------*- C++ -*----------------------------------*\
| =========                 |                                                 |
| \\      /  F ield         | OpenFOAM: The Open Source CFD Toolbox           |
|  \\    /   O peration     | Version:  v1812                                 |
|   \\  /    A nd           | Web:      www.OpenFOAM.com                      |
|    \\/     M anipulation  |                                                 |
\*---------------------------------------------------------------------------*/
FoamFile
{
    version     2.0;
    format      ascii;
    class       volScalarField;
    location    "1";
    object      p;
}
// * * * * * * * * * * * * * * * * * * * * * * * * * * * * * * * * * * * * * //

dimensions      [1 -1 -2 0 0 0 0];


internalField   nonuniform List<scalar> 
20400
(
106256
106256
106257
106257
106257
106257
106258
106259
106259
106260
106261
106263
106264
106265
106267
106268
106270
106272
106273
106274
106276
106277
106278
106279
106279
106279
106279
106279
106278
106277
106276
106274
106272
106269
106265
106262
106257
106253
106247
106242
106235
106228
106220
106213
106203
106196
106184
106176
106164
106156
106142
106136
106119
106113
106096
106091
106078
106074
106065
106063
106060
106061
106062
106065
106068
106076
106089
106097
106108
106123
106139
106155
106172
106192
106210
106229
106247
106265
106282
106298
106313
106327
106339
106350
106360
106369
106376
106383
106389
106394
106397
106400
106403
106404
106404
106404
106403
106402
106401
106397
106394
106391
106387
106380
106373
106368
106362
106356
106351
106346
106341
106335
106332
106328
106328
106329
106333
106353
106368
106378
106391
106406
106420
106439
106453
106469
106489
106510
106526
106546
106562
106573
106584
106592
106601
106607
106611
106613
106617
106617
106619
106616
106615
106613
106610
106606
106602
106597
106593
106587
106580
106574
106568
106561
106556
106548
106543
106534
106530
106521
106517
106509
106504
106496
106490
106482
106478
106470
106465
106456
106450
106441
106435
106426
106420
106411
106405
106396
106390
106381
106374
106364
106357
106348
106340
106330
106322
106312
106304
106294
106286
106278
106270
106262
106254
106247
106240
106233
106227
106221
106215
106210
106205
106201
106195
106192
106186
106183
106178
106175
106170
106167
106161
106157
106151
106146
106140
106134
106129
106123
106118
106111
106105
106098
106092
106085
106077
106070
106062
106055
106046
106039
106031
106023
106014
106007
105998
105989
105982
105975
105966
105959
105950
105942
105933
105923
105911
105900
105890
105875
105859
105846
105829
105815
105797
105783
105763
105748
105728
105712
105692
105674
105655
105638
105619
105600
105581
105562
105544
105525
105505
105485
105465
105444
105424
105402
105381
105359
105337
105314
105289
105267
105241
105216
105189
105162
105133
105105
105074
105044
105012
104980
104947
104915
104881
104847
104812
104778
104741
104704
104668
104632
104592
104556
104516
104479
104439
104401
104361
104323
104282
104243
104202
104162
104120
104079
104038
103996
103954
103912
103869
103826
103781
103738
103693
103649
103604
103559
103513
103469
103423
103379
103333
103288
103243
103199
103153
103110
103067
103024
102982
102941
102900
102859
102819
102780
102740
102702
102664
102626
102589
102553
102518
102483
102449
102415
102383
102351
102320
102290
102261
102233
102205
102178
102152
102128
102103
102080
102058
102037
102016
101996
101978
101960
101943
101927
101911
101897
101883
101871
101859
101848
101838
101828
101819
101812
101804
101798
101792
101787
101782
101779
101775
101774
101772
101771
101770
101770
101770
101771
101772
101774
101776
101779
101782
101785
101789
101794
101798
101803
101808
101814
101819
101825
101832
101838
101845
101851
101858
101865
101872
101879
101886
101893
101900
101907
101913
101920
101927
101933
101939
101946
101951
101957
101962
101968
101972
101977
101981
101984
101988
101991
101993
101995
101997
101998
101999
102000
101999
101999
101998
101996
101994
101991
101988
101984
101980
101975
101969
101963
101957
101949
101942
101933
101925
101915
101905
101894
101883
101872
101860
101847
101834
101821
101807
101792
101777
101762
101746
101730
101714
101697
101679
101661
101643
101624
101605
101586
101567
101547
101527
101506
101486
101465
101444
101423
101401
101380
101359
101335
106256
106256
106256
106256
106257
106257
106258
106258
106259
106260
106261
106262
106264
106265
106267
106268
106270
106271
106273
106274
106276
106276
106278
106278
106279
106279
106279
106279
106278
106277
106275
106274
106271
106269
106266
106262
106258
106253
106248
106242
106237
106228
106223
106213
106207
106195
106189
106175
106169
106154
106148
106132
106127
106107
106107
106086
106088
106073
106071
106064
106063
106061
106062
106064
106067
106074
106083
106093
106106
106121
106141
106157
106176
106193
106212
106228
106247
106263
106279
106295
106309
106322
106335
106346
106356
106365
106374
106380
106384
106388
106394
106399
106402
106403
106404
106405
106404
106403
106403
106400
106395
106388
106382
106378
106375
106371
106367
106363
106357
106351
106344
106341
106335
106332
106333
106336
106341
106348
106356
106370
106382
106398
106414
106418
106436
106451
106472
106489
106517
106536
106555
106571
106579
106591
106598
106606
106608
106614
106616
106617
106617
106616
106615
106613
106609
106606
106601
106598
106592
106587
106581
106574
106567
106562
106553
106550
106540
106537
106526
106525
106512
106514
106499
106500
106486
106487
106473
106474
106462
106458
106447
106443
106432
106428
106418
106413
106403
106399
106388
106383
106372
106366
106355
106350
106338
106331
106321
106313
106303
106295
106285
106278
106269
106261
106254
106246
106240
106233
106227
106220
106216
106209
106206
106199
106197
106190
106188
106182
106179
106174
106172
106165
106162
106156
106152
106145
106141
106135
106129
106124
106117
106111
106105
106099
106092
106085
106077
106070
106063
106054
106048
106038
106032
106022
106016
106005
105999
105988
105983
105973
105967
105958
105950
105941
105933
105923
105911
105898
105887
105872
105862
105846
105832
105814
105800
105780
105766
105745
105729
105708
105692
105670
105655
105634
105617
105598
105579
105561
105541
105523
105503
105485
105465
105446
105425
105405
105383
105362
105339
105316
105294
105267
105247
105216
105191
105162
105134
105104
105075
105044
105015
104982
104951
104917
104885
104850
104816
104780
104745
104707
104673
104633
104597
104556
104518
104478
104438
104399
104360
104319
104281
104239
104200
104159
104118
104077
104036
103993
103950
103908
103866
103821
103778
103732
103690
103644
103600
103554
103511
103464
103420
103374
103331
103285
103242
103198
103156
103111
103068
103026
102983
102940
102898
102857
102816
102776
102737
102698
102660
102622
102585
102548
102513
102478
102444
102411
102378
102346
102316
102286
102257
102228
102201
102174
102148
102123
102099
102076
102054
102032
102012
101992
101974
101956
101939
101923
101908
101893
101880
101867
101856
101844
101835
101824
101816
101808
101801
101794
101789
101783
101780
101775
101773
101770
101769
101767
101768
101767
101769
101768
101770
101771
101774
101776
101779
101783
101787
101791
101796
101801
101806
101811
101817
101823
101829
101836
101842
101849
101856
101863
101870
101877
101884
101890
101898
101904
101911
101917
101924
101931
101937
101943
101949
101954
101960
101965
101970
101974
101978
101982
101985
101988
101991
101993
101994
101996
101996
101997
101997
101996
101995
101993
101991
101988
101985
101981
101977
101972
101967
101960
101954
101946
101939
101931
101921
101912
101902
101892
101880
101869
101856
101844
101831
101818
101804
101789
101775
101759
101743
101727
101711
101694
101676
101658
101640
101621
101602
101583
101564
101544
101524
101503
101483
101462
101441
101420
101398
101377
101356
101333
106255
106255
106256
106256
106256
106257
106257
106258
106259
106260
106261
106262
106263
106265
106266
106268
106269
106271
106272
106274
106275
106276
106277
106278
106279
106279
106279
106279
106278
106277
106276
106274
106272
106269
106266
106263
106258
106254
106249
106244
106236
106231
106220
106218
106204
106201
106185
106182
106165
106160
106143
106140
106120
106117
106098
106094
106078
106074
106062
106059
106054
106052
106052
106054
106061
106071
106082
106096
106105
106116
106127
106144
106159
106181
106197
106220
106236
106259
106274
106294
106307
106324
106335
106348
106358
106367
106375
106381
106387
106393
106397
106400
106403
106405
106406
106406
106405
106404
106402
106397
106392
106388
106385
106381
106378
106373
106368
106361
106357
106346
106346
106335
106330
106327
106325
106328
106333
106343
106353
106369
106381
106395
106416
106434
106445
106469
106482
106504
106515
106535
106552
106569
106582
106587
106597
106604
106609
106611
106616
106616
106618
106617
106615
106612
106609
106604
106603
106596
106593
106586
106580
106573
106567
106559
106556
106546
106545
106530
106534
106515
106523
106502
106510
106489
106497
106474
106484
106465
106469
106452
106453
106436
106439
106422
106423
106408
106408
106394
106393
106379
106376
106362
106360
106346
106341
106329
106323
106311
106305
106293
106287
106277
106269
106262
106253
106246
106239
106233
106226
106221
106214
106211
106203
106202
106192
106193
106184
106185
106176
106177
106168
106169
106159
106158
106150
106147
106140
106134
106129
106123
106118
106112
106106
106099
106093
106085
106078
106071
106062
106056
106046
106040
106029
106024
106011
106008
105994
105992
105979
105976
105963
105959
105948
105945
105933
105924
105913
105901
105888
105876
105858
105847
105828
105815
105795
105782
105761
105747
105725
105711
105689
105674
105653
105636
105616
105598
105579
105560
105542
105523
105504
105484
105464
105444
105424
105403
105382
105360
105337
105314
105289
105269
105238
105217
105188
105161
105133
105105
105074
105045
105013
104981
104948
104916
104881
104848
104813
104778
104741
104706
104667
104632
104591
104556
104516
104479
104440
104401
104361
104324
104281
104243
104201
104162
104121
104079
104039
103997
103955
103912
103869
103827
103781
103738
103693
103650
103603
103560
103513
103470
103423
103379
103333
103288
103243
103199
103154
103110
103067
103024
102982
102941
102900
102860
102819
102780
102741
102702
102664
102626
102590
102554
102518
102483
102449
102416
102383
102352
102321
102291
102261
102233
102206
102179
102153
102129
102104
102081
102059
102038
102017
101998
101979
101962
101944
101929
101913
101899
101885
101873
101860
101850
101839
101830
101821
101814
101805
101800
101793
101789
101784
101781
101777
101776
101773
101774
101771
101773
101772
101775
101774
101777
101778
101781
101783
101788
101792
101796
101800
101805
101810
101816
101822
101828
101834
101840
101847
101854
101860
101867
101874
101881
101888
101895
101902
101909
101915
101922
101928
101935
101941
101948
101953
101959
101964
101969
101974
101978
101982
101986
101989
101992
101995
101997
101999
102000
102001
102001
102001
102000
101999
101998
101995
101993
101989
101985
101981
101976
101970
101965
101958
101951
101943
101934
101926
101916
101906
101896
101885
101873
101861
101848
101836
101821
101808
101794
101778
101763
101747
101732
101715
101698
101680
101662
101644
101625
101607
101587
101568
101548
101528
101507
101487
101466
101445
101423
101402
101381
101360
101336
106254
106254
106254
106255
106256
106256
106257
106257
106258
106259
106260
106261
106263
106264
106266
106267
106269
106270
106272
106273
106275
106276
106277
106278
106279
106279
106279
106279
106279
106278
106276
106275
106273
106270
106267
106263
106260
106254
106251
106243
106242
106229
106227
106214
106210
106196
106193
106176
106172
106155
106148
106133
106125
106110
106104
106088
106082
106069
106065
106058
106054
106050
106050
106054
106058
106061
106070
106083
106092
106111
106125
106144
106161
106179
106200
106217
106240
106254
106276
106289
106310
106319
106337
106345
106358
106366
106375
106382
106389
106394
106399
106401
106404
106406
106407
106408
106407
106406
106403
106399
106395
106393
106390
106386
106381
106376
106367
106363
106350
106349
106337
106331
106330
106322
106326
106324
106329
106332
106346
106348
106377
106390
106407
106427
106446
106457
106479
106493
106515
106531
106550
106563
106579
106585
106598
106601
106608
106608
106613
106615
106615
106613
106614
106609
106607
106604
106598
106597
106589
106585
106577
106572
106565
106560
106550
106551
106535
106540
106519
106530
106504
106520
106493
106505
106478
106493
106465
106478
106459
106462
106444
106447
106426
106433
106412
106417
106399
106402
106385
106388
106368
106371
106352
106353
106337
106332
106320
106314
106302
106296
106285
106278
106269
106260
106253
106246
106239
106232
106227
106219
106216
106207
106207
106196
106198
106186
106190
106178
106182
106170
106175
106162
106165
106154
106152
106145
106142
106135
106129
106124
106117
106112
106105
106099
106092
106085
106078
106070
106063
106053
106048
106037
106033
106017
106019
105999
106003
105982
105987
105966
105971
105951
105957
105939
105935
105922
105911
105900
105887
105872
105861
105843
105833
105813
105799
105778
105765
105742
105727
105705
105690
105669
105653
105633
105615
105596
105577
105559
105540
105522
105502
105484
105464
105444
105424
105404
105382
105361
105338
105314
105293
105265
105245
105214
105190
105162
105134
105104
105075
105043
105014
104981
104949
104915
104882
104847
104813
104777
104743
104704
104670
104629
104594
104553
104517
104478
104439
104401
104362
104321
104284
104240
104201
104162
104120
104079
104038
103996
103953
103911
103869
103822
103780
103734
103693
103647
103603
103556
103513
103466
103422
103375
103332
103286
103243
103198
103155
103111
103068
103025
102982
102940
102899
102858
102817
102778
102738
102699
102661
102623
102586
102549
102515
102480
102445
102412
102380
102348
102317
102287
102258
102229
102202
102175
102150
102124
102101
102077
102055
102034
102014
101993
101975
101957
101941
101924
101909
101894
101882
101868
101857
101845
101836
101825
101818
101809
101803
101795
101791
101784
101781
101776
101774
101770
101771
101767
101769
101767
101770
101768
101772
101771
101775
101775
101780
101783
101788
101792
101796
101801
101806
101812
101817
101823
101829
101836
101843
101849
101856
101863
101870
101877
101884
101891
101898
101904
101911
101917
101925
101931
101937
101943
101949
101954
101960
101965
101970
101974
101978
101982
101985
101988
101991
101993
101995
101996
101997
101997
101997
101996
101995
101993
101991
101988
101985
101981
101977
101972
101967
101960
101954
101947
101939
101931
101921
101912
101902
101892
101880
101869
101856
101845
101831
101818
101804
101790
101775
101759
101744
101728
101711
101694
101676
101658
101640
101622
101603
101583
101564
101544
101524
101504
101483
101462
101441
101420
101399
101377
101356
101333
106253
106253
106253
106253
106254
106255
106255
106257
106257
106258
106259
106261
106261
106263
106265
106267
106268
106270
106271
106273
106274
106275
106277
106278
106279
106279
106280
106280
106279
106278
106278
106276
106274
106272
106268
106267
106261
106257
106252
106248
106239
106236
106223
106221
106206
106203
106188
106182
106168
106159
106145
106135
106121
106111
106097
106087
106075
106064
106056
106049
106043
106038
106037
106039
106044
106053
106066
106068
106093
106097
106118
106134
106157
106172
106196
106214
106233
106253
106270
106290
106301
106322
106331
106347
106354
106367
106374
106383
106390
106396
106401
106404
106407
106409
106410
106410
106409
106408
106406
106404
106402
106398
106395
106389
106384
106375
106371
106357
106356
106342
106337
106332
106316
106321
106310
106316
106318
106329
106328
106360
106360
106387
106408
106427
106441
106463
106474
106495
106507
106530
106545
106564
106569
106586
106589
106601
106603
106610
106610
106612
106609
106617
106607
106610
106604
106599
106598
106590
106588
106580
106575
106568
106561
106554
106552
106540
106544
106523
106534
106508
106525
106497
106512
106486
106498
106467
106489
106459
106472
106448
106455
106433
106443
106416
106426
106405
106410
106393
106395
106377
106382
106358
106365
106345
106343
106329
106323
106311
106306
106292
106287
106276
106268
106261
106253
106245
106238
106233
106223
106222
106211
106211
106200
106202
106190
106195
106180
106187
106172
106179
106164
106173
106156
106161
106148
106147
106140
106135
106129
106124
106117
106111
106106
106098
106092
106085
106077
106070
106061
106055
106045
106041
106026
106027
106006
106013
105986
105998
105969
105983
105953
105969
105943
105948
105931
105924
105912
105900
105887
105877
105857
105847
105827
105815
105794
105780
105758
105744
105722
105707
105686
105669
105650
105632
105613
105594
105576
105557
105539
105520
105503
105482
105464
105444
105425
105403
105383
105361
105339
105316
105290
105271
105238
105219
105189
105162
105134
105106
105075
105046
105014
104983
104950
104918
104883
104850
104814
104780
104742
104708
104667
104633
104591
104556
104515
104477
104438
104399
104359
104321
104277
104240
104198
104158
104118
104077
104034
103994
103952
103910
103864
103825
103776
103736
103690
103647
103601
103559
103511
103468
103420
103378
103331
103288
103242
103199
103153
103110
103067
103024
102982
102940
102898
102858
102818
102778
102738
102700
102661
102624
102586
102551
102515
102480
102446
102413
102380
102349
102318
102288
102259
102230
102203
102176
102150
102126
102101
102079
102056
102036
102014
101996
101976
101959
101941
101926
101910
101896
101883
101870
101858
101847
101837
101828
101818
101811
101803
101798
101792
101787
101782
101779
101775
101774
101771
101772
101769
101772
101770
101774
101772
101777
101775
101780
101781
101786
101790
101794
101799
101803
101808
101814
101820
101826
101832
101839
101845
101852
101859
101866
101872
101879
101886
101893
101900
101907
101914
101921
101927
101934
101940
101946
101951
101957
101962
101968
101972
101977
101981
101985
101988
101991
101993
101996
101997
101998
101999
102000
101999
101999
101998
101996
101994
101991
101988
101984
101979
101975
101969
101963
101956
101949
101942
101933
101925
101914
101905
101894
101884
101871
101860
101847
101834
101820
101807
101793
101777
101762
101746
101730
101714
101697
101679
101661
101643
101624
101605
101586
101567
101547
101526
101506
101485
101464
101443
101422
101401
101380
101358
101335
106251
106253
106250
106252
106252
106253
106255
106254
106256
106257
106257
106259
106261
106262
106264
106265
106267
106268
106270
106272
106273
106275
106276
106278
106279
106280
106280
106281
106281
106280
106279
106278
106275
106274
106271
106267
106265
106258
106256
106248
106245
106236
106230
106220
106212
106202
106192
106181
106169
106157
106145
106131
106120
106104
106094
106079
106067
106057
106047
106041
106033
106030
106029
106031
106035
106042
106045
106067
106070
106094
106110
106129
106148
106172
106190
106212
106230
106251
106267
106287
106303
106316
106333
106342
106357
106364
106376
106383
106391
106396
106400
106404
106407
106409
106410
106411
106410
106410
106408
106407
106404
106401
106396
106392
106384
106379
106366
106363
106348
106343
106335
106316
106323
106304
106308
106305
106309
106308
106330
106326
106367
106372
106396
106419
106441
106452
106472
106485
106506
106523
106541
106553
106575
106571
106593
106585
106604
106601
106607
106607
106614
106601
106609
106600
106599
106596
106591
106587
106581
106576
106570
106564
106558
106552
106545
106543
106529
106535
106512
106526
106497
106518
106489
106503
106475
106493
106457
106482
106452
106466
106438
106448
106423
106436
106407
106419
106398
106405
106386
106389
106367
106375
106350
106356
106336
106334
106320
106314
106302
106297
106284
106277
106268
106260
106252
106245
106239
106230
106227
106216
106217
106204
106207
106194
106199
106184
106193
106175
106183
106167
106177
106156
106170
106148
106156
106144
106142
106134
106127
106121
106116
106112
106104
106098
106091
106083
106076
106068
106061
106052
106047
106034
106034
106015
106020
105994
106008
105975
105994
105957
105981
105946
105960
105937
105935
105924
105912
105899
105890
105872
105863
105840
105833
105808
105797
105775
105760
105740
105723
105704
105687
105667
105649
105631
105611
105595
105574
105557
105538
105520
105499
105483
105462
105442
105422
105402
105380
105360
105336
105314
105293
105262
105245
105213
105190
105162
105135
105105
105076
105044
105014
104981
104949
104914
104882
104846
104813
104775
104742
104701
104669
104625
104592
104551
104515
104476
104439
104400
104362
104317
104283
104237
104200
104159
104119
104076
104037
103993
103954
103908
103870
103820
103781
103734
103692
103646
103603
103556
103514
103464
103422
103376
103332
103286
103243
103197
103154
103109
103067
103024
102982
102940
102899
102858
102818
102778
102739
102699
102662
102623
102588
102550
102516
102480
102447
102413
102381
102349
102318
102288
102259
102230
102203
102176
102151
102126
102102
102078
102057
102035
102015
101995
101978
101958
101943
101925
101911
101896
101883
101870
101859
101847
101837
101827
101819
101811
101804
101797
101792
101786
101782
101778
101776
101773
101773
101770
101772
101769
101773
101770
101775
101773
101778
101777
101782
101785
101790
101794
101798
101803
101808
101814
101819
101826
101832
101838
101845
101851
101858
101865
101872
101879
101886
101893
101900
101906
101913
101920
101927
101933
101939
101945
101951
101956
101962
101967
101972
101976
101980
101984
101987
101990
101993
101995
101997
101998
101999
101999
101999
101998
101997
101995
101993
101990
101987
101983
101979
101974
101968
101962
101956
101948
101941
101933
101923
101914
101904
101894
101882
101871
101858
101847
101833
101820
101806
101792
101777
101761
101745
101730
101713
101696
101678
101660
101642
101624
101605
101585
101566
101546
101526
101505
101485
101464
101443
101422
101400
101379
101357
101335
106251
106247
106251
106248
106250
106251
106251
106253
106253
106255
106256
106257
106258
106260
106262
106264
106266
106267
106269
106271
106273
106274
106276
106277
106279
106280
106280
106281
106281
106281
106281
106280
106279
106277
106274
106271
106267
106263
106258
106252
106246
106238
106231
106221
106213
106202
106192
106180
106167
106156
106140
106131
106113
106102
106087
106073
106063
106046
106041
106027
106023
106016
106015
106016
106022
106024
106040
106043
106067
106078
106103
106118
106143
106161
106185
106206
106228
106247
106266
106283
106301
106315
106330
106344
106353
106367
106374
106384
106390
106397
106401
106406
106410
106412
106413
106414
106415
106415
106414
106412
106409
106404
106400
106393
106387
106376
106372
106356
106351
106341
106327
106323
106304
106301
106295
106294
106293
106307
106302
106342
106337
106375
106390
106417
106430
106452
106465
106482
106500
106520
106533
106555
106553
106580
106567
106593
106585
106600
106599
106601
106598
106602
106593
106597
106592
106589
106585
106579
106576
106569
106564
106558
106552
106547
106540
106533
106531
106517
106524
106502
106516
106488
106507
106478
106495
106462
106489
106447
106474
106443
106457
106430
106441
106415
106429
106398
106414
106390
106400
106377
106382
106358
106368
106344
106345
106329
106322
106311
106306
106293
106286
106275
106269
106259
106252
106245
106237
106233
106222
106223
106209
106212
106199
106203
106189
106197
106178
106190
106170
106181
106160
106175
106149
106165
106143
106149
106136
106133
106127
106121
106116
106109
106104
106096
106090
106082
106075
106067
106060
106052
106043
106038
106024
106027
106004
106014
105983
106001
105964
105989
105949
105972
105941
105949
105930
105924
105911
105904
105884
105880
105855
105850
105823
105815
105794
105778
105759
105741
105721
105703
105685
105666
105648
105626
105611
105589
105572
105553
105535
105516
105500
105479
105463
105442
105424
105402
105383
105361
105339
105316
105291
105272
105239
105220
105190
105163
105135
105107
105076
105047
105015
104985
104950
104919
104882
104851
104813
104781
104739
104709
104664
104634
104588
104555
104513
104475
104436
104398
104354
104320
104272
104237
104192
104157
104113
104075
104030
103991
103946
103908
103857
103821
103773
103734
103686
103644
103597
103556
103507
103465
103419
103376
103329
103286
103240
103198
103153
103110
103066
103024
102981
102939
102898
102857
102816
102777
102737
102699
102660
102623
102585
102551
102513
102479
102445
102412
102379
102347
102316
102287
102257
102229
102201
102175
102149
102124
102100
102078
102054
102034
102012
101994
101974
101958
101939
101925
101908
101895
101881
101869
101856
101846
101835
101826
101817
101810
101802
101796
101789
101786
101780
101777
101773
101773
101769
101770
101767
101770
101767
101772
101770
101775
101773
101778
101778
101783
101788
101793
101797
101802
101807
101812
101818
101824
101831
101837
101844
101850
101857
101864
101871
101878
101884
101892
101898
101906
101912
101919
101925
101932
101938
101944
101950
101956
101961
101966
101970
101975
101979
101983
101986
101990
101992
101994
101996
101997
101998
101998
101998
101998
101996
101995
101992
101990
101986
101982
101978
101973
101968
101962
101955
101948
101940
101932
101923
101913
101903
101893
101882
101870
101858
101845
101833
101819
101805
101791
101776
101761
101745
101729
101712
101695
101678
101660
101642
101623
101604
101585
101565
101545
101525
101505
101484
101463
101442
101421
101400
101378
101357
101334
106247
106250
106244
106249
106247
106248
106250
106250
106251
106252
106253
106255
106256
106258
106260
106262
106263
106265
106267
106269
106272
106274
106275
106277
106279
106280
106282
106283
106284
106284
106284
106283
106281
106280
106276
106274
106269
106265
106259
106255
106247
106241
106232
106223
106213
106203
106192
106179
106168
106153
106143
106124
106111
106097
106081
106068
106048
106043
106022
106019
106009
106006
106003
106004
106004
106015
106016
106040
106050
106072
106089
106114
106132
106159
106178
106203
106223
106244
106262
106283
106298
106315
106329
106343
106355
106365
106376
106383
106390
106397
106402
106407
106410
106413
106415
106416
106417
106417
106416
106414
106411
106408
106401
106395
106387
106380
106367
106361
106348
106337
106328
106311
106304
106294
106289
106284
106288
106288
106311
106309
106352
106353
106384
106406
106431
106438
106464
106477
106496
106516
106530
106540
106565
106553
106583
106564
106590
106584
106593
106591
106594
106589
106590
106587
106585
106582
106576
106573
106567
106562
106556
106550
106545
106538
106533
106528
106521
106518
106506
106511
106492
106505
106480
106494
106467
106485
106452
106480
106440
106463
106435
106447
106422
106433
106406
106424
106390
106409
106381
106393
106367
106377
106350
106359
106338
106333
106321
106314
106303
106294
106286
106277
106267
106260
106252
106245
106239
106231
106228
106216
106218
106204
106208
106193
106200
106183
106195
106172
106188
106163
106180
106152
106172
106143
106159
106137
106141
106129
106124
106120
106114
106108
106101
106095
106087
106080
106073
106066
106057
106050
106042
106034
106029
106014
106018
105993
106005
105974
105995
105957
105980
105947
105963
105935
105940
105921
105917
105898
105896
105870
105868
105841
105831
105810
105794
105775
105756
105739
105720
105702
105683
105666
105643
105630
105605
105590
105570
105552
105534
105516
105496
105481
105458
105440
105420
105401
105379
105359
105336
105314
105294
105262
105247
105214
105192
105163
105136
105106
105077
105045
105015
104981
104950
104914
104883
104845
104815
104774
104743
104698
104669
104623
104592
104549
104514
104473
104437
104396
104361
104312
104281
104233
104197
104154
104117
104073
104033
103989
103952
103902
103866
103816
103779
103730
103689
103642
103600
103553
103510
103463
103420
103374
103330
103284
103241
103196
103152
103108
103065
103022
102980
102939
102898
102857
102817
102777
102738
102699
102662
102623
102588
102550
102516
102480
102447
102413
102381
102349
102319
102288
102259
102231
102203
102176
102151
102126
102102
102078
102057
102035
102016
101995
101978
101958
101943
101925
101912
101896
101884
101870
101859
101847
101837
101827
101819
101811
101804
101797
101792
101786
101783
101778
101777
101773
101773
101771
101772
101770
101773
101770
101775
101773
101779
101777
101782
101784
101790
101794
101799
101804
101809
101814
101820
101826
101832
101839
101845
101852
101859
101866
101873
101879
101887
101893
101901
101907
101914
101920
101928
101933
101940
101945
101952
101957
101963
101967
101973
101977
101981
101985
101988
101991
101994
101996
101998
101999
101999
102000
102000
101999
101998
101996
101994
101991
101988
101984
101980
101974
101969
101963
101957
101949
101942
101934
101924
101915
101905
101895
101883
101872
101859
101848
101834
101821
101807
101793
101778
101762
101747
101731
101714
101697
101679
101662
101643
101625
101606
101587
101567
101547
101527
101506
101486
101465
101444
101423
101401
101380
101358
101335
106247
106241
106248
106242
106245
106245
106246
106247
106248
106249
106251
106252
106254
106256
106258
106260
106262
106264
106267
106269
106271
106273
106275
106277
106279
106280
106281
106283
106283
106284
106284
106283
106282
106280
106278
106275
106272
106267
106262
106257
106250
106243
106234
106225
106215
106204
106192
106181
106166
106155
106135
106122
106108
106093
106076
106057
106047
106025
106019
106005
105997
105991
105987
105986
105994
105992
106015
106018
106042
106059
106083
106102
106130
106150
106177
106195
106221
106240
106260
106278
106298
106312
106329
106342
106354
106366
106375
106383
106391
106398
106404
106409
106413
106416
106418
106420
106421
106421
106419
106417
106414
106409
106404
106397
106389
106379
106371
106356
106349
106336
106321
106312
106298
106291
106281
106281
106279
106292
106291
106325
106322
106362
106374
106403
106418
106444
106451
106473
106491
106506
106524
106546
106540
106570
106551
106580
106566
106586
106580
106585
106583
106582
106581
106579
106577
106572
106568
106563
106558
106553
106547
106542
106536
106530
106524
106519
106513
106509
106503
106494
106496
106481
106491