/*--------------------------------*- C++ -*----------------------------------*\
| =========                 |                                                 |
| \\      /  F ield         | OpenFOAM: The Open Source CFD Toolbox           |
|  \\    /   O peration     | Version:  v1812                                 |
|   \\  /    A nd           | Web:      www.OpenFOAM.com                      |
|    \\/     M anipulation  |                                                 |
\*---------------------------------------------------------------------------*/
FoamFile
{
    version     2.0;
    format      ascii;
    class       surfaceScalarField;
    location    "1";
    object      phi;
}
// * * * * * * * * * * * * * * * * * * * * * * * * * * * * * * * * * * * * * //

dimensions      [1 0 -1 0 0 0 0];
oriented        oriented;


internalField   nonuniform List<scalar> 
40240
(
-1.87562e-05
-1.09154e-05
-2.03903e-05
-2.76719e-05
-3.97837e-05
-9.55988e-06
-5.89993e-05
-8.9954e-06
-0.000126138
3.72735e-05
-0.000197162
4.10347e-05
-0.000310289
8.44033e-05
-0.000412308
7.27874e-05
-0.000537245
9.59335e-05
-0.000649379
8.16729e-05
-0.000779214
9.90149e-05
-0.000892955
8.25224e-05
-0.00101349
8.77756e-05
-0.00112104
7.40564e-05
-0.00122314
6.76163e-05
-0.00131664
5.78057e-05
-0.00139812
4.42764e-05
-0.00147017
3.44671e-05
-0.00152694
1.71345e-05
-0.00157604
8.96255e-06
-0.00160212
-1.52406e-05
-0.00161916
-2.50159e-05
-0.00161946
-4.31829e-05
-0.001608
-5.59636e-05
-0.00158833
-6.53738e-05
-0.00155877
-7.60373e-05
-0.00152881
-7.70372e-05
-0.00149634
-7.99515e-05
-0.00146703
-7.71446e-05
-0.00144676
-6.84258e-05
-0.0014361
-5.97743e-05
-0.00143216
-5.35789e-05
-0.00145027
-3.13461e-05
-0.0014734
-2.59404e-05
-0.00153778
1.22999e-05
-0.00159907
1.06993e-05
-0.00172679
7.5595e-05
-0.00184805
6.83678e-05
-0.002045
0.000147342
-0.00224629
0.00014497
-0.00252909
0.000236027
-0.00281823
0.000238739
-0.00323077
0.000361092
-0.00361386
0.000336104
-0.00417111
0.000506414
-0.00468592
0.00046774
-0.00541121
0.00067375
-0.00608933
0.000630878
-0.0070079
0.000866577
-0.00785934
0.000806564
-0.00895799
0.00104718
-0.00999709
0.00100113
-0.0112561
0.00122517
-0.0125492
0.00124882
-0.0139778
0.00138829
-0.0155239
0.00151612
-0.0171185
0.00156409
-0.0188984
0.0017418
-0.0206443
0.00170875
-0.0224345
0.00176176
-0.0240842
0.00162187
-0.025578
0.00146829
-0.0267621
0.00116117
-0.027582
0.000799034
-0.0279836
0.000382199
-0.028025
2.56136e-05
-0.0278044
-0.000239678
-0.0273517
-0.00046924
-0.026829
-0.000536161
-0.0261604
-0.000678574
-0.0252722
-0.00089541
-0.0242784
-0.000998671
-0.0231034
-0.00117938
-0.0218599
-0.00124768
-0.0204413
-0.00142183
-0.0190132
-0.00143093
-0.0174813
-0.00153492
-0.0159561
-0.00152962
-0.0144019
-0.00155597
-0.012845
-0.00155687
-0.0112854
-0.00155854
-0.00975345
-0.00153039
-0.00825825
-0.00149292
-0.00682466
-0.0014301
-0.00547297
-0.00134702
-0.0042033
-0.00126384
-0.00302348
-0.00117256
-0.00191391
-0.00110088
-0.00089593
-0.00100802
-2.7019e-05
-0.000857655
0.000676786
-0.000691543
0.00124489
-0.000554604
0.00175447
-0.000495205
0.00221444
-0.000444751
0.0026138
-0.00038317
0.00294708
-0.000316223
0.00320339
-0.00023881
0.00338675
-0.000165578
0.00351463
-0.000110349
0.00358262
-5.06397e-05
0.00359258
7.69711e-06
0.00358577
2.48539e-05
0.00351868
8.46734e-05
0.00324291
0.000292213
0.00273633
0.000523827
0.0020274
0.000726281
0.00108673
0.000956786
-9.89258e-05
0.00120159
-0.00140008
0.00131662
-0.00274648
0.00136185
-0.00413154
0.00140096
-0.00554063
0.0014248
-0.00691432
0.00138968
-0.00823338
0.00133594
-0.0093134
0.00109678
-0.0100546
0.000758358
-0.0103498
0.000313303
-0.0102693
-5.39258e-05
-0.00967144
-0.000576986
-0.00871086
-0.000944017
-0.00748213
-0.00121282
-0.00621256
-0.00125619
-0.0049737
-0.00122795
-0.00369286
-0.00126914
-0.00261679
-0.00106346
-0.00169252
-0.00091122
-0.000779546
-0.000900468
-0.000213852
-0.00054799
0.000713762
-0.000911532
0.00154999
-0.000830889
0.00262974
-0.00107319
0.00360516
-0.0009759
0.00459727
-0.000985179
0.00547587
-0.00088728
0.00646449
-0.000980534
0.00736459
-0.000897546
0.00827735
-0.000906402
0.00913942
-0.000859655
0.00995738
-0.000823792
0.0107338
-0.000788344
0.0114641
-0.000749065
0.0121335
-0.000682623
0.0127233
-0.000610521
0.0132888
-0.000583355
0.0137264
-0.000463612
0.0141641
-0.000456538
0.0144421
-0.000306174
0.0146968
-0.000278676
0.0147802
-0.000114019
0.0148328
-8.05963e-05
0.0147977
4.25867e-06
0.0147034
6.15663e-05
0.0145082
0.000162503
0.0142772
0.000195352
0.0139627
0.000277699
0.013618
0.000306661
0.0132299
0.000349089
0.0127788
0.000410778
0.0123634
0.000373234
0.0118807
0.000438715
0.0114713
0.000363472
0.0109958
0.000428513
0.0106005
0.000348316
0.0101385
0.000416438
0.00977914
0.000315924
0.0093553
0.000382946
0.00903379
0.000281824
0.00866441
0.000330603
0.00836425
0.000261548
0.00801303
0.000313818
0.00775856
0.000217099
0.00745216
0.000271731
0.00724708
0.000171054
0.00700533
0.000208208
0.0068551
0.000116714
0.00667911
0.000141143
0.00658379
5.9968e-05
0.00645184
9.32297e-05
0.00635582
5.68881e-05
0.00621221
0.000104702
0.00608919
8.55743e-05
0.00592624
0.000127195
0.00580333
8.93588e-05
0.00565496
0.000117134
0.00550221
0.000121706
0.00532731
0.000147018
0.00517688
0.000124721
0.00500193
0.000147643
0.00486368
0.000113513
0.00470327
0.000135272
0.00456847
0.000111384
0.00442995
0.000114092
0.00432856
7.90053e-05
0.00421794
8.89835e-05
0.00416443
3.35303e-05
0.00411663
2.92303e-05
0.00410222
-1.73068e-06
0.00410523
-1.76005e-05
0.00415563
-6.3602e-05
0.00422888
-8.51644e-05
0.00435557
-0.000138151
0.00451192
-0.000165373
0.00471022
-0.00020638
0.0049472
-0.000240848
0.00520551
-0.000259979
0.00550173
-0.000297143
0.00581513
-0.000313863
0.0061707
-0.000351116
0.00654049
-0.000360528
0.00694958
-0.000398555
0.00735644
-0.000390238
0.00778312
-0.000407862
0.00818197
-0.000382647
0.00858899
-0.000382585
0.00892791
-0.000311046
0.00923213
-0.000286993
0.00950899
-0.000250083
0.00979859
-0.000258436
0.0100724
-0.000241479
0.0103616
-0.000250126
0.0106051
-0.000194994
0.0108204
-0.000174231
0.0109603
-8.61799e-05
0.0110813
-5.87708e-05
0.0111106
3.48332e-05
0.0111278
5.51604e-05
0.0110924
0.000112509
0.0110091
0.000165929
0.010899
0.000196716
0.0107317
0.000258523
0.0105552
0.00027049
0.0103758
0.000277501
0.0101842
0.000290521
0.0100359
0.000248575
0.00987501
0.000261161
0.00978232
0.000193119
0.00968012
0.000202087
0.00967049
0.000110704
0.00966401
0.000108048
0.00970013
6.51848e-05
0.00981422
-1.2446e-05
0.00997787
-6.2891e-05
0.0101984
-0.000118968
0.0104798
-0.000179207
0.0107581
-0.00017597
0.0110133
-0.000150304
0.0111869
-6.34205e-05
0.0112732
2.3835e-05
0.0112929
9.34557e-05
0.0112017
0.00020707
0.0110732
0.000244632
0.0108465
0.000346274
0.0105293
0.000436299
0.0101935
0.000461313
0.00977683
0.000540014
0.0094585
0.000445263
0.00908262
0.00050343
0.00882584
0.000385886
0.00850772
0.000450063
0.00830342
0.000335704
0.00804014
0.000398291
0.00787056
0.000307656
0.00766928
0.000339964
0.00752162
0.000290787
0.00737237
0.000295442
0.0072841
0.000234967
0.00719323
0.00024296
0.00713438
0.000212793
0.00708343
0.000206186
0.00706761
0.000172567
0.00708246
0.000143301
0.00715385
8.92996e-05
0.00727733
3.893e-05
0.00745776
-1.48126e-05
0.00768046
-5.48925e-05
0.00791803
-6.75754e-05
0.00815669
-6.80438e-05
0.00835985
-2.96934e-05
0.00855342
-1.80262e-05
0.00867206
5.63819e-05
0.00878395
6.87486e-05
0.00885105
0.000112858
0.00893814
9.50505e-05
0.00899863
0.000122833
0.00910496
7.87418e-05
0.00920172
8.88232e-05
0.00931468
7.33569e-05
0.0094647
3.96019e-05
0.00958551
6.89219e-05
0.00975956
1.68189e-05
0.0099056
4.62922e-05
0.0100807
1.77205e-05
0.0102151
6.06412e-05
0.0103511
5.96228e-05
0.0104414
0.00010466
0.0105398
9.81882e-05
0.0105945
0.000142193
0.0106605
0.00013195
0.0106899
0.00017189
0.0107391
0.000152141
0.0107379
0.000202763
0.0107689
0.000170542
0.0107876
0.000183724
0.010834
0.00015542
0.0109491
8.56088e-05
0.0110881
6.18017e-05
0.0113591
-7.37499e-05
0.0116501
-9.17025e-05
0.0119855
-0.000136508
0.012358
-0.000169692
0.0127463
-0.000192492
0.013162
-0.000208562
0.013613
-0.000249957
0.0140774
-0.000266003
0.0145902
-0.000313946
0.0151278
-0.000336508
0.015668
-0.000337713
0.0161876
-0.00032309
0.0167099
-0.000312166
0.0172318
-0.000327468
0.0177117
-0.000277262
0.0181962
-0.000281055
0.0185751
-0.000180384
0.0189614
-0.000182716
0.0192838
-0.000121345
0.0196204
-0.000135056
0.0198713
-5.13719e-05
0.0201221
-5.06464e-05
0.0202798
4.72909e-05
0.0204473
3.37402e-05
0.0205208
0.000131887
0.0206392
8.22463e-05
0.0206886
0.000149558
0.0207871
9.79798e-05
0.0208681
0.000114309
0.0209713
9.14076e-05
0.0210527
0.000113389
0.0211369
0.000108971
0.02121
0.000120792
0.0213064
9.63147e-05
0.0214366
6.24389e-05
0.0215805
4.75292e-05
0.0217594
1.10625e-05
0.0219352
1.31036e-05
0.0221161
5.98885e-06
0.022284
1.72468e-05
0.0224391
2.81888e-05
0.0225779
4.26949e-05
0.0227
5.7542e-05
0.0228134
6.4232e-05
0.0229098
7.91224e-05
0.023002
8.0748e-05
0.0230858
8.61432e-05
0.0231655
8.77541e-05
0.0232385
9.14777e-05
0.0233112
8.94223e-05
0.0233809
8.98659e-05
0.023448
8.98097e-05
0.0235128
8.93292e-05
0.0235752
8.9123e-05
0.0236331
9.12932e-05
0.0236929
8.68954e-05
0.0237485
8.86799e-05
0.0238079
8.23087e-05
0.0238627
8.43022e-05
0.0239216
7.75102e-05
0.023975
8.01463e-05
0.0240356
6.99585e-05
0.0240912
7.20478e-05
0.0241551
6.03796e-05
0.0242155
6.08556e-05
0.0242853
4.79062e-05
0.024352
4.84299e-05
0.0244225
4.12627e-05
0.0244821
4.95687e-05
0.0245412
4.66821e-05
0.0245862
5.79194e-05
0.0246353
4.97783e-05
0.0246721
5.83836e-05
0.0247142
4.99878e-05
0.0247491
5.22498e-05
0.0247951
3.73384e-05
0.0248318
4.2716e-05
0.0248794
2.86844e-05
0.0249165
3.56351e-05
0.024965
2.12808e-05
0.0250006
3.1072e-05
0.0250481
1.69012e-05
0.0250826
2.77318e-05
0.025127
1.5878e-05
0.0251574
2.73962e-05
0.0251937
1.86654e-05
0.0252152
3.11909e-05
0.0252435
2.09271e-05
0.0252547
3.54453e-05
0.0252747
2.42786e-05
0.0252819
3.62966e-05
0.0252985
2.63142e-05
0.0253043
3.55617e-05
0.0253177
2.61531e-05
0.0253187
3.64458e-05
0.025328
2.70122e-05
0.0253267
3.54921e-05
0.0253329
2.66056e-05
0.0253283
3.46994e-05
0.0253322
2.33348e-05
0.0253271
2.9349e-05
0.0253269
2.15081e-05
0.0253209
2.446e-05
0.0253178
2.04578e-05
0.0253115
2.20444e-05
0.0253053
1.95035e-05
0.025297
1.92205e-05
0.0252858
1.98541e-05
0.025274
1.86544e-05
0.0252588
1.99697e-05
0.0252443
1.73618e-05
0.0252291
1.56278e-05
0.0252154
1.21326e-05
0.0252014
1.02067e-05
0.0251857
9.67783e-06
0.0251683
9.38889e-06
0.0251498
8.18688e-06
0.0251281
9.3035e-06
0.0251055
8.15927e-06
0.0250826
6.39228e-06
0.0250572
6.86047e-06
0.0250348
2.13823e-06
0.0250087
4.31757e-06
0.0249844
1.22608e-06
0.0249568
2.87015e-06
0.0249305
9.75505e-08
0.0249005
2.282e-06
0.0248723
-5.76598e-07
0.02484
1.66472e-06
0.0248081
-2.4711e-07
0.0247744
1.54554e-06
0.0247412
-2.71024e-07
0.0247075
-6.08316e-07
0.0246763
-4.38156e-06
0.0246457
-5.59779e-06
0.0246176
-8.65765e-06
0.0245887
-8.43589e-06
0.0245615
-1.02833e-05
0.0245318
-8.31262e-06
0.0245019
-8.6314e-06
0.0244725
-8.37613e-06
0.024444
-9.66847e-06
0.0244146
-1.05232e-05
0.0243863
-1.2344e-05
0.0243562
-1.05915e-05
0.0243288
-1.42112e-05
0.0242993
-1.25869e-05
0.0242701
-1.36947e-05
0.0242394
-1.20749e-05
0.0242128
-1.65767e-05
0.0241832
-1.37e-05
0.0241608
-2.13167e-05
0.0241345
-1.74829e-05
0.0241129
-2.2842e-05
0.0240866
-1.8295e-05
0.0240645
-2.27218e-05
0.0240383
-1.86031e-05
0.0240179
-2.39525e-05
0.0239881
-1.4439e-05
0.0239683
-2.41577e-05
0.0239429
-1.87669e-05
0.0239162
-1.70758e-05
0.0238953
-2.09465e-05
0.0238698
-1.5729e-05
0.0238532
-2.40195e-05
0.0238304
-1.74022e-05
0.0238149
-2.42098e-05
0.0237952
-1.90773e-05
0.0237828
-2.53542e-05
0.0237626
-1.772e-05
0.023755
-2.7886e-05
0.0237366
-1.45615e-05
0.0237202
-1.84929e-05
0.0237017
-1.47673e-05
0.0236855
-1.48243e-05
0.0236747
-1.83781e-05
0.0236591
-1.04695e-05
0.0236503
-1.68376e-05
0.0236395
-1.39562e-05
0.0236305
-1.36352e-05
0.0236233
-1.39802e-05
0.0236168
-1.3676e-05
0.0236138
-1.5405e-05
0.0236106
-1.30597e-05
0.0236087
-1.26913e-05
0.0236084
-1.24872e-05
0.023609
-1.17168e-05
0.0236105
-1.10777e-05
0.0236131
-1.08467e-05
0.0236172
-1.06062e-05
0.023623
-1.05304e-05
0.0236308
-1.01995e-05
0.0236428
-1.12805e-05
-1.7728e-05
-2.58364e-05
-1.51306e-05
-8.40937e-05
1.19043e-06
-0.000127784
6.79567e-06
-0.000269847
0.000104282
-0.000418476
0.000155904
-0.000705978
0.000299574
-0.000972223
0.000320924
-0.00130275
0.000376565
-0.00160074
0.000365315
-0.00193651
0.00038581
-0.00223331
0.000366374
-0.00254126
0.000358348
-0.00281628
0.000331989
-0.00308173
0.000305405
-0.00331997
0.000272288
-0.00353275
0.000235002
-0.00372657
0.00020189
-0.00388417
0.000153546
-0.00402694
0.000121466
-0.00412013
6.14792e-05
-0.00420457
2.86132e-05
-0.00423968
-3.17351e-05
-0.00425669
-6.92647e-05
-0.00424838
-0.00010857
-0.0042222
-0.000137176
-0.00418928
-0.000155372
-0.00414292
-0.00017047
-0.00410118
-0.000169143
-0.00406927
-0.00015709
-0.00405226
-0.000133936
-0.00405109
-0.000109701
-0.00409718
-5.66696e-05
-0.00415433
-2.35245e-05
-0.00428912
5.90188e-05
-0.00442458
0.000102342
-0.00468642
0.000217706
-0.00494182
0.000282622
-0.00536263
0.000436976
-0.00576412
0.000489033
-0.0063618
0.000699244
-0.00691326
0.000735343
-0.00772583
0.00100877
-0.00848784
0.0010698
-0.00953498
0.00133652
-0.0104992
0.00141511
-0.0118154
0.00174166
-0.0129849
0.00179343
-0.0146077
0.00219884
-0.0159888
0.00220348
-0.0178645
0.00261515
-0.0194353
0.00259193
-0.0214036
0.00291849
-0.0232195
0.0030088
-0.0251503
0.00314042
-0.0271951
0.00339729
-0.0290565
0.00334196
-0.0311391
0.00361196
-0.0328951
0.0034637
-0.0347548
0.00353458
-0.0362491
0.00322634
-0.0376135
0.0029567
-0.0386643
0.00249455
-0.039472
0.00194565
-0.0400074
0.00131409
-0.040297
0.000653157
-0.0403326
4.45988e-05
-0.0400796
-0.000510588
-0.0396391
-0.000926772
-0.0388827
-0.00130624
-0.0379327
-0.00164124
-0.0367351
-0.00210177
-0.0352434
-0.00249923
-0.0336712
-0.00275656
-0.0318512
-0.00307195
-0.0299707
-0.00330528
-0.0279249
-0.00348018
-0.0258164
-0.00364568
-0.023616
-0.00373545
-0.0213748
-0.00379821
-0.0190948
-0.0038372
-0.0167948
-0.00385789
-0.0145187
-0.003805
-0.0122346
-0.00377453
-0.010017
-0.00364396
-0.00783671
-0.00352252
-0.0057573
-0.00333726
-0.00380293
-0.00311978
-0.00206619
-0.0028292
-0.000578535
-0.00248631
0.000734789
-0.00215968
0.00201045
-0.00195452
0.00324168
-0.00177226
0.00434772
-0.00158705
0.00527523
-0.00135715
0.006032
-0.00112381
0.00663189
-0.000899001
0.00707556
-0.000664958
0.00737294
-0.00044508
0.00752761
-0.000246866
0.00753092
-3.68615e-05
0.0073965
0.000158822
0.00701155
0.000425639
0.00637985
0.000733736
0.00545876
0.00123184
0.00416729
0.00183365
0.00260447
0.00230711
0.00098273
0.00259601
-0.000644058
0.0028442
-0.00238134
0.00306745
-0.00416352
0.00316101
-0.0059308
0.00318216
-0.00748704
0.00299651
-0.00883081
0.00274936
-0.00979854
0.00231986
-0.010408
0.00172362
-0.0106934
0.00106256
-0.0108176
0.000453612
-0.0107426
-0.000111003
-0.0105373
-0.000763413
-0.0097667
-0.00169554
-0.00851834
-0.00244518
-0.00673834
-0.00302125
-0.00482397
-0.00312753
-0.0034473
-0.00263082
-0.00234831
-0.00214701
-0.00110507
-0.00214409
1.55203e-05
-0.00200717
0.00191245
-0.00243894
0.00383608
-0.00281976
0.00647008
-0.00345482
0.00883113
-0.00342776
0.0112986
-0.00341455
0.0135238
-0.00323014
0.0157486
-0.00311101
0.0178351
-0.00304946
0.0199279
-0.00300446
0.0218905
-0.00284035
0.0237437
-0.0027305
0.0255456
-0.00261908
0.0271477
-0.00241077
0.0287292
-0.00234235
0.0301153
-0.00209069
0.0314782
-0.00198176
0.0325878
-0.00171074
0.0336753
-0.00156331
0.034488
-0.00129274
0.03529
-0.00113442
0.0357356
-0.000762385
0.0361855
-0.000583333
0.0363307
-0.000255951
0.0363986
-9.55376e-05
0.036282
0.00014655
0.0360715
0.000338901
0.0356389
0.000593041
0.035153
0.000725793
0.0345153
0.000906098
0.0337634
0.00106187
0.03298
0.00115345
0.0320535
0.00125692
0.0311819
0.00126638
0.0301818
0.00131788
0.0292765
0.00128664
0.0282437
0.00133451
0.0273526
0.00126213
0.0263311
0.00129305
0.0254848
0.00118819
0.024543
0.00118341
0.023723
0.00111346
0.02281
0.00113306
0.0220635
0.0010213
0.0212095
0.00103622
0.0205811
0.000863987
0.0198556
0.000861993
0.0193398
0.000692305
0.0187489
0.000672065
0.0183579
0.000496678
0.0179097
0.000474433
0.0175793
0.000385692
0.0171727
0.000424564
0.0168225
0.000415361
0.0163868
0.000483461
0.0160324
0.000444821
0.0156131
0.000476733
0.015228
0.000466481
0.0147907
0.000532814
0.0143848
0.000524259
0.0139405
0.000541831
0.0135807
0.000481379
0.01318
0.000488838
0.0128616
0.000429994
0.0125174
0.000429457
0.0122434
0.000367225
0.0119644
0.000331844
0.0118194
0.000212807
0.0116477
0.000184531
0.0115931
6.52007e-05
0.0115776
-1.7371e-06
0.0116491
-0.000103708
0.011769
-0.000196558
0.0120181
-0.000347623
0.0123214
-0.00045198
0.0127355
-0.000589466
0.0132193
-0.000696136
0.0137829
-0.000809999
0.0144071
-0.000887944
0.0150968
-0.00099069
0.0158479
-0.00105949
0.0166332
-0.00114128
0.017489
-0.00120329
0.0183476
-0.00125493
0.0192589
-0.00127557
0.0201524
-0.00127431
0.021047
-0.00126491
0.0218796
-0.001183
0.0226302
-0.00105449
0.0233034
-0.000940638
0.0239665
-0.000888544
0.0245853
-0.00084753
0.0252231
-0.000844451
0.0257812
-0.000780786
0.0263593
-0.000726351
0.0268108
-0.00056486
0.0272273
-0.000459966
0.0274493
-0.000221976
0.0276627
-0.000111984
0.0277177
7.10046e-05
0.027708
0.000198513
0.0276101
0.000345176
0.0273854
0.000507978
0.0271353
0.000599122
0.026788
0.000712304
0.0263997
0.000762563
0.0260469
0.000743111
0.0256217
0.000774644
0.025318
0.000665953
0.0249584
0.00065497
0.0247535
0.000507679
0.0244991
0.00046598
0.0244001
0.000307429
0.0243112
0.000255322
0.0243505
5.12205e-05
0.0244137
-2.39676e-05
0.0245661
-0.000169844
0.0247199
-0.000230969
0.0249096
-0.000263492
0.0250192
-0.000152279
0.0250576
7.87162e-06
0.0249579
0.000229939
0.0246684
0.000497055
0.0242423
0.00074776
0.023715
0.000888818
0.0230423
0.00113616
0.0223917
0.00121584
0.0215673
0.00140194
0.0208463
0.00138511
0.019975
0.00144466
0.0193211
0.00128524
0.0184967
0.00133507
0.0179458
0.0011361
0.0172529
0.00115747
0.0167816
0.00100245
0.0162316
0.000997055
0.0158532
0.00085581
0.0154401
0.000848402
0.0151817
0.000701163
0.0149035
0.000660508
0.0147802
0.00051845
0.0146424
0.000507173
0.0146182
0.00038552
0.0146252
0.000320459
0.0147369
0.000190816
0.014871
0.000114794
0.0151331
-5.82195e-05
0.015415
-0.000135021
0.0157752
-0.000246685
0.0161511
-0.000276236
0.0165433
-0.000291499
0.0169329
-0.00024299
0.0172672
-0.000177361
0.0176019
-0.000101365
0.0178237
2.01795e-05
0.0181341
-1.60198e-05
0.0183085
0.000101402
0.0185753
3.95786e-05
0.018797
4.00732e-05
0.0189956
7.50809e-05
0.0192417
1.66483e-05
0.0194378
2.98113e-05
0.0196731
2.55168e-05
0.0198713
7.44822e-06
0.0201013
8.46317e-06
0.0202937
1.88471e-05
0.020507
3.97124e-05
0.0206725
8.77535e-05
0.0208619
0.000111493
0.021
0.000154485
0.0211689
0.000168245
0.0213014
0.000197586
0.0214703
0.000202722
0.0216004
0.000223507
0.0217844
0.000218646
0.021938
0.000217689
0.0221625
0.000160469
0.0224193
9.68646e-05
0.02273
-2.35923e-05
0.0231622
-0.000172061
0.0236385
-0.000345032
0.0242084
-0.000466375
0.0248617
-0.000582813
0.0255596
-0.000663469
0.0262819
-0.000714343
0.0270872
-0.000813876
0.0279074
-0.00086924
0.0288325
-0.000982608
0.0297531
-0.00104666
0.0307164
-0.00109384
0.0316791
-0.00110686
0.032638
-0.00107518
0.033593
-0.00107215
0.0344954
-0.00103369
0.0354447
-0.00101628
0.0362325
-0.000867229
0.0370535
-0.000798291
0.0377445
-0.0006744
0.0384776
-0.000653353
0.0390749
-0.000526416
0.0396944
-0.000476766
0.0401431
-0.000302071
0.0406545
-0.000260659
0.0409901
-9.84513e-05
0.0413649
-4.24761e-05
0.0415965
4.6731e-05
0.0418933
5.72235e-05
0.0420946
9.3731e-05
0.0423371
6.7169e-05
0.0425244
0.000100914
0.0427225
0.000107196
0.0428868
0.000136222
0.0430744
0.000124043
0.0432232
0.000139305
0.0434059
6.99918e-05
0.0435857
5.86503e-05
0.0437796
5.68976e-06
0.0439619
1.8079e-05
0.0441479
6.9901e-06
0.0443079
4.18899e-05
0.0444602
5.84276e-05
0.0445855
9.82361e-05
0.0446987
0.000122553
0.0447882
0.000151631
0.0448754
0.000166785
0.0449507
0.000178867
0.0450233
0.000183034
0.0450847
0.000193287
0.0451501
0.000189825
0.0452105
0.000189433
0.0452765
0.000184124
0.045344
0.000179396
0.0454098
0.000176576
0.0454768
0.000172938
0.0455472
0.000168944
0.045617
0.000163109
0.0456945
0.000154507
0.0457716
0.000146323
0.0458578
0.000136354
0.0459416
0.000129364
0.0460381
0.000116478
0.0461284
0.000109659
0.0462335
9.38189e-05
0.0463305
8.75383e-05
0.0464421
6.95115e-05
0.0465443
6.3928e-05
0.046663
4.29907e-05
0.0467718
4.41597e-05
0.0468901
3.85252e-05
0.046993
4.89014e-05
0.0471108
4.25802e-05
0.0472101
4.94685e-05
0.0473256
3.83812e-05
0.0474194
4.76069e-05
0.0475347
2.46566e-05
0.0476269
2.9102e-05
0.0477383
1.08171e-05
0.0478287
1.43556e-05
0.0479387
-2.28125e-06
0.0480268
2.29926e-06
0.0481321
-7.84392e-06
0.0482135
-6.55399e-07
0.0483158
-1.32301e-05
0.0483928
-1.63594e-06
0.0484922
-1.44047e-05
0.0485594
4.61704e-06
0.0486485
-6.55854e-06
0.0487045
1.30422e-05
0.0487798
5.43696e-06
0.0488266
2.15713e-05
0.0488933
1.26158e-05
0.0489353
2.63702e-05
0.0489945
1.6988e-05
0.04903
2.94839e-05
0.0490835
1.98385e-05
0.049114
3.19657e-05
0.049163
2.11007e-05
0.0491864
3.42193e-05
0.0492298
2.13141e-05
0.0492448
3.47537e-05
0.0492728
2.245e-05
0.049286
2.99341e-05
0.049305
2.4636e-05
0.0493194
2.40447e-05
0.0493331
2.33966e-05
0.0493438
2.1566e-05
0.04935
2.31834e-05
0.0493563
2.12508e-05
0.0493559
2.48065e-05
0.0493559
2.41469e-05
0.0493511
2.4207e-05
0.0493467
1.99886e-05
0.0493399
1.66231e-05
0.0493304
1.53986e-05
0.0493193
1.47812e-05
0.0493065
1.34311e-05
0.0492871
1.71913e-05
0.0492661
1.67082e-05
0.0492416
1.68828e-05
0.0492116
1.97127e-05
0.0491855
1.44314e-05
0.0491495
1.70256e-05
0.0491205
1.10844e-05
0.0490837
1.43973e-05
0.0490507
1.08473e-05
0.0490103
1.3548e-05
0.0489732
1.13658e-05
0.0489296
1.2734e-05
0.0488881
1.17157e-05
0.048843
1.46058e-05
0.0487972
1.35635e-05
0.0487488
1.49621e-05
0.0487039
9.69667e-06
0.0486555
8.16353e-06
0.048611
2.28274e-06
0.0485622
2.72894e-06
0.0485186
-2.21261e-06
0.0484698
6.89899e-07
0.0484237
-5.69555e-07
0.0483747
2.30226e-06
0.0483275
2.35402e-08
0.04828
-1.74655e-06
0.0482353
-5.3035e-06
0.0481846
-2.48078e-06
0.0481377
-4.46361e-06
0.0480878
-6.24378e-06
0.0480389
-6.65198e-06
0.0479881
-5.63659e-06
0.047941
-7.93477e-06
0.0478886
-7.97481e-06
0.0478447
-1.32265e-05
0.0477945
-1.53714e-05
0.0477519
-1.88606e-05
0.0477025
-1.75933e-05
0.0476588
-1.94716e-05
0.0476106
-1.96037e-05
0.0475706
-2.23513e-05
0.0475121
-1.15238e-05
0.0474819
-2.91599e-05
0.0474276
-1.1394e-05
0.0473812
-1.87446e-05
0.0473422
-2.12632e-05
0.047293
-1.41739e-05
0.047258
-2.22147e-05
0.047211
-1.78683e-05
0.047177
-2.42955e-05
0.0471345
-2.02729e-05
0.0471048
-2.8063e-05
0.0470608
-2.11354e-05
0.047039
-3.34808e-05
0.0469961
-1.94057e-05
0.046971
-2.49131e-05
0.0469392
-1.96885e-05
0.0469073
-1.64224e-05
0.0468801
-1.78494e-05
0.0468379
-9.1093e-06
0.0468232
-2.26184e-05
0.0468008
-1.50669e-05
0.0467756
-1.44645e-05
0.0467543
-1.8087e-05
0.0467357
-1.80436e-05
0.0467253
-2.22774e-05
0.0467098
-1.76709e-05
0.0466988
-1.92546e-05
0.0466913
-1.99257e-05
0.0466855
-1.95007e-05
0.0466808
-1.84009e-05
0.0466781
-1.85953e-05
0.0466784
-1.92505e-05
0.0466806
-1.98179e-05
0.0466863
-2.11465e-05
0.0466935
-2.01628e-05
0.0467019
-1.95222e-05
-1.19658e-05
-5.50185e-05
1.46102e-05
-0.000115889
3.07653e-05
-0.000300229
0.000163311
-0.00048039
0.000254969
-0.000877237
0.000524462
-0.0012575
0.000651614
-0.00175975
0.000794793
-0.0022012
0.000793489
-0.00270306
0.000838918
-0.00315656
0.000811603
-0.00361877
0.000796185
-0.00403415
0.000744714
-0.00442872
0.000695342
-0.00478748
0.000631879
-0.00510743
0.000559719
-0.00540204
0.00049325
-0.0056441
0.000407271
-0.00587097
0.000342356
-0.00603097
0.000242768
-0.00618436
0.000175075
-0.00626946
7.31161e-05
-0.00634143
-1.50067e-06
-0.00637102
-8.24809e-05
-0.00638171
-0.000141732
-0.00637393
-0.000189876
-0.00635133
-0.000224224
-0.0063315
-0.000237094
-0.0063103
-0.000237303
-0.00630186
-0.000214519
-0.00630781
-0.000177796
-0.00636362
-0.000101007
-0.00643663
-3.44238e-05
-0.00659852
9.093e-05
-0.00676456
0.000175432
-0.00708534
0.000371413
-0.00738358
0.000472878
-0.00788921
0.000723842
-0.00835004
0.000849471
-0.0090629
0.00115651
-0.00973675
0.00131962
-0.010673
0.00163601
-0.0115378
0.00181941
-0.0127325
0.00221591
-0.0138239
0.00238157
-0.0152938
0.0028503
-0.0166122
0.00299841
-0.0183466
0.00347651
-0.0198587
0.00367051
-0.0217816
0.00406217
-0.0234942
0.00429421
-0.0254472
0.00449759
-0.0273466
0.00477812
-0.0292748
0.00489655
-0.0312419
0.00506799
-0.0330189
0.00513588
-0.0348856
0.00517161
-0.0364814
0.00517169
-0.0380167
0.00496332
-0.0392681
0.00475279
-0.0403363
0.00426388
-0.0411705
0.00376163
-0.0417963
0.00309562
-0.0422486
0.00237497
-0.0425475
0.00159198
-0.0427165
0.000804288
-0.0427059
1.82874e-05
-0.042567
-0.000664978
-0.042059
-0.00145077
-0.0414247
-0.00195611
-0.0403694
-0.0027144
-0.0391503
-0.00332975
-0.0375628
-0.00409767
-0.0358397
-0.00448533
-0.0338767
-0.00503803
-0.0318499
-0.00533405
-0.0295886
-0.00574592
-0.0273421
-0.00589104
-0.0248698
-0.00620974
-0.0224823
-0.00618296
-0.0199132
-0.00640767
-0.0174908
-0.00628033
-0.0149637
-0.00633021
-0.0125533
-0.00618267
-0.0101299
-0.00606304
-0.00783516
-0.00581153
-0.00563001
-0.00553622
-0.00360308
-0.00513899
-0.00173357
-0.00468995
-5.94628e-06
-0.00420348
0.00166578
-0.00381964
0.00327975
-0.00355551
0.00479241
-0.00327117
0.00613912
-0.00291923
0.00728749
-0.0024904
0.00822984
-0.00205028
0.00896235
-0.00161462
0.00948795
-0.00117311
0.0098123
-0.00075163
0.00991723
-0.00033461
0.00980458
9.23543e-05
0.00941443
0.000565115
0.00865881
0.00119818
0.0074732
0.00193688
0.00603275
0.00269042
0.00449037
0.00339397
0.00290279
0.00391221
0.00124258
0.00427248
-0.000479912
0.00458098
-0.00226015
0.00486398
-0.00401681
0.00493378
-0.00566457
0.00484635
-0.00714394
0.00449177
-0.00834222
0.00396256
-0.00930782
0.00330283
-0.00993174
0.00236451
-0.0103351
0.00148204
-0.0104593
0.000594837
-0.0102912
-0.000263715
-0.00963668
-0.00140701
-0.00878043
-0.00253835
-0.00721237
-0.00399379
-0.00541351
-0.00480253
-0.00369831
-0.00482773
-0.00207737
-0.00423267
-0.000280805
-0.00391954
0.00122467
-0.00364193
0.00343455
-0.00420204
0.00592902
-0.00490855
0.00916637
-0.00606187
0.0125834
-0.00685308
0.016035
-0.00686176
0.0191751
-0.0065551
0.0222011
-0.0062213
0.0250881
-0.00600515
0.0278142
-0.0057661
0.0304904
-0.00566819
0.0330444
-0.00538064
0.0354185
-0.00508997
0.0376498
-0.00486793
0.039829
-0.00457491
0.0416819
-0.00421653
0.043607
-0.00401539
0.0452082
-0.00360042
0.0467887
-0.00330386
0.0480507
-0.00286224
0.0493081
-0.0025471
0.0501813
-0.00203623
0.0510943
-0.00169922
0.0515751
-0.00110014
0.0520368
-0.000739616
0.0521932
-0.000281482
0.0522226
8.60399e-05
0.0520509
0.000477294
0.0517538
0.000855611
0.0512223
0.00121885
0.0506105
0.00148017
0.0498126
0.00182034
0.0489116
0.00201327
0.0479
0.00222496
0.0467884
0.00233264
0.0456406
0.0024201
0.0443937
0.0024872
0.0431769
0.00250264
0.0418469
0.00254816
0.0406236
0.00247336
0.0392951
0.00247019
0.0380832
0.00235854
0.0367873
0.00236421
0.0356358
0.00225067
0.0343592
0.00225819
0.0332759
0.00207603
0.0321144
0.00199137
0.0311974
0.00174269
0.0302061
0.00164551
0.0294322
0.00141769
0.0286013
0.00129109
0.0279469
0.00109269
0.0272661
0.00103546
0.0266688
0.000981616
0.0259939
0.00105137
0.0254076
0.00102963
0.0247458
0.00107076
0.0241381
0.00104724
0.0234915
0.00108565
0.0228648
0.00112356
0.0222081
0.00115879
0.0216473
0.00107597
0.0210394
0.00106079
0.020567
0.000934658
0.0200545
0.000919534
0.0196531
0.000808048
0.0192422
0.000749581
0.0189919
0.000560743
0.0187055
0.000474535
0.0185923
0.000276813
0.0185113
0.000128958
0.0185543
-6.05384e-05
0.0186655
-0.000228526
0.0189268
-0.000470869
0.0192466
-0.000680895
0.0197307
-0.000949101
0.0202965
-0.00116231
0.0210031
-0.00140973
0.0217561
-0.00157016
0.0226405
-0.00177534
0.0235593
-0.00191026
0.0245618
-0.00207376
0.0256221
-0.00218142
0.0266996
-0.00228197
0.0278081
-0.00235085
0.0289206
-0.0023723
0.0300469
-0.00238567
0.0311568
-0.00234554
0.0322401
-0.00225738
0.0332437
-0.00202898
0.0341374
-0.00182902
0.03497
-0.00171053
0.0358206
-0.00167035
0.0365803
-0.00157768
0.0373784
-0.00153771
0.0380547
-0.00135717
0.0387291
-0.00119925
0.0391915
-0.000864739
0.0396792
-0.000655374
0.0399151
-0.000286381
0.0401185
-6.36767e-05
0.0401613
0.000229697
0.040096
0.000490184
0.0399544
0.000734747
0.039651
0.000992028
0.0393023
0.00115455
0.0388841
0.00127498
0.0383727
0.00135571
0.0379331
0.00131528
0.0373896
0.0013121
0.0369641
0.0011837
0.0364555
0.00112156
0.0361132
0.000909848
0.0357038
0.000817362
0.0354936
0.000571418
0.0351825
0.000464811
0.0350525
0.000210586
0.0348395
0.000147289
0.0346628
4.80813e-05
0.0344102
9.27037e-05
0.0341481
0.000220849
0.0337994
0.000465229
0.0333666
0.000772213
0.0327556
0.00121701
0.0319885
0.00162997
0.0310694
0.00192017
0.030206
0.00212572
0.0291721
0.0023668
0.0282661
0.00243769
0.0271282
0.00263995
0.0262076
0.00249999
0.025027
0.00258558
0.0241818
0.00231417
0.0231387
0.00230236
0.0224132
0.00201689
0.021568
0.00198085
0.0209903
0.00171491
0.020332
0.00165413
0.0199145
0.00141261
0.0194409
0.00132063
0.0191919
0.00104857
0.0189308
0.000929907
0.0188776
0.000711065
0.0188528
0.000564873
0.0189546
0.000376542
0.0190794
0.00022432
0.0193468
8.07994e-06
0.0195981
-0.000148541
0.0199641
-0.000333329
0.0203432
-0.000465421
0.0207763
-0.000541399
0.0212123
-0.000553861
0.0216615
-0.0005178
0.0221041
-0.00044549
0.022489
-0.000322168
0.0229687
-0.000271293
0.0232377
-0.000110064
0.0236817
-0.0001591
0.0239356
-3.04051e-05
0.0242359
-7.51528e-05
0.0245766
-7.89453e-05
0.0248348
-5.5642e-05
0.0251005
-4.80488e-05
0.0253372
-2.46628e-05
0.0255859
-4.81172e-05
0.0257856
-5.98806e-06
0.0260128
-1.05945e-05
0.0261952
5.05057e-05
0.0264075
7.15456e-05
0.0265936
0.000120396