/*--------------------------------*- C++ -*----------------------------------*\
| =========                 |                                                 |
| \\      /  F ield         | OpenFOAM: The Open Source CFD Toolbox           |
|  \\    /   O peration     | Version:  v1812                                 |
|   \\  /    A nd           | Web:      www.OpenFOAM.com                      |
|    \\/     M anipulation  |                                                 |
\*---------------------------------------------------------------------------*/
FoamFile
{
    version     2.0;
    format      ascii;
    class       volScalarField;
    location    "1";
    object      T;
}
// * * * * * * * * * * * * * * * * * * * * * * * * * * * * * * * * * * * * * //

dimensions      [0 0 0 1 0 0 0];


internalField   nonuniform List<scalar> 
20400
(
295.613
295.615
295.625
295.649
295.691
295.752
295.836
295.943
296.074
296.228
296.4
296.582
296.767
296.945
297.11
297.253
297.372
297.464
297.53
297.573
297.599
297.613
297.618
297.62
297.62
297.618
297.611
297.599
297.581
297.563
297.546
297.533
297.524
297.521
297.519
297.519
297.521
297.525
297.536
297.556
297.586
297.625
297.671
297.719
297.77
297.815
297.854
297.879
297.894
297.899
297.904
297.898
297.899
297.888
297.89
297.88
297.882
297.876
297.88
297.882
297.897
297.916
297.938
297.958
297.976
297.991
298.002
298.007
298.006
298.007
298.002
298
298
298.005
298.018
298.034
298.049
298.058
298.06
298.061
298.06
298.057
298.053
298.044
298.03
298.007
297.976
297.937
297.891
297.838
297.78
297.719
297.654
297.588
297.519
297.45
297.382
297.315
297.251
297.19
297.133
297.081
297.032
296.985
296.94
296.896
296.851
296.803
296.75
296.691
296.626
296.556
296.484
296.416
296.355
296.304
296.256
296.214
296.173
296.139
296.099
296.065
296.038
295.989
295.95
295.909
295.886
295.866
295.877
295.88
295.879
295.89
295.89
295.894
295.884
295.866
295.833
295.807
295.794
295.798
295.796
295.808
295.821
295.848
295.864
295.883
295.898
295.922
295.945
295.972
295.998
296.033
296.075
296.128
296.188
296.254
296.326
296.402
296.487
296.574
296.672
296.773
296.877
296.975
297.067
297.146
297.215
297.273
297.325
297.371
297.415
297.456
297.5
297.545
297.598
297.658
297.73
297.811
297.897
297.981
298.058
298.125
298.183
298.236
298.285
298.333
298.38
298.43
298.482
298.537
298.593
298.648
298.7
298.745
298.788
298.828
298.867
298.903
298.937
298.971
299.007
299.045
299.087
299.131
299.174
299.216
299.254
299.291
299.326
299.359
299.387
299.414
299.439
299.473
299.506
299.534
299.543
299.543
299.541
299.536
299.521
299.488
299.43
299.349
299.239
299.104
298.947
298.777
298.598
298.414
298.226
298.036
297.849
297.669
297.496
297.335
297.185
297.05
296.932
296.831
296.745
296.679
296.629
296.599
296.584
296.58
296.577
296.572
296.565
296.561
296.555
296.553
296.55
296.551
296.555
296.559
296.567
296.577
296.591
296.608
296.627
296.647
296.666
296.684
296.702
296.719
296.734
296.753
296.767
296.779
296.784
296.785
296.783
296.784
296.779
296.774
296.764
296.753
296.741
296.725
296.71
296.689
296.668
296.642
296.614
296.586
296.557
296.531
296.501
296.472
296.443
296.413
296.385
296.355
296.325
296.293
296.26
296.225
296.189
296.152
296.116
296.076
296.034
295.993
295.951
295.911
295.874
295.841
295.809
295.779
295.744
295.714
295.682
295.651
295.616
295.595
295.58
295.566
295.54
295.522
295.513
295.508
295.482
295.452
295.414
295.392
295.377
295.365
295.336
295.301
295.256
295.204
295.146
295.092
295.043
294.997
294.955
294.913
294.868
294.825
294.777
294.729
294.676
294.623
294.567
294.511
294.454
294.397
294.341
294.285
294.23
294.177
294.126
294.078
294.033
293.99
293.949
293.909
293.872
293.835
293.8
293.765
293.731
293.699
293.667
293.636
293.607
293.58
293.554
293.531
293.51
293.491
293.473
293.456
293.44
293.425
293.413
293.405
293.402
293.403
293.407
293.417
293.432
293.451
293.473
293.498
293.522
293.546
293.569
293.592
293.614
293.637
293.66
293.682
293.703
293.724
293.742
293.761
293.778
293.795
293.811
293.827
293.842
293.857
293.871
293.886
293.9
293.913
293.925
293.936
293.948
293.958
293.968
293.975
293.981
293.985
293.986
293.987
293.987
293.986
293.987
293.988
293.99
293.995
294
294.006
294.012
294.018
294.023
294.028
294.033
294.038
294.043
294.049
294.054
294.059
294.064
294.068
294.072
294.076
294.079
294.082
294.084
294.086
294.088
294.089
294.09
294.091
294.091
294.092
294.092
294.092
294.092
294.091
294.089
294.087
294.086
294.084
294.079
294.074
294.067
294.06
294.052
294.046
294.041
294.037
294.034
294.028
294.021
294.013
294.005
293.997
293.988
293.979
293.969
293.958
293.947
293.935
293.925
293.914
293.903
293.891
293.878
293.866
293.853
293.841
293.828
293.815
293.801
293.787
293.772
293.756
293.739
293.72
293.699
293.675
293.651
293.63
293.617
293.614
295.613
295.615
295.626
295.65
295.691
295.754
295.836
295.945
296.076
296.232
296.403
296.588
296.772
296.951
297.114
297.257
297.374
297.465
297.53
297.573
297.597
297.611
297.616
297.618
297.618
297.615
297.608
297.594
297.577
297.558
297.542
297.529
297.521
297.516
297.516
297.515
297.517
297.522
297.533
297.554
297.584
297.623
297.668
297.716
297.767
297.81
297.848
297.87
297.885
297.888
297.895
297.888
297.887
297.876
297.872
297.869
297.863
297.866
297.861
297.87
297.883
297.905
297.926
297.947
297.967
297.984
297.996
297.997
298.001
297.996
297.994
297.991
297.992
297.997
298.01
298.028
298.043
298.054
298.057
298.059
298.057
298.057
298.053
298.046
298.031
298.009
297.978
297.94
297.893
297.84
297.782
297.721
297.656
297.589
297.521
297.452
297.383
297.316
297.252
297.191
297.134
297.081
297.032
296.985
296.941
296.897
296.853
296.805
296.751
296.692
296.629
296.557
296.489
296.417
296.358
296.305
296.26
296.222
296.185
296.146
296.115
296.073
296.038
296.025
295.975
295.954
295.909
295.9
295.883
295.885
295.893
295.886
295.901
295.89
295.904
295.867
295.844
295.795
295.79
295.765
295.779
295.769
295.797
295.805
295.839
295.832
295.86
295.867
295.903
295.918
295.95
295.98
296.024
296.077
296.132
296.206
296.264
296.356
296.425
296.531
296.61
296.735
296.819
296.942
297.017
297.122
297.177
297.252
297.29
297.347
297.381
297.439
297.475
297.531
297.573
297.64
297.701
297.788
297.868
297.96
298.034
298.109
298.164
298.222
298.268
298.319
298.361
298.414
298.461
298.52
298.573
298.632
298.682
298.732
298.771
298.815
298.853
298.889
298.924
298.956
298.993
299.028
299.073
299.111
299.161
299.195
299.243
299.269
299.315
299.339
299.381
299.394
299.427
299.444
299.491
299.513
299.538
299.534
299.539
299.531
299.521
299.486
299.436
299.35
299.251
299.117
298.967
298.799
298.625
298.442
298.259
298.066
297.885
297.696
297.53
297.359
297.214
297.069
296.949
296.838
296.752
296.679
296.627
296.595
296.58
296.576
296.575
296.568
296.562
296.553
296.548
296.546
296.544
296.542
296.547
296.549
296.559
296.566
296.583
296.595
296.617
296.635
296.656
296.671
296.69
296.704
296.723
296.737
296.755
296.767
296.772
296.773
296.772
296.773
296.768
296.766
296.753
296.747
296.729
296.72
296.699
296.691
296.661
296.639
296.609
296.579
296.556
296.524
296.498
296.465
296.439
296.407
296.381
296.349
296.321
296.287
296.255
296.218
296.184
296.145
296.11
296.067
296.028
295.98
295.943
295.898
295.867
295.832
295.806
295.767
295.739
295.698
295.68
295.628
295.605
295.579
295.581
295.544
295.528
295.503
295.515
295.484
295.471
295.412
295.392
295.361
295.367
295.334
295.316
295.269
295.241
295.176
295.127
295.068
295.026
294.977
294.938
294.892
294.854
294.807
294.765
294.715
294.666
294.611
294.557
294.499
294.444
294.386
294.331
294.273
294.22
294.165
294.115
294.066
294.021
293.976
293.935
293.894
293.857
293.819
293.785
293.749
293.716
293.682
293.651
293.619
293.591
293.561
293.537
293.511
293.491
293.47
293.453
293.434
293.42
293.403
293.392
293.38
293.375
293.37
293.374
293.379
293.394
293.408
293.432
293.45
293.477
293.496
293.523
293.542
293.569
293.588
293.614
293.633
293.658
293.675
293.697
293.712
293.734
293.748
293.767
293.781
293.798
293.811
293.828
293.841
293.857
293.869
293.882
293.894
293.905
293.917
293.926
293.936
293.942
293.947
293.949
293.951
293.951
293.952
293.953
293.955
293.958
293.963
293.97
293.975
293.983
293.988
293.995
293.998
294.004
294.008
294.014
294.019
294.025
294.029
294.035
294.038
294.043
294.046
294.05
294.052
294.056
294.056
294.059
294.059
294.061
294.061
294.062
294.061
294.063
294.062
294.063
294.06
294.059
294.057
294.057
294.053
294.05
294.043
294.038
294.029
294.023
294.015
294.012
294.007
294.004
293.999
293.99
293.984
293.974
293.968
293.957
293.95
293.938
293.929
293.916
293.906
293.895
293.884
293.873
293.86
293.849
293.836
293.823
293.811
293.797
293.785
293.77
293.757
293.742
293.726
293.709
293.69
293.669
293.646
293.622
293.601
293.588
293.585
295.612
295.616
295.627
295.651
295.693
295.753
295.838
295.948
296.085
296.242
296.419
296.604
296.79
296.968
297.129
297.269
297.382
297.469
297.531
297.569
297.593
297.603
297.608
297.61
297.609
297.605
297.595
297.581
297.562
297.543
297.526
297.516
297.508
297.506
297.503
297.505
297.504
297.51
297.523
297.544
297.574
297.615
297.658
297.706
297.752
297.796
297.823
297.854
297.856
297.869
297.868
297.862
297.861
297.853
297.852
297.844
297.844
297.842
297.846
297.853
297.873
297.894
297.919
297.942
297.964
297.983
297.995
297.995
297.991
297.987
297.987
297.985
297.987
297.991
298.007
298.022
298.041
298.049
298.057
298.055
298.058
298.056
298.058
298.05
298.041
298.017
297.99
297.948
297.903
297.846
297.79
297.726
297.662
297.595
297.527
297.458
297.389
297.322
297.256
297.195
297.137
297.084
297.033
296.988
296.943
296.901
296.855
296.81
296.752
296.697
296.626
296.568
296.493
296.427
296.368
296.312
296.277
296.242
296.225
296.186
296.162
296.126
296.099
296.067
296.052
295.998
295.977
295.948
295.936
295.945
295.93
295.935
295.919
295.937
295.917
295.926
295.848
295.814
295.729
295.719
295.7
295.709
295.699
295.738
295.721
295.743
295.729
295.759
295.76
295.797
295.811
295.847
295.886
295.932
295.999
296.046
296.134
296.176
296.309
296.352
296.51
296.556
296.72
296.768
296.934
296.983
297.122
297.14
297.223
297.231
297.317
297.338
297.436
297.454
297.532
297.556
297.643
297.698
297.8
297.875
297.978
298.042
298.124
298.168
298.229
298.259
298.313
298.346
298.409
298.452
298.521
298.569
298.632
298.674
298.727
298.766
298.807
298.843
298.874
298.91
298.935
298.981
299.008
299.065
299.091
299.161
299.173
299.237
299.241
299.31
299.325
299.382
299.375
299.41
299.422
299.486
299.504
299.536
299.532
299.54
299.521
299.505
299.444
299.391
299.286
299.18
299.038
298.887
298.721
298.551
298.365
298.191
297.99
297.827
297.632
297.481
297.302
297.168
297.013
296.901
296.783
296.704
296.633
296.597
296.577
296.581
296.573
296.572
296.56
296.551
296.54
296.544
296.535
296.534
296.53
296.538
296.537
296.55
296.555
296.575
296.586
296.61
296.624
296.643
296.652
296.671
296.681
296.704
296.718
296.732
296.738
296.738
296.74
296.739
296.742
296.736
296.734
296.717
296.713
296.692
296.693
296.672
296.666
296.627
296.594
296.579
296.542
296.522
296.484
296.464
296.429
296.407
296.373
296.347
296.313
296.284
296.247
296.215
296.174
296.141
296.092
296.058
295.999
295.965
295.911
295.89
295.852
295.834
295.797
295.768
295.718
295.705
295.641
295.618
295.58
295.586
295.549
295.534
295.501
295.512
295.48
295.478
295.397
295.382
295.335
295.354
295.316
295.308
295.257
295.254
295.19
295.16
295.094
295.059
295.009
294.971
294.923
294.886
294.842
294.805
294.759
294.715
294.663
294.615
294.557
294.506
294.447
294.394
294.335
294.282
294.224
294.171
294.117
294.069
294.02
293.975
293.932
293.891
293.852
293.816
293.779
293.745
293.71
293.678
293.645
293.615
293.583
293.557
293.528
293.506
293.481
293.463
293.442
293.427
293.408
293.396
293.379
293.369
293.351
293.343
293.334
293.338
293.339
293.355
293.361
293.383
293.394
293.422
293.435
293.466
293.479
293.512
293.527
293.558
293.571
293.601
293.612
293.64
293.651
293.677
293.687
293.711
293.721
293.743
293.754
293.775
293.788
293.805
293.818
293.831
293.845
293.856
293.87
293.879
293.89
293.896
293.902
293.905
293.908
293.911
293.915
293.92
293.926
293.934
293.94
293.95
293.955
293.966
293.969
293.977
293.98
293.987
293.991
293.998
294.002
294.008
294.011
294.017
294.019
294.025
294.027
294.032
294.032
294.035
294.035
294.037
294.038
294.039
294.039
294.039
294.039
294.039
294.037
294.036
294.033
294.034
294.031
294.03
294.022
294.02
294.011
294.006
293.996
293.992
293.983
293.981
293.977
293.969
293.966
293.955
293.951
293.938
293.933
293.919
293.913
293.897
293.889
293.876
293.866
293.856
293.843
293.833
293.818
293.807
293.794
293.781
293.768
293.754
293.741
293.726
293.711
293.695
293.679
293.66
293.64
293.617
293.593
293.572
293.561
293.559
295.612
295.615
295.63
295.654
295.695
295.756
295.843
295.959
296.104
296.268
296.451
296.638
296.825
297
297.157
297.29
297.396
297.476
297.53
297.565
297.583
297.592
297.595
297.596
297.594
297.587
297.574
297.556
297.536
297.515
297.501
297.489
297.485
297.481
297.482
297.482
297.482
297.485
297.499
297.522
297.552
297.592
297.636
297.677
297.732
297.761
297.795
297.809
297.826
297.83
297.83
297.828
297.829
297.824
297.825
297.821
297.818
297.821
297.822
297.842
297.86
297.887
297.914
297.94
297.965
297.985
298.005
298.017
298.017
298.009
298.019
298.011
298.014
298.015
298.031
298.042
298.056
298.067
298.067
298.071
298.069
298.072
298.07
298.072
298.06
298.048
298.012
297.976
297.92
297.869
297.803
297.743
297.674
297.609
297.539
297.471
297.401
297.333
297.267
297.203
297.146
297.089
297.04
296.99
296.949
296.903
296.861
296.806
296.757
296.689
296.638
296.573
296.495
296.447
296.376
296.344
296.305
296.293
296.266
296.278
296.234
296.224
296.207
296.177
296.14
296.104
296.076
296.045
296.048
296.038
296.049
296.007
296.02
295.972
296.018
295.949
295.925
295.793
295.727
295.615
295.615
295.575
295.611
295.558
295.566
295.539
295.561
295.545
295.57
295.57
295.6
295.621
295.657
295.707
295.745
295.825
295.848
295.974
295.997
296.176
296.194
296.396
296.404
296.598
296.625
296.852
296.894
297.036
297.03
297.1
297.107
297.234
297.26
297.391
297.393
297.475
297.484
297.588
297.627
297.765
297.822
297.96
298.007
298.105
298.122
298.175
298.186
298.249
298.273
298.349
298.388
298.469
298.513
298.583
298.624
298.672
298.71
298.744
298.779
298.799
298.84
298.853
298.916
298.925
299.007
299.019
299.106
299.105
299.175
299.173
299.273
299.292
299.36
299.338
299.38
299.41
299.491
299.522
299.556
299.548
299.555
299.524
299.517
299.446
299.392
299.289
299.184
299.05
298.909
298.749
298.592
298.401
298.24
298.031
297.896
297.675
297.549
297.329
297.212
297.012
296.911
296.758
296.689
296.611
296.592
296.589
296.591
296.566
296.563
296.546
296.545
296.542
296.537
296.523
296.522
296.517
296.526
296.519
296.531
296.535
296.556
296.559
296.576
296.582
296.601
296.606
296.628
296.637
296.656
296.665
296.671
296.672
296.672
296.682
296.683
296.687
296.679
296.682
296.665
296.663
296.648
296.662
296.638
296.611
296.586
296.552
296.54
296.501
296.484
296.448
296.431
296.396
296.373
296.339
296.313
296.277
296.248
296.207
296.174
296.123
296.089
296.02
295.983
295.912
295.892
295.856
295.858
295.831
295.806
295.75
295.726
295.66
295.631
295.579
295.588
295.554
295.537
295.49
295.511
295.479
295.476
295.377
295.361
295.303
295.328
295.288
295.283
295.232
295.238
295.18
295.162
295.1
295.097
295.051
295.019
294.967
294.932
294.884
294.848
294.804
294.769
294.721
294.68
294.627
294.582
294.526
294.477
294.419
294.367
294.307
294.253
294.193
294.14
294.084
294.035
293.986
293.943
293.901
293.862
293.824
293.789
293.753
293.72
293.685
293.655
293.621
293.593
293.561
293.537
293.507
293.488
293.462
293.446
293.424
293.412
293.393
293.382
293.363
293.349
293.327
293.315
293.299
293.299
293.292
293.297
293.295
293.309
293.314
293.342
293.35
293.383
293.395
293.429
293.443
293.474
293.485
293.518
293.526
293.559
293.567
293.599
293.607
293.636
293.645
293.672
293.684
293.709
293.722
293.74
293.756
293.771
293.788
293.802
293.819
293.83
293.843
293.85
293.859
293.867
293.874
293.883
293.892
293.904
293.912
293.926
293.932
293.946
293.95
293.963
293.965
293.975
293.978
293.986
293.989
293.997
294
294.006
294.008
294.014
294.017
294.022
294.024
294.028
294.028
294.03
294.029
294.031
294.03
294.032
294.03
294.031
294.028
294.028
294.025
294.026
294.022
294.022
294.016
294.014
294.006
294.003
293.994
293.989
293.979
293.974
293.967
293.961
293.957
293.947
293.946
293.931
293.929
293.913
293.909
293.893
293.885
293.87
293.862
293.851
293.839
293.829
293.813
293.803
293.789
293.776
293.763
293.749
293.736
293.721
293.707
293.692
293.676
293.66
293.641
293.621
293.598
293.574
293.555
293.545
293.544
295.614
295.619
295.632
295.661
295.701
295.766
295.858
295.984
296.136
296.315
296.501
296.695
296.877
297.049
297.195
297.319
297.414
297.484
297.531
297.558
297.573
297.579
297.58
297.58
297.576
297.566
297.548
297.527
297.501
297.481
297.463
297.456
297.45
297.449
297.451
297.449
297.451
297.452
297.463
297.487
297.519
297.559
297.602
297.647
297.686
297.725
297.743
297.768
297.77
297.781
297.781
297.785
297.787
297.785
297.789
297.784
297.792
297.786
297.803
297.82
297.849
297.882
297.912
297.941
297.966
297.994
298.015
298.048
298.034
298.081
298.071
298.1
298.08
298.102
298.088
298.109
298.102
298.115
298.116
298.115
298.119
298.115
298.117
298.112
298.115
298.095
298.074
298.018
297.972
297.9
297.842
297.768
297.704
297.633
297.565
297.494
297.423
297.354
297.284
297.221
297.157
297.104
297.046
297.001
296.948
296.91
296.857
296.814
296.751
296.701
296.646
296.567
296.52
296.44
296.423
296.382
296.371
296.354
296.362
296.339
296.357
296.342
296.328
296.318
296.271
296.244
296.205
296.222
296.183
296.222
296.176
296.187
296.127
296.128
296.029
296.048
295.916
295.84
295.678
295.599
295.49
295.534
295.417
295.395
295.297
295.306
295.293
295.303
295.291
295.304
295.308
295.333
295.362
295.397
295.447
295.475
295.565
295.582
295.737
295.752
295.967
295.974
296.169
296.178
296.39
296.428
296.71
296.741
296.871
296.83
296.922
296.924
297.122
297.155
297.292
297.291
297.362
297.368
297.478
297.513
297.689
297.743
297.905
297.942
298.005
298.004
298.045
298.048
298.119
298.141
298.232
298.27
298.361
298.41
298.474
298.516
298.555
298.59
298.612
298.645
298.653
298.704
298.707
298.78
298.782
298.884
298.898
298.993
298.989
299.07
299.072
299.222
299.248
299.336
299.32
299.392
299.452
299.538
299.568
299.601
299.588
299.604
299.575
299.573
299.509
299.457
299.367
299.273
299.155
299.031
298.878
298.733
298.538
298.414
298.187
298.073
297.813
297.701
297.425
297.31
297.05
296.951
296.755
296.692
296.614
296.632
296.598
296.598
296.567
296.561
296.559
296.557
296.534
296.527
296.512
296.509
296.508
296.505
296.5
296.514
296.514
296.518
296.513
296.523
296.529
296.548
296.548
296.562
296.567
296.573
296.572
296.572
296.576
296.581
296.598
296.599
296.608
296.604
296.606
296.596
296.606
296.6
296.602
296.571
296.539
296.535
296.503
296.496
296.46
296.449
296.413
296.396
296.36
296.339
296.301
296.277
296.235
296.207
296.154
296.121
296.045
296.007
295.916
295.881
295.836
295.846
295.831
295.83
295.784
295.755
295.668
295.623
295.561
295.574
295.539
295.523
295.464
295.49
295.457
295.456
295.365
295.333
295.258
295.286
295.246
295.245
295.193
295.205
295.149
295.135
295.075
295.085
295.049
295.046
294.996
294.97
294.919
294.888
294.845
294.813
294.775
294.742
294.7
294.663
294.616
294.576
294.526
294.481
294.424
294.372
294.308
294.252
294.186
294.133
294.073
294.025
293.975
293.933
293.891
293.853
293.816
293.781
293.746
293.714
293.679
293.649
293.614
293.588
293.553
293.531
293.498
293.48
293.451
293.437
293.412
293.401
293.38
293.368
293.346
293.329
293.302
293.286
293.259
293.251
293.226
293.22
293.209
293.216
293.218
293.24
293.247
293.277
293.29
293.323
293.332
293.367
293.374
293.411
293.418
293.456
293.463
293.501
293.508
293.543
293.554
293.586
293.601
293.626
293.643
293.663
293.684
293.703
293.726
293.743
293.764
293.778
293.795
293.808
293.822
293.837
293.851
293.868
293.881
293.898
293.909
293.925
293.932
293.947
293.952
293.965
293.969
293.978
293.982
293.99
293.994
294.001
294.003
294.009
294.011
294.017
294.02
294.025
294.026
294.028
294.028
294.029
294.028
294.03
294.029
294.03
294.028
294.027
294.024
294.025
294.022
294.021
294.016
294.015
294.008
294.006
293.998
293.994
293.984
293.979
293.968
293.961
293.957
293.948
293.946
293.933
293.93
293.914
293.911
293.895
293.888
293.874
293.867
293.854
293.843
293.832
293.818
293.808
293.791
293.78
293.766
293.752
293.739
293.724
293.71
293.695
293.68
293.664
293.647
293.629
293.609
293.587
293.563
293.544
293.535
293.535
295.628
295.627
295.647
295.669
295.721
295.787
295.892
296.026
296.195
296.378
296.577
296.765
296.949
297.105
297.245
297.352
297.436
297.494
297.532
297.554
297.564
297.568
297.568
297.567
297.561
297.547
297.527
297.501
297.474
297.447
297.431
297.416
297.413
297.41
297.412
297.414
297.413
297.418
297.426
297.446
297.481
297.516
297.564
297.595
297.643
297.662
297.692
297.697
297.708
297.711
297.714
297.729
297.722
297.738
297.73
297.751
297.745
297.757
297.769
297.796
297.839
297.873
297.913
297.943
297.975
297.996
298.029
298.015
298.077
298.085
298.181
298.169
298.217
298.192
298.226
298.199
298.221
298.211
298.222
298.212
298.214
298.211
298.201
298.205
298.195
298.195
298.153
298.121
298.041
297.983
297.896
297.831
297.75
297.681
297.606
297.534
297.46
297.386
297.316
297.244
297.184
297.117
297.066
297.005
296.961
296.905
296.865
296.81
296.76
296.708
296.636
296.594
296.511
296.495
296.46
296.46
296.45
296.456
296.446
296.456
296.444
296.469
296.495
296.46
296.437
296.391
296.404
296.384
296.415
296.369
296.407
296.346
296.366
296.236
296.231
296.025
295.999
295.822
295.725
295.574
295.525
295.35
295.319
295.135
295.084
295.018
295.034
295.008
295.008
294.998
295.006
295.013
295.031
295.063
295.093
295.147
295.167
295.265
295.285
295.457
295.476
295.69
295.697
295.88
295.891
296.158
296.204
296.512
296.523
296.644
296.586
296.706
296.722
296.971
297.018
297.164
297.153
297.219
297.22
297.344
297.385
297.597
297.644
297.793
297.799
297.834
297.814
297.853
297.857
297.938
297.962
298.066
298.115
298.2
298.252
298.303
298.341
298.367
298.397
298.405
298.445
298.443
298.5
298.496
298.581
298.582
298.712
298.73
298.839
298.835
298.957
298.976
299.178
299.215
299.348
299.384
299.479
299.529
299.604
299.619
299.672
299.669
299.693
299.673
299.666
299.62
299.573
299.502
299.422
299.321
299.213
299.066
298.951
298.757
298.656
298.404
298.306
297.997
297.889
297.544
297.426
297.095
297.004
296.77
296.718
296.643
296.663
296.629
296.619
296.591
296.598
296.572
296.556
296.528
296.519
296.509
296.506
296.49
296.493
296.49
296.491
296.475
296.472
296.471
296.485
296.477
296.483
296.478
296.475
296.466
296.461
296.454
296.45
296.465
296.471
296.492
296.492
296.506
296.499
296.514
296.51
296.529
296.513
296.501
296.49
296.472
296.474
296.45
296.446
296.41
296.399
296.362
296.352
296.312
296.295
296.249
296.229
296.173
296.15
296.07
296.032
295.924
295.886
295.803
295.796
295.791
295.801
295.779
295.773
295.681
295.632
295.516
295.507
295.5
295.495
295.431
295.439
295.405
295.416
295.34
295.307
295.204
295.212
295.176
295.184
295.137
295.142
295.093
295.093
295.017
295.014
295.007
295.011
294.979
294.977
294.934
294.919
294.872
294.847
294.81
294.784
294.753
294.729
294.694
294.667
294.631
294.598
294.553
294.513
294.455
294.404
294.334
294.278
294.206
294.152
294.091
294.042
293.992
293.95
293.908
293.871
293.833
293.8
293.764
293.733
293.697
293.667
293.63
293.603
293.564
293.541
293.503
293.484
293.449
293.434
293.404
293.391
293.367
293.353
293.327
293.305
293.273
293.248
293.209
293.186
293.147
293.13
293.109
293.11
293.105
293.117
293.122
293.147
293.156
293.184
293.192
293.227
293.234
293.273
293.282
293.324
293.333
293.376
293.385
293.425
293.441
293.476
293.495
293.522
293.546
293.571
293.599
293.623
293.652
293.675
293.701
293.722
293.745
293.766
293.788
293.812
293.833
293.857
293.874
293.894
293.906
293.924
293.933
293.948
293.956
293.968
293.973
293.983
293.987
293.995
293.999
294.005
294.007
294.012
294.016
294.021
294.023
294.027
294.027
294.029
294.028
294.029
294.028
294.029
294.028
294.029
294.026
294.025
294.022
294.023
294.02
294.018
294.012
294.009
294.003
294
293.991
293.987
293.974
293.967
293.959
293.951
293.948
293.937
293.932
293.917
293.914
293.899
293.893
293.88
293.874
293.861
293.851
293.839
293.825
293.814
293.798
293.787
293.772
293.759
293.746
293.73
293.716
293.701
293.686
293.67
293.655
293.638
293.62
293.6
293.578
293.554
293.536
293.528
293.529
295.655
295.664
295.664
295.707
295.744
295.831
295.94
296.093
296.269
296.466
296.66
296.851
297.021
297.172
297.291
297.388
297.456
297.505
297.535
297.552
297.559
297.561
297.562
297.56
297.552
297.537
297.515
297.487
297.456
297.429
297.404
297.39
297.378
297.376
297.374
297.376
297.375
297.381
297.385
297.409
297.43
297.471
297.5
297.543
297.569
297.599
297.614
297.623
297.63
297.624
297.645
297.646
297.674
297.66
297.687
297.695
297.706
297.719
297.724
297.772
297.815
297.872
297.908
297.948
297.973
298.007
297.986
298.037
298.039
298.157
298.212
298.316
298.319
298.374
298.363
298.388
298.379
298.391
298.377
298.389
298.373
298.368
298.351
298.338
298.343
298.321
298.311
298.236
298.189
298.084
298.013
297.916
297.84
297.755
297.678
297.598
297.519
297.441
297.361
297.291
297.215
297.154
297.084
297.032
296.968
296.921
296.863
296.821
296.772
296.702
296.669
296.593
296.577
296.545
296.548
296.544
296.549
296.543
296.555
296.544
296.57
296.622
296.632
296.642
296.591
296.61
296.595
296.619
296.598
296.635
296.588
296.605
296.518
296.534
296.292
296.22
295.97
295.895
295.72
295.596
295.422
295.322
295.11
295.018
294.877
294.834
294.775
294.762
294.73
294.722
294.714
294.717
294.727
294.739
294.775
294.799
294.846
294.866
294.968
294.993
295.162
295.188
295.383
295.385
295.588
295.589
295.923
295.976
296.269
296.269
296.379
296.327
296.476
296.507
296.801
296.868
297.026
296.996
297.066
297.063
297.222
297.263
297.478
297.505
297.594
297.588
297.596
297.586
297.627
297.631
297.722
297.76
297.861
297.92
297.988
298.036
298.07
298.101
298.112
298.145
298.143
298.185
298.176
298.242
298.235
298.342
298.346
298.516
298.532
298.678
298.679
298.874
298.915
299.159
299.232
299.387
299.432
299.535
299.587
299.683
299.714
299.778
299.784
299.804
299.793
299.783
299.752
299.714
299.657
299.594
299.506
299.416
299.281
299.187
298.989
298.903
298.627
298.537
298.178
298.067
297.648
297.527
297.132
297.044
296.807
296.766
296.709
296.723
296.693
296.68
296.637
296.619
296.57
296.556
296.517
296.513
296.493
296.496
296.484
296.485
296.469
296.465
296.45
296.455
296.437
296.442
296.423
296.412
296.391
296.376
296.354
296.338
296.331
296.332
296.352
296.353
296.368
296.36
296.376
296.376
296.406
296.399
296.409
296.397
296.39
296.399
296.397
296.4
296.379
296.376
296.34
296.335
296.298
296.293
296.247
296.233
296.172
296.158
296.078
296.054
295.938
295.893
295.776
295.753
295.714
295.724
295.719
295.726
295.66
295.622
295.477
295.44
295.376
295.406
295.357
295.355
295.31
295.336
295.275
295.257
295.13
295.12
295.066
295.09
295.04
295.04
294.998
295.007
294.947
294.94
294.907
294.917
294.912
294.916
294.895
294.903
294.876
294.864
294.827
294.808
294.778
294.76
294.739
294.724
294.705
294.688
294.663
294.639
294.6
294.565
294.505
294.455
294.381
294.327
294.253
294.198
294.137
294.087
294.037
293.995
293.954
293.918
293.881
293.848
293.811
293.78
293.74
293.709
293.667
293.638
293.592
293.566
293.52
293.496
293.453
293.434
293.398
293.383
293.353
293.336
293.302
293.275
293.234
293.199
293.148
293.111
293.061
293.035
293
292.99
292.974
292.977
292.975
292.987
292.991
293.015
293.021
293.054
293.064
293.105
293.116
293.161
293.173
293.22
293.234
293.278
293.3
293.337
293.362
293.394
293.426
293.457
293.493
293.525
293.561
293.591
293.625
293.656
293.688
293.721
293.752
293.785
293.812
293.841
293.861
293.885
293.899
293.919
293.929
293.947
293.955
293.969
293.975
293.985
293.989
293.997
294.001
294.008
294.012
294.017
294.02
294.024
294.025
294.028
294.027
294.028
294.027
294.028
294.027
294.028
294.025
294.025
294.022
294.022
294.02
294.019
294.014
294.013
294.008
294.004
293.997
293.992
293.982
293.974
293.962
293.955
293.951
293.941
293.935
293.92
293.916
293.901
293.897
293.883
293.88
293.868
293.86
293.846
293.834
293.822
293.806
293.795
293.779
293.766
293.753
293.738
293.724
293.709
293.693
293.677
293.662
293.645
293.629
293.612
293.592
293.569
293.546
293.528
293.521
293.522
295.71
295.706
295.727
295.735
295.804
295.883
296.016
296.173
296.362
296.557
296.754
296.93
297.093
297.225
297.335
297.416
297.475
297.514
297.538
297.552
297.558
297.56
297.56
297.557
297.55
297.534
297.511
297.482
297.452
297.421
297.396
297.374
297.361
297.35
297.347
297.343
297.344
297.343
297.35
297.359
297.382
297.405
297.439
297.468
297.5
297.524
297.54
297.554
297.547
297.56
297.555
297.595
297.599
297.605
297.619
297.65
297.669
297.661
297.701
297.735
297.806
297.85
297.905
297.933
297.973
297.968
298.006
297.98
298.065
298.147
298.3
298.387
298.493
298.529
298.586
298.596
298.617
298.617
298.623
298.614
298.609
298.593
298.569
298.556
298.534
298.536
298.485
298.457
298.352
298.283
298.163
298.076
297.971
297.884
297.791
297.703
297.614
297.526
297.442
297.356
297.282
297.201
297.134
297.06
297.003
296.936
296.887
296.836
296.779
296.739
296.679
296.674
296.64
296.642
296.641
296.648
296.648
296.66
296.656
296.671
296.706
296.767
296.825
296.796
296.812
296.798
296.853
296.818
296.864
296.825
296.863
296.811
296.82
296.621
296.623
296.259
296.154
295.882
295.745
295.562
295.416
295.214
295.071
294.903
294.797
294.689
294.63
294.566
294.532
294.499
294.483
294.477
294.477
294.486
294.495
294.522
294.539
294.584
294.607
294.701
294.731
294.882
294.918
295.083
295.092
295.312
295.327
295.694
295.76
296.01
296.008
296.104
296.065
296.245
296.298
296.639
296.721
296.887
296.838
296.929
296.92
297.105
297.135
297.303
297.303
297.345
297.325
297.348
297.33
297.376
297.391
297.485