/*--------------------------------*- C++ -*----------------------------------*\
| =========                 |                                                 |
| \\      /  F ield         | OpenFOAM: The Open Source CFD Toolbox           |
|  \\    /   O peration     | Version:  v1812                                 |
|   \\  /    A nd           | Web:      www.OpenFOAM.com                      |
|    \\/     M anipulation  |                                                 |
\*---------------------------------------------------------------------------*/
FoamFile
{
    version     2.0;
    format      ascii;
    class       volVectorField;
    location    "1";
    object      U;
}
// * * * * * * * * * * * * * * * * * * * * * * * * * * * * * * * * * * * * * //

dimensions      [0 1 -1 0 0 0 0];


internalField   nonuniform List<vector> 
20400
(
(-0.0036713 -0.00288311 0)
(-0.00698748 -0.00752327 0)
(-0.00629935 -0.00778282 0)
(-0.0205631 -0.00397748 0)
(-0.0197149 -0.00873732 0)
(-0.0625912 0.000318165 0)
(-0.0662576 -0.00858619 0)
(-0.13126 0.00219396 0)
(-0.135716 -0.00971423 0)
(-0.207649 0.00368786 0)
(-0.212271 -0.00704837 0)
(-0.286063 0.00306272 0)
(-0.29011 -0.0067161 0)
(-0.359496 0.00156582 0)
(-0.362769 -0.00575112 0)
(-0.422602 0.000923272 0)
(-0.425122 -0.00430311 0)
(-0.472516 -0.000219942 0)
(-0.473955 -0.00413686 0)
(-0.506402 -0.00200553 0)
(-0.507408 -0.00526663 0)
(-0.520497 -0.00577003 0)
(-0.520319 -0.00684367 0)
(-0.518996 -0.00769586 0)
(-0.512027 -0.00884392 0)
(-0.506643 -0.0100914 0)
(-0.493389 -0.00944546 0)
(-0.487742 -0.0107958 0)
(-0.473044 -0.0103615 0)
(-0.469339 -0.010086 0)
(-0.460733 -0.00876019 0)
(-0.461212 -0.00858396 0)
(-0.457402 -0.00768725 0)
(-0.474353 -0.00559864 0)
(-0.470926 -0.00331034 0)
(-0.516598 -0.00122615 0)
(-0.511258 -0.00363892 0)
(-0.596864 0.0027856 0)
(-0.592956 -0.0076724 0)
(-0.72121 0.0078032 0)
(-0.726592 -0.0178611 0)
(-0.902214 0.0142812 0)
(-0.916325 -0.0183945 0)
(-1.15855 0.0248769 0)
(-1.17962 -0.0203296 0)
(-1.50052 0.036435 0)
(-1.53171 -0.0222419 0)
(-1.94805 0.0533613 0)
(-1.99294 -0.0191359 0)
(-2.5134 0.0667092 0)
(-2.57926 -0.0165806 0)
(-3.18979 0.0877477 0)
(-3.3013 -0.0202379 0)
(-3.96805 0.118776 0)
(-4.17498 -0.0129478 0)
(-4.85684 0.127915 0)
(-5.19154 -0.00670672 0)
(-5.86554 0.110848 0)
(-6.33524 0.0195465 0)
(-6.96754 0.105225 0)
(-7.48029 0.0660342 0)
(-8.00754 0.0952204 0)
(-8.4255 0.0841765 0)
(-8.75404 0.074617 0)
(-8.95082 0.0650754 0)
(-9.02735 0.0621478 0)
(-8.99179 0.0614779 0)
(-8.88938 0.0304662 0)
(-8.70548 -0.0692196 0)
(-8.56587 -0.162103 0)
(-8.24785 -0.230901 0)
(-8.00986 -0.219217 0)
(-7.59235 -0.23483 0)
(-7.26442 -0.170314 0)
(-6.78216 -0.160684 0)
(-6.36613 -0.0938867 0)
(-5.85723 -0.0576376 0)
(-5.38738 0.0124252 0)
(-4.87569 0.0367268 0)
(-4.38505 0.123066 0)
(-3.87719 0.124308 0)
(-3.38248 0.166435 0)
(-2.89482 0.163606 0)
(-2.42274 0.163249 0)
(-1.97551 0.136214 0)
(-1.55249 0.0903312 0)
(-1.15934 0.0139166 0)
(-0.793803 -0.0843613 0)
(-0.454292 -0.169036 0)
(-0.144309 -0.176402 0)
(0.106579 -0.102641 0)
(0.306302 -0.0340247 0)
(0.481335 -0.0243673 0)
(0.636658 -0.0476867 0)
(0.774203 -0.0673455 0)
(0.891231 -0.0810513 0)
(0.985651 -0.0904208 0)
(1.0561 -0.0960078 0)
(1.107 -0.091494 0)
(1.13973 -0.0652606 0)
(1.1522 -0.0347372 0)
(1.15023 -0.0187794 0)
(1.13638 -0.0220862 0)
(1.08754 -0.0696844 0)
(0.953863 -0.107015 0)
(0.755866 -0.0407633 0)
(0.507745 0.112669 0)
(0.159345 0.200646 0)
(-0.24321 0.175617 0)
(-0.663337 0.101518 0)
(-1.09849 0.0414719 0)
(-1.54701 -0.00728784 0)
(-1.9882 -0.0269664 0)
(-2.42196 -0.0440584 0)
(-2.80248 -0.0221306 0)
(-3.09237 -0.0263287 0)
(-3.26384 0.0137683 0)
(-3.29911 0.0641191 0)
(-3.18421 0.0979544 0)
(-2.93308 0.108926 0)
(-2.579 0.136739 0)
(-2.17429 0.0317488 0)
(-1.79195 -0.129072 0)
(-1.38042 -0.368781 0)
(-1.00617 -0.346814 0)
(-0.678188 -0.268423 0)
(-0.41903 -0.279063 0)
(-0.114737 -0.178073 0)
(-0.0430624 -0.132929 0)
(0.477223 -0.11864 0)
(0.514164 -0.0500246 0)
(1.13552 -0.0893437 0)
(1.16414 0.01503 0)
(1.74396 -0.0735271 0)
(1.75674 -0.00473235 0)
(2.35132 -0.0654059 0)
(2.35206 -0.0209384 0)
(2.91767 -0.0558812 0)
(2.91421 -0.0197301 0)
(3.42041 -0.0491152 0)
(3.41915 -0.0180222 0)
(3.86761 -0.0282493 0)
(3.85802 -0.0176944 0)
(4.23356 -0.0264665 0)
(4.22741 -0.0104679 0)
(4.51185 -0.0175153 0)
(4.50936 -0.00469213 0)
(4.68136 -0.0121529 0)
(4.6818 -0.00349771 0)
(4.72704 -0.00286391 0)
(4.71833 0.000174121 0)
(4.69746 0.00551033 0)
(4.66576 0.0181957 0)
(4.56944 0.00784227 0)
(4.53329 0.0316926 0)
(4.36241 -2.67306e-05 0)
(4.32797 0.0334477 0)
(4.09961 -0.00493598 0)
(4.06296 0.0387173 0)
(3.8165 -0.0146707 0)
(3.77947 0.0363317 0)
(3.53486 -0.0218887 0)
(3.50175 0.0330191 0)
(3.26171 -0.0209091 0)
(3.23313 0.0310375 0)
(3.01161 -0.0247112 0)
(2.98649 0.0264886 0)
(2.7878 -0.0269424 0)
(2.76969 0.0196891 0)
(2.57786 -0.018951 0)
(2.56458 0.0181797 0)
(2.39867 -0.019577 0)
(2.38622 0.014784 0)
(2.254 -0.0181954 0)
(2.24538 0.00857205 0)
(2.14747 -0.016028 0)
(2.14259 0.00634837 0)
(2.07513 -0.0195894 0)
(2.07147 0.00256871 0)
(2.00074 -0.0173308 0)
(1.9943 0.0040432 0)
(1.91228 -0.0142019 0)
(1.90461 0.00768158 0)
(1.82363 -0.017344 0)
(1.81728 0.00459561 0)
(1.71898 -0.012403 0)
(1.71459 0.00607984 0)
(1.61387 -0.008748 0)
(1.60976 0.00815664 0)
(1.51861 -0.00602936 0)
(1.51392 0.010877 0)
(1.42817 -0.00304285 0)
(1.42635 0.00106725 0)
(1.36319 0.00935479 0)
(1.35549 0.00154758 0)
(1.33326 0.00529345 0)
(1.32464 0.00124368 0)
(1.32465 0.000200204 0)
(1.32402 -0.00193589 0)
(1.36263 0.00426742 0)
(1.3652 -0.00617993 0)
(1.45247 0.00520436 0)
(1.45763 -0.0114947 0)
(1.59107 0.00637875 0)
(1.59909 -0.0168959 0)
(1.77032 0.00781254 0)
(1.77965 -0.0192607 0)
(1.98652 0.00680092 0)
(1.99854 -0.021362 0)
(2.23748 0.00590886 0)
(2.25335 -0.0238312 0)
(2.50928 0.011297 0)
(2.52369 -0.0141553 0)
(2.76999 0.00616216 0)
(2.78302 -0.0139771 0)
(2.98392 0.00971508 0)
(2.98724 -0.00811122 0)
(3.1707 -0.00530942 0)
(3.1734 0.000108123 0)
(3.35165 -0.00608415 0)
(3.35804 0.000939732 0)
(3.50433 -0.000150782 0)
(3.50444 0.00515224 0)
(3.58825 0.00534279 0)
(3.58682 0.00886783 0)
(3.60094 0.0110166 0)
(3.59033 0.0148209 0)
(3.57834 0.0202386 0)
(3.52751 0.0156495 0)
(3.51007 0.0281465 0)
(3.41285 0.0124371 0)
(3.39907 0.029582 0)
(3.287 0.0106111 0)
(3.27774 0.0291942 0)
(3.1823 0.0122132 0)
(3.17721 0.0308156 0)
(3.11254 0.0176756 0)
(3.11123 0.0210585 0)
(3.10514 0.0210903 0)
(3.11169 0.0244613 0)
(3.12199 0.0227734 0)
(3.19337 0.035844 0)
(3.21928 0.0259965 0)
(3.34356 0.0321441 0)
(3.38414 0.035932 0)
(3.51988 0.0573627 0)
(3.54517 0.0754002 0)
(3.62385 0.0729882 0)
(3.62063 0.0589945 0)
(3.63311 0.0373037 0)
(3.56039 -0.0394644 0)
(3.56287 -0.0509247 0)
(3.39419 -0.111632 0)
(3.37711 -0.0710303 0)
(3.15822 -0.0757973 0)
(3.14074 -0.0130202 0)
(2.93176 -0.0208486 0)
(2.9213 0.0453383 0)
(2.74578 0.0425927 0)
(2.73788 0.0976462 0)
(2.5956 0.0846977 0)
(2.58688 0.117325 0)
(2.47539 0.0919428 0)
(2.46787 0.114759 0)
(2.37695 0.100874 0)
(2.37396 0.105602 0)
(2.32116 0.118276 0)
(2.31281 0.105731 0)
(2.28778 0.100354 0)
(2.27731 0.0825557 0)
(2.2846 0.0524754 0)
(2.2827 0.0166573 0)
(2.34195 -0.0306629 0)
(2.3516 -0.062118 0)
(2.47079 -0.0952995 0)
(2.48341 -0.118776 0)
(2.62989 -0.133287 0)
(2.63555 -0.14726 0)
(2.76372 -0.140835 0)
(2.76475 -0.145386 0)
(2.8423 -0.125367 0)
(2.84459 -0.0963967 0)
(2.88099 -0.100297 0)
(2.90492 -0.0635111 0)
(2.91195 -0.0455218 0)
(2.97309 -0.00297217 0)
(2.97704 -0.00129602 0)
(3.05757 -0.00151947 0)
(3.06724 -0.025121 0)
(3.14804 -0.0624682 0)
(3.16675 -0.0997833 0)
(3.25095 -0.137842 0)
(3.27058 -0.164916 0)
(3.34545 -0.174931 0)
(3.35603 -0.189087 0)
(3.41152 -0.183232 0)
(3.41729 -0.190354 0)
(3.45345 -0.173468 0)
(3.4564 -0.17817 0)
(3.48269 -0.162741 0)
(3.48315 -0.160772 0)
(3.49079 -0.152331 0)
(3.49763 -0.141665 0)
(3.51403 -0.0897728 0)
(3.51863 -0.0422856 0)
(3.59382 0.0537356 0)
(3.60405 0.0796016 0)
(3.77754 0.148965 0)
(3.78941 0.143849 0)
(4.00997 0.195779 0)
(4.02526 0.173949 0)
(4.27329 0.206372 0)
(4.28941 0.18675 0)
(4.57703 0.204495 0)
(4.59257 0.204886 0)
(4.91798 0.208927 0)
(4.93892 0.227064 0)
(5.27091 0.247041 0)
(5.28651 0.267883 0)
(5.61556 0.265208 0)
(5.62458 0.266312 0)
(5.93896 0.298687 0)
(5.94722 0.281524 0)
(6.19182 0.307804 0)
(6.2014 0.278194 0)
(6.40711 0.297411 0)
(6.41525 0.280677 0)
(6.58098 0.288438 0)
(6.58442 0.254466 0)
(6.69365 0.265412 0)
(6.68657 0.231392 0)
(6.76303 0.193528 0)
(6.7552 0.142663 0)
(6.80648 0.0745592 0)
(6.81272 0.0201798 0)
(6.86679 -0.0356424 0)
(6.87638 -0.0634345 0)
(6.93375 -0.058291 0)
(6.93879 -0.0417537 0)
(6.98713 0.00999011 0)
(7.00562 0.0577337 0)
(7.0699 0.127306 0)
(7.10535 0.172314 0)
(7.1861 0.22837 0)
(7.22552 0.255539 0)
(7.30557 0.295282 0)
(7.33989 0.312349 0)
(7.40856 0.339724 0)
(7.43537 0.347555 0)
(7.49182 0.364996 0)
(7.51294 0.373702 0)
(7.55795 0.387736 0)
(7.57662 0.390316 0)
(7.61551 0.401081 0)
(7.63208 0.401801 0)
(7.66665 0.411697 0)
(7.68213 0.411215 0)
(7.71563 0.420581 0)
(7.72833 0.418519 0)
(7.76162 0.425906 0)
(7.77117 0.421841 0)
(7.80402 0.428235 0)
(7.81151 0.424544 0)
(7.84494 0.431729 0)
(7.85099 0.427655 0)
(7.88538 0.434657 0)
(7.88996 0.429809 0)
(7.92549 0.436195 0)
(7.92953 0.430894 0)
(7.96706 0.438547 0)
(7.97106 0.434093 0)
(8.01201 0.444971 0)
(8.0162 0.443469 0)
(8.05935 0.455872 0)
(8.06289 0.451798 0)
(8.10187 0.459579 0)
(8.10321 0.45436 0)
(8.13515 0.45981 0)
(8.1357 0.453023 0)
(8.16306 0.457155 0)
(8.16272 0.448807 0)
(8.19127 0.450503 0)
(8.1923 0.441702 0)
(8.22145 0.446242 0)
(8.22315 0.438344 0)
(8.25218 0.443829 0)
(8.25429 0.437004 0)
(8.28213 0.443733 0)
(8.28459 0.43845 0)
(8.31017 0.446312 0)
(8.31272 0.441011 0)
(8.33436 0.447233 0)
(8.33606 0.440457 0)
(8.35327 0.444267 0)
(8.35305 0.437636 0)
(8.36564 0.440667 0)
(8.3639 0.434532 0)
(8.37504 0.436323 0)
(8.37424 0.430527 0)
(8.38258 0.431448 0)
(8.38045 0.426824 0)
(8.3868 0.42713 0)
(8.38431 0.423554 0)
(8.38862 0.423404 0)
(8.38642 0.420515 0)
(8.38804 0.418446 0)
(8.38736 0.416254 0)
(8.38628 0.414195 0)
(8.38622 0.412297 0)
(8.38304 0.410673 0)
(8.38305 0.409455 0)
(8.37881 0.407115 0)
(8.37831 0.405678 0)
(8.37255 0.403428 0)
(8.37062 0.402116 0)
(8.36355 0.401094 0)
(8.3599 0.399604 0)
(8.35334 0.397763 0)
(8.34898 0.396054 0)
(8.34305 0.394508 0)
(8.33834 0.392775 0)
(8.33148 0.391623 0)
(8.32542 0.387655 0)
(8.3188 0.387906 0)
(8.30969 0.383019 0)
(8.30421 0.383556 0)
(8.29273 0.378226 0)
(8.28805 0.379778 0)
(8.27564 0.374563 0)
(8.27142 0.376284 0)
(8.25744 0.371166 0)
(8.25363 0.372461 0)
(8.23798 0.367027 0)
(8.23438 0.368045 0)
(8.21748 0.361846 0)
(8.21373 0.363062 0)
(8.19501 0.3569 0)
(8.19162 0.357838 0)
(8.17222 0.351691 0)
(8.16939 0.352791 0)
(8.15101 0.346824 0)
(8.14924 0.34822 0)
(8.13143 0.34288 0)
(8.13052 0.343879 0)
(8.11213 0.338765 0)
(8.11136 0.339333 0)
(8.09229 0.33407 0)
(8.09215 0.33441 0)
(8.07248 0.329964 0)
(8.07224 0.329981 0)
(8.05419 0.325848 0)
(8.05347 0.32634 0)
(8.03577 0.320548 0)
(8.03524 0.321258 0)
(8.01632 0.316081 0)
(8.01563 0.316653 0)
(7.99851 0.311726 0)
(7.9976 0.313389 0)
(7.98347 0.308126 0)
(7.98216 0.309984 0)
(7.96839 0.304835 0)
(7.96693 0.30631 0)
(7.95323 0.301178 0)
(7.95096 0.302934 0)
(7.93966 0.300951 0)
(7.93322 0.296921 0)
(7.92871 0.299597 0)
(7.91696 0.29472 0)
(7.91413 0.295923 0)
(7.90268 0.29049 0)
(7.90041 0.292296 0)
(7.89075 0.287348 0)
(7.88889 0.288834 0)
(7.88046 0.284556 0)
(7.87882 0.28659 0)
(7.87217 0.284055 0)
(7.86921 0.285089 0)
(7.86791 0.284022 0)
(7.85904 0.283481 0)
(7.85868 0.283121 0)
(7.84901 0.281672 0)
(7.84864 0.281224 0)
(7.84419 0.280336 0)
(7.84126 0.278333 0)
(7.84068 0.278439 0)
(7.83612 0.277021 0)
(7.83603 0.277007 0)
(7.83414 0.275951 0)
(7.83422 0.275058 0)
(7.83431 0.274682 0)
(7.83459 0.274338 0)
(7.83533 0.273855 0)
(7.83647 0.273764 0)
(7.83799 0.273509 0)
(7.83991 0.27325 0)
(7.84237 0.273027 0)
(7.84521 0.272773 0)
(7.84894 0.271749 0)
(7.85361 0.270831 0)
(7.85134 0.269551 0)
(-0.0049617 -0.00420007 0)
(-0.0112312 -0.0097877 0)
(-0.0407222 0.000157947 0)
(-0.0428604 -0.00479838 0)
(-0.13172 0.0347778 0)
(-0.139354 0.0278331 0)
(-0.307263 0.064979 0)
(-0.318024 0.0461557 0)
(-0.509565 0.0684449 0)
(-0.520274 0.0477653 0)
(-0.713239 0.0656653 0)
(-0.721962 0.0470953 0)
(-0.901707 0.0572835 0)
(-0.908078 0.0421381 0)
(-1.06485 0.0436145 0)
(-1.06924 0.0321896 0)
(-1.19614 0.0286013 0)
(-1.19919 0.0192782 0)
(-1.29344 0.0132148 0)
(-1.29505 0.0055938 0)
(-1.35015 -0.00383811 0)
(-1.35215 -0.010487 0)
(-1.36825 -0.0190722 0)
(-1.36591 -0.0259193 0)
(-1.36249 -0.0307699 0)
(-1.34767 -0.0354875 0)
(-1.34222 -0.0373902 0)
(-1.31857 -0.0375676 0)
(-1.31505 -0.0364213 0)
(-1.29989 -0.0312928 0)
(-1.30231 -0.0278561 0)
(-1.29791 -0.0237454 0)
(-1.33417 -0.0120552 0)
(-1.33041 -0.00909222 0)
(-1.42453 0.0111048 0)
(-1.41482 0.00959762 0)
(-1.59511 0.0500707 0)
(-1.5802 0.0426018 0)
(-1.85985 0.0975581 0)
(-1.8517 0.0827538 0)
(-2.2277 0.158922 0)
(-2.23719 0.130253 0)
(-2.72654 0.229045 0)
(-2.75613 0.176696 0)
(-3.36881 0.307307 0)
(-3.41564 0.237731 0)
(-4.17093 0.38952 0)
(-4.22747 0.312468 0)
(-5.14014 0.474849 0)
(-5.1954 0.390747 0)
(-6.25511 0.547787 0)
(-6.29508 0.460673 0)
(-7.46957 0.626781 0)
(-7.54661 0.543459 0)
(-8.70675 0.692602 0)
(-8.89212 0.646144 0)
(-9.88108 0.744559 0)
(-10.2224 0.739798 0)
(-10.9821 0.761188 0)
(-11.4025 0.724511 0)
(-11.9253 0.671913 0)
(-12.2807 0.580869 0)
(-12.5969 0.453127 0)
(-12.811 0.305715 0)
(-12.948 0.141661 0)
(-13.0066 0.00116678 0)
(-12.9834 -0.112788 0)
(-12.8217 -0.193867 0)
(-12.6911 -0.198362 0)
(-12.3124 -0.228125 0)
(-12.0802 -0.287402 0)
(-11.5252 -0.332963 0)
(-11.1377 -0.392314 0)
(-10.5026 -0.446852 0)
(-9.9765 -0.509411 0)
(-9.29281 -0.545555 0)
(-8.65801 -0.589777 0)
(-7.9441 -0.623113 0)
(-7.23776 -0.635045 0)
(-6.5067 -0.684203 0)
(-5.7684 -0.685401 0)
(-5.03437 -0.715482 0)
(-4.29838 -0.713633 0)
(-3.57657 -0.71928 0)
(-2.86797 -0.7058 0)
(-2.18448 -0.694831 0)
(-1.53473 -0.667333 0)
(-0.940061 -0.629559 0)
(-0.421739 -0.564777 0)
(0.0251097 -0.482215 0)
(0.439121 -0.406787 0)
(0.842282 -0.337184 0)
(1.21873 -0.276118 0)
(1.54408 -0.21407 0)
(1.81338 -0.1605 0)
(2.03059 -0.113743 0)
(2.19724 -0.06626 0)
(2.3141 -0.0243089 0)
(2.38734 0.0046904 0)
(2.41447 0.019672 0)
(2.39136 0.0259118 0)
(2.30622 0.0145691 0)
(2.13637 0.0336444 0)
(1.89831 0.158803 0)
(1.54658 0.320541 0)
(1.08473 0.463512 0)
(0.571718 0.565882 0)
(0.0550343 0.650701 0)
(-0.48237 0.683805 0)
(-1.0445 0.706705 0)
(-1.62085 0.673418 0)
(-2.13855 0.674725 0)
(-2.62028 0.591996 0)
(-2.97606 0.557068 0)
(-3.24828 0.416549 0)
(-3.38284 0.282703 0)
(-3.44873 0.117862 0)
(-3.46085 -0.0240739 0)
(-3.40317 -0.225529 0)
(-3.29266 -0.390816 0)
(-2.89393 -0.628373 0)
(-2.47816 -0.637753 0)
(-1.79255 -0.770304 0)
(-1.33742 -0.592649 0)
(-0.873447 -0.543111 0)
(-0.646823 -0.449567 0)
(-0.0664693 -0.498789 0)
(0.0595778 -0.381054 0)
(1.17445 -0.670744 0)
(1.26588 -0.553542 0)
(2.80419 -0.709151 0)
(2.8419 -0.580099 0)
(4.31416 -0.641417 0)
(4.32368 -0.495566 0)
(5.70005 -0.588287 0)
(5.69093 -0.49273 0)
(7.0047 -0.516029 0)
(6.9668 -0.448248 0)
(8.1651 -0.443449 0)
(8.1135 -0.402249 0)
(9.17059 -0.399999 0)
(9.12046 -0.350382 0)
(10.0419 -0.316084 0)
(9.99482 -0.290592 0)
(10.7359 -0.239908 0)
(10.7048 -0.22122 0)
(11.2396 -0.157219 0)
(11.2313 -0.123485 0)
(11.5202 -0.0522194 0)
(11.5271 -0.0243763 0)
(11.5963 0.0148046 0)
(11.5877 0.0446518 0)
(11.5083 0.0873552 0)
(11.4766 0.121101 0)
(11.2191 0.140053 0)
(11.1921 0.19188 0)
(10.783 0.182271 0)
(10.7515 0.259106 0)
(10.2448 0.190296 0)
(10.2027 0.290063 0)
(9.65758 0.186126 0)
(9.61156 0.294494 0)
(9.04542 0.179254 0)
(9 0.286336 0)
(8.44174 0.160675 0)
(8.39599 0.27161 0)
(7.8699 0.141261 0)
(7.83291 0.239341 0)
(7.32069 0.13932 0)
(7.29189 0.217076 0)
(6.8106 0.116534 0)
(6.78223 0.192934 0)
(6.37961 0.0892568 0)
(6.35397 0.152513 0)
(6.02591 0.0646826 0)
(6.00627 0.108729 0)
(5.7562 0.0314817 0)
(5.73988 0.086341 0)
(5.5237 0.0334152 0)
(5.50821 0.0891119 0)
(5.2779 0.0481256 0)
(5.26224 0.0983236 0)
(5.02837 0.0449961 0)
(5.01741 0.0952743 0)
(4.76398 0.0687783 0)
(4.75936 0.105213 0)
(4.48864 0.0722597 0)
(4.48831 0.101859 0)
(4.24727 0.0639874 0)
(4.24392 0.0932597 0)
(4.03374 0.0599611 0)
(4.03344 0.0768715 0)
(3.8548 0.052461 0)
(3.8541 0.0457465 0)
(3.76204 0.027692 0)
(3.7479 0.0135309 0)
(3.7371 0.00184594 0)
(3.73337 -0.0082833 0)
(3.79602 -0.0317741 0)
(3.79553 -0.0566437 0)
(3.97323 -0.072938 0)
(3.97584 -0.107371 0)
(4.25977 -0.107976 0)
(4.2687 -0.156041 0)
(4.64298 -0.133909 0)
(4.65675 -0.190471 0)
(5.10832 -0.163056 0)
(5.12934 -0.216779 0)
(5.63421 -0.188516 0)
(5.66541 -0.243794 0)
(6.20219 -0.200534 0)
(6.23952 -0.246073 0)
(6.79105 -0.199696 0)
(6.81481 -0.2192 0)
(7.31952 -0.158434 0)
(7.31941 -0.167509 0)
(7.76258 -0.131437 0)
(7.75195 -0.135116 0)
(8.16739 -0.136488 0)
(8.16796 -0.130763 0)
(8.53325 -0.112008 0)
(8.5396 -0.0961053 0)
(8.81507 -0.0542494 0)
(8.81415 -0.037223 0)
(8.94866 0.00944153 0)
(8.95052 0.0208836 0)
(8.96687 0.0493846 0)
(8.92747 0.0724648 0)
(8.90999 0.0967782 0)
(8.76443 0.115505 0)
(8.75108 0.141076 0)
(8.51599 0.124623 0)
(8.50669 0.153957 0)
(8.25742 0.109158 0)
(8.2459 0.137748 0)
(8.03495 0.0758648 0)
(8.02477 0.0986685 0)
(7.87734 0.0392054 0)
(7.87666 0.0481426 0)
(7.78877 0.00984767 0)
(7.83746 -0.0211792 0)
(7.79484 -0.0648521 0)
(7.89385 -0.0813664 0)
(7.87739 -0.122463 0)
(8.00488 -0.114965 0)
(7.99004 -0.115591 0)
(8.07902 -0.0832573 0)
(8.00771 -0.0380375 0)
(8.02636 0.00657207 0)
(7.79042 0.0803917 0)
(7.7955 0.156309 0)
(7.4119 0.212714 0)
(7.40766 0.293284 0)
(6.94683 0.281356 0)
(6.9293 0.323808 0)
(6.44041 0.232937 0)
(6.42008 0.272122 0)
(5.97097 0.164664 0)
(5.94738 0.206815 0)
(5.57076 0.105748 0)
(5.548 0.154249 0)
(5.23886 0.0786225 0)
(5.22325 0.121399 0)
(4.97915 0.0749417 0)
(4.974 0.092603 0)
(4.80244 0.0574711 0)
(4.79987 0.0506686 0)
(4.72605 0.0484259 0)
(4.71593 0.0432646 0)
(4.71555 0.0404431 0)
(4.71451 0.0387346 0)
(4.80015 0.0385173 0)
(4.79393 0.0403501 0)
(4.97934 0.0338598 0)
(4.9714 0.0314757 0)
(5.22169 0.0390743 0)
(5.21235 0.0502217 0)
(5.47817 0.0700732 0)
(5.46631 0.0808625 0)
(5.69424 0.110858 0)
(5.6984 0.127839 0)
(5.83661 0.102543 0)
(5.89415 0.127889 0)
(5.92608 0.0964373 0)
(6.07727 0.0703681 0)
(6.07567 0.0524888 0)
(6.22194 0.0396427 0)
(6.22543 0.0227788 0)
(6.36276 0.0518081 0)
(6.36729 0.048089 0)
(6.50479 0.0862032 0)
(6.50739 0.0947903 0)
(6.64018 0.130024 0)
(6.64198 0.13585 0)
(6.75664 0.163737 0)
(6.76075 0.159132 0)
(6.85714 0.182696 0)
(6.86384 0.16981 0)
(6.95617 0.194157 0)
(6.96169 0.176968 0)
(7.06257 0.204016 0)
(7.06039 0.17587 0)
(7.19285 0.183748 0)
(7.18635 0.137358 0)
(7.38573 0.0724571 0)
(7.38006 0.00481155 0)
(7.67884 -0.0795926 0)
(7.68325 -0.134688 0)
(8.07313 -0.148909 0)
(8.08944 -0.206488 0)
(8.54411 -0.189506 0)
(8.55352 -0.226453 0)
(9.08748 -0.224612 0)
(9.09404 -0.251553 0)
(9.69237 -0.265009 0)
(9.69524 -0.284365 0)
(10.3366 -0.291747 0)
(10.3342 -0.299443 0)
(10.9619 -0.298502 0)
(10.9603 -0.308097 0)
(11.5684 -0.280391 0)
(11.576 -0.302663 0)
(12.1065 -0.234928 0)
(12.1125 -0.2549 0)
(12.5716 -0.202838 0)
(12.5787 -0.221994 0)
(12.9853 -0.17324 0)
(12.9844 -0.180153 0)
(13.3023 -0.107082 0)
(13.3056 -0.121209 0)
(13.5453 -0.0573877 0)
(13.546 -0.0625947 0)
(13.7213 -6.60386e-05 0)
(13.7225 0.0156406 0)
(13.8743 0.053603 0)
(13.8763 0.0766079 0)
(14.009 0.105291 0)
(14.0104 0.106503 0)
(14.1342 0.0937822 0)
(14.1374 0.064083 0)
(14.2439 0.00825386 0)
(14.2563 -0.0332868 0)
(14.3709 -0.080626 0)
(14.3863 -0.109352 0)
(14.4992 -0.127491 0)
(14.5128 -0.143453 0)
(14.6098 -0.146291 0)
(14.6189 -0.153735 0)
(14.6964 -0.148417 0)
(14.7008 -0.153549 0)
(14.7602 -0.151244 0)
(14.7641 -0.156759 0)
(14.8138 -0.154137 0)
(14.8172 -0.157428 0)
(14.8603 -0.155981 0)
(14.8648 -0.159972 0)
(14.9063 -0.159096 0)
(14.9116 -0.162747 0)
(14.9562 -0.160792 0)
(14.9594 -0.164008 0)
(15.007 -0.160138 0)
(15.0092 -0.16472 0)
(15.0602 -0.161491 0)
(15.0622 -0.167691 0)
(15.1184 -0.163776 0)
(15.1201 -0.170426 0)
(15.1819 -0.16585 0)
(15.1836 -0.173883 0)
(15.2501 -0.169128 0)
(15.2519 -0.17858 0)
(15.3229 -0.17502 0)
(15.3243 -0.186311 0)
(15.3996 -0.184274 0)
(15.4006 -0.194288 0)
(15.4799 -0.187037 0)
(15.4781 -0.192427 0)
(15.5568 -0.183559 0)
(15.5545 -0.18993 0)
(15.6303 -0.181019 0)
(15.6288 -0.188228 0)
(15.7011 -0.181427 0)
(15.7009 -0.191432 0)
(15.7722 -0.182281 0)
(15.7732 -0.19327 0)
(15.8432 -0.183423 0)
(15.845 -0.195159 0)
(15.9118 -0.1845 0)
(15.9134 -0.196645 0)
(15.9762 -0.186397 0)
(15.9784 -0.198639 0)
(16.038 -0.187923 0)
(16.0404 -0.197782 0)
(16.0926 -0.18567 0)
(16.0952 -0.19512 0)
(16.1385 -0.182081 0)
(16.142 -0.19255 0)
(16.1789 -0.180112 0)
(16.1834 -0.189271 0)
(16.2156 -0.178423 0)
(16.2203 -0.186815 0)
(16.246 -0.17725 0)
(16.2508 -0.18452 0)
(16.273 -0.176826 0)
(16.278 -0.182629 0)
(16.2937 -0.177349 0)
(16.3019 -0.181479 0)
(16.3068 -0.177928 0)
(16.318 -0.180652 0)
(16.3183 -0.178573 0)
(16.3297 -0.1805 0)
(16.3283 -0.178834 0)
(16.3375 -0.179547 0)
(16.3353 -0.178615 0)
(16.3402 -0.177861 0)
(16.3384 -0.177716 0)
(16.3383 -0.17736 0)
(16.3361 -0.177659 0)
(16.3341 -0.178047 0)
(16.3309 -0.179163 0)
(16.3277 -0.179359 0)
(16.3223 -0.17897 0)
(16.3179 -0.179371 0)
(16.3126 -0.177037 0)
(16.3024 -0.177882 0)
(16.2992 -0.17518 0)
(16.2822 -0.176999 0)
(16.2803 -0.173722 0)
(16.2601 -0.177155 0)
(16.2584 -0.17352 0)
(16.2364 -0.176019 0)
(16.2352 -0.172971 0)
(16.2103 -0.174671 0)
(16.2092 -0.171525 0)
(16.1826 -0.173164 0)
(16.1812 -0.169582 0)
(16.1527 -0.170874 0)
(16.1519 -0.167583 0)
(16.12 -0.168584 0)
(16.1201 -0.166593 0)
(16.0878 -0.168471 0)
(16.0887 -0.166727 0)
(16.0561 -0.16864 0)
(16.0572 -0.166468 0)
(16.0254 -0.167462 0)
(16.0258 -0.164514 0)
(15.9936 -0.164997 0)
(15.9945 -0.162869 0)
(15.9619 -0.163585 0)
(15.963 -0.161952 0)
(15.9312 -0.162755 0)
(15.9312 -0.160169 0)
(15.9001 -0.162455 0)
(15.9005 -0.158879 0)
(15.8679 -0.159626 0)
(15.8684 -0.156826 0)
(15.8365 -0.158994 0)
(15.837 -0.156233 0)
(15.8069 -0.160491 0)
(15.8068 -0.156239 0)
(15.7776 -0.159482 0)
(15.7774 -0.15533 0)
(15.7484 -0.157814 0)
(15.748 -0.153822 0)
(15.72 -0.155292 0)
(15.7137 -0.154577 0)
(15.7044 -0.151843 0)
(15.6802 -0.154663 0)
(15.6786 -0.150449 0)
(15.653 -0.153212 0)
(15.6516 -0.147877 0)
(15.629 -0.1529 0)
(15.6272 -0.147441 0)
(15.6064 -0.151578 0)
(15.6052 -0.146736 0)
(15.5855 -0.15032 0)
(15.5823 -0.147101 0)
(15.5732 -0.149373 0)
(15.5602 -0.145903 0)
(15.5592 -0.146299 0)
(15.5414 -0.143808 0)
(15.5413 -0.144061 0)
(15.526 -0.143452 0)
(15.521 -0.142871 0)
(15.5203 -0.142375 0)
(15.5081 -0.141264 0)
(15.5083 -0.141342 0)
(15.4992 -0.141111 0)
(15.4995 -0.140872 0)
(15.497 -0.139927 0)
(15.4944 -0.139561 0)
(15.4942 -0.139074 0)
(15.4941 -0.138552 0)
(15.4945 -0.138222 0)
(15.4956 -0.137774 0)
(15.4975 -0.137553 0)
(15.5003 -0.137318 0)
(15.5036 -0.137083 0)
(15.5085 -0.136629 0)
(15.5135 -0.136531 0)
(15.5079 -0.136391 0)
(-0.00384194 -0.00306583 0)
(-0.0338242 0.00753125 0)
(-0.0427818 0.0041211 0)
(-0.149488 0.0694907 0)
(-0.161697 0.0666921 0)
(-0.393756 0.168733 0)
(-0.413621 0.146908 0)
(-0.69995 0.193353 0)
(-0.711982 0.168072 0)
(-1.00851 0.191497 0)
(-1.01704 0.166157 0)
(-1.29203 0.171184 0)
(-1.29749 0.14919 0)
(-1.53559 0.142155 0)
(-1.53902 0.123406 0)
(-1.73435 0.108636 0)
(-1.73668 0.0931181 0)
(-1.88538 0.0724591 0)
(-1.88843 0.0578063 0)
(-1.98423 0.0321 0)
(-1.99101 0.0173724 0)
(-2.03338 -0.00882935 0)
(-2.04015 -0.0241731 0)
(-2.05033 -0.0408918 0)
(-2.04793 -0.0529387 0)
(-2.04627 -0.0609026 0)
(-2.03351 -0.066391 0)
(-2.03262 -0.0662789 0)
(-2.02002 -0.059704 0)
(-2.02758 -0.049693 0)
(-2.02209 -0.0382382 0)
(-2.06668 -0.0130875 0)
(-2.06312 -5.53114e-05 0)
(-2.17356 0.0418487 0)
(-2.16961 0.0556015 0)
(-2.37903 0.121355 0)
(-2.36662 0.12857 0)
(-2.69416 0.221842 0)
(-2.67919 0.213079 0)
(-3.13229 0.340936 0)
(-3.14699 0.301075 0)
(-3.70845 0.476247 0)
(-3.74815 0.432135 0)
(-4.44498 0.6172 0)
(-4.49875 0.565972 0)
(-5.33907 0.781462 0)
(-5.40432 0.714491 0)
(-6.39158 0.957089 0)
(-6.4463 0.873516 0)
(-7.55287 1.10328 0)
(-7.63224 1.01181 0)
(-8.77369 1.20672 0)
(-8.90887 1.14859 0)
(-9.97962 1.26052 0)
(-10.2084 1.26516 0)
(-11.0887 1.28511 0)
(-11.4164 1.31272 0)
(-12.0645 1.26 0)
(-12.4227 1.24409 0)
(-12.8448 1.13205 0)
(-13.1293 1.00559 0)
(-13.38 0.84056 0)
(-13.545 0.641345 0)
(-13.67 0.426682 0)
(-13.7426 0.211707 0)
(-13.7783 0.018956 0)
(-13.7474 -0.167559 0)
(-13.6562 -0.305886 0)
(-13.4227 -0.4696 0)
(-13.2135 -0.5751 0)
(-12.761 -0.847723 0)
(-12.3989 -0.953456 0)
(-11.767 -1.15227 0)
(-11.2618 -1.20961 0)
(-10.5389 -1.39388 0)
(-9.91608 -1.40395 0)
(-9.12959 -1.5513 0)
(-8.42015 -1.54345 0)
(-7.59209 -1.63284 0)
(-6.83253 -1.61935 0)
(-5.99779 -1.66267 0)
(-5.22646 -1.62062 0)
(-4.41185 -1.63079 0)
(-3.65135 -1.56295 0)
(-2.87974 -1.52466 0)
(-2.16526 -1.4335 0)
(-1.47824 -1.34296 0)
(-0.856466 -1.21947 0)
(-0.278059 -1.09211 0)
(0.26334 -0.973839 0)
(0.794009 -0.895874 0)
(1.29538 -0.817177 0)
(1.75603 -0.730814 0)
(2.15486 -0.62712 0)
(2.48961 -0.522588 0)
(2.75864 -0.422574 0)
(2.95971 -0.321686 0)
(3.09853 -0.227173 0)
(3.17568 -0.13844 0)
(3.17388 -0.0413578 0)
(3.08221 0.0577992 0)
(2.90339 0.213327 0)
(2.58638 0.403397 0)
(2.16256 0.633548 0)
(1.69006 0.857375 0)
(1.18068 1.01786 0)
(0.673616 1.13098 0)
(0.10576 1.20704 0)
(-0.409373 1.30874 0)
(-1.0521 1.30093 0)
(-1.49911 1.35195 0)
(-2.11739 1.19828 0)
(-2.42123 1.15287 0)
(-2.89072 0.920304 0)
(-3.05552 0.716962 0)
(-3.27209 0.435117 0)
(-3.34003 0.201212 0)
(-3.32304 -0.0906521 0)
(-3.26139 -0.347102 0)
(-2.8693 -0.813485 0)
(-2.74136 -0.996812 0)
(-1.85231 -1.39909 0)
(-1.59067 -1.32332 0)
(-0.777525 -1.20645 0)
(-0.576572 -1.02137 0)
(0.347944 -1.04155 0)
(0.391098 -0.930767 0)
(1.85941 -1.358 0)
(1.90788 -1.26597 0)
(3.97185 -1.79697 0)
(4.07517 -1.56198 0)
(6.0995 -1.61437 0)
(6.13359 -1.43204 0)
(7.99735 -1.4573 0)
(8.00406 -1.34242 0)
(9.73666 -1.37379 0)
(9.74072 -1.25237 0)
(11.3094 -1.21137 0)
(11.2992 -1.10871 0)
(12.6931 -1.04079 0)
(12.6616 -1.00246 0)
(13.8903 -0.893148 0)
(13.859 -0.847904 0)
(14.9001 -0.730165 0)
(14.8882 -0.665644 0)
(15.6988 -0.553498 0)
(15.6967 -0.479948 0)
(16.2434 -0.333906 0)
(16.2747 -0.25489 0)
(16.535 -0.118965 0)
(16.586 -0.0439884 0)
(16.6314 0.0591613 0)
(16.6284 0.137167 0)
(16.4999 0.248918 0)
(16.4678 0.319372 0)
(16.1313 0.378111 0)
(16.0987 0.477184 0)
(15.5947 0.474059 0)
(15.5528 0.59217 0)
(14.9278 0.512483 0)
(14.8814 0.640909 0)
(14.1751 0.527761 0)
(14.1266 0.661214 0)
(13.3763 0.521158 0)
(13.3229 0.656509 0)
(12.5725 0.477209 0)
(12.5196 0.612621 0)
(11.7749 0.466649 0)
(11.7332 0.57579 0)
(10.9991 0.440325 0)
(10.9547 0.533799 0)
(10.2901 0.361122 0)
(10.2425 0.459567 0)
(9.68592 0.290824 0)
(9.64676 0.361223 0)
(9.17538 0.213885 0)
(9.14235 0.274812 0)
(8.75208 0.162271 0)
(8.72295 0.243315 0)
(8.35288 0.176947 0)
(8.32327 0.263887 0)
(7.95597 0.182558 0)
(7.9292 0.263308 0)
(7.56078 0.200153 0)
(7.54575 0.269549 0)
(7.14399 0.231669 0)
(7.14458 0.268599 0)
(6.76887 0.212853 0)
(6.77088 0.246632 0)
(6.45704 0.187168 0)
(6.45624 0.215485 0)
(6.19641 0.164852 0)
(6.19727 0.156669 0)
(6.03345 0.105649 0)
(6.01911 0.0851362 0)
(5.97371 0.0361971 0)
(5.96386 0.000616826 0)
(6.01755 -0.0501624 0)
(6.01765 -0.0926392 0)
(6.20699 -0.155474 0)
(6.20566 -0.211943 0)
(6.54289 -0.259165 0)
(6.54731 -0.330743 0)
(7.0091 -0.346637 0)
(7.02113 -0.423555 0)
(7.587 -0.421706 0)
(7.60714 -0.494398 0)
(8.24695 -0.489073 0)
(8.28211 -0.549298 0)
(8.95327 -0.527125 0)
(8.99915 -0.585738 0)
(9.68037 -0.531693 0)
(9.72497 -0.562919 0)
(10.4085 -0.501354 0)
(10.4304 -0.466831 0)
(11.0418 -0.405122 0)
(11.0412 -0.397122 0)
(11.5973 -0.378981 0)
(11.592 -0.374329 0)
(12.103 -0.347708 0)
(12.1074 -0.328062 0)
(12.5437 -0.255559 0)
(12.5473 -0.217202 0)
(12.8358 -0.112993 0)
(12.8554 -0.0694766 0)
(12.966 0.0120418 0)
(12.9818 0.0672353 0)
(12.9842 0.130802 0)
(12.9159 0.197486 0)
(12.8943 0.243026 0)
(12.6889 0.281633 0)
(12.6725 0.32479 0)
(12.3773 0.291184 0)
(12.357 0.34024 0)
(12.0406 0.254577 0)
(12.0155 0.302594 0)
(11.7291 0.193046 0)
(11.7069 0.228333 0)
(11.475 0.117655 0)
(11.4625 0.134622 0)
(11.3071 0.0302183 0)
(11.3033 0.0342071 0)
(11.1776 -0.0478853 0)
(11.2073 -0.0263356 0)
(11.0279 -0.0616917 0)
(11.075 -0.00388314 0)
(10.8469 0.0721468 0)
(10.8651 0.148424 0)
(10.5336 0.262601 0)
(10.5193 0.344645 0)
(9.99899 0.362412 0)
(9.98082 0.453128 0)
(9.39418 0.441548 0)
(9.37332 0.544201 0)
(8.74518 0.512323 0)
(8.71469 0.594208 0)
(8.0782 0.497161 0)
(8.03797 0.580671 0)
(7.47009 0.46489 0)
(7.43571 0.530394 0)
(6.95812 0.430642 0)
(6.94008 0.467182 0)
(6.55395 0.376082 0)
(6.5476 0.38946 0)
(6.26422 0.317438 0)
(6.26016 0.302103 0)
(6.10277 0.248054 0)
(6.09548 0.230943 0)
(6.07474 0.179738 0)
(6.08043 0.145307 0)
(6.15043 0.0824962 0)
(6.15476 0.0361381 0)
(6.32631 -0.0509293 0)
(6.32092 -0.0952131 0)
(6.57027 -0.14348 0)
(6.5637 -0.175786 0)
(6.86323 -0.179664 0)
(6.84727 -0.173297 0)
(7.15289 -0.141568 0)
(7.15032 -0.121408 0)
(7.41567 -0.0844349 0)
(7.45774 -0.0506063 0)
(7.56509 -0.0631838 0)
(7.73016 -0.0269944 0)
(7.73156 -0.0264333 0)
(7.95261 0.00574847 0)
(7.9527 -0.0105585 0)
(8.12239 0.0058975 0)
(8.12333 -0.0147255 0)
(8.28253 -0.024352 0)
(8.28341 -0.049971 0)
(8.4213 -0.048296 0)
(8.42638 -0.0642636 0)
(8.5505 -0.0394725 0)
(8.55851 -0.0485009 0)
(8.68229 -0.0191525 0)
(8.69239 -0.0325128 0)
(8.82289 -0.00194943 0)
(8.8333 -0.0232938 0)
(8.98771 0.00857051 0)
(8.99759 -0.0243845 0)
(9.18729 0.00478257 0)
(9.19517 -0.0412044 0)
(9.45262 -0.0359257 0)
(9.45544 -0.0548018 0)
(9.80743 -0.0924727 0)
(9.81767 -0.122719 0)
(10.2588 -0.155989 0)
(10.277 -0.209195 0)
(10.7862 -0.204694 0)
(10.8026 -0.244796 0)
(11.4155 -0.27865 0)
(11.4158 -0.28946 0)
(12.1042 -0.351662 0)
(12.1087 -0.36626 0)
(12.8498 -0.392768 0)
(12.852 -0.376805 0)
(13.5898 -0.369604 0)
(13.601 -0.348018 0)
(14.3214 -0.347029 0)
(14.3276 -0.330641 0)
(14.9914 -0.256425 0)
(15.0094 -0.234496 0)
(15.5912 -0.18837 0)