/*--------------------------------*- C++ -*----------------------------------*\
| =========                 |                                                 |
| \\      /  F ield         | OpenFOAM: The Open Source CFD Toolbox           |
|  \\    /   O peration     | Version:  v1812                                 |
|   \\  /    A nd           | Web:      www.OpenFOAM.com                      |
|    \\/     M anipulation  |                                                 |
\*---------------------------------------------------------------------------*/
FoamFile
{
    version     2.0;
    format      ascii;
    class       volScalarField;
    location    "0.6";
    object      p;
}
// * * * * * * * * * * * * * * * * * * * * * * * * * * * * * * * * * * * * * //

dimensions      [1 -1 -2 0 0 0 0];


internalField   nonuniform List<scalar> 
64512
(
1
1
1
1
1
1
1
1
1
1
1
1
1
1
1
1
1
1
1
1
1
1
1
1
1
1
1
1
1
1
1
1
1
1
1
1
1
1
1
1
1
1
1
1
1
1
1
1
1
1
1
1
1
1
1
1
1.00001
1.00049
1.03175
2.97598
9.47817
10.7751
11.0778
11.1732
11.3286
11.449
11.5556
11.643
11.6957
11.7398
11.7822
11.8202
11.8651
11.9128
11.9513
11.9733
11.9839
11.9924
12.0068
12.0337
12.0753
12.13
12.1952
12.2667
12.3384
12.4019
12.4486
12.473
12.4777
12.4688
12.4463
12.4209
12.4009
12.3859
12.3781
12.3675
1
1
1
1
1
1
1
1
1
1
1
1
1
1
1
1
1
1
1
1
1
1
1
1
1
1
1
1
1
1
1
1
1
1
1
1
1
1
1
1
1
1
1
1
1
1
1
1
1
1
1
1
1
1
1
1
1.00001
1.00045
1.02918
2.81449
9.46833
10.8513
11.0687
11.1999
11.3408
11.4557
11.5567
11.6357
11.6889
11.73
11.774
11.8214
11.8656
11.9101
11.9466
11.9693
11.9813
11.9908
12.0055
12.032
12.0728
12.1272
12.1926
12.2646
12.3367
12.4001
12.446
12.4694
12.4733
12.4642
12.4428
12.4199
12.4016
12.388
12.3774
12.3671
1
1
1
1
1
1
1
1
1
1
1
1
1
1
1
1
1
1
1
1
1
1
1
1
1
1
1
1
1
1
1
1
1
1
1
1
1
1
1
1
1
1
1
1
1
1
1
1
1
1
1
1
1
1
1
1
1.00001
1.00039
1.02565
2.6177
9.42501
10.9223
11.1022
11.245
11.3495
11.4539
11.5519
11.6215
11.6729
11.7206
11.7666
11.815
11.8629
11.9071
11.9435
11.9666
11.979
11.9884
12.0027
12.0283
12.0679
12.1218
12.1875
12.2604
12.3332
12.3964
12.4411
12.4632
12.4668
12.4587
12.4402
12.4208
12.4035
12.3911
12.3759
12.3618
1
1
1
1
1
1
1
1
1
1
1
1
1
1
1
1
1
1
1
1
1
1
1
1
1
1
1
1
1
1
1
1
1
1
1
1
1
1
1
1
1
1
1
1
1
1
1
1
1
1
1
1
1
1
1
1
1
1.00034
1.02259
2.4557
9.18081
11.063
11.1463
11.2554
11.3701
11.4652
11.5468
11.609
11.6581
11.7071
11.7566
11.8081
11.8588
11.9033
11.9393
11.962
11.9743
11.9835
11.9976
12.0223
12.0608
12.1144
12.1805
12.254
12.3267
12.3887
12.4315
12.4523
12.4562
12.4501
12.4354
12.4193
12.4027
12.3896
12.3717
12.3505
1
1
1
1
1
1
1
1
1
1
1
1
1
1
1
1
1
1
1
1
1
1
1
1
1
1
1
1
1
1
1
1
1
1
1
1
1
1
1
1
1
1
1
1
1
1
1
1
1
1
1
1
1
1
1
1
1
1.00029
1.01972
2.3006
8.86252
11.099
11.1756
11.274
11.3867
11.466
11.5378
11.596
11.643
11.6943
11.7457
11.7983
11.8499
11.8954
11.9318
11.9549
11.9682
11.9777
11.9915
12.0151
12.0528
12.1061
12.1725
12.2463
12.3184
12.3787
12.4193
12.4394
12.4441
12.441
12.4304
12.4167
12.4001
12.3841
12.3672
12.3324
1
1
1
1
1
1
1
1
1
1
1
1
1
1
1
1
1
1
1
1
1
1
1
1
1
1
1
1
1
1
1
1
1
1
1
1
1
1
1
1
1
1
1
1
1
1
1
1
1
1
1
1
1
1
1
1
1
1.00022
1.01543
2.03573
8.67144
11.0736
11.2151
11.3086
11.4055
11.4676
11.5282
11.5834
11.6305
11.683
11.7349
11.7873
11.8385
11.8838
11.9205
11.9446
11.9594
11.9703
11.984
12.0072
12.0447
12.098
12.1646
12.2381
12.3085
12.3659
12.404
12.4237
12.4296
12.4297
12.4228
12.4098
12.3921
12.3724
12.3585
12.3135
1
1
1
1
1
1
1
1
1
1
1
1
1
1
1
1
1
1
1
1
1
1
1
1
1
1
1
1
1
1
1
1
1
1
1
1
1
1
1
1
1
1
1
1
1
1
1
1
1
1
1
1
1
1
1
1
1
1.00015
1.01071
1.7388
8.51681
11.0436
11.2406
11.32
11.4013
11.4565
11.5099
11.5653
11.6141
11.6671
11.7208
11.7735
11.8245
11.8692
11.9059
11.9316
11.9488
11.9612
11.9754
11.9985
12.036
12.0894
12.1557
12.2281
12.296
12.3504
12.3866
12.4064
12.4145
12.4173
12.4123
12.3988
12.3791
12.3532
12.3372
12.309
1
1
1
1
1
1
1
1
1
1
1
1
1
1
1
1
1
1
1
1
1
1
1
1
1
1
1
1
1
1
1
1
1
1
1
1
1
1
1
1
1
1
1
1
1
1
1
1
1
1
1
1
1
1
1
1
1
1.00009
1.00644
1.45489
8.35243
11.0357
11.2469
11.3133
11.3826
11.4336
11.4839
11.5426
11.5962
11.65
11.7043
11.7566
11.808
11.8519
11.8895
11.9173
11.9361
11.9496
11.9643
11.9882
12.0264
12.0802
12.146
12.2164
12.281
12.3322
12.3672
12.3879
12.3982
12.4023
12.3979
12.3827
12.3589
12.3264
12.3089
12.312
1
1
1
1
1
1
1
1
1
1
1
1
1
1
1
1
1
1
1
1
1
1
1
1
1
1
1
1
1
1
1
1
1
1
1
1
1
1
1
1
1
1
1
1
1
1
1
1
1
1
1
1
1
1
1
1
1
1.00005
1.00337
1.23468
8.14426
11.0215
11.2307
11.2908
11.3536
11.4019
11.4535
11.5174
11.5771
11.6308
11.6854
11.7369
11.7888
11.8318
11.8701
11.8993
11.9193
11.9341
11.9504
11.9759
12.0157
12.0701
12.1348
12.2021
12.2629
12.3112
12.3456
12.3675
12.3795
12.3839
12.3788
12.3604
12.3324
12.3015
12.2863
12.3075
1
1
1
1
1
1
1
1
1
1
1
1
1
1
1
1
1
1
1
1
1
1
1
1
1
1
1
1
1
1
1
1
1
1
1
1
1
1
1
1
1
1
1
1
1
1
1
1
1
1
1
1
1
1
1
1
1
1.00004
1.00222
1.13419
7.86024
10.9684
11.1905
11.2524
11.317
11.363
11.4224
11.4939
11.5588
11.6106
11.6644
11.7145
11.7661
11.8088
11.8483
11.8784
11.8993
11.9155
11.9337
11.9616
12.0031
12.0578
12.1208
12.1847
12.2417
12.2877
12.3221
12.3451
12.3578
12.3614
12.3542
12.3324
12.304
12.2808
12.2681
12.2913
1
1
1
1
1
1
1
1
1
1
1
1
1
1
1
1
1
1
1
1
1
1
1
1
1
1
1
1
1
1
1
1
1
1
1
1
1
1
1
1
1
1
1
1
1
1
1
1
1
1
1
1
1
1
1
1
1
1.00003
1.00202
1.12258
7.48799
10.8605
11.1248
11.2022
11.2751
11.3202
11.3916
11.4725
11.5398
11.5902
11.6433
11.6921
11.7418
11.784
11.8236
11.8535
11.8748
11.8927
11.9138
11.9447
11.9883
12.043
12.1038
12.1641
12.2177
12.262
12.2966
12.3199
12.3316
12.3336
12.3239
12.301
12.2764
12.2619
12.2496
12.2661
1
1
1
1
1
1
1
1
1
1
1
1
1
1
1
1
1
1
1
1
1
1
1
1
1
1
1
1
1
1
1
1
1
1
1
1
1
1
1
1
1
1
1
1
1
1
1
1
1
1
1
1
1
1
1
1
1
1.00003
1.00189
1.11427
7.10164
10.6811
11.0436
11.1355
11.2282
11.2791
11.3656
11.4553
11.5205
11.5703
11.622
11.6684
11.7154
11.7569
11.7957
11.8254
11.8474
11.8678
11.8922
11.9263
11.9715
12.0257
12.0838
12.1406
12.1912
12.2341
12.2683
12.2907
12.3002
12.2999
12.2891
12.2687
12.2496
12.2411
12.2274
12.236
1
1
1
1
1
1
1
1
1
1
1
1
1
1
1
1
1
1
1
1
1
1
1
1
1
1
1
1
1
1
1
1
1
1
1
1
1
1
1
1
1
1
1
1
1
1
1
1
1
1
1
1
1
1
1
1
1
1.00003
1.00173
1.10549
6.69803
10.4387
10.9493
11.0794
11.1768
11.2508
11.3503
11.441
11.4983
11.5478
11.597
11.641
11.6859
11.7271
11.7654
11.7953
11.819
11.8424
11.8705
11.9073
11.9532
12.0059
12.0609
12.1142
12.1623
12.2038
12.2365
12.2564
12.2631
12.2612
12.2515
12.2363
12.2221
12.2158
12.2003
12.2023
1
1
1
1
1
1
1
1
1
1
1
1
1
1
1
1
1
1
1
1
1
1
1
1
1
1
1
1
1
1
1
1
1
1
1
1
1
1
1
1
1
1
1
1
1
1
1
1
1
1
1
1
1
1
1
1
1
1.00003
1.00155
1.09538
6.23718
10.138
10.8774
11.0602
11.1319
11.2438
11.3466
11.4269
11.4722
11.5213
11.5684
11.6099
11.6532
11.6942
11.7323
11.7632
11.7894
11.8164
11.8481
11.887
11.9327
11.9832
12.0349
12.085
12.1306
12.17
12.1999
12.2162
12.2206
12.2188
12.2126
12.2035
12.1927
12.1864
12.1685
12.1614
1
1
1
1
1
1
1
1
1
1
1
1
1
1
1
1
1
1
1
1
1
1
1
1
1
1
1
1
1
1
1
1
1
1
1
1
1
1
1
1
1
1
1
1
1
1
1
1
1
1
1
1
1
1
1
1
1
1.00002
1.00132
1.08242
5.63183
9.76362
10.8472
11.0629
11.1301
11.2486
11.3453
11.4039
11.444
11.4915
11.5364
11.5759
11.6181
11.6586
11.6969
11.7292
11.7584
11.7897
11.8248
11.8652
11.91
11.9576
12.0058
12.0525
12.0954
12.1316
12.1573
12.1703
12.1736
12.174
12.173
12.1694
12.1605
12.1526
12.1352
12.108
1
1
1
1
1
1
1
1
1
1
1
1
1
1
1
1
1
1
1
1
1
1
1
1
1
1
1
1
1
1
1
1
1
1
1
1
1
1
1
1
1
1
1
1
1
1
1
1
1
1
1
1
1
1
1
1
1
1.00002
1.00102
1.06533
4.81653
9.45824
10.8872
11.0425
11.1813
11.2575
11.3292
11.3675
11.4121
11.4606
11.5006
11.5396
11.581
11.6209
11.6593
11.6933
11.7263
11.762
11.8004
11.8415
11.8845
11.9288
11.9731
12.0163
12.0556
12.0877
12.1089
12.1196
12.1244
12.1284
12.132
12.1323
12.1239
12.1135
12.1071
12.0376
1
1
1
1
1
1
1
1
1
1
1
1
1
1
1
1
1
1
1
1
1
1
1
1
1
1
1
1
1
1
1
1
1
1
1
1
1
1
1
1
1
1
1
1
1
1
1
1
1
1
1
1
1
1
1
1
1
1.00001
1.00066
1.04364
3.7024
9.33647
10.9919
11.0947
11.1985
11.2504
11.2886
11.329
11.3763
11.4255
11.4625
11.5019
11.543
11.5815
11.6199
11.6558
11.6932
11.7332
11.7741
11.8151
11.8557
11.8962
11.9365
11.9755
12.0105
12.0376
12.055
12.0652
12.073
12.0813
12.0876
12.0894
12.0805
12.0629
12.0581
11.9926
1
1
1
1
1
1
1
1
1
1
1
1
1
1
1
1
1
1
1
1
1
1
1
1
1
1
1
1
1
1
1
1
1
1
1
1
1
1
1
1
1
1
1
1
1
1
1
1
1
1
1
1
1
1
1
1
1
1
1.0003
1.02107
2.40213
9.26484
11.1029
11.082
11.1546
11.2055
11.2434
11.2858
11.3414
11.3828
11.4228
11.4642
11.5045
11.541
11.5788
11.6171
11.6589
11.7027
11.7453
11.7854
11.8231
11.8595
11.8953
11.9295
11.9594
11.9815
11.9964
12.0079
12.0197
12.0316
12.0381
12.038
12.0264
11.9981
11.98
11.984
1
1
1
1
1
1
1
1
1
1
1
1
1
1
1
1
1
1
1
1
1
1
1
1
1
1
1
1
1
1
1
1
1
1
1
1
1
1
1
1
1
1
1
1
1
1
1
1
1
1
1
1
1
1
1
1
1
1
1.00009
1.00627
1.41889
8.7647
11.0172
11.0314
11.0988
11.1425
11.1892
11.2413
11.301
11.3361
11.3824
11.4268
11.4646
11.4994
11.5358
11.5772
11.6232
11.6699
11.7132
11.7518
11.7862
11.818
11.8488
11.8776
11.9019
11.9198
11.9337
11.9476
11.9629
11.9755
11.98
11.9753
11.9583
11.9319
11.9167
11.9581
1
1
1
1
1
1
1
1
1
1
1
1
1
1
1
1
1
1
1
1
1
1
1
1
1
1
1
1
1
1
1
1
1
1
1
1
1
1
1
1
1
1
1
1
1
1
1
1
1
1
1
1
1
1
1
1
1
1
1.00004
1.00228
1.13739
7.81256
10.7336
10.9849
11.0324
11.0772
11.1314
11.1976
11.2458
11.293
11.3463
11.3882
11.4217
11.4556
11.4914
11.5366
11.5861
11.6344
11.6773
11.7136
11.7441
11.7711
11.7965
11.8195
11.8384
11.8531
11.8672
11.8838
11.9007
11.9108
11.9112
11.9018
11.8841
11.8689
11.862
11.9054
1
1
1
1
1
1
1
1
1
1
1
1
1
1
1
1
1
1
1
1
1
1
1
1
1
1
1
1
1
1
1
1
1
1
1
1
1
1
1
1
1
1
1
1
1
1
1
1
1
1
1
1
1
1
1
1
1
1
1.00003
1.00177
1.10786
6.83689
10.3693
10.871
10.9513
11.0052
11.0784
11.1406
11.1921
11.2592
11.3088
11.3443
11.3767
11.4087
11.4473
11.4957
11.5471
11.5957
11.637
11.6703
11.6964
11.7184
11.7383
11.7554
11.7694
11.7818
11.7966
11.8143
11.8291
11.8346
11.8306
11.8201
11.8094
11.8057
11.8018
11.8348
1
1
1
1
1
1
1
1
1
1
1
1
1
1
1
1
1
1
1
1
1
1
1
1
1
1
1
1
1
1
1
1
1
1
1
1
1
1
1
1
1
1
1
1
1
1
1
1
1
1
1
1
1
1
1
1
1
1
1.00002
1.0015
1.09177
6.04496
9.95493
10.7044
10.8724
10.939
11.0177
11.0766
11.164
11.2228
11.2651
11.2966
11.3287
11.3619
11.404
11.4541
11.5058
11.553
11.5916
11.6212
11.6426
11.6596
11.6742
11.6858
11.6955
11.7062
11.721
11.7373
11.7468
11.7472
11.742
11.7359
11.7339
11.7359
11.7315
11.7423
1
1
1
1
1
1
1
1
1
1
1
1
1
1
1
1
1
1
1
1
1
1
1
1
1
1
1
1
1
1
1
1
1
1
1
1
1
1
1
1
1
1
1
1
1
1
1
1
1
1
1
1
1
1
1
1
1
1
1.00002
1.0012
1.07434
5.20317
9.50174
10.6263
10.8008
10.8874
10.9705
11.0743
11.1301
11.1794
11.2172
11.2475
11.2811
11.3169
11.3604
11.4109
11.4615
11.5057
11.5404
11.5659
11.5828
11.5953
11.6051
11.6115
11.6172
11.6255
11.6383
11.6499
11.6532
11.6501
11.6464
11.6472
11.652
11.6576
11.6554
11.6217
1
1
1
1
1
1
1
1
1
1
1
1
1
1
1
1
1
1
1
1
1
1
1
1
1
1
1
1
1
1
1
1
1
1
1
1
1
1
1
1
1
1
1
1
1
1
1
1
1
1
1
1
1
1
1
1
1
1
1.00001
1.0008
1.05142
4.06278
9.18516
10.6468
10.7885
10.9229
10.9972
11.0399
11.0863
11.1329
11.1658
11.2024
11.2357
11.272
11.3158
11.3656
11.4129
11.4524
11.4828
11.5042
11.5173
11.5263
11.5313
11.5326
11.5344
11.5391
11.5468
11.5522
11.5502
11.5461
11.5458
11.553
11.5616
11.5654
11.572
11.469
1
1
1
1
1
1
1
1
1
1
1
1
1
1
1
1
1
1
1
1
1
1
1
1
1
1
1
1
1
1
1
1
1
1
1
1
1
1
1
1
1
1
1
1
1
1
1
1
1
1
1
1
1
1
1
1
1
1
1.00001
1.00036
1.02432
2.55565
9.08231
10.7496
10.871
10.888
10.9362
10.9886
11.0439
11.082
11.1228
11.1608
11.1902
11.2267
11.2705
11.3167
11.3581
11.3922
11.4187
11.4368
11.4472
11.4529
11.4528
11.4494
11.4468
11.446
11.4462
11.4449
11.4385
11.4333
11.4359
11.445
11.45
11.4399
11.4327
11.3523
1
1
1
1
1
1
1
1
1
1
1
1
1
1
1
1
1
1
1
1
1
1
1
1
1
1
1
1
1
1
1
1
1
1
1
1
1
1
1
1
1
1
1
1
1
1
1
1
1
1
1
1
1
1
1
1
1
1
1
1.00009
1.00548
1.29114
8.41269
10.7317
10.7832
10.8351
10.8844
10.9499
10.9924
11.0411
11.0843
11.1158
11.1462
11.1842
11.2231
11.2609
11.2954
11.325
11.3484
11.3643
11.3728
11.3756
11.3699
11.3613
11.353
11.3456
11.3378
11.328
11.3171
11.3111
11.3132
11.3176
11.311
11.2778
11.2468
11.2496
1
1
1
1
1
1
1
1
1
1
1
1
1
1
1
1
1
1
1
1
1
1
1
1
1
1
1
1
1
1
1
1
1
1
1
1
1
1
1
1
1
1
1
1
1
1
1
1
1
1
1
1
1
1
1
1
1
1
1
1.00003
1.00193
1.11583
6.98637
10.3859
10.7509
10.8005
10.8442
10.8941
10.9478
10.9996
11.0377
11.0721
11.1102
11.1409
11.1679
11.1974
11.2258
11.2517
11.2732
11.2876
11.2945
11.2933
11.282
11.2671
11.2522
11.2369
11.2206
11.2028
11.1867
11.1767
11.1711
11.1605
11.1338
11.0869
11.0494
11.1198
1
1
1
1
1
1
1
1
1
1
1
1
1
1
1
1
1
1
1
1
1
1
1
1
1
1
1
1
1
1
1
1
1
1
1
1
1
1
1
1
1
1
1
1
1
1
1
1
1
1
1
1
1
1
1
1
1
1
1
1.00002
1.00138
1.08531
5.76645
9.90965
10.6177
10.7386
10.7821
10.8398
10.8953
10.9388
10.9937
11.0437
11.07
11.0873
11.1061
11.1289
11.1514
11.174
11.1936
11.2062
11.2113
11.2049
11.1879
11.1664
11.1439
11.1204
11.0949
11.0685
11.0443
11.0247
11.0047
10.9744
10.9295
10.8778
10.8392
10.9048
1
1
1
1
1
1
1
1
1
1
1
1
1
1
1
1
1
1
1
1
1
1
1
1
1
1
1
1
1
1
1
1
1
1
1
1
1
1
1
1
1
1
1
1
1
1
1
1
1
1
1
1
1
1
1
1
1
1
1
1.00002
1.00096
1.06117
4.55308
9.43466
10.5415
10.6936
10.732
10.774
10.8346
10.9109
10.9644
10.9972
11.0152
11.0286
11.0412
11.0583
11.0743
11.0927
11.1096
11.12
11.1223
11.1099
11.087
11.0587
11.0282
10.9959
10.9608
10.9239
10.8877
10.8526
10.8118
10.7564
10.6905
10.6328
10.5756
10.5931
1
1
1
1
1
1
1
1
1
1
1
1
1
1
1
1
1
1
1
1
1
1
1
1
1
1
1
1
1
1
1
1
1
1
1
1
1
1
1
1
1
1
1
1
1
1
1
1
1
1
1
1
1
1
1
1
1
1
1
1.00001
1.0005
1.03271
3.03222
9.15741
10.487
10.6478
10.7055
10.799
10.8418
10.8774
10.9141
10.9396
10.9569
10.9658
10.9759
10.9844
10.9947
11.0084
11.0216
11.0291
11.0264
11.0079
10.9789
10.9438
10.9054
10.8639
10.8178
10.768
10.7153
10.6587
10.5914
10.5083
10.4137
10.319
10.2258
10.1331
1
1
1
1
1
1
1
1
1
1
1
1
1
1
1
1
1
1
1
1
1
1
1
1
1
1
1
1
1
1
1
1
1
1
1
1
1
1
1
1
1
1
1
1
1
1
1
1
1
1
1
1
1
1
1
1
1
1
1
1
1.00013
1.00834
1.47738
8.43073
10.4015
10.6608
10.6715
10.731
10.7888
10.8286
10.8616
10.8838
10.8952
10.9035
10.9062
10.908
10.9134
10.9226
10.9308
10.9327
10.9234
10.8999
10.8652
10.8232
10.7766
10.7247
10.6658
10.5999
10.5266
10.4437
10.3444
10.2214
10.0705
9.88053
9.64281
9.51743
1
1
1
1
1
1
1
1
1
1
1
1
1
1
1
1
1
1
1
1
1
1
1
1
1
1
1
1
1
1
1
1
1
1
1
1
1
1
1
1
1
1
1
1
1
1
1
1
1
1
1
1
1
1
1
1
1
1
1
1
1.00003
1.00201
1.11947
6.77869
10.0988
10.5932
10.6232
10.6833
10.735
10.7784
10.8097
10.8282
10.8365
10.8362
10.8322
10.8309
10.8326
10.8359
10.8361
10.831
10.8156
10.7875
10.7471
10.6981
10.6421
10.5785
10.505
10.4205
10.3232
10.2091
10.0693
9.89098
9.6609
9.3592
8.89337
8.29324
1
1
1
1
1
1
1
1
1
1
1
1
1
1
1
1
1
1
1
1
1
1
1
1
1
1
1
1
1
1
1
1
1
1
1
1
1
1
1
1
1
1
1
1
1
1
1
1
1
1
1
1
1
1
1
1
1
1
1
1
1.00002
1.00106
1.06862
4.95308
9.67796
10.559
10.5876
10.6405
10.678
10.7188
10.7521
10.7692
10.7709
10.7647
10.7592
10.7571
10.7515
10.7459
10.7379
10.7262
10.7055
10.6723
10.6261
10.5695
10.5032
10.4266
10.3368
10.2316
10.1076
9.95854
9.77186
9.52793
9.1936
8.67923
7.73035
5.62357
1
1
1
1
1
1
1
1
1
1
1
1
1
1
1
1
1
1
1
1
1
1
1
1
1
1
1
1
1
1
1
1
1
1
1
1
1
1
1
1
1
1
1
1
1
1
1
1
1
1
1
1
1
1
1
1
1
1
1
1
1.00001
1.00049
1.03239
2.96833
9.26045
10.5997
10.5753
10.6025
10.622
10.6525
10.6827
10.6985
10.7004
10.6986
10.6928
10.6814
10.667
10.6537
10.6392
10.6216
10.5947
10.5557
10.5029
10.4378
10.3603
10.2697
10.1628
10.0361
9.88447
9.69903
9.46315
9.14895
8.70135
7.98853
6.78314
4.72221
1
1
1
1
1
1
1
1
1
1
1
1
1
1
1
1
1
1
1
1
1
1
1
1
1
1
1
1
1
1
1
1
1
1
1
1
1
1
1
1
1
1
1
1
1
1
1
1
1
1
1
1
1
1
1
1
1
1
1
1
1
1.00012
1.00756
1.39668
8.16611
10.4777
10.5365
10.5268
10.5401
10.5757
10.6096
10.6288
10.6364
10.6351
10.6237
10.6038
10.5831
10.563
10.5417
10.5166
10.4824
10.4371
10.3774
10.3033
10.2146
10.11
9.98613
9.83862
9.66007
9.43969
9.15769
8.78259
8.24895
7.44862
6.23549
4.44806
1
1
1
1
1
1
1
1
1
1
1
1
1
1
1
1
1
1
1
1
1
1
1
1
1
1
1
1
1
1
1
1
1
1
1
1
1
1
1
1
1
1
1
1
1
1
1
1
1
1
1
1
1
1
1
1
1
1
1
1
1
1.00003
1.00185
1.10758
6.31948
10.0184
10.4189
10.4578
10.4852
10.5178
10.5441
10.5633
10.5725
10.5673
10.5495
10.5236
10.4973
10.4707
10.4427
10.4104
10.3693
10.3179
10.2511
10.1684
10.0683
9.95023
9.81041
9.6433
9.44032
9.18917
8.86963
8.45056
7.88399
7.10174
6.10482
4.87465
1
1
1
1
1
1
1
1
1
1
1
1
1
1
1
1
1
1
1
1
1
1
1
1
1
1
1
1
1
1
1
1
1
1
1
1
1
1
1
1
1
1
1
1
1
1
1
1
1
1
1
1
1
1
1
1
1
1
1
1
1
1.00002
1.00098
1.06229
4.59539
9.51169
10.259
10.3777
10.4137
10.4491
10.4709
10.4896
10.4993
10.4911
10.4686
10.438
10.4061
10.3743
10.3406
10.303
10.2557
10.1986
10.125
10.0342
9.92382
9.79316
9.63843
9.45382
9.23006
8.95479
8.61099
8.17143
7.61249
6.88455
6.03339
5.0072
1
1
1
1
1
1
1
1
1
1
1
1
1
1
1
1
1
1
1
1
1
1
1
1
1
1
1
1
1
1
1
1
1
1
1
1
1
1
1
1
1
1
1
1
1
1
1
1
1
1
1
1
1
1
1
1
1
1
1
1
1
1.00001
1.00045
1.02945
2.78234
9.11184
10.1265
10.2754
10.3335
10.364
10.3911
10.4132
10.4199
10.4086
10.3833
10.3493
10.314
10.277
10.2382
10.1956
10.1428
10.0797
9.99968
9.90138
9.78209
9.64055
9.47308
9.27383
9.03419
8.74205
8.38589
7.942
7.40799
6.74382
5.98006
5.10328
1
1
1
1
1
1
1
1
1
1
1
1
1
1
1
1
1
1
1
1
1
1
1
1
1
1
1
1
1
1
1
1
1
1
1
1
1
1
1
1
1
1
1
1
1
1
1
1
1
1
1
1
1
1
1
1
1
1
1
1
1
1
1.00011
1.00649
1.30786
7.85116
9.81121
10.2013
10.2735
10.3012
10.323
10.3374
10.3396
10.3263
10.2997
10.2641
10.2255
10.1815
10.1364
10.088
10.0293
9.96011
9.87456
9.77046
9.64437
9.4941
9.31591
9.10455
8.85355
8.5515
8.19316
7.75745
7.25239
6.64832
5.94843
5.19645
1
1
1
1
1
1
1
1
1
1
1
1
1
1
1
1
1
1
1
1
1
1
1
1
1
1
1
1
1
1
1
1
1
1
1
1
1
1
1
1
1
1
1
1
1
1
1
1
1
1
1
1
1
1
1
1
1
1
1
1
1
1
1.00003
1.00153
1.09166
5.69536
9.36115
10.2071
10.2312
10.2418
10.2535
10.2653
10.2635
10.2483
10.2189
10.1812
10.1392
10.0912
10.0392
9.98401
9.91851
9.8427
9.75155
9.64234
9.51096
9.35427
9.16856
8.949
8.69161
8.38559
8.03064
7.60896
7.13149
6.58072
5.93975
5.27431
1
1
1
1
1
1
1
1
1
1
1
1
1
1
1
1
1
1
1
1
1
1
1
1
1
1
1
1
1
1
1
1
1
1
1
1
1
1
1
1
1
1
1
1
1
1
1
1
1
1
1
1
1
1
1
1
1
1
1
1
1
1
1.00001
1.00062
1.04129
3.48934
9.1189
10.1873
10.1772
10.1702
10.1864
10.1961
10.1867
10.1672
10.139
10.1017
10.0595
10.0092
9.95035
9.88714
9.81319
9.72938
9.63191
9.51792
9.38243
9.22117
9.03038
8.80544
8.54493
8.23951
7.89231
7.48934
7.03678
6.52901
5.94857
5.34392
1
1
1
1
1
1
1
1
1
1
1
1
1
1
1
1
1
1
1
1
1
1
1
1
1
1
1
1
1
1
1
1
1
1
1
1
1
1
1
1
1
1
1
1
1
1
1
1
1
1
1
1
1
1
1
1
1
1
1
1
1
1
1
1.00015
1.00928
1.47901
8.21547
9.93189
10.0507
10.0893
10.1199
10.126
10.1138
10.0937
10.0655
10.0276
9.98365
9.92934
9.86517
9.7937
9.71097
9.61906
9.51545
9.39706
9.25818
9.09416
8.90144
8.67532
8.41586
8.11525
7.77676
7.3917
6.96196
6.49054
5.96565
5.41352
1
1
1
1
1
1
1
1
1
1
1
1
1
1
1
1
1
1
1
1
1
1
1
1
1
1
1
1
1
1
1
1
1
1
1
1
1
1
1
1
1
1
1
1
1
1
1
1
1
1
1
1
1
1
1
1
1
1
1
1
1
1
1
1.00003
1.00179
1.10465
5.96533
9.44895
9.9806
10.0394
10.0659
10.0573
10.039
10.0167
9.98484
9.94659
9.90206
9.84683
9.77948
9.70142
9.61239
9.51483
9.40624
9.28336
9.14094
8.97472
8.78126
8.55565
8.29867
8.0049
7.67657
7.31046
6.90322
6.46308
5.98325
5.47949
1
1
1
1
1
1
1
1
1
1
1
1
1
1
1
1
1
1
1
1
1
1
1
1
1
1
1
1
1
1
1
1
1
1
1
1
1
1
1
1
1
1
1
1
1
1
1
1
1
1
1
1
1
1
1
1
1
1
1
1
1
1
1
1.00001
1.00063
1.04242
3.52825
9.11824
10.0048
9.98714
9.99745
9.98482
9.95856
9.93776
9.90489
9.86858
9.82409
9.76673
9.69604
9.61325
9.51957
9.41659
9.30192
9.17384
9.02798
8.86032
8.66778
8.44559
8.19434
7.91025
7.59244
7.2432
6.85697
6.44525
6.00315
5.5416
1
1
1
1
1
1
1
1
1
1
1
1
1
1
1
1
1
1
1
1
1
1
1
1
1
1
1
1
1
1
1
1
1
1
1
1
1
1
1
1
1
1
1
1
1
1
1
1
1
1
1
1
1
1
1
1
1
1
1
1
1
1
1
1
1.00014
1.00896
1.44203
7.89704
9.81335
9.90082
9.92055
9.91618
9.90119
9.8831
9.84449
9.80418
9.75364
9.69104
9.61508
9.52662
9.4279
9.32053
9.20162
9.06986
8.92166
8.75342
8.56241
8.34429
8.09876
7.82417
7.51779
7.18555
6.8204
6.43362
6.02233
5.59639
1
1
1
1
1
1
1
1
1
1
1
1
1
1
1
1
1
1
1
1
1
1
1
1
1
1
1
1
1
1
1
1
1
1
1
1
1
1
1
1
1
1
1
1
1
1
1
1
1
1
1
1
1
1
1
1
1
1
1
1
1
1
1
1
1.00003
1.00158
1.09152
5.39524
9.23478
9.86898
9.88852
9.87418
9.85558
9.82942
9.78318
9.73695
9.68051
9.61438
9.5341
9.44076
9.33995
9.22995
9.10714
8.97174
8.82134
8.65255
8.46289
8.24936
8.01103
7.74709
7.45313
7.13646
6.79129
6.42772
6.04337
5.6486
1
1
1
1
1
1
1
1
1
1
1
1
1
1
1
1
1
1
1
1
1
1
1
1
1
1
1
1
1
1
1
1
1
1
1
1
1
1
1
1
1
1
1
1
1
1
1
1
1
1
1
1
1
1
1
1
1
1
1
1
1
1
1
1
1.00001
1.00047
1.03105
2.82986
8.67093
9.89134
9.85532
9.81768
9.78887
9.76188
9.7165
9.67086
9.6132
9.54376
9.46121
9.36403
9.25999
9.14498
9.01736
8.87813
8.7253
8.55608
8.3683
8.1603
7.92971
7.67598
7.39514
7.09382
6.7674
6.42507
6.06363
5.69475
1
1
1
1
1
1
1
1
1
1
1
1
1
1
1
1
1
1
1
1
1
1
1
1
1
1
1
1
1
1
1
1
1
1
1
1
1
1
1
1
1
1
1
1
1
1
1
1
1
1
1
1
1
1
1
1
1
1
1
1
1
1
1
1
1
1.0001
1.00578
1.27518
6.94768
9.63853
9.77899
9.74599
9.72006
9.69479
9.6478
9.60148
9.54241
9.47033
9.38528
9.28679
9.18106
9.06296
8.93266
8.791
8.63665
8.46799
8.28233
8.07907
7.85523
7.61057
7.34214
7.0549
6.74624
6.42467
6.08425
5.73657
1
1
1
1
1
1
1
1
1
1
1
1
1
1
1
1
1
1
1
1
1
1
1
1
1
1
1
1
1
1
1
1
1
1
1
1
1
1
1
1
1
1
1
1
1
1
1
1
1
1
1
1
1
1
1
1
1
1
1
1
1
1
1
1
1
1.00002
1.00111
1.06667
4.45239
9.17708
9.69643
9.67591
9.66274
9.62485
9.57024
9.52345
9.4634
9.39195
9.30759
9.21398
9.10974
8.99022
8.85831
8.71401
8.55653
8.38591
8.20003
8.0006
7.78419
7.54938
7.29426
7.02222
6.72842
6.42572
6.10198
5.77281
1
1
1
1
1
1
1
1
1
1
1
1
1
1
1
1
1
1
1
1
1
1
1
1
1
1
1
1
1
1
1
1
1
1
1
1
1
1
1
1
1
1
1
1
1
1
1
1
1
1
1
1
1
1
1
1
1
1
1
1
1
1
1
1
1
1
1.00028
1.01848
2.05293
8.27166
9.53317
9.6202
9.61226
9.56437
9.50683
9.45675
9.3949
9.32346
9.23863
9.14497
9.03957
8.91914
8.78638
8.6405
8.48109
8.31005
8.12592
7.93153
7.72252
7.4958
7.25072
6.99105
6.71034
6.42521
6.11993
5.80709
1
1
1
1
1
1
1
1
1
1
1
1
1
1
1
1
1
1
1
1
1
1
1
1
1
1
1
1
1
1
1
1
1
1
1
1
1
1
1
1
1
1
1
1
1
1
1
1
1
1
1
1
1
1
1
1
1
1
1
1
1
1
1
1
1
1
1.00005
1.00295
1.14837
5.87564
9.07162
9.54102
9.5456
9.50368
9.44898
9.39048
9.32378
9.24837
9.16102
9.06857
8.96565
8.84828
8.71845
8.57444
8.41557
8.24444
8.05955
7.86593
7.66174
7.44268
7.20901
6.96444
6.69703
6.42649
6.1376
5.8365
1
1
1
1
1
1
1
1
1
1
1
1
1
1
1
1
1
1
1
1
1
1
1
1
1
1
1
1
1
1
1
1
1
1
1
1
1
1
1
1
1
1
1
1
1
1
1
1
1
1
1
1
1
1
1
1
1
1
1
1
1
1
1
1
1
1
1.00001
1.0006
1.03891
3.16372
8.72694
9.39805
9.44388
9.42709
9.38468
9.33208
9.26621
9.18512
9.09368
9.00055
8.89623
8.77995
8.65203
8.5096
8.35109
8.18021
7.99588
7.80506
7.60743
7.39783
7.17346
6.9397
6.68288
6.42528
6.15469
5.86455
1
1
1
1
1
1
1
1
1
1
1
1
1
1
1
1
1
1
1
1
1
1
1
1
1
1
1
1
1
1
1
1
1
1
1
1
1
1
1
1
1
1
1
1
1
1
1
1
1
1
1
1
1
1
1
1
1
1
1
1
1
1
1
1
1
1
1
1.00011
1.00668
1.32954
7.04188
9.04124
9.36164
9.37723
9.34127
9.29538
9.22744
9.13829
9.03551
8.93184
8.82213
8.70467
8.57903
8.44081
8.28787
8.12315
7.94363
7.75391
7.55835
7.35274
7.13494
6.91418
6.67123
6.4264
6.17146
5.89338
1
1
1
1
1
1
1
1
1
1
1
1
1
1
1
1
1
1
1
1
1
1
1
1
1
1
1
1
1
1
1
1
1
1
1
1
1
1
1
1
1
1
1
1
1
1
1
1
1
1
1
1
1
1
1
1
1
1
1
1
1
1
1
1
1
1
1
1.00002
1.00103
1.0625
4.09044
8.64978
9.3394
9.32154
9.28629
9.24381
9.17739
9.09062
8.98627
8.87632
8.76
8.63899
8.5133
8.37796
8.2292
8.06781
7.8908
7.70348
7.51119
7.31186
7.10376
6.89288
6.66082
6.42358
6.1846
5.9193
1
1
1
1
1
1
1
1
1
1
1
1
1
1
1
1
1
1
1
1
1
1
1
1
1
1
1
1
1
1
1
1
1
1
1
1
1
1
1
1
1
1
1
1
1
1
1
1
1
1
1
1
1
1
1
1
1
1
1
1
1
1
1
1
1
1
1
1
1.00018
1.01114
1.56157
7.67197
9.11095
9.23439
9.20944
9.16786
9.11278
9.04118
8.94331
8.82926
8.70775
8.57997
8.44941
8.31341
8.16742
8.01264
7.84575
7.66573
7.47785
7.28211
7.07442
6.87073
6.64729
6.42286
6.19846
5.94278
1
1
1
1
1
1
1
1
1
1
1
1
1
1
1
1
1
1
1
1
1
1
1
1
1
1
1
1
1
1
1
1
1
1
1
1
1
1
1
1
1
1
1
1
1
1
1
1
1
1
1
1
1
1
1
1
1
1
1
1
1
1
1
1
1
1
1
1
1.00003
1.00154
1.08747
4.72416
8.65542
9.18975
9.14674
9.09452
9.04266
8.97419
8.88434
8.77496
8.65402
8.52452
8.39254
8.25709
8.11523
7.96579
7.80354
7.62702
7.44276
7.25134
7.0491
6.85337
6.64005
6.42238
6.20625
5.96222
1
1
1
1
1
1
1
1
1
1
1
1
1
1
1
1
1
1
1
1
1
1
1
1
1
1
1
1
1
1
1
1
1
1
1
1
1
1
1
1
1
1
1
1
1
1
1
1
1
1
1
1
1
1
1
1
1
1
1
1
1
1
1
1
1
1
1
1
1
1.00025
1.01579
1.79706
7.8489
9.10697
9.06796
9.02662
8.96975
8.90649
8.82606
8.72431
8.60662
8.47851
8.34442
8.20629
8.06405
7.91644
7.76078
7.59426
7.41856
7.2345
7.03472
6.84237
6.6322
6.42097
6.21602
5.98356
1
1
1
1
1
1
1
1
1
1
1
1
1
1
1
1
1
1
1
1
1
1
1
1
1
1
1
1
1
1
1
1
1
1
1
1
1
1
1
1
1
1
1
1
1
1
1
1
1
1
1
1
1
1
1
1
1
1
1
1
1
1
1
1
1
1
1
1
1
1.00004
1.00205
1.10973
4.97004
8.67921
9.03063
8.98181
8.90424
8.83379
8.75519
8.65827
8.54845
8.42486
8.29366
8.15873
8.02104
7.87858
7.72834
7.56556
7.39275
7.21385
7.01856
6.83153
6.62774
6.42591
6.22528
6.00022
1
1
1
1
1
1
1
1
1
1
1
1
1
1
1
1
1
1
1
1
1
1
1
1
1
1
1
1
1
1
1
1
1
1
1
1
1
1
1
1
1
1
1
1
1
1
1
1
1
1
1
1
1
1
1
1
1
1
1
1
1
1
1
1
1
1
1
1
1
1.00001
1.00029
1.0185
1.9168
7.80997
8.98101
8.92121
8.84078
8.76791
8.68856
8.59759
8.4958
8.37831
8.25341
8.12009
7.98299
7.8405
7.69184
7.53484
7.37041
7.20102
7.01136
6.8307
6.62888
6.4312
6.23144
6.0198
1
1
1
1
1
1
1
1
1
1
1
1
1
1
1
1
1
1
1
1
1
1
1
1
1
1
1
1
1
1
1
1
1
1
1
1
1
1
1
1
1
1
1
1
1
1
1
1
1
1
1
1
1
1
1
1
1
1
1
1
1
1
1
1
1
1
1
1
1
1
1.00004
1.00228
1.11967
4.92226
8.53754
8.87924
8.8071
8.72297
8.63498
8.53921
8.44251
8.33136
8.20892
8.07909
7.94692
7.80948
7.66625
7.51383
7.35103
7.1854
7.00027
6.82577
6.62641
6.44038
6.24269
6.04317
1
1
1
1
1
1
1
1
1
1
1
1
1
1
1
1
1
1
1
1
1
1
1
1
1
1
1
1
1
1
1
1
1
1
1
1
1
1
1
1
1
1
1
1
1
1
1
1
1
1
1
1
1
1
1
1
1
1
1
1
1
1
1
1
1
1
1
1
1
1
1.00001
1.0003
1.01842
1.89056
7.5572
8.80299
8.75173
8.66439
8.57944
8.48551
8.39404
8.28813
8.17195
8.04848
7.91873
7.78196
7.6383
7.48776
7.32964
7.17239
6.99387
6.82689
6.63118
6.45197
6.25065
6.06486
1
1
1
1
1
1
1
1
1
1
1
1
1
1
1
1
1
1
1
1
1
1
1
1
1
1
1
1
1
1
1
1
1
1
1
1
1
1
1
1
1
1
1
1
1
1
1
1
1
1
1
1
1
1
1
1
1
1
1
1
1
1
1
1
1
1
1
1
1
1
1
1.00004
1.00213
1.11224
4.59912
8.37308
8.69832
8.61991
8.54134
8.44472
8.35459
8.25499
8.14051
8.0161
7.8892
7.75648
7.61758
7.47172
7.315
7.1604
6.98515
6.82376
6.6307
6.45932
6.26182
6.09173
1
1
1
1
1
1
1
1
1
1
1
1
1
1
1
1
1
1
1
1
1
1
1
1
1
1
1
1
1
1
1
1
1
1
1
1
1
1
1
1
1
1
1
1
1
1
1
1
1
1
1
1
1
1
1
1
1
1
1
1
1
1
1
1
1
1
1
1
1
1
1
1
1.00025
1.01561
1.74732
7.08518
8.57368
8.5568
8.49381
8.40505
8.318
8.22069
8.10889
7.99164
7.86807
7.73628
7.59689
7.4514
7.29712
7.14877
6.97887
6.82427
6.63607
6.47124
6.27525
6.11233
1
1
1
1
1
1
1
1
1
1
1
1
1
1
1
1
1
1
1
1
1
1
1
1
1
1
1
1
1
1
1
1
1
1
1
1
1
1
1
1
1
1
1
1
1
1
1
1
1
1
1
1
1
1
1
1
1
1
1
1
1
1
1
1
1
1
1
1
1
1
1
1
1.00003
1.00165
1.0892
3.94694
8.16559
8.53911
8.44714
8.37354
8.29282
8.1987
8.08812
7.96728
7.84292
7.7154
7.58092
7.4405
7.28785
7.14117
6.97338
6.82193
6.638
6.47771
6.28797
6.13161
1
1
1
1
1
1
1
1
1
1
1
1
1
1
1
1
1
1
1
1
1
1
1
1
1
1
1
1
1
1
1
1
1
1
1
1
1
1
1
1
1
1
1
1
1
1
1
1
1
1
1
1
1
1
1
1
1
1
1
1
1
1
1
1
1
1
1
1
1
1
1
1
1
1.00018
1.01084
1.51352
6.44119
8.34402
8.38746
8.33639
8.26403
8.16955
8.06387
7.94877
7.82919
7.70066
7.56553
7.42505
7.27474
7.13214
6.9685
6.82069
6.64395
6.489
6.30413
6.14708
1
1
1
1
1
1
1
1
1
1
1
1
1
1
1
1
1
1
1
1
1
1
1
1
1
1
1
1
1
1
1
1
1
1
1
1
1
1
1
1
1
1
1
1
1
1
1
1
1
1
1
1
1
1
1
1
1
1
1
1
1
1
1
1
1
1
1
1
1
1
1
1
1
1.00002
1.00104
1.05832
3.07619
7.87963
8.43863
8.30619
8.23614
8.15575
8.04996
7.9301
7.80727
7.68138
7.55079
7.41623
7.26942
7.12462
6.96586
6.8171
6.64865
6.49496
6.31576
6.15762
1
1
1
1
1
1
1
1
1
1
1
1
1
1
1
1
1
1
1
1
1
1
1
1
1
1
1
1
1
1
1
1
1
1
1
1
1
1
1
1
1
1
1
1
1
1
1
1
1
1
1
1
1
1
1
1
1
1
1
1
1
1
1
1
1
1
1
1
1
1
1
1
1
1
1.0001
1.00624
1.29521
5.65692
8.10588
8.22586
8.19575
8.11732
8.02605
7.91793
7.79642
7.66698
7.53531
7.40039
7.25625
7.11279
6.96377
6.81235
6.65904
6.50345
6.33288
6.16702
1
1
1
1
1
1
1
1
1
1
1
1
1
1
1
1
1
1
1
1
1
1
1
1
1
1
1
1
1
1
1
1
1
1
1
1
1
1
1
1
1
1
1
1
1
1
1
1
1
1
1
1
1
1
1
1
1
1
1
1
1
1
1
1
1
1
1
1
1
1
1
1
1
1
1.00001
1.00058
1.03345
2.31481
7.29176
8.28434
8.21768
8.13199
8.02647
7.90463
7.76972
7.64604
7.52046
7.39201
7.25427
7.10697
6.96771
6.81246
6.67063
6.50703
6.34277
6.17733
1
1
1
1
1
1
1
1
1
1
1
1
1
1
1
1
1
1
1
1
1
1
1
1
1
1
1
1
1
1
1
1
1
1
1
1
1
1
1
1
1
1
1
1
1
1
1
1
1
1
1
1
1
1
1
1
1
1
1
1
1
1
1
1
1
1
1
1
1
1
1
1
1
1
1
1.00006
1.00325
1.15946
4.4454
7.94629
8.20146
8.12707
8.01756
7.89303
7.75909
7.63384
7.50461
7.3774
7.24545
7.10173
6.97357
6.81741
6.68659
6.51387
6.35646
6.19857
1
1
1
1
1
1
1
1
1
1
1
1
1
1
1
1
1
1
1
1
1
1
1
1
1
1
1
1
1
1
1
1
1
1
1
1
1
1
1
1
1
1
1
1
1
1
1
1
1
1
1
1
1
1
1
1
1
1
1
1
1
1
1
1
1
1
1
1
1
1
1
1
1
1
1
1.00001
1.00028
1.01617
1.67362
6.36158
8.13284
8.10632
7.99905
7.8511
7.72841
7.61183
7.49466
7.37306
7.24791
7.10639
6.98398
6.82647
6.69826
6.51784
6.3712
6.22151
1
1
1
1
1
1
1
1
1
1
1
1
1
1
1
1
1
1
1
1
1
1
1
1
1
1
1
1
1
1
1
1
1
1
1
1
1
1
1
1
1
1
1
1
1
1
1
1
1
1
1
1
1
1
1
1
1
1
1
1
1
1
1
1
1
1
1
1
1
1
1
1
1
1
1
1
1.00002
1.00133
1.06932
2.98867
7.62773
8.06676
7.9941
7.85816
7.72179
7.5975
7.48185
7.36196
7.24419
7.10836
6.99274
6.83672
6.70863
6.52715
6.3892
6.24561
1
1
1
1
1
1
1
1
1
1
1
1
1
1
1
1
1
1
1
1
1
1
1
1
1
1
1
1
1
1
1
1
1
1
1
1
1
1
1
1
1
1
1
1
1
1
1
1
1
1
1
1
1
1
1
1
1
1
1
1
1
1
1
1
1
1
1
1
1
1
1
1
1
1
1
1
1
1.00011
1.0062
1.27099
5.13456
7.7198
7.91753
7.83968
7.69693
7.58362
7.48012
7.36277
7.2447
7.10889
6.99666
6.84105
6.71105
6.53627
6.40348
6.27064
1
1
1
1
1
1
1
1
1
1
1
1
1
1
1
1
1
1
1
1
1
1
1
1
1
1
1
1
1
1
1
1
1
1
1
1
1
1
1
1
1
1
1
1
1
1
1
1
1
1
1
1
1
1
1
1
1
1
1
1
1
1
1
1
1
1
1
1
1
1
1
1
1
1
1
1
1
1.00001
1.00048
1.02648
1.96098
6.65082
7.86874
7.82543
7.68677
7.55902
7.46557
7.351
7.23739
7.10812
6.99832
6.84422
6.71194
6.54789
6.41787
6.29559
1
1
1
1
1
1
1
1
1
1
1
1
1
1
1
1
1
1
1
1
1
1
1
1
1
1
1
1
1
1
1
1
1
1
1
1
1
1
1
1
1
1
1
1
1
1
1
1
1
1
1
1
1
1
1
1
1
1
1
1
1
1
1
1
1
1
1
1
1
1
1
1
1
1
1
1
1
1
1.00004
1.00214
1.10404
3.47222
7.43257
7.75308
7.67684
7.58095
7.48307
7.36559
7.24311
7.1113
6.99701
6.84167
6.70881
6.55814
6.43326
6.31887
1
1
1
1
1
1
1
1
1
1
1
1
1
1
1
1
1
1
1
1
1
1
1
1
1
1
1
1
1
1
1
1
1
1
1
1
1
1
1
1
1
1
1
1
1
1
1
1
1
1
1
1
1
1
1
1
1
1
1
1
1
1
1
1
1
1
1
1
1
1
1
1
1
1
1
1
1
1
1
1.00016
1.0089
1.37364
5.17952
7.41943
7.62889
7.58623
7.49413
7.37939
7.25503
7.12604
7.00137
6.84266
6.71017
6.57073
6.44933
6.33568
1
1
1
1
1
1
1
1
1
1
1
1
1
1
1
1
1
1
1
1
1
1
1
1
1
1
1
1
1
1
1
1
1
1
1
1
1
1
1
1
1
1
1
1
1
1
1
1
1
1
1
1
1
1
1
1
1
1
1
1
1
1
1
1
1
1
1
1
1
1
1
1
1
1
1
1
1
1
1
1.00001
1.00061
1.03169
2.01024
6.32199
7.55063
7.5654
7.50516
7.36034
7.24455
7.13096
7.00823
6.84453
6.71488
6.58438
6.46656
6.3494
1
1
1
1
1
1
1
1
1
1
1
1
1
1
1
1
1
1
1
1
1
1
1
1
1
1
1
1
1
1
1
1
1
1
1
1
1
1
1
1
1
1
1
1
1
1
1
1
1
1
1
1
1
1
1
1
1
1