/*--------------------------------*- C++ -*----------------------------------*\
| =========                 |                                                 |
| \\      /  F ield         | OpenFOAM: The Open Source CFD Toolbox           |
|  \\    /   O peration     | Version:  v1812                                 |
|   \\  /    A nd           | Web:      www.OpenFOAM.com                      |
|    \\/     M anipulation  |                                                 |
\*---------------------------------------------------------------------------*/
FoamFile
{
    version     2.0;
    format      ascii;
    class       surfaceScalarField;
    location    "0.6";
    object      phi;
}
// * * * * * * * * * * * * * * * * * * * * * * * * * * * * * * * * * * * * * //

dimensions      [1 0 -1 0 0 0 0];
oriented        oriented;


internalField   nonuniform List<scalar> 
128384
(
0.00262501
9.75782e-19
0.00262501
-1.73472e-18
0.00262501
2.71051e-19
0.00262501
-2.71051e-19
0.00262501
-1.57209e-18
0.00262501
1.84314e-18
0.00262501
1.6263e-19
0.00262501
9.21572e-19
0.00262501
-7.04731e-19
0.00262501
-5.42101e-20
0.00262501
1.6263e-19
0.00262501
-2.6563e-18
0.00262501
-2.1684e-18
0.00262501
-4.87891e-19
0.00262501
2.1684e-19
0.00262501
-1.0842e-18
0.00262501
-1.68051e-18
0.00262501
1.0842e-18
0.00262501
-5.96311e-19
0.00262501
4.98733e-18
0.00262501
-2.71051e-19
0.00262501
-1.6263e-19
0.00262501
4.33681e-19
0.00262501
-2.71051e-19
0.00262501
-5.42101e-19
0.00262501
-1.0842e-19
0.00262501
5.96311e-19
0.00262501
0
0.00262501
5.42101e-20
0.00262501
1.6263e-18
0.00262501
1.84314e-18
0.00262501
-5.42101e-20
0.00262501
-1.73472e-18
0.00262501
1.0842e-18
0.00262501
-8.13152e-19
0.00262501
-1.0842e-19
0.00262501
-5.96311e-19
0.00262501
1.0842e-19
0.00262501
-6.50521e-19
0.00262501
-2.38524e-18
0.00262501
-1.73472e-18
0.00262501
-3.25261e-19
0.00262501
2.1684e-19
0.00262501
2.1684e-19
0.00262501
1.46367e-18
0.00262501
3.79471e-19
0.00262501
-1.57209e-18
0.00262501
-8.67362e-19
0.00262501
2.71051e-18
0.00262501
-1.30104e-18
0.00262501
2.71051e-19
0.00262501
-7.58942e-19
0.00262501
1.14925e-17
0.00262501
6.45588e-16
0.00262501
4.14784e-14
0.00262501
2.61225e-12
0.00262501
1.66685e-10
0.00262486
1.13005e-08
0.00261579
7.28224e-07
0.00233452
6.59871e-05
0.00195777
0.000274905
0.00192099
1.12369e-05
0.00198016
-3.97534e-05
0.00207188
-6.44627e-05
0.00212489
-3.10862e-05
0.00211759
2.69258e-05
0.00203
9.80924e-05
0.00190444
0.000124655
0.00180305
9.5939e-05
0.00175069
5.09604e-05
0.00172184
3.05001e-05
0.00168026
4.21748e-05
0.00161325
6.27985e-05
0.00153094
7.07101e-05
0.00144913
6.33778e-05
0.00136962
5.86444e-05
0.00128837
6.37353e-05
0.00120519
7.26485e-05
0.00112466
7.8367e-05
0.00105188
7.80558e-05
0.000987236
7.47525e-05
0.000926031
7.26695e-05
0.000862397
7.27063e-05
0.000792117
7.37599e-05
0.000713942
7.47281e-05
0.000629846
7.52789e-05
0.000544295
7.50915e-05
0.000462719
7.3428e-05
0.000387109
7.04765e-05
0.000320758
6.62111e-05
0.000263995
6.10734e-05
0.0002122
5.54326e-05
0.000161537
5.11253e-05
0.000108471
4.90369e-05
5.27899e-05
4.68418e-05
4.14836e-05
0.00262501
2.1684e-19
0.00262501
1.19262e-18
0.00262501
-2.1684e-18
0.00262501
-2.1684e-19
0.00262501
2.1684e-19
0.00262501
-1.46367e-18
0.00262501
3.25261e-19
0.00262501
1.6263e-18
0.00262501
1.0842e-19
0.00262501
1.13841e-18
0.00262501
4.33681e-19
0.00262501
2.71051e-19
0.00262501
-4.33681e-19
0.00262501
-7.04731e-19
0.00262501
9.21572e-19
0.00262501
9.75782e-19
0.00262501
5.42101e-19
0.00262501
5.42101e-19
0.00262501
1.6263e-18
0.00262501
-2.11419e-18
0.00262501
9.21572e-19
0.00262501
7.58942e-19
0.00262501
4.87891e-19
0.00262501
1.24683e-18
0.00262501
5.96311e-19
0.00262501
1.51788e-18
0.00262501
1.57209e-18
0.00262501
1.6263e-19
0.00262501
6.50521e-19
0.00262501
-4.33681e-19
0.00262501
-2.27682e-18
0.00262501
-6.50521e-19
0.00262501
1.95156e-18
0.00262501
4.87891e-19
0.00262501
1.6263e-19
0.00262501
-3.25261e-19
0.00262501
-1.6263e-19
0.00262501
-9.75782e-19
0.00262501
2.1684e-19
0.00262501
0
0.00262501
-6.50521e-19
0.00262501
7.58942e-19
0.00262501
1.24683e-18
0.00262501
1.19262e-18
0.00262501
-5.96311e-19
0.00262501
2.1684e-19
0.00262501
7.58942e-19
0.00262501
2.27682e-18
0.00262501
1.30104e-18
0.00262501
-7.58942e-19
0.00262501
5.96311e-19
0.00262501
1.68051e-18
0.00262501
1.37694e-17
0.00262501
7.24193e-16
0.00262501
4.55543e-14
0.00262501
2.70362e-12
0.00262501
1.61925e-10
0.00262487
9.95048e-09
0.0026169
5.35239e-07
0.00239811
7.06911e-05
0.00233855
0.000241048
0.00212265
0.000201504
0.00208458
5.27188e-06
0.00209932
-5.01794e-05
0.00211104
-1.93484e-05
0.00208169
7.525e-05
0.00202557
0.000162775
0.00195205
0.000198275
0.0018619
0.00018143
0.00177427
0.000137026
0.00171195
9.50706e-05
0.00166508
9.05528e-05
0.00161365
0.000110004
0.00155374
0.00011911
0.00148546
0.000113699
0.00140918
0.000114826
0.00132585
0.000130061
0.00124013
0.000148151
0.00115955
0.000157046
0.00108895
0.000154273
0.00102673
0.000147337
0.000967155
0.000143696
0.000904211
0.000144345
0.000833953
0.00014689
0.000755558
0.000149177
0.000671456
0.000150506
0.000585922
0.000150615
0.000503475
0.000148419
0.000425383
0.00014394
0.000355165
0.000136274
0.000294129
0.000125428
0.000239098
0.000112666
0.000186179
0.000103739
0.000130077
0.000101078
6.67995e-05
0.000101389
9.77663e-05
0.00262501
-1.73472e-18
0.00262501
-9.21572e-19
0.00262501
-5.42101e-19
0.00262501
5.42101e-20
0.00262501
-5.42101e-19
0.00262501
1.51788e-18
0.00262501
1.95156e-18
0.00262501
5.42101e-19
0.00262501
5.42101e-20
0.00262501
-1.84314e-18
0.00262501
5.42101e-19
0.00262501
-4.33681e-19
0.00262501
7.04731e-19
0.00262501
9.75782e-19
0.00262501
-3.7405e-18
0.00262501
-1.24683e-18
0.00262501
1.6263e-19
0.00262501
-8.67362e-19
0.00262501
5.42101e-20
0.00262501
-5.42101e-20
0.00262501
1.24683e-18
0.00262501
1.0842e-18
0.00262501
1.0842e-18
0.00262501
1.13841e-18
0.00262501
4.87891e-19
0.00262501
2.71051e-19
0.00262501
-1.40946e-18
0.00262501
2.1684e-19
0.00262501
1.13841e-18
0.00262501
-2.05998e-18
0.00262501
-3.79471e-19
0.00262501
5.42101e-19
0.00262501
-5.96311e-19
0.00262501
-5.96311e-19
0.00262501
-5.96311e-19
0.00262501
-8.13152e-19
0.00262501
5.42101e-20
0.00262501
-8.67362e-19
0.00262501
-1.68051e-18
0.00262501
0
0.00262501
2.33103e-18
0.00262501
1.6263e-18
0.00262501
1.57209e-18
0.00262501
3.08998e-18
0.00262501
8.67362e-19
0.00262501
-1.0842e-18
0.00262501
1.46367e-18
0.00262501
1.13841e-18
0.00262501
1.35525e-18
0.00262501
2.54788e-18
0.00262501
2.1684e-19
0.00262501
-1.78893e-18
0.00262501
4.01155e-18
0.00262501
4.20345e-16
0.00262501
2.71814e-14
0.00262501
1.62561e-12
0.00262501
9.99464e-11
0.00262488
6.0481e-09
0.00261693
3.1044e-07
0.00240901
5.51814e-05
0.002456
0.00011771
0.00235035
0.000285535
0.00222301
0.000142812
0.00212766
6.49702e-05
0.00206322
6.71381e-05
0.00202373
0.000131761
0.00198808
0.000204562
0.00193838
0.000246175
0.00187393
0.000243088
0.00180748
0.000204139
0.00174661
0.000158484
0.00169337
0.000145684
0.00163692
0.00016232
0.00156985
0.000174499
0.00149339
0.000172001
0.00141258
0.000175355
0.00133079
0.000194914
0.00125254
0.000216534
0.00118298
0.000225298
0.00112245
0.000221045
0.00106659
0.000214005
0.00101003
0.00021179
0.000948267
0.000214487
0.000878708
0.000218831
0.000801224
0.000222485
0.000718352
0.000224863
0.000633766
0.000225991
0.000551089
0.000224308
0.000471136
0.000219438
0.00039727
0.000208951
0.000331018
0.000193011
0.000269781
0.000174278
0.000210315
0.000162081
0.000146917
0.000160903
7.60985e-05
0.000163841
0.00016462
0.00262501
1.68051e-18
0.00262501
4.33681e-19
0.00262501
-1.6263e-19
0.00262501
-1.13841e-18
0.00262501
-1.6263e-19
0.00262501
-3.25261e-19
0.00262501
1.0842e-19
0.00262501
-3.25261e-19
0.00262501
-2.1684e-19
0.00262501
8.13152e-19
0.00262501
5.96311e-19
0.00262501
2.1684e-19
0.00262501
2.1684e-19
0.00262501
-1.02999e-18
0.00262501
3.79471e-19
0.00262501
-9.75782e-19
0.00262501
-1.35525e-18
0.00262501
-2.81893e-18
0.00262501
-5.42101e-20
0.00262501
5.42101e-19
0.00262501
2.71051e-19
0.00262501
1.24683e-18
0.00262501
6.50521e-19
0.00262501
3.1984e-18
0.00262501
2.33103e-18
0.00262501
-2.1684e-19
0.00262501
1.35525e-18
0.00262501
-7.58942e-19
0.00262501
-1.73472e-18
0.00262501
7.04731e-19
0.00262501
1.0842e-18
0.00262501
5.42101e-20
0.00262501
2.1684e-19
0.00262501
-1.0842e-19
0.00262501
5.42101e-19
0.00262501
3.84892e-18
0.00262501
2.98156e-18
0.00262501
4.71628e-18
0.00262501
2.54788e-18
0.00262501
7.58942e-19
0.00262501
1.13841e-18
0.00262501
8.67362e-19
0.00262501
2.92735e-18
0.00262501
5.96311e-19
0.00262501
1.24683e-18
0.00262501
1.19262e-18
0.00262501
3.79471e-19
0.00262501
7.04731e-19
0.00262501
-1.0842e-18
0.00262501
5.96311e-19
0.00262501
-6.50521e-19
0.00262501
0
0.00262501
4.11997e-18
0.00262501
2.73978e-16
0.00262501
1.7935e-14
0.00262501
1.08636e-12
0.00262501
6.65958e-11
0.00262487
3.5469e-09
0.00261642
1.741e-07
0.00238293
4.80105e-05
0.00245367
-2.86138e-05
0.00241561
0.000315354
0.00225642
0.000312381
0.00210531
0.00023235
0.00202196
0.000163721
0.001985
0.000177426
0.00195741
0.000234499
0.00192202
0.000278845
0.00187894
0.000285055
0.00183109
0.000254788
0.00177795
0.000215427
0.00171953
0.000206416
0.00164963
0.000228044
0.00156458
0.000247329
0.00147204
0.0002458
0.00138465
0.000242291
0.0013076
0.000255521
0.00124125
0.000273859
0.0011845
0.000281595
0.00113315
0.000279243
0.00108217
0.000276035
0.00102786
0.000277425
0.000967646
0.000282451
0.000900291
0.000287804
0.000826104
0.000292103
0.00074748
0.000295299
0.000667217
0.000297832
0.000587493
0.000297786
0.000507952
0.000294427
0.000430883
0.000283617
0.000357914
0.000265291
0.000287885
0.000242995
0.000219901
0.000227998
0.000150069
0.000227956
7.7642e-05
0.000228503
0.000234713
0.00262501
-9.21572e-19
0.00262501
5.96311e-19
0.00262501
7.58942e-19
0.00262501
-2.1684e-19
0.00262501
-5.42101e-20
0.00262501
-9.21572e-19
0.00262501
-1.57209e-18
0.00262501
-4.33681e-19
0.00262501
9.75782e-19
0.00262501
5.42101e-19
0.00262501
-1.95156e-18
0.00262501
-1.84314e-18
0.00262501
-1.78893e-18
0.00262501
-1.57209e-18
0.00262501
-1.02999e-18
0.00262501
9.75782e-19
0.00262501
-1.0842e-18
0.00262501
6.50521e-19
0.00262501
-1.24683e-18
0.00262501
5.96311e-19
0.00262501
2.05998e-18
0.00262501
4.33681e-19
0.00262501
7.58942e-19
0.00262501
3.25261e-19
0.00262501
-2.1684e-19
0.00262501
5.96311e-19
0.00262501
1.0842e-18
0.00262501
1.6263e-18
0.00262501
1.6263e-18
0.00262501
9.21572e-19
0.00262501
8.13152e-19
0.00262501
1.84314e-18
0.00262501
-4.87891e-19
0.00262501
-9.75782e-19
0.00262501
3.79471e-19
0.00262501
7.04731e-19
0.00262501
7.58942e-19
0.00262501
-3.79471e-19
0.00262501
2.27682e-18
0.00262501
1.6263e-18
0.00262501
8.13152e-19
0.00262501
2.1684e-18
0.00262501
-4.87891e-19
0.00262501
3.08998e-18
0.00262501
1.0842e-19
0.00262501
1.19262e-18
0.00262501
5.42101e-19
0.00262501
0
0.00262501
2.00577e-18
0.00262501
-2.87314e-18
0.00262501
-1.57209e-18
0.00262501
8.13152e-19
0.00262501
4.98733e-18
0.00262501
3.31983e-16
0.00262501
2.37e-14
0.00262501
1.68196e-12
0.00262501
1.22049e-10
0.00262487
8.24131e-09
0.00261599
5.81949e-07
0.0023474
7.34421e-05
0.00236248
-0.000113691
0.00240299
0.000282275
0.00230134
0.000428715
0.00217707
0.000369783
0.0020642
0.000280719
0.00199673
0.000244934
0.00195499
0.000273061
0.00191665
0.000312955
0.00187545
0.000325642
0.00183096
0.00030305
0.00177785
0.000272927
0.00171171
0.000274739
0.00162961
0.000305583
0.00153398
0.00033008
0.00143639
0.000324846
0.00135042
0.000308839
0.00128042
0.000310164
0.0012228
0.000323215
0.00117296
0.000331496
0.00112545
0.000333909
0.00107636
0.000336279
0.00102347
0.000341491
0.000965322
0.000347963
0.000901334
0.000352993
0.000831833
0.000356964
0.000758823
0.000360536
0.000684086
0.000364623
0.000608299
0.000367235
0.000530187
0.000367264
0.000451149
0.000358863
0.000373308
0.000340804
0.000297126
0.000316696
0.000223669
0.000299042
0.000151249
0.000298613
7.68681e-05
0.000295661
0.000305648
0.00262501
4.87891e-19
0.00262501
2.71051e-19
0.00262501
-2.1684e-19
0.00262501
1.19262e-18
0.00262501
-5.96311e-19
0.00262501
1.0842e-19
0.00262501
-5.42101e-20
0.00262501
-2.1684e-19
0.00262501
5.96311e-19
0.00262501
-1.0842e-19
0.00262501
-4.87891e-19
0.00262501
5.42101e-19
0.00262501
-4.87891e-19
0.00262501
0
0.00262501
-7.04731e-19
0.00262501
-5.96311e-19
0.00262501
4.33681e-19
0.00262501
8.13152e-19
0.00262501
3.25261e-19
0.00262501
1.6263e-19
0.00262501
-1.46367e-18
0.00262501
-2.71051e-19
0.00262501
6.50521e-19
0.00262501
-9.75782e-19
0.00262501
-7.04731e-19
0.00262501
1.19262e-18
0.00262501
1.13841e-18
0.00262501
3.25261e-19
0.00262501
-5.42101e-20
0.00262501
-3.25261e-19
0.00262501
5.42101e-20
0.00262501
-4.87891e-19
0.00262501
2.1684e-19
0.00262501
1.73472e-18
0.00262501
1.0842e-18
0.00262501
7.04731e-19
0.00262501
1.6263e-18
0.00262501
4.22839e-18
0.00262501
2.38524e-18
0.00262501
4.11997e-18
0.00262501
1.89735e-18
0.00262501
2.05998e-18
0.00262501
1.6263e-19
0.00262501
1.02999e-18
0.00262501
8.67362e-19
0.00262501
-2.1684e-19
0.00262501
-1.0842e-18
0.00262501
1.6263e-18
0.00262501
-8.13152e-19
0.00262501
1.40946e-18
0.00262501
4.87891e-19
0.00262501
4.33681e-19
0.00262501
6.66784e-18
0.00262501
3.27104e-16
0.00262501
2.27804e-14
0.00262501
1.65578e-12
0.00262501
1.17114e-10
0.00262489
7.81469e-09
0.00261712
5.81997e-07
0.00239909
7.53128e-05
0.00234141
-0.00014177
0.00238614
0.000278361
0.00231808
0.000512201
0.00221648
0.00047671
0.00210803
0.00038641
0.00202845
0.000316799
0.00197459
0.000319446
0.00192559
0.000355983
0.00187123
0.000378281
0.00181271
0.000364718
0.0017494
0.000340436
0.00167867
0.000347403
0.00159724
0.000382556
0.00150826
0.000406859
0.00141982
0.000395938
0.00134025
0.000370295
0.00127362
0.000362433
0.00121733
0.000371815
0.00116702
0.000382179
0.0011184
0.000389812
0.00106849
0.000397336
0.00101547
0.000405533
0.000957911
0.00041266
0.000895137
0.000416835
0.000827446
0.000420204
0.000756831
0.000423769
0.000684804
0.000428773
0.000611174
0.00043358
0.000535131
0.000437187
0.00045666
0.000432571
0.000377362
0.000416331
0.000299639
0.000391751
0.000224487
0.000372315
0.000152262
0.000370687
7.54635e-05
0.000367035
0.000371313
0.00262501
-1.0842e-19
0.00262501
-1.19262e-18
0.00262501
-1.6263e-19
0.00262501
-2.33103e-18
0.00262501
0
0.00262501
-1.0842e-19
0.00262501
9.21572e-19
0.00262501
-1.57209e-18
0.00262501
-5.42101e-20
0.00262501
-1.6263e-18
0.00262501
1.0842e-19
0.00262501
-1.13841e-18
0.00262501
-3.79471e-19
0.00262501
-1.6263e-19
0.00262501
-8.67362e-19
0.00262501
-1.78893e-18
0.00262501
2.1684e-19
0.00262501
-5.42101e-20
0.00262501
4.87891e-19
0.00262501
-9.21572e-19
0.00262501
4.87891e-19
0.00262501
1.95156e-18
0.00262501
-7.04731e-19
0.00262501
-1.95156e-18
0.00262501
-1.6263e-19
0.00262501
-9.75782e-19
0.00262501
-5.96311e-19
0.00262501
1.02999e-18
0.00262501
-1.19262e-18
0.00262501
1.0842e-19
0.00262501
1.6263e-19
0.00262501
6.50521e-19
0.00262501
3.25261e-18
0.00262501
2.92735e-18
0.00262501
3.63208e-18
0.00262501
2.81893e-18
0.00262501
3.46945e-18
0.00262501
2.54788e-18
0.00262501
4.06576e-18
0.00262501
1.0842e-18
0.00262501
1.24683e-18
0.00262501
6.50521e-19
0.00262501
-2.1684e-19
0.00262501
-5.42101e-20
0.00262501
9.21572e-19
0.00262501
1.68051e-18
0.00262501
8.13152e-19
0.00262501
8.67362e-19
0.00262501
1.24683e-18
0.00262501
-4.33681e-19
0.00262501
2.1684e-18
0.00262501
1.02999e-18
0.00262501
2.27682e-18
0.00262501
2.35218e-16
0.00262501
1.75157e-14
0.00262501
1.41235e-12
0.00262501
9.99976e-11
0.00262492
7.15904e-09
0.00261885
5.22935e-07
0.00244236
6.1699e-05
0.00235176
-0.000140009
0.00234355
0.000321848
0.00227278
0.000590881
0.00219841
0.000553249
0.00212373
0.000455553
0.00205477
0.000374013
0.00199874
0.000366037
0.00194318
0.000404147
0.00187686
0.00044097
0.0018037
0.000440006
0.00173038
0.000417805
0.00165932
0.000420735
0.00158592
0.000452181
0.00150994
0.000471687
0.00143247
0.000457133
0.00135687
0.000428791
0.00128798
0.000417792
0.00122651
0.000426203
0.00117052
0.000438729
0.0011177
0.00044984
0.00106584
0.000460208
0.00101253
0.000469804
0.000955189
0.000477169
0.000892359
0.000480981
0.000824168
0.000484379
0.000752823
0.000487957
0.000680327
0.000492947
0.000607098
0.000498493
0.000532228
0.000504738
0.000454749
0.000504043
0.000376545
0.000490143
0.00030009
0.000466266
0.0002257
0.000446253
0.0001554
0.000443775
8.34202e-05
0.000439801
0.000435632
0.00262501
-1.6263e-19
0.00262501
-2.1684e-19
0.00262501
-7.04731e-19
0.00262501
2.1684e-19
0.00262501
5.42101e-20
0.00262501
-4.33681e-19
0.00262501
-1.40946e-18
0.00262501
5.42101e-19
0.00262501
-2.71051e-19
0.00262501
1.0842e-18
0.00262501
1.0842e-19
0.00262501
2.71051e-19
0.00262501
-2.1684e-19
0.00262501
2.1684e-19
0.00262501
-8.67362e-19
0.00262501
-7.04731e-19
0.00262501
-2.33103e-18
0.00262501
-8.67362e-19
0.00262501
-5.42101e-19
0.00262501
-4.33681e-19
0.00262501
-1.19262e-18
0.00262501
-1.73472e-18
0.00262501
5.42101e-19
0.00262501
1.35525e-18
0.00262501
9.75782e-19
0.00262501
-2.54788e-18
0.00262501
5.42101e-20
0.00262501
-4.87891e-19
0.00262501
7.04731e-19
0.00262501
1.0842e-19
0.00262501
5.96311e-19
0.00262501
-2.1684e-19
0.00262501
1.02999e-18
0.00262501
2.27682e-18
0.00262501
2.33103e-18
0.00262501
2.05998e-18
0.00262501
1.40946e-18
0.00262501
1.19262e-18
0.00262501
2.33103e-18
0.00262501
2.22261e-18
0.00262501
8.13152e-19
0.00262501
-1.0842e-19
0.00262501
9.21572e-19
0.00262501
1.19262e-18
0.00262501
5.42101e-19
0.00262501
-7.58942e-19
0.00262501
3.25261e-19
0.00262501
-2.71051e-19
0.00262501
5.42101e-20
0.00262501
2.38524e-18
0.00262501
1.24683e-18
0.00262501
2.05998e-18
0.00262501
1.6263e-18
0.00262501
9.80119e-17
0.00262501
8.2833e-15
0.00262501
8.85107e-13
0.00262501
6.97074e-11
0.00262495
6.1786e-09
0.00262088
4.30956e-07
0.00250604
4.14575e-05
0.00239572
-0.000129403
0.0023142
0.000418258
0.00223081
0.000672441
0.00216755
0.000612566
0.00211683
0.000498191
0.00206166
0.000414927
0.00200874
0.000408393
0.00195061
0.000454477
0.00187831
0.000508761
0.00179986
0.000520399
0.00172594
0.00049624
0.00166179
0.000487873
0.00160033
0.000510336
0.0015354
0.000526107
0.00146405
0.000513239
0.00138861
0.000488132
0.00131471
0.000478885
0.00124609
0.000488181
0.00118351
0.000501956
0.00112628
0.00051415
0.00107222
0.000525189
0.00101788
0.000535175
0.000959598
0.000542955
0.000895242
0.00054719
0.000824806
0.000551252
0.000750579
0.000554883
0.000675222
0.000559011
0.000600065
0.000563924
0.00052482
0.000571515
0.000448234
0.000573741
0.000371693
0.000562349
0.000297769
0.000539929
0.000226268
0.000519806
0.000158614
0.000515277
8.69083e-05
0.00051108
0.00050253
0.00262501
8.67362e-19
0.00262501
-5.42101e-20
0.00262501
1.89735e-18
0.00262501
5.42101e-20
0.00262501
-1.24683e-18
0.00262501
0
0.00262501
3.79471e-19
0.00262501
5.42101e-19
0.00262501
-1.6263e-19
0.00262501
-1.02999e-18
0.00262501
1.0842e-19
0.00262501
-1.6263e-19
0.00262501
8.67362e-19
0.00262501
7.58942e-19
0.00262501
1.35525e-18
0.00262501
1.73472e-18
0.00262501
-5.42101e-20
0.00262501
-5.42101e-20
0.00262501
-2.27682e-18
0.00262501
-1.19262e-18
0.00262501
-7.58942e-19
0.00262501
-8.13152e-19
0.00262501
-3.84892e-18
0.00262501
-7.58942e-19
0.00262501
-1.30104e-18
0.00262501
3.25261e-19
0.00262501
-7.58942e-19
0.00262501
4.33681e-19
0.00262501
5.42101e-20
0.00262501
4.33681e-19
0.00262501
9.75782e-19
0.00262501
1.6263e-19
0.00262501
9.21572e-19
0.00262501
1.46367e-18
0.00262501
5.96311e-19
0.00262501
1.13841e-18
0.00262501
1.0842e-18
0.00262501
2.6563e-18
0.00262501
2.1684e-19
0.00262501
-5.96311e-19
0.00262501
1.0842e-18
0.00262501
6.50521e-19
0.00262501
8.13152e-19
0.00262501
-3.25261e-19
0.00262501
2.22261e-18
0.00262501
2.05998e-18
0.00262501
6.50521e-19
0.00262501
5.42101e-19
0.00262501
1.0842e-19
0.00262501
-1.84314e-18
0.00262501
1.95156e-18
0.00262501
1.51788e-18
0.00262501
2.05998e-18
0.00262501
1.25767e-17
0.00262501
1.40729e-16
0.00262501
1.18288e-13
0.00262501
5.32621e-12
0.00262499
1.33922e-09
0.0026232
1.11987e-07
0.00257903
1.73151e-05
0.00244098
-0.000111977
0.00230581
0.000547071
0.00220932
0.000757662
0.00214647
0.000665372
0.00210428
0.00053027
0.00205556
0.000447726
0.00200457
0.00044854
0.00194511
0.000507089
0.00187181
0.000578339
0.00179782
0.000597301
0.00173242
0.000567173
0.00167901
0.000544838
0.00162846
0.000557847
0.00157009
0.000574287
0.00150105
0.000567637
0.00142436
0.000549351
0.00134617
0.000544879
0.00127172
0.000556473
0.00120358
0.000570976
0.00114219
0.000582656
0.00108532
0.000593001
0.00102892
0.000602828
0.00096873
0.000611115
0.00090232
0.000616028
0.000829455
0.000620784
0.000752191
0.00062428
0.000673635
0.00062696
0.000595922
0.000630451
0.000519716
0.000638378
0.0004435
0.000642743
0.000368285
0.000634017
0.000297034
0.000612892
0.000227788
0.00059228
0.000157359
0.00058504
8.19333e-05
0.000581181
0.000570634
0.00262501
-5.42101e-20
0.00262501
2.1684e-19
0.00262501
-2.71051e-19
0.00262501
-5.42101e-20
0.00262501
2.71051e-19
0.00262501
9.21572e-19
0.00262501
1.0842e-18
0.00262501
-6.50521e-19
0.00262501
-1.6263e-19
0.00262501
6.50521e-19
0.00262501
6.50521e-19
0.00262501
1.0842e-19
0.00262501
-8.13152e-19
0.00262501
5.42101e-19
0.00262501
6.50521e-19
0.00262501
4.33681e-19
0.00262501
5.96311e-19
0.00262501
-4.87891e-19
0.00262501
1.13841e-18
0.00262501
-5.42101e-19
0.00262501
-2.1684e-19
0.00262501
-8.67362e-19
0.00262501
2.05998e-18
0.00262501
2.1684e-19
0.00262501
1.6263e-19
0.00262501
3.25261e-19
0.00262501
6.50521e-19
0.00262501
9.75782e-19
0.00262501
1.68051e-18
0.00262501
3.46945e-18
0.00262501
3.14419e-18
0.00262501
1.46367e-18
0.00262501
-1.57209e-18
0.00262501
7.04731e-19
0.00262501
2.1684e-19
0.00262501
2.1684e-19
0.00262501
2.00577e-18
0.00262501
-8.67362e-19
0.00262501
-1.57209e-18
0.00262501
1.35525e-18
0.00262501
1.0842e-19
0.00262501
1.6263e-19
0.00262501
1.6263e-19
0.00262501
3.25261e-19
0.00262501
2.1684e-19
0.00262501
6.50521e-19
0.00262501
5.96311e-19
0.00262501
2.71051e-19
0.00262501
-5.42101e-20
0.00262501
8.13152e-19
0.00262501
-1.0842e-19
0.00262501
5.96311e-19
0.00262501
2.00577e-18
0.00262501
1.48536e-17
0.00262501
6.93889e-17
0.00262501
3.81837e-14
0.00262501
-2.83438e-12
0.00262501
1.45464e-10
0.00262486
-2.30524e-08
0.00262824
1.01372e-06
0.00245572
-8.62876e-05
0.00228643
0.000688137
0.00218961
0.000835425
0.00213303
0.000709783
0.00209748
0.000554736
0.00205295
0.000476641
0.00200374
0.000487657
0.00194316
0.000562815
0.00187026
0.000648764
0.00180521
0.00066682
0.00175055
0.000628749
0.00170425
0.000594929
0.00165782
0.000601252
0.00160037
0.000621499
0.00153047
0.000623057
0.0014519
0.000612713
0.00137079
0.000614195
0.00129275
0.000628838
0.00122123
0.000643738
0.00115728
0.000653926
0.00109865
0.000662756
0.00104098
0.000672088
0.000979697
0.000680868
0.000912064
0.000686509
0.000837463
0.000691935
0.000757596
0.000695363
0.000675967
0.000696586
0.000595428
0.000698628
0.000517653
0.000706439
0.000441028
0.000712504
0.000366478
0.000706115
0.000296518
0.00068546
0.000227026
0.000663756
0.000154117
0.000653662
7.67046e-05
0.000650715
0.000640393
0.00262501
-1.0842e-19
0.00262501
-7.58942e-19
0.00262501
1.13841e-18
0.00262501
2.71051e-19
0.00262501
1.0842e-19
0.00262501
0
0.00262501
3.79471e-19
0.00262501
1.84314e-18
0.00262501
-4.33681e-19
0.00262501
-5.42101e-20
0.00262501
-6.50521e-19
0.00262501
0
0.00262501
3.25261e-19
0.00262501
7.58942e-19
0.00262501
1.6263e-19
0.00262501
-1.89735e-18
0.00262501
1.68051e-18
0.00262501
3.36103e-18
0.00262501
1.46367e-18
0.00262501
1.0842e-19
0.00262501
2.1684e-19
0.00262501
-2.1684e-19
0.00262501
-1.0842e-19
0.00262501
2.71051e-19
0.00262501
4.33681e-19
0.00262501
2.71051e-19
0.00262501
1.24683e-18
0.00262501
-2.71051e-19
0.00262501
0
0.00262501
-1.02999e-18
0.00262501
5.42101e-20
0.00262501
1.30104e-18
0.00262501
3.25261e-19
0.00262501
-7.04731e-19
0.00262501
-1.0842e-19
0.00262501
-9.21572e-19
0.00262501
-3.25261e-19
0.00262501
-6.50521e-19
0.00262501
-9.21572e-19
0.00262501
-2.60209e-18
0.00262501
-2.33103e-18
0.00262501
-5.96311e-19
0.00262501
-1.0842e-18
0.00262501
-7.58942e-19
0.00262501
5.42101e-20
0.00262501
8.67362e-19
0.00262501
3.79471e-19
0.00262501
6.50521e-19
0.00262501
2.05998e-18
0.00262501
2.1684e-18
0.00262501
7.58942e-19
0.00262501
1.0842e-19
0.00262501
4.39102e-18
0.00262501
1.84856e-17
0.00262501
1.17896e-15
0.00262501
7.7401e-14
0.00262501
2.05718e-12
0.00262501
3.30676e-10
0.00262487
-2.64539e-09
0.00261758
1.65726e-06
0.00244545
-5.56474e-05
0.00224552
0.000834152
0.00216817
0.000891382
0.00213208
0.00073311
0.00210509
0.000569498
0.00206581
0.000502016
0.0020179
0.000526699
0.00195405
0.000624128
0.00188058
0.000721034
0.00182239
0.000731541
0.00177283
0.000686307
0.0017255
0.000645655
0.00167457
0.000648451
0.00161221
0.000672765
0.00153905
0.000681181
0.0014597
0.000676726
0.00137961
0.000682864
0.00130314
0.000700338
0.00123301
0.000715857
0.00116994
0.000724915
0.00111172
0.000732594
0.00105409
0.000741767
0.000992532
0.0007513
0.000924146
0.000757824
0.000848064
0.000764024
0.000765792
0.000767675
0.0006813
0.000767811
0.000598131
0.000768741
0.000518754
0.000776327
0.000441466
0.000783711
0.000366873
0.000778897
0.000296257
0.000757833
0.00022523
0.000734508
0.000150851
0.000722568
7.33172e-05
0.000720665
0.000710224
0.00262501
-1.02999e-18
0.00262501
-2.1684e-19
0.00262501
1.6263e-19
0.00262501
0
0.00262501
9.21572e-19
0.00262501
1.40946e-18
0.00262501
-1.95156e-18
0.00262501
-3.1984e-18
0.00262501
2.1684e-19
0.00262501
-1.46367e-18
0.00262501
-5.42101e-19
0.00262501
8.13152e-19
0.00262501
2.22261e-18
0.00262501
0
0.00262501
3.25261e-19
0.00262501
-1.6263e-19
0.00262501
3.25261e-19
0.00262501
5.42101e-20
0.00262501
1.0842e-19
0.00262501
1.68051e-18
0.00262501
1.6263e-19
0.00262501
-1.40946e-18
0.00262501
-8.67362e-19
0.00262501
-4.87891e-19
0.00262501
-1.89735e-18
0.00262501
2.71051e-19
0.00262501
-4.33681e-19
0.00262501
-7.58942e-19
0.00262501
3.25261e-19
0.00262501
1.02999e-18
0.00262501
8.13152e-19
0.00262501
7.04731e-19
0.00262501
1.57209e-18
0.00262501
-9.21572e-19
0.00262501
-2.05998e-18
0.00262501
-2.87314e-18
0.00262501
-1.0842e-18
0.00262501
-1.40946e-18
0.00262501
-9.21572e-19
0.00262501
-1.46367e-18
0.00262501
-1.73472e-18
0.00262501
-6.50521e-19
0.00262501
1.0842e-19
0.00262501
-9.75782e-19
0.00262501
-4.33681e-19
0.00262501
-4.87891e-19
0.00262501
0
0.00262501
3.30682e-18
0.00262501
9.21572e-19
0.00262501
4.87891e-19
0.00262501
7.04731e-19
0.00262501
1.35525e-18
0.00262501
1.0842e-18
0.00262501
2.82435e-17
0.00262501
1.81208e-15
0.00262501
7.94403e-14
0.00262501
5.07185e-12
0.00262501
3.30638e-10
0.00262488
1.0281e-08
0.00261833
1.64399e-06
0.00241274
1.20509e-05
0.00219648
0.000974664
0.00215536
0.000914358
0.00214776
0.000734388
0.00213126
0.000574018
0.00209732
0.000525347
0.0020443
0.000573694
0.00196908
0.000699065
0.00189352
0.000796715
0.00183912
0.000793969
0.0017902
0.000743391
0.00173705
0.000701333
0.00167764
0.000703058
0.00160883
0.000729625
0.00153322
0.00074141
0.00145542
0.00073945
0.00137956
0.000748147
0.00130804
0.00076805
0.00124209
0.000784979
0.00118175
0.000794149
0.001125
0.000801674
0.00106802
0.000811263
0.00100649
0.000821811
0.000937519
0.000829332
0.000860144
0.000836449
0.000775862
0.00084076
0.000689039
0.00084049
0.000603842
0.000840868
0.000522887
0.000848297
0.000444652
0.000856593
0.00036897
0.000852497
0.000296012
0.000830438
0.000223241
0.000805296
0.000148095
0.000792855
7.13319e-05
0.000791691
0.000780107
0.00262501
2.71051e-19
0.00262501
8.67362e-19
0.00262501
2.71051e-19
0.00262501
0
0.00262501
-2.1684e-18
0.00262501
-1.13841e-18
0.00262501
8.13152e-19
0.00262501
1.02999e-18
0.00262501
-2.71051e-19
0.00262501
1.24683e-18
0.00262501
1.0842e-18
0.00262501
-1.6263e-19
0.00262501
-2.71051e-18
0.00262501
1.6263e-19
0.00262501
3.79471e-19
0.00262501
1.35525e-18
0.00262501
-1.40946e-18
0.00262501
-1.40946e-18
0.00262501
-5.96311e-19
0.00262501
-1.6263e-19
0.00262501
2.1684e-19
0.00262501
1.0842e-19
0.00262501
4.33681e-19
0.00262501
-3.25261e-19
0.00262501
-1.24683e-18
0.00262501
-1.57209e-18
0.00262501
-8.67362e-19
0.00262501
3.25261e-19
0.00262501
1.6263e-18
0.00262501
1.51788e-18
0.00262501
-3.25261e-19
0.00262501
1.84314e-18
0.00262501
9.75782e-19
0.00262501
5.42101e-20
0.00262501
3.25261e-19
0.00262501
1.13841e-18
0.00262501
-1.84314e-18
0.00262501
-4.33681e-19
0.00262501
-1.35525e-18
0.00262501
-5.42101e-19
0.00262501
6.50521e-19
0.00262501
-2.1684e-19
0.00262501
1.6263e-19
0.00262501
8.13152e-19
0.00262501
3.79471e-19
0.00262501
1.0842e-19
0.00262501
-3.79471e-19
0.00262501
-1.24683e-18
0.00262501
1.19262e-18
0.00262501
1.02999e-18
0.00262501
3.79471e-19
0.00262501
1.78893e-18
0.00262501
1.19262e-18
0.00262501
2.4774e-17
0.00262501
2.38638e-15
0.00262501
8.6728e-14
0.00262501
7.58048e-12
0.00262501
2.86549e-10
0.00262486
2.06343e-08
0.00261808
1.27463e-06
0.00236911
0.000118915
0.00215761
0.001094
0.00215501
0.000903629
0.00219518
0.000707503
0.0021825
0.000573981
0.00214503
0.000557536
0.00207045
0.000645082
0.00197521
0.000795176
0.0019025
0.00087085
0.00185519
0.000849863
0.00180927
0.000796901
0.00175249
0.000759787
0.00168582
0.000763966
0.00161087
0.000791979
0.00153255
0.000804298
0.00145568
0.000801872
0.00138339
0.00081103
0.0013164
0.000832687
0.00125439
0.00085158
0.0011966
0.000861966
0.00114119
0.000870161
0.00108469
0.000880528
0.001023
0.000892174
0.000953227
0.000900758
0.000874498
0.000908997
0.000788514
0.000914521
0.000699886
0.000914705
0.000613442
0.000915048
0.000530724
0.000922364
0.000450544
0.000931092
0.000372912
0.000926987
0.000296881
0.000903761
0.000222402
0.00087693
0.000147365
0.000864348
7.1277e-05
0.000864195
0.000851746
0.00262501
1.0842e-19
0.00262501
1.6263e-19
0.00262501
-7.04731e-19
0.00262501
1.0842e-19
0.00262501
0
0.00262501
-1.24683e-18
0.00262501
-1.6263e-18
0.00262501
-1.30104e-18
0.00262501
3.25261e-19
0.00262501
-2.1684e-19
0.00262501
4.33681e-19
0.00262501
1.6263e-19
0.00262501
1.6263e-19
0.00262501
-7.58942e-19
0.00262501
-2.60209e-18
0.00262501
-3.14419e-18
0.00262501
-2.38524e-18
0.00262501
-2.76472e-18
0.00262501
-7.04731e-19
0.00262501
-3.79471e-19
0.00262501
8.67362e-19
0.00262501
1.0842e-19
0.00262501