/*--------------------------------*- C++ -*----------------------------------*\
| =========                 |                                                 |
| \\      /  F ield         | OpenFOAM: The Open Source CFD Toolbox           |
|  \\    /   O peration     | Version:  v1812                                 |
|   \\  /    A nd           | Web:      www.OpenFOAM.com                      |
|    \\/     M anipulation  |                                                 |
\*---------------------------------------------------------------------------*/
FoamFile
{
    version     2.0;
    format      ascii;
    class       volScalarField;
    location    "0.6";
    object      rho;
}
// * * * * * * * * * * * * * * * * * * * * * * * * * * * * * * * * * * * * * //

dimensions      [1 -3 0 0 0 0 0];


internalField   nonuniform List<scalar> 
64512
(
1.40001
1.40001
1.40001
1.40001
1.40001
1.40001
1.40001
1.40001
1.40001
1.40001
1.40001
1.40001
1.40001
1.40001
1.40001
1.40001
1.40001
1.40001
1.40001
1.40001
1.40001
1.40001
1.40001
1.40001
1.40001
1.40001
1.40001
1.40001
1.40001
1.40001
1.40001
1.40001
1.40001
1.40001
1.40001
1.40001
1.40001
1.40001
1.40001
1.40001
1.40001
1.40001
1.40001
1.40001
1.40001
1.40001
1.40001
1.40001
1.40001
1.40001
1.40001
1.40001
1.40001
1.40001
1.40001
1.40001
1.40001
1.40049
1.43136
2.37652
4.90821
5.35735
5.49688
5.54494
5.61435
5.6646
5.70067
5.722
5.72839
5.74141
5.76037
5.77802
5.79655
5.81283
5.8211
5.81899
5.81109
5.80251
5.79523
5.79013
5.78731
5.78647
5.78704
5.78714
5.78271
5.76712
5.73132
5.66553
5.56467
5.43567
5.29923
5.1899
5.12925
5.1088
5.10863
5.11451
1.40001
1.40001
1.40001
1.40001
1.40001
1.40001
1.40001
1.40001
1.40001
1.40001
1.40001
1.40001
1.40001
1.40001
1.40001
1.40001
1.40001
1.40001
1.40001
1.40001
1.40001
1.40001
1.40001
1.40001
1.40001
1.40001
1.40001
1.40001
1.40001
1.40001
1.40001
1.40001
1.40001
1.40001
1.40001
1.40001
1.40001
1.40001
1.40001
1.40001
1.40001
1.40001
1.40001
1.40001
1.40001
1.40001
1.40001
1.40001
1.40001
1.40001
1.40001
1.40001
1.40001
1.40001
1.40001
1.40001
1.40001
1.40045
1.42882
2.31166
4.96104
5.45657
5.51425
5.56226
5.621
5.66763
5.70367
5.72441
5.73257
5.7418
5.75938
5.78007
5.79806
5.81328
5.82138
5.82015
5.81304
5.80483
5.79802
5.79357
5.79136
5.79094
5.79166
5.79181
5.78767
5.77291
5.73872
5.6754
5.57751
5.45033
5.31297
5.1999
5.13435
5.1112
5.10884
5.11322
1.40001
1.40001
1.40001
1.40001
1.40001
1.40001
1.40001
1.40001
1.40001
1.40001
1.40001
1.40001
1.40001
1.40001
1.40001
1.40001
1.40001
1.40001
1.40001
1.40001
1.40001
1.40001
1.40001
1.40001
1.40001
1.40001
1.40001
1.40001
1.40001
1.40001
1.40001
1.40001
1.40001
1.40001
1.40001
1.40001
1.40001
1.40001
1.40001
1.40001
1.40001
1.40001
1.40001
1.40001
1.40001
1.40001
1.40001
1.40001
1.40001
1.40001
1.40001
1.40001
1.40001
1.40001
1.40001
1.40001
1.40001
1.40039
1.42533
2.22477
4.97923
5.51641
5.55133
5.58341
5.61627
5.65808
5.69649
5.71601
5.72678
5.74179
5.7607
5.78139
5.80016
5.81368
5.81959
5.81688
5.80976
5.80294
5.79834
5.79604
5.79527
5.79561
5.79658
5.79693
5.79345
5.78026
5.74904
5.69046
5.59836
5.47547
5.33781
5.21854
5.14389
5.11561
5.10941
5.11088
1.40001
1.40001
1.40001
1.40001
1.40001
1.40001
1.40001
1.40001
1.40001
1.40001
1.40001
1.40001
1.40001
1.40001
1.40001
1.40001
1.40001
1.40001
1.40001
1.40001
1.40001
1.40001
1.40001
1.40001
1.40001
1.40001
1.40001
1.40001
1.40001
1.40001
1.40001
1.40001
1.40001
1.40001
1.40001
1.40001
1.40001
1.40001
1.40001
1.40001
1.40001
1.40001
1.40001
1.40001
1.40001
1.40001
1.40001
1.40001
1.40001
1.40001
1.40001
1.40001
1.40001
1.40001
1.40001
1.40001
1.40001
1.40034
1.42234
2.14679
4.85817
5.59345
5.57061
5.58423
5.61862
5.65487
5.6876
5.70744
5.72067
5.73886
5.7599
5.78116
5.79968
5.81039
5.81261
5.80769
5.80158
5.79772
5.79604
5.79578
5.79604
5.79676
5.79777
5.79827
5.79541
5.78371
5.7554
5.70183
5.61627
5.49879
5.36173
5.23641
5.15245
5.1184
5.10873
5.10697
1.40001
1.40001
1.40001
1.40001
1.40001
1.40001
1.40001
1.40001
1.40001
1.40001
1.40001
1.40001
1.40001
1.40001
1.40001
1.40001
1.40001
1.40001
1.40001
1.40001
1.40001
1.40001
1.40001
1.40001
1.40001
1.40001
1.40001
1.40001
1.40001
1.40001
1.40001
1.40001
1.40001
1.40001
1.40001
1.40001
1.40001
1.40001
1.40001
1.40001
1.40001
1.40001
1.40001
1.40001
1.40001
1.40001
1.40001
1.40001
1.40001
1.40001
1.40001
1.40001
1.40001
1.40001
1.40001
1.40001
1.40001
1.40029
1.41951
2.06415
4.71369
5.59921
5.57543
5.59657
5.63356
5.65952
5.68456
5.70244
5.71546
5.73477
5.75562
5.77587
5.79236
5.80023
5.80049
5.79683
5.79383
5.79263
5.79282
5.79336
5.79379
5.79441
5.79541
5.79615
5.79372
5.7829
5.75651
5.70679
5.62672
5.51448
5.37915
5.2498
5.15889
5.11934
5.10789
5.10138
1.40001
1.40001
1.40001
1.40001
1.40001
1.40001
1.40001
1.40001
1.40001
1.40001
1.40001
1.40001
1.40001
1.40001
1.40001
1.40001
1.40001
1.40001
1.40001
1.40001
1.40001
1.40001
1.40001
1.40001
1.40001
1.40001
1.40001
1.40001
1.40001
1.40001
1.40001
1.40001
1.40001
1.40001
1.40001
1.40001
1.40001
1.40001
1.40001
1.40001
1.40001
1.40001
1.40001
1.40001
1.40001
1.40001
1.40001
1.40001
1.40001
1.40001
1.40001
1.40001
1.40001
1.40001
1.40001
1.40001
1.40001
1.40023
1.4153
1.94238
4.65857
5.56957
5.5795
5.61052
5.64812
5.66926
5.68875
5.70398
5.71454
5.73078
5.7489
5.7667
5.78132
5.78881
5.79045
5.7895
5.7892
5.78962
5.79028
5.79072
5.7908
5.79113
5.79208
5.79281
5.79014
5.77902
5.75304
5.7054
5.62897
5.52097
5.38797
5.25668
5.16147
5.11759
5.10566
5.09577
1.40001
1.40001
1.40001
1.40001
1.40001
1.40001
1.40001
1.40001
1.40001
1.40001
1.40001
1.40001
1.40001
1.40001
1.40001
1.40001
1.40001
1.40001
1.40001
1.40001
1.40001
1.40001
1.40001
1.40001
1.40001
1.40001
1.40001
1.40001
1.40001
1.40001
1.40001
1.40001
1.40001
1.40001
1.40001
1.40001
1.40001
1.40001
1.40001
1.40001
1.40001
1.40001
1.40001
1.40001
1.40001
1.40001
1.40001
1.40001
1.40001
1.40001
1.40001
1.40001
1.40001
1.40001
1.40001
1.40001
1.40001
1.40016
1.41067
1.80715
4.61976
5.53494
5.57473
5.60917
5.64742
5.67135
5.69052
5.70578
5.71396
5.72609
5.74206
5.75828
5.77258
5.78081
5.78426
5.78532
5.78668
5.78815
5.78879
5.78845
5.78772
5.78762
5.78846
5.78896
5.78564
5.77367
5.74739
5.70065
5.62656
5.52142
5.39028
5.25832
5.16068
5.11298
5.09999
5.09445
1.40001
1.40001
1.40001
1.40001
1.40001
1.40001
1.40001
1.40001
1.40001
1.40001
1.40001
1.40001
1.40001
1.40001
1.40001
1.40001
1.40001
1.40001
1.40001
1.40001
1.40001
1.40001
1.40001
1.40001
1.40001
1.40001
1.40001
1.40001
1.40001
1.40001
1.40001
1.40001
1.40001
1.40001
1.40001
1.40001
1.40001
1.40001
1.40001
1.40001
1.40001
1.40001
1.40001
1.40001
1.40001
1.40001
1.40001
1.40001
1.40001
1.40001
1.40001
1.40001
1.40001
1.40001
1.40001
1.40001
1.40001
1.40009
1.40644
1.67469
4.57661
5.52215
5.56918
5.60196
5.63936
5.66398
5.68394
5.70078
5.70961
5.7203
5.73593
5.75186
5.76636
5.7745
5.77946
5.78281
5.78563
5.78746
5.78761
5.78635
5.78483
5.78439
5.78504
5.78503
5.78071
5.76758
5.74075
5.69441
5.6217
5.51804
5.38811
5.25587
5.15637
5.10557
5.09205
5.09538
1.40001
1.40001
1.40001
1.40001
1.40001
1.40001
1.40001
1.40001
1.40001
1.40001
1.40001
1.40001
1.40001
1.40001
1.40001
1.40001
1.40001
1.40001
1.40001
1.40001
1.40001
1.40001
1.40001
1.40001
1.40001
1.40001
1.40001
1.40001
1.40001
1.40001
1.40001
1.40001
1.40001
1.40001
1.40001
1.40001
1.40001
1.40001
1.40001
1.40001
1.40001
1.40001
1.40001
1.40001
1.40001
1.40001
1.40001
1.40001
1.40001
1.40001
1.40001
1.40001
1.40001
1.40001
1.40001
1.40001
1.40001
1.40005
1.40342
1.5755
4.50098
5.51032
5.5605
5.59212
5.62885
5.65209
5.67181
5.68951
5.70086
5.71249
5.72996
5.74641
5.76144
5.76965
5.77557
5.78025
5.78398
5.78613
5.78603
5.7842
5.78218
5.78143
5.7817
5.78086
5.7753
5.76101
5.73368
5.68753
5.61558
5.51256
5.38319
5.25039
5.14947
5.09854
5.08558
5.09424
1.40001
1.40001
1.40001
1.40001
1.40001
1.40001
1.40001
1.40001
1.40001
1.40001
1.40001
1.40001
1.40001
1.40001
1.40001
1.40001
1.40001
1.40001
1.40001
1.40001
1.40001
1.40001
1.40001
1.40001
1.40001
1.40001
1.40001
1.40001
1.40001
1.40001
1.40001
1.40001
1.40001
1.40001
1.40001
1.40001
1.40001
1.40001
1.40001
1.40001
1.40001
1.40001
1.40001
1.40001
1.40001
1.40001
1.40001
1.40001
1.40001
1.40001
1.40001
1.40001
1.40001
1.40001
1.40001
1.40001
1.40001
1.40004
1.40222
1.52923
4.37084
5.4794
5.54473
5.5804
5.61907
5.63939
5.65918
5.6778
5.69166
5.70472
5.72487
5.74222
5.75743
5.76564
5.77195
5.77688
5.78081
5.78312
5.78304
5.78113
5.77901
5.77808
5.77788
5.77611
5.76942
5.75427
5.72668
5.6806
5.6088
5.50582
5.37633
5.24284
5.14164
5.0926
5.08033
5.08949
1.40001
1.40001
1.40001
1.40001
1.40001
1.40001
1.40001
1.40001
1.40001
1.40001
1.40001
1.40001
1.40001
1.40001
1.40001
1.40001
1.40001
1.40001
1.40001
1.40001
1.40001
1.40001
1.40001
1.40001
1.40001
1.40001
1.40001
1.40001
1.40001
1.40001
1.40001
1.40001
1.40001
1.40001
1.40001
1.40001
1.40001
1.40001
1.40001
1.40001
1.40001
1.40001
1.40001
1.40001
1.40001
1.40001
1.40001
1.40001
1.40001
1.40001
1.40001
1.40001
1.40001
1.40001
1.40001
1.40001
1.40001
1.40004
1.40202
1.51849
4.20714
5.42017
5.52305
5.57002
5.6111
5.62754
5.64715
5.66705
5.68278
5.69856
5.72159
5.73955
5.75357
5.76087
5.76638
5.77061
5.77442
5.77721
5.77787
5.77666
5.77501
5.77417
5.77352
5.77087
5.76325
5.74756
5.71984
5.67363
5.60135
5.49796
5.36808
5.2344
5.13408
5.08719
5.07495
5.08207
1.40001
1.40001
1.40001
1.40001
1.40001
1.40001
1.40001
1.40001
1.40001
1.40001
1.40001
1.40001
1.40001
1.40001
1.40001
1.40001
1.40001
1.40001
1.40001
1.40001
1.40001
1.40001
1.40001
1.40001
1.40001
1.40001
1.40001
1.40001
1.40001
1.40001
1.40001
1.40001
1.40001
1.40001
1.40001
1.40001
1.40001
1.40001
1.40001
1.40001
1.40001
1.40001
1.40001
1.40001
1.40001
1.40001
1.40001
1.40001
1.40001
1.40001
1.40001
1.40001
1.40001
1.40001
1.40001
1.40001
1.40001
1.40004
1.40189
1.51069
4.03808
5.32714
5.49973
5.55824
5.60413
5.61724
5.63656
5.65833
5.67499
5.69447
5.71891
5.73643
5.74841
5.75425
5.75855
5.76208
5.76603
5.76969
5.77152
5.77137
5.77038
5.76967
5.76857
5.76511
5.75678
5.74078
5.71295
5.66634
5.59324
5.48931
5.35931
5.22632
5.12711
5.08136
5.06837
5.07317
1.40001
1.40001
1.40001
1.40001
1.40001
1.40001
1.40001
1.40001
1.40001
1.40001
1.40001
1.40001
1.40001
1.40001
1.40001
1.40001
1.40001
1.40001
1.40001
1.40001
1.40001
1.40001
1.40001
1.40001
1.40001
1.40001
1.40001
1.40001
1.40001
1.40001
1.40001
1.40001
1.40001
1.40001
1.40001
1.40001
1.40001
1.40001
1.40001
1.40001
1.40001
1.40001
1.40001
1.40001
1.40001
1.40001
1.40001
1.40001
1.40001
1.40001
1.40001
1.40001
1.40001
1.40001
1.40001
1.40001
1.40001
1.40003
1.40173
1.5024
3.86365
5.21072
5.47086
5.55556
5.59703
5.61049
5.6288
5.65105
5.66763
5.69096
5.7153
5.73198
5.74244
5.7472
5.75047
5.75355
5.75777
5.76233
5.76524
5.76597
5.76545
5.7647
5.7631
5.75891
5.75005
5.73385
5.70573
5.65837
5.58454
5.48043
5.35091
5.21923
5.12054
5.07446
5.06031
5.06322
1.40001
1.40001
1.40001
1.40001
1.40001
1.40001
1.40001
1.40001
1.40001
1.40001
1.40001
1.40001
1.40001
1.40001
1.40001
1.40001
1.40001
1.40001
1.40001
1.40001
1.40001
1.40001
1.40001
1.40001
1.40001
1.40001
1.40001
1.40001
1.40001
1.40001
1.40001
1.40001
1.40001
1.40001
1.40001
1.40001
1.40001
1.40001
1.40001
1.40001
1.40001
1.40001
1.40001
1.40001
1.40001
1.40001
1.40001
1.40001
1.40001
1.40001
1.40001
1.40001
1.40001
1.40001
1.40001
1.40001
1.40001
1.40003
1.40155
1.49272
3.6688
5.07389
5.46198
5.57256
5.58908
5.60876
5.62422
5.64458
5.66123
5.68707
5.71064
5.72615
5.73552
5.7396
5.74237
5.74546
5.75014
5.75552
5.75921
5.76045
5.76009
5.75914
5.75704
5.75223
5.74291
5.72637
5.69761
5.64942
5.57526
5.47178
5.3436
5.21321
5.11414
5.06664
5.05093
5.05106
1.40001
1.40001
1.40001
1.40001
1.40001
1.40001
1.40001
1.40001
1.40001
1.40001
1.40001
1.40001
1.40001
1.40001
1.40001
1.40001
1.40001
1.40001
1.40001
1.40001
1.40001
1.40001
1.40001
1.40001
1.40001
1.40001
1.40001
1.40001
1.40001
1.40001
1.40001
1.40001
1.40001
1.40001
1.40001
1.40001
1.40001
1.40001
1.40001
1.40001
1.40001
1.40001
1.40001
1.40001
1.40001
1.40001
1.40001
1.40001
1.40001
1.40001
1.40001
1.40001
1.40001
1.40001
1.40001
1.40001
1.40001
1.40003
1.40132
1.48017
3.42306
4.9224
5.48941
5.59003
5.59262
5.60576
5.61955
5.63518
5.65574
5.68302
5.70487
5.71889
5.72715
5.73083
5.73384
5.7376
5.74303
5.74918
5.75335
5.75467
5.75414
5.75282
5.75021
5.74479
5.73492
5.71772
5.68801
5.63926
5.5656
5.46368
5.33749
5.20802
5.10764
5.05787
5.04113
5.0352
1.40001
1.40001
1.40001
1.40001
1.40001
1.40001
1.40001
1.40001
1.40001
1.40001
1.40001
1.40001
1.40001
1.40001
1.40001
1.40001
1.40001
1.40001
1.40001
1.40001
1.40001
1.40001
1.40001
1.40001
1.40001
1.40001
1.40001
1.40001
1.40001
1.40001
1.40001
1.40001
1.40001
1.40001
1.40001
1.40001
1.40001
1.40001
1.40001
1.40001
1.40001
1.40001
1.40001
1.40001
1.40001
1.40001
1.40001
1.40001
1.40001
1.40001
1.40001
1.40001
1.40001
1.40001
1.40001
1.40001
1.40001
1.40002
1.40102
1.46363
3.10278
4.84539
5.54507
5.58513
5.60534
5.59876
5.60953
5.62354
5.65023
5.67896
5.69741
5.70975
5.71672
5.72026
5.72444
5.72975
5.73642
5.74327
5.74745
5.74832
5.74727
5.74545
5.74235
5.73635
5.72577
5.70758
5.67688
5.62814
5.55607
5.45652
5.33229
5.20307
5.10059
5.04783
5.03285
5.0143
1.40001
1.40001
1.40001
1.40001
1.40001
1.40001
1.40001
1.40001
1.40001
1.40001
1.40001
1.40001
1.40001
1.40001
1.40001
1.40001
1.40001
1.40001
1.40001
1.40001
1.40001
1.40001
1.40001
1.40001
1.40001
1.40001
1.40001
1.40001
1.40001
1.40001
1.40001
1.40001
1.40001
1.40001
1.40001
1.40001
1.40001
1.40001
1.40001
1.40001
1.40001
1.40001
1.40001
1.40001
1.40001
1.40001
1.40001
1.40001
1.40001
1.40001
1.40001
1.40001
1.40001
1.40001
1.40001
1.40001
1.40001
1.40001
1.40066
1.44271
2.67626
4.90292
5.60991
5.6005
5.5908
5.5857
5.59217
5.61544
5.64632
5.67285
5.68827
5.69824
5.70394
5.70793
5.71425
5.72188
5.73019
5.73745
5.74105
5.74104
5.73926
5.73692
5.73337
5.72671
5.71515
5.69568
5.66419
5.61619
5.54649
5.44983
5.32718
5.19745
5.09236
5.03446
5.01976
5.00015
1.40001
1.40001
1.40001
1.40001
1.40001
1.40001
1.40001
1.40001
1.40001
1.40001
1.40001
1.40001
1.40001
1.40001
1.40001
1.40001
1.40001
1.40001
1.40001
1.40001
1.40001
1.40001
1.40001
1.40001
1.40001
1.40001
1.40001
1.40001
1.40001
1.40001
1.40001
1.40001
1.40001
1.40001
1.40001
1.40001
1.40001
1.40001
1.40001
1.40001
1.40001
1.40001
1.40001
1.40001
1.40001
1.40001
1.40001
1.40001
1.40001
1.40001
1.40001
1.40001
1.40001
1.40001
1.40001
1.40001
1.40001
1.40001
1.40031
1.42085
2.15062
4.98817
5.65627
5.56681
5.55031
5.56121
5.58061
5.61043
5.64458
5.66373
5.67678
5.68412
5.68916
5.69453
5.70355
5.71399
5.724
5.73122
5.73377
5.73263
5.73007
5.72719
5.7231
5.71559
5.70272
5.6819
5.65011
5.60359
5.53682
5.44312
5.32148
5.19023
5.08165
5.01701
4.99732
4.99712
1.40001
1.40001
1.40001
1.40001
1.40001
1.40001
1.40001
1.40001
1.40001
1.40001
1.40001
1.40001
1.40001
1.40001
1.40001
1.40001
1.40001
1.40001
1.40001
1.40001
1.40001
1.40001
1.40001
1.40001
1.40001
1.40001
1.40001
1.40001
1.40001
1.40001
1.40001
1.40001
1.40001
1.40001
1.40001
1.40001
1.40001
1.40001
1.40001
1.40001
1.40001
1.40001
1.40001
1.40001
1.40001
1.40001
1.40001
1.40001
1.40001
1.40001
1.40001
1.40001
1.40001
1.40001
1.40001
1.40001
1.40001
1.40001
1.4001
1.40622
1.67993
4.84308
5.58202
5.51204
5.51927
5.53906
5.57185
5.60913
5.6404
5.65219
5.66188
5.66772
5.67291
5.68085
5.69258
5.70597
5.71737
5.724
5.72517
5.72286
5.71951
5.71603
5.71124
5.70262
5.68825
5.66625
5.6347
5.59019
5.52641
5.435
5.31395
5.18054
5.06745
5.00006
4.9785
4.9894
1.40001
1.40001
1.40001
1.40001
1.40001
1.40001
1.40001
1.40001
1.40001
1.40001
1.40001
1.40001
1.40001
1.40001
1.40001
1.40001
1.40001
1.40001
1.40001
1.40001
1.40001
1.40001
1.40001
1.40001
1.40001
1.40001
1.40001
1.40001
1.40001
1.40001
1.40001
1.40001
1.40001
1.40001
1.40001
1.40001
1.40001
1.40001
1.40001
1.40001
1.40001
1.40001
1.40001
1.40001
1.40001
1.40001
1.40001
1.40001
1.40001
1.40001
1.40001
1.40001
1.40001
1.40001
1.40001
1.40001
1.40001
1.40001
1.40004
1.40229
1.53163
4.42603
5.41628
5.48055
5.49429
5.52581
5.56849
5.61053
5.62885
5.63861
5.64515
5.64939
5.65565
5.66721
5.68166
5.69775
5.70976
5.71523
5.71495
5.71157
5.70748
5.7033
5.6976
5.68766
5.67175
5.64892
5.61811
5.57585
5.51464
5.42467
5.30397
5.16854
5.05212
4.98447
4.96244
4.97326
1.40001
1.40001
1.40001
1.40001
1.40001
1.40001
1.40001
1.40001
1.40001
1.40001
1.40001
1.40001
1.40001
1.40001
1.40001
1.40001
1.40001
1.40001
1.40001
1.40001
1.40001
1.40001
1.40001
1.40001
1.40001
1.40001
1.40001
1.40001
1.40001
1.40001
1.40001
1.40001
1.40001
1.40001
1.40001
1.40001
1.40001
1.40001
1.40001
1.40001
1.40001
1.40001
1.40001
1.40001
1.40001
1.40001
1.40001
1.40001
1.40001
1.40001
1.40001
1.40001
1.40001
1.40001
1.40001
1.40001
1.40001
1.40001
1.40003
1.40177
1.50475
3.99561
5.23371
5.42535
5.47525
5.5234
5.57607
5.60296
5.61428
5.62305
5.62548
5.629
5.63925
5.65397
5.67144
5.68905
5.70047
5.70445
5.70291
5.69875
5.69395
5.68892
5.68208
5.67067
5.65331
5.62996
5.60013
5.55978
5.49992
5.41094
5.29111
5.15496
5.03751
4.96926
4.94504
4.95219
1.40001
1.40001
1.40001
1.40001
1.40001
1.40001
1.40001
1.40001
1.40001
1.40001
1.40001
1.40001
1.40001
1.40001
1.40001
1.40001
1.40001
1.40001
1.40001
1.40001
1.40001
1.40001
1.40001
1.40001
1.40001
1.40001
1.40001
1.40001
1.40001
1.40001
1.40001
1.40001
1.40001
1.40001
1.40001
1.40001
1.40001
1.40001
1.40001
1.40001
1.40001
1.40001
1.40001
1.40001
1.40001
1.40001
1.40001
1.40001
1.40001
1.40001
1.40001
1.40001
1.40001
1.40001
1.40001
1.40001
1.40001
1.40001
1.40003
1.4015
1.4894
3.63018
5.02433
5.3744
5.47823
5.5361
5.57328
5.58768
5.60148
5.60177
5.60305
5.61017
5.62552
5.64247
5.66185
5.67911
5.68883
5.69135
5.68901
5.68442
5.67897
5.67294
5.66477
5.65176
5.63308
5.60943
5.58045
5.54123
5.48189
5.39416
5.27641
5.14171
5.02365
4.95231
4.92473
4.92435
1.40001
1.40001
1.40001
1.40001
1.40001
1.40001
1.40001
1.40001
1.40001
1.40001
1.40001
1.40001
1.40001
1.40001
1.40001
1.40001
1.40001
1.40001
1.40001
1.40001
1.40001
1.40001
1.40001
1.40001
1.40001
1.40001
1.40001
1.40001
1.40001
1.40001
1.40001
1.40001
1.40001
1.40001
1.40001
1.40001
1.40001
1.40001
1.40001
1.40001
1.40001
1.40001
1.40001
1.40001
1.40001
1.40001
1.40001
1.40001
1.40001
1.40001
1.40001
1.40001
1.40001
1.40001
1.40001
1.40001
1.40001
1.40001
1.40002
1.4012
1.47248
3.26613
4.81646
5.39337
5.50321
5.54466
5.568
5.58475
5.57789
5.57629
5.58274
5.59692
5.61529
5.63338
5.65227
5.66716
5.67447
5.67579
5.6733
5.6687
5.66269
5.65562
5.64593
5.63116
5.61118
5.58711
5.55841
5.51917
5.46025
5.37468
5.26014
5.1281
5.00881
4.93302
4.90285
4.88886
1.40001
1.40001
1.40001
1.40001
1.40001
1.40001
1.40001
1.40001
1.40001
1.40001
1.40001
1.40001
1.40001
1.40001
1.40001
1.40001
1.40001
1.40001
1.40001
1.40001
1.40001
1.40001
1.40001
1.40001
1.40001
1.40001
1.40001
1.40001
1.40001
1.40001
1.40001
1.40001
1.40001
1.40001
1.40001
1.40001
1.40001
1.40001
1.40001
1.40001
1.40001
1.40001
1.40001
1.40001
1.40001
1.40001
1.40001
1.40001
1.40001
1.40001
1.40001
1.40001
1.40001
1.40001
1.40001
1.40001
1.40001
1.40001
1.40002
1.4008
1.45016
2.82352
4.75158
5.4722
5.53211
5.57328
5.56931
5.55237
5.54658
5.55575
5.56966
5.5905
5.60883
5.62559
5.64129
5.65243
5.65708
5.65776
5.65595
5.65179
5.64535
5.63725
5.62558
5.60888
5.58765
5.56282
5.53341
5.49369
5.43565
5.35345
5.24316
5.11402
4.99262
4.91018
4.8807
4.84169
1.40001
1.40001
1.40001
1.40001
1.40001
1.40001
1.40001
1.40001
1.40001
1.40001
1.40001
1.40001
1.40001
1.40001
1.40001
1.40001
1.40001
1.40001
1.40001
1.40001
1.40001
1.40001
1.40001
1.40001
1.40001
1.40001
1.40001
1.40001
1.40001
1.40001
1.40001
1.40001
1.40001
1.40001
1.40001
1.40001
1.40001
1.40001
1.40001
1.40001
1.40001
1.40001
1.40001
1.40001
1.40001
1.40001
1.40001
1.40001
1.40001
1.40001
1.40001
1.40001
1.40001
1.40001
1.40001
1.40001
1.40001
1.40001
1.40001
1.40037
1.42378
2.23777
4.873
5.56253
5.56813
5.52893
5.51247
5.51155
5.52801
5.54494
5.56762
5.58965
5.60344
5.61659
5.62751
5.63419
5.6365
5.63765
5.6374
5.63405
5.62734
5.61775
5.60359
5.58512
5.56256
5.53638
5.50546
5.46516
5.40848
5.32973
5.22383
5.09658
4.97104
4.878
4.8414
4.80626
1.40001
1.40001
1.40001
1.40001
1.40001
1.40001
1.40001
1.40001
1.40001
1.40001
1.40001
1.40001
1.40001
1.40001
1.40001
1.40001
1.40001
1.40001
1.40001
1.40001
1.40001
1.40001
1.40001
1.40001
1.40001
1.40001
1.40001
1.40001
1.40001
1.40001
1.40001
1.40001
1.40001
1.40001
1.40001
1.40001
1.40001
1.40001
1.40001
1.40001
1.40001
1.40001
1.40001
1.40001
1.40001
1.40001
1.40001
1.40001
1.40001
1.40001
1.40001
1.40001
1.40001
1.40001
1.40001
1.40001
1.40001
1.40001
1.40001
1.40009
1.40513
1.63488
4.6939
5.52934
5.48361
5.46499
5.47241
5.49904
5.52087
5.54781
5.57278
5.58742
5.59695
5.60452
5.6093
5.61179
5.61357
5.61647
5.61817
5.61567
5.60843
5.59683
5.58013
5.55964
5.53557
5.50762
5.47492
5.43365
5.37852
5.30327
5.20126
5.07402
4.94221
4.83627
4.78795
4.77499
1.40001
1.40001
1.40001
1.40001
1.40001
1.40001
1.40001
1.40001
1.40001
1.40001
1.40001
1.40001
1.40001
1.40001
1.40001
1.40001
1.40001
1.40001
1.40001
1.40001
1.40001
1.40001
1.40001
1.40001
1.40001
1.40001
1.40001
1.40001
1.40001
1.40001
1.40001
1.40001
1.40001
1.40001
1.40001
1.40001
1.40001
1.40001
1.40001
1.40001
1.40001
1.40001
1.40001
1.40001
1.40001
1.40001
1.40001
1.40001
1.40001
1.40001
1.40001
1.40001
1.40001
1.40001
1.40001
1.40001
1.40001
1.40001
1.40001
1.40004
1.40194
1.51215
4.0736
5.30691
5.42254
5.4401
5.46438
5.49556
5.52848
5.55666
5.57243
5.58123
5.5867
5.58638
5.58565
5.58731
5.59046
5.5953
5.59867
5.59647
5.58812
5.57382
5.55465
5.53218
5.50637
5.47644
5.44181
5.39967
5.34575
5.27314
5.17269
5.0427
4.90254
4.78728
4.72951
4.7372
1.40001
1.40001
1.40001
1.40001
1.40001
1.40001
1.40001
1.40001
1.40001
1.40001
1.40001
1.40001
1.40001
1.40001
1.40001
1.40001
1.40001
1.40001
1.40001
1.40001
1.40001
1.40001
1.40001
1.40001
1.40001
1.40001
1.40001
1.40001
1.40001
1.40001
1.40001
1.40001
1.40001
1.40001
1.40001
1.40001
1.40001
1.40001
1.40001
1.40001
1.40001
1.40001
1.40001
1.40001
1.40001
1.40001
1.40001
1.40001
1.40001
1.40001
1.40001
1.40001
1.40001
1.40001
1.40001
1.40001
1.40001
1.40001
1.40001
1.40003
1.40138
1.48306
3.53485
5.04634
5.35898
5.42864
5.46695
5.5074
5.53517
5.55095
5.5659
5.57179
5.56651
5.56126
5.56089
5.56447
5.56904
5.57495
5.57859
5.57543
5.56519
5.54808
5.52679
5.50258
5.47491
5.44303
5.40637
5.36291
5.30899
5.23724
5.13658
5.00314
4.85626
4.7341
4.66849
4.67204
1.40001
1.40001
1.40001
1.40001
1.40001
1.40001
1.40001
1.40001
1.40001
1.40001
1.40001
1.40001
1.40001
1.40001
1.40001
1.40001
1.40001
1.40001
1.40001
1.40001
1.40001
1.40001
1.40001
1.40001
1.40001
1.40001
1.40001
1.40001
1.40001
1.40001
1.40001
1.40001
1.40001
1.40001
1.40001
1.40001
1.40001
1.40001
1.40001
1.40001
1.40001
1.40001
1.40001
1.40001
1.40001
1.40001
1.40001
1.40001
1.40001
1.40001
1.40001
1.40001
1.40001
1.40001
1.40001
1.40001
1.40001
1.40001
1.40001
1.40002
1.40097
1.45964
3.02755
4.84714
5.36308
5.45466
5.48522
5.50638
5.52929
5.54847
5.55125
5.54651
5.53935
5.53762
5.54016
5.54513
5.55013
5.55527
5.55699
5.55163
5.53877
5.51931
5.49637
5.47066
5.44138
5.40756
5.36842
5.32275
5.26737
5.19468
5.09232
4.95413
4.7999
4.67065
4.59002
4.57809
1.40001
1.40001
1.40001
1.40001
1.40001
1.40001
1.40001
1.40001
1.40001
1.40001
1.40001
1.40001
1.40001
1.40001
1.40001
1.40001
1.40001
1.40001
1.40001
1.40001
1.40001
1.40001
1.40001
1.40001
1.40001
1.40001
1.40001
1.40001
1.40001
1.40001
1.40001
1.40001
1.40001
1.40001
1.40001
1.40001
1.40001
1.40001
1.40001
1.40001
1.40001
1.40001
1.40001
1.40001
1.40001
1.40001
1.40001
1.40001
1.40001
1.40001
1.40001
1.40001
1.40001
1.40001
1.40001
1.40001
1.40001
1.40001
1.40001
1.40001
1.4005
1.43196
2.44484
4.815
5.39713
5.48027
5.50345
5.52696
5.52743
5.52365
5.52076
5.5168
5.5167
5.51993
5.52457
5.52864
5.53253
5.53483
5.53266
5.52422
5.50838
5.48742
5.46339
5.43664
5.40605
5.36999
5.32773
5.2787
5.22016
5.14451
5.03921
4.89677
4.73395
4.58806
4.48974
4.43333
1.40001
1.40001
1.40001
1.40001
1.40001
1.40001
1.40001
1.40001
1.40001
1.40001
1.40001
1.40001
1.40001
1.40001
1.40001
1.40001
1.40001
1.40001
1.40001
1.40001
1.40001
1.40001
1.40001
1.40001
1.40001
1.40001
1.40001
1.40001
1.40001
1.40001
1.40001
1.40001
1.40001
1.40001
1.40001
1.40001
1.40001
1.40001
1.40001
1.40001
1.40001
1.40001
1.40001
1.40001
1.40001
1.40001
1.40001
1.40001
1.40001
1.40001
1.40001
1.40001
1.40001
1.40001
1.40001
1.40001
1.40001
1.40001
1.40001
1.40001
1.40014
1.40792
1.73404
4.62546
5.41242
5.48972
5.47444
5.47822
5.48552
5.48755
5.49204
5.49641
5.50184
5.50806
5.51194
5.51355
5.5142
5.51175
5.50439
5.49236
5.47478
5.45323
5.42874
5.40138
5.3693
5.33036
5.28406
5.23035
5.16698
5.08682
4.97745
4.82786
4.64726
4.46581
4.31061
4.24167
1.40001
1.40001
1.40001
1.40001
1.40001
1.40001
1.40001
1.40001
1.40001
1.40001
1.40001
1.40001
1.40001
1.40001
1.40001
1.40001
1.40001
1.40001
1.40001
1.40001
1.40001
1.40001
1.40001
1.40001
1.40001
1.40001
1.40001
1.40001
1.40001
1.40001
1.40001
1.40001
1.40001
1.40001
1.40001
1.40001
1.40001
1.40001
1.40001
1.40001
1.40001
1.40001
1.40001
1.40001
1.40001
1.40001
1.40001
1.40001
1.40001
1.40001
1.40001
1.40001
1.40001
1.40001
1.40001
1.40001
1.40001
1.40001
1.40001
1.40001
1.40004
1.40202
1.51396
3.97583
5.28301
5.45018
5.43277
5.43438
5.44794
5.46337
5.47455
5.48438
5.49276
5.49784
5.49869
5.49716
5.49303
5.48418
5.47143
5.45738
5.43953
5.418
5.39333
5.36497
5.33072
5.28828
5.23719
5.17779
5.10826
5.02186
4.90568
4.74333
4.5358
4.32627
4.11029
3.87476
1.40001
1.40001
1.40001
1.40001
1.40001
1.40001
1.40001
1.40001
1.40001
1.40001
1.40001
1.40001
1.40001
1.40001
1.40001
1.40001
1.40001
1.40001
1.40001
1.40001
1.40001
1.40001
1.40001
1.40001
1.40001
1.40001
1.40001
1.40001
1.40001
1.40001
1.40001
1.40001
1.40001
1.40001
1.40001
1.40001
1.40001
1.40001
1.40001
1.40001
1.40001
1.40001
1.40001
1.40001
1.40001
1.40001
1.40001
1.40001
1.40001
1.40001
1.40001
1.40001
1.40001
1.40001
1.40001
1.40001
1.40001
1.40001
1.40001
1.40001
1.40002
1.40107
1.46592
3.25735
5.11019
5.4433
5.42021
5.41794
5.42777
5.44393
5.46079
5.47355
5.48084
5.4827
5.4809
5.47632
5.46527
5.4509
5.43594
5.42155
5.40418
5.38289
5.35781
5.32762
5.29046
5.24401
5.18762
5.12172
5.04481
4.95032
4.82446
4.64694
4.41446
4.13832
3.75169
2.94367
1.40001
1.40001
1.40001
1.40001
1.40001
1.40001
1.40001
1.40001
1.40001
1.40001
1.40001
1.40001
1.40001
1.40001
1.40001
1.40001
1.40001
1.40001
1.40001
1.40001
1.40001
1.40001
1.40001
1.40001
1.40001
1.40001
1.40001
1.40001
1.40001
1.40001
1.40001
1.40001
1.40001
1.40001
1.40001
1.40001
1.40001
1.40001
1.40001
1.40001
1.40001
1.40001
1.40001
1.40001
1.40001
1.40001
1.40001
1.40001
1.40001
1.40001
1.40001
1.40001
1.40001
1.40001
1.40001
1.40001
1.40001
1.40001
1.40001
1.40001
1.40001
1.4005
1.43117
2.48095
5.03019
5.4994
5.4344
5.4149
5.41746
5.43082
5.44701
5.45828
5.46264
5.46202
5.45644
5.44513
5.43092
5.41591
5.40158
5.38735
5.37014
5.34844
5.32183
5.28874
5.2479
5.1971
5.13533
5.06278
4.97796
4.87424
4.73718
4.54435
4.28746
3.94643
3.44885
2.63368
1.40001
1.40001
1.40001
1.40001
1.40001
1.40001
1.40001
1.40001
1.40001
1.40001
1.40001
1.40001
1.40001
1.40001
1.40001
1.40001
1.40001
1.40001
1.40001
1.40001
1.40001
1.40001
1.40001
1.40001
1.40001
1.40001
1.40001
1.40001
1.40001
1.40001
1.40001
1.40001
1.40001
1.40001
1.40001
1.40001
1.40001
1.40001
1.40001
1.40001
1.40001
1.40001
1.40001
1.40001
1.40001
1.40001
1.40001
1.40001
1.40001
1.40001
1.40001
1.40001
1.40001
1.40001
1.40001
1.40001
1.40001
1.40001
1.40001
1.40001
1.40001
1.40013
1.40692
1.70409
4.61933
5.47344
5.43855
5.40957
5.41022
5.42484
5.43841
5.44411
5.44283
5.43557
5.42466
5.41113
5.39781
5.38383
5.36985
5.35493
5.33693
5.31378
5.28446
5.24796
5.2032
5.14828
5.08165
5.00293
4.91022
4.79687
4.64914
4.44761
4.17203
3.7949
3.27844
2.6129
1.40001
1.40001
1.40001
1.40001
1.40001
1.40001
1.40001
1.40001
1.40001
1.40001
1.40001
1.40001
1.40001
1.40001
1.40001
1.40001
1.40001
1.40001
1.40001
1.40001
1.40001
1.40001
1.40001
1.40001
1.40001
1.40001
1.40001
1.40001
1.40001
1.40001
1.40001
1.40001
1.40001
1.40001
1.40001
1.40001
1.40001
1.40001
1.40001
1.40001
1.40001
1.40001
1.40001
1.40001
1.40001
1.40001
1.40001
1.40001
1.40001
1.40001
1.40001
1.40001
1.40001
1.40001
1.40001
1.40001
1.40001
1.40001
1.40001
1.40001
1.40001
1.40004
1.40185
1.50413
3.81085
5.22171
5.391
5.41274
5.42511
5.43646
5.4383
5.43277
5.42171
5.40685
5.39224
5.37878
5.36643
5.35351
5.33975
5.32358
5.30368
5.27832
5.24594
5.20579
5.157
5.09806
5.02723
4.94294
4.84271
4.72076
4.56515
4.35856
4.08183
3.7125
3.26207
2.76397
1.40001
1.40001
1.40001
1.40001
1.40001
1.40001
1.40001
1.40001
1.40001
1.40001
1.40001
1.40001
1.40001
1.40001
1.40001
1.40001
1.40001
1.40001
1.40001
1.40001
1.40001
1.40001
1.40001
1.40001
1.40001
1.40001
1.40001
1.40001
1.40001
1.40001
1.40001
1.40001
1.40001
1.40001
1.40001
1.40001
1.40001
1.40001
1.40001
1.40001
1.40001
1.40001
1.40001
1.40001
1.40001
1.40001
1.40001
1.40001
1.40001
1.40001
1.40001
1.40001
1.40001
1.40001
1.40001
1.40001
1.40001
1.40001
1.40001
1.40001
1.40001
1.40002
1.40099
1.46043
3.09281
4.96668
5.34109
5.41015
5.43017
5.4395
5.43273
5.41746
5.39767
5.37767
5.3616
5.34719
5.3353
5.32349
5.30982
5.29205
5.26954
5.24126
5.2057
5.16213
5.10987
5.04758
4.97331
4.88467
4.77856
4.64981
4.48954
4.28272
4.01841
3.67777
3.2768
2.84631
1.40001
1.40001
1.40001
1.40001
1.40001
1.40001
1.40001
1.40001
1.40001
1.40001
1.40001
1.40001
1.40001
1.40001
1.40001
1.40001
1.40001
1.40001
1.40001
1.40001
1.40001
1.40001
1.40001
1.40001
1.40001
1.40001
1.40001
1.40001
1.40001
1.40001
1.40001
1.40001
1.40001
1.40001
1.40001
1.40001
1.40001
1.40001
1.40001
1.40001
1.40001
1.40001
1.40001
1.40001
1.40001
1.40001
1.40001
1.40001
1.40001
1.40001
1.40001
1.40001
1.40001
1.40001
1.40001
1.40001
1.40001
1.40001
1.40001
1.40001
1.40001
1.40001
1.40046
1.42844
2.37556
4.84093
5.32597
5.39988
5.42059
5.42114
5.41399
5.39675
5.37122
5.3494
5.33421
5.31885
5.30644
5.29435
5.27949
5.2594
5.23392
5.20249
5.16395
5.11758
5.06257
4.99757
4.92039
4.82819
4.71782
4.58441
4.42292
4.22045
3.97381
3.66817
3.30207
2.91357
1.40001
1.40001
1.40001
1.40001
1.40001
1.40001
1.40001
1.40001
1.40001
1.40001
1.40001
1.40001
1.40001