/*--------------------------------*- C++ -*----------------------------------*\
| =========                 |                                                 |
| \\      /  F ield         | OpenFOAM: The Open Source CFD Toolbox           |
|  \\    /   O peration     | Version:  v1812                                 |
|   \\  /    A nd           | Web:      www.OpenFOAM.com                      |
|    \\/     M anipulation  |                                                 |
\*---------------------------------------------------------------------------*/
FoamFile
{
    version     2.0;
    format      ascii;
    class       volScalarField;
    location    "0.6";
    object      T;
}
// * * * * * * * * * * * * * * * * * * * * * * * * * * * * * * * * * * * * * //

dimensions      [0 0 0 1 0 0 0];


internalField   nonuniform List<scalar> 
64512
(
1
1
1
1
1
1
1
1
1
1
1
1
1
1
1
1
1
1
1
1
1
1
1
1
1
1
1
1
1
1
1
1
1
1
1
1
1
1
1
1
1
1
1
1
1
1
1
1
1
1
1
1
1
1
1
1
1
1.00014
1.00915
1.75315
2.70353
2.8158
2.82141
2.82105
2.82493
2.82962
2.83789
2.84869
2.85841
2.86267
2.86356
2.86401
2.86571
2.86917
2.87435
2.88069
2.88715
2.89347
2.90059
2.90964
2.92112
2.9348
2.95027
2.96751
2.98715
3.01065
3.04086
3.0822
3.13923
3.21144
3.28818
3.3506
3.38477
3.39422
3.39217
3.38537
1
1
1
1
1
1
1
1
1
1
1
1
1
1
1
1
1
1
1
1
1
1
1
1
1
1
1
1
1
1
1
1
1
1
1
1
1
1
1
1
1
1
1
1
1
1
1
1
1
1
1
1
1
1
1
1
1
1.00013
1.00842
1.70453
2.67196
2.78416
2.81022
2.81898
2.82461
2.82976
2.83666
2.8457
2.85465
2.86009
2.86206
2.86329
2.86507
2.86829
2.87309
2.87914
2.88556
2.89193
2.89889
2.90752
2.91849
2.93185
2.94728
2.96461
2.98417
3.00719
3.03631
3.07593
3.13092
3.20164
3.27878
3.3439
3.3816
3.39318
3.39184
3.38613
1
1
1
1
1
1
1
1
1
1
1
1
1
1
1
1
1
1
1
1
1
1
1
1
1
1
1
1
1
1
1
1
1
1
1
1
1
1
1
1
1
1
1
1
1
1
1
1
1
1
1
1
1
1
1
1
1
1.00011
1.00742
1.64727
2.65002
2.77196
2.79989
2.81961
2.82917
2.83409
2.83906
2.84641
2.85363
2.85779
2.85959
2.8611
2.86339
2.86737
2.87323
2.88013
2.88662
2.89229
2.89805
2.90538
2.91532
2.92817
2.94356
2.961
2.98035
3.00246
3.02965
3.06627
3.11763
3.18552
3.26283
3.33219
3.37585
3.3911
3.39105
3.38623
1
1
1
1
1
1
1
1
1
1
1
1
1
1
1
1
1
1
1
1
1
1
1
1
1
1
1
1
1
1
1
1
1
1
1
1
1
1
1
1
1
1
1
1
1
1
1
1
1
1
1
1
1
1
1
1
1
1.0001
1.00653
1.60146
2.64568
2.76901
2.80129
2.82182
2.83311
2.83849
2.84226
2.84761
2.85306
2.85596
2.85757
2.85952
2.86264
2.86809
2.87566
2.88358
2.88957
2.89371
2.89796
2.90406
2.91323
2.92581
2.94126
2.95876
2.97779
2.99881
3.02397
3.0575
3.10504
3.16982
3.247
3.32042
3.37003
3.38886
3.39037
3.38571
1
1
1
1
1
1
1
1
1
1
1
1
1
1
1
1
1
1
1
1
1
1
1
1
1
1
1
1
1
1
1
1
1
1
1
1
1
1
1
1
1
1
1
1
1
1
1
1
1
1
1
1
1
1
1
1
1
1.00008
1.00571
1.56037
2.63224
2.77515
2.80621
2.82025
2.82972
2.83637
2.84157
2.84693
2.85197
2.85488
2.85705
2.85978
2.86409
2.8712
2.87985
2.88726
2.89196
2.89487
2.8981
2.90353
2.91243
2.92499
2.94052
2.95799
2.97665
2.9968
3.02043
3.05166
3.09626
3.15848
3.23519
3.31126
3.36511
3.38672
3.38968
3.38447
1
1
1
1
1
1
1
1
1
1
1
1
1
1
1
1
1
1
1
1
1
1
1
1
1
1
1
1
1
1
1
1
1
1
1
1
1
1
1
1
1
1
1
1
1
1
1
1
1
1
1
1
1
1
1
1
1
1.00006
1.00446
1.46729
2.60597
2.78354
2.81408
2.82185
2.82709
2.83188
2.83711
2.84306
2.84935
2.85411
2.85776
2.86166
2.86681
2.87407
2.88211
2.88841
2.89216
2.89457
2.89757
2.90295
2.91196
2.92469
2.9403
2.9577
2.97609
2.99572
3.01853
3.04855
3.09143
3.15192
3.22792
3.30509
3.36127
3.38469
3.38878
3.383
1
1
1
1
1
1
1
1
1
1
1
1
1
1
1
1
1
1
1
1
1
1
1
1
1
1
1
1
1
1
1
1
1
1
1
1
1
1
1
1
1
1
1
1
1
1
1
1
1
1
1
1
1
1
1
1
1
1.00004
1.00308
1.34705
2.581
2.79337
2.8229
2.82538
2.82639
2.82809
2.8317
2.83774
2.84562
2.85255
2.85772
2.86248
2.86777
2.87449
2.88166
2.88735
2.89084
2.89312
2.89623
2.90199
2.91141
2.92438
2.94
2.95725
2.97538
2.99472
3.01725
3.04685
3.08899
3.14851
3.22383
3.30113
3.35825
3.38247
3.38669
3.38262
1
1
1
1
1
1
1
1
1
1
1
1
1
1
1
1
1
1
1
1
1
1
1
1
1
1
1
1
1
1
1
1
1
1
1
1
1
1
1
1
1
1
1
1
1
1
1
1
1
1
1
1
1
1
1
1
1
1.00003
1.00183
1.21626
2.55504
2.79783
2.82729
2.82735
2.82579
2.82612
2.82859
2.83465
2.8434
2.85125
2.85676
2.86156
2.86684
2.87344
2.8801
2.88515
2.8883
2.89064
2.89414
2.90053
2.91054
2.9238
2.93939
2.95642
2.97428
2.99348
3.016
3.04564
3.08759
3.14664
3.22139
3.29838
3.35557
3.38004
3.38421
3.38284
1
1
1
1
1
1
1
1
1
1
1
1
1
1
1
1
1
1
1
1
1
1
1
1
1
1
1
1
1
1
1
1
1
1
1
1
1
1
1
1
1
1
1
1
1
1
1
1
1
1
1
1
1
1
1
1
1
1.00001
1.00093
1.09715
2.53323
2.80024
2.82764
2.82668
2.82386
2.8242
2.82714
2.83405
2.84309
2.85045
2.85511
2.85948
2.86462
2.87098
2.87733
2.88207
2.88506
2.88756
2.89155
2.89865
2.90929
2.92284
2.93837
2.95511
2.97268
2.99178
3.01445
3.04431
3.0863
3.14509
3.21935
3.29586
3.35286
3.37786
3.38228
3.38236
1
1
1
1
1
1
1
1
1
1
1
1
1
1
1
1
1
1
1
1
1
1
1
1
1
1
1
1
1
1
1
1
1
1
1
1
1
1
1
1
1
1
1
1
1
1
1
1
1
1
1
1
1
1
1
1
1
1.00001
1.00064
1.03835
2.51768
2.80246
2.82552
2.82299
2.81966
2.82092
2.82576
2.83412
2.84318
2.84937
2.85249
2.8561
2.8611
2.8674
2.87384
2.87869
2.88179
2.88455
2.88901
2.89671
2.90784
2.92156
2.93692
2.95331
2.97056
2.98957
3.01239
3.04251
3.08461
3.14323
3.21706
3.29315
3.35024
3.37612
3.38075
3.38106
1
1
1
1
1
1
1
1
1
1
1
1
1
1
1
1
1
1
1
1
1
1
1
1
1
1
1
1
1
1
1
1
1
1
1
1
1
1
1
1
1
1
1
1
1
1
1
1
1
1
1
1
1
1
1
1
1
1.00001
1.00058
1.03499
2.49177
2.80521
2.81996
2.81564
2.8132
2.81621
2.82413
2.8342
2.84293
2.84744
2.84899
2.85197
2.85711
2.86375
2.87062
2.87578
2.87904
2.88199
2.88677
2.89486
2.90625
2.91995
2.93502
2.951
2.96792
2.98681
3.00974
3.04002
3.08218
3.14063
3.2141
3.29006
3.34765
3.37451
3.37925
3.37906
1
1
1
1
1
1
1
1
1
1
1
1
1
1
1
1
1
1
1
1
1
1
1
1
1
1
1
1
1
1
1
1
1
1
1
1
1
1
1
1
1
1
1
1
1
1
1
1
1
1
1
1
1
1
1
1
1
1.00001
1.00054
1.03263
2.46214
2.80707
2.81125
2.80479
2.805
2.81113
2.82298
2.8343
2.84207
2.8446
2.84509
2.84774
2.85324
2.86045
2.86775
2.87319
2.87658
2.87969
2.88472
2.89306
2.90452
2.91802
2.93269
2.94823
2.96482
2.98354
3.00645
3.03672
3.07877
3.13699
3.21027
3.28648
3.34487
3.37263
3.37751
3.37668
1
1
1
1
1
1
1
1
1
1
1
1
1
1
1
1
1
1
1
1
1
1
1
1
1
1
1
1
1
1
1
1
1
1
1
1
1
1
1
1
1
1
1
1
1
1
1
1
1
1
1
1
1
1
1
1
1
1.00001
1.0005
1.03014
2.42705
2.80464
2.80195
2.79201
2.79571
2.80746
2.82306
2.83443
2.84028
2.84081
2.84078
2.84325
2.84903
2.85671
2.86441
2.87013
2.87379
2.8772
2.88257
2.89115
2.90256
2.91573
2.92991
2.945
2.96124
2.97973
3.00246
3.03249
3.07428
3.13219
3.20546
3.28225
3.34164
3.37026
3.37538
3.374
1
1
1
1
1
1
1
1
1
1
1
1
1
1
1
1
1
1
1
1
1
1
1
1
1
1
1
1
1
1
1
1
1
1
1
1
1
1
1
1
1
1
1
1
1
1
1
1
1
1
1
1
1
1
1
1
1
1.00001
1.00045
1.02735
2.38009
2.79731
2.78807
2.77866
2.78841
2.80657
2.82444
2.83418
2.83703
2.83623
2.83607
2.83855
2.84448
2.85245
2.86038
2.86635
2.87039
2.8743
2.88015
2.88899
2.90029
2.91302
2.92667
2.94129
2.9572
2.97537
2.99774
3.02735
3.06871
3.12629
3.19966
3.27724
3.33777
3.36733
3.37285
3.37079
1
1
1
1
1
1
1
1
1
1
1
1
1
1
1
1
1
1
1
1
1
1
1
1
1
1
1
1
1
1
1
1
1
1
1
1
1
1
1
1
1
1
1
1
1
1
1
1
1
1
1
1
1
1
1
1
1
1.00001
1.00038
1.02379
2.30337
2.77692
2.76644
2.77067
2.78621
2.80926
2.82647
2.83319
2.8328
2.83091
2.83108
2.83383
2.84004
2.84813
2.85598
2.86197
2.86641
2.87094
2.87742
2.88658
2.89775
2.91
2.92306
2.9372
2.95271
2.97047
2.99232
3.02139
3.06223
3.11945
3.19293
3.27134
3.33319
3.36381
3.37015
3.36656
1
1
1
1
1
1
1
1
1
1
1
1
1
1
1
1
1
1
1
1
1
1
1
1
1
1
1
1
1
1
1
1
1
1
1
1
1
1
1
1
1
1
1
1
1
1
1
1
1
1
1
1
1
1
1
1
1
1
1.00029
1.01902
2.17327
2.73282
2.74878
2.76798
2.79268
2.81501
2.8275
2.82999
2.82767
2.82531
2.82601
2.82945
2.83616
2.84415
2.85147
2.85713
2.86187
2.86716
2.87442
2.88399
2.895
2.90671
2.9191
2.93267
2.94772
2.96496
2.98625
3.01476
3.05507
3.11184
3.18527
3.26448
3.32775
3.35965
3.36789
3.36093
1
1
1
1
1
1
1
1
1
1
1
1
1
1
1
1
1
1
1
1
1
1
1
1
1
1
1
1
1
1
1
1
1
1
1
1
1
1
1
1
1
1
1
1
1
1
1
1
1
1
1
1
1
1
1
1
1
1
1.00019
1.01275
1.9368
2.66599
2.74313
2.77344
2.80423
2.81982
2.82612
2.82447
2.82076
2.8197
2.82117
2.8259
2.83318
2.84063
2.84689
2.8519
2.85689
2.86305
2.87121
2.88121
2.89202
2.90308
2.91471
2.92764
2.94214
2.95886
2.97961
3.00761
3.04737
3.10356
3.17667
3.25645
3.32121
3.35452
3.36299
3.35785
1
1
1
1
1
1
1
1
1
1
1
1
1
1
1
1
1
1
1
1
1
1
1
1
1
1
1
1
1
1
1
1
1
1
1
1
1
1
1
1
1
1
1
1
1
1
1
1
1
1
1
1
1
1
1
1
1
1
1.00009
1.0061
1.56373
2.60031
2.74813
2.78703
2.81362
2.82094
2.82064
2.81622
2.81297
2.81368
2.81708
2.82364
2.83106
2.83736
2.84214
2.84634
2.85159
2.85871
2.86783
2.8782
2.8887
2.89904
2.90986
2.92207
2.93599
2.95222
2.97252
3.00006
3.03922
3.0946
3.16705
3.24712
3.31329
3.34808
3.35621
3.35746
1
1
1
1
1
1
1
1
1
1
1
1
1
1
1
1
1
1
1
1
1
1
1
1
1
1
1
1
1
1
1
1
1
1
1
1
1
1
1
1
1
1
1
1
1
1
1
1
1
1
1
1
1
1
1
1
1
1
1.00002
1.00182
1.18246
2.53364
2.76319
2.80187
2.81531
2.81629
2.81145
2.80576
2.80501
2.80786
2.81452
2.82257
2.82933
2.83394
2.83706
2.84055
2.84616
2.8543
2.8643
2.8749
2.88498
2.89454
2.90451
2.91596
2.92931
2.94511
2.96505
2.99214
3.03055
3.08478
3.15623
3.23624
3.30376
3.34089
3.35109
3.35539
1
1
1
1
1
1
1
1
1
1
1
1
1
1
1
1
1
1
1
1
1
1
1
1
1
1
1
1
1
1
1
1
1
1
1
1
1
1
1
1
1
1
1
1
1
1
1
1
1
1
1
1
1
1
1
1
1
1
1.00001
1.00065
1.03964
2.4712
2.77442
2.80609
2.81117
2.80648
2.79861
2.79415
2.79706
2.80393
2.81389
2.82216
2.82735
2.82996
2.83158
2.83467
2.84085
2.84997
2.86063
2.87122
2.88074
2.88949
2.89863
2.90934
2.92217
2.93763
2.95725
2.98382
3.02124
3.07397
3.14402
3.22384
3.29322
3.33366
3.3465
3.35146
1
1
1
1
1
1
1
1
1
1
1
1
1
1
1
1
1
1
1
1
1
1
1
1
1
1
1
1
1
1
1
1
1
1
1
1
1
1
1
1
1
1
1
1
1
1
1
1
1
1
1
1
1
1
1
1
1
1
1.00001
1.00051
1.03074
2.39555
2.77376
2.80524
2.80022
2.78946
2.7815
2.7837
2.79092
2.80326
2.8144
2.82147
2.82438
2.82497
2.8258
2.82895
2.83591
2.84584
2.85676
2.86703
2.87586
2.88382
2.89219
2.90223
2.91461
2.92979
2.94909
2.97496
3.01109
3.06203
3.13034
3.21014
3.28202
3.32605
3.34124
3.34576
1
1
1
1
1
1
1
1
1
1
1
1
1
1
1
1
1
1
1
1
1
1
1
1
1
1
1
1
1
1
1
1
1
1
1
1
1
1
1
1
1
1
1
1
1
1
1
1
1
1
1
1
1
1
1
1
1
1
1.00001
1.00043
1.02624
2.33129
2.77389
2.78845
2.77852
2.76632
2.76763
2.77526
2.79027
2.80482
2.81476
2.81904
2.81934
2.8191
2.81987
2.82365
2.83155
2.8419
2.85256
2.86216
2.87019
2.87743
2.88518
2.8947
2.90672
2.92163
2.94051
2.96546
2.99998
3.04888
3.11554
3.19549
3.27004
3.31769
3.33503
3.33836
1
1
1
1
1
1
1
1
1
1
1
1
1
1
1
1
1
1
1
1
1
1
1
1
1
1
1
1
1
1
1
1
1
1
1
1
1
1
1
1
1
1
1
1
1
1
1
1
1
1
1
1
1
1
1
1
1
1
1.00001
1.00034
1.02146
2.23031
2.76188
2.75837
2.74769
2.74903
2.75839
2.77615
2.79357
2.80673
2.81299
2.81343
2.8126
2.81246
2.81386
2.81894
2.82778
2.83802
2.84783
2.85644
2.86366
2.87033
2.87767
2.88681
2.89854
2.91309
2.93136
2.95514
2.98788
3.03464
3.09975
3.17976
3.25683
3.30847
3.3282
3.32808
1
1
1
1
1
1
1
1
1
1
1
1
1
1
1
1
1
1
1
1
1
1
1
1
1
1
1
1
1
1
1
1
1
1
1
1
1
1
1
1
1
1
1
1
1
1
1
1
1
1
1
1
1
1
1
1
1
1
1
1.00023
1.01506
2.01448
2.70631
2.72388
2.73023
2.74383
2.76446
2.78366
2.79828
2.80541
2.80666
2.80536
2.80452
2.80519
2.80824
2.81505
2.82446
2.83388
2.84232
2.84972
2.85621
2.86255
2.86973
2.87859
2.88997
2.90406
2.92144
2.94394
2.97486
3.01947
3.08292
3.16273
3.24204
3.29755
3.31939
3.31632
1
1
1
1
1
1
1
1
1
1
1
1
1
1
1
1
1
1
1
1
1
1
1
1
1
1
1
1
1
1
1
1
1
1
1
1
1
1
1
1
1
1
1
1
1
1
1
1
1
1
1
1
1
1
1
1
1
1
1
1.0001
1.00721
1.59888
2.60933
2.70552
2.73332
2.75699
2.77746
2.79125
2.79695
2.79802
2.79688
2.79538
2.79584
2.79839
2.80385
2.81203
2.82115
2.82903
2.83574
2.84193
2.84791
2.8542
2.86137
2.86999
2.88096
2.89441
2.91071
2.93182
2.96089
3.00328
3.06485
3.14388
3.2247
3.2833
3.30604
3.30679
1
1
1
1
1
1
1
1
1
1
1
1
1
1
1
1
1
1
1
1
1
1
1
1
1
1
1
1
1
1
1
1
1
1
1
1
1
1
1
1
1
1
1
1
1
1
1
1
1
1
1
1
1
1
1
1
1
1
1
1.00002
1.00181
1.10565
2.50917
2.71722
2.75304
2.77571
2.78455
2.78775
2.7875
2.78626
2.78462
2.78522
2.78807
2.7938
2.80112
2.80933
2.81705
2.82295
2.82794
2.83316
2.83895
2.84551
2.85262
2.86094
2.87131
2.88398
2.89922
2.91871
2.94579
2.98602
3.04514
3.12271
3.20413
3.2647
3.28858
3.29833
1
1
1
1
1
1
1
1
1
1
1
1
1
1
1
1
1
1
1
1
1
1
1
1
1
1
1
1
1
1
1
1
1
1
1
1
1
1
1
1
1
1
1
1
1
1
1
1
1
1
1
1
1
1
1
1
1
1
1
1.00001
1.00055
1.03308
2.40106
2.73988
2.77568
2.7795
2.77835
2.7753
2.77238
2.77135
2.7731
2.77735
2.78418
2.79203
2.79917
2.80572
2.81125
2.81531
2.81899
2.82369
2.82964
2.83659
2.84353
2.85133
2.86089
2.87263
2.88671
2.90461
2.92969
2.96738
3.02348
3.09848
3.17944
3.24229
3.2708
3.28628
1
1
1
1
1
1
1
1
1
1
1
1
1
1
1
1
1
1
1
1
1
1
1
1
1
1
1
1
1
1
1
1
1
1
1
1
1
1
1
1
1
1
1
1
1
1
1
1
1
1
1
1
1
1
1
1
1
1
1
1.00001
1.00039
1.02453
2.28385
2.74923
2.77383
2.76941
2.76113
2.75553
2.75573
2.75887
2.76528
2.77492
2.78416
2.79115
2.79605
2.80001
2.80335
2.80605
2.80916
2.8139
2.82036
2.82744
2.83403
2.84105
2.84965
2.86029
2.87308
2.88947
2.91243
2.94709
2.99938
3.07092
3.15086
3.21687
3.25049
3.26768
1
1
1
1
1
1
1
1
1
1
1
1
1
1
1
1
1
1
1
1
1
1
1
1
1
1
1
1
1
1
1
1
1
1
1
1
1
1
1
1
1
1
1
1
1
1
1
1
1
1
1
1
1
1
1
1
1
1
1
1
1.00027
1.01781
2.10544
2.72502
2.75182
2.74464
2.73914
2.7393
2.7433
2.75306
2.76518
2.77583
2.78397
2.78821
2.79012
2.79194
2.79345
2.79551
2.7989
2.80422
2.81133
2.8181
2.82401
2.83004
2.83743
2.84682
2.85841
2.87324
2.89384
2.92487
2.97242
3.03968
3.11815
3.18713
3.22568
3.23944
1
1
1
1
1
1
1
1
1
1
1
1
1
1
1
1
1
1
1
1
1
1
1
1
1
1
1
1
1
1
1
1
1
1
1
1
1
1
1
1
1
1
1
1
1
1
1
1
1
1
1
1
1
1
1
1
1
1
1
1
1.00014
1.00967
1.73636
2.6626
2.72029
2.72013
2.72334
2.73542
2.74606
2.75694
2.76768
2.77617
2.78059
2.78123
2.78146
2.78157
2.7822
2.78452
2.78895
2.7951
2.80247
2.80845
2.81337
2.81816
2.82416
2.83232
2.84268
2.85586
2.87376
2.9006
2.94253
3.00436
3.07973
3.14874
3.18863
3.19995
1
1
1
1
1
1
1
1
1
1
1
1
1
1
1
1
1
1
1
1
1
1
1
1
1
1
1
1
1
1
1
1
1
1
1
1
1
1
1
1
1
1
1
1
1
1
1
1
1
1
1
1
1
1
1
1
1
1
1
1
1.00004
1.00267
1.19278
2.55176
2.69049
2.71874
2.72908
2.74239
2.75349
2.76264
2.76878
2.77224
2.7724
2.7714
2.77011
2.76977
2.77082
2.77438
2.78017
2.78675
2.79332
2.79833
2.80201
2.8053
2.80992
2.81682
2.8259
2.83727
2.85221
2.87434
2.90958
2.96404
3.03379
3.09749
3.1318
3.14132
1
1
1
1
1
1
1
1
1
1
1
1
1
1
1
1
1
1
1
1
1
1
1
1
1
1
1
1
1
1
1
1
1
1
1
1
1
1
1
1
1
1
1
1
1
1
1
1
1
1
1
1
1
1
1
1
1
1
1
1
1.00001
1.00056
1.03521
2.38697
2.67619
2.72112
2.73756
2.75222
2.75866
2.76201
2.76436
2.76413
2.76203
2.7594
2.75795
2.7584
2.76091
2.76621
2.7727
2.77854
2.78369
2.78747
2.78974
2.79169
2.79494
2.80053
2.80819
2.81756
2.82925
2.84613
2.87363
2.91934
2.9819
3.02869
3.02917
2.99647
1
1
1
1
1
1
1
1
1
1
1
1
1
1
1
1
1
1
1
1
1
1
1
1
1
1
1
1
1
1
1
1
1
1
1
1
1
1
1
1
1
1
1
1
1
1
1
1
1
1
1
1
1
1
1
1
1
1
1
1
1
1.0003
1.02056
2.12883
2.65141
2.71575
2.7347
2.74952
2.75421
2.75652
2.75654
2.75451
2.75128
2.74877
2.74827
2.75002
2.75414
2.75998
2.76551
2.76983
2.77337
2.77571
2.77662
2.77748
2.77946
2.78361
2.78963
2.79676
2.80499
2.81638
2.83568
2.87052
2.91566
2.93621
2.88471
2.67456
1
1
1
1
1
1
1
1
1
1
1
1
1
1
1
1
1
1
1
1
1
1
1
1
1
1
1
1
1
1
1
1
1
1
1
1
1
1
1
1
1
1
1
1
1
1
1
1
1
1
1
1
1
1
1
1
1
1
1
1
1
1.00014
1.00991
1.67503
2.57737
2.69842
2.7244
2.74123
2.74497
2.74608
2.74569
2.74408
2.74236
2.74223
2.74355
2.74631
2.74979
2.75396
2.7575
2.76022
2.76204
2.76305
2.76298
2.76303
2.76386
2.76647
2.7706
2.77528
2.77991
2.78581
2.7967
2.81857
2.8413
2.83395
2.75351
2.51022
1
1
1
1
1
1
1
1
1
1
1
1
1
1
1
1
1
1
1
1
1
1
1
1
1
1
1
1
1
1
1
1
1
1
1
1
1
1
1
1
1
1
1
1
1
1
1
1
1
1
1
1
1
1
1
1
1
1
1
1
1
1.00003
1.00261
1.14745
2.47494
2.68001
2.71233
2.72435
2.72746
2.72929
2.73123
2.73329
2.7359
2.73923
2.74178
2.7435
2.74489
2.74678
2.7484
2.7495
2.74979
2.74983
2.74926
2.74863
2.74841
2.74928
2.7512
2.75321
2.75429
2.75505
2.75768
2.76456
2.76809
2.74793
2.66276
2.38329
1
1
1
1
1
1
1
1
1
1
1
1
1
1
1
1
1
1
1
1
1
1
1
1
1
1
1
1
1
1
1
1
1
1
1
1
1
1
1
1
1
1
1
1
1
1
1
1
1
1
1
1
1
1
1
1
1
1
1
1
1
1.00001
1.00053
1.03091
2.3216
2.68606
2.70572
2.70491
2.70581
2.70855
2.71442
2.72211
2.73005
2.73621
2.73901
2.7391
2.73855
2.73821
2.73791
2.73775
2.73718
2.73669
2.73575
2.7346
2.7333
2.73249
2.73205
2.7313
2.72915
2.72517
2.72007
2.71439
2.70409
2.6781
2.62005
2.46911
1
1
1
1
1
1
1
1
1
1
1
1
1
1
1
1
1
1
1
1
1
1
1
1
1
1
1
1
1
1
1
1
1
1
1
1
1
1
1
1
1
1
1
1
1
1
1
1
1
1
1
1
1
1
1
1
1
1
1
1
1
1
1.00028
1.01834
2.08017
2.68115
2.68908
2.68549
2.68486
2.68935
2.69834
2.71076
2.72322
2.73122
2.73354
2.73287
2.73061
2.7283
2.72645
2.72563
2.72473
2.72416
2.723
2.72133
2.71893
2.71625
2.71325
2.70958
2.70419
2.69618
2.68523
2.67121
2.65218
2.62072
2.57776
2.46287
1
1
1
1
1
1
1
1
1
1
1
1
1
1
1
1
1
1
1
1
1
1
1
1
1
1
1
1
1
1
1
1
1
1
1
1
1
1
1
1
1
1
1
1
1
1
1
1
1
1
1
1
1
1
1
1
1
1
1
1
1
1
1.00013
1.00896
1.63974
2.63516
2.6619
2.66406
2.6689
2.6765
2.68703
2.70135
2.71594
2.72407
2.72518
2.7241
2.72114
2.71758
2.71493
2.71398
2.71306
2.71246
2.71103
2.7087
2.70514
2.70068
2.69539
2.68909
2.68088
2.66968
2.65442
2.63452
2.6099
2.57386
2.53541
2.45219
1
1
1
1
1
1
1
1
1
1
1
1
1
1
1
1
1
1
1
1
1
1
1
1
1
1
1
1
1
1
1
1
1
1
1
1
1
1
1
1
1
1
1
1
1
1
1
1
1
1
1
1
1
1
1
1
1
1
1
1
1
1
1.00003
1.0023
1.10888
2.50069
2.6352
2.65534
2.66565
2.6726
2.68151
2.69368
2.70751
2.71422
2.71427
2.71297
2.71032
2.70668
2.70422
2.7034
2.70245
2.7016
2.69971
2.69661
2.69191
2.68578
2.67829
2.6694
2.65846
2.64456
2.62657
2.60343
2.57624
2.53706
2.49701
2.43639
1
1
1
1
1
1
1
1
1
1
1
1
1
1
1
1
1
1
1
1
1
1
1
1
1
1
1
1
1
1
1
1
1
1
1
1
1
1
1
1
1
1
1
1
1
1
1
1
1
1
1
1
1
1
1
1
1
1
1
1
1
1
1.00001
1.00043
1.0269
2.24273
2.61233
2.65105
2.66425
2.67024
2.67592
2.685
2.69632
2.70157
2.70098
2.69946
2.69772
2.69589
2.69431
2.69377
2.69271
2.69131
2.68863
2.68455
2.67871
2.67123
2.66211
2.65137
2.63852
2.62278
2.60306
2.57761
2.54922
2.50964
2.4645
2.41572
1
1
1
1
1
1
1
1
1
1
1
1
1
1
1
1
1
1
1
1
1
1
1
1
1
1
1
1
1
1
1
1
1
1
1
1
1
1
1
1
1
1
1
1
1
1
1
1
1
1
1
1
1
1
1
1
1
1
1
1
1
1
1
1.00017
1.01284
1.80093
2.57572
2.64685
2.65793
2.66354
2.66935
2.67676
2.68435
2.68674
2.68573
2.68419
2.68397
2.68494
2.68461
2.68467
2.68362
2.68154
2.6778
2.67258
2.66565
2.65705
2.6466
2.63428
2.61973
2.60234
2.58172
2.55547
2.52694
2.48834
2.4423
2.39641
1
1
1
1
1
1
1
1
1
1
1
1
1
1
1
1
1
1
1
1
1
1
1
1
1
1
1
1
1
1
1
1
1
1
1
1
1
1
1
1
1
1
1
1
1
1
1
1
1
1
1
1
1
1
1
1
1
1
1
1
1
1
1
1.00004
1.00328
1.17168
2.48172
2.62704
2.65109
2.65872
2.66367
2.66833
2.6718
2.67137
2.66984
2.66851
2.66943
2.67295
2.67498
2.67565
2.67448
2.67163
2.66663
2.66014
2.65215
2.64272
2.63151
2.61846
2.60323
2.58516
2.56422
2.53748
2.50871
2.47156
2.42733
2.3831
1
1
1
1
1
1
1
1
1
1
1
1
1
1
1
1
1
1
1
1
1
1
1
1
1
1
1
1
1
1
1
1
1
1
1
1
1
1
1
1
1
1
1
1
1
1
1
1
1
1
1
1
1
1
1
1
1
1
1
1
1
1
1
1.00001
1.0005
1.03124
2.24516
2.60316
2.64377
2.64834
2.65397
2.65875
2.65941
2.65762
2.65542
2.65441
2.65556
2.66014
2.66451
2.66596
2.66474
2.66137
2.65545
2.64787
2.63888
2.62871
2.61695
2.60337
2.58758
2.5689
2.54793
2.52172
2.49343
2.45803
2.41577
2.37313
1
1
1
1
1
1
1
1
1
1
1
1
1
1
1
1
1
1
1
1
1
1
1
1
1
1
1
1
1
1
1
1
1
1
1
1
1
1
1
1
1
1
1
1
1
1
1
1
1
1
1
1
1
1
1
1
1
1
1
1
1
1
1
1
1.00017
1.01354
1.78965
2.56107
2.6407
2.6338
2.63965
2.64784
2.64718
2.64527
2.64311
2.64266
2.64326
2.64725
2.65288
2.65529
2.6542
2.65061
2.64403
2.63553
2.62568
2.61494
2.60282
2.58907
2.57338
2.55488
2.53414
2.50859
2.48059
2.44703
2.40761
2.36711
1
1
1
1
1
1
1
1
1
1
1
1
1
1
1
1
1
1
1
1
1
1
1
1
1
1
1
1
1
1
1
1
1
1
1
1
1
1
1
1
1
1
1
1
1
1
1
1
1
1
1
1
1
1
1
1
1
1
1
1
1
1
1
1
1.00004
1.00327
1.15451
2.43676
2.62271
2.62043
2.62963
2.63657
2.63538
2.63476
2.63364
2.6337
2.6334
2.6354
2.64013
2.64319
2.64219
2.63865
2.63206
2.62327
2.61291
2.6017
2.58927
2.57537
2.55969
2.54126
2.52078
2.49646
2.46934
2.43762
2.40051
2.36217
1
1
1
1
1
1
1
1
1
1
1
1
1
1
1
1
1
1
1
1
1
1
1
1
1
1
1
1
1
1
1
1
1
1
1
1
1
1
1
1
1
1
1
1
1
1
1
1
1
1
1
1
1
1
1
1
1
1
1
1
1
1
1
1
1.00001
1.00045
1.02712
2.14383
2.58297
2.60563
2.62397
2.62613
2.62511
2.62542
2.62535
2.62553
2.62434
2.62458
2.62687
2.62932
2.62846
2.62537
2.61927
2.61075
2.6005
2.58931
2.57681
2.5628
2.54722
2.52905
2.50871
2.48519
2.45875
2.42877
2.39411
2.35861
1
1
1
1
1
1
1
1
1
1
1
1
1
1
1
1
1
1
1
1
1
1
1
1
1
1
1
1
1
1
1
1
1
1
1
1
1
1
1
1
1
1
1
1
1
1
1
1
1
1
1
1
1
1
1
1
1
1
1
1
1
1
1
1
1
1.00013
1.01008
1.60273
2.51327
2.60212
2.6142
2.61501
2.61314
2.61463
2.61608
2.61686
2.61515
2.6137
2.61422
2.61514
2.6143
2.61148
2.60596
2.59812
2.58834
2.57731
2.56471
2.55055
2.53504
2.51705
2.497
2.47457
2.44905
2.42081
2.38803
2.35478
1
1
1
1
1
1
1
1
1
1
1
1
1
1
1
1
1
1
1
1
1
1
1
1
1
1
1
1
1
1
1
1
1
1
1
1
1
1
1
1
1
1
1
1
1
1
1
1
1
1
1
1
1
1
1
1
1
1
1
1
1
1
1
1
1
1.00003
1.00212
1.0933
2.342
2.58426
2.60026
2.5989
2.59998
2.60413
2.60661
2.60748
2.60547
2.6029
2.60201
2.60131
2.59999
2.5971
2.59198
2.5848
2.57572
2.56533
2.55334
2.53964
2.52446
2.50668
2.48665
2.46435
2.43923
2.41217
2.38143
2.35023
1
1
1
1
1
1
1
1
1
1
1
1
1
1
1
1
1
1
1
1
1
1
1
1
1
1
1
1
1
1
1
1
1
1
1
1
1
1
1
1
1
1
1
1
1
1
1
1
1
1
1
1
1
1
1
1
1
1
1
1
1
1
1
1
1
1.00001
1.0003
1.01987
1.97617
2.551
2.58673
2.58531
2.58871
2.59445
2.59659
2.59698
2.59443
2.59118
2.58923
2.58768
2.58618
2.58314
2.57833
2.57182
2.56355
2.5538
2.54221
2.52869
2.51376
2.4962
2.47659
2.45524
2.43074
2.40521
2.37526
2.34464
1
1
1
1
1
1
1
1
1
1
1
1
1
1
1
1
1
1
1
1
1
1
1
1
1
1
1
1
1
1
1
1
1
1
1
1
1
1
1
1
1
1
1
1
1
1
1
1
1
1
1
1
1
1
1
1
1
1
1
1
1
1
1
1
1
1
1.00008
1.00635
1.37708
2.46184
2.55681
2.57211
2.57863
2.58411
2.58557
2.58527
2.5822
2.57934
2.57734
2.57556
2.57376
2.5705
2.56562
2.55917
2.551
2.54135
2.53018
2.51757
2.5038
2.48727
2.46832
2.44729
2.42253
2.39783
2.36926
2.3388
1
1
1
1
1
1
1
1
1
1
1
1
1
1
1
1
1
1
1
1
1
1
1
1
1
1
1
1
1
1
1
1
1
1
1
1
1
1
1
1
1
1
1
1
1
1
1
1
1
1
1
1
1
1
1
1
1
1
1
1
1
1
1
1
1
1
1.00001
1.00099
1.04819
2.19923
2.51614
2.55278
2.57007
2.57447
2.57536
2.5736
2.56941
2.56637
2.56425
2.56259
2.56093
2.55769
2.5529
2.54657
2.53875
2.52957
2.51892
2.50681
2.49371
2.47771
2.45938
2.43974
2.41589
2.39259
2.36542
2.33361
1
1
1
1
1
1
1
1
1
1
1
1
1
1
1
1
1
1
1
1
1
1
1
1
1
1
1
1
1
1
1
1
1
1
1
1
1
1
1
1
1
1
1
1
1
1
1
1
1
1
1
1
1
1
1
1
1
1
1
1
1
1
1
1
1
1
1
1.00016
1.01269
1.67566
2.49568
2.52866
2.55238
2.56439
2.56505
2.56213
2.55615
2.55245
2.55039
2.54976
2.54858
2.54589
2.54152
2.53532
2.52724
2.51749
2.5062
2.49415
2.48204
2.46778
2.45132
2.43313
2.40986
2.38706
2.36206
2.32912
1
1
1
1
1
1
1
1
1
1
1
1
1
1
1
1
1
1
1
1
1
1
1
1
1
1
1
1
1
1
1
1
1
1
1
1
1
1
1
1
1
1
1
1
1
1
1
1
1
1
1
1
1
1
1
1
1
1
1
1
1
1
1
1
1
1
1
1.00003
1.00246
1.11231
2.33344
2.50563
2.53304
2.55279
2.55335
2.55179
2.54618
2.54106
2.53822
2.53709
2.53603
2.53339
2.52918
2.52291
2.51473
2.50511
2.49442
2.48289
2.47155
2.45815
2.44215
2.42569
2.40365
2.38247
2.36007
2.32772
1
1
1
1
1
1
1
1
1
1
1
1
1
1
1
1
1
1
1
1
1
1
1
1
1
1
1
1
1
1
1
1
1
1
1
1
1
1
1
1
1
1
1
1
1
1
1
1
1
1
1
1
1
1
1
1
1
1
1
1
1
1
1
1
1
1
1
1.00001
1.00028
1.01957
1.86678
2.46285
2.52625
2.54037
2.54102
2.5398
2.53392
2.5275
2.52464
2.52379
2.52301
2.52079
2.51721
2.51151
2.50374
2.49402
2.48253
2.47023
2.4587
2.44611
2.43216
2.41801
2.39832
2.37722
2.35688
2.3255
1
1
1
1
1
1
1
1
1
1
1
1
1
1
1
1
1
1
1
1
1
1
1
1
1
1
1
1
1
1
1
1
1
1
1
1
1
1
1
1
1
1
1
1
1
1
1
1
1
1
1
1
1
1
1
1
1
1
1
1
1
1
1
1
1
1
1
1
1.00005
1.00421
1.18939
2.3888
2.5046
2.52644
2.52742
2.52557
2.52067
2.51557
2.51307
2.51214
2.51162
2.5094
2.50527
2.49911
2.49094
2.48105
2.47013
2.45875
2.44822
2.43687
2.423
2.41012
2.39133
2.37148
2.35385
2.32425
1
1
1
1
1
1
1
1
1
1
1
1
1
1
1
1
1
1
1
1
1
1
1
1
1
1
1
1
1
1
1
1
1
1
1
1
1
1
1
1
1
1
1
1
1
1
1
1
1
1
1
1
1
1
1
1
1
1
1
1
1
1
1
1
1
1
1
1
1.00001
1.00045
1.02766
1.97943
2.44272
2.51666
2.51533
2.5119
2.50758
2.50218
2.49945
2.49857
2.49829
2.49643
2.49263
2.48689
2.47944
2.4703
2.45956
2.44759
2.43638
2.42511
2.41175
2.40079
2.38463
2.366
2.34942
2.32103
1
1
1
1
1
1
1
1
1
1
1
1
1
1
1
1
1
1
1
1
1
1
1
1
1
1
1
1
1
1
1
1
1
1
1
1
1
1
1
1
1
1
1
1
1
1
1
1
1
1
1
1
1
1
1
1
1
1
1
1
1
1
1
1
1
1
1
1
1
1.00007
1.00593
1.26323
2.38968
2.49766
2.50369
2.50063
2.49438
2.48869
2.48642
2.48596
2.4861
2.48498
2.48138
2.47512
2.46705
2.45745
2.4468
2.43571
2.42581
2.41628
2.40346
2.39321
2.37776
2.35897
2.34408
2.31825
1
1
1
1
1
1
1
1
1
1
1
1
1
1
1
1
1
1
1
1
1
1
1
1
1
1
1
1
1
1
1
1
1
1
1
1
1
1
1
1
1
1
1
1
1
1
1
1
1
1
1
1
1
1
1
1
1
1
1
1
1
1
1
1
1
1
1
1
1
1.00001
1.00065
1.03536
2.01366
2.43217
2.49391
2.49086
2.48425
2.47771
2.47374
2.47218
2.47212
2.47124
2.4681
2.46249
2.45534
2.44678
2.43704
2.42611
2.41539
2.40574
2.39297
2.38358
2.36952
2.35296
2.33883
2.31406
1
1
1
1
1
1
1
1
1
1
1
1
1
1
1
1
1
1
1
1
1
1
1
1
1
1
1
1
1
1
1
1
1
1
1
1
1
1
1
1
1
1
1
1
1
1
1
1
1
1
1
1
1
1
1
1
1
1
1
1
1
1
1
1
1
1
1
1
1
1
1.00008
1.00689
1.29817
2.37086
2.47728
2.47734
2.47276
2.46571
2.46049
2.45826
2.4588
2.45846
2.45659
2.45131
2.44389
2.43496
2.42502
2.41435
2.40446
2.39679
2.38498
2.37639
2.36296
2.34654
2.33174
2.30892
1
1
1
1
1
1
1
1
1
1
1
1
1
1
1
1
1
1
1
1
1
1
1
1
1
1
1
1
1
1
1
1
1
1
1
1
1
1
1
1
1
1
1
1
1
1
1
1
1
1
1
1
1
1
1
1
1
1
1
1
1
1
1
1
1
1
1
1
1
1
1.00001
1.00074
1.03919
1.99357
2.40848
2.46882
2.46381
2.45679
2.44994
2.4457
2.44556
2.44528
2.4435
2.43883
2.4324
2.4245
2.41566
2.40572
2.39523
2.38709
2.37521
2.36718
2.35388
2.33987
2.32545
2.30518
1
1
1
1
1
1
1
1
1
1
1
1
1
1
1
1
1
1
1
1
1
1
1
1
1
1
1
1
1
1
1
1
1
1
1
1
1
1
1
1
1
1
1
1
1
1
1
1
1
1
1
1
1
1
1
1
1
1
1
1
1
1
1
1
1
1
1
1
1
1
1
1.00008
1.00687
1.28859
2.33098
2.45316
2.45036
2.4422
2.43593
2.432
2.43265
2.4328
2.43211
2.42858
2.42208
2.41385
2.40467
2.39466
2.38424
2.37768
2.36684
2.35983
2.347
2.33439
2.31812
2.29983
1
1
1
1
1
1
1
1
1
1
1
1
1
1
1
1
1
1
1
1
1
1
1
1
1
1
1
1
1
1
1
1
1
1
1
1
1
1
1
1
1
1
1
1
1
1
1
1
1
1
1
1
1
1
1
1
1
1
1
1
1
1
1
1
1
1
1
1
1
1
1
1.00001
1.00069
1.03748
1.9191
2.39306
2.43839
2.42986
2.425
2.42049
2.42066
2.42123
2.42068
2.41741
2.41159
2.40393
2.39547
2.38616
2.37541
2.36831
2.35734
2.35074
2.33783
2.32691
2.31064
2.29621
1
1
1
1
1
1
1
1
1
1
1
1
1
1
1
1
1
1
1
1
1
1
1
1
1
1
1
1
1
1
1
1
1
1
1
1
1
1
1
1
1
1
1
1
1
1
1
1
1
1
1
1
1
1
1
1
1
1
1
1
1
1
1
1
1
1
1
1
1
1
1
1
1.00007
1.00583
1.24544
2.27084
2.41916
2.41669
2.40842
2.40599
2.40766
2.40966
2.40956
2.4079
2.40243
2.39419
2.38511
2.3754
2.36433
2.35836
2.34823
2.34279
2.33046
2.321
2.30402
2.29094
1
1
1
1
1
1
1
1
1
1
1
1
1
1
1
1
1
1
1
1
1
1
1
1
1
1
1
1
1
1
1
1
1
1
1
1
1
1
1
1
1
1
1
1
1
1
1
1
1
1
1
1
1
1
1
1
1
1
1
1
1
1
1
1
1
1
1
1
1
1
1
1
1.00001
1.00051
1.03072
1.78189
2.36931
2.41008
2.3959
2.39499
2.39569
2.39803
2.39816
2.39706
2.39239
2.38479
2.37608
2.36683
2.35545
2.34874
2.33858
2.33339
2.32145
2.31314
2.2967
2.28548
1
1
1
1
1
1
1
1
1
1
1
1
1
1
1
1
1
1
1
1
1
1
1
1
1
1
1
1
1
1
1
1
1
1
1
1
1
1
1
1
1
1
1
1
1
1
1
1
1
1
1
1
1
1
1
1
1
1
1
1
1
1
1
1
1
1
1
1
1
1
1
1
1
1.00005
1.00407
1.17257
2.18549
2.38832
2.3861
2.38062
2.38269
2.38524
2.38623
2.38622
2.38299
2.37511
2.36594
2.35618
2.34434
2.33819
2.3287
2.32439
2.31373
2.30648
2.29089
2.27958
1
1
1
1
1
1
1
1
1
1
1
1
1
1
1
1
1
1
1
1
1
1
1
1
1
1
1
1
1
1
1
1
1
1
1
1
1
1
1
1
1
1
1
1
1
1
1
1
1
1
1
1
1
1
1
1
1
1
1
1
1
1
1
1
1
1
1
1
1
1
1
1
1
1.00001
1.00029
1.02084
1.58317
2.33229
2.3905
2.36894
2.37106
2.37277
2.37312
2.37346
2.37174
2.36515
2.35653
2.34738
2.33578
2.32796
2.3188
2.31434
2.3049
2.2984
2.2839
2.27295
1
1
1
1
1
1
1
1
1
1
1
1
1
1
1
1
1
1
1
1
1
1
1
1
1
1
1
1
1
1
1
1
1
1
1
1
1
1
1
1
1
1
1
1
1
1
1
1
1
1
1
1
1
1
1
1
1
1
1
1
1
1
1
1
1
1
1
1
1
1
1
1
1
1
1.00003
1.00232
1.1
2.07408
2.35212
2.3534
2.35823
2.35853
2.35956
2.36085
2.36018
2.35428
2.34593
2.33692
2.32548
2.31708
2.30919
2.30396
2.29737
2.29039
2.27811
2.26583
1
1
1
1
1
1
1
1
1
1
1
1
1
1
1
1
1
1
1
1
1
1
1
1
1
1
1
1
1
1
1
1
1
1
1
1
1
1
1
1
1
1
1
1
1
1
1
1
1
1
1
1
1
1
1
1
1
1
1
1
1
1
1
1
1
1
1
1
1
1
1
1
1
1
1
1.00015
1.01217
1.39395
2.27222
2.36021
2.34564
2.34691
2.34698
2.34792
2.34683
2.34305
2.33545
2.32742
2.3173
2.30688
2.30063
2.2934
2.28938
2.28144
2.27122
2.25797
1
1
1
1
1
1
1
1
1
1
1
1
1
1
1
1
1
1
1
1
1
1
1
1
1
1
1
1
1
1
1
1
1
1
1
1
1
1
1
1
1
1
1
1
1
1
1
1
1
1
1
1
1
1
1
1
1
1
1
1
1
1
1
1
1
1
1
1
1
1
1
1
1
1
1
1.00001
1.00113
1.0557
1.86137
2.31443
2.34134
2.33821
2.33475
2.33532
2.33437
2.33179
2.3241
2.31693
2.30813
2.29707
2.2925
2.28389
2.28198
2.27255
2.26412
2.2513
1
1
1
1
1
1
1
1
1
1
1
1
1
1
1
1
1
1
1
1
1
1
1
1
1
1
1
1
1
1
1
1
1
1
1
1
1
1
1
1
1
1
1
1
1
1
1
1
1
1
1
1
1
1
1
1
1
1
1
1
1
1
1
1
1
1
1
1
1
1
1
1
1
1
1
1
1.00007
1.00598
1.21966
2.1556
2.31446
2.33055
2.32644
2.32004
2.32152
2.31995
2.31416
2.3075
2.30012
2.28836
2.28434
2.27473
2.27378
2.26314
2.25684
2.24497
1
1
1
1
1
1
1
1
1
1
1
1
1
1
1
1
1
1
1
1
1
1
1
1
1
1
1
1
1
1
1
1
1
1
1
1
1
1
1
1
1
1
1
1
1
1
1
1
1
1
1
1
1
1
1
1
1
1
1
1
1
1
1
1
1
1
1
1
1
1
1
1
1
1
1
1
1.00001
1.0004
1.0255
1.55182
2.26987
2.32447
2.31747
2.30782
2.30712
2.30667
2.3035
2.29749
2.29144
2.28014
2.27602
2.26578
2.26466
2.25372
2.24913
2.23863
1
1
1
1
1
1
1
1
1
1
1
1
1
1
1
1
1
1
1
1
1
1
1
1
1
1
1
1
1
1
1
1
1
1
1
1
1
1
1
1
1
1
1
1
1
1
1
1
1
1
1
1
1
1
1
1
1
1
1
1
1
1
1
1
1
1
1
1
1
1
1
1
1
1
1
1
1
1.00003
1.00227
1.09263
1.9787
2.25339
2.30091
2.29606
2.28996
2.2935
2.29313
2.28842
2.2826
2.27096
2.26665
2.25625
2.25479
2.24443
2.24048
2.23248
1
1
1
1
1
1
1
1
1
1
1
1
1
1
1
1
1
1
1
1
1
1
1
1
1
1
1
1
1
1
1
1
1
1
1
1
1
1
1
1
1
1
1
1
1
1
1
1
1
1
1
1
1
1
1
1
1
1
1
1
1
1
1
1
1
1
1
1
1
1
1
1
1
1
1
1
1
1
1.00013
1.00977
1.29826
2.18031
2.26989
2.28673
2.2824
2.28398
2.28465
2.27916
2.27297
2.26183
2.25651
2.24611
2.24403
2.23547
2.23153
2.22657
1
1
1
1
1
1
1
1
1
1
1
1
1
1
1
1
1
1
1
1
1
1
1
1
1
1
1
1
1
1
1
1
1
1
1
1
1
1
1
1
1
1
1
1
1
1
1
1
1
1
1
1
1
1
1
1
1
1
1
1
1
1
1
1
1
1
1
1
1
1
1
1
1
1
1
1
1
1
1.00001
1.00069
1.03821
1.65834
2.22127
2.27712
2.27346
2.27414
2.27403
2.2694
2.26215
2.25116
2.24509
2.23502
2.23254
2.22608
2.22223
2.21986
1
1
1
1
1
1
1
1
1
1
1
1
1
1
1
1
1
1
1
1
1
1
1
1
1
1
1
1
1
1
1
1
1
1
1
1
1
1
1
1
1
1
1
1
1
1
1
1
1
1
1
1
1
1
1
1
1
1
1
1
1
1
1
1
1
1
1
1
1
1
1
1
1
1
1
1
1
1
1
1.00004
1.00319
1.1305
1.96788
2.20579
2.25502
2.26302
2.26293
2.25796
2.25167
2.24269
2.23434
2.22391
2.22087
2.21651
2.21315
2.2122
1
1
1
1
1
1
1
1
1
1
1
1
1
1
1
1
1
1
1
1
1
1
1
1
1
1
1
1
1
1
1
1
1
1
1
1
1
1
1
1
1
1
1
1
1
1
1
1
1
1
1
1
1
1
1
1
1
1
1
1
1
1
1
1
1
1
1
1
1
1
1
1
1
1
1
1
1
1
1
1
1.00017
1.0117
1.31611
2.11906
2.22896
2.24696
2.25286
2.24463
2.24054
2.23341
2.22492
2.2123
2.20919
2.20608
2.20359
2.20325
1
1
1
1
1
1
1
1
1
1
1
1
1
1
1
1
1
1
1
1
1
1
1
1
1
1
1
1
1
1
1
1
1
1
1
1
1
1
1
1
1
1
1
1
1
1
1
1
1
1
1
1
1
1
1
1
1
1
1
1
1
1
1
1
1
1
1
1
1
1
1
1
1
1
1
1
1
1
1
1
1.00001
1.00069
1.03848
1.59984
2.13337
2.24919
2.24755
2.23504
2.23131
2.22547
2.21676