/*--------------------------------*- C++ -*----------------------------------*\
| =========                 |                                                 |
| \\      /  F ield         | OpenFOAM: The Open Source CFD Toolbox           |
|  \\    /   O peration     | Version:  v1812                                 |
|   \\  /    A nd           | Web:      www.OpenFOAM.com                      |
|    \\/     M anipulation  |                                                 |
\*---------------------------------------------------------------------------*/
FoamFile
{
    version     2.0;
    format      ascii;
    class       volVectorField;
    location    "0.6";
    object      U;
}
// * * * * * * * * * * * * * * * * * * * * * * * * * * * * * * * * * * * * * //

dimensions      [0 1 -1 0 0 0 0];


internalField   nonuniform List<vector> 
64512
(
(3 1.15713e-16 0)
(3 -2.47606e-16 0)
(3 2.72524e-16 0)
(3 -3.0175e-17 0)
(3 -3.10941e-16 0)
(3 -9.56526e-17 0)
(3 -7.72021e-16 0)
(3 -5.18866e-16 0)
(3 -6.16619e-16 0)
(3 -4.9531e-16 0)
(3 -1.73952e-16 0)
(3 -7.51444e-16 0)
(3 -7.14279e-16 0)
(3 -3.8876e-17 0)
(3 4.08282e-16 0)
(3 -9.97038e-17 0)
(3 -7.66588e-17 0)
(3 7.78639e-17 0)
(3 2.28728e-16 0)
(3 1.72059e-15 0)
(3 1.23111e-15 0)
(3 8.45566e-16 0)
(3 5.28913e-16 0)
(3 4.52547e-16 0)
(3 8.67111e-17 0)
(3 1.46446e-16 0)
(3 1.7176e-16 0)
(3 -2.36055e-17 0)
(3 2.32996e-16 0)
(3 5.74296e-16 0)
(3 8.2034e-16 0)
(3 5.28641e-16 0)
(3 1.83459e-16 0)
(3 2.28014e-16 0)
(3 -3.2392e-17 0)
(3 -2.37098e-16 0)
(3 -6.61247e-16 0)
(3 -5.558e-16 0)
(3 -5.39663e-16 0)
(3 -1.36562e-15 0)
(3 -1.56477e-15 0)
(3 -7.89241e-16 0)
(3 -5.491e-16 0)
(3 -3.01938e-16 0)
(3 -2.73481e-16 0)
(3 -3.76616e-16 0)
(3 -4.39007e-16 0)
(3 -1.62024e-16 0)
(3 4.96706e-16 0)
(3 3.66814e-16 0)
(3 1.89721e-16 0)
(3 5.52949e-17 0)
(3 1.60028e-15 0)
(3 6.13814e-14 0)
(3 3.18671e-12 0)
(3 2.72675e-10 0)
(3 1.15248e-08 0)
(2.99989 1.13414e-06 0)
(2.99303 5.84897e-05 0)
(2.34988 0.00596099 0)
(0.89873 0.0578793 0)
(0.560277 -0.00347314 0)
(0.565255 -0.0119378 0)
(0.588683 -0.0163631 0)
(0.602098 -0.0071739 0)
(0.601239 0.00495193 0)
(0.582456 0.0147022 0)
(0.548952 0.0193517 0)
(0.515852 0.0139735 0)
(0.494701 0.00477088 0)
(0.482468 0.00232046 0)
(0.471479 0.00503826 0)
(0.454793 0.00884417 0)
(0.432542 0.0110601 0)
(0.409418 0.00983418 0)
(0.387531 0.00853073 0)
(0.365951 0.0089806 0)
(0.34386 0.0101815 0)
(0.321679 0.0110366 0)
(0.300727 0.011102 0)
(0.281895 0.0107634 0)
(0.264611 0.0105686 0)
(0.247398 0.0106036 0)
(0.228935 0.0107314 0)
(0.208628 0.0108498 0)
(0.186718 0.0109804 0)
(0.164195 0.0110728 0)
(0.142367 0.0109907 0)
(0.121744 0.0106768 0)
(0.103357 0.010146 0)
(0.087417 0.00955347 0)
(0.0729668 0.00896606 0)
(0.0580125 0.00855666 0)
(0.0422053 0.00826397 0)
(0.0255974 0.00743799 0)
(0.00708104 0.00622904 0)
(3 5.18791e-16 0)
(3 2.22602e-16 0)
(3 -1.753e-16 0)
(3 -4.19817e-16 0)
(3 -2.57341e-16 0)
(3 1.03582e-16 0)
(3 1.32658e-16 0)
(3 5.2853e-16 0)
(3 1.53016e-16 0)
(3 4.95034e-16 0)
(3 4.39811e-16 0)
(3 -5.45581e-16 0)
(3 -9.03133e-16 0)
(3 -6.50074e-16 0)
(3 4.2639e-16 0)
(3 9.22536e-16 0)
(3 7.15176e-16 0)
(3 1.12904e-15 0)
(3 8.44126e-16 0)
(3 1.23992e-15 0)
(3 5.29224e-16 0)
(3 1.69534e-16 0)
(3 6.38769e-16 0)
(3 9.87898e-16 0)
(3 6.7059e-16 0)
(3 9.86421e-16 0)
(3 6.42319e-16 0)
(3 -1.58586e-16 0)
(3 -1.3888e-16 0)
(3 4.32636e-17 0)
(3 -5.87089e-16 0)
(3 -4.20319e-16 0)
(3 3.96442e-17 0)
(3 7.98389e-16 0)
(3 5.44269e-16 0)
(3 3.64017e-16 0)
(3 1.12881e-16 0)
(3 -3.53639e-17 0)
(3 1.8136e-18 0)
(3 -1.15741e-15 0)
(3 -1.47762e-15 0)
(3 -3.28174e-16 0)
(3 2.90566e-16 0)
(3 3.71453e-16 0)
(3 -7.93984e-16 0)
(3 -9.23967e-16 0)
(3 -1.26052e-15 0)
(3 -4.50537e-16 0)
(3 1.82276e-16 0)
(3 4.33065e-16 0)
(3 1.08134e-15 0)
(3 1.23459e-15 0)
(3 9.50627e-15 0)
(3 4.70717e-13 0)
(3 3.13914e-11 0)
(3 1.86958e-09 0)
(3 1.17209e-07 0)
(2.9999 7.68116e-06 0)
(2.99364 0.000424921 0)
(2.39899 0.0461116 0)
(0.961819 0.0997957 0)
(0.664627 0.022691 0)
(0.608429 -0.013263 0)
(0.601288 -0.0195861 0)
(0.600035 -0.0088661 0)
(0.593594 0.0147723 0)
(0.577789 0.0376089 0)
(0.555556 0.0447994 0)
(0.531636 0.0379141 0)
(0.506209 0.0271085 0)
(0.484246 0.0186989 0)
(0.467408 0.0190407 0)
(0.452756 0.0243991 0)
(0.435939 0.0261517 0)
(0.417733 0.023984 0)
(0.397824 0.0234581 0)
(0.376338 0.0262999 0)
(0.353659 0.0301183 0)
(0.331121 0.0323027 0)
(0.310474 0.0320914 0)
(0.292306 0.030803 0)
(0.275559 0.0300158 0)
(0.258647 0.0300919 0)
(0.240294 0.0306082 0)
(0.21998 0.031132 0)
(0.19807 0.0315237 0)
(0.175608 0.0317419 0)
(0.153755 0.0315929 0)
(0.132798 0.0311202 0)
(0.113711 0.0301869 0)
(0.0968712 0.0285999 0)
(0.0815298 0.026285 0)
(0.065905 0.0242944 0)
(0.04955 0.0234375 0)
(0.0309374 0.0229937 0)
(0.00941951 0.0214722 0)
(3 -1.39648e-16 0)
(3 -3.83553e-16 0)
(3 -1.07777e-15 0)
(3 -5.6541e-16 0)
(3 -3.32836e-16 0)
(3 5.07834e-16 0)
(3 1.68486e-15 0)
(3 1.8049e-15 0)
(3 1.03758e-15 0)
(3 4.37e-16 0)
(3 4.40662e-16 0)
(3 7.2755e-16 0)
(3 9.93878e-16 0)
(3 8.00081e-16 0)
(3 -2.65185e-16 0)
(3 -9.70713e-17 0)
(3 4.63271e-16 0)
(3 7.0621e-16 0)
(3 2.65131e-16 0)
(3 -7.83156e-16 0)
(3 -2.44197e-16 0)
(3 2.78592e-16 0)
(3 6.30209e-16 0)
(3 6.84842e-16 0)
(3 4.32864e-16 0)
(3 3.10789e-16 0)
(3 -1.57266e-16 0)
(3 3.38905e-16 0)
(3 2.62551e-16 0)
(3 -8.33561e-16 0)
(3 -1.09115e-15 0)
(3 -7.67846e-16 0)
(3 1.04574e-16 0)
(3 5.27703e-17 0)
(3 -4.74052e-16 0)
(3 -5.65427e-16 0)
(3 -4.19753e-16 0)
(3 -9.95378e-16 0)
(3 -8.3171e-16 0)
(3 -3.2934e-16 0)
(3 7.24486e-16 0)
(3 9.78535e-16 0)
(3 1.6647e-15 0)
(3 1.8521e-15 0)
(3 1.08516e-15 0)
(3 6.53045e-16 0)
(3 7.78645e-16 0)
(3 1.71078e-15 0)
(3 1.13774e-15 0)
(3 1.0554e-15 0)
(3 5.78037e-16 0)
(3 -1.77984e-16 0)
(3 6.891e-15 0)
(3 5.18637e-13 0)
(3 3.37511e-11 0)
(3 2.04881e-09 0)
(3 1.25175e-07 0)
(2.99992 7.93332e-06 0)
(2.99448 0.000401945 0)
(2.45743 0.0464895 0)
(0.985518 0.0539548 0)
(0.707464 0.0757963 0)
(0.664864 0.0173472 0)
(0.623411 -0.00076117 0)
(0.594629 0.00710762 0)
(0.577095 0.0287566 0)
(0.565457 0.0519212 0)
(0.549782 0.0629028 0)
(0.53142 0.0599492 0)
(0.512771 0.0475685 0)
(0.494008 0.0352171 0)
(0.475874 0.0326397 0)
(0.45963 0.037131 0)
(0.441393 0.0398837 0)
(0.421091 0.0390107 0)
(0.399462 0.0400483 0)
(0.377673 0.0450368 0)
(0.356226 0.0504422 0)
(0.336059 0.0527485 0)
(0.318236 0.0515886 0)
(0.302287 0.0494678 0)
(0.286743 0.0485441 0)
(0.270385 0.0489631 0)
(0.252307 0.0499164 0)
(0.232237 0.0507869 0)
(0.210644 0.051455 0)
(0.188509 0.0519729 0)
(0.166797 0.052052 0)
(0.145673 0.0516552 0)
(0.126008 0.0501806 0)
(0.10822 0.0473776 0)
(0.0916051 0.043545 0)
(0.0741012 0.0409683 0)
(0.0561285 0.0407389 0)
(0.0345573 0.0414567 0)
(0.011512 0.0410746 0)
(3 -1.13249e-16 0)
(3 -1.33363e-16 0)
(3 -6.01855e-16 0)
(3 -6.1405e-16 0)
(3 -5.72271e-16 0)
(3 -2.37771e-16 0)
(3 4.83668e-16 0)
(3 1.95814e-16 0)
(3 -2.48737e-16 0)
(3 -3.13176e-17 0)
(3 3.74792e-16 0)
(3 4.51234e-16 0)
(3 6.42963e-16 0)
(3 -1.43536e-17 0)
(3 -1.45585e-15 0)
(3 -2.23678e-15 0)
(3 -1.78591e-15 0)
(3 -2.01243e-15 0)
(3 -1.28654e-15 0)
(3 4.05993e-16 0)
(3 5.29461e-16 0)
(3 1.81023e-15 0)
(3 1.40017e-15 0)
(3 1.3544e-15 0)
(3 8.85557e-16 0)
(3 1.54266e-16 0)
(3 -1.10208e-16 0)
(3 -5.09797e-16 0)
(3 -1.02162e-15 0)
(3 -9.9822e-16 0)
(3 -5.62636e-16 0)
(3 -1.79985e-16 0)
(3 -4.62931e-16 0)
(3 -6.15417e-16 0)
(3 1.72378e-16 0)
(3 1.59749e-15 0)
(3 2.16592e-15 0)
(3 2.13365e-15 0)
(3 1.15949e-15 0)
(3 7.089e-16 0)
(3 1.68925e-15 0)
(3 1.66522e-15 0)
(3 2.08248e-15 0)
(3 1.33025e-15 0)
(3 1.46295e-15 0)
(3 8.17438e-16 0)
(3 1.18429e-15 0)
(3 8.81495e-16 0)
(3 3.59934e-16 0)
(3 1.00293e-15 0)
(3 -5.21747e-16 0)
(3 -1.71404e-15 0)
(3 4.71342e-15 0)
(3 3.97677e-13 0)
(3 2.64229e-11 0)
(3 1.63134e-09 0)
(3 1.04579e-07 0)
(2.99993 6.29126e-06 0)
(2.99521 0.000341128 0)
(2.50072 0.0376759 0)
(0.959551 0.00967824 0)
(0.730291 0.0904609 0)
(0.677291 0.065267 0)
(0.626271 0.0452126 0)
(0.586402 0.0337968 0)
(0.565199 0.0437375 0)
(0.555569 0.0607418 0)
(0.544403 0.0731317 0)
(0.530446 0.0738189 0)
(0.517063 0.0640373 0)
(0.501954 0.0516817 0)
(0.483825 0.0482454 0)
(0.464976 0.0535168 0)
(0.442597 0.0580643 0)
(0.417797 0.0576043 0)
(0.393168 0.0576279 0)
(0.371074 0.0623109 0)
(0.351852 0.0679156 0)
(0.334888 0.0701684 0)
(0.31999 0.0691382 0)
(0.305864 0.0676414 0)
(0.291251 0.067483 0)
(0.275423 0.0685198 0)
(0.257874 0.0698325 0)
(0.238563 0.0709286 0)
(0.217993 0.0717969 0)
(0.19701 0.0726199 0)
(0.176279 0.0730345 0)
(0.155725 0.0729601 0)
(0.135763 0.0714268 0)
(0.116745 0.0681703 0)
(0.0981607 0.0636007 0)
(0.0781518 0.0605182 0)
(0.0581748 0.0607263 0)
(0.0352597 0.0615274 0)
(0.0124747 0.0625591 0)
(3 2.97633e-16 0)
(3 4.31925e-16 0)
(3 3.22613e-16 0)
(3 -3.73175e-16 0)
(3 1.05089e-16 0)
(3 -5.99632e-16 0)
(3 -8.65597e-16 0)
(3 -5.3578e-16 0)
(3 3.34874e-16 0)
(3 1.38443e-15 0)
(3 -1.83869e-16 0)
(3 -9.91985e-16 0)
(3 -1.70426e-15 0)
(3 -2.15821e-15 0)
(3 -1.36352e-15 0)
(3 -1.19358e-15 0)
(3 -1.52483e-15 0)
(3 -1.57427e-15 0)
(3 -1.10897e-15 0)
(3 3.93317e-16 0)
(3 1.48575e-15 0)
(3 1.49795e-15 0)
(3 7.8934e-16 0)
(3 9.85063e-16 0)
(3 5.90756e-16 0)
(3 5.16463e-16 0)
(3 8.02156e-16 0)
(3 1.01959e-15 0)
(3 7.60098e-16 0)
(3 1.46585e-15 0)
(3 1.55383e-15 0)
(3 1.43267e-15 0)
(3 2.63092e-16 0)
(3 1.43926e-16 0)
(3 5.29596e-16 0)
(3 1.48292e-15 0)
(3 1.77367e-15 0)
(3 1.76284e-15 0)
(3 2.28653e-15 0)
(3 1.90997e-15 0)
(3 1.52816e-15 0)
(3 1.47766e-15 0)
(3 1.55272e-15 0)
(3 1.26171e-15 0)
(3 7.07583e-16 0)
(3 1.01312e-15 0)
(3 1.06961e-15 0)
(3 4.51887e-16 0)
(3 1.93505e-16 0)
(3 -7.78581e-16 0)
(3 -9.76456e-16 0)
(3 -3.12371e-16 0)
(3 4.85333e-15 0)
(3 3.49717e-13 0)
(3 2.41299e-11 0)
(3 1.59369e-09 0)
(3 1.08785e-07 0)
(2.99994 6.73747e-06 0)
(2.99589 0.000417108 0)
(2.5376 0.0470731 0)
(0.948412 -0.0320913 0)
(0.723621 0.0850936 0)
(0.678301 0.107391 0)
(0.641992 0.0858966 0)
(0.602722 0.063188 0)
(0.572408 0.0603129 0)
(0.556081 0.0720309 0)
(0.543828 0.0832566 0)
(0.530015 0.0853525 0)
(0.517141 0.077703 0)
(0.50211 0.0680581 0)
(0.483119 0.0670392 0)
(0.461695 0.0739931 0)
(0.436254 0.0796351 0)
(0.409422 0.0783958 0)
(0.384384 0.0755936 0)
(0.363045 0.0776688 0)
(0.345818 0.0822083 0)
(0.33097 0.0845682 0)
(0.317472 0.0846163 0)
(0.304071 0.0845283 0)
(0.289934 0.0854514 0)
(0.274598 0.0870392 0)
(0.257782 0.0884691 0)
(0.23956 0.0896367 0)
(0.220374 0.0907048 0)
(0.200878 0.0919861 0)
(0.181413 0.0930959 0)
(0.161679 0.0939237 0)
(0.141625 0.0930663 0)
(0.12161 0.0900355 0)
(0.101601 0.0851804 0)
(0.0800887 0.0816108 0)
(0.0586844 0.0822518 0)
(0.0364314 0.0820806 0)
(0.0127116 0.0845457 0)
(3 1.64388e-16 0)
(3 5.90987e-16 0)
(3 6.09968e-16 0)
(3 9.35374e-16 0)
(3 3.15352e-17 0)
(3 4.33867e-17 0)
(3 -2.80468e-16 0)
(3 9.82432e-17 0)
(3 6.58735e-16 0)
(3 2.03271e-16 0)
(3 -1.33161e-15 0)
(3 -2.02761e-15 0)
(3 -1.91527e-15 0)
(3 -1.14473e-15 0)
(3 -8.76691e-16 0)
(3 4.72102e-17 0)
(3 1.43652e-16 0)
(3 8.30612e-16 0)
(3 2.60239e-16 0)
(3 6.7919e-16 0)
(3 7.6367e-16 0)
(3 3.58603e-16 0)
(3 1.31198e-16 0)
(3 -1.42638e-16 0)
(3 -1.37878e-16 0)
(3 8.52047e-16 0)
(3 1.71573e-15 0)
(3 1.63192e-15 0)
(3 1.62193e-15 0)
(3 1.05886e-15 0)
(3 7.07373e-16 0)
(3 4.03136e-16 0)
(3 -3.76955e-16 0)
(3 -1.70199e-16 0)
(3 -7.83246e-17 0)
(3 7.97812e-17 0)
(3 3.51533e-16 0)
(3 1.36586e-15 0)
(3 2.31215e-15 0)
(3 3.245e-15 0)
(3 3.04809e-15 0)
(3 2.61018e-15 0)
(3 1.16611e-15 0)
(3 1.65024e-15 0)
(3 1.00718e-15 0)
(3 9.17533e-16 0)
(3 -1.8105e-18 0)
(3 6.35563e-18 0)
(3 -2.5484e-16 0)
(3 -1.22766e-15 0)
(3 -1.47171e-15 0)
(3 -4.56744e-17 0)
(3 5.51983e-15 0)
(3 3.25785e-13 0)
(3 2.30259e-11 0)
(3 1.65992e-09 0)
(3 1.18656e-07 0)
(2.99996 7.72883e-06 0)
(2.99685 0.00055686 0)
(2.62256 0.0621648 0)
(0.991858 -0.0467357 0)
(0.715952 0.077965 0)
(0.676109 0.135539 0)
(0.646623 0.122138 0)
(0.61293 0.0950555 0)
(0.583344 0.0789373 0)
(0.562256 0.0833749 0)
(0.547643 0.0939809 0)
(0.531138 0.0985427 0)
(0.514264 0.0929581 0)
(0.49597 0.0849831 0)
(0.475245 0.0859598 0)
(0.453626 0.0948864 0)
(0.429104 0.101593 0)
(0.404219 0.0995554 0)
(0.38138 0.094054 0)
(0.361062 0.0931675 0)
(0.344216 0.0961278 0)
(0.329517 0.0985928 0)
(0.3158 0.0999257 0)
(0.302143 0.101295 0)
(0.287915 0.103156 0)
(0.27264 0.105025 0)
(0.256055 0.10628 0)
(0.23824 0.107336 0)
(0.219611 0.108533 0)
(0.200774 0.110304 0)
(0.181955 0.11229 0)
(0.162817 0.114351 0)
(0.143063 0.114706 0)
(0.122695 0.112446 0)
(0.102402 0.107822 0)
(0.0806478 0.104054 0)
(0.0585884 0.104604 0)
(0.0377077 0.103706 0)
(0.0130758 0.106108 0)
(3 4.07569e-17 0)
(3 -8.34432e-17 0)
(3 -2.63146e-16 0)
(3 -4.03098e-16 0)
(3 -5.54147e-16 0)
(3 -2.00978e-16 0)
(3 3.41477e-16 0)
(3 -4.30594e-16 0)
(3 -5.34925e-16 0)
(3 -6.99388e-16 0)
(3 -2.18217e-16 0)
(3 -5.21929e-17 0)
(3 8.62081e-17 0)
(3 3.87602e-16 0)
(3 1.66534e-16 0)
(3 -3.89192e-16 0)
(3 1.75003e-16 0)
(3 2.81096e-16 0)
(3 2.51196e-16 0)
(3 -3.42814e-16 0)
(3 -7.505e-16 0)
(3 -5.81526e-16 0)
(3 -5.52684e-16 0)
(3 -1.1637e-15 0)
(3 -8.81735e-16 0)
(3 -2.76381e-16 0)
(3 1.11912e-16 0)
(3 2.10576e-16 0)
(3 -4.25426e-16 0)
(3 1.05946e-16 0)
(3 -2.7241e-16 0)
(3 1.57494e-16 0)
(3 1.72621e-15 0)
(3 1.98514e-15 0)
(3 2.88192e-15 0)
(3 2.66826e-15 0)
(3 2.75025e-15 0)
(3 3.1762e-15 0)
(3 2.69904e-15 0)
(3 2.65887e-15 0)
(3 1.74609e-15 0)
(3 1.14506e-15 0)
(3 4.68509e-16 0)
(3 4.66757e-16 0)
(3 1.01159e-15 0)
(3 9.68733e-16 0)
(3 1.42436e-16 0)
(3 6.75456e-16 0)
(3 2.47288e-16 0)
(3 4.20236e-16 0)
(3 1.11749e-15 0)
(3 1.26938e-15 0)
(3 3.65508e-15 0)
(3 2.40055e-13 0)
(3 1.75812e-11 0)
(3 1.38879e-09 0)
(3 1.02463e-07 0)
(2.99997 7.03067e-06 0)
(2.99785 0.000542411 0)
(2.72401 0.0586716 0)
(1.05255 -0.049033 0)
(0.713867 0.0870177 0)
(0.664 0.157962 0)
(0.636482 0.147296 0)
(0.612804 0.119422 0)
(0.590217 0.097252 0)
(0.568889 0.0961734 0)
(0.553081 0.106516 0)
(0.534774 0.114775 0)
(0.514007 0.112479 0)
(0.492544 0.105629 0)
(0.470499 0.10666 0)
(0.450133 0.115776 0)
(0.428344 0.121978 0)
(0.406616 0.118558 0)
(0.385867 0.110979 0)
(0.365572 0.108171 0)
(0.347493 0.110457 0)
(0.331287 0.113531 0)
(0.316264 0.116093 0)
(0.301843 0.118569 0)
(0.28735 0.121029 0)
(0.272055 0.123007 0)
(0.255479 0.124077 0)
(0.237583 0.125054 0)
(0.218771 0.126281 0)
(0.199736 0.128248 0)
(0.18082 0.130776 0)
(0.161858 0.133925 0)
(0.14256 0.135721 0)
(0.122155 0.134539 0)
(0.102232 0.130527 0)
(0.0810368 0.126856 0)
(0.0588656 0.127333 0)
(0.0389098 0.126362 0)
(0.0130866 0.12673 0)
(3 -3.94434e-16 0)
(3 -8.18371e-16 0)
(3 -9.93375e-16 0)
(3 -2.67312e-16 0)
(3 5.075e-16 0)
(3 -3.16426e-16 0)
(3 -5.22762e-16 0)
(3 -8.70796e-16 0)
(3 -3.87267e-16 0)
(3 -1.59533e-16 0)
(3 1.3609e-16 0)
(3 -9.57975e-17 0)
(3 -2.60434e-16 0)
(3 -3.53163e-16 0)
(3 -9.00569e-16 0)
(3 -1.32925e-15 0)
(3 -1.49627e-15 0)
(3 -8.09893e-16 0)
(3 -3.60706e-16 0)
(3 -9.06812e-16 0)
(3 -8.84548e-16 0)
(3 -4.00605e-16 0)
(3 -5.66065e-17 0)
(3 -1.43715e-17 0)
(3 6.6721e-18 0)
(3 -9.31204e-16 0)
(3 -9.57922e-16 0)
(3 -6.59162e-17 0)
(3 5.60492e-16 0)
(3 2.93291e-16 0)
(3 6.47354e-16 0)
(3 9.2596e-16 0)
(3 2.19978e-15 0)
(3 2.81042e-15 0)
(3 3.13954e-15 0)
(3 2.6807e-15 0)
(3 2.46177e-15 0)
(3 2.0377e-15 0)
(3 2.38548e-15 0)
(3 2.21175e-15 0)
(3 8.88865e-16 0)
(3 6.93439e-16 0)
(3 4.39137e-16 0)
(3 1.25845e-16 0)
(3 6.18475e-16 0)
(3 6.38007e-16 0)
(3 1.06874e-15 0)
(3 1.10963e-15 0)
(3 1.24351e-15 0)
(3 1.30629e-15 0)
(3 1.84629e-15 0)
(3 1.50215e-15 0)
(3 1.70938e-15 0)
(3 1.22157e-13 0)
(3 8.6918e-12 0)
(3 8.44004e-10 0)
(3 6.19589e-08 0)
(2.99998 5.15844e-06 0)
(2.99872 0.000408624 0)
(2.83184 0.048183 0)
(1.12007 -0.0468205 0)
(0.725213 0.108143 0)
(0.653962 0.180553 0)
(0.625762 0.165817 0)
(0.60906 0.135167 0)
(0.591558 0.111409 0)
(0.571695 0.108931 0)
(0.555768 0.120479 0)
(0.536748 0.133138 0)
(0.513945 0.134366 0)
(0.491934 0.127588 0)
(0.470764 0.126621 0)
(0.452921 0.134015 0)
(0.434287 0.138794 0)
(0.414971 0.134648 0)
(0.394871 0.126973 0)
(0.373739 0.124044 0)
(0.353882 0.126471 0)
(0.335797 0.130133 0)
(0.319329 0.133386 0)
(0.30407 0.136362 0)
(0.289162 0.139056 0)
(0.273591 0.14111 0)
(0.256669 0.142201 0)
(0.238262 0.143323 0)
(0.218747 0.144634 0)
(0.198899 0.146567 0)
(0.179259 0.149221 0)
(0.159983 0.153125 0)
(0.140702 0.156225 0)
(0.120543 0.156228 0)
(0.101034 0.15311 0)
(0.0808819 0.149823 0)
(0.0591112 0.150226 0)
(0.0386106 0.149414 0)
(0.0123233 0.147333 0)
(3 8.76526e-17 0)
(3 -5.95099e-17 0)
(3 3.55882e-16 0)
(3 4.22763e-16 0)
(3 4.02303e-16 0)
(3 1.68746e-16 0)
(3 1.13929e-17 0)
(3 2.62564e-16 0)
(3 1.01636e-16 0)
(3 -2.69643e-17 0)
(3 -1.54009e-16 0)
(3 -2.74948e-16 0)
(3 1.00742e-16 0)
(3 2.64656e-16 0)
(3 2.93524e-16 0)
(3 2.74034e-17 0)
(3 -6.25872e-16 0)
(3 -7.53465e-16 0)
(3 -1.81901e-15 0)
(3 -1.58289e-15 0)
(3 -1.65885e-15 0)
(3 -1.53657e-15 0)
(3 -1.35423e-15 0)
(3 -8.5365e-16 0)
(3 -6.42102e-16 0)
(3 -1.00192e-15 0)
(3 -8.75188e-16 0)
(3 -1.04849e-15 0)
(3 1.99656e-16 0)
(3 2.38944e-16 0)
(3 7.90064e-16 0)
(3 -1.33002e-17 0)
(3 4.58634e-16 0)
(3 1.54107e-15 0)
(3 1.5458e-15 0)
(3 1.31901e-15 0)
(3 1.41057e-15 0)
(3 1.52312e-15 0)
(3 1.94586e-15 0)
(3 1.42162e-15 0)
(3 1.33726e-15 0)
(3 3.87104e-16 0)
(3 1.16666e-15 0)
(3 9.82171e-16 0)
(3 1.29484e-15 0)
(3 1.00529e-15 0)
(3 6.47295e-16 0)
(3 -1.93081e-16 0)
(3 1.32249e-16 0)
(3 9.85886e-16 0)
(3 1.75544e-15 0)
(3 1.80524e-15 0)
(3 2.01114e-15 0)
(3 4.9305e-14 0)
(3 2.37821e-12 0)
(3 3.16783e-10 0)
(3 1.61273e-08 0)
(2.99999 2.19841e-06 0)
(2.99929 0.000134622 0)
(2.9258 0.0228802 0)
(1.18904 -0.0434463 0)
(0.744436 0.139444 0)
(0.649878 0.205429 0)
(0.619764 0.182365 0)
(0.606332 0.145997 0)
(0.590212 0.121941 0)
(0.571141 0.120776 0)
(0.555407 0.13518 0)
(0.536328 0.15257 0)
(0.513155 0.156594 0)
(0.493088 0.148686 0)
(0.474697 0.144167 0)
(0.45949 0.148694 0)
(0.443457 0.152683 0)
(0.425259 0.149571 0)
(0.405063 0.143349 0)
(0.383125 0.141372 0)
(0.361838 0.14428 0)
(0.342177 0.14827 0)
(0.324399 0.151669 0)
(0.308219 0.154704 0)
(0.292661 0.157476 0)
(0.276553 0.159698 0)
(0.259098 0.160995 0)
(0.240094 0.162379 0)
(0.219839 0.163772 0)
(0.199124 0.165494 0)
(0.178648 0.168002 0)
(0.158868 0.17235 0)
(0.139429 0.176513 0)
(0.119475 0.177749 0)
(0.100339 0.175605 0)
(0.0811064 0.172734 0)
(0.0595466 0.172675 0)
(0.0373413 0.17189 0)
(0.0111873 0.168351 0)
(3 8.06799e-17 0)
(3 -1.5178e-17 0)
(3 1.28062e-16 0)
(3 -3.3885e-16 0)
(3 -4.74553e-16 0)
(3 1.12101e-16 0)
(3 3.47791e-16 0)
(3 1.51219e-16 0)
(3 -3.56246e-16 0)
(3 -2.1348e-16 0)
(3 8.55963e-17 0)
(3 1.84542e-16 0)
(3 1.90532e-16 0)
(3 9.19528e-16 0)
(3 2.16243e-15 0)
(3 2.36017e-15 0)
(3 2.03233e-15 0)
(3 4.57282e-16 0)
(3 -2.72769e-16 0)
(3 -8.17749e-16 0)
(3 -8.56175e-16 0)
(3 -9.75727e-16 0)
(3 -1.00355e-15 0)
(3 -6.44129e-16 0)
(3 -3.05738e-16 0)
(3 5.79931e-16 0)
(3 8.16094e-16 0)
(3 1.1844e-15 0)
(3 1.85828e-15 0)
(3 3.01411e-15 0)
(3 2.89357e-15 0)
(3 2.08634e-15 0)
(3 1.46917e-15 0)
(3 1.77455e-15 0)
(3 1.59581e-15 0)
(3 1.6519e-15 0)
(3 1.61067e-15 0)
(3 9.09101e-16 0)
(3 -2.47608e-16 0)
(3 -5.47114e-17 0)
(3 2.09183e-16 0)
(3 1.26788e-16 0)
(3 5.9559e-16 0)
(3 7.96953e-16 0)
(3 1.13724e-15 0)
(3 9.33147e-16 0)
(3 4.79469e-16 0)
(3 -2.12995e-16 0)
(3 -3.92418e-16 0)
(3 6.2818e-19 0)
(3 8.12867e-16 0)
(3 1.33022e-15 0)
(3 1.58681e-15 0)
(3 2.91946e-14 0)
(3 9.23613e-13 0)
(3 1.36658e-10 0)
(3 2.47072e-09 0)
(2.99999 7.07779e-07 0)
(2.99948 7.73418e-06 0)
(2.96876 0.00470421 0)
(1.25241 -0.0380529 0)
(0.760242 0.179415 0)
(0.644027 0.229999 0)
(0.615874 0.197083 0)
(0.605467 0.154742 0)
(0.58988 0.131323 0)
(0.57155 0.132591 0)
(0.556301 0.150929 0)
(0.537063 0.1726 0)
(0.514203 0.177446 0)
(0.497056 0.167382 0)
(0.481405 0.158888 0)
(0.467206 0.160838 0)
(0.452166 0.165516 0)
(0.433827 0.164626 0)
(0.413092 0.160585 0)
(0.390533 0.160141 0)
(0.368356 0.163796 0)
(0.347701 0.167947 0)
(0.329086 0.171085 0)
(0.312312 0.173836 0)
(0.296345 0.176537 0)
(0.279928 0.178918 0)
(0.262173 0.180442 0)
(0.242787 0.182068 0)
(0.221945 0.183509 0)
(0.200443 0.184933 0)
(0.179131 0.187199 0)
(0.158709 0.191818 0)
(0.138909 0.196898 0)
(0.118986 0.199376 0)
(0.100058 0.19808 0)
(0.0810502 0.195429 0)
(0.0594663 0.19463 0)
(0.0355221 0.194018 0)
(0.00988635 0.190256 0)
(3 -2.22457e-16 0)
(3 -2.90666e-16 0)
(3 -8.97722e-17 0)
(3 4.50126e-16 0)
(3 5.22677e-16 0)
(3 1.07366e-15 0)
(3 1.20452e-15 0)
(3 1.06429e-15 0)
(3 3.29582e-16 0)
(3 3.39389e-16 0)
(3 2.95582e-16 0)
(3 2.36554e-16 0)
(3 -3.67848e-16 0)
(3 -2.43009e-16 0)
(3 -1.50598e-16 0)
(3 1.89731e-16 0)
(3 6.47302e-16 0)
(3 8.56687e-16 0)
(3 1.29394e-15 0)
(3 5.04396e-16 0)
(3 1.54126e-16 0)
(3 5.34253e-17 0)
(3 3.60832e-16 0)
(3 5.30257e-16 0)
(3 5.27486e-16 0)
(3 6.90853e-16 0)
(3 9.52727e-16 0)
(3 6.15006e-16 0)
(3 -6.81155e-17 0)
(3 4.26081e-17 0)
(3 6.21201e-17 0)
(3 -1.47264e-17 0)
(3 -7.56191e-16 0)
(3 -9.93061e-16 0)
(3 -8.88461e-16 0)
(3 -4.40075e-16 0)
(3 2.61863e-16 0)
(3 -2.84795e-16 0)
(3 -4.7169e-16 0)
(3 -9.64274e-17 0)
(3 -2.80051e-16 0)
(3 2.34267e-16 0)
(3 -2.6204e-17 0)
(3 -1.49084e-16 0)
(3 -5.86941e-17 0)
(3 2.52308e-16 0)
(3 7.75846e-16 0)
(3 6.63724e-16 0)
(3 8.12398e-16 0)
(3 9.14912e-16 0)
(3 4.85148e-16 0)
(3 1.92721e-16 0)
(3 1.45579e-15 0)
(3 2.56627e-14 0)
(3 1.17714e-12 0)
(3 1.05219e-10 0)
(3 2.03819e-09 0)
(2.99999 4.87478e-07 0)
(2.99953 -1.03342e-06 0)
(2.97131 0.00216713 0)
(1.32585 -0.0304974 0)
(0.768731 0.223795 0)
(0.634167 0.25016 0)
(0.614239 0.208102 0)
(0.608209 0.161509 0)
(0.593318 0.139852 0)
(0.57626 0.144212 0)
(0.561276 0.167653 0)
(0.540934 0.192844 0)
(0.518171 0.196352 0)
(0.502956 0.183851 0)
(0.487916 0.172713 0)
(0.472567 0.173505 0)
(0.456566 0.179545 0)
(0.437078 0.180855 0)
(0.415738 0.178718 0)
(0.393262 0.179666 0)
(0.371438 0.184036 0)
(0.351105 0.188242 0)
(0.33272 0.190961 0)
(0.31608 0.193314 0)
(0.300163 0.195913 0)
(0.283731 0.198477 0)
(0.265855 0.200258 0)
(0.246184 0.20214 0)
(0.224815 0.20368 0)
(0.202581 0.204858 0)
(0.180513 0.20694 0)
(0.159478 0.21179 0)
(0.139265 0.217712 0)
(0.119276 0.221301 0)
(0.100284 0.220578 0)
(0.0807772 0.217895 0)
(0.0591715 0.21643 0)
(0.033777 0.21618 0)
(0.00879716 0.212596 0)
(3 -7.5516e-17 0)
(3 -4.21667e-17 0)
(3 4.31047e-16 0)
(3 1.68854e-16 0)
(3 5.13811e-16 0)
(3 2.67174e-16 0)
(3 -1.63148e-16 0)
(3 -5.99819e-16 0)
(3 -7.20954e-16 0)
(3 -1.41824e-15 0)
(3 -1.22528e-15 0)
(3 -2.59981e-16 0)
(3 1.1158e-15 0)
(3 6.39955e-16 0)
(3 1.32115e-16 0)
(3 -6.81935e-16 0)
(3 5.02789e-17 0)
(3 1.01007e-15 0)
(3 8.36037e-16 0)
(3 9.09801e-16 0)
(3 6.45599e-16 0)
(3 -9.63749e-17 0)
(3 -4.35468e-17 0)
(3 5.07714e-17 0)
(3 -1.36382e-17 0)
(3 1.85507e-16 0)
(3 4.18213e-17 0)
(3 -7.1044e-17 0)
(3 7.38751e-17 0)
(3 2.9524e-16 0)
(3 4.59642e-16 0)
(3 1.28001e-15 0)
(3 5.78149e-16 0)
(3 -6.42439e-16 0)
(3 -9.57525e-16 0)
(3 -1.57939e-15 0)
(3 -1.09951e-15 0)
(3 -1.28904e-15 0)
(3 -1.34659e-15 0)
(3 -2.34404e-15 0)
(3 -2.33637e-15 0)
(3 -1.69133e-15 0)
(3 -1.10457e-15 0)
(3 -1.18678e-15 0)
(3 -1.01923e-15 0)
(3 -6.99402e-16 0)
(3 8.12915e-16 0)
(3 1.51237e-15 0)
(3 2.1819e-15 0)
(3 1.27816e-15 0)
(3 8.99927e-16 0)
(3 5.57127e-16 0)
(3 2.03896e-15 0)
(3 2.6808e-14 0)
(3 1.8294e-12 0)
(3 9.5154e-11 0)
(3 4.64802e-09 0)
(2.99999 4.22962e-07 0)
(2.99956 6.97732e-06 0)
(2.97333 0.00198947 0)
(1.40565 -0.011267 0)
(0.767934 0.270844 0)
(0.625666 0.262827 0)
(0.618106 0.212759 0)
(0.615924 0.164287 0)
(0.601465 0.146723 0)
(0.585478 0.155883 0)
(0.568501 0.186759 0)
(0.545134 0.213851 0)
(0.522548 0.214342 0)
(0.508175 0.200018 0)
(0.492289 0.187829 0)
(0.474846 0.188067 0)
(0.457017 0.194943 0)
(0.436389 0.197601 0)
(0.414908 0.196603 0)
(0.393224 0.19855 0)
(0.372647 0.203629 0)
(0.353467 0.208077 0)
(0.335925 0.210615 0)
(0.319802 0.212761 0)
(0.304155 0.21539 0)
(0.287833 0.218216 0)
(0.2699 0.220295 0)
(0.249992 0.222465 0)
(0.228172 0.224196 0)
(0.205334 0.225268 0)
(0.182677 0.227302 0)
(0.161146 0.232405 0)
(0.140499 0.239076 0)
(0.1203 0.24354 0)
(0.100806 0.243133 0)
(0.0804145 0.240278 0)
(0.058707 0.238572 0)
(0.0323721 0.238685 0)
(0.00787118 0.235065 0)
(3 -1.27719e-16 0)
(3 3.93556e-16 0)
(3 5.34316e-17 0)
(3 -2.85851e-16 0)
(3 -5.1988e-16 0)
(3 -6.69784e-16 0)
(3 -7.89729e-16 0)
(3 -1.18292e-15 0)
(3 -8.18934e-16 0)
(3 -6.86275e-16 0)
(3 1.30954e-16 0)
(3 3.34028e-16 0)
(3 7.38971e-16 0)
(3 8.1334e-16 0)
(3 8.484e-16 0)
(3 1.03853e-15 0)
(3 -2.33668e-17 0)
(3 -3.38567e-16 0)
(3 -4.7932e-16 0)
(3 -8.02306e-17 0)
(3 -2.11989e-16 0)
(3 -5.26348e-16 0)
(3 -3.54714e-16 0)
(3 -7.66228e-16 0)
(3 -1.45325e-15 0)
(3 -1.3253e-15 0)
(3 -1.72086e-15 0)
(3 -3.56275e-16 0)
(3 7.03871e-16 0)
(3 1.73545e-15 0)
(3 6.84425e-16 0)
(3 9.99187e-16 0)
(3 5.72419e-16 0)
(3 -4.14715e-16 0)
(3 -1.08903e-15 0)
(3 -1.0835e-15 0)
(3 -1.09771e-15 0)
(3 -3.39281e-16 0)
(3 -6.71658e-16 0)
(3 -5.36907e-16 0)
(3 -3.50719e-16 0)
(3 -4.60482e-16 0)
(3 -2.39831e-16 0)
(3 3.19789e-17 0)
(3 -1.44458e-16 0)
(3 -4.07671e-16 0)
(3 -3.54206e-16 0)
(3 2.42696e-16 0)
(3 6.87619e-16 0)
(3 9.61994e-16 0)
(3 7.09909e-16 0)
(3 1.16918e-15 0)
(3 1.02154e-15 0)
(3 3.05548e-14 0)
(3 2.49037e-12 0)
(3 9.35178e-11 0)
(3 7.66432e-09 0)
(2.99999 3.5659e-07 0)
(2.9996 1.91083e-05 0)
(2.97548 0.00162463 0)
(1.49264 0.0265168 0)
(0.762886 0.31786 0)
(0.621158 0.265788 0)
(0.628567 0.20794 0)
(0.630232 0.163797 0)
(0.615199 0.153761 0)
(0.597115 0.172119 0)
(0.574118 0.211248 0)
(0.546921 0.235426 0)
(0.526523 0.231298 0)
(0.513766 0.21582 0)
(0.497438 0.204085 0)
(0.478546 0.204564 0)
(0.45894 0.211972 0)
(0.437165 0.215166 0)
(0.415444 0.21442 0)
(0.394335 0.216741 0)
(0.374853 0.22235 0)
(0.356755 0.227216 0)
(0.340014 0.229898 0)
(0.324376 0.23209 0)
(0.308966 0.234877 0)
(0.292707 0.23801 0)
(0.274654 0.240407 0)
(0.254467 0.242906 0)
(0.232226 0.244962 0)
(0.208911 0.246154 0)
(0.185813 0.248313 0)
(0.16382 0.253702 0)
(0.142784 0.260998 0)
(0.122075 0.266082 0)
(0.101744 0.265848 0)
(0.0804733 0.262836 0)
(0.0584725 0.261267 0)
(0.0318712 0.261768 0)
(0.00688341 0.257853 0)
(3 1.11405e-16 0)
(3 3.76016e-16 0)
(3 -5.95748e-17 0)
(3 1.2303e-16 0)
(3 -1.11998e-15 0)
(3 -1.52921e-15 0)
(3 -7.40957e-16 0)
(3 -2.6184e-16 0)
(3 5.41825e-16 0)
(3 1.08918e-15 0)
(3 8.80145e-16 0)
(3 4.30154e-16 0)
(3 8.72955e-17 0)
(3 -7.52029e-16 0)
(3 -1.22099e-15 0)
(3 -1.32579e-15 0)
(3 -2.09595e-15 0)
(3 -2.1256e-15 0)
(3 -7.8281e-16 0)
(3 -1.37919e-16 0)
(3 3.07951e-16 0)
(3 1.12465e-16 0)
(3 -8.65516e-17 0)
(3 -1.084e-15 0)
(3 -1.07546e-15 0)
(3 -8.47229e-16 0)
(3 -1.842e-16 0)
(3 3.41034e-16 0)
(3 5.79081e-16 0)
(3 5.31491e-16 0)
(3 8.64952e-16 0)
(3 1.73894e-15 0)
(3 1.79775e-15 0)
(3 1.03644e-15 0)
(3 8.37722e-16 0)
(3 -5.89992e-16 0)
(3 -2.20818e-15 0)
(3 -1.77564e-15 0)
(3 -1.61154e-15 0)
(3 -1.01064e-15 0)
(3 2.02891e-16 0)
(3 1.25304e-16 0)
(3 1.96848e-16 0)
(3 6.25904e-16 0)
(3 6.52489e-16 0)
(3 2.31028e-16 0)
(3 -2.68085e-16 0)
(3 -3.86416e-16 0)
(3 1.08892e-16 0)
(3 3.73853e-16 0)
(3 6.96856e-16 0)
(3 1.35417e-15 0)
(3 2.12069e-15 0)
(3 3.93544e-14 0)
(3 3.08219e-12 0)
(3 1.14682e-10 0)
(3 1.0687e-08 0)
(2.99999 3.49522e-07 0)
(2.99964 3.31691e-05 0)
(2.97797 0.00131375 0)
(1.59436 0.0857937 0)
(0.753591 0.356411 0)
(0.627092 0.25806 0)
(0.651804 0.197227 0)
(0.650957 0.162443 0)
(0.634887 0.165977 0)
(0.608044 0.199147 0)
(0.575861 0.241278 0)
(0.546968 0.255268 0)
(0.531601 0.245746 0)
(0.52075 0.230178 0)
(0.504574 0.220653 0)
(0.485074 0.222391 0)
(0.464027 0.23031 0)
(0.441147 0.233464 0)
(0.419027 0.232312 0)
(0.398122 0.234481 0)
(0.379362 0.240399 0)
(0.362076 0.24578 0)
(0.345904 0.248865 0)
(0.33053 0.251304 0)
(0.315125 0.254335 0)
(0.298682 0.257796 0)
(0.28028 0.260542 0)
(0.259664 0.263437 0)
(0.237 0.265981 0)
(0.213327 0.267549 0)
(0.189909 0.269976 0)
(0.167485 0.275638 0)
(0.145973 0.283408 0)
(0.124468 0.288924 0)
(0.103133 0.288847 0)
(0.0811209 0.285826 0)
(0.0586249 0.284433 0)
(0.0325464 0.285428 0)
(0.00570651 0.281773 0)
(3 -5.62773e-18 0)
(3 1.72232e-16 0)
(3 -1.25196e-16 0)
(3 1.08552e-17 0)
(3 3.62618e-16 0)
(3 -1.44639e-16 0)
(3 -9.14027e-16 0)
(3 -1.0654e-15 0)
(3 -7.95863e-16 0)
(3 -7.47588e-16 0)
(3 -3.37168e-16 0)
(3 -2.52711e-16 0)
(3 -1.71569e-16 0)
(3 -1.38386e-16 0)
(3 -9.57589e-16 0)
(3 -2.03125e-15 0)
(3 -2.28595e-15 0)
(3 -2.39842e-15 0)
(3 -1.59814e-15 0)
(3 -1.00717e-15 0)
(3 7.53403e-17 0)
(3 4.17503e-16 0)
(3 9.03393e-17 0)
(3 -8.64787e-16 0)
(3 2.08857e-16 0)
(3 -8.77051e-17 0)
(3 -1.33562e-17 0)
(3 -3.98726e-16 0)
(3 -1.19746e-15 0)
(3 -1.49692e-15 0)
(3 8.13769e-17 0)
(3 3.86505e-16 0)
(3 1.36964e-15 0)
(3 2.11764e-15 0)
(3 1.84473e-15 0)
(3 1.35034e-15 0)
(3 8.99899e-16 0)
(3 2.7525e-16 0)
(3 1.25626e-16 0)
(3 1.26146e-17 0)
(3 2.76564e-16 0)
(3 5.36948e-16 0)
(3 2.57604e-16 0)
(3 -2.80173e-16 0)
(3 -1.1485e-15 0)
(3 -1.21509e-15 0)
(3 -1.03722e-15 0)
(3 8.41821e-18 0)
(3 1.82789e-16 0)
(3 4.31016e-16 0)
(3 2.0539e-15 0)
(3 2.11462e-15 0)
(3 3.15377e-15 0)
(3 5.13299e-14 0)
(3 3.47853e-12 0)
(3 1.59933e-10 0)
(3 1.30447e-08 0)
(3 4.65851e-07 0)
(2.9997 4.66698e-05 0)
(2.98113 0.00135136 0)
(1.72507 0.162186 0)
(0.752043 0.375437 0)
(0.655639 0.239827 0)
(0.682899 0.180543 0)
(0.676126 0.167782 0)
(0.653745 0.191089 0)
(0.612678 0.239157 0)
(0.572469 0.272188 0)
(0.547513 0.271284 0)
(0.538423 0.256894 0)
(0.528678 0.242719 0)
(0.512953 0.237093 0)
(0.493401 0.241209 0)
(0.471176 0.249877 0)
(0.447342 0.252569 0)
(0.424956 0.250485 0)
(0.404161 0.252046 0)
(0.385871 0.258068 0)
(0.369087 0.26407 0)
(0.353104 0.267839 0)
(0.337596 0.270731 0)
(0.321834 0.274072 0)
(0.304921 0.277843 0)
(0.286004 0.280922 0)
(0.264946 0.284228 0)
(0.242022 0.28736 0)
(0.21822 0.289488 0)
(0.194607 0.292258 0)
(0.17176 0.29812 0)
(0.149693 0.306195 0)
(0.127205 0.312116 0)
(0.104801 0.312312 0)
(0.0821652 0.309479 0)
(0.0591467 0.308082 0)
(0.0342831 0.309328 0)
(0.00516587 0.307787 0)
(3 -1.63802e-16 0)
(3 -4.54999e-16 0)
(3 -3.03404e-16 0)
(3 -8.05255e-16 0)
(3 -8.15505e-17 0)
(3 8.24192e-18 0)
(3 -5.06614e-16 0)
(3 -5.22165e-16 0)
(3 -1.02615e-15 0)
(3 -9.66293e-16 0)
(3 -4.05954e-17 0)
(3 -1.8453e-16 0)
(3 2.10136e-16 0)
(3 7.9012e-16 0)
(3 5.5395e-16 0)
(3 2.43384e-16 0)
(3 -3.04232e-16 0)
(3 -3.98401e-16 0)
(3 -1.4147e-15 0)
(3 -1.55147e-15 0)
(3 -1.56768e-15 0)