/*--------------------------------*- C++ -*----------------------------------*\
| =========                 |                                                 |
| \\      /  F ield         | OpenFOAM: The Open Source CFD Toolbox           |
|  \\    /   O peration     | Version:  v1812                                 |
|   \\  /    A nd           | Web:      www.OpenFOAM.com                      |
|    \\/     M anipulation  |                                                 |
\*---------------------------------------------------------------------------*/
FoamFile
{
    version     2.0;
    format      ascii;
    class       volScalarField;
    location    "0.6";
    object      p;
}
// * * * * * * * * * * * * * * * * * * * * * * * * * * * * * * * * * * * * * //

dimensions      [1 -1 -2 0 0 0 0];


internalField   nonuniform List<scalar> 
20400
(
99561.3
99558.5
99564.5
99566.9
99569.5
99572.5
99576.2
99581.2
99587.5
99594.6
99602.8
99612.1
99621.9
99631.6
99641.6
99650.8
99661.9
99662.8
99675.4
99695.1
99712.5
99724
99736.8
99750.5
99762
99775.5
99791.4
99806
99818.7
99829.3
99837.5
99845
99852.3
99859.6
99867.5
99873.1
99874.6
99881.9
99889.5
99898.8
99892.9
99896.4
99940.5
99946.2
99966.1
99982.3
100001
100017
100036
100057
100076
100095
100131
100139
100150
100170
100175
100193
100217
100223
100230
100235
100237
100237
100234
100233
100233
100232
100226
100221
100217
100212
100204
100198
100191
100185
100180
100176
100169
100166
100163
100163
100160
100159
100159
100158
100158
100158
100160
100160
100161
100162
100161
100158
100154
100150
100145
100137
100128
100118
100107
100103
100087
100072
100054
100034
100013
99988.4
99975.7
99948.6
99920.5
99898.6
99879.5
99862
99838
99818.1
99798.8
99780.9
99762.6
99746.4
99731
99715.2
99702.1
99688.9
99677.8
99667.7
99658.8
99650.1
99642.7
99636.3
99631.7
99627.9
99625.8
99624
99619.5
99614.9
99621.7
99624.9
99630.6
99641.3
99647.3
99654.9
99651
99656.7
99665.3
99674.8
99688.4
99698.8
99711.9
99722.7
99732
99743.1
99755.5
99775.3
99786.8
99798.6
99810.5
99823.7
99835.5
99856
99873.5
99893
99915
99936.3
99957.9
99982
100008
100031
100058
100084
100111
100138
100166
100194
100224
100254
100284
100316
100346
100377
100409
100440
100469
100501
100529
100560
100590
100618
100645
100670
100696
100723
100748
100770
100792
100815
100829
100848
100863
100879
100894
100909
100919
100930
100939
100947
100954
100960
100965
100969
100971
100972
100973
100973
100971
100969
100966
100962
100956
100950
100943
100936
100927
100918
100908
100897
100886
100873
100861
100847
100833
100819
100804
100789
100773
100757
100741
100725
100708
100692
100675
100659
100642
100626
100610
100594
100578
100562
100548
100533
100519
100505
100492
100480
100468
100457
100447
100437
100429
100421
100414
100408
100402
100398
100395
100392
100391
100390
100391
100392
100394
100397
100401
100406
100412
100419
100427
100435
100445
100455
100466
100478
100490
100504
100518
100532
100547
100563
100579
100596
100613
100631
100649
100667
100685
100704
100723
100742
100762
100781
100800
100820
100839
100858
100878
100897
100916
100934
100953
100971
100989
101006
101023
101040
101056
101072
101088
101102
101117
101130
101144
101156
101168
101179
101189
101199
101208
101216
101224
101230
101236
101241
101245
101249
101251
101253
101253
101253
101252
101250
101248
101244
101240
101235
101229
101222
101214
101206
101197
101187
101177
101166
101154
101142
101130
101117
101104
101091
101077
101064
101050
101036
101022
101009
100995
100982
100969
100956
100944
100932
100920
100909
100899
100889
100880
100871
100863
100856
100850
100844
100839
100835
100832
100830
100828
100827
100827
100828
100829
100831
100834
100838
100842
100847
100853
100859
100866
100873
100881
100889
100898
100908
100917
100927
100937
100948
100959
100970
100981
100992
101004
101015
101027
101039
101051
101063
101074
101086
101098
101109
101121
101132
101143
101154
101165
101175
101185
101195
101205
101215
101225
101233
101242
101251
101259
101267
101274
101282
101289
101295
101301
101307
101312
101317
101322
101326
101330
101333
101337
101339
101342
101344
101345
101346
101347
101347
101347
101347
101346
101345
101344
101342
101341
101339
101337
101334
101332
101329
101327
101324
101322
101319
101317
101315
101312
101310
101308
101306
101305
101303
101302
101301
101301
101300
101300
101301
101301
101302
101303
101304
101306
101308
101310
101312
101315
101318
101319
101321
101323
101330
99563.8
99561.6
99565.7
99568.3
99571.2
99575
99579.7
99585.1
99591.2
99597.8
99604.4
99612.1
99617.5
99626.7
99637.5
99647
99657.3
99652.9
99667
99687.9
99701.6
99711.7
99724.2
99736.9
99745.3
99752.9
99763.1
99774.2
99787.5
99802.9
99814.9
99824.8
99833.6
99841.4
99850.2
99858.1
99867.1
99881.9
99890.6
99902.3
99882.8
99893.5
99922.1
99929.6
99946.6
99964
99984.9
100012
100037
100074
100082
100081
100136
100159
100171
100204
100215
100117
100200
100220
100229
100236
100239
100242
100247
100248
100247
100250
100243
100238
100234
100223
100218
100211
100204
100203
100204
100202
100197
100193
100190
100187
100182
100174
100168
100160
100153
100146
100140
100134
100129
100125
100122
100119
100114
100109
100104
100095
100082
100065
100043
100005
99985.1
99962.9
99942.9
99925.3
99910.3
99896
99879.9
99887.3
99875.6
99858.7
99846.7
99839.2
99822.2
99806.6
99791.5
99776.6
99761.1
99747.3
99733.5
99719.7
99708.9
99698
99688.4
99679.8
99672
99665.1
99659.8
99655.3
99652.7
99650.6
99649
99645.8
99644.1
99659.1
99659.4
99660.6
99663
99663.9
99664.6
99665.7
99670.9
99668.2
99675.4
99681.9
99690.2
99696.9
99705.1
99713.2
99722.2
99732.2
99743.6
99755.5
99767.5
99782.7
99797.6
99812.1
99824.9
99845.1
99861.9
99880.6
99901.8
99922
99943.6
99967.8
99991.9
100018
100046
100072
100102
100132
100163
100194
100229
100263
100295
100330
100362
100394
100427
100458
100489
100520
100549
100578
100607
100634
100660
100684
100708
100732
100754
100774
100803
100807
100819
100828
100838
100850
100863
100877
100889
100901
100912
100922
100931
100939
100945
100951
100955
100958
100960
100961
100961
100960
100958
100955
100951
100946
100940
100933
100925
100916
100906
100896
100884
100872
100860
100846
100833
100818
100803
100788
100772
100756
100740
100724
100707
100690
100674
100657
100640
100624
100608
100592
100576
100560
100545
100531
100517
100503
100490
100478
100466
100455
100445
100435
100427
100419
100412
100406
100400
100396
100393
100390
100389
100389
100389
100390
100392
100396
100400
100405
100410
100417
100425
100434
100443
100454
100465
100477
100489
100503
100517
100531
100546
100562
100578
100595
100612
100630
100648
100666
100685
100703
100722
100742
100761
100780
100800
100819
100838
100858
100877
100896
100915
100934
100952
100970
100988
101006
101023
101039
101056
101071
101087
101102
101116
101130
101143
101155
101167
101178
101188
101198
101207
101215
101223
101229
101235
101240
101244
101247
101250
101251
101252
101252
101251
101249
101246
101243
101238
101233
101227
101220
101213
101204
101195
101185
101175
101164
101153
101141
101128
101116
101103
101089
101076
101062
101048
101034
101021
101007
100993
100980
100967
100954
100942
100930
100919
100908
100897
100887
100878
100870
100862
100855
100849
100843
100838
100834
100831
100829
100827
100826
100826
100827
100828
100830
100834
100837
100842
100847
100852
100859
100865
100873
100881
100889
100898
100907
100917
100927
100938
100948
100959
100970
100981
100992
101004
101015
101027
101038
101050
101062
101074
101085
101097
101108
101120
101131
101142
101153
101164
101174
101185
101195
101205
101214
101223
101233
101242
101250
101259
101266
101274
101281
101288
101295
101301
101307
101312
101317
101322
101326
101330
101334
101337
101339
101342
101344
101345
101347
101347
101348
101348
101347
101347
101346
101345
101343
101342
101340
101338
101336
101334
101332
101329
101327
101325
101323
101320
101318
101317
101315
101313
101312
101311
101310
101309
101308
101308
101308
101308
101308
101308
101309
101310
101311
101312
101314
101315
101317
101322
101316
101315
101315
101316
101325
99561.4
99559
99562.7
99565.6
99568.6
99572.4
99577
99582.4
99589.4
99597.7
99607.3
99617.5
99630.8
99643.9
99655.5
99666.7
99679.6
99679.4
99705.3
99717.9
99733
99746.3
99754
99765.9
99777.9
99787.6
99797.4
99805.1
99809.8
99816.8
99824.7
99832.8
99839.5
99844.4
99847
99853
99861.9
99874.2
99881.1
99892.7
99898.9
99912.5
99907.2
99931
99949.2
99967.4
99984.6
100004
100023
100041
100062
100096
100117
100126
100146
100162
100166
100198
100228
100228
100237
100244
100247
100248
100237
100230
100262
100242
100216
100230
100228
100213
100202
100190
100176
100162
100149
100136
100121
100108
100094
100085
100076
100061
100050
100039
100030
100022
100017
100016
100019
100025
100035
100048
100060
100070
100078
100083
100082
100077
100068
100064
100054
100045
100034
100021
100007
99990.6
99977.1
99956.2
99937.9
99921.9
99902.1
99866.8
99834.1
99814.3
99794
99775.9
99756.6
99740.3
99727.1
99714.3
99702.2
99689.7
99679.1
99669.9
99661.7
99653.2
99648
99644.1
99641.7
99639.6
99638.4
99637.3
99635.6
99635.4
99643.2
99648.8
99659.2
99671.6
99682.3
99693.6
99702.9
99741.8
99745.1
99754.6
99764.5
99773.4
99781.8
99789.8
99798
99805.9
99818.7
99813.3
99828.5
99844.2
99857.3
99868.8
99878.1
99899.4
99913.3
99930.1
99949.9
99967.5
99986.3
100010
100027
100052
100074
100095
100120
100143
100168
100191
100216
100241
100266
100293
100317
100344
100371
100398
100425
100453
100479
100507
100534
100561
100588
100614
100640
100667
100692
100717
100738
100777
100809
100833
100855
100875
100893
100909
100921
100932
100941
100949
100956
100962
100966
100971
100973
100975
100976
100975
100974
100972
100969
100965
100959
100953
100946
100938
100929
100920
100910
100899
100887
100875
100862
100848
100835
100820
100805
100790
100774
100758
100742
100726
100709
100692
100676
100659
100643
100626
100610
100594
100578
100563
100548
100534
100520
100506
100493
100481
100469
100458
100448
100438
100429
100421
100414
100408
100403
100399
100395
100393
100391
100391
100391
100393
100395
100398
100402
100407
100413
100420
100427
100436
100445
100456
100467
100479
100491
100504
100518
100533
100548
100564
100580
100597
100614
100631
100649
100668
100686
100705
100724
100743
100762
100782
100801
100821
100840
100859
100879
100898
100917
100935
100954
100972
100990
101007
101024
101041
101057
101073
101089
101103
101118
101131
101145
101157
101169
101180
101191
101200
101209
101217
101225
101231
101237
101242
101246
101250
101252
101254
101254
101254
101253
101251
101249
101245
101241
101236
101230
101223
101215
101207
101198
101188
101178
101167
101155
101143
101131
101118
101105
101092
101078
101065
101051
101037
101023
101010
100996
100983
100970
100957
100944
100933
100921
100910
100900
100890
100880
100872
100864
100857
100851
100845
100840
100836
100833
100830
100829
100828
100828
100829
100829
100832
100835
100838
100843
100848
100853
100859
100866
100874
100882
100890
100899
100908
100918
100928
100938
100948
100959
100971
100982
100993
101005
101017
101028
101040
101052
101063
101075
101087
101098
101110
101121
101132
101144
101155
101165
101176
101186
101196
101206
101216
101225
101234
101243
101252
101260
101268
101275
101283
101289
101296
101302
101307
101313
101318
101322
101327
101330
101334
101337
101339
101342
101343
101345
101346
101346
101347
101346
101346
101345
101344
101343
101341
101339
101337
101335
101332
101330
101327
101324
101321
101318
101316
101313
101310
101307
101305
101302
101300
101298
101296
101294
101292
101291
101290
101289
101288
101287
101287
101287
101287
101288
101289
101290
101291
101291
101302
101308
101312
101318
101329
99559.4
99556.8
99560.2
99563.1
99567.1
99571
99575.8
99582.1
99588.8
99596.7
99605.1
99613.9
99625.4
99635.7
99647
99657.2
99669.5
99670.1
99694.5
99708.7
99727.6
99737.8
99746.9
99765.2
99783.6
99799.5
99813.5
99825
99833.4
99840.8
99849.8
99858.3
99865.3
99869.2
99873
99877.1
99879.6
99884.1
99884.4
99889.4
99893.2
99910.6
99925.1
99935.9
99954
99970.5
99989
100007
100026
100048
100073
100107
100125
100141
100160
100176
100186
100207
100213
100219
100233
100242
100247
100251
100257
100263
100236
100240
100248
100229
100211
100210
100205
100196
100189
100182
100175
100169
100162
100156
100153
100151
100149
100144
100140
100138
100140
100141
100145
100148
100151
100153
100152
100150
100144
100137
100129
100120
100110
100097
100086
100075
100060
100045
100029
100011
99993.9
99975.5
99957.3
99936.1
99916.5
99898.4
99886.1
99859.4
99833
99814.3
99797.7
99781.8
99767.3
99752.7
99735.9
99712.9
99697.3
99684.7
99673.9
99664.6
99655
99646.9
99641.9
99635.5
99631
99626.8
99625.6
99625.5
99625.2
99628.1
99634.4
99641
99653.4
99665.6
99673.5
99678.4
99678.8
99677.3
99681.9
99685.3
99698.2
99707.8
99717.8
99730
99742.9
99753.7
99765.6
99777.9
99787.9
99802.6
99816.6
99829.8
99839.4
99859.9
99876.4
99892.1
99914.7
99934
99953.8
99977.2
99999.8
100023
100050
100073
100102
100130
100160
100189
100219
100250
100279
100312
100343
100373
100405
100437
100469
100502
100532
100563
100594
100624
100652
100679
100704
100722
100740
100760
100780
100800
100817
100836
100853
100869
100886
100904
100915
100927
100937
100946
100954
100962
100968
100972
100973
100974
100974
100973
100971
100968
100965
100962
100957
100951
100944
100937
100928
100919
100909
100898
100886
100874
100861
100848
100834
100819
100805
100789
100774
100758
100741
100725
100708
100692
100675
100658
100642
100625
100609
100593
100577
100562
100547
100532
100518
100505
100492
100479
100468
100456
100446
100437
100428
100420
100413
100407
100401
100397
100394
100391
100390
100389
100390
100391
100394
100396
100400
100405
100411
100418
100426
100435
100444
100455
100466
100478
100490
100503
100517
100532
100547
100563
100579
100596
100613
100631
100649
100667
100685
100704
100723
100742
100762
100781
100801
100820
100839
100859
100878
100897
100916
100935
100953
100971
100989
101007
101024
101041
101057
101073
101088
101103
101117
101131
101144
101157
101169
101180
101190
101200
101209
101217
101224
101231
101237
101242
101246
101249
101251
101253
101254
101254
101253
101251
101248
101245
101240
101235
101229
101222
101214
101206
101197
101187
101176
101166
101154
101142
101130
101117
101104
101090
101077
101063
101049
101035
101022
101008
100994
100981
100968
100955
100943
100931
100919
100908
100898
100888
100879
100870
100862
100855
100849
100843
100839
100835
100831
100829
100827
100827
100827
100827
100828
100831
100834
100838
100842
100847
100853
100859
100866
100873
100881
100890
100899
100908
100918
100928
100938
100949
100959
100971
100982
100993
101005
101016
101028
101040
101051
101063
101075
101086
101098
101110
101121
101132
101143
101154
101165
101176
101186
101196
101206
101216
101225
101234
101243
101252
101260
101268
101275
101283
101289
101296
101302
101308
101313
101318
101322
101327
101331
101334
101337
101340
101342
101344
101345
101346
101347
101347
101347
101347
101346
101345
101344
101342
101341
101339
101336
101334
101332
101329
101327
101324
101322
101319
101317
101314
101312
101310
101308
101306
101304
101303
101302
101301
101300
101300
101300
101300
101301
101301
101302
101304
101305
101307
101309
101311
101313
101315
101317
101320
101323
101329
99560.8
99557.2
99561
99564.6
99567.5
99570.7
99574.8
99579.7
99585.7
99592.5
99600
99608.5
99618.6
99629.1
99640.6
99651.2
99663.4
99665.3
99688.9
99704.2
99719.1
99732.9
99744.2
99759
99771.7
99782.8
99794.9
99807.4
99820
99832.7
99844.2
99853.9
99860.5
99865.6
99872.8
99877.9
99880.2
99884.6
99888.1
99892.1
99893.3
99901.3
99908.6
99924.2
99942.4
99958.2
99979.1
99997.9
100018
100041
100062
100095
100120
100130
100142
100157
100172
100188
100212
100228
100233
100240
100245
100247
100246
100245
100239
100245
100230
100221
100212
100205
100197
100187
100177
100166
100159
100156
100147
100141
100135
100136
100139
100134
100129
100128
100130
100130
100132
100134
100136
100137
100138
100139
100137
100134
100132
100131
100131
100129
100125
100113
100096
100077
100056
100034
100012
99988.1
99964.1
99939.3
99917
99893.4
99873.4
99856.3
99830
99807.9
99788.6
99771.2
99755.1
99742
99725.3
99710.3
99695
99682.9
99672.7
99663.4
99653.8
99641.4
99634.8
99629.5
99625
99621.9
99619.8
99617.7
99615.2
99615
99620.1
99623.2
99625.6
99631.5
99637.3
99641.4
99646.3
99658.6
99666
99676.1
99699.1
99720.3
99733.5
99742.6
99753.7
99761.7
99769.7
99785.4
99794.1
99806.8
99821.3
99836.1
99844.3
99860.4
99875.7
99896.6
99910.8
99934.7
99954.4
99977.6
100003
100027
100054
100077
100103
100132
100161
100190
100222
100252
100281
100308
100336
100364
100396
100429
100461
100496
100527
100560
100593
100625
100655
100686
100715
100736
100757
100780
100801
100823
100841
100860
100876
100893
100902
100910
100918
100927
100936
100944
100951
100958
100964
100971
100974
100975
100976
100976
100975
100973
100970
100966
100960
100952
100945
100937
100928
100918
100910
100899
100887
100875
100862
100848
100834
100820
100805
100789
100774
100758
100742
100725
100709
100692
100675
100659
100642
100626
100609
100593
100578
100562
100547
100532
100518
100505
100492
100479
100468
100457
100446
100437
100428
100420
100413
100407
100401
100397
100394
100391
100390
100389
100390
100391
100393
100396
100400
100405
100411
100418
100426
100435
100444
100454
100465
100477
100490
100503
100517
100532
100547
100563
100579
100596
100613
100630
100648
100667
100685
100704
100723
100742
100762
100781
100801
100820
100840
100859
100878
100897
100916
100935
100953
100972
100990
101007
101024
101041
101057
101073
101089
101104
101118
101132
101145
101157
101169
101180
101191
101201
101209
101218
101225
101232
101237
101242
101246
101250
101252
101254
101255
101254
101253
101251
101249
101245
101241
101236
101229
101222
101215
101206
101197
101187
101177
101166
101155
101143
101130
101117
101104
101091
101077
101063
101050
101036
101022
101008
100995
100981
100968
100955
100943
100931
100919
100908
100898
100888
100879
100870
100862
100855
100849
100843
100839
100835
100831
100829
100827
100827
100827
100827
100828
100831
100834
100838
100842
100847
100853
100859
100866
100873
100881
100890
100898
100908
100917
100927
100938
100948
100959
100971
100982
100993
101005
101017
101028
101040
101052
101064
101075
101087
101099
101110
101121
101133
101144
101155
101166
101176
101186
101197
101207
101216
101226
101235
101244
101252
101260
101268
101276
101283
101290
101296
101302
101308
101313
101318
101323
101328
101331
101335
101337
101340
101342
101344
101346
101347
101347
101348
101347
101347
101346
101345
101344
101342
101341
101339
101336
101334
101332
101329
101327
101324
101321
101319
101316
101314
101312
101309
101307
101305
101304
101302
101301
101300
101299
101299
101299
101299
101299
101300
101301
101302
101304
101306
101308
101310
101313
101316
101318
101320
101324
101329
99559
99555.1
99558.6
99562.5
99565.7
99569.1
99573.3
99578.8
99585
99592.1
99599.7
99608.1
99617.2
99627.6
99638.5
99649.1
99661.2
99663.9
99687.5
99702.4
99718.4
99729
99742.9
99760.1
99773.2
99784.9
99798
99809.6
99818.7
99826.7
99834.6
99841.7
99847.5
99852.4
99859.5
99865.2
99868.1
99871.2
99876.4
99880.9
99885
99893.8
99900.2
99912.9
99929.7
99943.5
99964.1
99980.9
100004
100023
100051
100080
100109
100125
100151
100174
100194
100216
100229
100238
100248
100253
100257
100258
100257
100253
100252
100250
100238
100232
100221
100215
100209
100200
100187
100181
100175
100172
100167
100158
100155
100146
100152
100154
100140
100130
100131
100131
100130
100129
100128
100125
100123
100120
100115
100107
100096
100087
100082
100079
100074
100065
100054
100041
100026
100009
99992
99973.4
99953.2
99932.5
99914.9
99897.5
99879.1
99857.5
99832.5
99812.3
99793
99774.5
99756
99739
99723
99707.2
99692.7
99678.3
99666.8
99657.5
99647.6
99638.2
99631.4
99624.9
99620.9
99614.9
99612.2
99611
99610.7
99612.3
99615.2
99617.4
99623
99632.2
99642.9
99653.3
99663.2
99678.2
99687.6
99686.2
99691.5
99706.5
99716.1
99717.2
99723.3
99739.5
99749.8
99767.7
99786.6
99801.9
99810.5
99821.1
99827.8
99838.1
99853.9
99866.6
99902.5
99919.5
99943
99970
99994.9
100021
100049
100072
100101
100131
100160
100192
100222
100254
100286
100318
100349
100379
100411
100442
100472
100503
100530
100559
100583
100608
100635
100665
100693
100719
100745
100770
100794
100815
100836
100856
100875
100895
100909
100917
100928
100940
100950
100958
100965
100973
100979
100977
100974
100974
100974
100972
100971
100968
100967
100964
100959
100953
100946
100938
100930
100920
100911
100900
100887
100875
100862
100848
100835
100820
100805
100790
100774
100758
100742
100725
100709
100692
100675
100659
100642
100626
100609
100593
100577
100562
100547
100532
100518
100504
100491
100479
100467
100456
100446
100436
100427
100420
100412
100406
100401
100397
100393
100391
100389
100389
100389
100391
100393
100396
100400
100405
100411
100418
100425
100434
100444
100454
100465
100477
100490
100503
100517
100531
100547
100562
100579
100595
100613
100630
100648
100667
100685
100704
100723
100742
100762
100781
100801
100820
100840
100859
100878
100897
100916
100935
100954
100972
100990
101007
101025
101041
101058
101074
101089
101104
101118
101132
101145
101158
101170
101181
101191
101201
101210
101218
101225
101232
101238
101243
101247
101250
101253
101254
101255
101255
101254
101252
101249
101246
101241
101236
101230
101223
101215
101207
101197
101188
101177
101166
101155
101143
101130
101117
101104
101091
101077
101063
101049
101036
101022
101008
100994
100981
100968
100955
100942
100930
100919
100908
100897
100888
100878
100870
100862
100855
100849
100843
100838
100834
100831
100829
100827
100826
100826
100827
100828
100831
100834
100837
100842
100847
100852
100859
100866
100873
100881
100890
100898
100908
100917
100928
100938
100949
100960
100971
100982
100993
101005
101017
101029
101040
101052
101064
101076
101087
101099
101110
101122
101133
101144
101155
101166
101177
101187
101197
101207
101217
101226
101235
101244
101252
101261
101269
101276
101283
101290
101297
101303
101309
101314
101319
101323
101328
101332
101335
101338
101341
101343
101345
101346
101347
101348
101348
101348
101347
101347
101346
101344
101343
101341
101339
101337
101334
101332
101329
101327
101324
101322
101319
101317
101314
101312
101310
101308
101306
101304
101303
101301
101300
101300
101299
101299
101299
101300
101301
101302
101303
101305
101307
101309
101311
101313
101316
101318
101320
101323
101328
99557.5
99554
99556.5
99560.6
99563.9
99567.1
99570.8
99575.6
99581.7
99588.6
99596.2
99604.7
99614.2
99624.5
99635.5
99646.4
99659.4
99663.4
99685.3
99699.1
99714.5
99728.6
99739.2
99756
99770.8
99783.8
99797.9
99810.5
99819.5
99827.6
99834.9
99841.3
99845.7
99848.2
99852.5
99853.5
99853.8
99855.9
99859.1
99863.4
99869.6
99878.7
99888.4
99901.1
99915.8
99931.8
99948.5
99969.7
99994.6
100017
100044
100075
100101
100130
100157
100183
100205
100225
100239
100248
100254
100258
100261
100263
100262
100260
100256
100257
100242
100228
100221
100210
100203
100194
100179
100168
100155
100156
100164
100151
100136
100136
100149
100131
100123
100120
100120
100119
100120
100122
100125
100127
100130
100134
100138
100141
100136
100126
100114
100100
100086
100070
100054
100037
100020
100001
99982.1
99962.1
99940.4
99917.3
99895.7
99878.5
99864.4
99845.1
99821.3
99802.3
99783.7
99766.7
99749.6
99735.8
99721.2
99704.9
99691
99676.6
99664.3
99652.9
99642.6
99633.3
99625.7
99619.9
99614.8
99611.2
99607.1
99606.4
99604.9
99605.1
99609.4
99614
99622.2
99631.1
99640.3
99648.5
99652.8
99654.3
99655.1
99661.1
99670.1
99686.8
99705
99717.2
99727.2
99749.9
99771.9
99781.4
99786.1
99799.2
99806.8
99809.5
99819.8
99827.5
99854
99880.8
99904.4
99925.2
99943
99964.5
99991.7
100020
100048
100071
100099
100127
100156
100185
100214
100244
100276
100310
100343
100376
100411
100444
100474
100509
100544
100575
100599
100626
100652
100676
100701
100725
100747
100769
100790
100810
100827
100842
100858
100876
100893
100909
100919
100931
100942
100951
100959
100968
100978
100979
100979
100980
100981
100982
100981
100980
100977
100969
100959
100953
100946
100938
100929
100919
100910
100900
100888
100875
100863
100850
100836
100821
100805
100790
100775
100759
100742
100726
100709
100692
100676
100659
100642
100626
100609
100593
100577
100562
100547
100532
100518
100504
100491
100479
100467
100456
100446
100436
100427
100419
100412
100406
100401
100396
100393
100390
100389
100389
100389
100390
100393
100396
100399
100404
100410
100417
100425
100434
100443
100454
100465
100477
100489
100502
100516
100531
100546
100562
100578
100595
100612
100630
100648
100666
100685
100704
100723
100742
100762
100781
100801
100820
100840
100859
100878
100898
100917
100935
100954
100972
100990
101008
101025
101042
101058
101074
101089
101104
101119
101133
101146
101158
101170
101181
101192
101202
101211
101219
101226
101233
101238
101243
101248
101251
101253
101255
101256
101255
101254
101252
101250
101246
101242
101236
101230
101223
101216
101207
101198
101188
101178
101166
101155
101143
101130
101117
101104
101091
101077
101063
101049
101036
101022
101008
100994
100981
100968
100955
100942
100930
100919
100908
100897
100887
100878
100870
100862
100855
100848
100843
100838
100834
100831
100828
100827
100826
100826
100827
100828
100830
100833
100837
100842
100847
100852
100859
100866
100873
100881
100889
100898
100908
100917
100928
100938
100949
100960
100971
100982
100994
101005
101017
101029
101041
101052
101064
101076
101088
101099
101111
101122
101134
101145
101156
101167
101177
101188
101198
101208
101217
101227
101236
101245
101253
101261
101269
101277
101284
101291
101297
101303
101309
101314
101319
101324
101328
101332
101336
101338
101341
101343
101345
101347
101348
101348
101348
101348
101348
101347
101346
101344
101343
101341
101339
101337
101334
101332
101329
101327
101324
101322
101319
101316
101314
101312
101309
101307
101306
101304
101302
101301
101300
101300
101299
101299
101299
101299
101300
101301
101302
101304
101305
101307
101310
101312
101315
101317
101320
101323
101328
99554.6
99552.2
99553.2
99557.6
99560.8
99564.3
99568.5
99573.9
99579.9
99586.9
99594.6
99603.1
99612.5
99622.9
99634.1
99645.7
99659.2
99664.8
99686.1
99700.7
99718
99725.5
99740.6
99757.6
99771.6
99785.1
99798.2
99810.4
99819.4
99828.1
99835.8
99841.6
99844.6
99845
99847.8
99845.9
99843.6
99841.4
99840.6
99841.4
99846.3
99852.3
99859.6
99870.2
99887.1
99901.9
99928.2
99949.9
99980
100009
100040
100073
100106
100135
100165
100194
100219
100239
100253
100266
100273
100276
100276
100274
100271
100266
100262
100265
100248
100237
100230
100221
100213
100199
100182
100172
100169
100161
100159
100152
100151
100142
100126
100139
100129
100113
100110
100109
100108
100106
100105
100102
100095
100087
100087
100091
100093
100092
100088
100081
100073
100062
100049
100034
100018
99999.8
99981.1
99962
99942.6
99921.8
99900.3
99878.9
99860.9
99840.2
99816.6
99797
99777.3
99758.8
99740.3
99725.5
99712.3
99697.1
99682.9
99668.5
99658.3
99647.7
99637.3
99627.6
99619.7
99612.8
99607.4
99603.2
99601.1
99599.5
99598
99599.6
99602.8
99606.1
99612.9
99619.2
99624.3
99630.4
99638.5
99646.3
99654.5
99669.1
99687.7
99705.7
99720.8
99732.5
99741.4
99740
99746.6
99758.6
99764.8
99783.7
99805.1
99810.3
99815.8
99830.6
99845.8
99868.4
99893.6
99908.4
99927.6
99956.2
99978.2
100010
100044
100067
100096
100125
100152
100184
100215
100245
100275
100307
100338
100369
100401
100430
100457
100492
100526
100554
100584
100615
100644
100672
100699
100726
100751
100775
100801
100825
100844
100857
100871
100886
100900
100913
100922
100932
100941
100949
100955
100960
100965
100971
100973
100974
100975
100975
100975
100973
100971
100967
100960
100955
100948
100941
100933
100924
100914
100902
100889
100876
100862
100850
100836
100821
100806
100791
100775
100759
100743
100726
100709
100693
100676
100659
100642
100626
100609
100593
100577
100562
100547
100532
100518
100504
100491
100479
100467
100456
100445
100436
100427
100419
100412
100406
100400
100396
100392
100390
100388
100388
100388
100390
100392
100395
100399
100404
100410
100417
100425
100433
100443
100453
100464
100476
100489
100502
100516
100531
100546
100562
100578
100595
100612
100630
100648
100666
100685
100704
100723
100742
100762
100781
100801
100820
100840
100859
100878
100898
100917
100935
100954
100972
100990
101008
101025
101042
101058
101074
101090
101105
101119
101133
101146
101159
101171
101182
101192
101202
101211
101219
101227
101233
101239
101244
101248
101252
101254
101256
101256
101256
101255
101253
101250
101247
101242
101237
101231
101224
101216
101207
101198
101188
101178
101167
101155
101143
101131
101118
101104
101091
101077
101063
101049
101035
101022
101008
100994
100981
100967
100954
100942
100930
100918
100907
100897
100887
100878
100869
100861
100854
100848
100842
100838
100834
100830
100828
100826
100826
100826
100827
100828
100830
100833
100837
100841
100846
100852
100858
100865
100873
100881
100889
100898
100908
100918
100928
100938
100949
100960
100971
100982
100994
101005
101017
101029
101041
101053
101065
101076
101088
101100
101111
101123
101134
101145
101156
101167
101178
101188
101198
101208
101218
101227
101236
101245
101254
101262
101270
101277
101285
101291
101298
101304
101310
101315
101320
101324
101329
101333
101336
101339
101342
101344
101346
101347
101348
101349
101349
101349
101348
101347
101346
101345
101343
101341
101339
101337
101335
101332
101330
101327
101324
101322
101319
101317
101314
101312
101309
101307
101305
101304
101302
101301
101300
101299
101299
101299
101299
101299
101300
101301
101302
101304
101306
101308
101310
101312
101315
101317
101319
101322
101326
99552.3
99551.3
99549.9
99554.6
99557.5
99560.8
99564.6
99569.8
99576
99583.1
99590.8
99599.2
99608.8
99619.2
99630.5
99642.3
99656.5
99663
99683.2
99697.4
99716.7
99730.8
99740
99757.7
99775.7
99788.7
99801.2
99812.6
99820.3
99828.2
99835.2
99840
99841.7
99840.5
99842
99837.7
99833.9
99828.8
99825.4
99827.1
99829.9
99831.7
99841.1
99850.4
99861
99888.2
99916.4
99944.9
99972.6
100002
100038
100073
100106
100139
100170
100199
100224
100243