/*--------------------------------*- C++ -*----------------------------------*\
| =========                 |                                                 |
| \\      /  F ield         | OpenFOAM: The Open Source CFD Toolbox           |
|  \\    /   O peration     | Version:  v1812                                 |
|   \\  /    A nd           | Web:      www.OpenFOAM.com                      |
|    \\/     M anipulation  |                                                 |
\*---------------------------------------------------------------------------*/
FoamFile
{
    version     2.0;
    format      ascii;
    class       surfaceScalarField;
    location    "0.6";
    object      phi;
}
// * * * * * * * * * * * * * * * * * * * * * * * * * * * * * * * * * * * * * //

dimensions      [1 0 -1 0 0 0 0];
oriented        oriented;


internalField   nonuniform List<scalar> 
40240
(
-0.000792793
0.000178507
-0.00156812
0.000161829
-0.00215378
-2.7005e-05
-0.00263802
-0.000127364
-0.00309656
-0.00015294
-0.00357121
-0.000135926
-0.0040842
-9.55455e-05
-0.00462999
-5.9761e-05
-0.00518889
-4.23519e-05
-0.00575157
-3.42728e-05
-0.00630855
-3.73109e-05
-0.00685917
-3.88457e-05
-0.0074051
-4.03952e-05
-0.00795081
-3.36673e-05
-0.00847829
-4.54074e-05
-0.00892659
-0.000116845
-0.00928985
-0.000195658
-0.0095118
-0.000329199
-0.00973895
-0.000319962
-0.0103683
8.94944e-05
-0.0111235
0.000223166
-0.0119192
0.000269984
-0.0126176
0.000179128
-0.0131759
4.60909e-05
-0.0137271
4.68105e-05
-0.0143695
0.000142744
-0.0150039
0.000137105
-0.0155512
5.30869e-05
-0.0160464
9.54439e-06
-0.0166002
7.40909e-05
-0.0172884
0.000218358
-0.0181089
0.000365515
-0.019005
0.000458344
-0.0199009
0.000474409
-0.0207557
0.000450891
-0.0216861
0.000551194
-0.022863
0.000818862
-0.0242015
0.000998097
-0.0256211
0.00109732
-0.0272892
0.00136176
-0.0291902
0.00161327
-0.0297861
0.000294723
-0.0305334
0.000464034
-0.0307571
-8.0901e-05
-0.0309892
-6.34545e-05
-0.0312997
2.03829e-05
-0.0315406
-3.45249e-05
-0.0317099
-0.000103939
-0.0317669
-0.000212789
-0.0317739
-0.000259372
-0.0318724
-0.000164284
-0.0319409
-0.000196465
-0.0314919
-0.00070909
-0.0303714
-0.00137259
-0.0297212
-0.000888526
-0.0296047
-0.000344922
-0.029428
-0.000395405
-0.0294789
-0.000160861
-0.0291849
-0.000498109
-0.0289925
-0.000385595
-0.0287663
-0.00040555
-0.0286549
-0.000274175
-0.0287476
-6.05882e-05
-0.0290846
0.000187626
-0.0296294
0.000415362
-0.0302942
0.000545767
-0.0310261
0.0006021
-0.0317473
0.000609339
-0.0325089
0.000688924
-0.0332579
0.000663319
-0.0339688
0.000614401
-0.0346742
0.000635148
-0.0354415
0.000710396
-0.0362741
0.000779969
-0.0371482
0.000833973
-0.0380091
0.000828183
-0.0387921
0.000758456
-0.0394827
0.000673358
-0.0400393
0.000545777
-0.0403231
0.000278703
-0.0403618
4.17186e-05
-0.0403358
-1.59251e-05
-0.0402686
-4.87737e-05
-0.0402276
-1.74881e-05
-0.0399074
-0.000292586
-0.0392985
-0.000576437
-0.0384581
-0.000803166
-0.0374422
-0.00097763
-0.0362415
-0.00115928
-0.0348811
-0.00131377
-0.0333759
-0.00145079
-0.0317509
-0.00156516
-0.0300255
-0.00166105
-0.0282294
-0.00172658
-0.0263764
-0.00177619
-0.0244649
-0.00182904
-0.0225405
-0.00183792
-0.0206614
-0.00178927
-0.0188513
-0.00171795
-0.0170718
-0.00168537
-0.0152074
-0.00176266
-0.0131079
-0.00200296
-0.0110475
-0.00195986
-0.00913783
-0.00180784
-0.00742563
-0.00161085
-0.00594274
-0.00138143
-0.00470756
-0.00113487
-0.00370517
-0.000907828
-0.00294946
-0.000651977
-0.00275247
-9.6792e-05
-0.00268888
4.32342e-05
-0.00239828
-0.000185592
-0.0018068
-0.000506016
-0.00108724
-0.00063055
-0.000566682
-0.000429109
-0.000246495
-0.00022968
-7.28296e-05
-8.6306e-05
-1.80656e-07
1.15774e-05
1.35833e-05
6.75023e-05
2.15163e-05
6.73858e-05
2.36658e-05
7.42258e-05
-6.22446e-05
0.000159166
-0.000267626
0.000269817
-0.000555591
0.000350174
-0.0008613
0.000363218
-0.00115013
0.000341325
-0.00142784
0.000325577
-0.00173281
0.000348362
-0.00207673
0.000382535
-0.0024441
0.000401533
-0.00279667
0.000381631
-0.00312329
0.000350331
-0.00342112
0.00031606
-0.00374767
0.000339949
-0.00406632
0.000326952
-0.0045418
0.000478422
-0.00507179
0.000526519
-0.0053674
0.000288389
-0.00540451
2.63586e-05
-0.00525962
-0.000163507
-0.00485107
-0.000434286
-0.00446854
-0.000413387
-0.0045139
8.05337e-06
-0.00492179
0.000353866
-0.0055364
0.000563723
-0.00601012
0.000413112
-0.00619877
0.000120191
-0.00623055
-4.24901e-05
-0.00627539
-3.62143e-05
-0.00636888
6.77758e-06
-0.00662024
0.000157355
-0.00707472
0.000356033
-0.00755978
0.000377983
-0.00785372
0.000180772
-0.00814731
0.00017911
-0.00853769
0.000270555
-0.00910909
0.000446516
-0.00990924
0.000670894
-0.0109412
0.000897955
-0.0119662
0.000886859
-0.0129479
0.000839102
-0.0138446
0.000750388
-0.0146247
0.00063003
-0.0153571
0.000579356
-0.0160722
0.000559166
-0.0167285
0.000497251
-0.0173162
0.000426125
-0.0178903
0.000411211
-0.0184287
0.000372275
-0.0189589
0.000362816
-0.0194706
0.000343339
-0.0199536
0.000313161
-0.020407
0.000282645
-0.0208383
0.000260192
-0.0212306
0.00021954
-0.021575
0.000173964
-0.0218607
0.000105956
-0.0220207
2.52532e-05
-0.0221503
-3.85013e-05
-0.0222237
-0.000100009
-0.022216
-0.000176531
-0.0221675
-0.000215474
-0.0221059
-0.000227835
-0.0220071
-0.000264051
-0.0219056
-0.00026519
-0.0217529
-0.000314152
-0.0215244
-0.000386299
-0.021271
-0.000406356
-0.0210397
-0.000379062
-0.02082
-0.000363129
-0.0205424
-0.000417919
-0.0201314
-0.000548361
-0.0196428
-0.000621905
-0.0191841
-0.000590283
-0.018811
-0.000500155
-0.0184317
-0.000514353
-0.0181783
-0.000372092
-0.017899
-0.000389839
-0.0176197
-0.000379965
-0.017347
-0.000366696
-0.0170386
-0.000396239
-0.01668
-0.000440422
-0.0163611
-0.000393484
-0.0160814
-0.000346656
-0.0158368
-0.000303947
-0.0156279
-0.000260831
-0.0154366
-0.000235966
-0.0152438
-0.000229972
-0.0150629
-0.00021032
-0.0148738
-0.000210296
-0.0147064
-0.000179908
-0.0145535
-0.000157562
-0.0144122
-0.000139529
-0.0142702
-0.000133101
-0.014132
-0.000121258
-0.0139982
-0.000109136
-0.0138651
-9.97729e-05
-0.0137318
-9.16706e-05
-0.0136098
-7.18709e-05
-0.0134944
-5.70585e-05
-0.0133805
-4.76948e-05
-0.0132612
-4.54512e-05
-0.0131377
-4.22147e-05
-0.013008
-4.12461e-05
-0.0128706
-4.18895e-05
-0.0127286
-3.96252e-05
-0.0125844
-3.52204e-05
-0.0124375
-3.15244e-05
-0.0122881
-2.81901e-05
-0.0121337
-2.75071e-05
-0.0119725
-2.91436e-05
-0.0118075
-2.80805e-05
-0.0116391
-2.69937e-05
-0.011467
-2.66162e-05
-0.0112908
-2.70565e-05
-0.0111114
-2.71208e-05
-0.010929
-2.72522e-05
-0.0107443
-2.72988e-05
-0.0105576
-2.73368e-05
-0.0103693
-2.74578e-05
-0.0101798
-2.7582e-05
-0.00998967
-2.76308e-05
-0.00979966
-2.75003e-05
-0.00961039
-2.71937e-05
-0.00942255
-2.66649e-05
-0.00923683
-2.5932e-05
-0.00905384
-2.5099e-05
-0.00887409
-2.42541e-05
-0.00869801
-2.3465e-05
-0.00852594
-2.28054e-05
-0.00835822
-2.22731e-05
-0.00819526
-2.1775e-05
-0.00803758
-2.12026e-05
-0.00788573
-2.04937e-05
-0.00774026
-1.96434e-05
-0.00760164
-1.86765e-05
-0.00747029
-1.76435e-05
-0.00734655
-1.65997e-05
-0.00723066
-1.56192e-05
-0.00712277
-1.47571e-05
-0.00702302
-1.39949e-05
-0.00693151
-1.3305e-05
-0.00684833
-1.26833e-05
-0.00677381
-1.21294e-05
-0.00670822
-1.16548e-05
-0.00665219
-1.13033e-05
-0.00660549
-1.10332e-05
-0.00656576
-1.07915e-05
-0.00653424
-1.07518e-05
-0.00651193
-1.06679e-05
-0.0064979
-1.09758e-05
-0.00649338
-1.04961e-05
-0.00649451
-1.02975e-05
-0.00650706
-1.12044e-05
-0.00652923
-1.06712e-05
-0.00655979
-1.09072e-05
-0.00659907
-1.1173e-05
-0.00664674
-1.12577e-05
-0.00670298
-1.13479e-05
-0.00676736
-1.16013e-05
-0.00683963
-1.19641e-05
-0.00691956
-1.23523e-05
-0.00700691
-1.27787e-05
-0.00710139
-1.3257e-05
-0.0072027
-1.37946e-05
-0.00731054
-1.43776e-05
-0.00742462
-1.49847e-05
-0.00754464
-1.56271e-05
-0.00767029
-1.62947e-05
-0.00780123
-1.69897e-05
-0.00793712
-1.77034e-05
-0.00807759
-1.84514e-05
-0.00822227
-1.92321e-05
-0.00837075
-2.00411e-05
-0.00852264
-2.08558e-05
-0.00867754
-2.16812e-05
-0.00883504
-2.2516e-05
-0.00899472
-2.33613e-05
-0.0091562
-2.42093e-05
-0.0093191
-2.50215e-05
-0.00948303
-2.58169e-05
-0.00964761
-2.65773e-05
-0.00981241
-2.73246e-05
-0.00997698
-2.80883e-05
-0.0101408
-2.8861e-05
-0.0103035
-2.96694e-05
-0.0104646
-3.04609e-05
-0.0106235
-3.12888e-05
-0.0107799
-3.21425e-05
-0.0109333
-3.2968e-05
-0.0110832
-3.37781e-05
-0.0112292
-3.45689e-05
-0.0113709
-3.52938e-05
-0.0115081
-3.59414e-05
-0.0116402
-3.65417e-05
-0.0117668
-3.7126e-05
-0.0118876
-3.7715e-05
-0.0120021
-3.83062e-05
-0.0121099
-3.88812e-05
-0.0122106
-3.94155e-05
-0.0123041
-3.98612e-05
-0.0123899
-4.02096e-05
-0.0124679
-4.0477e-05
-0.0125378
-4.0676e-05
-0.0125992
-4.08288e-05
-0.0126519
-4.09481e-05
-0.0126956
-4.10194e-05
-0.0127301
-4.10852e-05
-0.0127548
-4.12308e-05
-0.0127702
-4.12842e-05
-0.0127742
-4.22022e-05
-0.0127723
-4.1734e-05
-0.0127589
-4.03877e-05
-0.0127369
-3.99689e-05
-0.012705
-3.95784e-05
-0.0126617
-3.95817e-05
-0.0126078
-3.94991e-05
-0.0125456
-3.92726e-05
-0.0124742
-3.87054e-05
-0.0123932
-3.8263e-05
-0.012303
-3.76813e-05
-0.0122033
-3.70675e-05
-0.012094
-3.63878e-05
-0.0119758
-3.57194e-05
-0.011849
-3.50118e-05
-0.0117142
-3.42789e-05
-0.0115717
-3.35048e-05
-0.0114218
-3.26989e-05
-0.011265
-3.18728e-05
-0.0111017
-3.10445e-05
-0.0109324
-3.02083e-05
-0.0107577
-2.93635e-05
-0.010578
-2.84992e-05
-0.010394
-2.76091e-05
-0.0102063
-2.66839e-05
-0.0100156
-2.57213e-05
-0.0098225
-2.46998e-05
-0.00962775
-2.36369e-05
-0.00943204
-2.25537e-05
-0.00923604
-2.14737e-05
-0.00904037
-2.04395e-05
-0.00884567
-1.94476e-05
-0.0086526
-1.8446e-05
-0.00846189
-1.73874e-05
-0.00827413
-1.63713e-05
-0.00808999
-1.53597e-05
-0.00791009
-1.43449e-05
-0.00773504
-1.33333e-05
-0.00756549
-1.22811e-05
-0.007402
-1.12457e-05
-0.00724501
-1.02999e-05
-0.00709492
-9.48379e-06
-0.00695211
-8.78147e-06
-0.00681701
-8.11718e-06
-0.00669014
-7.41459e-06
-0.006572
-6.64746e-06
-0.00646305
-5.81742e-06
-0.00636365
-4.97878e-06
-0.00627401
-4.19014e-06
-0.00619417
-3.51088e-06
-0.00612416
-2.96658e-06
-0.00606371
-2.51901e-06
-0.00601324
-2.18229e-06
-0.0059725
-1.86725e-06
-0.00594331
-1.30775e-06
-0.0059247
-9.9313e-07
-0.00591741
1.33357e-06
-0.00591646
3.13304e-07
-0.0059259
-9.80398e-07
-0.00594818
7.42651e-07
-0.00597887
5.81881e-07
-0.00601898
5.747e-07
-0.00606838
5.8036e-07
-0.00612695
5.78985e-07
-0.00619468
5.69232e-07
-0.0062712
5.35255e-07
-0.00635619
4.56517e-07
-0.00644924
4.08454e-07
-0.00655002
3.53831e-07
-0.00665825
2.89295e-07
-0.00677354
1.46689e-07
-0.00689541
-1.6498e-07
-0.00702356
-3.07244e-07
-0.00715765
-2.5309e-07
-0.00729725
-6.81612e-08
-0.00744182
-2.60799e-07
-0.00759062
3.73321e-07
-0.00774361
-7.17315e-07
-0.0079002
-2.59861e-06
-0.0080599
-9.95642e-07
-0.00822262
-1.78871e-06
-0.00838721
-2.04432e-06
-0.00855366
-2.62566e-06
-0.00872128
-2.75666e-06
-0.00888952
-2.86869e-06
-0.00905798
-2.84496e-06
-0.00922603
-2.72184e-06
-0.00939322
-2.59714e-06
-0.00955909
-2.51213e-06
-0.00972314
-2.36703e-06
-0.00988499
-2.23873e-06
-0.0100442
-2.06366e-06
-0.0102001
-2.08465e-06
-0.0103522
-2.23411e-06
-0.0104999
-2.38948e-06
-0.010643
-2.54699e-06
-0.0107809
-3.02429e-06
-0.0109134
-3.3533e-06
-0.0110396
-3.84719e-06
-0.0111594
-7.00288e-06
-0.0112737
-1.10784e-05
-0.0113771
7.52063e-07
-0.0114764
-5.72852e-06
-0.0115677
-6.73245e-06
-0.0116504
-6.67508e-06
-0.0117248
-6.91524e-06
-0.0117903
-7.32312e-06
-0.0118465
-7.27511e-06
-0.0118937
-7.09987e-06
-0.0119313
-7.33239e-06
-0.0119592
-7.51692e-06
-0.0119775
-7.81698e-06
-0.0119848
-9.0865e-06
-0.0119842
-8.5048e-06
-0.0119745
-7.16066e-06
-0.0119538
-8.93939e-06
-0.0119231
-9.60898e-06
-0.0118827
-1.02833e-05
-0.0118323
-1.0591e-05
-0.011772
-1.10111e-05
-0.011702
-1.12692e-05
-0.0116226
-1.15745e-05
-0.0115341
-1.18096e-05
-0.0114365
-1.20809e-05
-0.0113297
-1.23898e-05
-0.011214
-1.27458e-05
-0.0110905
-1.31282e-05
-0.0109593
-1.35021e-05
-0.0108206
-1.39034e-05
-0.010675
-1.43573e-05
-0.010523
-1.47873e-05
-0.0103649
-1.52265e-05
-0.0102009
-1.57189e-05
-0.0100317
-1.622e-05
-0.00985775
-1.67421e-05
-0.00967984
-1.72626e-05
-0.00949847
-1.77557e-05
-0.00931415
-1.82335e-05
-0.00912743
-1.8725e-05
-0.00893883
-1.93143e-05
-0.00874889
-1.99227e-05
-0.00855815
-2.05833e-05
-0.00836716
-2.12864e-05
-0.00817634
-2.21085e-05
-0.00798629
-2.28439e-05
-0.00779784
-2.32805e-05
-0.00761148
-2.36804e-05
-0.00742771
-2.40801e-05
-0.00724715
-2.44013e-05
-0.00707043
-2.45887e-05
-0.0068982
-2.46785e-05
-0.00673112
-2.46269e-05
-0.00656978
-2.44875e-05
-0.00641459
-2.43271e-05
-0.00626506
-2.46352e-05
-0.00612038
-2.60717e-05
-0.00597884
-2.9684e-05
-0.00583803
-3.60813e-05
-0.00569537
-4.54558e-05
-0.00554849
-5.74816e-05
-0.00539526
-7.19733e-05
-0.00523291
-8.92206e-05
-0.00505472
-0.00011389
-0.00485002
-0.000149732
-0.00460446
-0.00019817
-0.00430538
-0.000264562
-0.00405036
-0.000225299
-0.00381963
-0.000209218
-0.00363093
-0.000174117
-4.43273e-05
-0.000711774
0.000276697
-0.00145638
0.000292509
-0.00212382
2.66759e-05
-0.00274756
-0.000118098
-0.00337209
-0.000142108
-0.00400465
-0.000115451
-0.0046464
-6.34285e-05
-0.00529183
-1.97923e-05
-0.00593378
-2.23872e-06
-0.00656505
6.81561e-07
-0.00717742
-1.31561e-05
-0.00776885
-3.27469e-05
-0.00842235
3.8293e-05
-0.00911046
8.12888e-05
-0.00978927
6.55826e-05
-0.0104202
-5.17272e-05
-0.0109431
-0.000232688
-0.0112736
-0.000547981
-0.0122108
7.23619e-05
-0.0132077
0.00054634
-0.0141311
0.000614276
-0.0150418
0.000655456
-0.0159032
0.000521596
-0.0167484
0.000379082
-0.0177918
0.00058308
-0.0191343
0.000982658
-0.0207449
0.00124786
-0.0225534
0.00136516
-0.0244573
0.00141543
-0.026372
0.00149732
-0.0283134
0.00168651
-0.0303249
0.0019256
-0.0324498
0.00215166
-0.0347036
0.00232105
-0.0370612
0.00243158
-0.03943
0.00256803
-0.0415836
0.00263873
-0.0431961
0.00228944
-0.0441469
0.00173278
-0.0447944
0.00170006
-0.0452594
0.00177648
-0.0469596
0.00169838
-0.0485268
0.00171835
-0.0499341
0.00101139
-0.051208
0.000899429
-0.0520153
0.000521614
-0.0523701
1.83944e-05
-0.0523683
-0.000399179
-0.0520646
-0.00080613
-0.0516875
-0.000923849
-0.0514643
-0.000680551
-0.0518651
-9.33621e-05
-0.0519637
-0.000883279
-0.0513463
-0.00225676
-0.0499354
-0.00254778
-0.0482382
-0.00227688
-0.0474747
-0.00138168
-0.0490308
0.00117099
-0.0512808
0.00154286
-0.0529271
0.00105908
-0.0541596
0.000639853
-0.055192
0.00059348
-0.0560941
0.000696481
-0.0569649
0.000917028
-0.0579243
0.00118719
-0.0590307
0.00146164
-0.0600959
0.0016149
-0.0612713
0.0016511
-0.0625904
0.00183462
-0.0638466
0.00181734
-0.0650321
0.00172734
-0.0661276
0.00168746
-0.0670185
0.00152757
-0.0676237
0.00133515
-0.0679122
0.00107433
-0.0679319
0.000808407
-0.0677734
0.000571767
-0.0672963
0.000175889
-0.0666535
-0.000112206
-0.0658393
-0.000542082
-0.0647803
-0.00101471
-0.0634502
-0.00133542
-0.0620201
-0.00146124
-0.0606146
-0.00139917
-0.0590804
-0.00179975
-0.0573957
-0.00222922
-0.0555368
-0.00262553
-0.0535106
-0.00296018
-0.0512865
-0.00333761
-0.0488653
-0.00368956
-0.0462323
-0.00403147
-0.0433829
-0.00435141
-0.0403336
-0.00464007
-0.0371545
-0.00483278
-0.0339181
-0.00493585
-0.0306327
-0.00503266
-0.0273175
-0.00506734
-0.0241046
-0.00491561
-0.0211511
-0.00458178
-0.0185716
-0.00417334
-0.016506
-0.00374921
-0.014953
-0.00346019
-0.0133303
-0.00348832
-0.0116088
-0.00343459
-0.00985344
-0.00326982
-0.00812884
-0.00301004
-0.00648836
-0.00267985
-0.00498428
-0.0023127
-0.00351748
-0.00201944
-0.00140828
-0.00209402
0.000713627
-0.00197561
0.00234356
-0.00171766
0.0036634
-0.001722
0.00475184
-0.00162237
0.00554587
-0.00112843
0.00611471
-0.000702181
0.00651797
-0.000398225
0.00677374
-0.000158372
0.00690946
1.41687e-05
0.00697844
7.76325e-05
0.00698108
0.000149676
0.00683735
0.000374188
0.00654447
0.000630922
0.00612527
0.000832471
0.00562196
0.000924771
0.00506452
0.000951386
0.00445035
0.00098761
0.00375323
0.00108869
0.00295168
0.00122235
0.00202113
0.00136567
0.000958254
0.00147278
-0.000264687
0.001596
-0.00164881
0.00171738
-0.00308566
0.00178895
-0.00425257
0.00150209
-0.00488845
0.0011169
-0.00544573
0.00108114
-0.0059734
0.000807631
-0.00643468
0.0004728
-0.00677815
0.000160016
-0.00704451
-0.000192884
-0.00722328
-0.00026822
-0.00754257
0.000290267
-0.00844836
0.00121566
-0.00952958
0.0015923
-0.0106327
0.00145656
-0.0116525
0.00107382
-0.0126363
0.00086825
-0.0136054
0.000852878
-0.0145927
0.000907939
-0.0156239
0.00109696
-0.0167004
0.00133534
-0.0177965
0.00136624
-0.0189534
0.00123013
-0.0202251
0.00133583
-0.0215194
0.00144366
-0.0228536
0.00165528
-0.0242901
0.0019776
-0.0258388
0.00231211
-0.0273162
0.00222565
-0.028724
0.00210385
-0.0300306
0.0019101
-0.0312108
0.00165941
-0.0323324
0.00154728
-0.0333898
0.00145987
-0.0343426
0.00129072
-0.0352155
0.00113861
-0.0360069
0.00103993
-0.0366985
0.000898614
-0.037328
0.000826505
-0.0378231
0.000671425
-0.0381921
0.000514275
-0.0384373
0.000359658
-0.0385643
0.000217462
-0.0385655
5.05524e-05
-0.0384957
-6.59649e-05
-0.0383743
-0.000192377
-0.0381335
-0.000413327
-0.0377867
-0.000558269
-0.0373856
-0.000669805
-0.0369171
-0.000813075
-0.0363991
-0.000900323
-0.0358615
-0.000931343
-0.0352887
-0.001002
-0.034723
-0.000994963
-0.0341277
-0.00107148
-0.0334891
-0.00118377
-0.0328303
-0.00121985
-0.0321816
-0.00117787
-0.0315554
-0.00113605
-0.0309267
-0.00119014
-0.030251
-0.00136331
-0.029535
-0.00147155
-0.0288048
-0.00145232
-0.028136
-0.0012988
-0.028031
-0.000756399
-0.0279597
-0.000561198
-0.0277611
-0.000698469
-0.0274793
-0.000765725
-0.027153
-0.000789856
-0.0267947
-0.000845301
-0.0264138
-0.000905538
-0.0260451
-0.000838314
-0.0256922
-0.00076701
-0.0253592
-0.00069622
-0.0250516
-0.000619988
-0.0247669
-0.000564989
-0.0244988
-0.000534656
-0.0242525
-0.000485672
-0.0240153
-0.000468015
-0.0237978
-0.000409655
-0.0235958
-0.000363889
-0.0234101
-0.00032168
-0.0232375
-0.000295583
-0.0230802
-0.000262092
-0.0229331
-0.000230796
-0.0227918
-0.000206628
-0.0226546
-0.000186262
-0.0225258
-0.000149755
-0.0224022
-0.000121489
-0.0222825
-0.000100315
-0.0221641
-8.91804e-05
-0.0220468
-7.73972e-05
-0.0219282
-7.05721e-05
-0.0218065
-6.7209e-05
-0.0216819
-6.1115e-05
-0.0215545
-5.28345e-05
-0.0214237
-4.61991e-05
-0.0212894
-4.05183e-05
-0.0211505
-3.87626e-05
-0.0210061
-4.06654e-05
-0.0208574
-3.90938e-05
-0.0207041
-3.81337e-05
-0.0205462
-3.83223e-05
-0.0203836
-3.98321e-05
-0.0202168
-4.09837e-05
-0.0200459
-4.24018e-05
-0.0198713
-4.38178e-05
-0.0196934
-4.52769e-05
-0.0195125
-4.68651e-05
-0.0193291
-4.84413e-05
-0.0191438
-4.98957e-05
-0.0189572
-5.10662e-05
-0.0187698
-5.1955e-05
-0.0185823
-5.24835e-05
-0.0183953
-5.26549e-05
-0.0182094
-5.25984e-05
-0.0180253
-5.24085e-05
-0.0178435
-5.21602e-05
-0.0176647
-5.19518e-05
-0.0174894
-5.17967e-05
-0.017318
-5.15895e-05
-0.0171511
-5.12051e-05
-0.0169894
-5.05686e-05
-0.0168332
-4.96767e-05
-0.016683
-4.8559e-05
-0.0165394
-4.72776e-05
-0.0164027
-4.59015e-05
-0.0162733
-4.45388e-05
-0.0161514
-4.32586e-05
-0.0160374
-4.20431e-05
-0.0159314
-4.08724e-05
-0.0158337
-3.97592e-05
-0.0157446
-3.86693e-05
-0.0156646
-3.76716e-05
-0.0155943
-3.67562e-05
-0.0155336
-3.58741e-05
-0.0154803
-3.51075e-05
-0.0154356
-3.45526e-05
-0.0154004
-3.42072e-05
-0.0153735
-3.44681e-05
-0.0153555
-3.38109e-05
-0.0153495
-3.07564e-05
-0.0153505
-3.11344e-05
-0.0153631
-3.15381e-05
-0.0153848
-3.07543e-05
-0.0154157
-3.05357e-05
-0.0154562
-2.9975e-05
-0.0155056
-2.94415e-05
-0.0155641
-2.91346e-05
-0.0156314
-2.88767e-05
-0.0157074
-2.87086e-05
-0.0157917
-2.85977e-05
-0.0158842
-2.85737e-05
-0.0159845
-2.86322e-05
-0.0160923
-2.87727e-05
-0.0162074
-2.89674e-05
-0.0163295
-2.92299e-05
-0.0164582
-2.9548e-05
-0.0165932
-2.99235e-05
-0.0167341
-3.03486e-05
-0.0168806
-3.0841e-05
-0.0170323
-3.1402e-05
-0.0171888
-3.20221e-05
-0.0173497
-3.26685e-05
-0.0175145
-3.33461e-05
-0.017683
-3.40553e-05
-0.0178545
-3.4795e-05
-0.0180287
-3.55762e-05
-0.0182052
-3.63376e-05
-0.0183836
-3.71168e-05
-0.0185633
-3.78845e-05
-0.0187439
-3.86634e-05
-0.018925
-3.94886e-05
-0.0191061
-4.03462e-05
-0.0192867
-4.12698e-05
-0.0194663
-4.2182e-05
-0.0196445
-4.31609e-05
-0.0198207
-4.41941e-05
-0.0199945
-4.52117e-05
-0.0201655
-4.62306e-05
-0.0203331
-4.72493e-05
-0.0204969
-4.8208e-05
-0.0206565
-4.90891e-05
-0.0208114
-4.99263e-05
-0.0209612
-5.07528e-05
-0.0211055
-5.15934e-05
-0.0212437
-5.24434e-05
-0.0213756
-5.32829e-05
-0.0215006
-5.40864e-05
-0.0216186
-5.47965e-05
-0.0217289
-5.54046e-05
-0.0218315
-5.59272e-05
-0.0219258
-5.63787e-05
-0.0220116
-5.679e-05
-0.0220884
-5.71622e-05
-0.0221561
-5.7509e-05
-0.0222143
-5.78058e-05
-0.022263
-5.81263e-05
-0.0223021
-5.83415e-05
-0.0223316
-5.89973e-05
-0.0223508
-5.97413e-05
-0.0223583
-5.9298e-05
-0.0223586
-5.88172e-05
-0.0223475
-5.68898e-05
-0.022325
-5.79744e-05
-0.022291
-5.83495e-05
-0.022248
-5.8554e-05
-0.0221952
-5.81464e-05
-0.0221321
-5.79585e-05
-0.022059
-5.76102e-05
-0.0219755
-5.72434e-05
-0.0218816
-5.67983e-05
-0.0217777
-5.63984e-05
-0.0216644
-5.59486e-05
-0.021542
-5.54701e-05
-0.0214109
-5.49338e-05
-0.0212714
-5.43522e-05
-0.021124
-5.37361e-05
-0.0209691
-5.3109e-05
-0.0208072
-5.24606e-05
-0.0206388
-5.17893e-05
-0.0204644
-5.10809e-05
-0.0202848
-5.03264e-05
-0.0201004
-4.95117e-05
-0.0199119
-4.86344e-05
-0.01972
-4.76614e-05
-0.0195255
-4.66147e-05
-0.0193289
-4.55186e-05
-0.0191309
-4.43942e-05
-0.0189324
-4.32914e-05
-0.0187339
-4.22036e-05
-0.0185363
-4.10781e-05
-0.0183401
-3.98516e-05
-0.018146
-3.86496e-05
-0.0179548
-3.74127e-05
-0.0177671
-3.61324e-05
-0.0175835
-3.48248e-05
-0.0174048
-3.34362e-05
-0.0172314
-3.20362e-05
-0.017064
-3.07038e-05
-0.0169031
-2.94856e-05
-0.0167492
-2.83687e-05
-0.0166028
-2.72687e-05
-0.0164644
-2.61038e-05
-0.0163344
-2.48578e-05
-0.0162134
-2.35147e-05
-0.0161016
-2.21442e-05
-0.0159993
-2.07941e-05
-0.0159067
-1.95502e-05
-0.0158239
-1.84092e-05
-0.015751
-1.73734e-05
-0.0156882
-1.64994e-05
-0.0156353
-1.55257e-05
-0.0155941
-1.45567e-05
-0.0155635
-1.38457e-05
-0.0155422
-9.91373e-06
-0.0155323
-1.13008e-05
-0.0155319
-9.92915e-06
-0.0155424
-9.47768e-06
-0.0155639
-8.67966e-06
-0.0155944
-7.90637e-06
-0.0156352
-7.52955e-06
-0.0156855
-7.03619e-06
-0.0157454
-6.42146e-06
-0.0158148
-5.87833e-06
-0.0158934
-5.32582e-06
-0.0159807
-4.76818e-06
-0.0160764
-4.23706e-06
-0.0161802
-3.72682e-06
-0.0162917
-3.2952e-06
-0.0164106
-3.11354e-06
-0.0165365
-2.66842e-06
-0.0166691
-1.95862e-06
-0.0168077
-1.03729e-06
-0.0169514
-6.67538e-07
-0.0171016
4.64897e-07
-0.0172534
2.5211e-06
-0.0174118
2.8212e-06
-0.0175743
4.96528e-07
-0.0177386
9.67305e-07
-0.017907
5.02945e-07
-0.0180768
7.78961e-07
-0.0182484
8.10242e-07
-0.0184213
9.72208e-07
-0.018595
1.23141e-06
-0.0187689
1.32816e-06
-0.0189425
1.52574e-06
-0.0191153
1.75841e-06
-0.0192868
1.92252e-06
-0.0194563
2.13672e-06
-0.0196234
2.36066e-06
-0.0197876
2.36782e-06
-0.0199484
2.4885e-06
-0.0201053
2.31421e-06
-0.0202576
2.13027e-06
-0.0204049
1.80778e-06
-0.0205467
1.41799e-06
-0.020683
8.51886e-07
-0.0208127
3.36607e-06
-0.0209327
6.842e-06
-0.0210536
-8.09078e-06
-0.0211601
-1.5864e-06
-0.0212593
-1.30694e-06
-0.0213512
-2.46477e-06
-0.0214341
-3.34526e-06
-0.0215086
-4.34254e-06
-0.0215741
-5.29421e-06
-0.0216299
-6.28463e-06
-0.021676
-7.01038e-06
-0.0217124
-7.55079e-06
-0.0217386
-8.6449e-06
-0.0217546
-1.03368e-05
-0.021758
-1.33732e-05
-0.0217542
-9.90203e-06
-0.0217385
-1.33121e-05
-0.0217126
-1.46969e-05
-0.0216765
-1.6035e-05
-0.02163
-1.73615e-05
-0.0215733
-1.86372e-05
-0.0215064
-1.98749e-05
-0.0214291
-2.13433e-05
-0.0213416
-2.28777e-05
-0.021244
-2.44646e-05
-0.0211362
-2.60219e-05
-0.0210188
-2.7642e-05
-0.0208925
-2.91052e-05
-0.0207578
-3.06425e-05
-0.0206148
-3.23427e-05
-0.0204639
-3.41053e-05
-0.0203055
-3.60289e-05
-0.0201401
-3.80098e-05
-0.0199676
-4.00029e-05
-0.0197886
-4.21706e-05
-0.0196037
-4.45017e-05
-0.0194134
-4.6961e-05
-0.0192178
-4.96202e-05
-0.0190174
-5.25629e-05
-0.0188123
-5.58559e-05
-0.0186027
-5.95985e-05
-0.0183889
-6.3569e-05
-0.0181716
-6.78536e-05
-0.0179507
-7.23873e-05
-0.017726
-7.78335e-05
-0.0174977
-8.40001e-05
-0.0172656
-9.02849e-05
-0.0170287
-9.76498e-05
-0.0167869
-0.000106148
-0.0165395
-0.000115522
-0.0162861
-0.000125704
-0.0160265
-0.0001367
-0.0157604
-0.000148454
-0.0154871
-0.000161026
-0.0152064
-0.000174517
-0.0149175
-0.000189058
-0.0146203
-0.000205244
-0.0143147
-0.000224193
-0.0140004
-0.000246493
-0.0136771
-0.000272656
-0.0133435
-0.000302537
-0.0129982
-0.000336662
-0.0126394
-0.000375095
-0.012265
-0.00042373
-0.0118733
-0.00048527
-0.0115088
-0.000517927
-0.0113994
-0.000343429
-0.0113098
-0.000283584
-0.0112024
-0.000293246
-0.0110888
-0.000274082
-0.000106839
-0.000700767
0.000363731
-0.00135923
0.000336657
-0.00194184
-4.54329e-06
-0.0024746
-0.000198836
-0.00300401
-0.000225471
-0.00354819
-0.000182153
-0.00412561
-9.42863e-05
-0.00474995
-2.6121e-06
-0.00541626
6.1622e-05
-0.00613115
0.000117227
-0.00691145
0.00017251
-0.00774936
0.000219424
-0.00856333
0.000271251
-0.00935584
0.000298594
-0.0101684
0.000306938
-0.0110109
0.000224827
-0.0118749
7.18683e-05
-0.0127563
-0.000217654
-0.0136198
0.000389765
-0.0144307
0.000819745
-0.0152387
0.000892861
-0.0160615
0.000955385
-0.0171098
0.00105907
-0.0183151
0.00107509
-0.0196991
0.00146449
-0.0212562
0.00204214
-0.0229186
0.00241414
-0.0246593
0.00261239
-0.0265612
0.00282856
-0.0286131
0.00306894
-0.0307598
0.0033702
-0.0329784
0.00370053
-0.0353228
0.00407778
-0.0379487
0.00456402
-0.040937
0.00506764
-0.0440343
0.00533494
-0.0467919
0.00507815
-0.0489681
0.00414972
-0.0507155
0.00315854
-0.0520826
0.00273425
-0.0530153
0.00237878
-0.0540596
0.00240298
-0.0553745
0.0026811
-0.0571318
0.00242713
-0.0585647
0.0019915
-0.0596335
0.00125925
-0.060469
0.000524974
-0.0611009
-8.83702e-05
-0.0616177
-0.000603694
-0.0619908
-0.00086209
-0.0620662
-0.000921359
-0.0617874
-0.0006628
-0.0615561
-0.00139438
-0.0619037
-0.00218191
-0.0623649
-0.00233469
-0.0631456
-0.0017354
-0.0639735
-0.000785988
-0.0637333
0.000708509
-0.0635779
0.0011764
-0.0637412
0.00101989
-0.0644206
0.00113482
-0.0652851
0.00128398
-0.0661528
0.00139767
-0.0669063
0.00152127
-0.0673938
0.00166867
-0.0678453
0.00184305
-0.0683085
0.00159906
-0.0684439
0.00182644
-0.0687082
0.00223983
-0.0691837
0.00194182
-0.0693586
0.00184368
-0.0694607
0.00169984
-0.0694584
0.00147153
-0.0693875
0.0012136
-0.0692333
0.00088283
-0.0689633
0.000509238
-0.0685672
0.000156392
-0.0680391
-0.000362171
-0.0673768
-0.00077786
-0.0665853
-0.00132834
-0.0656025
-0.00198364
-0.0643248
-0.00259194
-0.0628376
-0.00291889
-0.0614291
-0.00277278
-0.0598813
-0.00330598
-0.0581877
-0.00387527
-0.0563158
-0.00444662
-0.0542614
-0.0049553
-0.0519949
-0.00553531
-0.0494721
-0.00613457
-0.0466505
-0.00677399
-0.0434932
-0.0074283
-0.0400072
-0.00803896
-0.036268
-0.00847663
-0.0323954
-0.00870792
-0.0284916
-0.00883399
-0.0246218
-0.00883318
-0.0208653
-0.00856822
-0.0173089
-0.00803455
-0.013982
-0.00739638
-0.0108058
-0.00681765
-0.00759432
-0.00656452
-0.00447546
-0.00649725
-0.00148285
-0.00631659
0.00138607
-0.00602798
0.00413603
-0.00565047
0.00679586
-0.00523007
0.00939355
-0.00480437
0.01199
-0.0045135
0.0144193
-0.00441797
0.016672
-0.00412876
0.0186437
-0.00358853
0.0198279
-0.00281731
0.0199211
-0.00162124
0.0197976
-0.000903803
0.0197542
-0.000561624
0.0198193
-0.000369356
0.0198841
-0.000134312
0.019908
7.3897e-05
0.0199463
0.000120132
0.0199964
0.000179424
0.0199847
0.00046073
0.0199082
0.000779389
0.0197266
0.00108168
0.019444
0.00127059
0.0190813
0.00137054
0.0185989
0.00151958
0.0179054
0.00182632
0.0170192
0.00214829
0.0159777
0.00244316
0.0148143
0.00266741
0.013537
0.00289832
0.0121392
0.00313358
0.0105984
0.00334123
0.00882767
0.00327691
0.00684901
0.00309301
0.00487591
0.00304599
0.00288851
0.00278214
0.000892015
0.00245203
-0.00118212
0.00220995
-0.00345854
0.00205592
-0.00585348
0.00209306
-0.00797153
0.00235791
-0.00922012
0.00242097
-0.0104345
0.00275717
-0.0116669
0.00262984
-0.0128362
0.00217659
-0.0139677
0.00192627
-0.015065
0.00187028
-0.016131
0.00188875
-0.0171737
0.00204945
-0.0181979
0.00226418
-0.0192882
0.00237048
-0.0209428
0.0027849
-0.0227079
0.00298613
-0.0242997
0.00291916
-0.0257851
0.00301973
-0.0272855
0.00335264
-0.0288013
0.00369745
-0.0301417
0.00343272
-0.0313729
0.00319778
-0.0324606
0.00285733
-0.0333933
0.00244903
-0.0342727
0.00228147
-0.0350496
0.00208651
-0.0356909
0.00177989
-0.0363679
0.0016606
-0.0369004
0.00141325
-0.0373754
0.0012151
-0.0378149
0.00110633
-0.0381414
0.000834675
-0.0384048
0.000612472
-0.0386134
0.000402053
-0.0387565
0.000193524
-0.0388294
-4.40995e-05
-0.0388249
-0.000238536
-0.0387564
-0.000427675
-0.0386044
-0.000736405
-0.0383543
-0.000973028
-0.0380391
-0.00114857
-0.0376492
-0.00136549
-0.0371892
-0.001521
-0.0366808
-0.00159911
-0.0361179
-0.001723
-0.0355301
-0.00173954
-0.034904
-0.00185213
-0.034233
-0.00200614
-0.0335302
-0.0020697
-0.0328206
-0.00203047
-0.032121
-0.00197549
-0.0314268
-0.00202163
-0.0307141
-0.00221036
-0.0299972
-0.00231889
-0.0293066
-0.00226835
-0.0285909
-0.00213514
-0.0273986
-0.00203353
-0.0260224
-0.00204172
-0.0248985
-0.00192273
-0.0239915
-0.00176809
-0.0232229
-0.00165003
-0.0225465
-0.00160902
-0.0219592
-0.00157505
-0.021508
-0.00136508
-0.0211604
-0.00118289
-0.0208985
-0.00101907
-0.0206916
-0.0008805
-0.0205095
-0.000793517
-0.0203339
-0.000749176
-0.0201747
-0.000675922
-0.0200129
-0.000652316
-0.0198648
-0.000572168
-0.01973
-0.000504413
-0.0196213
-0.000430059
-0.019535
-0.000374516
-0.0194696
-0.000312073
-0.0194136
-0.000263251
-0.0193553
-0.000232439
-0.0192995
-0.000201331
-0.0192606
-0.000139912
-0.0192317
-9.29292e-05
-0.0192056
-6.15287e-05
-0.0191775
-4.41153e-05
-0.019149
-2.50939e-05
-0.0191124
-1.91316e-05
-0.019064
-2.07575e-05
-0.0190055
-1.76999e-05
-0.0189401
-9.68979e-06
-0.0188687
-2.85542e-06
-0.0187912
3.03587e-06
-0.018705
1.74154e-06
-0.0186075
-6.26256e-06
-0.0185021
-7.56978e-06
-0.0183887
-1.01624e-05
-0.0182672
-1.42708e-05
-0.0181376
-2.02597e-05
-0.0180008
-2.53806e-05
-0.0178575
-3.054e-05
-0.0177083
-3.54767e-05
-0.0175538
-4.0184e-05
-0.0173948
-4.48489e-05
-0.0172318
-4.92379e-05