/*--------------------------------*- C++ -*----------------------------------*\
| =========                 |                                                 |
| \\      /  F ield         | OpenFOAM: The Open Source CFD Toolbox           |
|  \\    /   O peration     | Version:  v1812                                 |
|   \\  /    A nd           | Web:      www.OpenFOAM.com                      |
|    \\/     M anipulation  |                                                 |
\*---------------------------------------------------------------------------*/
FoamFile
{
    version     2.0;
    format      ascii;
    class       volScalarField;
    location    "0.6";
    object      rho;
}
// * * * * * * * * * * * * * * * * * * * * * * * * * * * * * * * * * * * * * //

dimensions      [1 -3 0 0 0 0 0];


internalField   nonuniform List<scalar> 
20400
(
1.19252
1.19263
1.19294
1.1933
1.19371
1.19413
1.19456
1.19496
1.19532
1.19563
1.19589
1.19608
1.19622
1.19629
1.19633
1.19632
1.19631
1.19619
1.19616
1.19621
1.19623
1.19619
1.19618
1.19624
1.19635
1.19655
1.19692
1.19746
1.19819
1.19908
1.20006
1.20101
1.20171
1.20205
1.2021
1.20152
1.20036
1.19883
1.197
1.19505
1.19298
1.19113
1.18999
1.18875
1.1879
1.18727
1.18686
1.18662
1.18662
1.18682
1.18716
1.1878
1.18871
1.1895
1.19031
1.19125
1.19215
1.19323
1.19429
1.19512
1.19589
1.19659
1.19721
1.1978
1.19832
1.19883
1.19929
1.19969
1.19998
1.20023
1.20047
1.20067
1.20082
1.20096
1.20107
1.20116
1.20126
1.20134
1.20139
1.20146
1.20152
1.20159
1.20162
1.20169
1.20176
1.20183
1.20193
1.20204
1.20219
1.20234
1.20251
1.20267
1.2028
1.20288
1.2029
1.20286
1.2027
1.2025
1.20227
1.20203
1.20177
1.20153
1.20112
1.20068
1.20017
1.19961
1.19905
1.19848
1.19803
1.1975
1.19696
1.19656
1.19614
1.19572
1.19521
1.19473
1.19426
1.19382
1.19343
1.1931
1.19282
1.19257
1.19239
1.19225
1.19216
1.1921
1.19206
1.19203
1.19201
1.192
1.19199
1.19199
1.192
1.19203
1.19204
1.19201
1.19211
1.1923
1.19251
1.19271
1.19285
1.19301
1.19306
1.19321
1.19338
1.19356
1.19378
1.19395
1.19413
1.19428
1.1944
1.19454
1.19469
1.19489
1.19502
1.19514
1.19525
1.19537
1.19547
1.19565
1.1958
1.19595
1.19612
1.19627
1.19643
1.1966
1.19678
1.19695
1.19713
1.1973
1.19748
1.19766
1.19785
1.19803
1.19821
1.1984
1.19858
1.19877
1.19895
1.19913
1.19931
1.19947
1.19962
1.19978
1.19991
1.20005
1.20018
1.2003
1.2004
1.20049
1.2006
1.2007
1.20079
1.20085
1.20092
1.20099
1.20099
1.20104
1.20106
1.20109
1.20112
1.20115
1.20115
1.20115
1.20115
1.20115
1.20114
1.20113
1.20111
1.20109
1.20105
1.20102
1.20099
1.20095
1.2009
1.20085
1.20079
1.20074
1.20067
1.20059
1.20052
1.20043
1.20034
1.20025
1.20015
1.20005
1.19994
1.19983
1.19971
1.19959
1.19946
1.19933
1.1992
1.19907
1.19893
1.19879
1.19864
1.1985
1.19836
1.19821
1.19807
1.19792
1.19778
1.19763
1.19749
1.19735
1.19721
1.19708
1.19695
1.19682
1.1967
1.19658
1.19647
1.19636
1.19626
1.19616
1.19607
1.19599
1.19591
1.19584
1.19578
1.19573
1.19568
1.19564
1.19561
1.19558
1.19557
1.19556
1.19556
1.19557
1.19559
1.19562
1.19565
1.19568
1.19573
1.19579
1.19585
1.19592
1.196
1.19609
1.19618
1.19628
1.19638
1.19649
1.19661
1.19673
1.19685
1.19699
1.19712
1.19726
1.1974
1.19755
1.1977
1.19785
1.19801
1.19816
1.19832
1.19848
1.19864
1.1988
1.19896
1.19912
1.19928
1.19944
1.1996
1.19976
1.19991
1.20007
1.20022
1.20037
1.20052
1.20066
1.2008
1.20094
1.20107
1.2012
1.20133
1.20145
1.20156
1.20167
1.20178
1.20188
1.20198
1.20207
1.20215
1.20223
1.2023
1.20236
1.20242
1.20247
1.20251
1.20255
1.20258
1.2026
1.20262
1.20262
1.20262
1.20262
1.2026
1.20258
1.20256
1.20252
1.20248
1.20243
1.20237
1.20231
1.20224
1.20216
1.20208
1.20199
1.2019
1.2018
1.2017
1.20159
1.20148
1.20137
1.20126
1.20114
1.20102
1.2009
1.20078
1.20065
1.20053
1.20041
1.20029
1.20018
1.20006
1.19995
1.19984
1.19973
1.19963
1.19954
1.19944
1.19936
1.19927
1.1992
1.19913
1.19906
1.19901
1.19896
1.19891
1.19888
1.19884
1.19882
1.1988
1.19879
1.19879
1.19879
1.1988
1.19882
1.19884
1.19887
1.1989
1.19894
1.19898
1.19903
1.19909
1.19915
1.19921
1.19928
1.19935
1.19943
1.19951
1.19959
1.19967
1.19976
1.19985
1.19994
1.20003
1.20012
1.20021
1.20031
1.2004
1.2005
1.20059
1.20069
1.20079
1.20088
1.20097
1.20107
1.20116
1.20125
1.20134
1.20142
1.20151
1.20159
1.20167
1.20175
1.20183
1.20191
1.20198
1.20205
1.20212
1.20218
1.20225
1.20231
1.20237
1.20242
1.20248
1.20252
1.20257
1.20261
1.20265
1.20269
1.20272
1.20275
1.20278
1.2028
1.20282
1.20284
1.20286
1.20287
1.20287
1.20288
1.20288
1.20288
1.20287
1.20286
1.20285
1.20284
1.20283
1.20281
1.20279
1.20277
1.20275
1.20272
1.2027
1.20267
1.20265
1.20262
1.2026
1.20257
1.20255
1.20252
1.2025
1.20248
1.20246
1.20244
1.20243
1.20241
1.2024
1.20239
1.20239
1.20238
1.20239
1.2024
1.20242
1.20245
1.20248
1.20253
1.20257
1.20261
1.20264
1.20265
1.20266
1.20267
1.20264
1.20263
1.20263
1.20265
1.19282
1.19296
1.1933
1.1937
1.19416
1.19464
1.19511
1.19553
1.19591
1.19621
1.19645
1.19662
1.19671
1.19676
1.19678
1.19676
1.19671
1.19651
1.19648
1.1965
1.19646
1.1964
1.19636
1.19638
1.19644
1.19658
1.19694
1.19756
1.19844
1.19948
1.20045
1.20115
1.20147
1.20147
1.20068
1.19929
1.1975
1.19557
1.19362
1.19189
1.19011
1.18883
1.18804
1.18739
1.18713
1.1871
1.18729
1.18764
1.18809
1.18875
1.18937
1.19023
1.19173
1.1928
1.19364
1.19461
1.1954
1.19525
1.19685
1.19776
1.19853
1.19925
1.19991
1.20053
1.20114
1.20161
1.20205
1.20249
1.20291
1.20332
1.20363
1.20385
1.20418
1.20445
1.20472
1.20501
1.20531
1.20557
1.20579
1.20602
1.20619
1.20633
1.20641
1.20648
1.20659
1.20667
1.20675
1.20682
1.20692
1.20701
1.20711
1.20721
1.20729
1.20734
1.20732
1.20724
1.20707
1.20682
1.20651
1.20618
1.20577
1.20521
1.20475
1.2042
1.2036
1.20299
1.20238
1.20179
1.20124
1.20096
1.20055
1.20011
1.19975
1.19941
1.19891
1.1984
1.19786
1.19731
1.19675
1.19626
1.1958
1.19537
1.19501
1.19469
1.19442
1.1942
1.194
1.19381
1.19365
1.19351
1.19337
1.19322
1.19305
1.19287
1.19274
1.19285
1.19282
1.19278
1.19279
1.19289
1.19298
1.19309
1.19328
1.19338
1.19358
1.19377
1.194
1.1942
1.19441
1.19459
1.19477
1.19494
1.19512
1.19529
1.19546
1.19564
1.19582
1.196
1.19615
1.19637
1.19655
1.19674
1.19695
1.19714
1.19734
1.19756
1.19777
1.19799
1.19823
1.19846
1.19873
1.19898
1.19922
1.19945
1.19973
1.2
1.20025
1.20053
1.20075
1.20097
1.20119
1.20138
1.20156
1.20173
1.20186
1.202
1.20211
1.20221
1.20228
1.20235
1.2024
1.20244
1.20245
1.20243
1.20247
1.20231
1.20223
1.20212
1.20203
1.20197
1.20191
1.20186
1.2018
1.20176
1.20172
1.20169
1.20164
1.2016
1.20155
1.2015
1.20145
1.2014
1.20135
1.20129
1.20123
1.20117
1.2011
1.20103
1.20095
1.20087
1.20078
1.20069
1.2006
1.2005
1.20039
1.20028
1.20017
1.20005
1.19993
1.1998
1.19967
1.19954
1.1994
1.19927
1.19912
1.19898
1.19884
1.19869
1.19854
1.1984
1.19825
1.1981
1.19796
1.19781
1.19767
1.19753
1.19739
1.19726
1.19712
1.197
1.19687
1.19675
1.19664
1.19653
1.19643
1.19633
1.19624
1.19616
1.19608
1.19601
1.19595
1.1959
1.19585
1.19581
1.19578
1.19576
1.19574
1.19574
1.19574
1.19575
1.19576
1.19579
1.19582
1.19586
1.19591
1.19597
1.19603
1.1961
1.19618
1.19627
1.19636
1.19646
1.19656
1.19667
1.19679
1.19691
1.19704
1.19717
1.1973
1.19744
1.19759
1.19773
1.19788
1.19804
1.19819
1.19835
1.19851
1.19867
1.19883
1.19899
1.19915
1.19931
1.19947
1.19963
1.19979
1.19995
1.20011
1.20026
1.20041
1.20056
1.20071
1.20086
1.201
1.20113
1.20127
1.2014
1.20152
1.20165
1.20176
1.20187
1.20198
1.20208
1.20218
1.20226
1.20235
1.20243
1.2025
1.20256
1.20262
1.20267
1.20271
1.20275
1.20278
1.2028
1.20282
1.20283
1.20283
1.20282
1.2028
1.20278
1.20276
1.20272
1.20268
1.20263
1.20257
1.20251
1.20244
1.20236
1.20228
1.20219
1.2021
1.202
1.2019
1.2018
1.20169
1.20157
1.20146
1.20134
1.20122
1.2011
1.20098
1.20086
1.20074
1.20062
1.2005
1.20038
1.20027
1.20016
1.20005
1.19994
1.19984
1.19975
1.19965
1.19957
1.19949
1.19941
1.19934
1.19928
1.19922
1.19917
1.19913
1.19909
1.19906
1.19904
1.19902
1.19901
1.19901
1.19901
1.19902
1.19904
1.19906
1.19909
1.19912
1.19916
1.19921
1.19926
1.19931
1.19938
1.19944
1.19951
1.19958
1.19966
1.19974
1.19982
1.1999
1.19999
1.20008
1.20017
1.20026
1.20035
1.20044
1.20054
1.20063
1.20073
1.20082
1.20092
1.20101
1.20111
1.2012
1.2013
1.20139
1.20148
1.20157
1.20166
1.20175
1.20183
1.20191
1.20199
1.20207
1.20215
1.20222
1.2023
1.20237
1.20243
1.2025
1.20256
1.20262
1.20267
1.20273
1.20278
1.20282
1.20287
1.20291
1.20294
1.20298
1.20301
1.20304
1.20306
1.20308
1.2031
1.20312
1.20313
1.20314
1.20314
1.20314
1.20314
1.20314
1.20313
1.20312
1.20311
1.20309
1.20308
1.20306
1.20304
1.20302
1.203
1.20298
1.20295
1.20293
1.20291
1.20288
1.20286
1.20284
1.20282
1.20279
1.20278
1.20278
1.20276
1.20275
1.20274
1.20273
1.20272
1.20272
1.20271
1.20272
1.20274
1.20276
1.20279
1.20283
1.20287
1.2029
1.20292
1.20293
1.20293
1.20294
1.20285
1.20281
1.20277
1.20276
1.20279
1.19337
1.19355
1.19397
1.19447
1.19503
1.19559
1.19612
1.19658
1.19697
1.19729
1.19753
1.1977
1.19781
1.19786
1.19784
1.19778
1.19771
1.19751
1.19753
1.19744
1.19738
1.1973
1.19717
1.19711
1.19716
1.19729
1.19765
1.19832
1.19916
1.20004
1.20068
1.20099
1.20099
1.20017
1.19862
1.19656
1.19424
1.19202
1.19016
1.18888
1.18799
1.18754
1.18727
1.18755
1.18789
1.18843
1.1891
1.18986
1.19069
1.19161
1.19266
1.19392
1.19506
1.196
1.19688
1.19763
1.19826
1.19919
1.20014
1.20084
1.20157
1.20225
1.20293
1.20356
1.204
1.20464
1.20552
1.20602
1.20622
1.20667
1.20719
1.20768
1.20788
1.20816
1.20837
1.20855
1.20872
1.20887
1.20897
1.20909
1.20917
1.20926
1.20936
1.20939
1.20947
1.20955
1.20965
1.20977
1.20991
1.2101
1.21032
1.21058
1.21086
1.21114
1.21138
1.21158
1.21171
1.21174
1.21168
1.21156
1.2114
1.21126
1.21101
1.21071
1.21033
1.20985
1.20931
1.20873
1.20816
1.20753
1.20692
1.20636
1.20574
1.20497
1.20429
1.20378
1.20324
1.20265
1.20199
1.20135
1.20075
1.20018
1.19967
1.1992
1.19877
1.19832
1.19784
1.19734
1.19689
1.19651
1.19618
1.19583
1.19543
1.19496
1.19446
1.194
1.19372
1.19351
1.19341
1.19334
1.19325
1.19323
1.19335
1.19386
1.19411
1.19441
1.19473
1.19507
1.19543
1.19578
1.19609
1.19637
1.19668
1.19679
1.19706
1.19734
1.19757
1.19779
1.19799
1.1983
1.19852
1.19876
1.19902
1.19924
1.19946
1.19972
1.19988
1.20012
1.20031
1.20049
1.2007
1.2009
1.20111
1.20131
1.20152
1.20172
1.20193
1.20216
1.20236
1.20257
1.20279
1.20301
1.20322
1.20344
1.20364
1.20385
1.20405
1.20423
1.20441
1.20458
1.20473
1.20487
1.20497
1.20503
1.20503
1.20517
1.20522
1.20518
1.20512
1.20502
1.20488
1.20472
1.20451
1.20431
1.20411
1.20392
1.20373
1.20354
1.20334
1.20316
1.20298
1.20282
1.20267
1.20252
1.20236
1.20221
1.20205
1.2019
1.20175
1.20161
1.20147
1.20133
1.20118
1.20104
1.2009
1.20075
1.20061
1.20046
1.20032
1.20017
1.20002
1.19987
1.19973
1.19958
1.19943
1.19928
1.19912
1.19897
1.19882
1.19867
1.19852
1.19838
1.19823
1.19809
1.19794
1.1978
1.19767
1.19753
1.1974
1.19728
1.19715
1.19704
1.19692
1.19681
1.19671
1.19662
1.19653
1.19644
1.19637
1.1963
1.19623
1.19618
1.19613
1.19609
1.19606
1.19604
1.19603
1.19602
1.19602
1.19603
1.19605
1.19608
1.1961
1.19615
1.19619
1.19625
1.19632
1.19639
1.19647
1.19655
1.19664
1.19674
1.19685
1.19696
1.19707
1.1972
1.19732
1.19745
1.19759
1.19773
1.19787
1.19802
1.19817
1.19833
1.19848
1.19864
1.1988
1.19896
1.19912
1.19928
1.19945
1.19961
1.19977
1.19993
1.20009
1.20025
1.20041
1.20057
1.20072
1.20087
1.20102
1.20117
1.20131
1.20145
1.20158
1.20171
1.20184
1.20196
1.20208
1.20219
1.2023
1.2024
1.2025
1.20259
1.20267
1.20275
1.20282
1.20289
1.20294
1.20299
1.20304
1.20308
1.20311
1.20313
1.20315
1.20316
1.20316
1.20315
1.20314
1.20312
1.20309
1.20306
1.20301
1.20297
1.20291
1.20285
1.20278
1.2027
1.20262
1.20253
1.20244
1.20235
1.20224
1.20214
1.20203
1.20192
1.2018
1.20169
1.20157
1.20145
1.20133
1.20121
1.20109
1.20097
1.20085
1.20073
1.20062
1.20051
1.2004
1.2003
1.2002
1.2001
1.20001
1.19992
1.19984
1.19977
1.1997
1.19964
1.19958
1.19953
1.19949
1.19945
1.19942
1.1994
1.19938
1.19937
1.19937
1.19937
1.19938
1.1994
1.19942
1.19945
1.19948
1.19952
1.19957
1.19962
1.19967
1.19973
1.1998
1.19987
1.19994
1.20002
1.20009
1.20018
1.20026
1.20035
1.20044
1.20053
1.20063
1.20072
1.20082
1.20091
1.20101
1.20111
1.2012
1.2013
1.2014
1.20149
1.20159
1.20168
1.20177
1.20186
1.20196
1.20205
1.20213
1.20222
1.2023
1.20239
1.20246
1.20254
1.20262
1.20269
1.20276
1.20283
1.20289
1.20295
1.20301
1.20307
1.20312
1.20317
1.20322
1.20326
1.2033
1.20334
1.20337
1.20341
1.20343
1.20346
1.20348
1.2035
1.20351
1.20352
1.20353
1.20353
1.20353
1.20353
1.20353
1.20352
1.20351
1.20349
1.20348
1.20346
1.20344
1.20342
1.2034
1.20337
1.20335
1.20332
1.2033
1.20327
1.20325
1.20323
1.2032
1.20317
1.20315
1.20313
1.2031
1.20308
1.20306
1.20305
1.20304
1.20303
1.20303
1.20303
1.20303
1.20303
1.20304
1.20306
1.20308
1.20309
1.20312
1.20314
1.20315
1.20316
1.20315
1.20322
1.20324
1.20323
1.20325
1.20328
1.19413
1.1944
1.19493
1.19557
1.19626
1.19692
1.19752
1.19802
1.19841
1.19871
1.19891
1.19901
1.19904
1.19901
1.19893
1.1988
1.19865
1.19839
1.19834
1.19819
1.19811
1.19792
1.1977
1.1976
1.19762
1.19778
1.19815
1.19885
1.19965
1.20026
1.20056
1.20053
1.19967
1.19812
1.19606
1.19369
1.19129
1.18928
1.18795
1.18739
1.18732
1.18761
1.18823
1.18903
1.18997
1.19093
1.19193
1.19294
1.19399
1.19507
1.19618
1.19734
1.19832
1.19918
1.19996
1.20064
1.20128
1.20204
1.20277
1.20355
1.20446
1.20536
1.20615
1.20684
1.20751
1.20799
1.20824
1.20864
1.20917
1.20954
1.20974
1.20991
1.21025
1.21038
1.21053
1.21064
1.21073
1.21082
1.21088
1.21093
1.21102
1.21111
1.21122
1.21133
1.21144
1.21159
1.21179
1.212
1.21225
1.2125
1.21276
1.21302
1.21325
1.21347
1.21364
1.2138
1.21394
1.21406
1.21412
1.21413
1.21412
1.21407
1.21393
1.21374
1.21349
1.21318
1.21282
1.2124
1.21195
1.21144
1.21094
1.2104
1.20986
1.20917
1.20858
1.20816
1.20779
1.20738
1.20692
1.20637
1.20574
1.20504
1.20447
1.20403
1.20366
1.20328
1.2028
1.20221
1.20157
1.20094
1.2004
1.1999
1.1994
1.19883
1.19817
1.19745
1.19672
1.19607
1.19559
1.19513
1.19457
1.19393
1.19338
1.19315
1.1932
1.19334
1.19364
1.194
1.19452
1.19514
1.19574
1.19625
1.19671
1.19712
1.19749
1.19788
1.19823
1.19855
1.19884
1.19923
1.19954
1.19982
1.20014
1.20039
1.20064
1.20089
1.2011
1.20128
1.20147
1.20162
1.2018
1.20197
1.20214
1.20229
1.20245
1.20262
1.20281
1.20304
1.20326
1.20351
1.20379
1.20409
1.20441
1.20475
1.20508
1.20544
1.2058
1.20617
1.20653
1.20687
1.20719
1.20743
1.20767
1.20792
1.20817
1.20836
1.2085
1.20859
1.20863
1.2086
1.20852
1.20838
1.20814
1.20788
1.2076
1.20731
1.207
1.20668
1.2063
1.20592
1.20553
1.20519
1.20487
1.20458
1.20429
1.20399
1.2037
1.20343
1.20316
1.20291
1.20268
1.20245
1.20222
1.202
1.20178
1.20156
1.20135
1.20115
1.20095
1.20076
1.20057
1.20038
1.20019
1.20001
1.19983
1.19965
1.19948
1.19931
1.19914
1.19898
1.19882
1.19866
1.1985
1.19835
1.1982
1.19806
1.19792
1.19778
1.19765
1.19752
1.1974
1.19728
1.19717
1.19706
1.19696
1.19686
1.19677
1.19669
1.19661
1.19654
1.19648
1.19643
1.19638
1.19634
1.19631
1.19629
1.19628
1.19627
1.19627
1.19628
1.1963
1.19632
1.19636
1.1964
1.19645
1.19651
1.19657
1.19664
1.19672
1.19681
1.1969
1.197
1.19711
1.19722
1.19734
1.19746
1.19759
1.19772
1.19786
1.198
1.19814
1.19829
1.19844
1.1986
1.19876
1.19891
1.19907
1.19924
1.1994
1.19956
1.19973
1.19989
1.20006
1.20022
1.20038
1.20054
1.2007
1.20086
1.20101
1.20117
1.20132
1.20146
1.20161
1.20175
1.20188
1.20202
1.20214
1.20227
1.20239
1.2025
1.20261
1.20271
1.20281
1.2029
1.20298
1.20306
1.20313
1.2032
1.20326
1.20331
1.20336
1.20339
1.20343
1.20345
1.20347
1.20348
1.20348
1.20347
1.20346
1.20344
1.20341
1.20338
1.20334
1.20329
1.20323
1.20317
1.2031
1.20302
1.20294
1.20286
1.20276
1.20267
1.20257
1.20246
1.20235
1.20224
1.20213
1.20201
1.20189
1.20177
1.20165
1.20153
1.20141
1.20129
1.20117
1.20106
1.20095
1.20084
1.20073
1.20062
1.20052
1.20043
1.20034
1.20025
1.20017
1.2001
1.20003
1.19997
1.19992
1.19987
1.19983
1.19979
1.19976
1.19974
1.19973
1.19972
1.19972
1.19972
1.19973
1.19975
1.19977
1.1998
1.19984
1.19988
1.19993
1.19998
1.20004
1.2001
1.20016
1.20023
1.20031
1.20038
1.20047
1.20055
1.20063
1.20072
1.20081
1.20091
1.201
1.20109
1.20119
1.20129
1.20139
1.20148
1.20158
1.20168
1.20177
1.20187
1.20197
1.20206
1.20216
1.20225
1.20234
1.20243
1.20252
1.20261
1.20269
1.20278
1.20286
1.20294
1.20302
1.20308
1.20316
1.20323
1.20329
1.20336
1.20342
1.20347
1.20353
1.20358
1.20363
1.20367
1.20371
1.20375
1.20379
1.20382
1.20385
1.20387
1.2039
1.20391
1.20393
1.20394
1.20395
1.20396
1.20396
1.20396
1.20395
1.20395
1.20394
1.20392
1.20391
1.20389
1.20388
1.20386
1.20384
1.20381
1.20379
1.20377
1.20375
1.20372
1.2037
1.20368
1.20365
1.20363
1.20362
1.2036
1.20358
1.20357
1.20356
1.20355
1.20354
1.20354
1.20354
1.20354
1.20355
1.20356
1.20357
1.20359
1.20362
1.20365
1.20369
1.20372
1.20375
1.20378
1.2038
1.20381
1.20381
1.20381
1.2038
1.2038
1.19507
1.19542
1.19611
1.19691
1.19773
1.19848
1.19912
1.19962
1.19999
1.20024
1.20038
1.20042
1.20038
1.20028
1.20014
1.19995
1.19975
1.19944
1.1993
1.19909
1.19889
1.19864
1.19834
1.19812
1.198
1.19807
1.19835
1.19894
1.1995
1.19983
1.19982
1.19896
1.19735
1.19519
1.1928
1.19048
1.18859
1.18745
1.18707
1.18712
1.1877
1.1887
1.18982
1.19106
1.19227
1.19339
1.19452
1.19558
1.19665
1.1977
1.19871
1.19976
1.20065
1.20135
1.20201
1.20265
1.20331
1.20402
1.20487
1.20567
1.20643
1.2072
1.20787
1.20845
1.20893
1.2093
1.20959
1.20993
1.2101
1.21026
1.21036
1.21041
1.21044
1.21039
1.2103
1.21018
1.21004
1.20995
1.20978
1.20963
1.2095
1.20948
1.20952
1.20955
1.20959
1.20971
1.20991
1.21017
1.21048
1.21085
1.21127
1.21173
1.21221
1.2127
1.21317
1.21359
1.21397
1.21432
1.21462
1.21488
1.21507
1.21518
1.2152
1.21514
1.215
1.2148
1.21456
1.21427
1.21394
1.21356
1.21317
1.21273
1.21226
1.2118
1.21131
1.21092
1.21059
1.21026
1.2099
1.2095
1.209
1.20847
1.20799
1.20764
1.20737
1.2071
1.20677
1.2063
1.20578
1.20523
1.2047
1.2042
1.20371
1.20318
1.20257
1.20188
1.20113
1.20027
1.19933
1.19833
1.19721
1.19593
1.19464
1.19377
1.19338
1.19332
1.1934
1.19356
1.19398
1.19473
1.19555
1.1962
1.19678
1.19743
1.19801
1.19858
1.1991
1.19954
1.19988
1.20028
1.20062
1.20097
1.20119
1.20146
1.20166
1.20183
1.20195
1.202
1.20202
1.20196
1.2019
1.20181
1.20169
1.20156
1.20143
1.20133
1.20123
1.20114
1.20112
1.20117
1.2013
1.2015
1.20176
1.20212
1.20249
1.20294
1.20345
1.20401
1.20464
1.20533
1.20604
1.2067
1.20734
1.208
1.20861
1.2092
1.20975
1.21026
1.2107
1.21108
1.21133
1.21151
1.21161
1.21164
1.21158
1.21144
1.21121
1.21089
1.21046
1.20997
1.20944
1.20894
1.20847
1.20804
1.20762
1.20716
1.20669
1.2062
1.20573
1.20529
1.2049
1.20453
1.20417
1.2038
1.20346
1.20312
1.20279
1.20247
1.20217
1.20187
1.20159
1.20131
1.20105
1.20079
1.20054
1.20031
1.20008
1.19985
1.19964
1.19944
1.19924
1.19905
1.19887
1.1987
1.19853
1.19837
1.19822
1.19807
1.19793
1.1978
1.19767
1.19755
1.19744
1.19733
1.19722
1.19713
1.19704
1.19695
1.19688
1.19681
1.19675
1.19669
1.19665
1.19661
1.19658
1.19656
1.19654
1.19654
1.19654
1.19655
1.19657
1.19659
1.19663
1.19667
1.19672
1.19677
1.19684
1.19691
1.19699
1.19708
1.19717
1.19727
1.19738
1.19749
1.19761
1.19773
1.19786
1.198
1.19813
1.19828
1.19842
1.19857
1.19872
1.19888
1.19903
1.19919
1.19935
1.19952
1.19968
1.19985
1.20001
1.20018
1.20034
1.20051
1.20067
1.20083
1.20099
1.20115
1.20131
1.20146
1.20161
1.20176
1.20191
1.20205
1.20219
1.20232
1.20245
1.20257
1.20269
1.20281
1.20292
1.20302
1.20312
1.20321
1.2033
1.20338
1.20345
1.20352
1.20358
1.20363
1.20368
1.20372
1.20375
1.20378
1.20379
1.2038
1.20381
1.2038
1.20379
1.20377
1.20374
1.20371
1.20367
1.20362
1.20356
1.2035
1.20343
1.20336
1.20328
1.20319
1.2031
1.203
1.2029
1.2028
1.20269
1.20258
1.20246
1.20234
1.20223
1.20211
1.20199
1.20187
1.20175
1.20163
1.20151
1.2014
1.20128
1.20117
1.20107
1.20096
1.20086
1.20077
1.20068
1.20059
1.20051
1.20044
1.20037
1.20031
1.20026
1.20021
1.20017
1.20013
1.20011
1.20008
1.20007
1.20006
1.20006
1.20007
1.20008
1.2001
1.20012
1.20016
1.20019
1.20023
1.20028
1.20033
1.20039
1.20045
1.20052
1.20059
1.20067
1.20074
1.20082
1.20091
1.201
1.20108
1.20118
1.20127
1.20136
1.20146
1.20156
1.20165
1.20175
1.20185
1.20195
1.20205
1.20215
1.20224
1.20234
1.20244
1.20253
1.20263
1.20272
1.20281
1.2029
1.20299
1.20308
1.20316
1.20324
1.20332
1.2034
1.20347
1.20355
1.20361
1.20368
1.20375
1.20381
1.20387
1.20392
1.20397
1.20402
1.20407
1.20411
1.20415
1.20418
1.20422
1.20425
1.20427
1.2043
1.20431
1.20433
1.20434
1.20435
1.20436
1.20436
1.20436
1.20436
1.20435
1.20434
1.20433
1.20432
1.2043
1.20428
1.20426
1.20424
1.20422
1.2042
1.20418
1.20415
1.20413
1.20411
1.20409
1.20406
1.20404
1.20402
1.20401
1.20399
1.20397
1.20396
1.20395
1.20394
1.20394
1.20394
1.20394
1.20394
1.20395
1.20396
1.20398
1.204
1.20402
1.20405
1.20408
1.20411
1.20415
1.20418
1.20422
1.20424
1.20424
1.20425
1.20426
1.196
1.19643
1.19727
1.19823
1.19918
1.20002
1.20068
1.20118
1.20152
1.20172
1.2018
1.20177
1.20167
1.20152
1.20132
1.20108
1.20083
1.20047
1.20027
1.19997
1.1997
1.19933
1.19898
1.1987
1.19852
1.19853
1.19874
1.19908
1.1993
1.19926
1.19846
1.1969
1.19474
1.19227
1.18989
1.18801
1.18691
1.18658
1.18666
1.18746
1.18871
1.19011
1.19148
1.19284
1.19413
1.19529
1.19642
1.19745
1.19848
1.19942
1.20039
1.2013
1.20214
1.2028
1.20352
1.20418
1.20484
1.20552
1.20617
1.20677
1.20739
1.20793
1.20843
1.20887
1.20921
1.20948
1.2097
1.20987
1.20987
1.20987
1.20979
1.20966
1.20948
1.20924
1.20895
1.20867
1.20834
1.20805
1.20775
1.20743
1.20718
1.2069
1.20686
1.20684
1.20672
1.2067
1.20684
1.20708
1.20739
1.20779
1.20828
1.20885
1.20949
1.2102
1.21093
1.21162
1.21226
1.21288
1.21346
1.21397
1.21439
1.21467
1.21485
1.21495
1.215
1.21497
1.21489
1.21476
1.21458
1.21437
1.21415
1.21389
1.21358
1.21322
1.21285
1.21254
1.21225
1.21196
1.21164
1.2113
1.21092
1.21052
1.21015
1.20985
1.20962
1.20941
1.20917
1.20887
1.20854
1.20818
1.20782
1.20742
1.20704
1.20664
1.20622
1.20575
1.2052
1.20451
1.20364
1.20253
1.20117
1.19962
1.19798
1.19652
1.19541
1.19458
1.19401
1.19364
1.19348
1.19374
1.19461
1.1955
1.19617
1.19686
1.19759
1.19832
1.19896
1.19957
1.20004
1.20047
1.20086
1.20113
1.20156
1.20172
1.20188
1.20196
1.20192
1.20182
1.20164
1.20131
1.20093
1.20049
1.19997
1.19943
1.19886
1.19834
1.19787
1.19745
1.19711
1.19687
1.19672
1.19665
1.19666
1.1968
1.197
1.19729
1.1976
1.19804
1.19861
1.19934
1.20019
1.20113
1.20211
1.20315
1.20426
1.2054
1.20658
1.20781
1.20904
1.21022
1.21122
1.21199
1.21266
1.21325
1.21373
1.21412
1.21442
1.21461
1.21459
1.21427
1.21381
1.21336
1.2129
1.21243
1.21192
1.21136
1.21073
1.21008
1.20941
1.2088
1.20823
1.20772
1.20722
1.2067
1.20618
1.20566
1.20515
1.20467
1.20421
1.20377
1.20335
1.20294
1.20254
1.20216
1.20179
1.20144
1.2011
1.20078
1.20048
1.20019
1.19991
1.19966
1.19941
1.19919
1.19897
1.19877
1.19859
1.19841
1.19825
1.1981
1.19796
1.19782
1.1977
1.19759
1.19748
1.19738
1.19729
1.1972
1.19713
1.19706
1.19699
1.19694
1.19689
1.19686
1.19682
1.1968
1.19679
1.19679
1.19679
1.1968
1.19682
1.19684
1.19687
1.19691
1.19696
1.19702
1.19709
1.19716
1.19724
1.19733
1.19742
1.19752
1.19763
1.19774
1.19786
1.19798
1.19811
1.19825
1.19838
1.19853
1.19867
1.19882
1.19897
1.19913
1.19929
1.19945
1.19961
1.19977
1.19994
1.2001
1.20027
1.20043
1.2006
1.20076
1.20093
1.20109
1.20125
1.20141
1.20157
1.20173
1.20188
1.20203
1.20218
1.20232
1.20246
1.20259
1.20272
1.20285
1.20297
1.20309
1.2032
1.2033
1.2034
1.2035
1.20359
1.20367
1.20374
1.20381
1.20387
1.20392
1.20397
1.20401
1.20404
1.20407
1.20409
1.2041
1.2041
1.2041
1.20409
1.20407
1.20404
1.20401
1.20397
1.20392
1.20387
1.20381
1.20374
1.20366
1.20358
1.20349
1.2034
1.20331
1.20321
1.2031
1.20299
1.20288
1.20277
1.20265
1.20253
1.20241
1.20229
1.20217
1.20205
1.20193
1.20181
1.2017
1.20159
1.20147
1.20137
1.20126
1.20117
1.20107
1.20098
1.2009
1.20082
1.20074
1.20068
1.20062
1.20056
1.20052
1.20047
1.20044
1.20041
1.20039
1.20038
1.20037
1.20037
1.20038
1.20039
1.20041
1.20044
1.20047
1.20051
1.20055
1.2006
1.20065
1.20071
1.20077
1.20084
1.20091
1.20099
1.20107
1.20115
1.20123
1.20132
1.20141
1.2015
1.2016
1.20169
1.20179
1.20188
1.20198
1.20208
1.20218
1.20228
1.20238
1.20248
1.20258
1.20267
1.20277
1.20287
1.20296
1.20306
1.20315
1.20324
1.20333
1.20341
1.2035
1.20358
1.20366
1.20374
1.20382
1.20389
1.20396
1.20403
1.20409
1.20415
1.20421
1.20427
1.20432
1.20437
1.20442
1.20446
1.2045
1.20453
1.20457
1.2046
1.20463
1.20465
1.20467
1.20469
1.2047
1.20471
1.20472
1.20472
1.20472
1.20472
1.20471
1.2047
1.20469
1.20468
1.20466
1.20464
1.20463
1.20461
1.20458
1.20456
1.20454
1.20452
1.20449
1.20447
1.20445
1.20443
1.20441
1.20439
1.20437
1.20435
1.20434
1.20432
1.20431
1.20431
1.2043
1.2043
1.2043
1.2043
1.20431
1.20432
1.20433
1.20434
1.20436
1.20439
1.20441
1.20444
1.20447
1.2045
1.20453
1.20456
1.20458
1.20459
1.20462
1.19687
1.19739
1.19835
1.19945
1.2005
1.20138
1.20204
1.20249
1.20277
1.20292
1.20293
1.20285
1.2027
1.2025
1.20227
1.20199
1.20172
1.20133
1.20106
1.20069
1.20034
1.19994
1.19949
1.19916
1.19895
1.19889
1.19898
1.19906
1.19893
1.19825
1.19676
1.19465
1.19221
1.18977
1.18777
1.18653
1.18608
1.18609
1.18672
1.18797
1.18945
1.19091
1.1923
1.1936
1.19485
1.19602
1.1971
1.19814
1.19915
1.20006
1.20097
1.20183
1.20261
1.20334
1.20402
1.20465
1.20524
1.2058
1.20631
1.2068
1.20726
1.2077
1.2081
1.20845
1.20871
1.20889
1.20897
1.20903
1.20889
1.20865
1.20843
1.20812
1.20781
1.20748
1.20707
1.20666
1.20616
1.20577
1.20546
1.20502
1.20461
1.20434
1.20427
1.20393
1.20379
1.20378
1.20386
1.20406
1.20439
1.20486
1.20546
1.20619
1.20705
1.20803
1.20908
1.21015
1.21113
1.212
1.21278
1.21343
1.21397
1.21438
1.21469
1.21489
1.21499
1.21501
1.21497
1.21489
1.21475
1.21457
1.21437
1.21417
1.21398
1.21374
1.21345
1.2132
1.21296
1.21273
1.21248
1.21224
1.21196
1.21165
1.21138
1.21113
1.21091
1.21071
1.21049
1.21027
1.21005
1.20983
1.2096
1.20936
1.2091
1.20884
1.20856
1.20825
1.20793
1.20751
1.20695
1.20615
1.20505
1.20366
1.20207
1.20039
1.19874
1.19725
1.1959
1.19472
1.1939
1.19372
1.19396
1.1946
1.19535
1.19595
1.19658
1.19746
1.19838
1.19911
1.19969
1.20009
1.2006
1.20106
1.20141
1.20164
1.20172
1.20169
1.20157
1.20134
1.20098
1.20041
1.19973
1.19894
1.19809
1.19715
1.19621
1.1953
1.19447
1.19374
1.1931
1.19258
1.19215
1.1918
1.19155
1.19145
1.1915
1.1916
1.19173
1.19197
1.19229
1.19274
1.19334
1.19408
1.19491
1.19587
1.19698
1.19822
1.19959
1.20109
1.20273
1.20449
1.20626
1.20789
1.20934
1.21075
1.21211
1.21337
1.21447
1.21541
1.21617
1.21662
1.21685
1.21695
1.21694
1.21679
1.21648
1.21602
1.21539
1.2146
1.21379
1.21307
1.2124
1.21177
1.21114
1.2105
1.20984
1.20914
1.20845
1.20779
1.20717
1.20657
1.20598
1.2054
1.20484
1.20429
1.20377
1.20326
1.20277
1.2023
1.20185
1.20142
1.20101
1.20063
1.20028
1.19995
1.19964
1.19936
1.1991
1.19886
1.19865
1.19845
1.19828
1.19812
1.19797
1.19784
1.19772
1.19761
1.19751
1.19742
1.19734
1.19727
1.19721
1.19715
1.19711
1.19707
1.19704
1.19701
1.197
1.197
1.197
1.19701
1.19703
1.19705
1.19708
1.19712
1.19717
1.19723
1.1973
1.19737
1.19745
1.19754
1.19763
1.19773
1.19784
1.19795
1.19807
1.19819
1.19832
1.19846
1.19859
1.19874
1.19888
1.19903
1.19919
1.19934
1.1995
1.19966
1.19982
1.19999
1.20015
1.20032
1.20048
1.20065
1.20081
1.20098
1.20114
1.20131
1.20147
1.20163
1.20179
1.20194
1.2021
1.20225
1.2024
1.20254
1.20268
1.20282
1.20295
1.20308
1.2032
1.20332
1.20343
1.20354
1.20364
1.20373
1.20382
1.2039
1.20398
1.20405
1.20411
1.20416
1.20421
1.20425
1.20429
1.20431
1.20433
1.20435
1.20435
1.20435
1.20434
1.20432
1.2043
1.20426
1.20423
1.20418
1.20412
1.20406
1.20399
1.20392
1.20384
1.20375
1.20366
1.20356
1.20346
1.20336
1.20325
1.20314
1.20302
1.20291
1.20279
1.20267
1.20255
1.20243
1.20231
1.20219
1.20207
1.20195
1.20184
1.20173
1.20162
1.20152
1.20142
1.20133
1.20124
1.20115
1.20107
1.201
1.20093
1.20087
1.20082
1.20077
1.20073
1.2007
1.20067
1.20065
1.20063
1.20063
1.20063
1.20064
1.20065
1.20067
1.20069
1.20073
1.20076
1.20081
1.20086
1.20091
1.20097
1.20104
1.2011
1.20118
1.20125
1.20133
1.20141
1.2015
1.20159
1.20168
1.20177
1.20186
1.20196
1.20206
1.20216
1.20225
1.20235
1.20245
1.20255
1.20265
1.20275
1.20285
1.20295
1.20305
1.20314
1.20324
1.20333
1.20342
1.20352
1.20361
1.20369
1.20378
1.20386
1.20394
1.20402
1.2041
1.20417
1.20424
1.20431
1.20438
1.20444
1.2045
1.20456
1.20461
1.20466
1.20471
1.20475
1.20479
1.20483
1.20486
1.20489
1.20492
1.20494
1.20496
1.20498
1.20499
1.205
1.20501
1.20501
1.20501
1.20501
1.205
1.205
1.20498
1.20497
1.20496
1.20494
1.20492
1.2049
1.20488
1.20486
1.20484
1.20481
1.20479
1.20477
1.20474
1.20472
1.2047
1.20468
1.20466
1.20465
1.20463
1.20462
1.20461
1.2046
1.20459
1.20459
1.20459
1.20459
1.20459
1.2046
1.20461
1.20462
1.20463
1.20465
1.20467
1.2047
1.20472
1.20475
1.20478
1.20481
1.20484
1.20485
1.20488
1.19763
1.19821
1.19926
1.20047
1.2016
1.20249
1.20312
1.20351
1.20371
1.2038
1.20374
1.2036
1.2034
1.20317
1.20291
1.20262
1.20232
1.20193
1.20163
1.20124
1.20087
1.20037
1.19995
1.1996
1.19933
1.19916
1.19903
1.19881
1.19818
1.19686
1.19482
1.1924
1.18999
1.18796
1.18667
1.18609
1.18596
1.18611
1.18693
1.18817
1.18945
1.19066
1.19181
1.19289
1.19396
1.19495
1.19602
1.19703
1.1981
1.19913
1.20014
1.20112
1.20204
1.20287
1.20365
1.20434
1.20496
1.20547
1.20592
1.20636
1.20673
1.20703
1.2073
1.2075
1.20766
1.20774
1.20776
1.20779
1.2076
1.20735
1.20706
1.20674
1.2064
1.20599
1.20553
1.2051
1.20467
1.20416
1.20369
1.20322
1.20285
1.20243
1.202
1.20184
1.20155
1.20134
1.20135
1.20149
1.20177
1.20221
1.20281
1.20358
1.20447
1.20552
1.20676
1.20812
1.20945
1.21068
1.21178
1.21271
1.21347
1.21406
1.2145
1.21479
1.21497
1.21504
1.21505
1.21501
1.21492
1.21479
1.21462
1.21442
1.21423
1.214
1.21375
1.21353
1.2133
1.21307
1.21283
1.21262
1.21241
1.21218
1.21196
1.21175
1.21158
1.2114
1.21121
1.21102
1.21085
1.21067
1.2105
1.21034
1.21019
1.21003
1.20984
1.20966
1.20947
1.20923
1.20894
1.20849
1.20781
1.20688
1.20574
1.2044
1.20289
1.20125
1.19951
1.19771
1.19603
1.19489
1.19441
1.19427
1.19433
1.19461
1.19517
1.19613
1.19728
1.19822
1.19884
1.19926
1.19953
1.19998
1.20055
1.20085
1.20101
1.20103
1.20084
1.20064
1.20031
1.1997
1.19892
1.19797
1.1969
1.19582
1.19473
1.19366
1.19262
1.19165
1.19076
1.18994
1.18923
1.18858
1.18803
1.18767
1.18741
1.18725
1.18719
1.18721
1.18732
1.18753
1.18785
1.1883
1.18884
1.1895
1.19035
1.19138
1.19256