/*--------------------------------*- C++ -*----------------------------------*\
| =========                 |                                                 |
| \\      /  F ield         | OpenFOAM: The Open Source CFD Toolbox           |
|  \\    /   O peration     | Version:  v1812                                 |
|   \\  /    A nd           | Web:      www.OpenFOAM.com                      |
|    \\/     M anipulation  |                                                 |
\*---------------------------------------------------------------------------*/
FoamFile
{
    version     2.0;
    format      ascii;
    class       volScalarField;
    location    "0.6";
    object      T;
}
// * * * * * * * * * * * * * * * * * * * * * * * * * * * * * * * * * * * * * //

dimensions      [0 0 0 1 0 0 0];


internalField   nonuniform List<scalar> 
20400
(
291.198
291.163
291.104
291.025
290.932
290.837
290.744
290.661
290.591
290.538
290.5
290.48
290.475
290.484
290.504
290.534
290.569
290.601
290.644
290.69
290.736
290.78
290.818
290.843
290.852
290.841
290.798
290.708
290.569
290.385
290.17
289.964
289.816
289.756
289.765
289.922
290.206
290.599
291.065
291.567
292.055
292.518
292.93
293.252
293.518
293.723
293.879
293.986
294.041
294.053
294.025
293.924
293.802
293.634
293.466
293.289
293.082
292.871
292.681
292.497
292.326
292.17
292.024
291.883
291.746
291.622
291.508
291.407
291.319
291.244
291.175
291.111
291.051
291
290.953
290.913
290.877
290.844
290.812
290.786
290.764
290.747
290.729
290.712
290.693
290.672
290.649
290.622
290.592
290.557
290.52
290.482
290.447
290.419
290.405
290.403
290.424
290.452
290.48
290.508
290.538
290.587
290.639
290.704
290.775
290.85
290.924
290.992
291.065
291.116
291.164
291.198
291.244
291.296
291.351
291.41
291.468
291.521
291.564
291.598
291.621
291.635
291.641
291.638
291.628
291.613
291.595
291.578
291.561
291.545
291.533
291.523
291.513
291.501
291.486
291.478
291.476
291.437
291.403
291.386
291.369
291.352
291.328
291.309
291.293
291.275
291.262
291.251
291.246
291.241
291.237
291.236
291.237
291.244
291.247
291.253
291.261
291.269
291.279
291.295
291.311
291.33
291.354
291.378
291.403
291.431
291.461
291.491
291.525
291.558
291.593
291.629
291.665
291.702
291.743
291.786
291.828
291.874
291.92
291.966
292.015
292.064
292.115
292.167
292.219
292.273
292.327
292.381
292.434
292.485
292.537
292.589
292.64
292.689
292.738
292.786
292.825
292.869
292.908
292.947
292.983
293.019
293.05
293.079
293.106
293.13
293.153
293.173
293.191
293.209
293.223
293.235
293.244
293.253
293.26
293.266
293.271
293.274
293.275
293.275
293.274
293.272
293.269
293.264
293.259
293.253
293.246
293.238
293.23
293.221
293.211
293.201
293.191
293.179
293.168
293.156
293.144
293.131
293.119
293.106
293.093
293.08
293.068
293.055
293.042
293.03
293.018
293.006
292.994
292.983
292.972
292.961
292.951
292.942
292.932
292.924
292.916
292.909
292.902
292.896
292.89
292.886
292.882
292.879
292.877
292.875
292.875
292.875
292.876
292.878
292.88
292.883
292.887
292.891
292.897
292.903
292.91
292.918
292.926
292.936
292.945
292.956
292.967
292.978
292.991
293.003
293.017
293.03
293.045
293.059
293.074
293.09
293.105
293.121
293.137
293.154
293.17
293.187
293.204
293.221
293.239
293.256
293.273
293.29
293.307
293.324
293.34
293.357
293.373
293.39
293.406
293.421
293.437
293.452
293.467
293.481
293.495
293.508
293.521
293.534
293.546
293.558
293.569
293.58
293.589
293.599
293.608
293.616
293.623
293.63
293.636
293.642
293.646
293.651
293.654
293.657
293.659
293.66
293.66
293.66
293.659
293.658
293.655
293.652
293.649
293.644
293.639
293.634
293.627
293.621
293.613
293.605
293.597
293.589
293.58
293.57
293.56
293.551
293.54
293.53
293.52
293.509
293.499
293.489
293.478
293.468
293.459
293.449
293.44
293.431
293.422
293.414
293.406
293.399
293.392
293.386
293.38
293.375
293.371
293.367
293.363
293.361
293.359
293.358
293.357
293.357
293.358
293.359
293.361
293.363
293.366
293.37
293.374
293.379
293.385
293.391
293.397
293.404
293.411
293.419
293.427
293.435
293.444
293.453
293.463
293.472
293.482
293.492
293.502
293.513
293.523
293.534
293.545
293.556
293.567
293.577
293.588
293.599
293.61
293.621
293.632
293.642
293.653
293.663
293.674
293.684
293.694
293.703
293.713
293.723
293.732
293.741
293.749
293.758
293.766
293.774
293.782
293.79
293.797
293.804
293.81
293.817
293.822
293.828
293.833
293.838
293.843
293.847
293.851
293.855
293.858
293.861
293.863
293.866
293.867
293.869
293.87
293.871
293.871
293.872
293.872
293.872
293.871
293.871
293.87
293.869
293.868
293.868
293.867
293.865
293.864
293.863
293.862
293.861
293.86
293.859
293.858
293.857
293.857
293.856
293.855
293.855
293.854
293.854
293.853
293.851
293.848
293.843
293.838
293.829
293.823
293.819
293.818
293.821
293.828
293.837
293.845
293.853
293.86
293.873
291.132
291.092
291.022
290.931
290.828
290.722
290.622
290.533
290.461
290.405
290.367
290.348
290.342
290.356
290.383
290.417
290.459
290.493
290.543
290.6
290.647
290.693
290.738
290.771
290.781
290.769
290.711
290.591
290.419
290.212
290.01
289.871
289.82
289.842
290.058
290.417
290.878
291.391
291.893
292.35
292.731
293.077
293.356
293.537
293.652
293.711
293.726
293.718
293.679
293.625
293.495
293.281
293.074
292.877
292.706
292.565
292.403
292.155
292.006
291.844
291.682
291.524
291.375
291.233
291.099
290.987
290.88
290.78
290.66
290.546
290.461
290.374
290.28
290.193
290.111
290.037
289.968
289.9
289.831
289.766
289.714
289.675
289.639
289.599
289.556
289.515
289.475
289.435
289.395
289.355
289.317
289.283
289.255
289.235
289.226
289.229
289.254
289.289
289.325
289.359
289.39
289.415
289.469
289.537
289.622
289.72
289.822
289.923
290.009
290.098
290.163
290.22
290.272
290.334
290.405
290.483
290.57
290.661
290.75
290.83
290.9
290.965
291.021
291.068
291.105
291.135
291.161
291.186
291.209
291.232
291.258
291.288
291.324
291.359
291.386
291.404
291.412
291.425
291.429
291.408
291.388
291.364
291.333
291.3
291.273
291.244
291.214
291.184
291.158
291.136
291.12
291.107
291.097
291.089
291.084
291.084
291.084
291.083
291.083
291.089
291.095
291.102
291.114
291.125
291.139
291.157
291.176
291.198
291.22
291.24
291.264
291.29
291.323
291.356
291.389
291.422
291.455
291.49
291.527
291.567
291.609
291.654
291.701
291.75
291.8
291.852
291.907
291.963
292.019
292.075
292.131
292.191
292.253
292.316
292.389
292.441
292.496
292.547
292.598
292.65
292.702
292.753
292.801
292.846
292.888
292.927
292.963
292.996
293.027
293.056
293.08
293.101
293.119
293.136
293.151
293.164
293.175
293.183
293.19
293.195
293.198
293.199
293.199
293.198
293.195
293.191
293.186
293.181
293.174
293.166
293.157
293.148
293.138
293.128
293.117
293.105
293.094
293.081
293.069
293.057
293.044
293.031
293.019
293.006
292.993
292.981
292.969
292.957
292.945
292.934
292.923
292.913
292.903
292.893
292.884
292.876
292.868
292.86
292.854
292.848
292.842
292.838
292.834
292.831
292.829
292.828
292.827
292.827
292.828
292.83
292.832
292.836
292.84
292.844
292.85
292.856
292.863
292.871
292.879
292.888
292.898
292.909
292.92
292.931
292.944
292.956
292.97
292.983
292.998
293.012
293.027
293.042
293.058
293.074
293.09
293.106
293.123
293.14
293.156
293.173
293.19
293.207
293.224
293.241
293.258
293.275
293.291
293.308
293.324
293.34
293.356
293.371
293.387
293.402
293.416
293.43
293.444
293.458
293.471
293.483
293.495
293.507
293.517
293.528
293.538
293.547
293.556
293.564
293.571
293.578
293.584
293.589
293.594
293.598
293.601
293.604
293.606
293.607
293.607
293.607
293.606
293.604
293.602
293.599
293.595
293.591
293.585
293.58
293.573
293.567
293.559
293.551
293.543
293.534
293.525
293.516
293.506
293.496
293.486
293.475
293.465
293.454
293.444
293.433
293.423
293.413
293.403
293.393
293.384
293.375
293.366
293.358
293.35
293.343
293.336
293.33
293.324
293.319
293.314
293.31
293.307
293.305
293.303
293.301
293.301
293.301
293.301
293.303
293.305
293.307
293.31
293.314
293.318
293.323
293.329
293.335
293.341
293.348
293.355
293.363
293.371
293.379
293.388
293.397
293.407
293.416
293.426
293.436
293.446
293.456
293.467
293.477
293.488
293.498
293.509
293.519
293.53
293.541
293.551
293.562
293.573
293.583
293.594
293.604
293.614
293.624
293.633
293.644
293.653
293.662
293.671
293.68
293.689
293.697
293.705
293.712
293.72
293.728
293.734
293.741
293.748
293.754
293.76
293.765
293.771
293.775
293.78
293.784
293.788
293.792
293.795
293.798
293.801
293.803
293.805
293.806
293.807
293.808
293.809
293.809
293.809
293.809
293.809
293.809
293.808
293.807
293.806
293.806
293.805
293.804
293.803
293.802
293.8
293.799
293.8
293.798
293.795
293.795
293.794
293.794
293.794
293.795
293.794
293.794
293.793
293.79
293.786
293.779
293.773
293.766
293.763
293.762
293.764
293.77
293.78
293.785
293.792
293.801
293.809
293.828
290.992
290.939
290.848
290.734
290.608
290.483
290.368
290.272
290.198
290.144
290.114
290.102
290.113
290.139
290.178
290.226
290.28
290.329
290.399
290.458
290.516
290.574
290.629
290.678
290.701
290.697
290.638
290.499
290.308
290.116
289.983
289.933
289.952
290.165
290.547
291.064
291.657
292.236
292.712
293.063
293.299
293.45
293.501
293.501
293.472
293.391
293.277
293.146
292.996
292.823
292.626
292.418
292.202
292
291.841
291.706
291.564
291.429
291.287
291.118
290.966
290.821
290.666
290.518
290.378
290.205
290.085
289.908
289.783
289.718
289.586
289.425
289.346
289.242
289.153
289.069
288.991
288.918
288.849
288.786
288.727
288.677
288.629
288.577
288.526
288.476
288.426
288.376
288.326
288.278
288.232
288.19
288.153
288.123
288.098
288.082
288.075
288.081
288.092
288.105
288.119
288.142
288.171
288.216
288.276
288.351
288.439
288.533
288.628
288.719
288.812
288.9
288.992
289.073
289.141
289.207
289.277
289.367
289.47
289.577
289.683
289.784
289.872
289.949
290.023
290.104
290.196
290.294
290.388
290.469
290.542
290.621
290.715
290.825
290.943
291.054
291.144
291.212
291.267
291.321
291.373
291.41
291.409
291.398
291.346
291.302
291.254
291.195
291.131
291.07
291.018
290.973
290.937
290.893
290.872
290.851
290.832
290.813
290.792
290.777
290.764
290.754
290.75
290.748
290.749
290.757
290.764
290.78
290.796
290.814
290.837
290.857
290.876
290.895
290.917
290.939
290.961
290.985
291.009
291.034
291.059
291.085
291.111
291.139
291.167
291.197
291.229
291.262
291.297
291.333
291.37
291.412
291.463
291.52
291.582
291.661
291.74
291.817
291.899
291.982
292.066
292.153
292.236
292.317
292.391
292.461
292.526
292.59
292.651
292.709
292.76
292.804
292.843
292.879
292.912
292.944
292.972
292.997
293.018
293.035
293.049
293.061
293.071
293.078
293.084
293.087
293.088
293.088
293.086
293.083
293.078
293.072
293.065
293.057
293.048
293.038
293.028
293.017
293.006
292.994
292.983
292.97
292.958
292.946
292.933
292.921
292.909
292.897
292.885
292.874
292.863
292.852
292.842
292.832
292.823
292.815
292.807
292.799
292.792
292.786
292.781
292.776
292.772
292.769
292.767
292.765
292.765
292.765
292.765
292.767
292.769
292.772
292.776
292.781
292.786
292.792
292.799
292.807
292.815
292.824
292.834
292.844
292.855
292.866
292.878
292.891
292.904
292.918
292.932
292.946
292.961
292.976
292.991
293.007
293.023
293.039
293.055
293.072
293.088
293.105
293.122
293.139
293.155
293.172
293.189
293.205
293.221
293.238
293.254
293.27
293.285
293.3
293.316
293.33
293.345
293.359
293.372
293.386
293.398
293.411
293.423
293.434
293.445
293.455
293.465
293.474
293.483
293.49
293.498
293.504
293.51
293.515
293.52
293.524
293.527
293.53
293.532
293.533
293.533
293.533
293.532
293.53
293.528
293.524
293.52
293.516
293.511
293.505
293.498
293.491
293.484
293.476
293.467
293.458
293.449
293.439
293.43
293.419
293.409
293.398
293.388
293.377
293.366
293.356
293.345
293.335
293.325
293.315
293.305
293.296
293.287
293.278
293.27
293.263
293.255
293.249
293.243
293.238
293.233
293.229
293.225
293.222
293.22
293.219
293.218
293.218
293.218
293.219
293.221
293.223
293.226
293.23
293.234
293.238
293.244
293.249
293.256
293.262
293.269
293.277
293.285
293.293
293.302
293.311
293.32
293.329
293.339
293.349
293.359
293.369
293.379
293.39
293.4
293.41
293.421
293.431
293.442
293.452
293.463
293.473
293.483
293.494
293.504
293.513
293.524
293.534
293.543
293.552
293.562
293.571
293.579
293.588
293.596
293.604
293.612
293.62
293.627
293.634
293.642
293.648
293.654
293.66
293.666
293.671
293.676
293.681
293.685
293.689
293.692
293.696
293.698
293.701
293.703
293.705
293.707
293.708
293.709
293.709
293.71
293.71
293.709
293.709
293.708
293.707
293.706
293.705
293.703
293.701
293.699
293.697
293.695
293.692
293.691
293.69
293.687
293.685
293.684
293.681
293.68
293.678
293.675
293.671
293.669
293.665
293.662
293.659
293.656
293.651
293.646
293.644
293.638
293.636
293.636
293.637
293.641
293.654
293.667
293.679
293.694
293.719
290.8
290.727
290.607
290.461
290.304
290.155
290.024
289.921
289.846
289.798
289.774
289.776
289.8
289.838
289.889
289.953
290.023
290.087
290.172
290.249
290.325
290.4
290.479
290.555
290.604
290.612
290.564
290.426
290.258
290.133
290.086
290.117
290.347
290.734
291.246
291.836
292.43
292.937
293.268
293.419
293.449
293.427
293.317
293.151
292.972
292.785
292.594
292.398
292.198
291.997
291.8
291.614
291.429
291.267
291.133
291.013
290.889
290.765
290.608
290.435
290.255
290.065
289.892
289.735
289.593
289.494
289.358
289.274
289.17
289.024
288.926
288.883
288.789
288.731
288.675
288.628
288.585
288.549
288.515
288.484
288.454
288.424
288.392
288.354
288.316
288.275
288.233
288.186
288.138
288.087
288.034
287.978
287.921
287.863
287.804
287.746
287.69
287.637
287.592
287.554
287.525
287.507
287.495
287.497
287.509
287.533
287.569
287.615
287.67
287.728
287.793
287.867
287.96
288.048
288.112
288.158
288.199
288.25
288.32
288.407
288.51
288.612
288.703
288.771
288.829
288.894
288.982
289.1
289.239
289.372
289.489
289.598
289.715
289.851
290.011
290.195
290.389
290.566
290.72
290.866
291.025
291.195
291.33
291.384
291.385
291.359
291.325
291.264
291.167
291.053
290.944
290.852
290.775
290.71
290.649
290.598
290.554
290.513
290.472
290.438
290.411
290.389
290.377
290.371
290.369
290.377
290.392
290.416
290.447
290.479
290.518
290.56
290.604
290.653
290.702
290.748
290.79
290.829
290.863
290.891
290.917
290.937
290.952
290.964
290.97
290.975
290.976
290.975
290.971
290.966
290.962
290.954
290.948
290.945
290.946
290.955
290.972
291.003
291.045
291.098
291.165
291.251
291.343
291.439
291.535
291.632
291.729
291.83
291.937
292.043
292.14
292.227
292.302
292.37
292.435
292.499
292.561
292.618
292.668
292.712
292.75
292.783
292.814
292.842
292.866
292.886
292.904
292.917
292.929
292.938
292.944
292.948
292.95
292.95
292.948
292.944
292.939
292.933
292.926
292.918
292.909
292.899
292.889
292.878
292.867
292.855
292.844
292.833
292.821
292.81
292.799
292.788
292.778
292.768
292.759
292.751
292.742
292.735
292.728
292.722
292.717
292.712
292.708
292.705
292.702
292.7
292.7
292.7
292.7
292.702
292.704
292.707
292.71
292.715
292.72
292.726
292.733
292.74
292.748
292.757
292.767
292.777
292.788
292.799
292.811
292.823
292.836
292.85
292.864
292.878
292.893
292.908
292.923
292.938
292.954
292.97
292.986
293.002
293.019
293.035
293.051
293.068
293.084
293.101
293.117
293.133
293.149
293.165
293.181
293.196
293.212
293.227
293.241
293.256
293.27
293.284
293.297
293.31
293.323
293.335
293.347
293.358
293.368
293.378
293.388
293.397
293.405
293.413
293.42
293.426
293.432
293.437
293.441
293.445
293.448
293.45
293.452
293.453
293.453
293.452
293.451
293.449
293.447
293.443
293.439
293.435
293.429
293.423
293.417
293.409
293.402
293.394
293.385
293.376
293.366
293.357
293.346
293.336
293.326
293.315
293.304
293.293
293.282
293.272
293.261
293.25
293.24
293.23
293.22
293.211
293.201
293.193
293.184
293.177
293.169
293.163
293.157
293.151
293.146
293.142
293.138
293.135
293.133
293.131
293.13
293.13
293.13
293.131
293.132
293.134
293.137
293.14
293.144
293.149
293.154
293.16
293.166
293.172
293.179
293.187
293.195
293.203
293.211
293.22
293.229
293.238
293.248
293.257
293.267
293.277
293.287
293.297
293.307
293.317
293.328
293.338
293.348
293.358
293.368
293.379
293.389
293.399
293.408
293.418
293.428
293.437
293.447
293.456
293.465
293.473
293.482
293.49
293.499
293.507
293.514
293.522
293.529
293.536
293.543
293.549
293.555
293.56
293.566
293.571
293.575
293.58
293.584
293.588
293.591
293.594
293.597
293.6
293.602
293.604
293.605
293.606
293.607
293.607
293.607
293.607
293.607
293.606
293.606
293.605
293.604
293.602
293.601
293.599
293.598
293.596
293.594
293.592
293.591
293.589
293.586
293.585
293.583
293.581
293.58
293.577
293.575
293.574
293.572
293.57
293.568
293.566
293.565
293.562
293.558
293.554
293.55
293.547
293.545
293.544
293.545
293.549
293.554
293.564
293.574
293.591
290.575
290.48
290.323
290.14
289.95
289.776
289.634
289.528
289.456
289.415
289.403
289.42
289.458
289.512
289.579
289.656
289.74
289.82
289.922
290.018
290.11
290.209
290.315
290.412
290.477
290.495
290.462
290.355
290.255
290.214
290.249
290.486
290.896
291.436
292.04
292.624
293.098
293.39
293.494
293.496
293.354
293.132
292.877
292.618
292.374
292.145
291.931
291.726
291.526
291.334
291.151
290.993
290.847
290.708
290.583
290.472
290.359
290.232
290.097
289.949
289.782
289.619
289.47
289.34
289.223
289.13
289.041
288.977
288.896
288.83
288.782
288.748
288.719
288.702
288.695
288.692
288.702
288.719
288.733
288.75
288.764
288.771
288.772
288.749
288.726
288.696
288.651
288.592
288.521
288.438
288.344
288.239
288.127
288.012
287.897
287.788
287.691
287.608
287.533
287.47
287.411
287.351
287.299
287.259
287.232
287.215
287.207
287.208
287.217
287.235
287.263
287.301
287.354
287.414
287.454
287.483
287.507
287.535
287.574
287.63
287.702
287.784
287.854
287.903
287.938
287.975
288.026
288.103
288.208
288.325
288.439
288.548
288.66
288.782
288.922
289.086
289.282
289.499
289.732
289.99
290.279
290.602
290.93
291.177
291.294
291.338
291.387
291.408
291.345
291.189
291.022
290.886
290.77
290.657
290.541
290.44
290.357
290.294
290.235
290.185
290.146
290.123
290.112
290.114
290.125
290.151
290.193
290.252
290.325
290.405
290.499
290.604
290.716
290.834
290.954
291.069
291.176
291.276
291.362
291.433
291.494
291.54
291.569
291.583
291.584
291.571
291.545
291.498
291.434
291.358
291.27
291.172
291.076
290.986
290.899
290.818
290.74
290.671
290.613
290.57
290.538
290.516
290.515
290.536
290.574
290.629
290.706
290.803
290.924
291.061
291.198
291.324
291.437
291.54
291.641
291.745
291.852
291.957
292.053
292.138
292.213
292.279
292.341
292.4
292.458
292.51
292.557
292.598
292.634
292.667
292.696
292.72
292.742
292.76
292.774
292.786
292.795
292.801
292.805
292.806
292.806
292.803
292.799
292.794
292.787
292.779
292.771
292.762
292.752
292.742
292.732
292.722
292.713
292.703
292.694
292.685
292.677
292.67
292.663
292.657
292.651
292.646
292.642
292.639
292.636
292.635
292.634
292.634
292.634
292.636
292.638
292.641
292.644
292.649
292.654
292.66
292.666
292.674
292.682
292.691
292.7
292.71
292.721
292.732
292.744
292.756
292.769
292.782
292.796
292.81
292.825
292.84
292.855
292.87
292.886
292.902
292.918
292.934
292.95
292.966
292.983
292.999
293.015
293.031
293.047
293.063
293.079
293.095
293.11
293.125
293.14
293.155
293.169
293.183
293.197
293.211
293.224
293.237
293.249
293.261
293.272
293.283
293.293
293.303
293.312
293.321
293.329
293.337
293.343
293.35
293.355
293.36
293.364
293.367
293.37
293.372
293.374
293.374
293.374
293.374
293.372
293.37
293.368
293.364
293.36
293.355
293.35
293.343
293.337
293.33
293.322
293.313
293.305
293.295
293.286
293.276
293.266
293.255
293.245
293.234
293.223
293.212
293.201
293.19
293.18
293.169
293.158
293.148
293.138
293.128
293.119
293.11
293.102
293.094
293.086
293.08
293.073
293.068
293.062
293.058
293.054
293.051
293.048
293.046
293.045
293.045
293.045
293.045
293.046
293.049
293.051
293.054
293.058
293.062
293.067
293.073
293.079
293.085
293.092
293.099
293.107
293.115
293.123
293.132
293.141
293.15
293.159
293.169
293.179
293.188
293.198
293.208
293.218
293.228
293.239
293.249
293.259
293.269
293.279
293.288
293.298
293.308
293.318
293.327
293.336
293.346
293.355
293.364
293.372
293.381
293.389
293.398
293.406
293.413
293.421
293.428
293.435
293.442
293.448
293.454
293.46
293.466
293.471
293.475
293.48
293.485
293.488
293.492
293.495
293.498
293.5
293.503
293.505
293.506
293.507
293.508
293.509
293.509
293.509
293.509
293.508
293.508
293.507
293.506
293.504
293.503
293.501
293.5
293.498
293.496
293.494
293.492
293.49
293.488
293.486
293.484
293.482
293.48
293.479
293.477
293.475
293.474
293.472
293.471
293.469
293.467
293.466
293.464
293.462
293.46
293.458
293.456
293.454
293.452
293.451
293.451
293.453
293.458
293.466
293.479
290.344
290.227
290.034
289.814
289.594
289.402
289.253
289.15
289.086
289.059
289.06
289.092
289.143
289.21
289.289
289.378
289.473
289.566
289.684
289.8
289.913
290.032
290.159
290.275
290.358
290.387
290.377
290.327
290.299
290.332
290.55
290.949
291.492
292.111
292.716
293.196
293.476
293.568
293.561
293.377
293.082
292.761
292.443
292.148
291.882
291.638
291.423
291.221
291.037
290.864
290.713
290.578
290.457
290.343
290.246
290.151
290.053
289.949
289.834
289.714
289.597
289.48
289.37
289.27
289.184
289.111
289.054
289.007
288.971
288.955
288.944
288.955
288.982
289.012
289.045
289.096
289.155
289.22
289.278
289.325
289.377
289.417
289.445
289.455
289.444
289.42
289.39
289.331
289.254
289.154
289.034
288.892
288.731
288.554
288.368
288.179
287.994
287.823
287.67
287.538
287.426
287.335
287.26
287.197
287.145
287.104
287.073
287.05
287.033
287.025
287.027
287.038
287.058
287.081
287.097
287.113
287.126
287.142
287.163
287.195
287.239
287.289
287.333
287.363
287.385
287.408
287.438
287.482
287.54
287.608
287.682
287.759
287.843
287.934
288.034
288.15
288.289
288.462
288.687
288.979
289.337
289.743
290.169
290.564
290.862
291.061
291.215
291.349
291.415
291.357
291.162
290.993
290.86
290.743
290.621
290.49
290.359
290.242
290.148
290.074
290.024
289.997
289.998
290.007
290.038
290.097
290.178
290.279
290.405
290.551
290.726
290.922
291.131
291.353
291.58
291.8
292.008
292.203
292.375
292.522
292.653
292.762
292.843
292.901
292.931
292.945
292.938
292.903
292.842
292.751
292.624
292.473
292.308
292.127
291.929
291.716
291.489
291.251
291.011
290.784
290.585
290.423
290.293
290.187
290.099
290.029
289.979
289.955
289.978
290.049
290.15
290.259
290.367
290.476
290.592
290.722
290.866
291.016
291.161
291.292
291.407
291.51
291.607
291.703
291.801
291.896
291.985
292.065
292.138
292.205
292.268
292.325
292.379
292.427
292.471
292.51
292.545
292.575
292.602
292.624
292.642
292.656
292.667
292.675
292.679
292.681
292.681
292.678
292.674
292.669
292.662
292.655
292.647
292.639
292.631
292.623
292.615
292.608
292.601
292.595
292.59
292.585
292.581
292.577
292.575
292.573
292.572
292.572
292.573
292.574
292.576
292.579
292.582
292.587
292.592
292.598
292.605
292.612
292.62
292.629
292.639
292.649
292.659
292.67
292.682
292.694
292.707
292.72
292.734
292.748
292.762
292.777
292.792
292.808
292.823
292.839
292.855
292.871
292.887
292.904
292.92
292.936
292.952
292.968
292.984
293
293.016
293.031
293.046
293.061
293.076
293.09
293.105
293.118
293.132
293.145
293.158
293.17
293.182
293.194
293.205
293.215
293.225
293.235
293.244
293.253
293.26
293.268
293.274
293.28
293.285
293.29
293.294
293.297
293.299
293.301
293.303
293.303
293.302
293.302
293.3
293.298
293.295
293.291
293.287
293.282
293.276
293.27
293.263
293.256
293.248
293.239
293.231
293.221
293.212
293.202
293.191
293.181
293.17
293.16
293.149
293.138
293.127
293.116
293.105
293.094
293.083
293.073
293.063
293.053
293.044
293.035
293.027
293.019
293.011
293.004
292.998
292.992
292.987
292.982
292.978
292.975
292.972
292.97
292.969
292.968
292.968
292.969
292.97
292.972
292.974
292.977
292.981
292.985
292.99
292.995
293.001
293.007
293.013
293.021
293.028
293.036
293.044
293.053
293.062
293.071
293.08
293.09
293.099
293.109
293.119
293.129
293.139
293.149
293.159
293.169
293.179
293.189
293.199
293.208
293.218
293.228
293.237
293.246
293.255
293.265
293.273
293.282
293.291
293.299
293.307
293.315
293.323
293.33
293.338
293.345
293.352
293.358
293.364
293.37
293.376
293.381
293.386
293.391
293.395
293.4
293.403
293.407
293.41
293.413
293.415
293.417
293.419
293.42
293.421
293.422
293.422
293.423
293.422
293.422
293.421
293.421
293.42
293.418
293.417
293.415
293.414
293.412
293.41
293.408
293.406
293.404
293.402
293.4
293.398
293.396
293.395
293.393
293.391
293.389
293.388
293.386
293.385
293.384
293.383
293.382
293.381
293.38
293.379
293.378
293.378
293.377
293.376
293.375
293.374
293.374
293.374
293.377
293.381
293.39
290.128
289.993
289.768
289.514
289.27
289.068
288.92
288.825
288.776
288.76
288.779
288.824
288.887
288.964
289.052
289.15
289.254
289.358
289.487
289.616
289.746
289.883
290.023
290.151
290.245
290.297
290.318
290.334
290.392
290.581
290.965
291.497
292.106
292.712
293.217
293.528
293.64
293.643
293.497
293.201
292.854
292.521
292.209
291.927
291.666
291.427
291.213
291.02
290.848
290.691
290.552
290.431
290.322
290.228
290.144
290.066
289.989
289.911
289.829
289.738
289.643
289.55
289.463
289.384
289.319
289.271
289.241
289.227
289.219
289.236
289.27
289.311
289.364
289.418
289.472
289.541
289.621
289.719
289.816
289.884
289.94
290.004
290.061
290.089
290.099
290.093
290.074
290.024
289.947
289.84
289.703
289.534
289.336
289.112
288.873
288.626
288.379
288.141
287.923
287.729
287.561
287.418
287.299
287.203
287.13
287.072
287.025
286.988
286.958
286.935
286.92
286.917
286.921
286.924
286.923
286.926
286.93
286.937
286.947
286.964
286.987
287.013
287.038
287.056
287.072
287.088
287.108
287.134
287.164
287.199
287.24
287.287
287.338
287.396
287.46
287.533
287.622
287.736
287.892
288.108
288.399
288.754
289.151
289.56
289.959
290.339
290.692
291.027
291.282
291.36
291.331
291.241
291.124
291.006
290.866
290.69
290.489
290.32
290.208
290.136
290.089
290.056
290.039
290.044
290.077
290.146
290.254
290.391
290.562
290.765
291.009
291.284
291.577
291.886
292.203
292.511
292.808
293.088
293.341
293.568
293.775
293.958
294.109
294.232
294.325
294.388
294.428
294.446
294.445
294.405
294.329
294.217
294.078
293.906
293.695
293.447
293.163
292.841
292.487
292.112
291.733
291.383
291.063
290.759
290.465
290.189
289.948
289.749
289.597
289.496
289.44
289.419
289.425
289.462
289.534
289.641
289.783
289.946
290.111
290.267
290.406
290.534
290.658
290.784
290.918
291.056
291.189
291.312
291.426
291.532
291.632
291.729
291.822
291.91
291.992
292.069
292.141
292.208
292.269
292.325
292.374
292.418
292.457
292.489
292.516
292.538
292.556
292.568
292.577
292.582
292.584
292.584
292.581
292.577
292.572
292.566
292.56
292.554
292.548
292.542
292.537
292.532
292.528
292.525
292.522
292.52
292.52
292.519
292.52
292.522
292.524
292.527
292.53
292.534
292.54
292.546
292.553
292.56
292.568
292.577
292.587
292.597
292.607
292.619
292.63
292.642
292.655
292.668
292.682
292.696
292.71
292.725
292.74
292.755
292.771
292.787
292.803
292.819
292.835
292.851
292.868
292.884
292.9
292.916
292.932
292.948
292.963
292.979
292.994
293.009
293.024
293.038
293.052
293.066
293.079
293.092
293.104
293.116
293.128
293.139
293.15
293.16
293.17
293.18
293.188
293.197
293.204
293.211
293.217
293.223
293.228
293.233
293.236
293.239
293.242
293.243
293.244
293.244
293.243
293.242
293.24
293.238
293.235
293.231
293.226
293.221
293.215
293.209
293.202
293.194
293.186
293.178
293.169
293.159
293.149
293.139
293.129
293.119
293.108
293.097
293.086
293.075
293.064
293.053
293.042
293.031
293.021
293.01
293
292.991
292.981
292.972
292.964
292.956
292.948
292.941
292.935
292.929
292.924
292.919
292.915
292.912
292.909
292.907
292.906
292.905
292.905
292.906
292.907
292.909
292.911
292.914
292.917
292.921
292.926
292.931
292.937
292.943
292.949
292.956
292.963
292.971
292.979
292.988
292.997
293.006
293.015
293.024
293.034
293.043
293.053
293.063
293.073
293.083
293.093
293.103
293.113
293.123
293.133
293.143
293.152
293.162
293.171
293.18
293.19
293.198
293.207
293.216
293.224
293.232
293.24
293.248
293.255
293.263
293.27
293.277
293.284
293.29
293.296
293.302
293.308
293.313
293.318
293.322
293.326
293.331
293.334
293.337
293.34
293.343
293.345
293.347
293.349
293.35
293.351
293.351
293.352
293.352
293.351
293.351
293.35
293.349
293.348
293.347
293.345
293.343
293.342
293.34
293.338
293.336
293.334
293.332
293.33
293.328
293.326
293.324
293.323
293.321
293.319
293.318
293.316
293.315
293.314
293.313
293.312
293.311
293.311
293.31
293.31
293.31
293.31
293.31
293.31
293.31
293.311
293.311
293.312
293.313
293.316
293.322
289.937
289.789
289.538
289.258
288.997
288.792
288.654
288.575
288.544
288.543
288.58
288.639
288.713
288.798
288.894
288.997
289.108
289.22
289.353
289.489
289.629
289.77
289.917
290.051
290.156
290.236
290.307
290.396
290.572
290.919
291.438
292.048
292.649
293.149
293.477
293.613
293.64
293.596
293.389
293.087
292.785
292.504
292.245
292.011
291.797
291.599
291.415
291.234
291.061
290.896
290.741
290.599
290.471
290.354
290.256
290.171
290.097
290.029
289.961
289.895
289.828
289.762
289.7
289.644
289.596
289.562
289.546
289.549
289.546
289.574
289.62
289.672
289.731
289.79
289.851
289.927
290.021
290.121
290.226
290.319
290.407
290.482
290.539
290.616
290.657
290.662
290.651
290.614
290.542
290.432
290.282
290.09
289.854
289.58
289.282
288.968
288.655
288.358
288.085
287.846
287.641
287.47
287.329
287.217
287.129
287.058
287.003
286.959
286.923
286.894
286.873
286.86
286.853
286.846
286.838
286.834
286.831
286.832
286.835
286.843
286.855
286.866
286.877
286.886
286.897
286.909
286.924
286.941
286.959
286.98
287.005
287.03
287.06
287.094
287.134
287.181
287.236
287.302
287.392
287.517
287.693
287.932
288.229
288.572
288.958
289.396
289.868
290.356
290.808
291.121
291.262
291.293
291.297
291.265
291.147
290.967
290.752
290.539
290.402
290.344
290.324
290.281
290.215
290.186
290.204
290.281
290.392
290.534
290.709
290.925
291.199
291.515
291.856
292.21
292.568
292.92
293.261
293.592
293.906
294.196
294.467
294.712
294.929
295.122
295.282
295.407
295.51
295.594
295.654
295.682
295.684
295.65
295.59
295.496
295.36
295.176