/*--------------------------------*- C++ -*----------------------------------*\
| =========                 |                                                 |
| \\      /  F ield         | OpenFOAM: The Open Source CFD Toolbox           |
|  \\    /   O peration     | Version:  v1812                                 |
|   \\  /    A nd           | Web:      www.OpenFOAM.com                      |
|    \\/     M anipulation  |                                                 |
\*---------------------------------------------------------------------------*/
FoamFile
{
    version     2.0;
    format      ascii;
    class       volVectorField;
    location    "0.6";
    object      U;
}
// * * * * * * * * * * * * * * * * * * * * * * * * * * * * * * * * * * * * * //

dimensions      [0 1 -1 0 0 0 0];


internalField   nonuniform List<vector> 
20400
(
(-0.133293 0.0592073 0)
(-0.396452 0.053069 0)
(-0.624889 -0.00923975 0)
(-0.802495 -0.0426421 0)
(-0.960474 -0.0495037 0)
(-1.11626 -0.0531859 0)
(-1.28127 -0.0558408 0)
(-1.45834 -0.060236 0)
(-1.64287 -0.0630659 0)
(-1.83018 -0.0620202 0)
(-2.0171 -0.0498754 0)
(-2.20177 -0.0330626 0)
(-2.38535 -0.0175915 0)
(-2.56845 0.02007 0)
(-2.74821 0.082694 0)
(-2.91402 0.177229 0)
(-3.0262 0.285736 0)
(-3.12968 0.3282 0)
(-3.22126 -0.609481 0)
(-3.36238 -0.502183 0)
(-3.59455 -0.447933 0)
(-3.85298 -0.43239 0)
(-4.10871 -0.461716 0)
(-4.31824 -0.557477 0)
(-4.48926 -0.675426 0)
(-4.69424 -0.724344 0)
(-4.91332 -0.721621 0)
(-5.13145 -0.601516 0)
(-5.27216 -0.284505 0)
(-5.42731 0.0124246 0)
(-5.63496 0.207102 0)
(-5.88907 0.321283 0)
(-6.17525 0.378068 0)
(-6.47444 0.396782 0)
(-6.7664 0.385816 0)
(-7.06199 0.366401 0)
(-7.4218 0.345942 0)
(-7.8611 0.237737 0)
(-8.33878 -0.00409816 0)
(-8.81028 -0.403079 0)
(-9.43994 -0.661736 0)
(-9.8878 -0.731554 0)
(-10.0549 0.927186 0)
(-10.3064 1.15049 0)
(-10.3959 1.07286 0)
(-10.4968 1.10363 0)
(-10.596 1.14836 0)
(-10.68 1.23258 0)
(-10.6976 1.44416 0)
(-10.7067 1.51829 0)
(-10.7178 0.527487 0)
(-10.7497 -1.63377 0)
(-10.6712 -0.546874 0)
(-10.5463 1.17584 0)
(-10.0343 1.59415 0)
(-9.95257 2.01296 0)
(-9.84486 1.34277 0)
(-9.87747 -2.15935 0)
(-9.79774 -2.03484 0)
(-9.73394 -1.30478 0)
(-9.67705 -0.729501 0)
(-9.5883 -0.439091 0)
(-9.56872 -0.30567 0)
(-9.65247 -0.219529 0)
(-9.79477 -0.113653 0)
(-9.99323 -0.0143252 0)
(-10.2275 0.00556153 0)
(-10.4665 0.035529 0)
(-10.7096 0.067716 0)
(-10.9604 0.0778007 0)
(-11.2009 0.0876773 0)
(-11.4343 0.114356 0)
(-11.6769 0.147416 0)
(-11.9425 0.17073 0)
(-12.2259 0.177496 0)
(-12.5163 0.142669 0)
(-12.7862 0.071027 0)
(-13.0313 0.0233148 0)
(-13.2418 -0.0405264 0)
(-13.3841 -0.125798 0)
(-13.4375 -0.192024 0)
(-13.4358 -0.207516 0)
(-13.4136 -0.192281 0)
(-13.3998 -0.144589 0)
(-13.3382 -0.167907 0)
(-13.1803 -0.184151 0)
(-12.9377 -0.208523 0)
(-12.6265 -0.204376 0)
(-12.2567 -0.166286 0)
(-11.8283 -0.081678 0)
(-11.35 0.0540294 0)
(-10.8297 0.23697 0)
(-10.2748 0.443805 0)
(-9.68893 0.63169 0)
(-9.08188 0.770575 0)
(-8.45544 0.851244 0)
(-7.81586 0.865436 0)
(-7.1821 0.802172 0)
(-6.56841 0.669228 0)
(-5.97707 0.475022 0)
(-5.38225 0.284085 0)
(-4.72103 0.154446 0)
(-4.02002 0.174407 0)
(-3.36254 0.182681 0)
(-2.76024 0.176517 0)
(-2.22912 0.164893 0)
(-1.77664 0.15188 0)
(-1.41261 0.131099 0)
(-1.10845 0.1071 0)
(-0.95221 -0.0322805 0)
(-0.905751 0.00918044 0)
(-0.85926 -0.0675829 0)
(-0.711469 -0.169297 0)
(-0.481134 -0.207661 0)
(-0.271493 -0.14091 0)
(-0.134325 -0.0761082 0)
(-0.0524339 -0.0293258 0)
(-0.0102802 0.00250533 0)
(0.00157569 0.021073 0)
(0.00644639 0.0214718 0)
(0.009496 0.0243155 0)
(-0.00175873 0.0528909 0)
(-0.0533704 0.0895688 0)
(-0.137532 0.1158 0)
(-0.238583 0.11978 0)
(-0.33807 0.112725 0)
(-0.432608 0.107614 0)
(-0.529957 0.115386 0)
(-0.63865 0.127197 0)
(-0.758806 0.133516 0)
(-0.879757 0.126925 0)
(-0.994115 0.116268 0)
(-1.09812 0.104454 0)
(-1.20046 0.111801 0)
(-1.31981 0.107484 0)
(-1.42648 -0.0573819 0)
(-1.62185 -0.0668363 0)
(-1.765 -0.162006 0)
(-1.81071 -0.270024 0)
(-1.79117 -0.268492 0)
(-1.69445 -0.236157 0)
(-1.54426 -0.155146 0)
(-1.47592 -0.0476532 0)
(-1.56531 0.0843984 0)
(-1.75286 0.11883 0)
(-1.93936 0.0906875 0)
(-2.04663 0.0348753 0)
(-2.08301 0.014962 0)
(-2.09361 0.0350813 0)
(-2.11797 0.0488788 0)
(-2.1686 0.100352 0)
(-2.28833 0.160772 0)
(-2.45212 0.179195 0)
(-2.58149 0.156731 0)
(-2.67722 0.153481 0)
(-2.79208 0.163238 0)
(-2.95204 0.204556 0)
(-3.17876 0.268917 0)
(-3.48552 0.335557 0)
(-3.83383 0.33489 0)
(-4.16683 0.325269 0)
(-4.48167 0.302276 0)
(-4.76062 0.270026 0)
(-5.0117 0.257878 0)
(-5.2535 0.24955 0)
(-5.483 0.228306 0)
(-5.68929 0.21092 0)
(-5.8825 0.195037 0)
(-6.06757 0.177064 0)
(-6.24527 0.167523 0)
(-6.41854 0.145738 0)
(-6.5839 0.123919 0)
(-6.73869 0.0977753 0)
(-6.88631 0.0722611 0)
(-7.02191 0.0318 0)
(-7.14418 -0.00576299 0)
(-7.24857 -0.0442021 0)
(-7.32225 -0.0859625 0)
(-7.36899 -0.121641 0)
(-7.40563 -0.153727 0)
(-7.4161 -0.188121 0)
(-7.40221 -0.210905 0)
(-7.38194 -0.224822 0)
(-7.35411 -0.239708 0)
(-7.31892 -0.245685 0)
(-7.27725 -0.254239 0)
(-7.21209 -0.262559 0)
(-7.12978 -0.256261 0)
(-7.0485 -0.239499 0)
(-6.9738 -0.224095 0)
(-6.89161 -0.217156 0)
(-6.77624 -0.2228 0)
(-6.62382 -0.220451 0)
(-6.46576 -0.197802 0)
(-6.32022 -0.171657 0)
(-6.20279 -0.0652 0)
(-6.09257 -0.00132003 0)
(-6.01315 0.0762837 0)
(-5.91438 0.112148 0)
(-5.82277 0.128045 0)
(-5.72651 0.125378 0)
(-5.61431 0.112601 0)
(-5.50084 0.110662 0)
(-5.40184 0.109198 0)
(-5.31434 0.106311 0)
(-5.23875 0.101903 0)
(-5.17263 0.0937627 0)
(-5.10836 0.082515 0)
(-5.04658 0.0731908 0)
(-4.98461 0.0638331 0)
(-4.92537 0.0584777 0)
(-4.87208 0.0531758 0)
(-4.82355 0.0460294 0)
(-4.77726 0.0373174 0)
(-4.73027 0.0298177 0)
(-4.68517 0.0238697 0)
(-4.64102 0.0191024 0)
(-4.59679 0.0152218 0)
(-4.5543 0.0130522 0)
(-4.51514 0.011017 0)
(-4.47729 0.00810548 0)
(-4.43878 0.00430113 0)
(-4.39856 0.00104433 0)
(-4.35677 -0.00154735 0)
(-4.3126 -0.00357061 0)
(-4.26635 -0.00456641 0)
(-4.21906 -0.00492525 0)
(-4.17094 -0.00507599 0)
(-4.12193 -0.0050689 0)
(-4.07175 -0.00528758 0)
(-4.01954 -0.00564789 0)
(-3.96552 -0.00548418 0)
(-3.91037 -0.00507372 0)
(-3.85403 -0.00470881 0)
(-3.79637 -0.00439382 0)
(-3.73748 -0.0039748 0)
(-3.67757 -0.00351603 0)
(-3.61676 -0.00302218 0)
(-3.55521 -0.00252744 0)
(-3.49304 -0.00206722 0)
(-3.43038 -0.00163865 0)
(-3.36742 -0.0012265 0)
(-3.30436 -0.000817338 0)
(-3.24142 -0.000410575 0)
(-3.17882 1.82941e-06 0)
(-3.11679 0.000412553 0)
(-3.05555 0.0007986 0)
(-2.99529 0.00113747 0)
(-2.93616 0.00141267 0)
(-2.8783 0.00161177 0)
(-2.82181 0.00174315 0)
(-2.76682 0.00183581 0)
(-2.71348 0.00192194 0)
(-2.66198 0.00202042 0)
(-2.6125 0.00213579 0)
(-2.56521 0.0022638 0)
(-2.52027 0.00239355 0)
(-2.47779 0.00251258 0)
(-2.43788 0.00260626 0)
(-2.4006 0.00266447 0)
(-2.366 0.00269197 0)
(-2.33412 0.00269956 0)
(-2.30502 0.0026906 0)
(-2.27874 0.00266681 0)
(-2.25537 0.00261998 0)
(-2.23509 0.00254412 0)
(-2.21794 0.00245109 0)
(-2.20354 0.00233656 0)
(-2.19117 0.00220605 0)
(-2.18224 0.00209434 0)
(-2.17629 0.00196254 0)
(-2.17292 0.00197801 0)
(-2.17236 0.00175396 0)
(-2.17466 0.00129256 0)
(-2.18049 0.00138616 0)
(-2.18915 0.0011671 0)
(-2.20073 0.00102681 0)
(-2.21513 0.000867534 0)
(-2.23236 0.000767558 0)
(-2.25238 0.000567517 0)
(-2.27505 0.000347571 0)
(-2.30031 0.000129642 0)
(-2.32808 -8.68368e-05 0)
(-2.35826 -0.000314407 0)
(-2.39076 -0.00055583 0)
(-2.42547 -0.000802552 0)
(-2.4623 -0.00104827 0)
(-2.50114 -0.0012975 0)
(-2.54191 -0.00154782 0)
(-2.58447 -0.00179919 0)
(-2.62873 -0.00204911 0)
(-2.67457 -0.00230231 0)
(-2.72185 -0.00255658 0)
(-2.77045 -0.00281493 0)
(-2.82024 -0.00307179 0)
(-2.87108 -0.00332771 0)
(-2.92285 -0.00358069 0)
(-2.97539 -0.00383104 0)
(-3.02858 -0.00407509 0)
(-3.08229 -0.0043056 0)
(-3.1364 -0.0045207 0)
(-3.19077 -0.00471822 0)
(-3.24527 -0.00490614 0)
(-3.29976 -0.00509028 0)
(-3.35408 -0.0052708 0)
(-3.40807 -0.0054554 0)
(-3.46159 -0.00563616 0)
(-3.51448 -0.00581972 0)
(-3.56658 -0.00600232 0)
(-3.61774 -0.00617244 0)
(-3.66781 -0.00633299 0)
(-3.71667 -0.00648187 0)
(-3.76416 -0.0066086 0)
(-3.81017 -0.00671208 0)
(-3.85458 -0.00680046 0)
(-3.89725 -0.00688332 0)
(-3.93803 -0.00696563 0)
(-3.9768 -0.00704729 0)
(-4.01341 -0.00712309 0)
(-4.04775 -0.00718673 0)
(-4.07971 -0.00722458 0)
(-4.1092 -0.00723646 0)
(-4.13614 -0.00722587 0)
(-4.16043 -0.00719787 0)
(-4.18198 -0.00715832 0)
(-4.20069 -0.00710824 0)
(-4.21648 -0.00704969 0)
(-4.22922 -0.0069788 0)
(-4.23891 -0.00693953 0)
(-4.24524 -0.00688661 0)
(-4.24877 -0.00701089 0)
(-4.2488 -0.00690936 0)
(-4.24598 -0.0064084 0)
(-4.23996 -0.00605509 0)
(-4.23092 -0.0061041 0)
(-4.21842 -0.00598696 0)
(-4.20216 -0.00582566 0)
(-4.1833 -0.00564541 0)
(-4.1611 -0.00543005 0)
(-4.13574 -0.00521096 0)
(-4.10735 -0.00497816 0)
(-4.07588 -0.00472882 0)
(-4.04126 -0.00446878 0)
(-4.00359 -0.00420426 0)
(-3.963 -0.00393202 0)
(-3.91969 -0.00365706 0)
(-3.87377 -0.00337809 0)
(-3.82538 -0.00309932 0)
(-3.77462 -0.00282338 0)
(-3.72164 -0.00255582 0)
(-3.66658 -0.00229561 0)
(-3.60962 -0.00204334 0)
(-3.55094 -0.00179652 0)
(-3.49072 -0.0015538 0)
(-3.42917 -0.00131327 0)
(-3.36649 -0.00107372 0)
(-3.30291 -0.000831207 0)
(-3.23866 -0.000589827 0)
(-3.17396 -0.000354496 0)
(-3.10904 -0.000131803 0)
(-3.04412 6.66802e-05 0)
(-2.9794 0.000240908 0)
(-2.9151 0.000410007 0)
(-2.85145 0.000588152 0)
(-2.78867 0.000748937 0)
(-2.72697 0.000899482 0)
(-2.66656 0.00104256 0)
(-2.60765 0.0011803 0)
(-2.55045 0.00132751 0)
(-2.49515 0.00146907 0)
(-2.44193 0.00158245 0)
(-2.39094 0.00165636 0)
(-2.34228 0.00169732 0)
(-2.29611 0.00172932 0)
(-2.25258 0.00177609 0)
(-2.21186 0.00184896 0)
(-2.17412 0.00194578 0)
(-2.13948 0.00205025 0)
(-2.10805 0.00214389 0)
(-2.07988 0.00220398 0)
(-2.05495 0.00223257 0)
(-2.03329 0.00222354 0)
(-2.01486 0.00219553 0)
(-1.99977 0.00218917 0)
(-1.98804 0.00221677 0)
(-1.98042 0.00223532 0)
(-1.97538 0.00155548 0)
(-1.97403 0.0022892 0)
(-1.97544 0.00224821 0)
(-1.98091 0.00187467 0)
(-1.98975 0.00205947 0)
(-2.00151 0.00204837 0)
(-2.01639 0.00200376 0)
(-2.03433 0.00192327 0)
(-2.05531 0.00182662 0)
(-2.07929 0.001716 0)
(-2.10614 0.00158955 0)
(-2.13573 0.00146597 0)
(-2.16795 0.00134154 0)
(-2.20268 0.0012188 0)
(-2.23982 0.0010756 0)
(-2.27923 0.000969521 0)
(-2.32077 0.000774671 0)
(-2.36432 0.000634279 0)
(-2.40981 0.000545704 0)
(-2.45695 0.000460903 0)
(-2.50573 0.0003353 0)
(-2.55594 0.000345437 0)
(-2.60719 0.000565162 0)
(-2.65971 1.4739e-06 0)
(-2.71325 7.09566e-05 0)
(-2.7676 6.58572e-05 0)
(-2.82251 0.000174628 0)
(-2.87795 0.000275342 0)
(-2.93367 0.000425256 0)
(-2.98952 0.000643826 0)
(-3.04533 0.000880412 0)
(-3.10093 0.00110297 0)
(-3.15615 0.00131878 0)
(-3.21084 0.00152014 0)
(-3.26486 0.00172155 0)
(-3.31807 0.00164598 0)
(-3.3703 0.00207531 0)
(-3.42132 0.00220353 0)
(-3.47098 0.00228478 0)
(-3.51915 0.00229972 0)
(-3.56568 0.00215422 0)
(-3.61039 0.00218874 0)
(-3.65326 0.00197409 0)
(-3.69429 0.00213455 0)
(-3.7322 0.00252622 0)
(-3.76871 0.00164726 0)
(-3.8024 0.00138548 0)
(-3.83368 0.0013089 0)
(-3.86237 0.00106803 0)
(-3.88839 0.00107117 0)
(-3.91146 0.000944346 0)
(-3.93149 0.000960202 0)
(-3.94854 0.000890449 0)
(-3.96246 0.000708793 0)
(-3.9732 0.000626191 0)
(-3.98071 0.000399915 0)
(-3.98503 -0.000179999 0)
(-3.98599 -0.000161746 0)
(-3.98411 -0.000315016 0)
(-3.97887 -0.000898509 0)
(-3.97025 -0.00129656 0)
(-3.95834 -0.00171286 0)
(-3.94319 -0.00209059 0)
(-3.92473 -0.00250066 0)
(-3.90302 -0.00296819 0)
(-3.87814 -0.00344181 0)
(-3.85019 -0.0039085 0)
(-3.8192 -0.00441545 0)
(-3.78523 -0.00495124 0)
(-3.7482 -0.00554244 0)
(-3.70864 -0.00616275 0)
(-3.66632 -0.0068121 0)
(-3.62141 -0.00751028 0)
(-3.57416 -0.00825006 0)
(-3.52471 -0.00902297 0)
(-3.4732 -0.00983587 0)
(-3.41971 -0.0106943 0)
(-3.36436 -0.0115975 0)
(-3.30735 -0.0125399 0)
(-3.2489 -0.0135153 0)
(-3.18922 -0.0145257 0)
(-3.12848 -0.0155669 0)
(-3.06684 -0.0166534 0)
(-3.00449 -0.0178199 0)
(-2.9416 -0.0190309 0)
(-2.87835 -0.020296 0)
(-2.81492 -0.0216171 0)
(-2.75148 -0.023026 0)
(-2.68818 -0.0244098 0)
(-2.62527 -0.0257201 0)
(-2.56298 -0.0270195 0)
(-2.50146 -0.0282779 0)
(-2.44089 -0.0294682 0)
(-2.3815 -0.0305289 0)
(-2.32349 -0.0314426 0)
(-2.26708 -0.032144 0)
(-2.21243 -0.032659 0)
(-2.15984 -0.0329369 0)
(-2.10901 -0.0331074 0)
(-2.06003 -0.033394 0)
(-2.01244 -0.0341145 0)
(-1.96544 -0.0354602 0)
(-1.91823 -0.0374981 0)
(-1.87 -0.0401466 0)
(-1.81998 -0.043502 0)
(-1.7674 -0.0479826 0)
(-1.71077 -0.0553606 0)
(-1.64718 -0.0676763 0)
(-1.57309 -0.0854517 0)
(-1.47973 -0.0746317 0)
(-1.38837 -0.0682438 0)
(-1.30905 -0.0574269 0)
(-1.23904 -0.0397004 0)
(-1.19023 -0.00456604 0)
(-0.117916 0.0749998 0)
(-0.365096 0.0724634 0)
(-0.600305 0.000429162 0)
(-0.815259 -0.0409817 0)
(-1.02456 -0.0492203 0)
(-1.23488 -0.0421527 0)
(-1.44753 -0.026868 0)
(-1.66239 -0.0136267 0)
(-1.87731 -0.00767248 0)
(-2.08956 -0.005546 0)
(-2.29798 -0.0105886 0)
(-2.49794 -0.0122995 0)
(-2.70459 -0.0190039 0)
(-2.92903 -0.0211447 0)
(-3.1584 -0.0330286 0)
(-3.37734 -0.0747829 0)
(-3.56141 -0.132892 0)
(-3.70542 -0.228068 0)
(-3.90866 0.041956 0)
(-4.25105 0.170075 0)
(-4.57005 0.192729 0)
(-4.87676 0.196153 0)
(-5.17492 0.162501 0)
(-5.45855 0.138448 0)
(-5.77159 0.185487 0)
(-6.16919 0.251286 0)
(-6.66485 0.246193 0)
(-7.23179 0.157973 0)
(-7.84325 0.034144 0)
(-8.47564 -0.0126349 0)
(-9.11104 0.00369971 0)
(-9.76335 0.0383495 0)
(-10.4486 0.0632912 0)
(-11.1784 0.0635777 0)
(-11.9527 0.057815 0)
(-12.7558 0.107763 0)
(-13.5307 0.241536 0)
(-14.1852 0.366655 0)
(-14.6609 0.499368 0)
(-14.9089 0.773112 0)
(-15.1185 0.960128 0)
(-15.496 0.398237 0)
(-16.0587 -0.114187 0)
(-16.5581 -0.434417 0)
(-17.0421 -0.414066 0)
(-17.3932 -0.39376 0)
(-17.5913 -0.440479 0)
(-17.6595 -0.493653 0)
(-17.6076 -0.638505 0)
(-17.4301 -0.694429 0)
(-17.2398 -0.289413 0)
(-17.331 0.532228 0)
(-17.5289 -0.11126 0)
(-17.3828 -1.06983 0)
(-16.9651 -1.10338 0)
(-16.4162 -1.10699 0)
(-15.8622 -0.855515 0)
(-16.1304 0.929602 0)
(-16.8098 0.722338 0)
(-17.4129 0.393321 0)
(-17.8572 0.117568 0)
(-18.2367 0.0553285 0)
(-18.5514 0.101988 0)
(-18.8363 0.187497 0)
(-19.1249 0.257315 0)
(-19.457 0.276818 0)
(-19.8228 0.306631 0)
(-20.1942 0.285198 0)
(-20.5912 0.298858 0)
(-21.0153 0.296538 0)
(-21.4158 0.266481 0)
(-21.7908 0.258593 0)
(-22.1129 0.27729 0)
(-22.357 0.299297 0)
(-22.5033 0.317513 0)
(-22.55 0.327109 0)
(-22.5222 0.318889 0)
(-22.4079 0.29573 0)
(-22.2134 0.256551 0)
(-21.9746 0.165124 0)
(-21.6626 0.0821366 0)
(-21.261 0.058301 0)
(-20.7987 0.0399831 0)
(-20.3262 0.0334544 0)
(-19.8415 -0.0747496 0)
(-19.3072 -0.188206 0)
(-18.7176 -0.273704 0)
(-18.0719 -0.34041 0)
(-17.3664 -0.415639 0)
(-16.5952 -0.48807 0)
(-15.7568 -0.563237 0)
(-14.8474 -0.640719 0)
(-13.8688 -0.722566 0)
(-12.8357 -0.799734 0)
(-11.7731 -0.873292 0)
(-10.6954 -0.953472 0)
(-9.60374 -1.02059 0)
(-8.52264 -1.05615 0)
(-7.50221 -1.06323 0)
(-6.58698 -1.03411 0)
(-5.81344 -0.987426 0)
(-5.22491 -0.907192 0)
(-4.70039 -0.903581 0)
(-4.14251 -0.869559 0)
(-3.56576 -0.809504 0)
(-2.98902 -0.728497 0)
(-2.42999 -0.632526 0)
(-1.90606 -0.533462 0)
(-1.42671 -0.446836 0)
(-0.833216 -0.551974 0)
(-0.107835 -0.539208 0)
(0.513093 -0.466982 0)
(0.999361 -0.48351 0)
(1.40832 -0.442793 0)
(1.72152 -0.291494 0)
(1.94606 -0.170034 0)
(2.10918 -0.081488 0)
(2.22122 -0.0164786 0)
(2.28473 0.0275337 0)
(2.32306 0.0344824 0)
(2.33869 0.0451732 0)
(2.31652 0.086385 0)
(2.24266 0.14416 0)
(2.12253 0.192704 0)
(1.96657 0.212963 0)
(1.7892 0.218209 0)
(1.59327 0.226088 0)
(1.37419 0.254186 0)
(1.1237 0.289852 0)
(0.833276 0.326623 0)
(0.499342 0.359588 0)
(0.117429 0.406768 0)
(-0.316995 0.466922 0)
(-0.79042 0.517867 0)
(-1.23746 0.433338 0)
(-1.52027 0.268656 0)
(-1.73515 0.269995 0)
(-1.91652 0.184072 0)
(-2.08134 0.084088 0)
(-2.22136 -0.0149187 0)
(-2.30514 -0.126297 0)
(-2.40104 -0.13253 0)
(-2.45073 0.0199362 0)
(-2.67067 0.130806 0)
(-3.01423 0.211656 0)
(-3.38317 0.153877 0)
(-3.73188 0.042036 0)
(-4.06663 -0.0267734 0)
(-4.39417 -0.0398895 0)
(-4.72125 -0.030944 0)
(-5.05807 0.0183171 0)
(-5.40839 0.085337 0)
(-5.77579 0.0875542 0)
(-6.14591 -0.00837338 0)
(-6.55522 -0.0113693 0)
(-6.9848 0.0315734 0)
(-7.42133 0.102886 0)
(-7.88086 0.185342 0)
(-8.37913 0.267747 0)
(-8.88763 0.263344 0)
(-9.36669 0.245084 0)
(-9.82024 0.213102 0)
(-10.2328 0.170245 0)
(-10.6148 0.151285 0)
(-10.9782 0.146306 0)
(-11.3122 0.127411 0)
(-11.6139 0.100919 0)
(-11.8906 0.102113 0)
(-12.1349 0.0932015 0)
(-12.3529 0.0932192 0)
(-12.5387 0.0954766 0)
(-12.6797 0.0919438 0)
(-12.7791 0.0892576 0)
(-12.8396 0.089483 0)
(-12.8595 0.08783 0)
(-12.8439 0.0817235 0)
(-12.8096 0.0655503 0)
(-12.7476 0.0326403 0)
(-12.6442 0.027421 0)
(-12.5182 0.0114662 0)
(-12.3722 -0.0108394 0)
(-12.205 -0.0210027 0)
(-12.0278 -0.0229215 0)
(-11.8412 -0.0348127 0)
(-11.6499 -0.0347481 0)
(-11.4564 -0.0545687 0)
(-11.2504 -0.0834759 0)
(-11.0328 -0.094017 0)
(-10.8143 -0.0879477 0)
(-10.6015 -0.0864917 0)
(-10.3922 -0.112153 0)
(-10.1773 -0.165269 0)
(-9.94462 -0.196552 0)
(-9.70849 -0.190216 0)
(-9.46174 -0.151167 0)
(-9.33657 -0.185751 0)
(-9.3146 -0.144344 0)
(-9.27104 -0.182816 0)
(-9.18979 -0.1905 0)
(-9.08987 -0.192109 0)
(-8.97719 -0.206189 0)
(-8.85405 -0.223117 0)
(-8.72936 -0.204118 0)
(-8.61017 -0.184475 0)
(-8.49613 -0.165605 0)
(-8.39003 -0.145828 0)
(-8.29191 -0.132703 0)
(-8.19969 -0.126814 0)
(-8.11498 -0.115371 0)
(-8.03409 -0.112373 0)
(-7.9592 -0.097549 0)
(-7.8895 -0.0860902 0)
(-7.82555 -0.076237 0)
(-7.76575 -0.0710332 0)
(-7.71192 -0.0634754 0)
(-7.66174 -0.0562972 0)
(-7.61405 -0.0506869 0)
(-7.56791 -0.0457905 0)
(-7.5242 -0.0365288 0)
(-7.4827 -0.0294235 0)
(-7.4427 -0.0244124 0)
(-7.40354 -0.0222447 0)
(-7.36486 -0.0197855 0)
(-7.32619 -0.0184715 0)
(-7.28678 -0.018032 0)
(-7.24637 -0.0166258 0)
(-7.20506 -0.0145493 0)
(-7.16275 -0.0128948 0)
(-7.11929 -0.0113961 0)
(-7.0745 -0.0110255 0)
(-7.02803 -0.0116208 0)
(-6.97993 -0.0112136 0)
(-6.93038 -0.010891 0)
(-6.87928 -0.0108785 0)
(-6.82664 -0.0112204 0)
(-6.77249 -0.011439 0)
(-6.71698 -0.0117133 0)
(-6.66016 -0.0119711 0)
(-6.60215 -0.0122355 0)
(-6.54307 -0.012534 0)
(-6.48308 -0.01283 0)
(-6.42233 -0.0130909 0)
(-6.36102 -0.013274 0)
(-6.29934 -0.0133798 0)
(-6.23748 -0.0133882 0)
(-6.17566 -0.0133034 0)
(-6.11409 -0.013163 0)
(-6.05298 -0.0129978 0)
(-5.99252 -0.0128318 0)
(-5.93291 -0.0126936 0)
(-5.87434 -0.012584 0)
(-5.81698 -0.0124697 0)
(-5.761 -0.0123118 0)
(-5.7066 -0.0120873 0)
(-5.65394 -0.0117956 0)
(-5.60318 -0.0114459 0)
(-5.55449 -0.0110571 0)
(-5.50801 -0.0106506 0)
(-5.46386 -0.0102547 0)
(-5.42216 -0.00989354 0)
(-5.383 -0.00956062 0)
(-5.34646 -0.00924759 0)
(-5.31263 -0.00895075 0)
(-5.28159 -0.00867489 0)
(-5.25345 -0.00843004 0)
(-5.22841 -0.00820432 0)
(-5.20661 -0.00801412 0)
(-5.18757 -0.00785579 0)
(-5.17074 -0.00772759 0)
(-5.15747 -0.00763027 0)
(-5.14707 -0.00767907 0)
(-5.13961 -0.00769259 0)
(-5.13513 -0.00690757 0)
(-5.13417 -0.00715119 0)
(-5.13638 -0.0071907 0)
(-5.14198 -0.0070663 0)
(-5.15042 -0.00705324 0)
(-5.16208 -0.00696999 0)
(-5.17676 -0.0068838 0)
(-5.19443 -0.00685348 0)
(-5.21507 -0.00686593 0)
(-5.23859 -0.00688941 0)
(-5.26493 -0.00692928 0)
(-5.29399 -0.00699638 0)
(-5.32569 -0.00708536 0)
(-5.35993 -0.00719543 0)
(-5.39661 -0.00731858 0)
(-5.43564 -0.00745857 0)
(-5.47691 -0.00761232 0)
(-5.52032 -0.00778016 0)
(-5.56574 -0.00795903 0)
(-5.61305 -0.00815459 0)
(-5.66213 -0.00836583 0)
(-5.71286 -0.00859174 0)
(-5.76509 -0.00882365 0)
(-5.8187 -0.00906345 0)
(-5.87355 -0.00931215 0)
(-5.92949 -0.00957222 0)
(-5.98638 -0.00983536 0)
(-6.04408 -0.0100896 0)
(-6.10245 -0.0103437 0)
(-6.16134 -0.0105891 0)
(-6.2206 -0.0108345 0)
(-6.28008 -0.0110913 0)
(-6.33962 -0.0113552 0)
(-6.39906 -0.0116366 0)
(-6.45825 -0.0119135 0)
(-6.51703 -0.0122083 0)
(-6.57524 -0.0125166 0)
(-6.63274 -0.0128178 0)
(-6.68936 -0.0131171 0)
(-6.74494 -0.0134133 0)
(-6.79935 -0.0136886 0)
(-6.85242 -0.0139384 0)
(-6.90402 -0.0141736 0)
(-6.954 -0.0144048 0)
(-7.00221 -0.0146398 0)
(-7.04852 -0.0148773 0)
(-7.09279 -0.015111 0)
(-7.13488 -0.0153325 0)
(-7.17468 -0.015524 0)
(-7.21206 -0.0156833 0)
(-7.24691 -0.0158152 0)
(-7.27911 -0.0159256 0)
(-7.30856 -0.0160224 0)
(-7.33514 -0.0161082 0)
(-7.35875 -0.0161841 0)
(-7.37929 -0.0162503 0)
(-7.39672 -0.0163175 0)
(-7.41096 -0.0163774 0)
(-7.42215 -0.0165548 0)
(-7.42988 -0.0167374 0)
(-7.4344 -0.0165338 0)
(-7.43553 -0.016295 0)
(-7.43339 -0.0158717 0)
(-7.42768 -0.0161129 0)
(-7.41835 -0.0161235 0)
(-7.40595 -0.0161315 0)
(-7.39005 -0.0160398 0)
(-7.37086 -0.0159284 0)
(-7.34836 -0.0157881 0)
(-7.32253 -0.0156458 0)
(-7.29328 -0.0154733 0)
(-7.26069 -0.0153022 0)
(-7.2249 -0.0151238 0)
(-7.18606 -0.0149367 0)
(-7.14431 -0.0147351 0)
(-7.09977 -0.0145223 0)
(-7.05253 -0.0142995 0)
(-7.00274 -0.014074 0)
(-6.95056 -0.013843 0)
(-6.89616 -0.0136066 0)
(-6.83971 -0.0133604 0)
(-6.7814 -0.0131015 0)
(-6.72143 -0.0128263 0)
(-6.66 -0.0125339 0)
(-6.59733 -0.0122148 0)
(-6.53364 -0.0118753 0)
(-6.46915 -0.0115229 0)
(-6.40411 -0.0111652 0)
(-6.33873 -0.0108183 0)
(-6.27325 -0.0104805 0)
(-6.20789 -0.0101334 0)
(-6.1429 -0.00975848 0)
(-6.07849 -0.00939422 0)
(-6.01489 -0.00902358 0)
(-5.95232 -0.00864401 0)
(-5.89101 -0.00825922 0)
(-5.83116 -0.00785246 0)
(-5.77298 -0.0074454 0)
(-5.71667 -0.0070636 0)
(-5.6624 -0.00672174 0)
(-5.61035 -0.00641439 0)
(-5.56069 -0.00611511 0)
(-5.51358 -0.00579726 0)
(-5.46918 -0.00544855 0)
(-5.42764 -0.00507587 0)
(-5.38909 -0.00469654 0)
(-5.35364 -0.00432845 0)
(-5.32137 -0.00399979 0)
(-5.29232 -0.00370741 0)
(-5.26655 -0.00345934 0)
(-5.24403 -0.00322818 0)
(-5.22493 -0.00300515 0)
(-5.20933 -0.00276447 0)
(-5.19745 -0.00251314 0)
(-5.18847 -0.00146525 0)
(-5.1831 -0.00180238 0)
(-5.18134 -0.00186075 0)
(-5.1829 -0.00140956 0)
(-5.1885 -0.00139008 0)
(-5.19697 -0.00120679 0)
(-5.20873 -0.00117169 0)
(-5.22374 -0.00106963 0)
(-5.24192 -0.00094268 0)
(-5.26326 -0.000850686 0)
(-5.28771 -0.000757855 0)
(-5.31511 -0.000662851 0)
(-5.34534 -0.000570784 0)
(-5.37829 -0.000480414 0)
(-5.41386 -0.000415296 0)
(-5.45193 -0.000442846 0)
(-5.49239 -0.000366325 0)
(-5.53506 -0.000245341 0)
(-5.57984 -0.000194139 0)
(-5.62677 -0.0001885 0)
(-5.67503 -0.000279671 0)
(-5.72474 -0.00025491 0)
(-5.77643 -0.000364828 0)
(-5.82938 -0.000547742 0)
(-5.88329 -0.00087878 0)
(-5.93822 -0.00123861 0)
(-5.99414 -0.00161082 0)
(-6.05051 -0.0018953 0)
(-6.10741 -0.00215082 0)
(-6.16466 -0.00232904 0)
(-6.22206 -0.00246457 0)
(-6.27943 -0.00253898 0)
(-6.33662 -0.00258146 0)
(-6.39344 -0.00258561 0)
(-6.44971 -0.00256509 0)
(-6.50526 -0.00244271 0)
(-6.55991 -0.00247353 0)
(-6.61353 -0.00244053 0)
(-6.66592 -0.00242706 0)
(-6.71689 -0.00237867 0)
(-6.76627 -0.00246612 0)
(-6.81403 -0.00250148 0)
(-6.85972 -0.0026028 0)
(-6.90287 -0.00269132 0)
(-6.94572 -0.00388732 0)
(-6.98429 -0.00230905 0)
(-7.02136 -0.00260609 0)
(-7.05562 -0.00295728 0)
(-7.08708 -0.00310248 0)
(-7.11566 -0.00339518 0)
(-7.14149 -0.00355042 0)
(-7.1645 -0.00359609 0)
(-7.18432 -0.00352116 0)
(-7.20095 -0.00353264 0)
(-7.21442 -0.00350455 0)
(-7.2245 -0.00343315 0)
(-7.23121 -0.00362628 0)
(-7.23465 -0.0037259 0)
(-7.23418 -0.00267248 0)
(-7.23053 -0.00331266 0)
(-7.22352 -0.00352393 0)
(-7.21306 -0.00368826 0)
(-7.19923 -0.00368997 0)
(-7.18196 -0.0036779 0)
(-7.16132 -0.00362092 0)
(-7.13729 -0.00355571 0)
(-7.10984 -0.00346089 0)
(-7.07901 -0.00337352 0)
(-7.0449 -0.00328261 0)
(-7.00738 -0.00318655 0)
(-6.96708 -0.00309517 0)
(-6.92377 -0.00298389 0)
(-6.8776 -0.0028529 0)
(-6.82879 -0.00271781 0)
(-6.77745 -0.00256349 0)
(-6.7237 -0.00237586 0)
(-6.66762 -0.00217557 0)
(-6.60931 -0.00195473 0)
(-6.54892 -0.00170334 0)
(-6.48665 -0.00142134 0)
(-6.42261 -0.00109409 0)
(-6.35691 -0.000721477 0)
(-6.2896 -0.000307515 0)
(-6.22077 0.000124907 0)
(-6.1505 0.000598195 0)
(-6.07893 0.00109922 0)
(-6.00616 0.00163836 0)
(-5.93219 0.00219251 0)
(-5.85697 0.00280671 0)
(-5.78047 0.00357209 0)
(-5.70255 0.00437713 0)
(-5.62302 0.00518489 0)
(-5.54172 0.00602081 0)
(-5.45851 0.00686354 0)
(-5.37326 0.00767241 0)
(-5.28588 0.00842766 0)
(-5.1962 0.00907221 0)
(-5.10408 0.00954231 0)
(-5.00925 0.00968486 0)
(-4.91172 0.00922801 0)
(-4.81141 0.00781731 0)
(-4.70821 0.00527253 0)
(-4.60204 0.00151995 0)
(-4.49267 -0.00325811 0)
(-4.37968 -0.00887457 0)
(-4.26262 -0.0153245 0)
(-4.14076 -0.0240306 0)
(-4.0153 -0.0366479 0)
(-3.88605 -0.0489804 0)
(-3.80963 -0.0924517 0)
(-3.77713 -0.079118 0)
(-3.74355 -0.0793531 0)
(-3.70443 -0.0746933 0)
(-3.66475 -0.0252479 0)
(-0.117448 0.109511 0)
(-0.349413 0.110358 0)
(-0.551933 0.0132041 0)
(-0.738129 -0.0417231 0)
(-0.916811 -0.0499055 0)
(-1.09607 -0.0390845 0)
(-1.28281 -0.0199716 0)
(-1.4833 -0.0059228 0)
(-1.69871 0.00311454 0)
(-1.92879 0.00754602 0)
(-2.17733 0.0137732 0)
(-2.44782 0.0296514 0)
(-2.7245 0.056362 0)
(-2.99201 0.0630345 0)
(-3.25905 0.0623063 0)
(-3.53651 0.0292488 0)
(-3.80836 -0.0263773 0)
(-4.10727 -0.125032 0)
(-4.40558 0.0784187 0)
(-4.67731 0.228182 0)
(-4.95784 0.251523 0)
(-5.22675 0.270284 0)
(-5.53934 0.226688 0)
(-5.91905 0.175029 0)
(-6.35532 0.257496 0)
(-6.83819 0.437194 0)
(-7.37647 0.586898 0)
(-7.93999 0.702 0)
(-8.54003 0.802539 0)
(-9.19495 0.879477 0)
(-9.89052 0.969267 0)
(-10.615 1.06677 0)
(-11.3743 1.16 0)
(-12.2062 1.23892 0)
(-13.1579 1.27088 0)
(-14.2021 1.24784 0)
(-15.2218 1.14489 0)
(-16.0765 0.887185 0)
(-16.741 0.593001 0)
(-17.289 0.480004 0)
(-17.709 0.441827 0)
(-18.0154 0.712824 0)
(-18.4037 1.00132 0)
(-18.9539 0.831362 0)
(-19.4962 0.718392 0)
(-19.9019 0.485528 0)
(-20.2005 0.239966 0)
(-20.4345 0.0423563 0)
(-20.6036 -0.108176 0)
(-20.748 -0.174665 0)
(-20.8144 -0.235137 0)
(-20.7598 -0.305777 0)
(-20.597 -0.420441 0)
(-20.6034 -0.66136 0)
(-20.765 -0.782267 0)
(-20.966 -0.677278 0)
(-21.2751 -0.368151 0)
(-21.3692 0.285354 0)
(-21.1954 0.480024 0)
(-21.1692 0.351633 0)
(-21.3272 0.257185 0)
(-21.5777 0.25038 0)
(-21.857 0.267995 0)
(-22.111 0.323178 0)
(-22.3116 0.424217 0)
(-22.4701 0.521481 0)
(-22.5733 0.522099 0)
(-22.6599 0.585634 0)
(-22.755 0.655638 0)
(-22.8591 0.607933 0)
(-22.9635 0.590255 0)
(-22.9986 0.562539 0)
(-23.0092 0.497859 0)
(-22.9881 0.419558 0)
(-22.9493 0.322066 0)
(-22.8782 0.216121 0)
(-22.753 0.117861 0)
(-22.6114 -0.0333628 0)
(-22.3976 -0.149349 0)
(-22.1613 -0.312718 0)
(-21.8731 -0.500003 0)
(-21.4999 -0.668605 0)
(-21.031 -0.751849 0)
(-20.5436 -0.691995 0)
(-20.06 -0.849198 0)
(-19.524 -1.01479 0)
(-18.9334 -1.17765 0)
(-18.2806 -1.32495 0)
(-17.566 -1.49638 0)
(-16.7695 -1.6811 0)
(-15.8841 -1.88662 0)
(-14.8945 -2.10611 0)
(-13.7949 -2.31828 0)
(-12.5969 -2.47955 0)
(-11.3359 -2.57691 0)
(-10.0506 -2.63576 0)
(-8.76586 -2.64205 0)
(-7.50272 -2.55413 0)
(-6.30025 -2.377 0)
(-5.16258 -2.1761 0)
(-4.09816 -1.94935 0)
(-3.0428 -1.79068 0)
(-1.9919 -1.69961 0)
(-0.983464 -1.59124 0)
(-0.0145052 -1.46557 0)
(0.914036 -1.30974 0)
(1.80882 -1.13067 0)
(2.67502 -0.938243 0)
(3.5357 -0.785843 0)
(4.37479 -0.7275 0)
(5.14696 -0.640931 0)
(5.84448 -0.526243 0)
(6.3825 -0.530665 0)
(6.6097 -0.573103 0)
(6.61139 -0.437167 0)
(6.55442 -0.287196 0)
(6.57361 -0.189985 0)
(6.60577 -0.0967797 0)
(6.61909 -0.0330384 0)
(6.63339 -0.00439687 0)
(6.66149 0.038137 0)
(6.66375 0.163706 0)
(6.66133 0.288008 0)
(6.61975 0.376471 0)
(6.53683 0.420166 0)
(6.42942 0.435152 0)
(6.29187 0.457696 0)
(6.09777 0.501858 0)
(5.83566 0.568805 0)
(5.51632 0.650653 0)
(5.14833 0.709349 0)
(4.74197 0.762283 0)
(4.29581 0.792161 0)
(3.80437 0.792405 0)
(3.25545 0.700464 0)
(2.62997 0.642392 0)
(1.96178 0.65174 0)
(1.30109 0.590293 0)
(0.633675 0.504241 0)
(-0.0461858 0.457531 0)
(-0.773033 0.462506 0)
(-1.55467 0.53385 0)
(-2.31084 0.658852 0)
(-2.87327 0.611314 0)
(-3.2811 0.72956 0)
(-3.70648 0.684584 0)
(-4.09908 0.544909 0)
(-4.48462 0.469103 0)
(-4.8573 0.456136 0)
(-5.21861 0.468457 0)
(-5.56989 0.527366 0)
(-5.91403 0.602318 0)
(-6.25623 0.626173 0)
(-6.71145 0.654197 0)
(-7.29697 0.685209 0)
(-7.85542 0.684994 0)
(-8.36598 0.735466 0)
(-8.85761 0.842092 0)
(-9.35903 0.953889 0)
(-9.83993 0.90433 0)
(-10.265 0.848125 0)
(-10.6526 0.765381 0)
(-10.9821 0.664253 0)
(-11.2836 0.61871 0)
(-11.562 0.577025 0)
(-11.7905 0.507453 0)
(-12.0089 0.453541 0)
(-12.2128 0.405064 0)
(-12.3732 0.348827 0)
(-12.53 0.31835 0)
(-12.6538 0.24934 0)
(-12.7497 0.186346 0)
(-12.825 0.125174 0)
(-12.8872 0.069242 0)
(-12.9163 -0.000645019 0)
(-12.9323 -0.0520485 0)
(-12.9084 -0.104756 0)
(-12.8808 -0.192952 0)
(-12.8035 -0.255463 0)
(-12.7053 -0.303088 0)
(-12.5882 -0.3625 0)
(-12.4427 -0.402403 0)
(-12.2785 -0.420362 0)
(-12.0991 -0.452289 0)
(-11.9043 -0.454061 0)
(-11.7014 -0.485826 0)
(-11.4853 -0.52958 0)
(-11.2541 -0.545194 0)
(-11.0177 -0.531284 0)
(-10.7824 -0.515389 0)
(-10.5483 -0.532488 0)
(-10.3166 -0.59229 0)
(-10.0766 -0.626686 0)
(-9.83904 -0.613196 0)
(-9.61181 -0.567042 0)
(-9.29813 -0.570222 0)
(-8.8581 -0.572998 0)
(-8.4457 -0.523245 0)
(-8.11374 -0.46144 0)
(-7.83721 -0.420473 0)
(-7.59852 -0.414141 0)
(-7.38732 -0.422578 0)
(-7.21634 -0.38545 0)
(-7.08565 -0.352102 0)
(-6.98487 -0.323945 0)
(-6.90935 -0.293219 0)
(-6.8464 -0.271466 0)
(-6.78679 -0.260839 0)
(-6.73266 -0.249623 0)
(-6.67823 -0.233297 0)
(-6.63056 -0.199817 0)
(-6.58261 -0.176103 0)
(-6.54419 -0.151839 0)
(-6.51182 -0.134658 0)
(-6.48797 -0.114833 0)
(-6.46921 -0.0980473 0)
(-6.45105 -0.0861308 0)
(-6.43108 -0.0759569 0)
(-6.41717 -0.0580339 0)
(-6.40674 -0.0445297 0)
(-6.39915 -0.0338636 0)
(-6.38999 -0.0278997 0)
(-6.38195 -0.021119 0)
(-6.37148 -0.0188108 0)
(-6.35809 -0.016849 0)
(-6.34094 -0.0145408 0)
(-6.3211 -0.0109862 0)
(-6.29905 -0.00817471 0)
(-6.27502 -0.00603243 0)
(-6.24855 -0.00586804 0)
(-6.21868 -0.00761661 0)
(-6.18556 -0.00774102 0)
(-6.14988 -0.00816451 0)
(-6.11149 -0.00915029 0)
(-6.0704 -0.0107977 0)
(-6.02672 -0.0122205 0)
(-5.98077 -0.0137426 0)
(-5.93272 -0.0152325 0)
(-5.88281 -0.0166909 0)
(-5.83124 -0.0181661 0)
(-5.77823 -0.0195827 0)
(-5.72403 -0.0208891 0)
(-5.66893 -0.0220028 0)
(-5.6132 -0.0229311 0)
(-5.55711 -0.0236369 0)
(-5.50096 -0.0241267 0)
(-5.44501 -0.0244617 0)
(-5.38951 -0.0246862 0)
(-5.33468 -0.0248386 0)