/*--------------------------------*- C++ -*----------------------------------*\
| =========                 |                                                 |
| \\      /  F ield         | OpenFOAM: The Open Source CFD Toolbox           |
|  \\    /   O peration     | Version:  v1812                                 |
|   \\  /    A nd           | Web:      www.OpenFOAM.com                      |
|    \\/     M anipulation  |                                                 |
\*---------------------------------------------------------------------------*/
FoamFile
{
    version     2.0;
    format      ascii;
    class       volScalarField;
    location    "1.1";
    object      p;
}
// * * * * * * * * * * * * * * * * * * * * * * * * * * * * * * * * * * * * * //

dimensions      [1 -1 -2 0 0 0 0];


internalField   nonuniform List<scalar> 
20400
(
97782.7
97782.7
97782.7
97782.7
97782.4
97782
97781.4
97780.6
97779.7
97778.8
97777.8
97776.8
97775.7
97774.8
97773.7
97772.8
97771.8
97770.8
97769.7
97768.6
97767.2
97765.4
97763.4
97760.8
97758.2
97754.3
97750
97744.4
97738
97730.6
97722.7
97714.9
97707.4
97701.1
97696.6
97694.5
97696.6
97702.9
97713.6
97731.3
97751.2
97784
97813.2
97852.3
97890.4
97932.2
97972.1
98010.6
98045.7
98071.8
98097.4
98119
98136.3
98148.4
98155.9
98159.7
98161.2
98160.2
98158.7
98156.1
98153.5
98150.7
98148.1
98144.4
98139.6
98131.5
98121.2
98100.3
98081.3
98065.2
98038.5
98012.7
97981.2
97949.4
97912.9
97880.3
97850.4
97824.8
97804.4
97790.4
97781
97781.9
97790.6
97806.8
97828.8
97863.3
97897.1
97940.4
97984.2
98032.3
98079.5
98127.5
98171.3
98215.8
98248.8
98284.7
98316.1
98345.5
98369.3
98391.6
98408.1
98420.5
98427.6
98432.1
98432.4
98429.4
98424.7
98417.5
98408.8
98398.6
98388.3
98376.6
98365.5
98353.7
98342.4
98331.4
98321.1
98311.4
98302.3
98293.9
98286
98278.6
98271.8
98265.5
98259.8
98254.7
98250.3
98246.6
98243.5
98241.5
98240
98239.6
98240.3
98241.7
98244.1
98247.3
98251.3
98255.9
98261.3
98267
98273.7
98280.3
98287.4
98294.7
98302.2
98309.8
98317.3
98324.8
98331.9
98338.9
98345.1
98351.3
98356.3
98360.9
98363.9
98365.7
98366.7
98363.5
98361.5
98355.2
98349
98340.5
98331.5
98322.5
98313.3
98303.3
98293.5
98284.6
98278.6
98274
98273.7
98276.8
98285.8
98296.6
98311.6
98328.3
98348.6
98371.4
98396.1
98422.1
98448.4
98474.3
98499
98523.4
98545.7
98565.6
98582.7
98597
98608.9
98618.1
98625.4
98630.2
98634.3
98636.1
98637.8
98638.9
98639.3
98639.4
98639.2
98639
98638.8
98638.7
98638.8
98639.2
98639.8
98640.7
98642
98643.8
98646.2
98649.3
98653.1
98657.5
98662.8
98668.4
98675.2
98681.7
98688.8
98695.7
98702.5
98708.9
98714.8
98720.1
98724.4
98728.2
98730.5
98732.1
98732.7
98732
98730.6
98728
98725
98720.9
98716.7
98712.1
98707.5
98704
98700.3
98697.8
98695.6
98695
98696.3
98698.9
98703.9
98710.5
98720
98731.2
98745
98760.9
98779.4
98799.2
98821.2
98844.4
98868.9
98894.1
98919.6
98945.2
98970
98995.2
99019.4
99042.3
99063.5
99082.9
99100.4
99115.9
99129.6
99141.2
99151.3
99159.9
99166.6
99173
99177.1
99181.7
99184.9
99187.8
99190.3
99192.8
99195.2
99197.8
99200.6
99203.9
99207.5
99211.7
99216.4
99221.7
99227.5
99233.8
99240.5
99247.7
99255.2
99262.9
99270.9
99279
99287.1
99295.2
99303.3
99311.4
99319.4
99327.2
99334.9
99342.2
99349.2
99355.6
99361.4
99366.2
99370.1
99373.1
99374.9
99376
99376.2
99375.9
99375.6
99375.3
99375.5
99376.5
99378.5
99381.5
99385.7
99391.3
99398.5
99407.2
99418
99429.9
99444
99459
99476.1
99493.9
99513.2
99533.2
99554
99575.3
99596.8
99618.5
99640.4
99662.3
99683.9
99704.9
99725.2
99744.7
99763.4
99781.1
99797.8
99813.5
99828.2
99842
99854.8
99866.6
99877.7
99887.9
99897.6
99906.3
99914.7
99922.5
99929.9
99936.7
99943.4
99949.7
99955.8
99961.7
99967.5
99973.3
99979.1
99984.9
99990.9
99996.9
100003
100010
100016
100023
100030
100037
100045
100052
100060
100068
100075
100083
100091
100098
100106
100113
100120
100127
100134
100141
100148
100155
100162
100169
100176
100183
100190
100198
100206
100214
100223
100232
100242
100252
100263
100274
100286
100298
100311
100324
100338
100352
100366
100380
100394
100409
100423
100437
100452
100466
100479
100493
100506
100519
100531
100544
100556
100567
100579
100590
100601
100612
100622
100633
100643
100653
100663
100672
100682
100692
100701
100711
100720
100729
100739
100748
100757
100767
100776
100785
100794
100803
100813
100822
100831
100840
100850
100859
100868
100877
100887
100896
100905
100915
100924
100934
100943
100952
100962
100971
100981
100990
101000
101009
101019
101029
101038
101048
101057
101067
101076
101086
101096
101105
101115
101125
101134
101144
101154
101163
101173
101183
101193
101202
101212
101222
101232
101241
101251
101261
101271
101281
101291
101301
101310
101321
97782.6
97782.6
97782.6
97782.4
97782.1
97781.6
97781
97780.1
97779.2
97778.2
97777.2
97776.2
97775.3
97774.5
97773.7
97772.9
97772
97771.1
97770.1
97769
97767.8
97766.4
97764.7
97762.6
97759.2
97755.5
97750.3
97744.7
97738
97730.8
97722.8
97714.3
97706.3
97698.9
97694
97690.8
97692.3
97698
97708.4
97726
97747.6
97776.5
97807.5
97844
97881.8
97921.7
97961.4
98000
98035.7
98071.9
98098.9
98120.3
98136.8
98148.8
98156.8
98160.9
98161.7
98160
98158.1
98155.7
98153.2
98151
98148.7
98144.6
98138.3
98130.5
98122.7
98111.7
98098.3
98069.7
98043.8
98010.9
97977
97939.6
97904.3
97869.1
97837.7
97810.9
97791
97778.6
97774.1
97779.7
97786.5
97800.6
97819.3
97845.9
97877
97914.1
97954.5
97998.6
98046.4
98094.8
98145.2
98190.8
98241.3
98282.3
98318.7
98348.4
98373.5
98391.8
98406.7
98417.8
98424.7
98429.1
98429.6
98426.8
98422.3
98415.4
98406.8
98397.1
98386.8
98376
98365.3
98352.5
98341.6
98330.8
98320.9
98311.4
98302.5
98294.2
98286.3
98278.9
98272.1
98265.8
98260
98254.9
98250.4
98246.6
98243.4
98241.2
98239.7
98239.2
98239.7
98241
98243.3
98246.4
98250.4
98255.2
98260.5
98266.6
98273.1
98280
98287.2
98294.6
98302.1
98309.8
98317.4
98324.9
98332
98339.3
98345.5
98352
98357.1
98361.9
98365.2
98367.4
98368.1
98366.2
98363.7
98358.4
98352.3
98344.1
98334.7
98324.4
98313.5
98304.5
98296.8
98289.8
98285.3
98281.1
98280.2
98280.6
98282.5
98290.6
98305
98322.3
98344
98367.9
98393.9
98421.2
98448.6
98475.7
98501.6
98525.1
98546.6
98565.8
98582.6
98596.9
98608.7
98618.2
98625.4
98631
98634.2
98637.8
98638.1
98639.4
98639.8
98639.9
98639.8
98639.5
98639.2
98639.1
98639.2
98639.4
98639.9
98640.8
98642
98643.6
98645.9
98648.8
98652.5
98657
98662.2
98668.1
98674.7
98681.7
98688.8
98696
98702.9
98709.5
98715.5
98720.9
98725.4
98729.1
98731.8
98733.5
98734.1
98733.6
98732.2
98729.8
98726.7
98722.8
98718.5
98713.7
98708.9
98703.7
98699.2
98695.8
98693.1
98691.9
98692.5
98694.8
98699.2
98705.6
98715.2
98726.8
98740.8
98757.2
98775.8
98796.3
98818.7
98842.5
98867.5
98893.3
98919.6
98946
98972.3
98997.1
99020.9
99043.3
99064.3
99083.5
99100.9
99116.4
99130.1
99141.9
99152
99160.7
99167.5
99174.2
99177.8
99182.2
99185.5
99188.3
99190.7
99193
99195.3
99197.8
99200.6
99203.7
99207.3
99211.4
99216.1
99221.3
99227.1
99233.4
99240.2
99247.5
99255
99262.8
99270.8
99279
99287.1
99295.3
99303.5
99311.5
99319.5
99327.4
99335.1
99342.6
99349.7
99356.3
99362.2
99367.3
99371.3
99374.3
99376.1
99377.1
99377.3
99376.8
99376.2
99375.5
99375.1
99375.4
99376.6
99379
99382.8
99388.3
99395.2
99404
99414.7
99427.1
99441.1
99456.6
99473.7
99492.1
99511.6
99532
99553.3
99575
99597.2
99619.5
99641.4
99663.1
99684.5
99705.3
99725.5
99744.9
99763.5
99781.2
99797.9
99813.6
99828.3
99842.1
99854.9
99866.8
99877.9
99888.2
99897.8
99906.6
99915.1
99923
99930.2
99937.1
99943.7
99950
99956
99961.9
99967.7
99973.4
99979.2
99985
99990.9
99996.9
100003
100010
100016
100023
100030
100037
100045
100052
100060
100068
100075
100083
100091
100098
100106
100113
100121
100128
100135
100141
100148
100155
100162
100169
100175
100182
100190
100197
100205
100214
100222
100232
100241
100252
100262
100274
100286
100298
100311
100324
100337
100351
100366
100380
100394
100409
100423
100437
100452
100466
100479
100493
100506
100519
100531
100544
100556
100567
100579
100590
100601
100612
100622
100633
100643
100653
100663
100672
100682
100692
100701
100711
100720
100729
100739
100748
100757
100767
100776
100785
100794
100803
100813
100822
100831
100840
100850
100859
100868
100877
100887
100896
100905
100915
100924
100934
100943
100952
100962
100971
100981
100990
101000
101009
101019
101028
101038
101048
101057
101067
101076
101086
101096
101105
101115
101125
101134
101144
101154
101163
101173
101183
101193
101202
101212
101222
101232
101241
101251
101261
101271
101281
101291
101301
101310
101321
97782.6
97782.7
97782.7
97782.5
97782.2
97781.8
97781.2
97780.5
97779.8
97779
97778
97777.1
97776
97775.1
97773.7
97772.8
97771.8
97771
97770.1
97769.1
97768
97766.7
97765.1
97762.9
97760.4
97757.1
97752.9
97747.1
97740.2
97731.7
97722.4
97712.3
97702.7
97692.9
97686.5
97680.7
97680.8
97685.5
97695
97710.9
97732.4
97760.7
97793.1
97830.7
97870.7
97912.8
97954.3
97994.9
98031.7
98064.8
98093.5
98116.7
98133.7
98145.3
98152.7
98157.1
98159.7
98160.8
98159.6
98157.8
98153.8
98152.4
98150.4
98148
98144.9
98139
98127.1
98110.9
98091.1
98069
98040.3
98006
97967.9
97928.7
97891.7
97858.7
97830.4
97806.1
97787.5
97772.9
97761.2
97756.8
97768.1
97785.1
97811.6
97842.8
97879.2
97920.5
97965.4
98012.4
98060
98107.3
98153.4
98197.3
98238.1
98274.8
98308.4
98337.9
98363.2
98384
98400.5
98412.4
98419.7
98424.1
98424.7
98422
98417.5
98410.7
98402.1
98392.5
98382.2
98371.4
98360.3
98349
98338.6
98327.6
98317.1
98307.6
98298.9
98291
98283.5
98276.4
98269.9
98263.8
98258.3
98253.3
98248.9
98245.2
98242.2
98240.1
98238.7
98238.4
98239
98240.5
98242.9
98246.2
98250.2
98255
98260.4
98266.3
98272.8
98279.7
98286.9
98294.4
98301.9
98309.6
98317.2
98324.8
98332
98339.4
98345.8
98352.2
98357.7
98362.7
98366.2
98368.7
98369.5
98368
98365.2
98359.8
98353.1
98344.6
98334.8
98324
98312
98299.7
98288.5
98277.9
98271.1
98264.9
98264.1
98269
98276.3
98287.1
98300.9
98318
98338.3
98361.4
98386.7
98413.3
98440.8
98468
98494.5
98519.2
98541.8
98561.9
98579.3
98594.1
98606.3
98616.1
98623.7
98629.4
98633.3
98636.1
98637.6
98638.9
98639.4
98638.9
98638.7
98638.6
98638.5
98638.6
98638.8
98639.1
98639.6
98640.4
98641.7
98643.4
98645.6
98648.5
98652.2
98656.7
98661.9
98667.9
98674.5
98681.5
98688.8
98696.1
98703.2
98709.9
98716.1
98721.6
98726.3
98730.1
98732.8
98734.4
98735
98734.3
98732.9
98730.3
98727.1
98723
98718.4
98713.4
98708.3
98703.6
98699
98695.4
98692.6
98691
98691.4
98693.6
98697.7
98704.3
98713.5
98724.9
98738.8
98754.8
98773.1
98793.2
98815.2
98838.6
98863.3
98888.9
98915.1
98941.4
98967.6
98993.1
99017.6
99040.8
99062.3
99082
99099.8
99115.5
99129.4
99141.4
99151.6
99160.3
99167.4
99173.4
99178.3
99182.4
99185.2
99187.8
99190.3
99192.7
99195
99197.4
99200.2
99203.3
99206.9
99211.1
99215.7
99221
99226.8
99233.2
99240
99247.3
99254.9
99262.7
99270.8
99278.9
99287.2
99295.4
99303.6
99311.7
99319.8
99327.7
99335.5
99343
99350.2
99356.9
99362.9
99368
99372.1
99375.1
99376.9
99377.8
99377.6
99376.8
99375.9
99375.1
99374.6
99375
99376.2
99378.5
99382.2
99387.5
99394.3
99403.1
99413.6
99425.8
99439.7
99455.1
99472
99490.1
99509.4
99529.7
99550.7
99572.3
99594.3
99616.6
99638.8
99660.9
99682.5
99703.6
99724
99743.7
99762.4
99780.2
99797.1
99812.9
99827.7
99841.5
99854.4
99866.4
99877.5
99887.8
99897.5
99906.4
99914.8
99922.7
99930.1
99937.1
99943.5
99949.8
99955.8
99961.7
99967.6
99973.3
99979
99984.8
99990.7
99996.8
100003
100009
100016
100023
100030
100037
100045
100052
100060
100068
100075
100083
100091
100099
100106
100113
100121
100128
100135
100142
100148
100155
100162
100169
100175
100182
100190
100197
100205
100213
100222
100231
100241
100251
100262
100273
100285
100297
100310
100323
100337
100351
100365
100379
100394
100408
100423
100437
100451
100465
100479
100493
100506
100519
100531
100544
100556
100567
100579
100590
100601
100612
100622
100633
100643
100653
100663
100672
100682
100692
100701
100711
100720
100729
100739
100748
100757
100767
100776
100785
100794
100803
100813
100822
100831
100840
100850
100859
100868
100877
100887
100896
100905
100915
100924
100933
100943
100952
100962
100971
100981
100990
101000
101009
101019
101028
101038
101048
101057
101067
101076
101086
101096
101105
101115
101125
101134
101144
101154
101163
101173
101183
101193
101202
101212
101222
101232
101241
101251
101261
101271
101281
101291
101301
101310
101321
97782.6
97782.8
97782.7
97782.5
97782
97781.4
97780.5
97779.6
97778.5
97777.5
97776.5
97775.6
97774.9
97774.3
97773.8
97773.2
97772.4
97771.6
97770.7
97769.9
97768.9
97767.8
97766.4
97764.6
97761.9
97758.3
97753.4
97747.2
97739.1
97729.3
97718.1
97705.7
97693.5
97681.3
97672.4
97665
97662.2
97664.5
97673.7
97689.8
97711.7
97739.1
97771
97807.7
97847.3
97889.4
97932.5
97974.7
98016
98053.7
98086
98111.7
98131.7
98145.6
98153.8
98157.8
98158
98156.7
98154.4
98155.2
98151.8
98152.6
98152.2
98149.9
98145.7
98139.1
98129.4
98114.7
98092.4
98061.3
98025.6
97986.4
97946.4
97905.8
97866.4
97828.5
97794.4
97765
97744.3
97731.1
97728.4
97733.5
97742
97758.5
97780.5
97809.5
97844.8
97885.4
97930.4
97978.4
98028.4
98079
98129.3
98177.6
98223.7
98264.7
98300.6
98330.9
98355.9
98375.8
98391.3
98402.8
98410.1
98414.6
98415.5
98413.1
98408.8
98402.1
98393.8
98384.3
98373.9
98363.4
98352.1
98340.8
98330.1
98319.9
98310.3
98301.3
98292.6
98284.7
98277.5
98271.1
98265.2
98259.7
98254.7
98250.2
98246.2
98242.9
98240.2
98238.3
98237.2
98237
98237.9
98239.5
98242.1
98245.6
98249.8
98254.7
98260.2
98266.3
98272.8
98279.7
98286.9
98294.4
98302.1
98309.8
98317.6
98325.2
98332.5
98339.8
98346.7
98353.3
98359.1
98364.3
98368.3
98371.1
98372.2
98370.9
98367.9
98362.3
98355
98345.7
98334.9
98323.1
98311.1
98299.1
98288.3
98277.9
98270.4
98264.2
98261.2
98262
98266.5
98275.5
98289.1
98307
98328.5
98353
98379.5
98407.5
98435.8
98463.8
98490.5
98515.5
98538.2
98558.4
98576
98590.8
98603.1
98612.8
98620.4
98625.9
98629.9
98632.7
98634.6
98636
98636.7
98636.9
98636.8
98637.1
98636.7
98636.6
98636.9
98637.4
98638.4
98639.7
98640.9
98642.6
98644.9
98648
98651.8
98656.4
98661.7
98667.7
98674.4
98681.5
98689
98696.5
98703.8
98710.7
98717
98722.6
98727.4
98731.3
98734
98735.8
98736.4
98735.7
98734
98731.1
98727.5
98723
98717.9
98712.3
98706.5
98700.7
98695.3
98690.7
98687.5
98685.2
98685.1
98687.2
98691.1
98697.7
98706.7
98718.3
98732.2
98748.5
98766.9
98787.5
98809.8
98833.7
98858.9
98885
98911.7
98938.4
98964.9
98990.6
99015.2
99038.5
99060.1
99079.9
99097.8
99113.7
99127.6
99139.7
99150
99158.6
99165.9
99171.9
99176.8
99180.8
99184.1
99187.2
99189.2
99191.3
99193.7
99196.4
99199.2
99202.4
99206.1
99210.3
99215.1
99220.5
99226.4
99232.8
99239.7
99247
99254.6
99262.5
99270.5
99278.7
99287
99295.3
99303.5
99311.7
99319.8
99327.7
99335.5
99343.2
99350.4
99357.3
99363.4
99368.7
99372.9
99375.7
99377.4
99377.9
99377.2
99376.1
99374.6
99373.3
99372.1
99371.8
99372.6
99374.6
99378.1
99383.3
99390.1
99398.8
99409.3
99421.7
99435.7
99451.3
99468.5
99487
99506.6
99527.2
99548.5
99570.4
99592.6
99614.9
99637.2
99659.3
99681
99702.1
99722.6
99742.3
99761.1
99778.9
99795.8
99811.6
99826.5
99840.3
99853.3
99865.3
99876.4
99886.8
99896.4
99905.4
99913.9
99921.7
99929.1
99936.2
99942.7
99949.2
99955.2
99961
99966.7
99972.5
99978.3
99984.2
99990.1
99996.2
100002
100009
100016
100022
100030
100037
100044
100052
100060
100068
100075
100083
100091
100099
100106
100114
100121
100128
100135
100142
100148
100155
100162
100168
100175
100182
100189
100197
100204
100213
100221
100230
100240
100250
100261
100272
100284
100297
100309
100323
100336
100350
100365
100379
100394
100408
100423
100437
100451
100466
100479
100493
100506
100519
100532
100544
100556
100568
100579
100590
100601
100612
100622
100633
100643
100653
100663
100672
100682
100692
100701
100711
100720
100729
100739
100748
100757
100766
100776
100785
100794
100803
100813
100822
100831
100840
100849
100859
100868
100877
100887
100896
100905
100915
100924
100933
100943
100952
100962
100971
100981
100990
101000
101009
101019
101028
101038
101048
101057
101067
101076
101086
101096
101105
101115
101125
101134
101144
101154
101163
101173
101183
101192
101202
101212
101222
101232
101241
101251
101261
101271
101281
101291
101301
101311
101321
97782.8
97783
97782.9
97782.7
97782.2
97781.6
97780.9
97780.2
97779.4
97778.6
97777.7
97776.8
97775.8
97774.8
97773.8
97772.9
97772.1
97771.4
97770.7
97770
97769.2
97768.2
97766.9
97765.2
97762.7
97759.1
97753.9
97746.6
97737
97724.9
97710.8
97694.9
97678.7
97662.6
97648.9
97639.1
97633.8
97637.6
97644.8
97656.9
97676.3
97703.4
97737.2
97776.3
97819
97864.1
97909.6
97954.3
97996
98034.3
98068.2
98096.9
98119.3
98135.9
98147.1
98153.7
98157.1
98158.1
98157.3
98157
98157.3
98154
98153.5
98152
98148.8
98141.7
98128.8
98108.6
98080.5
98046.5
98006.8
97964.3
97920.5
97877.5
97837.8
97802.5
97772.5
97746.8
97728.1
97714.2
97708.5
97712.2
97722.9
97742.1
97767.5
97799.5
97836.5
97878.1
97923.5
97971.5
98021.2
98070.9
98119.8
98166.2
98209.3
98248.4
98283.6
98314.1
98339.9
98360.9
98377.4
98389.5
98397.1
98401.8
98402.7
98400.4
98396.1
98389.5
98381.2
98371.8
98361.6
98350.7
98339.5
98328.6
98317.9
98307.7
98298.1
98289.4
98281.4
98274.2
98267.6
98261.7
98256.4
98251.8
98247.9
98244.3
98241.3
98238.9
98237.1
98235.9
98235.5
98235.9
98237.1
98239.2
98242.1
98245.8
98250.2
98255.2
98260.8
98266.9
98273.3
98280.2
98287.4
98294.7
98302.3
98310
98317.8
98325.3
98332.8
98340
98347
98353.6
98359.6
98364.9
98369.1
98372
98373.2
98371.9
98368.8
98362.9
98355
98344.9
98333
98320.1
98306.2
98292.1
98279.1
98267
98258.1
98251.6
98248.9
98250.6
98256.1
98265.6
98278.7
98295.8
98316.3
98340.2
98366.5
98394.6
98423.5
98452.2
98479.9
98505.8
98529.4
98550.4
98568.6
98584
98596.8
98607.1
98615
98621
98625.1
98627.9
98629.7
98631
98631.5
98632
98632.6
98633.2
98633.6
98634
98634.7
98635.4
98635.7
98637
98638.7
98641.4
98644.1
98647.3
98651.3
98656.1
98661.6
98667.7
98674.4
98681.5
98689
98696.6
98704.1
98711.1
98717.5
98723.2
98728.1
98732
98734.7
98736.3
98736.7
98735.7
98733.8
98730.7
98726.6
98721.8
98716.4
98710.6
98704.6
98698.8
98693.3
98688.3
98684.9
98682
98681.5
98683.2
98686.8
98693
98701.6
98712.8
98726.4
98742.3
98760.4
98780.5
98802.5
98826.1
98851.1
98877.1
98903.9
98930.9
98957.8
98984.1
99009.4
99033.3
99055.5
99075.8
99094.1
99110.3
99124.5
99136.7
99147
99155.7
99162.9
99168.8
99173.8
99177.8
99181.1
99184.1
99186.8
99189.5
99191.7
99194.1
99197.3
99200.8
99204.7
99209.2
99214.2
99219.7
99225.8
99232.3
99239.3
99246.6
99254.3
99262.2
99270.3
99278.4
99286.6
99294.9
99303.1
99311.3
99319.2
99327.1
99334.9
99342.4
99349.7
99356.5
99362.7
99368
99372.3
99375.1
99376.7
99377
99376.1
99374.9
99373.2
99371.8
99370.6
99370.2
99371
99372.8
99376.1
99381
99387.6
99396.1
99406.5
99418.6
99432.4
99447.9
99464.9
99483.2
99502.7
99523.2
99544.5
99566.4
99588.7
99611.1
99633.6
99655.9
99677.8
99699.2
99719.8
99739.7
99758.6
99776.6
99793.6
99809.5
99824.4
99838.3
99851.2
99863.3
99874.5
99884.8
99894.5
99903.5
99911.9
99919.8
99927.3
99934.3
99940.9
99947.3
99953.5
99959.5
99965.5
99971.2
99976.9
99982.8
99988.9
99995.1
100001
100008
100015
100022
100029
100036
100044
100051
100059
100067
100075
100083
100091
100098
100106
100114
100121
100128
100135
100142
100148
100155
100162
100168
100175
100182
100189
100196
100204
100212
100221
100230
100239
100249
100260
100271
100283
100296
100308
100322
100335
100350
100364
100378
100393
100408
100422
100437
100451
100465
100479
100493
100506
100519
100532
100544
100556
100568
100579
100590
100601
100612
100622
100633
100643
100653
100663
100672
100682
100692
100701
100711
100720
100729
100739
100748
100757
100766
100776
100785
100794
100803
100812
100822
100831
100840
100849
100859
100868
100877
100887
100896
100905
100915
100924
100933
100943
100952
100962
100971
100981
100990
101000
101009
101019
101028
101038
101048
101057
101067
101076
101086
101096
101105
101115
101124
101134
101144
101154
101163
101173
101183
101192
101202
101212
101222
101232
101241
101251
101261
101271
101281
101291
101301
101311
101321
97783.1
97783.3
97783.1
97782.8
97782.2
97781.4
97780.5
97779.5
97778.5
97777.5
97776.6
97775.8
97775
97774.4
97773.8
97773.2
97772.5
97771.8
97771.2
97770.5
97769.8
97768.9
97767.8
97766
97763.2
97758.8
97752.4
97743.4
97731.4
97716.2
97698.2
97677.7
97656.6
97636.8
97619.6
97607.8
97600.1
97598.3
97605.1
97619.4
97640.9
97668.5
97702
97740.7
97783.3
97828.9
97876
97923.1
97969.2
98012.1
98050.8
98083.6
98110.3
98130.4
98143.8
98151.8
98154.6
98155.4
98154.3
98154.2
98154.4
98154.2
98154
98152.8
98148.9
98140.4
98124.9
98100.3
98067
98026.7
97982.7
97936.7
97890.4
97845.6
97803.2
97765.1
97733.1
97707.5
97690.7
97679.5
97676.7
97682.1
97692.6
97710.8
97735.2
97766.1
97803
97844.9
97891.1
97940.5
97991.9
98043.9
98095.2
98144.5
98190.3
98231.6
98267.6
98298.4
98323.7
98344.2
98360.1
98371.9
98379.5
98384.2
98385.3
98383.1
98378.9
98372.4
98364.2
98354.8
98344.5
98333.7
98322.7
98311.8
98301.2
98291.3
98282.1
98273.7
98266.2
98259.7
98254
98249.1
98244.9
98241.4
98238.5
98236.3
98234.5
98233.4
98232.7
98232.6
98233.2
98234.4
98236.3
98238.9
98242.2
98246.2
98250.7
98255.9
98261.5
98267.6
98274.1
98280.9
98288
98295.3
98302.8
98310.5
98318.2
98325.8
98333.2
98340.4
98347.4
98354.1
98360.1
98365.6
98369.9
98373
98374.3
98372.8
98369.4
98363.1
98354.7
98344.1
98331.8
98318.2
98304.1
98289.9
98276.6
98264.1
98253.9
98246.3
98241.2
98240.7
98245.2
98253.5
98266.5
98284
98305.2
98329.6
98356.4
98384.9
98414.2
98443.4
98471.4
98497.6
98521.4
98542.6
98561
98576.6
98589.5
98599.9
98608
98614
98618.4
98621.4
98623.5
98624.9
98625.7
98626.3
98626.8
98627.3
98627.6
98628.5
98629.6
98631.2
98632.5
98634.6
98636.1
98638
98640.9
98645.3
98649.9
98655
98660.9
98667.3
98674.1
98681.3
98688.7
98696.5
98704.2
98711.4
98717.8
98723.4
98728.2
98732
98734.6
98736.1
98736.3
98735
98732.9
98729.6
98725.3
98720.1
98714.1
98707.7
98700.9
98694.2
98687.9
98682.1
98678
98674.7
98673.7
98675
98678.4
98684.4
98693
98704.1
98717.7
98733.7
98751.9
98772.2
98794.4
98818.2
98843.4
98869.7
98896.7
98924
98951.1
98977.7
99003.3
99027.4
99049.9
99070.4
99088.9
99105.2
99119.5
99131.8
99142.3
99151
99158.3
99164.3
99169.2
99173.3
99176.8
99179.9
99182.7
99185.4
99188.4
99191.4
99194.4
99198.1
99202.4
99207.2
99212.5
99218.3
99224.6
99231.4
99238.5
99246
99253.8
99261.8
99269.8
99278
99286.1
99294.3
99302.5
99310.5
99318.5
99326.2
99333.8
99341.2
99348.4
99355.1
99361.2
99366.5
99370.8
99373.6
99375.3
99375.6
99374.4
99372.9
99370.9
99369
99367.5
99366.6
99366.9
99368.5
99371.6
99376.3
99382.8
99391.2
99401.5
99413.6
99427.6
99443.3
99460.5
99479.1
99498.8
99519.5
99540.9
99563
99585.3
99607.9
99630.4
99652.7
99674.7
99696.1
99716.8
99736.7
99755.6
99773.6
99790.6
99806.6
99821.5
99835.4
99848.4
99860.4
99871.6
99882
99891.7
99900.7
99909.1
99917
99924.4
99931.5
99938.2
99944.6
99950.8
99956.9
99962.9
99968.9
99974.9
99980.8
99986.8
99993
99999.5
100006
100013
100020
100028
100035
100043
100050
100058
100066
100074
100082
100090
100098
100106
100113
100121
100128
100135
100142
100148
100155
100161
100168
100175
100181
100188
100196
100203
100211
100220
100229
100238
100248
100259
100270
100282
100294
100307
100321
100335
100349
100363
100378
100393
100407
100422
100437
100451
100465
100479
100493
100506
100519
100532
100544
100556
100568
100579
100590
100601
100612
100622
100633
100643
100653
100663
100672
100682
100692
100701
100711
100720
100729
100739
100748
100757
100766
100776
100785
100794
100803
100812
100822
100831
100840
100849
100859
100868
100877
100886
100896
100905
100914
100924
100933
100943
100952
100962
100971
100981
100990
101000
101009
101019
101028
101038
101047
101057
101067
101076
101086
101096
101105
101115
101124
101134
101144
101154
101163
101173
101183
101192
101202
101212
101222
101232
101241
101251
101261
101271
101281
101291
101301
101311
101321
97783.6
97783.7
97783.5
97783.1
97782.6
97781.7
97780.9
97779.9
97779
97778.1
97777.2
97776.3
97775.5
97774.7
97774
97773.2
97772.6
97772
97771.4
97770.9
97770.4
97769.6
97768.5
97766.6
97763.4
97758.4
97750.6
97739.2
97723.8
97703.9
97680.7
97655
97629.2
97604.9
97582.8
97566.6
97554.5
97551.6
97557.7
97569.7
97592.4
97621.2
97657.8
97699.4
97745.3
97794.1
97844.2
97894.3
97942.4
97987.4
98028.3
98064.2
98094.5
98118.4
98136
98147.8
98154.2
98157.1
98157.7
98157
98157.9
98157.2
98156
98153.7
98147.9
98136.4
98116.5
98086.7
98048.7
98005.3
97958.1
97909.4
97861.4
97816.4
97775.6
97740.1
97710.4
97686.3
97670.3
97659
97656.3
97662.5
97673.9
97693.9
97719.6
97751.8
97789.2
97831.3
97877.3
97926.1
97976.5
98027.2
98077
98124.6
98169
98209.3
98245.1
98276
98301.8
98322.7
98339
98350.9
98358.6
98363.2
98364.2
98361.9
98357.5
98350.9
98342.6
98333.1
98322.7
98311.9
98300.9
98290.1
98279.8
98270.2
98261.4
98253.5
98246.7
98240.9
98236.1
98232.3
98229.4
98227.2
98225.9
98225.2
98225.1
98225.7
98226.6
98228.1
98230
98232.4
98235.3
98238.7
98242.6
98246.9
98251.8
98257.1
98262.8
98268.9
98275.3
98282
98289
98296.2
98303.5
98311
98318.6
98326.2
98333.5
98340.7
98347.6
98354.2
98360.2
98365.7
98369.8
98373
98374.3
98372.9
98369.3
98362.8
98354.1
98342.9
98330
98315.7
98300.6
98285.1
98270.5
98257
98245.9
98238.2
98232.8
98232.1
98236.3
98243.9
98256.1
98272.5
98292.7
98316.5
98343.2
98371.9
98401.6
98431.2
98459.7
98486.4
98510.6
98532.2
98551
98567
98580.2
98591
98599.4
98605.8
98610.4
98613.7
98615.9
98617.4
98618.4
98619.3
98620.2
98621
98621.8
98622.6
98623.7
98624.7
98626.3
98628.6
98631.3
98634.7
98638
98641.3
98646.1
98652.3
98658.7
98665.6
98672.9
98680.4
98688.1
98695.6
98703.3
98710.8
98717.4
98722.9
98727.5
98731.2
98733.6
98735
98735
98733.6
98731.1
98727.5
98722.9
98717.4
98711.2
98704.5
98697.5
98690.5
98683.9
98677.7
98673.1
98669.4
98667.8
98668.8
98671.8
98677.6
98685.8
98696.6
98709.9
98725.5
98743.3
98763.1
98784.9
98808.3
98833.3
98859.4
98886.4
98913.9
98941.4
98968.5
98994.5
99019.1
99042
99063
99081.8
99098.4
99112.9
99125.4
99135.9
99144.7
99152
99158
99163
99167.2
99170.8
99174
99177.1
99180.2
99183.3
99186.8
99190.5
99194.4
99198.9
99204.1
99209.8
99216
99222.7
99229.8
99237.2
99245
99252.9
99261
99269.2
99277.4
99285.5
99293.6
99301.6
99309.6
99317.3
99324.9
99332.2
99339.4
99346.4
99352.9
99359
99364.2
99368.4
99371.3
99373
99373.3
99372.3
99370.9
99368.9
99367
99365.5
99364.5
99364.7
99366.2
99369
99373.5
99379.8
99388
99398.1
99410.1
99423.9
99439.3
99456.3
99474.6
99494.2
99514.8
99536.3
99558.3
99580.7
99603.3
99625.9
99648.3
99670.4
99691.9
99712.7
99732.7
99751.7
99769.8
99786.8
99802.7
99817.6
99831.6
99844.5
99856.6
99867.8
99878.2
99887.9
99896.9
99905.3
99913.3
99920.7
99927.8
99934.5
99941
99947.2
99953.4
99959.5
99965.6
99971.7
99977.9
99984.1
99990.4
99997
100004
100011
100018
100026
100033
100041
100049
100057
100065
100073
100081
100089
100097
100105
100113
100120
100127
100134
100141
100148
100155
100161
100168
100174
100181
100188
100195
100202
100210
100219
100227
100237
100247
100257
100269
100281
100293
100306
100319
100333
100348
100362
100377
100392
100407
100422
100437
100451
100465
100479
100493
100506
100519
100532
100544
100556
100568
100579
100590
100601
100612
100622
100633
100643
100653
100662
100672
100682
100691
100701
100710
100720
100729
100738
100748
100757
100766
100775
100785
100794
100803
100812
100821
100831
100840
100849
100858
100868
100877
100886
100896
100905
100914
100924
100933
100943
100952
100962
100971
100981
100990
101000
101009
101019
101028
101038
101047
101057
101067
101076
101086
101096
101105
101115
101124
101134
101144
101154
101163
101173
101183
101192
101202
101212
101222
101232
101241
101251
101261
101271
101281
101291
101301
101311
101321
97784.4
97784.3
97784
97783.5
97782.9
97781.8
97780.9
97779.8
97778.9
97777.8
97777
97776.2
97775.5
97774.8
97774.3
97773.8
97773.3
97772.9
97772.6
97772.2
97771.8
97771.2
97770
97767.8
97764.1
97757.7
97748
97733.5
97714.6
97689.9
97661.9
97631.2
97600.2
97571.2
97544.9
97525.9
97511.6
97506.2
97512.5
97525.6
97549
97578.1
97615.1
97656.9
97703.8
97754.1
97806.7
97860.1
97912.8
97962.9
98008.7
98049
98083
98110.6
98131.9
98146.8
98156.1
98160.3
98161.6
98161.6
98161.8
98161.8
98160.4
98156.5
98148.5
98133.8
98109.6
98075.3
98033.2
97985.4
97934.8
97883.5
97833.7
97787.6
97745.9
97710.4
97681.1
97658
97643.2
97632.9
97631.1
97637.8
97649.2
97668.5
97693.7
97725.1
97762.1
97803.8
97849.8
97898.8
97949.9
98001.8
98052.9
98101.7
98147
98187.8
98223.5
98253.9
98279.1
98299.3
98315
98326.5
98334
98338.3
98339.1
98336.4
98331.9
98325
98316.5
98306.8
98296.2
98285.2
98274.3
98263.7
98253.7
98244.5
98236.3
98229.1
98223.2
98218.4
98214.9
98212.5
98211.2
98210.7
98210.9
98211.9
98213.6
98215.9
98218.7
98221.9
98225.4
98229.3
98233.4
98237.8
98242.6
98247.5
98252.7
98258.2
98264
98270.2
98276.5
98283.2
98290.1
98297.1
98304.4
98311.8
98319.2
98326.7
98333.9
98341
98347.7
98354.2
98360
98365.4
98369.4
98372.5
98373.8
98372.7
98369.3
98362.7
98353.8
98342.2
98329.1
98314.4
98299
98283.2
98268.1
98254.2
98242.2
98233.7
98227.6
98226.1
98229.9
98237.1
98249.4
98265.9
98286.2
98309.8
98335.8
98363.6
98392.8
98422.2
98450.6
98477.1
98501.2
98522.6
98541.2
98557.1
98570.4
98581.2
98589.7
98596.3
98601.2
98604.7
98607.3
98609
98610.4
98611.5
98612.5
98613.3
98614.2
98615.3
98616.6
98618.1
98619.9
98622.1
98624.6
98627.8
98631.9
98637.1
98641.8
98647.3
98654.2
98661.9
98669.8
98678
98686.1
98694.2
98701.9
98709.4
98716.4
98722.1
98726.5
98730
98732.2
98733.4
98733
98731.4
98728.7
98724.9
98720
98714.2
98707.5
98700.3
98692.6
98684.8
98677.5
98670.7
98665.6
98661.6
98659.8
98660.5
98663.5
98669.2
98677.3
98688.1
98701.3
98716.9
98734.6
98754.3
98775.9
98799.2
98824
98850
98876.9
98904.4
98932
98959.1
98985.4
99010.2
99033.2
99054.3
99073.3
99090
99104.6
99117.1
99127.7
99136.6
99143.9
99150
99155.1
99159.4
99163.1
99166.7
99170
99173.4
99177
99180.8
99185.1
99189.7
99194.6
99200.1
99206.2
99212.8
99219.9
99227.3
99235.1
99243.1
99251.3
99259.7
99268
99276.3
99284.5
99292.6
99300.5
99308.3
99316.1
99323.5
99330.6
99337.4
99344.1
99350.5
99356.4
99361.5
99365.8
99368.7
99370.5
99371
99370.1
99368.6
99366.6
99364.6
99363
99361.6
99361.5
99362.8
99365.4
99369.6
99375.8
99383.8
99393.8
99405.7
99419.5
99435.1
99452.2
99470.7
99490.4
99511.1
99532.4