/*--------------------------------*- C++ -*----------------------------------*\
| =========                 |                                                 |
| \\      /  F ield         | OpenFOAM: The Open Source CFD Toolbox           |
|  \\    /   O peration     | Version:  v1812                                 |
|   \\  /    A nd           | Web:      www.OpenFOAM.com                      |
|    \\/     M anipulation  |                                                 |
\*---------------------------------------------------------------------------*/
FoamFile
{
    version     2.0;
    format      ascii;
    class       surfaceScalarField;
    location    "1.1";
    object      phi;
}
// * * * * * * * * * * * * * * * * * * * * * * * * * * * * * * * * * * * * * //

dimensions      [1 0 -1 0 0 0 0];
oriented        oriented;


internalField   nonuniform List<scalar> 
40240
(
3.30312e-05
7.32567e-06
0.000142275
-6.88719e-05
0.000346689
-0.000164012
0.000623293
-0.000236165
0.0009399
-0.000276127
0.00125413
-0.000273716
0.0015402
-0.00024551
0.00177586
-0.000195075
0.00195563
-0.000139144
0.00207873
-8.24593e-05
0.00215419
-3.47779e-05
0.00218869
6.18445e-06
0.0021937
3.56992e-05
0.00218143
5.29764e-05
0.00215172
7.04274e-05
0.00211813
7.43024e-05
0.00207787
8.0972e-05
0.00203303
8.55213e-05
0.00197993
9.3766e-05
0.00191368
0.00010688
0.00181897
0.000135315
0.00167192
0.000187611
0.0014403
0.000272177
0.00114614
0.00033477
0.000894405
0.000292405
0.00052814
0.000407055
2.42942e-05
0.000544837
-0.000681088
0.000746172
-0.00167784
0.00103783
-0.00298772
0.00135118
-0.00464974
0.00170363
-0.00666713
0.00205962
-0.00901136
0.00238684
-0.0116333
0.00266564
-0.0143875
0.00279838
-0.0171548
0.0028127
-0.0197349
0.00262689
-0.0219476
0.00226043
-0.0236769
0.00177874
-0.0247237
0.00109624
-0.0250154
0.000344537
-0.0246981
-0.000266675
-0.0235905
-0.00105341
-0.0218428
-0.00169468
-0.0194801
-0.00230877
-0.0166267
-0.0028001
-0.0133498
-0.00322466
-0.00986755
-0.00343026
-0.00652613
-0.0032922
-0.00353122
-0.00294599
-0.000471689
-0.00301371
0.00260373
-0.00302989
0.00533686
-0.00269093
0.0074624
-0.00208563
0.00901341
-0.00151407
0.0100311
-0.000983397
0.0106433
-0.000581075
0.0109451
-0.000273817
0.0111346
-0.000164045
0.0112655
-0.000108423
0.0114756
-0.000189531
0.0119283
-0.00043423
0.0126523
-0.000707296
0.0135495
-0.000881119
0.0145197
-0.00095424
0.015269
-0.000730853
0.0154309
-0.000142038
0.0146483
0.000811475
0.0128524
0.00182641
0.0114536
0.00143184
0.00926113
0.00222459
0.00613819
0.00315481
0.0025821
0.00358619
-0.00129786
0.00390784
-0.0057466
0.00447667
-0.0104657
0.00474595
-0.015172
0.00473359
-0.0196596
0.00451446
-0.0238238
0.00419279
-0.0275425
0.00374747
-0.0306344
0.00312346
-0.0330253
0.00242367
-0.0347345
0.00174315
-0.0357564
0.00105737
-0.0360489
0.000330533
-0.035714
-0.000295283
-0.0346998
-0.000973311
-0.0331111
-0.0015481
-0.0309504
-0.00211882
-0.0283077
-0.0026016
-0.0253221
-0.00294408
-0.0220377
-0.00324345
-0.018562
-0.00343493
-0.014982
-0.00354032
-0.0120967
-0.00284484
-0.00878068
-0.00327634
-0.00525823
-0.00348296
-0.0017902
-0.00342905
0.00169665
-0.0034471
0.00526929
-0.00353358
0.00864382
-0.00333488
0.0117378
-0.00305387
0.0145518
-0.00277272
0.0170469
-0.00245239
0.0192151
-0.00212323
0.0210368
-0.00177423
0.0224765
-0.00139012
0.023506
-0.00097686
0.0241332
-0.000572493
0.0243844
-0.000193957
0.0244032
3.89851e-05
0.0241425
0.00032098
0.0235181
0.000685786
0.0226198
0.000961509
0.0215624
0.0011204
0.0203731
0.00125159
0.0191161
0.0013182
0.0178318
0.00134418
0.0165509
0.00133908
0.0152903
0.00131704
0.0140596
0.00128558
0.0128676
0.00124527
0.0117222
0.00119754
0.0106278
0.00114558
0.00958505
0.00109341
0.00859314
0.00104222
0.00765004
0.000993378
0.00675576
0.00094451
0.0059122
0.00089405
0.00512402
0.000838826
0.00439725
0.000777611
0.00373678
0.000711581
0.00315018
0.000638017
0.00264222
0.000559602
0.00221509
0.000478902
0.00186854
0.000398544
0.00160356
0.000317041
0.00141919
0.000236606
0.00131191
0.000159545
0.00128798
7.64222e-05
0.0013274
1.31324e-05
0.00143936
-5.91127e-05
0.00161148
-0.000119212
0.00183678
-0.000172119
0.00210824
-0.000218038
0.00241781
-0.000255811
0.0027585
-0.000286536
0.00312693
-0.000313907
0.0035198
-0.000337856
0.00393772
-0.000362581
0.00436353
-0.000370306
0.00480841
-0.000389217
0.00524348
-0.000379491
0.00565001
-0.000350546
0.00599116
-0.000285796
0.00621967
-0.000172701
0.00629887
-2.43373e-05
0.00619289
0.00016108
0.00583765
0.000409195
0.00521522
0.000676769
0.00433157
0.000936702
0.0032057
0.00117912
0.00193312
0.00132525
0.00062518
0.00136083
-0.000799684
0.0014771
-0.00246449
0.00171728
-0.00423252
0.00182025
-0.00597837
0.00179923
-0.00761718
0.00169241
-0.00905754
0.00149653
-0.0101787
0.00118125
-0.0108268
0.000718481
-0.0110615
0.000301473
-0.0111251
0.000127777
-0.0108643
-0.000197629
-0.010257
-0.000541763
-0.00927904
-0.00091156
-0.00797241
-0.00123851
-0.00637669
-0.00152653
-0.00455371
-0.00175288
-0.00259345
-0.00188924
-0.000573743
-0.00194843
0.00152739
-0.00202886
0.00367085
-0.00207137
0.00570732
-0.0019645
0.00755937
-0.00178048
0.00917823
-0.00154786
0.0105326
-0.00128389
0.0116141
-0.0010118
0.0124079
-0.000724783
0.0129317
-0.000455896
0.0131995
-0.00020074
0.0132553
1.01601e-05
0.0131824
0.000138731
0.0129592
0.000288071
0.0126399
0.000383707
0.0122089
0.000494737
0.0116933
0.000578966
0.0111267
0.000629698
0.0105316
0.000657832
0.00992555
0.000668668
0.00932072
0.00066739
0.00872405
0.000659118
0.00814201
0.000644513
0.00758036
0.000624143
0.00704123
0.000601673
0.0065319
0.000571933
0.00606282
0.000531814
0.00564707
0.00047865
0.00529582
0.000414427
0.00502012
0.000339148
0.00482343
0.000260649
0.00471012
0.000177626
0.00468011
9.48417e-05
0.00471509
2.99843e-05
0.00481528
-3.42371e-05
0.00495753
-7.58374e-05
0.00512436
-9.96744e-05
0.00530212
-0.000109935
0.0054788
-0.000108214
0.00563809
-9.00327e-05
0.00576896
-6.115e-05
0.0058525
-1.30423e-05
0.00587795
4.53409e-05
0.00583513
0.000114376
0.00571004
0.000196969
0.00549166
0.000290691
0.00517886
0.000385362
0.00475729
0.000494476
0.00423409
0.000596234
0.00359448
0.000712798
0.00284323
0.000824493
0.00197783
0.000938849
0.00100825
0.00104307
-2.73665e-05
0.00110942
-0.00104599
0.00109246
-0.00213232
0.00116068
-0.00323938
0.00118173
-0.00432682
0.00116251
-0.00535937
0.00110829
-0.00630378
0.00102089
-0.00713476
0.000908344
-0.00783353
0.000776874
-0.00837526
0.000620964
-0.00874132
0.000446421
-0.00891929
0.000259138
-0.00892132
8.53554e-05
-0.00871548
-0.000122197
-0.00831906
-0.000311424
-0.00772476
-0.00050817
-0.00694703
-0.000690649
-0.00599624
-0.00086258
-0.00489162
-0.00101553
-0.00365523
-0.00114644
-0.00232071
-0.00124371
-0.000922612
-0.00130669
0.000509925
-0.00133993
0.00201766
-0.00141458
0.00352341
-0.00141196
0.0049752
-0.00135758
0.00633743
-0.0012676
0.00758321
-0.00115083
0.00869176
-0.00101341
0.00965032
-0.000863368
0.0104487
-0.000703116
0.0110875
-0.000544119
0.011567
-0.000384937
0.0118944
-0.000233905
0.0120863
-9.83444e-05
0.012154
2.48471e-05
0.0121257
0.000120385
0.0119938
0.000223012
0.0117664
0.000318613
0.0114677
0.000389113
0.0111214
0.000436492
0.010742
0.000469122
0.0103432
0.000488347
0.00993731
0.000495213
0.00953609
0.000490509
0.00914958
0.000475839
0.00878599
0.000453025
0.0084516
0.000423998
0.00815064
0.00039078
0.00788528
0.00035541
0.00765576
0.000319821
0.00746048
0.000285831
0.00729637
0.000254907
0.00715899
0.000228425
0.00704339
0.000206863
0.00694412
0.000190698
0.00685505
0.000180665
0.00677037
0.000176388
0.0066905
0.000171675
0.00661779
0.000164581
0.0065578
0.000151893
0.00651337
0.000136391
0.00649063
0.000114661
0.00649023
9.23417e-05
0.00650895
7.31559e-05
0.00653995
6.08937e-05
0.00656269
6.92809e-05
0.00656391
9.03958e-05
0.00651103
0.000144609
0.00637993
0.000222734
0.00614441
0.000326953
0.00578641
0.000449247
0.00529875
0.000578669
0.00468171
0.000707876
0.00394872
0.000823631
0.00313143
0.000907871
0.00225873
0.000963223
0.00134034
0.00100905
0.000426106
0.00100508
-0.000440909
0.000958103
-0.00128874
0.000939235
-0.002098
0.000901047
-0.00283098
0.000825178
-0.00346506
0.000726831
-0.00398612
0.000614256
-0.00437106
0.000478831
-0.00462207
0.00034542
-0.00472681
0.00019955
-0.00470638
7.55733e-05
-0.00453881
-7.13557e-05
-0.00424307
-0.000199238
-0.00382147
-0.000324687
-0.00328612
-0.000438395
-0.00264792
-0.000541116
-0.00191951
-0.000631437
-0.00111916
-0.000703472
-0.000263939
-0.000758734
0.000654399
-0.000821653
0.00163245
-0.000881627
0.00264109
-0.000912509
0.00366089
-0.000924107
0.00467543
-0.000919337
0.00567011
-0.000899997
0.00663164
-0.000867388
0.00754848
-0.000823233
0.00841074
-0.000769175
0.00921003
-0.000706697
0.00993924
-0.000637059
0.0105934
-0.000562465
0.0111685
-0.000483657
0.0116627
-0.000403192
0.0120762
-0.000322694
0.0124116
-0.000244958
0.0126727
-0.000170795
0.0128628
-9.99929e-05
0.0129865
-3.39478e-05
0.0130494
2.67882e-05
0.0130543
8.43069e-05
0.0130144
0.000129516
0.0129235
0.000180413
0.012783
0.00022985
0.0126037
0.000268617
0.0123938
0.000298994
0.0121609
0.000321969
0.0119098
0.000340009
0.0116466
0.000352142
0.0113765
0.000358844
0.0111045
0.000360712
0.0108347
0.000358495
0.0105707
0.000352588
0.0103164
0.000342785
0.0100752
0.000329684
0.00984921
0.000314371
0.00963956
0.0002979
0.00944634
0.000281331
0.00926874
0.000265523
0.00910526
0.000251187
0.00895379
0.000238912
0.00881206
0.00022885
0.00867761
0.000221225
0.00854776
0.000216232
0.00841787
0.000215832
0.00828528
0.000218051
0.00814485
0.000225389
0.00799587
0.000233407
0.00783442
0.000245323
0.00765984
0.000257897
0.00747128
0.000271297
0.00726773
0.000285727
0.00705067
0.000298668
0.00682112
0.000310623
0.0065807
0.000320937
0.00633198
0.000328729
0.00607881
0.000332698
0.00582512
0.000332751
0.0055748
0.000328955
0.00533189
0.000321147
0.00510051
0.000309263
0.00488486
0.000293211
0.00468835
0.000273748
0.00451559
0.000249733
0.00436821
0.000224081
0.00425189
0.000192744
0.00416852
0.000159632
0.00411961
0.000124858
0.00410656
8.89896e-05
0.00412785
5.4172e-05
0.00418647
1.68403e-05
0.00428149
-1.99215e-05
0.00440967
-5.3342e-05
0.00456903
-8.48385e-05
0.00475618
-0.000112989
0.00496774
-0.000137782
0.00519975
-0.000158667
0.00544799
-0.000175364
0.00570823
-0.000187868
0.0059763
-0.000196238
0.00624796
-0.000200408
0.00651888
-0.000200285
0.00678576
-0.000196865
0.00704585
-0.000190749
0.00729665
-0.000182125
0.00753604
-0.000171408
0.00776248
-0.000159161
0.00797486
-0.00014582
0.00817252
-0.000131801
0.00835513
-0.000117486
0.00852278
-0.000103235
0.00867581
-8.93256e-05
0.00881468
-7.58979e-05
0.00894002
-6.30731e-05
0.00905251
-5.09354e-05
0.00915302
-3.96696e-05
0.00924257
-2.94173e-05
0.00932215
-2.0153e-05
0.00939258
-1.17191e-05
0.00945468
-4.08414e-06
0.00950915
2.8227e-06
0.00955669
9.0558e-06
0.00959798
1.45864e-05
0.0096337
1.9453e-05
0.00966442
2.37293e-05
0.00969067
2.7479e-05
0.00971294
3.07442e-05
0.00973168
3.35537e-05
0.00974726
3.59836e-05
0.00976015
3.79419e-05
0.00977059
3.96368e-05
0.00977895
4.09475e-05
0.00978563
4.18089e-05
0.00979059
4.26893e-05
0.00979428
4.32026e-05
0.00979723
4.33458e-05
0.00979995
4.29554e-05
0.0098019
4.29407e-05
0.00980355
4.24506e-05
0.00980475
4.20205e-05
0.00980621
4.09352e-05
0.00980758
4.02813e-05
0.00980914
3.93256e-05
0.00981097
3.82418e-05
0.00981311
3.71289e-05
0.00981558
3.59925e-05
0.00981843
3.47949e-05
0.00982164
3.36171e-05
0.00982522
3.24274e-05
0.00982914
3.1258e-05
0.00983338
3.00975e-05
0.00983791
2.89759e-05
0.00984269
2.78861e-05
0.00984767
2.6838e-05
0.00985279
2.58373e-05
0.00985801
2.48817e-05
0.00986328
2.39785e-05
0.00986854
2.31212e-05
0.00987373
2.23156e-05
0.00987882
2.15533e-05
0.00988374
2.08403e-05
0.00988845
2.01656e-05
0.00989291
1.95312e-05
0.00989709
1.89297e-05
0.00990094
1.83729e-05
0.00990445
1.78148e-05
0.00990754
1.73454e-05
0.00991027
1.68043e-05
0.00991247
1.64272e-05
0.00991425
1.59091e-05
0.00991547
1.55138e-05
0.00991639
1.4927e-05
0.00991659
1.47351e-05
0.00991639
1.42156e-05
0.00991547
1.40673e-05
0.00991432
1.34122e-05
0.00991251
1.31524e-05
0.00991008
1.28419e-05
0.00990738
1.21537e-05
0.00990406
1.18067e-05
0.0099002
1.14681e-05
0.0098962
1.07088e-05
0.00989127
1.07218e-05
0.00988708
9.068e-06
0.00988163
9.16031e-06
0.0098775
6.74586e-06
0.00987142
7.23588e-06
0.00987273
-1.94599e-06
-4.32873e-06
0.000134879
-8.71459e-05
0.000469615
-0.000363181
0.000965461
-0.000619395
0.00157565
-0.000805853
0.00223845
-0.000898378
0.00290016
-0.000894844
0.00351438
-0.000819098
0.00404521
-0.00068526
0.0044677
-0.000520938
0.00477231
-0.000346362
0.00495906
-0.000180777
0.00505105
-4.50484e-05
0.00506779
5.97365e-05
0.00504433
0.000117207
0.00499275
0.000162785
0.00491072
0.00019709
0.00477502
0.000257421
0.00457315
0.000328091
0.00429044
0.000417157
0.00391498
0.000523
0.00342577
0.000665167
0.0028095
0.000844504
0.00207851
0.0010438
0.00117933
0.00127453
-7.94998e-05
0.00159184
-0.0016595
0.00202771
-0.00360796
0.00253397
-0.00592433
0.00310367
-0.0086169
0.00377185
-0.0117428
0.00451888
-0.0152623
0.00526529
-0.0190731
0.00591325
-0.0229633
0.00632023
-0.0267591
0.00650571
-0.0301953
0.00627933
-0.0331836
0.00584697
-0.0355044
0.00499472
-0.0370711
0.00387522
-0.0377663
0.00252294
-0.0376586
0.0010383
-0.0367221
-0.000541441
-0.0349282
-0.00200983
-0.0324217
-0.00350795
-0.0292064
-0.00485798
-0.0253613
-0.00610116
-0.020942
-0.00716704
-0.0161161
-0.00799731
-0.0109088
-0.00858545
-0.00533718
-0.00881049
0.000473
-0.00870459
0.00588109
-0.00837003
0.0107483
-0.00784856
0.0151539
-0.0070494
0.019075
-0.00596213
0.0223441
-0.00474091
0.0247484
-0.0033484
0.0262542
-0.00205026
0.026897
-0.000883396
0.02697
-0.000205998
0.0269388
-5.05792e-05
0.0267483
2.36617e-05
0.0265608
-0.000230867
0.0263522
-0.000491467
0.0259111
-0.000441044
0.0248178
0.000134155
0.0229458
0.00114117
0.0206584
0.00215617
0.017953
0.0035402
0.014469
0.00533918
0.00870461
0.0072279
0.00180453
0.00915665
-0.00559842
0.0105899
-0.0134536
0.0114722
-0.0213431
0.0118278
-0.0285711
0.0117335
-0.0348493
0.0110526
-0.0400939
0.0100066
-0.0442773
0.0087264
-0.0474288
0.00737345
-0.0494969
0.00584557
-0.0507158
0.00437362
-0.0509884
0.00272698
-0.0508834
0.00166951
-0.0502374
0.000442976
-0.0489225
-0.000951748
-0.046969
-0.00221608
-0.0445329
-0.00337643
-0.041611
-0.00443654
-0.0382687
-0.00542787
-0.0344778
-0.00635909
-0.0301853
-0.00720341
-0.0255181
-0.00787796
-0.0205447
-0.00837701
-0.0153629
-0.00869145
-0.00930526
-0.00887297
-0.00343051
-0.00912392
0.0022415
-0.00913064
0.00785217
-0.00901728
0.0132134
-0.00878871
0.0182134
-0.0085154
0.0230457
-0.00815061
0.0276999
-0.00769286
0.0321365
-0.00719487
0.0363157
-0.00661777
0.0401861
-0.00597962
0.0437392
-0.00531262
0.0469264
-0.00456098
0.0497058
-0.00373728
0.0520403
-0.00288511
0.0539484
-0.00207552
0.0553255
-0.00130753
0.0559725
-0.00029097
0.0560236
0.000676137
0.0555938
0.00144155
0.0545951
0.00217517
0.0530279
0.0028787
0.0509888
0.00341967
0.0485675
0.00383041
0.0458584
0.00411473
0.0429635
0.00427825
0.0399927
0.00432108
0.0370465
0.00425359
0.034201
0.00410243
0.0315063
0.00389703
0.0289904
0.00366399
0.0266643
0.00342138
0.0245296
0.00318033
0.0225832
0.0029427
0.0208227
0.00270642
0.0192444
0.00246934
0.0178474
0.00222714
0.0166301
0.00198205
0.0155902
0.0017318
0.0147295
0.00147478
0.014044
0.00121938
0.013528
0.0009698
0.0131714
0.00072922
0.0129618
0.000501967
0.0128919
0.000285044
0.0129263
9.75371e-05
0.0130725
-7.77666e-05
0.013308
-0.0002397
0.0136233
-0.000380003
0.0140032
-0.000498131
0.0144285
-0.000590114
0.0148799
-0.000654396
0.0153334
-0.000687526
0.0157639
-0.000692004
0.0161529
-0.000674127
0.0164727
-0.00062914
0.0167064
-0.000550372
0.0168072
-0.000435329
0.0167925
-0.000310464
0.0165782
-8.08463e-05
0.0161267
0.000221071
0.0154074
0.000601774
0.0144113
0.00102668
0.0130972
0.00152976
0.011508
0.00205244
0.00966248
0.00257609
0.0076021
0.00305003
0.00537584
0.00345794
0.00300232
0.00375071
0.00050611
0.00390875
-0.00190534
0.00394045
-0.00403129
0.00389564
-0.00589682
0.00373818
-0.00748644
0.00344233
-0.00872236
0.00298239
-0.00962734
0.00245668
-0.010229
0.00183736
-0.0106266
0.00116517
-0.0106517
0.000383665
-0.00992662
-0.000537272
-0.00864772
-0.00141372
-0.00685383
-0.00227076
-0.00461577
-0.00308334
-0.00195817
-0.00382797
0.00106648
-0.00448189
0.00439527
-0.00501125
0.00797936
-0.00540233
0.0117567
-0.00565423
0.0155617
-0.00576273
0.0192839
-0.00572212
0.022922
-0.00553144
0.0264151
-0.00520265
0.029688
-0.0047502
0.0326609
-0.00418674
0.0352449
-0.00352615
0.0373764
-0.00278698
0.0389828
-0.00199276
0.0400529
-0.0012021
0.0406073
-0.000475135
0.0407176
9.62364e-05
0.040546
0.000527177
0.0400087
0.000988163
0.0391216
0.00144869
0.0379684
0.00179865
0.0366353
0.00202909
0.0351789
0.00218017
0.033637
0.00227616
0.0320658
0.00230381
0.0305133
0.00227693
0.0290151
0.00220806
0.0276039
0.00210103
0.0262942
0.00197719
0.0251025
0.00182972
0.0240488
0.00165174
0.0231489
0.00144494
0.0224113
0.00121841
0.0218328
0.000983914
0.021401
0.000758459
0.0210949
0.000549163
0.0208872
0.000367255
0.0207595
0.000221561
0.0206679
0.000120694
0.020581
7.36817e-05
0.0204632
8.05165e-05
0.0202885
0.000127306
0.0200364
0.000206721
0.0196924
0.000317384
0.0192428
0.000452745
0.0186803
0.000614618
0.017998
0.000793664
0.0171877
0.000991763
0.0162454
0.00120739
0.0151716
0.00143339
0.0139642
0.00166248
0.0126334
0.00189579
0.0111882
0.00211228
0.00964833
0.00232383
0.00803964
0.00250446
0.00639267
0.00265724
0.00474629
0.00276096
0.00311123
0.0028162
0.00146576
0.0028096
-6.90982e-05
0.00276725
-0.00147717
0.00266187
-0.00274525
0.00250251
-0.00384185
0.00227743
-0.00473391
0.00198609
-0.00539334
0.00164146
-0.00578535
0.0012432
-0.00589676
0.000807795
-0.00573066
0.000356445
-0.0052727
-0.000121665
-0.00452348
-0.000586113
-0.00350357
-0.0010639
-0.00221166
-0.0015246
-0.000664878
-0.00197587
0.00112746
-0.00240365
0.00314712
-0.00280269
0.00537596
-0.00316481
0.00778742
-0.00347829
0.0103566
-0.0037334
0.0130554
-0.00392601
0.015839
-0.00404454
0.0185988
-0.00409516
0.0213263
-0.00405993
0.0239882
-0.00393946
0.0265371
-0.00373564
0.0289239
-0.00345562
0.0311025
-0.00310872
0.0330316
-0.00270798
0.0346756
-0.0022615
0.0360125
-0.00179266
0.0370232
-0.00130401
0.0377186
-0.000836022
0.0380935
-0.000377929
0.0381832
2.98539e-05
0.0380578
0.000341431
0.0376924
0.00068433
0.0371386
0.000969024
0.0364453
0.0011785
0.0356403
0.00133702
0.0347677
0.0014367
0.0338693
0.00148111
0.0329767
0.00148163
0.0321139
0.00144658
0.0312997
0.00138294
0.0305486
0.00129674
0.0298703
0.00119476
0.0292695
0.00108395
0.0287462
0.000970992
0.0282961
0.000862136
0.0279113
0.000762841
0.0275806
0.000677703
0.0272904
0.000610602
0.0270255
0.000563856
0.0267694
0.000538833
0.0265071
0.000535048
0.0262262
0.000549441
0.0259144
0.000575597
0.0255622
0.000608953
0.0251647
0.000641704
0.0247223
0.000671092
0.0242387
0.000690532
0.0237157
0.000707553
0.0231539
0.00072704
0.0225465
0.000760071
0.0218867
0.000820683
0.0211495
0.00091878
0.0203109
0.0010742
0.0193406
0.00128385
0.0182202
0.00153802
0.0169449
0.00181515
0.0155301
0.00208383
0.0140086
0.00231974
0.0124282
0.00249424
0.0108307
0.00259553
0.00925676
0.00262741
0.00775857
0.00259759
0.00635858
0.00249571
0.00508984
0.0023179
0.00401736
0.00210329
0.00315569
0.00185489
0.00250257
0.00157108
0.00206004
0.00126288
0.00184287
0.000925523
0.00183006
0.000586837
0.00202992
0.000241301
0.00243507
-0.000109027
0.00305143
-0.00044345
0.00385413
-0.00077622
0.00484202
-0.00108884
0.00599897
-0.00138296
0.00731415
-0.00165476
0.00877294
-0.00190098
0.01036
-0.00211962
0.0120626
-0.00230737
0.0138651
-0.0024627
0.0157309
-0.00258976
0.0176332
-0.00268672
0.0195666
-0.00274934
0.0215144
-0.00277611
0.0234574
-0.00276712
0.0253745
-0.00272282
0.0272454
-0.00264474
0.0290505
-0.0025356
0.0307713
-0.002398
0.0323902
-0.00223446
0.033892
-0.00204837
0.0352636
-0.0018443
0.0364937
-0.00162458
0.0375725
-0.00139326
0.0384926
-0.00115449
0.0392496
-0.000914014
0.0398424
-0.000675848
0.0402711
-0.00044101
0.0405464
-0.00022187
0.040668
-7.24687e-06
0.0406767
0.000162238
0.0405592
0.000334177
0.0403098
0.000517109
0.0399477
0.000679543
0.0394966
0.000807425
0.0389676
0.000915652
0.0383758
0.00100163
0.0377366
0.00106704
0.0370664
0.00111018
0.036378
0.00113516
0.0356818
0.00114472
0.034988
0.00114013
0.0343057
0.00112268
0.0336419
0.00109435
0.0330013
0.00105809
0.0323864
0.00101704
0.031798
0.000974149
0.0312351
0.000932126
0.0306953
0.000893296
0.0301755
0.00085898
0.0296719
0.000830414
0.0291811
0.000807595
0.0286978
0.000792176
0.0282185
0.000783001
0.0277396
0.000781905
0.0272609
0.000783665
0.0267795
0.000793169
0.0262943
0.000804657
0.0258028
0.000822216
0.0253053
0.000840171
0.0248039
0.000856986
0.0243004
0.000872907
0.023798
0.000884104
0.0233015
0.000889559
0.022817
0.00088737
0.0223497
0.000877383
0.0219046
0.000858721
0.0214874
0.000830368
0.021104
0.000792251
0.02076
0.000744594
0.0204606
0.000687725
0.0202103
0.00062226
0.0200136
0.000548774
0.0198731
0.000468156
0.0197923
0.000382436
0.0197717
0.000290576
0.0198057
0.000202535
0.0199011
0.000106074
0.0200574
9.06068e-06
0.0202745
-8.69914e-05
0.0205461
-0.00017916
0.0208687
-0.000267264
0.0212389
-0.00034871
0.0216515
-0.000423058
0.0221008
-0.000488398
0.0225802
-0.000543755
0.0230827
-0.00058831
0.0236013
-0.0006216
0.0241289
-0.000643686
0.0246585
-0.000654754
0.0251838
-0.000655181
0.0256992
-0.000645837
0.0261995
-0.000627985
0.0266803
-0.000602973
0.0271383
-0.000572282
0.027571
-0.000536922
0.0279764
-0.000498067
0.0283534
-0.00045703
0.0287017
-0.00041498
0.0290215
-0.000372863
0.0293133
-0.000331314
0.0295778
-0.000290732
0.0298159
-0.000251563
0.030029
-0.000214445
0.0302191
-0.00017992
0.030388
-0.000148186
0.0305373
-0.000118994
0.0306682
-9.1985e-05
0.0307821
-6.71681e-05
0.0308806
-4.48601e-05
0.0309657
-2.52036e-05
0.0310389
-7.79154e-06
0.0311015
7.77857e-06
0.0311543
2.16387e-05
0.0311986
3.37951e-05
0.0312354
4.44028e-05
0.0312656
5.35732e-05
0.0312899
6.14877e-05
0.0313094
6.81479e-05
0.0313245
7.37312e-05
0.0313359
7.83109e-05
0.0313446
8.17321e-05
0.0313504
8.4574e-05
0.0313543
8.64013e-05
0.0313567
8.74987e-05
0.0313583
8.81349e-05
0.0313591
8.79411e-05
0.0313601
8.70615e-05
0.0313608
8.61144e-05
0.0313616
8.46951e-05
0.0313622
8.28231e-05
0.0313639
8.0543e-05
0.0313663
7.80141e-05
0.0313694
7.5466e-05
0.0313733
7.27019e-05
0.031378
6.99346e-05
0.0313836
6.71082e-05
0.03139
6.42512e-05
0.0313973
6.14145e-05
0.0314053
5.86613e-05
0.031414
5.59924e-05
0.0314233
5.34294e-05
0.0314331
5.09771e-05
0.0314434
4.86453e-05
0.031454
4.64559e-05
0.0314649
4.43956e-05
0.0314759
4.2479e-05
0.031487
4.06955e-05
0.0314981
3.90477e-05
0.031509
3.75258e-05
0.0315198
3.61231e-05
0.0315303
3.48443e-05
0.0315404
3.36343e-05
0.0315502
3.25779e-05
0.0315595
3.15264e-05
0.0315683
3.06488e-05
0.0315766
2.97808e-05
0.0315843
2.8933e-05
0.0315913
2.83589e-05
0.0315979
2.73095e-05
0.0316033
2.71248e-05
0.0316085
2.5944e-05
0.0316127
2.57313e-05
0.0316162
2.50327e-05
0.0316188
2.47744e-05
0.0316206
2.41729e-05
0.031622
2.33791e-05
0.0316228
2.28601e-05
0.0316222
2.23598e-05
0.0316212
2.15473e-05
0.0316193
2.12775e-05
0.0316167
2.02989e-05
0.031614
1.9531e-05
0.0316096
1.86081e-05
0.0316053
1.76884e-05
0.0316007
1.44642e-05
0.0315969
1.27076e-05
0.0315936
1.32798e-06
1.03133e-07
0.000214677
-0.000261313
0.000690561
-0.000798533
0.00135258
-0.00124084
0.00212832
-0.00154097
0.0029476
-0.001677
0.00374468
-0.00165123
0.00447877
-0.00151247
0.00512338
-0.00128911
0.00566905
-0.00102581
0.00611388
-0.000750383
0.006465
-0.000491061
0.006714
-0.000253221
0.00685776
-4.31698e-05
0.00687847
0.000137309
0.00681443
0.000267641
0.00664556
0.000406751
0.00640447
0.000539279
0.00609021
0.000683099
0.0056815
0.000866596
0.0051322
0.00111299
0.00440606
0.001432
0.00345389
0.00183737
0.00220272
0.00233569
0.000594721
0.00292331
-0.00137058
0.003598
-0.00374203
0.00444021
-0.00656247
0.00539564
-0.0098789
0.00646153
-0.0136292
0.00756364
-0.0177222
0.00865379
-0.0220152
0.00960028
-0.02633
0.0102704
-0.0304813
0.0105141
-0.0342897
0.0103573
-0.0375809
0.00961395
-0.0402412
0.00855108
-0.0421371
0.00693554
-0.0432719
0.00505515
-0.0436423
0.00293949
-0.0432418
0.000684593
-0.0420759
-0.00165991
-0.040053
-0.00398569
-0.037276
-0.00623711
-0.0337151
-0.00837136
-0.0294705
-0.0102975
-0.0245922
-0.0119969
-0.0191676
-0.013373
-0.0133182
-0.0143858
-0.00716092
-0.0149191
-0.000728919
-0.0150885
0.0057535
-0.0148026
0.0119877
-0.0140306
0.0176911
-0.0126996
0.0226946
-0.0109132
0.0268587
-0.00885479
0.0302753
-0.00671889
0.0329187
-0.00464922
0.0348534
-0.00277812
0.035821
-0.00113629
0.0358741
-7.54028e-05
0.0352562
0.000666158
0.0340516
0.000987286
0.0323401
0.0012192
0.030296
0.00158656
0.0279225
0.00248196
0.0248175
0.00422718
0.0201649
0.00680828
0.013813
0.00991213
0.00613121
0.0130524
-0.00240903
0.0158024
-0.0111341
0.0179168
-0.0194647
0.0189547
-0.0268815
0.0189228
-0.0330041
0.017984
-0.0377879
0.0165515
-0.041519
0.0148183
-0.0444444
0.0129669
-0.0466814
0.0109986
-0.0482928
0.00902061
-0.0495099
0.0070982
-0.0502323
0.00513205
-0.0504074
0.00293936
-0.0494652
0.000765152
-0.047686
-0.0012972
-0.0454399
-0.00315926
-0.0427108
-0.00490544
-0.0394824
-0.00656445
-0.0357436
-0.00813481
-0.0315368
-0.00959372
-0.0269478
-0.0109078
-0.0220535
-0.0120579
-0.0168697
-0.013023
-0.0114319
-0.0137768
-0.00577278
-0.0143141
-5.95062e-05
-0.0145509
0.00551929
-0.0146694
0.0110746
-0.0146542
0.0165718
-0.0144851
0.0219503
-0.01414
0.0272302
-0.0137705
0.0324197
-0.0133182
0.0374207
-0.0126754
0.0421999
-0.0119588
0.0467549
-0.0111611
0.0510395
-0.0102563
0.0550542
-0.00932328
0.0587654
-0.0082721
0.0621545
-0.00713001
0.06522
-0.00595751
0.0679377
-0.00480254
0.0701616
-0.00354242
0.0719762
-0.00211608
0.0734113
-0.000764941
0.0742984
0.000558591
0.0745597
0.00193068
0.0742331
0.00323055
0.0732788
0.00440378
0.0716824
0.00546609
0.0694862
0.00636157
0.0667655
0.00705879
0.0636136
0.00753903
0.0601476
0.00778983
0.0565005
0.00782084
0.0528102
0.00765688
0.0492035
0.00733685
0.045779
0.00690807
0.0426056
0.00641243
0.0397218
0.00588239
0.0371424
0.00534017
0.0348643
0.00480085
0.0328784
0.00426657
0.0311665
0.00374775
0.0297145
0.00323838
0.0285122
0.00273271
0.0275378
0.00225043
0.026764
0.00180161
0.0261708
0.00138158
0.0257434
0.000989822
0.0254627
0.000627087
0.0253203
0.00030175
0.0252932
1.13105e-05
0.0253557
-0.000240382
0.0254982
-0.000461349
0.0257116
-0.000651488
0.0259797
-0.000799473
0.0262756
-0.00089292
0.0265695
-0.000926117
0.0268318
-0.000901994
0.0270373
-0.000829249
0.0271325
-0.000675032
0.0270974
-0.000466346
0.026876
-0.000164022
0.0263797
0.000236947
0.0255701
0.000781521
0.0244162
0.00142848
0.0229126
0.00215953
0.0210833
0.00291004
0.0189612
0.00370549
0.0166161
0.00445069
0.0141158
0.00512924
0.0115358
0.00568226
0.0089433
0.00610217
0.0063743
0.00637071
0.0038698
0.0064639
0.00148897
0.00637127
-0.000681366
0.00611644
-0.00256638
0.0056735
-0.00414707
0.0050745
-0.00538521
0.00427257
-0.00621167
0.003336
-0.00655828
0.00223803
-0.00632841
0.000989533
-0.00561688
-0.000270951
-0.00453017
-0.00156407
-0.00302318
-0.0028579
-0.00106673
-0.00416231
0.00132812
-0.00541138
0.00413885
-0.00656989
0.00731874
-0.00759139
0.010824
-0.00844472
0.0146156
-0.00912108
0.0186148
-0.00957968
0.0227527
-0.00982632
0.0269534
-0.00984816
0.0311474
-0.00965101
0.0352689
-0.00925017
0.0392577
-0.00866573
0.0430576
-0.00791409
0.0466149
-0.00701192
0.0498829
-0.00598417
0.0528164
-0.00485644
0.0553725
-0.00368904
0.0575246
-0.00255846
0.0592038
-0.0015143
0.0602816
-0.000481983
0.0607476
0.000591139
0.0607366
0.00152835
0.0603558
0.00224804
0.0596197
0.00283412
0.0585283
0.00334055
0.0570986
0.00377456
0.0554043
0.00406648
0.0535125
0.00423713
0.0514604
0.00432872
0.0493075
0.00432273
0.0471311
0.00422256
0.0450136
0.00401656
0.0430276
0.0037075
0.0412185
0.00332429
0.0396251
0.00288207
0.0382714
0.00240786
0.0371615
0.00193791
0.0362812
0.00149802
0.0356026
0.00111287
0.035085
0.000804095
0.0346721
0.00059621
0.0342968
0.000508654
0.0338842
0.000550212
0.0333655
0.000700996
0.0326974
0.000928492
0.0318682
0.00119991
0.0308743
0.00150059
0.0297203
0.0018237
0.0284064
0.00216421
0.02695
0.00250672
0.0253595
0.00285822
0.0236523
0.00320313
0.0218446
0.00353469
0.019966
0.00384083
0.0180284
0.00411778
0.0160551
0.00436615
0.0140655
0.00456351
0.0120899
0.0047033
0.010167
0.00475516
0.00833745
0.00471797
0.00662317
0.00459641
0.00504829
0.00441477
0.00364334
0.00414017
0.00244869
0.00377068
0.00148301
0.00331776
0.000771485
0.00277309
0.000330687
0.00215846
0.000160341
0.00149062
0.000253126
0.000793086
0.000626669
6.17205e-05
0.00127219
-0.000688015
0.00220956
-0.00144415
0.00342328
-0.00219823
0.00491573
-0.0029379
0.00667408
-0.00365543
0.00869002
-0.00434149
0.0109495
-0.00498478
0.0134354
-0.00557448
0.0161286
-0.006097
0.0190127
-0.00654471
0.0220577
-0.0069006
0.0252308
-0.0071496
0.0284852
-0.00728417
0.0317792
-0.00729128
0.0350662
-0.00716662
0.0382999
-0.0069118
0.0414338
-0.00653373
0.0444228
-0.00604266
0.0472215
-0.0054512
0.0497894
-0.00477195
0.0520828
-0.0040257
0.0540715
-0.00322841
0.055714
-0.00240914
0.0569874
-0.00157632
0.0578523
-0.000756112
0.0582323
4.47865e-05
0.0582555
0.000750664
0.0579977
0.00132189
0.0574595
0.00181492
0.0566752
0.00222179
0.0557125
0.00250101
0.0546064
0.00268948
0.0534072
0.00278323
0.0521712
0.00278475
0.0509422
0.00271334
0.0497554
0.00258406
0.0486384
0.00241145
0.0476102
0.00221094
0.0466829
0.00199641
0.0458616
0.00178095
0.0451453
0.00157598
0.044528
0.00139135
0.0439984
0.00123577
0.0435412
0.00111596
0.0431376
0.00103635
0.0427672
0.000998815
0.0424063
0.00100342
0.0420253
0.0010495
0.0415902
0.00113645
0.0410672
0.00125705
0.0404284
0.00140205
0.0396549
0.00155628
0.0387403
0.00171434
0.0376889
0.00187057
0.0365099
0.00203101
0.0352137
0.0022083
0.0337973
0.00242588
0.0322574
0.00270421
0.030586
0.00304469
0.0287854
0.00342778
0.0268762
0.00381331
0.0248895
0.00415957
0.0228702