/*--------------------------------*- C++ -*----------------------------------*\
| =========                 |                                                 |
| \\      /  F ield         | OpenFOAM: The Open Source CFD Toolbox           |
|  \\    /   O peration     | Version:  v1812                                 |
|   \\  /    A nd           | Web:      www.OpenFOAM.com                      |
|    \\/     M anipulation  |                                                 |
\*---------------------------------------------------------------------------*/
FoamFile
{
    version     2.0;
    format      ascii;
    class       volScalarField;
    location    "1.1";
    object      T;
}
// * * * * * * * * * * * * * * * * * * * * * * * * * * * * * * * * * * * * * //

dimensions      [0 0 0 1 0 0 0];


internalField   nonuniform List<scalar> 
20400
(
287.964
287.964
287.964
287.964
287.965
287.965
287.964
287.964
287.962
287.96
287.958
287.956
287.953
287.952
287.951
287.951
287.953
287.955
287.958
287.961
287.964
287.967
287.971
287.974
287.98
287.987
287.997
288.01
288.026
288.044
288.064
288.084
288.105
288.124
288.143
288.159
288.176
288.192
288.208
288.227
288.245
288.271
288.294
288.325
288.356
288.391
288.425
288.459
288.494
288.524
288.557
288.593
288.636
288.691
288.765
288.864
288.995
289.161
289.359
289.588
289.844
290.128
290.439
290.773
291.113
291.434
291.71
291.91
292.041
292.098
292.104
292.09
292.053
292.006
291.948
291.889
291.828
291.771
291.717
291.671
291.628
291.595
291.568
291.548
291.533
291.526
291.522
291.531
291.545
291.568
291.596
291.63
291.665
291.703
291.736
291.767
291.8
291.833
291.86
291.887
291.908
291.922
291.927
291.923
291.908
291.877
291.834
291.778
291.71
291.633
291.553
291.468
291.375
291.273
291.168
291.064
290.966
290.875
290.793
290.72
290.658
290.607
290.565
290.531
290.504
290.482
290.464
290.449
290.435
290.423
290.411
290.4
290.389
290.378
290.369
290.36
290.353
290.347
290.343
290.34
290.34
290.341
290.344
290.349
290.354
290.361
290.367
290.372
290.377
290.381
290.384
290.387
290.388
290.389
290.388
290.384
290.379
290.369
290.359
290.343
290.327
290.307
290.287
290.266
290.245
290.222
290.199
290.175
290.154
290.131
290.112
290.093
290.079
290.065
290.054
290.043
290.034
290.026
290.019
290.012
290.004
289.995
289.984
289.973
289.959
289.945
289.93
289.914
289.9
289.886
289.877
289.87
289.869
289.87
289.878
289.892
289.911
289.935
289.964
289.997
290.035
290.077
290.123
290.174
290.228
290.286
290.349
290.415
290.486
290.561
290.641
290.723
290.809
290.897
290.987
291.077
291.168
291.257
291.344
291.427
291.506
291.58
291.648
291.709
291.762
291.808
291.845
291.873
291.892
291.904
291.909
291.908
291.902
291.892
291.879
291.865
291.849
291.833
291.816
291.801
291.787
291.775
291.765
291.757
291.752
291.748
291.746
291.746
291.749
291.753
291.758
291.765
291.772
291.778
291.784
291.788
291.79
291.789
291.784
291.775
291.76
291.741
291.717
291.689
291.657
291.623
291.587
291.552
291.516
291.484
291.451
291.421
291.391
291.365
291.34
291.319
291.3
291.283
291.268
291.255
291.244
291.234
291.227
291.22
291.216
291.212
291.211
291.21
291.211
291.214
291.218
291.223
291.23
291.238
291.247
291.258
291.269
291.283
291.298
291.314
291.329
291.344
291.357
291.37
291.38
291.389
291.396
291.402
291.406
291.41
291.413
291.416
291.419
291.423
291.428
291.434
291.441
291.45
291.461
291.473
291.488
291.503
291.522
291.542
291.564
291.588
291.615
291.643
291.674
291.706
291.739
291.774
291.81
291.848
291.886
291.925
291.964
292.004
292.042
292.081
292.118
292.154
292.189
292.222
292.253
292.283
292.31
292.335
292.358
292.379
292.398
292.416
292.432
292.445
292.455
292.464
292.472
292.479
292.484
292.489
292.493
292.496
292.498
292.5
292.502
292.503
292.504
292.505
292.507
292.508
292.51
292.512
292.515
292.518
292.521
292.525
292.529
292.535
292.54
292.546
292.553
292.561
292.569
292.577
292.586
292.595
292.605
292.616
292.627
292.639
292.651
292.664
292.677
292.692
292.706
292.722
292.738
292.755
292.772
292.789
292.808
292.826
292.844
292.863
292.883
292.902
292.921
292.941
292.96
292.98
292.999
293.017
293.036
293.053
293.071
293.088
293.104
293.12
293.135
293.15
293.164
293.178
293.191
293.204
293.217
293.229
293.24
293.252
293.263
293.273
293.284
293.294
293.304
293.314
293.324
293.333
293.343
293.352
293.361
293.37
293.379
293.388
293.397
293.405
293.414
293.423
293.432
293.442
293.45
293.459
293.467
293.476
293.484
293.493
293.502
293.51
293.519
293.528
293.536
293.545
293.554
293.563
293.571
293.58
293.589
293.597
293.606
293.615
293.624
293.632
293.641
293.65
293.659
293.668
293.676
293.685
293.694
293.703
293.712
293.72
293.729
293.738
293.746
293.755
293.764
293.772
293.781
293.79
293.799
293.808
293.817
293.825
293.834
293.842
293.849
293.854
293.856
293.853
293.837
293.813
287.964
287.965
287.966
287.969
287.971
287.973
287.974
287.974
287.973
287.971
287.967
287.964
287.96
287.957
287.955
287.954
287.954
287.955
287.957
287.959
287.961
287.963
287.965
287.968
287.974
287.984
287.997
288.014
288.033
288.053
288.072
288.089
288.104
288.115
288.126
288.133
288.142
288.152
288.165
288.184
288.207
288.237
288.271
288.31
288.351
288.395
288.437
288.477
288.509
288.54
288.56
288.577
288.591
288.608
288.632
288.665
288.718
288.796
288.905
289.053
289.248
289.504
289.841
290.266
290.758
291.249
291.659
291.933
292.071
292.104
292.086
292.031
291.951
291.851
291.741
291.621
291.498
291.377
291.26
291.149
291.048
290.958
290.879
290.809
290.753
290.716
290.695
290.686
290.692
290.71
290.74
290.779
290.828
290.88
290.939
290.995
291.059
291.126
291.196
291.267
291.342
291.419
291.496
291.574
291.65
291.721
291.786
291.843
291.888
291.917
291.927
291.92
291.888
291.823
291.729
291.617
291.497
291.37
291.237
291.103
290.979
290.868
290.774
290.698
290.638
290.592
290.555
290.525
290.499
290.475
290.452
290.429
290.406
290.382
290.358
290.334
290.311
290.29
290.271
290.256
290.246
290.24
290.239
290.243
290.254
290.27
290.29
290.312
290.335
290.356
290.374
290.388
290.398
290.405
290.408
290.409
290.407
290.401
290.392
290.378
290.362
290.343
290.323
290.302
290.279
290.257
290.237
290.217
290.2
290.183
290.17
290.158
290.145
290.136
290.132
290.13
290.13
290.13
290.131
290.132
290.131
290.128
290.124
290.115
290.105
290.091
290.076
290.058
290.039
290.017
289.992
289.967
289.941
289.919
289.901
289.888
289.879
289.878
289.88
289.888
289.902
289.924
289.951
289.981
290.015
290.051
290.092
290.136
290.184
290.237
290.298
290.366
290.443
290.53
290.627
290.733
290.848
290.969
291.093
291.217
291.339
291.456
291.565
291.666
291.757
291.835
291.899
291.949
291.985
292.007
292.016
292.015
292.008
291.992
291.969
291.942
291.914
291.884
291.854
291.824
291.796
291.77
291.746
291.725
291.707
291.691
291.679
291.673
291.671
291.674
291.682
291.696
291.714
291.737
291.764
291.794
291.826
291.858
291.89
291.919
291.944
291.963
291.975
291.979
291.975
291.961
291.932
291.892
291.843
291.792
291.739
291.685
291.628
291.573
291.52
291.472
291.428
291.389
291.355
291.324
291.298
291.276
291.257
291.241
291.228
291.218
291.211
291.206
291.204
291.204
291.205
291.208
291.212
291.218
291.224
291.232
291.241
291.252
291.265
291.28
291.298
291.317
291.337
291.357
291.374
291.39
291.402
291.411
291.418
291.423
291.426
291.428
291.429
291.429
291.428
291.427
291.426
291.425
291.424
291.424
291.425
291.427
291.43
291.434
291.44
291.448
291.457
291.469
291.482
291.498
291.517
291.537
291.56
291.584
291.611
291.641
291.672
291.706
291.741
291.777
291.815
291.853
291.893
291.932
291.972
292.012
292.05
292.087
292.123
292.157
292.189
292.222
292.252
292.28
292.305
292.327
292.347
292.364
292.38
292.395
292.408
292.419
292.43
292.44
292.449
292.457
292.464
292.47
292.474
292.478
292.481
292.483
292.484
292.484
292.484
292.483
292.482
292.481
292.481
292.481
292.482
292.483
292.485
292.487
292.49
292.494
292.498
292.503
292.509
292.515
292.523
292.531
292.54
292.55
292.561
292.573
292.587
292.601
292.617
292.633
292.65
292.668
292.686
292.706
292.726
292.747
292.769
292.791
292.813
292.835
292.857
292.88
292.902
292.923
292.945
292.965
292.986
293.005
293.024
293.043
293.061
293.078
293.095
293.11
293.126
293.141
293.155
293.169
293.182
293.195
293.208
293.22
293.232
293.243
293.254
293.265
293.276
293.286
293.296
293.306
293.316
293.325
293.335
293.344
293.353
293.362
293.373
293.383
293.393
293.401
293.41
293.419
293.427
293.436
293.445
293.454
293.463
293.472
293.481
293.489
293.498
293.507
293.516
293.525
293.533
293.542
293.551
293.56
293.568
293.577
293.586
293.595
293.603
293.612
293.621
293.63
293.638
293.647
293.656
293.665
293.673
293.682
293.691
293.7
293.708
293.717
293.725
293.734
293.742
293.751
293.76
293.769
293.778
293.786
293.794
293.802
293.807
293.805
293.797
293.778
287.966
287.969
287.975
287.982
287.989
287.995
287.999
287.999
287.998
287.994
287.989
287.983
287.977
287.971
287.966
287.963
287.96
287.958
287.957
287.956
287.955
287.954
287.955
287.958
287.966
287.981
288
288.022
288.045
288.066
288.083
288.095
288.103
288.108
288.112
288.113
288.117
288.123
288.132
288.148
288.168
288.197
288.234
288.282
288.337
288.398
288.46
288.522
288.58
288.632
288.675
288.695
288.689
288.668
288.642
288.628
288.626
288.639
288.676
288.75
288.875
289.084
289.422
289.923
290.565
291.231
291.748
292.024
292.098
292.073
291.979
291.839
291.667
291.471
291.261
291.046
290.833
290.628
290.437
290.264
290.109
289.981
289.88
289.804
289.754
289.722
289.707
289.703
289.716
289.739
289.771
289.812
289.859
289.91
289.964
290.019
290.076
290.135
290.197
290.261
290.328
290.401
290.479
290.565
290.661
290.766
290.883
291.013
291.155
291.306
291.465
291.631
291.787
291.909
291.978
291.997
291.993
291.963
291.89
291.774
291.628
291.464
291.294
291.134
290.994
290.878
290.788
290.719
290.667
290.626
290.591
290.558
290.527
290.494
290.46
290.422
290.38
290.334
290.286
290.239
290.194
290.153
290.119
290.093
290.079
290.077
290.087
290.115
290.161
290.216
290.273
290.327
290.37
290.401
290.423
290.438
290.446
290.446
290.443
290.433
290.419
290.4
290.38
290.358
290.335
290.313
290.292
290.273
290.257
290.241
290.231
290.226
290.223
290.223
290.224
290.227
290.231
290.235
290.237
290.239
290.238
290.233
290.224
290.21
290.192
290.171
290.148
290.124
290.098
290.073
290.048
290.023
290
289.976
289.951
289.926
289.902
289.881
289.862
289.846
289.835
289.83
289.83
289.833
289.84
289.85
289.863
289.878
289.897
289.919
289.947
289.984
290.031
290.092
290.17
290.267
290.386
290.527
290.687
290.861
291.042
291.223
291.4
291.566
291.717
291.852
291.965
292.055
292.118
292.154
292.165
292.161
292.141
292.102
292.047
291.98
291.909
291.842
291.772
291.699
291.625
291.55
291.475
291.403
291.335
291.274
291.22
291.176
291.141
291.116
291.101
291.097
291.102
291.12
291.149
291.189
291.241
291.304
291.378
291.462
291.555
291.654
291.756
291.857
291.951
292.034
292.102
292.151
292.178
292.182
292.173
292.14
292.083
292.012
291.933
291.85
291.766
291.685
291.607
291.536
291.472
291.415
291.366
291.323
291.285
291.254
291.227
291.206
291.191
291.182
291.178
291.177
291.179
291.183
291.189
291.196
291.205
291.215
291.226
291.239
291.256
291.276
291.301
291.329
291.357
291.384
291.407
291.425
291.439
291.448
291.454
291.457
291.457
291.455
291.452
291.446
291.438
291.429
291.418
291.406
291.393
291.381
291.367
291.353
291.338
291.323
291.308
291.294
291.281
291.27
291.261
291.255
291.252
291.252
291.256
291.264
291.277
291.294
291.315
291.34
291.369
291.402
291.439
291.479
291.523
291.57
291.618
291.668
291.719
291.77
291.821
291.871
291.919
291.966
292.011
292.054
292.093
292.129
292.162
292.191
292.218
292.243
292.266
292.287
292.308
292.327
292.346
292.364
292.381
292.397
292.41
292.421
292.429
292.433
292.434
292.434
292.43
292.424
292.415
292.406
292.395
292.385
292.375
292.366
292.357
292.349
292.342
292.336
292.33
292.326
292.323
292.322
292.322
292.323
292.325
292.329
292.335
292.344
292.354
292.365
292.378
292.392
292.408
292.426
292.445
292.466
292.488
292.511
292.535
292.561
292.587
292.614
292.641
292.668
292.696
292.723
292.75
292.777
292.803
292.829
292.853
292.878
292.901
292.924
292.945
292.966
292.987
293.006
293.025
293.043
293.061
293.077
293.094
293.109
293.124
293.139
293.153
293.166
293.179
293.192
293.204
293.215
293.227
293.238
293.249
293.26
293.272
293.284
293.295
293.305
293.315
293.324
293.334
293.344
293.353
293.363
293.372
293.381
293.391
293.4
293.409
293.419
293.428
293.437
293.446
293.455
293.464
293.473
293.482
293.491
293.5
293.508
293.517
293.526
293.535
293.544
293.552
293.561
293.57
293.578
293.587
293.596
293.604
293.613
293.622
293.63
293.639
293.647
293.655
293.664
293.673
293.682
293.69
293.698
293.706
293.714
293.72
293.721
293.716
293.704
287.975
287.982
287.994
288.009
288.024
288.035
288.041
288.042
288.039
288.032
288.023
288.013
288.002
287.992
287.983
287.975
287.969
287.963
287.957
287.952
287.946
287.943
287.942
287.948
287.963
287.984
288.009
288.037
288.063
288.083
288.094
288.097
288.095
288.085
288.069
288.046
288.02
287.99
287.961
287.937
287.921
287.917
287.939
287.982
288.049
288.14
288.252
288.379
288.51
288.631
288.729
288.805
288.862
288.876
288.847
288.787
288.723
288.683
288.677
288.695
288.771
288.951
289.297
289.866
290.625
291.388
291.906
292.086
292.069
291.946
291.746
291.497
291.216
290.916
290.617
290.331
290.069
289.839
289.646
289.49
289.372
289.284
289.222
289.182
289.159
289.15
289.157
289.176
289.204
289.24
289.283
289.33
289.38
289.432
289.484
289.535
289.583
289.629
289.673
289.715
289.755
289.797
289.841
289.887
289.94
290
290.07
290.152
290.25
290.366
290.505
290.669
290.86
291.082
291.321
291.55
291.749
291.909
292.031
292.085
292.081
292.039
291.939
291.789
291.607
291.42
291.248
291.102
290.987
290.901
290.839
290.794
290.76
290.73
290.7
290.667
290.629
290.584
290.532
290.472
290.403
290.326
290.242
290.155
290.073
290.005
289.964
289.952
289.96
289.994
290.063
290.155
290.252
290.338
290.403
290.448
290.477
290.491
290.494
290.491
290.48
290.462
290.438
290.411
290.386
290.361
290.34
290.321
290.306
290.295
290.288
290.286
290.288
290.294
290.302
290.313
290.323
290.332
290.339
290.342
290.342
290.337
290.324
290.303
290.275
290.242
290.205
290.165
290.125
290.086
290.049
290.015
289.984
289.956
289.931
289.909
289.888
289.867
289.847
289.826
289.806
289.791
289.777
289.766
289.757
289.752
289.75
289.75
289.752
289.754
289.759
289.768
289.784
289.81
289.852
289.914
290.002
290.122
290.276
290.464
290.681
290.917
291.16
291.399
291.624
291.827
292.004
292.146
292.243
292.291
292.298
292.284
292.236
292.151
292.042
291.925
291.798
291.659
291.514
291.368
291.225
291.088
290.961
290.847
290.746
290.658
290.584
290.521
290.47
290.429
290.398
290.377
290.367
290.366
290.374
290.393
290.423
290.463
290.516
290.582
290.661
290.756
290.868
290.998
291.146
291.31
291.488
291.675
291.861
292.035
292.183
292.287
292.34
292.352
292.346
292.318
292.26
292.176
292.074
291.965
291.853
291.745
291.644
291.55
291.467
291.393
291.328
291.273
291.228
291.193
291.168
291.153
291.147
291.147
291.149
291.156
291.166
291.178
291.191
291.205
291.221
291.24
291.264
291.294
291.329
291.367
291.403
291.435
291.46
291.479
291.492
291.501
291.506
291.507
291.506
291.502
291.495
291.484
291.47
291.453
291.434
291.412
291.387
291.36
291.331
291.3
291.268
291.235
291.201
291.166
291.129
291.092
291.057
291.026
290.998
290.976
290.96
290.95
290.947
290.948
290.954
290.968
290.989
291.016
291.049
291.087
291.132
291.181
291.236
291.295
291.358
291.423
291.491
291.559
291.625
291.69
291.751
291.811
291.866
291.917
291.964
292.006
292.044
292.079
292.11
292.14
292.168
292.196
292.224
292.252
292.28
292.307
292.332
292.353
292.368
292.376
292.378
292.376
292.37
292.357
292.339
292.317
292.293
292.268
292.243
292.219
292.196
292.175
292.155
292.136
292.12
292.105
292.092
292.082
292.074
292.068
292.066
292.067
292.068
292.072
292.078
292.087
292.097
292.11
292.125
292.142
292.161
292.182
292.204
292.228
292.254
292.281
292.309
292.338
292.368
292.398
292.43
292.462
292.494
292.526
292.558
292.589
292.621
292.651
292.682
292.711
292.74
292.768
292.795
292.821
292.846
292.871
292.894
292.917
292.939
292.96
292.98
293
293.019
293.036
293.053
293.07
293.085
293.1
293.115
293.129
293.145
293.159
293.173
293.186
293.199
293.211
293.223
293.235
293.246
293.257
293.269
293.279
293.29
293.301
293.311
293.322
293.332
293.342
293.352
293.362
293.372
293.381
293.391
293.4
293.41
293.419
293.428
293.437
293.446
293.455
293.464
293.473
293.482
293.49
293.499
293.508
293.517
293.525
293.534
293.542
293.551
293.56
293.568
293.576
293.585
293.593
293.601
293.61
293.618
293.624
293.63
293.633
293.63
293.623
287.995
288.008
288.03
288.054
288.076
288.092
288.099
288.098
288.092
288.081
288.066
288.05
288.033
288.017
288.002
287.989
287.977
287.965
287.953
287.942
287.933
287.929
287.932
287.945
287.967
287.996
288.028
288.06
288.083
288.092
288.091
288.076
288.044
287.992
287.922
287.84
287.75
287.663
287.587
287.526
287.486
287.466
287.46
287.48
287.523
287.594
287.701
287.851
288.044
288.274
288.52
288.747
288.908
289.007
289.061
289.042
288.969
288.877
288.814
288.806
288.843
288.995
289.351
289.978
290.82
291.606
292.02
292.075
291.962
291.726
291.414
291.057
290.68
290.315
289.982
289.696
289.462
289.277
289.138
289.035
288.963
288.913
288.883
288.869
288.867
288.879
288.901
288.934
288.974
289.02
289.07
289.123
289.178
289.233
289.287
289.336
289.38
289.418
289.452
289.481
289.506
289.529
289.551
289.573
289.597
289.624
289.656
289.695
289.742
289.802
289.877
289.972
290.09
290.239
290.428
290.663
290.943
291.248
291.538
291.783
291.97
292.11
292.185
292.183
292.14
292.033
291.871
291.684
291.501
291.343
291.219
291.131
291.074
291.039
291.019
291.004
290.989
290.97
290.943
290.904
290.852
290.781
290.688
290.573
290.438
290.289
290.139
290.01
289.929
289.904
289.915
289.967
290.067
290.195
290.319
290.416
290.482
290.523
290.54
290.541
290.535
290.518
290.49
290.457
290.423
290.393
290.367
290.346
290.333
290.326
290.325
290.332
290.346
290.365
290.386
290.406
290.425
290.441
290.451
290.457
290.457
290.452
290.436
290.41
290.375
290.331
290.281
290.226
290.169
290.113
290.059
290.01
289.967
289.93
289.898
289.871
289.847
289.826
289.807
289.79
289.772
289.756
289.739
289.722
289.709
289.698
289.689
289.682
289.678
289.677
289.677
289.678
289.681
289.688
289.704
289.733
289.783
289.862
289.979
290.14
290.349
290.601
290.885
291.184
291.48
291.757
292.002
292.203
292.337
292.396
292.398
292.37
292.287
292.151
291.981
291.789
291.583
291.371
291.166
290.975
290.805
290.658
290.535
290.432
290.348
290.278
290.22
290.169
290.126
290.088
290.056
290.029
290.008
289.994
289.989
289.989
289.997
290.011
290.033
290.061
290.098
290.145
290.203
290.274
290.363
290.472
290.605
290.766
290.958
291.178
291.423
291.68
291.93
292.147
292.316
292.435
292.497
292.508
292.494
292.448
292.364
292.248
292.114
291.972
291.831
291.697
291.572
291.461
291.364
291.283
291.218
291.171
291.141
291.127
291.124
291.125
291.132
291.143
291.159
291.176
291.193
291.212
291.234
291.262
291.298
291.34
291.386
291.43
291.47
291.504
291.53
291.55
291.565
291.576
291.584
291.588
291.588
291.586
291.579
291.568
291.551
291.53
291.503
291.471
291.433
291.391
291.343
291.291
291.235
291.178
291.121
291.064
291.008
290.953
290.899
290.847
290.8
290.76
290.727
290.702
290.685
290.677
290.677
290.681
290.691
290.709
290.733
290.764
290.802
290.846
290.899
290.958
291.024
291.097
291.175
291.257
291.339
291.421
291.501
291.579
291.653
291.722
291.784
291.841
291.891
291.935
291.975
292.011
292.046
292.08
292.115
292.151
292.188
292.225
292.26
292.289
292.311
292.321
292.322
292.318
292.306
292.283
292.252
292.214
292.173
292.131
292.091
292.052
292.016
291.983
291.952
291.925
291.901
291.881
291.864
291.851
291.842
291.837
291.836
291.836
291.838
291.843
291.851
291.861
291.873
291.887
291.902
291.919
291.937
291.956
291.975
291.996
292.017
292.039
292.063
292.087
292.112
292.139
292.166
292.195
292.225
292.256
292.288
292.321
292.354
292.388
292.423
292.457
292.491
292.525
292.558
292.591
292.623
292.655
292.685
292.715
292.744
292.772
292.8
292.826
292.851
292.875
292.897
292.919
292.94
292.961
292.981
293.001
293.021
293.039
293.057
293.073
293.09
293.106
293.121
293.136
293.151
293.165
293.179
293.193
293.206
293.219
293.232
293.244
293.256
293.268
293.28
293.291
293.303
293.313
293.324
293.335
293.345
293.355
293.365
293.375
293.384
293.394
293.403
293.412
293.421
293.43
293.439
293.448
293.457
293.466
293.474
293.483
293.491
293.5
293.508
293.517
293.525
293.533
293.541
293.548
293.553
293.556
293.554
293.55
288.027
288.047
288.078
288.111
288.139
288.156
288.161
288.157
288.145
288.127
288.105
288.081
288.058
288.035
288.014
287.994
287.974
287.956
287.939
287.926
287.918
287.919
287.93
287.951
287.982
288.02
288.057
288.084
288.093
288.084
288.055
287.995
287.905
287.794
287.678
287.566
287.467
287.391
287.34
287.306
287.283
287.263
287.247
287.234
287.226
287.235
287.268
287.339
287.466
287.663
287.936
288.277
288.651
288.967
289.152
289.247
289.239
289.163
289.063
289.009
289.025
289.155
289.524
290.205
291.085
291.797
292.061
292.019
291.793
291.448
291.032
290.591
290.168
289.794
289.486
289.248
289.072
288.945
288.857
288.795
288.755
288.731
288.721
288.723
288.737
288.762
288.795
288.835
288.88
288.93
288.983
289.037
289.09
289.141
289.19
289.234
289.273
289.304
289.329
289.348
289.362
289.373
289.383
289.391
289.401
289.412
289.427
289.445
289.469
289.501
289.542
289.595
289.663
289.75
289.86
290.003
290.19
290.428
290.718
291.049
291.396
291.717
291.969
292.151
292.278
292.321
292.301
292.227
292.09
291.916
291.741
291.589
291.475
291.402
291.369
291.365
291.369
291.376
291.382
291.382
291.372
291.341
291.283
291.192
291.061
290.889
290.679
290.447
290.22
290.041
289.946
289.931
289.958
290.043
290.178
290.323
290.444
290.524
290.569
290.583
290.581
290.568
290.54
290.5
290.458
290.419
290.389
290.368
290.357
290.356
290.36
290.374
290.4
290.432
290.466
290.499
290.528
290.551
290.565
290.571
290.57
290.563
290.543
290.512
290.47
290.419
290.36
290.293
290.223
290.15
290.081
290.017
289.964
289.92
289.885
289.856
289.831
289.809
289.79
289.772
289.754
289.738
289.722
289.706
289.689
289.672
289.655
289.646
289.639
289.634
289.631
289.63
289.63
289.633
289.64
289.654
289.682
289.729
289.807
289.927
290.099
290.331
290.619
290.949
291.298
291.643
291.958
292.218
292.395
292.467
292.467
292.426
292.313
292.125
291.883
291.615
291.345
291.092
290.87
290.685
290.54
290.428
290.341
290.273
290.218
290.171
290.129
290.089
290.052
290.017
289.984
289.953
289.925
289.9
289.879
289.866
289.862
289.864
289.869
289.878
289.892
289.911
289.936
289.966
290.005
290.055
290.117
290.198
290.301
290.433
290.602
290.812
291.068
291.362
291.673
291.965
292.212
292.408
292.557
292.643
292.661
292.644
292.587
292.48
292.333
292.162
291.982
291.804
291.637
291.488
291.36
291.258
291.184
291.138
291.116
291.11
291.111
291.118
291.131
291.15
291.17
291.191
291.213
291.238
291.27
291.311
291.36
291.414
291.465
291.514
291.556
291.591
291.62
291.644
291.664
291.68
291.692
291.699
291.702
291.701
291.694
291.68
291.659
291.629
291.592
291.546
291.493
291.432
291.365
291.291
291.214
291.133
291.052
290.972
290.897
290.827
290.764
290.707
290.656
290.612
290.576
290.548
290.528
290.516
290.512
290.513
290.516
290.525
290.539
290.559
290.585
290.618
290.658
290.706
290.765
290.833
290.91
290.994
291.085
291.179
291.274
291.37
291.463
291.55
291.631
291.703
291.766
291.821
291.87
291.913
291.954
291.993
292.033
292.076
292.12
292.165
292.206
292.24
292.261
292.268
292.266
292.255
292.232
292.194
292.146
292.091
292.034
291.978
291.926
291.878
291.836
291.799
291.768
291.742
291.721
291.706
291.697
291.693
291.693
291.694
291.698
291.705
291.715
291.727
291.742
291.758
291.775
291.792
291.81
291.827
291.844
291.861
291.876
291.89
291.903
291.915
291.927
291.938
291.949
291.96
291.973
291.987
292.003
292.021
292.041
292.065
292.091
292.119
292.149
292.18
292.213
292.248
292.284
292.32
292.357
292.394
292.43
292.466
292.502
292.537
292.572
292.605
292.637
292.669
292.699
292.728
292.756
292.784
292.812
292.838
292.864
292.888
292.912
292.934
292.956
292.978
292.998
293.019
293.038
293.057
293.076
293.094
293.111
293.128
293.145
293.161
293.176
293.192
293.206
293.22
293.234
293.247
293.26
293.273
293.285
293.296
293.308
293.319
293.33
293.34
293.35
293.361
293.37
293.38
293.389
293.399
293.408
293.417
293.426
293.434
293.443
293.451
293.46
293.468
293.476
293.484
293.489
293.491
293.49
293.488
288.068
288.094
288.133
288.171
288.201
288.215
288.213
288.201
288.179
288.152
288.123
288.093
288.063
288.034
288.006
287.98
287.955
287.933
287.915
287.906
287.906
287.918
287.939
287.971
288.012
288.055
288.086
288.096
288.083
288.043
287.964
287.851
287.727
287.606
287.509
287.443
287.399
287.372
287.352
287.343
287.33
287.304
287.268
287.227
287.188
287.157
287.138
287.125
287.146
287.225
287.391
287.662
288.055
288.541
289.009
289.309
289.449
289.449
289.378
289.3
289.299
289.413
289.793
290.501
291.348
291.927
292.057
291.927
291.594
291.15
290.655
290.17
289.745
289.405
289.152
288.974
288.851
288.766
288.71
288.671
288.649
288.642
288.646
288.664
288.69
288.724
288.763
288.809
288.859
288.91
288.963
289.015
289.063
289.106
289.144
289.178
289.205
289.224
289.237
289.243
289.244
289.244
289.243
289.242
289.244
289.247
289.254
289.265
289.282
289.306
289.339
289.38
289.431
289.491
289.564
289.652
289.763
289.905
290.092
290.336
290.644
291.002
291.383
291.747
292.043
292.255
292.405
292.472
292.462
292.403
292.283
292.127
291.969
291.839
291.758
291.733
291.737
291.753
291.782
291.817
291.844
291.852
291.844
291.809
291.73
291.594
291.395
291.135
290.827
290.506
290.227
290.049
289.991
290.002
290.067
290.194
290.347
290.479
290.565
290.607
290.617
290.61
290.587
290.547
290.498
290.45
290.412
290.388
290.38
290.381
290.391
290.413
290.449
290.494
290.543
290.588
290.626
290.653
290.668
290.673
290.67
290.658
290.631
290.592
290.544
290.486
290.42
290.345
290.263
290.178
290.095
290.021
289.959
289.912
289.878
289.855
289.839
289.826
289.814
289.803
289.791
289.778
289.763
289.746
289.727
289.706
289.684
289.662
289.643
289.63
289.618
289.609
289.604
289.603
289.605
289.612
289.628
289.658
289.711
289.797
289.93
290.124
290.389
290.719
291.097
291.492
291.871
292.192
292.413
292.508
292.509
292.464
292.327
292.094
291.791
291.467
291.165
290.908
290.707
290.559
290.455
290.381
290.327
290.283
290.247
290.214
290.18
290.142
290.102
290.06
290.017
289.974
289.934
289.898
289.868
289.845
289.829
289.822
289.822
289.824
289.83
289.84
289.854
289.873
289.896
289.925
289.96
290.001
290.049
290.109
290.187
290.291
290.432
290.622
290.869
291.168
291.504
291.847
292.162
292.423
292.619
292.751
292.805
292.798
292.751
292.643
292.478
292.274
292.051
291.829
291.623
291.444
291.301
291.199
291.138
291.11
291.104
291.105
291.113
291.13
291.151
291.174
291.197
291.221
291.25
291.286
291.333
291.389
291.448
291.507
291.563
291.613
291.657
291.696
291.728
291.756
291.779
291.797
291.808
291.813
291.813
291.809
291.797
291.774
291.742
291.699
291.645
291.581
291.508
291.426
291.337
291.244
291.148
291.052
290.959
290.871
290.79
290.717
290.655
290.602
290.559
290.524
290.497
290.477
290.464
290.456
290.453
290.453
290.454
290.458
290.464
290.473
290.485
290.502
290.525
290.557
290.598
290.651
290.717
290.794
290.883
290.98
291.085
291.195
291.304
291.409
291.507
291.594
291.672
291.738
291.796
291.846
291.892
291.936
291.982
292.03
292.079
292.128
292.171
292.201
292.214
292.214
292.206
292.182
292.142
292.087
292.023
291.955
291.889
291.829
291.776
291.732
291.695
291.666
291.646
291.634
291.629
291.629
291.631
291.636
291.645
291.656
291.67
291.687
291.705
291.724
291.744
291.765
291.786
291.807
291.828
291.848
291.866
291.881
291.892
291.901
291.906
291.908
291.907
291.905
291.901
291.894
291.888
291.881
291.876
291.873
291.872
291.872
291.875
291.882
291.894
291.912
291.935
291.961
291.991
292.023
292.057
292.093
292.131
292.17
292.209
292.25
292.29
292.329
292.368
292.407
292.444
292.482
292.519
292.555
292.591
292.625
292.659
292.691
292.722
292.753
292.782
292.811
292.839
292.866
292.893
292.919
292.944
292.969
292.993
293.016
293.038
293.06
293.081
293.101
293.121
293.139
293.157
293.174
293.191
293.207
293.222
293.237
293.251
293.264
293.277
293.289
293.302
293.313
293.324
293.335
293.345
293.356
293.366
293.375
293.384
293.393
293.402
293.411
293.42
293.428
293.434
293.437
293.435
293.433
288.112
288.143
288.187
288.227
288.252
288.257
288.243
288.217
288.185
288.148
288.11
288.072
288.035
288.001
287.968
287.94
287.915
287.897
287.89
287.893
287.908
287.931
287.964
288.006
288.052
288.089
288.104
288.09
288.048
287.965
287.852
287.736
287.648
287.593
287.559
287.555
287.607
287.682
287.754
287.798
287.808
287.764
287.683
287.57
287.438
287.301
287.182
287.104
287.066
287.049
287.09
287.222
287.477
287.901
288.484
289.089
289.501
289.686
289.699
289.654
289.642
289.749
290.131
290.822
291.577
292.004
292.031
291.819
291.394
290.87
290.325
289.832
289.435
289.146
288.949
288.818
288.731
288.673
288.637
288.614
288.607
288.615
288.63
288.657
288.692
288.738
288.789
288.844
288.899
288.95
288.996
289.037
289.073
289.104
289.129
289.146
289.156
289.159
289.155
289.146
289.133
289.12
289.107
289.099
289.099
289.101
289.107
289.121
289.146
289.179
289.221
289.268
289.319
289.374
289.432
289.496
289.57
289.657
289.766
289.909
290.104
290.365
290.697
291.086
291.495
291.882
292.197
292.421
292.576
292.642
292.632
292.576
292.464
292.325
292.2
292.122
292.102
292.109
292.134
292.179
292.235
292.284
292.312
292.313
292.292
292.224
292.089
291.87
291.567
291.193
290.79
290.424
290.17
290.064
290.064
290.111
290.226
290.378
290.513
290.598
290.637
290.641
290.631
290.601
290.553
290.499
290.451
290.421
290.412
290.414
290.427
290.454
290.497
290.551
290.611
290.668
290.713
290.741
290.753
290.754
290.748
290.727
290.692
290.645
290.589
290.525
290.454
290.373
290.283
290.189
290.095