/*--------------------------------*- C++ -*----------------------------------*\
| =========                 |                                                 |
| \\      /  F ield         | OpenFOAM: The Open Source CFD Toolbox           |
|  \\    /   O peration     | Version:  v1812                                 |
|   \\  /    A nd           | Web:      www.OpenFOAM.com                      |
|    \\/     M anipulation  |                                                 |
\*---------------------------------------------------------------------------*/
FoamFile
{
    version     2.0;
    format      ascii;
    class       volVectorField;
    location    "1.1";
    object      U;
}
// * * * * * * * * * * * * * * * * * * * * * * * * * * * * * * * * * * * * * //

dimensions      [0 1 -1 0 0 0 0];


internalField   nonuniform List<vector> 
20400
(
(0.00474067 0.005116 0)
(0.0284247 0.00151164 0)
(0.0832594 -0.00282269 0)
(0.162957 -0.00240668 0)
(0.26492 0.000716219 0)
(0.370089 0.00742074 0)
(0.472363 0.0146674 0)
(0.559988 0.0231028 0)
(0.630168 0.0306042 0)
(0.681503 0.0369776 0)
(0.714544 0.0390317 0)
(0.734433 0.0375376 0)
(0.741994 0.0285508 0)
(0.739916 0.0183172 0)
(0.732562 0.00470913 0)
(0.721424 -0.00512759 0)
(0.708993 -0.0116962 0)
(0.694115 -0.0145356 0)
(0.67777 -0.0160387 0)
(0.657307 -0.0162048 0)
(0.63067 -0.0193589 0)
(0.589508 -0.0252755 0)
(0.527525 -0.0234661 0)
(0.432448 -0.00101 0)
(0.344356 0.0587085 0)
(0.244432 0.0732554 0)
(0.0895339 0.0869198 0)
(-0.106494 0.0873223 0)
(-0.401567 0.0947607 0)
(-0.784969 0.10224 0)
(-1.29379 0.111508 0)
(-1.90811 0.116322 0)
(-2.65587 0.11873 0)
(-3.48241 0.118848 0)
(-4.40979 0.118014 0)
(-5.32495 0.121766 0)
(-6.24382 0.125348 0)
(-7.0408 0.123469 0)
(-7.71748 0.112065 0)
(-8.17091 0.0878157 0)
(-8.42698 0.0697052 0)
(-8.43548 0.035395 0)
(-8.13134 0.000761656 0)
(-7.68946 -0.0347826 0)
(-6.97443 -0.0777859 0)
(-6.09519 -0.137068 0)
(-5.07048 -0.233308 0)
(-3.91304 -0.332584 0)
(-2.76023 -0.49743 0)
(-1.69283 -0.539727 0)
(-0.684129 -0.497351 0)
(0.357414 -0.338425 0)
(1.34179 -0.237033 0)
(2.16387 -0.157146 0)
(2.7793 -0.105492 0)
(3.21814 -0.0481452 0)
(3.49115 -0.00259065 0)
(3.64892 0.0277078 0)
(3.73179 0.028225 0)
(3.79302 0.0104028 0)
(3.84375 -0.0274176 0)
(3.96676 -0.0602628 0)
(4.16705 -0.0848391 0)
(4.45433 -0.102109 0)
(4.771 -0.145507 0)
(5.08396 -0.266008 0)
(5.26621 -0.471553 0)
(5.15789 -0.609425 0)
(4.62731 -0.423059 0)
(4.15104 0.207563 0)
(3.59778 0.497237 0)
(2.60998 0.697577 0)
(1.49755 0.754457 0)
(0.211276 0.744114 0)
(-1.18691 0.718575 0)
(-2.78398 0.745041 0)
(-4.37588 0.766507 0)
(-5.96704 0.749543 0)
(-7.4291 0.709317 0)
(-8.78319 0.662013 0)
(-9.96947 0.692388 0)
(-10.873 0.797945 0)
(-11.5915 0.961243 0)
(-12.0504 1.13639 0)
(-12.3107 1.30118 0)
(-12.2935 1.49594 0)
(-11.9993 1.52493 0)
(-11.5862 1.49155 0)
(-10.9216 1.3945 0)
(-10.1054 1.20448 0)
(-9.14303 0.945531 0)
(-8.06336 0.614995 0)
(-6.93611 0.242694 0)
(-5.68861 -0.155305 0)
(-4.61493 -0.630895 0)
(-3.58053 -0.746698 0)
(-2.37438 -0.763042 0)
(-1.19893 -0.710963 0)
(-0.0202124 -0.563027 0)
(1.1842 -0.416274 0)
(2.36771 -0.324353 0)
(3.4724 -0.251795 0)
(4.46301 -0.196136 0)
(5.38885 -0.149123 0)
(6.15278 -0.110616 0)
(6.85047 -0.0728212 0)
(7.39412 -0.0377044 0)
(7.81861 -0.00548287 0)
(8.09712 0.0190285 0)
(8.24683 0.0362085 0)
(8.29524 0.0427705 0)
(8.25109 0.0500914 0)
(8.09384 0.0684155 0)
(7.83212 0.0840319 0)
(7.50103 0.0884315 0)
(7.11721 0.0899248 0)
(6.70072 0.0910101 0)
(6.26806 0.0900621 0)
(5.83184 0.0885535 0)
(5.40005 0.0878784 0)
(4.97693 0.0871745 0)
(4.56557 0.0864406 0)
(4.169 0.0859691 0)
(3.78889 0.0858772 0)
(3.42681 0.0862441 0)
(3.0814 0.0868303 0)
(2.75376 0.0875094 0)
(2.4422 0.0874354 0)
(2.14669 0.0871064 0)
(1.87216 0.0871732 0)
(1.61138 0.0876359 0)
(1.38089 0.0877842 0)
(1.16633 0.0867571 0)
(0.98263 0.0842583 0)
(0.82288 0.0788225 0)
(0.692265 0.0709253 0)
(0.588217 0.0598334 0)
(0.511718 0.0474356 0)
(0.462806 0.0332592 0)
(0.436851 0.01565 0)
(0.440046 0.00412031 0)
(0.469158 -0.00742608 0)
(0.516716 -0.0165194 0)
(0.583753 -0.023587 0)
(0.668569 -0.0296305 0)
(0.766193 -0.0348758 0)
(0.876762 -0.0402237 0)
(0.996879 -0.0449204 0)
(1.12443 -0.0487946 0)
(1.26443 -0.0534511 0)
(1.40283 -0.0586396 0)
(1.55578 -0.0671026 0)
(1.69713 -0.0618675 0)
(1.84862 -0.0628416 0)
(1.96589 -0.0636131 0)
(2.0679 -0.06179 0)
(2.11988 -0.0626374 0)
(2.12346 -0.0633078 0)
(2.02459 -0.060796 0)
(1.87527 -0.0502471 0)
(1.61402 -0.0279354 0)
(1.27669 0.0211741 0)
(0.869036 0.0789595 0)
(0.42986 0.129882 0)
(-0.027403 0.104077 0)
(-0.548586 0.0170347 0)
(-1.13485 -0.066319 0)
(-1.72869 -0.113595 0)
(-2.29696 -0.118732 0)
(-2.83328 -0.0747329 0)
(-3.24417 0.00350339 0)
(-3.56005 0.0775623 0)
(-3.70852 0.0663404 0)
(-3.76861 0.0244847 0)
(-3.73104 -0.0678027 0)
(-3.57702 -0.14816 0)
(-3.30313 -0.223537 0)
(-2.9195 -0.278154 0)
(-2.42346 -0.315969 0)
(-1.84972 -0.3379 0)
(-1.20425 -0.349205 0)
(-0.534619 -0.341461 0)
(0.157866 -0.285782 0)
(0.87793 -0.221624 0)
(1.58188 -0.163931 0)
(2.23856 -0.120141 0)
(2.82249 -0.0883637 0)
(3.32365 -0.0628988 0)
(3.7338 -0.0434568 0)
(4.04821 -0.0293321 0)
(4.27256 -0.0235003 0)
(4.40086 -0.0151531 0)
(4.46425 -0.0111684 0)
(4.45905 -0.00703194 0)
(4.40306 0.0148487 0)
(4.3145 0.0205143 0)
(4.18843 0.0261481 0)
(4.02808 0.0305106 0)
(3.84642 0.0353353 0)
(3.65121 0.0412853 0)
(3.44884 0.0474098 0)
(3.24564 0.0521139 0)
(3.04342 0.0558921 0)
(2.84511 0.0585189 0)
(2.65269 0.0602199 0)
(2.46762 0.061435 0)
(2.29099 0.0607995 0)
(2.1265 0.0588215 0)
(1.97724 0.0544257 0)
(1.84839 0.0477824 0)
(1.74277 0.0388097 0)
(1.66292 0.0292173 0)
(1.61231 0.0178618 0)
(1.58461 0.00733118 0)
(1.58558 -0.00165486 0)
(1.61294 -0.010587 0)
(1.65328 -0.0164486 0)
(1.70569 -0.0200564 0)
(1.7652 -0.0226864 0)
(1.82435 -0.0241484 0)
(1.88284 -0.0237786 0)
(1.93161 -0.0233377 0)
(1.9676 -0.0210287 0)
(1.99003 -0.0199031 0)
(1.98469 -0.0167599 0)
(1.95934 -0.0133015 0)
(1.89486 -0.0076527 0)
(1.81225 -0.00221475 0)
(1.68035 0.00706356 0)
(1.5274 0.0154133 0)
(1.32479 0.0303527 0)
(1.09311 0.0513776 0)
(0.816091 0.0904518 0)
(0.508648 0.142814 0)
(0.163662 0.207057 0)
(-0.180559 0.267878 0)
(-0.538192 0.294226 0)
(-0.909031 0.303617 0)
(-1.28653 0.301768 0)
(-1.63869 0.289915 0)
(-1.9785 0.269985 0)
(-2.27693 0.243 0)
(-2.53658 0.208572 0)
(-2.74939 0.164596 0)
(-2.89985 0.115284 0)
(-2.99967 0.0654313 0)
(-3.03351 0.0217684 0)
(-2.98762 -0.0288587 0)
(-2.88902 -0.0715288 0)
(-2.71537 -0.111532 0)
(-2.48497 -0.145604 0)
(-2.1909 -0.173799 0)
(-1.84246 -0.195724 0)
(-1.4467 -0.211753 0)
(-1.01065 -0.22332 0)
(-0.547377 -0.229887 0)
(-0.0708666 -0.218347 0)
(0.426293 -0.189701 0)
(0.936446 -0.160859 0)
(1.43559 -0.135716 0)
(1.91063 -0.115198 0)
(2.35002 -0.0987086 0)
(2.74785 -0.085307 0)
(3.09433 -0.0742489 0)
(3.3923 -0.064111 0)
(3.63134 -0.0553922 0)
(3.82102 -0.0456971 0)
(3.95663 -0.0357856 0)
(4.04003 -0.0242612 0)
(4.09138 -0.00792153 0)
(4.09492 0.00725941 0)
(4.0623 0.0137592 0)
(4.00284 0.0203434 0)
(3.91336 0.0286774 0)
(3.80427 0.0362791 0)
(3.68207 0.0419546 0)
(3.55048 0.0453883 0)
(3.41483 0.0468224 0)
(3.2786 0.0469672 0)
(3.14576 0.0466009 0)
(3.01924 0.0456162 0)
(2.90151 0.0439567 0)
(2.79435 0.0416445 0)
(2.69881 0.0387845 0)
(2.61531 0.0355165 0)
(2.54362 0.0320152 0)
(2.48294 0.028431 0)
(2.43204 0.0249114 0)
(2.38928 0.021455 0)
(2.35299 0.0181828 0)
(2.32122 0.0149658 0)
(2.29199 0.0122696 0)
(2.26399 0.0108003 0)
(2.23835 0.0101575 0)
(2.21579 0.00917601 0)
(2.19818 0.00830337 0)
(2.18687 0.00648964 0)
(2.18214 0.00499251 0)
(2.18587 0.00333584 0)
(2.19289 0.000758859 0)
(2.20438 -0.000846007 0)
(2.20808 -0.00281194 0)
(2.198 -0.00111271 0)
(2.16794 0.00287983 0)
(2.10564 0.00992242 0)
(2.00686 0.0192867 0)
(1.8632 0.0309611 0)
(1.68025 0.0433822 0)
(1.44965 0.0609069 0)
(1.19138 0.0836487 0)
(0.905617 0.110368 0)
(0.606476 0.143777 0)
(0.296148 0.176679 0)
(-0.00175271 0.215775 0)
(-0.289656 0.227084 0)
(-0.569494 0.222057 0)
(-0.828724 0.204479 0)
(-1.05875 0.180513 0)
(-1.25235 0.152757 0)
(-1.40722 0.117974 0)
(-1.51065 0.0845222 0)
(-1.57858 0.0501169 0)
(-1.59375 0.0211365 0)
(-1.55278 -0.0112697 0)
(-1.47826 -0.0383639 0)
(-1.35469 -0.0625026 0)
(-1.19464 -0.0828203 0)
(-0.997184 -0.0990045 0)
(-0.767542 -0.111324 0)
(-0.510036 -0.120045 0)
(-0.232243 -0.126333 0)
(0.0648851 -0.122524 0)
(0.384082 -0.113397 0)
(0.717473 -0.102629 0)
(1.05809 -0.0923242 0)
(1.39951 -0.0827912 0)
(1.73674 -0.0739606 0)
(2.06504 -0.0656948 0)
(2.38022 -0.0578834 0)
(2.67878 -0.0504821 0)
(2.95749 -0.043724 0)
(3.21407 -0.0378167 0)
(3.446 -0.0326959 0)
(3.65239 -0.0280327 0)
(3.83175 -0.024052 0)
(3.98372 -0.0203328 0)
(4.11013 -0.0171326 0)
(4.20854 -0.0139634 0)
(4.28657 -0.0109956 0)
(4.3362 -0.00801481 0)
(4.37026 -0.00456222 0)
(4.38184 0.00117819 0)
(4.37407 0.00606876 0)
(4.35302 0.00963565 0)
(4.31269 0.0131 0)
(4.25975 0.016399 0)
(4.19394 0.0199456 0)
(4.11969 0.0231316 0)
(4.03833 0.025828 0)
(3.95185 0.0278863 0)
(3.86222 0.0294025 0)
(3.7711 0.0302851 0)
(3.68004 0.030375 0)
(3.5903 0.02962 0)
(3.50316 0.0285087 0)
(3.41984 0.0272206 0)
(3.34128 0.0258008 0)
(3.26799 0.0243111 0)
(3.20024 0.0228287 0)
(3.13782 0.0214198 0)
(3.08046 0.0201522 0)
(3.0274 0.0190782 0)
(2.97812 0.0182753 0)
(2.93151 0.01805 0)
(2.88717 0.0181119 0)
(2.84333 0.0181334 0)
(2.7993 0.0180049 0)
(2.75333 0.0182097 0)
(2.70465 0.018595 0)
(2.65262 0.0198576 0)
(2.59602 0.021413 0)
(2.53523 0.0235607 0)
(2.46932 0.0260539 0)
(2.3988 0.0284775 0)
(2.32388 0.0308098 0)
(2.24511 0.0327477 0)
(2.16307 0.0343777 0)
(2.07893 0.035877 0)
(1.99396 0.0370324 0)
(1.90948 0.0378136 0)
(1.82684 0.0381433 0)
(1.74728 0.0379522 0)
(1.67243 0.0372055 0)
(1.60331 0.0360115 0)
(1.54132 0.0340724 0)
(1.488 0.0321306 0)
(1.44317 0.0287115 0)
(1.4102 0.0249543 0)
(1.38802 0.0208333 0)
(1.37628 0.0171799 0)
(1.37779 0.013037 0)
(1.39194 0.00857178 0)
(1.41773 0.00418842 0)
(1.45463 0.000416802 0)
(1.50292 -0.0030277 0)
(1.56064 -0.00600884 0)
(1.6273 -0.00852951 0)
(1.7014 -0.0105529 0)
(1.78162 -0.0120552 0)
(1.86657 -0.0130345 0)
(1.9548 -0.0135286 0)
(2.04495 -0.0137308 0)
(2.13556 -0.0140559 0)
(2.22534 -0.013945 0)
(2.31331 -0.0133433 0)
(2.39858 -0.0123178 0)
(2.48038 -0.0110456 0)
(2.55808 -0.00974817 0)
(2.63127 -0.00846916 0)
(2.69964 -0.00723172 0)
(2.76302 -0.00603876 0)
(2.82138 -0.00485423 0)
(2.87479 -0.0036493 0)
(2.92339 -0.00246739 0)
(2.96735 -0.00136873 0)
(3.0069 -0.00041255 0)
(3.0423 0.000437002 0)
(3.07386 0.00123533 0)
(3.10192 0.00201187 0)
(3.12679 0.00270724 0)
(3.14873 0.0032798 0)
(3.16801 0.00374672 0)
(3.18485 0.00417144 0)
(3.19949 0.00456374 0)
(3.21215 0.00491768 0)
(3.22306 0.00522682 0)
(3.23237 0.00549355 0)
(3.24028 0.00572082 0)
(3.24692 0.00590846 0)
(3.25245 0.00607448 0)
(3.25701 0.00618667 0)
(3.2607 0.00631074 0)
(3.26364 0.00636104 0)
(3.26596 0.00638563 0)
(3.26768 0.00644332 0)
(3.26892 0.00640746 0)
(3.26986 0.0063887 0)
(3.27061 0.00631397 0)
(3.27118 0.00629805 0)
(3.27155 0.00619218 0)
(3.27184 0.00607649 0)
(3.27208 0.00595693 0)
(3.27234 0.00582864 0)
(3.27263 0.00569434 0)
(3.27298 0.00554598 0)
(3.27344 0.0054035 0)
(3.27401 0.00526725 0)
(3.27468 0.00513041 0)
(3.27549 0.00498638 0)
(3.27641 0.00484013 0)
(3.27746 0.00469539 0)
(3.27861 0.00455296 0)
(3.27986 0.00441408 0)
(3.2812 0.0042771 0)
(3.28262 0.00414362 0)
(3.28409 0.00401251 0)
(3.2856 0.00388446 0)
(3.28714 0.00375972 0)
(3.28868 0.00363804 0)
(3.29021 0.00351991 0)
(3.29171 0.00340495 0)
(3.29316 0.00329373 0)
(3.29456 0.00318467 0)
(3.29587 0.00308129 0)
(3.2971 0.00297547 0)
(3.29821 0.0028821 0)
(3.29924 0.00277451 0)
(3.30011 0.00269527 0)
(3.30087 0.00258122 0)
(3.30147 0.00251223 0)
(3.3019 0.0024167 0)
(3.30222 0.00233178 0)
(3.30235 0.00225545 0)
(3.30229 0.00218259 0)
(3.3021 0.00207652 0)
(3.30169 0.00199465 0)
(3.30109 0.00189744 0)
(3.30039 0.00186811 0)
(3.29946 0.00174954 0)
(3.29842 0.00170845 0)
(3.29716 0.00160528 0)
(3.29581 0.00151867 0)
(3.29412 0.00138438 0)
(3.29283 0.0013312 0)
(3.29034 0.00111231 0)
(3.28991 0.0010332 0)
(3.28536 0.000748808 0)
(3.28918 0.00122351 0)
(3.27218 6.68657e-05 0)
(3.31032 -0.000768307 0)
(0.0167174 -0.0123984 0)
(0.0995528 -0.0669363 0)
(0.240689 -0.118922 0)
(0.428572 -0.154287 0)
(0.644274 -0.169302 0)
(0.867929 -0.163953 0)
(1.08368 -0.147061 0)
(1.27685 -0.122015 0)
(1.43809 -0.0956697 0)
(1.56084 -0.0699755 0)
(1.64472 -0.0465337 0)
(1.69218 -0.0245951 0)
(1.7127 -0.00194269 0)
(1.71044 0.0147659 0)
(1.69604 0.0360589 0)
(1.67334 0.0455134 0)
(1.63597 0.054198 0)
(1.57884 0.058146 0)
(1.49676 0.0631785 0)
(1.38574 0.0695327 0)
(1.23939 0.0858873 0)
(1.05298 0.118672 0)
(0.821949 0.172767 0)
(0.553301 0.243185 0)
(0.18902 0.322674 0)
(-0.296984 0.387617 0)
(-0.886194 0.481962 0)
(-1.61471 0.562822 0)
(-2.45529 0.702588 0)
(-3.43928 0.860105 0)
(-4.56275 1.02581 0)
(-5.80173 1.18311 0)
(-7.10729 1.30918 0)
(-8.40517 1.40379 0)
(-9.63386 1.41316 0)
(-10.7196 1.37008 0)
(-11.6221 1.23116 0)
(-12.2831 1.02692 0)
(-12.7025 0.786917 0)
(-12.8238 0.47676 0)
(-12.5939 0.143812 0)
(-12.1323 -0.129003 0)
(-11.3806 -0.482042 0)
(-10.4258 -0.793491 0)
(-9.21628 -1.11308 0)
(-7.8295 -1.403 0)
(-6.25006 -1.67536 0)
(-4.57067 -1.88847 0)
(-2.7498 -2.09283 0)
(-0.818706 -2.15163 0)
(1.08361 -2.01186 0)
(2.81186 -1.71277 0)
(4.36583 -1.37058 0)
(5.77117 -1.01318 0)
(6.98295 -0.717351 0)
(7.9479 -0.469178 0)
(8.60091 -0.298504 0)
(8.97353 -0.16509 0)
(9.10286 -0.113594 0)
(9.10864 -0.0723745 0)
(9.05925 -0.0901431 0)
(9.01511 -0.199407 0)
(8.96701 -0.321082 0)
(8.87296 -0.389685 0)
(8.62101 -0.405541 0)
(8.11508 -0.264243 0)
(7.41232 0.0549152 0)
(6.57947 0.585708 0)
(5.56967 1.16669 0)
(4.00712 1.74266 0)
(1.7593 2.11144 0)
(-0.629583 2.48099 0)
(-3.25443 2.61043 0)
(-5.94309 2.59045 0)
(-8.53569 2.42842 0)
(-10.838 2.23296 0)
(-12.8019 2.01827 0)
(-14.4158 1.79294 0)
(-15.6614 1.58556 0)
(-16.5708 1.37624 0)
(-17.1222 1.12769 0)
(-17.408 0.855306 0)
(-17.3998 0.570516 0)
(-17.2778 0.292173 0)
(-16.9105 -0.0127279 0)
(-16.3483 -0.308562 0)
(-15.5849 -0.602797 0)
(-14.6697 -0.858777 0)
(-13.5921 -1.10755 0)
(-12.3809 -1.34411 0)
(-10.9945 -1.56369 0)
(-9.47638 -1.77146 0)
(-7.81033 -1.96724 0)
(-6.11853 -2.13896 0)
(-4.20043 -2.34015 0)
(-2.13999 -2.48336 0)
(-0.211809 -2.50888 0)
(1.71451 -2.43047 0)
(3.58386 -2.28851 0)
(5.33685 -2.07346 0)
(7.00016 -1.82326 0)
(8.6201 -1.60787 0)
(10.1561 -1.42571 0)
(11.6389 -1.24177 0)
(12.9892 -1.06593 0)
(14.2674 -0.889507 0)
(15.4123 -0.701919 0)
(16.4336 -0.502431 0)
(17.3064 -0.306889 0)
(18.0258 -0.119345 0)
(18.597 -0.00188377 0)
(18.9614 0.145423 0)
(19.0949 0.334281 0)
(19.0113 0.479306 0)
(18.7477 0.575808 0)
(18.3024 0.663195 0)
(17.6821 0.717056 0)
(16.9183 0.749216 0)
(16.0409 0.762677 0)
(15.0832 0.763376 0)
(14.082 0.756499 0)
(13.0735 0.742075 0)
(12.0877 0.720372 0)
(11.1455 0.693589 0)
(10.2604 0.664715 0)
(9.43809 0.635559 0)
(8.68112 0.607531 0)
(7.98879 0.580558 0)
(7.35874 0.553595 0)
(6.79429 0.522627 0)
(6.28593 0.486869 0)
(5.84576 0.445849 0)
(5.46071 0.398553 0)
(5.13904 0.346305 0)
(4.87541 0.292514 0)
(4.67128 0.239541 0)
(4.52159 0.186792 0)
(4.4244 0.135869 0)
(4.37133 0.0861745 0)
(4.36473 0.0424839 0)
(4.40037 -0.000178842 0)
(4.46509 -0.0457956 0)
(4.55929 -0.0852851 0)
(4.67682 -0.118405 0)
(4.81354 -0.14535 0)
(4.96178 -0.164882 0)
(5.11489 -0.177201 0)
(5.26578 -0.187128 0)
(5.40116 -0.195943 0)
(5.52678 -0.202801 0)
(5.61157 -0.198678 0)
(5.67902 -0.195371 0)
(5.69198 -0.190289 0)
(5.64991 -0.165723 0)
(5.53492 -0.120802 0)
(5.34356 -0.0497083 0)
(5.04125 0.0368967 0)
(4.66293 0.149416 0)
(4.15974 0.287984 0)
(3.58753 0.444529 0)
(2.92235 0.603096 0)
(2.19768 0.759751 0)
(1.42173 0.894423 0)
(0.599935 1.00259 0)
(-0.241959 1.06131 0)
(-1.00518 1.06064 0)
(-1.68119 1.01559 0)
(-2.27011 0.926996 0)
(-2.74538 0.80559 0)
(-3.12097 0.666241 0)
(-3.36531 0.504145 0)
(-3.54021 0.358046 0)
(-3.64329 0.204202 0)
(-3.49018 -0.0151584 0)
(-3.15896 -0.249824 0)
(-2.62284 -0.475452 0)
(-1.94587 -0.705463 0)
(-1.11434 -0.914419 0)
(-0.153944 -1.10138 0)
(0.922379 -1.24499 0)
(2.08804 -1.31601 0)
(3.3335 -1.33799 0)
(4.61693 -1.30251 0)
(5.88357 -1.22439 0)
(7.12458 -1.11718 0)
(8.32645 -0.99024 0)
(9.4667 -0.848674 0)
(10.5178 -0.699551 0)
(11.4551 -0.551485 0)
(12.2467 -0.395621 0)
(12.8778 -0.247125 0)
(13.3292 -0.100733 0)
(13.5963 0.0150995 0)
(13.7296 0.103341 0)
(13.7091 0.169708 0)
(13.5771 0.230208 0)
(13.3356 0.300552 0)
(12.9901 0.357945 0)
(12.5709 0.393844 0)
(12.1021 0.413589 0)
(11.5971 0.420105 0)
(11.0731 0.41908 0)
(10.548 0.413533 0)
(10.0348 0.403798 0)
(9.54526 0.39024 0)
(9.08802 0.374475 0)
(8.66712 0.354716 0)
(8.28949 0.327982 0)
(7.96089 0.29376 0)
(7.68553 0.253325 0)
(7.46469 0.207094 0)
(7.29478 0.159311 0)
(7.17214 0.109534 0)
(7.08651 0.0616601 0)
(7.03214 0.0216144 0)
(6.99903 -0.0128871 0)
(6.97206 -0.0361736 0)
(6.93912 -0.0482097 0)
(6.89175 -0.0517716 0)
(6.82161 -0.0477373 0)
(6.72323 -0.0346665 0)
(6.59139 -0.0150734 0)
(6.42157 0.0159039 0)
(6.21421 0.0522243 0)
(5.961 0.0954376 0)
(5.66864 0.144909 0)
(5.32462 0.199818 0)
(4.9414 0.255846 0)
(4.50866 0.318338 0)
(4.04153 0.380635 0)
(3.53293 0.452016 0)
(3.00102 0.5244 0)
(2.44789 0.594946 0)
(1.88813 0.661788 0)
(1.33485 0.730997 0)
(0.778446 0.793121 0)
(0.233325 0.817038 0)
(-0.258594 0.81468 0)
(-0.71978 0.791646 0)
(-1.11642 0.745384 0)
(-1.45638 0.676157 0)
(-1.71979 0.588727 0)
(-1.90557 0.483796 0)
(-2.00184 0.365187 0)
(-1.98862 0.241314 0)
(-1.87253 0.108611 0)
(-1.66306 -0.0137975 0)
(-1.36191 -0.147905 0)
(-0.969741 -0.274004 0)
(-0.488003 -0.402103 0)
(0.0769602 -0.523749 0)
(0.722464 -0.639084 0)
(1.44084 -0.743777 0)
(2.22607 -0.832729 0)
(3.06778 -0.89272 0)
(3.95753 -0.922348 0)
(4.886 -0.926396 0)
(5.82244 -0.901391 0)
(6.74808 -0.858584 0)
(7.65843 -0.801494 0)
(8.53835 -0.732407 0)
(9.37103 -0.653448 0)
(10.1417 -0.566961 0)
(10.8335 -0.475716 0)
(11.4366 -0.381324 0)
(11.9371 -0.288059 0)
(12.3325 -0.196615 0)
(12.6184 -0.110253 0)
(12.7948 -0.0347501 0)
(12.8833 0.031499 0)
(12.8703 0.0731092 0)
(12.7759 0.133679 0)
(12.617 0.192905 0)
(12.404 0.232409 0)
(12.1483 0.256968 0)
(11.8632 0.273637 0)
(11.5627 0.283814 0)
(11.2593 0.287796 0)
(10.962 0.28553 0)
(10.6781 0.27676 0)
(10.4132 0.262803 0)
(10.1713 0.245053 0)
(9.95485 0.224918 0)
(9.76456 0.203747 0)
(9.59975 0.182788 0)
(9.45832 0.163163 0)
(9.33709 0.145771 0)
(9.23187 0.131427 0)
(9.13776 0.120472 0)
(9.04945 0.113107 0)
(8.96153 0.109981 0)
(8.86951 0.110405 0)
(8.76927 0.10919 0)
(8.65702 0.10512 0)
(8.53043 0.0972551 0)
(8.38856 0.0872567 0)
(8.23254 0.0735616 0)
(8.06279 0.0595147 0)
(7.88038 0.0475147 0)
(7.6832 0.0421325 0)
(7.47017 0.0494127 0)
(7.23524 0.0661513 0)
(6.9705 0.100299 0)
(6.66688 0.147797 0)
(6.31554 0.208336 0)
(5.91358 0.278953 0)
(5.46041 0.35352 0)
(4.96893 0.431062 0)
(4.44438 0.502564 0)
(3.91191 0.554345 0)
(3.37845 0.591486 0)
(2.86027 0.626566 0)
(2.37554 0.645711 0)
(1.92544 0.644187 0)
(1.53071 0.620935 0)
(1.20551 0.576905 0)
(0.948948 0.516364 0)
(0.763246 0.444275 0)
(0.644432 0.360234 0)
(0.600451 0.271488 0)
(0.639718 0.180882 0)
(0.744882 0.0857726 0)
(0.920065 -0.00131902 0)
(1.15881 -0.0960611 0)
(1.45958 -0.18384 0)
(1.82033 -0.268669 0)
(2.23519 -0.348132 0)
(2.70066 -0.421333 0)
(3.21191 -0.48659 0)
(3.76293 -0.538223 0)
(4.35125 -0.571743 0)
(4.96685 -0.588603 0)
(5.59781 -0.594334 0)
(6.24062 -0.591265 0)
(6.89094 -0.581216 0)
(7.54283 -0.564945 0)
(8.18953 -0.542921 0)
(8.82414 -0.515674 0)
(9.43997 -0.483956 0)
(10.0307 -0.448431 0)
(10.5903 -0.40937 0)
(11.1134 -0.367033 0)
(11.595 -0.322403 0)
(12.0312 -0.275899 0)
(12.4185 -0.228589 0)
(12.7536 -0.181417 0)
(13.0358 -0.135956 0)
(13.2614 -0.0923423 0)
(13.4353 -0.0509884 0)
(13.5517 -0.0118042 0)
(13.6236 0.0235369 0)
(13.6469 0.0557119 0)
(13.6253 0.0790947 0)
(13.5631 0.108714 0)
(13.4594 0.137798 0)
(13.3236 0.160642 0)
(13.1592 0.177486 0)
(12.9712 0.189867 0)
(12.7647 0.199435 0)
(12.5449 0.205845 0)
(12.317 0.209165 0)
(12.0846 0.209796 0)
(11.8512 0.208406 0)
(11.6201 0.205427 0)
(11.394 0.200229 0)
(11.1748 0.192926 0)
(10.9638 0.184214 0)
(10.7616 0.17475 0)
(10.568 0.165178 0)
(10.3825 0.15602 0)
(10.2042 0.147694 0)
(10.0319 0.140538 0)
(9.86454 0.134656 0)
(9.70049 0.129866 0)
(9.53849 0.126243 0)
(9.37709 0.125743 0)
(9.21589 0.1272 0)
(9.05433 0.132001 0)
(8.89168 0.137131 0)
(8.72747 0.144016 0)
(8.56114 0.151031 0)
(8.39329 0.158028 0)
(8.22445 0.165367 0)
(8.0555 0.171834 0)
(7.88773 0.177794 0)
(7.72302 0.183265 0)
(7.56327 0.187655 0)
(7.41012 0.189632 0)
(7.26534 0.18935 0)
(7.13092 0.186829 0)
(7.00885 0.182016 0)
(6.90066 0.174813 0)
(6.80845 0.165243 0)
(6.73282 0.15342 0)
(6.676 0.13911 0)
(6.63765 0.123262 0)
(6.61761 0.103841 0)
(6.62051 0.085087 0)
(6.64376 0.0639943 0)
(6.68613 0.0426977 0)
(6.74839 0.0209234 0)
(6.82996 -0.000914324 0)
(6.92896 -0.0224649 0)
(7.04438 -0.0422093 0)
(7.17496 -0.060605 0)
(7.31865 -0.0769472 0)
(7.47352 -0.0910989 0)
(7.63726 -0.102813 0)
(7.80752 -0.111958 0)
(7.98195 -0.118614 0)
(8.15822 -0.122855 0)
(8.33407 -0.124512 0)
(8.50753 -0.122985 0)
(8.67682 -0.119703 0)
(8.84027 -0.115332 0)
(8.99664 -0.109847 0)
(9.14498 -0.103393 0)
(9.28451 -0.09605 0)
(9.41472 -0.0880641 0)
(9.53538 -0.0796826 0)
(9.64647 -0.0711406 0)
(9.74813 -0.0627043 0)
(9.84054 -0.0545968 0)
(9.92396 -0.0468627 0)
(9.99879 -0.0395114 0)
(10.0656 -0.0325024 0)
(10.125 -0.0259601 0)
(10.1776 -0.0200339 0)
(10.2238 -0.0147658 0)
(10.2641 -0.00999527 0)
(10.299 -0.00564582 0)
(10.3291 -0.00165041 0)
(10.355 0.00197002 0)
(10.3771 0.00516273 0)
(10.3958 0.00794731 0)
(10.4114 0.0103883 0)
(10.4243 0.0125306 0)
(10.4349 0.0143929 0)
(10.4434 0.0160124 0)
(10.4501 0.0173841 0)
(10.4553 0.0185406 0)
(10.4591 0.0194765 0)
(10.4618 0.0202405 0)
(10.4636 0.0208196 0)
(10.4648 0.0212605 0)
(10.4651 0.0215654 0)
(10.465 0.0217118 0)
(10.4649 0.0215889 0)
(10.4647 0.0214834 0)
(10.4641 0.0213093 0)
(10.4638 0.0210868 0)
(10.4634 0.0206419 0)
(10.4632 0.0202222 0)
(10.4632 0.0197166 0)
(10.4634 0.019184 0)
(10.4639 0.0186095 0)
(10.4647 0.0180119 0)
(10.4658 0.0173731 0)
(10.4671 0.0167454 0)
(10.4687 0.0161246 0)
(10.4706 0.0155095 0)
(10.4728 0.0149018 0)
(10.4751 0.0143134 0)
(10.4776 0.0137447 0)
(10.4803 0.0131991 0)
(10.4831 0.0126818 0)
(10.486 0.0121912 0)
(10.489 0.0117308 0)
(10.492 0.0112977 0)
(10.495 0.0108939 0)
(10.498 0.0105157 0)
(10.5009 0.0101643 0)
(10.5038 0.00983805 0)
(10.5065 0.00952807 0)
(10.5092 0.00924799 0)
(10.5116 0.00897604 0)
(10.514 0.00872588 0)
(10.5161 0.00850835 0)
(10.5182 0.00824937 0)
(10.5199 0.00810626 0)
(10.5214 0.0077855 0)
(10.5228 0.0077137 0)
(10.5238 0.00736204 0)
(10.5248 0.00732817 0)
(10.5253 0.00708112 0)
(10.5256 0.00708241 0)
(10.5257 0.00674697 0)
(10.5255 0.00656188 0)
(10.525 0.00644285 0)
(10.5244 0.00618648 0)
(10.5235 0.00601138 0)
(10.5223 0.00586751 0)
(10.5208 0.00551865 0)
(10.5192 0.00552013 0)
(10.5173 0.00475942 0)
(10.5151 0.004872 0)
(10.5124 0.00369635 0)
(10.5117 0.0033084 0)
(10.5019 -0.000960458 0)
(10.5272 -0.00147522 0)
(0.0208363 -0.0602788 0)
(0.143564 -0.196467 0)
(0.340186 -0.310556 0)
(0.585176 -0.387141 0)
(0.857325 -0.418304 0)
(1.13144 -0.404975 0)
(1.39057 -0.359253 0)
(1.62373 -0.289555 0)
(1.82384 -0.209666 0)
(1.99126 -0.129799 0)
(2.12342 -0.0588062 0)
(2.22686 -0.00383172 0)
(2.2901 0.0336349 0)
(2.32306 0.0532431 0)
(2.31535 0.0624988 0)
(2.27078 0.0748207 0)
(2.20416 0.100587 0)
(2.109 0.137228 0)
(1.98882 0.184382 0)
(1.82598 0.243514 0)
(1.61071 0.325817 0)
(1.32798 0.438163 0)
(0.958315 0.576007 0)
(0.473928 0.727205 0)
(-0.132214 0.87528 0)
(-0.862788 1.07059 0)
(-1.74037 1.29019 0)
(-2.77485 1.5555 0)
(-3.97202 1.82019 0)
(-5.29645 2.10763 0)
(-6.71324 2.38698 0)
(-8.17175 2.61374 0)
(-9.60061 2.72327 0)
(-10.9613 2.73215 0)
(-12.1501 2.5754 0)
(-13.1968 2.34704 0)
(-13.9529 1.96284 0)
(-14.5003 1.48337 0)
(-14.7656 0.895052 0)
(-14.7492 0.264735 0)
(-14.4738 -0.415557 0)
(-13.9165 -1.081 0)
(-13.0921 -1.74086 0)
(-12.0149 -2.36341 0)
(-10.6869 -2.92964 0)
(-9.14179 -3.41759 0)
(-7.39853 -3.78729 0)
(-5.48509 -4.04256 0)
(-3.4592 -4.09204 0)
(-1.33495 -4.07597 0)
(0.851964 -3.97212 0)
(3.00028 -3.74353 0)
(5.02292 -3.32244 0)
(6.82356 -2.76692 0)
(8.3787 -2.13137 0)
(9.63415 -1.46166 0)
(10.668 -0.850567 0)
(11.4085 -0.336845 0)
(11.9184 -0.0339886 0)
(12.1147 0.0219258 0)
(12.0011 0.0577957 0)
(11.7024 -0.0200119 0)
(11.2233 -0.0995566 0)
(10.5893 -0.0398961 0)
(9.85916 0.281684 0)
(8.98242 0.865707 0)
(7.70356 1.62861 0)
(5.81443 2.49139 0)
(3.42561 3.26655 0)
(0.638085 3.81634 0)
(-2.30876 4.36634 0)
(-5.21907 4.66252 0)
(-7.91294 4.79609 0)
(-10.2274 4.7552 0)
(-12.0903 4.58358 0)
(-13.5392 4.23126 0)
(-14.6681 3.78043 0)
(-15.5522 3.26981 0)
(-16.1986 2.74139 0)
(-16.6619 2.2014 0)
(-17.0394 1.67774 0)
(-17.1663 1.0414 0)
(-17.0781 0.2322 0)
(-16.5249 -0.520395 0)
(-15.8481 -1.23148 0)
(-14.9858 -1.84866 0)
(-13.9626 -2.39391 0)
(-12.773 -2.87819 0)
(-11.4173 -3.3122 0)
(-9.91825 -3.6686 0)
(-8.30671 -3.94241 0)
(-6.5963 -4.1368 0)
(-4.7941 -4.23376 0)
(-2.91548 -4.22103 0)
(-0.98249 -4.02319 0)
(0.924632 -3.88756 0)
(2.80423 -3.81701 0)
(4.67905 -3.75128 0)
(6.51761 -3.67879 0)
(8.31916 -3.63139 0)
(10.0922 -3.55988 0)
(11.824 -3.40268 0)
(13.472 -3.20149 0)
(15.0704 -2.96006 0)
(16.5538 -2.68285 0)
(17.9779 -2.39611 0)
(19.2923 -2.07438 0)
(20.5074 -1.72729 0)
(21.6116 -1.36844 0)
(22.6102 -1.03413 0)
(23.4812 -0.684666 0)
(24.1643 -0.23324 0)
(24.7375 0.169643 0)
(25.1634 0.500662 0)
(25.3931 0.837013 0)
(25.3847 1.16635 0)
(25.145 1.43625 0)
(24.6968 1.66131 0)
(24.0408 1.84116 0)
(23.1936 1.96923 0)
(22.1832 2.0354 0)
(21.0462 2.03959 0)
(19.8261 1.99362 0)
(18.5696 1.91085 0)
(17.3226 1.8041 0)
(16.123 1.68363 0)
(14.9991 1.55679 0)
(13.9685 1.42648 0)
(13.039 1.29473 0)
(12.2149 1.16471 0)
(11.4873 1.03502 0)
(10.8627 0.908496 0)
(10.3223 0.784614 0)
(9.87145 0.660827 0)
(9.50036 0.539925 0)
(9.20255 0.421693 0)
(8.96841 0.309864 0)
(8.79299 0.205563 0)
(8.67027 0.108484 0)
(8.59403 0.0242019 0)
(8.56188 -0.0503532 0)
(8.56729 -0.113808 0)
(8.60325 -0.167695 0)
(8.66364 -0.213077 0)
(8.74545 -0.24692 0)
(8.84074 -0.269772 0)
(8.94009 -0.279406 0)
(9.03636 -0.273079 0)
(9.11411 -0.254556 0)
(9.17628 -0.221799 0)
(9.18838 -0.177971 0)
(9.14164 -0.112768 0)
(9.01639 -0.0411373 0)
(8.79776 0.0796151 0)
(8.46177 0.23119 0)
(8.01911 0.413907 0)
(7.444 0.620087 0)
(6.7853 0.858364 0)
(6.02177 1.09968 0)
(5.20738 1.32985 0)
(4.34386 1.52972 0)
(3.4697 1.68947 0)
(2.59428 1.79895 0)
(1.73702 1.85731 0)
(0.907103 1.88942 0)
(0.135895 1.8796 0)
(-0.55251 1.8019 0)
(-1.15051 1.66195 0)
(-1.62081 1.4384 0)
(-2.01365 1.15089 0)
(-2.19524 0.777841 0)
(-2.2337 0.325297 0)
(-2.04903 -0.11008 0)
(-1.73772 -0.495167 0)
(-1.29202 -0.814887 0)
(-0.699886 -1.12654 0)
(0.0380237 -1.41079 0)
(0.920804 -1.67165 0)
(1.93547 -1.89929 0)
(3.06541 -2.08951 0)
(4.29877 -2.24989 0)
(5.61541 -2.35725 0)
(6.98889 -2.41694 0)
(8.3964 -2.41226 0)
(9.81224 -2.34168 0)
(11.2139 -2.20937 0)
(12.5804 -2.02287 0)
(13.8924 -1.78798 0)
(15.1307 -1.51025 0)
(16.2798 -1.20488 0)
(17.3215 -0.87524 0)
(18.2459 -0.552255 0)
(19.0301 -0.244963 0)
(19.6825 -0.00612912 0)
(20.1518 0.183632 0)
(20.4286 0.393468 0)
(20.5087 0.60573 0)
(20.4249 0.770957 0)
(20.2232 0.890347 0)
(19.9103 0.978841 0)
(19.4829 1.04831 0)
(18.9542 1.08386 0)
(18.3504 1.08762 0)
(17.6867 1.06547 0)
(16.9781 1.01783 0)
(16.249 0.957849 0)
(15.5254 0.88329 0)
(14.8345 0.791962 0)
(14.1957 0.685306 0)
(13.6229 0.570011 0)
(13.1271 0.454985 0)
(12.713 0.348312 0)
(12.3791 0.255367 0)
(12.1182 0.178957 0)
(11.9195 0.120759 0)
(11.7658 0.0848164 0)
(11.6365 0.0740813 0)
(11.5085 0.0872485 0)
(11.3572 0.118627 0)
(11.1623 0.164001 0)
(10.9153 0.222026 0)
(10.6133 0.290609 0)
(10.2553 0.366291 0)
(9.84402 0.449009 0)
(9.37744 0.537422 0)
(8.86857 0.633315 0)
(8.309 0.732717 0)
(7.71804 0.835851 0)
(7.09212 0.939711 0)
(6.44819 1.03607 0)
(5.78356 1.12393 0)
(5.11233 1.19227 0)
(4.43896 1.24303 0)
(3.77666 1.26326 0)
(3.13813 1.23994 0)
(2.53928 1.1813 0)
(1.97674 1.13204 0)
(1.47484 1.05897 0)
(1.02748 0.962157 0)
(0.66075 0.839056 0)
(0.374359 0.690843 0)
(0.173315 0.525142 0)
(0.0613427 0.346023 0)
(0.0479993 0.163529 0)
(0.135458 -0.0179796 0)
(0.31162 -0.202632 0)
(0.583107 -0.38404 0)
(0.94845 -0.560637 0)
(1.40669 -0.730025 0)
(1.9563 -0.892133 0)
(2.59378 -1.044 0)
(3.31534 -1.18435 0)
(4.11627 -1.31131 0)
(4.98963 -1.42281 0)
(5.93023 -1.52163 0)
(6.93016 -1.60242 0)
(7.97901 -1.6598 0)
(9.06363 -1.69146 0)
(10.1689 -1.68804 0)
(11.2803 -1.64797 0)
(12.3823 -1.57206 0)
(13.459 -1.46336 0)
(14.4953 -1.32572 0)
(15.4753 -1.16434 0)
(16.3849 -0.982267 0)
(17.209 -0.78876 0)
(17.9343 -0.583894 0)
(18.551 -0.386534 0)
(19.0428 -0.185329 0)
(19.4075 -0.00600158 0)
(19.6304 0.1452 0)
(19.7009 0.299737 0)
(19.6461 0.423239 0)
(19.4972 0.519499 0)
(19.2637 0.599578 0)
(18.9617 0.651406 0)
(18.6066 0.673421 0)
(18.2118 0.67284 0)
(17.7957 0.655462 0)
(17.3756 0.624715 0)
(16.9641 0.583401 0)
(16.5721 0.534833 0)
(16.2073 0.482372 0)
(15.8749 0.429256 0)
(15.5777 0.378505 0)
(15.3163 0.332664 0)
(15.0895 0.293858 0)
(14.8944 0.263768 0)
(14.7265 0.243457 0)
(14.58 0.233497 0)
(14.4483 0.233026 0)
(14.324 0.240688 0)
(14.1983 0.256864 0)
(14.0604 0.279948 0)
(13.8986 0.306216 0)
(13.7025 0.332881 0)
(13.4642 0.35728 0)
(13.1796 0.381039 0)
(12.8484 0.404999 0)
(12.4727 0.431575 0)
(12.0564 0.464879 0)
(11.6003 0.51281 0)
(11.1038 0.582244 0)
(10.5645 0.674771 0)
(9.98252 0.785773 0)
(9.35893 0.904562 0)
(8.70591 1.0167 0)
(8.03249 1.10703 0)
(7.35493 1.16316 0)
(6.69258 1.1905 0)
(6.06294 1.18552 0)
(5.4805 1.13923 0)
(4.96504 1.05743 0)
(4.51429 0.942035 0)
(4.1383 0.818395 0)
(3.83743 0.690721 0)
(3.61471 0.555095 0)
(3.46848 0.415225 0)
(3.39748 0.269751 0)
(3.40732 0.129905 0)
(3.49467 -0.0104476 0)
(3.64998 -0.148617 0)
(3.87717 -0.28082 0)
(4.1725 -0.405413 0)
(4.53294 -0.521211 0)
(4.95566 -0.628214 0)
(5.43641 -0.725265 0)
(5.97043 -0.811935 0)
(6.55315 -0.888907 0)
(7.17935 -0.957878 0)
(7.84551 -1.02098 0)
(8.54692 -1.07714 0)