/*--------------------------------*- C++ -*----------------------------------*\
| =========                 |                                                 |
| \\      /  F ield         | OpenFOAM: The Open Source CFD Toolbox           |
|  \\    /   O peration     | Version:  v1812                                 |
|   \\  /    A nd           | Web:      www.OpenFOAM.com                      |
|    \\/     M anipulation  |                                                 |
\*---------------------------------------------------------------------------*/
FoamFile
{
    version     2.0;
    format      ascii;
    class       volScalarField;
    location    "0.6";
    object      p;
}
// * * * * * * * * * * * * * * * * * * * * * * * * * * * * * * * * * * * * * //

dimensions      [1 -1 -2 0 0 0 0];


internalField   nonuniform List<scalar> 
20400
(
99503.3
99500.8
99507.6
99510.7
99514.4
99518.5
99523.3
99528.9
99536.5
99544.9
99554.2
99564.5
99575.9
99587.5
99601.2
99614.8
99627.8
99640.9
99640.9
99669.7
99692.2
99708.3
99722.4
99736.9
99754.8
99769.1
99785.7
99800.6
99797.6
99814.1
99832.4
99844.4
99855.7
99869.3
99884.2
99900.2
99908.7
99922.7
99933.8
99941.4
99945.5
99953.4
99967.7
99973
100018
100041
100063
100086
100108
100127
100152
100178
100216
100235
100245
100262
100272
100293
100313
100318
100325
100329
100333
100332
100329
100325
100324
100320
100314
100308
100302
100295
100286
100277
100269
100262
100255
100249
100240
100235
100226
100223
100218
100223
100223
100220
100211
100211
100211
100207
100205
100201
100196
100190
100183
100175
100167
100157
100144
100130
100116
100102
100086
100066
100045
100022
99996.6
99975.1
99957.3
99929
99894.4
99870.2
99843.8
99817.2
99792.5
99771.8
99746.5
99722
99700.3
99679.7
99661.2
99644.1
99630.2
99612.9
99599.8
99585.2
99572.8
99561.7
99551.9
99543.9
99537.2
99532.2
99527.6
99522.6
99519.9
99520.6
99520.7
99522.1
99527.1
99535.6
99544.2
99550.6
99550.9
99559.7
99566.8
99577.6
99593.2
99607.4
99621.5
99634.6
99646.9
99660.1
99675.3
99696.2
99715.6
99730.8
99746.7
99764.5
99782.8
99804.7
99827.1
99850.1
99873.4
99897.6
99925.5
99953.9
99980.8
100011
100041
100070
100101
100133
100165
100198
100231
100265
100299
100333
100369
100404
100439
100473
100508
100541
100574
100607
100640
100672
100701
100729
100757
100786
100815
100839
100864
100889
100904
100925
100942
100959
100975
100992
101003
101014
101024
101033
101040
101047
101052
101055
101057
101059
101058
101057
101055
101052
101048
101043
101036
101028
101019
101009
100998
100987
100974
100960
100945
100929
100913
100896
100878
100859
100840
100820
100799
100778
100757
100735
100713
100691
100668
100646
100624
100601
100579
100557
100536
100515
100494
100474
100455
100436
100419
100401
100385
100370
100355
100342
100330
100319
100309
100300
100293
100286
100281
100278
100275
100274
100274
100276
100278
100282
100287
100293
100300
100309
100319
100330
100342
100356
100370
100385
100401
100418
100436
100455
100474
100494
100515
100536
100558
100581
100603
100627
100650
100674
100698
100722
100746
100770
100794
100819
100843
100867
100891
100914
100938
100961
100983
101006
101027
101049
101070
101090
101110
101129
101148
101166
101184
101200
101216
101231
101246
101259
101272
101284
101294
101304
101313
101321
101328
101334
101339
101343
101345
101347
101347
101346
101344
101341
101337
101332
101325
101317
101308
101297
101286
101274
101260
101245
101230
101214
101197
101179
101160
101141
101122
101102
101082
101062
101042
101021
101001
100981
100961
100942
100923
100904
100887
100869
100853
100838
100823
100810
100797
100786
100775
100766
100758
100752
100746
100741
100738
100736
100735
100736
100737
100739
100743
100748
100753
100760
100768
100776
100785
100796
100807
100818
100831
100843
100857
100870
100885
100899
100914
100929
100944
100959
100974
100990
101005
101020
101035
101051
101066
101080
101095
101109
101124
101137
101151
101164
101177
101190
101202
101214
101226
101237
101247
101258
101267
101277
101286
101295
101303
101311
101318
101325
101331
101337
101342
101347
101351
101355
101358
101361
101364
101366
101367
101368
101368
101368
101367
101366
101364
101362
101359
101356
101352
101349
101345
101340
101335
101330
101325
101320
101315
101310
101305
101299
101295
101290
101285
101281
101277
101274
101271
101268
101266
101264
101263
101262
101262
101262
101263
101264
101267
101269
101272
101276
101279
101284
101288
101293
101299
101305
101308
101314
101319
101328
99506
99504
99508.7
99512.2
99516
99521.1
99527.1
99533.8
99541.6
99549.6
99558
99566.7
99576.2
99586.9
99595.1
99608.6
99621.5
99635.4
99640.3
99659.7
99674
99689.7
99707.6
99723.1
99732.1
99746
99764.4
99785.5
99784
99800.1
99820.9
99828.9
99839
99844.6
99846.2
99863.2
99884.8
99896.8
99907.2
99912.5
99935.1
99969.6
99972.9
99983.4
99998
100011
100043
100076
100109
100135
100172
100188
100180
100238
100276
100290
100297
100226
100296
100313
100320
100326
100333
100337
100341
100344
100340
100335
100331
100327
100318
100310
100301
100290
100286
100285
100281
100277
100270
100267
100262
100253
100246
100241
100233
100224
100209
100198
100187
100174
100165
100155
100149
100143
100136
100128
100120
100115
100107
100089
100066
100028
99995.5
99968.1
99942.2
99919.6
99898.8
99880.9
99861.3
99864.7
99854
99835
99817.4
99799.1
99780.5
99764.7
99743.7
99722.5
99702.5
99682.6
99664.9
99648.3
99633.8
99619.6
99608.9
99597
99586.9
99577.9
99570.5
99564.8
99560.2
99556.1
99550.2
99543.7
99559.3
99561.5
99561.1
99562.1
99564.2
99564.2
99565.4
99560
99571.8
99569.7
99577.5
99585
99594.9
99604.4
99614.6
99625.4
99637.1
99649.8
99663.7
99680.2
99694.7
99713.2
99732.5
99752
99771.2
99793.4
99815.9
99838.2
99860.9
99884.8
99912
99938.3
99965.8
99996.6
100027
100058
100092
100126
100162
100197
100233
100270
100310
100346
100384
100420
100456
100491
100526
100560
100593
100625
100657
100688
100716
100744
100770
100796
100822
100844
100875
100882
100893
100905
100917
100931
100945
100960
100972
100985
100997
101008
101018
101026
101033
101038
101042
101045
101046
101046
101046
101044
101040
101036
101030
101023
101015
101006
100996
100984
100972
100958
100944
100928
100912
100895
100877
100858
100839
100819
100798
100777
100756
100734
100712
100689
100667
100644
100622
100599
100577
100555
100534
100513
100492
100472
100453
100434
100416
100399
100383
100367
100353
100340
100328
100317
100307
100298
100291
100284
100279
100276
100273
100272
100272
100274
100276
100280
100285
100291
100299
100308
100318
100329
100341
100354
100369
100384
100400
100417
100435
100454
100473
100493
100514
100535
100557
100580
100603
100626
100649
100673
100697
100721
100745
100769
100794
100818
100842
100866
100890
100913
100937
100960
100982
101005
101027
101048
101069
101089
101109
101129
101147
101165
101183
101199
101215
101230
101245
101258
101271
101282
101293
101303
101312
101320
101326
101332
101337
101341
101344
101345
101345
101344
101342
101339
101335
101330
101323
101315
101306
101295
101284
101271
101258
101243
101228
101211
101194
101177
101158
101139
101120
101100
101080
101060
101039
101019
100999
100979
100959
100939
100920
100902
100884
100867
100851
100836
100821
100808
100795
100784
100774
100765
100757
100750
100744
100740
100737
100735
100734
100734
100736
100738
100741
100747
100753
100759
100767
100775
100785
100795
100806
100818
100830
100843
100856
100870
100885
100899
100914
100929
100944
100959
100974
100990
101005
101020
101035
101050
101065
101080
101094
101108
101122
101136
101150
101163
101176
101188
101201
101213
101224
101235
101246
101257
101266
101276
101285
101294
101302
101310
101317
101324
101330
101336
101341
101346
101351
101354
101359
101361
101364
101366
101367
101368
101368
101368
101368
101366
101365
101362
101360
101357
101354
101350
101346
101342
101337
101332
101327
101322
101318
101313
101308
101303
101298
101294
101290
101286
101282
101279
101276
101274
101272
101270
101269
101269
101269
101269
101270
101272
101274
101276
101279
101282
101285
101289
101294
101298
101306
101302
101304
101308
101313
101324
99503.8
99501.3
99505.6
99509.2
99513.2
99517.8
99523.6
99530
99537.7
99546.9
99557
99568.6
99581.6
99595.7
99612.2
99625.3
99639.2
99652
99667.4
99676.5
99693.3
99710.6
99729
99744.2
99754
99768.2
99784.9
99804.8
99809.6
99837.8
99850.8
99862.4
99872.3
99882.2
99880.4
99885.9
99896.6
99907.6
99911.9
99909
99925.6
99947.2
99964.2
99987.8
99978.6
100018
100042
100068
100090
100111
100130
100146
100215
100221
100230
100248
100261
100299
100324
100324
100331
100339
100342
100339
100338
100337
100345
100323
100317
100319
100306
100292
100280
100268
100251
100235
100220
100206
100189
100177
100163
100146
100132
100121
100109
100098
100084
100076
100069
100059
100057
100060
100069
100082
100095
100106
100113
100115
100115
100108
100094
100082
100070
100056
100041
100025
100006
99977.6
99940.5
99904.7
99876.7
99852.9
99828.5
99803.8
99781.1
99764.6
99742.6
99718.4
99696.5
99679.1
99662.6
99647.6
99632.1
99610.3
99598.1
99586
99575.9
99566.3
99558
99551.5
99547.1
99543.9
99539.7
99535.8
99532
99536.8
99540
99546.1
99555
99567.6
99578.6
99589.7
99606.4
99638.3
99644.8
99656.8
99669.5
99681
99691.8
99701.9
99712.1
99721.7
99736.2
99737.7
99748.8
99770.4
99788.2
99805.4
99822.6
99843.8
99865.4
99885.7
99906.8
99928.4
99955.5
99976.7
100003
100030
100055
100082
100111
100138
100167
100195
100224
100253
100283
100313
100344
100373
100403
100433
100464
100494
100525
100555
100586
100616
100645
100674
100703
100731
100760
100787
100810
100850
100884
100910
100934
100956
100974
100992
101004
101016
101027
101035
101043
101049
101053
101057
101060
101062
101062
101061
101059
101055
101051
101046
101039
101031
101022
101012
101001
100989
100976
100962
100947
100931
100915
100897
100879
100860
100841
100821
100800
100779
100758
100736
100714
100692
100669
100647
100624
100602
100580
100558
100537
100516
100495
100475
100456
100437
100419
100402
100386
100370
100356
100343
100331
100319
100310
100301
100293
100287
100282
100278
100276
100275
100275
100276
100279
100283
100287
100293
100301
100310
100320
100331
100343
100356
100371
100386
100402
100419
100437
100456
100475
100495
100516
100537
100559
100581
100604
100627
100651
100675
100699
100723
100747
100771
100796
100820
100844
100868
100892
100915
100939
100962
100984
101007
101029
101050
101071
101092
101111
101131
101149
101168
101185
101202
101218
101233
101247
101261
101273
101285
101296
101306
101315
101322
101329
101335
101340
101344
101347
101348
101349
101348
101346
101343
101338
101333
101326
101318
101309
101299
101287
101275
101261
101247
101231
101215
101198
101180
101162
101143
101123
101104
101083
101063
101043
101022
101002
100982
100962
100943
100924
100905
100888
100871
100854
100839
100824
100811
100798
100787
100776
100767
100759
100752
100747
100742
100739
100737
100736
100736
100738
100740
100743
100748
100754
100761
100768
100777
100786
100796
100807
100819
100831
100844
100857
100871
100885
100899
100914
100929
100944
100960
100975
100991
101006
101021
101037
101052
101067
101082
101096
101110
101125
101138
101152
101165
101178
101191
101203
101215
101226
101238
101248
101259
101269
101278
101287
101296
101304
101312
101319
101326
101332
101338
101343
101348
101352
101356
101359
101362
101365
101366
101368
101368
101369
101368
101367
101366
101364
101361
101358
101355
101352
101348
101343
101339
101334
101328
101323
101318
101312
101307
101301
101296
101291
101285
101280
101276
101271
101267
101264
101261
101258
101255
101253
101252
101251
101250
101250
101251
101252
101253
101255
101258
101261
101264
101268
101271
101275
101290
101297
101304
101314
101328
99501.4
99498.7
99502.7
99506
99510.3
99515.6
99521.4
99529
99537.1
99545.8
99555.5
99566
99577.3
99590.6
99604.7
99618.4
99632.4
99647.4
99660.2
99676.6
99693.2
99710.6
99726.5
99740.3
99757.3
99771.4
99787.3
99801.7
99805.5
99827.8
99849.3
99864.2
99875.1
99884.5
99897.6
99902.1
99911.2
99922
99930.3
99931.1
99940.4
99949.8
99963
99981.4
100002
100020
100045
100068
100096
100119
100151
100172
100218
100227
100244
100258
100275
100301
100308
100316
100327
100337
100343
100347
100348
100345
100335
100347
100339
100316
100309
100301
100286
100277
100267
100258
100250
100244
100235
100231
100224
100219
100214
100214
100215
100215
100209
100209
100212
100210
100207
100199
100186
100169
100153
100138
100125
100112
100100
100090
100084
100077
100065
100051
100037
100024
100011
99989.9
99958
99927.4
99902.4
99877.7
99852.6
99828.6
99805.2
99773.1
99739.1
99715.1
99694.3
99674.8
99658.5
99640.9
99624.3
99609.1
99596.2
99582.6
99571
99560.4
99551.6
99543.6
99534.9
99528.9
99526.1
99524.4
99526.6
99531.9
99535.5
99541.3
99549.9
99560
99569.6
99575.1
99576.5
99577
99583.7
99589
99601.9
99614.9
99627.2
99641.8
99657.7
99671.4
99684.8
99700.6
99714.7
99732.5
99751.1
99770.5
99788.5
99809.5
99832.4
99854.7
99877
99898.4
99924.6
99950.6
99975.6
100004
100033
100062
100093
100124
100159
100192
100226
100261
100296
100329
100366
100400
100435
100470
100506
100541
100576
100610
100644
100677
100709
100739
100768
100793
100811
100831
100854
100875
100893
100913
100932
100949
100967
100987
100999
101011
101023
101033
101041
101048
101055
101058
101061
101061
101060
101059
101056
101052
101048
101044
101037
101030
101021
101011
101000
100988
100976
100961
100947
100931
100914
100897
100879
100860
100841
100820
100800
100779
100757
100735
100713
100691
100668
100646
100623
100601
100579
100557
100535
100514
100494
100474
100454
100436
100418
100400
100384
100369
100355
100341
100329
100318
100308
100299
100292
100285
100280
100277
100274
100273
100273
100275
100277
100281
100286
100292
100300
100308
100318
100329
100342
100355
100369
100385
100401
100418
100436
100455
100474
100494
100515
100536
100558
100581
100603
100627
100650
100674
100698
100722
100746
100771
100795
100819
100843
100867
100891
100915
100938
100961
100984
101006
101028
101050
101071
101091
101111
101131
101149
101167
101185
101201
101217
101232
101247
101260
101273
101285
101296
101305
101314
101322
101329
101335
101340
101344
101346
101348
101348
101347
101345
101342
101338
101332
101325
101317
101308
101298
101286
101274
101260
101245
101230
101213
101196
101178
101160
101141
101121
101101
101081
101061
101040
101020
101000
100980
100960
100940
100921
100903
100885
100868
100852
100836
100822
100808
100796
100784
100774
100765
100757
100750
100745
100740
100737
100735
100734
100734
100736
100738
100742
100747
100753
100759
100767
100776
100785
100795
100806
100818
100830
100843
100857
100870
100885
100899
100914
100929
100944
100960
100975
100990
101006
101021
101036
101051
101066
101081
101096
101110
101124
101138
101151
101165
101178
101190
101202
101214
101226
101237
101248
101258
101268
101278
101287
101296
101304
101312
101319
101326
101332
101338
101343
101348
101352
101356
101360
101363
101365
101367
101368
101369
101369
101369
101368
101367
101365
101363
101360
101357
101353
101349
101345
101340
101336
101331
101326
101320
101315
101310
101305
101299
101295
101290
101285
101281
101277
101273
101270
101267
101265
101263
101262
101261
101261
101262
101262
101264
101266
101268
101271
101275
101279
101283
101287
101292
101297
101302
101306
101313
101319
101327
99502.7
99498.7
99503.2
99507.3
99511.1
99515.3
99520.6
99526.6
99534.2
99542.5
99551.6
99561.5
99572.6
99584.9
99598.2
99612.2
99627.1
99641.1
99657.4
99673.6
99691.8
99711
99728.5
99743.9
99761.7
99778.1
99793.8
99807.1
99810.4
99829.2
99843.4
99851.7
99858.9
99865.3
99876.7
99882.7
99893.3
99905.2
99918.3
99926.2
99934.8
99943.7
99956.6
99972.7
99989.5
100014
100035
100059
100083
100107
100132
100158
100207
100222
100235
100243
100267
100280
100305
100322
100329
100336
100341
100343
100342
100337
100330
100324
100317
100307
100295
100285
100275
100259
100250
100241
100227
100222
100207
100200
100193
100190
100189
100195
100202
100206
100200
100206
100212
100212
100216
100216
100210
100201
100190
100179
100167
100154
100139
100124
100109
100092
100072
100050
100026
99997.6
99975.6
99956
99935.7
99908.8
99884.7
99861.2
99837.4
99813.9
99797.9
99770.1
99740.8
99717.9
99697.8
99679.3
99661
99643.4
99623.3
99600.7
99589.1
99575.2
99563.2
99551
99541.9
99535
99528.9
99524.5
99521.6
99518.7
99514.3
99513.9
99514.9
99518.7
99522
99527.8
99533.8
99539.5
99546.5
99558.1
99569.4
99581
99601.7
99624.9
99641.9
99652.9
99666.3
99678.1
99687.9
99706
99722.1
99736.3
99754.9
99776.2
99795.3
99813.3
99833.7
99855.1
99876.8
99897
99923.7
99950.4
99976.4
100003
100037
100065
100096
100127
100159
100192
100230
100265
100299
100330
100361
100393
100426
100461
100498
100534
100571
100606
100642
100678
100710
100743
100777
100805
100826
100850
100874
100897
100917
100937
100956
100974
100988
100996
101003
101013
101022
101031
101038
101045
101052
101057
101062
101063
101062
101061
101060
101057
101054
101049
101041
101031
101022
101012
101001
100989
100977
100962
100948
100932
100915
100898
100880
100861
100841
100821
100800
100779
100758
100736
100714
100691
100669
100646
100624
100601
100579
100557
100536
100515
100494
100474
100455
100436
100418
100401
100384
100369
100355
100341
100329
100318
100308
100299
100292
100285
100280
100276
100274
100273
100273
100274
100277
100281
100285
100292
100299
100308
100318
100329
100341
100355
100369
100384
100401
100418
100436
100454
100474
100494
100515
100536
100558
100581
100603
100627
100650
100674
100698
100722
100746
100771
100795
100819
100844
100868
100892
100915
100939
100962
100984
101007
101029
101050
101071
101092
101112
101131
101150
101168
101186
101202
101218
101233
101248
101261
101274
101286
101297
101307
101315
101323
101330
101336
101341
101345
101347
101349
101349
101348
101346
101343
101339
101333
101327
101319
101309
101299
101287
101275
101261
101246
101231
101214
101197
101179
101161
101142
101122
101102
101082
101062
101041
101021
101000
100980
100960
100941
100922
100903
100885
100868
100852
100836
100822
100808
100796
100784
100774
100765
100757
100750
100744
100740
100737
100735
100734
100734
100736
100738
100742
100747
100752
100759
100767
100775
100785
100795
100806
100818
100830
100843
100856
100870
100884
100899
100914
100929
100944
100959
100975
100990
101006
101021
101036
101052
101067
101081
101096
101111
101125
101139
101152
101165
101178
101191
101203
101215
101227
101238
101249
101259
101269
101278
101288
101296
101305
101312
101320
101327
101333
101339
101344
101349
101353
101357
101360
101364
101366
101368
101369
101370
101370
101370
101369
101367
101365
101363
101360
101357
101354
101350
101345
101341
101336
101331
101326
101321
101315
101310
101305
101300
101295
101290
101285
101281
101277
101273
101270
101267
101265
101263
101261
101261
101260
101261
101261
101263
101265
101267
101270
101273
101277
101282
101286
101291
101297
101303
101307
101313
101319
101327
99500.5
99496
99500.2
99505
99508.9
99513.1
99518.5
99525
99532.9
99541.6
99551
99561.1
99572.2
99583.9
99597
99610.9
99626.1
99640.2
99655.3
99673.8
99690
99707.2
99724.7
99741.7
99760.1
99777.9
99794.8
99808.7
99814.7
99832
99845
99853.1
99861.2
99867.9
99876.9
99879.5
99885.8
99892.5
99900.4
99905.5
99915.5
99927.5
99941.3
99958.5
99980.5
100000
100025
100048
100074
100098
100129
100156
100200
100227
100238
100265
100287
100306
100322
100334
100345
100352
100356
100357
100356
100351
100342
100334
100327
100316
100306
100298
100286
100276
100266
100259
100251
100242
100236
100229
100221
100218
100212
100212
100207
100197
100200
100172
100160
100150
100149
100148
100148
100148
100147
100144
100139
100132
100123
100113
100102
100088
100073
100060
100040
100012
99983.1
99957.7
99933.6
99905.4
99879.6
99854.3
99828.4
99801.9
99779.9
99760.7
99734.3
99709.8
99689.3
99669.8
99653.3
99635.4
99618.8
99599.6
99586.5
99573.1
99561.7
99550.3
99541.1
99533
99524
99516
99512
99509.4
99509.2
99511
99512.3
99516.7
99521.3
99529.2
99539.7
99550.1
99561.7
99575
99587.7
99593.6
99595.3
99611.1
99624.5
99628.6
99636.8
99657
99667.8
99687.2
99712.6
99729.7
99742.8
99759.8
99776.7
99790.3
99811.6
99838.8
99859.6
99879.9
99910.8
99938.5
99966.7
99998.8
100030
100061
100092
100124
100160
100192
100229
100265
100301
100339
100373
100407
100442
100477
100512
100544
100577
100608
100638
100664
100692
100723
100755
100784
100813
100839
100866
100889
100911
100933
100953
100974
100994
101002
101012
101025
101036
101045
101053
101060
101067
101068
101063
101062
101061
101059
101057
101054
101050
101046
101040
101033
101024
101014
101003
100991
100978
100964
100949
100933
100916
100898
100880
100862
100842
100822
100801
100780
100758
100736
100714
100692
100669
100647
100624
100602
100579
100557
100536
100515
100494
100474
100454
100435
100417
100400
100384
100368
100354
100341
100328
100317
100307
100299
100291
100285
100280
100276
100273
100272
100273
100274
100276
100280
100285
100291
100299
100307
100317
100329
100341
100354
100369
100384
100400
100417
100435
100454
100473
100494
100515
100536
100558
100580
100603
100627
100650
100674
100698
100722
100746
100771
100795
100819
100844
100868
100892
100915
100939
100962
100985
101007
101029
101051
101072
101092
101112
101132
101150
101169
101186
101203
101219
101234
101248
101262
101275
101287
101297
101307
101316
101324
101331
101337
101342
101346
101348
101350
101350
101349
101347
101344
101339
101334
101327
101319
101310
101299
101288
101275
101261
101247
101231
101215
101197
101179
101161
101142
101122
101102
101082
101061
101041
101020
101000
100980
100960
100940
100921
100903
100885
100868
100851
100836
100821
100808
100795
100784
100773
100764
100756
100749
100744
100739
100736
100734
100733
100734
100735
100737
100741
100746
100752
100759
100766
100775
100784
100795
100806
100818
100830
100843
100856
100870
100884
100899
100914
100929
100944
100959
100975
100990
101006
101021
101037
101052
101067
101082
101096
101111
101125
101139
101153
101166
101179
101191
101204
101216
101227
101238
101249
101259
101269
101279
101288
101297
101305
101313
101320
101327
101334
101340
101345
101350
101354
101358
101361
101365
101367
101369
101370
101371
101371
101371
101370
101368
101366
101364
101361
101358
101354
101350
101346
101342
101337
101332
101327
101321
101316
101311
101305
101300
101295
101290
101285
101281
101277
101273
101270
101267
101265
101263
101262
101261
101261
101261
101262
101263
101265
101267
101270
101274
101278
101282
101287
101292
101298
101303
101307
101313
101318
101327
99498.7
99494.6
99497.8
99502.8
99506.8
99510.9
99515.8
99521.7
99529.2
99537.7
99547.2
99557.6
99569
99581.3
99594.7
99608.7
99624.5
99640.2
99656.8
99672.5
99688.8
99707.7
99726.4
99743.5
99760.2
99776.2
99791.7
99805.4
99813.4
99830
99842.5
99850.9
99858.9
99865.3
99873.4
99875
99880.2
99883.7
99887
99889.7
99897.8
99908.9
99922.6
99939.3
99956.2
99975.2
100002
100029
100056
100085
100118
100146
100187
100216
100247
100274
100301
100322
100338
100348
100354
100358
100359
100359
100358
100353
100346
100337
100327
100317
100302
100292
100281
100262
100247
100246
100234
100229
100225
100216
100213
100212
100209
100209
100214
100219
100209
100200
100192
100180
100171
100161
100153
100146
100139
100132
100124
100115
100105
100094
100080
100064
100045
100028
100011
99991.1
99969
99946.8
99923.9
99898.1
99873.8
99849.8
99826.4
99802.2
99780.4
99756.7
99730.9
99707.8
99687.5
99666.7
99646.9
99627.1
99612.4
99594.8
99581
99566.9
99554
99542.5
99534.1
99525.7
99519.2
99512.9
99509.8
99505.8
99505.5
99505.6
99506.5
99512.7
99517.8
99524.4
99532.9
99540.7
99549.7
99555.8
99560.8
99566.4
99575.3
99592.7
99614.4
99629.6
99643.3
99669
99691.6
99698.4
99707.4
99724.1
99735.5
99746.9
99771
99785.7
99806.4
99844.2
99871.5
99889.9
99911
99938.1
99967.3
99988.7
100028
100058
100090
100122
100157
100191
100222
100256
100289
100329
100365
100403
100441
100477
100514
100548
100586
100623
100654
100682
100711
100739
100766
100792
100818
100841
100864
100886
100906
100923
100939
100957
100976
100994
101004
101017
101029
101038
101047
101055
101064
101070
101068
101068
101069
101069
101067
101065
101062
101053
101042
101034
101024
101014
101003
100991
100978
100965
100950
100934
100917
100900
100882
100863
100843
100823
100802
100781
100759
100737
100715
100692
100670
100647
100624
100602
100580
100558
100536
100515
100494
100474
100454
100435
100417
100400
100384
100368
100354
100340
100328
100317
100307
100298
100291
100284
100279
100275
100273
100272
100272
100273
100276
100280
100284
100290
100298
100307
100317
100328
100340
100354
100368
100383
100400
100417
100435
100454
100473
100493
100514
100536
100558
100580
100603
100626
100650
100674
100698
100722
100747
100771
100795
100820
100844
100868
100892
100916
100939
100962
100985
101008
101030
101051
101072
101093
101113
101132
101151
101169
101187
101204
101220
101235
101249
101263
101276
101288
101299
101308
101317
101325
101332
101338
101343
101347
101349
101351
101351
101350
101348
101345
101341
101335
101328
101320
101311
101300
101289
101276
101262
101247
101232
101215
101198
101180
101161
101142
101122
101102
101082
101061
101041
101020
101000
100980
100960
100940
100921
100902
100884
100867
100851
100835
100821
100807
100795
100783
100773
100764
100756
100749
100743
100739
100735
100733
100733
100733
100735
100737
100741
100746
100751
100758
100766
100775
100784
100794
100805
100817
100830
100842
100856
100870
100884
100899
100913
100929
100944
100959
100975
100990
101006
101021
101037
101052
101067
101082
101097
101111
101125
101139
101153
101166
101180
101192
101205
101217
101228
101239
101250
101260
101270
101280
101289
101298
101306
101314
101321
101328
101335
101341
101346
101351
101355
101359
101362
101366
101368
101370
101371
101372
101372
101372
101371
101369
101367
101365
101362
101359
101355
101351
101347
101342
101337
101332
101327
101322
101316
101311
101306
101300
101295
101290
101286
101281
101277
101274
101270
101267
101265
101263
101262
101261
101261
101261
101262
101263
101265
101267
101270
101273
101277
101282
101286
101291
101296
101301
101306
101312
101318
101325
99495.3
99492.1
99493.5
99499
99502.9
99507.3
99512.5
99518.9
99526.7
99535.3
99545
99555.7
99567.4
99580
99593.3
99607.5
99623.1
99638.2
99654.5
99672.8
99687.2
99704.1
99727
99745.5
99763
99779.4
99795.1
99808.5
99816.9
99830.9
99841.6
99848.8
99855.2
99860.2
99866.8
99867.4
99872.3
99873.5
99874.3
99875.4
99886.1
99892.1
99909
99917.4
99941.1
99960.3
99986.5
100021
100055
100087
100124
100156
100195
100227
100253
100284
100310
100331
100349
100363
100372
100378
100380
100378
100374
100368
100358
100346
100334
100323
100312
100300
100290
100281
100266
100249
100245
100229
100226
100211
100198
100195
100185
100180
100174
100177
100162
100169
100164
100158
100155
100153
100149
100145
100139
100131
100123
100114
100105
100094
100082
100068
100050
100028
100006
99983.6
99960.5
99937.5
99913.4
99887.9
99862.9
99837.7
99812.8
99790.2
99770.5
99747.9
99722.9
99700.7
99679.9
99660.6
99642.3
99624.8
99607.7
99590.3
99576.8
99562.9
99550.1
99537.1
99526.1
99517.2
99510.8
99506.1
99500.9
99497.9
99497.5
99497
99498.2
99502
99505.4
99511.6
99520.9
99529.3
99538.2
99547.5
99557
99571
99589.4
99609.2
99627
99640.7
99652.7
99656.2
99666.5
99679
99686.8
99706
99730.4
99745.9
99774
99797.3
99819
99833.9
99855.9
99873.4
99892.3
99917.7
99951.4
99989.9
100018
100052
100084
100120
100154
100184
100220
100256
100294
100328
100361
100398
100433
100468
100498
100531
100569
100603
100636
100669
100702
100732
100762
100792
100820
100845
100872
100898
100922
100939
100953
100968
100984
101000
101009
101020
101030
101038
101045
101049
101055
101060
101064
101064
101064
101063
101062
101059
101057
101051
101044
101036
101027
101018
101007
100996
100983
100968
100952
100936
100918
100901
100883
100864
100844
100824
100803
100782
100760
100738
100716
100693
100670
100648
100625
100602
100580
100558
100536
100515
100494
100474
100454
100435
100417
100400
100383
100368
100354
100340
100328
100317
100307
100298
100290
100284
100279
100275
100272
100271
100271
100273
100275
100279
100284
100290
100297
100306
100316
100327
100340
100353
100367
100383
100399
100416
100434
100453
100473
100493
100514
100535
100558
100580
100603
100626
100650
100674
100698
100722
100746
100771
100795
100820
100844
100868
100892
100916
100939
100963
100986
101008
101030
101052
101073
101094
101114
101133
101152
101170
101188
101205
101221
101236
101250
101264
101277
101289
101300
101309
101318
101326
101333
101339
101344
101348
101351
101352
101352
101351
101349
101346
101342
101336
101329
101321
101312
101301
101289
101277
101263
101248
101232
101216
101198
101180
101161
101142
101122
101102
101082
101061
101041
101020
101000
100979
100959
100940
100920
100902
100884
100867
100850
100835
100820
100806
100794
100782
100772
100763
100755
100748
100743
100738
100735
100733
100732
100732
100734
100736
100740
100745
100751
100758
100765
100774
100784
100794
100805
100817
100829
100842
100856
100869
100884
100898
100913
100928
100944
100959
100975
100990
101006
101021
101037
101052
101067
101082
101097
101111
101126
101140
101154
101167
101180
101193
101205
101217
101229
101240
101251
101261
101271
101281
101290
101299
101307
101315
101322
101329
101336
101342
101347
101352
101356
101360
101363
101367
101369
101371
101372
101373
101373
101373
101372
101370
101368
101366
101363
101360
101356
101352
101348
101343
101338
101333
101328
101323
101317
101312
101306
101301
101296
101291
101286
101282
101278
101274
101270
101268
101265
101263
101262
101261
101261
101261
101262
101263
101265
101267
101270
101273
101277
101281
101286
101291
101296
101301
101306
101312
101317
101324
99493.3
99490.5
99489.8
99496.1
99499.8
99504
99509
99515.2
99522.8
99531.4
99541.2
99552
99563.8
99576.8
99590.7
99605.4
99622.1
99638.5
99654.6
99670.4
99691.5
99707.4
99721.7
99748.6
99764.7
99781.3
99796.8
99810.3
99819.2
99831.3
99839.9
99845
99848.4
99849.9
99852.6
99850.1
99852.3
99850.1
99847.4
99851.2
99852.9
99863.9
99873.3
99894.9
99903.7
99934.8
99959
99994
100033
100071
100117
100157
100198
100231
100265
100296
100322
100342
100357
100369
100377