/*--------------------------------*- C++ -*----------------------------------*\
| =========                 |                                                 |
| \\      /  F ield         | OpenFOAM: The Open Source CFD Toolbox           |
|  \\    /   O peration     | Version:  v1812                                 |
|   \\  /    A nd           | Web:      www.OpenFOAM.com                      |
|    \\/     M anipulation  |                                                 |
\*---------------------------------------------------------------------------*/
FoamFile
{
    version     2.0;
    format      ascii;
    class       surfaceScalarField;
    location    "0.6";
    object      phi;
}
// * * * * * * * * * * * * * * * * * * * * * * * * * * * * * * * * * * * * * //

dimensions      [1 0 -1 0 0 0 0];
oriented        oriented;


internalField   nonuniform List<scalar> 
40240
(
-0.000819377
0.000196809
-0.00162381
0.000181851
-0.00223931
-7.40682e-06
-0.00275345
-0.000107865
-0.00322914
-0.000147196
-0.00370646
-0.000144741
-0.00421883
-0.000108702
-0.00477996
-5.75841e-05
-0.00536425
-3.12251e-05
-0.00595981
-1.60507e-05
-0.00656018
-7.03526e-06
-0.00714977
-1.47305e-05
-0.00772101
-2.97605e-05
-0.0082854
-2.00148e-05
-0.00885236
-2.53978e-05
-0.0094303
-7.70028e-06
-0.00998088
-2.71645e-05
-0.0104469
-0.000108251
-0.0107895
-0.000227383
-0.011452
9.8961e-05
-0.0121348
0.000128699
-0.0127963
0.000116103
-0.0135625
0.000230747
-0.0143442
0.000251163
-0.0148363
-2.5933e-05
-0.0149417
-0.000415617
-0.0150344
-0.000416768
-0.0151396
-0.000402159
-0.0153225
-0.000319091
-0.0160769
0.000257405
-0.0171035
0.00053465
-0.0183882
0.000804416
-0.0199981
0.0011464
-0.0218127
0.00136404
-0.023185
0.000951245
-0.0240622
0.000476066
-0.0248735
0.000431905
-0.0258875
0.000665613
-0.0269481
0.000724516
-0.028183
0.000916706
-0.0296851
0.0011989
-0.0311716
0.00117648
-0.0324417
0.000972459
-0.0329921
0.000235701
-0.0335561
0.000261788
-0.0336377
-0.000215494
-0.0336899
-0.0002438
-0.033662
-0.000309409
-0.0334635
-0.000480458
-0.0333618
-0.000372305
-0.0333184
-0.000309156
-0.0330586
-0.000522559
-0.0327949
-0.000525673
-0.0319881
-0.0010568
-0.0311701
-0.00105386
-0.0309917
-0.000403067
-0.0305333
-0.00067331
-0.0304752
-0.000266299
-0.0300231
-0.000645483
-0.0297732
-0.000432736
-0.0294876
-0.000453308
-0.0292003
-0.000440974
-0.0290595
-0.000283919
-0.0291127
-8.06613e-05
-0.0294582
0.000214466
-0.0300864
0.000501426
-0.0308873
0.000692355
-0.0317616
0.000803454
-0.03267
0.000845306
-0.0335459
0.000808393
-0.0343859
0.000786935
-0.0352071
0.000781606
-0.0360602
0.000819943
-0.0369435
0.000857664
-0.0378115
0.000850792
-0.0385732
0.000752781
-0.0391867
0.000614745
-0.0396708
0.000494247
-0.0400912
0.000438219
-0.0404327
0.000367671
-0.0407648
0.000364948
-0.0409569
0.000231939
-0.0409988
8.70774e-05
-0.0409279
-2.14049e-05
-0.0404444
-0.000428349
-0.0396318
-0.00074791
-0.0387705
-0.000791097
-0.0377373
-0.000955268
-0.0365054
-0.00114973
-0.0351846
-0.00123355
-0.0337677
-0.00132823
-0.0322551
-0.00141894
-0.0305943
-0.00156319
-0.0287877
-0.00170491
-0.0268595
-0.00182163
-0.0248218
-0.00192632
-0.0227212
-0.00198584
-0.0206699
-0.00193499
-0.0187577
-0.00179296
-0.0169051
-0.00173101
-0.014996
-0.00179056
-0.0129564
-0.00190998
-0.0109524
-0.00188288
-0.00918984
-0.00163668
-0.00765972
-0.00140168
-0.0063251
-0.00120574
-0.00510297
-0.00109279
-0.00380116
-0.00117103
-0.00243535
-0.00123445
-0.0015043
-0.000806336
-0.00100596
-0.000374271
-0.000585321
-0.000297196
-0.000235633
-0.00023144
2.97253e-05
-0.000149265
0.000258555
-0.000117263
0.000441103
-7.44913e-05
0.000456703
9.07313e-05
0.00037475
0.000185388
0.000215171
0.000259092
2.84034e-05
0.000281389
-0.000100392
0.000218463
-0.000124264
0.000108988
-0.000108338
6.77086e-05
-0.00012557
9.54711e-05
-0.000164778
0.000110313
-0.000291295
0.000192645
-0.000551249
0.000319857
-0.000917482
0.000420503
-0.0013299
0.000460776
-0.00171825
0.000431154
-0.00204156
0.000360489
-0.00230416
0.000294121
-0.00258196
0.000303695
-0.00292604
0.000363492
-0.00344372
0.000536637
-0.00399871
0.00056553
-0.00448478
0.000486883
-0.00478083
0.000291723
-0.00486504
7.15917e-05
-0.00484538
-3.51505e-05
-0.00456379
-0.000305398
-0.00422043
-0.000374548
-0.00421624
-3.58957e-05
-0.00451157
0.000245823
-0.00508431
0.000519971
-0.00559856
0.000453545
-0.00584112
0.000175237
-0.00592124
5.22815e-06
-0.00596479
-3.79727e-05
-0.00602267
-3.04714e-05
-0.00620661
8.87511e-05
-0.00662761
0.000319949
-0.00720498
0.000471501
-0.007669
0.000344702
-0.00801633
0.000228271
-0.0084069
0.000264595
-0.00893171
0.000392581
-0.00959817
0.000528697
-0.0103857
0.000644694
-0.0111932
0.00066036
-0.0119934
0.000648144
-0.0128119
0.000662239
-0.0136813
0.000708337
-0.0145721
0.000725347
-0.0153802
0.000638315
-0.0161067
0.00055389
-0.0168099
0.000527506
-0.0174466
0.000457737
-0.0180368
0.00040885
-0.0186471
0.000426852
-0.0192452
0.000411768
-0.019784
0.000350548
-0.0202566
0.00028257
-0.0206992
0.000251662
-0.0211215
0.000230452
-0.0215013
0.000191065
-0.0218493
0.000156252
-0.0221398
9.84669e-05
-0.0223262
-4.75927e-06
-0.0224403
-7.69473e-05
-0.0224825
-0.000148298
-0.0224725
-0.00020099
-0.0224153
-0.000247618
-0.0223426
-0.000262389
-0.0222645
-0.000266504
-0.0221561
-0.000293499
-0.0219703
-0.000365661
-0.0217259
-0.000418117
-0.0214877
-0.000406597
-0.0212804
-0.000372597
-0.0210718
-0.000372388
-0.0207685
-0.00046533
-0.0203349
-0.000591959
-0.0198843
-0.00060585
-0.0195051
-0.000528522
-0.0191166
-0.000545698
-0.0188734
-0.000383118
-0.0186015
-0.00040292
-0.0183278
-0.000394379
-0.0180781
-0.000363077
-0.0177959
-0.000388665
-0.0174398
-0.000455213
-0.017141
-0.000389829
-0.0168822
-0.000340623
-0.0166555
-0.000299258
-0.0164608
-0.000258914
-0.0162791
-0.000237821
-0.016093
-0.000234022
-0.0159114
-0.000221017
-0.0157346
-0.000205983
-0.0155712
-0.000181942
-0.01542
-0.000161327
-0.0152862
-0.000135896
-0.0151538
-0.000125201
-0.015019
-0.000118253
-0.014883
-0.000109355
-0.0147424
-0.000103034
-0.0145942
-9.97162e-05
-0.0144511
-8.32265e-05
-0.0143111
-6.90253e-05
-0.0141708
-5.87654e-05
-0.0140249
-5.40844e-05
-0.0138747
-4.82534e-05
-0.0137188
-4.40026e-05
-0.0135522
-4.51381e-05
-0.0133765
-4.47573e-05
-0.0131952
-4.16227e-05
-0.0130092
-3.76351e-05
-0.0128185
-3.41803e-05
-0.0126221
-3.19211e-05
-0.012418
-3.21336e-05
-0.0122061
-3.31276e-05
-0.0119898
-3.10737e-05
-0.0117691
-2.97004e-05
-0.0115436
-2.93e-05
-0.0113137
-2.90318e-05
-0.0110805
-2.83385e-05
-0.0108445
-2.77803e-05
-0.0106063
-2.73192e-05
-0.0103662
-2.69592e-05
-0.0101249
-2.67144e-05
-0.00988282
-2.64446e-05
-0.00964081
-2.6094e-05
-0.00939961
-2.55834e-05
-0.00916008
-2.48317e-05
-0.00892303
-2.3878e-05
-0.00868922
-2.28032e-05
-0.00845934
-2.16975e-05
-0.00823401
-2.06523e-05
-0.00801379
-1.97319e-05
-0.00779928
-1.88921e-05
-0.00759113
-1.80286e-05
-0.00739002
-1.70787e-05
-0.00719662
-1.60315e-05
-0.00701152
-1.4925e-05
-0.00683524
-1.38163e-05
-0.00666824
-1.27394e-05
-0.00651089
-1.17584e-05
-0.00636353
-1.08862e-05
-0.00622646
-1.00862e-05
-0.0061
-9.31157e-06
-0.00598431
-8.55235e-06
-0.00587943
-7.83966e-06
-0.00578544
-7.1871e-06
-0.00570286
-6.61269e-06
-0.00563247
-6.11969e-06
-0.00557494
-5.7007e-06
-0.00552807
-5.34642e-06
-0.00549115
-5.08591e-06
-0.00546542
-4.89414e-06
-0.00545199
-4.67774e-06
-0.00544938
-4.21476e-06
-0.00545403
-5.33975e-06
-0.00547324
-5.52325e-06
-0.00550517
-5.18768e-06
-0.00554754
-5.70111e-06
-0.00560075
-6.19589e-06
-0.00566517
-6.5876e-06
-0.00574032
-7.09752e-06
-0.0058258
-7.75562e-06
-0.00592136
-8.47677e-06
-0.00602673
-9.26507e-06
-0.00614162
-1.00995e-05
-0.00626565
-1.1007e-05
-0.00639846
-1.19894e-05
-0.00653967
-1.30285e-05
-0.0066889
-1.41372e-05
-0.00684576
-1.53152e-05
-0.0070099
-1.65363e-05
-0.00718091
-1.77749e-05
-0.00735836
-1.90287e-05
-0.00754179
-2.02982e-05
-0.00773073
-2.15868e-05
-0.00792472
-2.29046e-05
-0.0081233
-2.42349e-05
-0.008326
-2.55564e-05
-0.00853237
-2.68489e-05
-0.00874195
-2.8112e-05
-0.00895426
-2.93387e-05
-0.00916887
-3.05018e-05
-0.00938528
-3.16116e-05
-0.00960296
-3.27306e-05
-0.00982144
-3.37684e-05
-0.0100402
-3.48057e-05
-0.0102585
-3.59054e-05
-0.0104758
-3.70395e-05
-0.0106915
-3.82168e-05
-0.010905
-3.94026e-05
-0.0111156
-4.05582e-05
-0.0113229
-4.16546e-05
-0.0115263
-4.26468e-05
-0.0117254
-4.34918e-05
-0.0119198
-4.41788e-05
-0.0121089
-4.47492e-05
-0.0122921
-4.52599e-05
-0.0124689
-4.57858e-05
-0.0126386
-4.63499e-05
-0.0128007
-4.6962e-05
-0.0129543
-4.76329e-05
-0.013099
-4.83167e-05
-0.0132343
-4.89389e-05
-0.0133597
-4.94614e-05
-0.0134748
-4.98746e-05
-0.0135792
-5.01934e-05
-0.0136725
-5.04574e-05
-0.013754
-5.07106e-05
-0.0138232
-5.09519e-05
-0.0138799
-5.11906e-05
-0.0139236
-5.14099e-05
-0.0139542
-5.17483e-05
-0.0139712
-5.21978e-05
-0.0139748
-5.34915e-05
-0.0139676
-5.14746e-05
-0.0139472
-4.98088e-05
-0.0139115
-4.9675e-05
-0.013859
-4.9824e-05
-0.0137937
-4.97498e-05
-0.0137158
-4.94285e-05
-0.0136245
-4.88311e-05
-0.0135203
-4.82331e-05
-0.0134025
-4.75736e-05
-0.0132704
-4.68488e-05
-0.0131243
-4.60494e-05
-0.0129648
-4.52219e-05
-0.0127929
-4.43601e-05
-0.0126092
-4.34486e-05
-0.0124141
-4.24686e-05
-0.012208
-4.1422e-05
-0.0119917
-4.03235e-05
-0.0117657
-3.9188e-05
-0.0115308
-3.80172e-05
-0.011288
-3.68085e-05
-0.0110379
-3.55529e-05
-0.0107816
-3.42409e-05
-0.0105199
-3.28728e-05
-0.010254
-3.14459e-05
-0.00998469
-2.99905e-05
-0.00971311
-2.84998e-05
-0.00944028
-2.70026e-05
-0.00916718
-2.5551e-05
-0.00889479
-2.41908e-05
-0.00862404
-2.28989e-05
-0.00835597
-2.1592e-05
-0.00809164
-2.02036e-05
-0.00783202
-1.88078e-05
-0.00757804
-1.74069e-05
-0.00733066
-1.59819e-05
-0.00709074
-1.45649e-05
-0.00685915
-1.31259e-05
-0.00663664
-1.17575e-05
-0.0064238
-1.05505e-05
-0.00622118
-9.52088e-06
-0.00602936
-8.63873e-06
-0.00584896
-7.83986e-06
-0.00568073
-6.99774e-06
-0.00552539
-6.01959e-06
-0.00538358
-4.91049e-06
-0.00525567
-3.76122e-06
-0.00514179
-2.66905e-06
-0.00504178
-1.77036e-06
-0.00495535
-1.09934e-06
-0.00488246
-6.85378e-07
-0.00482399
-5.04817e-07
-0.00478114
-3.31099e-07
-0.00475187
1.08894e-06
-0.00473852
1.46777e-06
-0.00473633
2.07043e-06
-0.00474485
-1.15984e-06
-0.00477192
2.65441e-06
-0.00481236
1.98588e-06
-0.00486445
1.64892e-06
-0.00492906
1.86148e-06
-0.00500607
1.83232e-06
-0.00509541
1.813e-06
-0.00519678
1.7278e-06
-0.00530958
1.63323e-06
-0.00543323
1.51257e-06
-0.00556723
1.36191e-06
-0.00571119
1.18086e-06
-0.0058647
9.9754e-07
-0.00602728
8.33765e-07
-0.00619835
6.26812e-07
-0.00637728
3.67481e-07
-0.00656351
1.85914e-07
-0.00675633
3.83923e-07
-0.00695536
3.67996e-07
-0.00715993
2.15147e-07
-0.00736956
-1.51894e-07
-0.00758358
-7.24896e-07
-0.00780143
-1.27321e-06
-0.00802239
-1.881e-06
-0.00824595
-2.37493e-06
-0.00847148
-2.82158e-06
-0.00869826
-3.21945e-06
-0.00892552
-3.6213e-06
-0.00915275
-3.93843e-06
-0.00937946
-4.07402e-06
-0.00960502
-4.11288e-06
-0.00982874
-4.03743e-06
-0.01005
-3.87849e-06
-0.0102681
-3.66691e-06
-0.0104824
-3.32785e-06
-0.0106925
-2.95364e-06
-0.0108976
-2.73882e-06
-0.0110971
-2.4685e-06
-0.0112905
-2.21265e-06
-0.0114769
-2.12636e-06
-0.0116558
-2.11879e-06
-0.0118266
-2.26307e-06
-0.0119889
-2.57213e-06
-0.0121424
-2.81657e-06
-0.0122868
-3.01146e-06
-0.012421
-3.49171e-06
-0.0125451
-3.75213e-06
-0.0126584
-4.21994e-06
-0.0127603
-4.67494e-06
-0.0128504
-4.98032e-06
-0.0129284
-5.43269e-06
-0.0129937
-8.24675e-06
-0.0130467
-6.32943e-06
-0.0130862
-6.80766e-06
-0.0131123
-7.37951e-06
-0.0131237
-8.87933e-06
-0.0131238
-8.77825e-06
-0.013112
-6.06354e-06
-0.0130851
-8.60336e-06
-0.0130445
-9.89435e-06
-0.0129906
-1.08144e-05
-0.0129231
-1.12965e-05
-0.0128412
-1.1848e-05
-0.0127456
-1.25312e-05
-0.012637
-1.29219e-05
-0.0125155
-1.34107e-05
-0.0123814
-1.39843e-05
-0.0122351
-1.45869e-05
-0.0120773
-1.52183e-05
-0.0119088
-1.58771e-05
-0.0117299
-1.65419e-05
-0.0115411
-1.71537e-05
-0.0113424
-1.77781e-05
-0.0111346
-1.84049e-05
-0.0109186
-1.90058e-05
-0.0106954
-1.96395e-05
-0.0104656
-2.03258e-05
-0.0102301
-2.1065e-05
-0.00998947
-2.18578e-05
-0.00974452
-2.26511e-05
-0.0094961
-2.3424e-05
-0.00924501
-2.42016e-05
-0.00899203
-2.49828e-05
-0.00873798
-2.5722e-05
-0.00848365
-2.64401e-05
-0.00822976
-2.71937e-05
-0.00797697
-2.80309e-05
-0.00772601
-2.886e-05
-0.0074779
-2.93926e-05
-0.00723333
-2.98641e-05
-0.00699308
-3.01904e-05
-0.00675798
-3.02795e-05
-0.00652901
-3.00812e-05
-0.00630744
-2.96765e-05
-0.00609434
-2.89922e-05
-0.00588903
-2.84465e-05
-0.00569179
-2.8125e-05
-0.00550342
-2.81696e-05
-0.00532329
-2.90449e-05
-0.00514962
-3.20252e-05
-0.00497924
-3.82105e-05
-0.00480864
-4.77104e-05
-0.00463397
-6.10436e-05
-0.00445288
-7.7241e-05
-0.00426265
-9.70537e-05
-0.00405722
-0.000123685
-0.00382368
-0.000163542
-0.00354365
-0.000219684
-0.0032309
-0.000267966
-0.00295498
-0.000238111
-0.00269689
-0.000230723
-0.0024862
-0.000192933
-4.8371e-05
-0.000742128
0.000315248
-0.00151343
0.000328747
-0.00219941
5.34926e-05
-0.00283747
-9.65438e-05
-0.00347512
-0.000136245
-0.00412235
-0.000122877
-0.00478246
-7.19921e-05
-0.00545496
-5.30163e-06
-0.00612804
2.57967e-05
-0.00679494
3.95048e-05
-0.00745083
4.17682e-05
-0.00809037
2.19447e-05
-0.00870298
-1.7223e-05
-0.00931899
6.39105e-06
-0.0100268
8.98725e-05
-0.0107251
0.000102073
-0.0113896
5.63103e-05
-0.0120839
1.1991e-05
-0.0130846
0.000205807
-0.0140451
0.000498317
-0.0149835
0.000513246
-0.0158624
0.000450201
-0.016725
0.000555595
-0.0177544
0.000751344
-0.0193231
0.00101884
-0.0212626
0.001002
-0.0230355
0.000838056
-0.0244259
0.000470952
-0.0252623
4.84234e-06
-0.0265
0.000994268
-0.0281219
0.0016667
-0.0298971
0.00210579
-0.0318309
0.00262255
-0.0340586
0.00316132
-0.0369084
0.00340332
-0.0397842
0.00297138
-0.0424633
0.00276371
-0.0450892
0.00296466
-0.047713
0.00303014
-0.0500375
0.00292601
-0.0511497
0.00198742
-0.0513393
0.00103512
-0.0514794
0.000795558
-0.0523691
0.000811892
-0.0533896
0.000963575
-0.054147
0.000215216
-0.0546635
-3.35902e-05
-0.0546667
-0.000609043
-0.0543399
-0.00110854
-0.0535202
-0.0014819
-0.0525133
-0.00160409
-0.0520355
-0.00128531
-0.0525527
-0.000300821
-0.0524417
-0.00142972
-0.0514532
-0.00228541
-0.0497487
-0.00234331
-0.0490816
-0.00155932
-0.0502879
0.000720531
-0.0520056
0.000868381
-0.0532281
0.000598298
-0.0542049
0.000347162
-0.0551035
0.000296923
-0.0559625
0.00042301
-0.0568117
0.000618553
-0.0577447
0.00100934
-0.0588167
0.00146701
-0.0600503
0.00188731
-0.061428
0.00211469
-0.0628968
0.00221107
-0.0643441
0.00217485
-0.0657348
0.0021275
-0.0669581
0.00196101
-0.0679348
0.00175551
-0.0685771
0.00146685
-0.0687544
0.00100712
-0.0687284
0.000714691
-0.0684748
0.000362853
-0.0678847
-8.61323e-05
-0.0670769
-0.00035234
-0.0660624
-0.000621695
-0.0649859
-0.000677799
-0.063908
-0.000805221
-0.0627069
-0.00106697
-0.0612854
-0.00139086
-0.0596532
-0.00200317
-0.0578826
-0.00245386
-0.0560948
-0.00250878
-0.0541978
-0.00277647
-0.0521459
-0.00312127
-0.049947
-0.00334456
-0.0475259
-0.00365912
-0.0448784
-0.00396894
-0.0419481
-0.00438998
-0.0387617
-0.00478429
-0.0354157
-0.00505732
-0.0319681
-0.00526067
-0.0284078
-0.00542908
-0.0247284
-0.00549399
-0.0211413
-0.00525875
-0.0180426
-0.00471091
-0.0156325
-0.00407585
-0.0138937
-0.00354709
-0.0123434
-0.003314
-0.0107136
-0.00314882
-0.00903543
-0.00295841
-0.00738055
-0.00273599
-0.00581223
-0.00253445
-0.00432465
-0.00253135
-0.00280045
-0.0026336
-0.000694301
-0.00278169
0.00156811
-0.00251303
0.0033723
-0.00197844
0.00470739
-0.00144537
0.00569231
-0.00101517
0.00644368
-0.00075103
0.00698456
-0.000502891
0.00725819
-7.2197e-05
0.0073075
0.000245094
0.00727567
0.000397143
0.00716167
0.000494954
0.00700974
0.000464546
0.00685308
0.000354312
0.00672331
0.000280148
0.00649243
0.000403113
0.00615973
0.00051368
0.00569002
0.000726971
0.00506633
0.00100173
0.00429104
0.00124839
0.00338012
0.00141827
0.00234138
0.00151101
0.00115432
0.0015836
-0.000202848
0.0016841
-0.00168295
0.0018141
-0.00292207
0.00162199
-0.0035969
0.00122042
-0.00420418
0.00117945
-0.0048102
0.00109421
-0.0053983
0.000873637
-0.00593463
0.000594562
-0.00634765
0.000358747
-0.00666641
-9.38879e-06
-0.00683264
-0.000238579
-0.00717903
0.000276762
-0.00806029
0.00108054
-0.00911494
0.0015208
-0.0102141
0.00149247
-0.0112465
0.00114075
-0.0122271
0.000911471
-0.0131892
0.000842637
-0.0141662
0.000858218
-0.015191
0.0010183
-0.0162784
0.00130554
-0.0173886
0.00147561
-0.018537
0.00137845
-0.0197529
0.00132295
-0.020992
0.0013767
-0.0222311
0.00149925
-0.0235036
0.00166328
-0.02482
0.00181764
-0.0261121
0.00180485
-0.0273793
0.00176261
-0.0286641
0.00178992
-0.0299738
0.00185607
-0.0312499
0.00183546
-0.032415
0.00163383
-0.0335067
0.0014731
-0.0345236
0.00136895
-0.0354216
0.00117796
-0.0362413
0.00104824
-0.0369701
0.000972534
-0.0375337
0.000790262
-0.0379419
0.000571913
-0.0382021
0.000355305
-0.0383576
0.000218412
-0.038418
9.93448e-05
-0.0384288
5.90734e-06
-0.0383343
-0.000130677
-0.0381831
-0.000242129
-0.0379299
-0.000447245
-0.0375818
-0.000615109
-0.0371671
-0.000752917
-0.0366978
-0.000860632
-0.0361806
-0.000954962
-0.0356438
-0.000988902
-0.0351001
-0.000998885
-0.0345429
-0.00103652
-0.0339442
-0.00114563
-0.0333108
-0.00122731
-0.0326734
-0.00121512
-0.0320566
-0.00115767
-0.0314634
-0.00113189
-0.0308454
-0.00124672
-0.0301725
-0.00142233
-0.0294688
-0.00146363
-0.0288178
-0.00133176
-0.0287409
-0.000804291
-0.0286873
-0.000576928
-0.0285118
-0.000707023
-0.0282494
-0.000778924
-0.027946
-0.000782094
-0.0276115
-0.000832678
-0.0272496
-0.000918525
-0.026901
-0.000830777
-0.026566
-0.000757645
-0.0262495
-0.000687946
-0.0259564
-0.000615356
-0.0256853
-0.000564363
-0.0254317
-0.000534806
-0.0251962
-0.000495055
-0.0249746
-0.000456139
-0.0247666
-0.000408031
-0.0245695
-0.000366435
-0.0243889
-0.000316053
-0.0242216
-0.000284902
-0.0240648
-0.000258058
-0.0239155
-0.000230653
-0.0237698
-0.000209824
-0.0236233
-0.000196185
-0.0234809
-0.00016438
-0.0233408
-0.000136816
-0.0232016
-0.000115037
-0.0230611
-0.000101464
-0.022919
-8.70657e-05
-0.0227739
-7.60512e-05
-0.0226224
-7.3789e-05
-0.0224656
-6.93629e-05
-0.0223033
-6.28769e-05
-0.0221355
-5.58241e-05
-0.0219617
-5.00992e-05
-0.0217816
-4.63339e-05
-0.0215944
-4.62813e-05
-0.0213998
-4.77315e-05
-0.0211992
-4.53492e-05
-0.0209925
-4.43273e-05
-0.0207797
-4.47869e-05
-0.0205613
-4.56202e-05
-0.0203378
-4.60153e-05
-0.0201097
-4.67301e-05
-0.0198775
-4.76188e-05
-0.0196419
-4.86448e-05
-0.0194033
-4.98142e-05
-0.0191624
-5.09207e-05
-0.01892
-5.18841e-05
-0.0186766
-5.25923e-05
-0.018433
-5.29253e-05
-0.0181901
-5.29219e-05
-0.0179486
-5.26645e-05
-0.0177092
-5.22359e-05
-0.0174728
-5.175e-05
-0.0172402
-5.13028e-05
-0.0170121
-5.08517e-05
-0.0167893
-5.02704e-05
-0.0165724
-4.9484e-05
-0.0163622
-4.84773e-05
-0.0161593
-4.72945e-05
-0.0159643
-4.60069e-05
-0.0157778
-4.46543e-05
-0.0156003
-4.334e-05
-0.0154324
-4.20565e-05
-0.0152745
-4.07826e-05
-0.015127
-3.94732e-05
-0.0149901
-3.81276e-05
-0.014864
-3.67964e-05
-0.0147488
-3.54972e-05
-0.0146451
-3.4251e-05
-0.0145539
-3.30307e-05
-0.0144759
-3.18545e-05
-0.014409
-3.07412e-05
-0.0143523
-2.97588e-05
-0.0143072
-2.92038e-05
-0.0142736
-2.89751e-05
-0.0142509
-2.86645e-05
-0.0142438
-2.55199e-05
-0.0142455
-2.5581e-05
-0.014262
-2.62691e-05
-0.0142903
-2.58785e-05
-0.0143302
-2.57036e-05
-0.0143824
-2.55331e-05
-0.0144464
-2.54847e-05
-0.0145218
-2.56105e-05
-0.0146086
-2.58152e-05
-0.0147065
-2.61512e-05
-0.0148151
-2.65671e-05
-0.0149341
-2.70973e-05
-0.0150632
-2.77469e-05
-0.0152021
-2.84935e-05
-0.0153503
-2.93495e-05
-0.0155075
-3.03094e-05
-0.0156733
-3.13464e-05
-0.0158474
-3.24267e-05
-0.0160293
-3.35373e-05
-0.0162186
-3.46664e-05
-0.0164149
-3.58237e-05
-0.0166176
-3.7045e-05
-0.0168262
-3.83032e-05
-0.0170403
-3.95722e-05
-0.0172595
-4.08322e-05
-0.017483
-4.20872e-05
-0.0177105
-4.33288e-05
-0.0179415
-4.45191e-05
-0.0181752
-4.56645e-05
-0.0184113
-4.68514e-05
-0.0186492
-4.79534e-05
-0.0188882
-4.9073e-05
-0.0191277
-5.02857e-05
-0.0193673
-5.15491e-05
-0.0196062
-5.28807e-05
-0.0198439
-5.4238e-05
-0.0200797
-5.55768e-05
-0.020313
-5.68681e-05
-0.0205433
-5.80632e-05
-0.0207698
-5.91128e-05
-0.0209921
-6.00016e-05
-0.0212094
-6.07779e-05
-0.0214213
-6.15053e-05
-0.0216269
-6.22684e-05
-0.0218258
-6.30921e-05
-0.0220172
-6.39877e-05
-0.0222006
-6.49719e-05
-0.0223754
-6.59978e-05
-0.022541
-6.69807e-05
-0.0226969
-6.78775e-05
-0.0228425
-6.86756e-05
-0.0229773
-6.93879e-05
-0.0231007
-7.00555e-05
-0.0232122
-7.07284e-05
-0.0233113
-7.13968e-05
-0.0233975
-7.20592e-05
-0.0234708
-7.26648e-05
-0.023531
-7.32594e-05
-0.0235781
-7.38876e-05
-0.0236121
-7.52196e-05
-0.0236307
-7.52842e-05
-0.0236345
-7.48116e-05
-0.0236271
-7.15663e-05
-0.0235994
-7.34715e-05
-0.0235584
-7.40474e-05
-0.0235041
-7.40971e-05
-0.0234356
-7.39509e-05
-0.0233531
-7.37509e-05
-0.0232559
-7.34635e-05
-0.0231434
-7.31318e-05
-0.0230157
-7.27395e-05
-0.0228734
-7.23292e-05
-0.0227174
-7.18788e-05
-0.0225482
-7.13617e-05
-0.0223663
-7.07504e-05
-0.0221721
-7.00453e-05
-0.0219662
-6.92651e-05
-0.0217493
-6.84269e-05
-0.0215221
-6.75298e-05
-0.0212855
-6.65688e-05
-0.0210402
-6.55307e-05
-0.0207872
-6.44029e-05
-0.0205273
-6.31843e-05
-0.0202617
-6.18655e-05
-0.0199912
-6.04845e-05
-0.0197169
-5.90213e-05
-0.01944
-5.75098e-05
-0.0191614
-5.60105e-05
-0.0188822
-5.45745e-05
-0.0186035
-5.31719e-05
-0.0183264
-5.17122e-05
-0.0180519
-5.01173e-05
-0.0177809
-4.84732e-05
-0.0175145
-4.67702e-05
-0.0172537
-4.49758e-05
-0.0169994
-4.31396e-05
-0.0167524
-4.12234e-05
-0.0165138
-3.93403e-05
-0.0162841
-3.75938e-05
-0.0160642
-3.60006e-05
-0.0158549
-3.45365e-05
-0.0156568
-3.31564e-05
-0.0154707
-3.16972e-05
-0.0152972
-3.00384e-05
-0.0151368
-2.81873e-05
-0.0149899
-2.62574e-05
-0.0148568
-2.43539e-05
-0.0147375
-2.26415e-05
-0.014632
-2.11471e-05
-0.0145404
-1.99222e-05
-0.0144639
-1.89907e-05
-0.0144033
-1.81984e-05
-0.0143564
-1.52671e-05
-0.0143238
-1.51193e-05
-0.0143058
-1.38501e-05
-0.0143026
-1.31784e-05
-0.0143129
-1.08027e-05
-0.0143388
-1.11348e-05
-0.0143774
-9.77277e-06
-0.0144295
-8.88859e-06
-0.0144947
-8.13595e-06
-0.0145731
-7.3536e-06
-0.0146644
-6.61688e-06
-0.014768
-5.86402e-06
-0.0148835
-5.13428e-06
-0.0150104
-4.44876e-06
-0.0151482
-3.80699e-06
-0.0152965
-3.17826e-06
-0.0154548
-2.531e-06
-0.0156228
-1.9156e-06
-0.0157997
-1.29546e-06
-0.0159846
-7.39618e-07
-0.0161773
2.62444e-06
-0.0163768
3.09702e-06
-0.0165831
2.82015e-06
-0.0167952
2.96257e-06
-0.0170126
3.03343e-06
-0.0172347
3.21929e-06
-0.0174609
3.39185e-06
-0.0176903
3.58888e-06
-0.0179225
3.67051e-06
-0.0181567
3.79181e-06
-0.0183923
3.86218e-06
-0.0186285
3.81755e-06
-0.0188648
3.8741e-06
-0.0191003
3.88495e-06
-0.0193346
4.00693e-06
-0.0195669
4.31107e-06
-0.0197967
4.62302e-06
-0.0200233
4.94203e-06
-0.0202458
5.24663e-06
-0.020464
5.7015e-06
-0.020677
6.02076e-06
-0.0208839
6.19698e-06
-0.0210842
6.4309e-06
-0.0212772
6.44468e-06
-0.0214623
6.40516e-06
-0.0216389
6.16047e-06
-0.0218065
5.8005e-06
-0.0219646
5.33379e-06
-0.0221131
4.69881e-06
-0.0222512
4.12112e-06
-0.0223784
3.40842e-06
-0.0224938
2.54791e-06
-0.022597
1.65139e-06
-0.0226875
6.68503e-07
-0.0227656
2.43942e-06
-0.0228298
-1.49325e-06
-0.0228808
-2.84594e-06
-0.0229183
-4.65069e-06
-0.0229429
-6.44388e-06
-0.0229511
-1.00504e-05
-0.0229476
-7.4428e-06
-0.0229284
-1.13519e-05
-0.0228946
-1.38186e-05
-0.0228468
-1.56454e-05
-0.0227842
-1.78274e-05
-0.0227062
-2.0186e-05
-0.0226133
-2.26321e-05
-0.0225066
-2.46056e-05
-0.0223861
-2.67195e-05
-0.0222518
-2.89907e-05
-0.0221041
-3.1296e-05
-0.0219439
-3.35975e-05
-0.0217718
-3.59203e-05
-0.0215884
-3.81978e-05
-0.021394
-4.03938e-05
-0.0211887
-4.27637e-05
-0.0209728
-4.5341e-05
-0.0207472
-4.80153e-05
-0.0205128
-5.07745e-05
-0.0202705
-5.36363e-05
-0.0200208
-5.66354e-05
-0.0197643
-5.98205e-05
-0.0195017
-6.31826e-05
-0.0192336
-6.67773e-05
-0.0189603
-7.07588e-05
-0.0186823
-7.51901e-05
-0.0183998
-7.99461e-05
-0.0181134
-8.4991e-05
-0.0178234
-9.04047e-05
-0.0175302
-9.63009e-05
-0.0172343
-0.000102544
-0.0169361
-0.000108829
-0.0166352
-0.000116052
-0.016331
-0.000124289
-0.0160229
-0.000133488
-0.0157107
-0.000143485
-0.0153942
-0.000154228
-0.0150737
-0.000165464
-0.0147475
-0.000177848
-0.0144157
-0.000191152
-0.0140788
-0.000205138
-0.0137368
-0.000220181
-0.0133897
-0.000237794
-0.0130369
-0.00025943
-0.0126776
-0.000285236
-0.0123099
-0.000316593
-0.0119321
-0.000352573
-0.0115428
-0.000393931
-0.0111415
-0.000442831
-0.0107308
-0.000501664
-0.0103568
-0.000536221
-0.0102401
-0.000340599
-0.0101431
-0.000297607
-0.0100305
-0.000315466
-0.00991361
-0.000290918
-0.000108984
-0.000724203
0.000415542
-0.00140833
0.000388224
-0.00201012
3.00089e-05
-0.00255256
-0.000179911
-0.00307895
-0.000236065
-0.00361519
-0.000210973
-0.00417879
-0.000130544
-0.00478988
-1.31531e-05
-0.00544948
6.95608e-05
-0.00614872
0.000126507
-0.00689638
0.000180528
-0.00770159
0.000221028
-0.00856159
0.000240436
-0.00943838
0.000259336
-0.0102435
0.000303005
-0.0110444
0.00031877
-0.0118554
0.00028921
-0.0126617
0.000247026
-0.0134815
0.000460592
-0.0144706
0.000935438
-0.0155721
0.00106572
-0.0166599
0.000998225
-0.0177272
0.00109104
-0.0189252
0.00142437
-0.0205716
0.00214556
-0.0227716
0.00268649
-0.0252261
0.00277742
-0.0276601
0.00238579
-0.0299834
0.00181929
-0.0321748
0.00268986
-0.0342593
0.00327212
-0.0362413
0.00362535
-0.0379999
0.0039483
-0.0396408
0.00439549
-0.0415674
0.00495614
-0.0440365
0.00508702
-0.0466044
0.00499476
-0.0492351
0.00526848
-0.0521206
0.00559024
-0.0549499
0.0054265
-0.0570305
0.00371714
-0.0582757
0.00191945
-0.0589828
0.00115047
-0.0595355
0.0010157
-0.0601831
0.00126341
-0.0614694
0.00115264
-0.0623267
0.000481356
-0.0628806
-0.000385276
-0.0632959
-0.00101443
-0.063638
-0.00145134
-0.0639036
-0.0016441
-0.0640804
-0.00141205
-0.0635909
-0.00107355
-0.0632104
-0.00207535
-0.0633015
-0.00245035
-0.0635638
-0.00231751
-0.0640737
-0.00127455
-0.0636788
0.000106689
-0.0634953
0.000483678
-0.0635345
0.000445589
-0.0640241
0.000659553
-0.0647772
0.000887935
-0.0656246
0.00112071
-0.066488
0.00133256
-0.0672827
0.001652
-0.0679474
0.00200461
-0.0682859
0.00218955
-0.0687665
0.00260617
-0.0693366
0.00262626
-0.0698264
0.0025338
-0.0702863
0.00255351
-0.0706332
0.00226212
-0.0707335
0.00181119
-0.0706325
0.00134362
-0.0703915
0.000753144
-0.070016
0.000340203
-0.0695487
-9.4066e-05
-0.0689437
-0.000670644
-0.0681741
-0.0010929
-0.0671955
-0.00156362
-0.0660478
-0.00178125
-0.0649119
-0.00188985
-0.0636363
-0.00228336
-0.0621585
-0.00280214
-0.060491
-0.00359736
-0.0586661
-0.00419806
-0.056776
-0.00431326
-0.0547635
-0.00469755
-0.0526061
-0.00518102
-0.0503521
-0.00549729
-0.047853
-0.00604708
-0.0449995
-0.00670398
-0.0417092
-0.00755501
-0.0380011
-0.00836141
-0.0340304
-0.00889351
-0.029964
-0.00919095
-0.0259161
-0.00934134
-0.0219377
-0.00933434
-0.0180353
-0.00902251
-0.0142727
-0.0083339
-0.0106778
-0.00753082
-0.00707172
-0.00700336
-0.0034145
-0.00683008
0.000216632
-0.00663698
0.00380222
-0.00640356
0.00725557
-0.00605091
0.010301
-0.0054445
0.0125326
-0.00463405
0.013896
-0.00387038
0.0147121
-0.00347388
0.0154307
-0.00310754
0.0162002
-0.00262624
0.0169636
-0.00209069
0.0176526
-0.001588
0.0183176
-0.00130054
0.0189633
-0.00103487
0.0194549
-0.000451073
0.0198249
-1.28645e-05
0.0201945
0.000138155
0.0206085
0.000188391
0.021107
6.84346e-05
0.0214739
8.36015e-05
0.0215324
0.000309555
0.0213926
0.000623766
0.0208936
0.00108624
0.020084
0.00160336
0.0190764
0.00206884
0.017971
0.00240768
0.0168442
0.00259249
0.0157462
0.00265069
0.0146901
0.00267612
0.013613
0.00279201
0.0124122
0.00303962
0.0109275
0.00312321
0.00913827
0.003019
0.00724311
0.00307663
0.0052739
0.00305946
0.00323932
0.00289799
0.00115705
0.00265987
-0.00098777
0.00248144
-0.00331933
0.0022937
-0.00574387
0.00215108
-0.00771757
0.00219287
-0.00888528
0.00219993
-0.0100607
0.00264351
-0.0112807
0.0026526
-0.0124615
0.00225485
-0.0136021
0.00197833
-0.014707
0.00186726
-0.0157768
0.00184167
-0.0168137
0.00196208
-0.0178226
0.00221456
-0.0188417
0.00238557
-0.0202787
0.00271246
-0.0219974
0.00291744
-0.0235641
0.00282165
-0.0249749
0.00278242
-0.0263319
0.00288657
-0.0276583
0.00300433
-0.0288843
0.0028875
-0.030023
0.00275232
-0.0311532
0.00276641
-0.0322668
0.00281072
-0.0332892
0.0026946
-0.0341621
0.00233988
-0.0350266
0.00216775
-0.0357776
0.0019469
-0.0364209
0.00164614
-0.0370267
0.00147661
-0.0375127
0.00127798
-0.0378748
0.000970348
-0.0381683
0.0006818
-0.0384021
0.000404419
-0.0385803
0.000211794
-0.038705
3.63706e-05
-0.0387591
-0.000126409
-0.038722
-0.000354834
-0.0386298
-0.000520019
-0.0384581
-0.000804514
-0.0381934
-0.00106497
-0.0378562
-0.00127439
-0.0374506
-0.00145023
-0.0369808
-0.00160834
-0.036462
-0.00169042
-0.0359071
-0.00173516
-0.0353223
-0.00179992
-0.0346938
-0.00194832
-0.0340254
-0.00206449
-0.0333381
-0.00206689
-0.0326552
-0.00200217
-0.0319912
-0.00195573
-0.0313233
-0.00207214
-0.0306445
-0.00225479
-0.029983
-0.00227286
-0.0292819
-0.00217324
-0.0281261
-0.00204703
-0.0267868
-0.00204101
-0.0256915
-0.00192278
-0.0248046
-0.00178024
-0.0240559
-0.00164137
-0.0233915
-0.00160332
-0.0228097
-0.00160013
-0.0223682
-0.00136444
-0.0220307
-0.00117816
-0.0217768
-0.00101608
-0.0215808
-0.000877202
-0.0214123
-0.000790911
-0.0212543
-0.000742617
-0.0211113
-0.000679355
-0.0209749
-0.00062299
-0.0208359
-0.000567377
-0.0207085
-0.000504768
-0.0206086
-0.000419192
-0.0205272
-0.000360739
-0.0204613
-0.000308845
-0.0204048
-0.000261705
-0.0203441
-0.000233847
-0.0202751
-0.000217806
-0.0202152
-0.000165701
-0.0201644
-0.000117654
-0.0201148
-8.40781e-05
-0.020061
-6.41865e-05
-0.0200051
-4.17017e-05
-0.0199429
-2.70282e-05
-0.0198649
-3.10248e-05
-0.0197765
-2.74213e-05
-0.0196772
-2.28792e-05
-0.0195693
-1.58518e-05
-0.0194528
-1.05368e-05
-0.0193266
-8.46405e-06
-0.0191887
-1.26558e-05
-0.0190385
-1.93075e-05
-0.0188795
-1.93925e-05
-0.0187117
-2.1263e-05
-0.0185349
-2.54246e-05
-0.0183495
-3.01583e-05
-0.0181567
-3.38979e-05
-0.0179571
-3.79737e-05
-0.0177515
-4.21626e-05
-0.0175405
-4.63476e-05
-0.017325
-5.0552e-05