/*--------------------------------*- C++ -*----------------------------------*\
| =========                 |                                                 |
| \\      /  F ield         | OpenFOAM: The Open Source CFD Toolbox           |
|  \\    /   O peration     | Version:  v1812                                 |
|   \\  /    A nd           | Web:      www.OpenFOAM.com                      |
|    \\/     M anipulation  |                                                 |
\*---------------------------------------------------------------------------*/
FoamFile
{
    version     2.0;
    format      ascii;
    class       volScalarField;
    location    "0.6";
    object      T;
}
// * * * * * * * * * * * * * * * * * * * * * * * * * * * * * * * * * * * * * //

dimensions      [0 0 0 1 0 0 0];


internalField   nonuniform List<scalar> 
20400
(
291.18
291.145
291.086
291.007
290.915
290.82
290.728
290.644
290.574
290.52
290.482
290.462
290.457
290.469
290.494
290.529
290.57
290.615
290.653
290.71
290.763
290.81
290.851
290.879
290.888
290.871
290.812
290.707
290.541
290.347
290.135
289.938
289.803
289.755
289.78
289.967
290.284
290.709
291.192
291.693
292.182
292.636
293.038
293.367
293.633
293.835
293.983
294.084
294.137
294.146
294.128
294.061
293.936
293.781
293.613
293.445
293.255
293.059
292.872
292.689
292.515
292.349
292.192
292.039
291.892
291.753
291.626
291.512
291.409
291.322
291.247
291.181
291.121
291.067
291.017
290.972
290.931
290.897
290.866
290.84
290.811
290.784
290.755
290.73
290.701
290.673
290.643
290.617
290.593
290.565
290.537
290.507
290.478
290.453
290.435
290.428
290.441
290.468
290.504
290.543
290.586
290.635
290.696
290.761
290.832
290.904
290.973
291.046
291.125
291.201
291.266
291.336
291.397
291.448
291.489
291.526
291.551
291.569
291.586
291.601
291.616
291.628
291.638
291.64
291.637
291.626
291.609
291.587
291.561
291.535
291.509
291.486
291.464
291.443
291.425
291.406
291.384
291.361
291.341
291.319
291.296
291.271
291.244
291.23
291.216
291.205
291.195
291.186
291.18
291.176
291.173
291.172
291.175
291.184
291.192
291.199
291.209
291.222
291.236
291.256
291.279
291.302
291.328
291.354
291.384
291.414
291.445
291.48
291.516
291.551
291.588
291.626
291.666
291.708
291.752
291.799
291.846
291.893
291.943
291.992
292.043
292.096
292.149
292.203
292.258
292.314
292.371
292.428
292.484
292.538
292.592
292.646
292.7
292.752
292.803
292.854
292.895
292.94
292.981
293.021
293.058
293.095
293.127
293.157
293.184
293.208
293.23
293.251
293.269
293.285
293.298
293.31
293.32
293.328
293.334
293.339
293.343
293.345
293.345
293.344
293.341
293.337
293.332
293.325
293.318
293.309
293.299
293.288
293.277
293.264
293.251
293.237
293.222
293.207
293.191
293.175
293.158
293.141
293.124
293.107
293.089
293.071
293.054
293.036
293.019
293.001
292.984
292.968
292.951
292.935
292.92
292.905
292.891
292.878
292.865
292.853
292.842
292.832
292.822
292.814
292.806
292.8
292.794
292.79
292.786
292.784
292.782
292.782
292.783
292.784
292.787
292.791
292.795
292.801
292.808
292.816
292.825
292.835
292.846
292.857
292.87
292.883
292.897
292.912
292.928
292.944
292.961
292.979
292.997
293.016
293.035
293.054
293.074
293.094
293.114
293.135
293.156
293.177
293.197
293.219
293.24
293.261
293.282
293.302
293.323
293.344
293.364
293.384
293.404
293.424
293.443
293.462
293.48
293.498
293.516
293.533
293.55
293.566
293.582
293.597
293.611
293.625
293.638
293.65
293.662
293.673
293.683
293.693
293.701
293.709
293.716
293.722
293.728
293.732
293.736
293.738
293.739
293.74
293.739
293.738
293.736
293.733
293.728
293.723
293.717
293.709
293.701
293.692
293.682
293.671
293.659
293.647
293.634
293.62
293.606
293.592
293.577
293.561
293.546
293.53
293.514
293.498
293.483
293.467
293.452
293.437
293.422
293.408
293.394
293.381
293.368
293.356
293.345
293.335
293.325
293.316
293.309
293.302
293.296
293.291
293.287
293.284
293.282
293.281
293.282
293.283
293.285
293.287
293.291
293.296
293.301
293.307
293.314
293.322
293.33
293.34
293.349
293.36
293.371
293.382
293.394
293.406
293.419
293.431
293.445
293.458
293.471
293.485
293.498
293.512
293.526
293.54
293.554
293.567
293.581
293.594
293.608
293.621
293.634
293.647
293.66
293.672
293.684
293.696
293.708
293.719
293.73
293.741
293.752
293.762
293.771
293.781
293.79
293.798
293.807
293.815
293.822
293.829
293.836
293.842
293.848
293.854
293.859
293.863
293.868
293.871
293.875
293.878
293.88
293.882
293.884
293.885
293.885
293.885
293.885
293.884
293.883
293.881
293.88
293.878
293.875
293.873
293.87
293.866
293.863
293.86
293.857
293.853
293.85
293.847
293.844
293.841
293.838
293.835
293.833
293.831
293.829
293.828
293.826
293.826
293.825
293.825
293.825
293.825
293.825
293.824
293.822
293.819
293.815
293.81
293.805
293.803
293.804
293.81
293.819
293.83
293.841
293.852
293.861
293.878
291.112
291.072
291.002
290.911
290.809
290.704
290.605
290.517
290.445
290.389
290.351
290.332
290.329
290.344
290.37
290.411
290.461
290.513
290.561
290.618
290.67
290.722
290.773
290.808
290.815
290.796
290.718
290.579
290.372
290.157
289.973
289.853
289.816
289.846
290.046
290.414
290.916
291.47
292.013
292.498
292.913
293.241
293.463
293.63
293.738
293.788
293.791
293.778
293.735
293.668
293.594
293.46
293.231
293.029
292.871
292.719
292.557
292.328
292.169
292.002
291.838
291.679
291.526
291.377
291.237
291.103
290.973
290.85
290.737
290.633
290.532
290.435
290.34
290.243
290.154
290.077
290.005
289.943
289.886
289.836
289.785
289.729
289.675
289.624
289.574
289.529
289.486
289.445
289.403
289.36
289.317
289.274
289.236
289.205
289.182
289.171
289.181
289.216
289.267
289.321
289.372
289.413
289.465
289.528
289.599
289.676
289.756
289.839
289.93
290.05
290.172
290.296
290.42
290.53
290.621
290.697
290.755
290.793
290.821
290.844
290.871
290.906
290.956
291.016
291.079
291.138
291.188
291.226
291.253
291.27
291.28
291.288
291.298
291.31
291.334
291.35
291.358
291.36
291.355
291.341
291.319
291.286
291.256
291.223
291.197
291.17
291.143
291.117
291.093
291.072
291.057
291.045
291.035
291.028
291.022
291.022
291.027
291.034
291.043
291.056
291.07
291.084
291.099
291.112
291.128
291.146
291.168
291.193
291.217
291.242
291.269
291.297
291.327
291.361
291.398
291.435
291.475
291.513
291.554
291.596
291.641
291.688
291.737
291.788
291.841
291.895
291.952
292.011
292.07
292.129
292.188
292.249
292.313
292.378
292.453
292.507
292.563
292.617
292.671
292.724
292.777
292.829
292.878
292.925
292.967
293.005
293.041
293.073
293.104
293.131
293.155
293.175
293.193
293.209
293.223
293.235
293.245
293.252
293.258
293.261
293.262
293.262
293.26
293.257
293.252
293.245
293.238
293.229
293.219
293.207
293.195
293.182
293.169
293.154
293.139
293.123
293.107
293.09
293.073
293.055
293.038
293.02
293.003
292.985
292.968
292.95
292.933
292.917
292.9
292.885
292.869
292.855
292.841
292.827
292.815
292.803
292.792
292.781
292.772
292.764
292.756
292.75
292.744
292.74
292.736
292.734
292.733
292.732
292.733
292.735
292.738
292.742
292.746
292.752
292.759
292.767
292.776
292.786
292.797
292.809
292.821
292.835
292.849
292.864
292.88
292.896
292.913
292.931
292.949
292.967
292.986
293.006
293.025
293.046
293.066
293.086
293.107
293.128
293.149
293.17
293.191
293.212
293.232
293.253
293.274
293.294
293.314
293.334
293.354
293.373
293.392
293.411
293.429
293.447
293.465
293.482
293.498
293.514
293.529
293.544
293.558
293.572
293.585
293.597
293.609
293.62
293.63
293.639
293.647
293.655
293.662
293.668
293.673
293.677
293.681
293.684
293.685
293.685
293.685
293.683
293.681
293.678
293.673
293.668
293.661
293.654
293.645
293.636
293.626
293.615
293.603
293.591
293.578
293.564
293.55
293.535
293.52
293.505
293.489
293.473
293.457
293.441
293.426
293.41
293.394
293.379
293.364
293.35
293.336
293.323
293.31
293.298
293.287
293.277
293.267
293.258
293.251
293.244
293.238
293.233
293.229
293.226
293.224
293.224
293.224
293.225
293.227
293.23
293.233
293.238
293.244
293.25
293.257
293.265
293.273
293.283
293.293
293.303
293.314
293.325
293.337
293.35
293.362
293.375
293.388
293.401
293.415
293.428
293.442
293.455
293.469
293.482
293.496
293.509
293.523
293.536
293.549
293.562
293.575
293.587
293.599
293.612
293.624
293.635
293.647
293.658
293.668
293.679
293.689
293.699
293.708
293.717
293.726
293.735
293.743
293.751
293.758
293.765
293.772
293.778
293.783
293.789
293.794
293.798
293.803
293.807
293.81
293.813
293.815
293.817
293.819
293.82
293.82
293.821
293.821
293.82
293.819
293.818
293.816
293.814
293.812
293.809
293.807
293.804
293.801
293.797
293.794
293.791
293.788
293.784
293.781
293.778
293.776
293.773
293.771
293.769
293.767
293.765
293.764
293.763
293.762
293.762
293.762
293.761
293.76
293.758
293.755
293.751
293.747
293.743
293.742
293.743
293.748
293.756
293.769
293.775
293.786
293.796
293.808
293.832
290.969
290.914
290.823
290.709
290.583
290.459
290.346
290.251
290.178
290.127
290.098
290.088
290.098
290.125
290.168
290.221
290.284
290.349
290.416
290.476
290.54
290.604
290.671
290.721
290.737
290.725
290.64
290.478
290.262
290.087
289.983
289.953
290.02
290.264
290.632
291.129
291.705
292.271
292.755
293.128
293.389
293.526
293.569
293.58
293.519
293.437
293.306
293.172
293.031
292.881
292.715
292.531
292.367
292.154
291.976
291.828
291.684
291.549
291.399
291.227
291.064
290.902
290.738
290.571
290.417
290.275
290.148
290.004
289.876
289.762
289.639
289.52
289.407
289.302
289.207
289.125
289.054
288.989
288.93
288.878
288.825
288.769
288.715
288.663
288.611
288.559
288.505
288.452
288.398
288.34
288.284
288.231
288.182
288.138
288.101
288.07
288.048
288.038
288.043
288.06
288.077
288.101
288.134
288.175
288.227
288.29
288.363
288.438
288.515
288.602
288.71
288.843
288.994
289.148
289.287
289.409
289.503
289.565
289.599
289.621
289.641
289.675
289.735
289.819
289.93
290.058
290.192
290.319
290.435
290.536
290.624
290.704
290.779
290.848
290.919
291.001
291.085
291.162
291.228
291.284
291.331
291.356
291.352
291.325
291.272
291.228
291.183
291.13
291.07
291.01
290.958
290.912
290.875
290.831
290.802
290.784
290.769
290.758
290.751
290.748
290.749
290.75
290.749
290.747
290.75
290.755
290.767
290.783
290.799
290.817
290.837
290.857
290.881
290.907
290.936
290.964
290.991
291.019
291.047
291.074
291.103
291.132
291.161
291.191
291.222
291.253
291.286
291.321
291.357
291.395
291.434
291.476
291.525
291.582
291.644
291.725
291.805
291.885
291.969
292.054
292.14
292.228
292.314
292.397
292.473
292.543
292.607
292.669
292.729
292.785
292.835
292.879
292.917
292.951
292.983
293.013
293.04
293.064
293.083
293.099
293.112
293.122
293.13
293.136
293.139
293.14
293.139
293.135
293.131
293.124
293.116
293.107
293.096
293.084
293.071
293.057
293.042
293.026
293.01
292.993
292.976
292.959
292.941
292.924
292.907
292.889
292.872
292.855
292.839
292.823
292.807
292.793
292.778
292.765
292.752
292.74
292.728
292.718
292.708
292.7
292.692
292.685
292.68
292.675
292.672
292.669
292.668
292.667
292.668
292.67
292.672
292.676
292.68
292.686
292.693
292.701
292.71
292.719
292.73
292.742
292.754
292.768
292.782
292.797
292.812
292.828
292.845
292.863
292.881
292.899
292.918
292.937
292.957
292.977
292.997
293.018
293.038
293.059
293.08
293.101
293.121
293.142
293.163
293.184
293.204
293.224
293.244
293.264
293.284
293.303
293.322
293.34
293.359
293.376
293.394
293.41
293.427
293.442
293.458
293.472
293.486
293.5
293.512
293.525
293.536
293.547
293.557
293.566
293.574
293.582
293.589
293.595
293.6
293.604
293.607
293.61
293.611
293.612
293.611
293.61
293.607
293.604
293.599
293.594
293.587
293.58
293.571
293.562
293.551
293.54
293.528
293.516
293.502
293.489
293.474
293.459
293.444
293.428
293.412
293.396
293.38
293.364
293.348
293.332
293.316
293.301
293.286
293.271
293.257
293.243
293.23
293.218
293.207
293.196
293.186
293.177
293.169
293.162
293.156
293.151
293.147
293.144
293.141
293.14
293.14
293.141
293.143
293.145
293.148
293.153
293.159
293.165
293.172
293.179
293.188
293.197
293.207
293.217
293.228
293.239
293.251
293.263
293.275
293.288
293.301
293.314
293.327
293.341
293.354
293.368
293.381
293.395
293.408
293.421
293.434
293.447
293.46
293.473
293.486
293.498
293.51
293.522
293.534
293.545
293.556
293.567
293.578
293.588
293.598
293.608
293.617
293.626
293.634
293.643
293.651
293.658
293.665
293.672
293.678
293.684
293.69
293.695
293.699
293.703
293.708
293.711
293.714
293.717
293.719
293.72
293.721
293.722
293.723
293.722
293.722
293.721
293.719
293.718
293.715
293.713
293.71
293.707
293.704
293.7
293.696
293.693
293.689
293.685
293.681
293.677
293.673
293.669
293.665
293.662
293.658
293.655
293.652
293.65
293.648
293.645
293.643
293.641
293.639
293.637
293.635
293.632
293.629
293.625
293.621
293.617
293.614
293.614
293.615
293.619
293.625
293.643
293.657
293.672
293.69
293.719
290.771
290.697
290.576
290.428
290.271
290.122
289.994
289.895
289.825
289.782
289.764
289.766
289.79
289.832
289.888
289.957
290.035
290.118
290.201
290.285
290.366
290.449
290.535
290.606
290.642
290.638
290.563
290.404
290.229
290.126
290.101
290.19
290.472
290.901
291.443
292.027
292.585
293.034
293.329
293.468
293.5
293.466
293.338
293.172
292.996
292.801
292.603
292.412
292.233
292.058
291.889
291.711
291.552
291.368
291.216
291.081
290.95
290.821
290.663
290.503
290.345
290.184
290.023
289.869
289.724
289.588
289.456
289.353
289.244
289.132
289.042
288.964
288.891
288.837
288.792
288.755
288.723
288.694
288.661
288.63
288.598
288.567
288.537
288.51
288.478
288.439
288.384
288.332
288.28
288.219
288.156
288.089
288.016
287.94
287.866
287.797
287.733
287.673
287.618
287.567
287.53
287.504
287.486
287.48
287.485
287.503
287.535
287.573
287.609
287.648
287.702
287.772
287.863
287.975
288.103
288.227
288.33
288.403
288.44
288.456
288.471
288.497
288.549
288.627
288.729
288.845
288.969
289.091
289.216
289.345
289.485
289.638
289.802
289.959
290.101
290.237
290.374
290.52
290.674
290.835
291.002
291.162
291.282
291.333
291.33
291.294
291.256
291.202
291.114
291.005
290.896
290.802
290.721
290.652
290.588
290.536
290.495
290.463
290.437
290.418
290.406
290.397
290.388
290.379
290.379
290.388
290.405
290.432
290.465
290.501
290.542
290.588
290.638
290.69
290.741
290.79
290.835
290.875
290.914
290.947
290.976
291.001
291.021
291.036
291.046
291.052
291.055
291.055
291.052
291.047
291.042
291.037
291.029
291.024
291.024
291.03
291.045
291.074
291.116
291.171
291.238
291.325
291.421
291.519
291.619
291.718
291.814
291.913
292.018
292.122
292.219
292.305
292.379
292.445
292.506
292.566
292.625
292.681
292.73
292.773
292.809
292.841
292.87
292.896
292.919
292.937
292.952
292.964
292.972
292.978
292.982
292.982
292.981
292.977
292.971
292.964
292.954
292.943
292.931
292.918
292.903
292.888
292.873
292.856
292.84
292.823
292.807
292.79
292.774
292.758
292.742
292.727
292.713
292.699
292.686
292.674
292.662
292.651
292.642
292.633
292.625
292.618
292.612
292.608
292.604
292.601
292.6
292.6
292.6
292.602
292.604
292.608
292.612
292.618
292.624
292.632
292.641
292.65
292.661
292.673
292.685
292.698
292.712
292.727
292.742
292.758
292.775
292.792
292.81
292.828
292.847
292.866
292.886
292.906
292.926
292.946
292.967
292.987
293.008
293.029
293.049
293.07
293.091
293.111
293.131
293.151
293.171
293.191
293.21
293.229
293.248
293.267
293.285
293.302
293.319
293.336
293.352
293.367
293.382
293.397
293.41
293.424
293.436
293.448
293.459
293.469
293.479
293.488
293.496
293.503
293.51
293.516
293.52
293.525
293.528
293.53
293.531
293.531
293.531
293.529
293.526
293.523
293.518
293.513
293.506
293.498
293.489
293.48
293.469
293.458
293.446
293.433
293.42
293.405
293.391
293.376
293.36
293.344
293.328
293.312
293.295
293.279
293.263
293.247
293.231
293.215
293.2
293.185
293.17
293.157
293.144
293.131
293.12
293.109
293.099
293.09
293.081
293.074
293.068
293.063
293.058
293.055
293.053
293.051
293.051
293.052
293.054
293.056
293.059
293.064
293.069
293.075
293.082
293.089
293.098
293.107
293.116
293.126
293.137
293.148
293.16
293.172
293.184
293.197
293.209
293.222
293.235
293.249
293.262
293.275
293.288
293.302
293.315
293.328
293.341
293.353
293.366
293.379
293.391
293.403
293.415
293.426
293.438
293.449
293.46
293.471
293.481
293.491
293.501
293.51
293.519
293.528
293.536
293.544
293.552
293.559
293.566
293.573
293.579
293.584
293.59
293.594
293.599
293.603
293.607
293.61
293.613
293.615
293.617
293.619
293.62
293.621
293.621
293.62
293.62
293.618
293.617
293.615
293.613
293.61
293.607
293.604
293.601
293.597
293.594
293.59
293.586
293.582
293.578
293.574
293.57
293.566
293.563
293.559
293.556
293.553
293.55
293.548
293.545
293.543
293.541
293.54
293.538
293.537
293.536
293.535
293.533
293.532
293.53
293.528
293.526
293.525
293.525
293.525
293.529
293.534
293.542
293.554
293.567
293.589
290.538
290.441
290.283
290.098
289.907
289.734
289.595
289.495
289.433
289.403
289.396
289.415
289.455
289.512
289.583
289.667
289.761
289.859
289.962
290.07
290.175
290.282
290.39
290.483
290.534
290.539
290.48
290.356
290.257
290.226
290.306
290.58
291.016
291.579
292.204
292.778
293.213
293.453
293.528
293.519
293.37
293.141
292.887
292.639
292.397
292.167
291.947
291.745
291.559
291.385
291.22
291.063
290.928
290.771
290.633
290.5
290.378
290.242
290.109
289.971
289.826
289.683
289.543
289.412
289.292
289.185
289.092
289.018
288.96
288.913
288.881
288.862
288.857
288.861
288.882
288.912
288.935
288.959
288.971
288.979
288.981
288.985
288.993
289
289.002
288.988
288.924
288.861
288.787
288.692
288.592
288.48
288.358
288.23
288.099
287.971
287.845
287.727
287.621
287.531
287.455
287.39
287.329
287.276
287.235
287.204
287.188
287.184
287.186
287.188
287.2
287.222
287.258
287.309
287.383
287.462
287.533
287.586
287.618
287.636
287.653
287.679
287.721
287.776
287.848
287.923
287.996
288.063
288.133
288.217
288.325
288.468
288.645
288.841
289.033
289.212
289.378
289.542
289.719
289.931
290.196
290.519
290.86
291.127
291.255
291.293
291.327
291.345
291.298
291.154
290.985
290.842
290.72
290.604
290.49
290.385
290.302
290.242
290.195
290.159
290.136
290.124
290.119
290.119
290.134
290.165
290.212
290.276
290.359
290.447
290.547
290.655
290.771
290.894
291.02
291.139
291.248
291.343
291.432
291.509
291.576
291.629
291.667
291.687
291.692
291.682
291.659
291.617
291.555
291.478
291.39
291.291
291.187
291.089
290.998
290.912
290.83
290.757
290.695
290.649
290.616
290.592
290.591
290.614
290.654
290.712
290.789
290.884
291.005
291.141
291.279
291.405
291.519
291.621
291.716
291.812
291.914
292.015
292.11
292.194
292.268
292.334
292.394
292.452
292.506
292.556
292.601
292.64
292.675
292.705
292.731
292.754
292.772
292.787
292.799
292.807
292.812
292.813
292.813
292.809
292.803
292.796
292.786
292.775
292.763
292.75
292.736
292.721
292.706
292.691
292.676
292.662
292.647
292.633
292.62
292.608
292.596
292.585
292.575
292.566
292.558
292.551
292.545
292.54
292.536
292.533
292.532
292.531
292.532
292.533
292.536
292.539
292.544
292.549
292.556
292.563
292.572
292.581
292.592
292.603
292.615
292.628
292.642
292.657
292.672
292.688
292.704
292.721
292.739
292.757
292.776
292.795
292.815
292.834
292.854
292.875
292.895
292.916
292.936
292.957
292.978
292.998
293.019
293.039
293.059
293.079
293.099
293.119
293.138
293.157
293.176
293.194
293.212
293.229
293.246
293.263
293.279
293.294
293.309
293.323
293.337
293.35
293.362
293.374
293.385
293.395
293.404
293.413
293.421
293.428
293.434
293.439
293.444
293.448
293.451
293.453
293.454
293.454
293.453
293.451
293.448
293.445
293.44
293.434
293.427
293.419
293.411
293.401
293.39
293.379
293.367
293.354
293.34
293.326
293.311
293.296
293.28
293.264
293.248
293.231
293.215
293.198
293.182
293.165
293.149
293.133
293.118
293.103
293.088
293.074
293.061
293.048
293.036
293.025
293.015
293.006
292.998
292.99
292.984
292.978
292.974
292.97
292.968
292.966
292.966
292.966
292.968
292.97
292.973
292.977
292.982
292.988
292.995
293.002
293.01
293.019
293.029
293.039
293.049
293.06
293.072
293.083
293.095
293.108
293.121
293.133
293.146
293.159
293.173
293.186
293.199
293.212
293.225
293.238
293.251
293.264
293.276
293.289
293.301
293.313
293.324
293.336
293.347
293.358
293.369
293.379
293.389
293.399
293.409
293.418
293.427
293.435
293.443
293.451
293.459
293.466
293.473
293.479
293.485
293.49
293.495
293.5
293.504
293.508
293.511
293.515
293.517
293.519
293.521
293.522
293.523
293.524
293.524
293.523
293.522
293.521
293.519
293.517
293.515
293.512
293.509
293.506
293.502
293.498
293.494
293.49
293.486
293.482
293.478
293.474
293.47
293.466
293.462
293.459
293.455
293.452
293.449
293.447
293.444
293.442
293.44
293.439
293.438
293.437
293.436
293.435
293.435
293.434
293.434
293.433
293.433
293.432
293.432
293.432
293.433
293.436
293.44
293.448
293.458
293.474
290.298
290.179
289.985
289.763
289.543
289.352
289.209
289.116
289.066
289.048
289.057
289.092
289.148
289.22
289.303
289.398
289.503
289.614
289.734
289.862
289.99
290.119
290.248
290.359
290.426
290.44
290.411
290.357
290.332
290.414
290.678
291.104
291.654
292.27
292.857
293.298
293.536
293.602
293.575
293.373
293.084
292.772
292.471
292.193
291.934
291.696
291.478
291.277
291.096
290.928
290.778
290.636
290.514
290.39
290.265
290.152
290.04
289.924
289.807
289.689
289.575
289.466
289.363
289.273
289.195
289.128
289.071
289.03
289.006
288.996
289.011
289.049
289.101
289.171
289.249
289.33
289.408
289.48
289.545
289.595
289.631
289.661
289.688
289.721
289.737
289.735
289.718
289.646
289.559
289.441
289.306
289.151
288.981
288.801
288.611
288.416
288.22
288.029
287.852
287.69
287.547
287.424
287.325
287.249
287.182
287.125
287.081
287.048
287.024
287.003
286.99
286.986
286.99
287.003
287.031
287.069
287.099
287.124
287.143
287.156
287.172
287.194
287.226
287.264
287.308
287.349
287.386
287.415
287.446
287.485
287.543
287.628
287.746
287.895
288.062
288.234
288.4
288.561
288.728
288.929
289.199
289.564
290.017
290.477
290.837
291.062
291.196
291.298
291.355
291.319
291.139
290.956
290.811
290.691
290.575
290.444
290.309
290.189
290.096
290.028
289.987
289.975
289.975
289.989
290.031
290.096
290.187
290.302
290.442
290.606
290.792
290.994
291.21
291.433
291.667
291.894
292.101
292.289
292.456
292.607
292.744
292.861
292.955
293.018
293.055
293.07
293.071
293.037
292.979
292.893
292.775
292.623
292.453
292.268
292.066
291.847
291.616
291.373
291.125
290.887
290.677
290.503
290.368
290.261
290.174
290.106
290.057
290.03
290.052
290.125
290.229
290.341
290.453
290.562
290.672
290.791
290.925
291.07
291.212
291.343
291.458
291.561
291.656
291.751
291.844
291.936
292.023
292.102
292.173
292.238
292.299
292.355
292.406
292.452
292.494
292.53
292.562
292.589
292.612
292.63
292.643
292.652
292.658
292.66
292.659
292.656
292.65
292.642
292.632
292.621
292.609
292.597
292.584
292.571
292.559
292.546
292.535
292.524
292.514
292.505
292.496
292.489
292.483
292.477
292.473
292.47
292.469
292.468
292.468
292.47
292.472
292.476
292.48
292.485
292.492
292.499
292.508
292.517
292.528
292.539
292.551
292.564
292.578
292.592
292.607
292.623
292.639
292.656
292.674
292.692
292.71
292.729
292.749
292.768
292.788
292.808
292.829
292.849
292.87
292.89
292.911
292.932
292.952
292.973
292.993
293.013
293.032
293.052
293.071
293.09
293.109
293.127
293.144
293.162
293.179
293.195
293.211
293.226
293.241
293.255
293.269
293.282
293.294
293.306
293.317
293.327
293.336
293.344
293.352
293.359
293.365
293.37
293.375
293.378
293.381
293.383
293.383
293.383
293.382
293.38
293.377
293.373
293.368
293.362
293.355
293.347
293.338
293.328
293.318
293.306
293.294
293.281
293.267
293.253
293.238
293.223
293.207
293.191
293.174
293.158
293.141
293.124
293.108
293.091
293.075
293.059
293.043
293.028
293.013
292.999
292.986
292.973
292.961
292.95
292.939
292.93
292.922
292.914
292.908
292.902
292.897
292.894
292.891
292.889
292.889
292.889
292.89
292.892
292.895
292.899
292.904
292.91
292.916
292.924
292.932
292.94
292.95
292.96
292.97
292.981
292.992
293.004
293.016
293.028
293.041
293.054
293.067
293.08
293.093
293.106
293.119
293.132
293.145
293.158
293.171
293.183
293.196
293.208
293.22
293.232
293.244
293.255
293.266
293.277
293.287
293.298
293.308
293.317
293.326
293.335
293.344
293.353
293.361
293.368
293.376
293.383
293.39
293.396
293.402
293.407
293.412
293.416
293.42
293.424
293.427
293.431
293.433
293.435
293.437
293.438
293.438
293.439
293.438
293.438
293.437
293.435
293.433
293.431
293.429
293.426
293.423
293.419
293.415
293.411
293.407
293.403
293.399
293.395
293.391
293.386
293.382
293.378
293.374
293.371
293.367
293.364
293.361
293.359
293.356
293.355
293.353
293.352
293.351
293.35
293.35
293.35
293.35
293.35
293.351
293.351
293.352
293.354
293.355
293.356
293.357
293.359
293.361
293.366
293.373
293.384
290.073
289.935
289.71
289.456
289.213
289.015
288.876
288.794
288.759
288.753
288.779
288.83
288.899
288.981
289.074
289.178
289.292
289.413
289.545
289.686
289.831
289.979
290.124
290.245
290.325
290.362
290.376
290.399
290.484
290.73
291.149
291.685
292.284
292.867
293.329
293.585
293.659
293.648
293.487
293.199
292.879
292.572
292.284
292.019
291.766
291.535
291.323
291.128
290.947
290.782
290.635
290.497
290.38
290.265
290.159
290.059
289.965
289.873
289.781
289.687
289.594
289.503
289.419
289.345
289.284
289.235
289.201
289.186
289.188
289.222
289.272
289.344
289.426
289.512
289.612
289.724
289.825
289.927
290.023
290.105
290.174
290.229
290.274
290.318
290.352
290.37
290.38
290.366
290.307
290.196
290.047
289.863
289.649
289.415
289.163
288.897
288.628
288.365
288.118
287.892
287.694
287.522
287.375
287.258
287.169
287.099
287.042
286.996
286.958
286.925
286.901
286.883
286.872
286.868
286.873
286.881
286.887
286.895
286.903
286.909
286.919
286.933
286.955
286.976
287
287.022
287.039
287.052
287.066
287.086
287.117
287.163
287.229
287.311
287.41
287.525
287.651
287.786
287.923
288.08
288.28
288.555
288.932
289.396
289.892
290.355
290.731
291.02
291.225
291.299
291.277
291.204
291.081
290.953
290.819
290.649
290.442
290.267
290.154
290.079
290.026
290
289.993
290.006
290.048
290.124
290.24
290.385
290.581
290.813
291.08
291.367
291.667
291.977
292.292
292.603
292.897
293.174
293.421
293.647
293.856
294.043
294.204
294.332
294.432
294.502
294.545
294.562
294.564
294.532
294.465
294.359
294.222
294.055
293.849
293.602
293.319
292.996
292.634
292.247
291.85
291.473
291.14
290.833
290.541
290.267
290.027
289.827
289.673
289.573
289.517
289.498
289.508
289.546
289.612
289.708
289.839
289.996
290.161
290.316
290.457
290.584
290.705
290.829
290.958
291.09
291.22
291.342
291.455
291.559
291.658
291.753
291.843
291.93
292.011
292.086
292.156
292.221
292.279
292.332
292.378
292.418
292.452
292.48
292.502
292.518
292.53
292.537
292.54
292.54
292.536
292.53
292.522
292.513
292.503
292.493
292.482
292.472
292.462
292.453
292.445
292.437
292.431
292.426
292.421
292.418
292.416
292.415
292.415
292.416
292.419
292.422
292.426
292.431
292.438
292.446
292.454
292.463
292.474
292.485
292.497
292.51
292.524
292.538
292.553
292.569
292.585
292.602
292.619
292.637
292.656
292.674
292.694
292.713
292.733
292.753
292.773
292.794
292.814
292.835
292.855
292.876
292.896
292.917
292.937
292.957
292.977
292.996
293.015
293.034
293.053
293.071
293.088
293.106
293.123
293.139
293.155
293.17
293.185
293.199
293.213
293.226
293.238
293.249
293.26
293.27
293.28
293.288
293.296
293.302
293.308
293.314
293.318
293.321
293.324
293.326
293.326
293.325
293.324
293.322
293.318
293.314
293.309
293.303
293.295
293.287
293.278
293.268
293.257
293.246
293.233
293.22
293.206
293.192
293.177
293.162
293.146
293.129
293.113
293.096
293.079
293.063
293.046
293.029
293.013
292.997
292.981
292.966
292.951
292.937
292.924
292.911
292.899
292.887
292.877
292.867
292.859
292.851
292.844
292.839
292.834
292.83
292.828
292.826
292.825
292.825
292.827
292.828
292.831
292.835
292.84
292.846
292.852
292.859
292.867
292.875
292.885
292.895
292.905
292.916
292.927
292.939
292.951
292.963
292.975
292.988
293.001
293.014
293.027
293.04
293.053
293.066
293.079
293.091
293.104
293.117
293.129
293.142
293.154
293.166
293.177
293.189
293.2
293.21
293.221
293.231
293.241
293.25
293.26
293.269
293.277
293.285
293.293
293.301
293.308
293.315
293.322
293.328
293.334
293.339
293.344
293.348
293.352
293.356
293.359
293.362
293.364
293.366
293.368
293.369
293.369
293.369
293.369
293.368
293.367
293.365
293.363
293.361
293.358
293.355
293.352
293.349
293.345
293.341
293.337
293.332
293.328
293.324
293.319
293.315
293.311
293.307
293.303
293.299
293.295
293.292
293.289
293.287
293.285
293.283
293.281
293.28
293.28
293.279
293.279
293.28
293.28
293.281
293.282
293.284
293.285
293.287
293.29
293.292
293.294
293.296
293.299
293.303
293.309
293.317
289.874
289.724
289.472
289.193
288.937
288.739
288.612
288.548
288.528
288.54
288.584
288.649
288.73
288.82
288.92
289.03
289.15
289.277
289.415
289.563
289.715
289.869
290.022
290.151
290.249
290.323
290.398
290.51
290.738
291.136
291.663
292.242
292.797
293.244
293.515
293.619
293.638
293.567
293.342
293.059
292.797
292.555
292.339
292.134
291.951
291.774
291.6
291.431
291.258
291.083
290.912
290.743
290.589
290.445
290.31
290.195
290.094
290.002
289.917
289.836
289.76
289.688
289.623
289.565
289.515
289.477
289.452
289.442
289.459
289.494
289.551
289.626
289.713
289.809
289.913
290.02
290.139
290.25
290.365
290.468
290.559
290.642
290.708
290.767
290.816
290.857
290.875
290.886
290.856
290.758
290.61
290.415
290.179
289.91
289.612
289.291
288.962
288.638
288.331
288.051
287.808
287.603
287.431
287.287
287.177
287.09
287.022
286.967
286.922
286.883
286.852
286.828
286.811
286.8
286.795
286.79
286.784
286.783
286.781
286.783
286.787
286.795
286.805
286.816
286.829
286.841
286.851
286.859
286.869
286.882
286.901
286.926
286.959
287
287.052
287.116
287.193
287.282
287.378
287.484
287.614
287.783
288.025
288.365
288.816
289.362
289.924
290.413
290.795
291.047
291.174
291.205
291.226
291.21
291.104
290.924
290.702
290.491
290.356
290.283
290.238
290.169
290.113
290.104
290.142
290.229
290.35
290.502
290.69
290.938
291.239
291.578
291.931
292.287
292.644
292.995
293.332
293.657
293.963
294.252
294.522
294.772
294.992
295.189
295.358
295.492
295.596
295.68
295.742