/*--------------------------------*- C++ -*----------------------------------*\
| =========                 |                                                 |
| \\      /  F ield         | OpenFOAM: The Open Source CFD Toolbox           |
|  \\    /   O peration     | Version:  v1812                                 |
|   \\  /    A nd           | Web:      www.OpenFOAM.com                      |
|    \\/     M anipulation  |                                                 |
\*---------------------------------------------------------------------------*/
FoamFile
{
    version     2.0;
    format      ascii;
    class       volVectorField;
    location    "0.6";
    object      U;
}
// * * * * * * * * * * * * * * * * * * * * * * * * * * * * * * * * * * * * * //

dimensions      [0 1 -1 0 0 0 0];


internalField   nonuniform List<vector> 
20400
(
(-0.137704 0.065291 0)
(-0.409805 0.0594597 0)
(-0.648863 -0.00289443 0)
(-0.836522 -0.0369381 0)
(-1.0027 -0.0465262 0)
(-1.16197 -0.0516732 0)
(-1.32695 -0.0614543 0)
(-1.50641 -0.0720194 0)
(-1.69816 -0.080419 0)
(-1.89495 -0.0870574 0)
(-2.09466 -0.0906371 0)
(-2.2939 -0.0841739 0)
(-2.48745 -0.0674108 0)
(-2.67806 -0.0483647 0)
(-2.86635 -8.60424e-05 0)
(-3.05636 0.0623245 0)
(-3.2423 0.136463 0)
(-3.44172 0.0699586 0)
(-3.53208 -0.438514 0)
(-3.71661 -0.241998 0)
(-3.95124 -0.233186 0)
(-4.17374 -0.280335 0)
(-4.40451 -0.397818 0)
(-4.66629 -0.528195 0)
(-4.87647 -0.655978 0)
(-4.97837 -0.710795 0)
(-5.04378 -0.331724 0)
(-4.99426 0.1142 0)
(-5.07169 0.292454 0)
(-5.16195 -0.487675 0)
(-5.51387 -0.752143 0)
(-5.90654 -0.797998 0)
(-6.38249 -0.818219 0)
(-6.9581 -0.785137 0)
(-7.54219 -0.575474 0)
(-7.88273 -0.0178861 0)
(-8.10764 0.414353 0)
(-8.46506 0.564637 0)
(-8.82817 0.601975 0)
(-9.22358 0.655017 0)
(-9.72681 0.543251 0)
(-10.2595 0.0452642 0)
(-10.6145 -0.663521 0)
(-10.9913 -0.862366 0)
(-11.219 0.643748 0)
(-11.3209 1.26836 0)
(-11.3466 1.13949 0)
(-11.3523 1.12667 0)
(-11.3077 1.36673 0)
(-11.2499 1.68663 0)
(-11.2319 1.89052 0)
(-11.1638 0.964561 0)
(-11.08 -1.85384 0)
(-10.8644 -0.32248 0)
(-10.6841 1.54462 0)
(-10.4275 2.00702 0)
(-10.2376 1.11562 0)
(-10.2245 -2.06088 0)
(-10.0807 -1.91377 0)
(-10.0063 -1.22437 0)
(-9.92474 -0.693264 0)
(-9.82379 -0.440812 0)
(-9.7155 -0.350921 0)
(-9.69461 -0.274961 0)
(-9.76729 -0.209077 0)
(-9.9236 -0.103453 0)
(-10.1633 -0.0255751 0)
(-10.4396 0.0156345 0)
(-10.7329 0.0509941 0)
(-11.0279 0.0725151 0)
(-11.3115 0.0986735 0)
(-11.5857 0.123114 0)
(-11.8619 0.150156 0)
(-12.1495 0.183545 0)
(-12.4428 0.155676 0)
(-12.7133 0.0839274 0)
(-12.9404 0.00703961 0)
(-13.1212 -0.0538718 0)
(-13.2741 -0.103765 0)
(-13.395 -0.165901 0)
(-13.5081 -0.198645 0)
(-13.5962 -0.206352 0)
(-13.6372 -0.221818 0)
(-13.6306 -0.182603 0)
(-13.5361 -0.205523 0)
(-13.3162 -0.22818 0)
(-13.0404 -0.217259 0)
(-12.7244 -0.222957 0)
(-12.3455 -0.197219 0)
(-11.9178 -0.123066 0)
(-11.4614 -0.0179736 0)
(-10.9739 0.137599 0)
(-10.4495 0.338934 0)
(-9.87509 0.553596 0)
(-9.25421 0.729862 0)
(-8.59445 0.844908 0)
(-7.90542 0.894191 0)
(-7.21151 0.86498 0)
(-6.54731 0.719731 0)
(-5.93343 0.443643 0)
(-5.32475 0.151598 0)
(-4.65625 0.0469383 0)
(-3.98002 0.0935678 0)
(-3.35484 0.154334 0)
(-2.80784 0.166906 0)
(-2.33036 0.142971 0)
(-1.90608 0.0810618 0)
(-1.49492 -0.0275662 0)
(-1.04467 -0.094983 0)
(-0.652701 -0.141534 0)
(-0.418679 -0.12334 0)
(-0.268587 -0.101098 0)
(-0.136563 -0.079078 0)
(-0.0347167 -0.051842 0)
(0.0466384 -0.0384731 0)
(0.121578 -0.0218227 0)
(0.159514 0.0310416 0)
(0.143811 0.059484 0)
(0.100848 0.0833224 0)
(0.0405184 0.0915736 0)
(-0.0160429 0.0713735 0)
(-0.0428545 0.0354549 0)
(-0.0393965 0.0217296 0)
(-0.0380866 0.0307428 0)
(-0.0497614 0.0358773 0)
(-0.073617 0.0638736 0)
(-0.139226 0.105948 0)
(-0.245682 0.139183 0)
(-0.377677 0.152819 0)
(-0.512967 0.143366 0)
(-0.632735 0.120011 0)
(-0.729815 0.0973642 0)
(-0.819519 0.098931 0)
(-0.926327 0.11855 0)
(-1.06788 0.0529249 0)
(-1.25014 0.00602404 0)
(-1.42847 -0.0496363 0)
(-1.56496 -0.151816 0)
(-1.61671 -0.25755 0)
(-1.63412 -0.256445 0)
(-1.5777 -0.233712 0)
(-1.46292 -0.148245 0)
(-1.38636 -0.0675965 0)
(-1.44437 0.0674238 0)
(-1.60479 0.131731 0)
(-1.79683 0.114817 0)
(-1.91987 0.0489209 0)
(-1.9723 0.02829 0)
(-1.99263 0.0352863 0)
(-2.00894 0.0419348 0)
(-2.04528 0.0763041 0)
(-2.14393 0.143829 0)
(-2.31577 0.195041 0)
(-2.49505 0.190658 0)
(-2.62721 0.170493 0)
(-2.74868 0.165769 0)
(-2.90184 0.190365 0)
(-3.10045 0.227614 0)
(-3.34399 0.261639 0)
(-3.61217 0.265876 0)
(-3.87983 0.26382 0)
(-4.14926 0.271291 0)
(-4.42995 0.288902 0)
(-4.72519 0.294751 0)
(-5.00965 0.270641 0)
(-5.26351 0.25114 0)
(-5.50174 0.238178 0)
(-5.7257 0.212779 0)
(-5.92843 0.198377 0)
(-6.12771 0.190295 0)
(-6.32957 0.167936 0)
(-6.519 0.137812 0)
(-6.68569 0.100956 0)
(-6.83658 0.07134 0)
(-6.98066 0.0451767 0)
(-7.11312 0.0109424 0)
(-7.2323 -0.0257735 0)
(-7.34065 -0.059874 0)
(-7.41757 -0.107156 0)
(-7.46749 -0.143634 0)
(-7.49316 -0.177513 0)
(-7.49856 -0.203956 0)
(-7.4838 -0.22557 0)
(-7.4591 -0.23824 0)
(-7.43264 -0.244731 0)
(-7.40131 -0.251245 0)
(-7.35172 -0.261832 0)
(-7.27767 -0.263484 0)
(-7.19598 -0.249636 0)
(-7.1215 -0.231197 0)
(-7.05284 -0.217751 0)
(-6.96805 -0.215533 0)
(-6.843 -0.222052 0)
(-6.69437 -0.20641 0)
(-6.54843 -0.179585 0)
(-6.42904 -0.0672811 0)
(-6.31875 0.000945302 0)
(-6.24288 0.0768764 0)
(-6.1459 0.115791 0)
(-6.05903 0.135908 0)
(-5.97138 0.134346 0)
(-5.8635 0.115697 0)
(-5.75345 0.117638 0)
(-5.66189 0.117086 0)
(-5.58075 0.113362 0)
(-5.51049 0.108169 0)
(-5.44826 0.0983293 0)
(-5.38716 0.0848463 0)
(-5.32598 0.0738253 0)
(-5.2662 0.0654254 0)
(-5.20987 0.0596585 0)
(-5.1571 0.0544364 0)
(-5.11046 0.048527 0)
(-5.0667 0.0407198 0)
(-5.02229 0.0322949 0)
(-4.97736 0.0250011 0)
(-4.93173 0.0189925 0)
(-4.8839 0.0140102 0)
(-4.83549 0.0110852 0)
(-4.7888 0.00872414 0)
(-4.74252 0.0059304 0)
(-4.69529 0.00266228 0)
(-4.6463 1.03387e-05 0)
(-4.59584 -0.00198357 0)
(-4.54264 -0.00404663 0)
(-4.48603 -0.0056426 0)
(-4.42701 -0.00626988 0)
(-4.36635 -0.00638188 0)
(-4.30411 -0.00631899 0)
(-4.24016 -0.00622817 0)
(-4.17402 -0.00633209 0)
(-4.1052 -0.00637235 0)
(-4.03434 -0.00581518 0)
(-3.9621 -0.00518456 0)
(-3.88826 -0.00465771 0)
(-3.81288 -0.00409618 0)
(-3.73621 -0.00342368 0)
(-3.65852 -0.00274948 0)
(-3.57996 -0.00210804 0)
(-3.5007 -0.00151812 0)
(-3.4209 -0.000984941 0)
(-3.34074 -0.000489206 0)
(-3.26045 -2.05722e-05 0)
(-3.18027 0.000438055 0)
(-3.10047 0.000903623 0)
(-3.02133 0.00136852 0)
(-2.94312 0.0018108 0)
(-2.86607 0.00220315 0)
(-2.79041 0.00252381 0)
(-2.71632 0.00276698 0)
(-2.64402 0.00295168 0)
(-2.5737 0.00310768 0)
(-2.50559 0.00325614 0)
(-2.43991 0.00340372 0)
(-2.37688 0.00354388 0)
(-2.31669 0.00366539 0)
(-2.2595 0.00376134 0)
(-2.20545 0.00382284 0)
(-2.15465 0.00384452 0)
(-2.10723 0.00384002 0)
(-2.06327 0.00382682 0)
(-2.02288 0.00381091 0)
(-1.98609 0.00378744 0)
(-1.95293 0.00375427 0)
(-1.92348 0.00370691 0)
(-1.89798 0.00364348 0)
(-1.87656 0.00356223 0)
(-1.85935 0.00346703 0)
(-1.8446 0.00335833 0)
(-1.83405 0.0032604 0)
(-1.82765 0.0032062 0)
(-1.82481 0.00327017 0)
(-1.82515 0.00290207 0)
(-1.82915 0.00241372 0)
(-1.83775 0.002374 0)
(-1.85006 0.00219237 0)
(-1.8659 0.00198799 0)
(-1.88544 0.00181997 0)
(-1.90865 0.0015932 0)
(-1.93536 0.00132805 0)
(-1.96546 0.00104183 0)
(-1.99887 0.000760272 0)
(-2.03549 0.0004711 0)
(-2.07521 0.00016916 0)
(-2.11791 -0.000145294 0)
(-2.16345 -0.00046603 0)
(-2.21172 -0.000797744 0)
(-2.26258 -0.0011435 0)
(-2.31591 -0.00149362 0)
(-2.37158 -0.00184391 0)
(-2.42944 -0.0021978 0)
(-2.48936 -0.00255676 0)
(-2.55116 -0.00291826 0)
(-2.61471 -0.0032827 0)
(-2.67984 -0.00364608 0)
(-2.74639 -0.00400262 0)
(-2.81422 -0.0043462 0)
(-2.88317 -0.00467492 0)
(-2.95309 -0.00498682 0)
(-3.02382 -0.00527645 0)
(-3.09522 -0.00554884 0)
(-3.1671 -0.00581823 0)
(-3.23931 -0.00606553 0)
(-3.31167 -0.00630984 0)
(-3.38398 -0.00656742 0)
(-3.45605 -0.00683368 0)
(-3.52765 -0.0071076 0)
(-3.5986 -0.00738141 0)
(-3.66869 -0.00764492 0)
(-3.73774 -0.00788893 0)
(-3.80558 -0.0081002 0)
(-3.87205 -0.00826723 0)
(-3.937 -0.0083886 0)
(-4.00028 -0.00847476 0)
(-4.06171 -0.00853923 0)
(-4.1211 -0.00860613 0)
(-4.17824 -0.00867967 0)
(-4.23292 -0.00876217 0)
(-4.28493 -0.00885556 0)
(-4.33408 -0.008944 0)
(-4.38017 -0.00900761 0)
(-4.42307 -0.00903714 0)
(-4.46264 -0.00903041 0)
(-4.49874 -0.00899355 0)
(-4.53122 -0.00893812 0)
(-4.55991 -0.00887603 0)
(-4.58464 -0.0088095 0)
(-4.60526 -0.00873757 0)
(-4.62166 -0.00865756 0)
(-4.63378 -0.00860113 0)
(-4.64145 -0.0085906 0)
(-4.64503 -0.00877499 0)
(-4.64407 -0.00834963 0)
(-4.6392 -0.00755839 0)
(-4.62971 -0.00735436 0)
(-4.61497 -0.00730561 0)
(-4.59591 -0.00715181 0)
(-4.57228 -0.00689659 0)
(-4.54406 -0.00658244 0)
(-4.51166 -0.00627867 0)
(-4.4749 -0.00596167 0)
(-4.43356 -0.00562803 0)
(-4.38755 -0.00527311 0)
(-4.337 -0.00490789 0)
(-4.28219 -0.00453635 0)
(-4.22338 -0.00415836 0)
(-4.16075 -0.00377487 0)
(-4.09442 -0.0033897 0)
(-4.02457 -0.00300681 0)
(-3.95142 -0.00263021 0)
(-3.87521 -0.00226208 0)
(-3.7962 -0.00190228 0)
(-3.71465 -0.00155012 0)
(-3.63087 -0.00120262 0)
(-3.54515 -0.000860514 0)
(-3.45782 -0.000523978 0)
(-3.36921 -0.000199013 0)
(-3.27964 0.000114226 0)
(-3.18946 0.00040823 0)
(-3.09901 0.000669884 0)
(-3.00861 0.000887234 0)
(-2.91857 0.00106589 0)
(-2.82922 0.00123382 0)
(-2.74091 0.00141524 0)
(-2.65398 0.00158968 0)
(-2.56874 0.00175399 0)
(-2.48551 0.00191213 0)
(-2.40459 0.0020618 0)
(-2.32627 0.0022157 0)
(-2.25083 0.00234975 0)
(-2.17848 0.0024377 0)
(-2.10943 0.00247486 0)
(-2.04385 0.00247313 0)
(-1.98195 0.00245897 0)
(-1.92396 0.00247081 0)
(-1.87012 0.00253356 0)
(-1.82067 0.00264439 0)
(-1.77578 0.00277718 0)
(-1.73553 0.00290162 0)
(-1.69993 0.00297792 0)
(-1.66892 0.00299408 0)
(-1.64245 0.00294332 0)
(-1.62063 0.00284056 0)
(-1.6037 0.00275957 0)
(-1.59181 0.00212576 0)
(-1.58399 0.00250567 0)
(-1.58145 0.00287784 0)
(-1.58243 0.00273176 0)
(-1.58858 0.00225945 0)
(-1.59988 0.00267902 0)
(-1.61532 0.00247042 0)
(-1.63467 0.00250008 0)
(-1.65822 0.00242382 0)
(-1.68589 0.0023148 0)
(-1.71761 0.00218656 0)
(-1.75323 0.00205071 0)
(-1.79256 0.00190494 0)
(-1.83541 0.00174958 0)
(-1.88163 0.00158101 0)
(-1.93109 0.0014045 0)
(-1.98364 0.00122647 0)
(-2.0391 0.00102489 0)
(-2.09728 0.000792105 0)
(-2.15795 0.000616346 0)
(-2.22095 0.000489314 0)
(-2.28606 0.000343948 0)
(-2.3531 0.000190163 0)
(-2.4219 3.90491e-05 0)
(-2.49225 -6.52767e-05 0)
(-2.56396 -0.000186616 0)
(-2.63682 -0.000240084 0)
(-2.7106 -0.000291272 0)
(-2.78514 -0.000301921 0)
(-2.86021 -0.000296668 0)
(-2.93555 -0.000217669 0)
(-3.01094 -0.000162762 0)
(-3.08624 -7.64714e-06 0)
(-3.16126 0.000191536 0)
(-3.23576 0.00043609 0)
(-3.30954 0.000729275 0)
(-3.38237 0.00110588 0)
(-3.45405 0.00149041 0)
(-3.5244 0.00186368 0)
(-3.5932 0.00229178 0)
(-3.66024 0.00264077 0)
(-3.72534 0.00300413 0)
(-3.78825 0.00335211 0)
(-3.84875 0.00359114 0)
(-3.90665 0.00386699 0)
(-3.9618 0.0039972 0)
(-4.01407 0.00420635 0)
(-4.06339 0.0043395 0)
(-4.10948 0.00467807 0)
(-4.1522 0.00480584 0)
(-4.19145 0.00485673 0)
(-4.22703 0.00497588 0)
(-4.25877 0.00487456 0)
(-4.28659 0.004865 0)
(-4.31019 0.00494426 0)
(-4.32971 0.00468291 0)
(-4.34492 0.00433867 0)
(-4.35569 0.00388576 0)
(-4.362 0.00307661 0)
(-4.36386 0.00265053 0)
(-4.36168 0.00283808 0)
(-4.35509 0.00190515 0)
(-4.34383 0.00117358 0)
(-4.32806 0.000579325 0)
(-4.30784 2.76454e-05 0)
(-4.28299 -0.000572867 0)
(-4.25355 -0.00120612 0)
(-4.2198 -0.00191551 0)
(-4.18154 -0.00266948 0)
(-4.13909 -0.00345233 0)
(-4.09252 -0.00428407 0)
(-4.04204 -0.00517051 0)
(-3.98786 -0.00611401 0)
(-3.9302 -0.00710876 0)
(-3.86917 -0.00811834 0)
(-3.80487 -0.00917248 0)
(-3.73742 -0.0102575 0)
(-3.66707 -0.011352 0)
(-3.59415 -0.0124816 0)
(-3.51896 -0.0136502 0)
(-3.44173 -0.014856 0)
(-3.36268 -0.0160996 0)
(-3.28205 -0.0173547 0)
(-3.20013 -0.0186127 0)
(-3.11717 -0.0198825 0)
(-3.03345 -0.0211622 0)
(-2.94922 -0.0224314 0)
(-2.86477 -0.0236973 0)
(-2.78033 -0.0249771 0)
(-2.69613 -0.0262775 0)
(-2.61241 -0.0275587 0)
(-2.52945 -0.0286927 0)
(-2.44755 -0.0297517 0)
(-2.36695 -0.0306735 0)
(-2.28792 -0.0313981 0)
(-2.21078 -0.0318771 0)
(-2.13584 -0.0321343 0)
(-2.06356 -0.0321326 0)
(-1.9938 -0.0319848 0)
(-1.9267 -0.031705 0)
(-1.86257 -0.03137 0)
(-1.80124 -0.0311243 0)
(-1.74234 -0.0313618 0)
(-1.68506 -0.0324151 0)
(-1.62827 -0.0343133 0)
(-1.57077 -0.0372577 0)
(-1.51147 -0.0411083 0)
(-1.44959 -0.0464511 0)
(-1.38366 -0.0544919 0)
(-1.3111 -0.0681333 0)
(-1.22614 -0.0870355 0)
(-1.12589 -0.0782898 0)
(-1.02854 -0.0743588 0)
(-0.940576 -0.0676502 0)
(-0.861681 -0.0511451 0)
(-0.806989 -0.00934956 0)
(-0.123192 0.0847741 0)
(-0.379651 0.0821035 0)
(-0.62297 0.00785527 0)
(-0.84341 -0.0343038 0)
(-1.05725 -0.0473259 0)
(-1.27244 -0.0451874 0)
(-1.49077 -0.0307984 0)
(-1.7131 -0.011089 0)
(-1.93794 -0.00132105 0)
(-2.16154 0.00372359 0)
(-2.38228 0.00583258 0)
(-2.59881 -0.00064177 0)
(-2.80876 -0.00806007 0)
(-3.01171 -0.00656701 0)
(-3.23211 -0.0175527 0)
(-3.47077 -0.0185064 0)
(-3.69858 -0.0365038 0)
(-3.91949 -0.0626888 0)
(-4.20253 -0.00438824 0)
(-4.53737 0.0642892 0)
(-4.85366 0.0660592 0)
(-5.16197 0.0728913 0)
(-5.44901 0.154006 0)
(-5.76105 0.20434 0)
(-6.19428 0.130156 0)
(-6.78005 -0.0175727 0)
(-7.40672 -0.121945 0)
(-7.90339 -0.230561 0)
(-8.31896 -0.267852 0)
(-8.57685 0.30578 0)
(-9.09195 0.563981 0)
(-9.66014 0.704096 0)
(-10.2678 0.858993 0)
(-10.972 0.904309 0)
(-11.8168 0.578983 0)
(-12.7761 0.154717 0)
(-13.7378 0.0288061 0)
(-14.6439 0.0854235 0)
(-15.5423 0.0987478 0)
(-16.403 0.163861 0)
(-17.0306 0.350062 0)
(-17.2457 0.533793 0)
(-17.2919 0.665472 0)
(-17.4953 0.407572 0)
(-17.8115 -0.104327 0)
(-18.0722 -0.54259 0)
(-18.332 -0.512622 0)
(-18.4127 -0.529167 0)
(-18.3674 -0.701696 0)
(-18.1437 -0.796796 0)
(-17.7985 -0.879495 0)
(-17.4206 -0.657805 0)
(-17.5229 0.463283 0)
(-17.7471 -0.361673 0)
(-17.4662 -1.09446 0)
(-16.9101 -1.08929 0)
(-16.3876 -0.858685 0)
(-16.6005 0.766972 0)
(-17.1168 0.537478 0)
(-17.5808 0.308791 0)
(-17.9073 0.0644288 0)
(-18.2208 -0.0330422 0)
(-18.5072 0.00941519 0)
(-18.782 0.0820158 0)
(-19.061 0.206956 0)
(-19.3865 0.306405 0)
(-19.7666 0.351712 0)
(-20.1911 0.381819 0)
(-20.6575 0.386291 0)
(-21.1368 0.360799 0)
(-21.6015 0.335433 0)
(-22.0295 0.320526 0)
(-22.3877 0.326595 0)
(-22.6544 0.327748 0)
(-22.7901 0.333545 0)
(-22.8095 0.31673 0)
(-22.7576 0.277539 0)
(-22.6093 0.243402 0)
(-22.374 0.231644 0)
(-22.0692 0.216202 0)
(-21.7157 0.221306 0)
(-21.3582 0.161895 0)
(-20.9815 0.103755 0)
(-20.5404 0.0416723 0)
(-20.0386 -0.118864 0)
(-19.4719 -0.245103 0)
(-18.8782 -0.267634 0)
(-18.27 -0.329281 0)
(-17.6153 -0.408281 0)
(-16.9104 -0.452639 0)
(-16.1441 -0.506465 0)
(-15.304 -0.568408 0)
(-14.3799 -0.664189 0)
(-13.3653 -0.774088 0)
(-12.2824 -0.883028 0)
(-11.1589 -0.99436 0)
(-10.0027 -1.09934 0)
(-8.80597 -1.16517 0)
(-7.60232 -1.15925 0)
(-6.49303 -1.12044 0)
(-5.57819 -1.06973 0)
(-4.89589 -0.953566 0)
(-4.361 -0.861605 0)
(-3.83205 -0.792756 0)
(-3.28195 -0.722755 0)
(-2.72871 -0.654103 0)
(-2.19381 -0.603798 0)
(-1.68344 -0.618923 0)
(-1.19954 -0.646685 0)
(-0.596557 -0.772493 0)
(0.155627 -0.692194 0)
(0.830872 -0.488689 0)
(1.34892 -0.30973 0)
(1.7342 -0.184537 0)
(2.0246 -0.119882 0)
(2.24833 -0.0731148 0)
(2.38488 0.0178414 0)
(2.44383 0.0731564 0)
(2.44494 0.112012 0)
(2.41549 0.125061 0)
(2.36895 0.109656 0)
(2.32225 0.0733202 0)
(2.27189 0.0557 0)
(2.21559 0.0919644 0)
(2.11875 0.116505 0)
(1.98671 0.166697 0)
(1.80492 0.234872 0)
(1.57012 0.295379 0)
(1.28663 0.337365 0)
(0.959693 0.362178 0)
(0.587062 0.38959 0)
(0.162727 0.442884 0)
(-0.309161 0.516393 0)
(-0.782914 0.477151 0)
(-1.0853 0.304283 0)
(-1.30678 0.292556 0)
(-1.51304 0.265775 0)
(-1.71434 0.196254 0)
(-1.89855 0.112066 0)
(-2.06916 0.0471595 0)
(-2.17387 -0.072421 0)
(-2.26182 -0.119848 0)
(-2.33164 0.00720983 0)
(-2.54964 0.0889552 0)
(-2.87883 0.190214 0)
(-3.24564 0.165135 0)
(-3.5975 0.062009 0)
(-3.93302 -0.0122257 0)
(-4.25859 -0.0416497 0)
(-4.58298 -0.045754 0)
(-4.91816 -0.00551124 0)
(-5.26814 0.0751248 0)
(-5.6382 0.12462 0)
(-6.01427 0.0609537 0)
(-6.40754 0.00378196 0)
(-6.82063 0.0259494 0)
(-7.23237 0.0816727 0)
(-7.65015 0.133878 0)
(-8.08242 0.176987 0)
(-8.51893 0.183977 0)
(-8.94434 0.180245 0)
(-9.36865 0.183824 0)
(-9.8005 0.198732 0)
(-10.2325 0.205218 0)
(-10.6381 0.174983 0)
(-11.0112 0.142208 0)
(-11.3625 0.13671 0)
(-11.6795 0.116172 0)
(-11.9624 0.0997277 0)
(-12.219 0.113579 0)
(-12.4323 0.118114 0)
(-12.5913 0.103408 0)
(-12.6991 0.0878941 0)
(-12.7656 0.0858218 0)
(-12.7988 0.0869076 0)
(-12.8088 0.0805361 0)
(-12.7898 0.081583 0)
(-12.7453 0.0669565 0)
(-12.6777 0.0377365 0)
(-12.5728 0.0179633 0)
(-12.4436 -0.00283488 0)
(-12.2942 -0.0179633 0)
(-12.1278 -0.0316626 0)
(-11.95 -0.0349773 0)
(-11.7684 -0.0358915 0)
(-11.5839 -0.0469757 0)
(-11.3912 -0.0756282 0)
(-11.1848 -0.0974817 0)
(-10.9719 -0.0967566 0)
(-10.7625 -0.0883456 0)
(-10.56 -0.092781 0)
(-10.3596 -0.132828 0)
(-10.1461 -0.183853 0)
(-9.92082 -0.194444 0)
(-9.68264 -0.160329 0)
(-9.56427 -0.195973 0)
(-9.54892 -0.149191 0)
(-9.51286 -0.186368 0)
(-9.4378 -0.194907 0)
(-9.34489 -0.189844 0)
(-9.23995 -0.202494 0)
(-9.12385 -0.227579 0)
(-9.00566 -0.201888 0)
(-8.89302 -0.181616 0)
(-8.78464 -0.163183 0)
(-8.68372 -0.144374 0)
(-8.59014 -0.132566 0)
(-8.50286 -0.127229 0)
(-8.42194 -0.118414 0)
(-8.34606 -0.109524 0)
(-8.2752 -0.0973122 0)
(-8.20778 -0.0868268 0)
(-8.14567 -0.0743738 0)
(-8.08821 -0.067559 0)
(-8.03509 -0.062015 0)
(-7.98445 -0.0560823 0)
(-7.93594 -0.0515635 0)
(-7.88769 -0.0484859 0)
(-7.8402 -0.0405185 0)
(-7.79385 -0.0337197 0)
(-7.748 -0.028456 0)
(-7.70208 -0.0254889 0)
(-7.65577 -0.0221605 0)
(-7.60876 -0.0196702 0)
(-7.56017 -0.0194247 0)
(-7.50964 -0.0187345 0)
(-7.45737 -0.0170899 0)
(-7.40329 -0.0153032 0)
(-7.34733 -0.0138009 0)
(-7.28934 -0.0128385 0)
(-7.22912 -0.0128961 0)
(-7.16648 -0.0133348 0)
(-7.10162 -0.0126297 0)
(-7.03478 -0.0122707 0)
(-6.96589 -0.0123156 0)
(-6.89505 -0.0124373 0)
(-6.82241 -0.012415 0)
(-6.74816 -0.0124658 0)
(-6.67245 -0.01256 0)
(-6.59547 -0.0126953 0)
(-6.51739 -0.0128737 0)
(-6.43842 -0.0130358 0)
(-6.35876 -0.0131577 0)
(-6.27865 -0.0132068 0)
(-6.19833 -0.0131507 0)
(-6.11805 -0.0130039 0)
(-6.03806 -0.0127944 0)
(-5.95862 -0.0125538 0)
(-5.88 -0.0123139 0)
(-5.80247 -0.0121003 0)
(-5.72627 -0.0118975 0)
(-5.65165 -0.0116669 0)
(-5.57886 -0.0113856 0)
(-5.50813 -0.0110492 0)
(-5.43968 -0.0106712 0)
(-5.37373 -0.0102726 0)
(-5.31047 -0.00986661 0)
(-5.25009 -0.009479 0)
(-5.19277 -0.00911788 0)
(-5.13867 -0.00877024 0)
(-5.08794 -0.00842083 0)
(-5.04067 -0.0080675 0)
(-4.99696 -0.00772337 0)
(-4.95683 -0.00739331 0)
(-4.92043 -0.00708412 0)
(-4.888 -0.00679365 0)
(-4.85974 -0.00652251 0)
(-4.83573 -0.00627364 0)
(-4.81434 -0.00605628 0)
(-4.79725 -0.00590873 0)
(-4.78421 -0.00581561 0)
(-4.77484 -0.0057225 0)
(-4.76934 -0.00531993 0)
(-4.76823 -0.0053621 0)
(-4.77127 -0.00542228 0)
(-4.77856 -0.00542913 0)
(-4.78958 -0.005473 0)
(-4.80463 -0.00549211 0)
(-4.82367 -0.00555439 0)
(-4.84656 -0.00566657 0)
(-4.87322 -0.00580073 0)
(-4.90359 -0.00596884 0)
(-4.93756 -0.00616075 0)
(-4.97505 -0.00638628 0)
(-5.01593 -0.00664469 0)
(-5.06008 -0.00692782 0)
(-5.10737 -0.00723954 0)
(-5.1577 -0.00757861 0)
(-5.21094 -0.00793525 0)
(-5.26697 -0.00830036 0)
(-5.32564 -0.00867476 0)
(-5.38682 -0.00905996 0)
(-5.45036 -0.00945668 0)
(-5.5161 -0.00986736 0)
(-5.58387 -0.0102856 0)
(-5.65353 -0.0107041 0)
(-5.72489 -0.0111156 0)
(-5.7978 -0.0115209 0)
(-5.87209 -0.0119179 0)
(-5.94757 -0.0122963 0)
(-6.02407 -0.0126588 0)
(-6.10142 -0.0130299 0)
(-6.17941 -0.0133727 0)
(-6.25787 -0.0137186 0)
(-6.33661 -0.0140906 0)
(-6.41542 -0.0144768 0)
(-6.4941 -0.0148815 0)
(-6.57246 -0.0152919 0)
(-6.6503 -0.0156943 0)
(-6.7274 -0.0160792 0)
(-6.80358 -0.0164313 0)
(-6.87863 -0.0167353 0)
(-6.95235 -0.0169871 0)
(-7.02455 -0.0172021 0)
(-7.09501 -0.0174002 0)
(-7.16354 -0.0176084 0)
(-7.22992 -0.0178341 0)
(-7.29396 -0.018081 0)
(-7.35545 -0.0183533 0)
(-7.41419 -0.0186353 0)
(-7.46999 -0.0189002 0)
(-7.52268 -0.0191346 0)
(-7.57207 -0.0193353 0)
(-7.61799 -0.0195074 0)
(-7.66026 -0.0196645 0)
(-7.69871 -0.0198224 0)
(-7.73315 -0.0199785 0)
(-7.76345 -0.0201322 0)
(-7.7895 -0.0202703 0)
(-7.81127 -0.0204103 0)
(-7.82871 -0.0205738 0)
(-7.84188 -0.020924 0)
(-7.85031 -0.0208953 0)
(-7.8542 -0.0204891 0)
(-7.85315 -0.0198782 0)
(-7.84704 -0.0201166 0)
(-7.83623 -0.0202616 0)
(-7.82056 -0.020269 0)
(-7.80015 -0.020166 0)
(-7.77523 -0.020056 0)
(-7.74564 -0.019929 0)
(-7.71113 -0.0197804 0)
(-7.6716 -0.0196056 0)
(-7.62716 -0.0194215 0)
(-7.57807 -0.0192262 0)
(-7.52459 -0.0190147 0)
(-7.46687 -0.0187787 0)
(-7.40503 -0.0185163 0)
(-7.33924 -0.0182316 0)
(-7.26971 -0.0179304 0)
(-7.19667 -0.0176132 0)
(-7.12037 -0.0172789 0)
(-7.04108 -0.0169235 0)
(-6.95908 -0.0165432 0)
(-6.87468 -0.0161379 0)
(-6.78817 -0.0157056 0)
(-6.69989 -0.0152576 0)
(-6.61017 -0.0147894 0)
(-6.51935 -0.0143101 0)
(-6.4278 -0.0138379 0)
(-6.33585 -0.0133896 0)
(-6.24387 -0.0129572 0)
(-6.15219 -0.012511 0)
(-6.06117 -0.0120265 0)
(-5.97113 -0.0115319 0)
(-5.88241 -0.011025 0)
(-5.79534 -0.0104969 0)
(-5.71024 -0.00996119 0)
(-5.6274 -0.00940589 0)
(-5.54712 -0.0088661 0)
(-5.46968 -0.00837463 0)
(-5.39532 -0.00793663 0)
(-5.3243 -0.0075416 0)
(-5.25686 -0.00716828 0)
(-5.19324 -0.00677276 0)
(-5.13366 -0.00632277 0)
(-5.07833 -0.00582066 0)
(-5.0274 -0.00529926 0)
(-4.98098 -0.00479155 0)
(-4.93913 -0.00434724 0)
(-4.90185 -0.00397559 0)
(-4.86918 -0.00368799 0)
(-4.8413 -0.00348226 0)
(-4.81846 -0.00329325 0)
(-4.80067 -0.00241966 0)
(-4.78686 -0.00239671 0)
(-4.77843 -0.00208649 0)
(-4.77468 -0.00249589 0)
(-4.77558 -0.00151947 0)
(-4.78193 -0.00160754 0)
(-4.79262 -0.00146114 0)
(-4.80744 -0.00125086 0)
(-4.82676 -0.00111377 0)
(-4.85043 -0.00097207 0)
(-4.87843 -0.000845202 0)
(-4.91061 -0.000716451 0)
(-4.94681 -0.000597025 0)
(-4.98685 -0.000488823 0)
(-5.03057 -0.000393188 0)
(-5.07784 -0.000301301 0)
(-5.12852 -0.000205617 0)
(-5.18244 -0.000125518 0)
(-5.23942 -6.06975e-05 0)
(-5.29925 -6.31533e-05 0)
(-5.36165 -4.77506e-06 0)
(-5.42648 8.98984e-05 0)
(-5.49357 2.9869e-05 0)
(-5.56272 -0.000103824 0)
(-5.6337 -0.000361379 0)
(-5.70635 -0.000621522 0)
(-5.78043 -0.000962503 0)
(-5.85573 -0.00128603 0)
(-5.93201 -0.0016249 0)
(-6.00907 -0.0019534 0)
(-6.0867 -0.00231272 0)
(-6.16466 -0.00264108 0)
(-6.24273 -0.00293724 0)
(-6.32068 -0.00319767 0)
(-6.39828 -0.00339998 0)
(-6.47534 -0.0035494 0)
(-6.55166 -0.00366381 0)
(-6.62703 -0.00369053 0)
(-6.70118 -0.00364928 0)
(-6.77395 -0.00366211 0)
(-6.84514 -0.00357699 0)
(-6.91443 -0.00345558 0)
(-6.98165 -0.00338243 0)
(-7.04656 -0.00327094 0)
(-7.10895 -0.00321567 0)
(-7.16862 -0.00320648 0)
(-7.22539 -0.00322968 0)
(-7.27908 -0.00324829 0)
(-7.32963 -0.00346903 0)
(-7.37688 -0.00349423 0)
(-7.42058 -0.0035966 0)
(-7.46054 -0.00370121 0)
(-7.49655 -0.00373571 0)
(-7.52835 -0.00384021 0)
(-7.55618 -0.00393274 0)
(-7.57949 -0.00390261 0)
(-7.59842 -0.00402631 0)
(-7.61286 -0.00412906 0)
(-7.6228 -0.00434538 0)
(-7.62863 -0.00456345 0)
(-7.62913 -0.00283507 0)
(-7.62492 -0.00366135 0)
(-7.61603 -0.00401251 0)
(-7.60241 -0.00424468 0)
(-7.584 -0.0043071 0)
(-7.5606 -0.00435599 0)
(-7.53224 -0.00435443 0)
(-7.49928 -0.00424366 0)
(-7.4616 -0.00415327 0)
(-7.4193 -0.00407694 0)
(-7.37253 -0.00399408 0)
(-7.32149 -0.00390616 0)
(-7.2664 -0.00381196 0)
(-7.20748 -0.00370172 0)
(-7.14487 -0.00355546 0)
(-7.07864 -0.00338734 0)
(-7.00885 -0.00319235 0)
(-6.93568 -0.00296253 0)
(-6.85946 -0.00271662 0)
(-6.78045 -0.00246081 0)
(-6.6989 -0.00219292 0)
(-6.61499 -0.00191046 0)
(-6.52894 -0.00159524 0)
(-6.44094 -0.00123973 0)
(-6.35116 -0.000850539 0)
(-6.25972 -0.000425237 0)
(-6.16673 4.94011e-05 0)
(-6.07233 0.0005648 0)
(-5.97666 0.0011004 0)
(-5.87985 0.00164084 0)
(-5.78203 0.00221354 0)
(-5.68336 0.00290401 0)
(-5.58382 0.00363023 0)
(-5.48328 0.00439407 0)
(-5.38154 0.0052034 0)
(-5.27846 0.00604118 0)
(-5.17393 0.00685958 0)
(-5.06806 0.00764054 0)
(-4.96022 0.00821671 0)
(-4.85072 0.00855474 0)
(-4.73949 0.00859108 0)
(-4.62648 0.00813627 0)
(-4.51174 0.00674111 0)
(-4.39517 0.00405349 0)
(-4.27655 9.06473e-05 0)
(-4.15549 -0.00525365 0)
(-4.03136 -0.0114743 0)
(-3.90378 -0.0187127 0)
(-3.77207 -0.0277504 0)
(-3.63898 -0.0416082 0)
(-3.50231 -0.056874 0)
(-3.42478 -0.0937555 0)
(-3.39 -0.0835058 0)
(-3.35515 -0.0864504 0)
(-3.31469 -0.0806562 0)
(-3.2731 -0.0263359 0)
(-0.121291 0.125095 0)
(-0.361754 0.126124 0)
(-0.571991 0.0243961 0)
(-0.762984 -0.0338659 0)
(-0.942717 -0.0474523 0)
(-1.12035 -0.0414668 0)
(-1.30365 -0.0222351 0)
(-1.49919 0.000227472 0)
(-1.71168 0.0107836 0)
(-1.93838 0.0184518 0)
(-2.1795 0.0230679 0)
(-2.43827 0.0235144 0)
(-2.71587 0.0266654 0)
(-3.00688 0.0459629 0)
(-3.28835 0.0647889 0)
(-3.55537 0.0698216 0)
(-3.825 0.0582506 0)
(-4.09867 0.0446061 0)
(-4.36905 0.114009 0)
(-4.66265 0.233681 0)
(-5.02194 0.25081 0)
(-5.38834 0.21867 0)
(-5.75018 0.236463 0)
(-6.1283 0.316252 0)
(-6.58707 0.505751 0)
(-7.23871 0.590669 0)
(-8.02064 0.557167 0)
(-8.81864 0.390718 0)
(-9.60481 0.168187 0)
(-10.3584 0.408875 0)
(-11.0599 0.605916 0)
(-11.7399 0.759828 0)
(-12.3752 0.941792 0)
(-12.935 1.22009 0)
(-13.5231 1.53833 0)
(-14.3082 1.56231 0)
(-15.1812 1.50851 0)
(-16.0745 1.55604 0)
(-17.0191 1.54842 0)
(-18.039 1.39976 0)
(-18.8879 0.790272 0)
(-19.3902 0.240994 0)
(-19.7424 0.0707325 0)
(-19.9647 0.202309 0)
(-20.1115 0.560561 0)
(-20.4848 0.450609 0)
(-20.8484 0.265676 0)
(-21.0277 -0.040023 0)
(-21.185 -0.236657 0)
(-21.279 -0.389425 0)
(-21.3728 -0.444844 0)
(-21.4389 -0.394741 0)
(-21.3422 -0.316032 0)
(-21.1567 -0.56046 0)
(-21.1133 -0.698143 0)
(-21.1862 -0.721911 0)
(-21.3397 -0.432733 0)
(-21.3552 0.137849 0)
(-21.1626 0.238418 0)
(-21.1287 0.17693 0)
(-21.2174 0.150996 0)
(-21.4144 0.16047 0)
(-21.6666 0.189098 0)
(-21.9445 0.232387 0)
(-22.205 0.355218 0)
(-22.4376 0.504577 0)
(-22.5922 0.662248 0)
(-22.7162 0.728637 0)
(-22.8835 0.756027 0)
(-23.0548 0.747011 0)
(-23.2049 0.720705 0)
(-23.3311 0.651769 0)
(-23.4125 0.568733 0)
(-23.399 0.463806 0)
(-23.3423 0.289687 0)
(-23.2262 0.171699 0)
(-23.0803 0.0408706 0)
(-22.9143 -0.12871 0)
(-22.6764 -0.244066 0)
(-22.3922 -0.372125 0)
(-22.0298 -0.421616 0)
(-21.6488 -0.447186 0)
(-21.2544 -0.556771 0)
(-20.7927 -0.697703 0)
(-20.2831 -0.929727 0)
(-19.7013 -1.10151 0)
(-19.0792 -1.12991 0)
(-18.4352 -1.23888 0)
(-17.7446 -1.37524 0)
(-17.0112 -1.46601 0)
(-16.2236 -1.64779 0)
(-15.335 -1.88271 0)
(-14.3233 -2.18725 0)
(-13.1642 -2.47244 0)
(-11.8892 -2.65919 0)
(-10.5583 -2.7572 0)
(-9.21758 -2.79287 0)
(-7.89187 -2.76274 0)
(-6.59148 -2.60817 0)
(-5.32528 -2.30341 0)
(-4.12187 -1.92658 0)
(-2.93807 -1.61896 0)
(-1.73181 -1.44565 0)
(-0.529132 -1.29865 0)
(0.661456 -1.16086 0)
(1.82287 -1.02202 0)
(2.89983 -0.92137 0)
(3.7839 -0.943204 0)
(4.37848 -1.06437 0)
(4.74061 -1.11907 0)
(5.0005 -1.04311 0)
(5.24719 -0.89599 0)
(5.50667 -0.721759 0)
(5.74843 -0.555739 0)
(5.97867 -0.434129 0)
(6.21392 -0.297339 0)
(6.39661 -0.0778387 0)
(6.52995 0.0866177 0)
(6.66517 0.146152 0)
(6.7917 0.209674 0)
(6.95069 0.207232 0)
(7.09936 0.171885 0)
(7.17649 0.138495 0)
(7.168 0.165407 0)
(7.05737 0.216878 0)
(6.84376 0.321347 0)
(6.54497 0.453944 0)
(6.19559 0.577405 0)
(5.82439 0.668924 0)
(5.45301 0.727267 0)
(5.09472 0.774171 0)
(4.74001 0.801771 0)
(4.35857 0.815137 0)
(3.91451 0.724396 0)
(3.3647 0.63807 0)
(2.74393 0.646928 0)
(2.0991 0.655034 0)
(1.42756 0.626282 0)
(0.73701 0.580003 0)
(0.029989 0.542475 0)
(-0.716341 0.545832 0)
(-1.51439 0.557707 0)
(-2.26215 0.599402 0)
(-2.78422 0.551164 0)
(-3.16352 0.699103 0)
(-3.58159 0.694942 0)
(-3.97614 0.569034 0)
(-4.36364 0.484614 0)
(-4.7392 0.454056 0)
(-5.10261 0.452284 0)
(-5.45481 0.499917 0)
(-5.79464 0.589826 0)
(-6.1232 0.645944 0)
(-6.53044 0.676513 0)
(-7.06544 0.676427 0)
(-7.61873 0.659238 0)
(-8.11085 0.671366 0)
(-8.56933 0.71527 0)
(-9.01639 0.760788 0)
(-9.44296 0.743572 0)
(-9.83373 0.719211 0)
(-10.2098 0.726015 0)
(-10.5821 0.746302 0)
(-10.9409 0.728387 0)
(-11.2493 0.645229 0)
(-11.5361 0.58689 0)
(-11.8083 0.539165 0)
(-12.0329 0.461764 0)
(-12.2394 0.413264 0)
(-12.4248 0.371866 0)
(-12.5613 0.291848 0)
(-12.6671 0.207424 0)
(-12.7479 0.125286 0)
(-12.8192 0.0728068 0)
(-12.8645 0.0211754 0)
(-12.8995 -0.02012 0)
(-12.8993 -0.0816832 0)
(-12.8657 -0.127928 0)
(-12.8294 -0.209268 0)
(-12.7487 -0.279811 0)
(-12.6456 -0.337311 0)
(-12.5184 -0.384077 0)
(-12.3706 -0.425513 0)
(-12.2026 -0.444475 0)
(-12.0216 -0.453472 0)
(-11.8294 -0.470897 0)
(-11.6273 -0.513614 0)
(-11.4097 -0.545598 0)
(-11.1817 -0.543016 0)
(-10.953 -0.522434 0)
(-10.7271 -0.510784 0)
(-10.5047 -0.549437 0)
(-10.282 -0.607876 0)
(-10.0538 -0.615708 0)
(-9.83435 -0.578503 0)
(-9.5285 -0.572019 0)
(-9.10101 -0.577063 0)
(-8.69979 -0.529764 0)
(-8.37527 -0.470979 0)
(-8.10629 -0.421057 0)
(-7.87306 -0.41029 0)
(-7.6639 -0.427479 0)
(-7.49611 -0.381478 0)
(-7.36881 -0.347141 0)
(-7.27133 -0.317427 0)
(-7.19871 -0.288918 0)
(-7.1397 -0.268347 0)
(-7.08604 -0.256005 0)
(-7.03642 -0.245939 0)
(-6.99084 -0.226748 0)
(-6.94757 -0.199996 0)
(-6.90172 -0.175637 0)
(-6.86759 -0.14783 0)
(-6.8374 -0.129914 0)
(-6.8138 -0.113283 0)
(-6.79497 -0.0975934 0)
(-6.77674 -0.0865654 0)
(-6.75452 -0.0798603 0)
(-6.73467 -0.0640347 0)
(-6.71729 -0.051074 0)
(-6.70196 -0.0402343 0)
(-6.68505 -0.033324 0)
(-6.66794 -0.0257058 0)
(-6.64927 -0.0204447 0)
(-6.6267 -0.0195849 0)
(-6.59981 -0.0176971 0)
(-6.56956 -0.015071 0)
(-6.536 -0.0121701 0)
(-6.49959 -0.010019 0)
(-6.46014 -0.00879029 0)
(-6.41715 -0.00964383 0)
(-6.3701 -0.0113088 0)
(-6.31952 -0.0110066 0)
(-6.26607 -0.0113752 0)
(-6.20963 -0.0125034 0)
(-6.15023 -0.0138254 0)
(-6.08815 -0.0149309 0)
(-6.02371 -0.0161773 0)
(-5.9571 -0.0174728 0)
(-5.88857 -0.0187968 0)
(-5.81836 -0.0201516 0)
(-5.74673 -0.0214267 0)
(-5.67395 -0.0225769 0)
(-5.60034 -0.0235501 0)
(-5.52621 -0.0242927 0)
(-5.45189 -0.0248337 0)
(-5.3777 -0.0252129 0)
(-5.30393 -0.0254625 0)
(-5.23089 -0.0256366 0)