/*--------------------------------*- C++ -*----------------------------------*\
| =========                 |                                                 |
| \\      /  F ield         | OpenFOAM: The Open Source CFD Toolbox           |
|  \\    /   O peration     | Version:  v1812                                 |
|   \\  /    A nd           | Web:      www.OpenFOAM.com                      |
|    \\/     M anipulation  |                                                 |
\*---------------------------------------------------------------------------*/
FoamFile
{
    version     2.0;
    format      ascii;
    class       surfaceScalarField;
    location    "0.0025";
    object      phi;
}
// * * * * * * * * * * * * * * * * * * * * * * * * * * * * * * * * * * * * * //

dimensions      [1 0 -1 0 0 0 0];
oriented        oriented;


internalField   nonuniform List<scalar> 
16762
(
0.0423011
1.11021e-17
0.0423011
-1.17937e-17
0.0423011
-1.77979e-17
0.0423011
-3.97064e-18
0.0423011
-2.41718e-17
0.0423011
-1.89568e-17
0.0423011
-2.07116e-21
0.0423011
-5.75354e-19
0.0423011
-6.02775e-18
0.0423011
-4.79846e-18
0.0423011
-2.64105e-17
0.0423011
-3.94255e-17
0.0423011
-3.49757e-17
0.0423011
3.75832e-18
0.0423011
3.20968e-17
0.0423011
5.8483e-17
0.0423011
2.31509e-17
0.0423011
1.85448e-17
0.0423011
3.95649e-17
0.0423011
5.68772e-17
0.0423011
8.29876e-17
0.0423011
4.02475e-17
0.0423011
5.01304e-17
0.0423011
6.80128e-17
0.0423011
5.83437e-17
0.0423011
8.55652e-17
0.0423011
6.80974e-17
0.0423011
5.44877e-17
0.0423011
5.05511e-17
0.0423011
3.60995e-17
0.0423011
7.82155e-17
0.0423011
1.90112e-16
0.0423011
1.84526e-14
0.0423011
5.8511e-13
0.0423011
8.18067e-11
0.0423011
2.84364e-09
0.0423007
4.00513e-07
1.42543e-05
0.0422867
0.0423011
8.04119e-18
0.0423011
3.10915e-18
0.0423011
8.83498e-18
0.0423011
-1.34737e-17
0.0423011
-1.64185e-17
0.0423011
-1.93632e-17
0.0423011
-1.29594e-17
0.0423011
-3.00153e-17
0.0423011
-5.74489e-18
0.0423011
-2.1488e-17
0.0423011
-3.75525e-17
0.0423011
-1.7651e-17
0.0423011
-8.66536e-18
0.0423011
-8.54115e-18
0.0423011
-1.29659e-17
0.0423011
-9.9439e-18
0.0423011
-1.12152e-17
0.0423011
4.93193e-17
0.0423011
2.57527e-17
0.0423011
6.25657e-17
0.0423011
7.28354e-17
0.0423011
7.90081e-17
0.0423011
6.85e-17
0.0423011
4.36748e-17
0.0423011
6.78749e-17
0.0423011
5.4066e-17
0.0423011
4.86488e-17
0.0423011
5.19136e-17
0.0423011
6.88966e-17
0.0423011
7.51486e-17
0.0423011
7.94336e-17
0.0423011
2.26099e-16
0.0423011
7.07795e-15
0.0423011
5.21043e-13
0.0423011
2.03371e-11
0.0423011
1.56833e-09
0.0423015
4.71358e-08
3.47211e-06
0.0423124
0.0423011
-2.58119e-18
0.0423011
-3.25728e-18
0.0423011
-1.24112e-17
0.0423011
-1.93854e-19
0.0423011
-1.39523e-17
0.0423011
-3.58558e-17
0.0423011
-2.36924e-17
0.0423011
-6.50696e-18
0.0423011
-2.61862e-17
0.0423011
-2.36543e-17
0.0423011
1.29355e-18
0.0423011
-8.83842e-18
0.0423011
-1.40272e-17
0.0423011
-3.06447e-17
0.0423011
-2.88119e-17
0.0423011
-3.67961e-18
0.0423011
7.15018e-18
0.0423011
-4.11188e-18
0.0423011
-1.63112e-18
0.0423011
-8.04542e-18
0.0423011
9.90445e-18
0.0423011
2.2034e-17
0.0423011
2.6067e-17
0.0423011
2.76713e-17
0.0423011
4.21965e-17
0.0423011
5.2894e-17
0.0423011
4.92056e-17
0.0423011
4.17335e-17
0.0423011
4.2221e-17
0.0423011
7.33874e-17
0.0423011
5.74549e-17
0.0423011
1.0037e-16
0.0423011
8.97175e-16
0.0423011
1.1333e-13
0.0423011
1.55657e-12
0.0423011
2.19662e-10
0.0423012
2.02536e-09
3.51797e-07
0.0423043
0.0423011
-1.34719e-17
0.0423011
1.72912e-17
0.0423011
1.40204e-17
0.0423011
6.63175e-18
0.0423011
9.36906e-18
0.0423011
-9.43886e-18
0.0423011
-1.09719e-18
0.0423011
-1.39857e-18
0.0423011
9.72616e-18
0.0423011
5.97559e-18
0.0423011
-9.46789e-18
0.0423011
-6.82045e-18
0.0423011
-1.36532e-17
0.0423011
-1.33516e-17
0.0423011
7.95259e-18
0.0423011
-4.49537e-18
0.0423011
2.26141e-19
0.0423011
2.75615e-18
0.0423011
1.5695e-18
0.0423011
-6.6979e-18
0.0423011
-1.08408e-18
0.0423011
1.1783e-17
0.0423011
1.38363e-17
0.0423011
1.46573e-17
0.0423011
5.52818e-18
0.0423011
1.68576e-18
0.0423011
2.06018e-17
0.0423011
3.04732e-17
0.0423011
2.65988e-17
0.0423011
2.96924e-17
0.0423011
4.0065e-17
0.0423011
4.37241e-17
0.0423011
4.70445e-17
0.0423011
1.08072e-14
0.0423011
3.3933e-14
0.0423011
1.50509e-11
0.0423011
3.74507e-11
2.05634e-08
0.0423015
0.0423011
1.83373e-17
0.0423011
-1.03593e-17
0.0423011
-1.25194e-18
0.0423011
-3.21028e-17
0.0423011
-2.41862e-17
0.0423011
-7.68099e-18
0.0423011
-1.82765e-17
0.0423011
-1.82369e-17
0.0423011
-2.11694e-17
0.0423011
-1.21445e-17
0.0423011
-6.54442e-18
0.0423011
-1.17821e-17
0.0423011
-1.59864e-17
0.0423011
-2.56333e-17
0.0423011
1.70277e-18
0.0423011
1.13148e-17
0.0423011
-4.7227e-18
0.0423011
6.61221e-19
0.0423011
-1.22811e-17
0.0423011
-2.72068e-17
0.0423011
1.50647e-17
0.0423011
-4.77467e-18
0.0423011
4.20567e-18
0.0423011
-2.49336e-18
0.0423011
-4.7371e-18
0.0423011
4.04164e-18
0.0423011
5.08627e-18
0.0423011
3.04267e-17
0.0423011
1.75236e-17
0.0423011
-4.9747e-19
0.0423011
9.48716e-18
0.0423011
8.2369e-18
0.0423011
-1.03369e-17
0.0423011
4.53237e-16
0.0423011
3.16372e-17
0.0423011
6.14038e-13
0.0423011
6.68368e-13
8.26032e-10
0.0423011
0.0423011
-1.50735e-17
0.0423011
-9.95814e-18
0.0423011
-4.05263e-18
0.0423011
-1.43589e-17
0.0423011
-1.5214e-17
0.0423011
-1.85991e-17
0.0423011
-2.18687e-17
0.0423011
-2.21876e-17
0.0423011
-1.91206e-17
0.0423011
-4.17842e-17
0.0423011
-9.15368e-18
0.0423011
-1.38468e-17
0.0423011
-2.04519e-17
0.0423011
-4.12821e-17
0.0423011
-2.79119e-17
0.0423011
-1.85018e-17
0.0423011
1.40424e-17
0.0423011
-4.03199e-17
0.0423011
-2.77515e-17
0.0423011
-4.88584e-17
0.0423011
7.862e-18
0.0423011
9.24663e-18
0.0423011
-1.88356e-18
0.0423011
-5.5016e-18
0.0423011
-7.87738e-19
0.0423011
1.72211e-17
0.0423011
1.56399e-17
0.0423011
6.32392e-19
0.0423011
3.64278e-18
0.0423011
-4.55742e-20
0.0423011
-1.15442e-18
0.0423011
-1.54795e-18
0.0423011
-4.68503e-18
0.0423011
2.7791e-17
0.0423011
-7.75795e-17
0.0423011
1.75016e-14
0.0423011
2.049e-14
2.52274e-11
0.0423011
0.0423011
-2.27055e-18
0.0423011
-1.09108e-17
0.0423011
-2.51621e-17
0.0423011
6.84265e-18
0.0423011
-2.14938e-17
0.0423011
-2.27749e-17
0.0423011
-1.39245e-17
0.0423011
1.40275e-18
0.0423011
-7.00416e-18
0.0423011
5.567e-18
0.0423011
-3.82204e-17
0.0423011
-3.61676e-17
0.0423011
-1.76908e-17
0.0423011
-1.55216e-17
0.0423011
-2.5597e-17
0.0423011
-3.33515e-17
0.0423011
-2.6847e-17
0.0423011
4.75637e-18
0.0423011
-1.0451e-17
0.0423011
1.13388e-17
0.0423011
-1.33846e-17
0.0423011
-3.54341e-17
0.0423011
-3.53347e-17
0.0423011
-2.64374e-17
0.0423011
-1.18567e-17
0.0423011
-1.01751e-17
0.0423011
-1.1265e-17
0.0423011
-1.05701e-17
0.0423011
-1.9636e-19
0.0423011
1.16408e-17
0.0423011
2.5652e-18
0.0423011
2.53814e-18
0.0423011
1.52967e-17
0.0423011
2.45617e-17
0.0423011
-1.12168e-17
0.0423011
3.31043e-16
0.0423011
4.19206e-16
6.26627e-13
0.0423011
0.0423011
-5.45635e-18
0.0423011
-2.02157e-17
0.0423011
-1.38478e-17
0.0423011
-1.09591e-17
0.0423011
9.54038e-18
0.0423011
2.73477e-19
0.0423011
1.33496e-17
0.0423011
1.27749e-17
0.0423011
-3.59879e-18
0.0423011
-8.4239e-18
0.0423011
-1.09248e-17
0.0423011
-1.69183e-17
0.0423011
-4.74309e-18
0.0423011
-2.39787e-17
0.0423011
-2.36544e-17
0.0423011
-6.77583e-18
0.0423011
-9.59264e-18
0.0423011
6.4803e-18
0.0423011
1.04238e-17
0.0423011
-1.64927e-18
0.0423011
-4.89205e-18
0.0423011
-2.01833e-17
0.0423011
-2.72377e-17
0.0423011
-1.00499e-17
0.0423011
-1.38815e-17
0.0423011
-3.20421e-17
0.0423011
-5.1938e-17
0.0423011
-3.1718e-17
0.0423011
-2.23825e-17
0.0423011
-8.8203e-18
0.0423011
-3.21239e-18
0.0423011
2.90986e-17
0.0423011
-6.71366e-18
0.0423011
-3.97337e-19
0.0423011
-1.24049e-17
0.0423011
1.76597e-17
0.0423011
7.41639e-19
1.3652e-14
0.0423011
0.0423011
8.58194e-19
0.0423011
2.2823e-18
0.0423011
-8.02373e-18
0.0423011
-6.44288e-18
0.0423011
-1.614e-18
0.0423011
1.37528e-17
0.0423011
8.37808e-18
0.0423011
5.87816e-18
0.0423011
-3.89648e-18
0.0423011
-9.93098e-18
0.0423011
-1.35757e-17
0.0423011
-1.07927e-19
0.0423011
-1.90486e-17
0.0423011
-1.38904e-17
0.0423011
-1.16707e-17
0.0423011
9.06888e-18
0.0423011
6.89052e-18
0.0423011
1.27335e-18
0.0423011
6.91562e-18
0.0423011
-7.34869e-18
0.0423011
-8.72433e-18
0.0423011
-2.10526e-17
0.0423011
-3.64884e-17
0.0423011
-3.60995e-17
0.0423011
-1.15261e-17
0.0423011
-3.54389e-17
0.0423011
-2.90141e-17
0.0423011
-3.95959e-17
0.0423011
-2.9503e-17
0.0423011
-1.13239e-17
0.0423011
-2.5543e-17
0.0423011
-6.24959e-17
0.0423011
-3.65627e-17
0.0423011
2.07171e-18
0.0423011
3.71916e-18
0.0423011
2.30228e-17
0.0423011
-7.87767e-18
2.06212e-16
0.0423011
0.0423011
-2.6213e-18
0.0423011
5.6342e-18
0.0423011
1.51844e-17
0.0423011
-1.77317e-20
0.0423011
5.19537e-18
0.0423011
5.68723e-18
0.0423011
-8.2505e-18
0.0423011
-1.88665e-17
0.0423011
-8.17911e-18
0.0423011
-1.92001e-17
0.0423011
4.61189e-19
0.0423011
-9.91651e-18
0.0423011
-1.05891e-19
0.0423011
-2.08426e-17
0.0423011
-4.02326e-17
0.0423011
-2.44539e-17
0.0423011
-1.19013e-17
0.0423011
2.04654e-18
0.0423011
-7.32578e-18
0.0423011
1.92594e-18
0.0423011
8.02221e-18
0.0423011
-7.30432e-18
0.0423011
-9.92547e-18
0.0423011
-9.51496e-18
0.0423011
-5.72482e-17
0.0423011
-3.02038e-17
0.0423011
-2.20739e-17
0.0423011
-3.96701e-17
0.0423011
2.65978e-20
0.0423011
-3.8567e-17
0.0423011
-3.276e-17
0.0423011
-4.24663e-17
0.0423011
-3.60761e-17
0.0423011
-3.57668e-17
0.0423011
-4.44988e-18
0.0423011
5.79953e-18
0.0423011
-2.56472e-17
1.53396e-17
0.0423011
0.0423011
1.51218e-17
0.0423011
1.43656e-17
0.0423011
2.80702e-17
0.0423011
1.49541e-17
0.0423011
2.06581e-17
0.0423011
-6.08497e-18
0.0423011
9.03133e-18
0.0423011
-1.10991e-17
0.0423011
-3.23113e-17
0.0423011
5.14525e-18
0.0423011
7.48237e-18
0.0423011
1.8253e-17
0.0423011
-6.5667e-18
0.0423011
-4.19586e-18
0.0423011
-1.92552e-18
0.0423011
-3.01126e-17
0.0423011
-4.24204e-17
0.0423011
-3.08625e-17
0.0423011
-1.55738e-18
0.0423011
1.91292e-18
0.0423011
-2.35102e-17
0.0423011
-1.20208e-17
0.0423011
-2.89976e-17
0.0423011
-2.82117e-17
0.0423011
-1.67336e-17
0.0423011
-9.36795e-18
0.0423011
-2.70085e-17
0.0423011
-1.71792e-17
0.0423011
-1.36196e-17
0.0423011
-2.39074e-17
0.0423011
-4.3624e-17
0.0423011
-3.11193e-17
0.0423011
-4.05583e-17
0.0423011
-1.73496e-17
0.0423011
6.0499e-18
0.0423011
6.4432e-18
0.0423011
1.009e-17
1.84035e-18
0.0423011
0.0423011
3.67598e-18
0.0423011
4.94961e-17
0.0423011
2.11803e-17
0.0423011
6.63233e-18
0.0423011
-2.90407e-17
0.0423011
-5.60067e-18
0.0423011
-2.53897e-17
0.0423011
-2.038e-17
0.0423011
1.25061e-17
0.0423011
-4.95453e-18
0.0423011
-8.66228e-19
0.0423011
-3.08998e-18
0.0423011
1.51011e-17
0.0423011
1.28037e-17
0.0423011
3.42596e-18
0.0423011
-2.98295e-18
0.0423011
-9.69332e-18
0.0423011
-7.63916e-18
0.0423011
-6.06336e-18
0.0423011
-4.11704e-18
0.0423011
-3.08616e-18
0.0423011
-1.45442e-17
0.0423011
6.90653e-18
0.0423011
9.93182e-19
0.0423011
1.53417e-17
0.0423011
1.04267e-17
0.0423011
1.1307e-17
0.0423011
1.71009e-19
0.0423011
-3.81518e-17
0.0423011
-1.40766e-17
0.0423011
-2.59283e-18
0.0423011
-8.8944e-18
0.0423011
1.44118e-17
0.0423011
-1.43969e-17
0.0423011
-1.26214e-17
0.0423011
-3.60794e-17
0.0423011
-2.5072e-17
-4.65633e-18
0.0423011
0.0423011
-8.92283e-18
0.0423011
-6.88004e-18
0.0423011
-1.13767e-17
0.0423011
8.06872e-18
0.0423011
2.46589e-18
0.0423011
-1.29717e-18
0.0423011
-1.53662e-18
0.0423011
1.07939e-18
0.0423011
-2.1867e-19
0.0423011
-6.918e-19
0.0423011
-7.46808e-18
0.0423011
1.63768e-18
0.0423011
-3.07732e-17
0.0423011
-1.02216e-18
0.0423011
1.78768e-17
0.0423011
7.6198e-18
0.0423011
-1.01349e-17
0.0423011
1.41576e-17
0.0423011
-1.1292e-17
0.0423011
4.7126e-18
0.0423011
5.89486e-18
0.0423011
1.48604e-17
0.0423011
1.82907e-17
0.0423011
8.06043e-18
0.0423011
1.05054e-17
0.0423011
7.67525e-18
0.0423011
4.12304e-18
0.0423011
-1.09915e-18
0.0423011
-1.01337e-17
0.0423011
-5.55255e-17
0.0423011
-6.5304e-17
0.0423011
-3.8461e-17
0.0423011
-3.33224e-17
0.0423011
-1.36306e-17
0.0423011
-2.28245e-17
0.0423011
6.08477e-18
0.0423011
-1.28001e-17
-1.12692e-17
0.0423011
0.0423011
1.43102e-17
0.0423011
-8.05601e-18
0.0423011
3.15223e-18
0.0423011
-7.18388e-18
0.0423011
-2.04538e-17
0.0423011
5.52414e-18
0.0423011
1.71145e-17
0.0423011
-3.84057e-18
0.0423011
6.92234e-18
0.0423011
6.29782e-19
0.0423011
-1.85653e-17
0.0423011
-1.6078e-17
0.0423011
3.48589e-18
0.0423011
2.10312e-17
0.0423011
2.67839e-17
0.0423011
2.54006e-17
0.0423011
3.03083e-17
0.0423011
1.66948e-17
0.0423011
2.02124e-17
0.0423011
4.00307e-18
0.0423011
2.97375e-17
0.0423011
-1.72576e-17
0.0423011
6.93339e-18
0.0423011
2.26895e-18
0.0423011
-3.56131e-18
0.0423011
-2.09716e-17
0.0423011
7.26331e-18
0.0423011
7.97731e-18
0.0423011
2.8494e-18
0.0423011
3.65331e-17
0.0423011
2.37547e-17
0.0423011
1.8911e-17
0.0423011
7.35288e-18
0.0423011
4.33943e-18
0.0423011
9.49503e-18
0.0423011
-7.06713e-19
0.0423011
-2.37434e-17
-2.93763e-17
0.0423011
0.0423011
-4.43129e-18
0.0423011
-1.60547e-17
0.0423011
-1.58649e-17
0.0423011
5.57404e-19
0.0423011
2.48492e-17
0.0423011
-4.35117e-18
0.0423011
6.04864e-18
0.0423011
2.5045e-17
0.0423011
1.57407e-17
0.0423011
-1.34712e-17
0.0423011
-4.42449e-18
0.0423011
-2.32192e-17
0.0423011
2.01821e-17
0.0423011
-1.34555e-17
0.0423011
1.26147e-17
0.0423011
7.50993e-18
0.0423011
1.23804e-17
0.0423011
3.05288e-17
0.0423011
1.76001e-17
0.0423011
4.15707e-18
0.0423011
-3.86653e-18
0.0423011
2.27563e-17
0.0423011
1.40086e-17
0.0423011
8.72993e-18
0.0423011
-9.49823e-19
0.0423011
2.85106e-17
0.0423011
-1.30844e-17
0.0423011
7.04586e-18
0.0423011
-6.87672e-18
0.0423011
-1.24045e-17
0.0423011
-1.36403e-17
0.0423011
4.73196e-18
0.0423011
1.67921e-17
0.0423011
-6.74705e-18
0.0423011
-2.37527e-17
0.0423011
-5.25591e-18
0.0423011
3.71349e-18
-9.03078e-18
0.0423011
0.0423011
-4.32277e-18
0.0423011
-3.98444e-17
0.0423011
-2.1265e-17
0.0423011
-6.11944e-18
0.0423011
-1.76691e-17
0.0423011
6.09357e-18
0.0423011
-4.84784e-18
0.0423011
-8.33967e-19
0.0423011
7.47754e-18
0.0423011
2.45088e-17
0.0423011
-3.27246e-18
0.0423011
6.97858e-18
0.0423011
-1.1262e-17
0.0423011
-1.34545e-17
0.0423011
-2.75378e-17
0.0423011
9.41329e-18
0.0423011
6.83895e-18
0.0423011
2.18001e-18
0.0423011
9.54347e-18
0.0423011
1.06173e-17
0.0423011
4.73656e-18
0.0423011
1.60455e-17
0.0423011
-2.92737e-18
0.0423011
-4.07437e-18
0.0423011
1.42468e-17
0.0423011
5.96838e-18
0.0423011
3.98954e-17
0.0423011
2.17976e-17
0.0423011
3.17666e-17
0.0423011
2.66628e-17
0.0423011
3.76159e-17
0.0423011
1.68742e-17
0.0423011
2.42837e-17
0.0423011
2.21841e-17
0.0423011
1.5466e-18
0.0423011
-2.93011e-17
0.0423011
-4.4706e-17
-2.46165e-17
0.0423011
0.0423011
-2.98044e-18
0.0423011
-6.90089e-19
0.0423011
-2.44262e-18
0.0423011
-1.99847e-17
0.0423011
8.69144e-18
0.0423011
-1.46677e-17
0.0423011
-1.39495e-18
0.0423011
2.04336e-17
0.0423011
2.30056e-17
0.0423011
-6.29854e-18
0.0423011
2.84154e-18
0.0423011
7.50146e-18
0.0423011
5.96142e-18
0.0423011
2.72025e-17
0.0423011
-2.21064e-18
0.0423011
-2.0867e-17
0.0423011
2.45494e-17
0.0423011
7.28431e-18
0.0423011
2.76366e-18
0.0423011
-7.92972e-19
0.0423011
1.19208e-17
0.0423011
1.90401e-18
0.0423011
-4.56579e-18
0.0423011
-9.91013e-18
0.0423011
5.52462e-18
0.0423011
1.6495e-18
0.0423011
8.80874e-18
0.0423011
2.38062e-17
0.0423011
1.2267e-17
0.0423011
-1.39983e-19
0.0423011
1.57102e-17
0.0423011
1.01423e-17
0.0423011
-1.59152e-17
0.0423011
-1.39502e-17
0.0423011
1.0288e-17
0.0423011
1.31731e-17
0.0423011
1.42231e-17
5.44908e-18
0.0423011
0.0423011
7.34318e-19
0.0423011
2.69098e-17
0.0423011
3.53124e-18
0.0423011
6.2682e-18
0.0423011
-8.85577e-18
0.0423011
5.86535e-18
0.0423011
6.20277e-18
0.0423011
1.52768e-17
0.0423011
2.90699e-18
0.0423011
6.74889e-18
0.0423011
1.88508e-18
0.0423011
-1.26874e-17
0.0423011
2.40991e-18
0.0423011
9.74499e-18
0.0423011
-1.87964e-17
0.0423011
-4.63224e-18
0.0423011
1.35942e-18
0.0423011
2.58622e-17
0.0423011
3.02058e-17
0.0423011
4.13884e-17
0.0423011
-2.97809e-17
0.0423011
-2.43352e-17
0.0423011
5.01973e-18
0.0423011
-2.08008e-18
0.0423011
-7.84443e-18
0.0423011
2.3134e-17
0.0423011
3.70612e-18
0.0423011
-2.62834e-17
0.0423011
2.62682e-17
0.0423011
5.91698e-18
0.0423011
6.58044e-18
0.0423011
2.22431e-17
0.0423011
1.06857e-17
0.0423011
1.41136e-17
0.0423011
3.59332e-17
0.0423011
7.43715e-18
0.0423011
2.82697e-17
1.86295e-17
0.0423011
0.0423011
7.77256e-18
0.0423011
-6.12639e-18
0.0423011
2.05181e-17
0.0423011
5.14898e-18
0.0423011
-2.6506e-18
0.0423011
-7.05143e-18
0.0423011
1.09072e-17
0.0423011
-1.79553e-17
0.0423011
-1.36836e-17
0.0423011
1.91894e-17
0.0423011
1.10751e-17
0.0423011
2.95242e-17
0.0423011
6.67174e-18
0.0423011
1.59096e-17
0.0423011
2.04848e-17
0.0423011
1.61827e-17
0.0423011
9.08004e-18
0.0423011
1.49904e-17
0.0423011
-9.44885e-19
0.0423011
4.453e-18
0.0423011
2.49714e-17
0.0423011
1.42344e-17
0.0423011
-1.22378e-17
0.0423011
-1.3279e-17
0.0423011
-1.16609e-17
0.0423011
-1.14328e-17
0.0423011
-1.29211e-17
0.0423011
7.63687e-18
0.0423011
-9.51229e-18
0.0423011
1.1747e-18
0.0423011
9.7519e-18
0.0423011
9.27938e-18
0.0423011
1.43078e-17
0.0423011
1.83322e-18
0.0423011
-1.28121e-17
0.0423011
2.2403e-17
0.0423011
3.40554e-19
1.93838e-17
0.0423011
0.0423011
2.33592e-18
0.0423011
4.12502e-18
0.0423011
-8.43803e-19
0.0423011
-1.17803e-18
0.0423011
-9.81015e-20
0.0423011
-1.21528e-17
0.0423011
-3.82879e-17
0.0423011
-2.99101e-17
0.0423011
-2.97531e-17
0.0423011
-5.24869e-18
0.0423011
2.63332e-18
0.0423011
-5.62417e-18
0.0423011
3.39356e-17
0.0423011
3.15853e-17
0.0423011
-3.98713e-18
0.0423011
2.90882e-19
0.0423011
1.17092e-17
0.0423011
1.0086e-17
0.0423011
2.48707e-17
0.0423011
3.03769e-17
0.0423011
3.98005e-17
0.0423011
2.16665e-17
0.0423011
1.43153e-17
0.0423011
1.10327e-17
0.0423011
-8.20882e-18
0.0423011
-3.87677e-17
0.0423011
-6.3319e-17
0.0423011
-3.91928e-17
0.0423011
-2.08238e-17
0.0423011
-1.18874e-18
0.0423011
1.88156e-17
0.0423011
2.52121e-18
0.0423011
2.70788e-17
0.0423011
2.80326e-17
0.0423011
3.07078e-17
0.0423011
3.08925e-17
0.0423011
3.63307e-17
2.64398e-17
0.0423011
0.0423011
-5.62271e-18
0.0423011
-1.49772e-17
0.0423011
-3.12713e-18
0.0423011
-2.19801e-17
0.0423011
-1.72596e-17
0.0423011
-1.98086e-17
0.0423011
-2.37765e-17
0.0423011
-2.90832e-18
0.0423011
-6.47342e-18
0.0423011
-2.7258e-17
0.0423011
-2.00644e-19
0.0423011
1.93076e-17
0.0423011
-2.42896e-17
0.0423011
-3.45425e-17
0.0423011
7.51658e-18
0.0423011
4.83929e-18
0.0423011
1.38232e-17
0.0423011
2.02263e-17
0.0423011
2.35967e-17
0.0423011
1.31961e-17
0.0423011
1.71149e-17
0.0423011
3.15596e-17
0.0423011
5.19093e-18
0.0423011
-1.10614e-17
0.0423011
-2.55399e-18
0.0423011
-7.97918e-18
0.0423011
3.45213e-18
0.0423011
-8.91452e-18
0.0423011
-1.6604e-17
0.0423011
-1.78785e-17
0.0423011
-1.16815e-17
0.0423011
1.39477e-17
0.0423011
2.90957e-17
0.0423011
3.07083e-17
0.0423011
3.80268e-17
0.0423011
1.86415e-17
0.0423011
3.228e-17
2.16419e-17
0.0423011
0.0423011
-2.91145e-18
0.0423011
1.79056e-17
0.0423011
-3.34817e-19
0.0423011
-3.18526e-19
0.0423011
1.55207e-17
0.0423011
2.91376e-19
0.0423011
-6.36417e-19
0.0423011
-1.22585e-17
0.0423011
-1.49737e-18
0.0423011
1.09099e-17
0.0423011
1.18594e-17
0.0423011
6.86618e-18
0.0423011
7.29589e-18
0.0423011
2.40399e-18
0.0423011
-7.46709e-18
0.0423011
7.85548e-18
0.0423011
-4.10135e-18
0.0423011
6.95413e-18
0.0423011
1.5087e-17
0.0423011
1.20667e-18
0.0423011
7.18606e-18
0.0423011
7.99623e-18
0.0423011
1.96643e-17
0.0423011
5.19065e-18
0.0423011
1.05159e-17
0.0423011
3.76336e-18
0.0423011
1.2535e-18
0.0423011
8.41189e-18
0.0423011
-2.45924e-18
0.0423011
5.47448e-18
0.0423011
2.56033e-19
0.0423011
1.95965e-18
0.0423011
3.92651e-17
0.0423011
2.92469e-17
0.0423011
1.86276e-17
0.0423011
2.60079e-17
0.0423011
1.74236e-17
1.01702e-17
0.0423011
0.0423011
-1.24385e-18
0.0423011
-1.50684e-17
0.0423011
1.30464e-18
0.0423011
-3.72333e-18
0.0423011
-5.51956e-18
0.0423011
-6.16518e-18
0.0423011
2.67254e-18
0.0423011
-1.08025e-17
0.0423011
-2.17219e-17
0.0423011
-2.35299e-17
0.0423011
-6.48408e-18
0.0423011
-4.98513e-18
0.0423011
1.43493e-17
0.0423011
1.35665e-17
0.0423011
1.68515e-17
0.0423011
2.64749e-17
0.0423011
9.6213e-18
0.0423011
5.59372e-18
0.0423011
-1.55781e-17
0.0423011
-2.62234e-17
0.0423011
-3.4251e-18
0.0423011
-1.15222e-17
0.0423011
1.90433e-17
0.0423011
2.1473e-17
0.0423011
3.44788e-17
0.0423011
1.30621e-17
0.0423011
7.46003e-18
0.0423011
4.40453e-18
0.0423011
3.14796e-18
0.0423011
7.06939e-18
0.0423011
2.03711e-17
0.0423011
1.1482e-17
0.0423011
-2.30524e-18
0.0423011
1.55544e-17
0.0423011
2.51438e-17
0.0423011
3.44855e-17
0.0423011
3.27824e-17
5.33478e-17
0.0423011
0.0423011
9.49636e-19
0.0423011
1.68952e-18
0.0423011
-5.43526e-18
0.0423011
9.87505e-18
0.0423011
-1.04377e-17
0.0423011
-5.13559e-18
0.0423011
1.0224e-17
0.0423011
-4.19098e-18
0.0423011
6.97065e-18
0.0423011
-2.67401e-18
0.0423011
-4.4524e-18
0.0423011
-7.04505e-18
0.0423011
-4.84998e-18
0.0423011
8.28205e-18
0.0423011
2.59572e-17
0.0423011
1.9127e-17
0.0423011
1.13947e-17
0.0423011
-5.45472e-18
0.0423011
-6.09744e-18
0.0423011
-2.35493e-18
0.0423011
9.74138e-18
0.0423011
3.59097e-18
0.0423011
3.21857e-17
0.0423011
1.12238e-18
0.0423011
-5.23833e-18
0.0423011
8.56582e-18
0.0423011
2.07254e-18
0.0423011
-8.64928e-18
0.0423011
1.61765e-17
0.0423011
1.62547e-17
0.0423011
-5.18192e-18
0.0423011
1.1482e-17
0.0423011
-4.00498e-18
0.0423011
4.31136e-19
0.0423011
2.49458e-18
0.0423011
1.42449e-17
0.0423011
2.02781e-18
1.97765e-17
0.0423011
0.0423011
3.67906e-18
0.0423011
8.54427e-18
0.0423011
4.77021e-18
0.0423011
-1.55864e-17
0.0423011
-7.02522e-18
0.0423011
-1.51139e-17
0.0423011
1.79242e-18
0.0423011
1.97255e-17
0.0423011
1.93506e-18
0.0423011
-3.74595e-18
0.0423011
-1.67668e-17
0.0423011
-2.69075e-17
0.0423011
-1.15387e-17
0.0423011
-1.62633e-17
0.0423011
-1.86882e-17
0.0423011
-5.09875e-18
0.0423011
-4.09419e-19
0.0423011
1.41659e-17
0.0423011
1.12684e-17
0.0423011
9.78698e-18
0.0423011
1.2285e-17
0.0423011
4.27937e-18
0.0423011
-1.05118e-17
0.0423011
1.19572e-17
0.0423011
7.16708e-18
0.0423011
-1.30722e-17
0.0423011
1.29552e-17
0.0423011
1.99664e-17
0.0423011
2.31267e-17
0.0423011
2.17207e-17
0.0423011
3.76269e-17
0.0423011
1.22569e-17
0.0423011
1.22595e-17
0.0423011
1.67799e-17
0.0423011
3.86239e-17
0.0423011
3.82648e-17
0.0423011
4.3147e-17
4.43205e-17
0.0423011
0.0423011
-1.01936e-19
0.0423011
1.94218e-17
0.0423011
8.60938e-18
0.0423011
1.27145e-17
0.0423011
3.31728e-17
0.0423011
1.18315e-17
0.0423011
9.5715e-18
0.0423011
-1.06972e-18
0.0423011
-1.81509e-18
0.0423011
-1.00808e-17
0.0423011
1.48734e-17
0.0423011
6.61353e-18
0.0423011
-8.99122e-18
0.0423011
4.86193e-18
0.0423011
-1.84152e-18
0.0423011
-1.67898e-17
0.0423011
-2.40911e-17
0.0423011
-2.3079e-17
0.0423011
-1.50312e-17
0.0423011
-4.45248e-18
0.0423011
-8.98297e-18
0.0423011
1.16634e-17
0.0423011
3.40893e-17
0.0423011
1.6139e-17
0.0423011
1.96822e-17
0.0423011
1.00175e-17
0.0423011
-5.10906e-18
0.0423011
1.15734e-17
0.0423011
1.59604e-17
0.0423011
-3.45495e-18
0.0423011
8.96008e-18
0.0423011
1.50515e-17
0.0423011
2.76343e-17
0.0423011
2.84084e-17
0.0423011
1.64019e-17
0.0423011
2.44724e-17
0.0423011
4.97474e-17
3.4083e-17
0.0423011
0.0423011
-4.91376e-18
0.0423011
-2.0541e-17
0.0423011
-3.12831e-18
0.0423011
1.67852e-17
0.0423011
1.15805e-17
0.0423011
-5.67682e-18
0.0423011
-2.34618e-18
0.0423011
8.36661e-18
0.0423011
4.47378e-18
0.0423011
1.41486e-17
0.0423011
-1.07554e-17
0.0423011
-1.07425e-17
0.0423011
-2.71784e-17
0.0423011
-2.70449e-18
0.0423011
-1.21135e-17
0.0423011
-1.16333e-17
0.0423011
-2.20499e-17
0.0423011
-1.39179e-17
0.0423011
-5.6192e-18
0.0423011
-6.23851e-18
0.0423011
-5.12026e-18
0.0423011
5.80486e-19
0.0423011
7.19852e-18
0.0423011
1.76267e-17
0.0423011
3.92298e-17
0.0423011
7.37997e-18
0.0423011
3.41909e-18
0.0423011
-1.29929e-18
0.0423011
-6.09284e-18
0.0423011
1.16447e-17
0.0423011
2.58637e-17
0.0423011
2.16854e-17
0.0423011
2.72282e-17
0.0423011
2.63324e-17
0.0423011
6.35764e-17
0.0423011
3.56435e-17
0.0423011
8.12377e-18
3.7146e-17
0.0423011
0.0423011
1.11805e-17
0.0423011
-5.46879e-18
0.0423011
7.31956e-18
0.0423011
1.01855e-18
0.0423011
-2.06912e-18
0.0423011
4.78889e-18
0.0423011
6.649e-19
0.0423011
6.08513e-18
0.0423011
1.64403e-17
0.0423011
6.6263e-18
0.0423011
2.22752e-18
0.0423011
-6.02377e-18
0.0423011
-8.75478e-18
0.0423011
-2.65442e-17
0.0423011
-2.46398e-17
0.0423011
-2.04188e-17
0.0423011
2.22121e-18
0.0423011
3.07648e-18
0.0423011
-2.4773e-18
0.0423011
9.18633e-19
0.0423011
4.67422e-18
0.0423011
8.82729e-18
0.0423011
-6.27497e-19
0.0423011
2.02415e-17
0.0423011
-4.64067e-18
0.0423011
1.6834e-17
0.0423011
9.79604e-18
0.0423011
-7.49953e-19
0.0423011
-1.13431e-18
0.0423011
1.59114e-17
0.0423011
-8.46496e-19
0.0423011
1.49643e-17
0.0423011
2.23671e-17
0.0423011
2.52457e-17
0.0423011
5.84905e-18
0.0423011
2.64552e-17
0.0423011
2.08435e-17
1.1485e-17
0.0423011
0.0423011
5.44815e-18
0.0423011
9.59533e-18
0.0423011
3.64363e-18
0.0423011
1.34381e-17
0.0423011
-3.21283e-17
0.0423011
-8.78762e-19
0.0423011
1.10325e-17
0.0423011
1.51369e-17
0.0423011
2.00705e-17
0.0423011
1.27762e-17
0.0423011
-1.33128e-17
0.0423011
-1.51611e-17
0.0423011
-1.85951e-17
0.0423011
-1.79417e-17
0.0423011
-5.8186e-18
0.0423011
7.08886e-18
0.0423011
2.60429e-18
0.0423011
-7.65028e-18
0.0423011
7.55204e-19
0.0423011
-6.47674e-18
0.0423011
8.48929e-18
0.0423011
7.54516e-18
0.0423011
2.77215e-17
0.0423011
1.22429e-17
0.0423011
1.29875e-17
0.0423011
2.41273e-17
0.0423011
-6.33273e-19
0.0423011
4.18189e-18
0.0423011
2.71035e-18
0.0423011
2.85842e-18
0.0423011
3.13156e-17
0.0423011
4.35491e-17
0.0423011
3.88535e-17
0.0423011
2.88118e-17
0.0423011
1.04163e-17
0.0423011
-4.85673e-18
0.0423011
-1.84798e-17
5.81438e-18
0.0423011
0.0423011
-6.64706e-18
0.0423011
4.35017e-18
0.0423011
-1.34827e-18
0.0423011
5.19237e-18
0.0423011
1.72674e-17
0.0423011
1.04573e-17
0.0423011
1.16277e-17
0.0423011
1.72389e-17
0.0423011
2.51963e-17
0.0423011
2.24908e-17
0.0423011
5.5388e-18
0.0423011
-4.91901e-18
0.0423011
1.81687e-17
0.0423011
1.76525e-17
0.0423011
1.29587e-17
0.0423011
9.28254e-18
0.0423011
4.93409e-18
0.0423011
2.07602e-17
0.0423011
5.577e-18
0.0423011
2.03126e-17
0.0423011
3.17842e-17
0.0423011
2.75922e-17
0.0423011
3.93836e-18
0.0423011
1.79224e-17
0.0423011
1.06702e-17
0.0423011
7.08955e-18
0.0423011
1.5811e-17
0.0423011
2.26961e-17
0.0423011
4.16594e-17
0.0423011
-1.47622e-18
0.0423011
4.74576e-17
0.0423011
2.07045e-17
0.0423011
4.87131e-17
0.0423011
5.08871e-17
0.0423011
1.63376e-17
0.0423011
1.38738e-17
0.0423011
1.44186e-17
-5.37959e-18
0.0423011
0.0423011
1.28504e-17
0.0423011
8.7499e-18
0.0423011
-1.52155e-18
0.0423011
-8.4758e-18
0.0423011
1.12218e-17
0.0423011
1.36595e-17
0.0423011
-3.82717e-18
0.0423011
1.61238e-17
0.0423011
7.69718e-18
0.0423011
2.96146e-17
0.0423011
7.46293e-18
0.0423011
2.09141e-17
0.0423011
4.2817e-18
0.0423011
1.70632e-17
0.0423011
9.92554e-18
0.0423011
-9.06444e-18
0.0423011
1.23237e-17
0.0423011
-2.62092e-18
0.0423011
1.59094e-17
0.0423011
1.76598e-17
0.0423011
3.83041e-17
0.0423011
8.85718e-18
0.0423011
1.86291e-17
0.0423011
2.00104e-17
0.0423011
3.50907e-18
0.0423011
7.8401e-18
0.0423011
6.71932e-18
0.0423011
1.84058e-17
0.0423011
2.02452e-17
0.0423011
3.75592e-17
0.0423011
1.41578e-17
0.0423011
2.68105e-17
0.0423011
5.64318e-19
0.0423011
-7.29159e-18
0.0423011
1.59052e-17
0.0423011
6.80526e-18
0.0423011
-2.80797e-19
-9.87135e-18
0.0423011
0.0423011
-1.59986e-18
0.0423011
1.70697e-17
0.0423011
-2.02846e-19
0.0423011
-1.09457e-17
0.0423011
-1.32567e-18
0.0423011
1.29069e-17
0.0423011
6.52452e-19
0.0423011
-1.2593e-17
0.0423011
5.72177e-18
0.0423011
-5.59318e-18
0.0423011
4.92318e-17
0.0423011
2.8653e-17
0.0423011
2.31819e-17
0.0423011
2.41969e-17
0.0423011
2.34276e-17
0.0423011
1.87988e-17
0.0423011
1.69644e-17
0.0423011
1.28879e-17
0.0423011
3.72472e-18
0.0423011
2.09283e-17
0.0423011
-8.69359e-18
0.0423011
8.29629e-19
0.0423011
3.37442e-18
0.0423011
-1.86707e-17
0.0423011
4.63369e-18
0.0423011
2.334e-17
0.0423011
2.78334e-17
0.0423011
2.66885e-17
0.0423011
2.41754e-17
0.0423011
1.35587e-17
0.0423011
1.06438e-17
0.0423011
-1.81904e-17
0.0423011
-1.54749e-17
0.0423011
-4.8924e-18
0.0423011
-1.00148e-17
0.0423011
-3.18954e-17
0.0423011
-2.92508e-17
-2.30866e-17
0.0423011
0.0423011
-5.7712e-18
0.0423011
-3.50391e-17
0.0423011
-6.7616e-18
0.0423011
-8.85177e-19
0.0423011
-3.22532e-19
0.0423011
-1.00888e-17
0.0423011
1.54756e-17
0.0423011
-4.45936e-18
0.0423011
-1.68179e-17
0.0423011
-2.13488e-17
0.0423011
9.83415e-18
0.0423011
4.34404e-17
0.0423011
1.55837e-17
0.0423011
2.48343e-17
0.0423011
4.98208e-18
0.0423011
2.00145e-17
0.0423011
1.52482e-17
0.0423011
5.93263e-18
0.0423011
1.1861e-17
0.0423011
3.29946e-18
0.0423011
-9.5863e-18
0.0423011
-2.69943e-18
0.0423011
-2.51123e-17
0.0423011
-1.00517e-17
0.0423011
-1.12046e-18
0.0423011
2.33963e-17
0.0423011
2.90355e-17
0.0423011
2.55847e-17
0.0423011
1.24855e-17
0.0423011
1.06725e-17
0.0423011
1.47038e-17
0.0423011
-7.72245e-18
0.0423011
1.67996e-17
0.0423011
-2.12364e-17
0.0423011
-2.99025e-17
0.0423011
-1.58282e-17
0.0423011
-2.18717e-17
-1.32895e-17
0.0423011
0.0423011
4.54411e-18
0.0423011
1.97852e-17
0.0423011
1.26792e-17
0.0423011
-7.82066e-18
0.0423011
-2.34195e-18
0.0423011
-1.18135e-18
0.0423011
-9.87266e-18
0.0423011
-2.39223e-17
0.0423011
-1.97889e-18
0.0423011
-4.53662e-18
0.0423011
5.52859e-18
0.0423011
1.57448e-18
0.0423011
1.54465e-17
0.0423011
2.43705e-17
0.0423011
2.17593e-17
0.0423011
2.2646e-17
0.0423011
5.88655e-18
0.0423011
-1.49847e-18
0.0423011
1.58183e-19
0.0423011
-6.89626e-18
0.0423011
3.018e-18
0.0423011
-2.86321e-18
0.0423011
-6.25886e-18
0.0423011
3.22742e-17
0.0423011
1.72559e-17
0.0423011
1.87189e-17
0.0423011
9.16557e-18
0.0423011
2.93466e-17
0.0423011
2.99635e-17
0.0423011
1.18146e-17
0.0423011
1.73436e-17
0.0423011
2.75875e-17
0.0423011
8.06868e-18
0.0423011
7.70721e-18
0.0423011
-1.55949e-17
0.0423011
8.34135e-18
0.0423011
1.8155e-17
2.00226e-18
0.0423011
0.0423011
-6.42373e-18
0.0423011
-1.58707e-17
0.0423011
-2.14534e-17
0.0423011
8.13239e-18
0.0423011
1.41375e-18
0.0423011
-1.03336e-17
0.0423011
-7.12384e-18
0.0423011
6.26254e-18
0.0423011
6.03476e-18
0.0423011
2.36035e-17
0.0423011
2.54284e-17
0.0423011
2.93889e-17