/*--------------------------------*- C++ -*----------------------------------*\
| =========                 |                                                 |
| \\      /  F ield         | OpenFOAM: The Open Source CFD Toolbox           |
|  \\    /   O peration     | Version:  v1812                                 |
|   \\  /    A nd           | Web:      www.OpenFOAM.com                      |
|    \\/     M anipulation  |                                                 |
\*---------------------------------------------------------------------------*/
FoamFile
{
    version     2.0;
    format      ascii;
    class       volVectorField;
    location    "0.0025";
    object      U;
}
// * * * * * * * * * * * * * * * * * * * * * * * * * * * * * * * * * * * * * //

dimensions      [0 1 -1 0 0 0 0];


internalField   nonuniform List<vector> 
8475
(
(851.84 2.40819e-13 0)
(851.84 -7.47799e-14 0)
(851.84 5.83771e-16 0)
(851.84 -2.3988e-13 0)
(851.84 -2.65964e-13 0)
(851.84 -2.49433e-13 0)
(851.84 -2.35165e-13 0)
(851.84 -1.13943e-13 0)
(851.84 -2.04798e-13 0)
(851.84 -2.99724e-13 0)
(851.84 -4.45021e-13 0)
(851.84 -5.82966e-13 0)
(851.84 -5.83498e-13 0)
(851.84 -4.09885e-14 0)
(851.84 1.33886e-13 0)
(851.84 9.0244e-13 0)
(851.84 5.437e-13 0)
(851.84 4.37687e-13 0)
(851.84 8.06296e-13 0)
(851.84 8.89255e-13 0)
(851.84 2.03199e-12 0)
(851.84 2.01176e-12 0)
(851.84 2.13596e-12 0)
(851.84 2.31342e-12 0)
(851.84 2.19146e-12 0)
(851.84 2.5227e-12 0)
(851.84 2.49246e-12 0)
(851.84 2.15998e-12 0)
(851.84 2.09288e-12 0)
(851.84 2.04053e-12 0)
(851.84 2.41526e-12 0)
(851.84 1.0374e-12 0)
(851.84 2.07947e-10 0)
(851.84 -7.96756e-09 0)
(851.84 9.41218e-07 0)
(851.84 -4.01965e-05 0)
(851.832 0.0049701 0)
(851.352 -0.248932 0)
(851.84 1.46169e-13 0)
(851.84 -1.19902e-14 0)
(851.84 -7.41473e-14 0)
(851.84 -1.67666e-14 0)
(851.84 -3.45507e-13 0)
(851.84 -3.14703e-13 0)
(851.84 -1.58677e-13 0)
(851.84 -3.63203e-13 0)
(851.84 -1.87035e-13 0)
(851.84 -5.46806e-13 0)
(851.84 -5.97672e-13 0)
(851.84 -6.80076e-13 0)
(851.84 -4.81422e-13 0)
(851.84 -2.88654e-13 0)
(851.84 -1.34403e-13 0)
(851.84 -3.25088e-14 0)
(851.84 2.45956e-15 0)
(851.84 2.70168e-13 0)
(851.84 6.41114e-13 0)
(851.84 1.25005e-12 0)
(851.84 1.15576e-12 0)
(851.84 1.06497e-12 0)
(851.84 1.10038e-12 0)
(851.84 1.05652e-12 0)
(851.84 1.116e-12 0)
(851.84 8.08635e-13 0)
(851.84 9.33469e-13 0)
(851.84 1.0302e-12 0)
(851.84 1.28122e-12 0)
(851.84 1.28113e-12 0)
(851.84 1.38483e-12 0)
(851.84 4.33685e-12 0)
(851.84 1.47141e-10 0)
(851.84 1.17988e-08 0)
(851.84 4.73252e-07 0)
(851.84 4.90726e-05 0)
(851.837 0.00138455 0)
(851.721 0.190386 0)
(851.84 2.57321e-14 0)
(851.84 5.84581e-14 0)
(851.84 -1.87009e-14 0)
(851.84 -5.13115e-14 0)
(851.84 -3.50199e-13 0)
(851.84 -4.96521e-13 0)
(851.84 -5.04285e-13 0)
(851.84 -3.77044e-13 0)
(851.84 -3.56593e-13 0)
(851.84 -3.43409e-13 0)
(851.84 -3.15002e-13 0)
(851.84 -3.46772e-13 0)
(851.84 -3.90432e-13 0)
(851.84 -3.94055e-13 0)
(851.84 -3.8029e-13 0)
(851.84 -2.84641e-13 0)
(851.84 -2.29428e-13 0)
(851.84 2.45309e-14 0)
(851.84 -2.50482e-13 0)
(851.84 -2.01667e-13 0)
(851.84 3.5147e-13 0)
(851.84 5.64016e-13 0)
(851.84 7.04723e-13 0)
(851.84 7.97381e-13 0)
(851.84 1.13746e-12 0)
(851.84 1.21372e-12 0)
(851.84 1.17917e-12 0)
(851.84 1.02531e-12 0)
(851.84 1.24925e-12 0)
(851.84 1.64366e-12 0)
(851.84 1.46945e-12 0)
(851.84 2.52254e-12 0)
(851.84 4.03972e-11 0)
(851.84 5.57939e-09 0)
(851.84 8.44034e-08 0)
(851.84 1.50939e-05 0)
(851.84 0.000154871 0)
(851.823 0.0327561 0)
(851.84 -1.28919e-13 0)
(851.84 1.57508e-13 0)
(851.84 1.02683e-13 0)
(851.84 -4.95869e-14 0)
(851.84 6.32548e-14 0)
(851.84 -2.12564e-13 0)
(851.84 -2.53481e-13 0)
(851.84 -4.63804e-14 0)
(851.84 -1.3532e-13 0)
(851.84 -9.7143e-14 0)
(851.84 -2.04777e-13 0)
(851.84 -1.10443e-13 0)
(851.84 -2.19789e-13 0)
(851.84 -3.67453e-13 0)
(851.84 -2.38915e-13 0)
(851.84 -1.93642e-13 0)
(851.84 -1.14654e-14 0)
(851.84 -8.28177e-14 0)
(851.84 -1.40662e-15 0)
(851.84 -1.0698e-13 0)
(851.84 5.25072e-14 0)
(851.84 3.4072e-13 0)
(851.84 5.32468e-13 0)
(851.84 3.83852e-13 0)
(851.84 1.23057e-13 0)
(851.84 -9.75715e-14 0)
(851.84 2.37847e-13 0)
(851.84 6.74395e-13 0)
(851.84 6.74542e-13 0)
(851.84 8.23138e-13 0)
(851.84 8.94854e-13 0)
(851.84 1.70898e-12 0)
(851.84 8.75062e-13 0)
(851.84 1.12242e-09 0)
(851.84 5.80738e-10 0)
(851.84 2.02886e-06 0)
(851.84 1.45687e-06 0)
(851.839 0.00313385 0)
(851.84 9.59395e-14 0)
(851.84 -8.48342e-14 0)
(851.84 8.88539e-16 0)
(851.84 -3.5083e-13 0)
(851.84 -2.69216e-13 0)
(851.84 -1.62298e-13 0)
(851.84 -1.60125e-13 0)
(851.84 -2.48601e-13 0)
(851.84 -2.17365e-13 0)
(851.84 -2.13671e-13 0)
(851.84 -1.80771e-13 0)
(851.84 -1.95277e-13 0)
(851.84 -2.52596e-13 0)
(851.84 -3.87012e-13 0)
(851.84 2.20461e-13 0)
(851.84 3.50731e-13 0)
(851.84 1.12761e-14 0)
(851.84 1.23863e-13 0)
(851.84 -6.43873e-14 0)
(851.84 -1.5646e-13 0)
(851.84 -7.59106e-14 0)
(851.84 -1.49203e-13 0)
(851.84 -1.48905e-13 0)
(851.84 -2.5199e-13 0)
(851.84 -2.45174e-13 0)
(851.84 2.00087e-17 0)
(851.84 1.20145e-13 0)
(851.84 4.79648e-13 0)
(851.84 2.71952e-13 0)
(851.84 4.66519e-13 0)
(851.84 6.32468e-13 0)
(851.84 7.02778e-13 0)
(851.84 3.81728e-13 0)
(851.84 9.8351e-11 0)
(851.84 -1.6788e-10 0)
(851.84 1.30139e-07 0)
(851.84 -8.28586e-08 0)
(851.84 0.000178436 0)
(851.84 -4.12531e-14 0)
(851.84 -1.39613e-13 0)
(851.84 -4.85003e-14 0)
(851.84 -3.08303e-13 0)
(851.84 -3.84382e-13 0)
(851.84 -2.46831e-13 0)
(851.84 -3.79001e-13 0)
(851.84 -5.55728e-13 0)
(851.84 -4.60857e-13 0)
(851.84 -3.04097e-13 0)
(851.84 -2.17684e-13 0)
(851.84 -2.76976e-13 0)
(851.84 -4.41058e-13 0)
(851.84 -5.66343e-13 0)
(851.84 -4.59792e-13 0)
(851.84 -1.4972e-13 0)
(851.84 -3.28738e-14 0)
(851.84 -1.58551e-13 0)
(851.84 -2.65304e-13 0)
(851.84 -4.8331e-13 0)
(851.84 1.67144e-13 0)
(851.84 3.87534e-13 0)
(851.84 2.32421e-13 0)
(851.84 5.61748e-14 0)
(851.84 3.14569e-14 0)
(851.84 2.21512e-13 0)
(851.84 6.02652e-13 0)
(851.84 2.56231e-13 0)
(851.84 1.39516e-13 0)
(851.84 -1.31584e-13 0)
(851.84 -8.24569e-14 0)
(851.84 1.20302e-13 0)
(851.84 -1.91476e-13 0)
(851.84 3.08517e-12 0)
(851.84 -1.13938e-11 0)
(851.84 5.27692e-09 0)
(851.84 -4.04238e-09 0)
(851.84 7.30153e-06 0)
(851.84 -2.06616e-13 0)
(851.84 -2.69198e-13 0)
(851.84 -3.27987e-13 0)
(851.84 -1.10267e-13 0)
(851.84 -3.45987e-13 0)
(851.84 -6.49299e-13 0)
(851.84 -3.20627e-13 0)
(851.84 -2.11236e-13 0)
(851.84 -1.73228e-13 0)
(851.84 -1.7604e-13 0)
(851.84 -2.47776e-13 0)
(851.84 -3.65936e-13 0)
(851.84 -2.82442e-13 0)
(851.84 -3.77582e-13 0)
(851.84 -4.7549e-13 0)
(851.84 -7.49126e-13 0)
(851.84 -3.39043e-13 0)
(851.84 -4.18968e-13 0)
(851.84 -3.81988e-13 0)
(851.84 -1.60846e-13 0)
(851.84 -2.98333e-13 0)
(851.84 -4.9766e-13 0)
(851.84 -3.91122e-13 0)
(851.84 -2.96988e-13 0)
(851.84 -8.55163e-14 0)
(851.84 -1.75882e-14 0)
(851.84 -7.25171e-14 0)
(851.84 -5.40159e-14 0)
(851.84 5.05626e-14 0)
(851.84 7.31106e-14 0)
(851.84 -8.23125e-15 0)
(851.84 -3.04753e-13 0)
(851.84 1.02037e-13 0)
(851.84 1.44706e-13 0)
(851.84 -1.48762e-12 0)
(851.84 1.54041e-10 0)
(851.84 -4.11726e-11 0)
(851.84 2.27707e-07 0)
(851.84 -2.8227e-14 0)
(851.84 -1.6097e-13 0)
(851.84 -5.06624e-13 0)
(851.84 -1.26318e-13 0)
(851.84 3.9348e-14 0)
(851.84 -9.47197e-14 0)
(851.84 -1.44689e-13 0)
(851.84 1.2798e-14 0)
(851.84 -1.16738e-13 0)
(851.84 -1.02812e-13 0)
(851.84 -2.26674e-13 0)
(851.84 -4.12253e-13 0)
(851.84 -3.26288e-13 0)
(851.84 -3.06284e-13 0)
(851.84 -4.71508e-13 0)
(851.84 -2.73844e-13 0)
(851.84 -4.72261e-13 0)
(851.84 -7.44673e-14 0)
(851.84 -6.13588e-14 0)
(851.84 -1.59929e-13 0)
(851.84 -2.63765e-13 0)
(851.84 -4.86721e-13 0)
(851.84 -5.10857e-13 0)
(851.84 -2.87523e-13 0)
(851.84 -1.95488e-13 0)
(851.84 -3.46329e-13 0)
(851.84 -5.06074e-13 0)
(851.84 -4.19814e-13 0)
(851.84 -4.99586e-13 0)
(851.84 2.13082e-13 0)
(851.84 2.3702e-13 0)
(851.84 4.20635e-13 0)
(851.84 5.8918e-13 0)
(851.84 5.21912e-13 0)
(851.84 1.40371e-14 0)
(851.84 1.77648e-12 0)
(851.84 -3.7677e-12 0)
(851.84 5.80722e-09 0)
(851.84 1.8906e-14 0)
(851.84 -4.44031e-14 0)
(851.84 -2.72186e-13 0)
(851.84 -2.37087e-13 0)
(851.84 -3.82582e-14 0)
(851.84 1.25204e-13 0)
(851.84 3.40137e-13 0)
(851.84 2.41444e-13 0)
(851.84 1.74729e-14 0)
(851.84 -3.35311e-13 0)
(851.84 -2.49117e-13 0)
(851.84 -2.4794e-13 0)
(851.84 -3.16756e-13 0)
(851.84 -3.066e-13 0)
(851.84 -2.66229e-13 0)
(851.84 -3.33577e-14 0)
(851.84 1.03181e-13 0)
(851.84 2.72165e-13 0)
(851.84 1.48781e-13 0)
(851.84 -1.29617e-14 0)
(851.84 -2.21996e-13 0)
(851.84 -3.40844e-13 0)
(851.84 -6.68087e-13 0)
(851.84 -5.78616e-13 0)
(851.84 -3.94639e-13 0)
(851.84 -6.47299e-13 0)
(851.84 -8.68121e-13 0)
(851.84 -9.36662e-13 0)
(851.84 -6.69799e-13 0)
(851.84 -4.65897e-13 0)
(851.84 -4.23062e-13 0)
(851.84 -6.16034e-13 0)
(851.84 -4.29403e-13 0)
(851.84 -1.17313e-13 0)
(851.84 -1.75325e-13 0)
(851.84 6.33676e-13 0)
(851.84 5.64144e-13 0)
(851.84 1.33133e-10 0)
(851.84 -3.79567e-14 0)
(851.84 -1.11651e-13 0)
(851.84 8.0384e-14 0)
(851.84 -5.71511e-14 0)
(851.84 3.68138e-14 0)
(851.84 1.50566e-13 0)
(851.84 -1.00818e-13 0)
(851.84 3.6537e-14 0)
(851.84 -2.01385e-14 0)
(851.84 -1.28629e-13 0)
(851.84 -1.6438e-13 0)
(851.84 -7.84319e-14 0)
(851.84 -1.2391e-13 0)
(851.84 -3.4176e-13 0)
(851.84 -5.32466e-13 0)
(851.84 -3.42818e-13 0)
(851.84 -2.43427e-13 0)
(851.84 -1.32207e-13 0)
(851.84 5.67767e-15 0)
(851.84 7.63418e-14 0)
(851.84 4.66583e-14 0)
(851.84 -3.14766e-13 0)
(851.84 -4.44354e-13 0)
(851.84 -5.91184e-13 0)
(851.84 -7.58502e-13 0)
(851.84 -7.31303e-13 0)
(851.84 -6.97198e-13 0)
(851.84 -7.63752e-13 0)
(851.84 -6.0528e-13 0)
(851.84 -7.85626e-13 0)
(851.84 -6.9443e-13 0)
(851.84 -9.26016e-13 0)
(851.84 -7.84567e-13 0)
(851.84 -5.6041e-13 0)
(851.84 -1.07004e-13 0)
(851.84 3.23418e-14 0)
(851.84 -2.75304e-13 0)
(851.84 1.50072e-12 0)
(851.84 -6.46134e-14 0)
(851.84 2.26338e-13 0)
(851.84 4.63486e-13 0)
(851.84 2.75033e-13 0)
(851.84 3.22087e-13 0)
(851.84 1.38152e-13 0)
(851.84 4.35627e-14 0)
(851.84 -3.89595e-13 0)
(851.84 -2.99878e-13 0)
(851.84 1.05823e-13 0)
(851.84 1.72354e-13 0)
(851.84 3.11028e-13 0)
(851.84 -1.07105e-15 0)
(851.84 -2.12056e-13 0)
(851.84 -4.44405e-13 0)
(851.84 -6.83415e-13 0)
(851.84 -4.47352e-13 0)
(851.84 -3.78614e-13 0)
(851.84 -1.75434e-13 0)
(851.84 -7.92973e-14 0)
(851.84 -1.97986e-13 0)
(851.84 -3.9631e-13 0)
(851.84 -3.44206e-13 0)
(851.84 -5.32053e-13 0)
(851.84 -6.5567e-13 0)
(851.84 -6.74902e-13 0)
(851.84 -5.86901e-13 0)
(851.84 -5.302e-13 0)
(851.84 -3.88442e-13 0)
(851.84 -5.10207e-13 0)
(851.84 -7.82098e-13 0)
(851.84 -8.1207e-13 0)
(851.84 -7.78602e-13 0)
(851.84 -4.70345e-13 0)
(851.84 -1.60044e-14 0)
(851.84 1.34566e-13 0)
(851.84 2.49392e-13 0)
(851.84 1.72224e-13 0)
(851.84 1.80827e-13 0)
(851.84 5.86098e-13 0)
(851.84 4.14446e-13 0)
(851.84 2.06791e-13 0)
(851.84 -1.8103e-13 0)
(851.84 -2.24049e-13 0)
(851.84 -2.24352e-13 0)
(851.84 -2.24256e-13 0)
(851.84 -2.7754e-13 0)
(851.84 -1.98092e-13 0)
(851.84 1.23086e-13 0)
(851.84 1.02938e-13 0)
(851.84 2.07857e-13 0)
(851.84 5.79092e-14 0)
(851.84 5.50344e-14 0)
(851.84 -1.81378e-13 0)
(851.84 -3.82427e-13 0)
(851.84 -3.37717e-13 0)
(851.84 -1.74653e-13 0)
(851.84 -3.83027e-14 0)
(851.84 -1.1911e-13 0)
(851.84 -1.76786e-13 0)
(851.84 -1.06728e-13 0)
(851.84 -8.5813e-14 0)
(851.84 -4.49043e-14 0)
(851.84 -5.44318e-14 0)
(851.84 -5.86404e-14 0)
(851.84 -1.08303e-13 0)
(851.84 -2.8627e-13 0)
(851.84 -1.7768e-13 0)
(851.84 -4.41738e-13 0)
(851.84 -4.5858e-13 0)
(851.84 -3.93799e-13 0)
(851.84 -3.51085e-13 0)
(851.84 -2.49712e-13 0)
(851.84 -2.13642e-13 0)
(851.84 -1.37194e-13 0)
(851.84 -7.93844e-14 0)
(851.84 -2.39349e-14 0)
(851.84 1.04297e-13 0)
(851.84 1.14907e-13 0)
(851.84 1.62366e-13 0)
(851.84 -1.19796e-15 0)
(851.84 5.16871e-14 0)
(851.84 -1.13514e-13 0)
(851.84 -2.65159e-13 0)
(851.84 -2.59196e-14 0)
(851.84 -5.73692e-14 0)
(851.84 -1.14955e-13 0)
(851.84 -2.24334e-13 0)
(851.84 -1.07702e-13 0)
(851.84 8.84924e-14 0)
(851.84 2.68008e-13 0)
(851.84 1.16131e-13 0)
(851.84 -3.67616e-14 0)
(851.84 -1.70006e-13 0)
(851.84 -2.63476e-13 0)
(851.84 -1.15658e-13 0)
(851.84 -3.3139e-14 0)
(851.84 1.90382e-13 0)
(851.84 3.38123e-13 0)
(851.84 1.31864e-13 0)
(851.84 3.40129e-13 0)
(851.84 2.04702e-13 0)
(851.84 3.48165e-14 0)
(851.84 -7.47182e-15 0)
(851.84 -3.85659e-13 0)
(851.84 -5.26099e-13 0)
(851.84 -6.51851e-13 0)
(851.84 -4.77394e-13 0)
(851.84 -3.94089e-13 0)
(851.84 -3.36199e-13 0)
(851.84 -3.19727e-13 0)
(851.84 -2.92818e-13 0)
(851.84 -3.79876e-13 0)
(851.84 -2.69017e-13 0)
(851.84 6.83595e-14 0)
(851.84 -1.25837e-13 0)
(851.84 -9.08892e-14 0)
(851.84 -3.99242e-14 0)
(851.84 -1.55289e-13 0)
(851.84 -2.95881e-15 0)
(851.84 2.10061e-14 0)
(851.84 -3.88674e-14 0)
(851.84 1.26576e-13 0)
(851.84 3.16598e-14 0)
(851.84 -2.19044e-13 0)
(851.84 -2.48775e-13 0)
(851.84 8.45506e-15 0)
(851.84 5.11648e-13 0)
(851.84 6.4558e-13 0)
(851.84 7.53961e-13 0)
(851.84 7.62437e-13 0)
(851.84 4.53751e-13 0)
(851.84 2.20374e-13 0)
(851.84 8.94728e-14 0)
(851.84 2.10022e-13 0)
(851.84 6.21516e-14 0)
(851.84 1.59614e-13 0)
(851.84 4.58478e-14 0)
(851.84 2.71621e-14 0)
(851.84 -5.1267e-13 0)
(851.84 3.64775e-13 0)
(851.84 6.25417e-14 0)
(851.84 1.27814e-13 0)
(851.84 1.07932e-13 0)
(851.84 3.53518e-13 0)
(851.84 3.4818e-13 0)
(851.84 -6.0428e-14 0)
(851.84 -9.52553e-14 0)
(851.84 -2.8201e-14 0)
(851.84 2.74445e-14 0)
(851.84 -3.94423e-13 0)
(851.84 -3.39927e-13 0)
(851.84 7.80254e-14 0)
(851.84 -1.82494e-13 0)
(851.84 -2.24109e-13 0)
(851.84 -1.32286e-13 0)
(851.84 -1.41557e-14 0)
(851.84 -2.21687e-14 0)
(851.84 1.48801e-13 0)
(851.84 2.65285e-13 0)
(851.84 1.29018e-13 0)
(851.84 -1.04887e-13 0)
(851.84 -2.47834e-13 0)
(851.84 -3.99612e-13 0)
(851.84 -5.7497e-15 0)
(851.84 -1.12267e-13 0)
(851.84 5.86049e-13 0)
(851.84 4.65631e-13 0)
(851.84 2.7285e-13 0)
(851.84 4.2941e-13 0)
(851.84 4.81363e-13 0)
(851.84 3.1748e-13 0)
(851.84 2.87975e-13 0)
(851.84 3.87182e-13 0)
(851.84 3.03055e-13 0)
(851.84 1.27267e-13 0)
(851.84 -7.42057e-14 0)
(851.84 2.10216e-13 0)
(851.84 8.80744e-14 0)
(851.84 1.38523e-13 0)
(851.84 4.97496e-14 0)
(851.84 1.46053e-14 0)
(851.84 2.69582e-13 0)
(851.84 3.54851e-13 0)
(851.84 3.77934e-13 0)
(851.84 1.04573e-13 0)
(851.84 -3.28981e-14 0)
(851.84 -4.34031e-14 0)
(851.84 -1.06574e-13 0)
(851.84 -3.29487e-13 0)
(851.84 -1.24043e-13 0)
(851.84 -3.7323e-13 0)
(851.84 -3.49723e-13 0)
(851.84 -1.64434e-13 0)
(851.84 -1.24534e-13 0)
(851.84 -8.23909e-14 0)
(851.84 -6.43174e-14 0)
(851.84 6.51555e-14 0)
(851.84 1.95502e-13 0)
(851.84 2.84543e-13 0)
(851.84 1.05214e-13 0)
(851.84 5.73833e-14 0)
(851.84 -1.72134e-13 0)
(851.84 -2.83962e-13 0)
(851.84 -1.51083e-13 0)
(851.84 -1.66779e-14 0)
(851.84 2.03709e-13 0)
(851.84 1.81775e-13 0)
(851.84 1.80677e-13 0)
(851.84 1.82802e-13 0)
(851.84 1.40106e-14 0)
(851.84 3.40063e-13 0)
(851.84 1.11307e-13 0)
(851.84 1.67973e-13 0)
(851.84 3.38083e-13 0)
(851.84 3.121e-13 0)
(851.84 4.27498e-13 0)
(851.84 1.79777e-13 0)
(851.84 2.32286e-13 0)
(851.84 4.28656e-13 0)
(851.84 1.11361e-13 0)
(851.84 -7.00709e-14 0)
(851.84 1.50329e-13 0)
(851.84 1.66678e-13 0)
(851.84 -1.71786e-13 0)
(851.84 -2.21525e-13 0)
(851.84 -2.43844e-13 0)
(851.84 -2.55502e-13 0)
(851.84 -6.76846e-14 0)
(851.84 -2.13258e-13 0)
(851.84 -1.13638e-13 0)
(851.84 -4.47582e-14 0)
(851.84 -2.2063e-14 0)
(851.84 -8.4027e-14 0)
(851.84 4.1987e-14 0)
(851.84 2.13126e-13 0)
(851.84 4.26504e-13 0)
(851.84 1.92137e-13 0)
(851.84 1.34756e-13 0)
(851.84 1.76427e-13 0)
(851.84 1.10092e-13 0)
(851.84 -1.57839e-13 0)
(851.84 -5.0688e-13 0)
(851.84 -2.06454e-13 0)
(851.84 1.80178e-13 0)
(851.84 3.91366e-14 0)
(851.84 2.5605e-14 0)
(851.84 1.13205e-13 0)
(851.84 3.1314e-13 0)
(851.84 1.10777e-14 0)
(851.84 -1.57382e-13 0)
(851.84 -1.19053e-13 0)
(851.84 1.63616e-13 0)
(851.84 -2.12307e-13 0)
(851.84 3.88722e-13 0)
(851.84 5.03574e-13 0)
(851.84 5.32054e-13 0)
(851.84 2.01728e-13 0)
(851.84 2.7548e-13 0)
(851.84 1.635e-14 0)
(851.84 -1.57409e-13 0)
(851.84 5.34348e-14 0)
(851.84 1.64744e-13 0)
(851.84 -7.91471e-15 0)
(851.84 -3.94195e-16 0)
(851.84 -2.50674e-13 0)
(851.84 1.33643e-15 0)
(851.84 1.8874e-13 0)
(851.84 1.2465e-13 0)
(851.84 2.17902e-14 0)
(851.84 7.07298e-14 0)
(851.84 1.59394e-15 0)
(851.84 5.85652e-14 0)
(851.84 3.98813e-13 0)
(851.84 1.5598e-13 0)
(851.84 1.72583e-14 0)
(851.84 -6.14524e-14 0)
(851.84 -4.47206e-14 0)
(851.84 1.07467e-13 0)
(851.84 1.51431e-13 0)
(851.84 -2.37916e-13 0)
(851.84 -2.18554e-13 0)
(851.84 -1.02451e-14 0)
(851.84 3.84142e-13 0)
(851.84 4.08312e-13 0)
(851.84 4.376e-13 0)
(851.84 -5.4453e-14 0)
(851.84 -8.71851e-14 0)
(851.84 -6.15476e-14 0)
(851.84 -1.16594e-13 0)
(851.84 -1.82325e-14 0)
(851.84 3.49906e-13 0)
(851.84 1.69949e-13 0)
(851.84 -6.76031e-14 0)
(851.84 3.69984e-13 0)
(851.84 2.2716e-13 0)
(851.84 3.30651e-13 0)
(851.84 4.87141e-13 0)
(851.84 1.85467e-13 0)
(851.84 1.7528e-13 0)
(851.84 3.53484e-13 0)
(851.84 2.15969e-13 0)
(851.84 2.87868e-13 0)
(851.84 3.2438e-13 0)
(851.84 7.30972e-14 0)
(851.84 -6.7955e-16 0)
(851.84 1.20307e-13 0)
(851.84 2.65776e-14 0)
(851.84 -1.3549e-13 0)
(851.84 1.36018e-13 0)
(851.84 2.2204e-13 0)
(851.84 -3.75102e-14 0)
(851.84 -4.33551e-14 0)
(851.84 1.94432e-13 0)
(851.84 2.85826e-13 0)
(851.84 1.65587e-13 0)
(851.84 1.35113e-13 0)
(851.84 2.80506e-13 0)
(851.84 2.78897e-13 0)
(851.84 2.23096e-13 0)
(851.84 2.17917e-13 0)
(851.84 1.63673e-13 0)
(851.84 1.45542e-14 0)
(851.84 -8.69048e-16 0)
(851.84 -5.1755e-14 0)
(851.84 -2.04789e-13 0)
(851.84 -1.095e-13 0)
(851.84 -2.49268e-13 0)
(851.84 -1.88459e-13 0)
(851.84 -2.45217e-14 0)
(851.84 -1.27621e-13 0)
(851.84 -4.99792e-14 0)
(851.84 -6.55745e-14 0)
(851.84 5.42923e-15 0)
(851.84 1.07508e-13 0)
(851.84 1.98399e-13 0)
(851.84 2.59057e-13 0)
(851.84 1.33274e-13 0)
(851.84 3.4489e-15 0)
(851.84 3.93056e-14 0)
(851.84 2.53167e-13 0)
(851.84 3.23592e-13 0)
(851.84 5.66356e-14 0)
(851.84 6.09038e-14 0)
(851.84 5.96809e-14 0)
(851.84 1.00087e-14 0)
(851.84 -2.02536e-14 0)
(851.84 -3.3047e-13 0)
(851.84 -2.73051e-13 0)
(851.84 -4.41698e-13 0)
(851.84 -3.41476e-13 0)
(851.84 -4.45047e-14 0)
(851.84 6.66532e-14 0)
(851.84 2.01202e-13 0)
(851.84 2.49788e-13 0)
(851.84 4.30294e-13 0)
(851.84 2.2821e-13 0)
(851.84 1.7534e-13 0)
(851.84 2.2711e-13 0)
(851.84 3.41766e-13 0)
(851.84 5.11786e-13 0)
(851.84 4.96312e-13 0)
(851.84 6.05584e-13 0)
(851.84 4.90084e-13 0)
(851.84 2.40972e-13 0)
(851.84 1.31194e-13 0)
(851.84 -2.26283e-13 0)
(851.84 -4.86341e-13 0)
(851.84 -5.05128e-13 0)
(851.84 -4.74528e-13 0)
(851.84 -2.92501e-13 0)
(851.84 5.11336e-14 0)
(851.84 2.75824e-13 0)
(851.84 1.09725e-13 0)
(851.84 2.90855e-13 0)
(851.84 5.38823e-13 0)
(851.84 7.1308e-13 0)
(851.84 8.35725e-13 0)
(851.84 8.36396e-13 0)
(851.84 7.62189e-13 0)
(851.84 -7.73306e-15 0)
(851.84 -4.41119e-14 0)
(851.84 -1.87326e-13 0)
(851.84 1.61131e-14 0)
(851.84 -1.01856e-13 0)
(851.84 -1.80306e-13 0)
(851.84 -6.57592e-13 0)
(851.84 -2.61953e-13 0)
(851.84 -2.72499e-13 0)
(851.84 -2.20054e-13 0)
(851.84 -6.66439e-14 0)
(851.84 1.35715e-13 0)
(851.84 -2.93555e-13 0)
(851.84 -2.95605e-13 0)
(851.84 -1.36145e-13 0)
(851.84 -8.49618e-14 0)
(851.84 1.19639e-13 0)
(851.84 4.62968e-13 0)
(851.84 5.02683e-13 0)
(851.84 4.3747e-13 0)
(851.84 6.37437e-13 0)
(851.84 4.98334e-13 0)
(851.84 1.73682e-13 0)
(851.84 1.4131e-13 0)
(851.84 -1.3901e-13 0)
(851.84 -4.07039e-13 0)
(851.84 -6.56754e-13 0)
(851.84 -5.96023e-13 0)
(851.84 -5.67e-13 0)
(851.84 -3.51319e-13 0)
(851.84 -2.05773e-13 0)
(851.84 3.49856e-13 0)
(851.84 6.25247e-13 0)
(851.84 5.8579e-13 0)
(851.84 5.43167e-13 0)
(851.84 4.55054e-13 0)
(851.84 5.23352e-13 0)
(851.84 4.32238e-13 0)
(851.84 -5.02953e-14 0)
(851.84 3.37756e-14 0)
(851.84 1.06705e-13 0)
(851.84 -1.7431e-13 0)
(851.84 2.52483e-13 0)
(851.84 -1.12852e-13 0)
(851.84 -5.63513e-14 0)
(851.84 -2.11228e-13 0)
(851.84 -6.87058e-14 0)
(851.84 -9.69912e-14 0)
(851.84 6.92729e-14 0)
(851.84 1.96712e-13 0)
(851.84 1.3381e-13 0)
(851.84 -2.55139e-13 0)
(851.84 -1.00295e-13 0)
(851.84 1.15981e-13 0)
(851.84 7.21722e-14 0)
(851.84 7.67684e-14 0)
(851.84 3.67139e-13 0)
(851.84 1.62635e-13 0)
(851.84 2.23027e-13 0)
(851.84 2.04893e-13 0)
(851.84 4.59669e-14 0)
(851.84 5.40131e-14 0)
(851.84 1.65669e-13 0)
(851.84 -1.08542e-13 0)
(851.84 1.5002e-13 0)
(851.84 7.35531e-14 0)
(851.84 -2.22833e-14 0)
(851.84 4.89669e-14 0)
(851.84 -1.01915e-13 0)
(851.84 1.22536e-13 0)
(851.84 5.46542e-13 0)
(851.84 5.11529e-13 0)
(851.84 4.77606e-13 0)
(851.84 3.07065e-13 0)
(851.84 4.47907e-13 0)
(851.84 1.98956e-13 0)
(851.84 -7.64445e-14 0)
(851.84 -1.5888e-13 0)
(851.84 -2.61676e-15 0)
(851.84 -1.04025e-13 0)
(851.84 -1.23999e-13 0)
(851.84 -6.27642e-14 0)
(851.84 2.14252e-14 0)
(851.84 -2.26571e-13 0)
(851.84 -4.30675e-13 0)
(851.84 -3.4239e-13 0)
(851.84 -2.35012e-13 0)
(851.84 -7.69327e-14 0)
(851.84 1.21276e-13 0)
(851.84 3.03317e-13 0)
(851.84 2.37549e-13 0)
(851.84 3.79026e-13 0)
(851.84 1.58642e-13 0)
(851.84 8.90277e-14 0)
(851.84 -1.92053e-13 0)
(851.84 -1.45682e-13 0)
(851.84 3.70563e-16 0)
(851.84 7.23251e-14 0)
(851.84 4.30685e-13 0)
(851.84 5.37469e-13 0)
(851.84 5.99554e-13 0)
(851.84 4.27604e-13 0)
(851.84 2.98179e-13 0)
(851.84 1.70811e-13 0)
(851.84 2.3316e-13 0)
(851.84 1.15253e-13 0)
(851.84 2.0155e-13 0)
(851.84 7.75275e-14 0)
(851.84 6.77557e-14 0)
(851.84 4.30481e-13 0)
(851.84 4.97109e-13 0)
(851.84 7.15589e-13 0)
(851.84 7.21902e-13 0)
(851.84 8.55969e-13 0)
(851.84 1.94689e-14 0)
(851.84 1.63886e-14 0)
(851.84 -2.76295e-13 0)
(851.84 3.72444e-14 0)
(851.84 -1.74095e-13 0)
(851.84 -5.20617e-14 0)
(851.84 -1.46227e-14 0)
(851.84 -2.01236e-13 0)
(851.84 -7.67583e-14 0)
(851.84 -6.10531e-14 0)
(851.84 -2.72272e-14 0)
(851.84 -3.69487e-14 0)
(851.84 5.01068e-14 0)
(851.84 1.58591e-13 0)
(851.84 3.46257e-13 0)
(851.84 4.33638e-13 0)
(851.84 2.09617e-13 0)
(851.84 -3.22998e-14 0)
(851.84 -1.80252e-13 0)
(851.84 -1.70545e-13 0)
(851.84 9.48438e-14 0)
(851.84 1.72032e-13 0)
(851.84 4.45687e-13 0)
(851.84 3.21395e-13 0)
(851.84 1.67277e-13 0)
(851.84 2.36377e-13 0)
(851.84 9.52004e-14 0)
(851.84 -4.30085e-14 0)
(851.84 1.34639e-13 0)
(851.84 2.49888e-13 0)
(851.84 2.28036e-13 0)
(851.84 2.16622e-13 0)
(851.84 3.04461e-14 0)
(851.84 1.41342e-13 0)
(851.84 2.05164e-13 0)
(851.84 3.0833e-13 0)
(851.84 3.31478e-13 0)
(851.84 4.48708e-13 0)
(851.84 1.54284e-14 0)
(851.84 7.41546e-14 0)
(851.84 6.52956e-14 0)
(851.84 -7.52934e-14 0)
(851.84 -1.1958e-13 0)
(851.84 -1.78114e-13 0)
(851.84 1.17859e-13 0)
(851.84 1.72897e-13 0)
(851.84 1.10432e-13 0)
(851.84 1.40019e-14 0)
(851.84 -2.18124e-13 0)
(851.84 -2.08309e-13 0)
(851.84 -1.38739e-13 0)
(851.84 -4.24625e-15 0)
(851.84 4.14309e-14 0)
(851.84 2.8004e-13 0)
(851.84 2.36919e-13 0)
(851.84 1.87719e-13 0)
(851.84 3.64039e-13 0)
(851.84 3.31617e-13 0)
(851.84 2.44671e-13 0)
(851.84 1.37138e-13 0)
(851.84 -1.40334e-13 0)
(851.84 -6.03963e-14 0)
(851.84 -3.7316e-14 0)
(851.84 -1.96982e-13 0)
(851.84 3.20522e-13 0)
(851.84 3.44962e-13 0)
(851.84 4.8237e-13 0)
(851.84 4.11887e-13 0)
(851.84 4.05013e-13 0)
(851.84 2.27292e-13 0)
(851.84 1.00276e-13 0)
(851.84 2.94746e-13 0)
(851.84 4.87178e-13 0)
(851.84 6.73774e-13 0)
(851.84 7.25932e-13 0)
(851.84 9.71719e-13 0)
(851.84 4.52332e-14 0)
(851.84 2.80572e-13 0)
(851.84 3.81602e-13 0)
(851.84 3.68807e-13 0)
(851.84 5.75609e-13 0)
(851.84 1.49817e-13 0)
(851.84 8.8813e-14 0)
(851.84 3.67276e-14 0)
(851.84 -6.31637e-14 0)
(851.84 -2.23967e-13 0)
(851.84 -1.97598e-13 0)
(851.84 -1.88378e-13 0)
(851.84 -2.77553e-13 0)
(851.84 -1.79479e-13 0)
(851.84 1.49671e-14 0)
(851.84 -4.05399e-13 0)
(851.84 -3.88736e-13 0)
(851.84 -3.4997e-13 0)
(851.84 -3.2476e-13 0)
(851.84 -6.87296e-14 0)
(851.84 -6.42442e-14 0)
(851.84 5.90847e-14 0)
(851.84 2.32545e-13 0)
(851.84 1.90342e-13 0)
(851.84 2.43594e-13 0)
(851.84 2.5705e-13 0)
(851.84 4.8854e-15 0)
(851.84 3.86649e-13 0)
(851.84 3.21065e-13 0)
(851.84 9.38044e-14 0)
(851.84 7.99062e-14 0)
(851.84 1.53594e-13 0)
(851.84 3.6137e-13 0)
(851.84 5.15683e-13 0)
(851.84 4.72084e-13 0)
(851.84 5.5809e-13 0)
(851.84 7.13321e-13 0)
(851.84 5.19547e-13 0)
(851.84 -8.10384e-14 0)
(851.84 3.33199e-14 0)
(851.84 -2.21123e-14 0)
(851.84 2.29929e-13 0)
(851.84 3.69156e-13 0)
(851.84 4.10573e-13 0)
(851.84 2.04343e-13 0)
(851.84 1.08034e-13 0)
(851.84 1.34357e-13 0)
(851.84 1.07526e-13 0)
(851.84 -9.78358e-15 0)
(851.84 -8.18647e-14 0)
(851.84 -2.13178e-13 0)
(851.84 -7.48292e-14 0)
(851.84 -2.089e-13 0)
(851.84 -3.25807e-13 0)
(851.84 -6.25906e-13 0)
(851.84 -4.14337e-13 0)
(851.84 -3.18125e-13 0)
(851.84 -1.07841e-13 0)
(851.84 -1.2402e-13 0)
(851.84 -1.00358e-13 0)
(851.84 6.35086e-14 0)
(851.84 3.79838e-13 0)
(851.84 4.05021e-13 0)
(851.84 1.92352e-13 0)
(851.84 7.70938e-14 0)
(851.84 1.93516e-14 0)
(851.84 6.45425e-14 0)
(851.84 3.09548e-13 0)
(851.84 4.57741e-13 0)
(851.84 3.12163e-13 0)
(851.84 5.30428e-13 0)
(851.84 5.03488e-13 0)
(851.84 6.09789e-13 0)
(851.84 6.84328e-13 0)
(851.84 5.49721e-13 0)
(851.84 7.78875e-13 0)
(851.84 8.33106e-15 0)
(851.84 -2.00146e-13 0)
(851.84 -5.02548e-14 0)
(851.84 -1.4791e-13 0)
(851.84 -1.34361e-13 0)
(851.84 -2.26258e-13 0)
(851.84 -3.68387e-14 0)
(851.84 1.07276e-13 0)
(851.84 9.06297e-14 0)
(851.84 1.74821e-13 0)
(851.84 7.53684e-14 0)
(851.84 -2.93745e-13 0)
(851.84 -3.22124e-13 0)
(851.84 -4.38422e-13 0)
(851.84 -3.83925e-13 0)
(851.84 -3.08904e-13 0)
(851.84 -4.98219e-14 0)
(851.84 -8.58286e-14 0)
(851.84 -6.23198e-14 0)
(851.84 -1.3239e-13 0)
(851.84 -5.45234e-14 0)
(851.84 1.04842e-13 0)
(851.84 1.85229e-13 0)
(851.84 4.48431e-13 0)
(851.84 4.26325e-13 0)
(851.84 3.12836e-13 0)
(851.84 9.22313e-14 0)
(851.84 1.31363e-13 0)
(851.84 -4.09885e-14 0)
(851.84 8.4932e-14 0)
(851.84 8.19218e-14 0)
(851.84 2.72835e-13 0)
(851.84 2.54539e-13 0)
(851.84 3.68159e-13 0)
(851.84 3.94874e-13 0)
(851.84 6.69399e-13 0)
(851.84 1.60072e-13 0)
(851.84 4.69935e-13 0)
(851.84 8.94359e-14 0)
(851.84 -6.27184e-15 0)
(851.84 5.04868e-14 0)
(851.84 2.03217e-13 0)
(851.84 -9.48891e-14 0)
(851.84 -2.3173e-14 0)
(851.84 1.49794e-13 0)
(851.84 2.10637e-13 0)
(851.84 3.67663e-13 0)
(851.84 1.26935e-13 0)
(851.84 -4.42363e-14 0)
(851.84 -1.31456e-13 0)
(851.84 -2.27615e-13 0)
(851.84 -2.75903e-13 0)
(851.84 -2.44062e-13 0)
(851.84 1.62244e-14 0)
(851.84 1.02651e-13 0)
(851.84 -5.36587e-14 0)
(851.84 -3.09119e-14 0)
(851.84 9.44083e-14 0)
(851.84 2.40901e-13 0)
(851.84 2.97199e-13 0)
(851.84 4.33939e-13 0)
(851.84 4.17631e-13 0)
(851.84 3.11405e-13 0)
(851.84 3.46132e-13 0)
(851.84 1.13422e-13 0)
(851.84 -1.70767e-13 0)
(851.84 7.1162e-14 0)
(851.84 4.5068e-14 0)
(851.84 3.4192e-13 0)
(851.84 6.83921e-13 0)
(851.84 8.27679e-13 0)
(851.84 8.46199e-13 0)
(851.84 4.58197e-13 0)
(851.84 1.44456e-13 0)
(851.84 6.03782e-14 0)
(851.84 3.31393e-14 0)
(851.84 -5.11524e-14 0)
(851.84 1.7773e-13 0)
(851.84 2.66316e-13 0)
(851.84 1.84044e-13 0)
(851.84 2.94164e-13 0)
(851.84 4.10289e-13 0)
(851.84 3.03197e-13 0)
(851.84 3.15304e-13 0)
(851.84 4.57885e-13 0)
(851.84 3.35521e-13 0)
(851.84 -6.05115e-14 0)
(851.84 -3.58405e-13 0)
(851.84 -2.37986e-14 0)
(851.84 -2.73536e-13 0)
(851.84 8.37388e-14 0)
(851.84 3.01737e-13 0)
(851.84 -6.63771e-15 0)
(851.84 2.31747e-13 0)
(851.84 6.41643e-14 0)
(851.84 7.13949e-13 0)
(851.84 5.72119e-13 0)
(851.84 3.25088e-13 0)
(851.84 2.48837e-13 0)
(851.84 2.34403e-13 0)
(851.84 1.29568e-13 0)
(851.84 2.35734e-13 0)
(851.84 1.49077e-13 0)
(851.84 4.33762e-13 0)
(851.84 4.26196e-13 0)
(851.84 1.0618e-13 0)
(851.84 7.89257e-13 0)
(851.84 4.31211e-13 0)
(851.84 1.00123e-12 0)
(851.84 7.32444e-13 0)
(851.84 2.78851e-13 0)
(851.84 1.24487e-13 0)
(851.84 2.61463e-14 0)
(851.84 -2.82906e-14 0)
(851.84 1.89275e-13 0)
(851.84 1.21517e-13 0)
(851.84 -8.7315e-15 0)
(851.84 5.13843e-14 0)
(851.84 3.08746e-13 0)
(851.84 2.39731e-13 0)
(851.84 5.68966e-14 0)
(851.84 3.61306e-13 0)
(851.84 3.62664e-13 0)
(851.84 5.60497e-13 0)
(851.84 2.30193e-13 0)
(851.84 3.82987e-13 0)
(851.84 2.74179e-13 0)
(851.84 6.55399e-13 0)
(851.84 3.66027e-13 0)
(851.84 2.98323e-14 0)
(851.84 1.13933e-13 0)
(851.84 1.58813e-13 0)
(851.84 2.58592e-13 0)
(851.84 3.18299e-13 0)
(851.84 5.93343e-13 0)
(851.84 6.1842e-13 0)
(851.84 4.92773e-13 0)
(851.84 4.35599e-13 0)
(851.84 2.10285e-13 0)
(851.84 1.1891e-13 0)
(851.84 2.93846e-13 0)
(851.84 4.05173e-13 0)
(851.84 4.93353e-13 0)
(851.84 6.78516e-13 0)
(851.84 5.00975e-13 0)
(851.84 2.11548e-13 0)
(851.84 -8.16872e-14 0)
(851.84 -1.35237e-13 0)
(851.84 1.64901e-13 0)
(851.84 2.20546e-13 0)
(851.84 2.78216e-13 0)
(851.84 -2.41736e-13 0)
(851.84 1.00859e-14 0)
(851.84 1.66348e-13 0)
(851.84 -7.70807e-14 0)
(851.84 -1.10338e-13 0)
(851.84 -2.03873e-15 0)
(851.84 2.04908e-13 0)
(851.84 1.37204e-13 0)
(851.84 3.16328e-14 0)
(851.84 2.14266e-14 0)
(851.84 1.19989e-13 0)
(851.84 5.48253e-13 0)
(851.84 6.54442e-13 0)
(851.84 5.91956e-13 0)
(851.84 2.88859e-13 0)
(851.84 4.41617e-13 0)
(851.84 2.64898e-13 0)
(851.84 3.98283e-13 0)
(851.84 3.47905e-13 0)
(851.84 3.82581e-13 0)
(851.84 3.24362e-13 0)
(851.84 1.44947e-13 0)
(851.84 3.67525e-14 0)
(851.84 1.53952e-13 0)
(851.84 -3.83374e-14 0)
(851.84 1.73268e-13 0)
(851.84 2.07115e-13 0)
(851.84 2.00502e-13 0)
(851.84 4.09015e-13 0)
(851.84 5.138e-13 0)
(851.84 3.02296e-13 0)
(851.84 -3.76813e-15 0)
(851.84 -5.26758e-14 0)
(851.84 -1.29614e-13 0)
(851.84 -1.40891e-13 0)
(851.84 -1.11936e-13 0)
(851.84 -1.93256e-13 0)
(851.84 -3.34157e-14 0)
(851.84 -2.19503e-13 0)
(851.84 -5.37386e-14 0)
(851.84 -2.65889e-13 0)
(851.84 -2.19937e-13 0)
(851.84 -2.06899e-13 0)
(851.84 -1.74062e-14 0)
(851.84 -7.48645e-14 0)
(851.84 5.7867e-14 0)
(851.84 -1.02503e-13 0)
(851.84 -1.43288e-13 0)
(851.84 -2.45214e-13 0)
(851.84 4.14029e-13 0)
(851.84 4.72066e-13 0)
(851.84 3.61889e-13 0)
(851.84 5.45765e-13 0)
(851.84 3.94201e-13 0)
(851.84 4.31245e-13 0)
(851.84 3.235e-13 0)
(851.84 1.75599e-13 0)
(851.84 6.05455e-14 0)
(851.84 2.16409e-13 0)
(851.84 -1.48083e-13 0)
(851.84 6.86436e-15 0)
(851.84 -1.57959e-13 0)
(851.84 -3.04063e-13 0)
(851.84 2.01256e-13 0)
(851.84 4.05395e-13 0)
(851.84 6.32645e-13 0)
(851.84 6.24223e-13 0)
(851.84 7.13872e-14 0)
(851.84 1.41099e-13 0)
(851.84 2.37109e-13 0)
(851.84 -2.04692e-13 0)
(851.84 -7.00673e-14 0)