/*--------------------------------*- C++ -*----------------------------------*\
| =========                 |                                                 |
| \\      /  F ield         | OpenFOAM: The Open Source CFD Toolbox           |
|  \\    /   O peration     | Version:  v1812                                 |
|   \\  /    A nd           | Web:      www.OpenFOAM.com                      |
|    \\/     M anipulation  |                                                 |
\*---------------------------------------------------------------------------*/
FoamFile
{
    version     2.0;
    format      ascii;
    class       volScalarField;
    location    "0.2";
    object      p;
}
// * * * * * * * * * * * * * * * * * * * * * * * * * * * * * * * * * * * * * //

dimensions      [1 -1 -2 0 0 0 0];


internalField   nonuniform List<scalar> 
20400
(
94811.1
94811.5
94810.8
94809
94805.1
94799.7
94793.7
94787.3
94781
94776.2
94772
94768.3
94764.7
94760.9
94755.1
94749.7
94740.2
94734
94722.5
94712.6
94699.6
94686.4
94670.6
94655.3
94639.6
94626.3
94614.4
94607.3
94602.5
94603.9
94609.7
94620.7
94636.6
94658.1
94683.5
94712.2
94747.4
94780.9
94818.7
94856.1
94894.9
94933.7
94972.9
95011.9
95051
95090.1
95129
95167.3
95204.6
95240.5
95274.1
95305.8
95333.1
95358.9
95376.9
95395.8
95410.6
95424.4
95434.9
95442
95446.4
95448.4
95448
95446
95442.8
95438.1
95433.2
95426.9
95421
95414.2
95407.6
95400.8
95394.1
95387.6
95381.1
95374.8
95368.7
95362.9
95357.2
95351.8
95346.5
95341.5
95336.6
95331.9
95327.3
95322.9
95318.7
95314.5
95310.5
95306.6
95302.8
95299.1
95295.6
95292.2
95288.8
95285.7
95282.6
95279.7
95276.9
95274.2
95271.7
95269.4
95267.2
95265.1
95263.3
95261.6
95260.1
95258.8
95257.8
95256.9
95256.2
95255.7
95255.5
95255.5
95255.7
95256.1
95256.8
95257.7
95258.8
95260.2
95261.8
95263.6
95265.7
95268
95270.6
95273.4
95276.4
95279.6
95283.1
95286.8
95290.6
95294.7
95299
95303.4
95308.1
95312.9
95317.9
95323
95328.3
95333.7
95339.2
95344.9
95350.6
95356.5
95362.4
95368.4
95374.4
95380.5
95386.6
95392.7
95398.9
95405
95411.1
95417.2
95423.2
95429.1
95435
95440.9
95446.6
95452.2
95457.7
95463.1
95468.3
95473.4
95478.3
95483.1
95487.6
95492
95496.2
95500.2
95504
95507.5
95510.9
95513.9
95516.8
95519.4
95521.8
95523.9
95525.8
95527.4
95528.8
95529.9
95530.8
95531.4
95531.7
95531.8
95531.7
95531.4
95530.8
95530
95528.9
95527.6
95526.1
95524.4
95522.5
95520.4
95518.1
95515.6
95513
95510.3
95507.4
95504.4
95501.3
95498.1
95494.8
95491.4
95488
95484.6
95481.1
95477.7
95474.3
95470.9
95467.5
95464.2
95461
95457.9
95455
95452.1
95449.4
95446.9
95444.6
95442.5
95440.7
95439.1
95437.7
95436.6
95435.9
95435.5
95435.4
95435.6
95436.2
95437.2
95438.6
95440.3
95442.6
95445.2
95448.4
95452
95456
95460.6
95465.7
95471.3
95477.5
95484.2
95491.4
95499.2
95507.6
95516.6
95526.1
95536.3
95547
95558.4
95570.4
95583
95596.2
95610
95624.5
95639.6
95655.4
95671.8
95688.8
95706.4
95724.8
95743.7
95763.3
95783.5
95804.3
95825.8
95847.9
95870.7
95894
95918
95942.6
95967.8
95993.6
96020
96047
96074.5
96102.7
96131.4
96160.6
96190.5
96220.8
96251.7
96283.1
96315.1
96347.5
96380.5
96413.9
96447.8
96482.2
96517
96552.3
96588
96624.2
96660.7
96697.6
96735
96772.7
96810.7
96849.1
96887.9
96927
96966.3
97006
97046
97086.3
97126.8
97167.6
97208.6
97249.8
97291.2
97332.9
97374.7
97416.7
97458.9
97501.2
97543.7
97586.3
97628.9
97671.7
97714.6
97757.5
97800.5
97843.5
97886.6
97929.7
97972.8
98015.9
98059
98102.1
98145.2
98188.1
98231.1
98274
98316.7
98359.4
98402
98444.5
98486.9
98529.1
98571.2
98613.1
98654.9
98696.5
98737.9
98779.1
98820.2
98861
98901.6
98941.9
98982.1
99022
99061.6
99101
99140.1
99178.9
99217.5
99255.7
99293.7
99331.4
99368.7
99405.8
99442.5
99478.9
99514.9
99550.6
99586
99621
99655.7
99690
99723.9
99757.5
99790.7
99823.5
99855.9
99888
99919.7
99951
99981.9
100012
100042
100072
100101
100130
100159
100187
100215
100242
100269
100295
100321
100347
100372
100397
100421
100445
100469
100492
100515
100537
100559
100580
100602
100622
100643
100662
100682
100701
100720
100738
100756
100774
100791
100808
100824
100840
100856
100871
100886
100901
100915
100929
100943
100956
100969
100981
100994
101005
101017
101028
101039
101050
101060
101070
101080
101090
101099
101108
101116
101125
101133
101141
101148
101156
101163
101170
101176
101183
101189
101195
101201
101206
101212
101217
101222
101227
101231
101236
101240
101244
101248
101252
101255
101259
101262
101265
101269
101271
101274
101277
101280
101282
101284
101287
101289
101291
101293
101295
101297
101299
101300
101302
101304
101305
101307
101308
101309
101311
101312
101313
101315
101316
101317
101318
101320
101321
101322
101323
101324
94810.9
94811.3
94809.8
94807.6
94803.4
94798.6
94793.4
94787
94782.1
94773.8
94771
94767.9
94765.8
94763.7
94761.1
94755.9
94749.2
94736.5
94725.6
94713
94700
94685.9
94670.4
94654.6
94638.1
94623.5
94609.7
94600.2
94592.5
94593.2
94600.9
94613.6
94634.7
94659.9
94691.6
94723.6
94759.8
94795.3
94832
94868
94903.8
94939.4
94974.6
95009.9
95045.6
95081.7
95118.2
95154.8
95191.2
95226.6
95260.8
95292.5
95322.9
95349.2
95376.5
95396.6
95413.9
95425.7
95435.1
95441.4
95445.6
95447.7
95447.4
95445.6
95442.4
95438.1
95433
95427.2
95421
95414.1
95407.6
95400.9
95394.2
95387.7
95381.2
95374.9
95368.8
95363
95357.3
95351.9
95346.7
95341.6
95336.7
95332
95327.5
95323.1
95318.8
95314.6
95310.6
95306.7
95302.9
95299.3
95295.7
95292.3
95289
95285.8
95282.7
95279.8
95277
95274.3
95271.8
95269.5
95267.3
95265.3
95263.4
95261.8
95260.3
95259
95257.9
95257
95256.3
95255.9
95255.7
95255.6
95255.8
95256.2
95256.9
95257.8
95258.9
95260.3
95261.9
95263.7
95265.8
95268.1
95270.7
95273.5
95276.5
95279.7
95283.2
95286.8
95290.7
95294.8
95299
95303.5
95308.1
95312.9
95317.9
95323
95328.3
95333.7
95339.3
95344.9
95350.6
95356.5
95362.4
95368.4
95374.4
95380.5
95386.6
95392.7
95398.9
95405
95411.1
95417.1
95423.2
95429.1
95435
95440.8
95446.6
95452.2
95457.7
95463.1
95468.3
95473.4
95478.3
95483
95487.6
95492
95496.2
95500.2
95504
95507.5
95510.9
95514
95516.8
95519.4
95521.8
95524
95525.8
95527.5
95528.9
95530
95530.8
95531.5
95531.8
95531.9
95531.8
95531.4
95530.8
95530
95528.9
95527.6
95526.1
95524.4
95522.5
95520.4
95518.1
95515.7
95513.1
95510.3
95507.4
95504.4
95501.3
95498.1
95494.8
95491.5
95488.1
95484.7
95481.2
95477.8
95474.3
95471
95467.6
95464.3
95461.1
95458
95455.1
95452.2
95449.6
95447
95444.7
95442.6
95440.8
95439.2
95437.8
95436.8
95436
95435.6
95435.6
95435.8
95436.3
95437.3
95438.7
95440.5
95442.7
95445.4
95448.5
95452.1
95456.1
95460.7
95465.8
95471.5
95477.6
95484.3
95491.5
95499.3
95507.7
95516.7
95526.2
95536.4
95547.1
95558.5
95570.4
95583
95596.2
95610.1
95624.6
95639.7
95655.4
95671.8
95688.8
95706.5
95724.8
95743.7
95763.3
95783.5
95804.3
95825.8
95847.9
95870.6
95894
95918
95942.5
95967.7
95993.5
96019.9
96046.9
96074.4
96102.6
96131.3
96160.5
96190.3
96220.7
96251.6
96283
96315
96347.4
96380.3
96413.8
96447.7
96482.1
96516.9
96552.2
96587.9
96624
96660.5
96697.4
96734.8
96772.5
96810.5
96848.9
96887.7
96926.7
96966.1
97005.8
97045.8
97086
97126.5
97167.3
97208.3
97249.5
97290.9
97332.6
97374.4
97416.4
97458.5
97500.8
97543.3
97585.8
97628.5
97671.3
97714.1
97757
97800
97843.1
97886.1
97929.2
97972.4
98015.5
98058.6
98101.6
98144.7
98187.7
98230.6
98273.5
98316.3
98359
98401.6
98444.1
98486.4
98528.7
98570.8
98612.7
98654.5
98696.1
98737.5
98778.7
98819.8
98860.6
98901.2
98941.5
98981.7
99021.6
99061.2
99100.6
99139.7
99178.5
99217.1
99255.4
99293.3
99331
99368.4
99405.4
99442.1
99478.5
99514.6
99550.3
99585.6
99620.7
99655.3
99689.6
99723.6
99757.2
99790.4
99823.2
99855.6
99887.7
99919.4
99950.7
99981.6
100012
100042
100072
100101
100130
100159
100187
100214
100242
100268
100295
100321
100347
100372
100397
100421
100445
100468
100492
100514
100537
100559
100580
100601
100622
100642
100662
100682
100701
100720
100738
100756
100774
100791
100808
100824
100840
100856
100871
100886
100901
100915
100929
100943
100956
100969
100981
100993
101005
101017
101028
101039
101050
101060
101070
101080
101090
101099
101108
101116
101125
101133
101141
101148
101156
101163
101170
101176
101183
101189
101195
101201
101206
101212
101217
101222
101227
101231
101236
101240
101244
101248
101252
101255
101259
101262
101265
101268
101271
101274
101277
101280
101282
101284
101287
101289
101291
101293
101295
101297
101299
101300
101302
101304
101305
101307
101308
101309
101311
101312
101313
101315
101316
101317
101318
101320
101321
101322
101323
101324
94811.2
94811.7
94810.1
94807.4
94802.6
94796.6
94789.6
94783.3
94778.3
94775.7
94772.5
94770.2
94768
94765
94759.9
94753.7
94745.3
94736
94725.3
94713.4
94699.4
94682.9
94663.3
94642.2
94620.4
94602
94586.3
94578
94574.9
94580.1
94586
94596.7
94613.4
94635
94662.6
94692.7
94727.2
94763
94801.4
94840.6
94880.5
94920.4
94960.1
94999.6
95038.9
95077.6
95115.7
95153.4
95190.4
95226.3
95260.8
95293.1
95322.6
95349.1
95371.7
95391.3
95407.7
95421.1
95431.6
95438.9
95443.4
95445.7
95445.8
95444.1
95441.1
95437
95432.1
95426.3
95420.3
95413.7
95407.2
95400.4
95393.7
95387.1
95380.7
95374.5
95368.5
95362.7
95357.1
95351.7
95346.5
95341.4
95336.6
95331.9
95327.4
95323
95318.7
95314.6
95310.6
95306.7
95302.9
95299.3
95295.7
95292.3
95289
95285.8
95282.8
95279.9
95277.1
95274.4
95271.9
95269.6
95267.4
95265.4
95263.5
95261.8
95260.4
95259.1
95258
95257.1
95256.4
95256
95255.8
95255.8
95255.9
95256.3
95257
95257.9
95259
95260.4
95262
95263.9
95265.9
95268.2
95270.8
95273.6
95276.6
95279.8
95283.3
95286.9
95290.8
95294.9
95299.1
95303.6
95308.2
95313
95318
95323.1
95328.4
95333.8
95339.4
95345
95350.7
95356.6
95362.5
95368.5
95374.5
95380.6
95386.7
95392.8
95398.9
95405
95411.1
95417.2
95423.2
95429.2
95435.1
95440.9
95446.6
95452.2
95457.7
95463.1
95468.3
95473.4
95478.3
95483.1
95487.6
95492
95496.2
95500.2
95504
95507.5
95510.9
95514
95516.8
95519.5
95521.8
95524
95525.9
95527.5
95528.9
95530
95530.9
95531.5
95531.8
95531.9
95531.8
95531.5
95530.9
95530.1
95529
95527.7
95526.2
95524.5
95522.6
95520.5
95518.2
95515.8
95513.2
95510.4
95507.5
95504.5
95501.4
95498.2
95494.9
95491.6
95488.2
95484.8
95481.3
95477.9
95474.5
95471.1
95467.7
95464.5
95461.3
95458.2
95455.2
95452.4
95449.7
95447.2
95444.9
95442.8
95440.9
95439.3
95438
95436.9
95436.2
95435.8
95435.7
95436
95436.5
95437.5
95438.9
95440.7
95442.9
95445.6
95448.7
95452.3
95456.4
95461
95466.1
95471.7
95477.8
95484.5
95491.8
95499.6
95508
95516.9
95526.5
95536.6
95547.4
95558.7
95570.7
95583.3
95596.5
95610.3
95624.8
95639.9
95655.6
95672
95689
95706.7
95725
95743.9
95763.5
95783.7
95804.5
95826
95848.1
95870.8
95894.2
95918.1
95942.7
95967.9
95993.7
96020.1
96047
96074.6
96102.7
96131.4
96160.7
96190.5
96220.8
96251.7
96283.2
96315.1
96347.5
96380.5
96413.9
96447.8
96482.2
96517
96552.2
96587.9
96624.1
96660.6
96697.5
96734.8
96772.5
96810.6
96849
96887.7
96926.8
96966.1
97005.8
97045.8
97086
97126.5
97167.3
97208.3
97249.5
97290.9
97332.6
97374.4
97416.4
97458.5
97500.8
97543.3
97585.8
97628.5
97671.3
97714.1
97757
97800
97843.1
97886.1
97929.2
97972.3
98015.4
98058.5
98101.6
98144.6
98187.6
98230.6
98273.4
98316.2
98358.9
98401.5
98444
98486.4
98528.6
98570.7
98612.6
98654.4
98696
98737.4
98778.6
98819.6
98860.5
98901
98941.4
98981.6
99021.4
99061.1
99100.5
99139.6
99178.4
99217
99255.2
99293.2
99330.8
99368.2
99405.2
99442
99478.3
99514.4
99550.1
99585.5
99620.5
99655.2
99689.5
99723.4
99757
99790.2
99823
99855.5
99887.5
99919.2
99950.5
99981.4
100012
100042
100072
100101
100130
100158
100186
100214
100241
100268
100295
100321
100346
100372
100396
100421
100445
100468
100491
100514
100537
100558
100580
100601
100622
100642
100662
100682
100701
100719
100738
100756
100773
100791
100807
100824
100840
100856
100871
100886
100901
100915
100929
100942
100956
100969
100981
100993
101005
101017
101028
101039
101050
101060
101070
101080
101089
101099
101108
101116
101125
101133
101141
101148
101156
101163
101170
101176
101183
101189
101195
101201
101206
101212
101217
101222
101227
101231
101236
101240
101244
101248
101252
101255
101259
101262
101265
101268
101271
101274
101277
101280
101282
101284
101287
101289
101291
101293
101295
101297
101299
101300
101302
101303
101305
101307
101308
101309
101311
101312
101313
101315
101316
101317
101318
101320
101321
101322
101323
101324
94812.1
94812.2
94810.3
94807.2
94802.2
94796.4
94789.9
94782.9
94776.7
94770.2
94767.2
94765.9
94766.7
94767
94765.6
94760.7
94751.9
94738.8
94723.5
94706.2
94686.1
94664
94641.2
94619.9
94599.9
94582.9
94567.7
94557.4
94548.4
94546.4
94557.4
94573.7
94600.1
94627.7
94662.6
94698.2
94737.3
94776.1
94814.8
94852.3
94889.1
94924.9
94960.3
94995.6
95030.7
95066.1
95102.1
95138.6
95175.2
95211.5
95246.7
95280.1
95311.5
95339.6
95365.5
95386.6
95404.3
95417.8
95428.4
95435.6
95440.3
95442.9
95443.1
95441.5
95438.6
95434.7
95429.8
95424.5
95418.5
95412.3
95405.9
95399.4
95392.8
95386.4
95380.1
95373.8
95367.9
95362.2
95356.7
95351.4
95346.2
95341.2
95336.5
95331.8
95327.3
95323
95318.7
95314.6
95310.7
95306.8
95303
95299.4
95295.8
95292.4
95289.1
95286
95282.9
95280
95277.2
95274.6
95272.1
95269.7
95267.5
95265.5
95263.7
95262
95260.5
95259.2
95258.1
95257.2
95256.6
95256.1
95255.9
95255.9
95256.1
95256.5
95257.1
95258
95259.2
95260.5
95262.1
95264
95266.1
95268.4
95270.9
95273.7
95276.7
95279.9
95283.4
95287
95290.9
95295
95299.2
95303.7
95308.3
95313.1
95318.1
95323.2
95328.5
95333.9
95339.4
95345.1
95350.8
95356.6
95362.5
95368.5
95374.5
95380.6
95386.7
95392.8
95399
95405.1
95411.2
95417.2
95423.3
95429.2
95435.1
95440.9
95446.6
95452.2
95457.7
95463.1
95468.3
95473.4
95478.3
95483.1
95487.7
95492
95496.2
95500.2
95504
95507.5
95510.9
95514
95516.8
95519.5
95521.8
95524
95525.9
95527.5
95528.9
95530
95530.9
95531.5
95531.8
95531.9
95531.8
95531.5
95530.9
95530.1
95529
95527.7
95526.2
95524.5
95522.6
95520.5
95518.2
95515.8
95513.2
95510.4
95507.6
95504.6
95501.5
95498.3
95495
95491.7
95488.3
95484.9
95481.4
95478
95474.6
95471.2
95467.8
95464.6
95461.4
95458.3
95455.3
95452.5
95449.8
95447.3
95445
95443
95441.1
95439.5
95438.1
95437.1
95436.3
95436
95435.9
95436.1
95436.7
95437.7
95439
95440.8
95443.1
95445.7
95448.8
95452.4
95456.5
95461.1
95466.2
95471.8
95478
95484.7
95491.9
95499.7
95508.1
95517.1
95526.6
95536.8
95547.5
95558.9
95570.8
95583.4
95596.6
95610.5
95624.9
95640
95655.8
95672.1
95689.1
95706.8
95725.1
95744
95763.6
95783.8
95804.6
95826.1
95848.2
95870.9
95894.3
95918.2
95942.8
95968
95993.8
96020.1
96047.1
96074.7
96102.8
96131.5
96160.7
96190.5
96220.9
96251.8
96283.2
96315.1
96347.5
96380.5
96413.9
96447.8
96482.1
96516.9
96552.2
96587.9
96624
96660.5
96697.5
96734.8
96772.4
96810.5
96848.9
96887.6
96926.7
96966
97005.7
97045.7
97085.9
97126.4
97167.2
97208.2
97249.4
97290.8
97332.4
97374.2
97416.2
97458.4
97500.7
97543.1
97585.6
97628.3
97671.1
97713.9
97756.8
97799.8
97842.9
97885.9
97929
97972.1
98015.2
98058.3
98101.4
98144.4
98187.4
98230.3
98273.2
98316
98358.7
98401.3
98443.8
98486.1
98528.3
98570.4
98612.3
98654.1
98695.7
98737.1
98778.3
98819.4
98860.2
98900.8
98941.1
98981.3
99021.2
99060.8
99100.2
99139.3
99178.1
99216.7
99254.9
99292.9
99330.6
99367.9
99405
99441.7
99478.1
99514.1
99549.8
99585.2
99620.2
99654.9
99689.2
99723.1
99756.7
99789.9
99822.7
99855.2
99887.2
99918.9
99950.2
99981.1
100012
100042
100071
100101
100130
100158
100186
100214
100241
100268
100294
100320
100346
100371
100396
100421
100444
100468
100491
100514
100536
100558
100580
100601
100622
100642
100662
100681
100701
100719
100738
100756
100773
100790
100807
100824
100840
100855
100871
100886
100900
100915
100929
100942
100955
100968
100981
100993
101005
101017
101028
101039
101050
101060
101070
101080
101089
101098
101107
101116
101124
101133
101140
101148
101155
101163
101169
101176
101183
101189
101195
101201
101206
101211
101217
101222
101226
101231
101235
101240
101244
101248
101252
101255
101259
101262
101265
101268
101271
101274
101277
101279
101282
101284
101287
101289
101291
101293
101295
101297
101298
101300
101302
101303
101305
101306
101308
101309
101311
101312
101313
101315
101316
101317
101318
101320
101321
101322
101323
101324
94814
94813.6
94811.6
94808
94802.5
94795.9
94787.9
94780.4
94773.4
94769
94766.5
94765.8
94766.4
94766.4
94764.1
94758.4
94748.4
94733.6
94715.2
94693.2
94669.5
94644.5
94618.2
94592
94566
94543.3
94524.9
94514.1
94509.9
94512.8
94522.7
94538.5
94563.6
94592.8
94628.8
94667.9
94709.3
94751
94792.6
94832.8
94871.9
94909.7
94946.8
94983.5
95019.9
95056.2
95092.7
95129.5
95166.4
95203
95238.5
95272.3
95303.5
95331.7
95356.3
95377.6
95395.5
95409.9
95421.3
95429.5
95434.7
95437.9
95438.6
95437.4
95435
95431.3
95426.7
95421.4
95415.7
95409.7
95403.6
95397.3
95391.1
95384.9
95378.8
95372.8
95367.1
95361.5
95356
95350.8
95345.8
95340.9
95336.2
95331.6
95327.2
95322.9
95318.7
95314.6
95310.7
95306.8
95303.1
95299.5
95296
95292.6
95289.3
95286.1
95283
95280.1
95277.3
95274.7
95272.2
95269.9
95267.7
95265.7
95263.8
95262.2
95260.7
95259.4
95258.3
95257.4
95256.7
95256.3
95256.1
95256.1
95256.2
95256.6
95257.3
95258.2
95259.3
95260.7
95262.3
95264.1
95266.2
95268.5
95271.1
95273.9
95276.9
95280.1
95283.5
95287.2
95291
95295.1
95299.4
95303.8
95308.5
95313.3
95318.2
95323.3
95328.6
95334
95339.5
95345.2
95350.9
95356.7
95362.6
95368.6
95374.6
95380.7
95386.8
95392.9
95399
95405.1
95411.2
95417.3
95423.3
95429.3
95435.1
95441
95446.7
95452.3
95457.8
95463.1
95468.4
95473.4
95478.3
95483.1
95487.7
95492
95496.2
95500.2
95504
95507.5
95510.9
95514
95516.8
95519.5
95521.8
95524
95525.9
95527.5
95528.9
95530
95530.9
95531.5
95531.9
95531.9
95531.8
95531.5
95530.9
95530.1
95529
95527.8
95526.3
95524.6
95522.7
95520.6
95518.3
95515.9
95513.2
95510.5
95507.6
95504.6
95501.5
95498.4
95495.1
95491.7
95488.4
95484.9
95481.5
95478.1
95474.7
95471.3
95468
95464.7
95461.5
95458.4
95455.5
95452.7
95450
95447.5
95445.2
95443.1
95441.2
95439.6
95438.3
95437.3
95436.5
95436.1
95436.1
95436.3
95436.9
95437.8
95439.2
95441
95443.3
95445.9
95449.1
95452.7
95456.7
95461.3
95466.4
95472
95478.2
95484.9
95492.1
95499.9
95508.3
95517.3
95526.8
95537
95547.7
95559.1
95571
95583.6
95596.8
95610.7
95625.1
95640.2
95656
95672.3
95689.3
95707
95725.3
95744.2
95763.8
95784
95804.8
95826.3
95848.4
95871.1
95894.4
95918.4
95942.9
95968.1
95993.9
96020.3
96047.2
96074.8
96102.9
96131.6
96160.8
96190.6
96221
96251.9
96283.3
96315.2
96347.6
96380.5
96414
96447.8
96482.2
96517
96552.3
96587.9
96624.1
96660.6
96697.5
96734.8
96772.5
96810.5
96848.9
96887.6
96926.7
96966
97005.7
97045.7
97085.9
97126.4
97167.2
97208.1
97249.3
97290.8
97332.4
97374.2
97416.2
97458.3
97500.6
97543
97585.6
97628.2
97671
97713.8
97756.8
97799.7
97842.8
97885.8
97928.9
97972
98015.1
98058.2
98101.3
98144.3
98187.3
98230.2
98273.1
98315.8
98358.5
98401.1
98443.6
98485.9
98528.2
98570.2
98612.2
98653.9
98695.5
98736.9
98778.2
98819.2
98860
98900.6
98940.9
98981.1
99021
99060.6
99100
99139.1
99177.9
99216.5
99254.7
99292.7
99330.3
99367.7
99404.7
99441.4
99477.8
99513.9
99549.6
99585
99620
99654.6
99689
99722.9
99756.5
99789.7
99822.5
99854.9
99887
99918.7
99950
99980.9
100011
100041
100071
100100
100129
100158
100186
100214
100241
100268
100294
100320
100346
100371
100396
100420
100444
100468
100491
100514
100536
100558
100580
100601
100621
100642
100662
100681
100700
100719
100737
100755
100773
100790
100807
100824
100840
100855
100871
100886
100900
100915
100928
100942
100955
100968
100981
100993
101005
101017
101028
101039
101049
101060
101070
101080
101089
101098
101107
101116
101124
101132
101140
101148
101155
101162
101169
101176
101182
101189
101195
101200
101206
101211
101217
101222
101226
101231
101235
101240
101244
101248
101252
101255
101259
101262
101265
101268
101271
101274
101277
101279
101282
101284
101287
101289
101291
101293
101295
101297
101298
101300
101302
101303
101305
101306
101308
101309
101311
101312
101313
101315
101316
101317
101318
101320
101321
101322
101323
101324
94816.8
94816.2
94814
94810.5
94804.7
94798.2
94789.9
94781.6
94773.3
94767.4
94763.7
94762.8
94764.3
94765.2
94763
94755.9
94742.6
94723.5
94701.3
94676.3
94648.4
94618.9
94588.9
94560.5
94534.3
94511.9
94493.3
94480.6
94475
94480.1
94494.1
94515.6
94546.1
94580.8
94621.4
94663
94706.6
94749.4
94791.5
94831.4
94869.7
94905.8
94940.5
94973.9
95007.1
95040.6
95075.1
95110.7
95147.3
95184.3
95220.9
95256.2
95289.1
95318.9
95345.4
95368
95386.8
95401.9
95413.7
95422.3
95428
95431.5
95432.8
95431.9
95429.9
95426.6
95422.4
95417.6
95412.2
95406.5
95400.6
95394.6
95388.7
95382.8
95377
95371.3
95365.8
95360.4
95355.1
95350.1
95345.2
95340.4
95335.8
95331.3
95327
95322.7
95318.6
95314.6
95310.7
95306.8
95303.1
95299.5
95296
95292.6
95289.4
95286.2
95283.2
95280.3
95277.5
95274.9
95272.4
95270.1
95267.9
95265.9
95264
95262.3
95260.9
95259.6
95258.5
95257.6
95256.9
95256.5
95256.2
95256.2
95256.4
95256.8
95257.5
95258.4
95259.5
95260.9
95262.5
95264.3
95266.4
95268.7
95271.2
95274
95277
95280.2
95283.7
95287.3
95291.2
95295.3
95299.5
95304
95308.6
95313.4
95318.4
95323.5
95328.7
95334.1
95339.6
95345.3
95351
95356.8
95362.7
95368.7
95374.7
95380.8
95386.9
95393
95399.1
95405.2
95411.3
95417.3
95423.4
95429.3
95435.2
95441
95446.7
95452.3
95457.8
95463.2
95468.4
95473.5
95478.4
95483.1
95487.7
95492.1
95496.2
95500.2
95504
95507.5
95510.9
95514
95516.8
95519.5
95521.8
95524
95525.9
95527.5
95528.9
95530
95530.9
95531.5
95531.9
95531.9
95531.8
95531.5
95530.9
95530.1
95529
95527.8
95526.3
95524.6
95522.7
95520.6
95518.3
95515.9
95513.3
95510.5
95507.7
95504.7
95501.6
95498.4
95495.1
95491.8
95488.4
95485
95481.6
95478.2
95474.8
95471.4
95468
95464.8
95461.6
95458.5
95455.6
95452.8
95450.1
95447.6
95445.3
95443.2
95441.4
95439.8
95438.4
95437.4
95436.7
95436.3
95436.2
95436.4
95437
95438
95439.4
95441.2
95443.4
95446.1
95449.2
95452.8
95456.9
95461.5
95466.6
95472.2
95478.4
95485.1
95492.3
95500.1
95508.5
95517.4
95527
95537.1
95547.9
95559.2
95571.2
95583.8
95597
95610.8
95625.3
95640.4
95656.1
95672.5
95689.5
95707.1
95725.4
95744.3
95763.9
95784.1
95804.9
95826.4
95848.5
95871.2
95894.5
95918.5
95943.1
95968.2
95994
96020.4
96047.3
96074.9
96103
96131.7
96160.9
96190.7
96221.1
96251.9
96283.3
96315.2
96347.7
96380.6
96414
96447.9
96482.2
96517
96552.3
96588
96624.1
96660.6
96697.5
96734.8
96772.5
96810.5
96848.9
96887.6
96926.7
96966
97005.7
97045.6
97085.9
97126.4
97167.1
97208.1
97249.3
97290.7
97332.3
97374.1
97416.1
97458.2
97500.5
97542.9
97585.5
97628.1
97670.9
97713.7
97756.6
97799.6
97842.6
97885.7
97928.8
97971.8
98014.9
98058
98101.1
98144.1
98187.1
98230
98272.9
98315.7
98358.3
98400.9
98443.4
98485.7
98528
98570
98612
98653.7
98695.3
98736.7
98777.9
98819
98859.8
98900.4
98940.7
98980.8
99020.7
99060.4
99099.7
99138.8
99177.7
99216.2
99254.5
99292.4
99330.1
99367.5
99404.5
99441.2
99477.6
99513.6
99549.4
99584.7
99619.7
99654.4
99688.7
99722.7
99756.2
99789.4
99822.3
99854.7
99886.8
99918.4
99949.7
99980.6
100011
100041
100071
100100
100129
100158
100186
100213
100241
100268
100294
100320
100346
100371
100396
100420
100444
100468
100491
100514
100536
100558
100579
100600
100621
100642
100661
100681
100700
100719
100737
100755
100773
100790
100807
100823
100839
100855
100870
100885
100900
100914
100928
100942
100955
100968
100981
100993
101005
101016
101028
101039
101049
101060
101070
101080
101089
101098
101107
101116
101124
101132
101140
101148
101155
101162
101169
101176
101182
101189
101195
101200
101206
101211
101216
101221
101226
101231
101235
101240
101244
101248
101251
101255
101259
101262
101265
101268
101271
101274
101277
101279
101282
101284
101287
101289
101291
101293
101295
101297
101298
101300
101302
101303
101305
101306
101308
101309
101311
101312
101313
101315
101316
101317
101318
101319
101321
101322
101323
101325
94821.2
94820.1
94818.2
94814.1
94808.7
94802.1
94793.7
94785.3
94776.9
94770.2
94765.9
94763.9
94763.6
94762.3
94757.9
94747.6
94732.2
94711.4
94685.5
94656.4
94624.8
94592.2
94558.8
94526.3
94495.7
94469.7
94449.7
94437
94432.3
94438.1
94452.4
94475.4
94507.7
94545.9
94590.5
94637.3
94685.6
94732.4
94777.4
94819.4
94858.7
94895.4
94930.1
94963.5
94996.3
95029.3
95063
95097.9
95134
95170.8
95207.6
95243
95276.1
95306.1
95332.8
95355.8
95375.3
95391.2
95403.7
95413.2
95419.6
95423.6
95425.6
95425.4
95423.8
95421
95417.3
95412.8
95407.8
95402.5
95397.1
95391.4
95385.8
95380.2
95374.7
95369.3
95364.1
95358.9
95353.9
95349
95344.3
95339.7
95335.2
95330.9
95326.6
95322.4
95318.4
95314.4
95310.6
95306.8
95303.1
95299.6
95296.1
95292.8
95289.5
95286.4
95283.3
95280.4
95277.7
95275
95272.6
95270.2
95268.1
95266
95264.2
95262.5
95261.1
95259.8
95258.7
95257.8
95257.1
95256.7
95256.5
95256.4
95256.6
95257
95257.7
95258.6
95259.7
95261.1
95262.7
95264.5
95266.6
95268.9
95271.4
95274.2
95277.2
95280.4
95283.8
95287.5
95291.4
95295.4
95299.7
95304.1
95308.7
95313.5
95318.5
95323.6
95328.9
95334.3
95339.8
95345.4
95351.1
95356.9
95362.8
95368.8
95374.8
95380.9
95387
95393.1
95399.2
95405.3
95411.4
95417.4
95423.4
95429.4
95435.2
95441
95446.8
95452.4
95457.8
95463.2
95468.4
95473.5
95478.4
95483.1
95487.7
95492.1
95496.3
95500.2
95504
95507.6
95510.9
95514
95516.8
95519.5
95521.9
95524
95525.9
95527.5
95528.9
95530
95530.9
95531.5
95531.9
95531.9
95531.9
95531.5
95530.9
95530.1
95529.1
95527.8
95526.3
95524.6
95522.7
95520.6
95518.4
95515.9
95513.3
95510.6
95507.7
95504.7
95501.7
95498.5
95495.2
95491.9
95488.5
95485.1
95481.7
95478.3
95474.8
95471.5
95468.1
95464.9
95461.7
95458.7
95455.7
95452.9
95450.2
95447.8
95445.5
95443.4
95441.5
95439.9
95438.6
95437.5
95436.8
95436.4
95436.4
95436.6
95437.2
95438.2
95439.6
95441.4
95443.6
95446.3
95449.4
95453
95457.1
95461.7
95466.8
95472.4
95478.5
95485.2
95492.5
95500.3
95508.7
95517.6
95527.2
95537.3
95548.1
95559.4
95571.4
95584
95597.2
95611
95625.5
95640.6
95656.3
95672.6
95689.7
95707.3
95725.6
95744.5
95764.1
95784.3
95805.1
95826.5
95848.6
95871.3
95894.7
95918.6
95943.2
95968.3
95994.1
96020.5
96047.4
96075
96103.1
96131.8
96161
96190.8
96221.1
96252
96283.4
96315.3
96347.7
96380.7
96414.1
96447.9
96482.3
96517.1
96552.3
96588
96624.1
96660.6
96697.5
96734.8
96772.5
96810.5
96848.9
96887.6
96926.6
96966
97005.7
97045.6
97085.8
97126.3
97167.1
97208
97249.2
97290.6
97332.2
97374
97416
97458.1
97500.4
97542.8
97585.4
97628
97670.8
97713.6
97756.5
97799.5
97842.5
97885.6
97928.6
97971.7
98014.8
98057.9
98101
98144
98187
98229.9
98272.7
98315.5
98358.2
98400.8
98443.2
98485.6
98527.8
98569.9
98611.8
98653.5
98695.1
98736.5
98777.8
98818.8
98859.6
98900.2
98940.5
98980.6
99020.5
99060.2
99099.5
99138.6
99177.5
99216
99254.3
99292.2
99329.9
99367.2
99404.3
99441
99477.4
99513.4
99549.1
99584.5
99619.5
99654.2
99688.5
99722.4
99756
99789.2
99822
99854.5
99886.5
99918.2
99949.5
99980.4
100011
100041
100071
100100
100129
100157
100186
100213
100240
100267
100294
100320
100345
100371
100395
100420
100444
100467
100491
100513
100536
100558
100579
100600
100621
100641
100661
100681
100700
100719
100737
100755
100773
100790
100807
100823
100839
100855
100870
100885
100900
100914
100928
100942
100955
100968
100980
100993
101005
101016
101028
101039
101049
101060
101070
101079
101089
101098
101107
101116
101124
101132
101140
101148
101155
101162
101169
101176
101182
101188
101194
101200
101206
101211
101216
101221
101226
101231
101235
101240
101244
101248
101251
101255
101259
101262
101265
101268
101271
101274
101277
101279
101282
101284
101286
101289
101291
101293
101295
101297
101298
101300
101302
101303
101305
101306
101308
101309
101311
101312
101313
101315
101316
101317
101318
101319
101321
101322
101323
101325
94826.2
94826.5
94823
94820.8
94815
94809.5
94801.5
94793.4
94784.8
94777.7
94772.6
94769.5
94766.6
94762.2
94754.6
94741.8
94722.6
94698.3
94669.4
94637.4
94602.4
94566.6
94530.6
94496.6
94465.2
94438.4
94417.9
94404.4
94400.2
94407.5
94424.3
94451.2
94487.7
94530.2
94578.3
94627.8
94678.5
94726.6
94772.5
94814.5
94853.3
94888.8
94922
94953.5
94984.3
95015.3
95047.2
95080.7
95116.1
95152.9
95190.3
95226.9
95261.1
95292.3
95319.9
95343.8
95363.8
95380.3
95393.3
95403.2
95410.2
95414.7
95417.2
95417.7
95416.6
95414.4
95411.2
95407.3
95402.9
95398
95393
95387.8
95382.5
95377.3
95372.1
95367.1
95362.1
95357.2
95352.4
95347.8
95343.2
95338.8
95334.4
95330.2
95326.1
95322
95318.1
95314.2
95310.4
95306.7
95303.1
95299.5
95296.1
95292.8
95289.5
95286.4
95283.4
95280.6
95277.8
95275.2
95272.8
95270.4
95268.3
95266.2
95264.4
95262.7
95261.3
95260
95258.9
95258
95257.3
95256.9
95256.6
95256.6
95256.8
95257.2
95257.9
95258.8
95259.9
95261.3
95262.9
95264.7
95266.8
95269.1
95271.6
95274.4
95277.4
95280.6
95284
95287.7
95291.5
95295.6
95299.8
95304.3
95308.9
95313.7
95318.6
95323.8
95329
95334.4
95339.9
95345.5
95351.2
95357.1
95362.9
95368.9
95374.9
95381
95387.1
95393.2
95399.3
95405.4
95411.4
95417.5
95423.5
95429.4
95435.3
95441.1
95446.8
95452.4
95457.9
95463.2
95468.5
95473.5
95478.4
95483.2
95487.7
95492.1
95496.3
95500.3
95504
95507.6
95510.9
95514
95516.9
95519.5
95521.9
95524
95525.9
95527.5
95528.9
95530
95530.9
95531.5
95531.9
95532
95531.9
95531.5
95530.9
95530.1
95529.1
95527.8
95526.3
95524.6
95522.7
95520.7
95518.4
95516
95513.4
95510.6
95507.8
95504.8
95501.7
95498.5
95495.3
95491.9
95488.6
95485.2
95481.7
95478.3
95474.9
95471.5
95468.2
95465
95461.8
95458.7
95455.8
95453
95450.3
95447.9
95445.6
95443.5
95441.6
95440
95438.7
95437.7
95437
95436.6
95436.5
95436.7
95437.3
95438.3
95439.7
95441.5
95443.7
95446.4
95449.6
95453.2
95457.3
95461.8
95466.9
95472.6
95478.7
95485.4
95492.6
95500.5
95508.8
95517.8
95527.3
95537.5
95548.2
95559.6
95571.5
95584.1
95597.3
95611.1
95625.6
95640.7
95656.4
95672.8
95689.8
95707.4
95725.7
95744.6
95764.2
95784.4
95805.2
95826.7
95848.7
95871.5
95894.8
95918.7
95943.3
95968.5
95994.2
96020.6
96047.5
96075.1
96103.2
96131.9
96161.1
96190.9
96221.2
96252.1
96283.5
96315.4
96347.8
96380.7
96414.1
96448
96482.3
96517.1
96552.3
96588
96624.1
96660.6
96697.5
96734.8
96772.5
96810.5
96848.9
96887.6
96926.6
96966
97005.6
97045.6
97085.8
97126.3
97167
97208
97249.2
97290.6
97332.2
97374
97415.9
97458.1
97500.3
97542.8
97585.3
97627.9
97670.7
97713.5
97756.4
97799.4
97842.4
97885.4