/*--------------------------------*- C++ -*----------------------------------*\
| =========                 |                                                 |
| \\      /  F ield         | OpenFOAM: The Open Source CFD Toolbox           |
|  \\    /   O peration     | Version:  v1812                                 |
|   \\  /    A nd           | Web:      www.OpenFOAM.com                      |
|    \\/     M anipulation  |                                                 |
\*---------------------------------------------------------------------------*/
FoamFile
{
    version     2.0;
    format      ascii;
    class       surfaceScalarField;
    location    "0.2";
    object      phi;
}
// * * * * * * * * * * * * * * * * * * * * * * * * * * * * * * * * * * * * * //

dimensions      [1 0 -1 0 0 0 0];
oriented        oriented;


internalField   nonuniform List<scalar> 
40240
(
0.000313533
-0.000287668
0.00135751
-0.00101811
0.00287467
-0.00149125
0.0045447
-0.0016441
0.00608268
-0.00151198
0.00722826
-0.00111941
0.00795113
-0.00069653
0.00801854
-4.0823e-05
0.00778553
0.000259941
0.00723844
0.000574339
0.0065454
0.000720696
0.00586771
0.00070572
0.00542736
0.000469083
0.00524422
0.000212104
0.0052141
6.02354e-05
0.00528555
-4.13474e-05
0.00543263
-0.000115318
0.00560024
-0.000137175
0.00513198
0.000499254
0.00391438
0.00124744
0.00214811
0.001795
-1.59649e-05
0.00219091
-0.0027486
0.00275787
-0.00617317
0.00344848
-0.0101705
0.00402025
-0.0146109
0.00446249
-0.0192505
0.00466107
-0.0237967
0.00456759
-0.0280412
0.00426589
-0.0316783
0.00365875
-0.0347869
0.00313027
-0.0372433
0.00247828
-0.03905
0.0018289
-0.0402046
0.00117671
-0.0408831
0.000700831
-0.0410476
0.000186854
-0.0408081
-0.000217595
-0.0401716
-0.000615231
-0.0393225
-0.000828855
-0.0382073
-0.00109562
-0.0369767
-0.00121203
-0.0355812
-0.00137795
-0.0340633
-0.00150139
-0.0324188
-0.00162949
-0.0305894
-0.00181575
-0.0285463
-0.00203119
-0.0262933
-0.00224314
-0.0238353
-0.00245035
-0.0211966
-0.00263335
-0.0184018
-0.00279224
-0.0155039
-0.00289772
-0.0125369
-0.00296985
-0.00959634
-0.00294569
-0.00684078
-0.00276357
-0.00454184
-0.00230788
-0.00217757
-0.00237573
0.000121708
-0.00231345
0.00246203
-0.00235463
0.00459898
-0.00215172
0.00641403
-0.00182969
0.00791117
-0.00151034
0.00910962
-0.00121085
0.0100242
-0.000925814
0.0106842
-0.000669585
0.0111211
-0.000445017
0.0113665
-0.000252324
0.0114325
-7.14351e-05
0.0113944
3.24389e-05
0.0112263
0.000163104
0.0109948
0.000226843
0.010709
0.000280685
0.0103793
0.000324364
0.010022
0.000351393
0.00965496
0.00036063
0.00928461
0.000363272
0.00892067
0.000356194
0.00856676
0.000345507
0.00822543
0.000332261
0.00789928
0.000316444
0.00758889
0.000300084
0.00729522
0.000282796
0.00701814
0.000265711
0.00675701
0.000249315
0.00651098
0.000233833
0.00627949
0.000218973
0.0060617
0.000205029
0.00585669
0.000192075
0.00566358
0.000180081
0.00548159
0.00016894
0.00530991
0.00015868
0.00514779
0.000149244
0.00499447
0.000140655
0.0048493
0.000132798
0.00471167
0.000125627
0.00458103
0.000119104
0.00445686
0.000113161
0.00433867
0.000107801
0.00422606
0.00010292
0.00411862
9.85264e-05
0.00401602
9.45529e-05
0.00391787
9.1024e-05
0.00382393
8.78237e-05
0.00373388
8.50156e-05
0.00364748
8.25217e-05
0.00356451
8.03063e-05
0.00348477
7.83761e-05
0.00340806
7.67011e-05
0.00333429
7.51917e-05
0.00326322
7.39795e-05
0.00319479
7.28747e-05
0.003129
7.19817e-05
0.0030657
7.12092e-05
0.00300441
7.05646e-05
0.0029451
7.00682e-05
0.00288803
6.96435e-05
0.00283305
6.93409e-05
0.0027801
6.90983e-05
0.00272911
6.89524e-05
0.00268002
6.88404e-05
0.00263276
6.88278e-05
0.00258726
6.88677e-05
0.00254349
6.89388e-05
0.00250135
6.91034e-05
0.00246089
6.92389e-05
0.00242208
6.93742e-05
0.00238483
6.9564e-05
0.00234908
6.97804e-05
0.00231475
7.00413e-05
0.00228184
7.02825e-05
0.00225031
7.05096e-05
0.00222006
7.07907e-05
0.0021911
7.1021e-05
0.00216335
7.12729e-05
0.00213673
7.15548e-05
0.00211124
7.17646e-05
0.00208675
7.20427e-05
0.00206323
7.22772e-05
0.00204063
7.2501e-05
0.00201883
7.2764e-05
0.00199782
7.29593e-05
0.00197747
7.31985e-05
0.00195774
7.33996e-05
0.00193856
7.35877e-05
0.0019198
7.38055e-05
0.00190143
7.39629e-05
0.00188334
7.41542e-05
0.00186547
7.42957e-05
0.00184773
7.44488e-05
0.00183001
7.45939e-05
0.00181227
7.47071e-05
0.00179435
7.48572e-05
0.00177624
7.49384e-05
0.00175777
7.50876e-05
0.00173893
7.5152e-05
0.00171957
7.52733e-05
0.00169963
7.53592e-05
0.00167905
7.5407e-05
0.00165765
7.55424e-05
0.00163548
7.55433e-05
0.00161229
7.56914e-05
0.00158814
7.57088e-05
0.00156287
7.57924e-05
0.00153637
7.58889e-05
0.00150869
7.58799e-05
0.00147957
7.60372e-05
0.0014491
7.60329e-05
0.0014171
7.6142e-05
0.00138351
7.62322e-05
0.00134834
7.62549e-05
0.00131138
7.64171e-05
0.00127271
7.64577e-05
0.00123217
7.6589e-05
0.00118973
7.67114e-05
0.00114537
7.681e-05
0.00109898
7.69822e-05
0.00105058
7.7094e-05
0.00100005
7.72939e-05
0.000947435
7.74355e-05
0.000892652
7.76388e-05
0.000835658
7.78709e-05
0.000776514
7.80317e-05
0.000715098
7.83222e-05
0.000651383
7.85366e-05
0.000585167
7.88198e-05
0.000516897
7.91188e-05
0.000446711
7.94231e-05
0.000374197
7.97981e-05
0.000299357
8.015e-05
0.000222256
8.05279e-05
0.000142937
8.09271e-05
6.14198e-05
8.13358e-05
-2.21965e-05
8.1646e-05
-0.000108106
8.22214e-05
-0.00019616
8.27311e-05
-0.000286271
8.32327e-05
-0.000378424
8.37979e-05
-0.000472514
8.43422e-05
-0.000568508
8.49388e-05
-0.000666334
8.55544e-05
-0.000765902
8.61732e-05
-0.000867163
8.68389e-05
-0.000970043
8.75304e-05
-0.00107443
8.82115e-05
-0.00118028
8.89737e-05
-0.0012875
8.9732e-05
-0.00139597
9.05008e-05
-0.00150564
9.13384e-05
-0.00161638
9.21584e-05
-0.00172811
9.30314e-05
-0.00184073
9.3927e-05
-0.0019541
9.48189e-05
-0.00206815
9.57587e-05
-0.00218276
9.67211e-05
-0.00229779
9.76747e-05
-0.00241318
9.86973e-05
-0.00252879
9.97214e-05
-0.00264448
0.000100752
-0.00276018
0.000101857
-0.00287572
0.000102936
-0.00299099
0.00010405
-0.00310587
0.000105191
-0.00322022
0.000106325
-0.00333389
0.000107492
-0.00344679
0.000108655
-0.0035588
0.000109856
-0.00366964
0.000111091
-0.00377904
0.000112327
-0.00388749
0.000113512
-0.00399497
0.000114735
-0.00410091
0.000115981
-0.00420515
0.000117241
-0.00430764
0.000118503
-0.00440829
0.000119789
-0.00450697
0.000121064
-0.00460359
0.000122343
-0.00469805
0.000123633
-0.00479022
0.000124907
-0.00488002
0.00012623
-0.00496733
0.000127592
-0.00505197
0.000128793
-0.0051339
0.000130012
-0.00521311
0.000131328
-0.0052895
0.000132648
-0.00536294
0.00013394
-0.00543334
0.000135191
-0.00550062
0.000136449
-0.00556471
0.000137697
-0.00562553
0.000138935
-0.00568301
0.000140162
-0.00573707
0.000141375
-0.00578766
0.000142577
-0.00583472
0.00014377
-0.00587819
0.00014495
-0.00591802
0.000146113
-0.00595415
0.000147254
-0.00598656
0.000148399
-0.00601516
0.000149487
-0.00603998
0.000150605
-0.00606095
0.000151663
-0.00607803
0.000152694
-0.0060909
0.000153683
-0.00609969
0.000154571
-0.00610533
0.000156011
-0.0061065
0.000156661
-0.00610348
0.000157488
-0.0060966
0.000158515
-0.00608568
0.000159388
-0.00607069
0.00016024
-0.00605166
0.000161071
-0.00602856
0.000161874
-0.00600141
0.000162647
-0.00597021
0.000163394
-0.00593497
0.000164107
-0.00589568
0.000164795
-0.00585237
0.000165451
-0.00580506
0.000166082
-0.00575376
0.000166678
-0.00569848
0.000167244
-0.00563926
0.000167776
-0.00557611
0.000168276
-0.00550906
0.000168748
-0.00543814
0.000169188
-0.00536339
0.0001696
-0.00528483
0.000169971
-0.00520249
0.000170309
-0.00511641
0.000170607
-0.00502664
0.000170874
-0.00493323
0.000171112
-0.00483622
0.000171327
-0.00473567
0.000171516
-0.00463162
0.000171666
-0.00452412
0.000171785
-0.00441321
0.00017186
-0.00429895
0.000171906
-0.0041814
0.000171918
-0.0040606
0.000171898
-0.00393662
0.000171851
-0.00380951
0.000171763
-0.00367933
0.000171649
-0.00354613
0.000171493
-0.00340999
0.000171315
-0.00327096
0.000171103
-0.00312911
0.000170864
-0.00298451
0.000170599
-0.00283721
0.000170292
-0.00268729
0.000169964
-0.00253481
0.000169594
-0.00237984
0.000169203
-0.00222244
0.000168776
-0.00206268
0.000168327
-0.00190065
0.000167853
-0.00173638
0.000167342
-0.00156998
0.000166818
-0.00140148
0.000166251
-0.00123098
0.000165669
-0.00105853
0.000165047
-0.000884197
0.000164392
-0.000708056
0.000163691
-0.000530194
0.000162911
-0.000350662
0.000162088
-0.00016967
0.00016143
1.27838e-05
0.000160681
0.000196665
0.000159866
0.000381955
0.000158979
0.000568606
0.000158048
0.000756552
0.000157092
0.000945719
0.000156115
0.00113604
0.000155113
0.00132744
0.000154091
0.00151985
0.000153049
0.00171319
0.000151992
0.00190739
0.000150916
0.00210238
0.000149824
0.00229809
0.000148715
0.00249445
0.000147586
0.0026914
0.00014644
0.00288885
0.000145282
0.00308675
0.000144106
0.00328502
0.000142918
0.00348359
0.000141717
0.00368241
0.000140495
0.0038814
0.000139259
0.00408051
0.000138011
0.00427967
0.000136748
0.00447881
0.000135477
0.00467788
0.000134195
0.00487679
0.000132901
0.00507551
0.000131599
0.00527396
0.000130285
0.00547209
0.000128958
0.00566984
0.000127615
0.00586717
0.000126265
0.00606399
0.000124916
0.00626027
0.00012356
0.00645592
0.000122204
0.0066509
0.000120845
0.00684515
0.000119475
0.00703863
0.000118099
0.00723129
0.000116712
0.00742309
0.000115307
0.00761397
0.0001139
0.00780389
0.0001125
0.00799279
0.000111092
0.00818063
0.000109679
0.00836736
0.000108275
0.00855293
0.000106877
0.00873729
0.000105468
0.00892042
0.000104055
0.00910227
0.00010264
0.0092828
0.00010122
0.00946196
9.98163e-05
0.00963971
9.84228e-05
0.00981601
9.70283e-05
0.00999082
9.56268e-05
0.0101641
9.42085e-05
0.0103359
9.27917e-05
0.0105062
9.1394e-05
0.0106748
8.99983e-05
0.0108418
8.8615e-05
0.0110071
8.72414e-05
0.0111707
8.58626e-05
0.0113325
8.44917e-05
0.0114927
8.31291e-05
0.011651
8.17615e-05
0.0118076
8.0407e-05
0.0119623
7.90648e-05
0.0121152
7.77213e-05
0.0122662
7.63892e-05
0.0124154
7.50556e-05
0.0125627
7.37317e-05
0.012708
7.24264e-05
0.0128514
7.11353e-05
0.0129929
6.98545e-05
0.0131324
6.85774e-05
0.0132699
6.72897e-05
0.0134055
6.60119e-05
0.0135391
6.47552e-05
0.0136707
6.35101e-05
0.0138003
6.22894e-05
0.0139278
6.10905e-05
0.0140534
5.98969e-05
0.0141769
5.87013e-05
0.0142984
5.7507e-05
0.0144178
5.632e-05
0.0145353
5.51722e-05
0.0146506
5.40413e-05
0.014764
5.2897e-05
0.0148754
5.17674e-05
0.0149847
5.06543e-05
0.015092
4.95502e-05
0.0151973
4.84813e-05
0.0153006
4.74315e-05
0.0154019
4.63715e-05
0.0155012
4.53287e-05
0.0155985
4.4307e-05
0.0156938
4.32766e-05
0.0157872
4.22654e-05
0.0158786
4.1291e-05
0.0159681
4.03277e-05
0.0160556
3.93829e-05
0.0161413
3.84396e-05
0.016225
3.74902e-05
0.0163069
3.65857e-05
0.0163868
3.56915e-05
0.016465
3.48019e-05
0.0165413
3.39525e-05
0.0166157
3.31184e-05
0.0166883
3.22858e-05
0.0167592
3.14566e-05
0.0168283
3.06325e-05
0.0168957
2.98344e-05
0.0169613
2.90586e-05
0.0170253
2.82775e-05
0.0170875
2.75405e-05
0.0171481
2.68241e-05
0.0172071
2.60778e-05
0.0172645
2.53698e-05
0.0173202
2.46866e-05
0.0173744
2.4014e-05
0.017427
2.33514e-05
0.0174782
2.26911e-05
0.0175278
2.20338e-05
0.017576
2.14237e-05
0.0176227
2.08349e-05
0.017668
2.02427e-05
0.0177118
1.96888e-05
0.0177542
1.91447e-05
0.0177953
1.85849e-05
0.0178351
1.80374e-05
0.0178736
1.74967e-05
0.0179108
1.697e-05
0.0179468
1.64675e-05
0.0179815
1.59915e-05
0.018015
1.55366e-05
0.0180473
1.50748e-05
0.0180785
1.46269e-05
0.0181085
1.42175e-05
0.0181374
1.37848e-05
0.0181652
1.33412e-05
0.018192
1.29363e-05
0.0182177
1.25371e-05
0.0182424
1.21693e-05
0.0182661
1.18307e-05
0.0182887
1.14978e-05
0.0183104
1.11527e-05
0.0183312
1.07905e-05
0.0183511
1.04825e-05
0.0183701
1.01352e-05
0.0183882
9.82204e-06
0.0184054
9.58092e-06
0.0184218
9.25515e-06
0.0184374
8.94689e-06
0.0184522
8.71453e-06
0.0184662
8.4631e-06
0.0184794
8.17046e-06
0.0184918
7.98818e-06
0.0185035
7.74937e-06
0.0185145
7.46138e-06
0.0185247
7.30836e-06
0.0185342
7.08992e-06
0.018543
6.86468e-06
0.0185511
6.70301e-06
0.0185586
6.47316e-06
0.0185653
6.32754e-06
0.0185714
6.13333e-06
0.0185769
5.91859e-06
0.0185817
5.82838e-06
0.0185858
5.67517e-06
0.0185893
5.51214e-06
0.0185921
5.40296e-06
0.0185943
5.17975e-06
0.0185957
5.15981e-06
0.0185962
5.2211e-06
0.0185962
5.06673e-06
0.0185957
4.98221e-06
0.0185944
5.05496e-06
0.0185922
5.2046e-06
0.018588
6.40134e-06
0.0185826
6.53255e-06
7.47068e-06
0.000839268
-0.00110116
0.00280386
-0.00295695
0.00526766
-0.00392929
0.00770349
-0.00405416
0.00993005
-0.00371267
0.0118761
-0.00303947
0.0134255
-0.00221986
0.0146328
-0.00122176
0.0148447
7.44922e-05
0.0142648
0.00118148
0.0129619
0.00205119
0.0113188
0.00237713
0.00958235
0.00223446
0.00807454
0.00174961
0.0070977
0.00106739
0.00633628
0.000751339
0.00508526
0.00116711
0.0025109
0.00247067
-0.00118701
0.00422967
-0.00602619
0.00611855
-0.012022
0.00782089
-0.0191537
0.00935136
-0.0269615
0.010593
-0.0349429
0.0114569
-0.0426449
0.011749
-0.0496574
0.0115022
-0.0557781
0.0108095
-0.0608569
0.00967516
-0.064764
0.00820293
-0.0675371
0.00646331
-0.0692444
0.00486969
-0.0700395
0.00330603
-0.0700106
0.00183326
-0.0692278
0.000426893
-0.0677642
-0.0007292
-0.0660226
-0.00152202
-0.0638811
-0.00232706
-0.0615801
-0.00288466
-0.0591486
-0.0032299
-0.0566014
-0.00361312
-0.05398
-0.00380467
-0.0512726
-0.00405767
-0.0484765
-0.00427109
-0.0455452
-0.00453535
-0.0424385
-0.00489842
-0.039133
-0.00531425
-0.0356051
-0.00575075
-0.031857
-0.00618051
-0.0278989
-0.0065765
-0.0237724
-0.00690706
-0.019516
-0.0071465
-0.0151988
-0.0072835
-0.0108531
-0.00729269
-0.00643474
-0.0071876
-0.00170585
-0.00704686
0.00276328
-0.00686063
0.00694857
-0.00651987
0.0106756
-0.00610933
0.0140602
-0.00556897
0.0171706
-0.00497642
0.0199571
-0.00433494
0.0223832
-0.00367628
0.0244158
-0.00299742
0.0260457
-0.00233626
0.0272768
-0.0017098
0.0281267
-0.00113209
0.028647
-0.000617461
0.0288244
-0.000166737
0.0288174
0.000151616
0.0286416
0.000387527
0.0283212
0.000587961
0.0278798
0.00075439
0.0273651
0.000855799
0.0268119
0.000904382
0.0262352
0.000930828
0.0256534
0.000928867
0.0250798
0.000909966
0.024523
0.00087958
0.0239889
0.000840631
0.0234793
0.000799507
0.0229958
0.000755483
0.0225397
0.000710756
0.0221105
0.000667006
0.0217075
0.000624921
0.0213293
0.000584972
0.0209745
0.000547422
0.020642
0.000511959
0.0203307
0.000478636
0.0200396
0.000447396
0.0197672
0.000418326
0.0195125
0.000391463
0.0192741
0.000366777
0.0190508
0.000344033
0.0188417
0.000323084
0.0186458
0.000303857
0.0184621
0.000286192
0.0182898
0.000270085
0.018128
0.000255316
0.0179762
0.000241839
0.0178335
0.000229544
0.0176993
0.000218418
0.0175731
0.000208278
0.0174543
0.000199176
0.0173423
0.000190998
0.0172367
0.000183616
0.017137
0.000177045
0.0170429
0.000171186
0.016954
0.000165875
0.0168699
0.000161307
0.0167905
0.000157125
0.0167155
0.00015346
0.0166448
0.000150252
0.0165775
0.000147428
0.0165137
0.000144994
0.0164534
0.000142859
0.0163965
0.000140999
0.0163427
0.000139384
0.016292
0.000138016
0.0162442
0.000136793
0.016199
0.00013587
0.0161566
0.000135092
0.0161166
0.000134446
0.016079
0.000134014
0.0160436
0.000133701
0.0160107
0.000133261
0.0159799
0.000133001
0.0159512
0.000132966
0.0159243
0.000132979
0.0158994
0.000132946
0.0158763
0.000132975
0.0158549
0.000133103
0.0158352
0.000133194
0.015817
0.000133333
0.0158003
0.000133553
0.0157851
0.00013369
0.0157712
0.000133932
0.0157584
0.000134142
0.0157469
0.000134345
0.0157364
0.000134622
0.0157269
0.000134816
0.0157183
0.000135069
0.0157105
0.000135292
0.0157034
0.000135498
0.0156969
0.000135746
0.015691
0.00013592
0.0156855
0.000136132
0.0156804
0.000136283
0.0156755
0.000136449
0.0156708
0.000136605
0.0156662
0.000136722
0.0156616
0.000136885
0.0156569
0.000136946
0.015652
0.0001371
0.0156468
0.000137135
0.0156412
0.000137239
0.0156351
0.000137303
0.0156286
0.000137296
0.0156213
0.000137412
0.0156134
0.000137331
0.0156047
0.000137446
0.0155951
0.000137388
0.0155845
0.000137392
0.0155729
0.000137424
0.0155602
0.000137291
0.0155463
0.000137368
0.0155312
0.000137242
0.0155148
0.000137227
0.0154971
0.000137204
0.0154779
0.000137081
0.0154572
0.000137104
0.015435
0.000136995
0.0154112
0.000136968
0.0153859
0.000136927
0.0153588
0.000136883
0.0153301
0.000136843
0.0152997
0.000136785
0.0152675
0.000136801
0.0152336
0.000136717
0.015198
0.000136654
0.0151605
0.00013685
0.0151214
0.000136657
0.0150804
0.000136774
0.0150376
0.000136749
0.0149928
0.0001368
0.0149465
0.000136862
0.0148988
0.000136912
0.0148494
0.000137061
0.0147982
0.000137183
0.0147454
0.000137291
0.014691
0.000137434
0.014635
0.000137639
0.0145776
0.000137661
0.0145188
0.000137952
0.0144585
0.000138236
0.014397
0.000138467
0.0143342
0.000138863
0.0142702
0.000139162
0.0142052
0.000139532
0.0141391
0.000139963
0.0140721
0.000140317
0.0140044
0.000140776
0.0139359
0.000141271
0.0138668
0.000141678
0.0137972
0.000142288
0.0137272
0.000142825
0.013657
0.000143352
0.0135865
0.000144054
0.013516
0.000144616
0.0134456
0.000145318
0.0133753
0.000146079
0.0133054
0.00014671
0.013236
0.000147509
0.013167
0.000148321
0.0130989
0.000149033
0.0130315
0.000149967
0.012965
0.000150825
0.0128997
0.000151663
0.0128355
0.000152725
0.0127728
0.000153619
0.0127115
0.000154622
0.0126518
0.000155701
0.012594
0.000156643
0.0125381
0.000157754
0.0124842
0.000158802
0.0124325
0.000159894
0.0123832
0.000161082
0.0123366
0.000162362
0.0122923
0.00016334
0.0122504
0.000164434
0.0122111
0.000165713
0.0121749
0.000166903
0.0121418
0.000168143
0.0121118
0.000169371
0.0120851
0.000170596
0.0120618
0.000171872
0.0120419
0.000173101
0.0120256
0.000174396
0.012013
0.000175654
0.0120045
0.000176833
0.0119996
0.000178278
0.0119984
0.000179635
0.0120014
0.000180885
0.0120086
0.000182143
0.01202
0.000183407
0.0120357
0.000184713
0.0120557
0.000186
0.0120802
0.000187248
0.0121091
0.000188531
0.0121425
0.000189765
0.0121806
0.000191007
0.0122233
0.000192267
0.0122707
0.000193475
0.0123228
0.000194718
0.0123796
0.00019592
0.0124413
0.000197099
0.0125077
0.000198304
0.0125791
0.000199414
0.0126552
0.000200595
0.0127363
0.000201668
0.0128223
0.000202753
0.0129132
0.000203849
0.0130089
0.000204883
0.0131099
0.000205917
0.0132156
0.000206872
0.0133261
0.000207814
0.0134416
0.000208786
0.013562
0.000209725
0.0136872
0.000210625
0.0138173
0.000211494
0.0139522
0.000212326
0.0140919
0.000213125
0.0142364
0.000213893
0.0143856
0.000214625
0.0145396
0.000215331
0.0146982
0.000216004
0.0148614
0.00021665
0.0150293
0.000217256
0.0152016
0.000217827
0.0153785
0.000218357
0.0155598
0.000218852
0.0157455
0.000219314
0.0159355
0.000219739
0.0161297
0.000220139
0.0163282
0.000220495
0.0165309
0.000220813
0.0167376
0.000221079
0.0169483
0.000221303
0.017163
0.00022148
0.0173815
0.000221663
0.0176038
0.000221819
0.0178297
0.000221932
0.0180594
0.000221998
0.0182925
0.000222014
0.0185292
0.000221985
0.0187692
0.000221918
0.0190126
0.000221815
0.0192592
0.000221678
0.019509
0.000221505
0.0197618
0.000221293
0.0200175
0.000221036
0.0202762
0.000220744
0.0205376
0.00022042
0.0208018
0.00022007
0.0210686
0.000219687
0.0213379
0.000219262
0.0216096
0.000218798
0.0218836
0.000218294
0.0221599
0.000217758
0.0224384
0.000217184
0.0227189
0.000216584
0.0230014
0.000215951
0.0232857
0.000215284
0.0235718
0.000214581
0.0238596
0.000213847
0.024149
0.000213078
0.0244399
0.000212271
0.0247322
0.00021142
0.0250258
0.000210524
0.0253207
0.000209578
0.0256166
0.000208603
0.0259136
0.000207676
0.0262116
0.000206709
0.0265104
0.000205691
0.0268099
0.000204647
0.02711
0.000203576
0.0274106
0.000202468
0.0277116
0.000201335
0.0280129
0.000200172
0.0283145
0.000198983
0.0286162
0.000197769
0.0289179
0.000196535
0.0292196
0.000195279
0.0295213
0.000194004
0.0298227
0.000192707
0.0301238
0.000191383
0.0304246
0.000190035
0.030725
0.00018867
0.0310248
0.000187283
0.031324
0.000185878
0.0316226
0.000184454
0.0319204
0.000183008
0.0322174
0.000181542
0.0325135
0.000180055
0.0328086
0.000178545
0.0331027
0.000177027
0.0333957
0.000175499
0.0336875
0.000173955
0.0339781
0.000172394
0.0342673
0.000170816
0.0345552
0.000169222
0.0348416
0.000167603
0.0351265
0.000165973
0.0354099
0.000164345
0.0356916
0.000162711
0.0359716
0.000161081
0.0362499
0.000159446
0.0365263
0.000157791
0.0368009
0.000156121
0.0370736
0.000154434
0.0373443
0.00015272
0.037613
0.000150992
0.0378797
0.000149277
0.0381443
0.000147564
0.0384066
0.000145839
0.0386668
0.000144117
0.0389247
0.000142406
0.0391804
0.000140683
0.0394337
0.000138947
0.0396846
0.000137207
0.0399331
0.000135457
0.0401791
0.000133726
0.0404227
0.000132012
0.0406638
0.000130303
0.0409022
0.000128578
0.0411381
0.000126819
0.0413714
0.000125051
0.0416021
0.000123308
0.0418301
0.00012157
0.0420554
0.000119848
0.0422779
0.00011815
0.0424977
0.000116451
0.0427148
0.000114751
0.042929
0.000113044
0.0431405
0.00011132
0.0433492
0.000109619
0.043555
0.000107945
0.0437579
0.000106262
0.043958
0.000104586
0.0441553
0.000102899
0.0443497
0.000101216
0.0445412
9.95663e-05
0.0447298
9.79484e-05
0.0449154
9.63434e-05
0.0450982
9.47274e-05
0.0452781
9.30786e-05
0.045455
9.14409e-05
0.0456291
8.98467e-05
0.0458003
8.82698e-05
0.0459685
8.67222e-05
0.0461338
8.5212e-05
0.0462962
8.37007e-05
0.0464557
8.217e-05
0.0466123
8.06415e-05
0.0467661
7.91108e-05
0.046917
7.76278e-05
0.047065
7.61817e-05
0.0472102
7.4705e-05
0.0473525
7.32382e-05
0.0474921
7.18078e-05
0.0476288
7.03857e-05
0.0477628
6.90095e-05
0.0478939
6.76661e-05
0.0480223
6.62928e-05
0.048148
6.49303e-05
0.048271
6.35993e-05
0.0483912
6.22518e-05
0.0485089
6.09218e-05
0.0486239
5.96479e-05
0.0487362
5.8393e-05
0.048846
5.71644e-05
0.0489532
5.59393e-05
0.0490578
5.46945e-05
0.0491599
5.35057e-05
0.0492595
5.23287e-05
0.0493567
5.11505e-05
0.0494514
5.00358e-05
0.0495437
4.89524e-05
0.0496336
4.78547e-05
0.0497212
4.67547e-05
0.0498064
4.56582e-05
0.0498894
4.45878e-05
0.0499702
4.35597e-05
0.0500487
4.25137e-05
0.0501251
4.15083e-05
0.0501993
4.05596e-05
0.0502713
3.9566e-05
0.0503413
3.86121e-05
0.0504092
3.77092e-05
0.0504751
3.68071e-05
0.050539
3.59091e-05
0.050601
3.50241e-05
0.0506611
3.41337e-05
0.0507192
3.33036e-05
0.0507756
3.25245e-05
0.05083
3.17361e-05
0.0508827
3.09805e-05
0.0509337
3.02626e-05
0.0509829
2.95081e-05
0.0510304
2.87329e-05
0.0510764
2.79883e-05
0.0511207
2.7277e-05
0.0511634
2.6582e-05
0.0512046
2.59527e-05
0.0512442
2.53508e-05
0.0512824
2.4702e-05
0.0513191
2.40819e-05
0.0513544
2.35266e-05
0.0513884
2.29184e-05
0.051421
2.2281e-05
0.0514523
2.1734e-05
0.0514823
2.11886e-05
0.0515111
2.0652e-05
0.0515386
2.02431e-05
0.0515648
1.98068e-05
0.0515899
1.92664e-05
0.0516139
1.88201e-05
0.0516367
1.834e-05
0.0516585
1.78105e-05
0.0516792
1.74701e-05
0.0516988
1.70791e-05
0.0517175
1.65698e-05
0.0517352
1.62359e-05
0.0517518
1.58661e-05
0.0517676
1.54822e-05
0.0517823
1.52028e-05
0.0517962
1.48492e-05
0.0518093
1.445e-05
0.0518214
1.41528e-05
0.0518327
1.39019e-05
0.0518431
1.36319e-05
0.0518527
1.32735e-05
0.0518615
1.30337e-05
0.0518694
1.28205e-05
0.0518768
1.24224e-05
0.0518833
1.21987e-05
0.0518889
1.20567e-05
0.051894
1.17415e-05
0.0518981
1.17684e-05
0.0519014
1.14972e-05
0.0519042
1.11571e-05
0.0519058
1.11745e-05
0.0519071
1.0706e-05
0.0519072
1.10113e-05
0.0519067
1.10383e-05
0.0519052
1.13175e-05
0.0519026
1.18176e-05
0.0518982
1.27415e-05
0.0518946
1.26671e-05
0.0518904
1.23613e-05
1.27568e-05
0.00101209
-0.0020876
0.00306226
-0.00498155
0.00554466
-0.00638616
0.00805557
-0.0065396
0.0104488
-0.0060805
0.0125448
-0.0051102
0.0141321
-0.0037818
0.0149217
-0.00198559
0.0150894
-6.69305e-05
0.0148617
0.00143592
0.0139975
0.00294278
0.0123805
0.00402208
0.0102495
0.00439428
0.00780591
0.00422302
0.00484882
0.00405558
0.00118757
0.00444482
-0.00337146
0.00576009
-0.00919619
0.00833004
-0.0163156
0.0113836
-0.0243407
0.0141775
-0.0329073
0.0164207
-0.0415727
0.0180496
-0.0498032
0.0188562
-0.057107
0.0187936
-0.0632033
0.0178792
-0.067967
0.0163011
-0.0714476
0.0143265
-0.0736833
0.0119488
-0.0749997
0.00955788
-0.075473
0.00697569
-0.075601
0.00503724
-0.0752388
0.00298354
-0.0742197
0.000854362
-0.0728243
-0.000928449
-0.0709616
-0.00255174
-0.0688683
-0.00357489
-0.0665296
-0.00462558
-0.0639687
-0.00540527
-0.0612263
-0.00593225
-0.0583413
-0.00645831
-0.0553257
-0.00678081
-0.0522067
-0.00713737
-0.0489716
-0.00746749
-0.0455805
-0.00788785
-0.0420367
-0.00840471
-0.0383478
-0.00896679
-0.0344821
-0.00958158
-0.0304146
-0.0102147
-0.0261363
-0.0108236
-0.0216591
-0.0113555
-0.0170096
-0.0117701
-0.0122407
-0.0120301
-0.0073978
-0.0121177
-0.0025705
-0.0120016
0.00207888
-0.0116878
0.00656479
-0.0113441
0.0109089
-0.0108683
0.0150759
-0.0102882
0.01904
-0.00955327
0.0227584
-0.00872391
0.0261734
-0.00778741
0.029269
-0.00681835
0.0320286
-0.00581107
0.0344409
-0.00480811
0.0364994
-0.00383125
0.0381992
-0.0028955
0.0395414
-0.00202128
0.0405411
-0.00122338
0.0412092
-0.000567489
0.0415671
-1.43364e-05
0.0416601
0.000457663
0.0415906
0.000792647
0.041382
0.00103841
0.0410728
0.00119193
0.040685
0.00130033
0.0402503
0.00134789
0.0397909
0.00135555
0.0393198
0.00133802
0.0388502
0.0012984
0.0383891
0.00124916
0.0379434
0.00118998
0.0375167
0.00112616
0.0371104
0.00106186
0.0367245
0.000999234
0.0363589
0.000938767
0.0360134
0.000880831
0.0356875
0.000825795
0.0353807
0.000773142
0.0350926
0.000723245
0.0348224
0.000676327
0.0345693
0.000632431
0.0343327
0.000591491
0.0341118
0.000553433
0.0339056
0.000518046
0.0337134
0.000485304
0.0335345
0.000454912
0.0333681
0.000426878
0.0332136
0.000400965
0.0330702
0.000377111
0.0329374
0.000355165
0.0328143
0.000335142
0.0327005
0.000316796
0.0325954
0.00030008
0.0324984
0.000284947
0.032409
0.000271144
0.0323269
0.00025863
0.0322515
0.00024737
0.0321826
0.000237053
0.0321197
0.000227924
0.0320624
0.000219674
0.0320107
0.000212209
0.031964
0.00020563
0.0319218
0.00019974
0.0318839
0.000194479
0.0318503
0.00018983
0.0318209
0.00018563
0.0317952
0.000181971
0.0317733
0.000178708
0.0317551
0.000175658
0.0317401
0.000173249
0.0317283
0.000171135
0.0317194
0.000169246
0.0317135
0.00016765
0.0317106
0.000166146
0.0317102
0.000165191
0.031712
0.000164284
0.0317166
0.0001633
0.0317236
0.000162578
0.0317327
0.000162056
0.031744
0.000161557
0.0317573
0.000161206
0.0317726
0.000160881
0.0317897
0.000160645
0.0318085
0.000160523
0.031829
0.00016037
0.0318511
0.00016033
0.0318746
0.000160303
0.0318995
0.000160294
0.0319256
0.000160354
0.0319529
0.000160386
0.0319813
0.000160468
0.0320107
0.000160549
0.0320409
0.000160622
0.0320719
0.000160724
0.0321036
0.000160797
0.0321359
0.000160878
0.0321687
0.000160917
0.0322018
0.000160978
0.0322353
0.000161015
0.032269
0.000161047
0.0323027
0.000161084
0.0323365
0.00016106
0.0323701
0.000161107
0.0324036
0.000161027
0.0324368
0.000161022
0.0324696
0.000160965
0.032502
0.000160866
0.0325338
0.000160847
0.032565
0.000160652
0.0325954
0.000160643
0.032625
0.000160461
0.0326537
0.000160322
0.0326815
0.000160211
0.0327082
0.00015995
0.0327338
0.000159864
0.0327582
0.000159611
0.0327814
0.00015942
0.0328032
0.000159239
0.0328236
0.000158962
0.0328426
0.000158794
0.0328601
0.000158523
0.0328761
0.000158323
0.0328905
0.000158079
0.0329032
0.000157852
0.0329143
0.000157643
0.0329238
0.000157334
0.0329315
0.00015719
0.0329374
0.000156868
0.0329414
0.000156729
0.032944
0.000156418
0.0329447
0.000156182
0.0329437
0.00015607
0.0329408
0.000155821
0.0329359
0.000155623
0.0329295
0.000155529
0.0329217
0.000155292
0.0329122
0.00015519
0.0329009
0.0001551
0.0328879
0.000154972
0.0328734
0.00015488
0.0328572
0.000154776
0.0328395
0.000154729
0.0328204
0.000154743
0.0327998
0.000154824
0.032778
0.000154739
0.032755
0.000154928
0.0327307
0.000155033
0.0327054
0.000155134
0.032679
0.000155403
0.0326518
0.000155501
0.0326238
0.00015573
0.032595
0.000156017
0.0325657
0.00015619
0.0325358
0.000156605
0.0325056
0.000156906
0.0324751
0.000157217
0.0324444
0.000157762
0.0324137
0.00015807
0.0323831
0.000158573
0.0323526
0.000159179
0.0323225
0.000159569
0.0322929
0.000160217
0.0322638
0.000160856
0.0322354
0.000161347
0.0322079
0.000162131
0.0321814
0.000162818
0.0321559
0.000163465
0.0321317
0.000164434
0.0321089
0.000165127
0.0320876
0.000166017
0.0320678
0.000167081
0.0320501
0.000167623
0.0320341
0.000168804
0.0320202
0.00016978
0.0320086
0.000170555
0.0319994
0.000171824
0.0319934
0.000172625
0.0319892
0.00017382
0.031987
0.0001751
0.031988
0.000176054
0.031992
0.000177155
0.0319991
0.000178321
0.0320094
0.000179451
0.032023
0.000180656
0.03204
0.000181847
0.0320605
0.000183045
0.0320846
0.000184289
0.0321124
0.000185496
0.032144
0.000186789
0.0321795
0.000188079
0.0322191
0.000189362
0.0322627
0.000190649
0.0323104
0.000191917
0.0323624
0.000193194
0.0324186
0.000194493
0.0324792
0.000195769
0.0325443
0.000197055
0.0326138
0.000198331
0.0326879
0.000199592
0.0327665
0.000200876
0.0328499
0.000202129
0.0329379
0.000203395
0.0330306
0.000204663
0.0331282
0.000205902
0.0332304
0.000207154
0.0333376
0.000208379
0.0334495
0.000209584
0.0335663
0.000210788
0.033688
0.000211938
0.0338146
0.000213106
0.0339461
0.000214228
0.0340824
0.000215337
0.0342237
0.000216418
0.0343698
0.000217465
0.0345208
0.000218501
0.0346767
0.000219536
0.0348374
0.000220559
0.035003
0.000221555
0.0351733
0.000222524
0.0353484
0.000223453
0.0355282
0.000224345
0.0357128
0.000225202
0.035902
0.000226023
0.0360958
0.000226821
0.0362943
0.000227586
0.0364973
0.00022833
0.0367048
0.000229034
0.0369167
0.000229703
0.0371331
0.000230332
0.0373538
0.000230919
0.0375787
0.000231478
0.0378079
0.000231985
0.0380413
0.000232479
0.0382787
0.00023293
0.0385202
0.000233356
0.0387656
0.000233726
0.0390148
0.000234049
0.0392679
0.000234302
0.0395248
0.00023457
0.0397852
0.000234835
0.0400492
0.00023505
0.0403167
0.000235223
0.0405875
0.000235339
0.0408617
0.000235404
0.0411391
0.00023542
0.0414197
0.000235398
0.0417033
0.000235341
0.0419899
0.000235259
0.0422794
0.000235138
0.0425716
0.00023497
0.0428665
0.000234759
0.043164
0.000234515
0.0434641
0.000234253
0.0437665
0.00023396
0.0440712
0.00023362
0.0443782
0.000233235
0.0446873
0.000232809
0.0449984
0.000232348
0.0453114
0.000231848
0.0456263
0.000231317
0.0459429
0.000230751
0.0462612
0.00023015