/*--------------------------------*- C++ -*----------------------------------*\
| =========                 |                                                 |
| \\      /  F ield         | OpenFOAM: The Open Source CFD Toolbox           |
|  \\    /   O peration     | Version:  v1812                                 |
|   \\  /    A nd           | Web:      www.OpenFOAM.com                      |
|    \\/     M anipulation  |                                                 |
\*---------------------------------------------------------------------------*/
FoamFile
{
    version     2.0;
    format      ascii;
    class       volScalarField;
    location    "0.2";
    object      rho;
}
// * * * * * * * * * * * * * * * * * * * * * * * * * * * * * * * * * * * * * //

dimensions      [1 -3 0 0 0 0 0];


internalField   nonuniform List<scalar> 
20400
(
1.14979
1.14979
1.14978
1.14975
1.14971
1.14964
1.14957
1.14949
1.14941
1.14933
1.14927
1.14922
1.14919
1.14921
1.14931
1.1496
1.15009
1.15082
1.15168
1.15267
1.15366
1.15457
1.1553
1.15586
1.15624
1.1565
1.15667
1.15681
1.15691
1.15701
1.15712
1.15727
1.15744
1.15766
1.15792
1.15821
1.15858
1.15889
1.15922
1.15952
1.15981
1.16008
1.16032
1.16054
1.16074
1.16089
1.16101
1.16108
1.1611
1.16105
1.16093
1.16075
1.16047
1.16014
1.15974
1.15935
1.15889
1.15841
1.15789
1.15735
1.15682
1.15633
1.15587
1.15546
1.1551
1.15478
1.15453
1.1543
1.15412
1.15396
1.15383
1.15371
1.1536
1.15351
1.15343
1.15335
1.15328
1.15322
1.15316
1.1531
1.15304
1.15299
1.15294
1.15289
1.15284
1.15279
1.15275
1.1527
1.15266
1.15262
1.15258
1.15254
1.1525
1.15247
1.15243
1.1524
1.15237
1.15234
1.15231
1.15228
1.15226
1.15223
1.15221
1.15219
1.15217
1.15215
1.15213
1.15212
1.15211
1.1521
1.15209
1.15208
1.15208
1.15207
1.15207
1.15208
1.15208
1.15209
1.1521
1.15211
1.15212
1.15214
1.15215
1.15217
1.1522
1.15222
1.15225
1.15228
1.15231
1.15234
1.15237
1.15241
1.15245
1.15248
1.15253
1.15257
1.15261
1.15266
1.1527
1.15275
1.1528
1.15285
1.1529
1.15295
1.153
1.15305
1.15311
1.15316
1.15321
1.15327
1.15332
1.15337
1.15343
1.15348
1.15353
1.15358
1.15363
1.15368
1.15373
1.15378
1.15382
1.15387
1.15391
1.15395
1.15399
1.15403
1.15407
1.15411
1.15414
1.15417
1.1542
1.15423
1.15426
1.15428
1.1543
1.15432
1.15434
1.15435
1.15437
1.15438
1.15439
1.15439
1.15439
1.1544
1.15439
1.15439
1.15439
1.15438
1.15437
1.15436
1.15435
1.15433
1.15431
1.15429
1.15427
1.15425
1.15423
1.1542
1.15417
1.15415
1.15412
1.15409
1.15405
1.15402
1.15399
1.15396
1.15392
1.15389
1.15386
1.15382
1.15379
1.15376
1.15372
1.15369
1.15366
1.15363
1.1536
1.15357
1.15354
1.15352
1.1535
1.15347
1.15345
1.15344
1.15342
1.15341
1.1534
1.15339
1.15339
1.15339
1.15339
1.1534
1.1534
1.15342
1.15343
1.15345
1.15348
1.1535
1.15354
1.15357
1.15362
1.15366
1.15371
1.15377
1.15383
1.15389
1.15396
1.15403
1.15411
1.1542
1.15429
1.15438
1.15448
1.15459
1.1547
1.15482
1.15494
1.15507
1.1552
1.15534
1.15548
1.15563
1.15579
1.15595
1.15611
1.15629
1.15646
1.15664
1.15683
1.15703
1.15722
1.15743
1.15764
1.15785
1.15807
1.15829
1.15852
1.15876
1.159
1.15924
1.15949
1.15974
1.16
1.16027
1.16053
1.1608
1.16108
1.16136
1.16165
1.16193
1.16223
1.16252
1.16282
1.16313
1.16344
1.16375
1.16406
1.16438
1.1647
1.16502
1.16535
1.16568
1.16601
1.16635
1.16669
1.16703
1.16737
1.16771
1.16806
1.16841
1.16876
1.16911
1.16947
1.16983
1.17018
1.17054
1.1709
1.17126
1.17163
1.17199
1.17235
1.17272
1.17308
1.17345
1.17381
1.17418
1.17455
1.17491
1.17528
1.17565
1.17601
1.17638
1.17674
1.17711
1.17747
1.17784
1.1782
1.17856
1.17892
1.17928
1.17964
1.18
1.18036
1.18071
1.18106
1.18142
1.18177
1.18211
1.18246
1.1828
1.18315
1.18349
1.18383
1.18416
1.1845
1.18483
1.18516
1.18549
1.18581
1.18613
1.18645
1.18677
1.18708
1.18739
1.1877
1.18801
1.18831
1.18861
1.18891
1.1892
1.18949
1.18978
1.19006
1.19034
1.19062
1.1909
1.19117
1.19143
1.1917
1.19196
1.19222
1.19247
1.19272
1.19297
1.19322
1.19346
1.19369
1.19393
1.19416
1.19438
1.19461
1.19483
1.19504
1.19526
1.19547
1.19567
1.19587
1.19607
1.19627
1.19646
1.19665
1.19683
1.19701
1.19719
1.19737
1.19754
1.1977
1.19787
1.19803
1.19819
1.19834
1.19849
1.19864
1.19878
1.19892
1.19906
1.1992
1.19933
1.19946
1.19958
1.19971
1.19983
1.19994
1.20006
1.20017
1.20027
1.20038
1.20048
1.20058
1.20068
1.20077
1.20086
1.20095
1.20104
1.20112
1.2012
1.20128
1.20136
1.20143
1.2015
1.20157
1.20164
1.2017
1.20176
1.20182
1.20188
1.20194
1.20199
1.20204
1.20209
1.20214
1.20219
1.20224
1.20228
1.20232
1.20236
1.2024
1.20244
1.20247
1.2025
1.20254
1.20257
1.2026
1.20263
1.20265
1.20268
1.2027
1.20273
1.20275
1.20277
1.20279
1.20281
1.20283
1.20285
1.20287
1.20288
1.2029
1.20291
1.20293
1.20294
1.20296
1.20297
1.20298
1.20299
1.203
1.20301
1.20302
1.20303
1.20304
1.20305
1.20306
1.20307
1.20308
1.20309
1.2031
1.20311
1.20313
1.20316
1.20321
1.20328
1.14978
1.14978
1.14977
1.14975
1.14971
1.14967
1.14963
1.14956
1.1495
1.1494
1.14935
1.1493
1.14929
1.14935
1.14957
1.15007
1.15094
1.15204
1.15321
1.15432
1.15539
1.15633
1.15708
1.1577
1.15823
1.15871
1.15916
1.15961
1.16003
1.16049
1.161
1.16152
1.16209
1.16265
1.16322
1.16372
1.16421
1.16465
1.16507
1.16548
1.16585
1.16622
1.16656
1.16689
1.1672
1.16749
1.16774
1.16796
1.16812
1.16821
1.16822
1.16813
1.16794
1.16764
1.1673
1.16681
1.16618
1.1654
1.16448
1.16347
1.16239
1.16129
1.16019
1.15915
1.15818
1.15731
1.15656
1.15592
1.15539
1.15496
1.15462
1.15434
1.15412
1.15394
1.1538
1.15367
1.15357
1.15349
1.15341
1.15334
1.15328
1.15322
1.15317
1.15311
1.15306
1.15301
1.15297
1.15292
1.15288
1.15284
1.1528
1.15276
1.15272
1.15268
1.15265
1.15261
1.15258
1.15255
1.15252
1.15249
1.15246
1.15244
1.15241
1.15239
1.15237
1.15235
1.15234
1.15232
1.15231
1.1523
1.15229
1.15228
1.15228
1.15227
1.15227
1.15227
1.15228
1.15228
1.15229
1.1523
1.15231
1.15233
1.15234
1.15236
1.15238
1.15241
1.15243
1.15246
1.15249
1.15252
1.15256
1.15259
1.15263
1.15267
1.15271
1.15275
1.1528
1.15284
1.15289
1.15294
1.15299
1.15304
1.15309
1.15314
1.15319
1.15325
1.1533
1.15335
1.15341
1.15346
1.15352
1.15357
1.15362
1.15368
1.15373
1.15378
1.15383
1.15389
1.15394
1.15398
1.15403
1.15408
1.15413
1.15417
1.15421
1.15425
1.15429
1.15433
1.15437
1.1544
1.15443
1.15446
1.15449
1.15451
1.15454
1.15456
1.15458
1.1546
1.15461
1.15462
1.15463
1.15464
1.15464
1.15465
1.15465
1.15465
1.15464
1.15464
1.15463
1.15462
1.15461
1.15459
1.15458
1.15456
1.15454
1.15452
1.15449
1.15447
1.15444
1.15441
1.15439
1.15436
1.15433
1.15429
1.15426
1.15423
1.1542
1.15416
1.15413
1.1541
1.15406
1.15403
1.154
1.15397
1.15393
1.1539
1.15387
1.15385
1.15382
1.15379
1.15377
1.15375
1.15373
1.15371
1.1537
1.15369
1.15368
1.15367
1.15367
1.15366
1.15367
1.15367
1.15368
1.15369
1.15371
1.15373
1.15375
1.15378
1.15381
1.15385
1.15389
1.15394
1.15399
1.15404
1.1541
1.15417
1.15424
1.15431
1.15439
1.15448
1.15457
1.15466
1.15476
1.15487
1.15498
1.1551
1.15522
1.15535
1.15548
1.15562
1.15576
1.15591
1.15607
1.15623
1.1564
1.15657
1.15675
1.15693
1.15712
1.15731
1.15751
1.15771
1.15792
1.15814
1.15836
1.15858
1.15881
1.15905
1.15929
1.15953
1.15978
1.16004
1.1603
1.16056
1.16083
1.1611
1.16138
1.16166
1.16194
1.16223
1.16252
1.16282
1.16312
1.16343
1.16374
1.16405
1.16436
1.16468
1.165
1.16533
1.16566
1.16599
1.16632
1.16666
1.16699
1.16733
1.16768
1.16802
1.16837
1.16872
1.16907
1.16943
1.16978
1.17014
1.1705
1.17086
1.17122
1.17158
1.17194
1.1723
1.17267
1.17303
1.1734
1.17377
1.17413
1.1745
1.17487
1.17524
1.1756
1.17597
1.17634
1.1767
1.17707
1.17744
1.1778
1.17817
1.17853
1.17889
1.17925
1.17962
1.17998
1.18033
1.18069
1.18105
1.1814
1.18175
1.1821
1.18245
1.1828
1.18315
1.18349
1.18383
1.18417
1.18451
1.18484
1.18518
1.18551
1.18583
1.18616
1.18648
1.1868
1.18712
1.18744
1.18775
1.18806
1.18836
1.18867
1.18897
1.18926
1.18956
1.18985
1.19014
1.19042
1.19071
1.19098
1.19126
1.19153
1.1918
1.19207
1.19233
1.19259
1.19284
1.19309
1.19334
1.19359
1.19383
1.19407
1.1943
1.19453
1.19476
1.19499
1.19521
1.19542
1.19564
1.19585
1.19605
1.19626
1.19646
1.19665
1.19684
1.19703
1.19722
1.1974
1.19758
1.19775
1.19793
1.19809
1.19826
1.19842
1.19858
1.19873
1.19889
1.19903
1.19918
1.19932
1.19946
1.19959
1.19973
1.19986
1.19998
1.20011
1.20023
1.20034
1.20046
1.20057
1.20068
1.20078
1.20088
1.20098
1.20108
1.20118
1.20127
1.20136
1.20144
1.20153
1.20161
1.20169
1.20176
1.20184
1.20191
1.20198
1.20205
1.20211
1.20218
1.20224
1.2023
1.20235
1.20241
1.20246
1.20251
1.20256
1.20261
1.20265
1.2027
1.20274
1.20278
1.20282
1.20286
1.20289
1.20293
1.20296
1.20299
1.20302
1.20305
1.20308
1.2031
1.20313
1.20315
1.20318
1.2032
1.20322
1.20324
1.20326
1.20328
1.20329
1.20331
1.20333
1.20334
1.20336
1.20337
1.20338
1.2034
1.20341
1.20342
1.20343
1.20344
1.20345
1.20346
1.20347
1.20348
1.20349
1.2035
1.20351
1.20352
1.20353
1.20354
1.20355
1.20357
1.20361
1.20367
1.14978
1.14979
1.14978
1.14978
1.14977
1.14975
1.14972
1.14968
1.14963
1.14959
1.14953
1.14949
1.14949
1.14961
1.15005
1.1511
1.15273
1.15434
1.15572
1.15698
1.15811
1.15909
1.15991
1.16061
1.16122
1.16179
1.16233
1.16287
1.16336
1.16383
1.16421
1.16459
1.16497
1.16536
1.16578
1.16622
1.16671
1.16721
1.16774
1.16828
1.16883
1.16937
1.16992
1.17046
1.171
1.17152
1.17201
1.17248
1.17292
1.17331
1.17364
1.1739
1.17408
1.17414
1.1741
1.17394
1.17364
1.17318
1.17254
1.17172
1.1707
1.16949
1.16811
1.16661
1.16502
1.1634
1.16183
1.16037
1.15906
1.15792
1.15698
1.15621
1.15559
1.1551
1.15472
1.15443
1.1542
1.15402
1.15388
1.15377
1.15368
1.1536
1.15354
1.15348
1.15342
1.15337
1.15332
1.15328
1.15323
1.15319
1.15314
1.1531
1.15306
1.15303
1.15299
1.15295
1.15292
1.15289
1.15286
1.15283
1.1528
1.15277
1.15275
1.15272
1.1527
1.15268
1.15266
1.15265
1.15263
1.15262
1.15261
1.1526
1.1526
1.15259
1.15259
1.15259
1.15259
1.1526
1.1526
1.15261
1.15262
1.15264
1.15265
1.15267
1.15269
1.15271
1.15274
1.15277
1.1528
1.15283
1.15286
1.1529
1.15293
1.15297
1.15301
1.15306
1.1531
1.15315
1.15319
1.15324
1.15329
1.15334
1.15339
1.15344
1.1535
1.15355
1.1536
1.15366
1.15371
1.15377
1.15382
1.15388
1.15394
1.15399
1.15404
1.1541
1.15415
1.15421
1.15426
1.15431
1.15436
1.15441
1.15446
1.1545
1.15455
1.15459
1.15463
1.15467
1.15471
1.15475
1.15478
1.15481
1.15484
1.15487
1.1549
1.15492
1.15495
1.15496
1.15498
1.155
1.15501
1.15502
1.15503
1.15503
1.15504
1.15504
1.15504
1.15503
1.15503
1.15502
1.15501
1.155
1.15498
1.15497
1.15495
1.15493
1.15491
1.15488
1.15486
1.15483
1.15481
1.15478
1.15475
1.15472
1.15469
1.15466
1.15463
1.15459
1.15456
1.15453
1.1545
1.15446
1.15443
1.1544
1.15437
1.15434
1.15431
1.15429
1.15426
1.15423
1.15421
1.15419
1.15417
1.15415
1.15414
1.15413
1.15412
1.15411
1.15411
1.15411
1.15411
1.15412
1.15413
1.15414
1.15415
1.15418
1.1542
1.15423
1.15426
1.1543
1.15434
1.15439
1.15444
1.15449
1.15455
1.15462
1.15469
1.15476
1.15484
1.15493
1.15502
1.15512
1.15522
1.15533
1.15544
1.15556
1.15568
1.15581
1.15594
1.15608
1.15623
1.15638
1.15654
1.1567
1.15686
1.15704
1.15722
1.1574
1.15759
1.15778
1.15798
1.15819
1.1584
1.15861
1.15884
1.15906
1.15929
1.15953
1.15977
1.16002
1.16027
1.16052
1.16078
1.16105
1.16132
1.16159
1.16187
1.16215
1.16244
1.16273
1.16302
1.16332
1.16362
1.16393
1.16424
1.16455
1.16487
1.16519
1.16551
1.16584
1.16617
1.1665
1.16683
1.16717
1.16751
1.16785
1.1682
1.16854
1.16889
1.16924
1.16959
1.16995
1.1703
1.17066
1.17102
1.17138
1.17174
1.17211
1.17247
1.17283
1.1732
1.17357
1.17393
1.1743
1.17467
1.17504
1.1754
1.17577
1.17614
1.17651
1.17688
1.17724
1.17761
1.17798
1.17834
1.17871
1.17907
1.17944
1.1798
1.18016
1.18052
1.18088
1.18124
1.18159
1.18195
1.1823
1.18265
1.183
1.18335
1.1837
1.18404
1.18438
1.18472
1.18506
1.1854
1.18573
1.18606
1.18639
1.18672
1.18704
1.18736
1.18768
1.18799
1.18831
1.18862
1.18892
1.18923
1.18953
1.18983
1.19012
1.19041
1.1907
1.19099
1.19127
1.19155
1.19183
1.1921
1.19237
1.19263
1.1929
1.19316
1.19341
1.19367
1.19391
1.19416
1.1944
1.19464
1.19488
1.19511
1.19534
1.19556
1.19578
1.196
1.19621
1.19642
1.19663
1.19683
1.19703
1.19723
1.19742
1.19761
1.1978
1.19798
1.19816
1.19834
1.19851
1.19868
1.19884
1.199
1.19916
1.19932
1.19947
1.19962
1.19977
1.19991
1.20005
1.20018
1.20032
1.20045
1.20057
1.2007
1.20082
1.20093
1.20105
1.20116
1.20127
1.20137
1.20148
1.20158
1.20168
1.20177
1.20186
1.20195
1.20204
1.20213
1.20221
1.20229
1.20236
1.20244
1.20251
1.20258
1.20265
1.20272
1.20278
1.20284
1.2029
1.20296
1.20301
1.20307
1.20312
1.20317
1.20322
1.20326
1.20331
1.20335
1.20339
1.20343
1.20347
1.2035
1.20354
1.20357
1.2036
1.20363
1.20366
1.20369
1.20372
1.20375
1.20377
1.20379
1.20382
1.20384
1.20386
1.20388
1.2039
1.20391
1.20393
1.20395
1.20396
1.20398
1.20399
1.20401
1.20402
1.20403
1.20404
1.20406
1.20407
1.20408
1.20409
1.2041
1.20411
1.20412
1.20413
1.20414
1.20415
1.20416
1.20417
1.20419
1.2042
1.20423
1.20428
1.14978
1.1498
1.14983
1.14988
1.14995
1.15002
1.15007
1.15005
1.14997
1.14986
1.14977
1.14972
1.1498
1.15016
1.1512
1.15315
1.15536
1.15715
1.15857
1.1598
1.16083
1.16163
1.16223
1.16268
1.16296
1.16311
1.16315
1.16316
1.16317
1.16322
1.1634
1.16357
1.16384
1.16414
1.16463
1.16516
1.16579
1.16644
1.16713
1.16782
1.16851
1.16918
1.16984
1.17048
1.17112
1.17174
1.17236
1.17297
1.17357
1.17413
1.17466
1.17515
1.1756
1.17601
1.17634
1.17656
1.17669
1.1767
1.17658
1.17632
1.17589
1.17528
1.17446
1.1734
1.1721
1.17058
1.16886
1.16702
1.16514
1.1633
1.16157
1.16003
1.1587
1.15759
1.15668
1.15596
1.1554
1.15497
1.15464
1.15439
1.1542
1.15406
1.15395
1.15387
1.15379
1.15373
1.15368
1.15363
1.15358
1.15354
1.15349
1.15345
1.15341
1.15337
1.15333
1.1533
1.15326
1.15323
1.15319
1.15316
1.15313
1.15311
1.15308
1.15305
1.15303
1.15301
1.15299
1.15297
1.15296
1.15294
1.15293
1.15292
1.15292
1.15291
1.15291
1.15291
1.15291
1.15291
1.15292
1.15292
1.15293
1.15295
1.15296
1.15298
1.153
1.15302
1.15304
1.15307
1.1531
1.15313
1.15316
1.1532
1.15323
1.15327
1.15331
1.15335
1.1534
1.15344
1.15349
1.15354
1.15359
1.15364
1.15369
1.15374
1.15379
1.15385
1.1539
1.15396
1.15401
1.15407
1.15412
1.15418
1.15423
1.15429
1.15435
1.1544
1.15445
1.15451
1.15456
1.15461
1.15467
1.15472
1.15477
1.15481
1.15486
1.15491
1.15495
1.15499
1.15503
1.15507
1.15511
1.15514
1.15517
1.15521
1.15523
1.15526
1.15528
1.15531
1.15533
1.15534
1.15536
1.15537
1.15538
1.15539
1.1554
1.1554
1.1554
1.1554
1.1554
1.15539
1.15538
1.15537
1.15536
1.15535
1.15533
1.15531
1.15529
1.15527
1.15525
1.15523
1.1552
1.15518
1.15515
1.15512
1.15509
1.15506
1.15503
1.155
1.15497
1.15494
1.15491
1.15487
1.15484
1.15481
1.15478
1.15475
1.15473
1.1547
1.15468
1.15465
1.15463
1.15461
1.15459
1.15457
1.15456
1.15455
1.15454
1.15453
1.15453
1.15453
1.15453
1.15454
1.15455
1.15456
1.15458
1.1546
1.15462
1.15465
1.15468
1.15472
1.15476
1.15481
1.15486
1.15492
1.15498
1.15504
1.15511
1.15519
1.15527
1.15536
1.15545
1.15554
1.15565
1.15575
1.15587
1.15598
1.15611
1.15624
1.15637
1.15651
1.15666
1.15681
1.15697
1.15713
1.1573
1.15747
1.15765
1.15783
1.15802
1.15822
1.15842
1.15863
1.15884
1.15905
1.15928
1.1595
1.15973
1.15997
1.16021
1.16046
1.16071
1.16097
1.16123
1.16149
1.16176
1.16204
1.16232
1.1626
1.16289
1.16318
1.16348
1.16378
1.16408
1.16438
1.1647
1.16501
1.16533
1.16565
1.16597
1.1663
1.16663
1.16696
1.16729
1.16763
1.16797
1.16832
1.16866
1.16901
1.16936
1.16971
1.17006
1.17042
1.17077
1.17113
1.17149
1.17185
1.17222
1.17258
1.17294
1.17331
1.17368
1.17404
1.17441
1.17478
1.17515
1.17551
1.17588
1.17625
1.17662
1.17699
1.17736
1.17773
1.17809
1.17846
1.17883
1.17919
1.17956
1.17992
1.18028
1.18065
1.18101
1.18137
1.18173
1.18208
1.18244
1.18279
1.18314
1.18349
1.18384
1.18419
1.18453
1.18488
1.18522
1.18555
1.18589
1.18622
1.18656
1.18688
1.18721
1.18753
1.18786
1.18817
1.18849
1.1888
1.18911
1.18942
1.18973
1.19003
1.19033
1.19062
1.19091
1.1912
1.19149
1.19177
1.19205
1.19233
1.1926
1.19287
1.19314
1.1934
1.19366
1.19392
1.19417
1.19442
1.19467
1.19491
1.19515
1.19538
1.19562
1.19584
1.19607
1.19629
1.19651
1.19672
1.19694
1.19714
1.19735
1.19755
1.19774
1.19794
1.19813
1.19831
1.1985
1.19868
1.19885
1.19903
1.1992
1.19936
1.19952
1.19968
1.19984
1.19999
1.20014
1.20029
1.20043
1.20057
1.20071
1.20084
1.20097
1.2011
1.20122
1.20134
1.20146
1.20158
1.20169
1.2018
1.2019
1.20201
1.20211
1.20221
1.2023
1.2024
1.20249
1.20257
1.20266
1.20274
1.20282
1.2029
1.20298
1.20305
1.20312
1.20319
1.20326
1.20332
1.20338
1.20344
1.2035
1.20356
1.20361
1.20366
1.20371
1.20376
1.20381
1.20385
1.2039
1.20394
1.20398
1.20402
1.20405
1.20409
1.20412
1.20416
1.20419
1.20422
1.20425
1.20427
1.2043
1.20433
1.20435
1.20437
1.20439
1.20442
1.20444
1.20445
1.20447
1.20449
1.20451
1.20452
1.20454
1.20455
1.20457
1.20458
1.20459
1.20461
1.20462
1.20463
1.20464
1.20465
1.20466
1.20467
1.20468
1.2047
1.20471
1.20472
1.20473
1.20475
1.20476
1.20478
1.2048
1.20483
1.1498
1.14984
1.14993
1.15009
1.15031
1.15055
1.15071
1.15073
1.1506
1.15043
1.15026
1.15021
1.15039
1.15119
1.15307
1.1557
1.15808
1.1598
1.16106
1.16197
1.16254
1.16281
1.1628
1.16262
1.16237
1.16206
1.16157
1.16105
1.16051
1.16002
1.15968
1.15952
1.15964
1.15992
1.16035
1.16094
1.16163
1.1624
1.16324
1.1641
1.165
1.1659
1.16682
1.16773
1.16865
1.16958
1.1705
1.17143
1.17234
1.17323
1.17407
1.17484
1.1755
1.17605
1.17651
1.17689
1.17719
1.17744
1.1776
1.17768
1.17765
1.17752
1.17725
1.17682
1.17619
1.17532
1.17419
1.17278
1.17113
1.16927
1.1673
1.16529
1.16335
1.16156
1.15997
1.15862
1.1575
1.1566
1.15589
1.15535
1.15494
1.15463
1.15441
1.15424
1.15412
1.15402
1.15395
1.15389
1.15384
1.15379
1.15374
1.1537
1.15366
1.15362
1.15358
1.15355
1.15351
1.15347
1.15344
1.15341
1.15338
1.15335
1.15332
1.1533
1.15327
1.15325
1.15323
1.15321
1.15319
1.15318
1.15317
1.15316
1.15315
1.15314
1.15314
1.15313
1.15313
1.15314
1.15314
1.15315
1.15316
1.15317
1.15318
1.1532
1.15321
1.15323
1.15326
1.15328
1.15331
1.15334
1.15337
1.1534
1.15344
1.15348
1.15352
1.15356
1.1536
1.15364
1.15369
1.15374
1.15379
1.15384
1.15389
1.15394
1.15399
1.15404
1.1541
1.15415
1.15421
1.15426
1.15432
1.15437
1.15443
1.15449
1.15454
1.1546
1.15465
1.15471
1.15476
1.15481
1.15486
1.15491
1.15496
1.15501
1.15506
1.15511
1.15515
1.15519
1.15523
1.15527
1.15531
1.15535
1.15538
1.15541
1.15544
1.15547
1.1555
1.15552
1.15554
1.15556
1.15558
1.15559
1.1556
1.15561
1.15562
1.15563
1.15563
1.15563
1.15563
1.15562
1.15562
1.15561
1.1556
1.15559
1.15557
1.15556
1.15554
1.15552
1.1555
1.15548
1.15545
1.15543
1.1554
1.15537
1.15535
1.15532
1.15529
1.15526
1.15523
1.1552
1.15517
1.15514
1.15511
1.15508
1.15505
1.15502
1.15499
1.15497
1.15494
1.15492
1.1549
1.15488
1.15486
1.15484
1.15483
1.15482
1.15481
1.1548
1.1548
1.1548
1.1548
1.15481
1.15482
1.15483
1.15485
1.15487
1.1549
1.15492
1.15496
1.15499
1.15504
1.15508
1.15513
1.15519
1.15525
1.15532
1.15539
1.15546
1.15554
1.15563
1.15572
1.15582
1.15592
1.15603
1.15614
1.15626
1.15638
1.15651
1.15665
1.15679
1.15693
1.15708
1.15724
1.1574
1.15757
1.15775
1.15792
1.15811
1.1583
1.1585
1.1587
1.1589
1.15911
1.15933
1.15955
1.15978
1.16001
1.16025
1.16049
1.16074
1.16099
1.16125
1.16151
1.16178
1.16205
1.16232
1.1626
1.16289
1.16317
1.16347
1.16376
1.16406
1.16436
1.16467
1.16498
1.1653
1.16561
1.16594
1.16626
1.16659
1.16692
1.16725
1.16759
1.16793
1.16827
1.16861
1.16896
1.1693
1.16965
1.17001
1.17036
1.17072
1.17107
1.17143
1.17179
1.17215
1.17252
1.17288
1.17325
1.17361
1.17398
1.17434
1.17471
1.17508
1.17545
1.17582
1.17619
1.17656
1.17693
1.1773
1.17766
1.17803
1.1784
1.17877
1.17914
1.1795
1.17987
1.18023
1.18059
1.18096
1.18132
1.18168
1.18204
1.18239
1.18275
1.1831
1.18346
1.18381
1.18416
1.1845
1.18485
1.18519
1.18553
1.18587
1.18621
1.18654
1.18687
1.1872
1.18753
1.18785
1.18817
1.18849
1.18881
1.18912
1.18943
1.18974
1.19005
1.19035
1.19065
1.19094
1.19124
1.19153
1.19181
1.1921
1.19238
1.19265
1.19293
1.1932
1.19346
1.19373
1.19399
1.19424
1.1945
1.19475
1.19499
1.19524
1.19548
1.19571
1.19595
1.19617
1.1964
1.19662
1.19684
1.19706
1.19727
1.19748
1.19768
1.19788
1.19808
1.19827
1.19846
1.19865
1.19883
1.19901
1.19919
1.19936
1.19953
1.1997
1.19986
1.20002
1.20018
1.20033
1.20048
1.20063
1.20077
1.20091
1.20105
1.20118
1.20131
1.20144
1.20157
1.20169
1.20181
1.20192
1.20203
1.20214
1.20225
1.20236
1.20246
1.20256
1.20265
1.20274
1.20284
1.20292
1.20301
1.20309
1.20317
1.20325
1.20333
1.2034
1.20347
1.20354
1.20361
1.20367
1.20374
1.2038
1.20386
1.20391
1.20397
1.20402
1.20407
1.20412
1.20417
1.20421
1.20426
1.2043
1.20434
1.20438
1.20442
1.20445
1.20449
1.20452
1.20455
1.20458
1.20461
1.20464
1.20467
1.20469
1.20472
1.20474
1.20476
1.20478
1.2048
1.20482
1.20484
1.20486
1.20488
1.2049
1.20491
1.20493
1.20494
1.20496
1.20497
1.20498
1.20499
1.20501
1.20502
1.20503
1.20504
1.20505
1.20506
1.20507
1.20508
1.2051
1.20511
1.20512
1.20513
1.20515
1.20517
1.20519
1.14984
1.14991
1.15008
1.15042
1.15089
1.15138
1.1517
1.15175
1.15155
1.15125
1.15099
1.15097
1.15147
1.15296
1.15555
1.15834
1.16044
1.16178
1.16255
1.16284
1.16278
1.1625
1.16216
1.16151
1.16066
1.15966
1.15861
1.15765
1.15688
1.15642
1.15625
1.15631
1.15659
1.15697
1.15747
1.15805
1.1587
1.15942
1.1602
1.16103
1.16192
1.16285
1.16382
1.16483
1.16587
1.16696
1.16807
1.16922
1.17039
1.17154
1.17265
1.17368
1.1746
1.1754
1.17608
1.17664
1.17708
1.17742
1.17768
1.17787
1.178
1.17805
1.17804
1.17794
1.17774
1.17739
1.17686
1.1761
1.17507
1.17375
1.17215
1.17032
1.16832
1.16625
1.16422
1.16232
1.1606
1.15912
1.15788
1.15688
1.15609
1.15548
1.15503
1.1547
1.15446
1.15428
1.15416
1.15407
1.154
1.15394
1.15389
1.15385
1.15381
1.15377
1.15373
1.15369
1.15366
1.15362
1.15359
1.15356
1.15353
1.1535
1.15347
1.15344
1.15342
1.15339
1.15337
1.15335
1.15334
1.15332
1.15331
1.15329
1.15329
1.15328
1.15327
1.15327
1.15327
1.15327
1.15327
1.15328
1.15329
1.1533
1.15331
1.15332
1.15334
1.15336
1.15338
1.1534
1.15343
1.15346
1.15349
1.15352
1.15356
1.15359
1.15363
1.15367
1.15371
1.15376
1.1538
1.15385
1.1539
1.15395
1.154
1.15405
1.1541
1.15415
1.1542
1.15426
1.15431
1.15437
1.15442
1.15448
1.15453
1.15459
1.15464
1.1547
1.15475
1.15481
1.15486
1.15491
1.15496
1.15501
1.15506
1.15511
1.15516
1.15521
1.15525
1.15529
1.15533
1.15537
1.15541
1.15545
1.15548
1.15552
1.15555
1.15557
1.1556
1.15563
1.15565
1.15567
1.15568
1.1557
1.15571
1.15572
1.15573
1.15574
1.15574
1.15574
1.15574
1.15574
1.15573
1.15573
1.15572
1.15571
1.15569
1.15568
1.15566
1.15564
1.15562
1.1556
1.15558
1.15555
1.15553
1.1555
1.15547
1.15545
1.15542
1.15539
1.15536
1.15533
1.1553
1.15527
1.15524
1.15521
1.15518
1.15516
1.15513
1.1551
1.15508
1.15506
1.15503
1.15501
1.155
1.15498
1.15497
1.15496
1.15495
1.15494
1.15494
1.15494
1.15494
1.15495
1.15496
1.15497
1.15499
1.15501
1.15503
1.15506
1.1551
1.15513
1.15518
1.15522
1.15527
1.15533
1.15539
1.15545
1.15552
1.1556
1.15568
1.15577
1.15586
1.15595
1.15606
1.15616
1.15628
1.15639
1.15652
1.15665
1.15678
1.15692
1.15707
1.15722
1.15738
1.15754
1.15771
1.15788
1.15806
1.15825
1.15844
1.15863
1.15883
1.15904
1.15925
1.15947
1.15969
1.15992
1.16015
1.16039
1.16063
1.16088
1.16113
1.16139
1.16165
1.16192
1.16219
1.16246
1.16274
1.16303
1.16331
1.16361
1.1639
1.1642
1.16451
1.16481
1.16512
1.16544
1.16576
1.16608
1.1664
1.16673
1.16706
1.16739
1.16773
1.16807
1.16841
1.16875
1.1691
1.16945
1.1698
1.17015
1.17051
1.17086
1.17122
1.17158
1.17194
1.1723
1.17266
1.17303
1.17339
1.17376
1.17413
1.17449
1.17486
1.17523
1.1756
1.17597
1.17634
1.17671
1.17708
1.17745
1.17782
1.17818
1.17855
1.17892
1.17929
1.17965
1.18002
1.18038
1.18075
1.18111
1.18147
1.18183
1.18219
1.18255
1.1829
1.18326
1.18361
1.18396
1.18431
1.18466
1.185
1.18535
1.18569
1.18603
1.18636
1.1867
1.18703
1.18736
1.18769
1.18801
1.18833
1.18865
1.18897
1.18928
1.18959
1.1899
1.19021
1.19051
1.19081
1.1911
1.1914
1.19169
1.19197
1.19226
1.19254
1.19281
1.19309
1.19336
1.19363
1.19389
1.19415
1.19441
1.19466
1.19491
1.19516
1.1954
1.19564
1.19588
1.19611
1.19634
1.19657
1.19679
1.19701
1.19722
1.19743
1.19764
1.19785
1.19805
1.19825
1.19844
1.19863
1.19882
1.199
1.19918
1.19936
1.19953
1.1997
1.19987
1.20003
1.20019
1.20035
1.2005
1.20065
1.2008
1.20094
1.20108
1.20122
1.20136
1.20149
1.20162
1.20174
1.20186
1.20198
1.2021
1.20221
1.20232
1.20243
1.20253
1.20263
1.20273
1.20283
1.20292
1.20301
1.2031
1.20319
1.20327
1.20335
1.20343
1.20351
1.20358
1.20365
1.20372
1.20379
1.20385
1.20392
1.20398
1.20404
1.20409
1.20415
1.2042
1.20425
1.2043
1.20435
1.2044
1.20444
1.20448
1.20452
1.20456
1.2046
1.20464
1.20467
1.20471
1.20474
1.20477
1.2048
1.20483
1.20485
1.20488
1.20491
1.20493
1.20495
1.20497
1.20499
1.20501
1.20503
1.20505
1.20507
1.20509
1.2051
1.20512
1.20513
1.20515
1.20516
1.20518
1.20519
1.2052
1.20521
1.20523
1.20524
1.20525
1.20526
1.20527
1.20528
1.20529
1.2053
1.20531
1.20532
1.20534
1.20536
1.20537
1.14989
1.15
1.15028
1.15084
1.15163
1.15242
1.15292
1.15301
1.15277
1.15238
1.15211
1.15224
1.1532
1.15529
1.15807
1.1605
1.16204
1.16279
1.16293
1.1627
1.16233
1.16164
1.16065
1.15933
1.15792
1.15657
1.15545
1.15464
1.15414
1.15395
1.154
1.15424
1.15465
1.15517
1.15578
1.15643
1.1571
1.15777
1.15845
1.15917
1.15993
1.16075
1.16165
1.16264
1.16371
1.16487
1.16612
1.16744
1.1688
1.17018
1.17151
1.17276
1.17388
1.17484
1.17565
1.17631
1.17683
1.17724
1.17755
1.1778
1.17798
1.17811
1.17818
1.17818
1.17815
1.17804
1.17784
1.17751
1.177
1.17626
1.17525
1.17394
1.17235
1.17051
1.16849
1.1664
1.16434
1.1624
1.16065
1.15912
1.15785
1.15682
1.15601
1.1554
1.15495
1.15463
1.1544
1.15423
1.15412
1.15404
1.15398
1.15393
1.15388
1.15384
1.15381
1.15377
1.15374
1.1537
1.15367
1.15364
1.15361
1.15358
1.15355
1.15352
1.1535
1.15347
1.15345
1.15343
1.15341
1.1534
1.15338
1.15337
1.15336
1.15335
1.15335
1.15334
1.15334
1.15334
1.15335
1.15335
1.15336
1.15337
1.15338
1.15339
1.15341
1.15343
1.15345
1.15347
1.1535
1.15352
1.15355
1.15358
1.15362
1.15365
1.15369
1.15373
1.15377
1.15382
1.15386
1.15391
1.15395
1.154
1.15405
1.1541
1.15415
1.1542
1.15426
1.15431
1.15437
1.15442
1.15447
1.15453
1.15458
1.15464
1.15469
1.15475
1.1548
1.15486
1.15491
1.15496
1.15501
1.15506
1.15511
1.15516
1.15521
1.15525
1.1553
1.15534
1.15538
1.15542
1.15546
1.15549
1.15553
1.15556
1.15559
1.15562
1.15565
1.15567
1.15569
1.15571
1.15573
1.15575
1.15576
1.15577
1.15578
1.15578
1.15579
1.15579
1.15579
1.15579
1.15578
1.15578
1.15577
1.15576
1.15574
1.15573
1.15571
1.1557
1.15568
1.15566
1.15563
1.15561
1.15558
1.15556
1.15553
1.1555
1.15548
1.15545
1.15542
1.15539
1.15536
1.15533
1.1553
1.15527
1.15524
1.15522
1.15519
1.15516
1.15514
1.15512
1.1551
1.15508
1.15506
1.15504
1.15503
1.15502
1.15501
1.155
1.155
1.155
1.155
1.15501
1.15502
1.15503
1.15505
1.15507
1.1551
1.15512
1.15516
1.15519
1.15524
1.15528
1.15533
1.15539
1.15545
1.15552
1.15559
1.15566
1.15574
1.15583
1.15592
1.15601
1.15612
1.15622
1.15634
1.15645
1.15658
1.15671
1.15684
1.15698
1.15713
1.15728
1.15744
1.1576
1.15777
1.15794
1.15812
1.1583
1.15849
1.15869
1.15889
1.1591
1.15931
1.15953
1.15975
1.15998
1.16021
1.16045
1.16069
1.16094
1.16119
1.16145
1.16171
1.16197
1.16224
1.16252
1.1628
1.16308
1.16337
1.16366
1.16396
1.16426
1.16456
1.16487
1.16518
1.1655
1.16582
1.16614
1.16646
1.16679
1.16712
1.16745
1.16779
1.16813
1.16847
1.16881
1.16916
1.16951
1.16986
1.17021
1.17057
1.17092
1.17128
1.17164
1.172
1.17236
1.17272
1.17309
1.17345
1.17382
1.17419
1.17456
1.17492
1.17529
1.17566
1.17603
1.1764
1.17677
1.17714
1.17751
1.17788
1.17825
1.17861
1.17898
1.17935
1.17972
1.18008
1.18045
1.18081
1.18117
1.18153
1.18189
1.18225
1.18261
1.18297
1.18332
1.18367
1.18402
1.18437
1.18472
1.18507
1.18541
1.18575
1.18609
1.18643
1.18676
1.18709
1.18742
1.18775
1.18807
1.18839
1.18871
1.18903
1.18934
1.18966
1.18996
1.19027
1.19057
1.19087
1.19117
1.19146
1.19175
1.19204
1.19232
1.1926
1.19288
1.19315
1.19342
1.19369
1.19395
1.19421
1.19447
1.19473
1.19498
1.19522
1.19547
1.19571
1.19594
1.19618
1.1964
1.19663
1.19685
1.19707
1.19729
1.1975
1.19771
1.19791
1.19811
1.19831
1.19851
1.1987
1.19888
1.19907
1.19925
1.19943
1.1996
1.19977
1.19994
1.2001
1.20026
1.20042
1.20057
1.20072
1.20087
1.20101
1.20115
1.20129
1.20142
1.20156
1.20168
1.20181
1.20193
1.20205
1.20217
1.20228
1.20239
1.2025
1.2026
1.2027
1.2028
1.2029
1.20299
1.20308
1.20317
1.20326
1.20334
1.20342
1.2035
1.20358
1.20365
1.20372
1.20379
1.20386
1.20393
1.20399
1.20405
1.20411
1.20417
1.20422
1.20428
1.20433
1.20438
1.20442
1.20447
1.20451
1.20456
1.2046
1.20464
1.20468
1.20471
1.20475
1.20478
1.20481
1.20484
1.20487
1.2049
1.20493
1.20496
1.20498
1.205
1.20503
1.20505
1.20507
1.20509
1.20511
1.20513
1.20515
1.20516
1.20518
1.2052
1.20521
1.20523
1.20524
1.20525
1.20527
1.20528
1.20529
1.2053
1.20532
1.20533
1.20534
1.20535
1.20536
1.20537
1.20538
1.20539
1.2054
1.20541
1.20543
1.20545
1.14995
1.15011
1.15049
1.15131
1.15245
1.15356
1.15425
1.1544
1.15419
1.15384
1.15365
1.15408
1.15547
1.15776
1.16021
1.16199
1.16285
1.16298
1.16271
1.16225
1.16139
1.16009
1.15851
1.15684
1.15532
1.15408
1.15318
1.15258
1.15226
1.15221
1.15237
1.15276
1.15336
1.15409
1.15491
1.15573
1.15651
1.15722
1.15787
1.15849
1.15911
1.15977
1.1605
1.16135
1.16232
1.16343
1.16469
1.16608
1.16757
1.16912
1.17065
1.17207
1.17335
1.17446
1.17538
1.1761
1.17667
1.17711
1.17746
1.17772
1.17791
1.17806
1.17816
1.17821
1.17822
1.17819
1.17812
1.17799
1.17776
1.1774
1.17684
1.17605
1.17499
1.17362
1.17198
1.1701
1.16807
1.16597
1.16392
1.16199
1.16025
1.15876
1.15752
1.15652
1.15575
1.15518
1.15477
1.15448
1.15428
1.15414
1.15405
1.15398
1.15392
1.15388
1.15384
1.15381
1.15378
1.15374
1.15371
1.15368
1.15365
1.15362
1.15359
1.15356
1.15354
1.15351
1.15349
1.15347
1.15345
1.15344
1.15342
1.15341
1.1534
1.15339
1.15339
1.15338
1.15338
1.15338
1.15338
1.15339
1.15339
1.1534
1.15341
1.15343
1.15344
1.15346
1.15348
1.1535
1.15353
1.15356
1.15358
1.15362
1.15365
1.15368
1.15372
1.15376
1.1538
1.15384
1.15389
1.15393
1.15398
1.15403
1.15408
1.15413
1.15418
1.15423
1.15428
1.15434
1.15439
1.15444
1.1545
1.15455
1.15461
1.15466
1.15472
1.15477
1.15482
1.15488
1.15493
1.15498
1.15503
1.15508
1.15513
1.15518
1.15522
1.15527
1.15531
1.15536
1.1554
1.15544
1.15548
1.15551
1.15555
1.15558
1.15561
1.15564
1.15566
1.15569
1.15571
1.15573
1.15575
1.15576
1.15578
1.15579
1.1558
1.1558
1.15581
1.15581
1.15581
1.15581
1.1558
1.1558
1.15579
1.15578
1.15577
1.15575
1.15574