/*--------------------------------*- C++ -*----------------------------------*\
| =========                 |                                                 |
| \\      /  F ield         | OpenFOAM: The Open Source CFD Toolbox           |
|  \\    /   O peration     | Version:  v1812                                 |
|   \\  /    A nd           | Web:      www.OpenFOAM.com                      |
|    \\/     M anipulation  |                                                 |
\*---------------------------------------------------------------------------*/
FoamFile
{
    version     2.0;
    format      ascii;
    class       volScalarField;
    location    "0.2";
    object      T;
}
// * * * * * * * * * * * * * * * * * * * * * * * * * * * * * * * * * * * * * //

dimensions      [0 0 0 1 0 0 0];


internalField   nonuniform List<scalar> 
20400
(
287.61
287.611
287.612
287.613
287.613
287.613
287.613
287.613
287.615
287.618
287.621
287.623
287.62
287.604
287.559
287.471
287.321
287.119
286.869
286.593
286.308
286.043
285.814
285.631
285.489
285.384
285.305
285.249
285.212
285.191
285.18
285.177
285.182
285.193
285.206
285.22
285.237
285.261
285.294
285.332
285.378
285.429
285.486
285.549
285.619
285.698
285.786
285.883
285.992
286.111
286.241
286.382
286.532
286.691
286.843
286.998
287.156
287.316
287.477
287.633
287.777
287.907
288.02
288.116
288.196
288.26
288.31
288.347
288.374
288.393
288.407
288.416
288.422
288.425
288.426
288.426
288.425
288.424
288.422
288.421
288.419
288.417
288.415
288.413
288.412
288.41
288.408
288.407
288.405
288.403
288.402
288.4
288.399
288.397
288.396
288.395
288.393
288.392
288.391
288.39
288.389
288.388
288.387
288.386
288.386
288.385
288.385
288.384
288.384
288.384
288.384
288.384
288.385
288.385
288.386
288.387
288.388
288.389
288.39
288.391
288.393
288.394
288.396
288.398
288.401
288.403
288.405
288.408
288.411
288.414
288.417
288.42
288.424
288.428
288.431
288.435
288.439
288.444
288.448
288.453
288.457
288.462
288.467
288.471
288.476
288.481
288.487
288.492
288.497
288.502
288.507
288.513
288.518
288.523
288.528
288.534
288.539
288.544
288.549
288.554
288.56
288.564
288.569
288.574
288.579
288.583
288.588
288.592
288.596
288.6
288.604
288.608
288.612
288.615
288.618
288.621
288.624
288.627
288.629
288.632
288.634
288.636
288.637
288.639
288.64
288.641
288.642
288.643
288.643
288.644
288.644
288.644
288.644
288.643
288.643
288.642
288.641
288.64
288.639
288.638
288.636
288.635
288.633
288.631
288.63
288.628
288.626
288.624
288.622
288.62
288.618
288.616
288.614
288.612
288.61
288.609
288.607
288.606
288.604
288.603
288.602
288.601
288.6
288.6
288.599
288.599
288.599
288.6
288.6
288.601
288.603
288.604
288.606
288.609
288.611
288.614
288.618
288.622
288.626
288.631
288.636
288.641
288.647
288.654
288.661
288.668
288.676
288.684
288.693
288.703
288.713
288.723
288.734
288.746
288.758
288.771
288.784
288.798
288.812
288.827
288.842
288.858
288.875
288.892
288.909
288.928
288.946
288.966
288.985
289.006
289.026
289.048
289.07
289.092
289.115
289.139
289.163
289.187
289.212
289.238
289.263
289.29
289.317
289.344
289.372
289.4
289.429
289.458
289.487
289.517
289.547
289.578
289.609
289.64
289.672
289.704
289.737
289.769
289.802
289.836
289.869
289.903
289.937
289.972
290.007
290.042
290.077
290.112
290.148
290.183
290.219
290.255
290.291
290.328
290.364
290.401
290.438
290.475
290.511
290.548
290.586
290.623
290.66
290.697
290.734
290.771
290.809
290.846
290.883
290.92
290.957
290.995
291.032
291.069
291.106
291.142
291.179
291.216
291.252
291.289
291.325
291.361
291.397
291.433
291.469
291.504
291.539
291.575
291.61
291.644
291.679
291.713
291.747
291.781
291.815
291.848
291.881
291.914
291.947
291.979
292.011
292.043
292.075
292.106
292.137
292.168
292.198
292.228
292.258
292.288
292.317
292.346
292.374
292.403
292.431
292.458
292.486
292.512
292.539
292.565
292.591
292.617
292.642
292.667
292.692
292.716
292.74
292.763
292.786
292.809
292.832
292.854
292.876
292.897
292.918
292.939
292.959
292.979
292.999
293.018
293.037
293.056
293.074
293.092
293.11
293.127
293.144
293.161
293.177
293.193
293.209
293.224
293.239
293.254
293.269
293.283
293.296
293.31
293.323
293.336
293.348
293.361
293.373
293.384
293.396
293.407
293.418
293.428
293.439
293.449
293.458
293.468
293.477
293.486
293.495
293.504
293.512
293.52
293.528
293.536
293.543
293.551
293.558
293.564
293.571
293.577
293.584
293.59
293.596
293.601
293.607
293.612
293.617
293.622
293.627
293.632
293.636
293.641
293.645
293.649
293.653
293.657
293.66
293.664
293.668
293.671
293.674
293.677
293.68
293.683
293.686
293.688
293.691
293.694
293.696
293.698
293.701
293.703
293.705
293.707
293.709
293.711
293.713
293.715
293.717
293.718
293.72
293.722
293.723
293.725
293.727
293.728
293.73
293.731
293.732
293.732
293.73
293.727
293.717
293.705
287.612
287.612
287.612
287.61
287.606
287.602
287.597
287.594
287.594
287.595
287.599
287.601
287.597
287.577
287.514
287.373
287.135
286.821
286.499
286.184
285.88
285.606
285.373
285.173
284.994
284.831
284.679
284.541
284.414
284.303
284.202
284.112
284.035
283.975
283.931
283.905
283.894
283.892
283.9
283.909
283.925
283.942
283.964
283.99
284.021
284.059
284.106
284.163
284.233
284.316
284.416
284.532
284.669
284.821
284.986
285.166
285.371
285.598
285.85
286.119
286.397
286.675
286.945
287.198
287.428
287.631
287.803
287.944
288.057
288.143
288.209
288.258
288.293
288.318
288.335
288.346
288.353
288.357
288.359
288.36
288.36
288.359
288.358
288.357
288.356
288.354
288.353
288.352
288.351
288.349
288.348
288.347
288.346
288.344
288.343
288.342
288.341
288.34
288.339
288.338
288.337
288.337
288.336
288.335
288.335
288.335
288.334
288.334
288.334
288.334
288.334
288.335
288.335
288.336
288.337
288.338
288.339
288.34
288.342
288.343
288.345
288.347
288.349
288.351
288.354
288.356
288.359
288.361
288.364
288.367
288.371
288.374
288.377
288.381
288.385
288.389
288.393
288.397
288.401
288.406
288.41
288.415
288.419
288.424
288.429
288.434
288.439
288.444
288.448
288.453
288.458
288.463
288.468
288.473
288.478
288.483
288.488
288.493
288.498
288.502
288.507
288.511
288.516
288.52
288.524
288.529
288.533
288.536
288.54
288.544
288.547
288.55
288.554
288.557
288.559
288.562
288.564
288.567
288.569
288.571
288.572
288.574
288.575
288.576
288.577
288.578
288.578
288.579
288.579
288.579
288.579
288.579
288.578
288.577
288.577
288.576
288.575
288.573
288.572
288.571
288.569
288.567
288.566
288.564
288.562
288.56
288.558
288.556
288.554
288.552
288.55
288.548
288.546
288.544
288.542
288.54
288.539
288.537
288.536
288.534
288.533
288.532
288.531
288.531
288.531
288.53
288.531
288.531
288.532
288.533
288.534
288.536
288.538
288.54
288.543
288.546
288.549
288.553
288.557
288.562
288.567
288.572
288.578
288.585
288.592
288.599
288.607
288.615
288.624
288.634
288.644
288.654
288.665
288.676
288.688
288.701
288.714
288.728
288.742
288.757
288.772
288.788
288.804
288.821
288.839
288.857
288.875
288.894
288.914
288.934
288.955
288.976
288.998
289.02
289.043
289.066
289.09
289.115
289.139
289.165
289.19
289.217
289.243
289.271
289.298
289.326
289.355
289.384
289.413
289.443
289.473
289.503
289.534
289.565
289.597
289.629
289.661
289.694
289.726
289.76
289.793
289.827
289.861
289.895
289.93
289.964
289.999
290.035
290.07
290.105
290.141
290.177
290.213
290.249
290.286
290.322
290.359
290.395
290.432
290.469
290.506
290.543
290.58
290.617
290.654
290.691
290.728
290.765
290.802
290.839
290.876
290.913
290.95
290.986
291.023
291.06
291.096
291.133
291.169
291.205
291.242
291.277
291.313
291.349
291.384
291.42
291.455
291.49
291.524
291.559
291.593
291.628
291.661
291.695
291.729
291.762
291.795
291.827
291.86
291.892
291.924
291.956
291.987
292.018
292.049
292.079
292.11
292.14
292.169
292.199
292.228
292.256
292.285
292.313
292.34
292.368
292.395
292.422
292.448
292.474
292.5
292.525
292.55
292.575
292.599
292.623
292.647
292.67
292.693
292.716
292.738
292.76
292.782
292.803
292.824
292.844
292.865
292.885
292.904
292.923
292.942
292.961
292.979
292.997
293.014
293.031
293.048
293.065
293.081
293.097
293.112
293.127
293.142
293.157
293.171
293.185
293.199
293.212
293.225
293.238
293.25
293.262
293.274
293.286
293.297
293.308
293.319
293.329
293.34
293.35
293.359
293.369
293.378
293.387
293.395
293.404
293.412
293.42
293.428
293.435
293.443
293.45
293.457
293.463
293.47
293.476
293.482
293.488
293.494
293.499
293.505
293.51
293.515
293.52
293.525
293.529
293.534
293.538
293.542
293.546
293.55
293.554
293.557
293.561
293.564
293.567
293.571
293.574
293.577
293.579
293.582
293.585
293.587
293.59
293.592
293.594
293.597
293.599
293.601
293.603
293.605
293.607
293.608
293.61
293.612
293.614
293.615
293.617
293.618
293.62
293.621
293.623
293.624
293.626
293.627
293.627
293.627
293.626
293.62
293.611
287.614
287.613
287.609
287.601
287.589
287.575
287.562
287.553
287.551
287.553
287.558
287.561
287.554
287.515
287.39
287.109
286.678
286.249
285.875
285.529
285.207
284.917
284.657
284.42
284.207
284.012
283.833
283.677
283.548
283.448
283.372
283.312
283.269
283.24
283.22
283.204
283.188
283.173
283.159
283.146
283.133
283.12
283.106
283.091
283.079
283.069
283.063
283.061
283.067
283.08
283.102
283.135
283.18
283.243
283.32
283.417
283.539
283.689
283.875
284.097
284.358
284.658
284.993
285.357
285.737
286.121
286.493
286.837
287.144
287.405
287.619
287.791
287.925
288.026
288.102
288.157
288.196
288.223
288.241
288.252
288.259
288.263
288.265
288.265
288.265
288.265
288.264
288.264
288.263
288.262
288.261
288.26
288.259
288.259
288.258
288.257
288.256
288.256
288.255
288.254
288.254
288.254
288.253
288.253
288.253
288.253
288.253
288.253
288.253
288.254
288.254
288.255
288.256
288.257
288.258
288.259
288.26
288.262
288.264
288.266
288.268
288.27
288.272
288.274
288.277
288.28
288.283
288.286
288.289
288.292
288.295
288.299
288.302
288.306
288.31
288.314
288.318
288.322
288.326
288.33
288.335
288.339
288.344
288.349
288.353
288.358
288.362
288.367
288.372
288.377
288.381
288.386
288.391
288.395
288.4
288.404
288.409
288.413
288.417
288.421
288.426
288.43
288.433
288.437
288.441
288.444
288.448
288.451
288.454
288.457
288.46
288.462
288.465
288.467
288.469
288.471
288.473
288.474
288.476
288.477
288.478
288.479
288.479
288.48
288.48
288.48
288.48
288.48
288.48
288.479
288.478
288.478
288.477
288.475
288.474
288.473
288.471
288.469
288.468
288.466
288.464
288.462
288.46
288.458
288.455
288.453
288.451
288.449
288.446
288.444
288.442
288.44
288.437
288.435
288.433
288.431
288.429
288.428
288.426
288.425
288.423
288.422
288.422
288.421
288.421
288.42
288.42
288.421
288.421
288.422
288.424
288.425
288.427
288.429
288.432
288.435
288.438
288.442
288.446
288.45
288.455
288.461
288.467
288.473
288.48
288.487
288.495
288.503
288.512
288.521
288.531
288.541
288.552
288.563
288.575
288.587
288.6
288.614
288.628
288.642
288.657
288.673
288.689
288.705
288.723
288.74
288.759
288.778
288.797
288.817
288.837
288.858
288.88
288.902
288.924
288.947
288.971
288.995
289.019
289.044
289.07
289.096
289.122
289.149
289.176
289.204
289.232
289.261
289.29
289.319
289.349
289.379
289.41
289.441
289.472
289.504
289.536
289.568
289.6
289.633
289.666
289.7
289.734
289.768
289.802
289.836
289.871
289.906
289.941
289.976
290.012
290.048
290.083
290.119
290.155
290.192
290.228
290.264
290.301
290.338
290.374
290.411
290.448
290.485
290.521
290.558
290.595
290.632
290.669
290.706
290.743
290.779
290.816
290.853
290.889
290.926
290.962
290.998
291.035
291.071
291.107
291.142
291.178
291.213
291.249
291.284
291.319
291.354
291.388
291.423
291.457
291.491
291.525
291.558
291.592
291.625
291.658
291.69
291.723
291.755
291.786
291.818
291.849
291.88
291.911
291.941
291.971
292.001
292.031
292.06
292.089
292.117
292.145
292.173
292.201
292.228
292.255
292.282
292.308
292.334
292.36
292.385
292.41
292.434
292.459
292.483
292.506
292.529
292.552
292.575
292.597
292.619
292.64
292.661
292.682
292.703
292.723
292.743
292.762
292.781
292.8
292.818
292.836
292.854
292.871
292.888
292.905
292.922
292.938
292.953
292.969
292.984
292.999
293.013
293.027
293.041
293.055
293.068
293.081
293.093
293.106
293.118
293.129
293.141
293.152
293.163
293.174
293.184
293.194
293.204
293.214
293.223
293.232
293.241
293.249
293.257
293.265
293.273
293.281
293.288
293.295
293.302
293.309
293.316
293.322
293.328
293.334
293.34
293.345
293.351
293.356
293.361
293.366
293.371
293.376
293.38
293.384
293.389
293.393
293.396
293.4
293.404
293.407
293.411
293.414
293.417
293.42
293.423
293.426
293.428
293.431
293.434
293.436
293.438
293.441
293.443
293.445
293.447
293.449
293.451
293.453
293.454
293.456
293.458
293.459
293.461
293.462
293.464
293.465
293.467
293.468
293.469
293.47
293.471
293.473
293.473
293.473
293.473
293.469
293.462
287.616
287.611
287.598
287.576
287.544
287.508
287.476
287.459
287.461
287.469
287.483
287.489
287.473
287.384
287.119
286.619
286.044
285.564
285.166
284.812
284.5
284.236
284.023
283.848
283.719
283.633
283.577
283.542
283.514
283.495
283.486
283.493
283.507
283.515
283.502
283.479
283.443
283.399
283.347
283.292
283.235
283.179
283.125
283.075
283.027
282.981
282.938
282.9
282.866
282.837
282.814
282.796
282.78
282.766
282.764
282.771
282.793
282.832
282.892
282.976
283.092
283.246
283.446
283.697
284.002
284.36
284.763
285.196
285.638
286.072
286.478
286.84
287.15
287.406
287.612
287.772
287.894
287.985
288.05
288.096
288.127
288.148
288.16
288.168
288.172
288.174
288.175
288.175
288.175
288.175
288.174
288.174
288.173
288.173
288.172
288.172
288.172
288.171
288.171
288.171
288.17
288.17
288.17
288.17
288.171
288.171
288.171
288.172
288.172
288.173
288.174
288.175
288.176
288.177
288.178
288.18
288.182
288.184
288.186
288.188
288.19
288.193
288.195
288.198
288.201
288.204
288.207
288.21
288.213
288.217
288.22
288.224
288.228
288.232
288.236
288.24
288.244
288.248
288.252
288.257
288.261
288.266
288.27
288.275
288.279
288.284
288.289
288.293
288.298
288.302
288.307
288.312
288.316
288.32
288.325
288.329
288.333
288.337
288.341
288.345
288.349
288.352
288.356
288.359
288.363
288.366
288.368
288.371
288.374
288.376
288.378
288.38
288.382
288.384
288.385
288.387
288.388
288.389
288.39
288.39
288.391
288.391
288.391
288.391
288.39
288.39
288.389
288.389
288.388
288.386
288.385
288.384
288.382
288.381
288.379
288.377
288.375
288.373
288.37
288.368
288.366
288.363
288.361
288.358
288.355
288.353
288.35
288.348
288.345
288.342
288.34
288.337
288.335
288.333
288.33
288.328
288.326
288.324
288.323
288.321
288.32
288.318
288.317
288.317
288.316
288.316
288.316
288.316
288.317
288.318
288.319
288.32
288.322
288.324
288.327
288.33
288.333
288.337
288.341
288.345
288.35
288.355
288.361
288.368
288.374
288.381
288.389
288.397
288.406
288.415
288.425
288.435
288.446
288.457
288.469
288.481
288.494
288.507
288.521
288.535
288.55
288.566
288.581
288.598
288.615
288.633
288.651
288.67
288.689
288.709
288.729
288.75
288.771
288.793
288.815
288.838
288.861
288.885
288.909
288.934
288.959
288.985
289.011
289.038
289.065
289.093
289.12
289.149
289.178
289.207
289.236
289.266
289.297
289.327
289.359
289.39
289.422
289.454
289.486
289.519
289.552
289.585
289.618
289.652
289.686
289.721
289.755
289.79
289.825
289.86
289.895
289.931
289.966
290.002
290.038
290.074
290.11
290.147
290.183
290.22
290.256
290.293
290.329
290.366
290.403
290.439
290.476
290.513
290.55
290.586
290.623
290.66
290.696
290.733
290.769
290.806
290.842
290.878
290.914
290.95
290.986
291.022
291.057
291.093
291.128
291.163
291.198
291.232
291.267
291.301
291.335
291.369
291.403
291.436
291.47
291.503
291.535
291.568
291.6
291.632
291.664
291.695
291.726
291.757
291.788
291.818
291.848
291.878
291.907
291.936
291.965
291.994
292.022
292.05
292.077
292.104
292.131
292.158
292.184
292.21
292.235
292.26
292.285
292.31
292.334
292.358
292.381
292.404
292.427
292.449
292.472
292.493
292.515
292.536
292.556
292.577
292.597
292.616
292.636
292.655
292.673
292.692
292.709
292.727
292.744
292.761
292.778
292.794
292.81
292.826
292.841
292.856
292.871
292.885
292.899
292.913
292.926
292.939
292.952
292.965
292.977
292.989
293
293.012
293.023
293.034
293.044
293.054
293.064
293.074
293.083
293.093
293.101
293.11
293.118
293.127
293.135
293.142
293.15
293.157
293.164
293.171
293.177
293.184
293.19
293.196
293.202
293.208
293.213
293.218
293.223
293.228
293.233
293.237
293.242
293.246
293.25
293.254
293.258
293.262
293.266
293.269
293.273
293.276
293.279
293.282
293.285
293.287
293.29
293.293
293.295
293.298
293.3
293.302
293.304
293.307
293.308
293.31
293.312
293.314
293.315
293.317
293.319
293.32
293.322
293.323
293.325
293.326
293.327
293.329
293.33
293.331
293.332
293.332
293.333
293.333
293.333
293.333
293.331
293.327
287.616
287.605
287.577
287.527
287.454
287.375
287.31
287.283
287.294
287.324
287.357
287.368
287.324
287.124
286.65
285.98
285.364
284.895
284.531
284.242
284.031
283.89
283.815
283.778
283.761
283.769
283.833
283.929
284.047
284.178
284.291
284.376
284.423
284.442
284.444
284.417
284.372
284.309
284.229
284.138
284.037
283.93
283.819
283.705
283.591
283.475
283.36
283.246
283.135
283.029
282.932
282.847
282.78
282.732
282.695
282.667
282.646
282.63
282.625
282.631
282.652
282.694
282.761
282.861
283.005
283.203
283.463
283.786
284.17
284.603
285.067
285.54
285.998
286.42
286.792
287.109
287.369
287.577
287.736
287.856
287.943
288.004
288.046
288.074
288.091
288.102
288.107
288.11
288.111
288.112
288.112
288.111
288.111
288.11
288.11
288.11
288.11
288.11
288.11
288.11
288.11
288.11
288.11
288.111
288.111
288.111
288.112
288.113
288.114
288.115
288.116
288.117
288.119
288.12
288.122
288.124
288.126
288.128
288.13
288.133
288.135
288.138
288.141
288.144
288.147
288.151
288.154
288.157
288.161
288.165
288.169
288.173
288.177
288.181
288.185
288.189
288.193
288.198
288.202
288.207
288.211
288.216
288.221
288.225
288.23
288.235
288.239
288.244
288.249
288.254
288.258
288.263
288.267
288.272
288.276
288.28
288.284
288.288
288.292
288.296
288.3
288.303
288.307
288.31
288.313
288.316
288.318
288.321
288.323
288.325
288.327
288.329
288.331
288.332
288.333
288.334
288.335
288.336
288.336
288.336
288.336
288.336
288.336
288.335
288.334
288.333
288.332
288.331
288.33
288.328
288.327
288.325
288.323
288.321
288.319
288.316
288.314
288.311
288.309
288.306
288.303
288.3
288.298
288.295
288.292
288.289
288.286
288.283
288.28
288.278
288.275
288.272
288.27
288.267
288.265
288.262
288.26
288.258
288.256
288.255
288.253
288.252
288.251
288.25
288.249
288.249
288.249
288.249
288.25
288.25
288.251
288.253
288.255
288.257
288.259
288.262
288.265
288.269
288.273
288.278
288.283
288.288
288.294
288.3
288.307
288.314
288.322
288.33
288.339
288.348
288.357
288.367
288.378
288.389
288.401
288.413
288.426
288.439
288.453
288.467
288.482
288.498
288.514
288.53
288.547
288.565
288.583
288.601
288.621
288.64
288.66
288.681
288.702
288.724
288.746
288.769
288.792
288.816
288.84
288.865
288.89
288.916
288.942
288.968
288.995
289.022
289.05
289.079
289.107
289.136
289.166
289.195
289.226
289.256
289.287
289.318
289.35
289.382
289.414
289.447
289.48
289.513
289.546
289.58
289.614
289.648
289.682
289.717
289.751
289.786
289.822
289.857
289.893
289.928
289.964
290
290.036
290.072
290.108
290.145
290.181
290.218
290.254
290.291
290.327
290.364
290.401
290.437
290.474
290.51
290.547
290.584
290.62
290.656
290.693
290.729
290.765
290.801
290.837
290.873
290.909
290.945
290.98
291.015
291.05
291.085
291.12
291.155
291.189
291.223
291.258
291.291
291.325
291.358
291.391
291.424
291.457
291.489
291.522
291.554
291.585
291.616
291.648
291.678
291.709
291.739
291.769
291.799
291.828
291.857
291.886
291.914
291.942
291.97
291.997
292.024
292.051
292.078
292.104
292.129
292.155
292.18
292.205
292.229
292.253
292.277
292.3
292.323
292.346
292.368
292.39
292.412
292.433
292.454
292.475
292.495
292.515
292.534
292.554
292.572
292.591
292.609
292.627
292.644
292.662
292.678
292.695
292.711
292.727
292.743
292.758
292.773
292.787
292.801
292.815
292.829
292.842
292.855
292.868
292.88
292.892
292.904
292.916
292.927
292.938
292.949
292.959
292.969
292.979
292.989
292.998
293.007
293.016
293.024
293.033
293.041
293.049
293.056
293.064
293.071
293.078
293.084
293.091
293.097
293.103
293.109
293.115
293.12
293.126
293.131
293.136
293.14
293.145
293.15
293.154
293.158
293.162
293.166
293.17
293.174
293.177
293.18
293.184
293.187
293.19
293.193
293.195
293.198
293.2
293.203
293.205
293.208
293.21
293.212
293.214
293.216
293.218
293.22
293.221
293.223
293.224
293.226
293.228
293.229
293.23
293.232
293.233
293.234
293.236
293.237
293.238
293.239
293.24
293.241
293.241
293.242
293.242
293.243
293.241
293.239
287.615
287.595
287.546
287.451
287.316
287.173
287.068
287.031
287.055
287.112
287.166
287.169
287.049
286.681
286.032
285.322
284.765
284.38
284.125
283.977
283.91
283.889
283.881
283.957
284.084
284.261
284.464
284.662
284.833
284.963
285.047
285.097
285.121
285.131
285.13
285.114
285.083
285.037
284.971
284.887
284.785
284.665
284.531
284.385
284.229
284.065
283.896
283.724
283.55
283.381
283.223
283.079
282.954
282.849
282.765
282.698
282.647
282.611
282.584
282.563
282.55
282.548
282.554
282.575
282.618
282.691
282.806
282.975
283.207
283.508
283.877
284.305
284.773
285.26
285.74
286.192
286.598
286.948
287.24
287.473
287.655
287.791
287.89
287.959
288.006
288.036
288.055
288.065
288.071
288.074
288.075
288.075
288.075
288.074
288.074
288.073
288.073
288.073
288.073
288.073
288.073
288.074
288.074
288.075
288.075
288.076
288.077
288.078
288.079
288.08
288.081
288.083
288.085
288.086
288.088
288.09
288.093
288.095
288.098
288.1
288.103
288.106
288.109
288.113
288.116
288.12
288.123
288.127
288.131
288.135
288.139
288.143
288.148
288.152
288.156
288.161
288.165
288.17
288.175
288.179
288.184
288.189
288.194
288.199
288.203
288.208
288.213
288.218
288.223
288.228
288.232
288.237
288.241
288.246
288.25
288.255
288.259
288.263
288.267
288.271
288.275
288.278
288.282
288.285
288.288
288.291
288.293
288.296
288.298
288.3
288.302
288.304
288.305
288.306
288.308
288.308
288.309
288.309
288.31
288.31
288.309
288.309
288.309
288.308
288.307
288.306
288.304
288.303
288.301
288.3
288.298
288.296
288.294
288.291
288.289
288.286
288.284
288.281
288.278
288.275
288.272
288.269
288.266
288.263
288.26
288.257
288.254
288.251
288.248
288.245
288.242
288.239
288.237
288.234
288.231
288.229
288.227
288.225
288.223
288.221
288.219
288.218
288.217
288.216
288.215
288.215
288.215
288.215
288.215
288.216
288.217
288.219
288.22
288.223
288.225
288.228
288.231
288.235
288.239
288.244
288.249
288.254
288.26
288.266
288.273
288.28
288.288
288.296
288.305
288.314
288.323
288.334
288.344
288.356
288.367
288.38
288.392
288.406
288.419
288.434
288.449
288.464
288.48
288.496
288.513
288.531
288.549
288.568
288.587
288.606
288.627
288.647
288.668
288.69
288.712
288.735
288.758
288.782
288.806
288.831
288.856
288.881
288.907
288.934
288.961
288.988
289.016
289.044
289.072
289.101
289.131
289.16
289.191
289.221
289.252
289.283
289.315
289.347
289.379
289.411
289.444
289.477
289.51
289.544
289.578
289.612
289.646
289.68
289.715
289.75
289.785
289.82
289.856
289.891
289.927
289.963
289.999
290.035
290.071
290.108
290.144
290.18
290.217
290.253
290.29
290.326
290.363
290.399
290.436
290.473
290.509
290.546
290.582
290.618
290.655
290.691
290.727
290.763
290.799
290.835
290.87
290.906
290.941
290.977
291.012
291.047
291.081
291.116
291.15
291.185
291.219
291.252
291.286
291.319
291.352
291.385
291.418
291.45
291.482
291.514
291.546
291.577
291.608
291.639
291.669
291.699
291.729
291.759
291.788
291.817
291.846
291.874
291.902
291.93
291.957
291.984
292.011
292.037
292.063
292.089
292.114
292.139
292.164
292.188
292.212
292.236
292.259
292.282
292.305
292.327
292.349
292.371
292.392
292.413
292.433
292.454
292.473
292.493
292.512
292.531
292.549
292.567
292.585
292.603
292.62
292.637
292.653
292.669
292.685
292.7
292.715
292.73
292.745
292.759
292.773
292.786
292.8
292.813
292.825
292.838
292.85
292.861
292.873
292.884
292.895
292.905
292.916
292.926
292.936
292.945
292.954
292.963
292.972
292.981
292.989
292.997
293.005
293.012
293.02
293.027
293.034
293.04
293.047
293.053
293.059
293.065
293.071
293.076
293.081
293.086
293.091
293.096
293.1
293.105
293.109
293.113
293.117
293.121
293.125
293.128
293.132
293.135
293.138
293.141
293.144
293.147
293.149
293.152
293.154
293.157
293.159
293.161
293.163
293.165
293.167
293.169
293.171
293.173
293.174
293.176
293.177
293.179
293.18
293.182
293.183
293.184
293.186
293.187
293.188
293.189
293.19
293.191
293.192
293.193
293.194
293.195
293.196
293.196
293.196
293.195
287.615
287.585
287.508
287.357
287.142
286.926
286.777
286.73
286.764
286.84
286.894
286.856
286.615
286.094
285.393
284.766
284.341
284.097
283.985
283.952
283.948
284.018
284.161
284.387
284.642
284.895
285.11
285.272
285.381
285.445
285.476
285.487
285.483
285.471
285.453
285.434
285.415
285.391
285.358
285.308
285.239
285.147
285.03
284.888
284.724
284.54
284.336
284.12
283.896
283.671
283.458
283.262
283.09
282.946
282.831
282.741
282.673
282.622
282.584
282.554
282.529
282.51
282.5
282.497
282.502
282.518
282.555
282.621
282.729
282.891
283.119
283.418
283.786
284.216
284.689
285.183
285.672
286.134
286.551
286.913
287.214
287.456
287.643
287.782
287.882
287.95
287.995
288.023
288.04
288.049
288.054
288.056
288.056
288.056
288.055
288.054
288.054
288.053
288.053
288.054
288.054
288.054
288.055
288.055
288.056
288.057
288.058
288.059
288.06
288.061
288.063
288.065
288.066
288.068
288.07
288.073
288.075
288.077
288.08
288.083
288.086
288.089
288.093
288.096
288.1
288.104
288.107
288.111
288.116
288.12
288.124
288.128
288.133
288.137
288.142
288.147
288.151
288.156
288.161
288.166
288.171
288.175
288.18
288.185
288.19
288.195
288.2
288.205
288.21
288.215
288.22
288.225
288.229
288.234
288.238
288.243
288.247
288.251
288.255
288.259
288.263
288.267
288.27
288.273
288.277
288.279
288.282
288.285
288.287
288.289
288.291
288.293
288.294
288.295
288.296
288.297
288.298
288.298
288.298
288.298
288.298
288.297
288.297
288.296
288.295
288.294
288.292
288.291
288.289
288.287
288.285
288.283
288.281
288.278
288.276
288.273
288.27
288.268
288.265
288.262
288.259
288.255
288.252
288.249
288.246
288.243
288.24
288.237
288.234
288.231
288.228
288.225
288.222
288.219
288.217
288.214
288.212
288.21
288.208
288.206
288.204
288.203
288.202
288.201
288.2
288.2
288.2
288.2
288.2
288.201
288.202
288.204
288.205
288.208
288.21
288.213
288.216
288.22
288.224
288.229
288.234
288.239
288.245
288.251
288.258
288.265
288.273
288.281
288.29
288.299
288.309
288.319
288.33
288.341
288.353
288.365
288.378
288.391
288.405
288.42
288.434
288.45
288.466
288.482
288.499
288.517
288.535
288.554
288.573
288.592
288.612
288.633
288.654
288.676
288.698
288.721
288.744
288.768
288.792
288.816
288.842
288.867
288.893
288.919
288.946
288.974
289.001
289.03
289.058
289.087
289.116
289.146
289.176
289.207
289.238
289.269
289.3
289.332
289.364
289.397
289.429
289.462
289.496
289.529
289.563
289.597
289.631
289.666
289.7
289.735
289.77
289.806
289.841
289.876
289.912
289.948
289.984
290.02
290.056
290.092
290.129
290.165
290.201
290.238
290.274
290.311
290.348
290.384
290.421
290.457
290.494
290.53
290.566
290.603
290.639
290.675
290.711
290.747
290.783
290.819
290.855
290.89
290.926
290.961
290.996
291.031
291.066
291.1
291.135
291.169
291.203
291.236
291.27
291.303
291.336
291.369
291.402
291.434
291.466
291.498
291.53
291.561
291.592
291.623
291.653
291.683
291.713
291.743
291.772
291.801
291.83
291.858
291.886
291.913
291.941
291.968
291.995
292.021
292.047
292.073
292.098
292.123
292.148
292.172
292.196
292.22
292.243
292.266
292.289
292.311
292.333
292.354
292.375
292.396
292.417
292.437
292.457
292.476
292.495
292.514
292.533
292.551
292.568
292.586
292.603
292.62
292.636
292.652
292.668
292.683
292.698
292.713
292.728
292.742
292.756
292.769
292.782
292.795
292.808
292.82
292.832
292.844
292.855
292.867
292.877
292.888
292.898
292.908
292.918
292.928
292.937
292.946
292.955
292.963
292.971
292.979
292.987
292.995
293.002
293.009
293.016
293.023
293.029
293.035
293.041
293.047
293.053
293.058
293.063
293.068
293.073
293.078
293.082
293.087
293.091
293.095
293.099
293.103
293.106
293.11
293.113
293.117
293.12
293.123
293.126
293.128
293.131
293.133
293.136
293.138
293.14
293.143
293.145
293.147
293.149
293.15
293.152
293.154
293.155
293.157
293.158
293.16
293.161
293.163
293.164
293.165
293.166
293.167
293.169
293.17
293.171
293.172
293.173
293.174
293.175
293.176
293.177
293.178
293.177
293.177
287.616
287.578
287.471
287.258
286.957
286.664
286.47
286.408
286.434
286.499
286.53
286.415
286.062
285.482
284.857
284.383
284.116
284.009
283.989
284.005
284.112
284.322
284.602
284.91
285.189
285.414
285.575
285.682
285.749
285.784
285.796
285.781
285.743
285.689
285.631
285.578
285.538
285.51
285.487
285.461
285.425
285.369
285.288
285.176
285.03
284.85
284.639
284.399
284.14
283.874
283.616
283.379
283.172
282.997
282.858
282.755
282.678
282.62
282.577
282.543
282.517
282.496
282.48
282.468
282.463
282.464
282.471
282.491
282.532
282.605
282.723
282.898
283.139
283.452
283.834
284.275
284.755
285.252
285.742
286.202
286.616
286.972
287.268
287.502
287.68
287.811
287.902
287.962
288.001
288.024
288.036
288.043
288.045
288.046
288.046
288.045
288.045
288.044
288.044
288.044
288.044
288.044
288.045
288.046
288.046
288.047
288.048
288.049
288.051
288.052
288.054
288.055
288.057
288.059
288.061
288.064
288.066
288.069
288.071
288.074
288.077
288.081
288.084
288.088
288.092
288.096
288.1
288.104
288.108
288.112
288.117
288.121
288.126
288.13
288.135
288.14
288.145
288.149
288.154
288.159
288.164
288.169
288.174
288.179
288.184
288.189
288.194
288.199
288.204
288.209
288.214
288.219
288.224
288.228
288.233
288.237
288.242
288.246
288.25
288.254
288.258
288.262
288.265
288.269
288.272
288.275
288.277
288.28
288.282
288.284
288.286
288.288
288.29
288.291
288.292
288.293
288.293
288.294
288.294
288.294
288.293
288.293
288.292
288.291
288.29
288.289
288.288
288.286
288.284
288.282
288.28
288.278
288.276
288.273
288.271
288.268
288.265