/*--------------------------------*- C++ -*----------------------------------*\
| =========                 |                                                 |
| \\      /  F ield         | OpenFOAM: The Open Source CFD Toolbox           |
|  \\    /   O peration     | Version:  v1812                                 |
|   \\  /    A nd           | Web:      www.OpenFOAM.com                      |
|    \\/     M anipulation  |                                                 |
\*---------------------------------------------------------------------------*/
FoamFile
{
    version     2.0;
    format      ascii;
    class       volVectorField;
    location    "0.2";
    object      U;
}
// * * * * * * * * * * * * * * * * * * * * * * * * * * * * * * * * * * * * * //

dimensions      [0 1 -1 0 0 0 0];


internalField   nonuniform List<vector> 
20400
(
(0.0355373 -0.0293399 0)
(0.28115 -0.0908687 0)
(0.747346 -0.0882133 0)
(1.28108 -0.065878 0)
(1.85683 -0.0437009 0)
(2.3118 -0.0238581 0)
(2.63616 -0.0119627 0)
(2.79371 0.0226817 0)
(2.75961 0.0173164 0)
(2.60845 0.12641 0)
(2.39827 0.100271 0)
(2.15373 0.0335898 0)
(1.95083 -0.0705678 0)
(1.84419 -0.220282 0)
(1.81141 -0.360296 0)
(1.8248 -0.397965 0)
(1.84073 -0.276292 0)
(1.95571 -0.0867424 0)
(1.90256 0.0801777 0)
(1.56793 0.254655 0)
(1.05489 0.370778 0)
(0.361977 0.424332 0)
(-0.471164 0.395478 0)
(-1.54124 0.346797 0)
(-2.83145 0.289684 0)
(-4.27349 0.250895 0)
(-5.87047 0.238836 0)
(-7.42415 0.240326 0)
(-8.98469 0.214183 0)
(-10.3112 0.106534 0)
(-11.4909 -0.0448441 0)
(-12.447 -0.18537 0)
(-13.1868 -0.343769 0)
(-13.6948 -0.497886 0)
(-13.9926 -0.642783 0)
(-14.1605 -0.660509 0)
(-14.157 -0.602045 0)
(-13.9477 -0.554636 0)
(-13.7332 -0.3952 0)
(-13.3635 -0.265629 0)
(-12.9705 -0.103629 0)
(-12.5107 0.0400318 0)
(-12.005 0.161113 0)
(-11.4571 0.241768 0)
(-10.8585 0.337141 0)
(-10.1892 0.416747 0)
(-9.44725 0.461807 0)
(-8.63566 0.465195 0)
(-7.75627 0.43346 0)
(-6.82102 0.357252 0)
(-5.8416 0.253529 0)
(-4.82804 0.0960611 0)
(-3.82451 -0.0829409 0)
(-2.81572 -0.297877 0)
(-1.97192 -0.487649 0)
(-1.15755 -0.496879 0)
(-0.356325 -0.447961 0)
(0.441924 -0.30316 0)
(1.22446 -0.207209 0)
(1.90207 -0.145495 0)
(2.47953 -0.102638 0)
(2.9449 -0.07191 0)
(3.31018 -0.048004 0)
(3.58329 -0.0301744 0)
(3.77654 -0.0153355 0)
(3.89191 -0.00263716 0)
(3.95331 0.00380886 0)
(3.96 0.00369942 0)
(3.91567 0.018702 0)
(3.85228 0.0247823 0)
(3.76147 0.0277094 0)
(3.65589 0.0292997 0)
(3.53687 0.0297802 0)
(3.41146 0.0299373 0)
(3.28418 0.0308444 0)
(3.15668 0.030864 0)
(3.03276 0.0304465 0)
(2.91211 0.0296427 0)
(2.79666 0.0284882 0)
(2.68631 0.0274201 0)
(2.58171 0.0262377 0)
(2.4828 0.0250717 0)
(2.38958 0.0239786 0)
(2.30168 0.0230715 0)
(2.21895 0.0223829 0)
(2.14109 0.0217691 0)
(2.06782 0.0211424 0)
(1.99882 0.0205644 0)
(1.93381 0.0199871 0)
(1.87252 0.0194451 0)
(1.81465 0.01893 0)
(1.75999 0.0184485 0)
(1.70823 0.0179789 0)
(1.65923 0.0175286 0)
(1.6127 0.0171016 0)
(1.56854 0.0166991 0)
(1.5265 0.0163256 0)
(1.4865 0.0159753 0)
(1.44834 0.015653 0)
(1.41192 0.0153555 0)
(1.37711 0.015095 0)
(1.34379 0.0148594 0)
(1.31188 0.0146664 0)
(1.28129 0.014508 0)
(1.25188 0.0143871 0)
(1.22369 0.0142965 0)
(1.19652 0.0142451 0)
(1.17039 0.0142082 0)
(1.14534 0.014206 0)
(1.12101 0.0142154 0)
(1.09781 0.0142537 0)
(1.07527 0.0143004 0)
(1.05354 0.0143603 0)
(1.03306 0.0144327 0)
(1.01274 0.0145064 0)
(0.993215 0.0145916 0)
(0.974469 0.0146754 0)
(0.956412 0.0147665 0)
(0.939025 0.0148584 0)
(0.922291 0.0149543 0)
(0.906172 0.015051 0)
(0.890664 0.0151445 0)
(0.875736 0.015243 0)
(0.861377 0.0153361 0)
(0.847603 0.0154291 0)
(0.834379 0.015521 0)
(0.821688 0.0156068 0)
(0.809505 0.0157037 0)
(0.797809 0.0157922 0)
(0.786602 0.0158774 0)
(0.775859 0.0159699 0)
(0.765551 0.0160497 0)
(0.755692 0.0161336 0)
(0.746224 0.0162223 0)
(0.737154 0.0162922 0)
(0.728459 0.0163815 0)
(0.720094 0.0164536 0)
(0.71207 0.0165287 0)
(0.704335 0.0166085 0)
(0.696876 0.0166756 0)
(0.689676 0.0167526 0)
(0.682686 0.016821 0)
(0.675911 0.0168865 0)
(0.669295 0.0169624 0)
(0.662824 0.0170204 0)
(0.656475 0.0170968 0)
(0.6502 0.0171544 0)
(0.644004 0.0172236 0)
(0.637815 0.0172922 0)
(0.631642 0.017352 0)
(0.625426 0.0174303 0)
(0.619146 0.0174849 0)
(0.612787 0.0175657 0)
(0.606273 0.0176202 0)
(0.599646 0.017695 0)
(0.592781 0.017763 0)
(0.58575 0.0178298 0)
(0.578438 0.0179131 0)
(0.570858 0.0179734 0)
(0.562989 0.0180708 0)
(0.554733 0.0181377 0)
(0.546176 0.0182306 0)
(0.537158 0.0183207 0)
(0.527761 0.0183988 0)
(0.517907 0.0185116 0)
(0.507536 0.0185937 0)
(0.496731 0.018708 0)
(0.485314 0.0188151 0)
(0.473405 0.0189233 0)
(0.460899 0.0190533 0)
(0.447753 0.0191724 0)
(0.434063 0.0193094 0)
(0.419629 0.0194443 0)
(0.404615 0.0195868 0)
(0.388882 0.0197317 0)
(0.37242 0.0198876 0)
(0.355343 0.0200492 0)
(0.337384 0.0202111 0)
(0.318856 0.0203893 0)
(0.299447 0.0205682 0)
(0.279304 0.0207555 0)
(0.258512 0.0209535 0)
(0.236685 0.0211466 0)
(0.214421 0.0213579 0)
(0.191035 0.0215692 0)
(0.166969 0.0217809 0)
(0.142047 0.0220041 0)
(0.116645 0.0222257 0)
(0.0903459 0.0224421 0)
(0.0632517 0.0226629 0)
(0.0353908 0.0228766 0)
(0.0067803 0.0230804 0)
(-0.0225793 0.0232965 0)
(-0.0527288 0.0235006 0)
(-0.0835884 0.0237172 0)
(-0.115177 0.0239447 0)
(-0.147446 0.0241646 0)
(-0.180386 0.0244051 0)
(-0.213976 0.0246462 0)
(-0.248187 0.0248884 0)
(-0.282994 0.0251468 0)
(-0.318378 0.0254076 0)
(-0.354306 0.0256708 0)
(-0.390747 0.0259539 0)
(-0.427692 0.0262321 0)
(-0.465081 0.0265217 0)
(-0.502905 0.0268247 0)
(-0.541122 0.0271201 0)
(-0.579698 0.0274386 0)
(-0.618604 0.0277561 0)
(-0.657794 0.028074 0)
(-0.69724 0.02841 0)
(-0.736891 0.0287448 0)
(-0.776731 0.0290829 0)
(-0.816694 0.0294378 0)
(-0.856754 0.0297881 0)
(-0.896902 0.030149 0)
(-0.937006 0.0305188 0)
(-0.977148 0.0308822 0)
(-1.01719 0.0312627 0)
(-1.05707 0.0316392 0)
(-1.09692 0.0320174 0)
(-1.13641 0.0324086 0)
(-1.17573 0.0327906 0)
(-1.21481 0.0331836 0)
(-1.25335 0.0335822 0)
(-1.29182 0.0339734 0)
(-1.3296 0.0343718 0)
(-1.36668 0.0347689 0)
(-1.40362 0.0351681 0)
(-1.4402 0.0355716 0)
(-1.47606 0.035969 0)
(-1.51129 0.0363756 0)
(-1.54584 0.0367778 0)
(-1.57969 0.0371782 0)
(-1.6128 0.0375812 0)
(-1.64512 0.0379754 0)
(-1.67663 0.0383766 0)
(-1.7073 0.0387711 0)
(-1.73706 0.0391537 0)
(-1.76588 0.0395412 0)
(-1.79374 0.0399413 0)
(-1.82064 0.0403209 0)
(-1.84652 0.0407106 0)
(-1.87137 0.0410875 0)
(-1.89512 0.0414529 0)
(-1.91778 0.0418329 0)
(-1.9393 0.04219 0)
(-1.95967 0.0425531 0)
(-1.97886 0.0429183 0)
(-1.99683 0.0432543 0)
(-2.01359 0.043613 0)
(-2.0291 0.043955 0)
(-2.04333 0.0442829 0)
(-2.05631 0.0446304 0)
(-2.06795 0.0449491 0)
(-2.07831 0.0452731 0)
(-2.08734 0.0456078 0)
(-2.09499 0.0458924 0)
(-2.10136 0.0462194 0)
(-2.10625 0.0465136 0)
(-2.10992 0.0467946 0)
(-2.1121 0.0471189 0)
(-2.11272 0.047378 0)
(-2.11223 0.0476531 0)
(-2.11024 0.04794 0)
(-2.1068 0.0482039 0)
(-2.102 0.0484576 0)
(-2.09578 0.048702 0)
(-2.08815 0.0489347 0)
(-2.0791 0.0491568 0)
(-2.06866 0.0493686 0)
(-2.0568 0.0495678 0)
(-2.04355 0.0497577 0)
(-2.0289 0.0499352 0)
(-2.01286 0.0501038 0)
(-1.99544 0.0502597 0)
(-1.97664 0.0504052 0)
(-1.95648 0.050538 0)
(-1.93495 0.0506594 0)
(-1.91208 0.0507707 0)
(-1.88787 0.0508681 0)
(-1.86233 0.0509557 0)
(-1.83548 0.0510276 0)
(-1.80733 0.0510883 0)
(-1.77789 0.0511349 0)
(-1.74718 0.0511713 0)
(-1.71521 0.0511975 0)
(-1.682 0.0512134 0)
(-1.64758 0.0512208 0)
(-1.61196 0.051215 0)
(-1.57515 0.0511994 0)
(-1.53719 0.0511701 0)
(-1.49806 0.051131 0)
(-1.45782 0.0510806 0)
(-1.41647 0.0510188 0)
(-1.37403 0.0509483 0)
(-1.33052 0.0508628 0)
(-1.28598 0.0507695 0)
(-1.24041 0.0506614 0)
(-1.19383 0.0505461 0)
(-1.14629 0.0504184 0)
(-1.09778 0.0502811 0)
(-1.04835 0.0501356 0)
(-0.998001 0.0499743 0)
(-0.946777 0.0498062 0)
(-0.89469 0.0496215 0)
(-0.841766 0.0494287 0)
(-0.788032 0.0492207 0)
(-0.733506 0.049001 0)
(-0.678223 0.0487696 0)
(-0.622195 0.048518 0)
(-0.56546 0.048257 0)
(-0.50803 0.0479708 0)
(-0.449937 0.0476694 0)
(-0.391202 0.0473426 0)
(-0.331847 0.04699 0)
(-0.271904 0.0466103 0)
(-0.211383 0.0461881 0)
(-0.150334 0.0457365 0)
(-0.0887772 0.0452376 0)
(-0.026768 0.0447245 0)
(0.0356965 0.0442018 0)
(0.0986046 0.0436752 0)
(0.161948 0.043145 0)
(0.225703 0.0426149 0)
(0.289847 0.0420859 0)
(0.354355 0.0415577 0)
(0.419202 0.041031 0)
(0.484365 0.0405061 0)
(0.549817 0.039984 0)
(0.615533 0.0394642 0)
(0.68149 0.0389473 0)
(0.747662 0.0384331 0)
(0.814026 0.0379206 0)
(0.880559 0.0374105 0)
(0.947237 0.0369037 0)
(1.01404 0.0363989 0)
(1.08093 0.0358978 0)
(1.14791 0.0354002 0)
(1.21493 0.0349037 0)
(1.28199 0.0344098 0)
(1.34906 0.0339195 0)
(1.41612 0.0334317 0)
(1.48314 0.0329472 0)
(1.55011 0.0324662 0)
(1.61701 0.0319881 0)
(1.6838 0.0315141 0)
(1.75049 0.0310434 0)
(1.81703 0.0305755 0)
(1.88343 0.0301104 0)
(1.94965 0.0296484 0)
(2.01568 0.0291911 0)
(2.0815 0.0287371 0)
(2.14709 0.0282875 0)
(2.21243 0.0278415 0)
(2.2775 0.0273993 0)
(2.34229 0.0269596 0)
(2.40677 0.026523 0)
(2.47094 0.0260874 0)
(2.53479 0.0256571 0)
(2.59829 0.0252321 0)
(2.66142 0.0248073 0)
(2.72418 0.0243857 0)
(2.78655 0.0239706 0)
(2.84851 0.02356 0)
(2.91005 0.0231512 0)
(2.97115 0.0227459 0)
(3.0318 0.0223435 0)
(3.092 0.0219434 0)
(3.15173 0.0215493 0)
(3.21096 0.0211605 0)
(3.26969 0.0207746 0)
(3.32792 0.0203924 0)
(3.38562 0.0200135 0)
(3.4428 0.0196383 0)
(3.49944 0.0192674 0)
(3.55553 0.0188975 0)
(3.61107 0.0185344 0)
(3.66603 0.0181765 0)
(3.72041 0.0178209 0)
(3.7742 0.0174699 0)
(3.8274 0.0171234 0)
(3.88 0.0167803 0)
(3.93199 0.0164421 0)
(3.98337 0.0161068 0)
(4.03412 0.0157736 0)
(4.08424 0.0154464 0)
(4.13373 0.0151226 0)
(4.18258 0.0148029 0)
(4.23079 0.014488 0)
(4.27835 0.0141784 0)
(4.32525 0.0138692 0)
(4.37149 0.0135663 0)
(4.41707 0.0132681 0)
(4.462 0.0129751 0)
(4.50626 0.0126846 0)
(4.54986 0.0123967 0)
(4.59279 0.0121138 0)
(4.63504 0.0118377 0)
(4.6766 0.011567 0)
(4.7175 0.0113 0)
(4.75771 0.0110334 0)
(4.79726 0.0107689 0)
(4.83614 0.0105101 0)
(4.87433 0.0102568 0)
(4.91185 0.0100065 0)
(4.9487 0.00976296 0)
(4.98487 0.00952389 0)
(5.02038 0.00928515 0)
(5.05522 0.00905123 0)
(5.08939 0.00882252 0)
(5.1229 0.00859755 0)
(5.15574 0.00837757 0)
(5.18793 0.00816197 0)
(5.21946 0.00794591 0)
(5.25035 0.00773257 0)
(5.2806 0.00753041 0)
(5.31019 0.00732728 0)
(5.33915 0.00712957 0)
(5.36747 0.0069393 0)
(5.39517 0.00674646 0)
(5.42225 0.00656066 0)
(5.44871 0.00637985 0)
(5.47455 0.00619991 0)
(5.49979 0.0060257 0)
(5.52442 0.00586029 0)
(5.54846 0.00569108 0)
(5.5719 0.00552673 0)
(5.59477 0.00537022 0)
(5.61706 0.00521016 0)
(5.63879 0.00505749 0)
(5.65996 0.00490629 0)
(5.68057 0.00475844 0)
(5.70063 0.00461575 0)
(5.72015 0.00447689 0)
(5.73915 0.00434087 0)
(5.75762 0.00420924 0)
(5.77556 0.00407974 0)
(5.793 0.00395355 0)
(5.80994 0.00382908 0)
(5.82639 0.00370558 0)
(5.84236 0.0035879 0)
(5.85784 0.00347518 0)
(5.87286 0.00335826 0)
(5.8874 0.0032505 0)
(5.90148 0.00314954 0)
(5.91512 0.0030463 0)
(5.92832 0.00294355 0)
(5.94109 0.00284853 0)
(5.95344 0.00275661 0)
(5.96539 0.00266375 0)
(5.97693 0.00257105 0)
(5.98806 0.00248571 0)
(5.9988 0.00239732 0)
(6.00916 0.00231784 0)
(6.01914 0.00224118 0)
(6.02875 0.00216822 0)
(6.03801 0.00209057 0)
(6.04692 0.0020201 0)
(6.05548 0.0019454 0)
(6.06371 0.00188161 0)
(6.07161 0.00182309 0)
(6.07917 0.00175016 0)
(6.08641 0.00169782 0)
(6.09334 0.00163622 0)
(6.09998 0.00156306 0)
(6.10631 0.00152076 0)
(6.11238 0.00146363 0)
(6.11814 0.00140904 0)
(6.12362 0.00136258 0)
(6.12885 0.00130409 0)
(6.1338 0.00125826 0)
(6.13848 0.00123036 0)
(6.14292 0.00115895 0)
(6.14711 0.00110673 0)
(6.15102 0.00108225 0)
(6.15472 0.00103149 0)
(6.15817 0.000990644 0)
(6.16137 0.000953027 0)
(6.16436 0.000916295 0)
(6.1671 0.000885346 0)
(6.16963 0.000851071 0)
(6.17193 0.000798104 0)
(6.17401 0.00078009 0)
(6.17589 0.000756706 0)
(6.17755 0.000720564 0)
(6.17898 0.000684138 0)
(6.1802 0.000666877 0)
(6.18119 0.000629425 0)
(6.18196 0.000601361 0)
(6.18253 0.000579571 0)
(6.18281 0.000593956 0)
(6.18279 0.000536084 0)
(6.18283 0.000538635 0)
(6.18221 0.0005088 0)
(6.18208 0.000481741 0)
(6.17983 0.00078311 0)
(6.17908 0.00079746 0)
(6.17703 0.00106778 0)
(0.0750445 -0.244402 0)
(0.583884 -0.68105 0)
(1.42108 -0.883891 0)
(2.2477 -0.881889 0)
(3.08596 -0.743762 0)
(3.78495 -0.513877 0)
(4.42084 -0.298705 0)
(4.84569 -0.0167109 0)
(5.16689 0.115178 0)
(5.08452 0.203332 0)
(4.72765 0.289521 0)
(4.22606 0.313772 0)
(3.63459 0.245159 0)
(3.07163 0.17931 0)
(2.62246 0.138761 0)
(2.33505 0.0690387 0)
(1.99683 0.15013 0)
(1.31918 0.427282 0)
(0.236007 0.849613 0)
(-1.24528 1.3369 0)
(-3.10973 1.70488 0)
(-5.38915 1.97563 0)
(-7.97214 2.2012 0)
(-10.6902 2.48357 0)
(-13.4007 2.66199 0)
(-15.9281 2.72644 0)
(-18.2009 2.62682 0)
(-20.1057 2.38696 0)
(-21.6904 2.08616 0)
(-22.7844 1.72569 0)
(-23.5817 1.47069 0)
(-24.0129 1.18096 0)
(-24.1632 0.916722 0)
(-23.9718 0.669135 0)
(-23.5556 0.528563 0)
(-22.9921 0.320709 0)
(-22.3255 0.143741 0)
(-21.5389 -0.022833 0)
(-20.7296 -0.148363 0)
(-19.8617 -0.290578 0)
(-18.9708 -0.383174 0)
(-18.0498 -0.492146 0)
(-17.1012 -0.581343 0)
(-16.1152 -0.659952 0)
(-15.0757 -0.763383 0)
(-13.9747 -0.88681 0)
(-12.8011 -1.0149 0)
(-11.5532 -1.14584 0)
(-10.232 -1.27411 0)
(-8.84758 -1.39783 0)
(-7.41023 -1.506 0)
(-5.94653 -1.60148 0)
(-4.45166 -1.67529 0)
(-2.9765 -1.73741 0)
(-1.39214 -1.8178 0)
(0.185908 -1.74272 0)
(1.66847 -1.61349 0)
(3.03153 -1.41679 0)
(4.24693 -1.20263 0)
(5.36721 -0.985562 0)
(6.38979 -0.799119 0)
(7.29426 -0.637234 0)
(8.06668 -0.488738 0)
(8.70677 -0.356844 0)
(9.20972 -0.24208 0)
(9.57677 -0.142238 0)
(9.81889 -0.0441002 0)
(9.95463 0.018993 0)
(9.98863 0.0848486 0)
(9.95379 0.119515 0)
(9.86765 0.151781 0)
(9.73758 0.179798 0)
(9.5731 0.198981 0)
(9.38973 0.207058 0)
(9.19527 0.210161 0)
(8.99512 0.207464 0)
(8.79581 0.20278 0)
(8.60034 0.19664 0)
(8.41187 0.188946 0)
(8.2314 0.180522 0)
(8.0596 0.17134 0)
(7.89708 0.162074 0)
(7.7439 0.153014 0)
(7.59991 0.144223 0)
(7.46478 0.135435 0)
(7.33794 0.127021 0)
(7.21901 0.119175 0)
(7.10762 0.111749 0)
(7.00337 0.10482 0)
(6.90588 0.0983901 0)
(6.81468 0.0924186 0)
(6.72936 0.0869389 0)
(6.64947 0.0819282 0)
(6.57467 0.0773527 0)
(6.50458 0.073193 0)
(6.43891 0.0694011 0)
(6.37731 0.0659819 0)
(6.31952 0.062867 0)
(6.26527 0.0600625 0)
(6.2143 0.057526 0)
(6.16641 0.0552632 0)
(6.12135 0.0532037 0)
(6.07896 0.051379 0)
(6.03902 0.0497347 0)
(6.00134 0.0482512 0)
(5.96584 0.0469371 0)
(5.93226 0.0457624 0)
(5.90056 0.0446952 0)
(5.87067 0.0438108 0)
(5.84225 0.042993 0)
(5.81557 0.0423021 0)
(5.79019 0.0416927 0)
(5.76616 0.0411646 0)
(5.74388 0.0407386 0)
(5.72223 0.0403655 0)
(5.70181 0.0400734 0)
(5.68257 0.0398352 0)
(5.66439 0.0396755 0)
(5.64724 0.0395376 0)
(5.63105 0.0394705 0)
(5.61578 0.0394462 0)
(5.6014 0.0394524 0)
(5.58784 0.0395206 0)
(5.57509 0.0395731 0)
(5.56314 0.0396172 0)
(5.55197 0.0397273 0)
(5.54151 0.039872 0)
(5.53172 0.0400236 0)
(5.52259 0.0401646 0)
(5.5141 0.0403025 0)
(5.50622 0.0404749 0)
(5.49891 0.040618 0)
(5.49216 0.040773 0)
(5.48593 0.0409457 0)
(5.48019 0.0410808 0)
(5.47493 0.0412459 0)
(5.47009 0.0413978 0)
(5.46567 0.0415332 0)
(5.46163 0.0416973 0)
(5.45793 0.0418177 0)
(5.45456 0.0419631 0)
(5.45147 0.0420863 0)
(5.44865 0.0422029 0)
(5.44605 0.0423293 0)
(5.44365 0.042431 0)
(5.44142 0.0425315 0)
(5.43933 0.0426198 0)
(5.43735 0.0426991 0)
(5.43543 0.0427724 0)
(5.43357 0.0428354 0)
(5.43171 0.0428887 0)
(5.42983 0.0429259 0)
(5.42791 0.0429819 0)
(5.4259 0.043008 0)
(5.42379 0.0430576 0)
(5.42152 0.0430855 0)
(5.4191 0.0430855 0)
(5.41646 0.0431429 0)
(5.4136 0.0431172 0)
(5.41049 0.0431727 0)
(5.40708 0.0431584 0)
(5.40337 0.0431721 0)
(5.39931 0.0432031 0)
(5.39489 0.0431646 0)
(5.3901 0.0432294 0)
(5.38487 0.0431993 0)
(5.37925 0.0432311 0)
(5.37314 0.043261 0)
(5.36657 0.0432329 0)
(5.35952 0.043307 0)
(5.35192 0.0432844 0)
(5.34385 0.0433248 0)
(5.33519 0.0433734 0)
(5.326 0.0433917 0)
(5.31624 0.0434913 0)
(5.30587 0.0435173 0)
(5.295 0.0436244 0)
(5.28342 0.0436931 0)
(5.27137 0.0437699 0)
(5.25864 0.0439281 0)
(5.24528 0.0439795 0)
(5.23146 0.0441636 0)
(5.21681 0.0442869 0)
(5.20184 0.0444536 0)
(5.18601 0.0446495 0)
(5.16962 0.0448498 0)
(5.15265 0.0451002 0)
(5.13535 0.0453336 0)
(5.11741 0.0456 0)
(5.09889 0.0458708 0)
(5.07982 0.0461522 0)
(5.06024 0.0463523 0)
(5.04018 0.0465032 0)
(5.01963 0.0466369 0)
(4.99863 0.0467305 0)
(4.97719 0.0468847 0)
(4.95532 0.0470303 0)
(4.93308 0.0471891 0)
(4.91047 0.0473704 0)
(4.88754 0.0475572 0)
(4.86433 0.047763 0)
(4.84084 0.047993 0)
(4.81714 0.0482019 0)
(4.79325 0.0484645 0)
(4.76918 0.0487331 0)
(4.74502 0.0489828 0)
(4.72077 0.0492847 0)
(4.69648 0.0495864 0)
(4.67221 0.0498912 0)
(4.64796 0.0502253 0)
(4.6238 0.0505561 0)
(4.59979 0.0508979 0)
(4.57593 0.0512682 0)
(4.55229 0.051625 0)
(4.52892 0.0520175 0)
(4.50584 0.0524218 0)
(4.4831 0.0528119 0)
(4.46079 0.0532498 0)
(4.43887 0.05369 0)
(4.41746 0.0541172 0)
(4.39663 0.0545761 0)
(4.37627 0.0550554 0)
(4.35667 0.0554936 0)
(4.3377 0.0559828 0)
(4.31938 0.0564855 0)
(4.30204 0.056951 0)
(4.28519 0.0574955 0)
(4.26944 0.0579592 0)
(4.2549 0.0584465 0)
(4.24088 0.0589916 0)
(4.22767 0.0595076 0)
(4.21561 0.0600501 0)
(4.20461 0.0605934 0)
(4.19474 0.0611081 0)
(4.18601 0.0616697 0)
(4.17842 0.0622031 0)
(4.17209 0.0627492 0)
(4.16697 0.0633303 0)
(4.1631 0.0638432 0)
(4.1606 0.0644175 0)
(4.15945 0.0649628 0)
(4.15969 0.0654897 0)
(4.16127 0.0660669 0)
(4.16428 0.0665993 0)
(4.16875 0.0671378 0)
(4.1747 0.0677007 0)
(4.18216 0.068197 0)
(4.19113 0.0687525 0)
(4.20165 0.0692577 0)
(4.21373 0.0697435 0)
(4.22738 0.0702929 0)
(4.24263 0.0707548 0)
(4.25949 0.0712573 0)
(4.27796 0.071751 0)
(4.29807 0.0721784 0)
(4.31982 0.0726799 0)
(4.34321 0.0730746 0)
(4.36826 0.0735162 0)
(4.39498 0.0739431 0)
(4.42337 0.0743002 0)
(4.45342 0.0747266 0)
(4.48513 0.0750097 0)
(4.51855 0.0754695 0)
(4.55368 0.0757245 0)
(4.59041 0.075984 0)
(4.62881 0.0762752 0)
(4.66888 0.0765421 0)
(4.7106 0.0767995 0)
(4.75396 0.0770484 0)
(4.79896 0.0772891 0)
(4.84559 0.0775193 0)
(4.89383 0.0777417 0)
(4.94368 0.0779535 0)
(4.99512 0.0781555 0)
(5.04814 0.0783485 0)
(5.10272 0.078531 0)
(5.15885 0.0787012 0)
(5.2165 0.0788598 0)
(5.27567 0.0790056 0)
(5.33633 0.0791405 0)
(5.39847 0.0792635 0)
(5.46206 0.0793817 0)
(5.52707 0.0794876 0)
(5.5935 0.0795828 0)
(5.66132 0.0796633 0)
(5.7305 0.0797346 0)
(5.80101 0.0797993 0)
(5.87285 0.0798609 0)
(5.94597 0.0799226 0)
(6.02035 0.079979 0)
(6.09595 0.0800189 0)
(6.17275 0.0800457 0)
(6.25073 0.0800543 0)
(6.32986 0.0800517 0)
(6.41011 0.080038 0)
(6.49145 0.0800138 0)
(6.57386 0.0799783 0)
(6.65729 0.0799286 0)
(6.74172 0.079867 0)
(6.82713 0.0797908 0)
(6.91347 0.0797056 0)
(7.00073 0.079608 0)
(7.08886 0.0794996 0)
(7.17783 0.0793786 0)
(7.26762 0.0792418 0)
(7.35819 0.0790932 0)
(7.4495 0.0789293 0)
(7.54154 0.0787552 0)
(7.63426 0.0785671 0)
(7.72762 0.0783708 0)
(7.82161 0.0781632 0)
(7.91619 0.0779415 0)
(8.01132 0.07771 0)
(8.10698 0.0774619 0)
(8.20312 0.0772 0)
(8.29973 0.0769176 0)
(8.39676 0.0766123 0)
(8.49419 0.0762823 0)
(8.59197 0.0759197 0)
(8.69009 0.0755275 0)
(8.78851 0.0751003 0)
(8.88722 0.0746615 0)
(8.98617 0.0742113 0)
(9.08531 0.073748 0)
(9.18461 0.0732737 0)
(9.28402 0.0727877 0)
(9.38353 0.0722927 0)
(9.4831 0.0717872 0)
(9.5827 0.0712722 0)
(9.6823 0.0707495 0)
(9.78188 0.0702204 0)
(9.8814 0.0696833 0)
(9.98085 0.0691388 0)
(10.0802 0.0685868 0)
(10.1794 0.0680255 0)
(10.2784 0.0674576 0)
(10.3772 0.0668848 0)
(10.4759 0.0663053 0)
(10.5743 0.0657201 0)
(10.6724 0.0651294 0)
(10.7702 0.06453 0)
(10.8677 0.0639257 0)
(10.9649 0.0633158 0)
(11.0617 0.0626995 0)
(11.1582 0.062082 0)
(11.2542 0.0614604 0)
(11.3498 0.0608339 0)
(11.4449 0.0602042 0)
(11.5396 0.0595689 0)
(11.6338 0.0589283 0)
(11.7275 0.0582798 0)
(11.8206 0.0576297 0)
(11.9132 0.056982 0)
(12.0052 0.0563333 0)
(12.0966 0.0556862 0)
(12.1875 0.0550402 0)
(12.2776 0.0543877 0)
(12.3672 0.0537339 0)
(12.4561 0.0530758 0)
(12.5443 0.05241 0)
(12.6318 0.0517434 0)
(12.7186 0.0510817 0)
(12.8047 0.0504201 0)
(12.8901 0.0497577 0)
(12.9747 0.0491001 0)
(13.0586 0.0484475 0)
(13.1416 0.0477904 0)
(13.2239 0.0471311 0)
(13.3054 0.0464735 0)
(13.3861 0.0458146 0)
(13.4659 0.0451659 0)
(13.5449 0.0445234 0)
(13.6231 0.0438814 0)
(13.7004 0.0432348 0)
(13.7769 0.0425774 0)
(13.8525 0.0419216 0)
(13.9272 0.0412788 0)
(14.001 0.0406404 0)
(14.0739 0.0400077 0)
(14.146 0.0393797 0)
(14.2171 0.0387494 0)
(14.2873 0.0381231 0)
(14.3566 0.0375015 0)
(14.4249 0.0368768 0)
(14.4924 0.0362592 0)
(14.5589 0.0356499 0)
(14.6244 0.0350409 0)
(14.6891 0.0344366 0)
(14.7528 0.033831 0)
(14.8155 0.0332308 0)
(14.8773 0.0326411 0)
(14.9382 0.0320579 0)
(14.9981 0.0314834 0)
(15.057 0.0309079 0)
(15.115 0.0303233 0)
(15.1721 0.0297427 0)
(15.2282 0.0291754 0)
(15.2834 0.0286154 0)
(15.3376 0.0280691 0)
(15.3909 0.0275321 0)
(15.4432 0.0269955 0)
(15.4946 0.0264561 0)
(15.545 0.0259187 0)
(15.5945 0.0253861 0)
(15.6431 0.0248756 0)
(15.6908 0.0243721 0)
(15.7375 0.0238591 0)
(15.7833 0.0233509 0)
(15.8283 0.0228499 0)
(15.8723 0.0223559 0)
(15.9154 0.0218813 0)
(15.9576 0.0214152 0)
(15.9989 0.0209405 0)
(16.0394 0.0204734 0)
(16.0789 0.0200166 0)
(16.1176 0.0195557 0)
(16.1555 0.0191062 0)
(16.1925 0.0186707 0)
(16.2286 0.0182438 0)
(16.264 0.017825 0)
(16.2984 0.0174008 0)
(16.3321 0.0169756 0)
(16.365 0.0165737 0)
(16.397 0.0161744 0)
(16.4283 0.015778 0)
(16.4588 0.0154026 0)
(16.4885 0.0150289 0)
(16.5174 0.0146601 0)
(16.5456 0.0142903 0)
(16.573 0.0139167 0)
(16.5997 0.0135632 0)
(16.6257 0.0132177 0)
(16.651 0.0128677 0)
(16.6756 0.0125432 0)
(16.6995 0.0122272 0)
(16.7227 0.0118891 0)
(16.7452 0.0115735 0)
(16.7671 0.0112691 0)
(16.7883 0.0109696 0)
(16.8089 0.0106745 0)
(16.8289 0.0103785 0)
(16.8483 0.0100833 0)
(16.867 0.00981376 0)
(16.8852 0.00955227 0)
(16.9028 0.00929273 0)
(16.9198 0.00905065 0)
(16.9362 0.00880698 0)
(16.9521 0.00855472 0)
(16.9674 0.00831117 0)
(16.9823 0.00806489 0)
(16.9966 0.00782335 0)
(17.0104 0.00759946 0)
(17.0237 0.00739209 0)
(17.0365 0.00719001 0)
(17.0489 0.00698784 0)
(17.0608 0.00678654 0)
(17.0722 0.00660481 0)
(17.0832 0.00640574 0)
(17.0937 0.00620514 0)
(17.1039 0.00602098 0)
(17.1136 0.00584327 0)
(17.1229 0.00567925 0)
(17.1318 0.0055255 0)
(17.1403 0.00538644 0)
(17.1485 0.0052287 0)
(17.1563 0.00505937 0)
(17.1637 0.00493907 0)
(17.1708 0.00476995 0)
(17.1775 0.00462638 0)
(17.1839 0.00453164 0)
(17.19 0.00437753 0)
(17.1957 0.00423926 0)
(17.2011 0.00414125 0)
(17.2063 0.00401572 0)
(17.2111 0.00390055 0)
(17.2156 0.00383342 0)
(17.2199 0.00371592 0)
(17.2238 0.0035896 0)
(17.2275 0.00352214 0)
(17.2309 0.00343829 0)
(17.234 0.00332491 0)
(17.2369 0.00325491 0)
(17.2395 0.00315888 0)
(17.2419 0.00309347 0)
(17.2441 0.00301837 0)
(17.2459 0.00289853 0)
(17.2475 0.00286603 0)
(17.2489 0.00283117 0)
(17.25 0.00273607 0)
(17.2508 0.00267249 0)
(17.2515 0.00261827 0)
(17.2518 0.00259245 0)
(17.2519 0.00262662 0)
(17.2518 0.00259423 0)
(17.2512 0.0025559 0)
(17.2504 0.00262075 0)
(17.2493 0.00279399 0)
(17.247 0.00313261 0)
(17.2461 0.00329931 0)
(17.2445 0.00358711 0)
(0.0679245 -0.557927 0)
(0.615398 -1.38952 0)
(1.49442 -1.81503 0)
(2.35639 -1.87625 0)
(3.23465 -1.76162 0)
(4.012 -1.49373 0)
(4.67915 -1.10124 0)
(5.12056 -0.57699 0)
(5.24737 0.0147865 0)
(5.25786 0.446103 0)
(5.07549 0.870836 0)
(4.60698 1.14289 0)
(3.93282 1.23532 0)
(3.13396 1.17163 0)
(2.2073 1.07376 0)
(1.04262 1.04182 0)
(-0.389288 1.2428 0)
(-2.16928 1.8267 0)
(-4.40805 2.52324 0)
(-7.02519 3.23201 0)
(-9.87574 3.89922 0)
(-12.8428 4.48005 0)
(-15.7509 4.83065 0)
(-18.4233 4.89095 0)
(-20.7305 4.73036 0)
(-22.5854 4.41154 0)
(-24.0175 4.00648 0)
(-24.9996 3.50477 0)
(-25.6148 2.94337 0)
(-25.9088 2.31722 0)
(-25.9702 1.7172 0)
(-25.9695 1.1408 0)
(-25.6813 0.578657 0)
(-25.2648 0.0384742 0)
(-24.6942 -0.451607 0)
(-23.976 -0.765664 0)
(-23.2248 -1.0993 0)
(-22.3613 -1.34852 0)
(-21.4449 -1.53583 0)
(-20.4707 -1.73431 0)
(-19.45 -1.87198 0)
(-18.3907 -2.03086 0)
(-17.2966 -2.18468 0)
(-16.157 -2.3653 0)
(-14.9641 -2.57194 0)
(-13.7239 -2.77431 0)
(-12.4292 -2.96933 0)
(-11.0717 -3.15014 0)
(-9.64432 -3.30922 0)
(-8.14877 -3.43476 0)
(-6.59086 -3.51499 0)
(-4.98292 -3.53933 0)
(-3.3471 -3.49121 0)
(-1.69422 -3.35427 0)
(-0.0826293 -3.11571 0)
(1.47253 -2.97921 0)
(2.97757 -2.81948 0)
(4.43216 -2.65819 0)
(5.82109 -2.44458 0)
(7.13762 -2.20308 0)
(8.36312 -1.9216 0)
(9.48712 -1.62826 0)
(10.4943 -1.32853 0)
(11.3969 -1.0404 0)
(12.1804 -0.768612 0)
(12.8427 -0.519838 0)
(13.3856 -0.302135 0)
(13.8018 -0.100506 0)
(14.1107 0.0334474 0)
(14.3035 0.143131 0)
(14.4014 0.236314 0)
(14.413 0.314268 0)
(14.3637 0.36171 0)
(14.2773 0.387129 0)
(14.1608 0.402934 0)
(14.0212 0.406381 0)
(13.8694 0.40048 0)
(13.7102 0.388156 0)
(13.5489 0.371502 0)
(13.3889 0.353895 0)
(13.2328 0.334931 0)
(13.0824 0.315316 0)
(12.9388 0.295926 0)
(12.8021 0.277167 0)
(12.6724 0.259627 0)
(12.5497 0.243199 0)
(12.4338 0.22745 0)
(12.3246 0.212763 0)
(12.2219 0.198908 0)
(12.1255 0.185953 0)
(12.0352 0.173909 0)
(11.9507 0.162779 0)
(11.8718 0.152471 0)
(11.7981 0.142921 0)
(11.7293 0.134098 0)
(11.6653 0.125948 0)
(11.6058 0.118467 0)
(11.5504 0.111577 0)
(11.4991 0.105248 0)
(11.4514 0.0994481 0)
(11.4073 0.0941693 0)
(11.3665 0.0893549 0)
(11.3288 0.0850125 0)
(11.2939 0.0811201 0)
(11.2618 0.077607 0)
(11.2322 0.0744782 0)
(11.2051 0.0716953 0)
(11.1802 0.0691729 0)
(11.1575 0.0669747 0)
(11.1367 0.0649709 0)
(11.1179 0.0631872 0)
(11.1008 0.0616293 0)
(11.0853 0.0602526 0)
(11.0719 0.0590376 0)
(11.0594 0.0579765 0)
(11.0484 0.0570355 0)
(11.0388 0.0562081 0)
(11.0305 0.0554547 0)
(11.0235 0.0547588 0)
(11.0176 0.0542204 0)
(11.0129 0.0537532 0)
(11.0092 0.0533386 0)
(11.0065 0.0529922 0)
(11.0046 0.0526822 0)
(11.0038 0.0524243 0)
(11.004 0.052213 0)
(11.0049 0.0520283 0)
(11.0066 0.0518882 0)
(11.0091 0.0517743 0)
(11.0124 0.051679 0)
(11.0163 0.0516209 0)
(11.0209 0.0515658 0)
(11.0262 0.0515323 0)
(11.032 0.0515367 0)
(11.0385 0.0515195 0)
(11.0454 0.0515453 0)
(11.0529 0.0515621 0)
(11.0609 0.0515883 0)
(11.0693 0.0516384 0)
(11.0781 0.0516708 0)
(11.0873 0.0517212 0)
(11.0968 0.0517704 0)
(11.1067 0.0518124 0)
(11.1168 0.0518749 0)
(11.1271 0.051906 0)
(11.1377 0.051965 0)
(11.1485 0.0519915 0)
(11.1594 0.0520336 0)
(11.1704 0.0520743 0)
(11.1815 0.0520928 0)
(11.1926 0.0521436 0)
(11.2038 0.0521377 0)
(11.2149 0.0521796 0)
(11.226 0.0521669 0)
(11.2371 0.052179 0)
(11.248 0.0521854 0)
(11.2588 0.0521671 0)
(11.2694 0.0521821 0)
(11.2798 0.052138 0)
(11.2899 0.0521516 0)
(11.2998 0.0521151 0)
(11.3095 0.0520895 0)
(11.3188 0.0520736 0)
(11.3278 0.0520033 0)
(11.3364 0.051984 0)
(11.3446 0.051914 0)
(11.3525 0.0518549 0)
(11.3599 0.0518049 0)
(11.3668 0.0517216 0)
(11.3733 0.051659 0)
(11.3792 0.0515794 0)
(11.3847 0.0514964 0)
(11.3897 0.0514118 0)
(11.3941 0.0513351 0)
(11.398 0.0512137 0)
(11.4013 0.0511222 0)
(11.4041 0.0510258 0)
(11.4062 0.0509049 0)
(11.4078 0.0508239 0)
(11.4088 0.0506985 0)
(11.4092 0.0505911 0)
(11.4091 0.0504958 0)
(11.4083 0.0503735 0)
(11.407 0.0502532 0)
(11.405 0.0501659 0)
(11.4024 0.0500361 0)
(11.3993 0.0499376 0)
(11.3958 0.0498693 0)
(11.3917 0.0497628 0)
(11.387 0.0496941 0)
(11.3818 0.049639 0)
(11.3761 0.0495846 0)
(11.3698 0.0496268 0)
(11.3631 0.0496462 0)
(11.356 0.0496485 0)
(11.3484 0.0497284 0)
(11.3404 0.0497604 0)
(11.3321 0.0498257 0)
(11.3233 0.0499278 0)
(11.3143 0.0499548 0)
(11.305 0.0500431 0)
(11.2955 0.0501416 0)
(11.2857 0.0501984 0)
(11.2757 0.0503423 0)
(11.2656 0.0504364 0)
(11.2554 0.0505403 0)
(11.2451 0.0507146 0)
(11.2348 0.0507978 0)
(11.2245 0.0509695 0)
(11.2142 0.0511574 0)
(11.2041 0.0512626 0)
(11.194 0.0514681 0)
(11.1841 0.0516616 0)
(11.1745 0.0517974 0)
(11.1651 0.0520539 0)
(11.156 0.0522517 0)
(11.1473 0.0524462 0)
(11.139 0.0527499 0)
(11.131 0.0529397 0)
(11.1236 0.0532104 0)
(11.1168 0.0535216 0)
(11.1104 0.0536815 0)
(11.1048 0.0540418 0)
(11.0998 0.0543124 0)
(11.0954 0.0545567 0)
(11.0921 0.0549411 0)
(11.0892 0.0552067 0)
(11.0873 0.0555129 0)
(11.0868 0.0558739 0)
(11.0867 0.0561663 0)
(11.0874 0.056493 0)
(11.0893 0.0568374 0)
(11.0922 0.0571605 0)
(11.0962 0.0575305 0)
(11.1013 0.0578708 0)
(11.1076 0.0582217 0)
(11.1151 0.0585993 0)
(11.1238 0.0589278 0)
(11.1338 0.0593305 0)
(11.1451 0.0597197 0)
(11.1577 0.0601038 0)
(11.1716 0.0604901 0)
(11.187 0.0608496 0)
(11.2037 0.0612362 0)
(11.2218 0.06163 0)
(11.2415 0.0620014 0)
(11.2625 0.0624036 0)
(11.2851 0.0627798 0)
(11.3092 0.0631694 0)
(11.3348 0.063577 0)
(11.362 0.0639501 0)
(11.3907 0.0643582 0)
(11.421 0.0647555 0)
(11.4529 0.065142 0)
(11.4863 0.065556 0)
(11.5214 0.065937 0)
(11.5581 0.066338 0)
(11.5964 0.0667363 0)
(11.6363 0.0671063 0)
(11.6778 0.0675074 0)
(11.721 0.067872 0)
(11.7658 0.0682635 0)
(11.8122 0.0686303 0)
(11.8602 0.0689953 0)
(11.9099 0.0693586 0)
(11.9612 0.0697228 0)
(12.014 0.0700746 0)
(12.0685 0.0704111 0)
(12.1246 0.0707338 0)
(12.1822 0.0710389 0)
(12.2414 0.0713305 0)
(12.3021 0.0716076 0)
(12.3644 0.0718706 0)
(12.4283 0.0721241 0)
(12.4936 0.0723644 0)
(12.5604 0.072595 0)
(12.6287 0.0728114 0)
(12.6985 0.0730143 0)
(12.7697 0.0732024 0)
(12.8424 0.0733767 0)
(12.9164 0.0735393 0)
(12.9918 0.0736853 0)
(13.0686 0.0738231 0)
(13.1467 0.0739446 0)
(13.2262 0.074053 0)
(13.3069 0.0741411 0)
(13.3888 0.0742144 0)
(13.472 0.0742691 0)
(13.5564 0.0742994 0)
(13.642 0.0743107 0)
(13.7288 0.0743072 0)
(13.8166 0.0742841 0)
(13.9055 0.0742432 0)
(13.9955 0.0741824 0)
(14.0866 0.0741066 0)
(14.1786 0.074016 0)
(14.2716 0.0739126 0)
(14.3656 0.0737977 0)
(14.4605 0.073668 0)
(14.5562 0.0735216 0)
(14.6528 0.0733603 0)
(14.7502 0.0731887 0)
(14.8484 0.0730086 0)
(14.9474 0.0728189 0)
(15.047 0.0726156 0)
(15.1474 0.072403 0)
(15.2484 0.0721807 0)
(15.35 0.0719501 0)
(15.4522 0.0717116 0)
(15.555 0.0714688 0)
(15.6583 0.0712181 0)
(15.7621 0.0709635 0)
(15.8663 0.0706994 0)
(15.971 0.0704338 0)
(16.0761 0.0701623 0)
(16.1815 0.0698872 0)
(16.2872 0.0696079 0)
(16.3933 0.0693226 0)
(16.4996 0.0690402 0)
(16.6061 0.0687528 0)
(16.7129 0.0684734 0)