/*--------------------------------*- C++ -*----------------------------------*\
| =========                 |                                                 |
| \\      /  F ield         | OpenFOAM: The Open Source CFD Toolbox           |
|  \\    /   O peration     | Version:  v1812                                 |
|   \\  /    A nd           | Web:      www.OpenFOAM.com                      |
|    \\/     M anipulation  |                                                 |
\*---------------------------------------------------------------------------*/
FoamFile
{
    version     2.0;
    format      ascii;
    class       volScalarField;
    location    "0.9";
    object      p;
}
// * * * * * * * * * * * * * * * * * * * * * * * * * * * * * * * * * * * * * //

dimensions      [1 -1 -2 0 0 0 0];


internalField   nonuniform List<scalar> 
64512
(
1
1
1
1
1
1
1
1
1
1
1
1
1
1
1
1
1
1
1
1
1
1
1
1
1
1
1
1
1
1
1
1
1
1
1
1
1
1
1
1
1
1
1
1
1
1
1
1
1
1
1
1
1.00001
1.00094
1.06154
4.752
10.0597
10.7901
10.8968
10.978
11.0291
11.0672
11.0897
11.1219
11.1613
11.2118
11.2732
11.3478
11.4268
11.5067
11.5903
11.6697
11.7365
11.7861
11.8222
11.8494
11.8705
11.8918
11.9169
11.9445
11.9727
12.0002
12.0265
12.0516
12.076
12.0989
12.1195
12.137
12.1511
12.1622
12.1707
12.1792
12.1841
12.1925
12.1946
12.1989
1
1
1
1
1
1
1
1
1
1
1
1
1
1
1
1
1
1
1
1
1
1
1
1
1
1
1
1
1
1
1
1
1
1
1
1
1
1
1
1
1
1
1
1
1
1
1
1
1
1
1
1
1.00001
1.00095
1.06219
4.80726
9.89884
10.7882
10.8866
10.9638
11.0291
11.0585
11.0871
11.1163
11.1616
11.2121
11.2728
11.3447
11.4238
11.5063
11.5893
11.6681
11.7342
11.783
11.8182
11.8454
11.868
11.8893
11.9132
11.9398
11.9674
11.9949
12.0211
12.0469
12.0721
12.0956
12.1164
12.134
12.1482
12.1596
12.1686
12.1776
12.1831
12.1915
12.1943
12.1988
1
1
1
1
1
1
1
1
1
1
1
1
1
1
1
1
1
1
1
1
1
1
1
1
1
1
1
1
1
1
1
1
1
1
1
1
1
1
1
1
1
1
1
1
1
1
1
1
1
1
1
1
1.00001
1.00093
1.06134
4.75196
9.76245
10.7927
10.8917
10.9644
11.0259
11.0643
11.0909
11.123
11.1664
11.2148
11.2727
11.3438
11.4211
11.5043
11.5869
11.6652
11.7301
11.7786
11.8144
11.8412
11.8632
11.8844
11.9076
11.933
11.96
11.9868
12.014
12.0411
12.0669
12.0907
12.1114
12.129
12.1435
12.1556
12.1656
12.1754
12.1821
12.1911
12.1949
12.1998
1
1
1
1
1
1
1
1
1
1
1
1
1
1
1
1
1
1
1
1
1
1
1
1
1
1
1
1
1
1
1
1
1
1
1
1
1
1
1
1
1
1
1
1
1
1
1
1
1
1
1
1
1.00001
1.0009
1.05933
4.63788
9.69169
10.7278
10.8683
10.9398
11.0045
11.0487
11.085
11.1223
11.1698
11.2177
11.2729
11.3425
11.4188
11.5023
11.5845
11.6615
11.7247
11.7716
11.8059
11.8323
11.8538
11.8748
11.8981
11.9231
11.9497
11.9763
12.0039
12.0311
12.0571
12.081
12.1019
12.1198
12.1351
12.1484
12.1597
12.1707
12.1783
12.1877
12.1921
12.1973
1
1
1
1
1
1
1
1
1
1
1
1
1
1
1
1
1
1
1
1
1
1
1
1
1
1
1
1
1
1
1
1
1
1
1
1
1
1
1
1
1
1
1
1
1
1
1
1
1
1
1
1
1.00001
1.00085
1.05544
4.40357
9.68588
10.6842
10.838
10.9158
10.9913
11.0395
11.0828
11.1258
11.1757
11.2203
11.2735
11.342
11.4166
11.4994
11.5812
11.6569
11.7179
11.7628
11.7954
11.8207
11.8419
11.8631
11.8869
11.9124
11.9383
11.965
11.9927
12.0199
12.0456
12.0694
12.0905
12.1091
12.1255
12.1402
12.1533
12.1657
12.1748
12.1851
12.1906
12.1962
1
1
1
1
1
1
1
1
1
1
1
1
1
1
1
1
1
1
1
1
1
1
1
1
1
1
1
1
1
1
1
1
1
1
1
1
1
1
1
1
1
1
1
1
1
1
1
1
1
1
1
1
1.00001
1.00077
1.05062
4.12792
9.70729
10.6559
10.8046
10.8858
10.9728
11.0234
11.0736
11.1248
11.1782
11.2193
11.2737
11.3423
11.415
11.4961
11.5764
11.65
11.7086
11.7518
11.783
11.8072
11.8283
11.8502
11.8748
11.9001
11.9254
11.952
11.9791
12.0055
12.0308
12.0542
12.0757
12.0951
12.1127
12.1289
12.1436
12.1573
12.1673
12.1785
12.1844
12.1903
1
1
1
1
1
1
1
1
1
1
1
1
1
1
1
1
1
1
1
1
1
1
1
1
1
1
1
1
1
1
1
1
1
1
1
1
1
1
1
1
1
1
1
1
1
1
1
1
1
1
1
1
1.00001
1.00069
1.04526
3.82114
9.66066
10.6234
10.7802
10.8708
10.9486
11.009
11.0671
11.1244
11.1791
11.2192
11.2747
11.3423
11.4126
11.4909
11.5688
11.6398
11.696
11.7376
11.7684
11.7924
11.8139
11.8365
11.8618
11.887
11.9121
11.9381
11.9641
11.9895
12.0139
12.0371
12.0588
12.0791
12.098
12.1158
12.1321
12.1471
12.1582
12.1702
12.1767
12.1831
1
1
1
1
1
1
1
1
1
1
1
1
1
1
1
1
1
1
1
1
1
1
1
1
1
1
1
1
1
1
1
1
1
1
1
1
1
1
1
1
1
1
1
1
1
1
1
1
1
1
1
1
1.00001
1.00059
1.03934
3.48409
9.56087
10.5906
10.7602
10.862
10.9307
10.9996
11.0654
11.1259
11.1787
11.2195
11.2746
11.3405
11.4087
11.4843
11.5591
11.6269
11.6806
11.7211
11.7519
11.7764
11.7986
11.822
11.8475
11.8729
11.8978
11.9229
11.9477
11.9718
11.9954
12.018
12.0398
12.0609
12.0809
12.1
12.1177
12.1336
12.1454
12.1581
12.1646
12.1714
1
1
1
1
1
1
1
1
1
1
1
1
1
1
1
1
1
1
1
1
1
1
1
1
1
1
1
1
1
1
1
1
1
1
1
1
1
1
1
1
1
1
1
1
1
1
1
1
1
1
1
1
1.00001
1.00048
1.03254
3.09288
9.40486
10.5469
10.7627
10.8594
10.9319
11.0008
11.0676
11.1295
11.1769
11.2186
11.2719
11.335
11.4011
11.4742
11.5459
11.6105
11.6624
11.7025
11.734
11.7595
11.7826
11.8066
11.832
11.8573
11.8819
11.906
11.9295
11.9525
11.9752
11.9973
12.0192
12.0408
12.0617
12.0819
12.1006
12.1171
12.1295
12.1426
12.149
12.1561
1
1
1
1
1
1
1
1
1
1
1
1
1
1
1
1
1
1
1
1
1
1
1
1
1
1
1
1
1
1
1
1
1
1
1
1
1
1
1
1
1
1
1
1
1
1
1
1
1
1
1
1
1.00001
1.00036
1.02461
2.62797
9.18917
10.5162
10.788
10.871
10.9417
11.0049
11.0721
11.1337
11.174
11.2154
11.2667
11.3265
11.3897
11.4605
11.5295
11.5915
11.6422
11.682
11.7141
11.7408
11.765
11.7895
11.8149
11.84
11.864
11.887
11.9093
11.9312
11.953
11.9747
11.9966
12.0187
12.0404
12.0613
12.0808
12.0975
12.1103
12.1234
12.129
12.1365
1
1
1
1
1
1
1
1
1
1
1
1
1
1
1
1
1
1
1
1
1
1
1
1
1
1
1
1
1
1
1
1
1
1
1
1
1
1
1
1
1
1
1
1
1
1
1
1
1
1
1
1
1
1.00022
1.01593
2.10177
8.90457
10.5313
10.8245
10.8874
10.952
11.009
11.0767
11.1337
11.1675
11.2084
11.2591
11.3146
11.3747
11.4426
11.5091
11.5685
11.6185
11.6585
11.6916
11.72
11.7455
11.7707
11.7961
11.8208
11.8438
11.8656
11.8866
11.9073
11.9281
11.9493
11.9713
11.9939
12.0164
12.0382
12.0582
12.075
12.0878
12.1007
12.1052
12.1129
1
1
1
1
1
1
1
1
1
1
1
1
1
1
1
1
1
1
1
1
1
1
1
1
1
1
1
1
1
1
1
1
1
1
1
1
1
1
1
1
1
1
1
1
1
1
1
1
1
1
1
1
1
1.00011
1.00768
1.55325
8.53564
10.556
10.8299
10.882
10.9549
11.0095
11.0763
11.1231
11.1574
11.1971
11.2493
11.2986
11.356
11.4209
11.485
11.5422
11.5916
11.632
11.6664
11.6965
11.7237
11.7497
11.7751
11.799
11.8209
11.8412
11.8608
11.8802
11.9
11.9209
11.943
11.9662
11.9896
12.0122
12.0328
12.0495
12.0621
12.0743
12.0774
12.0854
1
1
1
1
1
1
1
1
1
1
1
1
1
1
1
1
1
1
1
1
1
1
1
1
1
1
1
1
1
1
1
1
1
1
1
1
1
1
1
1
1
1
1
1
1
1
1
1
1
1
1
1
1
1.00004
1.00264
1.17412
8.05628
10.5349
10.797
10.8473
10.9552
11.0048
11.0661
11.1008
11.1424
11.182
11.2375
11.2787
11.334
11.3967
11.4581
11.5128
11.5616
11.6027
11.6387
11.6707
11.6996
11.7264
11.7514
11.7743
11.7949
11.8137
11.8317
11.8498
11.8686
11.889
11.9113
11.9352
11.9595
11.9829
12.004
12.0206
12.0329
12.0445
12.0458
12.0548
1
1
1
1
1
1
1
1
1
1
1
1
1
1
1
1
1
1
1
1
1
1
1
1
1
1
1
1
1
1
1
1
1
1
1
1
1
1
1
1
1
1
1
1
1
1
1
1
1
1
1
1
1
1.00003
1.00178
1.11447
7.44813
10.486
10.768
10.8038
10.9297
10.9849
11.0397
11.0797
11.1204
11.1642
11.2202
11.2565
11.3097
11.3703
11.4289
11.4812
11.5292
11.5713
11.6089
11.6426
11.673
11.7003
11.7249
11.7467
11.7658
11.783
11.7994
11.8161
11.8339
11.8539
11.8763
11.9009
11.9261
11.9501
11.9715
11.988
11.9999
12.0111
12.0105
12.0202
1
1
1
1
1
1
1
1
1
1
1
1
1
1
1
1
1
1
1
1
1
1
1
1
1
1
1
1
1
1
1
1
1
1
1
1
1
1
1
1
1
1
1
1
1
1
1
1
1
1
1
1
1
1.00002
1.00156
1.10051
6.79544
10.418
10.7473
10.7583
10.8759
10.9553
11.0049
11.0557
11.0964
11.1471
11.1925
11.2324
11.2848
11.3423
11.397
11.4473
11.4943
11.5376
11.5769
11.6121
11.6436
11.6712
11.6952
11.7158
11.7334
11.7491
11.764
11.7792
11.7961
11.8155
11.8379
11.8629
11.8887
11.9131
11.9347
11.9512
11.9627
11.9743
11.9712
11.9826
1
1
1
1
1
1
1
1
1
1
1
1
1
1
1
1
1
1
1
1
1
1
1
1
1
1
1
1
1
1
1
1
1
1
1
1
1
1
1
1
1
1
1
1
1
1
1
1
1
1
1
1
1
1.00002
1.00136
1.08766
6.11315
10.2807
10.7104
10.7331
10.8343
10.9211
10.9724
11.027
11.0745
11.1298
11.1597
11.2061
11.2589
11.3129
11.3622
11.4109
11.4574
11.5017
11.5425
11.5788
11.6109
11.6385
11.6618
11.6813
11.6976
11.7119
11.7254
11.7393
11.7552
11.7741
11.7963
11.8214
11.8474
11.872
11.8936
11.9103
11.9211
11.9324
11.9283
11.941
1
1
1
1
1
1
1
1
1
1
1
1
1
1
1
1
1
1
1
1
1
1
1
1
1
1
1
1
1
1
1
1
1
1
1
1
1
1
1
1
1
1
1
1
1
1
1
1
1
1
1
1
1
1.00002
1.00116
1.07469
5.42065
10.0856
10.6637
10.722
10.8188
10.8816
10.9488
11.004
11.0566
11.1023
11.1333
11.1812
11.2309
11.2813
11.3249
11.3721
11.419
11.4639
11.5057
11.5427
11.575
11.602
11.6244
11.6428
11.658
11.6712
11.6835
11.6964
11.7115
11.7296
11.7513
11.7758
11.8015
11.8257
11.8472
11.8643
11.8746
11.886
11.8817
11.8955
1
1
1
1
1
1
1
1
1
1
1
1
1
1
1
1
1
1
1
1
1
1
1
1
1
1
1
1
1
1
1
1
1
1
1
1
1
1
1
1
1
1
1
1
1
1
1
1
1
1
1
1
1
1.00001
1.00095
1.06174
4.71776
9.80223
10.6174
10.7248
10.7964
10.8691
10.9299
10.9859
11.0402
11.0684
11.1126
11.1569
11.2012
11.2467
11.2861
11.3316
11.3796
11.4246
11.4669
11.504
11.5357
11.5617
11.5828
11.6
11.6142
11.6265
11.638
11.6502
11.6646
11.682
11.7026
11.726
11.7506
11.7742
11.7956
11.8131
11.8229
11.8346
11.8301
11.8442
1
1
1
1
1
1
1
1
1
1
1
1
1
1
1
1
1
1
1
1
1
1
1
1
1
1
1
1
1
1
1
1
1
1
1
1
1
1
1
1
1
1
1
1
1
1
1
1
1
1
1
1
1
1.00001
1.00073
1.04801
3.95965
9.45182
10.5666
10.7121
10.7921
10.8583
10.9141
10.9723
11.0125
11.0508
11.0903
11.1281
11.1697
11.208
11.2461
11.2915
11.3394
11.3841
11.4262
11.4626
11.4932
11.5175
11.5367
11.5525
11.5659
11.5777
11.5887
11.6005
11.6144
11.6308
11.6499
11.6714
11.6944
11.7168
11.7379
11.7557
11.7651
11.7772
11.7724
11.7876
1
1
1
1
1
1
1
1
1
1
1
1
1
1
1
1
1
1
1
1
1
1
1
1
1
1
1
1
1
1
1
1
1
1
1
1
1
1
1
1
1
1
1
1
1
1
1
1
1
1
1
1
1
1.00001
1.00048
1.03252
3.07247
9.10706
10.5854
10.7079
10.7783
10.841
10.9002
10.9609
10.9977
11.0284
11.0608
11.0956
11.135
11.1674
11.2054
11.2527
11.2982
11.3424
11.3835
11.4187
11.4474
11.4692
11.4861
11.5004
11.513
11.5245
11.5356
11.5472
11.5604
11.5754
11.5924
11.6115
11.6324
11.6535
11.6743
11.6921
11.701
11.7131
11.7075
11.7224
1
1
1
1
1
1
1
1
1
1
1
1
1
1
1
1
1
1
1
1
1
1
1
1
1
1
1
1
1
1
1
1
1
1
1
1
1
1
1
1
1
1
1
1
1
1
1
1
1
1
1
1
1
1
1.00024
1.01649
2.08651
8.74161
10.5916
10.6959
10.7628
10.8282
10.8975
10.9461
10.9732
10.9987
11.0267
11.0609
11.0953
11.1261
11.1662
11.2136
11.2561
11.2993
11.3389
11.3719
11.3981
11.4168
11.4311
11.4437
11.4557
11.4672
11.4783
11.4896
11.5018
11.515
11.5295
11.5459
11.5644
11.5839
11.6037
11.6207
11.6287
11.6402
11.6331
11.6493
1
1
1
1
1
1
1
1
1
1
1
1
1
1
1
1
1
1
1
1
1
1
1
1
1
1
1
1
1
1
1
1
1
1
1
1
1
1
1
1
1
1
1
1
1
1
1
1
1
1
1
1
1
1
1.00007
1.0047
1.27148
8.0817
10.4913
10.68
10.7455
10.8141
10.8762
10.9156
10.9436
10.9657
10.9903
11.0246
11.0494
11.0865
11.1287
11.172
11.2134
11.255
11.2923
11.3221
11.345
11.3602
11.3718
11.3831
11.3945
11.406
11.417
11.4275
11.4382
11.449
11.4604
11.474
11.4901
11.5077
11.5259
11.5409
11.5474
11.5576
11.5487
11.5643
1
1
1
1
1
1
1
1
1
1
1
1
1
1
1
1
1
1
1
1
1
1
1
1
1
1
1
1
1
1
1
1
1
1
1
1
1
1
1
1
1
1
1
1
1
1
1
1
1
1
1
1
1
1
1.00003
1.00179
1.11148
7.07508
10.2449
10.6142
10.6868
10.7667
10.8323
10.8778
10.9099
10.9332
10.9562
10.9768
11.0093
11.0466
11.0891
11.1279
11.1695
11.2094
11.2433
11.2686
11.2877
11.2994
11.3091
11.3194
11.3303
11.3413
11.3514
11.3605
11.3687
11.3764
11.3846
11.3953
11.4089
11.4238
11.4385
11.4498
11.454
11.4623
11.4514
11.4706
1
1
1
1
1
1
1
1
1
1
1
1
1
1
1
1
1
1
1
1
1
1
1
1
1
1
1
1
1
1
1
1
1
1
1
1
1
1
1
1
1
1
1
1
1
1
1
1
1
1
1
1
1
1
1.00002
1.00134
1.08676
6.0971
10.0145
10.5399
10.6196
10.7059
10.7836
10.8325
10.8655
10.8937
10.919
10.9348
10.9659
11.006
11.0434
11.0829
11.1249
11.1615
11.1904
11.2105
11.2262
11.2348
11.2436
11.2533
11.2633
11.2734
11.2816
11.2883
11.2931
11.2972
11.302
11.3095
11.3198
11.3306
11.3399
11.3458
11.3471
11.3532
11.3416
11.3621
1
1
1
1
1
1
1
1
1
1
1
1
1
1
1
1
1
1
1
1
1
1
1
1
1
1
1
1
1
1
1
1
1
1
1
1
1
1
1
1
1
1
1
1
1
1
1
1
1
1
1
1
1
1
1.00002
1.00107
1.06918
5.13667
9.74689
10.4352
10.5529
10.6387
10.7204
10.7813
10.8262
10.8604
10.8802
10.89
10.9196
10.9609
10.9981
11.0393
11.0781
11.1091
11.1328
11.1485
11.1605
11.1675
11.1761
11.1853
11.1942
11.2022
11.2075
11.2106
11.2111
11.2109
11.2117
11.2152
11.2206
11.2245
11.2258
11.2244
11.223
11.2271
11.2138
11.2431
1
1
1
1
1
1
1
1
1
1
1
1
1
1
1
1
1
1
1
1
1
1
1
1
1
1
1
1
1
1
1
1
1
1
1
1
1
1
1
1
1
1
1
1
1
1
1
1
1
1
1
1
1
1
1.00001
1.00078
1.0509
4.11543
9.47894
10.3188
10.5023
10.6013
10.6697
10.7251
10.7748
10.8123
10.8326
10.8435
10.8749
10.9164
10.9554
10.9927
11.0261
11.0522
11.071
11.084
11.0922
11.0987
11.1068
11.115
11.1224
11.1272
11.1284
11.127
11.1226
11.1176
11.1139
11.1119
11.1094
11.104
11.0955
11.0859
11.082
11.084
11.0678
11.0933
1
1
1
1
1
1
1
1
1
1
1
1
1
1
1
1
1
1
1
1
1
1
1
1
1
1
1
1
1
1
1
1
1
1
1
1
1
1
1
1
1
1
1
1
1
1
1
1
1
1
1
1
1
1
1.00001
1.00046
1.03056
2.9307
9.254
10.288
10.4412
10.554
10.6071
10.6719
10.724
10.7655
10.785
10.8022
10.8342
10.871
10.907
10.9402
10.9692
10.9925
11.0075
11.0179
11.0231
11.0283
11.0355
11.042
11.0474
11.0475
11.045
11.0378
11.0276
11.017
11.0072
10.9974
10.9843
10.9665
10.9459
10.9276
10.9196
10.9171
10.8906
10.9106
1
1
1
1
1
1
1
1
1
1
1
1
1
1
1
1
1
1
1
1
1
1
1
1
1
1
1
1
1
1
1
1
1
1
1
1
1
1
1
1
1
1
1
1
1
1
1
1
1
1
1
1
1
1
1
1.00017
1.01147
1.71919
8.67109
10.2791
10.4078
10.5254
10.5975
10.6546
10.7028
10.7402
10.7505
10.7658
10.7902
10.8205
10.8529
10.8837
10.9102
10.9315
10.9441
10.9507
10.9532
10.9567
10.9616
10.9659
10.9682
10.963
10.9556
10.942
10.9255
10.9082
10.8907
10.8705
10.8442
10.8117
10.7788
10.7519
10.7365
10.7254
10.6855
10.6496
1
1
1
1
1
1
1
1
1
1
1
1
1
1
1
1
1
1
1
1
1
1
1
1
1
1
1
1
1
1
1
1
1
1
1
1
1
1
1
1
1
1
1
1
1
1
1
1
1
1
1
1
1
1
1
1.00004
1.00275
1.15235
7.38102
10.0897
10.395
10.4906
10.5542
10.6116
10.6664
10.7007
10.7121
10.7248
10.742
10.7666
10.7957
10.8243
10.8495
10.8694
10.8796
10.8819
10.8826
10.8838
10.8852
10.8861
10.8833
10.8736
10.8599
10.8397
10.8164
10.7915
10.7643
10.7313
10.6891
10.6399
10.592
10.55
10.5124
10.4704
10.4168
10.3283
1
1
1
1
1
1
1
1
1
1
1
1
1
1
1
1
1
1
1
1
1
1
1
1
1
1
1
1
1
1
1
1
1
1
1
1
1
1
1
1
1
1
1
1
1
1
1
1
1
1
1
1
1
1
1
1.00002
1.00132
1.08508
5.93526
9.72067
10.3519
10.4742
10.5227
10.5848
10.6331
10.6602
10.6737
10.6826
10.6929
10.7122
10.7381
10.7648
10.7879
10.8045
10.8116
10.8119
10.8104
10.8086
10.8065
10.803
10.7925
10.7781
10.7575
10.7304
10.7
10.6662
10.6277
10.5797
10.5195
10.4506
10.3815
10.3138
10.2365
10.1367
10.0415
9.90996
1
1
1
1
1
1
1
1
1
1
1
1
1
1
1
1
1
1
1
1
1
1
1
1
1
1
1
1
1
1
1
1
1
1
1
1
1
1
1
1
1
1
1
1
1
1
1
1
1
1
1
1
1
1
1
1.00001
1.00089
1.05912
4.62595
9.2838
10.2982
10.4112
10.4644
10.5426
10.5901
10.6168
10.6315
10.6383
10.6449
10.6598
10.6817
10.705
10.7238
10.7366
10.7404
10.7395
10.7362
10.7319
10.7258
10.7154
10.6978
10.677
10.6492
10.6153
10.5769
10.5331
10.4816
10.417
10.3366
10.2432
10.1433
10.0324
9.8882
9.6882
9.46128
9.33059
1
1
1
1
1
1
1
1
1
1
1
1
1
1
1
1
1
1
1
1
1
1
1
1
1
1
1
1
1
1
1
1
1
1
1
1
1
1
1
1
1
1
1
1
1
1
1
1
1
1
1
1
1
1
1
1.00001
1.00049
1.03389
3.18785
8.97195
10.2896
10.3467
10.3919
10.497
10.5533
10.5763
10.5864
10.5916
10.5955
10.6062
10.6237
10.6426
10.6573
10.6656
10.6677
10.6664
10.6617
10.6539
10.6421
10.6241
10.6012
10.5726
10.537
10.495
10.4473
10.3922
10.3263
10.2436
10.1404
10.0174
9.87533
9.70565
9.47993
9.17148
8.72195
8.13142
1
1
1
1
1
1
1
1
1
1
1
1
1
1
1
1
1
1
1
1
1
1
1
1
1
1
1
1
1
1
1
1
1
1
1
1
1
1
1
1
1
1
1
1
1
1
1
1
1
1
1
1
1
1
1
1
1.00016
1.01061
1.66286
8.41856
10.2277
10.3224
10.3662
10.4471
10.5072
10.5325
10.5346
10.5385
10.5399
10.5466
10.561
10.5781
10.589
10.5949
10.5957
10.5926
10.5848
10.5735
10.5559
10.5322
10.5033
10.4666
10.4222
10.3708
10.3124
10.2447
10.1633
10.0614
9.93301
9.77621
9.58585
9.34558
9.01493
8.5115
7.57937
5.48717
1
1
1
1
1
1
1
1
1
1
1
1
1
1
1
1
1
1
1
1
1
1
1
1
1
1
1
1
1
1
1
1
1
1
1
1
1
1
1
1
1
1
1
1
1
1
1
1
1
1
1
1
1
1
1
1
1.00004
1.00226
1.13243
6.9901
9.93012
10.2161
10.326
10.4208
10.4599
10.4811
10.4792
10.4852
10.4852
10.4892
10.5
10.5152
10.5205
10.5253
10.5231
10.517
10.5056
10.4908
10.4685
10.4401
10.4047
10.3597
10.306
10.2442
10.1738
10.0921
9.99415
9.87214
9.7179
9.52558
9.28456
8.97204
8.53158
7.83853
6.64922
4.59955
1
1
1
1
1
1
1
1
1
1
1
1
1
1
1
1
1
1
1
1
1
1
1
1
1
1
1
1
1
1
1
1
1
1
1
1
1
1
1
1
1
1
1
1
1
1
1
1
1
1
1
1
1
1
1
1
1.00002
1.00108
1.07144
5.23428
9.51313
10.1895
10.3248
10.4027
10.4168
10.4241
10.4267
10.4335
10.4339
10.4347
10.4429
10.454
10.455
10.457
10.4502
10.4398
10.4247
10.406
10.3792
10.3461
10.3041
10.2517
10.189
10.1164
10.0331
9.93636
9.82109
9.67896
9.49977
9.27403
8.98712
8.61184
8.09267
7.31155
6.11283
4.33858
1
1
1
1
1
1
1
1
1
1
1
1
1
1
1
1
1
1
1
1
1
1
1
1
1
1
1
1
1
1
1
1
1
1
1
1
1
1
1
1
1
1
1
1
1
1
1
1
1
1
1
1
1
1
1
1
1.00001
1.00055
1.03796
3.38394
9.12884
10.2765
10.3059
10.3373
10.3625
10.37
10.3743
10.3781
10.377
10.376
10.3828
10.3891
10.39
10.3863
10.3753
10.3603
10.3412
10.3183
10.2867
10.2487
10.2011
10.1422
10.0713
9.98807
9.89183
9.77977
9.64724
9.4859
9.28451
9.03087
8.70905
8.291
7.73866
6.973
6.00521
4.78978
1
1
1
1
1
1
1
1
1
1
1
1
1
1
1
1
1
1
1
1
1
1
1
1
1
1
1
1
1
1
1
1
1
1
1
1
1
1
1
1
1
1
1
1
1
1
1
1
1
1
1
1
1
1
1
1
1
1.00017
1.0112
1.6504
8.51066
10.2598
10.2408
10.2701
10.3028
10.3121
10.3163
10.3153
10.3123
10.3117
10.317
10.3206
10.3207
10.3133
10.299
10.28
10.2563
10.2284
10.1917
10.1487
10.0956
10.0308
9.95273
9.85985
9.75141
9.62481
9.47596
9.29708
9.07723
8.8027
8.4595
8.02153
7.47571
6.76345
5.94659
4.92964
1
1
1
1
1
1
1
1
1
1
1
1
1
1
1
1
1
1
1
1
1
1
1
1
1
1
1
1
1
1
1
1
1
1
1
1
1
1
1
1
1
1
1
1
1
1
1
1
1
1
1
1
1
1
1
1
1
1.00004
1.0023
1.12995
6.86395
9.86005
10.1618
10.2193
10.2468
10.2548
10.259
10.2543
10.2483
10.2471
10.2507
10.2525
10.2486
10.2389
10.2215
10.1987
10.1707
10.1378
10.0956
10.0469
9.98809
9.91753
9.83298
9.73193
9.61295
9.47353
9.31032
9.11656
8.88304
8.59557
8.24449
7.80504
7.28276
6.63066
5.9003
5.03071
1
1
1
1
1
1
1
1
1
1
1
1
1
1
1
1
1
1
1
1
1
1
1
1
1
1
1
1
1
1
1
1
1
1
1
1
1
1
1
1
1
1
1
1
1
1
1
1
1
1
1
1
1
1
1
1
1
1.00002
1.00101
1.06649
4.98044
9.24843
10.1391
10.1944
10.207
10.211
10.2089
10.1978
10.1891
10.1859
10.186
10.1844
10.1769
10.1631
10.143
10.1171
10.0851
10.0468
10
9.9449
9.8803
9.80406
9.71365
9.60574
9.47817
9.32818
9.15315
8.94725
8.70407
8.40954
8.05921
7.62982
7.13594
6.54322
5.87029
5.11581
1
1
1
1
1
1
1
1
1
1
1
1
1
1
1
1
1
1
1
1
1
1
1
1
1
1
1
1
1
1
1
1
1
1
1
1
1
1
1
1
1
1
1
1
1
1
1
1
1
1
1
1
1
1
1
1
1
1.00001
1.00051
1.03418
3.12626
8.76793
10.0957
10.1522
10.1692
10.1687
10.1573
10.1385
10.1292
10.1263
10.1229
10.1167
10.1045
10.0865
10.0629
10.0341
9.99888
9.95658
9.90579
9.84485
9.77461
9.69249
9.59614
9.48216
9.34771
9.18958
9.00574
8.79112
8.54264
8.24687
7.90381
7.49227
7.0244
6.48236
5.86038
5.18269
1
1
1
1
1
1
1
1
1
1
1
1
1
1
1
1
1
1
1
1
1
1
1
1
1
1
1
1
1
1
1
1
1
1
1
1
1
1
1
1
1
1
1
1
1
1
1
1
1
1
1
1
1
1
1
1
1
1
1.00016
1.01013
1.55954
7.84712
9.98106
10.095
10.0985
10.098
10.0891
10.074
10.0688
10.0668
10.06
10.0493
10.0327
10.0102
9.98307
9.95044
9.91208
9.86712
9.81261
9.74688
9.67113
9.58333
9.48142
9.36229
9.22271
9.05886
8.86914
8.64871
8.39749
8.10332
7.76907
7.3774
6.9325
6.4335
5.85454
5.24117
1
1
1
1
1
1
1
1
1
1
1
1
1
1
1
1
1
1
1
1
1
1
1
1
1
1
1
1
1
1
1
1
1
1
1
1
1
1
1
1
1
1
1
1
1
1
1
1
1
1
1
1
1
1
1
1
1
1
1.00004
1.00211
1.11308
6.07134
9.61336
10.0076
10.0013
10.0137
10.0195
10.0133
10.0138
10.0132
10.0033
9.98528
9.96272
9.93454
9.90365
9.86701
9.82558
9.77787
9.72067
9.65119
9.57023
9.47716
9.37029
9.24676
9.10328
8.93565
8.74275
8.5199
8.26907
7.97985
7.65587
7.28407
6.86114
6.3986
5.8817
5.34464
1
1
1
1
1
1
1
1
1
1
1
1
1
1
1
1
1
1
1
1
1
1
1
1
1
1
1
1
1
1
1
1
1
1
1
1
1
1
1
1
1
1
1
1
1
1
1
1
1
1
1
1
1
1
1
1
1
1
1.00001
1.00083
1.05467
4.2595
9.21848
9.86075
9.8947
9.94223
9.95306
9.95205
9.95739
9.95859
9.94513
9.92124
9.89354
9.86049
9.8249
9.78467
9.73971
9.68838
9.62852
9.55631
9.4712
9.37367
9.26265
9.13549
8.98929
8.81976
8.626
8.40322
8.15423
7.87081
7.55604
7.20243
6.80216
6.37699
5.90294
5.41593
1
1
1
1
1
1
1
1
1
1
1
1
1
1
1
1
1
1
1
1
1
1
1
1
1
1
1
1
1
1
1
1
1
1
1
1
1
1
1
1
1
1
1
1
1
1
1
1
1
1
1
1
1
1
1
1
1
1
1.00001
1.00036
1.02411
2.49576
8.79208
9.666
9.78445
9.87664
9.88606
9.89636
9.90461
9.90409
9.88559
9.85774
9.82522
9.78716
9.74699
9.70359
9.65566
9.6011
9.5381
9.46337
9.37508
9.27379
9.15909
9.02868
8.88036
8.70995
8.51693
8.2967
8.05188
7.77626
7.47181
7.13603
6.75854
6.36453
5.92314
5.48131
1
1
1
1
1
1
1
1
1
1
1
1
1
1
1
1
1
1
1
1
1
1
1
1
1
1
1
1
1
1
1
1
1
1
1
1
1
1
1
1
1
1
1
1
1
1
1
1
1
1
1
1
1
1
1
1
1
1
1
1.00008
1.00519
1.24653
7.27564
9.32259
9.71498
9.83123
9.83771
9.85806
9.86931
9.86407
9.8374
9.80258
9.7628
9.71822
9.67321
9.62624
9.57503
9.51693
9.44997
9.37208
9.28123
9.17722
9.05962
8.92642
8.77645
8.60596
8.41475
8.19844
7.95873
7.69116
7.39685
7.0765
6.72045
6.35179
5.94043
5.53445
1
1
1
1
1
1
1
1
1
1
1
1
1
1
1
1
1
1
1
1
1
1
1
1
1
1
1
1
1
1
1
1
1
1
1
1
1
1
1
1
1
1
1
1
1
1
1
1
1
1
1
1
1
1
1
1
1
1
1
1.00002
1.00115
1.07184
4.9568
8.9362
9.68803
9.78833
9.7967
9.81873
9.8283
9.82029
9.78698
9.74653
9.70039
9.64964
9.60025
9.54954
9.4951
9.43407
9.36425
9.28385
9.19122
9.08529
8.96546
8.82989
8.67841
8.50785
8.31849
8.1066
7.87326
7.61461
7.33202
7.02626
6.69127
6.34478
5.96282
5.59172
1
1
1
1
1
1
1
1
1
1
1
1
1
1
1
1
1
1
1
1
1
1
1
1
1
1
1
1
1
1
1
1
1
1
1
1
1
1
1
1
1
1
1
1
1
1
1
1
1
1
1
1
1
1
1
1
1
1
1
1.00001
1.0004
1.02774
2.73528
8.75867
9.60445
9.71702
9.74888
9.7658
9.76807
9.75991
9.72486
9.68374
9.63539
9.58012
9.52812
9.47418
9.4171
9.35375
9.28164
9.19886
9.10444
8.99703
8.87584
8.7388
8.58645
8.41612
8.22866
8.02114
7.79427
7.54388
7.27289
6.9801
6.66413
6.33825
5.98057
5.63736
1
1
1
1
1
1
1
1
1
1
1
1
1
1
1
1
1
1
1
1
1
1
1
1
1
1
1
1
1
1
1
1
1
1
1
1
1
1
1
1
1
1
1
1
1
1
1
1
1
1
1
1
1
1
1
1
1
1
1
1
1.00009
1.00548
1.26878
7.33858
9.2635
9.66416
9.70768
9.71862
9.71199
9.70189
9.66535
9.62221
9.57232
9.51319
9.45862
9.4012
9.34079
9.2746
9.20004
9.11537
9.02018
8.91249
8.79113
8.65382
8.50152
8.33195
8.14629
7.94252
7.72198
7.47954
7.2205
6.94056
6.64229
6.33447
5.99879
5.68282
1
1
1
1
1
1
1
1
1
1
1
1
1
1
1
1
1
1
1
1
1
1
1
1
1
1
1
1
1
1
1
1
1
1
1
1
1
1
1
1
1
1
1
1
1
1
1
1
1
1
1
1
1
1
1
1
1
1
1
1
1.00002
1.00111
1.07034
4.83271
8.80432
9.67449
9.67662
9.66908
9.65369
9.6395
9.60021
9.55601
9.50674
9.44589
9.38963
9.32883
9.26496
9.19627
9.11998
9.03435
8.93897
8.83106
8.70967
8.57285
8.42159
8.25386
8.07063
7.87079
7.65661
7.42139
7.17319
6.90508
6.62195
6.33143
6.0148
5.72188
1
1
1
1
1
1
1
1
1
1
1
1
1
1
1
1
1
1
1
1
1
1
1
1
1
1
1
1
1
1
1
1
1
1
1
1
1
1
1
1
1
1
1
1
1
1
1
1
1
1
1
1
1
1
1
1
1
1
1
1
1.00001
1.00034
1.02336
2.41821
8.50682
9.64435
9.62853
9.60676
9.59482
9.57614
9.53524
9.49037
9.44306
9.38234
9.32573
9.26265
9.19563
9.12399
9.04498
8.9575
8.86134
8.75309
8.63205
8.49664
8.34737
8.18255
8.00251
7.80688
7.59907
7.371
7.13304
6.87643
6.60626
6.33144
6.03145
5.75723
1
1
1
1
1
1
1
1
1
1
1
1
1
1
1
1
1
1
1
1
1
1
1
1
1
1
1
1
1
1
1
1
1
1
1
1
1
1
1
1
1
1
1
1
1
1
1
1
1
1
1
1
1
1
1
1
1
1
1
1
1
1.00007
1.00419
1.20727
6.81269
9.28709
9.5232
9.54945
9.54945
9.52764
9.48548
9.43907
9.39257
9.33292
9.2738
9.20791
9.1369
9.06084
8.97755
8.88721
8.78963
8.68024
8.55866
8.42381
8.27594
8.11418
7.93808
7.74757
7.54668
7.32614
7.09781
6.85205
6.59351
6.33276
6.04803
5.78914
1
1
1
1
1
1
1
1
1
1
1
1
1
1
1
1
1
1
1
1
1
1
1
1
1
1
1
1
1
1
1
1
1
1
1
1
1
1
1
1
1
1
1
1
1
1
1
1
1
1
1
1
1
1
1
1
1
1
1
1
1
1.00001
1.00088
1.05769
4.25942
8.88797
9.48958
9.48533
9.4748
9.45287
9.41648
9.37478
9.33414
9.27894
9.22089
9.15559
9.08303
9.0037
8.91627
8.8227
8.72288
8.61161
8.48923
8.35501
8.20883
8.05053
7.87872
7.69372
7.49984
7.28729
7.06867
6.83371
6.58564
6.33694
6.06458
5.81826
1
1
1
1
1
1
1
1
1
1
1
1
1
1
1
1
1
1
1
1
1
1
1
1
1
1
1
1
1
1
1
1
1
1
1
1
1
1
1
1
1
1
1
1
1
1
1
1
1
1
1
1
1
1
1
1
1
1
1
1
1
1
1.0002
1.01373
1.75097
8.09769
9.42321
9.40811
9.38843
9.36051
9.32951
9.29542
9.2645
9.21888
9.1672
9.10669
9.03623
8.95592
8.86491
8.76761
8.66463
8.55072
8.42688
8.29219
8.14607
7.98938
7.82067
7.64074
7.45383
7.24964
7.04025
6.81599
6.57839
6.34192
6.08188
5.84769
1
1
1
1
1
1
1
1
1
1
1
1
1
1
1
1
1
1
1
1
1
1
1
1
1
1
1
1
1
1
1
1
1
1
1
1
1
1
1
1
1
1
1
1
1
1
1
1
1
1
1
1
1
1
1
1
1
1
1
1
1
1
1.00004
1.00218
1.11693
5.71694
8.90023
9.33109
9.34094
9.31033
9.27557
9.2414
9.21012
9.16569
9.11706
9.05806
8.98787
8.90654
8.81296
8.71286
8.60726
8.49104
8.36605
8.23127
8.08589
7.93131
7.76584
7.5906
7.41035
7.2142
7.01436
6.80099
6.57393
6.34875
6.09922
5.87411
1
1
1
1
1
1
1
1
1
1
1
1
1
1
1
1
1
1
1
1
1
1
1
1
1
1
1
1
1
1
1
1
1
1
1
1
1
1
1
1
1
1
1
1
1
1
1
1
1
1
1
1
1
1
1
1
1
1
1
1
1
1
1.00001
1.00051
1.03467
3.04277
8.49127
9.29915
9.29046
9.26665
9.23263
9.19375
9.15901
9.11181
9.06232
9.00285
8.93318
8.85272
8.75932
8.65949
8.55338
8.43646
8.3118
8.17788
8.0337
7.88047
7.71687
7.54443
7.36875
7.17899
6.98659
6.78295
6.56622
6.35199
6.11373
5.89981
1
1
1
1
1
1
1
1
1
1
1
1
1
1
1
1
1
1
1
1
1
1
1
1
1
1
1
1
1
1
1
1
1
1
1
1
1
1
1
1
1
1
1
1
1
1
1
1
1
1
1
1
1
1
1
1
1
1
1
1
1
1
1
1.0001
1.00622
1.30995
6.85859
8.97488
9.24309
9.24392
9.21277
9.16662
9.12409
9.07223
9.01725
8.95231
8.87917
8.79709
8.70287
8.60335
8.49758
8.38096
8.25738
8.12503
7.98286
7.83173
7.67058
7.50088
7.32921
7.14467
6.95981
6.76614
6.55988
6.35594
6.12844
5.92363
1
1
1
1
1
1
1
1
1
1
1
1
1
1
1
1
1
1
1
1
1
1
1
1
1
1
1
1
1
1
1
1
1
1
1
1
1
1
1
1
1
1
1
1
1
1
1
1
1
1
1
1
1
1
1
1
1
1
1
1
1
1
1
1.00002
1.00096
1.05954
4.09677
8.53257
9.24673
9.23491
9.19093
9.14399
9.0946
9.03427
8.97056
8.89753
8.81824
8.73228
8.63711
8.53997
8.43665
8.32289
8.2033
8.07511
7.93766
7.79059
7.63356
7.46746
7.29934
7.11842
6.93766
6.74925
6.54982
6.35439
6.13697
5.94304
1
1
1
1
1
1
1
1
1
1
1
1
1
1
1
1
1
1
1
1
1
1
1
1
1
1
1
1
1
1
1
1
1
1
1
1
1
1
1
1
1
1
1
1
1
1
1
1
1
1
1
1
1
1
1
1
1
1
1
1
1
1
1
1
1.00018
1.01191
1.61277
7.5304
9.18781
9.18239
9.14721
9.10162
9.05391
8.99455
8.9272
8.84962
8.76633
8.67694
8.5797
8.48262
8.38013
8.2681
8.15135
8.02653
7.89349
7.75042
7.59739
7.43444
7.26972
7.09212
6.91596
6.7327
6.54162
6.35506
6.14718
5.96145
1
1
1
1
1
1
1
1
1
1
1
1
1
1
1
1
1
1
1
1
1
1
1
1
1
1
1
1
1
1
1
1
1
1
1
1
1
1
1
1
1
1
1
1
1
1
1
1
1
1
1
1
1
1
1
1
1
1
1
1
1
1
1
1
1.00003
1.00179
1.09392
4.94229
8.59495
9.10133
9.10171
9.0668
9.02328
8.96427
8.89256
8.81054
8.72222
8.62742
8.52509
8.42492
8.32206
8.21074
8.09665
7.97544
7.84742
7.70971
7.56334
7.40691
7.24831
7.07595
6.9045
6.72458
6.53719
6.35413
6.15355
5.97496
1
1
1
1
1
1
1
1
1
1
1
1
1
1
1
1
1
1
1
1
1
1
1
1
1
1
1
1
1
1
1
1
1
1
1
1
1
1
1
1
1
1
1
1
1
1
1
1
1
1
1
1
1
1
1
1
1
1
1
1
1
1
1
1
1.00001
1.00035
1.02283
2.24737
7.96064
9.10135
9.05117
8.99967
8.9652
8.91403
8.84753
8.76855
8.68187
8.58751
8.48398
8.3814
8.27725
8.16511
8.05169
7.93182
7.80688
7.67283
7.53101
7.37885
7.22465
7.05621
6.88986
6.71344
6.53191
6.35493
6.16246
5.99023
1
1
1
1
1
1
1
1
1
1
1
1
1
1
1
1
1
1
1
1
1
1
1
1
1
1
1
1
1
1
1
1
1
1
1
1
1
1
1
1
1
1
1
1
1
1
1
1
1
1
1
1
1
1
1
1
1
1
1
1
1
1
1
1
1
1.00006
1.00356
1.16908
5.79761
8.70413
8.94986
8.93292
8.90331
8.85482
8.80203
8.73067
8.6491
8.55638
8.45192
8.34587
8.24006
8.12559
8.01024
7.88916
7.76507
7.63299
7.49542
7.34906
7.2019
7.04024
6.88147
6.71064
6.53502
6.35954
6.17135
6.00278
1
1
1
1
1
1
1
1
1
1
1
1
1
1
1
1
1
1
1
1
1
1
1
1
1
1
1
1
1
1
1
1
1
1
1
1
1
1
1
1
1
1
1
1
1
1
1
1
1
1
1
1
1
1
1
1
1
1
1
1
1
1
1
1
1
1.00001
1.00057
1.03651
2.96032
8.24776
8.92155
8.8957
8.84648
8.79063
8.74226
8.67892
8.60569
8.5203
8.42034
8.31517
8.20869
8.09267
7.97629
7.85492
7.73228
7.60206
7.46741
7.32424
7.18116
7.02338
6.8699
6.70299
6.53374
6.36186
6.17927
6.01775
1
1
1
1
1
1
1
1
1
1
1
1
1
1
1
1
1
1
1
1
1
1
1
1
1
1
1
1
1
1
1
1
1
1
1
1
1
1
1
1
1
1
1
1
1
1
1
1
1
1
1
1
1
1
1
1
1
1
1
1
1
1
1
1
1
1
1.00009
1.00591
1.28705
6.43375
8.66703
8.80545
8.77439
8.72098
8.67642
8.62379
8.56078
8.48514
8.39239
8.28932
8.18338
8.06698
7.94934
7.82509
7.70083
7.57018
7.43651
7.29599
7.15763
7.00478
6.85859
6.69781
6.53631
6.36956
6.19231
6.03248
1
1
1
1
1
1
1
1
1
1
1
1
1
1
1
1
1
1
1
1
1
1
1
1
1
1
1
1
1
1
1
1
1
1
1
1
1
1
1
1
1
1
1
1
1
1
1
1
1
1
1
1
1
1
1
1
1
1
1
1
1
1
1
1
1
1
1.00001
1.00082
1.05034
3.48512
8.25879
8.74269
8.71307
8.67103
8.62831
8.57834
8.51938
8.44768
8.35841
8.2585
8.15491
8.03942
7.92188
7.79702
7.6742
7.54526
7.41417
7.27586
7.14072
6.99135
6.84984
6.69221
6.53601
6.37293
6.20089
6.04528
1
1
1
1
1
1
1
1
1
1
1
1
1
1
1
1
1
1
1
1
1
1
1
1
1
1
1
1
1
1
1
1
1
1
1
1
1
1
1
1
1
1
1
1
1
1
1
1
1
1
1
1
1
1
1
1
1
1
1
1
1
1
1
1
1
1
1
1.00013
1.00815
1.3999
6.79484
8.54497
8.65998
8.62979
8.588
8.5337
8.47447
8.40509
8.32218
8.22791
8.12825
8.01634
7.90097
7.77525
7.65129
7.52173
7.39043
7.25293
7.12042
6.97416
6.83771
6.6839
6.5359
6.38003
6.21403
6.06252
1
1
1
1
1
1
1
1
1
1
1
1
1
1
1
1
1
1
1
1
1
1
1
1
1
1
1
1
1
1
1
1
1
1
1
1
1
1
1
1
1
1
1
1
1
1
1
1
1
1
1
1
1
1
1
1
1
1
1
1
1
1
1
1
1
1
1
1.00002
1.00103
1.06078
3.72362
8.13781
8.62942
8.59881
8.55934
8.50235
8.43765
8.36612
8.28333
8.19064
8.09478
7.98683
7.87402
7.74928
7.62821
7.50123
7.37278
7.23695
7.10694
6.96364
6.83127
6.68088
6.53704
6.38436
6.22223
6.07558
1
1
1
1
1
1
1
1
1
1
1
1
1
1
1
1
1
1
1
1
1
1
1
1
1
1
1
1
1
1
1
1
1
1
1
1
1
1
1
1
1
1
1
1
1
1
1
1
1
1
1
1
1
1
1
1
1
1
1
1
1
1
1
1
1
1
1
1
1.00014
1.00922
1.4536
6.74127
8.45958
8.56034
8.53081
8.47348
8.40141
8.32915
8.2477
8.15646
8.06395
7.9606
7.85123
7.72869
7.60914
7.48295
7.35468
7.21953
7.09122
6.95012
6.82133
6.67359
6.53473
6.3882
6.23203
6.09224
1
1
1
1
1
1
1
1
1
1
1
1
1
1
1
1
1
1
1
1
1
1
1
1
1
1
1
1
1
1
1
1
1
1
1
1
1
1
1
1
1
1
1
1
1
1
1
1
1
1
1
1
1
1
1
1
1
1
1
1
1
1
1
1
1
1
1
1
1.00002
1.00107
1.06238
3.60974
8.0539
8.53563
8.49952
8.45123
8.37583
8.30027
8.21607
8.12206
8.03102
7.93051
7.82205
7.70124
7.58586
7.46357
7.33961
7.20696
7.08055
6.94194
6.81679
6.672
6.53724
6.39414
6.24021
6.10552
1
1
1
1
1
1
1
1
1
1
1
1
1
1
1
1
1
1
1
1
1
1
1
1
1
1
1
1
1
1
1
1
1
1
1
1
1
1
1
1
1
1
1
1
1
1
1
1
1
1
1
1
1
1
1
1
1
1
1
1
1
1
1
1
1
1
1
1
1
1.00013
1.00861
1.42031
6.49276
8.32675
8.44347
8.41969
8.34509
8.26619
8.18306
8.08886
7.99976
7.90265
7.79621
7.67977
7.56729
7.44656
7.32393
7.19319
7.06843
6.9321
6.80995
6.66701
6.53629
6.39735
6.24771
6.12045
1
1
1
1
1
1
1
1
1
1
1
1
1
1
1
1
1
1
1
1
1
1
1
1
1
1
1
1
1
1
1
1
1
1
1
1
1
1
1
1
1
1
1
1
1
1
1
1
1
1
1
1
1
1
1
1
1
1
1
1
1
1
1
1
1
1
1
1
1
1.00002
1.00093
1.05513
3.26261
7.92758
8.40963
8.38467
8.32004
8.24417
8.15856
8.06031
7.96896
7.87345
7.7666
7.65154
7.54186
7.42525