/*--------------------------------*- C++ -*----------------------------------*\
| =========                 |                                                 |
| \\      /  F ield         | OpenFOAM: The Open Source CFD Toolbox           |
|  \\    /   O peration     | Version:  v1812                                 |
|   \\  /    A nd           | Web:      www.OpenFOAM.com                      |
|    \\/     M anipulation  |                                                 |
\*---------------------------------------------------------------------------*/
FoamFile
{
    version     2.0;
    format      ascii;
    class       surfaceScalarField;
    location    "0.9";
    object      phi;
}
// * * * * * * * * * * * * * * * * * * * * * * * * * * * * * * * * * * * * * //

dimensions      [1 0 -1 0 0 0 0];
oriented        oriented;


internalField   nonuniform List<scalar> 
128384
(
0.00262501
0
0.00262501
1.0842e-19
0.00262501
-1.30104e-18
0.00262501
3.52366e-18
0.00262501
1.95156e-18
0.00262501
5.42101e-19
0.00262501
7.58942e-19
0.00262501
-6.50521e-19
0.00262501
1.02999e-18
0.00262501
-4.87891e-19
0.00262501
2.71051e-19
0.00262501
5.42101e-19
0.00262501
5.96311e-19
0.00262501
-5.42101e-19
0.00262501
-1.02999e-18
0.00262501
-2.22261e-18
0.00262501
-3.03577e-18
0.00262501
1.46367e-18
0.00262501
-1.13841e-18
0.00262501
1.6263e-19
0.00262501
5.42101e-20
0.00262501
1.13841e-18
0.00262501
1.40946e-18
0.00262501
9.75782e-19
0.00262501
1.0842e-18
0.00262501
1.51788e-18
0.00262501
5.42101e-20
0.00262501
7.58942e-19
0.00262501
-1.30104e-18
0.00262501
-6.50521e-19
0.00262501
-2.33103e-18
0.00262501
1.19262e-18
0.00262501
5.42101e-19
0.00262501
5.42101e-19
0.00262501
2.1684e-19
0.00262501
-2.71051e-19
0.00262501
-2.81893e-18
0.00262501
-9.21572e-19
0.00262501
1.6263e-19
0.00262501
-1.19262e-18
0.00262501
-7.04731e-19
0.00262501
-4.33681e-19
0.00262501
1.73472e-18
0.00262501
2.1684e-18
0.00262501
-3.79471e-19
0.00262501
-1.13841e-18
0.00262501
-3.79471e-19
0.00262501
-2.11419e-18
0.00262501
2.05998e-18
0.00262501
-2.7864e-17
0.00262501
4.9528e-15
0.00262501
-2.85686e-13
0.00262501
-9.78188e-12
0.00262491
-3.43648e-09
0.00261894
-2.85906e-07
0.00249795
-2.37593e-05
0.00246596
-1.34771e-05
0.00224251
0.000238646
0.00211142
0.000141354
0.00206461
4.34733e-05
0.00206397
-1.25951e-05
0.00207228
-2.33423e-05
0.00207076
-1.09413e-05
0.00204917
1.13198e-05
0.00199473
5.09451e-05
0.0019193
8.09675e-05
0.00185138
7.9684e-05
0.00180975
5.5375e-05
0.00177972
4.19913e-05
0.00173977
4.88921e-05
0.00168205
6.36484e-05
0.00161295
7.21219e-05
0.00154641
6.70718e-05
0.00148941
5.59709e-05
0.00144283
4.54232e-05
0.00140178
4.10065e-05
0.00135419
4.93579e-05
0.00128971
6.77205e-05
0.00120464
8.86646e-05
0.00110546
0.000101976
0.00100622
0.000100279
0.000918338
8.65345e-05
0.000843037
7.13471e-05
0.000774315
6.26031e-05
0.000706023
6.08869e-05
0.000633602
6.45378e-05
0.000554934
7.08324e-05
0.000471089
7.64256e-05
0.000385772
7.87435e-05
0.00030342
7.70513e-05
0.000227147
7.24927e-05
0.000159008
6.59876e-05
0.000100181
5.87455e-05
5.41064e-05
4.87083e-05
2.04327e-05
3.88593e-05
2.69139e-05
0.00262501
3.25261e-19
0.00262501
-1.0842e-19
0.00262501
2.00577e-18
0.00262501
-4.87891e-19
0.00262501
-1.19262e-18
0.00262501
1.02999e-18
0.00262501
1.24683e-18
0.00262501
9.21572e-19
0.00262501
4.33681e-19
0.00262501
1.40946e-18
0.00262501
5.42101e-20
0.00262501
1.19262e-18
0.00262501
9.21572e-19
0.00262501
9.21572e-19
0.00262501
1.0842e-19
0.00262501
-4.87891e-19
0.00262501
5.96311e-19
0.00262501
-1.0842e-18
0.00262501
2.1684e-19
0.00262501
1.57209e-18
0.00262501
4.87891e-19
0.00262501
-1.0842e-18
0.00262501
-1.6263e-18
0.00262501
-3.25261e-19
0.00262501
1.6263e-19
0.00262501
-4.33681e-19
0.00262501
3.25261e-19
0.00262501
-1.73472e-18
0.00262501
1.0842e-18
0.00262501
7.58942e-19
0.00262501
2.00577e-18
0.00262501
4.33681e-19
0.00262501
1.13841e-18
0.00262501
9.21572e-19
0.00262501
-1.0842e-19
0.00262501
3.79471e-19
0.00262501
2.1684e-19
0.00262501
-3.25261e-19
0.00262501
-4.87891e-19
0.00262501
-1.68051e-18
0.00262501
-9.75782e-19
0.00262501
-1.0842e-18
0.00262501
-8.67362e-19
0.00262501
-1.68051e-18
0.00262501
3.25261e-19
0.00262501
5.42101e-20
0.00262501
5.42101e-19
0.00262501
3.63208e-18
0.00262501
4.06576e-18
0.00262501
9.28077e-17
0.00262501
1.43513e-14
0.00262501
4.77344e-13
0.00262501
5.27763e-11
0.00262489
2.17951e-09
0.00261778
1.89168e-07
0.00242473
1.4701e-05
0.00242971
-3.37791e-05
0.00233968
0.000341794
0.00221787
0.000265052
0.00212231
0.000132475
0.0020838
1.15466e-05
0.00206721
-2.52886e-05
0.00205214
-1.18258e-05
0.00202391
3.10613e-05
0.00197915
9.52129e-05
0.0019204
0.000146133
0.00186345
0.000148243
0.0018152
0.000116648
0.00177605
9.24718e-05
0.00173501
9.83544e-05
0.00168701
0.000117474
0.00163561
0.00012691
0.00158256
0.000121016
0.00152576
0.000111959
0.00146543
0.00010462
0.00140424
0.000102043
0.00134026
0.000114652
0.00126763
0.000143093
0.00118477
0.000174972
0.00109718
0.000192582
0.00101342
0.000185427
0.000936999
0.000161815
0.000865191
0.000139327
0.000794173
0.000127613
0.000721479
0.000126231
0.000645265
0.00013285
0.000564653
0.000143576
0.0004808
0.000152906
0.000396625
0.000156504
0.000315517
0.000153095
0.000240024
0.000144474
0.000172199
0.000131909
0.000113261
0.000117765
6.62609e-05
9.83485e-05
2.91609e-05
8.10422e-05
6.24381e-05
0.00262501
0
0.00262501
2.49366e-18
0.00262501
-8.13152e-19
0.00262501
1.0842e-18
0.00262501
1.6263e-19
0.00262501
-7.58942e-19
0.00262501
-3.25261e-19
0.00262501
-3.25261e-19
0.00262501
-5.42101e-20
0.00262501
4.87891e-19
0.00262501
7.04731e-19
0.00262501
4.33681e-19
0.00262501
1.57209e-18
0.00262501
1.35525e-18
0.00262501
-1.57209e-18
0.00262501
0
0.00262501
1.51788e-18
0.00262501
-4.87891e-19
0.00262501
-4.33681e-19
0.00262501
-9.75782e-19
0.00262501
-3.79471e-19
0.00262501
1.68051e-18
0.00262501
-2.1684e-19
0.00262501
1.35525e-18
0.00262501
1.30104e-18
0.00262501
-1.6263e-19
0.00262501
2.71051e-19
0.00262501
-1.6263e-19
0.00262501
5.42101e-19
0.00262501
5.42101e-20
0.00262501
5.42101e-19
0.00262501
1.84314e-18
0.00262501
1.78893e-18
0.00262501
1.84314e-18
0.00262501
3.79471e-19
0.00262501
3.25261e-19
0.00262501
4.87891e-19
0.00262501
1.6263e-19
0.00262501
1.6263e-19
0.00262501
5.42101e-19
0.00262501
-6.50521e-19
0.00262501
-4.87891e-19
0.00262501
-7.04731e-19
0.00262501
-2.71051e-19
0.00262501
-7.58942e-19
0.00262501
7.58942e-19
0.00262501
6.50521e-19
0.00262501
-7.04731e-19
0.00262501
3.68629e-18
0.00262501
1.88272e-16
0.00262501
1.58986e-14
0.00262501
8.34785e-13
0.00262501
5.73608e-11
0.0026249
4.14387e-09
0.00261818
1.69344e-07
0.00242648
5.36791e-05
0.00244454
-4.92466e-05
0.00240333
0.000399651
0.00230047
0.000365782
0.00217865
0.000246409
0.00209143
8.28161e-05
0.00204796
-5.55714e-06
0.00202073
-1.08442e-06
0.0019921
5.1596e-05
0.00194734
0.000141544
0.00189246
0.000207461
0.00184122
0.000211279
0.00179642
0.0001746
0.00175816
0.000141438
0.00172179
0.000142875
0.00168212
0.000162801
0.00163905
0.000173356
0.00158959
0.000171349
0.00153019
0.000170623
0.00146133
0.000172248
0.00138737
0.000175337
0.00131311
0.000189626
0.00123991
0.000218714
0.00116829
0.000250228
0.00110103
0.000263373
0.00103797
0.000250431
0.000974204
0.000224877
0.00090623
0.000203778
0.000833586
0.000194348
0.000757616
0.00019477
0.000679108
0.000203258
0.000598275
0.000216364
0.000515973
0.00022783
0.000433967
0.000232307
0.00035425
0.000228118
0.000278427
0.000217225
0.000208296
0.00020053
0.000144967
0.000181391
9.11795e-05
0.000154709
4.37399e-05
0.000133317
0.000112313
0.00262501
4.33681e-19
0.00262501
-3.25261e-19
0.00262501
5.96311e-19
0.00262501
-2.05998e-18
0.00262501
-5.42101e-19
0.00262501
-1.30104e-18
0.00262501
-1.46367e-18
0.00262501
-2.71051e-19
0.00262501
1.35525e-18
0.00262501
2.98156e-18
0.00262501
2.33103e-18
0.00262501
2.54788e-18
0.00262501
1.30104e-18
0.00262501
1.13841e-18
0.00262501
2.6563e-18
0.00262501
1.6263e-19
0.00262501
4.33681e-19
0.00262501
1.0842e-19
0.00262501
-1.0842e-19
0.00262501
1.0842e-19
0.00262501
4.87891e-19
0.00262501
3.41524e-18
0.00262501
1.35525e-18
0.00262501
1.13841e-18
0.00262501
3.25261e-19
0.00262501
3.25261e-19
0.00262501
4.33681e-19
0.00262501
-3.03577e-18
0.00262501
-3.14419e-18
0.00262501
-2.49366e-18
0.00262501
1.6263e-18
0.00262501
1.19262e-18
0.00262501
-1.0842e-18
0.00262501
9.21572e-19
0.00262501
1.19262e-18
0.00262501
1.95156e-18
0.00262501
1.35525e-18
0.00262501
2.11419e-18
0.00262501
5.96311e-19
0.00262501
-2.71051e-19
0.00262501
-1.02999e-18
0.00262501
-2.71051e-19
0.00262501
-6.50521e-19
0.00262501
6.50521e-19
0.00262501
2.76472e-18
0.00262501
5.42101e-20
0.00262501
-6.50521e-19
0.00262501
2.43945e-18
0.00262501
7.48099e-18
0.00262501
3.43529e-16
0.00262501
2.5739e-14
0.00262501
1.59613e-12
0.00262501
1.11946e-10
0.0026249
8.45088e-09
0.00261832
4.92438e-07
0.00243226
9.28422e-05
0.00237726
-5.28403e-06
0.00235143
0.000431768
0.00231964
0.000401802
0.00225706
0.000306201
0.00217813
0.000148749
0.00210592
4.41291e-05
0.0020478
3.95879e-05
0.0019913
0.000101827
0.00193238
0.000203341
0.00187505
0.00027133
0.00183003
0.000268493
0.00179123
0.000226848
0.00175241
0.000190797
0.00171221
0.000190724
0.00166844
0.000211329
0.00162196
0.000222498
0.00157054
0.00022318
0.00150942
0.000230614
0.00143737
0.000242797
0.00135986
0.00025193
0.0012856
0.00026434
0.00121981
0.00028709
0.00116303
0.000311096
0.00111323
0.000317259
0.00106246
0.000303556
0.00100355
0.000283403
0.000934311
0.000269616
0.000857569
0.000265146
0.000778071
0.000266684
0.000698925
0.000274103
0.00062057
0.000286547
0.000542302
0.000298786
0.000463795
0.000304896
0.000385526
0.000302137
0.000308642
0.000291527
0.000235035
0.000273035
0.000166336
0.000250554
0.000105648
0.000217832
5.07523e-05
0.000192723
0.0001689
0.00262501
-8.67362e-19
0.00262501
-3.25261e-19
0.00262501
2.1684e-19
0.00262501
4.87891e-19
0.00262501
-1.0842e-19
0.00262501
-5.42101e-20
0.00262501
-1.6263e-19
0.00262501
7.58942e-19
0.00262501
1.0842e-19
0.00262501
-4.33681e-19
0.00262501
2.1684e-19
0.00262501
2.1684e-19
0.00262501
-2.71051e-19
0.00262501
5.42101e-19
0.00262501
1.13841e-18
0.00262501
2.05998e-18
0.00262501
4.33681e-19
0.00262501
-1.51788e-18
0.00262501
-6.50521e-19
0.00262501
1.78893e-18
0.00262501
5.96311e-19
0.00262501
5.96311e-19
0.00262501
9.75782e-19
0.00262501
-8.67362e-19
0.00262501
-2.1684e-19
0.00262501
3.79471e-19
0.00262501
-1.68051e-18
0.00262501
5.42101e-20
0.00262501
-7.58942e-19
0.00262501
8.67362e-19
0.00262501
1.0842e-19
0.00262501
4.33681e-19
0.00262501
2.60209e-18
0.00262501
1.57209e-18
0.00262501
6.50521e-19
0.00262501
4.87891e-19
0.00262501
-1.30104e-18
0.00262501
4.33681e-19
0.00262501
-1.13841e-18
0.00262501
1.24683e-18
0.00262501
1.13841e-18
0.00262501
-5.42101e-19
0.00262501
1.40946e-18
0.00262501
1.0842e-19
0.00262501
2.11419e-18
0.00262501
1.35525e-18
0.00262501
2.05998e-18
0.00262501
1.73472e-18
0.00262501
9.92045e-18
0.00262501
5.26001e-16
0.00262501
3.11923e-14
0.00262501
2.21673e-12
0.00262501
1.24117e-10
0.00262491
9.82809e-09
0.00261931
4.64813e-07
0.00246276
0.000110138
0.00230698
0.00012575
0.00228522
0.00045031
0.0022922
0.000403716
0.00228834
0.000311923
0.00224528
0.000181165
0.00216971
9.71894e-05
0.00209063
0.000100285
0.00201169
0.000174426
0.00193684
0.000281564
0.00187759
0.000337297
0.001838
0.000320731
0.00180434
0.000274266
0.00176427
0.000241237
0.00171523
0.000246591
0.00165955
0.000270558
0.00160186
0.000281622
0.0015433
0.000281165
0.00148031
0.000291841
0.00141037
0.000310849
0.00133692
0.000324379
0.00126843
0.000333459
0.00121148
0.000347049
0.00116599
0.000361112
0.00112525
0.00036257
0.00107951
0.000352015
0.00102277
0.000340022
0.00095466
0.000334446
0.000878976
0.000334862
0.000801037
0.000336884
0.000724426
0.000342206
0.000649493
0.000353171
0.000574648
0.000366341
0.000498534
0.000375305
0.000421028
0.000375753
0.000343146
0.000367247
0.000266508
0.000348923
0.000192694
0.000324954
0.000124894
0.000287894
6.10862e-05
0.000260691
0.000235478
0.00262501
1.02999e-18
0.00262501
0
0.00262501
-1.6263e-19
0.00262501
0
0.00262501
2.1684e-19
0.00262501
1.73472e-18
0.00262501
1.78893e-18
0.00262501
9.75782e-19
0.00262501
-7.58942e-19
0.00262501
-6.50521e-19
0.00262501
-1.30104e-18
0.00262501
-1.78893e-18
0.00262501
-9.21572e-19
0.00262501
0
0.00262501
1.57209e-18
0.00262501
8.67362e-19
0.00262501
-8.13152e-19
0.00262501
-1.6263e-19
0.00262501
3.79471e-19
0.00262501
-7.58942e-19
0.00262501
2.81893e-18
0.00262501
5.42101e-19
0.00262501
-1.68051e-18
0.00262501
-6.50521e-19
0.00262501
-2.54788e-18
0.00262501
-2.05998e-18
0.00262501
-2.11419e-18
0.00262501
-1.24683e-18
0.00262501
-1.24683e-18
0.00262501
-8.67362e-19
0.00262501
1.0842e-19
0.00262501
1.73472e-18
0.00262501
-9.75782e-19
0.00262501
9.75782e-19
0.00262501
3.14419e-18
0.00262501
-2.1684e-19
0.00262501
7.58942e-19
0.00262501
1.6263e-19
0.00262501
-7.58942e-19
0.00262501
-3.14419e-18
0.00262501
5.42101e-20
0.00262501
5.96311e-19
0.00262501
2.1684e-19
0.00262501
1.6263e-18
0.00262501
7.04731e-19
0.00262501
1.78893e-18
0.00262501
1.40946e-18
0.00262501
2.11419e-18
0.00262501
1.27936e-17
0.00262501
6.56268e-16
0.00262501
3.53215e-14
0.00262501
2.58249e-12
0.00262501
1.33127e-10
0.00262492
1.0572e-08
0.00261961
5.0879e-07
0.00248239
0.000112519
0.00229394
0.000276864
0.0022613
0.000478984
0.00227776
0.000399807
0.00229724
0.000297731
0.00227391
0.000191824
0.00220593
0.000143758
0.00211971
0.00016954
0.00202869
0.000260944
0.00194748
0.000367156
0.00189108
0.000401812
0.00185375
0.000371529
0.00182096
0.000320853
0.00177818
0.000294029
0.00172249
0.000308102
0.00165705
0.000338188
0.00158887
0.000349851
0.00152199
0.00034632
0.00145593
0.000355433
0.00138846
0.000376116
0.00132116
0.000390763
0.00125952
0.000396068
0.00120893
0.000401045
0.00116875
0.000406315
0.00113069
0.000405496
0.0010859
0.000399791
0.00103045
0.000395496
0.000964718
0.00039694
0.000892241
0.000401319
0.000817601
0.000403639
0.000743967
0.000407149
0.000671664
0.000417027
0.000598938
0.000431747
0.000524172
0.000444475
0.000447135
0.000449139
0.00036875
0.000443773
0.000290084
0.000427094
0.00021245
0.00040323
0.000139064
0.000363326
6.85033e-05
0.000335006
0.000309057
0.00262501
-2.71051e-19
0.00262501
5.42101e-20
0.00262501
-5.96311e-19
0.00262501
5.96311e-19
0.00262501
1.0842e-18
0.00262501
4.87891e-19
0.00262501
4.87891e-19
0.00262501
-9.21572e-19
0.00262501
-7.04731e-19
0.00262501
-1.24683e-18
0.00262501
-1.35525e-18
0.00262501
-1.24683e-18
0.00262501
-2.11419e-18
0.00262501
2.1684e-18
0.00262501
-2.1684e-19
0.00262501
0
0.00262501
6.50521e-19
0.00262501
1.46367e-18
0.00262501
7.58942e-19
0.00262501
5.42101e-19
0.00262501
-1.02999e-18
0.00262501
-8.67362e-19
0.00262501
-1.35525e-18
0.00262501
-1.68051e-18
0.00262501
-6.50521e-19
0.00262501
-2.71051e-18
0.00262501
-1.84314e-18
0.00262501
-2.38524e-18
0.00262501
-1.46367e-18
0.00262501
-1.51788e-18
0.00262501
-1.78893e-18
0.00262501
-1.84314e-18
0.00262501
9.75782e-19
0.00262501
-5.42101e-20
0.00262501
-1.73472e-18
0.00262501
-1.95156e-18
0.00262501
-7.04731e-19
0.00262501
-1.89735e-18
0.00262501
-1.0842e-19
0.00262501
3.25261e-19
0.00262501
-2.1684e-19
0.00262501
5.42101e-20
0.00262501
1.0842e-19
0.00262501
3.25261e-19
0.00262501
-8.13152e-19
0.00262501
1.02999e-18
0.00262501
3.14419e-18
0.00262501
3.30682e-18
0.00262501
1.25225e-17
0.00262501
7.54008e-16
0.00262501
4.08759e-14
0.00262501
2.95361e-12
0.00262501
1.4854e-10
0.00262492
1.15826e-08
0.00261969
5.5668e-07
0.00248069
0.000116132
0.00230136
0.000416249
0.00226407
0.000512954
0.00228603
0.000394613
0.00230767
0.000280708
0.00228292
0.000201309
0.00221657
0.000189799
0.00213188
0.000241003
0.00203944
0.000352865
0.00195869
0.000453453
0.00190294
0.00046794
0.00186303
0.000425778
0.00182499
0.000372017
0.00177657
0.000351759
0.00171628
0.000373068
0.00164757
0.000407632
0.00157728
0.000418906
0.00150908
0.000411841
0.00144377
0.00041783
0.00138013
0.0004375
0.00131883
0.000451318
0.00126257
0.000453647
0.00121496
0.0004525
0.00117497
0.000451726
0.00113505
0.00045053
0.00108842
0.000449568
0.00103276
0.000451235
0.000968904
0.000457554
0.000899619
0.000464519
0.000828117
0.000467135
0.000756762
0.000469672
0.000686112
0.000479121
0.000614847
0.00049565
0.000541471
0.000512306
0.000465668
0.000521439
0.000388008
0.00051977
0.000308707
0.000506054
0.000228619
0.000483928
0.000150868
0.000442842
7.46607e-05
0.000414513
0.000388332
0.00262501
-1.0842e-19
0.00262501
-1.19262e-18
0.00262501
8.67362e-19
0.00262501
1.35525e-18
0.00262501
8.67362e-19
0.00262501
1.46367e-18
0.00262501
3.25261e-19
0.00262501
-5.42101e-19
0.00262501
-1.19262e-18
0.00262501
0
0.00262501
3.79471e-19
0.00262501
1.13841e-18
0.00262501
4.87891e-19
0.00262501
6.50521e-19
0.00262501
1.78893e-18
0.00262501
1.30104e-18
0.00262501
8.13152e-19
0.00262501
1.0842e-19
0.00262501
8.13152e-19
0.00262501
-2.27682e-18
0.00262501
-1.02999e-18
0.00262501
-1.73472e-18
0.00262501
-2.27682e-18
0.00262501
-1.13841e-18
0.00262501
-2.87314e-18
0.00262501
-2.00577e-18
0.00262501
-8.67362e-19
0.00262501
1.6263e-19
0.00262501
1.6263e-19
0.00262501
5.42101e-20
0.00262501
1.02999e-18
0.00262501
8.13152e-19
0.00262501
-4.87891e-19
0.00262501
-6.50521e-19
0.00262501
5.96311e-19
0.00262501
-2.71051e-19
0.00262501
5.42101e-19
0.00262501
0
0.00262501
-2.43945e-18
0.00262501
-1.0842e-19
0.00262501
-1.0842e-19
0.00262501
-5.42101e-20
0.00262501
-2.71051e-19
0.00262501
-1.0842e-19
0.00262501
2.38524e-18
0.00262501
2.43945e-18
0.00262501
2.98156e-18
0.00262501
3.1984e-18
0.00262501
1.52873e-17
0.00262501
8.57062e-16
0.00262501
4.93594e-14
0.00262501
3.41163e-12
0.00262501
1.8105e-10
0.00262492
1.36234e-08
0.00261945
6.76194e-07
0.00246415
0.00013009
0.00231544
0.000525026
0.00229162
0.000534044
0.00231759
0.000387782
0.0023276
0.000273396
0.0022928
0.000219659
0.00222462
0.000238673
0.00213696
0.00031961
0.00204476
0.000449015
0.00196729
0.00053794
0.00191217
0.000535234
0.00187001
0.000483009
0.00182745
0.000426935
0.00177635
0.000411307
0.00171619
0.000436824
0.00164945
0.00047363
0.00158146
0.000484367
0.00151493
0.000474958
0.00145153
0.000478097
0.00139113
0.000495753
0.00133387
0.000508159
0.00128025
0.000509064
0.00123213
0.000504896
0.00118845
0.000501094
0.00114368
0.000500554
0.00109307
0.000503344
0.00103534
0.00050899
0.000971515
0.000518056
0.000903515
0.00052635
0.000833175
0.000529378
0.00076214
0.000531796
0.000691436
0.000541221
0.000620518
0.000559197
0.000548191
0.000579136
0.000473979
0.000592255
0.000397906
0.000594311
0.000319264
0.000584429
0.000238511
0.000565193
0.000158402
0.00052439
7.86944e-05
0.000497036
0.000471148
0.00262501
-5.42101e-20
0.00262501
-4.33681e-19
0.00262501
2.71051e-19
0.00262501
1.6263e-19
0.00262501
3.25261e-19
0.00262501
-1.6263e-18
0.00262501
-3.79471e-19
0.00262501
1.13841e-18
0.00262501
1.19262e-18
0.00262501
1.30104e-18
0.00262501
2.1684e-18
0.00262501
5.42101e-20
0.00262501
1.6263e-18
0.00262501
1.68051e-18
0.00262501
-5.42101e-19
0.00262501
1.6263e-18
0.00262501
8.67362e-19
0.00262501
8.13152e-19
0.00262501
9.21572e-19
0.00262501
1.0842e-19
0.00262501
-1.68051e-18
0.00262501
-2.11419e-18
0.00262501
-9.21572e-19
0.00262501
-1.0842e-18
0.00262501
-1.0842e-19
0.00262501
-2.1684e-19
0.00262501
-1.95156e-18
0.00262501
-2.71051e-18
0.00262501
-3.79471e-19
0.00262501
7.58942e-19
0.00262501
6.50521e-19
0.00262501
2.00577e-18
0.00262501
2.49366e-18
0.00262501
3.03577e-18
0.00262501
2.11419e-18
0.00262501
1.24683e-18
0.00262501
6.50521e-19
0.00262501
9.75782e-19
0.00262501
3.52366e-18
0.00262501
1.30104e-18
0.00262501
5.96311e-19
0.00262501
3.79471e-19
0.00262501
1.02999e-18
0.00262501
1.13841e-18
0.00262501
8.13152e-19
0.00262501
7.58942e-19
0.00262501
1.51788e-18
0.00262501
1.51788e-18
0.00262501
1.45283e-17
0.00262501
9.25421e-16
0.00262501
5.83289e-14
0.00262501
3.86495e-12
0.00262501
2.27044e-10
0.00262491
1.60688e-08
0.00261906
8.57565e-07
0.00244741
0.000150775
0.00235101
0.000581751
0.00235505
0.000542028
0.00237646
0.000386054
0.00236093
0.000283549
0.0023081
0.000256302
0.00223088
0.000300577
0.00213746
0.000409069
0.0020448
0.000548538
0.00197234
0.000619029
0.00192113
0.000599765
0.00188171
0.000538142
0.00184014
0.000480271
0.00179119
0.000467782
0.00173473
0.000495615
0.00167166
0.000534331
0.00160565
0.000546595
0.00153968
0.000536893
0.00147647
0.000538075
0.00141703
0.000553338
0.00136114
0.000564097
0.00130776
0.000564733
0.00125722
0.000560014
0.00120863
0.00055546
0.00115846
0.000555938
0.00110341
0.000561406
0.00104271
0.000569541
0.000977345
0.000579959
0.000908472
0.000588959
0.000836934
0.000592777
0.000763996
0.000595834
0.000691331
0.000605329
0.000619405
0.000623829
0.000547493
0.000645651
0.000474918
0.000661545
0.000400994
0.000666792
0.000324037
0.000661126
0.000244039
0.000645542
0.000163024
0.000606478
8.1325e-05
0.000581051
0.000556098
0.00262501
4.87891e-19
0.00262501
7.58942e-19
0.00262501
-2.43945e-18
0.00262501
-8.13152e-19
0.00262501
-2.71051e-19
0.00262501
3.79471e-19
0.00262501
3.79471e-19
0.00262501
-2.1684e-19
0.00262501
-5.96311e-19
0.00262501
-4.87891e-19
0.00262501
-4.87891e-19
0.00262501
-1.19262e-18
0.00262501
-8.67362e-19
0.00262501
6.50521e-19
0.00262501
9.75782e-19
0.00262501
-3.79471e-19
0.00262501
0
0.00262501
2.71051e-19
0.00262501
2.71051e-19
0.00262501
-2.1684e-19
0.00262501
1.30104e-18
0.00262501
9.75782e-19
0.00262501
8.13152e-19
0.00262501
2.00577e-18
0.00262501
2.1684e-19
0.00262501
-5.96311e-19
0.00262501
1.6263e-18
0.00262501
5.42101e-19
0.00262501
3.79471e-19
0.00262501
1.46367e-18
0.00262501
1.19262e-18
0.00262501
2.05998e-18
0.00262501
1.02999e-18
0.00262501
8.13152e-19
0.00262501
1.46367e-18
0.00262501
2.33103e-18
0.00262501
2.1684e-18
0.00262501
1.68051e-18
0.00262501
1.78893e-18
0.00262501
3.79471e-19
0.00262501
1.24683e-18
0.00262501
1.73472e-18
0.00262501
4.87891e-19
0.00262501
-1.0842e-18
0.00262501
-1.19262e-18
0.00262501
5.42101e-20
0.00262501
-1.40946e-18
0.00262501
9.21572e-19
0.00262501
1.50704e-17
0.00262501
8.96202e-16
0.00262501
6.1024e-14
0.00262501
4.07806e-12
0.00262501
2.65837e-10
0.00262491
1.76446e-08
0.00261886
1.04556e-06
0.00244924
0.000159526
0.00241769
0.000578478
0.00243468
0.000550469
0.00244179
0.000394887
0.0023984
0.00031508
0.00232909
0.000310223
0.00224048
0.000378719
0.00213867
0.000512428
0.0020423
0.00065294
0.00197544
0.000695458
0.00193145
0.000657915
0.00189963
0.000586116
0.0018635
0.000527389
0.00181942
0.000518138
0.00176718
0.000548538
0.00170591
0.000591397
0.00163914
0.000608286
0.00157171
0.000599749
0.00150763
0.000598972
0.00144862
0.000610951
0.00139384
0.000619511
0.00134073
0.000620613
0.00128814
0.000617359
0.00123525
0.000614046
0.00118004
0.000616112
0.00112039
0.000623754
0.00105589
0.000633582
0.000987508
0.000644655
0.000915886
0.000654202
0.000841268
0.000659255
0.000764771
0.000663528
0.000688645
0.000673051
0.000614366
0.000690995
0.000541786
0.000713008
0.000470131
0.000730059
0.000398084
0.000737479
0.00032315
0.000735781
0.000244882
0.000723982
0.000164239
0.000687829
8.21713e-05
0.000664941
0.000641397
0.00262501
1.0842e-19
0.00262501
-2.71051e-19
0.00262501
2.33103e-18
0.00262501
9.21572e-19
0.00262501
-1.0842e-19
0.00262501
-1.6263e-19
0.00262501
-5.96311e-19
0.00262501
-8.67362e-19
0.00262501
-2.1684e-19
0.00262501
-4.33681e-19
0.00262501
-1.02999e-18
0.00262501
2.1684e-19
0.00262501
5.42101e-20
0.00262501
-8.67362e-19
0.00262501
-1.6263e-19
0.00262501
-7.58942e-19
0.00262501
-5.42101e-19
0.00262501
1.35525e-18
0.00262501
1.95156e-18
0.00262501
-1.24683e-18
0.00262501
-1.78893e-18
0.00262501
-6.50521e-19
0.00262501
6.50521e-19
0.00262501
-8.13152e-19
0.00262501
1.19262e-18
0.00262501
2.76472e-18
0.00262501
7.58942e-19
0.00262501
1.89735e-18
0.00262501
3.25261e-18
0.00262501
4.33681e-19
0.00262501
3.79471e-19
0.00262501
3.25261e-19
0.00262501
5.96311e-19
0.00262501
1.46367e-18
0.00262501
1.0842e-18
0.00262501
-1.13841e-18
0.00262501
5.42101e-20
0.00262501
1.0842e-18
0.00262501
-4.33681e-19
0.00262501
6.50521e-19
0.00262501
-1.35525e-18
0.00262501
-1.57209e-18
0.00262501
-1.24683e-18
0.00262501
8.67362e-19
0.00262501
1.6263e-19
0.00262501
-1.0842e-18
0.00262501
2.6563e-18
0.00262501
9.21572e-19
0.00262501
9.86624e-18
0.00262501
6.2244e-16
0.00262501
4.58606e-14
0.00262501
3.32219e-12
0.00262501
2.3721e-10
0.00262492
1.69313e-08
0.00261905
1.19147e-06
0.00247056
0.000139608
0.00249043
0.0005127
0.00250692
0.000570602
0.00249155
0.000408056
0.00242571
0.000365038
0.00234703
0.00037504
0.00224516
0.000473357
0.00212984
0.000632353
0.00203295
0.000756447
0.00197665
0.000762397
0.00194406
0.00070553
0.00192268
0.000623608
0.00189306
0.000566512
0.00185333
0.000562213
0.00180296
0.000597328
0.00174064
0.000647507
0.00167192
0.000670839
0.00160363
0.000663227
0.0015401
0.000659689
0.00148251
0.000667841
0.00142899
0.000674349
0.0013759
0.000676893
0.00132122
0.000676826
0.00126428
0.000676399
0.00120423
0.000680669
0.00113991
0.000690244
0.00107132
0.000701254
0.000999408
0.000712554
0.000924499
0.000722591
0.000846466
0.000729194
0.000766311
0.000735074
0.000686612
0.000744618
0.000609633
0.000761151
0.000535785
0.000781889
0.000464296
0.000798593
0.00039347
0.00080704
0.000320285
0.000808678
0.000243911
0.000800381
0.000163974
0.000768144
8.21614e-05
0.000748096
0.000726177
0.00262501
-2.71051e-19
0.00262501
1.6263e-19
0.00262501
4.87891e-19
0.00262501
2.1684e-19
0.00262501
2.71051e-19
0.00262501
-1.51788e-18
0.00262501
-9.21572e-19
0.00262501
-5.42101e-19
0.00262501
-1.6263e-19
0.00262501
1.0842e-19
0.00262501
3.25261e-19
0.00262501
2.05998e-18
0.00262501
9.21572e-19
0.00262501
1.13841e-18
0.00262501
-2.38524e-18
0.00262501
1.0842e-19
0.00262501
0
0.00262501
-1.40946e-18
0.00262501
-1.6263e-18
0.00262501
2.71051e-19
0.00262501
-2.71051e-19
0.00262501
-3.79471e-19
0.00262501
0
0.00262501
-3.25261e-19
0.00262501
-3.25261e-19
0.00262501
3.25261e-19
0.00262501
9.75782e-19
0.00262501
2.33103e-18
0.00262501
5.96311e-19
0.00262501
2.71051e-19
0.00262501
-3.25261e-19
0.00262501
4.87891e-19
0.00262501
2.54788e-18
0.00262501
-9.75782e-19
0.00262501
1.0842e-18
0.00262501
1.35525e-18
0.00262501
2.00577e-18
0.00262501
8.13152e-19
0.00262501
1.02999e-18
0.00262501
6.50521e-19
0.00262501
5.42101e-20
0.00262501
-1.6263e-19
0.00262501
0
0.00262501
-1.13841e-18
0.00262501
-2.05998e-18
0.00262501
-4.87891e-19
0.00262501
-1.51788e-18
0.00262501
-1.19262e-18
0.00262501
2.49366e-18
0.00262501
2.12504e-16
0.00262501
1.9768e-14
0.00262501
1.51309e-12
0.00262501
1.30728e-10
0.00262496
1.10483e-08
0.00262139
8.98862e-07
0.00255999
6.26627e-05
0.0025373
0.000446291
0.00254483
0.000591028
0.00251132
0.000419047
0.00243753
0.000415565
0.00235084
0.000449579
0.00222874
0.000590845
0.00210232
0.000763903
0.00201989
0.000843493
0.00197979
0.000815446
0.00196217
0.000739324
0.00195069
0.000650349
0.00192558
0.000598976
0.00188718
0.000602113
0.00183454
0.000645645
0.00176823
0.00070579
0.00169764
0.00073463
0.00163006
0.000726102
0.00156849
0.000719033
0.00151259
0.00072384
0.00145965
0.000729261
0.0014059
0.000734129
0.00134915
0.000738253
0.0012889
0.000741629
0.00122503
0.000748426
0.00115706
0.000759717
0.00108527
0.000771557
0.00101056
0.000782878
0.000933024
0.000793485
0.000852289
0.00080195
0.000769237
0.000809809
0.000686554
0.000819548
0.000607055
0.00083421
0.000531621
0.000852679
0.000459539
0.000867952
0.000389047
0.000876411
0.000316939
0.000880552
0.000242156
0.000875111
0.000162793
0.000847605
8.15211e-05
0.000830242
0.000809777
0.00262501
1.6263e-19
0.00262501
6.50521e-19
0.00262501
-1.13841e-18
0.00262501
-1.57209e-18
0.00262501
-1.19262e-18
0.00262501
-8.13152e-19
0.00262501
3.79471e-19
0.00262501
-5.96311e-19
0.00262501
-8.67362e-19
0.00262501
4.33681e-19
0.00262501
-2.71051e-19
0.00262501
-5.96311e-19
0.00262501
0
0.00262501
-8.13152e-19
0.00262501
-2.1684e-19
0.00262501
-1.6263e-19
0.00262501
7.58942e-19
0.00262501
-5.96311e-19
0.00262501
-1.6263e-19
0.00262501
-4.33681e-19
0.00262501
-8.13152e-19
0.00262501
-7.04731e-19
0.00262501
-2.54788e-18
0.00262501
2.71051e-19
0.00262501
-8.13152e-19
0.00262501
-1.13841e-18
0.00262501
0
0.00262501
-5.96311e-19
0.00262501
-6.50521e-19
0.00262501
-6.50521e-19
0.00262501
5.42101e-20
0.00262501
-4.33681e-19
0.00262501
-1.30104e-18
0.00262501
1.78893e-18
0.00262501
2.27682e-18
0.00262501
1.78893e-18
0.00262501
9.21572e-19
0.00262501
1.35525e-18
0.00262501
5.42101e-20
0.00262501
2.71051e-19
0.00262501
2.76472e-18
0.00262501
1.89735e-18
0.00262501
-2.1684e-19
0.00262501
7.04731e-19
0.00262501
-2.1684e-19
0.00262501
-3.25261e-18
0.00262501
-2.05998e-18
0.00262501
-1.73472e-18
0.00262501
-4.33681e-19
0.00262501
1.73472e-18
0.00262501
2.72633e-15
0.00262501
4.63638e-14
0.00262501
1.2582e-11
0.00262501
3.33773e-10
0.00262459
4.66914e-08
0.00263786
3.37811e-06
0.00252727
0.000445119
0.00254507
0.000586115
0.00251624
0.000423435
0.00244596
0.000459251
0.00232857
0.000550642
0.00218006
0.000734495
0.00206272
0.000882339
0.00201099
0.000901921
0.00199082
0.00085056
0.00198887
0.000758219
0.00198274
0.000669133
0.00195861
0.000628195
0.00191691
0.000641859
0.00185674
0.000698638
0.00178378
0.000769367
0.00171214
0.000799398
0.00164684
0.000787144
0.00158805
0.000776382
0.00153358
0.000779234
0.00148047
0.000784908
0.00142569
0.000792588
0.00136736
0.000801074
0.00130508
0.000808382
0.0012391
0.000817623
0.00116928
0.000830348
0.00109595
0.000842823
0.00101989
0.000854209
0.000941018
0.000865641
0.000858845
0.000876333
0.000774128
0.00088658
0.000689508
0.000896869
0.000608124
0.0009096
0.000531209
0.000925322
0.000458099
0.000938624
0.000387208
0.000946399
0.000315359
0.000952289
0.000241475
0.000948893
0.000161953
0.000926968
8.10028e-05
0.000911629
0.000892314
0.00262501
2.1684e-19
0.00262501
-1.35525e-18
0.00262501
-4.33681e-19
0.00262501
-9.75782e-19
0.00262501
1.6263e-19
0.00262501
-7.58942e-19
0.00262501
-1.0842e-18
0.00262501
-1.02999e-18
0.00262501
-1.6263e-19
0.00262501
-1.68051e-18
0.00262501
-1.0842e-18
0.00262501
-1.0842e-18
0.00262501
5.42101e-20
0.00262501
-1.68051e-18
0.00262501
5.96311e-19
0.00262501
-9.21572e-19
0.00262501
-5.42101e-19
0.00262501
-1.6263e-19
0.00262501
4.33681e-19
0.00262501