/*--------------------------------*- C++ -*----------------------------------*\
| =========                 |                                                 |
| \\      /  F ield         | OpenFOAM: The Open Source CFD Toolbox           |
|  \\    /   O peration     | Version:  v1812                                 |
|   \\  /    A nd           | Web:      www.OpenFOAM.com                      |
|    \\/     M anipulation  |                                                 |
\*---------------------------------------------------------------------------*/
FoamFile
{
    version     2.0;
    format      ascii;
    class       volScalarField;
    location    "0.9";
    object      rho;
}
// * * * * * * * * * * * * * * * * * * * * * * * * * * * * * * * * * * * * * //

dimensions      [1 -3 0 0 0 0 0];


internalField   nonuniform List<scalar> 
64512
(
1.40001
1.40001
1.40001
1.40001
1.40001
1.40001
1.40001
1.40001
1.40001
1.40001
1.40001
1.40001
1.40001
1.40001
1.40001
1.40001
1.40001
1.40001
1.40001
1.40001
1.40001
1.40001
1.40001
1.40001
1.40001
1.40001
1.40001
1.40001
1.40001
1.40001
1.40001
1.40001
1.40001
1.40001
1.40001
1.40001
1.40001
1.40001
1.40001
1.40001
1.40001
1.40001
1.40001
1.40001
1.40001
1.40001
1.40001
1.40001
1.40001
1.40001
1.40001
1.40001
1.40002
1.40094
1.46045
3.15877
5.14829
5.45452
5.50106
5.53744
5.56323
5.5824
5.59094
5.59533
5.59829
5.61029
5.63356
5.66553
5.69801
5.72674
5.75225
5.77351
5.79127
5.80627
5.81961
5.83068
5.83821
5.84278
5.8445
5.84413
5.84436
5.84754
5.85368
5.86141
5.86954
5.87619
5.87869
5.87303
5.85298
5.80829
5.72325
5.5846
5.39965
5.21997
5.10289
5.06537
1.40001
1.40001
1.40001
1.40001
1.40001
1.40001
1.40001
1.40001
1.40001
1.40001
1.40001
1.40001
1.40001
1.40001
1.40001
1.40001
1.40001
1.40001
1.40001
1.40001
1.40001
1.40001
1.40001
1.40001
1.40001
1.40001
1.40001
1.40001
1.40001
1.40001
1.40001
1.40001
1.40001
1.40001
1.40001
1.40001
1.40001
1.40001
1.40001
1.40001
1.40001
1.40001
1.40001
1.40001
1.40001
1.40001
1.40001
1.40001
1.40001
1.40001
1.40001
1.40001
1.40002
1.40095
1.46106
3.16434
5.04719
5.45805
5.50783
5.54151
5.56897
5.57612
5.58002
5.58248
5.59297
5.60905
5.63362
5.66426
5.69517
5.72347
5.74899
5.77217
5.79246
5.8088
5.82157
5.83113
5.83702
5.83951
5.84013
5.84035
5.8422
5.84673
5.8534
5.86146
5.86965
5.8761
5.87832
5.8728
5.85378
5.81136
5.72999
5.59584
5.41427
5.23353
5.11095
5.06845
1.40001
1.40001
1.40001
1.40001
1.40001
1.40001
1.40001
1.40001
1.40001
1.40001
1.40001
1.40001
1.40001
1.40001
1.40001
1.40001
1.40001
1.40001
1.40001
1.40001
1.40001
1.40001
1.40001
1.40001
1.40001
1.40001
1.40001
1.40001
1.40001
1.40001
1.40001
1.40001
1.40001
1.40001
1.40001
1.40001
1.40001
1.40001
1.40001
1.40001
1.40001
1.40001
1.40001
1.40001
1.40001
1.40001
1.40001
1.40001
1.40001
1.40001
1.40001
1.40001
1.40002
1.40094
1.46024
3.14048
4.97696
5.47538
5.52601
5.55585
5.57414
5.57514
5.57181
5.57538
5.58828
5.60569
5.63026
5.66125
5.69083
5.71857
5.74402
5.76834
5.78982
5.80717
5.82016
5.82832
5.832
5.83297
5.83377
5.83601
5.84049
5.84684
5.85475
5.8632
5.87098
5.87668
5.87838
5.87332
5.85655
5.81888
5.74526
5.62072
5.4461
5.26285
5.12843
5.07582
1.40001
1.40001
1.40001
1.40001
1.40001
1.40001
1.40001
1.40001
1.40001
1.40001
1.40001
1.40001
1.40001
1.40001
1.40001
1.40001
1.40001
1.40001
1.40001
1.40001
1.40001
1.40001
1.40001
1.40001
1.40001
1.40001
1.40001
1.40001
1.40001
1.40001
1.40001
1.40001
1.40001
1.40001
1.40001
1.40001
1.40001
1.40001
1.40001
1.40001
1.40001
1.40001
1.40001
1.40001
1.40001
1.40001
1.40001
1.40001
1.40001
1.40001
1.40001
1.40001
1.40002
1.40091
1.4583
3.09388
4.92069
5.44705
5.52512
5.56037
5.58237
5.58057
5.57119
5.5709
5.58497
5.60342
5.6284
5.6601
5.68971
5.71657
5.74026
5.76325
5.78439
5.80166
5.81406
5.82132
5.82371
5.82454
5.82704
5.83152
5.83823
5.84601
5.85456
5.86279
5.86984
5.87476
5.87622
5.87214
5.85838
5.82666
5.76265
5.6501
5.48408
5.29769
5.14891
5.08428
1.40001
1.40001
1.40001
1.40001
1.40001
1.40001
1.40001
1.40001
1.40001
1.40001
1.40001
1.40001
1.40001
1.40001
1.40001
1.40001
1.40001
1.40001
1.40001
1.40001
1.40001
1.40001
1.40001
1.40001
1.40001
1.40001
1.40001
1.40001
1.40001
1.40001
1.40001
1.40001
1.40001
1.40001
1.40001
1.40001
1.40001
1.40001
1.40001
1.40001
1.40001
1.40001
1.40001
1.40001
1.40001
1.40001
1.40001
1.40001
1.40001
1.40001
1.40001
1.40001
1.40002
1.40085
1.45452
3.00348
4.91589
5.42306
5.51532
5.56392
5.59381
5.59055
5.57653
5.57282
5.58622
5.6037
5.62937
5.66183
5.69097
5.71665
5.7384
5.75895
5.77801
5.79428
5.80609
5.81298
5.8156
5.81745
5.82156
5.8278
5.83566
5.84442
5.85344
5.86153
5.86798
5.87225
5.87362
5.87057
5.85969
5.83366
5.77917
5.67897
5.52257
5.33439
5.17209
5.09556
1.40001
1.40001
1.40001
1.40001
1.40001
1.40001
1.40001
1.40001
1.40001
1.40001
1.40001
1.40001
1.40001
1.40001
1.40001
1.40001
1.40001
1.40001
1.40001
1.40001
1.40001
1.40001
1.40001
1.40001
1.40001
1.40001
1.40001
1.40001
1.40001
1.40001
1.40001
1.40001
1.40001
1.40001
1.40001
1.40001
1.40001
1.40001
1.40001
1.40001
1.40001
1.40001
1.40001
1.40001
1.40001
1.40001
1.40001
1.40001
1.40001
1.40001
1.40001
1.40001
1.40002
1.40078
1.44985
2.89277
4.92749
5.41139
5.50877
5.56386
5.59641
5.58849
5.57324
5.57112
5.58648
5.60396
5.63162
5.66474
5.69285
5.71708
5.73683
5.75509
5.77215
5.78722
5.7985
5.80532
5.8085
5.81127
5.81651
5.82387
5.8323
5.84149
5.85046
5.85816
5.86406
5.86781
5.86914
5.86696
5.85838
5.83703
5.79069
5.70164
5.55477
5.36642
5.19288
5.10585
1.40001
1.40001
1.40001
1.40001
1.40001
1.40001
1.40001
1.40001
1.40001
1.40001
1.40001
1.40001
1.40001
1.40001
1.40001
1.40001
1.40001
1.40001
1.40001
1.40001
1.40001
1.40001
1.40001
1.40001
1.40001
1.40001
1.40001
1.40001
1.40001
1.40001
1.40001
1.40001
1.40001
1.40001
1.40001
1.40001
1.40001
1.40001
1.40001
1.40001
1.40001
1.40001
1.40001
1.40001
1.40001
1.40001
1.40001
1.40001
1.40001
1.40001
1.40001
1.40001
1.40002
1.40069
1.44463
2.76015
4.90864
5.40369
5.51048
5.56824
5.59024
5.58042
5.56677
5.56891
5.5865
5.60553
5.63435
5.6666
5.6929
5.71515
5.73307
5.74981
5.76586
5.78048
5.79192
5.79895
5.8025
5.80607
5.81235
5.82032
5.829
5.83799
5.84643
5.8535
5.8588
5.86208
5.86336
5.8618
5.85492
5.8371
5.79721
5.71752
5.57956
5.39266
5.21092
5.11547
1.40001
1.40001
1.40001
1.40001
1.40001
1.40001
1.40001
1.40001
1.40001
1.40001
1.40001
1.40001
1.40001
1.40001
1.40001
1.40001
1.40001
1.40001
1.40001
1.40001
1.40001
1.40001
1.40001
1.40001
1.40001
1.40001
1.40001
1.40001
1.40001
1.40001
1.40001
1.40001
1.40001
1.40001
1.40001
1.40001
1.40001
1.40001
1.40001
1.40001
1.40001
1.40001
1.40001
1.40001
1.40001
1.40001
1.40001
1.40001
1.40001
1.40001
1.40001
1.40001
1.40001
1.4006
1.43884
2.608
4.86948
5.40509
5.52005
5.57223
5.58
5.56835
5.5589
5.56724
5.58616
5.60713
5.63684
5.66781
5.6927
5.71336
5.72957
5.74486
5.7602
5.77472
5.78648
5.7939
5.79809
5.80248
5.80926
5.81741
5.8259
5.83421
5.84173
5.84791
5.85244
5.85518
5.85624
5.85497
5.84915
5.83377
5.79859
5.72613
5.59578
5.41122
5.22396
5.12225
1.40001
1.40001
1.40001
1.40001
1.40001
1.40001
1.40001
1.40001
1.40001
1.40001
1.40001
1.40001
1.40001
1.40001
1.40001
1.40001
1.40001
1.40001
1.40001
1.40001
1.40001
1.40001
1.40001
1.40001
1.40001
1.40001
1.40001
1.40001
1.40001
1.40001
1.40001
1.40001
1.40001
1.40001
1.40001
1.40001
1.40001
1.40001
1.40001
1.40001
1.40001
1.40001
1.40001
1.40001
1.40001
1.40001
1.40001
1.40001
1.40001
1.40001
1.40001
1.40001
1.40001
1.40049
1.43214
2.43026
4.81617
5.41234
5.53995
5.57568
5.5715
5.55688
5.55209
5.56664
5.58563
5.60859
5.63909
5.66874
5.69268
5.71223
5.72684
5.74062
5.75548
5.77014
5.78237
5.79042
5.79528
5.80014
5.80687
5.81477
5.82271
5.83007
5.8365
5.84166
5.84536
5.84751
5.84822
5.84695
5.84169
5.82784
5.79591
5.72872
5.60451
5.42263
5.23206
5.1261
1.40001
1.40001
1.40001
1.40001
1.40001
1.40001
1.40001
1.40001
1.40001
1.40001
1.40001
1.40001
1.40001
1.40001
1.40001
1.40001
1.40001
1.40001
1.40001
1.40001
1.40001
1.40001
1.40001
1.40001
1.40001
1.40001
1.40001
1.40001
1.40001
1.40001
1.40001
1.40001
1.40001
1.40001
1.40001
1.40001
1.40001
1.40001
1.40001
1.40001
1.40001
1.40001
1.40001
1.40001
1.40001
1.40001
1.40001
1.40001
1.40001
1.40001
1.40001
1.40001
1.40001
1.40036
1.42434
2.22144
4.76476
5.43106
5.56308
5.57449
5.56235
5.54759
5.54863
5.56729
5.58548
5.61022
5.64173
5.66989
5.69265
5.71103
5.72416
5.73652
5.75103
5.76589
5.77865
5.78746
5.79297
5.79805
5.80447
5.81187
5.81905
5.82538
5.83068
5.83479
5.83763
5.83917
5.83946
5.838
5.83294
5.81999
5.79015
5.72659
5.60704
5.42763
5.23523
5.12658
1.40001
1.40001
1.40001
1.40001
1.40001
1.40001
1.40001
1.40001
1.40001
1.40001
1.40001
1.40001
1.40001
1.40001
1.40001
1.40001
1.40001
1.40001
1.40001
1.40001
1.40001
1.40001
1.40001
1.40001
1.40001
1.40001
1.40001
1.40001
1.40001
1.40001
1.40001
1.40001
1.40001
1.40001
1.40001
1.40001
1.40001
1.40001
1.40001
1.40001
1.40001
1.40001
1.40001
1.40001
1.40001
1.40001
1.40001
1.40001
1.40001
1.40001
1.40001
1.40001
1.40001
1.40023
1.41581
1.98025
4.7141
5.46358
5.58109
5.56964
5.55344
5.53981
5.5467
5.56647
5.58443
5.61201
5.64497
5.67078
5.69167
5.70803
5.71956
5.73086
5.74557
5.76105
5.77458
5.78425
5.79035
5.79543
5.80134
5.80801
5.81432
5.81961
5.82381
5.82692
5.82895
5.82993
5.82984
5.82813
5.82312
5.81071
5.78223
5.72113
5.60498
5.42763
5.23426
5.12405
1.40001
1.40001
1.40001
1.40001
1.40001
1.40001
1.40001
1.40001
1.40001
1.40001
1.40001
1.40001
1.40001
1.40001
1.40001
1.40001
1.40001
1.40001
1.40001
1.40001
1.40001
1.40001
1.40001
1.40001
1.40001
1.40001
1.40001
1.40001
1.40001
1.40001
1.40001
1.40001
1.40001
1.40001
1.40001
1.40001
1.40001
1.40001
1.40001
1.40001
1.40001
1.40001
1.40001
1.40001
1.40001
1.40001
1.40001
1.40001
1.40001
1.40001
1.40001
1.40001
1.40001
1.40011
1.40765
1.72624
4.62338
5.49079
5.57637
5.5538
5.54122
5.53067
5.54359
5.56188
5.58352
5.61461
5.64881
5.67075
5.68888
5.70223
5.71214
5.72316
5.73874
5.75512
5.76945
5.77979
5.78624
5.79115
5.79648
5.80237
5.80785
5.81224
5.81551
5.81778
5.81917
5.81974
5.81936
5.81747
5.81246
5.80037
5.77277
5.71331
5.59955
5.42384
5.22988
5.11887
1.40001
1.40001
1.40001
1.40001
1.40001
1.40001
1.40001
1.40001
1.40001
1.40001
1.40001
1.40001
1.40001
1.40001
1.40001
1.40001
1.40001
1.40001
1.40001
1.40001
1.40001
1.40001
1.40001
1.40001
1.40001
1.40001
1.40001
1.40001
1.40001
1.40001
1.40001
1.40001
1.40001
1.40001
1.40001
1.40001
1.40001
1.40001
1.40001
1.40001
1.40001
1.40001
1.40001
1.40001
1.40001
1.40001
1.40001
1.40001
1.40001
1.40001
1.40001
1.40001
1.40001
1.40004
1.40266
1.54789
4.46012
5.48928
5.55102
5.5269
5.52571
5.51882
5.53681
5.55408
5.58431
5.61878
5.65273
5.66929
5.68364
5.69338
5.70193
5.71341
5.73032
5.74777
5.76284
5.77355
5.78004
5.78463
5.78941
5.79462
5.79942
5.80309
5.80562
5.80725
5.80818
5.80849
5.80795
5.80597
5.80098
5.7891
5.76208
5.70375
5.59161
5.41726
5.22285
5.11164
1.40001
1.40001
1.40001
1.40001
1.40001
1.40001
1.40001
1.40001
1.40001
1.40001
1.40001
1.40001
1.40001
1.40001
1.40001
1.40001
1.40001
1.40001
1.40001
1.40001
1.40001
1.40001
1.40001
1.40001
1.40001
1.40001
1.40001
1.40001
1.40001
1.40001
1.40001
1.40001
1.40001
1.40001
1.40001
1.40001
1.40001
1.40001
1.40001
1.40001
1.40001
1.40001
1.40001
1.40001
1.40001
1.40001
1.40001
1.40001
1.40001
1.40001
1.40001
1.40001
1.40001
1.40003
1.40178
1.51086
4.22391
5.4724
5.52766
5.49219
5.49611
5.50305
5.52425
5.55018
5.5869
5.62455
5.6545
5.66629
5.67528
5.68165
5.68961
5.70232
5.72073
5.73923
5.75488
5.76558
5.77175
5.77593
5.78025
5.78495
5.78921
5.79233
5.79429
5.79543
5.79608
5.79628
5.79575
5.79379
5.78887
5.77713
5.75043
5.69284
5.58171
5.40862
5.21373
5.10241
1.40001
1.40001
1.40001
1.40001
1.40001
1.40001
1.40001
1.40001
1.40001
1.40001
1.40001
1.40001
1.40001
1.40001
1.40001
1.40001
1.40001
1.40001
1.40001
1.40001
1.40001
1.40001
1.40001
1.40001
1.40001
1.40001
1.40001
1.40001
1.40001
1.40001
1.40001
1.40001
1.40001
1.40001
1.40001
1.40001
1.40001
1.40001
1.40001
1.40001
1.40001
1.40001
1.40001
1.40001
1.40001
1.40001
1.40001
1.40001
1.40001
1.40001
1.40001
1.40001
1.40001
1.40003
1.40156
1.4975
3.98729
5.44769
5.499
5.45111
5.45933
5.48794
5.51323
5.55135
5.59217
5.63135
5.65182
5.66043
5.6641
5.66796
5.67599
5.69064
5.71055
5.72998
5.74597
5.75627
5.76178
5.76545
5.76943
5.77377
5.77762
5.78029
5.78175
5.78249
5.78295
5.78315
5.78268
5.7808
5.77596
5.76435
5.73785
5.68083
5.57032
5.39852
5.20275
5.09196
1.40001
1.40001
1.40001
1.40001
1.40001
1.40001
1.40001
1.40001
1.40001
1.40001
1.40001
1.40001
1.40001
1.40001
1.40001
1.40001
1.40001
1.40001
1.40001
1.40001
1.40001
1.40001
1.40001
1.40001
1.40001
1.40001
1.40001
1.40001
1.40001
1.40001
1.40001
1.40001
1.40001
1.40001
1.40001
1.40001
1.40001
1.40001
1.40001
1.40001
1.40001
1.40001
1.40001
1.40001
1.40001
1.40001
1.40001
1.40001
1.40001
1.40001
1.40001
1.40001
1.40001
1.40003
1.40137
1.48534
3.74244
5.38543
5.45629
5.4185
5.43726
5.47594
5.50997
5.55665
5.601
5.63637
5.64506
5.65046
5.65028
5.65306
5.66155
5.67892
5.70031
5.72043
5.73645
5.74594
5.75047
5.75356
5.75728
5.76139
5.76493
5.7672
5.76819
5.76857
5.76891
5.76919
5.76886
5.7671
5.76239
5.75095
5.7246
5.668
5.55769
5.3868
5.19056
5.08016
1.40001
1.40001
1.40001
1.40001
1.40001
1.40001
1.40001
1.40001
1.40001
1.40001
1.40001
1.40001
1.40001
1.40001
1.40001
1.40001
1.40001
1.40001
1.40001
1.40001
1.40001
1.40001
1.40001
1.40001
1.40001
1.40001
1.40001
1.40001
1.40001
1.40001
1.40001
1.40001
1.40001
1.40001
1.40001
1.40001
1.40001
1.40001
1.40001
1.40001
1.40001
1.40001
1.40001
1.40001
1.40001
1.40001
1.40001
1.40001
1.40001
1.40001
1.40001
1.40001
1.40001
1.40002
1.40116
1.47298
3.4783
5.28548
5.40923
5.40156
5.43462
5.46947
5.51742
5.5682
5.61195
5.6334
5.63712
5.63696
5.6333
5.63709
5.64725
5.66763
5.69043
5.71086
5.72647
5.73476
5.73802
5.74047
5.74403
5.74799
5.75128
5.75317
5.75372
5.75376
5.75401
5.75439
5.75417
5.75245
5.74778
5.73651
5.71033
5.65421
5.54401
5.37414
5.17755
5.06742
1.40001
1.40001
1.40001
1.40001
1.40001
1.40001
1.40001
1.40001
1.40001
1.40001
1.40001
1.40001
1.40001
1.40001
1.40001
1.40001
1.40001
1.40001
1.40001
1.40001
1.40001
1.40001
1.40001
1.40001
1.40001
1.40001
1.40001
1.40001
1.40001
1.40001
1.40001
1.40001
1.40001
1.40001
1.40001
1.40001
1.40001
1.40001
1.40001
1.40001
1.40001
1.40001
1.40001
1.40001
1.40001
1.40001
1.40001
1.40001
1.40001
1.40001
1.40001
1.40001
1.40001
1.40002
1.40096
1.46049
3.18908
5.13651
5.37719
5.40782
5.43763
5.48119
5.53199
5.58274
5.61736
5.62396
5.62661
5.61923
5.61421
5.6207
5.63427
5.65719
5.68096
5.70123
5.71594
5.72265
5.72447
5.72627
5.72973
5.7336
5.73665
5.73816
5.73825
5.73798
5.73816
5.73862
5.73846
5.73669
5.73203
5.72103
5.6951
5.63954
5.52944
5.36052
5.16356
5.05316
1.40001
1.40001
1.40001
1.40001
1.40001
1.40001
1.40001
1.40001
1.40001
1.40001
1.40001
1.40001
1.40001
1.40001
1.40001
1.40001
1.40001
1.40001
1.40001
1.40001
1.40001
1.40001
1.40001
1.40001
1.40001
1.40001
1.40001
1.40001
1.40001
1.40001
1.40001
1.40001
1.40001
1.40001
1.40001
1.40001
1.40001
1.40001
1.40001
1.40001
1.40001
1.40001
1.40001
1.40001
1.40001
1.40001
1.40001
1.40001
1.40001
1.40001
1.40001
1.40001
1.40001
1.40002
1.40074
1.44709
2.86098
4.97434
5.36569
5.41946
5.45748
5.50081
5.54985
5.59393
5.61133
5.61645
5.60861
5.59562
5.59535
5.60488
5.62333
5.6481
5.6719
5.69143
5.70458
5.70935
5.7097
5.71095
5.71436
5.71816
5.72097
5.72209
5.72176
5.72119
5.72129
5.72178
5.72154
5.71957
5.7148
5.70405
5.67844
5.62351
5.5137
5.34577
5.14836
5.03782
1.40001
1.40001
1.40001
1.40001
1.40001
1.40001
1.40001
1.40001
1.40001
1.40001
1.40001
1.40001
1.40001
1.40001
1.40001
1.40001
1.40001
1.40001
1.40001
1.40001
1.40001
1.40001
1.40001
1.40001
1.40001
1.40001
1.40001
1.40001
1.40001
1.40001
1.40001
1.40001
1.40001
1.40001
1.40001
1.40001
1.40001
1.40001
1.40001
1.40001
1.40001
1.40001
1.40001
1.40001
1.40001
1.40001
1.40001
1.40001
1.40001
1.40001
1.40001
1.40001
1.40001
1.40001
1.40049
1.43193
2.47047
4.85533
5.41003
5.45164
5.48328
5.52255
5.56556
5.59806
5.60623
5.5973
5.57931
5.57034
5.57803
5.59119
5.61368
5.64081
5.663
5.6811
5.69193
5.69448
5.69357
5.69452
5.69796
5.70169
5.70425
5.70495
5.70416
5.70325
5.70318
5.70352
5.70301
5.70071
5.69577
5.68535
5.66023
5.60606
5.49668
5.32959
5.13155
5.02027
1.40001
1.40001
1.40001
1.40001
1.40001
1.40001
1.40001
1.40001
1.40001
1.40001
1.40001
1.40001
1.40001
1.40001
1.40001
1.40001
1.40001
1.40001
1.40001
1.40001
1.40001
1.40001
1.40001
1.40001
1.40001
1.40001
1.40001
1.40001
1.40001
1.40001
1.40001
1.40001
1.40001
1.40001
1.40001
1.40001
1.40001
1.40001
1.40001
1.40001
1.40001
1.40001
1.40001
1.40001
1.40001
1.40001
1.40001
1.40001
1.40001
1.40001
1.40001
1.40001
1.40001
1.40001
1.40025
1.41621
2.02476
4.7715
5.45849
5.48602
5.50914
5.54419
5.58015
5.59532
5.58576
5.56308
5.54595
5.54853
5.56109
5.57989
5.60693
5.63359
5.65368
5.66958
5.67744
5.67774
5.67601
5.67696
5.68052
5.68419
5.68647
5.68665
5.6853
5.68396
5.68358
5.68357
5.68262
5.67989
5.67471
5.66453
5.63988
5.58647
5.47762
5.31126
5.1123
5.00088
1.40001
1.40001
1.40001
1.40001
1.40001
1.40001
1.40001
1.40001
1.40001
1.40001
1.40001
1.40001
1.40001
1.40001
1.40001
1.40001
1.40001
1.40001
1.40001
1.40001
1.40001
1.40001
1.40001
1.40001
1.40001
1.40001
1.40001
1.40001
1.40001
1.40001
1.40001
1.40001
1.40001
1.40001
1.40001
1.40001
1.40001
1.40001
1.40001
1.40001
1.40001
1.40001
1.40001
1.40001
1.40001
1.40001
1.40001
1.40001
1.40001
1.40001
1.40001
1.40001
1.40001
1.40001
1.40008
1.4044
1.60846
4.54026
5.42924
5.49495
5.51718
5.55051
5.57554
5.57545
5.55452
5.52935
5.52093
5.53222
5.54612
5.57238
5.60186
5.62472
5.64331
5.65611
5.66062
5.65896
5.657
5.65832
5.6621
5.66578
5.66774
5.66725
5.66516
5.66323
5.66227
5.66164
5.66004
5.6568
5.65135
5.64135
5.61709
5.56442
5.45626
5.29046
5.09048
4.97808
1.40001
1.40001
1.40001
1.40001
1.40001
1.40001
1.40001
1.40001
1.40001
1.40001
1.40001
1.40001
1.40001
1.40001
1.40001
1.40001
1.40001
1.40001
1.40001
1.40001
1.40001
1.40001
1.40001
1.40001
1.40001
1.40001
1.40001
1.40001
1.40001
1.40001
1.40001
1.40001
1.40001
1.40001
1.40001
1.40001
1.40001
1.40001
1.40001
1.40001
1.40001
1.40001
1.40001
1.40001
1.40001
1.40001
1.40001
1.40001
1.40001
1.40001
1.40001
1.40001
1.40001
1.40001
1.40003
1.40179
1.50815
4.11372
5.29358
5.46001
5.49008
5.52791
5.55108
5.54938
5.53009
5.51158
5.50894
5.51705
5.53765
5.56685
5.59504
5.61414
5.63084
5.63977
5.64105
5.63808
5.63679
5.63881
5.64295
5.64669
5.64815
5.64672
5.64356
5.64079
5.63896
5.63741
5.635
5.63123
5.62541
5.61524
5.59089
5.53865
5.43127
5.26603
5.06502
4.9533
1.40001
1.40001
1.40001
1.40001
1.40001
1.40001
1.40001
1.40001
1.40001
1.40001
1.40001
1.40001
1.40001
1.40001
1.40001
1.40001
1.40001
1.40001
1.40001
1.40001
1.40001
1.40001
1.40001
1.40001
1.40001
1.40001
1.40001
1.40001
1.40001
1.40001
1.40001
1.40001
1.40001
1.40001
1.40001
1.40001
1.40001
1.40001
1.40001
1.40001
1.40001
1.40001
1.40001
1.40001
1.40001
1.40001
1.40001
1.40001
1.40001
1.40001
1.40001
1.40001
1.40001
1.40001
1.40003
1.40135
1.48474
3.7099
5.15622
5.41768
5.45838
5.50146
5.5309
5.53257
5.5164
5.50184
5.50209
5.51024
5.53222
5.56217
5.58407
5.60212
5.6152
5.61937
5.61836
5.61537
5.61574
5.61871
5.62324
5.62698
5.62761
5.62493
5.62043
5.61654
5.61355
5.61085
5.60754
5.60312
5.59657
5.5856
5.56059
5.50863
5.40231
5.23781
5.03626
4.92397
1.40001
1.40001
1.40001
1.40001
1.40001
1.40001
1.40001
1.40001
1.40001
1.40001
1.40001
1.40001
1.40001
1.40001
1.40001
1.40001
1.40001
1.40001
1.40001
1.40001
1.40001
1.40001
1.40001
1.40001
1.40001
1.40001
1.40001
1.40001
1.40001
1.40001
1.40001
1.40001
1.40001
1.40001
1.40001
1.40001
1.40001
1.40001
1.40001
1.40001
1.40001
1.40001
1.40001
1.40001
1.40001
1.40001
1.40001
1.40001
1.40001
1.40001
1.40001
1.40001
1.40001
1.40001
1.40002
1.40107
1.46784
3.31588
5.01452
5.36158
5.42896
5.47661
5.51168
5.52302
5.51617
5.50609
5.50192
5.50812
5.5289
5.55489
5.57291
5.58775
5.59425
5.59454
5.59321
5.59184
5.59432
5.59833
5.60324
5.60666
5.60616
5.60181
5.59566
5.5904
5.58599
5.58188
5.5773
5.57179
5.56389
5.5511
5.52464
5.47269
5.36799
5.20463
5.00222
4.89253
1.40001
1.40001
1.40001
1.40001
1.40001
1.40001
1.40001
1.40001
1.40001
1.40001
1.40001
1.40001
1.40001
1.40001
1.40001
1.40001
1.40001
1.40001
1.40001
1.40001
1.40001
1.40001
1.40001
1.40001
1.40001
1.40001
1.40001
1.40001
1.40001
1.40001
1.40001
1.40001
1.40001
1.40001
1.40001
1.40001
1.40001
1.40001
1.40001
1.40001
1.40001
1.40001
1.40001
1.40001
1.40001
1.40001
1.40001
1.40001
1.40001
1.40001
1.40001
1.40001
1.40001
1.40001
1.40002
1.40078
1.45
2.89112
4.89813
5.3156
5.42108
5.47697
5.50292
5.51245
5.51403
5.50988
5.50311
5.50843
5.52666
5.54689
5.56061
5.56708
5.56778
5.56693
5.56701
5.56878
5.57306
5.57788
5.58291
5.58536
5.58346
5.57693
5.56893
5.56219
5.55624
5.55045
5.5444
5.53702
5.5266
5.51153
5.48316
5.43095
5.32842
5.16676
4.96342
4.85127
1.40001
1.40001
1.40001
1.40001
1.40001
1.40001
1.40001
1.40001
1.40001
1.40001
1.40001
1.40001
1.40001
1.40001
1.40001
1.40001
1.40001
1.40001
1.40001
1.40001
1.40001
1.40001
1.40001
1.40001
1.40001
1.40001
1.40001
1.40001
1.40001
1.40001
1.40001
1.40001
1.40001
1.40001
1.40001
1.40001
1.40001
1.40001
1.40001
1.40001
1.40001
1.40001
1.40001
1.40001
1.40001
1.40001
1.40001
1.40001
1.40001
1.40001
1.40001
1.40001
1.40001
1.40001
1.40001
1.40046
1.42991
2.40383
4.87025
5.34018
5.42616
5.47637
5.48346
5.49439
5.50472
5.51147
5.50601
5.50913
5.52295
5.53502
5.54076
5.54055
5.53862
5.53976
5.54269
5.54701
5.5519
5.55736
5.56176
5.56285
5.55904
5.54988
5.54061
5.53211
5.52427
5.51656
5.50838
5.49827
5.48435
5.46575
5.43461
5.38197
5.28154
5.12142
4.91485
4.80192
1.40001
1.40001
1.40001
1.40001
1.40001
1.40001
1.40001
1.40001
1.40001
1.40001
1.40001
1.40001
1.40001
1.40001
1.40001
1.40001
1.40001
1.40001
1.40001
1.40001
1.40001
1.40001
1.40001
1.40001
1.40001
1.40001
1.40001
1.40001
1.40001
1.40001
1.40001
1.40001
1.40001
1.40001
1.40001
1.40001
1.40001
1.40001
1.40001
1.40001
1.40001
1.40001
1.40001
1.40001
1.40001
1.40001
1.40001
1.40001
1.40001
1.40001
1.40001
1.40001
1.40001
1.40001
1.40001
1.40018
1.41107
1.85082
4.73304
5.38775
5.43865
5.47394
5.47619
5.48031
5.49299
5.50875
5.50584
5.50558
5.51217
5.51713
5.51713
5.51356
5.51184
5.51602
5.52088
5.52585
5.53131
5.53645
5.53919
5.53861
5.53238
5.52093
5.50992
5.49967
5.48987
5.47993
5.46896
5.45525
5.43672
5.41354
5.37972
5.3271
5.22818
5.06912
4.85883
4.72751
1.40001
1.40001
1.40001
1.40001
1.40001
1.40001
1.40001
1.40001
1.40001
1.40001
1.40001
1.40001
1.40001
1.40001
1.40001
1.40001
1.40001
1.40001
1.40001
1.40001
1.40001
1.40001
1.40001
1.40001
1.40001
1.40001
1.40001
1.40001
1.40001
1.40001
1.40001
1.40001
1.40001
1.40001
1.40001
1.40001
1.40001
1.40001
1.40001
1.40001
1.40001
1.40001
1.40001
1.40001
1.40001
1.40001
1.40001
1.40001
1.40001
1.40001
1.40001
1.40001
1.40001
1.40001
1.40001
1.40005
1.40262
1.53777
4.23308
5.3102
5.42923
5.45035
5.44511
5.44982
5.46859
5.48807
5.49188
5.49282
5.49664
5.49878
5.49597
5.4906
5.48985
5.49527
5.50071
5.50538
5.51088
5.51458
5.515
5.51212
5.50271
5.48977
5.47708
5.46506
5.45325
5.44067
5.42613
5.40782
5.38362
5.35497
5.31761
5.26308
5.16067
4.99532
4.78418
4.63291
1.40001
1.40001
1.40001
1.40001
1.40001
1.40001
1.40001
1.40001
1.40001
1.40001
1.40001
1.40001
1.40001
1.40001
1.40001
1.40001
1.40001
1.40001
1.40001
1.40001
1.40001
1.40001
1.40001
1.40001
1.40001
1.40001
1.40001
1.40001
1.40001
1.40001
1.40001
1.40001
1.40001
1.40001
1.40001
1.40001
1.40001
1.40001
1.40001
1.40001
1.40001
1.40001
1.40001
1.40001
1.40001
1.40001
1.40001
1.40001
1.40001
1.40001
1.40001
1.40001
1.40001
1.40001
1.40001
1.40003
1.40133
1.48295
3.63557
5.10953
5.39909
5.43756
5.42829
5.43486
5.45005
5.46702
5.47606
5.47928
5.48289
5.48474
5.48071
5.47409
5.47238
5.47633
5.48096
5.4853
5.48948
5.49076
5.48899
5.48273
5.46995
5.45599
5.44205
5.42818
5.41399
5.39844
5.37946
5.35565
5.32485
5.28957
5.24658
5.18712
5.07674
4.89678
4.67761
4.5062
1.40001
1.40001
1.40001
1.40001
1.40001
1.40001
1.40001
1.40001
1.40001
1.40001
1.40001
1.40001
1.40001
1.40001
1.40001
1.40001
1.40001
1.40001
1.40001
1.40001
1.40001
1.40001
1.40001
1.40001
1.40001
1.40001
1.40001
1.40001
1.40001
1.40001
1.40001
1.40001
1.40001
1.40001
1.40001
1.40001
1.40001
1.40001
1.40001
1.40001
1.40001
1.40001
1.40001
1.40001
1.40001
1.40001
1.40001
1.40001
1.40001
1.40001
1.40001
1.40001
1.40001
1.40001
1.40001
1.40002
1.4009
1.45771
3.09852
4.8877
5.38488
5.42034
5.41504
5.42516
5.4378
5.45193
5.4622
5.4681
5.47205
5.47467
5.47118
5.46315
5.45772
5.45874
5.46142
5.46439
5.46612
5.46454
5.46012
5.44988
5.43505
5.42035
5.40498
5.38891
5.37233
5.35345
5.32962
5.29969
5.26198
5.21792
5.16433
5.0941
4.96761
4.75695
4.49537
4.33168
1.40001
1.40001
1.40001
1.40001
1.40001
1.40001
1.40001
1.40001
1.40001
1.40001
1.40001
1.40001
1.40001
1.40001
1.40001
1.40001
1.40001
1.40001
1.40001
1.40001
1.40001
1.40001
1.40001
1.40001
1.40001
1.40001
1.40001
1.40001
1.40001
1.40001
1.40001
1.40001
1.40001
1.40001
1.40001
1.40001
1.40001
1.40001
1.40001
1.40001
1.40001
1.40001
1.40001
1.40001
1.40001
1.40001
1.40001
1.40001
1.40001
1.40001
1.40001
1.40001
1.40001
1.40001
1.40001
1.40001
1.4005
1.43309
2.5254
4.80639
5.42002
5.41545
5.4098
5.42623
5.43716
5.44478
5.4515
5.45769
5.46153
5.46398
5.46201
5.45385
5.44454
5.44139
5.44177
5.44225
5.4405
5.4353
5.42736
5.41449
5.39958
5.38378
5.36624
5.3478
5.3283
5.30545
5.2763
5.23967
5.1939
5.13984
5.07091
4.98209
4.83555
4.59905
4.28721
3.97527
1.40001
1.40001
1.40001
1.40001
1.40001
1.40001
1.40001
1.40001
1.40001
1.40001
1.40001
1.40001
1.40001
1.40001
1.40001
1.40001
1.40001
1.40001
1.40001
1.40001
1.40001
1.40001
1.40001
1.40001
1.40001
1.40001
1.40001
1.40001
1.40001
1.40001
1.40001
1.40001
1.40001
1.40001
1.40001
1.40001
1.40001
1.40001
1.40001
1.40001
1.40001
1.40001
1.40001
1.40001
1.40001
1.40001
1.40001
1.40001
1.40001
1.40001
1.40001
1.40001
1.40001
1.40001
1.40001
1.40001
1.40016
1.41013
1.82841
4.67409
5.42139
5.41924
5.41928
5.43021
5.4384
5.44026
5.4422
5.44636
5.447
5.44689
5.44659
5.44212
5.43169
5.4245
5.42108
5.41773
5.41137
5.40282
5.39256
5.37944
5.36427
5.34653
5.32656
5.30554
5.28241
5.25493
5.22005
5.17631
5.12124
5.05561
4.97189
4.85893
4.6796
4.39893
3.93742
3.02461
1.40001
1.40001
1.40001
1.40001
1.40001
1.40001
1.40001
1.40001
1.40001
1.40001
1.40001
1.40001
1.40001
1.40001
1.40001
1.40001
1.40001
1.40001
1.40001
1.40001
1.40001
1.40001
1.40001
1.40001
1.40001
1.40001
1.40001
1.40001
1.40001
1.40001
1.40001
1.40001
1.40001
1.40001
1.40001
1.40001
1.40001
1.40001
1.40001
1.40001
1.40001
1.40001
1.40001
1.40001
1.40001
1.40001
1.40001
1.40001
1.40001
1.40001
1.40001
1.40001
1.40001
1.40001
1.40001
1.40001
1.40004
1.40223
1.52203
4.10605
5.263
5.34786
5.39311
5.42987
5.43424
5.43169
5.43155
5.43459
5.43094
5.42596
5.4253
5.42544
5.41672
5.40734
5.39959
5.39162
5.38075
5.36972
5.35844
5.34503
5.32889
5.3093
5.287
5.26279
5.2352
5.20226
5.16102
5.10973
5.04487
4.96639
4.8657
4.72874
4.51841
4.18505
3.63995
2.72631
1.40001
1.40001
1.40001
1.40001
1.40001
1.40001
1.40001
1.40001
1.40001
1.40001
1.40001
1.40001
1.40001
1.40001
1.40001
1.40001
1.40001
1.40001
1.40001
1.40001
1.40001
1.40001
1.40001
1.40001
1.40001
1.40001
1.40001
1.40001
1.40001
1.40001
1.40001
1.40001
1.40001
1.40001
1.40001
1.40001
1.40001
1.40001
1.40001
1.40001
1.40001
1.40001
1.40001
1.40001
1.40001
1.40001
1.40001
1.40001
1.40001
1.40001
1.40001
1.40001
1.40001
1.40001
1.40001
1.40001
1.40002
1.40109
1.46884
3.39584
5.06113
5.30407
5.37578
5.41764
5.42099
5.41756
5.41999
5.42196
5.41451
5.40486
5.40301
5.40595
5.40075
5.39093
5.37916
5.36634
5.3511
5.33757
5.32507
5.31061
5.29304
5.27196
5.24747
5.21966
5.18706
5.14815
5.10019
5.04135
4.96718
4.87626
4.75948
4.60192
4.37058
4.01317
3.47682
2.7529
1.40001
1.40001
1.40001
1.40001
1.40001
1.40001
1.40001
1.40001
1.40001
1.40001
1.40001
1.40001
1.40001
1.40001
1.40001
1.40001
1.40001
1.40001
1.40001
1.40001
1.40001
1.40001
1.40001
1.40001
1.40001
1.40001
1.40001
1.40001
1.40001
1.40001
1.40001
1.40001
1.40001
1.40001
1.40001
1.40001
1.40001
1.40001
1.40001
1.40001
1.40001
1.40001
1.40001
1.40001
1.40001
1.40001
1.40001
1.40001
1.40001
1.40001
1.40001
1.40001
1.40001
1.40001
1.40001
1.40001
1.40001
1.40057
1.4364
2.66888
4.97333
5.36623
5.37425
5.39381
5.40415
5.40336
5.40715
5.40678
5.39658
5.38385
5.38064
5.38431
5.38267
5.37369
5.35941
5.3428
5.32353
5.30653
5.29205
5.2758
5.2567
5.23431
5.20771
5.17624
5.13848
5.0934
5.03858
4.97229
4.88963
4.78774
4.65801
4.48595
4.24936
3.90638
3.45888
2.9341
1.40001
1.40001
1.40001
1.40001
1.40001
1.40001
1.40001
1.40001
1.40001
1.40001
1.40001
1.40001
1.40001
1.40001
1.40001
1.40001
1.40001
1.40001
1.40001
1.40001
1.40001
1.40001
1.40001
1.40001
1.40001
1.40001
1.40001
1.40001
1.40001
1.40001
1.40001
1.40001
1.40001
1.40001
1.40001
1.40001
1.40001
1.40001
1.40001
1.40001
1.40001
1.40001
1.40001
1.40001
1.40001
1.40001
1.40001
1.40001
1.40001
1.40001
1.40001
1.40001
1.40001
1.40001
1.40001
1.40001
1.40001
1.40018
1.41032
1.84593
4.82091
5.41819
5.37316
5.37565
5.38512
5.38798
5.39168
5.38838
5.3769
5.3639
5.35939
5.36141
5.36123
5.35412
5.33971
5.32137
5.29899
5.27772
5.26012
5.24119
5.21999
5.19591
5.16712
5.13218
5.0896
5.03873
4.97749
4.9044
4.81481
4.7047
4.56723
4.38875
4.16029
3.84861
3.46406
3.0267
1.40001
1.40001
1.40001
1.40001
1.40001
1.40001
1.40001
1.40001
1.40001
1.40001
1.40001
1.40001
1.40001
1.40001
1.40001
1.40001
1.40001
1.40001
1.40001
1.40001
1.40001
1.40001
1.40001
1.40001
1.40001
1.40001
1.40001
1.40001
1.40001
1.40001
1.40001
1.40001
1.40001
1.40001
1.40001
1.40001
1.40001
1.40001
1.40001
1.40001
1.40001
1.40001
1.40001
1.40001
1.40001
1.40001
1.40001
1.40001
1.40001
1.40001
1.40001
1.40001
1.40001
1.40001
1.40001
1.40001
1.40001
1.40004
1.40222
1.52127
4.11482
5.26169
5.36193
5.36478
5.36898
5.37393
5.37688
5.37129
5.35948
5.34749
5.34148
5.33984
5.33875
5.332
5.31873
5.30056
5.27693
5.25195
5.23011
5.20723
5.18302
5.15653
5.12536
5.08736
5.04069
4.98479
4.91795
4.83891
4.74397
4.62816
4.48724
4.30809
4.09133
3.81477
3.47002
3.08817
1.40001
1.40001
1.40001
1.40001
1.40001
1.40001
1.40001
1.40001
1.40001
1.40001
1.40001
1.40001
1.40001
1.40001
1.40001