/*--------------------------------*- C++ -*----------------------------------*\
| =========                 |                                                 |
| \\      /  F ield         | OpenFOAM: The Open Source CFD Toolbox           |
|  \\    /   O peration     | Version:  v1812                                 |
|   \\  /    A nd           | Web:      www.OpenFOAM.com                      |
|    \\/     M anipulation  |                                                 |
\*---------------------------------------------------------------------------*/
FoamFile
{
    version     2.0;
    format      ascii;
    class       volScalarField;
    location    "0.9";
    object      T;
}
// * * * * * * * * * * * * * * * * * * * * * * * * * * * * * * * * * * * * * //

dimensions      [0 0 0 1 0 0 0];


internalField   nonuniform List<scalar> 
64512
(
1
1
1
1
1
1
1
1
1
1
1
1
1
1
1
1
1
1
1
1
1
1
1
1
1
1
1
1
1
1
1
1
1
1
1
1
1
1
1
1
1
1
1
1
1
1
1
1
1
1
1
1
1
1.00027
1.01761
2.10614
2.73558
2.76948
2.77321
2.77552
2.77552
2.77554
2.77694
2.7828
2.79119
2.79783
2.80153
2.80415
2.80758
2.81302
2.82089
2.82976
2.83722
2.84185
2.84403
2.84516
2.84655
2.84944
2.8546
2.8614
2.86803
2.87305
2.87634
2.87854
2.88037
2.88257
2.88624
2.8932
2.90648
2.93152
2.97716
3.05321
3.15907
3.27004
3.34565
3.37162
1
1
1
1
1
1
1
1
1
1
1
1
1
1
1
1
1
1
1
1
1
1
1
1
1
1
1
1
1
1
1
1
1
1
1
1
1
1
1
1
1
1
1
1
1
1
1
1
1
1
1
1
1
1.00027
1.0178
2.12689
2.74577
2.7672
2.76722
2.76989
2.77265
2.77648
2.78171
2.78781
2.79392
2.79851
2.80139
2.80401
2.80824
2.81453
2.82224
2.83003
2.8361
2.83988
2.84211
2.84399
2.84654
2.85043
2.85586
2.86211
2.86784
2.87218
2.87518
2.87739
2.87939
2.88184
2.8857
2.89259
2.9054
2.92935
2.97315
3.04666
3.15027
3.26132
3.34029
3.36954
1
1
1
1
1
1
1
1
1
1
1
1
1
1
1
1
1
1
1
1
1
1
1
1
1
1
1
1
1
1
1
1
1
1
1
1
1
1
1
1
1
1
1
1
1
1
1
1
1
1
1
1
1
1.00027
1.01756
2.11839
2.74615
2.75959
2.7594
2.76288
2.76929
2.77841
2.78676
2.79303
2.79747
2.80086
2.80304
2.80527
2.80971
2.81646
2.82411
2.8312
2.83639
2.83961
2.84188
2.84435
2.84782
2.85244
2.85762
2.86262
2.8669
2.8702
2.87283
2.87515
2.87751
2.88037
2.88448
2.89114
2.9029
2.9246
2.96451
3.03265
3.1316
3.24304
3.32908
3.36493
1
1
1
1
1
1
1
1
1
1
1
1
1
1
1
1
1
1
1
1
1
1
1
1
1
1
1
1
1
1
1
1
1
1
1
1
1
1
1
1
1
1
1
1
1
1
1
1
1
1
1
1
1
1.00026
1.01698
2.09868
2.75742
2.75726
2.75391
2.75447
2.75983
2.77181
2.78559
2.79511
2.79998
2.80272
2.80402
2.80554
2.80969
2.81695
2.82537
2.83281
2.83774
2.84061
2.84282
2.84562
2.84962
2.85425
2.85863
2.86243
2.86554
2.86809
2.8705
2.87298
2.87572
2.879
2.88327
2.88954
2.89999
2.91896
2.95414
3.0157
3.10895
3.22082
3.31508
3.35863
1
1
1
1
1
1
1
1
1
1
1
1
1
1
1
1
1
1
1
1
1
1
1
1
1
1
1
1
1
1
1
1
1
1
1
1
1
1
1
1
1
1
1
1
1
1
1
1
1
1
1
1
1
1.00024
1.01587
2.05263
2.75846
2.7582
2.75112
2.74664
2.75088
2.76454
2.78236
2.79504
2.80084
2.80324
2.80367
2.80454
2.80853
2.81619
2.82548
2.83381
2.83922
2.8421
2.84418
2.84691
2.85073
2.85493
2.85863
2.86169
2.86405
2.86616
2.86838
2.8709
2.8739
2.87746
2.88184
2.88776
2.89705
2.91351
2.94413
2.99915
3.08637
3.19798
3.29981
3.35089
1
1
1
1
1
1
1
1
1
1
1
1
1
1
1
1
1
1
1
1
1
1
1
1
1
1
1
1
1
1
1
1
1
1
1
1
1
1
1
1
1
1
1
1
1
1
1
1
1
1
1
1
1
1.00022
1.0145
1.99778
2.75805
2.75684
2.7459
2.73914
2.74498
2.76153
2.78169
2.79562
2.80131
2.80285
2.80262
2.80318
2.80721
2.81518
2.82508
2.83403
2.83987
2.84292
2.84491
2.84742
2.85093
2.85484
2.85821
2.86068
2.86262
2.86449
2.86659
2.86912
2.87226
2.87603
2.88049
2.88619
2.89463
2.90911
2.93593
2.98516
3.06661
3.17715
3.28492
3.34252
1
1
1
1
1
1
1
1
1
1
1
1
1
1
1
1
1
1
1
1
1
1
1
1
1
1
1
1
1
1
1
1
1
1
1
1
1
1
1
1
1
1
1
1
1
1
1
1
1
1
1
1
1
1.0002
1.01297
1.93816
2.75534
2.75234
2.73883
2.73321
2.74194
2.76191
2.78331
2.79665
2.80155
2.80205
2.8015
2.80226
2.80659
2.81485
2.82507
2.83415
2.83989
2.8428
2.84462
2.84697
2.8504
2.85411
2.85712
2.85927
2.86104
2.86286
2.86497
2.86757
2.87082
2.87474
2.8793
2.88491
2.89283
2.90592
2.92985
2.97436
3.05069
3.15955
3.27148
3.33427
1
1
1
1
1
1
1
1
1
1
1
1
1
1
1
1
1
1
1
1
1
1
1
1
1
1
1
1
1
1
1
1
1
1
1
1
1
1
1
1
1
1
1
1
1
1
1
1
1
1
1
1
1
1.00017
1.0113
1.8703
2.74881
2.74313
2.72902
2.72904
2.74248
2.76553
2.78681
2.79786
2.80161
2.80131
2.80023
2.80121
2.80575
2.81412
2.82444
2.83345
2.83894
2.84162
2.84331
2.84558
2.84888
2.85238
2.85521
2.8573
2.85913
2.86108
2.86334
2.86609
2.8695
2.87357
2.87827
2.88392
2.89159
2.9038
2.92567
2.96659
3.03866
3.14557
3.26008
3.32667
1
1
1
1
1
1
1
1
1
1
1
1
1
1
1
1
1
1
1
1
1
1
1
1
1
1
1
1
1
1
1
1
1
1
1
1
1
1
1
1
1
1
1
1
1
1
1
1
1
1
1
1
1
1.00014
1.00936
1.78172
2.73388
2.72816
2.71986
2.72671
2.74696
2.77156
2.7908
2.79907
2.80143
2.80036
2.79844
2.7994
2.80387
2.81221
2.82256
2.83154
2.83686
2.83938
2.84099
2.84321
2.8464
2.84981
2.85265
2.85486
2.85687
2.85904
2.86154
2.86453
2.86813
2.87238
2.87727
2.88306
2.89069
2.90239
2.9229
2.96122
3.02995
3.13496
3.25084
3.32
1
1
1
1
1
1
1
1
1
1
1
1
1
1
1
1
1
1
1
1
1
1
1
1
1
1
1
1
1
1
1
1
1
1
1
1
1
1
1
1
1
1
1
1
1
1
1
1
1
1
1
1
1
1.0001
1.0071
1.65621
2.70001
2.71084
2.71492
2.7302
2.75394
2.77723
2.79366
2.7998
2.80078
2.79876
2.79584
2.79674
2.8011
2.80943
2.81987
2.82891
2.83412
2.83648
2.838
2.84014
2.84328
2.84671
2.84969
2.85211
2.85435
2.85678
2.85955
2.86279
2.86661
2.87106
2.87617
2.88219
2.8899
2.90137
2.92103
2.95754
3.02378
3.12712
3.24354
3.31432
1
1
1
1
1
1
1
1
1
1
1
1
1
1
1
1
1
1
1
1
1
1
1
1
1
1
1
1
1
1
1
1
1
1
1
1
1
1
1
1
1
1
1
1
1
1
1
1
1
1
1
1
1
1.00006
1.00459
1.48592
2.6445
2.69858
2.7153
2.7367
2.76097
2.78216
2.79581
2.8002
2.79968
2.7961
2.79235
2.79335
2.79789
2.80652
2.81715
2.82611
2.83105
2.83315
2.83455
2.83667
2.83986
2.84346
2.84669
2.84936
2.85182
2.85446
2.85746
2.8609
2.8649
2.86952
2.87485
2.88112
2.88901
2.90042
2.91956
2.95485
3.01929
3.12124
3.23776
3.30951
1
1
1
1
1
1
1
1
1
1
1
1
1
1
1
1
1
1
1
1
1
1
1
1
1
1
1
1
1
1
1
1
1
1
1
1
1
1
1
1
1
1
1
1
1
1
1
1
1
1
1
1
1
1.00003
1.0022
1.2597
2.58468
2.6915
2.71896
2.74314
2.76779
2.78689
2.79727
2.79985
2.79759
2.79199
2.78803
2.78942
2.79465
2.80406
2.8149
2.82346
2.82785
2.82963
2.83095
2.83318
2.83661
2.84049
2.84399
2.84687
2.84946
2.85222
2.85533
2.85887
2.86297
2.8677
2.87322
2.87974
2.88785
2.89932
2.91818
2.95263
3.01579
3.11663
3.23303
3.30535
1
1
1
1
1
1
1
1
1
1
1
1
1
1
1
1
1
1
1
1
1
1
1
1
1
1
1
1
1
1
1
1
1
1
1
1
1
1
1
1
1
1
1
1
1
1
1
1
1
1
1
1
1
1.00001
1.00075
1.06195
2.52882
2.68686
2.72309
2.74771
2.77564
2.79168
2.79811
2.79816
2.79344
2.78617
2.78318
2.78523
2.79181
2.80245
2.81334
2.82109
2.82468
2.82612
2.82747
2.82998
2.83381
2.83803
2.84175
2.84472
2.84733
2.85007
2.85318
2.85672
2.86081
2.86557
2.87122
2.87796
2.8863
2.89788
2.91659
2.95049
3.01274
3.1127
3.22893
3.30163
1
1
1
1
1
1
1
1
1
1
1
1
1
1
1
1
1
1
1
1
1
1
1
1
1
1
1
1
1
1
1
1
1
1
1
1
1
1
1
1
1
1
1
1
1
1
1
1
1
1
1
1
1
1.00001
1.00051
1.0327
2.46866
2.68263
2.72725
2.75398
2.78409
2.79461
2.79777
2.79479
2.78662
2.77889
2.77804
2.78122
2.78994
2.80174
2.81222
2.81881
2.82147
2.82264
2.82413
2.82708
2.83142
2.83599
2.83983
2.84279
2.84531
2.84795
2.85096
2.85441
2.8584
2.86312
2.86882
2.87572
2.88426
2.89595
2.9146
2.94813
3.0098
3.10905
3.2251
3.29812
1
1
1
1
1
1
1
1
1
1
1
1
1
1
1
1
1
1
1
1
1
1
1
1
1
1
1
1
1
1
1
1
1
1
1
1
1
1
1
1
1
1
1
1
1
1
1
1
1
1
1
1
1
1.00001
1.00045
1.02886
2.386
2.67734
2.73619
2.76305
2.78903
2.79475
2.79454
2.78815
2.77801
2.77128
2.77247
2.77812
2.78927
2.80159
2.81112
2.81625
2.81796
2.81898
2.8207
2.82422
2.82917
2.83406
2.83795
2.84081
2.84319
2.84567
2.84856
2.85188
2.85573
2.86033
2.866
2.87298
2.88164
2.89338
2.912
2.94531
3.00663
3.1053
3.22133
3.29456
1
1
1
1
1
1
1
1
1
1
1
1
1
1
1
1
1
1
1
1
1
1
1
1
1
1
1
1
1
1
1
1
1
1
1
1
1
1
1
1
1
1
1
1
1
1
1
1
1
1
1
1
1
1.00001
1.00039
1.02517
2.28686
2.67259
2.74813
2.77316
2.78966
2.79215
2.78794
2.77826
2.76815
2.7645
2.76767
2.77652
2.7897
2.80168
2.80967
2.8131
2.81395
2.8149
2.81698
2.82118
2.82679
2.83197
2.83581
2.83853
2.84075
2.8431
2.84588
2.84908
2.85277
2.8572
2.86276
2.86973
2.87841
2.89011
2.90869
2.94187
3.00299
3.10118
3.21733
3.29073
1
1
1
1
1
1
1
1
1
1
1
1
1
1
1
1
1
1
1
1
1
1
1
1
1
1
1
1
1
1
1
1
1
1
1
1
1
1
1
1
1
1
1
1
1
1
1
1
1
1
1
1
1
1.00001
1.00033
1.02145
2.1818
2.67144
2.75997
2.77898
2.78701
2.78532
2.77818
2.76671
2.75828
2.75912
2.765
2.77699
2.79113
2.80178
2.80755
2.80911
2.8094
2.81036
2.81292
2.81787
2.82414
2.82954
2.83325
2.83578
2.83786
2.84012
2.84285
2.84597
2.84951
2.85375
2.85912
2.86595
2.87452
2.88607
2.90458
2.93765
2.99863
3.09641
3.2128
3.28644
1
1
1
1
1
1
1
1
1
1
1
1
1
1
1
1
1
1
1
1
1
1
1
1
1
1
1
1
1
1
1
1
1
1
1
1
1
1
1
1
1
1
1
1
1
1
1
1
1
1
1
1
1
1
1.00027
1.01776
2.07109
2.67169
2.76434
2.7765
2.77971
2.77618
2.76607
2.75498
2.75153
2.75533
2.76502
2.77968
2.79322
2.80133
2.80438
2.80428
2.80436
2.80546
2.80859
2.81436
2.82123
2.8267
2.83015
2.83244
2.83441
2.83666
2.83941
2.84252
2.84595
2.84996
2.85506
2.86165
2.87
2.88128
2.89966
2.93258
2.99344
3.09084
3.20752
3.2815
1
1
1
1
1
1
1
1
1
1
1
1
1
1
1
1
1
1
1
1
1
1
1
1
1
1
1
1
1
1
1
1
1
1
1
1
1
1
1
1
1
1
1
1
1
1
1
1
1
1
1
1
1
1
1.00021
1.0139
1.93763
2.66017
2.75702
2.76725
2.7685
2.76354
2.75319
2.74605
2.74759
2.75462
2.76833
2.78423
2.79476
2.79958
2.79986
2.79885
2.79892
2.80032
2.80419
2.81079
2.81811
2.82343
2.82646
2.82846
2.83034
2.83266
2.83554
2.83872
2.84206
2.84583
2.85062
2.85687
2.86488
2.87578
2.89396
2.92666
2.98732
3.08434
3.20131
3.27575
1
1
1
1
1
1
1
1
1
1
1
1
1
1
1
1
1
1
1
1
1
1
1
1
1
1
1
1
1
1
1
1
1
1
1
1
1
1
1
1
1
1
1
1
1
1
1
1
1
1
1
1
1
1
1.00014
1.0095
1.74115
2.62597
2.7393
2.74985
2.75195
2.74826
2.74193
2.74118
2.74638
2.75845
2.77547
2.78869
2.79473
2.79626
2.79454
2.79282
2.79314
2.79512
2.79993
2.80731
2.81483
2.81972
2.82217
2.82382
2.82566
2.82814
2.83125
2.83454
2.83782
2.84134
2.84576
2.8516
2.85921
2.86966
2.88752
2.91986
2.98024
3.07685
3.19407
3.26904
1
1
1
1
1
1
1
1
1
1
1
1
1
1
1
1
1
1
1
1
1
1
1
1
1
1
1
1
1
1
1
1
1
1
1
1
1
1
1
1
1
1
1
1
1
1
1
1
1
1
1
1
1
1
1.00007
1.00486
1.4427
2.56488
2.71655
2.72954
2.73509
2.7343
2.73407
2.73883
2.7503
2.76795
2.78354
2.79088
2.79325
2.79156
2.78812
2.78668
2.78732
2.79016
2.79608
2.80407
2.81139
2.81553
2.81727
2.81856
2.82038
2.82312
2.82653
2.82997
2.83318
2.83644
2.84047
2.84588
2.85305
2.863
2.88043
2.91221
2.97213
3.06826
3.18572
3.26123
1
1
1
1
1
1
1
1
1
1
1
1
1
1
1
1
1
1
1
1
1
1
1
1
1
1
1
1
1
1
1
1
1
1
1
1
1
1
1
1
1
1
1
1
1
1
1
1
1
1
1
1
1
1
1.00002
1.00156
1.1067
2.49202
2.70532
2.72105
2.72672
2.72764
2.73099
2.74093
2.75831
2.77646
2.78694
2.78992
2.7892
2.78538
2.78126
2.78074
2.78184
2.78584
2.79286
2.80106
2.80768
2.81078
2.81179
2.81274
2.8146
2.81767
2.82142
2.825
2.82811
2.8311
2.83473
2.8397
2.84644
2.85586
2.87271
2.90369
2.96292
3.05847
3.17616
3.25227
1
1
1
1
1
1
1
1
1
1
1
1
1
1
1
1
1
1
1
1
1
1
1
1
1
1
1
1
1
1
1
1
1
1
1
1
1
1
1
1
1
1
1
1
1
1
1
1
1
1
1
1
1
1
1.00001
1.00051
1.03177
2.40783
2.70949
2.72159
2.72519
2.72679
2.73195
2.74426
2.76196
2.77717
2.78435
2.78548
2.78332
2.77809
2.77474
2.77497
2.77708
2.7826
2.79038
2.79813
2.80352
2.80541
2.80577
2.80647
2.80843
2.81188
2.81596
2.8196
2.82255
2.82524
2.82848
2.83303
2.83934
2.8482
2.8643
2.89418
2.95247
3.04731
3.16524
3.24205
1
1
1
1
1
1
1
1
1
1
1
1
1
1
1
1
1
1
1
1
1
1
1
1
1
1
1
1
1
1
1
1
1
1
1
1
1
1
1
1
1
1
1
1
1
1
1
1
1
1
1
1
1
1
1.00001
1.00038
1.02473
2.30086
2.71911
2.72366
2.72378
2.72443
2.7296
2.74113
2.75755
2.77204
2.77834
2.77823
2.77508
2.77022
2.76875
2.76969
2.77372
2.78077
2.78846
2.79498
2.79868
2.79936
2.79929
2.79985
2.80202
2.80586
2.81016
2.81377
2.81647
2.81884
2.8217
2.82582
2.8317
2.83995
2.85507
2.8835
2.94058
3.03458
3.15279
3.23052
1
1
1
1
1
1
1
1
1
1
1
1
1
1
1
1
1
1
1
1
1
1
1
1
1
1
1
1
1
1
1
1
1
1
1
1
1
1
1
1
1
1
1
1
1
1
1
1
1
1
1
1
1
1
1
1.00031
1.01976
2.16877
2.72124
2.72481
2.72135
2.71962
2.72306
2.7329
2.7477
2.76142
2.76856
2.76792
2.76502
2.76249
2.76291
2.76589
2.77238
2.78001
2.7866
2.79121
2.79298
2.79272
2.79241
2.79302
2.79547
2.79967
2.80407
2.80748
2.80982
2.81184
2.81434
2.81801
2.82337
2.83087
2.84474
2.87139
2.92702
3.02001
3.13849
3.21722
1
1
1
1
1
1
1
1
1
1
1
1
1
1
1
1
1
1
1
1
1
1
1
1
1
1
1
1
1
1
1
1
1
1
1
1
1
1
1
1
1
1
1
1
1
1
1
1
1
1
1
1
1
1
1
1.00022
1.01467
1.99287
2.70931
2.71774
2.71224
2.70986
2.71448
2.72388
2.7357
2.74729
2.75584
2.75594
2.75482
2.75524
2.75825
2.76444
2.77249
2.77947
2.78417
2.78653
2.78646
2.78568
2.78522
2.78604
2.78886
2.79333
2.79764
2.80066
2.80257
2.80422
2.80635
2.80958
2.81424
2.82058
2.83299
2.85775
2.91171
3.00337
3.12184
3.20136
1
1
1
1
1
1
1
1
1
1
1
1
1
1
1
1
1
1
1
1
1
1
1
1
1
1
1
1
1
1
1
1
1
1
1
1
1
1
1
1
1
1
1
1
1
1
1
1
1
1
1
1
1
1
1
1.00013
1.009
1.70686
2.66016
2.69716
2.69393
2.69808
2.70813
2.71927
2.72742
2.73463
2.74228
2.74512
2.74634
2.74967
2.7559
2.76441
2.7727
2.77803
2.78033
2.7808
2.77966
2.77825
2.77786
2.77895
2.7822
2.78682
2.79087
2.79332
2.79472
2.79592
2.79759
2.80022
2.80398
2.80897
2.81975
2.84258
2.89453
2.98433
3.10221
3.18101
1
1
1
1
1
1
1
1
1
1
1
1
1
1
1
1
1
1
1
1
1
1
1
1
1
1
1
1
1
1
1
1
1
1
1
1
1
1
1
1
1
1
1
1
1
1
1
1
1
1
1
1
1
1
1
1.00005
1.00354
1.30043
2.56486
2.67102
2.67916
2.69195
2.70927
2.72183
2.72785
2.72954
2.73361
2.73762
2.74054
2.74577
2.75399
2.76358
2.77119
2.77448
2.77525
2.77442
2.77232
2.77063
2.7705
2.77186
2.77558
2.78001
2.78369
2.78542
2.78618
2.78682
2.78792
2.78975
2.79247
2.79602
2.80505
2.82568
2.87503
2.96218
3.07887
3.15377
1
1
1
1
1
1
1
1
1
1
1
1
1
1
1
1
1
1
1
1
1
1
1
1
1
1
1
1
1
1
1
1
1
1
1
1
1
1
1
1
1
1
1
1
1
1
1
1
1
1
1
1
1
1
1
1.00001
1.00088
1.04911
2.44112
2.6601
2.68051
2.69467
2.71362
2.72603
2.73068
2.72976
2.73075
2.73353
2.73601
2.7412
2.75003
2.76
2.7668
2.76915
2.769
2.76725
2.76466
2.7631
2.76324
2.76493
2.76893
2.773
2.77592
2.77684
2.77689
2.7769
2.77732
2.77818
2.7797
2.78171
2.78863
2.80636
2.85185
2.93447
3.0483
3.12107
1
1
1
1
1
1
1
1
1
1
1
1
1
1
1
1
1
1
1
1
1
1
1
1
1
1
1
1
1
1
1
1
1
1
1
1
1
1
1
1
1
1
1
1
1
1
1
1
1
1
1
1
1
1
1
1.00001
1.00038
1.02439
2.28558
2.66345
2.68429
2.69679
2.7139
2.7266
2.73143
2.72989
2.72882
2.72949
2.73035
2.73434
2.74296
2.75312
2.75988
2.76212
2.76162
2.75949
2.75702
2.75592
2.75628
2.75853
2.76229
2.76565
2.76744
2.76752
2.76692
2.76613
2.76586
2.76561
2.76578
2.76599
2.77021
2.78371
2.82291
2.8981
3.00541
3.07887
1
1
1
1
1
1
1
1
1
1
1
1
1
1
1
1
1
1
1
1
1
1
1
1
1
1
1
1
1
1
1
1
1
1
1
1
1
1
1
1
1
1
1
1
1
1
1
1
1
1
1
1
1
1
1
1
1.00025
1.01719
2.09015
2.6592
2.67741
2.68908
2.70547
2.7206
2.72651
2.72628
2.72493
2.72374
2.72347
2.72595
2.73331
2.7433
2.75085
2.75362
2.75324
2.75153
2.74981
2.7495
2.75014
2.75266
2.75564
2.75772
2.75838
2.75779
2.7563
2.75457
2.75334
2.75182
2.75016
2.74832
2.74977
2.75719
2.78675
2.8513
2.94655
3.01566
1
1
1
1
1
1
1
1
1
1
1
1
1
1
1
1
1
1
1
1
1
1
1
1
1
1
1
1
1
1
1
1
1
1
1
1
1
1
1
1
1
1
1
1
1
1
1
1
1
1
1
1
1
1
1
1
1.00014
1.01002
1.76724
2.61335
2.65783
2.67483
2.68933
2.7083
2.71735
2.71947
2.7187
2.71696
2.71603
2.71756
2.72304
2.73196
2.74041
2.74414
2.74447
2.7439
2.74358
2.74418
2.74518
2.74703
2.74869
2.74931
2.749
2.74751
2.74502
2.7423
2.73996
2.73702
2.73332
2.72857
2.72644
2.72736
2.74466
2.79191
2.84819
2.86371
1
1
1
1
1
1
1
1
1
1
1
1
1
1
1
1
1
1
1
1
1
1
1
1
1
1
1
1
1
1
1
1
1
1
1
1
1
1
1
1
1
1
1
1
1
1
1
1
1
1
1
1
1
1
1
1
1.00004
1.00336
1.27325
2.52156
2.64117
2.6667
2.67797
2.69345
2.70485
2.71046
2.71003
2.70895
2.70901
2.71079
2.71462
2.72125
2.7293
2.73443
2.73636
2.73725
2.73844
2.73985
2.7405
2.74101
2.74122
2.74071
2.7393
2.7366
2.73311
2.72937
2.72578
2.72124
2.71541
2.70724
2.69922
2.69275
2.69701
2.70887
2.69495
2.53985
1
1
1
1
1
1
1
1
1
1
1
1
1
1
1
1
1
1
1
1
1
1
1
1
1
1
1
1
1
1
1
1
1
1
1
1
1
1
1
1
1
1
1
1
1
1
1
1
1
1
1
1
1
1
1
1
1.00001
1.00066
1.04164
2.38336
2.6415
2.67445
2.68054
2.68684
2.69475
2.70149
2.70105
2.7011
2.7029
2.70641
2.70954
2.71339
2.71913
2.72509
2.72843
2.73087
2.73344
2.73517
2.73511
2.73454
2.73351
2.73174
2.72904
2.72515
2.7207
2.71593
2.71107
2.70485
2.69682
2.68522
2.67144
2.65629
2.64347
2.62219
2.55743
2.36194
1
1
1
1
1
1
1
1
1
1
1
1
1
1
1
1
1
1
1
1
1
1
1
1
1
1
1
1
1
1
1
1
1
1
1
1
1
1
1
1
1
1
1
1
1
1
1
1
1
1
1
1
1
1
1
1
1
1.0003
1.02123
2.15794
2.63151
2.6895
2.68886
2.68823
2.6902
2.69379
2.69326
2.69404
2.69784
2.70286
2.70593
2.70732
2.71019
2.71564
2.71983
2.7236
2.7274
2.72941
2.72879
2.72747
2.72543
2.7224
2.71839
2.71339
2.70798
2.70213
2.6959
2.68789
2.67752
2.66263
2.64357
2.61991
2.59229
2.55065
2.46145
2.20641
1
1
1
1
1
1
1
1
1
1
1
1
1
1
1
1
1
1
1
1
1
1
1
1
1
1
1
1
1
1
1
1
1
1
1
1
1
1
1
1
1
1
1
1
1
1
1
1
1
1
1
1
1
1
1
1
1
1.00015
1.01166
1.77511
2.56979
2.68107
2.6847
2.68313
2.68452
2.68686
2.68608
2.68724
2.69205
2.69816
2.70153
2.70134
2.70238
2.70594
2.71026
2.71478
2.71957
2.72224
2.72134
2.71964
2.71683
2.71269
2.7075
2.70145
2.69508
2.68813
2.68055
2.67086
2.65835
2.64076
2.61758
2.58751
2.5496
2.49905
2.43065
2.28544
1
1
1
1
1
1
1
1
1
1
1
1
1
1
1
1
1
1
1
1
1
1
1
1
1
1
1
1
1
1
1
1
1
1
1
1
1
1
1
1
1
1
1
1
1
1
1
1
1
1
1
1
1
1
1
1
1
1.00004
1.0038
1.25171
2.47152
2.65103
2.6683
2.67469
2.67849
2.67947
2.67874
2.68012
2.68506
2.69141
2.69505
2.69498
2.69509
2.69674
2.70027
2.70456
2.70975
2.71325
2.71256
2.71087
2.70764
2.70274
2.69664
2.68967
2.68234
2.67424
2.66528
2.65394
2.63939
2.61947
2.59311
2.55886
2.5157
2.46034
2.40332
2.28021
1
1
1
1
1
1
1
1
1
1
1
1
1
1
1
1
1
1
1
1
1
1
1
1
1
1
1
1
1
1
1
1
1
1
1
1
1
1
1
1
1
1
1
1
1
1
1
1
1
1
1
1
1
1
1
1
1
1.00001
1.00071
1.03988
2.33535
2.62352
2.65325
2.66686
2.67193
2.67157
2.6712
2.67273
2.67706
2.68274
2.68672
2.68801
2.68754
2.68839
2.69051
2.69373
2.69837
2.70241
2.7024
2.7012
2.69792
2.69262
2.6859
2.67816
2.66991
2.66069
2.65039
2.63762
2.6215
2.60014
2.57226
2.53641
2.49208
2.43343
2.38052
2.28065
1
1
1
1
1
1
1
1
1
1
1
1
1
1
1
1
1
1
1
1
1
1
1
1
1
1
1
1
1
1
1
1
1
1
1
1
1
1
1
1
1
1
1
1
1
1
1
1
1
1
1
1
1
1
1
1
1
1
1.00028
1.01938
2.1026
2.61147
2.64821
2.66222
2.66429
2.66311
2.66329
2.66497
2.66845
2.6729
2.67701
2.67973
2.67998
2.68042
2.68142
2.6832
2.68625
2.68994
2.69134
2.69041
2.68747
2.68228
2.67541
2.66719
2.65816
2.64789
2.63627
2.62213
2.60455
2.58199
2.55316
2.51648
2.47288
2.41447
2.35982
2.27724
1
1
1
1
1
1
1
1
1
1
1
1
1
1
1
1
1
1
1
1
1
1
1
1
1
1
1
1
1
1
1
1
1
1
1
1
1
1
1
1
1
1
1
1
1
1
1
1
1
1
1
1
1
1
1
1
1
1
1.00014
1.01043
1.70812
2.55864
2.64107
2.65516
2.65566
2.65445
2.65526
2.65752
2.66037
2.66303
2.66676
2.6708
2.67206
2.67264
2.67285
2.6735
2.67483
2.67725
2.67916
2.67871
2.67647
2.67181
2.66516
2.65677
2.64712
2.63591
2.62307
2.60777
2.5892
2.56616
2.53764
2.50155
2.46018
2.40422
2.34778
2.27292
1
1
1
1
1
1
1
1
1
1
1
1
1
1
1
1
1
1
1
1
1
1
1
1
1
1
1
1
1
1
1
1
1
1
1
1
1
1
1
1
1
1
1
1
1
1
1
1
1
1
1
1
1
1
1
1
1
1
1.00004
1.00348
1.21654
2.43826
2.61822
2.64231
2.64361
2.6439
2.64683
2.65091
2.65385
2.65429
2.65667
2.66146
2.66388
2.66474
2.66482
2.66463
2.66455
2.66515
2.66629
2.66624
2.66481
2.66095
2.65485
2.64668
2.63676
2.62489
2.61101
2.59461
2.57508
2.55141
2.52312
2.48754
2.44748
2.39625
2.33571
2.2636
1
1
1
1
1
1
1
1
1
1
1
1
1
1
1
1
1
1
1
1
1
1
1
1
1
1
1
1
1
1
1
1
1
1
1
1
1
1
1
1
1
1
1
1
1
1
1
1
1
1
1
1
1
1
1
1
1
1
1.00001
1.00068
1.0343
2.25765
2.60322
2.63249
2.63024
2.63263
2.63871
2.64442
2.64713
2.64634
2.64776
2.6522
2.65525
2.65658
2.65703
2.65624
2.65509
2.65402
2.65385
2.65364
2.65258
2.6495
2.6442
2.6366
2.62679
2.61458
2.59994
2.5827
2.56261
2.53876
2.51131
2.47708
2.43853
2.39138
2.33825
2.2733
1
1
1
1
1
1
1
1
1
1
1
1
1
1
1
1
1
1
1
1
1
1
1
1
1
1
1
1
1
1
1
1
1
1
1
1
1
1
1
1
1
1
1
1
1
1
1
1
1
1
1
1
1
1
1
1
1
1
1
1.00023
1.01613
1.97974
2.59214
2.62006
2.61658
2.6225
2.6313
2.63711
2.63889
2.63818
2.63931
2.64345
2.64662
2.64839
2.64907
2.6482
2.6464
2.64398
2.64212
2.64102
2.63977
2.63718
2.6327
2.62594
2.61666
2.60463
2.58971
2.5719
2.55128
2.52701
2.49984
2.4666
2.42904
2.38653
2.33651
2.27753
1
1
1
1
1
1
1
1
1
1
1
1
1
1
1
1
1
1
1
1
1
1
1
1
1
1
1
1
1
1
1
1
1
1
1
1
1
1
1
1
1
1
1
1
1
1
1
1
1
1
1
1
1
1
1
1
1
1
1
1.0001
1.00755
1.53786
2.53941
2.5942
2.60304
2.61503
2.62414
2.62952
2.6305
2.63029
2.63135
2.63527
2.63822
2.64006
2.64073
2.6399
2.63782
2.63465
2.63139
2.62895
2.62694
2.62432
2.62037
2.61445
2.60598
2.59454
2.57984
2.56192
2.54123
2.51694
2.49035
2.45871
2.42264
2.38417
2.33645
2.28479
1
1
1
1
1
1
1
1
1
1
1
1
1
1
1
1
1
1
1
1
1
1
1
1
1
1
1
1
1
1
1
1
1
1
1
1
1
1
1
1
1
1
1
1
1
1
1
1
1
1
1
1
1
1
1
1
1
1
1
1.00002
1.00193
1.08363
2.38164
2.57272
2.596
2.61033
2.61765
2.62129
2.62141
2.6214
2.62293
2.62707
2.62997
2.63167
2.63207
2.6312
2.62909
2.62572
2.62165
2.61784
2.61456
2.61127
2.60729
2.60188
2.59422
2.58367
2.56973
2.55226
2.53182
2.50761
2.48118
2.45055
2.41548
2.37991
2.33429
2.28912
1
1
1
1
1
1
1
1
1
1
1
1
1
1
1
1
1
1
1
1
1
1
1
1
1
1
1
1
1
1
1
1
1
1
1
1
1
1
1
1
1
1
1
1
1
1
1
1
1
1
1
1
1
1
1
1
1
1
1
1.00001
1.00031
1.0212
2.07782
2.54616
2.59006
2.60545
2.61029
2.61215
2.61148
2.61135
2.61328
2.61802
2.62136
2.623
2.62298
2.62182
2.61966
2.6164
2.61216
2.60755
2.6031
2.59881
2.59428
2.58888
2.58174
2.57205
2.55913
2.54254
2.5229
2.49934
2.47359
2.44423
2.41074
2.37753
2.33467
2.29564
1
1
1
1
1
1
1
1
1
1
1
1
1
1
1
1
1
1
1
1
1
1
1
1
1
1
1
1
1
1
1
1
1
1
1
1
1
1
1
1
1
1
1
1
1
1
1
1
1
1
1
1
1
1
1
1
1
1
1
1
1.00011
1.00896
1.58671
2.51819
2.5739
2.59395
2.60103
2.60222
2.60094
2.6006
2.60293
2.60812
2.61211
2.61379
2.61351
2.61184
2.60955
2.60655
2.60267
2.59795
2.59278
2.58746
2.58194
2.57592
2.56867
2.55945
2.54752
2.53209
2.51369
2.49113
2.46622
2.43778
2.40558
2.37434
2.33351
2.29888
1
1
1
1
1
1
1
1
1
1
1
1
1
1
1
1
1
1
1
1
1
1
1
1
1
1
1
1
1
1
1
1
1
1
1
1
1
1
1
1
1
1
1
1
1
1
1
1
1
1
1
1
1
1
1
1
1
1
1
1
1.00002
1.00204
1.09072
2.3807
2.55781
2.58634
2.59317
2.59279
2.58958
2.58976
2.59255
2.598
2.60237
2.60397
2.60352
2.60142
2.59883
2.59595
2.59253
2.58817
2.58295
2.57713
2.57079
2.56393
2.55616
2.54694
2.53564
2.52126
2.5043
2.48316
2.4598
2.4328
2.40245
2.37273
2.33383
2.30296
1
1
1
1
1
1
1
1
1
1
1
1
1
1
1
1
1
1
1
1
1
1
1
1
1
1
1
1
1
1
1
1
1
1
1
1
1
1
1
1
1
1
1
1
1
1
1
1
1
1
1
1
1
1
1
1
1
1
1
1
1.00001
1.0003
1.021
2.04555
2.52353
2.57856
2.5835
2.58271
2.57892
2.57922
2.58249
2.58814
2.59257
2.59386
2.5933
2.59089
2.58789
2.58495
2.58196
2.57827
2.57358
2.56782
2.56097
2.5532
2.54446
2.5346
2.52334
2.50969
2.49415
2.47455
2.45296
2.42742
2.39881
2.37092
2.33362
2.30587
1
1
1
1
1
1
1
1
1
1
1
1
1
1
1
1
1
1
1
1
1
1
1
1
1
1
1
1
1
1
1
1
1
1
1
1
1
1
1
1
1
1
1
1
1
1
1
1
1
1
1
1
1
1
1
1
1
1
1
1
1
1.00009
1.00791
1.48453
2.48961
2.5658
2.56894
2.56995
2.56901
2.56992
2.57455
2.57973
2.58356
2.5839
2.5832
2.58047
2.577
2.57384
2.57103
2.5679
2.56391
2.5586
2.55175
2.54355
2.53409
2.52352
2.51191
2.49847
2.48402
2.46588
2.44635
2.4228
2.39626
2.37031
2.33462
2.30897
1
1
1
1
1
1
1
1
1
1
1
1
1
1
1
1
1
1
1
1
1
1
1
1
1
1
1
1
1
1
1
1
1
1
1
1
1
1
1
1
1
1
1
1
1
1
1
1
1
1
1
1
1
1
1
1
1
1
1
1
1
1.00002
1.00153
1.06758
2.32673
2.55685
2.56029
2.55835
2.55791
2.55953
2.56621
2.57146
2.57476
2.57442
2.5734
2.57059
2.56679
2.56331
2.56043
2.55769
2.55445
2.54981
2.5433
2.53495
2.52489
2.51347
2.50114
2.48745
2.47364
2.45664
2.43888
2.4172
2.39252
2.36864
2.33531
2.31161
1
1
1
1
1
1
1
1
1
1
1
1
1
1
1
1
1
1
1
1
1
1
1
1
1
1
1
1
1
1
1
1
1
1
1
1
1
1
1
1
1
1
1
1
1
1
1
1
1
1
1
1
1
1
1
1
1
1
1
1
1
1
1.00024
1.01789
1.92607
2.52471
2.55304
2.54978
2.54564
2.54735
2.55508
2.56137
2.56518
2.56483
2.56376
2.56097
2.55693
2.55313
2.54998
2.54734
2.54462
2.54051
2.53442
2.52623
2.51606
2.50429
2.49145
2.47734
2.46376
2.44745
2.43131
2.41168
2.38904
2.36734
2.33618
2.31396
1
1
1
1
1
1
1
1
1
1
1
1
1
1
1
1
1
1
1
1
1
1
1
1
1
1
1
1
1
1
1
1
1
1
1
1
1
1
1
1
1
1
1
1
1
1
1
1
1
1
1
1
1
1
1
1
1
1
1
1
1
1
1.00005
1.00517
1.25892
2.43088
2.54215
2.53988
2.53514
2.53641
2.5436
2.55006
2.55428
2.55426
2.55344
2.55096
2.54696
2.54309
2.53979
2.53728
2.53497
2.53132
2.52576
2.51796
2.5079
2.49595
2.48271
2.46823
2.45461
2.43864
2.42331
2.40505
2.38388
2.36418
2.33505
2.31501
1
1
1
1
1
1
1
1
1
1
1
1
1
1
1
1
1
1
1
1
1
1
1
1
1
1
1
1
1
1
1
1
1
1
1
1
1
1
1
1
1
1
1
1
1
1
1
1
1
1
1
1
1
1
1
1
1
1
1
1
1
1
1.00001
1.00073
1.03579
2.16322
2.52629
2.52597
2.52258
2.52513
2.53316
2.53938
2.54346
2.54388
2.54339
2.54119
2.53734
2.5334
2.52987
2.52726
2.52511
2.52168
2.51643
2.50895
2.49915
2.48731
2.47399
2.45927
2.44566
2.42979
2.41519
2.39837
2.37871
2.36104
2.33422
2.31533
1
1
1
1
1
1
1
1
1
1
1
1
1
1
1
1
1
1
1
1
1
1
1
1
1
1
1
1
1
1
1
1
1
1
1
1
1
1
1
1
1
1
1
1
1
1
1
1
1
1
1
1
1
1
1
1
1
1
1
1
1
1
1
1.00014
1.01158
1.63807
2.47968
2.52179
2.51089
2.51418
2.5236
2.52983
2.53324
2.53355
2.53303
2.53081
2.52685
2.52279
2.51916
2.51668
2.51481
2.51161
2.50678
2.49977
2.49052
2.47912
2.46609
2.45156
2.43815
2.42258
2.40811
2.3918
2.37261
2.35607
2.33083
2.31368
1
1
1
1
1
1
1
1
1
1
1
1
1
1
1
1
1
1
1
1
1
1
1
1
1
1
1
1
1
1
1
1
1
1
1
1
1
1
1
1
1
1
1
1
1
1
1
1
1
1
1
1
1
1
1
1
1
1
1
1
1
1
1
1.00003
1.0024
1.10366
2.30046
2.51239
2.50245
2.5063
2.51562
2.52102
2.52371
2.52366
2.52296
2.5206
2.51666
2.5126
2.50883
2.50634
2.50466
2.50165
2.49709
2.49041
2.48155
2.47057
2.45779
2.44333
2.43001
2.41451
2.40037
2.38501
2.36691
2.35149
2.328
2.31208
1
1
1
1
1
1
1
1
1
1
1
1
1
1
1
1
1
1
1
1
1
1
1
1
1
1
1
1
1
1
1
1
1
1
1
1
1
1
1
1
1
1
1
1
1
1
1
1
1
1
1
1
1
1
1
1
1
1
1
1
1
1
1
1.00001
1.00026
1.01821
1.86229
2.46526
2.50764
2.50428
2.5088
2.51313
2.51483
2.51467
2.51353
2.51055
2.50614
2.50179
2.49776
2.49531
2.49377
2.49086
2.48652
2.48012
2.4718
2.46146
2.44951
2.43593
2.42346
2.40878
2.395
2.38003
2.36197
2.34672
2.32366
2.30863
1
1
1
1
1
1
1
1
1
1
1
1
1
1
1
1
1
1
1
1
1
1
1
1
1
1
1
1
1
1
1
1
1
1
1
1
1
1
1
1
1
1
1
1
1
1
1
1
1
1
1
1
1
1
1
1
1
1
1
1
1
1
1
1
1.00005
1.0047
1.20541
2.35009
2.49134
2.49949
2.50348
2.50362
2.50421
2.50471
2.50381
2.50076
2.49597
2.49127
2.48704
2.48469
2.48326
2.48056
2.47652
2.4704
2.46255
2.45279
2.4414
2.42822
2.41612
2.40177
2.38833
2.37375
2.35645
2.34233
2.32053
2.30609
1
1
1
1
1
1
1
1
1
1
1
1
1
1
1
1
1
1
1
1
1
1
1
1
1
1
1
1
1
1
1
1
1
1
1
1
1
1
1
1
1
1
1
1
1
1
1
1
1
1
1
1
1
1
1
1
1
1
1
1
1
1
1
1
1.00001
1.00061
1.02801
2.01738
2.44864
2.48438
2.49475
2.4929
2.49441
2.49582
2.49517
2.49232
2.48724
2.48191
2.47707
2.47422
2.47276
2.46999
2.46592
2.45972
2.45194
2.44244
2.43181
2.41962
2.40883
2.39594
2.38364
2.36995
2.35328
2.33897
2.31754
2.30294
1
1
1
1
1
1
1
1
1
1
1
1
1
1
1
1
1
1
1
1
1
1
1
1
1
1
1
1
1
1
1
1
1
1
1
1
1
1
1
1
1
1
1
1
1
1
1
1
1
1
1
1
1
1
1
1
1
1
1
1
1
1
1
1
1
1.00009
1.00817
1.4084
2.39281
2.46795
2.47916
2.47911
2.48207
2.48532
2.48533
2.48301
2.47787
2.47212
2.46706
2.46398
2.46246
2.45968
2.45589
2.44996
2.44252
2.43343
2.4234
2.41178
2.40151
2.38921
2.37764
2.36441
2.34843
2.3347
2.31448
2.30055
1
1
1
1
1
1
1
1
1
1
1
1
1
1
1
1
1
1
1
1
1
1
1
1
1
1
1
1
1
1
1
1
1
1
1
1
1
1
1
1
1
1
1
1
1
1
1
1
1
1
1
1
1
1
1
1
1
1
1
1
1
1
1
1
1
1.00002
1.00137
1.05277
2.15819
2.43976
2.46385
2.46889
2.47293
2.47471
2.47524
2.47355
2.46957
2.46424
2.45893
2.45509
2.45335
2.45039
2.44631
2.43995
2.43225
2.42297
2.41316
2.40201
2.3927
2.38155
2.37163
2.35979
2.34528
2.33198
2.31263
2.29847
1
1
1
1
1
1
1
1
1
1
1
1
1
1
1
1
1
1
1
1
1
1
1
1
1
1
1
1
1
1
1
1
1
1
1
1
1
1
1
1
1
1
1
1
1
1
1
1
1
1
1
1
1
1
1
1
1
1
1
1
1
1
1
1
1
1
1.00015
1.01212
1.5977
2.40706
2.44558
2.46207
2.46285
2.46419
2.46453
2.46326
2.46007
2.4549
2.44935
2.44528
2.44349
2.44044
2.43635
2.43016
2.42299
2.41417
2.40492
2.3942
2.38529
2.3746
2.36541
2.35407
2.34055
2.32735
2.3085
2.29564
1
1
1
1
1
1
1
1
1
1
1
1
1
1
1
1
1
1
1
1
1
1
1
1
1
1
1
1
1
1
1
1
1
1
1
1
1
1
1
1
1
1
1
1
1
1
1
1
1
1
1
1
1
1
1
1
1
1
1
1
1
1
1
1
1
1
1.00002
1.00234
1.09378
2.23098
2.4226
2.44617
2.45119
2.45351
2.45367
2.45226
2.44998
2.44604
2.44121
2.43702
2.4351
2.43208
2.42792
2.42125
2.41361
2.4045
2.39518
2.38456
2.37607
2.36579
2.35775
2.34741
2.3357
2.32391
2.3064
2.29361
1
1
1
1
1
1
1
1
1
1
1
1
1
1
1
1
1
1
1
1
1
1
1
1
1
1
1
1
1
1
1
1
1
1
1
1
1
1
1
1
1
1
1
1
1
1
1
1
1
1
1
1
1
1
1
1
1
1
1
1
1
1
1
1
1
1
1
1.00022
1.01615
1.71333
2.39834
2.42979
2.43628
2.44261
2.4434
2.44231
2.44059
2.43688
2.43161
2.42707
2.42531
2.42245
2.4184
2.41168
2.4045
2.39585
2.38716
2.37695
2.36881
2.3588
2.35137
2.34138
2.33039
2.31865
2.30176
2.28961
1
1
1
1
1
1
1
1
1
1
1
1
1
1
1
1
1
1
1
1
1
1
1
1
1
1
1
1
1
1
1
1
1
1
1
1
1
1
1
1
1
1
1
1
1
1
1
1
1
1
1
1
1
1
1
1
1
1
1
1
1
1
1
1
1
1
1
1.00003
1.00325
1.13099
2.27257
2.40232
2.42097
2.4309
2.43378
2.43243
2.43059
2.42692
2.42224
2.41803
2.4165
2.41417
2.41066
2.40392
2.39625
2.38712
2.37806
2.36775
2.35985
2.35006
2.34332
2.33362
2.32404
2.31377
2.29819
2.28685
1
1
1
1
1
1
1
1
1
1
1
1
1
1
1
1
1
1
1
1
1
1
1
1
1
1
1
1
1
1
1
1
1
1
1
1
1
1
1
1
1
1
1
1
1
1
1
1
1
1
1
1
1
1
1
1
1
1
1
1
1
1
1
1
1
1
1
1.00001
1.00029
1.01968
1.75736
2.3671
2.40788
2.41926
2.42427
2.42349
2.42134
2.41739
2.4122
2.40745
2.40623
2.40449
2.40153
2.3949
2.38763
2.37877
2.3702
2.36014
2.35249
2.34292
2.33673
2.32741
2.3185
2.30832
2.29304
2.28221
1
1
1
1
1
1
1
1
1
1
1
1
1
1
1
1
1
1
1
1
1
1
1
1
1
1
1
1
1
1
1
1
1
1
1
1
1
1
1
1
1
1
1
1
1
1
1
1
1
1
1
1
1
1
1
1
1
1
1
1
1
1
1
1
1
1
1
1
1.00004
1.00364
1.14907
2.24991
2.38461
2.40709
2.4144
2.41377
2.41102
2.40706
2.40199
2.39727
2.39649
2.39544
2.3934
2.38749
2.3802
2.37092
2.3617
2.35129
2.34367
2.33434
2.3288
2.31984
2.31156
2.30235
2.28803
2.2784
1
1
1
1
1
1
1
1
1
1
1
1
1
1
1
1
1
1
1
1
1
1
1
1
1
1
1
1
1
1
1
1
1
1
1
1
1
1
1
1
1
1
1
1
1
1
1
1
1
1
1
1
1
1
1
1
1
1
1
1
1
1
1
1
1
1
1
1
1.00001
1.0003
1.02081
1.72
2.34804
2.39564
2.40372
2.40478
2.402
2.39792
2.39212
2.38644
2.38573
2.38527
2.38383
2.37845
2.37176
2.3628
2.35409
2.34386
2.33618
2.32689
2.32186
2.31335
2.3058
2.297
2.28268
2.27346
1
1
1
1
1
1
1
1
1
1
1
1
1
1
1
1
1
1
1
1
1
1
1
1
1
1
1
1
1
1
1
1
1
1
1
1
1
1
1
1
1
1
1
1
1
1
1
1
1
1
1
1
1
1
1
1
1
1
1
1
1
1
1
1
1
1
1
1
1
1.00003
1.00338
1.13819
2.20682
2.37049
2.39144
2.3942
2.39137
2.38737
2.38225
2.37653
2.37591
2.37573
2.37478
2.37062
2.36446
2.3553
2.34606
2.33551
2.32757
2.31836
2.31396
2.30596
2.29902
2.29094
2.27709
2.26901
1
1
1
1
1
1
1
1
1
1
1
1
1
1
1
1
1
1
1
1
1
1
1
1
1
1
1
1
1
1
1
1
1
1
1
1
1
1
1
1
1
1
1
1
1
1
1
1
1
1
1
1
1
1
1
1
1
1
1
1
1
1
1
1
1
1
1
1
1
1.00001
1.00025
1.01906
1.63169
2.3311
2.37919
2.3838
2.38183
2.37834
2.37339
2.36723
2.36573
2.36577
2.36487
2.36136
2.35587
2.34713
2.33851
2.32843
2.32031
2.31088
2.3068
2.2991
2.29311
2.28563
2.27193
2.26418
1
1
1
1
1
1
1
1
1
1
1
1
1
1
1
1
1
1
1
1
1
1
1
1
1
1
1
1
1
1
1
1
1
1
1
1
1
1
1
1
1
1
1
1
1
1
1
1
1
1
1
1
1
1
1
1
1
1
1
1
1
1