/*--------------------------------*- C++ -*----------------------------------*\
| =========                 |                                                 |
| \\      /  F ield         | OpenFOAM: The Open Source CFD Toolbox           |
|  \\    /   O peration     | Version:  v1812                                 |
|   \\  /    A nd           | Web:      www.OpenFOAM.com                      |
|    \\/     M anipulation  |                                                 |
\*---------------------------------------------------------------------------*/
FoamFile
{
    version     2.0;
    format      ascii;
    class       volVectorField;
    location    "0.9";
    object      U;
}
// * * * * * * * * * * * * * * * * * * * * * * * * * * * * * * * * * * * * * //

dimensions      [0 1 -1 0 0 0 0];


internalField   nonuniform List<vector> 
64512
(
(3 -5.32325e-17 0)
(3 -5.20565e-17 0)
(3 -1.63873e-16 0)
(3 5.44255e-16 0)
(3 6.57384e-16 0)
(3 5.49249e-16 0)
(3 5.3056e-16 0)
(3 3.38274e-16 0)
(3 6.55578e-16 0)
(3 -4.08086e-17 0)
(3 -1.22206e-16 0)
(3 -5.31042e-16 0)
(3 -6.49812e-16 0)
(3 -8.50449e-16 0)
(3 -1.42599e-15 0)
(3 -1.42916e-15 0)
(3 -1.24364e-15 0)
(3 -5.58079e-16 0)
(3 -3.8471e-16 0)
(3 -1.36713e-16 0)
(3 1.36798e-16 0)
(3 6.21869e-16 0)
(3 9.97081e-16 0)
(3 8.31464e-16 0)
(3 7.4892e-16 0)
(3 5.29711e-16 0)
(3 5.14397e-16 0)
(3 6.55732e-16 0)
(3 2.36025e-16 0)
(3 -7.59797e-17 0)
(3 -8.23526e-16 0)
(3 -1.99505e-16 0)
(3 -8.5848e-17 0)
(3 1.38773e-16 0)
(3 1.53632e-16 0)
(3 -1.37428e-16 0)
(3 -8.56895e-16 0)
(3 -6.2686e-16 0)
(3 -8.01876e-17 0)
(3 -1.11125e-16 0)
(3 1.48842e-16 0)
(3 5.02104e-16 0)
(3 9.04763e-16 0)
(3 9.24833e-16 0)
(3 -3.20542e-18 0)
(3 -9.30623e-16 0)
(3 -5.86878e-16 0)
(3 -4.10025e-16 0)
(3 1.31156e-15 0)
(3 -6.07382e-14 0)
(3 4.03388e-12 0)
(3 -2.29791e-10 0)
(3 1.16704e-08 0)
(2.99978 -8.28226e-07 0)
(2.98582 -1.75022e-08 0)
(1.93576 -0.00320581 0)
(0.88356 -0.0192096 0)
(0.70234 0.0408558 0)
(0.634073 0.0228711 0)
(0.602104 0.00483864 0)
(0.593028 -0.00425318 0)
(0.592766 -0.00457255 0)
(0.592848 -0.00305307 0)
(0.589084 0.00141249 0)
(0.577829 0.00727218 0)
(0.557963 0.0115983 0)
(0.534911 0.0110061 0)
(0.516869 0.00652552 0)
(0.50418 0.00495054 0)
(0.491936 0.00646035 0)
(0.475985 0.00875248 0)
(0.456423 0.010535 0)
(0.436214 0.0103043 0)
(0.418139 0.00812162 0)
(0.403078 0.00558626 0)
(0.390341 0.00469316 0)
(0.377749 0.00624168 0)
(0.362109 0.00900436 0)
(0.341426 0.0119135 0)
(0.316076 0.0136497 0)
(0.288811 0.0132872 0)
(0.263121 0.0113443 0)
(0.240702 0.00929166 0)
(0.220836 0.00807742 0)
(0.20189 0.00780491 0)
(0.182496 0.00828008 0)
(0.161825 0.00912717 0)
(0.139791 0.0099029 0)
(0.117088 0.0102673 0)
(0.0948281 0.0101444 0)
(0.0738584 0.00972483 0)
(0.0550538 0.00914009 0)
(0.0376867 0.00852977 0)
(0.0237217 0.00743477 0)
(0.011052 0.00620769 0)
(0.00313629 0.00421018 0)
(3 8.81903e-17 0)
(3 1.26133e-18 0)
(3 2.17051e-16 0)
(3 8.53949e-16 0)
(3 7.73009e-16 0)
(3 1.1677e-15 0)
(3 1.88368e-15 0)
(3 1.53315e-15 0)
(3 1.84675e-15 0)
(3 1.65083e-15 0)
(3 1.03047e-15 0)
(3 2.34109e-16 0)
(3 3.03753e-16 0)
(3 1.85814e-16 0)
(3 -2.91632e-16 0)
(3 -6.65168e-16 0)
(3 -4.80509e-16 0)
(3 -9.7596e-17 0)
(3 -1.82838e-16 0)
(3 3.09271e-16 0)
(3 2.6808e-16 0)
(3 -7.17573e-16 0)
(3 -6.17589e-16 0)
(3 -3.87419e-16 0)
(3 -1.74325e-16 0)
(3 -3.09505e-16 0)
(3 -6.95747e-16 0)
(3 -8.80045e-16 0)
(3 -5.33695e-16 0)
(3 -4.85316e-16 0)
(3 -5.08412e-16 0)
(3 1.87474e-17 0)
(3 7.38258e-16 0)
(3 1.2555e-15 0)
(3 3.26475e-16 0)
(3 1.31423e-16 0)
(3 -4.30523e-16 0)
(3 -6.5491e-16 0)
(3 -4.18544e-16 0)
(3 -1.65168e-15 0)
(3 -1.61257e-15 0)
(3 -1.16951e-15 0)
(3 -1.67823e-16 0)
(3 -4.52259e-16 0)
(3 -7.44018e-16 0)
(3 -1.1247e-15 0)
(3 -6.41259e-16 0)
(3 6.64514e-16 0)
(3 3.28015e-15 0)
(3 -2.19799e-14 0)
(3 7.37062e-12 0)
(3 -1.81202e-10 0)
(3 2.01365e-08 0)
(2.99978 -7.45014e-07 0)
(2.98569 3.08506e-05 0)
(1.91322 -0.00311815 0)
(0.851704 -0.00573618 0)
(0.710344 0.0855284 0)
(0.662845 0.0581533 0)
(0.624574 0.0239208 0)
(0.605091 -0.00197766 0)
(0.595196 -0.00805853 0)
(0.589876 -0.00426017 0)
(0.584413 0.00656217 0)
(0.573719 0.0218184 0)
(0.556562 0.033111 0)
(0.536749 0.0328598 0)
(0.519666 0.0248842 0)
(0.504521 0.0193743 0)
(0.49077 0.0209638 0)
(0.476333 0.0255046 0)
(0.460392 0.0275474 0)
(0.444477 0.0255113 0)
(0.428195 0.022666 0)
(0.411114 0.0205818 0)
(0.393634 0.0198048 0)
(0.375963 0.0225666 0)
(0.357323 0.0290485 0)
(0.336103 0.0362791 0)
(0.312513 0.0405299 0)
(0.288737 0.0395658 0)
(0.266773 0.0347869 0)
(0.246436 0.0296583 0)
(0.226603 0.0267241 0)
(0.206658 0.0261554 0)
(0.186147 0.0274572 0)
(0.164738 0.0297543 0)
(0.142462 0.0318561 0)
(0.119897 0.0328408 0)
(0.0979363 0.03245 0)
(0.0772488 0.0311042 0)
(0.0586011 0.029091 0)
(0.041357 0.0267829 0)
(0.0272628 0.0229545 0)
(0.0140413 0.0188811 0)
(0.00388163 0.013943 0)
(3 5.17734e-17 0)
(3 4.72027e-16 0)
(3 1.65656e-16 0)
(3 8.32272e-17 0)
(3 -3.30468e-16 0)
(3 9.17191e-17 0)
(3 4.86301e-16 0)
(3 3.28188e-16 0)
(3 1.9399e-16 0)
(3 8.11134e-16 0)
(3 4.15401e-16 0)
(3 1.62059e-15 0)
(3 2.10127e-15 0)
(3 1.59325e-15 0)
(3 -6.57121e-19 0)
(3 -1.81024e-16 0)
(3 6.5275e-16 0)
(3 1.58033e-16 0)
(3 3.74002e-18 0)
(3 -6.06757e-17 0)
(3 -2.96608e-16 0)
(3 -4.80295e-16 0)
(3 -7.1872e-16 0)
(3 -6.57742e-17 0)
(3 6.95845e-16 0)
(3 7.58865e-16 0)
(3 7.98708e-16 0)
(3 3.84388e-16 0)
(3 9.05649e-16 0)
(3 9.8172e-16 0)
(3 1.40822e-15 0)
(3 1.25766e-15 0)
(3 1.17989e-15 0)
(3 9.61405e-16 0)
(3 -5.06451e-16 0)
(3 -9.99884e-18 0)
(3 3.91427e-16 0)
(3 -1.09278e-16 0)
(3 -3.07201e-17 0)
(3 -3.02347e-16 0)
(3 -5.30976e-16 0)
(3 -8.61474e-16 0)
(3 -7.80784e-16 0)
(3 -7.28238e-16 0)
(3 3.26123e-16 0)
(3 1.04364e-15 0)
(3 1.25594e-15 0)
(3 1.22891e-15 0)
(3 3.84349e-15 0)
(3 1.32952e-13 0)
(3 1.13094e-11 0)
(3 6.20212e-10 0)
(3 3.45376e-08 0)
(2.99979 3.38075e-06 0)
(2.9859 7.21035e-05 0)
(1.92806 0.023379 0)
(0.849143 -0.0174653 0)
(0.721383 0.107212 0)
(0.682087 0.0896013 0)
(0.642725 0.0533529 0)
(0.613414 0.0133922 0)
(0.593902 -0.00530779 0)
(0.582573 -0.00237913 0)
(0.5757 0.0114341 0)
(0.565579 0.0331108 0)
(0.54888 0.0500176 0)
(0.529642 0.0508083 0)
(0.514197 0.0408858 0)
(0.499819 0.0326365 0)
(0.486584 0.033598 0)
(0.474257 0.0390528 0)
(0.460616 0.0417978 0)
(0.446227 0.0406254 0)
(0.429938 0.0391039 0)
(0.411272 0.0381191 0)
(0.390897 0.0381542 0)
(0.370065 0.0417251 0)
(0.349992 0.0494741 0)
(0.330494 0.0581789 0)
(0.311021 0.0625423 0)
(0.292665 0.0599065 0)
(0.275459 0.0528447 0)
(0.25719 0.0464706 0)
(0.237488 0.0433748 0)
(0.216845 0.0432214 0)
(0.195606 0.0453392 0)
(0.173915 0.048669 0)
(0.151847 0.0516224 0)
(0.129765 0.052919 0)
(0.108268 0.0522187 0)
(0.0877783 0.0501401 0)
(0.0688629 0.04705 0)
(0.050959 0.0436098 0)
(0.0355441 0.0380663 0)
(0.0200524 0.0331247 0)
(0.00547529 0.0274975 0)
(3 5.70871e-17 0)
(3 6.09376e-16 0)
(3 2.36737e-16 0)
(3 6.19283e-17 0)
(3 -7.20249e-18 0)
(3 -1.22295e-15 0)
(3 -1.41118e-15 0)
(3 -1.06551e-15 0)
(3 -2.84718e-16 0)
(3 8.67108e-16 0)
(3 1.3395e-15 0)
(3 1.78705e-15 0)
(3 1.54803e-15 0)
(3 1.50496e-15 0)
(3 4.0265e-16 0)
(3 -2.19184e-16 0)
(3 -1.08749e-16 0)
(3 -1.36738e-16 0)
(3 -8.13969e-17 0)
(3 1.82559e-16 0)
(3 4.44551e-16 0)
(3 2.14741e-15 0)
(3 2.10482e-15 0)
(3 1.89293e-15 0)
(3 1.3003e-15 0)
(3 6.05912e-16 0)
(3 5.48053e-16 0)
(3 -4.66381e-16 0)
(3 -6.83732e-16 0)
(3 -5.0441e-16 0)
(3 8.43025e-16 0)
(3 1.6255e-15 0)
(3 1.5658e-15 0)
(3 1.58543e-15 0)
(3 1.48424e-15 0)
(3 1.65496e-15 0)
(3 1.3832e-15 0)
(3 7.53929e-16 0)
(3 3.61263e-16 0)
(3 8.98673e-17 0)
(3 -7.36369e-16 0)
(3 -7.82006e-16 0)
(3 -7.04399e-16 0)
(3 -5.81111e-17 0)
(3 6.43667e-16 0)
(3 7.48357e-16 0)
(3 7.64562e-16 0)
(3 1.37165e-15 0)
(3 7.67212e-15 0)
(3 2.30551e-13 0)
(3 2.14269e-11 0)
(3 9.74172e-10 0)
(3 8.2118e-08 0)
(2.99979 5.0225e-06 0)
(2.98635 0.000273965 0)
(1.95434 0.0351016 0)
(0.850469 -0.0124861 0)
(0.701982 0.125099 0)
(0.675518 0.113647 0)
(0.657643 0.0795665 0)
(0.63766 0.0339413 0)
(0.614763 0.00543123 0)
(0.594281 0.00549538 0)
(0.578639 0.0227878 0)
(0.563547 0.0494803 0)
(0.544392 0.0682381 0)
(0.525486 0.0681765 0)
(0.512117 0.0569456 0)
(0.49861 0.046905 0)
(0.484513 0.0466036 0)
(0.471218 0.051904 0)
(0.456749 0.054784 0)
(0.441667 0.0546147 0)
(0.42488 0.0555326 0)
(0.405563 0.0572994 0)
(0.384288 0.0587645 0)
(0.362983 0.0622857 0)
(0.343868 0.0693964 0)
(0.327396 0.0770914 0)
(0.312113 0.0797873 0)
(0.298053 0.0758815 0)
(0.28301 0.0693661 0)
(0.264975 0.0645318 0)
(0.244537 0.0626593 0)
(0.222892 0.0629663 0)
(0.201105 0.0651708 0)
(0.179697 0.0686958 0)
(0.158532 0.0719969 0)
(0.137435 0.0735957 0)
(0.116543 0.0730108 0)
(0.0960704 0.0708236 0)
(0.0765581 0.0672571 0)
(0.0575496 0.0632278 0)
(0.0406135 0.0564609 0)
(0.0230674 0.0508267 0)
(0.00537704 0.0443718 0)
(3 6.03862e-17 0)
(3 -3.73611e-16 0)
(3 5.26316e-16 0)
(3 -1.07277e-16 0)
(3 -4.80576e-16 0)
(3 -8.6662e-16 0)
(3 -7.89119e-16 0)
(3 -9.46664e-17 0)
(3 9.6732e-17 0)
(3 4.79667e-16 0)
(3 6.96209e-16 0)
(3 5.20652e-16 0)
(3 5.28601e-16 0)
(3 4.18592e-16 0)
(3 1.17558e-15 0)
(3 1.31825e-15 0)
(3 1.02895e-15 0)
(3 -6.47388e-16 0)
(3 -5.25444e-16 0)
(3 2.89934e-16 0)
(3 5.43183e-16 0)
(3 9.33432e-16 0)
(3 1.23125e-15 0)
(3 8.81679e-16 0)
(3 1.89921e-16 0)
(3 -5.08765e-17 0)
(3 -1.62191e-15 0)
(3 -1.83488e-15 0)
(3 -1.80786e-15 0)
(3 -1.12594e-15 0)
(3 -5.67208e-17 0)
(3 2.72878e-16 0)
(3 9.39674e-16 0)
(3 1.15624e-15 0)
(3 1.39231e-15 0)
(3 1.42819e-15 0)
(3 1.15699e-15 0)
(3 1.21072e-15 0)
(3 6.62184e-16 0)
(3 9.4418e-16 0)
(3 2.16033e-16 0)
(3 -1.63361e-16 0)
(3 3.4202e-16 0)
(3 -1.65046e-16 0)
(3 5.70649e-16 0)
(3 -1.59818e-16 0)
(3 -2.34669e-16 0)
(3 1.17927e-15 0)
(3 7.89731e-15 0)
(3 4.54216e-13 0)
(3 2.7421e-11 0)
(3 1.95322e-09 0)
(3 1.09153e-07 0)
(2.99981 9.30491e-06 0)
(2.98723 0.000402792 0)
(2.00927 0.0576695 0)
(0.867369 0.0242327 0)
(0.679102 0.128475 0)
(0.66198 0.117913 0)
(0.659841 0.0895919 0)
(0.65234 0.047614 0)
(0.632557 0.0190866 0)
(0.608408 0.0187818 0)
(0.587132 0.0393918 0)
(0.566892 0.0694587 0)
(0.54474 0.0870044 0)
(0.526601 0.0839555 0)
(0.515337 0.0710076 0)
(0.502004 0.0607984 0)
(0.48659 0.0612175 0)
(0.470484 0.067105 0)
(0.452975 0.0698041 0)
(0.435501 0.0695383 0)
(0.417577 0.0719362 0)
(0.398444 0.0761905 0)
(0.378033 0.079257 0)
(0.358084 0.0821716 0)
(0.340798 0.0871684 0)
(0.32684 0.0924048 0)
(0.314436 0.0932988 0)
(0.302364 0.0897329 0)
(0.287981 0.085188 0)
(0.270338 0.0824205 0)
(0.250252 0.0817687 0)
(0.228997 0.08218 0)
(0.207772 0.0838598 0)
(0.187164 0.0870083 0)
(0.166938 0.090474 0)
(0.146607 0.0926572 0)
(0.126072 0.0927328 0)
(0.105515 0.0909684 0)
(0.0854599 0.087409 0)
(0.0654608 0.0831705 0)
(0.0470524 0.0756426 0)
(0.0273095 0.0699153 0)
(0.00600438 0.0632858 0)
(3 9.78939e-17 0)
(3 -2.59042e-16 0)
(3 -3.32285e-16 0)
(3 -2.48205e-16 0)
(3 -7.68257e-17 0)
(3 9.40751e-16 0)
(3 1.63544e-15 0)
(3 1.75025e-15 0)
(3 8.80597e-16 0)
(3 -3.27411e-16 0)
(3 -5.18744e-16 0)
(3 -7.48096e-16 0)
(3 -7.41233e-16 0)
(3 -3.85434e-16 0)
(3 5.71295e-16 0)
(3 4.1532e-16 0)
(3 -2.273e-19 0)
(3 -1.85664e-16 0)
(3 1.31837e-16 0)
(3 4.68839e-16 0)
(3 1.1246e-15 0)
(3 7.71184e-16 0)
(3 4.95631e-16 0)
(3 -3.88703e-16 0)
(3 -1.00787e-15 0)
(3 -7.82025e-16 0)
(3 -1.54124e-15 0)
(3 -2.64388e-16 0)
(3 -2.71009e-16 0)
(3 3.51746e-16 0)
(3 4.98674e-16 0)
(3 9.97213e-16 0)
(3 1.19389e-15 0)
(3 1.4297e-15 0)
(3 1.51036e-15 0)
(3 1.0898e-15 0)
(3 4.36369e-16 0)
(3 4.25332e-16 0)
(3 -7.92795e-16 0)
(3 -8.7081e-16 0)
(3 2.1237e-16 0)
(3 5.91835e-16 0)
(3 1.27431e-15 0)
(3 1.40032e-15 0)
(3 1.29679e-15 0)
(3 1.95043e-15 0)
(3 1.87648e-15 0)
(3 1.94348e-15 0)
(3 1.17261e-14 0)
(3 6.35981e-13 0)
(3 3.53215e-11 0)
(3 2.59298e-09 0)
(3 1.38144e-07 0)
(2.99982 1.11283e-05 0)
(2.98834 0.000513799 0)
(2.07499 0.0614177 0)
(0.89085 0.0646652 0)
(0.671439 0.136539 0)
(0.65593 0.116655 0)
(0.660715 0.087901 0)
(0.657782 0.0534746 0)
(0.640975 0.0341614 0)
(0.618098 0.0385243 0)
(0.594111 0.0625441 0)
(0.570922 0.0929918 0)
(0.547285 0.105529 0)
(0.530637 0.0983066 0)
(0.520007 0.0838949 0)
(0.505871 0.0751017 0)
(0.489528 0.0775863 0)
(0.471294 0.0849364 0)
(0.451074 0.0877818 0)
(0.431141 0.0868393 0)
(0.411642 0.0892422 0)
(0.392584 0.0945792 0)
(0.373399 0.0984379 0)
(0.355251 0.10045 0)
(0.339638 0.103006 0)
(0.32704 0.105581 0)
(0.315907 0.105481 0)
(0.304195 0.103086 0)
(0.289956 0.100708 0)
(0.272845 0.099998 0)
(0.253571 0.100521 0)
(0.233221 0.100999 0)
(0.212848 0.10211 0)
(0.192962 0.104892 0)
(0.173374 0.108706 0)
(0.1535 0.111819 0)
(0.133134 0.112944 0)
(0.112493 0.111962 0)
(0.0920487 0.108837 0)
(0.0712819 0.104865 0)
(0.051748 0.0971067 0)
(0.030239 0.0918357 0)
(0.00619934 0.0854142 0)
(3 6.69017e-18 0)
(3 -6.54653e-17 0)
(3 -4.78148e-16 0)
(3 -1.29947e-16 0)
(3 4.54248e-16 0)
(3 4.76457e-16 0)
(3 6.49794e-16 0)
(3 1.86881e-16 0)
(3 -5.42151e-16 0)
(3 -9.63661e-16 0)
(3 -1.58145e-15 0)
(3 -1.34685e-15 0)
(3 -8.94143e-16 0)
(3 1.93742e-16 0)
(3 9.32537e-16 0)
(3 1.30252e-15 0)
(3 1.2772e-15 0)
(3 2.55883e-15 0)
(3 2.23352e-15 0)
(3 1.55751e-15 0)
(3 1.02014e-15 0)
(3 6.07955e-16 0)
(3 -6.73388e-16 0)
(3 -1.67145e-15 0)
(3 -2.24951e-15 0)
(3 -2.60005e-15 0)
(3 -2.06458e-15 0)
(3 -2.29712e-15 0)
(3 -1.8989e-15 0)
(3 -1.7845e-15 0)
(3 -8.47352e-16 0)
(3 -2.63888e-16 0)
(3 -5.9851e-17 0)
(3 2.98882e-16 0)
(3 6.99922e-16 0)
(3 1.0763e-16 0)
(3 2.51316e-18 0)
(3 -6.9146e-16 0)
(3 -5.05364e-16 0)
(3 -3.11576e-16 0)
(3 1.29629e-16 0)
(3 5.99703e-16 0)
(3 2.03047e-16 0)
(3 6.30987e-16 0)
(3 3.36932e-16 0)
(3 1.08138e-15 0)
(3 1.28598e-15 0)
(3 2.19721e-15 0)
(3 1.38372e-14 0)
(3 7.88595e-13 0)
(3 4.191e-11 0)
(3 3.14842e-09 0)
(3 1.58838e-07 0)
(2.99984 1.27177e-05 0)
(2.98961 0.000600529 0)
(2.14641 0.0652703 0)
(0.913522 0.113442 0)
(0.671573 0.147855 0)
(0.655926 0.114482 0)
(0.663624 0.0821283 0)
(0.659522 0.0556486 0)
(0.643301 0.0475661 0)
(0.62208 0.0587829 0)
(0.598632 0.0881552 0)
(0.573977 0.117536 0)
(0.549842 0.124058 0)
(0.533905 0.113134 0)
(0.521852 0.0976704 0)
(0.505924 0.0906958 0)
(0.488612 0.0953315 0)
(0.46946 0.104095 0)
(0.448531 0.106984 0)
(0.428235 0.105229 0)
(0.408582 0.107056 0)
(0.390177 0.112464 0)
(0.37234 0.116333 0)
(0.355758 0.117374 0)
(0.341243 0.11782 0)
(0.328951 0.118217 0)
(0.317617 0.117684 0)
(0.305283 0.116564 0)
(0.290727 0.116019 0)
(0.273908 0.116919 0)
(0.255362 0.118328 0)
(0.235886 0.11888 0)
(0.216243 0.119609 0)
(0.196836 0.122192 0)
(0.177648 0.12647 0)
(0.15816 0.130624 0)
(0.138091 0.132914 0)
(0.117638 0.132866 0)
(0.0971351 0.130481 0)
(0.0759363 0.127139 0)
(0.055571 0.119553 0)
(0.0326182 0.115037 0)
(0.00626297 0.109038 0)
(3 -2.56121e-16 0)
(3 -2.18477e-16 0)
(3 2.49158e-16 0)
(3 9.56044e-16 0)
(3 1.51668e-15 0)
(3 1.07936e-15 0)
(3 5.21995e-16 0)
(3 -8.18746e-16 0)
(3 -7.15467e-16 0)
(3 -5.9273e-16 0)
(3 -5.76999e-17 0)
(3 6.43889e-16 0)
(3 8.64267e-16 0)
(3 4.65507e-16 0)
(3 2.36408e-16 0)
(3 8.01149e-16 0)
(3 8.71822e-16 0)
(3 9.53573e-16 0)
(3 5.68108e-16 0)
(3 3.78224e-16 0)
(3 -9.16813e-16 0)
(3 -1.59705e-15 0)
(3 -2.12256e-15 0)
(3 -2.0179e-15 0)
(3 -2.23319e-15 0)
(3 -2.18007e-15 0)
(3 -1.10709e-15 0)
(3 -8.5527e-16 0)
(3 3.03234e-16 0)
(3 -2.28214e-17 0)
(3 2.88383e-17 0)
(3 -4.89459e-16 0)
(3 -1.35124e-16 0)
(3 -4.06042e-16 0)
(3 -4.93799e-16 0)
(3 -8.5648e-16 0)
(3 -4.99597e-16 0)
(3 -7.03489e-16 0)
(3 -8.06784e-16 0)
(3 9.56875e-17 0)
(3 1.99931e-16 0)
(3 5.73545e-16 0)
(3 5.49389e-16 0)
(3 4.31665e-16 0)
(3 1.39296e-15 0)
(3 2.27708e-15 0)
(3 3.00029e-15 0)
(3 3.5071e-15 0)
(3 1.57354e-14 0)
(3 8.9205e-13 0)
(3 4.99717e-11 0)
(3 3.60734e-09 0)
(3 1.8689e-07 0)
(2.99987 1.45078e-05 0)
(2.99103 0.000701219 0)
(2.22617 0.0746206 0)
(0.935917 0.157102 0)
(0.67572 0.156986 0)
(0.663845 0.113066 0)
(0.671088 0.0785009 0)
(0.662473 0.0597781 0)
(0.646775 0.0612284 0)
(0.624848 0.080573 0)
(0.601565 0.11525 0)
(0.575545 0.141959 0)
(0.551787 0.143096 0)
(0.536561 0.128906 0)
(0.523082 0.112756 0)
(0.506037 0.107319 0)
(0.48874 0.113607 0)
(0.470054 0.12338 0)
(0.449727 0.126188 0)
(0.430092 0.123594 0)
(0.410857 0.12454 0)
(0.393098 0.129422 0)
(0.376244 0.132848 0)
(0.360559 0.133141 0)
(0.346305 0.132211 0)
(0.333373 0.131331 0)
(0.320811 0.130866 0)
(0.307228 0.130904 0)
(0.291872 0.131697 0)
(0.27484 0.133619 0)
(0.256511 0.135554 0)
(0.237383 0.136207 0)
(0.217935 0.136807 0)
(0.198506 0.139356 0)
(0.17932 0.144104 0)
(0.160029 0.149254 0)
(0.140279 0.152698 0)
(0.120191 0.153676 0)
(0.0998986 0.152327 0)
(0.078645 0.149977 0)
(0.0579111 0.143001 0)
(0.0340522 0.139609 0)
(0.00614396 0.134253 0)
(3 -9.06596e-17 0)
(3 -3.89597e-16 0)
(3 9.44755e-16 0)
(3 8.9481e-16 0)
(3 1.13472e-15 0)
(3 6.88965e-16 0)
(3 3.45031e-16 0)
(3 6.48298e-16 0)
(3 5.41313e-16 0)
(3 1.18711e-15 0)
(3 2.63887e-15 0)
(3 2.53918e-15 0)
(3 2.32865e-15 0)
(3 1.86602e-15 0)
(3 1.21578e-15 0)
(3 1.54618e-15 0)
(3 6.81237e-16 0)
(3 1.81152e-17 0)
(3 -9.26893e-17 0)
(3 -1.05435e-15 0)
(3 -2.08387e-15 0)
(3 -3.04753e-15 0)
(3 -2.83131e-15 0)
(3 -2.68395e-15 0)
(3 -2.55691e-15 0)
(3 -2.28667e-15 0)
(3 -2.79616e-15 0)
(3 -2.08989e-15 0)
(3 -6.92521e-16 0)
(3 8.35674e-16 0)
(3 1.72803e-15 0)
(3 2.17881e-15 0)
(3 2.64846e-15 0)
(3 2.83149e-15 0)
(3 2.17196e-15 0)
(3 4.49042e-16 0)
(3 5.70054e-18 0)
(3 7.26321e-16 0)
(3 2.4293e-16 0)
(3 4.25575e-16 0)
(3 2.66628e-16 0)
(3 3.41187e-16 0)
(3 6.74312e-16 0)
(3 1.00397e-15 0)
(3 1.35689e-15 0)
(3 2.27327e-15 0)
(3 2.77772e-15 0)
(3 3.49772e-15 0)
(3 1.71741e-14 0)
(3 9.46546e-13 0)
(3 5.76933e-11 0)
(3 3.97747e-09 0)
(3 2.21354e-07 0)
(2.99989 1.66302e-05 0)
(2.99267 0.000828472 0)
(2.32443 0.0924707 0)
(0.964225 0.190247 0)
(0.685786 0.159458 0)
(0.681792 0.111746 0)
(0.682909 0.0785922 0)
(0.668946 0.0682325 0)
(0.651158 0.0775102 0)
(0.627003 0.104993 0)
(0.602801 0.143375 0)
(0.575628 0.165701 0)
(0.553378 0.161873 0)
(0.539776 0.144961 0)
(0.526482 0.128278 0)
(0.509768 0.123929 0)
(0.49353 0.131098 0)
(0.476015 0.141332 0)
(0.456486 0.144076 0)
(0.437264 0.140924 0)
(0.418075 0.141105 0)
(0.400372 0.145342 0)
(0.383807 0.148339 0)
(0.368321 0.148412 0)
(0.353738 0.147027 0)
(0.339759 0.145683 0)
(0.325738 0.145477 0)
(0.310819 0.146402 0)
(0.294497 0.148078 0)
(0.276898 0.150551 0)
(0.258274 0.152754 0)
(0.238879 0.15357 0)
(0.219 0.15425 0)
(0.198999 0.156819 0)
(0.179355 0.161854 0)
(0.159984 0.16773 0)
(0.140493 0.172115 0)
(0.120873 0.174068 0)
(0.101006 0.173934 0)
(0.080024 0.172821 0)
(0.0592646 0.166841 0)
(0.0348833 0.164852 0)
(0.00601634 0.160324 0)
(3 -2.12914e-17 0)
(3 -1.26886e-16 0)
(3 -5.89698e-16 0)
(3 -8.95367e-16 0)
(3 -5.95357e-16 0)
(3 -8.69359e-16 0)
(3 -1.04219e-16 0)
(3 -6.28507e-17 0)
(3 -2.82141e-16 0)
(3 2.86573e-16 0)
(3 3.52359e-16 0)
(3 -5.61437e-16 0)
(3 -6.34612e-16 0)
(3 6.49465e-16 0)
(3 1.08369e-15 0)
(3 7.50428e-16 0)
(3 3.02287e-16 0)
(3 -2.07349e-16 0)
(3 -1.09119e-15 0)
(3 -8.34489e-16 0)
(3 -9.34286e-16 0)
(3 -7.46728e-16 0)
(3 -3.70567e-17 0)
(3 1.26842e-16 0)
(3 2.74175e-16 0)
(3 2.01744e-16 0)
(3 2.25391e-16 0)
(3 -5.50208e-16 0)
(3 -3.21511e-16 0)
(3 5.97656e-16 0)
(3 5.34869e-16 0)
(3 1.29745e-15 0)
(3 1.21134e-15 0)
(3 1.30138e-15 0)
(3 1.49246e-15 0)
(3 2.3192e-15 0)
(3 2.47253e-15 0)
(3 3.13079e-15 0)
(3 3.7902e-15 0)
(3 3.40731e-15 0)
(3 2.88177e-15 0)
(3 2.61617e-15 0)
(3 1.26709e-15 0)
(3 7.19675e-16 0)
(3 5.85182e-16 0)
(3 1.76405e-16 0)
(3 -2.57135e-16 0)
(3 -2.24867e-16 0)
(3 1.31577e-14 0)
(3 8.93866e-13 0)
(3 5.99006e-11 0)
(3 4.00109e-09 0)
(3 2.52699e-07 0)
(2.99992 1.77905e-05 0)
(2.99455 0.000982143 0)
(2.45079 0.114043 0)
(1.00771 0.201148 0)
(0.703878 0.159894 0)
(0.703884 0.112851 0)
(0.696264 0.0850419 0)
(0.677683 0.0814516 0)
(0.656694 0.0980048 0)
(0.629904 0.132849 0)
(0.60306 0.17265 0)
(0.574753 0.188259 0)
(0.554987 0.179364 0)
(0.544052 0.159652 0)
(0.532295 0.14252 0)
(0.516935 0.138926 0)
(0.502125 0.146599 0)
(0.485629 0.157516 0)
(0.466239 0.161087 0)
(0.44669 0.158114 0)
(0.427167 0.157808 0)
(0.409284 0.161291 0)
(0.392889 0.163751 0)
(0.37757 0.163818 0)
(0.362708 0.162526 0)
(0.347829 0.161231 0)
(0.33251 0.161375 0)
(0.316299 0.162979 0)
(0.29887 0.16526 0)
(0.280377 0.168042 0)
(0.260996 0.170451 0)
(0.240818 0.171574 0)
(0.220024 0.17253 0)
(0.199038 0.175124 0)
(0.178538 0.18016 0)
(0.158729 0.186329 0)
(0.139258 0.191276 0)
(0.119989 0.194014 0)
(0.100567 0.19514 0)
(0.0800378 0.195397 0)
(0.0595201 0.190772 0)
(0.0349934 0.190405 0)
(0.00584006 0.186875 0)
(3 1.51426e-16 0)
(3 1.35476e-18 0)
(3 -2.17665e-16 0)
(3 5.97707e-18 0)
(3 -2.66527e-16 0)
(3 -1.30099e-16 0)
(3 -3.95427e-16 0)
(3 -5.6539e-16 0)
(3 -5.30367e-16 0)
(3 -8.09303e-16 0)
(3 -8.556e-16 0)
(3 -6.39304e-16 0)
(3 -5.38884e-16 0)
(3 -2.94477e-16 0)
(3 2.74934e-16 0)
(3 -2.85192e-16 0)
(3 -1.9428e-16 0)
(3 -2.63275e-17 0)
(3 -2.68564e-16 0)
(3 -6.25651e-16 0)
(3 -7.16448e-16 0)
(3 -4.36299e-16 0)
(3 3.14209e-16 0)
(3 7.85331e-16 0)
(3 9.53954e-16 0)
(3 1.33201e-15 0)
(3 1.60651e-15 0)
(3 1.99438e-15 0)
(3 2.21321e-15 0)
(3 1.47748e-15 0)
(3 1.01399e-15 0)
(3 1.06813e-15 0)
(3 6.87745e-16 0)
(3 1.01217e-15 0)
(3 1.18995e-15 0)
(3 1.08064e-15 0)
(3 1.41231e-15 0)
(3 1.35009e-15 0)
(3 1.2607e-15 0)
(3 8.88288e-16 0)
(3 5.3577e-16 0)
(3 2.15334e-16 0)
(3 2.71567e-17 0)
(3 1.30277e-16 0)
(3 3.97667e-17 0)
(3 2.72281e-16 0)
(3 8.11189e-16 0)
(3 1.47234e-15 0)
(3 1.10184e-14 0)
(3 6.63684e-13 0)
(3 4.76359e-11 0)
(3 3.30458e-09 0)
(3 2.33671e-07 0)
(2.99995 1.60207e-05 0)
(2.9966 0.00106975 0)
(2.60864 0.123969 0)
(1.07164 0.189734 0)
(0.728142 0.165241 0)
(0.722357 0.115856 0)
(0.707492 0.097484 0)
(0.684893 0.0988364 0)
(0.661267 0.123162 0)
(0.630851 0.165155 0)
(0.600048 0.202438 0)
(0.572568 0.208815 0)
(0.556945 0.194518 0)
(0.549387 0.171888 0)
(0.539672 0.154678 0)
(0.525833 0.152098 0)
(0.512103 0.160651 0)
(0.495993 0.173149 0)
(0.476101 0.17837 0)
(0.456084 0.175718 0)
(0.436506 0.174707 0)
(0.41875 0.177112 0)
(0.402661 0.178876 0)
(0.387492 0.17915 0)
(0.372307 0.17851 0)
(0.356567 0.177821 0)
(0.340039 0.178524 0)
(0.322561 0.180736 0)
(0.303969 0.183462 0)
(0.284456 0.186419 0)
(0.264168 0.189018 0)
(0.243081 0.19056 0)
(0.221309 0.191927 0)
(0.199315 0.194546 0)
(0.177899 0.199327 0)
(0.157496 0.205363 0)
(0.13785 0.210444 0)
(0.118748 0.213675 0)
(0.0996637 0.21595 0)
(0.0795908 0.217561 0)
(0.0593769 0.21459 0)
(0.0347973 0.215963 0)
(0.00576939 0.213516 0)
(3 7.386e-17 0)
(3 2.19887e-16 0)
(3 8.33155e-16 0)
(3 1.02113e-15 0)
(3 4.5345e-16 0)
(3 -1.43435e-16 0)
(3 -7.02691e-16 0)
(3 -8.48722e-16 0)
(3 -1.1127e-16 0)
(3 8.60977e-17 0)
(3 4.80681e-16 0)
(3 1.63236e-15 0)
(3 1.39076e-15 0)
(3 2.77862e-16 0)
(3 -6.74874e-16 0)
(3 -8.6485e-16 0)
(3 -8.64659e-16 0)
(3 -5.6918e-16 0)
(3 -1.98434e-16 0)
(3 -2.83413e-16 0)
(3 -4.90227e-16 0)
(3 -6.10651e-16 0)
(3 -4.10111e-16 0)
(3 3.41565e-17 0)
(3 1.32947e-15 0)
(3 1.40074e-15 0)
(3 7.57569e-16 0)
(3 1.48423e-15 0)
(3 1.01627e-15 0)
(3 6.9649e-16 0)
(3 3.56405e-17 0)
(3 3.46891e-16 0)
(3 1.08755e-15 0)
(3 9.0237e-16 0)
(3 9.61093e-16 0)
(3 3.81003e-16 0)
(3 3.91703e-16 0)
(3 7.77481e-18 0)
(3 -2.9309e-16 0)
(3 -3.24204e-16 0)
(3 -1.57699e-15 0)
(3 -1.84266e-15 0)
(3 -1.35844e-15 0)
(3 -8.8922e-16 0)
(3 -1.07272e-15 0)
(3 -9.43736e-16 0)
(3 -6.05478e-16 0)
(3 7.28386e-16 0)
(3 6.07421e-15 0)
(3 3.01871e-13 0)
(3 2.31803e-11 0)
(3 1.77456e-09 0)
(3 1.31692e-07 0)
(2.99998 1.00567e-05 0)
(2.99842 0.000779052 0)
(2.79933 0.0955159 0)
(1.1548 0.160541 0)
(0.751674 0.170341 0)
(0.731277 0.117308 0)
(0.714325 0.112217 0)
(0.68832 0.119231 0)
(0.661019 0.153767 0)
(0.626259 0.201367 0)
(0.593142 0.230227 0)
(0.570435 0.226125 0)
(0.560361 0.206452 0)
(0.556267 0.181079 0)
(0.548004 0.164671 0)
(0.535234 0.163796 0)
(0.521746 0.174187 0)
(0.505076 0.189216 0)
(0.48417 0.196201 0)
(0.463874 0.193489 0)
(0.44463 0.191484 0)
(0.427234 0.192782 0)
(0.411379 0.194047 0)
(0.396167 0.194845 0)
(0.380585 0.195264 0)
(0.364104 0.195534 0)
(0.346619 0.19691 0)
(0.328145 0.199643 0)
(0.308637 0.202673 0)
(0.28831 0.205695 0)
(0.267289 0.208472 0)
(0.245469 0.210509 0)
(0.222912 0.212386 0)
(0.200092 0.215053 0)
(0.177867 0.219406 0)
(0.156836 0.22498 0)
(0.136857 0.229847 0)
(0.11769 0.233279 0)
(0.0987504 0.236512 0)
(0.0790072 0.239358 0)
(0.0590852 0.238301 0)
(0.0343875 0.241425 0)
(0.00586453 0.240046 0)
(3 -3.79317e-18 0)
(3 2.26443e-16 0)
(3 -1.25741e-16 0)
(3 -3.80206e-16 0)
(3 -9.83002e-16 0)
(3 -8.58072e-16 0)
(3 -9.30517e-16 0)
(3 -8.86316e-16 0)
(3 -8.06455e-16 0)
(3 8.57158e-17 0)
(3 -1.64049e-17 0)
(3 2.20231e-16 0)
(3 1.26265e-16 0)
(3 -2.47081e-17 0)
(3 -7.38516e-16 0)
(3 -3.41262e-16 0)
(3 -2.33802e-16 0)
(3 -7.31455e-16 0)
(3 -5.42535e-16 0)
(3 -2.12429e-16 0)
(3 -2.38023e-16 0)
(3 -1.66103e-16 0)
(3 -5.51067e-16 0)
(3 -4.62608e-16 0)
(3 -4.46224e-16 0)
(3 9.96076e-18 0)
(3 1.52535e-15 0)
(3 1.42871e-15 0)
(3 7.07696e-16 0)
(3 3.66282e-16 0)
(3 1.29311e-16 0)
(3 -4.48298e-16 0)
(3 3.06385e-16 0)
(3 3.35203e-16 0)
(3 1.05028e-15 0)
(3 1.78129e-15 0)
(3 2.03815e-15 0)
(3 2.05084e-15 0)
(3 1.7806e-15 0)
(3 1.4324e-15 0)
(3 1.11046e-15 0)
(3 7.36184e-16 0)
(3 5.74932e-16 0)
(3 -4.39846e-16 0)
(3 -1.57437e-15 0)
(3 -2.07442e-15 0)
(3 -2.77169e-15 0)
(3 -1.29313e-15 0)
(3 -1.90219e-17 0)
(3 5.71427e-14 0)
(3 7.19775e-12 0)
(3 3.84016e-10 0)
(3 3.43356e-08 0)
(2.99999 2.6864e-06 0)
(2.9994 0.000150438 0)
(2.95099 0.0240312 0)
(1.2475 0.149783 0)
(0.769799 0.172491 0)
(0.733117 0.120923 0)
(0.721119 0.126275 0)
(0.687315 0.144226 0)
(0.652472 0.191907 0)
(0.61493 0.23817 0)
(0.585055 0.251338 0)
(0.570921 0.239241 0)
(0.566404 0.214396 0)
(0.564952 0.187339 0)
(0.556775 0.173262 0)
(0.54433 0.174988 0)
(0.529862 0.188625 0)
(0.511422 0.206717 0)
(0.489144 0.214641 0)
(0.468939 0.211149 0)
(0.45032 0.208015 0)
(0.433367 0.208504 0)
(0.417605 0.209634 0)
(0.402201 0.211147 0)
(0.386267 0.212752 0)
(0.369293 0.214087 0)
(0.351256 0.21614 0)
(0.332252 0.219301 0)
(0.312282 0.222536 0)
(0.29155 0.225585 0)
(0.270156 0.228571 0)
(0.247943 0.231185 0)
(0.224933 0.233675 0)
(0.201589 0.236457 0)
(0.178787 0.240309 0)
(0.157225 0.245223 0)
(0.136861 0.249664 0)
(0.117458 0.253075 0)
(0.0984714 0.257061 0)
(0.0788337 0.260947 0)
(0.059148 0.262043 0)
(0.0340265 0.266798 0)
(0.00638141 0.26639 0)
(3 8.92143e-17 0)
(3 2.77029e-17 0)
(3 -8.31679e-16 0)
(3 -1.11525e-15 0)
(3 -1.0072e-15 0)
(3 -1.04521e-15 0)
(3 -8.98965e-16 0)
(3 -6.6663e-16 0)
(3 -5.6893e-16 0)
(3 -5.03009e-16 0)
(3 -3.5382e-16 0)
(3 -4.09861e-16 0)
(3 -1.2218e-16 0)
(3 -3.79526e-16 0)
(3 1.78395e-16 0)
(3 1.55181e-16 0)
(3 1.38795e-16 0)
(3 9.68665e-17 0)
(3 9.15857e-17 0)
(3 -5.28432e-16 0)
(3 -5.84615e-16 0)
(3 -1.0136e-15 0)
(3 -1.64237e-15 0)
(3 -7.39427e-16 0)
(3 -1.05464e-15 0)
(3 -9.1025e-16 0)
(3 -2.32824e-16 0)
(3 -9.59115e-16 0)
(3 -6.00249e-16 0)
(3 -5.66417e-16 0)
(3 -1.68955e-16 0)
(3 -1.27751e-16 0)
(3 -1.53094e-16 0)
(3 1.69271e-15 0)
(3 2.47551e-15 0)
(3 2.72925e-15 0)
(3 2.21055e-15 0)
(3 1.3992e-15 0)
(3 4.87758e-16 0)
(3 8.69785e-16 0)
(3 1.66856e-15 0)
(3 1.79111e-15 0)
(3 9.15594e-16 0)
(3 -5.66824e-16 0)
(3 -1.31421e-15 0)
(3 -1.67344e-15 0)
(3 -1.50552e-15 0)
(3 -1.00907e-15 0)
(3 5.55871e-16 0)
(3 6.60823e-15 0)
(3 3.15212e-12 0)
(3 2.72579e-11 0)
(3 1.33421e-08 0)
(2.99999 1.29289e-07 0)
(2.99958 5.44905e-05 0)
(2.97312 0.000738878 0)
(1.3436 0.171832 0)
(0.790239 0.167078 0)
(0.737675 0.12486 0)
(0.72413 0.143549 0)
(0.67453 0.179376 0)
(0.634747 0.233751 0)
(0.600914 0.266485 0)
(0.581411 0.26492 0)
(0.575695 0.247292 0)
(0.575629 0.217572 0)
(0.575304 0.191589 0)
(0.565965 0.1817 0)
(0.552896 0.187052 0)
(0.536225 0.205333 0)
(0.514999 0.226114 0)
(0.491384 0.233337 0)
(0.471751 0.228295 0)
(0.453863 0.224112 0)
(0.437328 0.224252 0)
(0.421556 0.225623 0)
(0.4059 0.227927 0)
(0.389698 0.230672 0)
(0.372475 0.233023 0)
(0.354246 0.235686 0)
(0.335137 0.239193 0)
(0.315134 0.242598 0)
(0.294383 0.245716 0)
(0.272943 0.249004 0)
(0.250632 0.252306 0)
(0.227437 0.255529 0)
(0.203789 0.258546 0)
(0.180567 0.261925 0)
(0.158526 0.266104 0)
(0.137716 0.270031 0)
(0.117918 0.273272 0)
(0.0987071 0.277833 0)
(0.0789041 0.282544 0)
(0.05933 0.286062 0)
(0.0333486 0.292185 0)
(0.00697952 0.292506 0)
(3 -4.02351e-17 0)
(3 -7.74336e-17 0)
(3 -5.5384e-16 0)
(3 -1.24926e-15 0)
(3 -6.26011e-16 0)
(3 -8.53333e-16 0)
(3 -1.16983e-15 0)
(3 -7.904e-16 0)
(3 -4.42459e-16 0)
(3 -1.3713e-15 0)
(3 -1.09597e-15 0)
(3 -1.45802e-15 0)
(3 -1.12005e-15 0)
(3 -1.22051e-15 0)
(3 -1.13907e-15 0)
(3 -1.28663e-15 0)
(3 -1.65705e-15 0)
(3 -1.42228e-15 0)
(3 -1.05532e-15 0)
(3 -6.45035e-16 0)
(3 -4.27235e-16 0)
(3 -5.9929e-16 0)
(3 -5.8295e-16 0)
(3 1.04902e-17 0)
(3 5.46659e-16 0)
(3 4.02488e-16 0)
(3 4.91298e-17 0)
(3 -5.71116e-16 0)
(3 -9.33518e-16 0)
(3 -1.28495e-15 0)
(3 -1.40304e-15 0)
(3 -7.29662e-16 0)
(3 -3.65312e-17 0)
(3 4.38334e-16 0)
(3 1.5778e-15 0)
(3 1.67651e-15 0)
(3 2.27913e-15 0)
(3 2.061e-15 0)
(3 2.16914e-15 0)
(3 2.40533e-15 0)
(3 1.9165e-15 0)
(3 1.43842e-15 0)
(3 1.3689e-15 0)
(3 9.02183e-16 0)
(3 4.21613e-17 0)
(3 -1.23675e-15 0)
(3 -2.1015e-15 0)
(3 -2.47335e-15 0)
(3 -1.34171e-15 0)
(3 3.12951e-15 0)
(3 2.47685e-12 0)
(3 9.11159e-12 0)
(3 1.01771e-08 0)
(2.99999 1.92929e-08 0)
(2.99963 4.24689e-05 0)
(2.97625 -5.02245e-06 0)
(1.47361 0.183621 0)
(0.822596 0.157754 0)
(0.738192 0.134948 0)
(0.711559 0.175567 0)
(0.65251 0.222141 0)
(0.61594 0.268824 0)
(0.592781 0.281284 0)
(0.585134 0.272707 0)
(0.584495 0.248997 0)
(0.588693 0.216878 0)
(0.587015 0.195306 0)
(0.576077 0.190942 0)
(0.561021 0.201599 0)
(0.540999 0.225466 0)
(0.516477 0.247344 0)
(0.492282 0.251807 0)
(0.473832 0.244686 0)
(0.456722 0.239707 0)
(0.440581 0.240002 0)
(0.424754 0.241998 0)
(0.408791 0.245142 0)
(0.392329 0.248887 0)
(0.374967 0.252101 0)
(0.356741 0.255242 0)
(0.337771 0.258993 0)
(0.317987 0.26256 0)
(0.297438 0.265837 0)
(0.276142 0.26955 0)
(0.25392 0.273653 0)
(0.230744 0.277726 0)
(0.207 0.281109 0)
(0.183553 0.284111 0)
(0.161167 0.287585 0)
(0.139936 0.291027 0)
(0.119639 0.294029 0)
(0.100035 0.299061 0)
(0.0796911 0.304404 0)
(0.0599421 0.310646 0)
(0.0327422 0.317635 0)
(0.00869574 0.318437 0)
(3 -2.83972e-16 0)
(3 -1.95342e-16 0)
(3 -2.77716e-16 0)
(3 -6.22614e-17 0)
(3 1.46582e-16 0)