/*--------------------------------*- C++ -*----------------------------------*\
| =========                 |                                                 |
| \\      /  F ield         | OpenFOAM: The Open Source CFD Toolbox           |
|  \\    /   O peration     | Version:  v1812                                 |
|   \\  /    A nd           | Web:      www.OpenFOAM.com                      |
|    \\/     M anipulation  |                                                 |
\*---------------------------------------------------------------------------*/
FoamFile
{
    version     2.0;
    format      ascii;
    class       volScalarField;
    location    "0.3";
    object      p;
}
// * * * * * * * * * * * * * * * * * * * * * * * * * * * * * * * * * * * * * //

dimensions      [1 -1 -2 0 0 0 0];


internalField   nonuniform List<scalar> 
20400
(
100012
100008
100022
100026
100031
100038
100044
100050
100059
100068
100078
100092
100103
100114
100126
100145
100161
100180
100200
100222
100242
100264
100285
100308
100331
100352
100380
100388
100422
100435
100457
100471
100488
100503
100521
100542
100564
100591
100617
100648
100681
100715
100750
100790
100827
100868
100910
100958
100991
101034
101079
101129
101174
101221
101263
101302
101342
101378
101410
101439
101462
101480
101492
101499
101499
101492
101481
101465
101444
101429
101390
101354
101314
101270
101221
101170
101116
101061
101006
100944
100883
100819
100754
100688
100622
100556
100490
100425
100361
100296
100233
100172
100108
100046
99986
99928.3
99872.1
99818.4
99766.2
99717.1
99670.2
99626
99584.7
99546.4
99511.3
99479.4
99450.9
99426
99404.6
99386.7
99372.2
99360.9
99352.7
99347.5
99345
99345.2
99349
99356.3
99366.7
99379.8
99396.8
99417.6
99441.6
99468.2
99497.4
99529.2
99563.6
99600.3
99639.2
99680.2
99723.1
99767.9
99814.3
99862.2
99911.5
99962
100014
100066
100119
100173
100228
100282
100337
100392
100447
100502
100557
100611
100665
100719
100771
100823
100874
100925
100974
101021
101068
101113
101157
101199
101239
101278
101314
101349
101381
101411
101438
101462
101484
101503
101520
101534
101546
101555
101562
101566
101568
101568
101566
101560
101550
101537
101521
101503
101483
101460
101434
101407
101377
101346
101313
101278
101242
101205
101167
101128
101088
101048
101007
100966
100925
100885
100844
100804
100765
100726
100689
100652
100616
100582
100550
100519
100489
100462
100436
100412
100391
100371
100354
100338
100325
100314
100305
100298
100293
100290
100288
100289
100292
100298
100305
100315
100327
100342
100358
100376
100396
100419
100443
100468
100496
100525
100555
100587
100621
100656
100692
100729
100767
100806
100846
100886
100927
100969
101010
101052
101093
101134
101174
101214
101253
101290
101326
101361
101394
101426
101455
101482
101507
101530
101550
101567
101581
101593
101602
101608
101612
101613
101612
101607
101600
101591
101580
101566
101551
101533
101513
101491
101467
101442
101416
101389
101361
101332
101303
101274
101244
101215
101187
101159
101132
101105
101080
101056
101033
101012
100992
100973
100957
100941
100928
100916
100906
100897
100890
100885
100881
100879
100878
100878
100879
100882
100886
100890
100895
100901
100908
100915
100923
100931
100939
100947
100956
100964
100972
100980
100987
100995
101002
101008
101014
101020
101026
101031
101035
101039
101043
101046
101049
101052
101054
101057
101059
101061
101063
101064
101066
101068
101071
101073
101075
101078
101081
101084
101087
101090
101094
101098
101103
101107
101112
101117
101122
101127
101132
101137
101142
101146
101150
101154
101158
101162
101166
101170
101173
101175
101177
101179
101181
101182
101182
101182
101182
101181
101180
101178
101176
101174
101171
101168
101164
101161
101157
101154
101150
101147
101144
101141
101139
101136
101135
101133
101133
101133
101133
101134
101136
101139
101142
101146
101151
101156
101163
101169
101177
101185
101193
101202
101211
101221
101231
101242
101252
101262
101273
101283
101294
101304
101313
101323
101331
101340
101347
101354
101361
101366
101371
101375
101378
101380
101382
101382
101382
101380
101378
101375
101372
101367
101362
101357
101350
101344
101337
101329
101321
101313
101305
101297
101289
101281
101273
101265
101258
101250
101244
101238
101232
101227
101223
101220
101218
101216
101215
101216
101217
101219
101221
101225
101230
101235
101241
101248
101256
101265
101276
101281
101291
101300
101308
101321
100011
100004
100013
100017
100021
100026
100033
100040
100051
100062
100075
100091
100105
100119
100134
100143
100155
100165
100179
100190
100200
100216
100233
100250
100267
100285
100296
100294
100349
100393
100421
100444
100470
100499
100530
100563
100592
100623
100649
100677
100708
100735
100769
100810
100850
100905
100951
100999
101045
101083
101123
101160
101194
101228
101257
101283
101310
101334
101356
101377
101394
101408
101418
101423
101424
101418
101407
101405
101393
101318
101289
101247
101203
101159
101113
101067
101019
100969
100920
100867
100813
100758
100702
100644
100586
100527
100467
100407
100347
100286
100227
100169
100110
100052
99994.9
99939.3
99885.2
99832.5
99781.2
99732.6
99686
99641.7
99600.1
99561.3
99525.4
99492.6
99463.2
99437.3
99414.8
99395.8
99380.2
99367.9
99358.8
99352.6
99349.2
99348.6
99351.7
99358.4
99368.3
99381.5
99398.5
99419.1
99442.9
99469.6
99499
99531
99565.6
99602.5
99641.7
99683
99726.1
99771.1
99817.7
99865.9
99915.3
99966
100018
100070
100124
100178
100232
100287
100342
100397
100452
100507
100562
100616
100670
100723
100776
100827
100878
100928
100977
101025
101071
101116
101160
101201
101241
101280
101316
101350
101382
101411
101438
101462
101484
101503
101519
101533
101544
101552
101559
101563
101565
101565
101562
101555
101545
101532
101516
101498
101477
101454
101429
101401
101371
101340
101307
101272
101236
101199
101161
101122
101082
101042
101001
100960
100919
100879
100838
100798
100759
100720
100683
100646
100611
100577
100545
100514
100484
100457
100431
100408
100386
100367
100350
100335
100322
100311
100302
100295
100290
100288
100286
100287
100291
100296
100304
100314
100327
100341
100358
100376
100397
100419
100443
100469
100496
100525
100556
100588
100622
100657
100693
100730
100768
100807
100847
100888
100929
100970
101011
101053
101094
101135
101175
101215
101254
101291
101328
101362
101395
101427
101456
101483
101508
101531
101551
101568
101583
101594
101603
101609
101612
101614
101612
101607
101601
101592
101580
101567
101551
101533
101513
101491
101467
101442
101415
101388
101360
101331
101301
101272
101243
101214
101185
101157
101129
101103
101077
101053
101030
101009
100989
100970
100953
100938
100924
100912
100902
100893
100886
100881
100877
100875
100873
100873
100875
100877
100881
100885
100891
100897
100903
100911
100918
100926
100934
100943
100951
100959
100967
100975
100983
100990
100997
101004
101010
101016
101021
101026
101030
101035
101038
101042
101045
101047
101050
101052
101054
101056
101058
101060
101062
101064
101066
101068
101070
101073
101076
101078
101082
101085
101089
101093
101097
101101
101106
101111
101116
101121
101127
101131
101139
101145
101149
101156
101158
101157
101168
101176
101179
101179
101176
101184
101188
101189
101189
101189
101189
101189
101187
101186
101184
101181
101178
101175
101172
101169
101165
101161
101158
101155
101151
101148
101146
101144
101142
101140
101140
101139
101140
101141
101143
101145
101148
101152
101157
101162
101168
101174
101182
101189
101198
101206
101216
101225
101235
101245
101255
101266
101276
101286
101296
101306
101316
101325
101333
101341
101349
101356
101362
101367
101372
101376
101378
101381
101382
101382
101382
101380
101378
101375
101372
101368
101363
101357
101351
101345
101338
101331
101323
101315
101308
101300
101292
101284
101277
101269
101263
101256
101250
101244
101239
101235
101231
101229
101226
101225
101224
101225
101226
101228
101230
101233
101237
101242
101248
101254
101261
101274
101285
101280
101285
101292
101299
101315
99995.9
99981.2
99996.2
100003
100011
100016
100025
100035
100049
100062
100076
100092
100109
100122
100138
100167
100192
100212
100239
100264
100290
100318
100346
100375
100404
100426
100437
100430
100450
100458
100478
100492
100504
100513
100525
100540
100558
100582
100610
100639
100669
100699
100728
100758
100787
100820
100858
100888
100928
100957
100988
101020
101048
101077
101104
101131
101161
101191
101222
101254
101285
101315
101341
101364
101383
101397
101404
101403
101392
101383
101359
101334
101302
101266
101225
101181
101131
101071
101000
100937
100874
100810
100746
100680
100615
100555
100486
100421
100357
100294
100232
100171
100107
100045
99985.8
99928.3
99873.4
99819.8
99768.1
99718.2
99671.1
99626.9
99585.7
99547.2
99512
99480
99451.4
99426.3
99404.7
99386.7
99372.1
99360.8
99352.6
99347.3
99344.8
99344.8
99348.3
99355.8
99366.1
99380.1
99397.4
99418.1
99442
99468.7
99498.2
99530.3
99564.9
99601.8
99640.8
99682
99725.1
99769.9
99816.4
99864.4
99913.7
99964.2
100016
100068
100122
100176
100230
100285
100340
100395
100450
100505
100560
100614
100668
100722
100774
100826
100877
100928
100977
101024
101071
101116
101160
101202
101242
101281
101317
101351
101383
101413
101440
101465
101487
101506
101522
101536
101547
101556
101563
101568
101570
101570
101567
101561
101551
101538
101522
101504
101484
101461
101435
101408
101378
101347
101314
101280
101244
101207
101168
101129
101090
101049
101009
100968
100927
100886
100845
100805
100766
100727
100690
100653
100618
100583
100551
100520
100490
100463
100437
100413
100391
100372
100354
100339
100326
100314
100305
100298
100293
100290
100288
100289
100292
100297
100305
100315
100327
100341
100357
100375
100395
100417
100441
100467
100494
100523
100554
100586
100619
100654
100690
100727
100765
100804
100843
100884
100925
100966
101007
101048
101090
101130
101171
101210
101249
101286
101322
101357
101390
101422
101451
101478
101503
101526
101546
101563
101577
101589
101598
101604
101608
101609
101608
101603
101597
101588
101577
101564
101548
101531
101511
101489
101466
101441
101415
101388
101360
101332
101303
101274
101245
101216
101188
101160
101133
101107
101082
101058
101035
101014
100994
100976
100959
100944
100931
100919
100909
100900
100893
100888
100884
100882
100881
100881
100882
100885
100889
100893
100898
100904
100911
100918
100926
100934
100942
100950
100958
100966
100974
100982
100990
100997
101004
101011
101017
101023
101028
101033
101037
101041
101045
101048
101052
101054
101057
101059
101061
101063
101065
101067
101069
101072
101074
101076
101079
101082
101084
101088
101091
101095
101098
101103
101107
101111
101116
101120
101124
101129
101133
101138
101139
101143
101149
101151
101159
101166
101165
101165
101167
101173
101181
101178
101178
101179
101179
101179
101179
101178
101176
101174
101172
101170
101167
101164
101160
101157
101153
101150
101146
101143
101140
101137
101134
101132
101130
101129
101128
101128
101129
101130
101132
101134
101137
101141
101146
101151
101158
101164
101171
101179
101188
101197
101206
101216
101226
101236
101247
101257
101267
101278
101288
101298
101308
101317
101326
101334
101342
101349
101355
101361
101366
101370
101373
101375
101376
101377
101377
101376
101374
101371
101367
101363
101358
101352
101346
101340
101332
101325
101317
101309
101301
101293
101284
101276
101267
101259
101252
101244
101237
101231
101225
101219
101214
101210
101207
101205
101203
101203
101203
101204
101206
101209
101212
101217
101222
101228
101235
101241
101247
101269
101280
101292
101305
101321
100012
99998.1
100008
100015
100018
100024
100030
100040
100052
100062
100072
100087
100100
100114
100133
100152
100170
100187
100211
100231
100249
100268
100287
100313
100344
100368
100398
100432
100452
100463
100477
100491
100508
100520
100535
100551
100571
100593
100619
100643
100671
100694
100734
100766
100804
100841
100881
100930
100977
101018
101067
101113
101156
101200
101243
101284
101325
101363
101397
101426
101451
101470
101483
101489
101490
101483
101468
101445
101415
101396
101358
101328
101295
101258
101217
101174
101126
101074
101011
100948
100887
100824
100760
100696
100632
100556
100486
100420
100353
100287
100225
100163
100100
100040
99981.7
99922.6
99867
99813.8
99762.5
99713.4
99667.8
99624.1
99583
99544.7
99510
99478.3
99450
99425.2
99403.9
99386.1
99371.8
99360.7
99352.7
99347.6
99345.1
99345
99348.4
99355.8
99366.2
99380
99397.3
99418
99441.8
99468.6
99498.2
99530.4
99565
99602
99641.1
99682.3
99725.4
99770.3
99816.8
99864.9
99914.3
99964.9
100017
100069
100123
100177
100231
100286
100341
100396
100451
100506
100561
100616
100670
100723
100776
100828
100879
100929
100978
101026
101073
101118
101162
101204
101244
101283
101319
101353
101385
101415
101442
101466
101488
101507
101523
101537
101548
101557
101564
101568
101571
101571
101568
101561
101551
101538
101522
101504
101484
101460
101435
101408
101378
101346
101313
101279
101243
101205
101167
101128
101088
101048
101007
100966
100925
100884
100843
100803
100764
100725
100687
100650
100615
100581
100548
100517
100488
100460
100434
100410
100389
100369
100352
100336
100323
100312
100303
100296
100291
100288
100286
100287
100290
100295
100303
100313
100325
100339
100356
100374
100394
100416
100440
100466
100493
100522
100553
100585
100618
100653
100689
100726
100764
100803
100843
100883
100924
100965
101006
101048
101089
101129
101170
101209
101248
101285
101321
101356
101389
101420
101450
101477
101502
101525
101545
101562
101576
101588
101597
101603
101607
101608
101607
101602
101596
101587
101576
101563
101547
101529
101509
101488
101464
101440
101414
101387
101359
101330
101301
101272
101243
101215
101186
101158
101131
101105
101080
101056
101033
101012
100992
100974
100957
100942
100928
100916
100906
100897
100890
100885
100881
100879
100877
100877
100878
100881
100884
100889
100894
100900
100906
100913
100921
100928
100936
100944
100953
100961
100969
100976
100984
100991
100998
101004
101010
101016
101021
101026
101031
101035
101038
101042
101045
101047
101050
101052
101055
101057
101059
101061
101063
101065
101067
101070
101072
101075
101078
101081
101085
101088
101092
101097
101101
101106
101111
101116
101121
101126
101132
101137
101142
101148
101152
101157
101162
101168
101170
101173
101175
101180
101184
101185
101186
101187
101188
101188
101188
101187
101186
101184
101182
101180
101177
101174
101170
101167
101163
101160
101156
101153
101149
101146
101143
101141
101139
101138
101137
101136
101137
101138
101139
101141
101144
101148
101153
101158
101163
101170
101177
101184
101193
101201
101210
101220
101230
101239
101249
101260
101270
101280
101290
101299
101309
101318
101326
101334
101342
101348
101354
101360
101364
101368
101371
101374
101375
101376
101375
101374
101372
101370
101366
101362
101357
101352
101346
101340
101333
101326
101318
101311
101303
101295
101287
101280
101272
101265
101258
101251
101245
101239
101234
101229
101225
101222
101220
101218
101217
101218
101219
101220
101223
101227
101231
101236
101242
101248
101255
101264
101272
101280
101290
101300
101309
101320
100003
99982.3
100001
100009
100013
100019
100025
100034
100046
100058
100072
100087
100103
100119
100143
100169
100192
100215
100243
100264
100284
100302
100319
100336
100351
100361
100373
100388
100404
100418
100434
100445
100457
100474
100487
100507
100523
100546
100576
100606
100637
100673
100706
100745
100789
100831
100866
100909
100947
100990
101040
101092
101140
101187
101232
101275
101316
101355
101389
101419
101445
101465
101480
101489
101496
101502
101498
101481
101458
101438
101397
101360
101319
101276
101224
101168
101109
101057
101005
100944
100884
100820
100755
100689
100628
100558
100487
100421
100356
100292
100231
100164
100100
100038
99977
99918.9
99864.2
99811.9
99761.7
99709.9
99664.2
99620.4
99579.5
99541.6
99506.8
99475.3
99447
99422.2
99400.8
99382.9
99368.5
99357.5
99349.6
99344.5
99342.2
99342.7
99346.5
99354.1
99365
99379.1
99396.6
99417.4
99441.4
99468.4
99498.1
99530.3
99565.1
99602.1
99641.4
99682.7
99725.9
99770.8
99817.5
99865.6
99915
99965.7
100017
100070
100123
100178
100232
100287
100342
100397
100453
100508
100563
100617
100671
100725
100778
100830
100881
100931
100980
101028
101075
101120
101164
101206
101246
101285
101321
101356
101388
101417
101444
101469
101490
101509
101526
101539
101551
101560
101566
101571
101573
101573
101570
101563
101553
101540
101524
101506
101485
101462
101437
101409
101379
101348
101315
101280
101244
101207
101168
101129
101089
101049
101008
100967
100925
100885
100844
100804
100764
100725
100688
100651
100615
100581
100548
100517
100487
100460
100434
100410
100388
100369
100351
100336
100323
100311
100302
100295
100289
100286
100285
100286
100289
100294
100301
100311
100323
100337
100353
100371
100392
100414
100438
100463
100490
100519
100550
100582
100615
100649
100685
100722
100760
100799
100838
100879
100919
100960
101002
101043
101084
101124
101164
101204
101242
101280
101316
101350
101383
101415
101444
101471
101496
101519
101539
101556
101570
101582
101591
101598
101601
101603
101602
101597
101591
101582
101571
101559
101544
101526
101507
101485
101462
101438
101412
101385
101357
101329
101301
101272
101243
101215
101186
101159
101132
101106
101081
101057
101035
101013
100994
100975
100958
100943
100930
100918
100908
100899
100892
100886
100883
100880
100879
100879
100880
100882
100886
100890
100895
100901
100907
100914
100922
100929
100937
100945
100953
100961
100969
100976
100984
100991
100997
101004
101010
101015
101021
101025
101030
101034
101038
101041
101044
101047
101049
101052
101054
101056
101058
101061
101063
101065
101068
101070
101073
101076
101079
101083
101086
101090
101094
101099
101103
101108
101113
101118
101124
101129
101135
101140
101145
101150
101155
101160
101164
101168
101172
101176
101180
101183
101185
101187
101189
101190
101191
101191
101191
101190
101189
101187
101185
101183
101180
101177
101173
101170
101166
101162
101159
101155
101152
101148
101146
101143
101141
101139
101138
101138
101138
101139
101140
101142
101145
101149
101153
101158
101164
101170
101177
101184
101192
101200
101209
101219
101228
101238
101248
101257
101267
101277
101287
101297
101306
101315
101323
101331
101338
101345
101351
101356
101361
101365
101368
101370
101371
101372
101372
101371
101369
101366
101363
101359
101355
101349
101344
101338
101331
101324
101317
101310
101302
101294
101287
101279
101272
101264
101257
101251
101245
101239
101234
101230
101226
101223
101221
101219
101218
101219
101220
101222
101224
101228
101232
101237
101243
101250
101257
101265
101274
101282
101292
101301
101311
101321
99997.9
99972.7
99994
100002
100007
100013
100018
100027
100038
100049
100060
100075
100087
100104
100124
100145
100166
100185
100205
100229
100254
100280
100305
100323
100339
100349
100360
100372
100382
100393
100410
100420
100437
100451
100466
100492
100516
100539
100574
100601
100640
100676
100715
100763
100812
100852
100904
100947
100991
101032
101077
101117
101149
101186
101231
101268
101304
101338
101368
101395
101418
101436
101449
101455
101457
101456
101451
101441
101427
101408
101373
101342
101306
101268
101225
101173
101118
101062
101004
100942
100878
100813
100749
100682
100617
100554
100484
100416
100350
100285
100224
100162
100097
100037
99977.8
99920.2
99862.8
99808.9
99757.3
99708.1
99662.7
99619.7
99577.1
99539.5
99505
99473.6
99445.4
99420.8
99399.8
99382.3
99368.3
99357.7
99350.2
99345.7
99343.6
99343.9
99347.4
99354.5
99365.1
99379.1
99396.5
99417.3
99441.3
99468.3
99498.2
99530.6
99565.5
99602.7
99642
99683.4
99726.8
99771.8
99818.6
99866.8
99916.4
99967.1
100019
100072
100125
100179
100234
100289
100344
100400
100455
100510
100565
100620
100674
100727
100780
100833
100884
100934
100983
101031
101078
101123
101167
101209
101250
101288
101325
101359
101391
101420
101447
101472
101493
101512
101528
101542
101553
101562
101569
101573
101576
101575
101572
101565
101555
101542
101526
101508
101487
101464
101438
101410
101380
101349
101316
101281
101245
101207
101169
101129
101089
101049
101008
100967
100925
100884
100844
100803
100764
100725
100687
100650
100615
100580
100547
100516
100486
100459
100433
100409
100387
100367
100350
100334
100321
100310
100301
100293
100288
100285
100283
100284
100287
100292
100299
100309
100321
100335
100351
100369
100389
100411
100435
100461
100488
100517
100547
100579
100612
100647
100682
100719
100757
100796
100835
100875
100916
100957
100998
101039
101080
101120
101160
101199
101238
101275
101311
101345
101378
101409
101439
101466
101491
101513
101533
101551
101565
101577
101586
101593
101597
101598
101597
101593
101587
101578
101568
101555
101540
101523
101504
101483
101460
101436
101410
101383
101356
101328
101300
101271
101242
101214
101186
101159
101132
101106
101081
101057
101035
101014
100994
100976
100959
100944
100930
100918
100908
100899
100892
100887
100883
100880
100879
100879
100880
100882
100886
100890
100895
100900
100907
100913
100920
100928
100936
100943
100951
100959
100967
100974
100982
100988
100995
101001
101007
101013
101018
101023
101027
101031
101035
101038
101041
101044
101047
101049
101052
101054
101056
101059
101061
101063
101066
101069
101072
101075
101078
101082
101086
101090
101094
101099
101103
101108
101114
101119
101124
101130
101135
101141
101147
101152
101157
101162
101167
101171
101176
101180
101184
101187
101189
101191
101193
101195
101196
101196
101196
101195
101194
101192
101190
101188
101185
101182
101178
101175
101171
101167
101163
101160
101156
101153
101150
101147
101145
101143
101142
101141
101141
101142
101143
101145
101147
101150
101154
101159
101164
101170
101177
101184
101192
101200
101208
101217
101227
101236
101246
101255
101265
101275
101284
101294
101303
101311
101320
101327
101335
101341
101347
101352
101357
101361
101364
101366
101367
101368
101368
101367
101365
101363
101360
101356
101352
101347
101341
101335
101329
101322
101315
101308
101301
101294
101286
101279
101272
101265
101258
101252
101246
101241
101236
101232
101228
101225
101223
101222
101221
101221
101222
101224
101227
101230
101235
101240
101246
101252
101259
101267
101275
101283
101293
101302
101312
101321
99988.6
99960.4
99980.7
99992.1
99996.6
100002
100009
100018
100031
100043
100056
100071
100086
100101
100121
100148
100169
100188
100208
100231
100248
100264
100283
100301
100318
100328
100338
100348
100357
100368
100381
100394
100413
100432
100443
100473
100481
100520
100546
100585
100608
100650
100677
100714
100752
100806
100863
100914
100968
101015
101063
101120
101160
101196
101232
101266
101302
101338
101371
101401
101427
101450
101470
101485
101488
101478
101464
101448
101429
101405
101368
101334
101294
101251
101204
101158
101106
101050
100995
100936
100873
100809
100745
100679
100615
100548
100480
100413
100347
100282
100219
100160
100096
100035
99975.5
99918.8
99862.8
99808.9
99757.7
99708
99660.7
99616.8
99575.5
99537.9
99502.8
99471.6
99443.7
99419.2
99398.3
99380.7
99366.7
99356
99348.3
99343.1
99340.4
99340.7
99344.5
99352.1
99363.2
99377.8
99395.7
99416.9
99441.3
99468.5
99498.5
99531.1
99566.1
99603.4
99642.9
99684.4
99727.8
99773
99819.9
99868.2
99917.8
99968.7
100021
100073
100127
100181
100236
100291
100346
100402
100457
100513
100568
100622
100677
100730
100783
100836
100887
100937
100987
101035
101082
101127
101171
101213
101253
101292
101328
101363
101394
101424
101451
101475
101497
101516
101532
101545
101556
101565
101572
101576
101579
101578
101575
101568
101558
101545
101529
101510
101489
101466
101440
101412
101382
101350
101317
101282
101246
101208
101170
101130
101090
101050
101008
100967
100926
100885
100844
100803
100764
100725
100687
100650
100614
100580
100547
100515
100486
100458
100432
100408
100386
100366
100348
100333
100320
100308
100299
100292
100286
100283
100281
100282
100284
100290
100297
100307
100318
100332
100349
100367
100387
100408
100432
100457
100485
100513
100543
100575
100608
100643
100678
100715
100753
100791
100830
100870
100911
100951
100992
101033
101074
101114
101154
101193
101231
101268
101304
101338
101371
101402
101432
101459
101484
101506
101526
101544
101559
101571
101580
101586
101590
101592
101591
101588
101582
101573
101563
101551
101536
101519
101500
101480
101457
101433
101408
101381
101354
101327
101299
101270
101242
101214
101186
101159
101132
101107
101082
101058
101036
101015
100995
100977
100960
100945
100932
100920
100909
100901
100894
100888
100884
100881
100880
100880
100881
100883
100886
100890
100895
100900
100906
100913
100920
100927
100935
100942
100950
100958
100965
100973
100980
100987
100993
100999
101005
101011
101016
101020
101025
101029
101032
101036
101039
101042
101045
101047
101050
101052
101054
101057
101059
101062
101065
101067
101070
101074
101077
101081
101085
101090
101094
101099
101104
101109
101115
101120
101126
101132
101138
101144
101149
101155
101161
101166
101171
101175
101180
101184
101187
101190
101193
101196
101198
101199
101200
101200
101200
101200
101199
101197
101195
101193
101190
101186
101183
101179
101175
101172
101168
101164
101160
101157
101154
101151
101148
101146
101145
101144
101144
101144
101145
101147
101149
101152
101155
101160
101165
101170
101177
101184
101191
101199
101207
101216
101225
101234
101243
101252
101262
101271
101280
101289
101298
101307
101315
101322
101329
101336
101342
101347
101352
101355
101358
101361
101362
101363
101363
101362
101361
101359
101356
101352
101348
101343
101338
101332
101326
101320
101313
101306
101299
101292
101285
101278
101271
101265
101258
101252
101247
101242
101237
101233
101230
101227
101225
101223
101223
101223
101224
101226
101229
101232
101237
101242
101247
101254
101261
101268
101276
101284
101294
101303
101312
101321
99978.1
99944.2
99967.1
99981.3
99985.7
99991.3
99998.4
100008
100022
100034
100049
100064
100077
100092
100112
100134
100150
100174
100202
100221
100239
100254
100271
100284
100299
100310
100322
100329
100336
100351
100364
100372
100401
100407
100436
100452
100487
100512
100557
100601
100633
100663
100706
100742
100780
100811
100872
100911
100960
101001
101044
101096
101136
101171
101212
101251
101284
101317
101346
101374
101398
101418
101434
101450
101460
101462
101455
101443
101426
101402
101368
101335
101297
101256
101207
101156
101103
101045
100988
100929
100866
100803
100741
100674
100611
100546
100477
100408
100343
100277
100216
100153
100090
100029
99970.4
99913.6
99858.7
99805.7
99754.8
99706.3
99659.5
99615.7
99574.6
99536.2
99501.5
99470.1
99442.1
99417.6
99396.9
99379.6
99365.6
99355.2
99347.7
99343.2
99341.1
99341.7
99345.6
99353.2
99364.3
99378.7
99396.4
99417.3
99441.5
99468.7
99498.8
99531.5
99566.7
99604.1
99643.8
99685.4
99729
99774.3
99821.3
99869.8
99919.6
99970.6
100023
100076
100129
100184
100239
100294
100349
100405
100460
100516
100571
100626
100680
100734
100787
100839
100891
100941
100991
101039
101086
101131
101175
101217
101257
101296
101332
101367
101399
101428
101455
101479
101501
101520
101536
101549
101560
101569
101575
101580
101582
101581
101578
101571
101561
101547
101531
101513
101491
101468
101442
101414
101384
101352
101319
101284
101247
101210
101171
101131
101091
101050
101009
100968
100926
100885
100844
100803
100764
100724
100686
100649
100613
100579
100546
100514
100485
100457
100431
100406
100384
100364
100347
100331
100318
100307
100297
100290
100284
100281
100279
100279
100282
100287
100294
100304
100316
100330
100346
100364
100383
100405
100429
100454
100481
100509
100540
100571
100604
100638
100674
100710
100748
100786
100825
100865
100905
100946
100986
101027
101067
101107
101147
101186
101224
101261
101297
101331
101364
101395
101424
101451
101476
101499
101519
101536
101551
101563
101573
101579
101584
101586
101585
101582
101576
101568
101558
101546
101532
101515
101497
101476
101454
101430
101405
101379
101353
101325
101297
101269
101241
101213
101186
101159
101133
101107
101083
101059
101037
101016
100996
100978
100962
100946
100933
100921
100911
100902
100895
100889
100885
100882
100881
100880
100881
100883
100886
100890
100894
100900
100906
100912
100919
100926
100933
100941
100948
100956
100963
100970
100977
100984
100990
100997
101002
101008
101013
101017
101022
101026
101029
101033
101036
101039
101041
101044
101047
101049
101052
101054
101057
101060
101062
101066
101069
101072
101076
101080
101085
101089
101094
101099
101104
101110
101116
101121
101127
101134
101140
101146
101152
101158
101163
101169
101174
101179
101184
101188
101192
101195
101198
101201
101203
101205
101206
101206
101206
101206
101205
101203
101201
101199
101196
101192
101189
101185
101181
101177
101173
101169
101166
101162
101159
101156
101153
101151
101149
101148
101147
101147
101148
101149
101151
101154
101157
101161
101165
101171
101176
101183
101190
101197
101205
101214
101222
101231
101240
101249
101258
101267
101276
101285
101293
101302
101310
101317
101324
101330
101336
101341
101346
101350
101353
101355
101357
101357
101358
101357
101356
101354
101351
101348
101344
101339
101334
101329
101323
101317
101311
101304
101298
101291
101284
101278
101271
101265
101259
101253
101248
101243
101239
101235
101232
101229
101227
101226
101225
101226
101227
101229
101231
101235
101239
101244
101249
101256
101262
101270
101278
101286
101295
101303
101312
101320
99966.1
99925.5
99955.1
99968.4
99971.4
99975.4
99981.8
99990.4
100003
100017
100031
100049
100067
100087
100108
100132
100146
100164
100185
100207
100222
100237
100253
100263
100276
100288
100301
100309
100313
100333
100333
100360
100371
100400
100417
100448
100457
100502
100532
100572
100608
100645
100688
100715
100758
100828
100870
100931
100990
101026
101063
101120
101145
101172
101212
101249
101289
101325
101356
101384
101410
101432
101445
101449
101453
101451
101442
101428
101410
101385
101351
101317
101281
101242
101197
101148
101095
101038
100981
100923
100860
100799
100734
100667
100602
100536
100469
100403
100337
100273
100211
100151
100089
100027
99967.5
99910.1
99855.6
99802
99750.7
99702.2
99656.3
99612.5
99571.6
99533.6
99499.1
99468
99440.3
99415.9
99394.8
99377.7
99364
99353.6
99346.7
99342.4
99340.5
99340.7
99344.2
99351.4