/*--------------------------------*- C++ -*----------------------------------*\
| =========                 |                                                 |
| \\      /  F ield         | OpenFOAM: The Open Source CFD Toolbox           |
|  \\    /   O peration     | Version:  v1812                                 |
|   \\  /    A nd           | Web:      www.OpenFOAM.com                      |
|    \\/     M anipulation  |                                                 |
\*---------------------------------------------------------------------------*/
FoamFile
{
    version     2.0;
    format      ascii;
    class       surfaceScalarField;
    location    "0.3";
    object      phi;
}
// * * * * * * * * * * * * * * * * * * * * * * * * * * * * * * * * * * * * * //

dimensions      [1 0 -1 0 0 0 0];
oriented        oriented;


internalField   nonuniform List<scalar> 
40240
(
-0.00145248
0.000488561
-0.00253179
0.000121964
-0.00319519
-0.000292863
-0.00374074
-0.000406852
-0.00425043
-0.000434385
-0.00473634
-0.000450179
-0.00527398
-0.000389117
-0.00588668
-0.000304114
-0.00656546
-0.000227932
-0.00732897
-0.000132215
-0.00813085
-8.14156e-05
-0.00890521
-9.58934e-05
-0.00973294
-2.73737e-05
-0.0106452
7.28715e-05
-0.0115289
8.68937e-05
-0.0123284
8.11858e-07
-0.0131701
3.8549e-05
-0.0140833
0.000124614
-0.0148672
1.11887e-05
-0.0154477
-0.000182852
-0.0160496
-0.000146775
-0.0169109
0.000130877
-0.0179165
0.000290087
-0.0191377
0.000524767
-0.0206897
0.000875861
-0.0226238
0.00128151
-0.0246376
0.00138002
-0.0258452
0.000602961
-0.0268421
0.00041378
-0.0280783
0.000676178
-0.0300785
0.00146267
-0.0324731
0.00186937
-0.0351249
0.00214444
-0.0380377
0.00242213
-0.0411339
0.00262158
-0.0443124
0.00271721
-0.0474999
0.00274086
-0.0505597
0.00262985
-0.0534803
0.00250788
-0.0561815
0.00230648
-0.0586565
0.0020945
-0.0609447
0.00192301
-0.063069
0.00177028
-0.0649358
0.00152845
-0.0666317
0.00137678
-0.0680952
0.00115399
-0.069228
0.000837423
-0.0700538
0.000546208
-0.0708974
0.000577113
-0.0714287
0.000283932
-0.0715096
-0.000158687
-0.0714575
-0.000267773
-0.0711024
-0.000554258
-0.0702163
-0.00107033
-0.0688594
-0.00152235
-0.0671598
-0.00184895
-0.0651211
-0.00217148
-0.0627992
-0.00243768
-0.0602481
-0.0026493
-0.0575087
-0.00281902
-0.0546339
-0.00293476
-0.0516798
-0.00299373
-0.0487135
-0.00298375
-0.0458085
-0.00290185
-0.0430429
-0.00273781
-0.0404918
-0.00249952
-0.0381891
-0.00223204
-0.0362301
-0.00186118
-0.0341813
-0.00193623
-0.0319623
-0.00208479
-0.0299438
-0.00187319
-0.0281474
-0.00163401
-0.0265105
-0.00145657
-0.0250185
-0.00129483
-0.0236718
-0.00113492
-0.0223913
-0.00105551
-0.0211531
-0.00100102
-0.0198864
-0.00101962
-0.0185512
-0.00108088
-0.0173241
-0.000963292
-0.0162099
-0.000842619
-0.0152322
-0.000698725
-0.0144103
-0.000537279
-0.0137626
-0.000357723
-0.0132594
-0.00021018
-0.0128389
-0.000123455
-0.012502
-3.57885e-05
-0.0121763
-2.27012e-05
-0.0118462
-2.64568e-05
-0.0115303
-1.23536e-05
-0.0111662
-6.18929e-05
-0.010771
-9.46087e-05
-0.0104769
3.99353e-06
-0.0102695
8.74895e-05
-0.0101033
0.000123896
-0.00994722
0.000129581
-0.00980047
0.000132592
-0.00965652
0.000129989
-0.0095241
0.000134091
-0.00939332
0.000127449
-0.00926974
0.000125286
-0.00915293
0.000122008
-0.00903805
0.00011274
-0.00892446
0.000102181
-0.00881382
9.23794e-05
-0.00870793
8.38728e-05
-0.00860784
7.55495e-05
-0.00851332
6.64259e-05
-0.00842421
5.68554e-05
-0.00834007
4.71799e-05
-0.00826049
3.7936e-05
-0.00818518
2.96225e-05
-0.00811334
2.19379e-05
-0.00804603
1.52683e-05
-0.0079833
9.23073e-06
-0.00793373
4.93998e-06
-0.00789885
2.06119e-06
-0.00788201
3.69024e-06
-0.00787924
2.27756e-06
-0.0078953
2.21822e-06
-0.00793553
2.17639e-06
-0.00799758
3.7992e-06
-0.0080779
6.34033e-06
-0.00817699
9.15846e-06
-0.0082963
1.20731e-05
-0.00843586
1.48916e-05
-0.0085947
1.73423e-05
-0.00877193
1.96098e-05
-0.00896671
2.16034e-05
-0.00917805
2.32078e-05
-0.00940505
2.44914e-05
-0.00964672
2.53578e-05
-0.00990204
2.57762e-05
-0.01017
2.58022e-05
-0.0104497
2.54061e-05
-0.0107399
2.45724e-05
-0.0110397
2.33273e-05
-0.0113481
2.17306e-05
-0.0116642
1.98026e-05
-0.0119869
1.75488e-05
-0.0123153
1.50208e-05
-0.0126486
1.23628e-05
-0.0129861
9.70977e-06
-0.0133268
6.91688e-06
-0.0136696
3.82393e-06
-0.0140138
3.6296e-07
-0.0143575
-3.15954e-06
-0.0147003
-6.68036e-06
-0.0150411
-1.04407e-05
-0.0153789
-1.41987e-05
-0.0157129
-1.79803e-05
-0.0160418
-2.17627e-05
-0.0163646
-2.56069e-05
-0.0166802
-2.94669e-05
-0.0169875
-3.33224e-05
-0.0172854
-3.65607e-05
-0.0175726
-4.11514e-05
-0.0178478
-4.49415e-05
-0.01811
-4.79291e-05
-0.0183579
-5.15531e-05
-0.0185905
-5.57338e-05
-0.0188062
-5.9937e-05
-0.0190033
-6.38863e-05
-0.0191801
-6.76036e-05
-0.0193351
-7.12533e-05
-0.0194671
-7.50163e-05
-0.0195751
-7.88016e-05
-0.0196585
-8.24244e-05
-0.0197168
-8.66145e-05
-0.0197488
-9.1196e-05
-0.0197547
-9.71005e-05
-0.0197423
-9.80627e-05
-0.019703
-9.99798e-05
-0.0196419
-0.000102357
-0.0195593
-0.000106145
-0.0194536
-0.000108831
-0.0193261
-0.000111999
-0.0191798
-0.000114895
-0.0190043
-0.00011748
-0.0187958
-0.000118985
-0.0185608
-0.000120132
-0.0183035
-0.000121229
-0.0180253
-0.000122061
-0.0177268
-0.000122544
-0.0174093
-0.000122471
-0.0170745
-0.00012199
-0.016724
-0.000121268
-0.0163598
-0.000120357
-0.0159835
-0.000119319
-0.015597
-0.000118102
-0.015202
-0.000116569
-0.0148005
-0.000114685
-0.0143943
-0.000112579
-0.013985
-0.000110505
-0.0135741
-0.000108276
-0.0131635
-0.000105908
-0.0127548
-0.000103351
-0.0123495
-0.000100602
-0.0119494
-9.77029e-05
-0.0115559
-9.46826e-05
-0.0111705
-9.15653e-05
-0.0107944
-8.83754e-05
-0.0104291
-8.51255e-05
-0.0100756
-8.18332e-05
-0.00973519
-7.85136e-05
-0.00940874
-7.51664e-05
-0.00909726
-7.17641e-05
-0.00880167
-6.82795e-05
-0.00852283
-6.46917e-05
-0.00826147
-6.10306e-05
-0.00801816
-5.73591e-05
-0.00779332
-5.37245e-05
-0.00758734
-5.0117e-05
-0.00740057
-4.64888e-05
-0.00723331
-4.27955e-05
-0.00708581
-3.90336e-05
-0.0069582
-3.52052e-05
-0.00685036
-3.13166e-05
-0.00676183
-2.74417e-05
-0.00669194
-2.36944e-05
-0.00664018
-2.01264e-05
-0.00660599
-1.64798e-05
-0.00658931
-1.258e-05
-0.00658652
-7.78124e-06
-0.00659648
-4.99474e-06
-0.00662076
-2.1624e-06
-0.00665749
2.33771e-06
-0.00670908
5.28277e-06
-0.0067767
7.89706e-06
-0.00685414
1.04796e-05
-0.00694539
1.40299e-05
-0.0070493
1.64585e-05
-0.0071641
1.88561e-05
-0.00728812
2.11596e-05
-0.0074208
2.34656e-05
-0.00756142
2.52934e-05
-0.0077091
2.66865e-05
-0.00786294
2.79454e-05
-0.0080222
2.89865e-05
-0.00818624
2.97952e-05
-0.00835429
3.02097e-05
-0.0085258
3.0339e-05
-0.00870026
3.02387e-05
-0.00887709
2.98132e-05
-0.00905588
2.92321e-05
-0.00923625
2.85299e-05
-0.00941776
2.76649e-05
-0.0096001
2.67563e-05
-0.00978285
2.57273e-05
-0.00996569
2.47103e-05
-0.0101482
2.36112e-05
-0.0103299
2.23209e-05
-0.0105101
2.08937e-05
-0.0106884
1.93726e-05
-0.0108641
1.77148e-05
-0.0110368
1.61263e-05
-0.0112061
1.46238e-05
-0.0113711
1.28798e-05
-0.0115313
1.09938e-05
-0.0116861
9.17318e-06
-0.0118349
7.48599e-06
-0.0119768
5.62952e-06
-0.0121112
4.21674e-06
-0.0122383
2.18189e-06
-0.0123576
1.97542e-06
-0.0124684
-4.90267e-07
-0.0125687
-7.75763e-07
-0.0126609
-1.33919e-06
-0.0127432
-2.43817e-06
-0.0128145
-3.39567e-06
-0.0128741
-3.9936e-06
-0.0129216
-4.61917e-06
-0.0129571
-5.18471e-06
-0.0129809
-5.75977e-06
-0.012992
-6.38104e-06
-0.0129929
-7.58956e-06
-0.0129853
-8.76482e-06
-0.012969
-9.32376e-06
-0.0129414
-6.96085e-06
-0.0129017
-1.01896e-05
-0.0128532
-1.11191e-05
-0.0127964
-1.15078e-05
-0.0127308
-1.86432e-05
-0.0126554
-1.67355e-05
-0.0125703
-1.50386e-05
-0.0124757
-1.62446e-05
-0.012372
-1.72195e-05
-0.0122598
-1.82073e-05
-0.0121401
-1.92144e-05
-0.012014
-2.02914e-05
-0.0118822
-2.08529e-05
-0.0117449
-2.21775e-05
-0.011603
-2.34386e-05
-0.0114574
-2.46012e-05
-0.0113092
-2.57815e-05
-0.0111589
-2.69626e-05
-0.0110074
-2.81953e-05
-0.0108553
-2.94428e-05
-0.010703
-3.07484e-05
-0.0105513
-3.21338e-05
-0.0104007
-3.33663e-05
-0.0102519
-3.45701e-05
-0.0101052
-3.57843e-05
-0.00996123
-3.70094e-05
-0.00982025
-3.82354e-05
-0.00968267
-3.94538e-05
-0.00954881
-4.06497e-05
-0.00941898
-4.18124e-05
-0.00929341
-4.29346e-05
-0.00917228
-4.40168e-05
-0.00905576
-4.50024e-05
-0.00894405
-4.58264e-05
-0.00883736
-4.65129e-05
-0.00873586
-4.71844e-05
-0.00863966
-4.79075e-05
-0.00854859
-4.86812e-05
-0.00846206
-4.94106e-05
-0.00837942
-5.00611e-05
-0.00829953
-5.0716e-05
-0.00822434
-5.13077e-05
-0.00815393
-5.18624e-05
-0.00808675
-5.23736e-05
-0.00802347
-5.27905e-05
-0.00796401
-5.31462e-05
-0.00790823
-5.34213e-05
-0.00785618
-5.36032e-05
-0.00780787
-5.3733e-05
-0.00776329
-5.38474e-05
-0.00772243
-5.39479e-05
-0.00768525
-5.40533e-05
-0.00765171
-5.41492e-05
-0.00762171
-5.42495e-05
-0.0075952
-5.43949e-05
-0.0075723
-5.44278e-05
-0.00755356
-5.39523e-05
-0.00753966
-5.28835e-05
-0.00752822
-5.43564e-05
-0.00752015
-5.53e-05
-0.00751583
-5.52293e-05
-0.00751615
-5.61081e-05
-0.00752033
-5.57339e-05
-0.00752902
-5.58174e-05
-0.00754221
-5.60738e-05
-0.00756002
-5.63173e-05
-0.00758259
-5.6559e-05
-0.00761004
-5.68488e-05
-0.00764248
-5.71667e-05
-0.00768006
-5.74926e-05
-0.00772285
-5.78659e-05
-0.00777086
-5.82924e-05
-0.00782396
-5.87819e-05
-0.00788194
-5.93301e-05
-0.00794457
-5.99849e-05
-0.00801166
-6.07678e-05
-0.00808316
-6.16136e-05
-0.00815878
-6.26407e-05
-0.00823808
-6.38291e-05
-0.00832067
-6.51381e-05
-0.00840601
-6.6697e-05
-0.00849381
-6.82306e-05
-0.00858372
-6.97224e-05
-0.0086751
-7.14301e-05
-0.00876747
-7.32332e-05
-0.00886027
-7.51383e-05
-0.00895295
-7.71626e-05
-0.00904497
-7.93211e-05
-0.00913584
-8.15864e-05
-0.00922506
-8.3945e-05
-0.00931211
-8.63922e-05
-0.00939651
-8.89301e-05
-0.00947768
-9.17697e-05
-0.00955538
-9.4695e-05
-0.00962963
-9.78534e-05
-0.00969957
-0.000100965
-0.00976284
-0.000105133
-0.00981746
-0.000100254
-0.00986176
-0.000103441
-0.00990287
-0.000112364
-0.00994122
-0.000108523
-0.00997258
-0.000112985
-0.00999508
-0.000118563
-0.0100104
-0.000103314
-0.010021
-0.000109184
-0.0100224
-0.000117365
-0.0100202
-0.000125304
-0.010018
-0.000127754
-0.0100068
-0.000116633
-0.00997892
-0.000116872
-0.00994916
-0.000119315
-0.00992031
-0.000122165
-0.00988719
-0.000123532
-0.00984713
-0.00012428
-0.00979941
-0.000124713
-0.00974628
-0.000125127
-0.00969045
-0.000125469
-0.00963252
-0.000125534
-0.00957238
-0.000125316
-0.00951029
-0.000124949
-0.009447
-0.00012442
-0.00938316
-0.000123902
-0.00931947
-0.000123181
-0.00925647
-0.000122438
-0.0091947
-0.000121696
-0.00913483
-0.000120891
-0.00907757
-0.000119891
-0.0090235
-0.00011874
-0.00897309
-0.00011747
-0.00892663
-0.000116134
-0.00888438
-0.000114766
-0.00884664
-0.000113324
-0.00881368
-0.000111781
-0.00878573
-0.000110207
-0.00876237
-0.000108597
-0.00874407
-0.000106918
-0.008731
-0.000105166
-0.00872275
-0.000103409
-0.00871964
-0.000101442
-0.00871953
-9.92395e-05
-0.00872331
-9.73575e-05
-0.00873071
-9.52553e-05
-0.00874128
-9.31632e-05
-0.00875451
-9.10973e-05
-0.00876991
-8.90378e-05
-0.00878697
-8.69448e-05
-0.00880523
-8.48137e-05
-0.0088243
-8.26757e-05
-0.0088438
-8.05801e-05
-0.00886316
-7.85742e-05
-0.00888177
-7.65414e-05
-0.00889894
-7.44878e-05
-0.00891416
-7.23135e-05
-0.00892692
-7.01196e-05
-0.00893687
-6.78369e-05
-0.00894375
-6.54836e-05
-0.00894685
-6.34083e-05
-0.0089467
-6.12948e-05
-0.00894254
-5.82611e-05
-0.0089338
-5.60163e-05
-0.00892059
-5.35133e-05
-0.00890261
-5.11626e-05
-0.00887965
-4.887e-05
-0.00885177
-4.64908e-05
-0.00881927
-4.4042e-05
-0.00878246
-4.1853e-05
-0.00874161
-3.97606e-05
-0.00869693
-3.76521e-05
-0.00864862
-3.55041e-05
-0.00859683
-3.33376e-05
-0.00854185
-3.10894e-05
-0.00848405
-2.87218e-05
-0.0084243
-2.6299e-05
-0.00836355
-2.39098e-05
-0.00830123
-2.16536e-05
-0.00823828
-1.93207e-05
-0.00817632
-1.69585e-05
-0.00811537
-1.46851e-05
-0.00805588
-1.25947e-05
-0.00799854
-1.05417e-05
-0.00794407
-8.45123e-06
-0.00789306
-6.27133e-06
-0.007846
-3.95914e-06
-0.00780308
-2.18858e-06
-0.00776479
-8.00002e-07
-0.00773168
-1.12751e-06
-0.00770283
2.39486e-06
-0.00767892
2.98339e-06
-0.00766078
1.02499e-06
-0.00764794
1.1761e-06
-0.00764173
2.27769e-06
-0.00764181
3.14685e-06
-0.00764757
2.35806e-06
-0.00765988
2.97857e-06
-0.00767711
2.37553e-06
-0.00769975
1.14786e-06
-0.00772504
4.98422e-06
-0.00775439
-1.54023e-06
-0.00778761
-3.44783e-06
-0.00782358
-5.61953e-06
-0.00786211
-7.86032e-06
-0.00790253
-1.0301e-05
-0.00794393
-1.29823e-05
-0.00798526
-1.57272e-05
-0.00802489
-1.94549e-05
-0.0080618
-2.29248e-05
-0.00809365
-2.77432e-05
-0.00811905
-3.38833e-05
-0.00813647
-4.15592e-05
-0.00814395
-5.01727e-05
-0.00814036
-5.97893e-05
-0.00811725
-7.62307e-05
-0.00807024
-9.71588e-05
-0.00799507
-0.000122361
-0.007889
-0.000151748
-0.00773874
-0.000188312
-0.00746754
-0.000306434
-0.00724818
-0.000246789
-0.00701692
-0.000253761
-0.00679835
-0.000233893
-0.0066544
-0.00015349
-4.82686e-05
-0.00100033
0.000522297
-0.00187226
2.96359e-05
-0.00253051
-0.00059506
-0.00311208
-0.000780944
-0.00365925
-0.000835975
-0.00418935
-0.000861119
-0.00476275
-0.000747252
-0.00539369
-0.000594266
-0.00606408
-0.000467757
-0.00679548
-0.000298966
-0.00760048
-0.00016119
-0.00847492
-9.19755e-05
-0.00948809
0.00012882
-0.0105987
0.000341672
-0.0116644
0.000320607
-0.0126759
0.00020358
-0.01365
0.000219851
-0.014654
0.000351375
-0.0156581
0.000251485
-0.01674
0.000146671
-0.0181711
0.000543819
-0.0200031
0.00123777
-0.0223271
0.00190454
-0.0251979
0.00270559
-0.0287271
0.00373713
-0.0331687
0.00507834
-0.0389835
0.00657467
-0.0464744
0.00749461
-0.0533724
0.00669443
-0.0591808
0.00590749
-0.0647633
0.00650242
-0.0702574
0.00683575
-0.0755168
0.00689128
-0.0803421
0.00674914
-0.0846097
0.00640432
-0.0883555
0.00599261
-0.0917944
0.00572672
-0.0950114
0.00541137
-0.0980809
0.00515456
-0.100938
0.00474621
-0.103465
0.00422184
-0.105623
0.00370085
-0.107162
0.00293234
-0.108016
0.00200537
-0.108315
0.00132243
-0.108256
0.000730892
-0.107759
2.91457e-05
-0.106674
-0.000832971
-0.105213
-0.00116425
-0.103672
-0.0015189
-0.102018
-0.00205727
-0.100178
-0.00232955
-0.0981949
-0.00274029
-0.0959551
-0.00349435
-0.0934777
-0.00416536
-0.0907699
-0.00470464
-0.0877755
-0.00529605
-0.0845026
-0.00582353
-0.0809783
-0.00626878
-0.0772369
-0.00663659
-0.0733335
-0.00689438
-0.0693298
-0.00703346
-0.0652929
-0.00703412
-0.0612765
-0.00691349
-0.0573608
-0.00662247
-0.0535728
-0.00623766
-0.0498177
-0.00591465
-0.0459194
-0.0056617
-0.0425521
-0.00519804
-0.0407826
-0.00375638
-0.039115
-0.00340016
-0.0373339
-0.00325257
-0.035491
-0.00311856
-0.033626
-0.00296134
-0.0317903
-0.00275647
-0.0299991
-0.00261837
-0.0282902
-0.00246888
-0.0266561
-0.00240147
-0.0250714
-0.00240407
-0.0235957
-0.00216657
-0.0222213
-0.00193521
-0.0209607
-0.00166923
-0.0198199
-0.00138227
-0.0188078
-0.00106984
-0.0179164
-0.000798977
-0.0171352
-0.000598912
-0.016479
-0.000382944
-0.0159225
-0.000268592
-0.0154538
-0.000184297
-0.0150708
-8.52827e-05
-0.0147397
-8.51008e-05
-0.0144701
-5.86994e-05
-0.0142813
0.000117663
-0.0141581
0.000262735
-0.0140813
0.000340321
-0.0140403
0.000375437
-0.0140291
0.000399891
-0.0140296
0.000407711
-0.0140477
0.000418214
-0.0140766
0.00041379
-0.0141133
0.000409473
-0.0141533
0.000399512
-0.0141921
0.000378139
-0.014229
0.000353629
-0.0142624
0.000327165
-0.0142914
0.000301067
-0.0143158
0.000274405
-0.0143357
0.00024625
-0.014351
0.0002174
-0.0143618
0.000188696
-0.0143678
0.000161015
-0.0143689
0.000135148
-0.0143651
0.000110988
-0.0143571
8.89915e-05
-0.0143472
6.99207e-05
-0.0143437
5.46309e-05
-0.0143434
4.32811e-05
-0.0143571
3.65046e-05
-0.0143809
2.73038e-05
-0.0144194
2.38628e-05
-0.014476
2.11152e-05
-0.0145503
2.08793e-05
-0.0146409
2.2853e-05
-0.0147482
2.61826e-05
-0.014874
3.03769e-05
-0.0150187
3.47875e-05
-0.0151822
3.92233e-05
-0.015364
4.38834e-05
-0.0155639
4.85283e-05
-0.0157813
5.29015e-05
-0.0160158
5.7012e-05
-0.0162668
6.06404e-05
-0.0165335
6.3671e-05
-0.0168152
6.61278e-05
-0.017111
6.79469e-05
-0.0174202
6.90916e-05
-0.0177419
6.95679e-05
-0.0180752
6.94311e-05
-0.0184193
6.87004e-05
-0.0187733
6.7385e-05
-0.0191362
6.55437e-05
-0.0195071
6.33387e-05
-0.019885
6.09371e-05
-0.020269
5.8197e-05
-0.020658
5.49463e-05
-0.021051
5.11085e-05
-0.0214468
4.70345e-05
-0.0218444
4.27466e-05
-0.0222426
3.80793e-05
-0.0226404
3.32311e-05
-0.0230365
2.81569e-05
-0.0234298
2.28841e-05
-0.0238191
1.73563e-05
-0.0242031
1.16341e-05
-0.0245806
5.75091e-06
-0.0249502
1.58865e-07
-0.0253104
-6.53638e-06
-0.0256597
-1.28859e-05
-0.0259966
-1.82533e-05
-0.0263199
-2.46184e-05
-0.0266283
-3.1976e-05
-0.0269204
-3.96493e-05
-0.0271944
-4.72824e-05
-0.0274487
-5.48294e-05
-0.0276814
-6.24157e-05
-0.0278912
-7.02777e-05
-0.0280767
-7.82991e-05
-0.028237
-8.6295e-05
-0.0283718
-9.45463e-05
-0.0284817
-0.000102858
-0.0285673
-0.000111666
-0.0286259
-0.000119309
-0.0286584
-0.000126123
-0.0286644
-0.000134429
-0.0286568
-0.000138367
-0.0286209
-0.000145336
-0.0285612
-0.000153108
-0.0284814
-0.000160651
-0.02837
-0.000167665
-0.0282243
-0.000172789
-0.02805
-0.00017752
-0.0278512
-0.000182075
-0.0276289
-0.000186164
-0.0273837
-0.000189731
-0.0271169
-0.000192301
-0.0268298
-0.000194332
-0.0265243
-0.00019596
-0.0262021
-0.000197208
-0.0258647
-0.000198141
-0.025514
-0.000198696
-0.0251518
-0.000198735
-0.0247798
-0.000198229
-0.0243998
-0.000197294
-0.0240135
-0.00019627
-0.0236227
-0.000194915
-0.023229
-0.000193255
-0.0228342
-0.000191217
-0.0224398
-0.000188796
-0.0220476
-0.000186033
-0.0216591
-0.000182961
-0.0212757
-0.000179603
-0.0208991
-0.000175977
-0.0205306
-0.000172094
-0.0201716
-0.000167971
-0.0198233
-0.000163626
-0.019487
-0.000159064
-0.0191637
-0.000154256
-0.0188545
-0.000149182
-0.0185603
-0.000143822
-0.018282
-0.000138213
-0.0180203
-0.000132422
-0.0177757
-0.000126513
-0.0175489
-0.000120512
-0.0173403
-0.000114299
-0.0171504
-0.000107791
-0.0169795
-0.000101017
-0.016828
-9.40196e-05
-0.0166958
-8.6827e-05
-0.0165827
-7.95504e-05
-0.016488
-7.23628e-05
-0.0164112
-6.53999e-05
-0.0163513
-5.85235e-05
-0.0163071
-5.15007e-05
-0.0162781
-4.3021e-05
-0.0162668
-3.42912e-05
-0.0162666
-2.78164e-05
-0.0162782
-2.06435e-05
-0.0163045
-1.54174e-05
-0.0163491
-8.62783e-06
-0.0164048
-2.23856e-06
-0.0164738
4.68718e-06
-0.0165564
1.04321e-05
-0.0166509
1.57897e-05
-0.0167556
2.09409e-05
-0.0168698
2.63023e-05
-0.0169927
3.1098e-05
-0.0171237
3.52776e-05
-0.0172622
3.91029e-05
-0.0174077
4.24517e-05
-0.0175594
4.52581e-05
-0.0177168
4.74597e-05
-0.0178794
4.91381e-05
-0.0180466
5.03834e-05
-0.018218
5.11645e-05
-0.0183933
5.16298e-05
-0.018572
5.18534e-05
-0.0187538
5.18265e-05
-0.0189383
5.16412e-05
-0.019125
5.12611e-05
-0.0193137
5.08499e-05
-0.0195037
5.02743e-05
-0.0196948
4.94636e-05
-0.0198865
4.84333e-05
-0.0200782
4.72652e-05
-0.0202694
4.5934e-05
-0.0204595
4.46698e-05
-0.0206481
4.34719e-05
-0.0208343
4.19784e-05
-0.0210177
4.03465e-05
-0.0211974
3.87549e-05
-0.0213729
3.72048e-05
-0.0215435
3.53665e-05
-0.0217091
3.41984e-05
-0.021868
3.19979e-05
-0.0220199
3.22066e-05
-0.0221646
2.92475e-05
-0.0223019
2.9496e-05
-0.0224301
2.85064e-05
-0.022549
2.73582e-05
-0.0226576
2.61692e-05
-0.022755
2.51941e-05
-0.0228404
2.4173e-05
-0.0229137
2.30562e-05
-0.022975
2.18074e-05
-0.023025
2.04485e-05
-0.0230644
1.87134e-05
-0.0230948
1.69121e-05
-0.0231139
1.53441e-05
-0.023117
1.35534e-05
-0.0231135
1.04585e-05
-0.0230994
8.7756e-06
-0.0230752
6.39987e-06
-0.0230406
-2.70966e-06
-0.0229945
-2.67061e-06
-0.0229374
-3.60277e-06
-0.0228688
-7.75137e-06
-0.0227893
-1.17028e-05
-0.0226996
-1.552e-05
-0.0226007
-1.93509e-05
-0.0224935
-2.31378e-05
-0.0223785
-2.594e-05
-0.0222561
-3.02468e-05
-0.0221272
-3.43865e-05
-0.0219929
-3.83935e-05
-0.0218541
-4.24339e-05
-0.0217114
-4.64458e-05
-0.0215657
-5.05048e-05
-0.0214176
-5.45519e-05
-0.0212678
-5.86566e-05
-0.0211169
-6.28249e-05
-0.0209656
-6.67075e-05
-0.0208146
-7.04737e-05
-0.0206644
-7.41696e-05
-0.0205156
-7.77866e-05
-0.0203686
-8.13062e-05
-0.020224
-8.47141e-05
-0.0200821
-8.79896e-05
-0.0199434
-9.11167e-05
-0.0198081
-9.40825e-05
-0.0196766
-9.68891e-05
-0.0195491
-9.94717e-05
-0.0194257
-0.00010176
-0.0193066
-0.000103781
-0.0191922
-0.000105663
-0.0190828
-0.000107468
-0.0189783
-0.000109198
-0.0188782
-0.000110762
-0.018782
-0.000112133
-0.0186889
-0.000113341
-0.0186005
-0.000114524
-0.0185169
-0.000115533
-0.018437
-0.000116289
-0.0183613
-0.0001169
-0.0182898
-0.00011735
-0.0182224
-0.000117634
-0.0181591
-0.000117756
-0.0180999
-0.000117785
-0.0180448
-0.00011777
-0.0179937
-0.000117706
-0.0179468
-0.000117612
-0.0179038
-0.000117462
-0.0178649
-0.000117272
-0.0178301
-0.000117089
-0.0177993
-0.000116761
-0.0177727
-0.000115946
-0.0177507
-0.00011416
-0.0177333
-0.000115165
-0.01772
-0.000116104
-0.0177114
-0.000115775
-0.0177076
-0.000116148
-0.017708
-0.000116542
-0.0177124
-0.000116422
-0.0177221
-0.000116161
-0.0177371
-0.000116051
-0.0177574
-0.000116113
-0.0177829
-0.00011634
-0.0178137
-0.000116674
-0.0178499
-0.000117088
-0.0178915
-0.000117635
-0.0179386
-0.000118318
-0.0179908
-0.000119144
-0.0180482
-0.000120094
-0.0181103
-0.000121212
-0.0181773
-0.000122526
-0.0182488
-0.000123951
-0.0183247
-0.000125663
-0.0184045
-0.0001277
-0.0184877
-0.00013003
-0.0185741
-0.00013274
-0.0186631
-0.000135472
-0.0187544
-0.000138232
-0.0188474
-0.000141319
-0.0189416
-0.000144576
-0.0190365
-0.000148019
-0.0191316
-0.000151673
-0.0192263
-0.000155573
-0.01932
-0.000159693
-0.0194123
-0.000164007
-0.0195027
-0.000168507
-0.0195907
-0.000173194
-0.0196759
-0.000178429
-0.0197578
-0.000183985
-0.0198365
-0.000190313
-0.0199131
-0.000193128
-0.0199816
-0.000202084
-0.0200582
-0.00017682
-0.0201081
-0.000148073
-0.0201567
-0.000264515
-0.020216
-0.00016293
-0.020239
-0.00026861
-0.0203
-0.000285874
-0.0203546
-0.000162923
-0.0203263
-0.000157434
-0.0203205
-0.000244018
-0.0203286
-0.000257258
-0.020355
-0.00028834
-0.0203827
-0.000164824
-0.0203183
-0.000256459
-0.0202733
-0.000247599
-0.020236
-0.000256637
-0.0201937
-0.000260143
-0.0201446
-0.000259063
-0.020093
-0.000254668
-0.0200407
-0.000251142
-0.0199881
-0.000249368
-0.0199343
-0.000248771
-0.0198784
-0.000248318
-0.0198207
-0.000247383
-0.019762
-0.000246146
-0.0197025
-0.000245333
-0.0196425
-0.000244482
-0.0195827
-0.000243425
-0.0195239
-0.00024215
-0.0194668
-0.000240593
-0.019412
-0.000238805
-0.0193598
-0.000236948
-0.0193107
-0.000234964
-0.0192649
-0.000232785
-0.0192229
-0.000230432
-0.0191849
-0.000227946
-0.0191512
-0.000225282
-0.019122
-0.000222483
-0.0190973
-0.000219431
-0.0190772
-0.000216283
-0.0190619
-0.000213185
-0.0190511
-0.000209989
-0.019044
-0.000206358
-0.0190415
-0.000202129
-0.0190416
-0.00019799
-0.0190453
-0.000194111
-0.019052
-0.000190055
-0.0190612
-0.000185941
-0.0190725
-0.000181814
-0.0190852
-0.000177668
-0.0190989
-0.000173368
-0.0191134
-0.000168985
-0.0191284
-0.000164681
-0.0191433
-0.000160406
-0.0191576
-0.000156018
-0.0191705
-0.000151621
-0.0191816
-0.000147072
-0.0191901
-0.000142498
-0.0191959
-0.000137681
-0.0191987
-0.000132755
-0.0191988
-0.000127673
-0.019196
-0.000122233
-0.0191884
-0.000117171
-0.0191765
-0.000112202
-0.0191601
-0.000107177
-0.0191388
-0.000102369
-0.0191126
-9.76282e-05
-0.0190816
-9.27116e-05
-0.019046
-8.77136e-05
-0.019006
-8.33251e-05
-0.0189617
-7.84991e-05
-0.0189133
-7.33753e-05
-0.0188612
-6.82243e-05
-0.0188055
-6.32723e-05
-0.0187464
-5.85284e-05
-0.0186842
-5.39283e-05
-0.0186199
-4.93976e-05
-0.018554
-4.503e-05
-0.0184862
-4.12205e-05
-0.0184173
-3.74421e-05
-0.0183485
-3.38519e-05
-0.0182801
-3.03591e-05
-0.0182126
-2.72607e-05
-0.0181458
-2.49708e-05
-0.0180804
-2.30463e-05
-0.0180166
-2.15476e-05
-0.0179548
-2.02002e-05
-0.0178952
-1.92251e-05
-0.0178376
-1.92153e-05
-0.0177825
-1.98018e-05
-0.0177307
-2.08125e-05
-0.0176823
-2.24027e-05
-0.0176354
-2.51387e-05
-0.0175892
-2.97462e-05
-0.0175426
-3.53411e-05
-0.0174952
-4.12116e-05
-0.0174476
-4.84535e-05
-0.0173976
-5.64265e-05
-0.0173444
-6.61768e-05
-0.0172871
-7.67449e-05
-0.0172259
-8.77979e-05
-0.0171597
-0.000100707
-0.0170869
-0.000113853
-0.0170069
-0.000127963
-0.0169188
-0.000142943
-0.016822
-0.000158342
-0.0167163
-0.000173709
-0.0165998
-0.000190105
-0.0164726
-0.000206444
-0.016332
-0.000224195
-0.0161777
-0.000242481
-0.0160099
-0.000261889
-0.0158272
-0.000283889
-0.0156285
-0.000306785
-0.0154111
-0.000333367
-0.0151746
-0.000365688
-0.0149158
-0.000405378
-0.0146329
-0.000452861
-0.0143375
-0.000502676
-0.0140675
-0.000496967
-0.0139455
-0.000496359
-0.0139637
-0.00027268
-0.0139224
-0.000332109
-0.0138214
-0.000349494
-0.0136994
-0.000283857
-0.000135355
-0.000768209
0.000325925
-0.00147581
-0.00022499
-0.00213837
-0.000891396
-0.00259648
-0.00127937
-0.00295762
-0.00143002
-0.00338529
-0.0013804
-0.00397718
-0.00109285
-0.00473553
-0.000762471
-0.00555362
-0.000563953
-0.00641524
-0.000339135
-0.0073144
-0.000150591
-0.00822051
-6.13453e-05
-0.00920225
0.000247321
-0.0104918
0.000782988
-0.0121503
0.00112379
-0.0138448
0.00105656
-0.0156035
0.00116814
-0.0176619
0.00161146
-0.0200157
0.00181904
-0.0227253
0.00207882
-0.0259757
0.0030299
-0.029759
0.00427325
-0.0339623
0.00537985
-0.038325
0.00636484
-0.0426346
0.00737057
-0.0470318
0.00883035
-0.0520287
0.010955
-0.0581457
0.0130227
-0.0653935
0.0133685
-0.0727473
0.0126931
-0.0794548
0.0126623
-0.0853452
0.0121972
-0.0905431
0.0115779
-0.0951778
0.0108864
-0.0991673
0.00990874
-0.102481
0.00883308
-0.105136
0.00792489
-0.107098
0.00693493
-0.108462
0.00609748
-0.109443
0.00531072
-0.110207
0.00457766
-0.110672
0.00379528
-0.110886
0.0027723
-0.110911
0.00165398
-0.110759
0.000839555
-0.110299
-1.00694e-05
-0.109649
-0.000924286
-0.108735
-0.00203913
-0.107132
-0.00304115
-0.105376
-0.00352805
-0.103533
-0.00413389
-0.101516
-0.00456252
-0.0994116
-0.00503934
-0.0970938
-0.00598522
-0.0945422
-0.00686899
-0.0917488
-0.00763019
-0.0886563
-0.0085016
-0.0852505
-0.00932465
-0.0815487
-0.0100447
-0.0775908
-0.0106489
-0.0734391
-0.0110807
-0.0691701
-0.0113173
-0.0648641
-0.0113356
-0.0605891
-0.0111605
-0.0563656
-0.0108005
-0.0522465
-0.0102914
-0.0482911
-0.0097892
-0.0445998
-0.00924835
-0.0412633
-0.00840506
-0.0378631
-0.00699697
-0.034374
-0.00673237
-0.0309608
-0.00649492
-0.0276313
-0.00626088
-0.0243883
-0.00600111
-0.0212807
-0.00564624
-0.0183948
-0.00527241
-0.0159748
-0.00464397
-0.0143255
-0.00380167
-0.0133308
-0.00313495
-0.0124117
-0.00281075
-0.0114689
-0.00259292
-0.0105276
-0.00231633
-0.00963299
-0.00197627
-0.00881278
-0.00158411
-0.00802536
-0.00127768
-0.00715498
-0.00115841
-0.00635903
-0.000864141
-0.00563457
-0.000675719
-0.00496283
-0.000537562
-0.00437864
-0.000351691
-0.00391786
-0.000231165
-0.00373503
6.97214e-05
-0.00375665
0.000446597
-0.00395164
0.000759944
-0.0042452
0.00093112
-0.00455083
0.00097179
-0.0048296
0.000961353
-0.00510345
0.000956817
-0.00538738
0.000968089
-0.00569721
0.000981545
-0.00602139
0.000980569
-0.00633686
0.000952126
-0.00662774
0.000895183
-0.00689396
0.000833944
-0.00713403
0.00076834
-0.00734894
0.000703767
-0.0075385
0.000637907
-0.00770208
0.000569462
-0.00783962
0.000500039
-0.00795137
0.000431125
-0.00803822
0.00036478
-0.00810253
0.000303309
-0.00814745
0.000248239
-0.00817818
0.00020067
-0.0081976
0.000160641
-0.00821409
0.000128119
-0.00823427
0.00010298
-0.00826531
8.36211e-05
-0.00830812
6.98507e-05
-0.00836497
6.21547e-05
-0.00843989
5.86533e-05
-0.0085345
5.86415e-05
-0.00864834
6.19324e-05
-0.00878167
6.77341e-05
-0.00893556
7.53353e-05
-0.00911048
8.34641e-05
-0.00930598
9.18077e-05
-0.0095214
0.000100412
-0.00975601
0.000108914
-0.010009
0.000116892
-0.0102796
0.000124365
-0.0105669
0.000130994
-0.0108699
0.000136518
-0.0111875
0.000140974
-0.0115187
0.000144346
-0.0118624
0.00014668
-0.0122179
0.000148034
-0.0125843
0.000148509
-0.0129609
0.000148173
-0.0133468
0.00014707
-0.0137411
0.000145279
-0.0141431
0.000142989
-0.0145518
0.000140404
-0.0149664
0.000137458
-0.0153859
0.000133833
-0.015809
0.000129604
-0.0162356
0.000124886
-0.0166641
0.000120041
-0.0170936
0.000114925
-0.017523
0.000109391
-0.0179511
0.000103519
-0.0183771
9.72584e-05
-0.0187996
9.05843e-05
-0.0192174
8.35705e-05
-0.0196294
7.6272e-05
-0.020034
6.83709e-05
-0.02043
6.10066e-05
-0.020816
5.27921e-05
-0.0211903
4.45855e-05
-0.0215513
3.58398e-05
-0.0218975
2.62568e-05
-0.0222273
1.58974e-05
-0.0225393
4.89085e-06
-0.0228317
-6.56559e-06
-0.0231028
-1.8359e-05
-0.0233508
-3.0507e-05
-0.0235745
-4.28865e-05
-0.0237723
-5.57583e-05
-0.0239436
-6.85094e-05
-0.0240885
-8.13826e-05
-0.024208
-9.41559e-05
-0.0243027
-0.000106622
-0.0243723
-0.000118267
-0.0244184
-0.000130072
-0.0244366
-0.000141923
-0.0244366
-0.000152261
-0.0244101
-0.000162311
-0.0243641
-0.000174726
-0.0242866
-0.000185289
-0.0241748
-0.000194035
-0.024035
-0.000202317
-0.0238708
-0.000209997
-0.0236834
-0.000216889
-0.0234736
-0.000222975
-0.0232426
-0.000227758
-0.0229921
-0.000231921
-0.0227235
-0.000235465
-0.0224386
-0.000238377
-0.0221391
-0.000240763
-0.0218265
-0.00024259
-0.0215026
-0.000243802
-0.0211691
-0.000244421
-0.0208276
-0.000244451
-0.0204798
-0.00024442
-0.0201273
-0.000244008
-0.0197716
-0.00024322
-0.0194144
-0.000241941
-0.0190573
-0.000240148
-0.0187019
-0.000237885
-0.0183496
-0.000235195
-0.018002
-0.000232057
-0.0176604
-0.000228472
-0.0173263
-0.000224455
-0.0170009
-0.000220028
-0.0166857
-0.000215209
-0.0163817
-0.000210002
-0.0160901
-0.000204356
-0.0158121
-0.000198234
-0.0155486
-0.000191615
-0.0153004
-0.000184537
-0.0150683
-0.000177055
-0.0148529
-0.000169288
-0.0146549
-0.000161372
-0.0144747
-0.000152722
-0.0143129
-0.000143413
-0.0141701
-0.000133636
-0.0140466
-0.000123451
-0.0139426
-0.000112869
-0.0138577
-0.000102044
-0.0137918
-9.12302e-05
-0.0137441
-8.05547e-05
-0.0137139
-6.97487e-05
-0.0137006
-5.82587e-05
-0.0137003
-4.56085e-05
-0.0137156
-3.46365e-05
-0.0137456
-2.37702e-05
-0.0137867
-1.30243e-05
-0.0138434
-3.99059e-06
-0.0139166
5.60633e-06
-0.0140014
1.60998e-05
-0.0140992
2.60682e-05
-0.0142098
3.4669e-05
-0.0143316
4.27098e-05
-0.0144638
5.04503e-05
-0.0146051
5.8301e-05
-0.0147546