/*--------------------------------*- C++ -*----------------------------------*\
| =========                 |                                                 |
| \\      /  F ield         | OpenFOAM: The Open Source CFD Toolbox           |
|  \\    /   O peration     | Version:  v1812                                 |
|   \\  /    A nd           | Web:      www.OpenFOAM.com                      |
|    \\/     M anipulation  |                                                 |
\*---------------------------------------------------------------------------*/
FoamFile
{
    version     2.0;
    format      ascii;
    class       volScalarField;
    location    "0.3";
    object      rho;
}
// * * * * * * * * * * * * * * * * * * * * * * * * * * * * * * * * * * * * * //

dimensions      [1 -3 0 0 0 0 0];


internalField   nonuniform List<scalar> 
20400
(
1.19437
1.19435
1.19448
1.19453
1.19459
1.19466
1.19473
1.19481
1.1949
1.19499
1.19509
1.19523
1.19538
1.19556
1.19582
1.19627
1.19683
1.19758
1.19856
1.19976
1.20118
1.20276
1.20441
1.20605
1.20758
1.20893
1.21016
1.21099
1.21184
1.21232
1.21279
1.21313
1.21346
1.21374
1.214
1.21425
1.21451
1.21479
1.21507
1.21538
1.2157
1.21602
1.21633
1.2167
1.21705
1.21744
1.21786
1.21834
1.2187
1.21916
1.21964
1.22017
1.22066
1.22115
1.22161
1.22202
1.22242
1.22278
1.22309
1.22334
1.22353
1.22365
1.22368
1.22363
1.22349
1.22324
1.2229
1.2225
1.22205
1.22167
1.22104
1.22044
1.21974
1.21895
1.21804
1.21703
1.21591
1.21472
1.21348
1.21212
1.21072
1.20925
1.20778
1.20634
1.20496
1.20365
1.20235
1.20109
1.19987
1.19869
1.1976
1.19658
1.1956
1.1947
1.19388
1.19313
1.19245
1.19183
1.19126
1.19075
1.19028
1.18985
1.18945
1.18909
1.18877
1.18848
1.18822
1.188
1.18782
1.18766
1.18754
1.18744
1.18737
1.18733
1.18731
1.18731
1.18734
1.18741
1.1875
1.18761
1.18775
1.18793
1.18814
1.18836
1.18861
1.18888
1.18918
1.18949
1.18982
1.19017
1.19053
1.19092
1.19131
1.19172
1.19214
1.19257
1.193
1.19345
1.1939
1.19436
1.19482
1.19528
1.19575
1.19622
1.19668
1.19715
1.19761
1.19807
1.19852
1.19898
1.19942
1.19986
1.20029
1.20071
1.20113
1.20153
1.20192
1.2023
1.20267
1.20302
1.20336
1.20368
1.20399
1.20428
1.20455
1.2048
1.20502
1.20523
1.20541
1.20556
1.2057
1.20582
1.20591
1.20598
1.20604
1.20607
1.20609
1.20608
1.20606
1.206
1.20591
1.20579
1.20566
1.2055
1.20532
1.20512
1.2049
1.20467
1.20441
1.20414
1.20386
1.20356
1.20325
1.20293
1.20261
1.20227
1.20193
1.20159
1.20124
1.20089
1.20054
1.20019
1.19984
1.1995
1.19917
1.19884
1.19851
1.1982
1.1979
1.19761
1.19733
1.19706
1.19681
1.19658
1.19636
1.19615
1.19597
1.1958
1.19565
1.19552
1.19541
1.19531
1.19523
1.19517
1.19513
1.1951
1.19509
1.19509
1.19512
1.19516
1.19522
1.19531
1.19541
1.19553
1.19567
1.19582
1.19599
1.19618
1.19638
1.1966
1.19683
1.19708
1.19734
1.19761
1.19789
1.19818
1.19849
1.1988
1.19912
1.19945
1.19979
1.20013
1.20048
1.20083
1.20117
1.20152
1.20187
1.20222
1.20256
1.20289
1.20322
1.20353
1.20384
1.20413
1.20441
1.20467
1.20492
1.20514
1.20535
1.20554
1.2057
1.20585
1.20596
1.20606
1.20613
1.20618
1.2062
1.20621
1.2062
1.20615
1.20609
1.20601
1.20592
1.2058
1.20566
1.2055
1.20533
1.20514
1.20494
1.20472
1.2045
1.20426
1.20402
1.20378
1.20353
1.20328
1.20303
1.20278
1.20253
1.20229
1.20206
1.20183
1.20162
1.20141
1.20121
1.20103
1.20086
1.2007
1.20055
1.20042
1.20031
1.2002
1.20011
1.20004
1.19998
1.19993
1.19989
1.19987
1.19986
1.19986
1.19987
1.19989
1.19992
1.19995
1.2
1.20005
1.2001
1.20016
1.20022
1.20029
1.20035
1.20042
1.20049
1.20056
1.20062
1.20069
1.20075
1.20081
1.20087
1.20092
1.20097
1.20102
1.20106
1.2011
1.20114
1.20117
1.2012
1.20122
1.20125
1.20127
1.20129
1.2013
1.20132
1.20133
1.20134
1.20136
1.20137
1.20139
1.2014
1.20142
1.20144
1.20145
1.20148
1.2015
1.20152
1.20155
1.20158
1.20161
1.20164
1.20168
1.20171
1.20175
1.20179
1.20183
1.20187
1.20191
1.20195
1.20198
1.20201
1.20204
1.20207
1.2021
1.20213
1.20216
1.20218
1.2022
1.20221
1.20222
1.20224
1.20224
1.20224
1.20223
1.20223
1.20222
1.2022
1.20218
1.20216
1.20214
1.20211
1.20208
1.20205
1.20202
1.20199
1.20195
1.20192
1.20189
1.20186
1.20183
1.20181
1.20179
1.20177
1.20175
1.20174
1.20174
1.20174
1.20175
1.20176
1.20178
1.2018
1.20183
1.20187
1.20191
1.20196
1.20201
1.20206
1.20213
1.20219
1.20226
1.20234
1.20242
1.2025
1.20258
1.20266
1.20275
1.20283
1.20292
1.203
1.20308
1.20316
1.20323
1.2033
1.20336
1.20342
1.20348
1.20353
1.20357
1.20361
1.20364
1.20366
1.20368
1.20368
1.20369
1.20368
1.20366
1.20364
1.20361
1.20358
1.20354
1.20349
1.20344
1.20338
1.20332
1.20325
1.20319
1.20312
1.20305
1.20297
1.2029
1.20283
1.20275
1.20268
1.20261
1.20255
1.20249
1.20243
1.20237
1.20232
1.20228
1.20225
1.20222
1.2022
1.2022
1.2022
1.20221
1.20224
1.20229
1.20235
1.20244
1.20254
1.20264
1.20273
1.20281
1.20285
1.20288
1.2029
1.20285
1.20285
1.20287
1.20288
1.20298
1.19434
1.19428
1.19439
1.19446
1.19454
1.19465
1.19475
1.19486
1.19499
1.19511
1.19525
1.19543
1.19561
1.19584
1.19617
1.19661
1.19722
1.19798
1.199
1.20023
1.20168
1.20333
1.20504
1.20672
1.20825
1.20952
1.21048
1.21107
1.212
1.21274
1.21325
1.21369
1.21412
1.21455
1.21497
1.2154
1.21579
1.21617
1.21652
1.21689
1.21728
1.21765
1.21809
1.2186
1.21911
1.21974
1.22028
1.22083
1.22133
1.22177
1.2222
1.22258
1.22293
1.22328
1.22356
1.22382
1.22408
1.22432
1.22455
1.22475
1.22493
1.22507
1.22516
1.22518
1.22513
1.22499
1.22476
1.22459
1.22435
1.22351
1.22313
1.22262
1.22207
1.22147
1.22081
1.22009
1.21929
1.2184
1.21744
1.21632
1.21507
1.21366
1.21216
1.21065
1.20922
1.20787
1.20652
1.20515
1.20374
1.20231
1.2009
1.19956
1.19825
1.19704
1.19593
1.19492
1.194
1.19317
1.19243
1.19178
1.19119
1.19065
1.19018
1.18975
1.18936
1.18903
1.18873
1.18847
1.18825
1.18807
1.18792
1.1878
1.18772
1.18766
1.18762
1.18762
1.18764
1.1877
1.18778
1.18789
1.18803
1.18821
1.18841
1.18864
1.18889
1.18916
1.18945
1.18976
1.1901
1.19045
1.19081
1.1912
1.19159
1.192
1.19242
1.19285
1.19329
1.19374
1.19419
1.19465
1.19511
1.19557
1.19604
1.19651
1.19697
1.19744
1.1979
1.19836
1.19881
1.19926
1.19971
1.20015
1.20058
1.201
1.20141
1.20181
1.2022
1.20258
1.20295
1.2033
1.20364
1.20396
1.20426
1.20455
1.20481
1.20506
1.20529
1.20549
1.20567
1.20582
1.20596
1.20607
1.20616
1.20623
1.20628
1.20632
1.20633
1.20632
1.20629
1.20623
1.20614
1.20603
1.20589
1.20573
1.20555
1.20535
1.20513
1.20489
1.20463
1.20436
1.20408
1.20378
1.20347
1.20315
1.20282
1.20249
1.20215
1.2018
1.20145
1.2011
1.20075
1.20041
1.20006
1.19972
1.19938
1.19905
1.19873
1.19842
1.19812
1.19783
1.19755
1.19728
1.19703
1.1968
1.19658
1.19638
1.19619
1.19603
1.19588
1.19575
1.19564
1.19554
1.19546
1.1954
1.19536
1.19534
1.19532
1.19533
1.19536
1.1954
1.19547
1.19555
1.19565
1.19578
1.19592
1.19607
1.19624
1.19643
1.19663
1.19685
1.19708
1.19733
1.19759
1.19786
1.19814
1.19844
1.19874
1.19906
1.19938
1.19971
1.20004
1.20039
1.20073
1.20108
1.20143
1.20178
1.20213
1.20247
1.20281
1.20315
1.20347
1.20379
1.20409
1.20438
1.20466
1.20492
1.20517
1.2054
1.20561
1.20579
1.20596
1.2061
1.20622
1.20632
1.20639
1.20644
1.20646
1.20647
1.20645
1.20641
1.20635
1.20627
1.20617
1.20605
1.20592
1.20576
1.20559
1.2054
1.20519
1.20498
1.20475
1.20451
1.20427
1.20402
1.20377
1.20352
1.20327
1.20302
1.20277
1.20253
1.2023
1.20207
1.20185
1.20164
1.20145
1.20126
1.20109
1.20093
1.20078
1.20065
1.20053
1.20043
1.20034
1.20026
1.2002
1.20015
1.20011
1.20009
1.20008
1.20008
1.20009
1.20011
1.20014
1.20017
1.20021
1.20026
1.20032
1.20038
1.20044
1.2005
1.20057
1.20064
1.2007
1.20077
1.20084
1.2009
1.20097
1.20103
1.20108
1.20114
1.20119
1.20123
1.20128
1.20132
1.20135
1.20138
1.20141
1.20144
1.20146
1.20148
1.2015
1.20152
1.20153
1.20155
1.20156
1.20158
1.20159
1.2016
1.20162
1.20164
1.20165
1.20167
1.20169
1.20172
1.20174
1.20177
1.2018
1.20183
1.20186
1.20189
1.20193
1.20197
1.20201
1.20205
1.20209
1.20213
1.20219
1.20224
1.20226
1.20233
1.20234
1.20233
1.20241
1.20248
1.20251
1.20251
1.20247
1.20253
1.20257
1.20258
1.20257
1.20257
1.20257
1.20256
1.20255
1.20253
1.20251
1.20249
1.20246
1.20243
1.2024
1.20237
1.20233
1.2023
1.20227
1.20223
1.2022
1.20217
1.20215
1.20213
1.20211
1.20209
1.20208
1.20208
1.20208
1.20209
1.2021
1.20212
1.20214
1.20217
1.2022
1.20224
1.20229
1.20234
1.2024
1.20246
1.20253
1.2026
1.20267
1.20275
1.20283
1.20291
1.203
1.20308
1.20316
1.20325
1.20333
1.20341
1.20348
1.20356
1.20362
1.20369
1.20375
1.2038
1.20385
1.20389
1.20393
1.20395
1.20397
1.20399
1.204
1.204
1.20399
1.20397
1.20395
1.20392
1.20389
1.20385
1.20381
1.20376
1.2037
1.20365
1.20358
1.20352
1.20345
1.20339
1.20332
1.20325
1.20318
1.20311
1.20305
1.20298
1.20292
1.20287
1.20282
1.20277
1.20273
1.2027
1.20267
1.20264
1.20263
1.20263
1.20263
1.20265
1.20269
1.20274
1.2028
1.20288
1.20296
1.20303
1.20309
1.20313
1.20316
1.2032
1.20322
1.20309
1.20306
1.20305
1.20307
1.2032
1.19423
1.19413
1.19434
1.19449
1.19469
1.19486
1.19504
1.19521
1.19539
1.19554
1.1957
1.19589
1.19613
1.19641
1.19687
1.19766
1.19859
1.19961
1.2009
1.20248
1.20431
1.20625
1.20812
1.20981
1.21121
1.21222
1.21289
1.21322
1.21372
1.21405
1.21446
1.21477
1.21504
1.21526
1.21552
1.2158
1.21609
1.21644
1.21682
1.21721
1.21762
1.21804
1.21843
1.21883
1.21919
1.21958
1.21998
1.22031
1.22068
1.22095
1.22123
1.22148
1.22169
1.2219
1.22209
1.2223
1.22257
1.22288
1.22326
1.22367
1.22411
1.22458
1.22503
1.22544
1.2258
1.22607
1.22626
1.22636
1.22637
1.2264
1.22628
1.22613
1.2259
1.2256
1.22523
1.22481
1.2243
1.22365
1.22286
1.22208
1.22117
1.22008
1.2188
1.2174
1.21601
1.21473
1.21344
1.21214
1.21075
1.20917
1.20744
1.2056
1.20371
1.20194
1.20031
1.1988
1.19738
1.19605
1.19483
1.19375
1.19281
1.192
1.19129
1.19066
1.19011
1.18964
1.18923
1.18888
1.18859
1.18835
1.18816
1.18802
1.18792
1.18785
1.18781
1.1878
1.18783
1.18789
1.18797
1.18809
1.18824
1.18842
1.18862
1.18885
1.18911
1.18938
1.18967
1.18999
1.19032
1.19067
1.19104
1.19142
1.19181
1.19222
1.19264
1.19307
1.19351
1.19396
1.19441
1.19487
1.19533
1.1958
1.19626
1.19673
1.1972
1.19767
1.19813
1.19859
1.19905
1.1995
1.19995
1.20039
1.20082
1.20124
1.20166
1.20206
1.20245
1.20283
1.2032
1.20356
1.2039
1.20422
1.20452
1.20481
1.20508
1.20533
1.20556
1.20576
1.20595
1.20611
1.20624
1.20636
1.20645
1.20653
1.20658
1.20662
1.20663
1.20663
1.20661
1.20655
1.20646
1.20634
1.20621
1.20605
1.20587
1.20567
1.20546
1.20522
1.20497
1.2047
1.20442
1.20412
1.20381
1.20349
1.20317
1.20283
1.20249
1.20215
1.2018
1.20145
1.2011
1.20075
1.20041
1.20007
1.19973
1.1994
1.19908
1.19877
1.19847
1.19817
1.1979
1.19763
1.19738
1.19714
1.19692
1.19672
1.19653
1.19636
1.19621
1.19608
1.19597
1.19587
1.19579
1.19573
1.19568
1.19566
1.19564
1.19564
1.19567
1.19572
1.19578
1.19586
1.19596
1.19608
1.19622
1.19637
1.19654
1.19673
1.19693
1.19714
1.19738
1.19762
1.19788
1.19815
1.19843
1.19873
1.19903
1.19935
1.19967
1.2
1.20033
1.20067
1.20102
1.20137
1.20172
1.20207
1.20241
1.20276
1.2031
1.20343
1.20376
1.20407
1.20438
1.20467
1.20495
1.20521
1.20546
1.20569
1.20589
1.20608
1.20625
1.20639
1.20651
1.20661
1.20668
1.20673
1.20676
1.20677
1.20675
1.20671
1.20665
1.20658
1.20648
1.20636
1.20623
1.20608
1.20591
1.20572
1.20552
1.20531
1.20509
1.20486
1.20462
1.20437
1.20413
1.20388
1.20363
1.20339
1.20314
1.20291
1.20267
1.20245
1.20224
1.20203
1.20184
1.20165
1.20148
1.20133
1.20118
1.20105
1.20094
1.20083
1.20075
1.20067
1.20061
1.20057
1.20053
1.20051
1.2005
1.2005
1.20051
1.20053
1.20056
1.2006
1.20064
1.20069
1.20074
1.2008
1.20087
1.20093
1.201
1.20107
1.20113
1.2012
1.20127
1.20133
1.2014
1.20146
1.20151
1.20157
1.20162
1.20167
1.20171
1.20175
1.20179
1.20182
1.20185
1.20187
1.2019
1.20192
1.20194
1.20196
1.20197
1.20199
1.202
1.20202
1.20204
1.20205
1.20207
1.20209
1.20211
1.20213
1.20215
1.20218
1.2022
1.20223
1.20226
1.2023
1.20233
1.20236
1.2024
1.20243
1.20247
1.2025
1.20253
1.20257
1.20258
1.20261
1.20266
1.20268
1.20273
1.20279
1.2028
1.20278
1.2028
1.20284
1.20291
1.20288
1.20288
1.20288
1.20288
1.20288
1.20287
1.20286
1.20285
1.20283
1.20281
1.20278
1.20276
1.20273
1.2027
1.20267
1.20263
1.2026
1.20257
1.20254
1.20251
1.20248
1.20246
1.20244
1.20242
1.20241
1.2024
1.2024
1.2024
1.20241
1.20242
1.20244
1.20247
1.2025
1.20253
1.20258
1.20262
1.20268
1.20274
1.2028
1.20287
1.20294
1.20302
1.2031
1.20318
1.20327
1.20335
1.20344
1.20352
1.20361
1.20369
1.20378
1.20385
1.20393
1.204
1.20407
1.20413
1.20419
1.20424
1.20428
1.20432
1.20435
1.20438
1.2044
1.20441
1.20441
1.2044
1.20439
1.20437
1.20434
1.20431
1.20427
1.20423
1.20418
1.20413
1.20407
1.20401
1.20394
1.20387
1.2038
1.20373
1.20366
1.20359
1.20352
1.20345
1.20338
1.20332
1.20325
1.2032
1.20314
1.2031
1.20305
1.20302
1.20299
1.20297
1.20296
1.20296
1.20298
1.203
1.20304
1.20309
1.20315
1.20322
1.20329
1.20336
1.20341
1.20346
1.20348
1.20348
1.20361
1.20364
1.20367
1.20373
1.20384
1.19446
1.19441
1.19466
1.19494
1.19524
1.19554
1.19579
1.19599
1.19616
1.19628
1.19641
1.19665
1.19693
1.19733
1.19801
1.199
1.20012
1.20131
1.20277
1.20446
1.20626
1.20798
1.20951
1.21085
1.21194
1.21269
1.21329
1.21382
1.21415
1.21436
1.21459
1.21481
1.21508
1.21533
1.21561
1.21591
1.21626
1.21664
1.21707
1.21748
1.21793
1.21834
1.21887
1.2193
1.21976
1.22014
1.2205
1.22088
1.22115
1.22128
1.22138
1.22136
1.22123
1.22106
1.22086
1.22066
1.22055
1.22057
1.22074
1.22103
1.22143
1.22208
1.22286
1.22375
1.22463
1.22543
1.22606
1.22648
1.22667
1.22684
1.22676
1.2267
1.22658
1.2264
1.22617
1.22588
1.22554
1.22516
1.2247
1.22422
1.22374
1.22315
1.22244
1.22159
1.22064
1.21958
1.2186
1.21763
1.21657
1.2153
1.21384
1.21212
1.21019
1.20831
1.20655
1.20483
1.20313
1.2014
1.19966
1.19802
1.19655
1.19525
1.19412
1.19312
1.19224
1.19146
1.19077
1.19018
1.18967
1.18924
1.1889
1.18862
1.18841
1.18826
1.18816
1.1881
1.18809
1.18812
1.18819
1.1883
1.18845
1.18862
1.18882
1.18905
1.18931
1.18958
1.18988
1.1902
1.19053
1.19088
1.19125
1.19163
1.19203
1.19244
1.19286
1.19329
1.19373
1.19418
1.19463
1.19509
1.19556
1.19602
1.19649
1.19696
1.19743
1.1979
1.19836
1.19883
1.19928
1.19974
1.20019
1.20063
1.20106
1.20148
1.2019
1.2023
1.2027
1.20308
1.20345
1.2038
1.20414
1.20447
1.20477
1.20506
1.20533
1.20558
1.2058
1.20601
1.20619
1.20635
1.20648
1.2066
1.20669
1.20677
1.20682
1.20686
1.20688
1.20688
1.20685
1.20679
1.2067
1.20659
1.20645
1.2063
1.20612
1.20592
1.2057
1.20546
1.20521
1.20494
1.20466
1.20436
1.20405
1.20373
1.20341
1.20307
1.20273
1.20239
1.20204
1.20169
1.20134
1.20099
1.20064
1.2003
1.19997
1.19964
1.19931
1.199
1.1987
1.19841
1.19813
1.19787
1.19762
1.19738
1.19716
1.19696
1.19677
1.1966
1.19646
1.19632
1.19621
1.19612
1.19604
1.19597
1.19593
1.1959
1.19589
1.1959
1.19592
1.19597
1.19603
1.19611
1.19622
1.19634
1.19647
1.19663
1.1968
1.19699
1.19719
1.19741
1.19764
1.19789
1.19815
1.19842
1.19871
1.199
1.1993
1.19962
1.19994
1.20027
1.20061
1.20095
1.2013
1.20165
1.202
1.20235
1.20269
1.20304
1.20338
1.20371
1.20404
1.20436
1.20466
1.20495
1.20523
1.2055
1.20574
1.20597
1.20618
1.20637
1.20654
1.20668
1.2068
1.2069
1.20697
1.20702
1.20705
1.20706
1.20705
1.20701
1.20695
1.20687
1.20678
1.20666
1.20653
1.20638
1.20621
1.20602
1.20582
1.20561
1.20539
1.20516
1.20492
1.20467
1.20443
1.20418
1.20393
1.20369
1.20345
1.20321
1.20298
1.20275
1.20254
1.20233
1.20214
1.20196
1.20179
1.20163
1.20149
1.20136
1.20124
1.20114
1.20105
1.20097
1.20091
1.20087
1.20083
1.20081
1.2008
1.2008
1.20081
1.20083
1.20086
1.20089
1.20094
1.20098
1.20104
1.2011
1.20116
1.20122
1.20129
1.20136
1.20143
1.20149
1.20156
1.20163
1.20169
1.20175
1.20181
1.20186
1.20191
1.20196
1.202
1.20204
1.20208
1.20211
1.20214
1.20217
1.20219
1.20221
1.20223
1.20225
1.20227
1.20229
1.2023
1.20232
1.20234
1.20235
1.20237
1.20239
1.20241
1.20244
1.20246
1.20249
1.20251
1.20254
1.20258
1.20261
1.20265
1.20269
1.20273
1.20277
1.20281
1.20286
1.2029
1.20295
1.20299
1.20303
1.20307
1.20311
1.20315
1.2032
1.20322
1.20323
1.20325
1.20329
1.20333
1.20334
1.20334
1.20334
1.20335
1.20335
1.20335
1.20334
1.20333
1.20331
1.20329
1.20327
1.20324
1.20322
1.20319
1.20315
1.20312
1.20309
1.20306
1.20303
1.203
1.20297
1.20295
1.20292
1.20291
1.20289
1.20288
1.20288
1.20288
1.20289
1.2029
1.20292
1.20294
1.20297
1.20301
1.20305
1.2031
1.20315
1.20321
1.20327
1.20334
1.20341
1.20349
1.20357
1.20365
1.20373
1.20381
1.2039
1.20398
1.20406
1.20415
1.20423
1.2043
1.20438
1.20445
1.20452
1.20458
1.20463
1.20468
1.20472
1.20476
1.20479
1.20482
1.20483
1.20484
1.20485
1.20484
1.20483
1.20482
1.20479
1.20476
1.20472
1.20468
1.20464
1.20459
1.20453
1.20448
1.20442
1.20435
1.20429
1.20422
1.20416
1.20409
1.20403
1.20397
1.20391
1.20385
1.20379
1.20375
1.2037
1.20366
1.20363
1.2036
1.20358
1.20357
1.20357
1.20357
1.20359
1.20361
1.20365
1.20369
1.20375
1.20381
1.20388
1.20396
1.20403
1.2041
1.20417
1.20423
1.20427
1.20431
1.20435
1.20437
1.20444
1.19446
1.19443
1.19488
1.19536
1.19587
1.19636
1.19671
1.19693
1.19709
1.19723
1.19745
1.19784
1.19835
1.19897
1.19991
1.20119
1.20251
1.20385
1.20555
1.20737
1.209
1.21033
1.21138
1.21218
1.21273
1.21305
1.21328
1.21347
1.21365
1.21378
1.21395
1.2141
1.2143
1.21459
1.21491
1.21534
1.21577
1.21627
1.21684
1.2174
1.21793
1.21846
1.2189
1.21936
1.21972
1.22001
1.22012
1.22017
1.22002
1.21976
1.21944
1.21901
1.21842
1.21772
1.21696
1.21616
1.21537
1.21464
1.21404
1.21363
1.21348
1.21357
1.214
1.21491
1.21612
1.2178
1.21964
1.22151
1.22322
1.22465
1.22551
1.22616
1.22652
1.22662
1.22646
1.22614
1.22575
1.22539
1.22503
1.22461
1.22423
1.22382
1.22337
1.22288
1.22237
1.22174
1.22107
1.22041
1.2197
1.21888
1.21791
1.21668
1.21525
1.21375
1.21227
1.21079
1.20927
1.20761
1.20581
1.20389
1.20204
1.20031
1.19874
1.19733
1.19606
1.1949
1.19384
1.19287
1.192
1.19122
1.19054
1.18997
1.1895
1.18913
1.18885
1.18865
1.18853
1.18848
1.1885
1.18856
1.18868
1.18883
1.18903
1.18925
1.18951
1.18978
1.19008
1.1904
1.19074
1.19109
1.19146
1.19185
1.19225
1.19266
1.19308
1.19351
1.19395
1.1944
1.19486
1.19532
1.19578
1.19625
1.19672
1.19719
1.19766
1.19813
1.19859
1.19906
1.19952
1.19997
1.20042
1.20086
1.2013
1.20172
1.20214
1.20254
1.20294
1.20332
1.20369
1.20405
1.20439
1.20471
1.20502
1.20531
1.20558
1.20583
1.20605
1.20626
1.20644
1.2066
1.20673
1.20685
1.20694
1.20702
1.20707
1.20711
1.20713
1.20713
1.2071
1.20704
1.20695
1.20684
1.2067
1.20655
1.20637
1.20617
1.20595
1.20571
1.20546
1.20519
1.20491
1.20461
1.2043
1.20398
1.20366
1.20332
1.20298
1.20263
1.20229
1.20194
1.20159
1.20124
1.20089
1.20055
1.20021
1.19988
1.19956
1.19925
1.19895
1.19866
1.19838
1.19811
1.19786
1.19763
1.19741
1.1972
1.19702
1.19685
1.1967
1.19657
1.19646
1.19636
1.19628
1.19622
1.19618
1.19615
1.19614
1.19614
1.19617
1.19621
1.19627
1.19636
1.19646
1.19658
1.19671
1.19687
1.19704
1.19723
1.19743
1.19765
1.19788
1.19812
1.19838
1.19866
1.19894
1.19923
1.19954
1.19985
1.20017
1.2005
1.20084
1.20118
1.20153
1.20187
1.20222
1.20257
1.20292
1.20327
1.20361
1.20394
1.20427
1.20458
1.20489
1.20518
1.20546
1.20572
1.20597
1.2062
1.20641
1.2066
1.20677
1.20691
1.20703
1.20713
1.20721
1.20726
1.20729
1.2073
1.20729
1.20725
1.20719
1.20712
1.20703
1.20692
1.20679
1.20664
1.20647
1.20629
1.20609
1.20588
1.20566
1.20543
1.2052
1.20495
1.20471
1.20447
1.20422
1.20398
1.20374
1.2035
1.20327
1.20305
1.20284
1.20264
1.20244
1.20226
1.20209
1.20194
1.20179
1.20167
1.20155
1.20145
1.20136
1.20129
1.20123
1.20118
1.20115
1.20112
1.20111
1.20111
1.20112
1.20114
1.20117
1.20121
1.20125
1.2013
1.20135
1.20141
1.20147
1.20154
1.2016
1.20167
1.20174
1.20181
1.20187
1.20194
1.202
1.20206
1.20211
1.20217
1.20222
1.20227
1.20231
1.20235
1.20239
1.20242
1.20245
1.20248
1.2025
1.20253
1.20255
1.20257
1.20259
1.2026
1.20262
1.20264
1.20266
1.20268
1.2027
1.20272
1.20274
1.20277
1.2028
1.20282
1.20286
1.20289
1.20292
1.20296
1.203
1.20304
1.20308
1.20312
1.20317
1.20321
1.20326
1.2033
1.20335
1.20339
1.20342
1.20346
1.2035
1.20354
1.20357
1.2036
1.20363
1.20366
1.20367
1.20368
1.2037
1.20371
1.20372
1.20372
1.20372
1.20371
1.2037
1.20368
1.20366
1.20364
1.20361
1.20359
1.20356
1.20352
1.20349
1.20346
1.20343
1.2034
1.20337
1.20334
1.20332
1.20329
1.20328
1.20326
1.20325
1.20325
1.20325
1.20325
1.20327
1.20328
1.20331
1.20334
1.20337
1.20341
1.20346
1.20351
1.20357
1.20363
1.2037
1.20377
1.20384
1.20392
1.204
1.20408
1.20416
1.20425
1.20433
1.20441
1.2045
1.20457
1.20465
1.20473
1.2048
1.20486
1.20492
1.20498
1.20503
1.20507
1.20511
1.20514
1.20517
1.20518
1.20519
1.2052
1.2052
1.20519
1.20517
1.20515
1.20512
1.20509
1.20505
1.205
1.20496
1.2049
1.20485
1.20479
1.20473
1.20467
1.2046
1.20454
1.20448
1.20442
1.20435
1.2043
1.20424
1.20419
1.20414
1.2041
1.20406
1.20402
1.204
1.20398
1.20396
1.20396
1.20396
1.20397
1.20399
1.20402
1.20405
1.2041
1.20415
1.20422
1.20428
1.20436
1.20444
1.20452
1.2046
1.20467
1.20474
1.2048
1.20484
1.2049
1.19454
1.19455
1.19523
1.19596
1.19673
1.1974
1.19782
1.19804
1.19818
1.19837
1.19877
1.19947
1.20025
1.20108
1.20218
1.20349
1.20471
1.20596
1.20751
1.20915
1.21047
1.21144
1.21212
1.21254
1.21279
1.21289
1.21299
1.21304
1.21304
1.21306
1.21319
1.21332
1.21361
1.21402
1.21453
1.21517
1.21581
1.21637
1.21702
1.21754
1.2181
1.21857
1.21897
1.21927
1.21955
1.21962
1.21969
1.2196
1.21939
1.21903
1.21859
1.21798
1.21719
1.21634
1.21545
1.21439
1.21323
1.21198
1.21067
1.20936
1.20816
1.20717
1.20646
1.20608
1.206
1.20668
1.20792
1.20986
1.21231
1.21503
1.2176
1.22022
1.22257
1.2245
1.22573
1.22614
1.22607
1.22578
1.22535
1.22481
1.22428
1.22383
1.22342
1.22302
1.22263
1.22224
1.22175
1.22126
1.22074
1.22016
1.21953
1.21877
1.21786
1.21691
1.21591
1.21487
1.21372
1.21244
1.21099
1.20937
1.20765
1.20591
1.20419
1.20259
1.20109
1.19966
1.1983
1.19699
1.19574
1.19456
1.19347
1.19249
1.19162
1.19089
1.19029
1.1898
1.18944
1.18919
1.18904
1.18898
1.189
1.1891
1.18925
1.18945
1.18969
1.18996
1.19026
1.19058
1.19092
1.19127
1.19164
1.19203
1.19243
1.19284
1.19327
1.1937
1.19415
1.1946
1.19505
1.19552
1.19598
1.19645
1.19692
1.19739
1.19786
1.19833
1.1988
1.19926
1.19972
1.20018
1.20063
1.20107
1.20151
1.20193
1.20235
1.20276
1.20316
1.20354
1.20391
1.20427
1.20461
1.20493
1.20524
1.20553
1.2058
1.20605
1.20627
1.20648
1.20666
1.20682
1.20695
1.20707
1.20716
1.20723
1.20729
1.20732
1.20734
1.20734
1.20731
1.20725
1.20716
1.20705
1.20691
1.20676
1.20658
1.20638
1.20616
1.20592
1.20567
1.2054
1.20512
1.20482
1.20451
1.20419
1.20386
1.20353
1.20319
1.20284
1.20249
1.20214
1.20179
1.20144
1.2011
1.20075
1.20042
1.20009
1.19976
1.19945
1.19915
1.19886
1.19858
1.19831
1.19806
1.19783
1.19761
1.1974
1.19722
1.19705
1.1969
1.19677
1.19666
1.19656
1.19648
1.19642
1.19637
1.19635
1.19633
1.19634
1.19636
1.19641
1.19647
1.19655
1.19666
1.19677
1.19691
1.19707
1.19724
1.19743
1.19763
1.19785
1.19808
1.19832
1.19858
1.19885
1.19914
1.19943
1.19973
1.20005
1.20037
1.2007
1.20103
1.20137
1.20172
1.20207
1.20241
1.20276
1.20311
1.20345
1.20379
1.20413
1.20445
1.20477
1.20507
1.20536
1.20564
1.20591
1.20615
1.20638
1.20659
1.20678
1.20695
1.2071
1.20722
1.20732
1.2074
1.20745
1.20748
1.20749
1.20748
1.20745
1.20739
1.20732
1.20723
1.20712
1.20699
1.20685
1.20668
1.2065
1.20631
1.2061
1.20588
1.20566
1.20542
1.20518
1.20494
1.2047
1.20446
1.20421
1.20398
1.20374
1.20351
1.20329
1.20308
1.20288
1.20269
1.20251
1.20234
1.20219
1.20204
1.20191
1.2018
1.2017
1.20161
1.20154
1.20148
1.20143
1.20139
1.20137
1.20136
1.20136
1.20137
1.20139
1.20142
1.20145
1.2015
1.20154
1.2016
1.20165
1.20172
1.20178
1.20184
1.20191
1.20198
1.20204
1.20211
1.20217
1.20223
1.20229
1.20235
1.2024
1.20245
1.2025
1.20254
1.20258
1.20262
1.20265
1.20269
1.20271
1.20274
1.20276
1.20279
1.20281
1.20283
1.20285
1.20287
1.20288
1.2029
1.20293
1.20295
1.20297
1.20299
1.20302
1.20305
1.20308
1.20311
1.20315
1.20318
1.20322
1.20326
1.2033
1.20335
1.20339
1.20344
1.20349
1.20353
1.20358
1.20363
1.20367
1.20372
1.20376
1.2038
1.20383
1.20387
1.2039
1.20394
1.20396
1.20398
1.204
1.20401
1.20403
1.20403
1.20403
1.20403
1.20403
1.20401
1.204
1.20398
1.20396
1.20393
1.20391
1.20388
1.20385
1.20381
1.20378
1.20375
1.20372
1.20369
1.20366
1.20363
1.20361
1.20359
1.20358
1.20357
1.20356
1.20356
1.20356
1.20357
1.20359
1.20361
1.20364
1.20367
1.20371
1.20375
1.2038
1.20386
1.20392
1.20399
1.20405
1.20413
1.2042
1.20428
1.20436
1.20444
1.20452
1.2046
1.20469
1.20477
1.20484
1.20492
1.20499
1.20506
1.20513
1.20519
1.20524
1.20529
1.20534
1.20538
1.20541
1.20543
1.20545
1.20546
1.20547
1.20547
1.20546
1.20544
1.20542
1.20539
1.20536
1.20533
1.20528
1.20524
1.20519
1.20513
1.20508
1.20502
1.20496
1.2049
1.20484
1.20478
1.20471
1.20466
1.2046
1.20454
1.20449
1.20445
1.20441
1.20437
1.20434
1.20431
1.20429
1.20427
1.20427
1.20427
1.20427
1.20429
1.20431
1.20435
1.20438
1.20443
1.20448
1.20454
1.20461
1.20468
1.20476
1.20484
1.20491
1.205
1.20507
1.20513
1.20519
1.1946
1.19469
1.19559
1.19664
1.19767
1.1985
1.19898
1.19921
1.1994
1.19978
1.20056
1.20161
1.2026
1.20349
1.20456
1.20586
1.20704
1.20817
1.2094
1.21054
1.21129
1.21177
1.2121
1.21226
1.21238
1.21236
1.21227
1.21216
1.21205
1.21208
1.21222
1.21249
1.21295
1.21355
1.21407
1.21479
1.21525
1.21596
1.21646
1.21703
1.21737
1.21776
1.21784
1.2179
1.21783
1.21787
1.21792
1.2179
1.21789
1.21777
1.21758
1.21737
1.21689
1.21623
1.21542
1.2144
1.21323
1.2119
1.21042
1.20884
1.20722
1.2056
1.2041
1.20278
1.20165
1.2008
1.20034
1.20048
1.20131
1.20287
1.20508
1.20816
1.21193
1.2162
1.22026
1.22333
1.22505
1.22566
1.22562
1.22529
1.22474
1.22411
1.22353
1.22302
1.22259
1.22217
1.22177
1.22136
1.22094
1.22049
1.22
1.21949
1.21887
1.21821
1.21753
1.21681
1.21603
1.21516
1.21418
1.21303
1.21174
1.21034
1.20889
1.20744
1.206
1.20457
1.20313
1.20169
1.20024
1.19879
1.19737
1.196
1.19473
1.19356
1.19253
1.19164
1.19091
1.19035
1.18994
1.18966
1.18951
1.18947
1.18953
1.18966
1.18986
1.19011
1.19039
1.19071
1.19105
1.19141
1.19178
1.19217
1.19257
1.19299
1.19341
1.19385
1.19429
1.19474
1.1952
1.19566
1.19613
1.1966
1.19707
1.19755
1.19802
1.19849
1.19896
1.19942
1.19988
1.20034
1.20079
1.20124
1.20167
1.2021
1.20252
1.20293
1.20332
1.20371
1.20408
1.20443
1.20478
1.2051
1.20541
1.2057
1.20597
1.20622
1.20645
1.20665
1.20683
1.20699
1.20712
1.20724
1.20733
1.2074
1.20746
1.2075
1.20751
1.20751
1.20748
1.20742
1.20733
1.20722
1.20708
1.20692
1.20674
1.20654
1.20632
1.20608
1.20583
1.20556
1.20527
1.20498
1.20467
1.20435
1.20402
1.20368
1.20334
1.203
1.20265
1.2023
1.20194
1.20159
1.20125
1.2009
1.20057
1.20023
1.19991
1.1996
1.1993
1.199
1.19872
1.19846
1.19821
1.19797
1.19775
1.19755
1.19736
1.19719
1.19704
1.19691
1.1968
1.1967
1.19663
1.19656
1.19651
1.19649
1.19647
1.19648
1.1965
1.19655
1.19661
1.19669
1.19679
1.19691
1.19705
1.1972
1.19737
1.19756
1.19776
1.19798
1.19821
1.19845
1.19871
1.19898
1.19926
1.19956
1.19986
1.20017
1.20049
1.20082
1.20115
1.20149
1.20184
1.20218
1.20253
1.20288
1.20322
1.20357
1.2039
1.20424
1.20456
1.20487
1.20518
1.20547
1.20575
1.20601
1.20626
1.20649
1.2067
1.20689
1.20706
1.20721
1.20733
1.20743
1.20751
1.20756
1.2076
1.20761
1.2076
1.20757
1.20752
1.20745
1.20736
1.20726
1.20713
1.20699
1.20683
1.20665
1.20645
1.20625
1.20604
1.20581
1.20558
1.20535
1.20511
1.20487
1.20462
1.20439
1.20415
1.20392
1.20369
1.20347
1.20326
1.20306
1.20287
1.20269
1.20253
1.20237
1.20223
1.2021
1.20199
1.20189
1.2018
1.20172
1.20166
1.20162
1.20158
1.20156
1.20155
1.20155
1.20155
1.20157
1.2016
1.20163
1.20167
1.20172
1.20177
1.20183
1.20189
1.20195
1.20202
1.20208
1.20215
1.20221
1.20228
1.20234
1.2024
1.20246
1.20252
1.20257
1.20262
1.20266
1.20271
1.20275
1.20278
1.20282
1.20285
1.20288
1.20291
1.20293
1.20295
1.20297
1.203
1.20302
1.20304
1.20306
1.20308
1.2031
1.20312
1.20315
1.20317
1.2032
1.20323
1.20326
1.2033
1.20334
1.20338
1.20342
1.20346
1.2035
1.20355
1.2036
1.20364
1.20369
1.20374
1.20379
1.20384
1.20389
1.20394
1.20398
1.20402
1.20406
1.2041
1.20413
1.20416
1.20419
1.20421
1.20423
1.20425
1.20426
1.20427
1.20427
1.20427
1.20426
1.20425
1.20424
1.20422
1.2042
1.20417
1.20415
1.20412
1.20408
1.20405
1.20402
1.20398
1.20395
1.20392
1.20389
1.20387
1.20384
1.20382
1.2038
1.20379
1.20378
1.20378
1.20378
1.20379
1.20381
1.20383
1.20385
1.20388
1.20392
1.20396
1.20401
1.20406
1.20412
1.20418
1.20425
1.20432
1.20439
1.20447
1.20454
1.20462
1.2047
1.20478
1.20486
1.20494
1.20502
1.20509
1.20516
1.20523
1.20529
1.20535
1.20541
1.20546
1.2055
1.20554
1.20557
1.2056
1.20561
1.20563
1.20563
1.20563
1.20563
1.20561
1.20559
1.20557
1.20554
1.2055
1.20546
1.20542
1.20537
1.20532
1.20527
1.20521
1.20515
1.20509
1.20504
1.20498
1.20492
1.20486
1.20481
1.20475
1.2047
1.20466
1.20462
1.20458
1.20455
1.20452
1.2045
1.20449
1.20448
1.20448
1.20448
1.2045
1.20452
1.20454
1.20458
1.20462
1.20467
1.20472
1.20478
1.20484
1.20491
1.20499
1.20506
1.20514
1.20522
1.20529
1.20536
1.19466
1.19482
1.19598
1.19736
1.19865
1.1996
1.2001
1.20038
1.20071
1.20143
1.20255
1.20382
1.20483
1.20565
1.20656
1.2076
1.2086
1.20958
1.2105
1.21112
1.2115
1.2117
1.21181
1.21179
1.21168
1.21147
1.21126
1.21106
1.21098
1.21111
1.21133
1.21167
1.21232
1.21283
1.2135
1.214
1.21459
1.215
1.21556
1.21602
1.2163
1.21652
1.21668
1.21661
1.21646
1.21619
1.21625
1.2162
1.21632
1.21639
1.21641
1.21642
1.21625
1.21589
1.21536
1.21457
1.21348
1.21214
1.21059
1.20886
1.207
1.20503
1.20312
1.2014
1.19987
1.19855
1.19742
1.19654
1.19596
1.19581
1.19629
1.19774
1.20035
1.20434
1.20943
1.21487
1.21969
1.22309
1.22487
1.22535
1.22512
1.22465
1.22403
1.22336
1.22277
1.22223
1.22173
1.22129
1.22089
1.22048
1.22008
1.21961
1.21911
1.21859
1.21805
1.2175
1.21692
1.2163
1.21562
1.21487
1.214
1.21303
1.21199
1.21088
1.20972
1.20852
1.20725
1.20591
1.20449
1.203
1.20145
1.19988
1.19831
1.1968
1.19539
1.19411
1.193
1.19207
1.19132
1.19074
1.19032
1.19006
1.18994
1.18995
1.19006
1.19025
1.1905
1.1908
1.19114
1.19149
1.19187
1.19226
1.19267
1.19309
1.19351
1.19395
1.1944
1.19485
1.19531
1.19577
1.19624
1.19671
1.19719
1.19766
1.19813
1.19861
1.19907
1.19954
1.2
1.20046
1.20091
1.20136
1.20179
1.20222
1.20264
1.20305
1.20345
1.20383
1.2042
1.20456
1.2049
1.20523
1.20554
1.20583
1.2061
1.20635
1.20657
1.20678
1.20696
1.20712
1.20725
1.20736
1.20745
1.20753
1.20758
1.20762
1.20764
1.20763
1.2076
1.20754
1.20745
1.20733
1.20719
1.20703
1.20685
1.20665
1.20643
1.20619
1.20594
1.20567
1.20538
1.20508
1.20477
1.20445
1.20412
1.20379
1.20344
1.2031
1.20275