/*--------------------------------*- C++ -*----------------------------------*\
| =========                 |                                                 |
| \\      /  F ield         | OpenFOAM: The Open Source CFD Toolbox           |
|  \\    /   O peration     | Version:  v1812                                 |
|   \\  /    A nd           | Web:      www.OpenFOAM.com                      |
|    \\/     M anipulation  |                                                 |
\*---------------------------------------------------------------------------*/
FoamFile
{
    version     2.0;
    format      ascii;
    class       volScalarField;
    location    "0.3";
    object      T;
}
// * * * * * * * * * * * * * * * * * * * * * * * * * * * * * * * * * * * * * //

dimensions      [0 0 0 1 0 0 0];


internalField   nonuniform List<scalar> 
20400
(
292.063
292.058
292.066
292.066
292.066
292.067
292.067
292.068
292.071
292.075
292.08
292.084
292.082
292.07
292.04
291.986
291.897
291.769
291.591
291.36
291.077
290.756
290.42
290.093
289.791
289.526
289.313
289.137
289.034
288.954
288.907
288.864
288.835
288.813
288.803
288.803
288.807
288.816
288.826
288.84
288.86
288.882
288.906
288.933
288.957
288.981
289.002
289.024
289.034
289.047
289.061
289.079
289.093
289.109
289.124
289.137
289.155
289.173
289.193
289.214
289.236
289.26
289.286
289.316
289.351
289.391
289.438
289.489
289.534
289.582
289.619
289.661
289.71
289.772
289.849
289.944
290.055
290.181
290.321
290.468
290.628
290.796
290.963
291.119
291.26
291.39
291.511
291.628
291.738
291.836
291.92
291.989
292.041
292.081
292.108
292.122
292.125
292.119
292.106
292.087
292.066
292.042
292.018
291.994
291.97
291.948
291.927
291.908
291.891
291.876
291.864
291.855
291.848
291.843
291.841
291.841
291.844
291.85
291.858
291.869
291.883
291.901
291.921
291.943
291.968
291.994
292.023
292.054
292.087
292.121
292.158
292.195
292.234
292.275
292.316
292.359
292.402
292.446
292.491
292.536
292.582
292.628
292.675
292.721
292.768
292.814
292.86
292.906
292.952
292.997
293.041
293.085
293.129
293.171
293.213
293.253
293.293
293.331
293.368
293.404
293.438
293.471
293.502
293.532
293.559
293.585
293.608
293.629
293.649
293.665
293.68
293.693
293.704
293.712
293.719
293.724
293.727
293.728
293.727
293.723
293.716
293.707
293.695
293.681
293.665
293.647
293.627
293.605
293.582
293.557
293.531
293.503
293.474
293.444
293.413
293.382
293.349
293.316
293.283
293.25
293.216
293.183
293.15
293.117
293.085
293.053
293.022
292.992
292.963
292.935
292.908
292.882
292.858
292.835
292.814
292.795
292.777
292.761
292.746
292.734
292.723
292.714
292.707
292.702
292.697
292.695
292.694
292.695
292.698
292.703
292.71
292.718
292.729
292.741
292.755
292.771
292.788
292.807
292.827
292.849
292.872
292.897
292.922
292.95
292.978
293.007
293.038
293.069
293.101
293.134
293.168
293.202
293.237
293.272
293.307
293.342
293.376
293.411
293.445
293.479
293.512
293.544
293.574
293.604
293.632
293.659
293.684
293.708
293.729
293.749
293.766
293.782
293.795
293.805
293.813
293.819
293.823
293.825
293.825
293.822
293.817
293.811
293.802
293.792
293.78
293.766
293.75
293.733
293.714
293.694
293.673
293.651
293.628
293.605
293.582
293.558
293.535
293.511
293.488
293.466
293.444
293.422
293.402
293.382
293.364
293.347
293.331
293.316
293.303
293.29
293.28
293.271
293.263
293.256
293.251
293.247
293.245
293.243
293.243
293.244
293.245
293.248
293.252
293.256
293.261
293.267
293.273
293.28
293.287
293.294
293.301
293.308
293.316
293.323
293.331
293.338
293.345
293.351
293.358
293.364
293.369
293.375
293.38
293.384
293.389
293.393
293.396
293.399
293.403
293.405
293.408
293.411
293.413
293.415
293.417
293.42
293.422
293.424
293.427
293.429
293.432
293.435
293.438
293.441
293.445
293.448
293.452
293.456
293.461
293.465
293.47
293.475
293.48
293.485
293.491
293.496
293.501
293.505
293.509
293.514
293.518
293.522
293.526
293.53
293.534
293.537
293.539
293.542
293.545
293.546
293.547
293.548
293.549
293.549
293.549
293.548
293.547
293.546
293.544
293.543
293.541
293.538
293.536
293.534
293.532
293.53
293.528
293.526
293.525
293.524
293.523
293.523
293.524
293.524
293.526
293.528
293.53
293.534
293.537
293.542
293.547
293.552
293.559
293.565
293.573
293.58
293.589
293.597
293.606
293.616
293.625
293.635
293.645
293.655
293.665
293.675
293.684
293.694
293.703
293.712
293.72
293.728
293.735
293.742
293.749
293.754
293.759
293.763
293.767
293.77
293.772
293.773
293.774
293.774
293.773
293.771
293.769
293.767
293.763
293.76
293.755
293.751
293.746
293.741
293.735
293.73
293.724
293.718
293.712
293.706
293.7
293.695
293.689
293.684
293.679
293.675
293.671
293.667
293.663
293.66
293.658
293.655
293.653
293.65
293.646
293.641
293.633
293.622
293.611
293.602
293.597
293.599
293.611
293.632
293.659
293.683
293.711
293.735
293.754
293.767
292.069
292.061
292.06
292.054
292.046
292.038
292.03
292.026
292.025
292.027
292.031
292.034
292.03
292.016
291.979
291.899
291.783
291.627
291.422
291.156
290.834
290.479
290.114
289.76
289.446
289.191
288.994
288.849
288.785
288.736
288.692
288.656
288.628
288.609
288.597
288.591
288.584
288.579
288.572
288.566
288.561
288.551
288.544
288.54
288.534
288.542
288.545
288.555
288.565
288.571
288.583
288.597
288.611
288.628
288.643
288.658
288.673
288.685
288.695
288.704
288.711
288.718
288.725
288.736
288.75
288.766
288.788
288.825
288.847
288.831
288.836
288.838
288.843
288.858
288.884
288.922
288.974
289.043
289.132
289.245
289.389
289.565
289.762
289.957
290.131
290.287
290.437
290.593
290.759
290.93
291.098
291.258
291.403
291.528
291.631
291.716
291.782
291.831
291.863
291.881
291.889
291.89
291.885
291.876
291.865
291.852
291.839
291.826
291.814
291.803
291.794
291.786
291.781
291.777
291.775
291.776
291.779
291.785
291.794
291.805
291.82
291.837
291.858
291.88
291.905
291.933
291.962
291.993
292.026
292.061
292.098
292.136
292.175
292.216
292.258
292.3
292.344
292.388
292.433
292.479
292.525
292.571
292.617
292.664
292.71
292.756
292.803
292.848
292.894
292.939
292.983
293.027
293.07
293.112
293.153
293.194
293.233
293.271
293.308
293.343
293.377
293.409
293.44
293.469
293.496
293.521
293.545
293.565
293.584
293.601
293.615
293.627
293.637
293.645
293.652
293.656
293.659
293.659
293.658
293.654
293.647
293.637
293.625
293.611
293.595
293.577
293.557
293.535
293.511
293.486
293.46
293.432
293.403
293.373
293.342
293.31
293.278
293.245
293.212
293.179
293.146
293.112
293.079
293.047
293.014
292.983
292.952
292.922
292.893
292.865
292.839
292.814
292.79
292.767
292.746
292.727
292.71
292.694
292.68
292.668
292.658
292.649
292.642
292.637
292.633
292.631
292.631
292.632
292.635
292.641
292.648
292.657
292.667
292.68
292.694
292.71
292.727
292.746
292.767
292.789
292.812
292.837
292.863
292.89
292.919
292.948
292.979
293.01
293.043
293.076
293.109
293.144
293.178
293.213
293.248
293.283
293.318
293.352
293.387
293.42
293.453
293.485
293.516
293.545
293.573
293.6
293.625
293.649
293.67
293.69
293.707
293.722
293.735
293.745
293.753
293.759
293.763
293.764
293.764
293.761
293.756
293.749
293.741
293.73
293.718
293.704
293.688
293.67
293.651
293.631
293.61
293.588
293.565
293.542
293.518
293.494
293.471
293.447
293.424
293.401
293.379
293.358
293.337
293.318
293.299
293.282
293.266
293.251
293.237
293.225
293.214
293.205
293.197
293.19
293.185
293.181
293.179
293.177
293.177
293.177
293.179
293.182
293.186
293.19
293.195
293.2
293.207
293.213
293.22
293.227
293.235
293.242
293.249
293.257
293.264
293.271
293.278
293.285
293.291
293.297
293.303
293.308
293.313
293.318
293.322
293.326
293.33
293.333
293.336
293.339
293.342
293.344
293.347
293.349
293.351
293.353
293.355
293.357
293.36
293.362
293.365
293.367
293.37
293.373
293.377
293.38
293.384
293.388
293.392
293.396
293.401
293.405
293.41
293.415
293.421
293.425
293.433
293.438
293.443
293.449
293.449
293.451
293.464
293.468
293.472
293.471
293.471
293.479
293.482
293.484
293.484
293.485
293.486
293.487
293.486
293.485
293.484
293.483
293.482
293.48
293.478
293.476
293.474
293.471
293.47
293.468
293.466
293.464
293.463
293.461
293.461
293.46
293.46
293.461
293.462
293.464
293.466
293.469
293.473
293.476
293.481
293.486
293.492
293.498
293.505
293.512
293.52
293.528
293.537
293.546
293.555
293.565
293.574
293.584
293.593
293.603
293.612
293.621
293.63
293.638
293.647
293.654
293.661
293.668
293.674
293.68
293.684
293.688
293.692
293.694
293.696
293.697
293.698
293.698
293.697
293.695
293.693
293.69
293.687
293.684
293.679
293.675
293.67
293.664
293.659
293.653
293.647
293.641
293.635
293.629
293.623
293.617
293.612
293.606
293.601
293.597
293.592
293.588
293.585
293.582
293.579
293.576
293.572
293.568
293.563
293.556
293.547
293.538
293.531
293.527
293.528
293.536
293.552
293.579
293.607
293.623
293.645
293.666
293.682
293.696
292.051
292.032
292.025
292.006
291.981
291.955
291.935
291.925
291.922
291.924
291.927
291.925
291.915
291.885
291.82
291.711
291.559
291.368
291.132
290.826
290.458
290.071
289.704
289.383
289.132
288.952
288.826
288.726
288.667
288.61
288.571
288.536
288.508
288.479
288.453
288.431
288.413
288.399
288.389
288.378
288.368
288.355
288.344
288.338
288.332
288.337
288.349
288.359
288.384
288.404
288.428
288.458
288.489
288.524
288.555
288.583
288.605
288.616
288.617
288.61
288.594
288.568
288.537
288.505
288.477
288.451
288.427
288.401
288.367
288.335
288.295
288.258
288.222
288.189
288.16
288.134
288.112
288.094
288.077
288.082
288.115
288.189
288.309
288.453
288.596
288.725
288.837
288.957
289.107
289.302
289.538
289.804
290.072
290.32
290.541
290.739
290.924
291.093
291.239
291.356
291.447
291.517
291.571
291.612
291.642
291.665
291.682
291.694
291.702
291.707
291.71
291.712
291.714
291.715
291.717
291.719
291.723
291.73
291.739
291.751
291.765
291.782
291.802
291.824
291.849
291.876
291.905
291.936
291.969
292.004
292.04
292.078
292.117
292.157
292.199
292.241
292.285
292.329
292.373
292.419
292.464
292.51
292.557
292.603
292.649
292.695
292.741
292.787
292.832
292.877
292.922
292.965
293.008
293.051
293.092
293.132
293.172
293.21
293.247
293.282
293.316
293.349
293.38
293.409
293.436
293.461
293.485
293.506
293.524
293.541
293.555
293.567
293.577
293.585
293.591
293.596
293.598
293.599
293.598
293.593
293.586
293.576
293.564
293.55
293.534
293.515
293.495
293.473
293.45
293.425
293.398
293.37
293.341
293.311
293.28
293.248
293.216
293.183
293.149
293.116
293.082
293.049
293.015
292.982
292.95
292.918
292.887
292.856
292.827
292.799
292.772
292.746
292.722
292.699
292.678
292.659
292.641
292.625
292.61
292.598
292.587
292.578
292.571
292.565
292.561
292.559
292.558
292.559
292.562
292.567
292.573
292.582
292.592
292.604
292.618
292.634
292.651
292.669
292.689
292.711
292.734
292.758
292.784
292.811
292.839
292.868
292.899
292.93
292.962
292.995
293.028
293.062
293.096
293.131
293.165
293.2
293.235
293.269
293.303
293.336
293.369
293.4
293.431
293.46
293.489
293.515
293.54
293.563
293.585
293.604
293.621
293.636
293.649
293.66
293.668
293.673
293.677
293.679
293.678
293.676
293.671
293.664
293.656
293.645
293.633
293.619
293.604
293.586
293.568
293.548
293.527
293.505
293.482
293.459
293.436
293.412
293.389
293.366
293.342
293.32
293.298
293.277
293.256
293.237
293.218
293.201
293.185
293.17
293.157
293.145
293.134
293.125
293.117
293.11
293.105
293.101
293.098
293.096
293.096
293.096
293.098
293.1
293.104
293.108
293.113
293.118
293.124
293.13
293.137
293.144
293.151
293.159
293.166
293.173
293.18
293.187
293.194
293.2
293.206
293.212
293.218
293.223
293.228
293.233
293.237
293.241
293.244
293.247
293.25
293.253
293.256
293.258
293.26
293.263
293.265
293.267
293.269
293.271
293.273
293.276
293.278
293.281
293.284
293.287
293.29
293.294
293.298
293.302
293.306
293.31
293.314
293.318
293.323
293.327
293.331
293.336
293.337
293.342
293.346
293.35
293.358
293.364
293.361
293.364
293.366
293.373
293.379
293.377
293.378
293.38
293.381
293.382
293.382
293.382
293.381
293.381
293.379
293.377
293.375
293.374
293.371
293.369
293.366
293.364
293.361
293.359
293.357
293.355
293.353
293.352
293.351
293.35
293.35
293.351
293.352
293.353
293.356
293.358
293.361
293.366
293.37
293.375
293.381
293.387
293.393
293.401
293.408
293.416
293.425
293.434
293.443
293.452
293.461
293.471
293.48
293.489
293.499
293.507
293.516
293.525
293.533
293.54
293.547
293.554
293.56
293.565
293.569
293.573
293.577
293.579
293.581
293.582
293.583
293.582
293.581
293.58
293.577
293.574
293.571
293.566
293.562
293.557
293.551
293.545
293.539
293.533
293.526
293.519
293.512
293.505
293.498
293.491
293.485
293.478
293.472
293.466
293.46
293.455
293.45
293.445
293.44
293.436
293.431
293.426
293.421
293.414
293.407
293.399
293.393
293.39
293.389
293.393
293.402
293.415
293.43
293.462
293.488
293.514
293.538
293.557
292.043
292.012
291.981
291.931
291.87
291.812
291.768
291.748
291.743
291.743
291.74
291.726
291.694
291.639
291.527
291.344
291.123
290.885
290.601
290.249
289.869
289.512
289.2
288.954
288.784
288.676
288.618
288.592
288.571
288.551
288.537
288.523
288.509
288.486
288.462
288.436
288.409
288.381
288.356
288.326
288.299
288.269
288.258
288.247
288.248
288.262
288.292
288.343
288.412
288.5
288.617
288.753
288.905
289.072
289.243
289.405
289.548
289.654
289.71
289.726
289.702
289.602
289.454
289.261
289.056
288.848
288.657
288.493
288.361
288.267
288.18
288.107
288.041
287.978
287.916
287.861
287.805
287.745
287.676
287.607
287.548
287.507
287.492
287.51
287.55
287.583
287.614
287.651
287.712
287.82
287.99
288.221
288.498
288.775
289.028
289.269
289.515
289.779
290.05
290.305
290.528
290.715
290.872
291.003
291.117
291.214
291.299
291.372
291.434
291.486
291.529
291.565
291.593
291.615
291.633
291.647
291.66
291.672
291.685
291.699
291.715
291.733
291.753
291.775
291.8
291.826
291.855
291.886
291.918
291.953
291.989
292.026
292.065
292.106
292.147
292.189
292.233
292.277
292.321
292.366
292.412
292.458
292.504
292.55
292.596
292.642
292.688
292.734
292.779
292.824
292.868
292.911
292.954
292.997
293.038
293.078
293.117
293.155
293.192
293.228
293.262
293.294
293.325
293.354
293.381
293.406
293.429
293.45
293.468
293.485
293.499
293.511
293.521
293.528
293.534
293.538
293.541
293.541
293.54
293.535
293.527
293.517
293.505
293.49
293.474
293.456
293.435
293.413
293.389
293.364
293.337
293.309
293.28
293.249
293.218
293.186
293.153
293.12
293.087
293.053
293.019
292.985
292.952
292.919
292.886
292.854
292.822
292.792
292.762
292.734
292.707
292.681
292.657
292.634
292.612
292.592
292.574
292.558
292.544
292.531
292.521
292.512
292.504
292.498
292.494
292.492
292.491
292.492
292.495
292.5
292.506
292.514
292.525
292.537
292.551
292.566
292.584
292.602
292.622
292.644
292.667
292.691
292.716
292.743
292.771
292.8
292.83
292.861
292.893
292.925
292.959
292.992
293.026
293.061
293.095
293.13
293.164
293.198
293.232
293.265
293.297
293.329
293.359
293.388
293.416
293.442
293.467
293.49
293.511
293.531
293.548
293.563
293.575
293.585
293.593
293.599
293.602
293.604
293.603
293.6
293.595
293.589
293.58
293.569
293.557
293.543
293.527
293.509
293.491
293.47
293.449
293.427
293.405
293.382
293.358
293.334
293.311
293.287
293.264
293.241
293.219
293.198
293.177
293.157
293.139
293.121
293.105
293.09
293.076
293.064
293.053
293.043
293.035
293.028
293.022
293.018
293.015
293.013
293.012
293.012
293.014
293.016
293.019
293.023
293.027
293.032
293.038
293.044
293.051
293.057
293.064
293.071
293.078
293.085
293.092
293.099
293.105
293.111
293.117
293.123
293.128
293.133
293.138
293.142
293.146
293.15
293.153
293.156
293.159
293.162
293.164
293.166
293.168
293.17
293.172
293.174
293.176
293.178
293.18
293.183
293.185
293.187
293.19
293.193
293.196
293.2
293.203
293.207
293.211
293.215
293.219
293.224
293.229
293.233
293.238
293.243
293.248
293.253
293.257
293.261
293.266
293.271
293.273
293.276
293.278
293.283
293.287
293.288
293.289
293.29
293.291
293.292
293.292
293.292
293.292
293.291
293.289
293.288
293.286
293.284
293.281
293.279
293.276
293.273
293.271
293.268
293.266
293.263
293.261
293.26
293.258
293.258
293.257
293.257
293.258
293.259
293.26
293.263
293.265
293.269
293.273
293.277
293.282
293.288
293.294
293.301
293.308
293.316
293.323
293.332
293.34
293.349
293.358
293.366
293.375
293.384
293.393
293.401
293.409
293.417
293.425
293.432
293.439
293.445
293.45
293.455
293.459
293.463
293.466
293.468
293.47
293.471
293.471
293.47
293.469
293.467
293.465
293.461
293.458
293.453
293.449
293.444
293.438
293.432
293.426
293.42
293.413
293.406
293.399
293.392
293.385
293.379
293.372
293.366
293.36
293.354
293.348
293.343
293.338
293.334
293.33
293.326
293.323
293.32
293.317
293.314
293.31
293.307
293.304
293.301
293.3
293.301
293.305
293.311
293.321
293.334
293.352
293.373
293.395
293.411
292.015
291.963
291.905
291.811
291.7
291.598
291.53
291.503
291.5
291.501
291.486
291.435
291.357
291.255
291.094
290.859
290.609
290.349
290.023
289.648
289.312
289.047
288.847
288.706
288.617
288.568
288.55
288.546
288.552
288.56
288.564
288.56
288.548
288.526
288.489
288.446
288.389
288.335
288.286
288.24
288.204
288.181
288.17
288.176
288.213
288.266
288.341
288.453
288.595
288.778
288.997
289.25
289.528
289.828
290.14
290.453
290.759
291.044
291.288
291.473
291.582
291.618
291.558
291.366
291.095
290.711
290.261
289.77
289.298
288.903
288.584
288.326
288.125
287.977
287.87
287.784
287.708
287.646
287.582
287.505
287.424
287.339
287.257
287.184
287.129
287.08
287.035
287
286.981
286.992
287.044
287.146
287.298
287.473
287.65
287.834
288.039
288.283
288.569
288.878
289.189
289.479
289.739
289.97
290.177
290.366
290.542
290.705
290.856
290.994
291.117
291.225
291.317
291.393
291.455
291.505
291.545
291.579
291.608
291.633
291.656
291.679
291.701
291.725
291.75
291.777
291.805
291.836
291.868
291.902
291.938
291.975
292.014
292.054
292.096
292.138
292.181
292.225
292.269
292.315
292.36
292.406
292.452
292.498
292.544
292.59
292.636
292.682
292.727
292.771
292.816
292.859
292.902
292.944
292.985
293.025
293.064
293.102
293.139
293.175
293.209
293.241
293.272
293.301
293.328
293.353
293.376
293.397
293.415
293.431
293.445
293.457
293.467
293.475
293.481
293.485
293.487
293.487
293.485
293.48
293.473
293.462
293.45
293.435
293.418
293.4
293.379
293.357
293.333
293.307
293.28
293.252
293.222
293.192
293.16
293.128
293.095
293.062
293.028
292.995
292.961
292.927
292.893
292.86
292.827
292.794
292.763
292.732
292.703
292.674
292.647
292.621
292.596
292.573
292.551
292.531
292.513
292.496
292.482
292.469
292.458
292.449
292.442
292.435
292.431
292.429
292.428
292.428
292.431
292.436
292.442
292.45
292.46
292.472
292.486
292.501
292.518
292.536
292.556
292.578
292.601
292.625
292.65
292.676
292.704
292.733
292.763
292.793
292.825
292.857
292.89
292.924
292.958
292.992
293.026
293.06
293.094
293.128
293.161
293.194
293.226
293.258
293.288
293.317
293.344
293.37
293.395
293.418
293.439
293.458
293.475
293.49
293.502
293.513
293.521
293.526
293.53
293.531
293.531
293.528
293.523
293.516
293.507
293.497
293.485
293.471
293.455
293.438
293.419
293.399
293.378
293.356
293.333
293.31
293.287
293.263
293.24
293.216
293.193
293.17
293.148
293.127
293.106
293.087
293.068
293.051
293.034
293.019
293.006
292.993
292.982
292.972
292.964
292.957
292.951
292.947
292.943
292.941
292.94
292.94
292.941
292.944
292.946
292.95
292.954
292.959
292.965
292.97
292.977
292.983
292.99
292.996
293.003
293.01
293.016
293.023
293.029
293.035
293.041
293.046
293.051
293.056
293.06
293.065
293.068
293.072
293.075
293.078
293.081
293.083
293.085
293.088
293.09
293.092
293.094
293.096
293.098
293.1
293.102
293.104
293.107
293.109
293.112
293.115
293.118
293.121
293.125
293.129
293.133
293.137
293.141
293.146
293.15
293.155
293.16
293.164
293.169
293.174
293.178
293.182
293.186
293.189
293.193
293.197
293.2
293.203
293.205
293.207
293.209
293.21
293.211
293.212
293.212
293.211
293.211
293.21
293.208
293.206
293.204
293.202
293.199
293.196
293.194
293.191
293.188
293.185
293.182
293.18
293.178
293.176
293.174
293.173
293.172
293.172
293.172
293.173
293.174
293.176
293.179
293.182
293.185
293.19
293.194
293.2
293.206
293.212
293.219
293.226
293.234
293.241
293.25
293.258
293.266
293.275
293.283
293.292
293.3
293.308
293.316
293.324
293.331
293.338
293.344
293.35
293.355
293.36
293.364
293.367
293.37
293.372
293.374
293.375
293.375
293.374
293.373
293.371
293.368
293.365
293.361
293.357
293.352
293.347
293.342
293.336
293.33
293.323
293.317
293.31
293.303
293.296
293.29
293.283
293.277
293.271
293.265
293.259
293.254
293.249
293.244
293.24
293.237
293.234
293.231
293.229
293.228
293.227
293.225
293.225
293.224
293.224
293.224
293.225
293.227
293.231
293.236
293.243
293.253
293.267
293.284
293.3
291.981
291.903
291.801
291.647
291.474
291.326
291.239
291.21
291.208
291.194
291.129
291.003
290.852
290.697
290.49
290.236
290.001
289.757
289.443
289.12
288.875
288.718
288.628
288.581
288.568
288.573
288.581
288.603
288.63
288.66
288.676
288.673
288.652
288.597
288.518
288.442
288.358
288.29
288.237
288.194
288.172
288.164
288.18
288.247
288.322
288.418
288.55
288.697
288.871
289.072
289.307
289.564
289.845
290.157
290.496
290.854
291.236
291.636
292.039
292.431
292.788
293.081
293.29
293.401
293.425
293.256
292.943
292.446
291.811
291.103
290.389
289.678
289.017
288.453
288.044
287.797
287.658
287.566
287.502
287.452
287.394
287.317
287.228
287.133
287.04
286.952
286.865
286.786
286.719
286.669
286.643
286.647
286.673
286.725
286.79
286.872
286.979
287.125
287.321
287.565
287.843
288.135
288.421
288.696
288.958
289.21
289.457
289.701
289.942
290.177
290.402
290.61
290.799
290.965
291.107
291.226
291.326
291.408
291.475
291.53
291.576
291.614
291.647
291.678
291.706
291.735
291.764
291.795
291.827
291.861
291.896
291.933
291.972
292.012
292.053
292.095
292.138
292.182
292.227
292.272
292.317
292.363
292.409
292.455
292.501
292.547
292.593
292.639
292.684
292.728
292.773
292.816
292.859
292.901
292.942
292.982
293.021
293.059
293.096
293.131
293.165
293.197
293.228
293.257
293.283
293.308
293.331
293.352
293.37
293.386
293.4
293.412
293.422
293.429
293.435
293.439
293.442
293.442
293.44
293.434
293.426
293.416
293.403
293.388
293.372
293.353
293.332
293.309
293.285
293.259
293.232
293.203
293.174
293.143
293.111
293.079
293.046
293.013
292.979
292.945
292.911
292.877
292.843
292.809
292.776
292.744
292.712
292.682
292.652
292.623
292.596
292.569
292.544
292.521
292.499
292.479
292.461
292.444
292.429
292.416
292.405
292.396
292.388
292.382
292.378
292.375
292.374
292.375
292.377
292.382
292.388
292.396
292.406
292.417
292.431
292.446
292.463
292.481
292.501
292.522
292.545
292.569
292.594
292.621
292.648
292.677
292.707
292.737
292.769
292.801
292.834
292.867
292.9
292.934
292.968
293.002
293.036
293.07
293.103
293.136
293.168
293.198
293.228
293.257
293.285
293.311
293.335
293.358
293.379
293.398
293.415
293.43
293.442
293.452
293.46
293.466
293.469
293.471
293.47
293.467
293.462
293.456
293.447
293.437
293.425
293.411
293.395
293.378
293.359
293.339
293.318
293.297
293.274
293.251
293.228
293.204
293.181
293.157
293.134
293.112
293.09
293.068
293.048
293.028
293.01
292.992
292.976
292.961
292.947
292.934
292.923
292.913
292.905
292.897
292.892
292.887
292.884
292.882
292.88
292.88
292.881
292.883
292.886
292.889
292.893
292.898
292.903
292.909
292.915
292.921
292.927
292.934
292.94
292.947
292.953
292.96
292.966
292.971
292.977
292.982
292.987
292.992
292.996
293
293.004
293.007
293.01
293.013
293.016
293.018
293.02
293.022
293.024
293.026
293.028
293.03
293.032
293.034
293.036
293.039
293.041
293.044
293.047
293.05
293.053
293.056
293.06
293.064
293.068
293.072
293.077
293.081
293.086
293.091
293.095
293.1
293.105
293.11
293.114
293.118
293.122
293.126
293.13
293.134
293.137
293.14
293.142
293.144
293.146
293.147
293.148
293.148
293.149
293.148
293.147
293.146
293.145
293.143
293.141
293.138
293.135
293.132
293.129
293.126
293.123
293.12
293.118
293.115
293.112
293.11
293.108
293.107
293.106
293.105
293.105
293.106
293.107
293.108
293.111
293.113
293.117
293.121
293.125
293.13
293.136
293.142
293.148
293.155
293.162
293.17
293.177
293.185
293.194
293.202
293.21
293.218
293.226
293.234
293.242
293.249
293.256
293.263
293.269
293.275
293.28
293.284
293.288
293.292
293.294
293.296
293.298
293.298
293.298
293.298
293.296
293.295
293.292
293.289
293.285
293.281
293.277
293.272
293.266
293.261
293.255
293.248
293.242
293.236
293.229
293.223
293.216
293.21
293.204
293.198
293.193
293.187
293.183
293.178
293.174
293.171
293.168
293.166
293.164
293.163
293.162
293.162
293.162
293.163
293.165
293.167
293.169
293.171
293.175
293.178
293.183
293.188
293.195
293.204
293.216
293.228
291.939
291.834
291.674
291.451
291.213
291.027
290.93
290.903
290.891
290.836
290.687
290.475
290.277
290.109
289.909
289.674
289.453
289.235
288.997
288.793
288.661
288.593
288.572
288.584
288.602
288.638
288.688
288.745
288.794
288.821
288.824
288.796
288.743
288.656
288.561
288.477
288.391
288.337
288.29
288.268
288.252
288.283
288.34
288.43
288.556
288.702
288.853
289.004
289.159
289.324
289.507
289.72
289.948
290.208
290.506
290.845
291.23
291.653
292.105
292.573
293.044
293.502
293.926
294.294
294.577
294.757
294.83
294.751
294.492
294.039
293.393
292.547
291.523
290.374
289.272
288.416
287.864
287.563
287.412
287.323
287.273
287.238
287.191
287.124
287.042
286.948
286.85
286.753
286.663
286.585
286.518
286.47
286.433
286.412
286.404
286.409
286.432
286.482
286.568
286.696
286.866
287.07
287.295
287.531
287.774
288.026
288.288
288.564
288.852
289.15
289.452
289.751
290.038
290.306
290.551
290.768
290.956
291.116
291.25
291.36
291.449
291.52
291.578
291.625
291.665
291.7
291.732
291.764
291.797
291.831
291.866
291.903
291.941
291.981
292.022
292.064
292.107
292.151
292.195
292.241
292.286
292.332
292.378
292.424
292.47
292.516
292.562
292.608
292.653
292.698
292.742
292.785
292.828
292.87
292.911
292.951
292.99
293.028
293.065
293.1
293.134
293.166
293.196
293.225
293.252
293.277
293.3
293.32
293.338
293.354
293.368
293.38
293.389
293.397
293.403
293.407
293.409
293.409
293.407
293.402
293.394
293.383
293.37
293.355
293.338
293.319
293.298
293.275
293.251
293.225
293.197
293.169
293.139
293.108
293.076
293.044
293.01
292.977
292.943
292.909
292.875
292.84
292.806
292.773
292.74
292.707
292.675
292.645
292.615
292.586
292.558
292.532
292.507
292.483
292.462
292.441
292.423
292.406
292.391
292.378
292.367
292.357
292.349
292.343
292.338
292.336
292.334
292.335
292.337
292.341
292.347
292.355
292.365
292.377
292.39
292.405
292.422
292.44
292.459
292.481
292.503
292.527
292.552
292.578
292.606
292.634
292.664
292.694
292.725
292.757
292.79
292.823
292.856
292.89
292.924
292.958
292.992
293.025
293.058
293.091
293.122
293.153
293.183
293.211
293.239
293.264
293.289
293.311
293.332
293.351
293.368
293.383
293.395
293.406
293.414
293.419
293.423
293.425
293.424
293.421
293.417
293.41
293.402
293.392
293.38
293.366
293.351
293.334
293.315
293.295
293.275
293.253
293.231
293.208
293.185
293.161
293.138
293.115
293.092
293.069
293.047
293.026
293.006
292.986
292.968
292.95
292.934
292.919
292.905
292.892
292.881
292.871
292.863
292.855
292.849
292.845
292.841
292.839
292.838
292.837
292.838
292.84
292.842
292.846
292.85
292.854
292.859
292.864
292.87
292.876
292.882
292.889
292.895
292.901
292.908
292.914
292.92
292.925
292.931
292.936
292.941
292.945
292.949
292.953
292.957
292.96
292.963
292.966
292.968
292.971
292.973
292.975
292.977
292.979
292.981
292.983
292.985
292.987
292.989
292.992
292.994
292.997
293
293.003
293.007
293.01
293.014
293.018
293.022
293.027
293.031
293.036
293.041
293.046
293.051
293.055
293.06
293.065
293.07
293.074
293.078
293.082
293.086
293.09
293.093
293.095
293.098
293.1
293.102
293.103
293.104
293.105
293.105
293.104
293.104
293.102
293.101
293.099
293.096
293.094
293.091
293.088
293.085
293.082
293.079
293.076
293.073
293.07
293.067
293.065
293.063
293.061
293.06
293.059
293.059
293.059
293.06
293.061
293.063
293.065
293.068
293.072
293.076
293.081
293.086
293.092
293.098
293.104
293.111
293.118
293.126
293.134
293.141
293.149
293.157
293.165
293.173
293.18
293.188
293.195
293.202
293.208
293.214
293.22
293.225
293.229
293.233
293.236
293.239
293.241
293.242
293.243
293.243
293.243
293.242
293.24
293.238
293.235
293.231
293.227
293.223
293.218
293.213
293.208
293.202
293.196
293.19
293.184
293.178
293.172
293.166
293.16
293.154
293.149
293.144
293.139
293.135
293.131
293.127
293.124
293.122
293.12
293.119
293.118
293.118
293.119
293.12
293.122
293.124
293.127
293.131
293.135
293.139
293.144
293.149
293.155
293.162
293.169
293.178
293.187
291.893
291.756
291.539
291.243
290.943
290.728
290.628
290.589
290.548
290.413
290.182
289.923
289.716
289.561
289.402
289.214
289.022
288.857
288.72
288.625
288.587
288.581
288.604
288.648
288.716
288.798
288.883
288.952
288.991
289.004
288.986
288.931
288.858
288.754
288.677
288.603
288.565
288.539
288.536
288.553
288.577
288.612
288.697
288.819
288.963
289.114
289.277
289.399
289.513
289.613
289.731
289.876
290.034
290.22
290.462
290.764
291.122
291.535
291.995
292.491
293.013
293.548
294.061
294.529
294.932
295.264
295.523
295.705
295.798
295.766
295.546
295.095
294.344
293.248
291.872
290.419
289.118
288.152
287.57
287.29
287.162
287.096
287.063
287.03
286.988
286.929
286.849
286.758
286.664
286.574
286.494
286.421
286.359
286.308
286.266
286.233
286.211
286.205
286.219
286.257
286.328
286.43
286.559
286.711
286.884
287.08
287.301
287.549
287.828
288.134
288.465
288.813
289.168
289.52
289.857
290.17
290.451
290.699
290.915
291.098
291.252
291.378
291.478
291.556
291.617
291.666
291.707
291.743
291.778
291.812
291.847
291.884
291.922
291.962
292.003
292.045
292.088
292.132
292.176
292.221
292.267
292.313
292.359
292.405
292.451
292.497
292.543
292.589
292.634
292.679
292.723
292.766
292.809
292.851
292.893
292.933
292.972
293.01
293.046
293.081
293.115
293.147
293.178
293.206
293.233
293.258
293.281
293.301
293.319
293.335
293.349
293.36
293.37
293.377
293.383
293.387
293.389
293.389
293.387
293.382
293.374
293.363
293.35
293.335
293.318
293.298
293.277
293.254
293.23
293.204
293.176
293.147