/*--------------------------------*- C++ -*----------------------------------*\
| =========                 |                                                 |
| \\      /  F ield         | OpenFOAM: The Open Source CFD Toolbox           |
|  \\    /   O peration     | Version:  v1812                                 |
|   \\  /    A nd           | Web:      www.OpenFOAM.com                      |
|    \\/     M anipulation  |                                                 |
\*---------------------------------------------------------------------------*/
FoamFile
{
    version     2.0;
    format      ascii;
    class       volVectorField;
    location    "0.3";
    object      U;
}
// * * * * * * * * * * * * * * * * * * * * * * * * * * * * * * * * * * * * * //

dimensions      [0 1 -1 0 0 0 0];


internalField   nonuniform List<vector> 
20400
(
(-0.283558 0.158025 0)
(-0.66648 0.0337835 0)
(-0.955656 -0.100565 0)
(-1.15933 -0.136354 0)
(-1.33755 -0.14641 0)
(-1.50462 -0.151783 0)
(-1.67516 -0.131965 0)
(-1.86791 -0.104363 0)
(-2.08396 -0.0789432 0)
(-2.32417 -0.0464783 0)
(-2.58792 -0.0287771 0)
(-2.85141 -0.0331685 0)
(-3.11703 -0.0113574 0)
(-3.40698 0.0227084 0)
(-3.71673 0.00361024 0)
(-3.99161 -0.138667 0)
(-4.25109 -0.288102 0)
(-4.55298 -0.350374 0)
(-4.84295 -0.446708 0)
(-5.06747 -0.629378 0)
(-5.22309 -0.84344 0)
(-5.48589 -0.956815 0)
(-5.77979 -1.13457 0)
(-6.14026 -1.30452 0)
(-6.5888 -1.45246 0)
(-7.15905 -1.58888 0)
(-7.78309 -1.75019 0)
(-8.39611 -1.78906 0)
(-8.762 -0.738675 0)
(-8.92925 0.418214 0)
(-9.57264 0.770575 0)
(-10.3122 0.810858 0)
(-11.1429 0.736819 0)
(-12.0555 0.601018 0)
(-13.0438 0.428241 0)
(-14.0703 0.225828 0)
(-15.1184 0.112209 0)
(-16.1446 0.0622037 0)
(-17.1253 0.114206 0)
(-18.0463 0.195129 0)
(-18.8927 0.256953 0)
(-19.6691 0.319573 0)
(-20.3924 0.311693 0)
(-21.0428 0.25186 0)
(-21.6225 0.155032 0)
(-22.1348 -0.0108322 0)
(-22.5563 -0.17221 0)
(-22.8617 -0.308487 0)
(-23.1184 -0.43797 0)
(-23.3488 -0.487157 0)
(-23.4426 -0.523172 0)
(-23.4537 -0.441855 0)
(-23.3677 -0.362765 0)
(-23.146 -0.343194 0)
(-22.7682 -0.384233 0)
(-22.2598 -0.392385 0)
(-21.6416 -0.352614 0)
(-20.9215 -0.269427 0)
(-20.1201 -0.152306 0)
(-19.2513 -0.0177426 0)
(-18.3308 0.123543 0)
(-17.3759 0.262964 0)
(-16.4076 0.398629 0)
(-15.4467 0.532135 0)
(-14.5256 0.674002 0)
(-13.6577 0.847401 0)
(-12.8707 1.04663 0)
(-12.172 1.20076 0)
(-11.5243 0.992865 0)
(-10.8466 0.723691 0)
(-10.1339 0.694373 0)
(-9.52069 0.753529 0)
(-8.96266 0.779506 0)
(-8.4544 0.795167 0)
(-7.99456 0.799777 0)
(-7.56967 0.780902 0)
(-7.16193 0.740428 0)
(-6.75901 0.680758 0)
(-6.33657 0.613068 0)
(-5.91848 0.572357 0)
(-5.54 0.538299 0)
(-5.20049 0.50868 0)
(-4.9084 0.485664 0)
(-4.66967 0.466687 0)
(-4.48377 0.440359 0)
(-4.33346 0.394418 0)
(-4.20988 0.321855 0)
(-4.10936 0.219328 0)
(-4.00382 0.105909 0)
(-3.90387 -0.000608795 0)
(-3.79488 -0.0843105 0)
(-3.6693 -0.151758 0)
(-3.5535 -0.185326 0)
(-3.47299 -0.202951 0)
(-3.41329 -0.212466 0)
(-3.36129 -0.217178 0)
(-3.31216 -0.215947 0)
(-3.26492 -0.20994 0)
(-3.22014 -0.199219 0)
(-3.17737 -0.186656 0)
(-3.13578 -0.171955 0)
(-3.09667 -0.156525 0)
(-3.05889 -0.140728 0)
(-3.02137 -0.125052 0)
(-2.98447 -0.109741 0)
(-2.94877 -0.0951803 0)
(-2.91477 -0.0816994 0)
(-2.88256 -0.0696001 0)
(-2.85211 -0.0588504 0)
(-2.8233 -0.0494515 0)
(-2.79604 -0.0412508 0)
(-2.77024 -0.0341462 0)
(-2.74579 -0.0281105 0)
(-2.72246 -0.0230348 0)
(-2.70145 -0.0188025 0)
(-2.67988 -0.0153528 0)
(-2.66597 -0.0125392 0)
(-2.65727 -0.0098553 0)
(-2.65391 -0.00648603 0)
(-2.65619 -0.00512387 0)
(-2.66532 -0.00377937 0)
(-2.6823 -0.00275393 0)
(-2.70591 -0.00191218 0)
(-2.73559 -0.00126571 0)
(-2.77175 -0.000855002 0)
(-2.81467 -0.000703779 0)
(-2.86418 -0.000813127 0)
(-2.91994 -0.00114985 0)
(-2.98166 -0.0017075 0)
(-3.04904 -0.00250119 0)
(-3.12174 -0.00349537 0)
(-3.19946 -0.00466561 0)
(-3.28184 -0.00598393 0)
(-3.36854 -0.00742382 0)
(-3.45924 -0.00898962 0)
(-3.55357 -0.0106767 0)
(-3.65119 -0.0124566 0)
(-3.75175 -0.0142971 0)
(-3.85493 -0.0161804 0)
(-3.96042 -0.0180982 0)
(-4.06789 -0.0200251 0)
(-4.17703 -0.021907 0)
(-4.2876 -0.0237009 0)
(-4.39932 -0.0254416 0)
(-4.51185 -0.0271881 0)
(-4.62489 -0.0289363 0)
(-4.73794 -0.0305281 0)
(-4.85078 -0.0320659 0)
(-4.96296 -0.0335413 0)
(-5.0743 -0.0349228 0)
(-5.18444 -0.0361999 0)
(-5.29303 -0.0373572 0)
(-5.39972 -0.0384122 0)
(-5.50415 -0.0393406 0)
(-5.60596 -0.0401313 0)
(-5.70482 -0.0407799 0)
(-5.80033 -0.041255 0)
(-5.89206 -0.0415524 0)
(-5.97962 -0.0415494 0)
(-6.06266 -0.0411878 0)
(-6.14078 -0.0405486 0)
(-6.2136 -0.0396575 0)
(-6.28058 -0.0386424 0)
(-6.34117 -0.0374487 0)
(-6.39485 -0.0361798 0)
(-6.44117 -0.0349984 0)
(-6.47977 -0.0339059 0)
(-6.5104 -0.0328927 0)
(-6.53292 -0.0318189 0)
(-6.54699 -0.030745 0)
(-6.55324 -0.0299656 0)
(-6.55125 -0.0283426 0)
(-6.5419 -0.0262964 0)
(-6.52462 -0.0241213 0)
(-6.50047 -0.0224411 0)
(-6.46909 -0.0209947 0)
(-6.42997 -0.0194717 0)
(-6.38576 -0.0179131 0)
(-6.33318 -0.0163192 0)
(-6.26936 -0.0146513 0)
(-6.19592 -0.0130106 0)
(-6.1147 -0.0114466 0)
(-6.02651 -0.00996371 0)
(-5.93162 -0.00854964 0)
(-5.8303 -0.00719302 0)
(-5.72298 -0.00590701 0)
(-5.61025 -0.00470712 0)
(-5.4927 -0.003612 0)
(-5.3709 -0.00264314 0)
(-5.24539 -0.00179846 0)
(-5.11678 -0.00103416 0)
(-4.98568 -0.000325108 0)
(-4.85272 0.000295085 0)
(-4.71841 0.000798349 0)
(-4.58329 0.00122733 0)
(-4.44791 0.00158675 0)
(-4.31283 0.00189036 0)
(-4.17858 0.00214597 0)
(-4.04571 0.00234983 0)
(-3.91471 0.00250457 0)
(-3.78608 0.00261329 0)
(-3.66029 0.00267757 0)
(-3.53776 0.00270166 0)
(-3.41892 0.00268843 0)
(-3.30415 0.00263997 0)
(-3.19381 0.00256618 0)
(-3.08821 0.00248433 0)
(-2.98769 0.00241492 0)
(-2.89253 0.00237621 0)
(-2.80303 0.00236992 0)
(-2.71938 0.00238198 0)
(-2.64177 0.00240111 0)
(-2.57034 0.00243809 0)
(-2.5052 0.00250606 0)
(-2.44649 0.00260895 0)
(-2.39428 0.00274757 0)
(-2.34864 0.00292969 0)
(-2.30959 0.00316347 0)
(-2.27705 0.00343723 0)
(-2.25082 0.00372471 0)
(-2.23071 0.00401287 0)
(-2.21652 0.0043328 0)
(-2.2081 0.00471931 0)
(-2.20471 0.00528013 0)
(-2.20639 0.00546226 0)
(-2.21225 0.00558604 0)
(-2.22275 0.00507663 0)
(-2.23583 0.00608465 0)
(-2.25652 0.00652675 0)
(-2.2809 0.00648803 0)
(-2.30885 0.00710171 0)
(-2.34143 0.00743267 0)
(-2.37787 0.00763394 0)
(-2.41762 0.00754947 0)
(-2.46029 0.00742356 0)
(-2.50568 0.00733262 0)
(-2.55354 0.00724393 0)
(-2.60357 0.00707318 0)
(-2.65547 0.00682733 0)
(-2.70903 0.0065706 0)
(-2.76401 0.00619955 0)
(-2.82017 0.00580125 0)
(-2.87736 0.00538094 0)
(-2.93537 0.00487604 0)
(-2.99405 0.00436663 0)
(-3.05327 0.00384794 0)
(-3.11288 0.00327812 0)
(-3.17277 0.00274341 0)
(-3.23281 0.00219229 0)
(-3.29288 0.00166051 0)
(-3.35286 0.00113293 0)
(-3.41259 0.000569179 0)
(-3.47189 3.09797e-06 0)
(-3.53059 -0.000566953 0)
(-3.58851 -0.00115838 0)
(-3.64546 -0.00174625 0)
(-3.70132 -0.00239563 0)
(-3.75587 -0.00291477 0)
(-3.80888 -0.0034987 0)
(-3.86019 -0.00405185 0)
(-3.90962 -0.00455539 0)
(-3.95693 -0.00503295 0)
(-4.00182 -0.00579375 0)
(-4.0442 -0.00587831 0)
(-4.08426 -0.00667005 0)
(-4.12158 -0.00703716 0)
(-4.15574 -0.00725431 0)
(-4.18685 -0.00752534 0)
(-4.21511 -0.00773502 0)
(-4.23989 -0.00789452 0)
(-4.26102 -0.00799294 0)
(-4.27827 -0.00804542 0)
(-4.29158 -0.00805583 0)
(-4.30098 -0.00802381 0)
(-4.30658 -0.00798136 0)
(-4.30853 -0.00800251 0)
(-4.30701 -0.00801156 0)
(-4.30316 -0.00799123 0)
(-4.29749 -0.00720496 0)
(-4.28536 -0.0073643 0)
(-4.27099 -0.00717736 0)
(-4.25385 -0.00704293 0)
(-4.23381 -0.00679736 0)
(-4.2108 -0.0064012 0)
(-4.18464 -0.00608448 0)
(-4.15539 -0.00583742 0)
(-4.12309 -0.00544663 0)
(-4.08788 -0.00507401 0)
(-4.05007 -0.00455156 0)
(-4.00998 -0.00385773 0)
(-3.96793 -0.00317892 0)
(-3.924 -0.00282626 0)
(-3.87838 -0.00246985 0)
(-3.8314 -0.00209056 0)
(-3.78337 -0.00172365 0)
(-3.73455 -0.0013898 0)
(-3.68516 -0.00108074 0)
(-3.63542 -0.000795301 0)
(-3.58554 -0.000529561 0)
(-3.53569 -0.000298258 0)
(-3.48607 -7.46273e-05 0)
(-3.4369 0.000123666 0)
(-3.38834 0.000286571 0)
(-3.34054 0.000412048 0)
(-3.29363 0.000501527 0)
(-3.24775 0.000556547 0)
(-3.20301 0.000581157 0)
(-3.15951 0.000578726 0)
(-3.11735 0.000550684 0)
(-3.07659 0.000497995 0)
(-3.0373 0.000437142 0)
(-2.99954 0.000391975 0)
(-2.96338 0.000359741 0)
(-2.92888 0.000301012 0)
(-2.8961 0.000190936 0)
(-2.86501 2.99076e-05 0)
(-2.83554 -0.000150781 0)
(-2.80739 -0.000332556 0)
(-2.78066 -0.000528001 0)
(-2.75373 -0.000731112 0)
(-2.72974 -0.000943487 0)
(-2.7069 -0.00115794 0)
(-2.68512 -0.00136938 0)
(-2.66462 -0.00158257 0)
(-2.64532 -0.0017835 0)
(-2.62725 -0.00196209 0)
(-2.61042 -0.00212472 0)
(-2.59482 -0.00227852 0)
(-2.58045 -0.00242343 0)
(-2.56731 -0.00256759 0)
(-2.55538 -0.00270987 0)
(-2.54466 -0.00285242 0)
(-2.53511 -0.00300875 0)
(-2.52674 -0.00314505 0)
(-2.51963 -0.00308615 0)
(-2.51407 -0.00290621 0)
(-2.50978 -0.00364333 0)
(-2.50636 -0.00391728 0)
(-2.50414 -0.00392494 0)
(-2.50333 -0.00400112 0)
(-2.50403 -0.00387906 0)
(-2.5061 -0.00399179 0)
(-2.50965 -0.0041078 0)
(-2.51473 -0.00418176 0)
(-2.52138 -0.0042261 0)
(-2.52964 -0.0042585 0)
(-2.53955 -0.00427439 0)
(-2.55116 -0.00426725 0)
(-2.56449 -0.00424686 0)
(-2.57957 -0.00421732 0)
(-2.59636 -0.00418313 0)
(-2.61483 -0.00414607 0)
(-2.63488 -0.00412461 0)
(-2.65644 -0.00412061 0)
(-2.67948 -0.00411037 0)
(-2.70394 -0.00411482 0)
(-2.7297 -0.00412409 0)
(-2.75662 -0.00412759 0)
(-2.78454 -0.00418096 0)
(-2.81332 -0.00421261 0)
(-2.84285 -0.00420646 0)
(-2.87299 -0.00424568 0)
(-2.90352 -0.0042941 0)
(-2.93429 -0.00435293 0)
(-2.9651 -0.00442385 0)
(-2.99578 -0.00450862 0)
(-3.02614 -0.00460328 0)
(-3.05604 -0.00471205 0)
(-3.0853 -0.00483967 0)
(-3.11375 -0.00499232 0)
(-3.14121 -0.00520442 0)
(-3.16755 -0.00542882 0)
(-3.1927 -0.00570231 0)
(-3.21649 -0.00597661 0)
(-3.23859 -0.00654734 0)
(-3.25833 -0.00699338 0)
(-3.27452 -0.0106644 0)
(-3.28886 -0.0119087 0)
(-3.30161 -0.0143204 0)
(-3.31322 -0.0177426 0)
(-3.32272 -0.0175497 0)
(-3.32885 -0.0204514 0)
(-3.33232 -0.0297651 0)
(-3.33481 -0.0326228 0)
(-3.33431 -0.033542 0)
(-3.33382 -0.0327004 0)
(-3.33228 -0.036718 0)
(-3.32443 -0.0426679 0)
(-3.31485 -0.0474218 0)
(-3.3052 -0.0480288 0)
(-3.29534 -0.0494763 0)
(-3.28299 -0.0509805 0)
(-3.26838 -0.0521889 0)
(-3.25172 -0.0529174 0)
(-3.23358 -0.0533165 0)
(-3.21469 -0.0534804 0)
(-3.19509 -0.0534936 0)
(-3.17481 -0.0534589 0)
(-3.15402 -0.0533455 0)
(-3.13294 -0.0532641 0)
(-3.11181 -0.0530932 0)
(-3.09081 -0.0529331 0)
(-3.07014 -0.0527746 0)
(-3.04998 -0.0526155 0)
(-3.03057 -0.0523861 0)
(-3.01212 -0.0521194 0)
(-2.99481 -0.0518183 0)
(-2.97877 -0.0515031 0)
(-2.96408 -0.051187 0)
(-2.95083 -0.0508557 0)
(-2.93913 -0.0504975 0)
(-2.92903 -0.0501459 0)
(-2.92059 -0.0497807 0)
(-2.91342 -0.0494117 0)
(-2.90807 -0.0490333 0)
(-2.90468 -0.048682 0)
(-2.90267 -0.048288 0)
(-2.9021 -0.0478366 0)
(-2.90273 -0.047475 0)
(-2.90454 -0.0470495 0)
(-2.90744 -0.0466141 0)
(-2.91131 -0.0461745 0)
(-2.91596 -0.04574 0)
(-2.92124 -0.0452871 0)
(-2.92698 -0.0448134 0)
(-2.93304 -0.0443331 0)
(-2.93928 -0.0438283 0)
(-2.94557 -0.0433354 0)
(-2.9517 -0.0428222 0)
(-2.95747 -0.0423101 0)
(-2.96266 -0.0417446 0)
(-2.96711 -0.0411716 0)
(-2.97069 -0.0405505 0)
(-2.97327 -0.0398753 0)
(-2.97482 -0.0392588 0)
(-2.97512 -0.0387225 0)
(-2.9742 -0.0377939 0)
(-2.97174 -0.0370188 0)
(-2.96791 -0.0361974 0)
(-2.96254 -0.0353854 0)
(-2.95556 -0.0345569 0)
(-2.94695 -0.0336719 0)
(-2.93676 -0.0327261 0)
(-2.92511 -0.0317062 0)
(-2.91207 -0.0306403 0)
(-2.89775 -0.0295283 0)
(-2.8822 -0.0283922 0)
(-2.86548 -0.0272489 0)
(-2.84766 -0.0260801 0)
(-2.82886 -0.0248781 0)
(-2.80929 -0.0236699 0)
(-2.78922 -0.0225017 0)
(-2.76938 -0.0213639 0)
(-2.74827 -0.0202389 0)
(-2.72756 -0.0192112 0)
(-2.70722 -0.0182698 0)
(-2.68725 -0.017434 0)
(-2.66792 -0.0166852 0)
(-2.64944 -0.0159945 0)
(-2.63202 -0.0153687 0)
(-2.61585 -0.0147747 0)
(-2.60101 -0.014253 0)
(-2.58768 -0.0138759 0)
(-2.57589 -0.0137196 0)
(-2.56575 -0.0138508 0)
(-2.5572 -0.0141468 0)
(-2.55036 -0.0146091 0)
(-2.54535 -0.0151962 0)
(-2.54224 -0.0157172 0)
(-2.54133 -0.0162571 0)
(-2.54241 -0.0174676 0)
(-2.54574 -0.0185046 0)
(-2.55084 -0.020041 0)
(-2.5574 -0.021901 0)
(-2.5656 -0.0238927 0)
(-2.57494 -0.0258877 0)
(-2.58542 -0.0281644 0)
(-2.59698 -0.0306081 0)
(-2.60947 -0.0328996 0)
(-2.62268 -0.0355153 0)
(-2.63633 -0.03837 0)
(-2.65014 -0.0407004 0)
(-2.66377 -0.0429717 0)
(-2.67578 -0.0452078 0)
(-2.6875 -0.0471548 0)
(-2.6969 -0.049025 0)
(-2.70387 -0.0508764 0)
(-2.70818 -0.0524298 0)
(-2.70878 -0.0543416 0)
(-2.70376 -0.0578024 0)
(-2.69187 -0.0628953 0)
(-2.67142 -0.0702616 0)
(-2.64071 -0.0798624 0)
(-2.59961 -0.101839 0)
(-2.5263 -0.0867458 0)
(-2.44492 -0.0716056 0)
(-2.37253 -0.0615085 0)
(-2.29583 -0.0383638 0)
(-2.23702 -0.0104158 0)
(-2.19774 0.0106559 0)
(-0.211328 0.169163 0)
(-0.485207 0.0537663 0)
(-0.7324 -0.105613 0)
(-0.943983 -0.152875 0)
(-1.13338 -0.171105 0)
(-1.31396 -0.184155 0)
(-1.49821 -0.165049 0)
(-1.69965 -0.131857 0)
(-1.9182 -0.104702 0)
(-2.15115 -0.0649192 0)
(-2.4087 -0.037026 0)
(-2.68893 -0.0335227 0)
(-3.00275 -8.39129e-06 0)
(-3.35845 0.0593668 0)
(-3.72346 0.0581664 0)
(-4.07045 0.0544077 0)
(-4.39722 0.102445 0)
(-4.72398 0.163164 0)
(-5.05784 0.15888 0)
(-5.40309 0.158901 0)
(-5.81181 0.315484 0)
(-6.33925 0.563198 0)
(-7.02367 0.799464 0)
(-7.87528 1.06553 0)
(-8.92262 1.36403 0)
(-10.2206 1.66001 0)
(-11.9043 1.74727 0)
(-14.0899 1.22655 0)
(-16.4803 0.447358 0)
(-18.5608 0.0548249 0)
(-20.4288 0.275694 0)
(-22.2458 0.47391 0)
(-24.0136 0.661771 0)
(-25.6662 0.880101 0)
(-27.1552 1.06885 0)
(-28.4614 1.2096 0)
(-29.6344 1.26004 0)
(-30.7201 1.21215 0)
(-31.7444 1.11549 0)
(-32.7087 0.975283 0)
(-33.5809 0.847075 0)
(-34.3389 0.737717 0)
(-34.9383 0.668613 0)
(-35.3139 0.578626 0)
(-35.4964 0.537592 0)
(-35.5209 0.494251 0)
(-35.4179 0.400091 0)
(-35.1341 0.310368 0)
(-34.6906 0.352497 0)
(-34.1874 0.236796 0)
(-33.6649 0.0669313 0)
(-33.0738 -0.00393872 0)
(-32.4394 -0.134511 0)
(-31.7465 -0.340743 0)
(-30.9658 -0.510072 0)
(-30.1106 -0.629518 0)
(-29.1736 -0.755424 0)
(-28.1433 -0.868153 0)
(-27.0278 -0.967172 0)
(-25.8366 -1.05527 0)
(-24.5844 -1.12632 0)
(-23.2901 -1.17779 0)
(-21.9759 -1.20421 0)
(-20.6586 -1.20427 0)
(-19.3686 -1.17677 0)
(-18.1119 -1.13049 0)
(-16.8944 -1.09218 0)
(-15.6543 -0.997836 0)
(-14.4622 -0.973014 0)
(-13.6199 -0.945012 0)
(-13.0775 -0.859264 0)
(-12.5079 -0.796723 0)
(-11.919 -0.746162 0)
(-11.3167 -0.694233 0)
(-10.7172 -0.634863 0)
(-10.1286 -0.599954 0)
(-9.56086 -0.567969 0)
(-9.02011 -0.561376 0)
(-8.49729 -0.570865 0)
(-8.0018 -0.513234 0)
(-7.54128 -0.456091 0)
(-7.11563 -0.38953 0)
(-6.72798 -0.316226 0)
(-6.38122 -0.23556 0)
(-6.07497 -0.165921 0)
(-5.80355 -0.118757 0)
(-5.57268 -0.0696254 0)
(-5.37745 -0.0487972 0)
(-5.213 -0.0353293 0)
(-5.07791 -0.0164238 0)
(-4.96578 -0.024342 0)
(-4.86778 -0.0256849 0)
(-4.79696 0.0196483 0)
(-4.75235 0.0578176 0)
(-4.72328 0.0769357 0)
(-4.70673 0.0833366 0)
(-4.7015 0.0881955 0)
(-4.7029 0.0891828 0)
(-4.70943 0.0917908 0)
(-4.71989 0.089692 0)
(-4.73323 0.0886915 0)
(-4.74839 0.0865154 0)
(-4.76348 0.0814943 0)
(-4.77784 0.0754947 0)
(-4.79124 0.0694626 0)
(-4.80315 0.0636473 0)
(-4.8134 0.0577873 0)
(-4.82195 0.0515532 0)
(-4.82879 0.0451276 0)
(-4.83397 0.0387068 0)
(-4.83746 0.0325592 0)
(-4.83925 0.026921 0)
(-4.83928 0.0216821 0)
(-4.83753 0.016948 0)
(-4.83507 0.0128177 0)
(-4.83048 0.0094741 0)
(-4.82964 0.00688811 0)
(-4.83266 0.00523155 0)
(-4.83869 0.00422182 0)
(-4.84872 0.00427134 0)
(-4.86408 0.00392339 0)
(-4.88548 0.00403857 0)
(-4.91251 0.00474202 0)
(-4.94491 0.00584878 0)
(-4.98308 0.00715658 0)
(-5.02743 0.00850915 0)
(-5.07803 0.00977903 0)
(-5.13475 0.0110348 0)
(-5.19748 0.0122229 0)
(-5.26606 0.0132843 0)
(-5.34034 0.0142349 0)
(-5.42014 0.0150244 0)
(-5.50523 0.0156302 0)
(-5.59535 0.0160675 0)
(-5.69025 0.0163215 0)
(-5.78964 0.0163855 0)
(-5.89325 0.0162685 0)
(-6.00078 0.0159933 0)
(-6.11196 0.0155691 0)
(-6.22649 0.0149994 0)
(-6.34406 0.0143027 0)
(-6.46435 0.0135302 0)
(-6.58706 0.0127305 0)
(-6.71185 0.0118622 0)
(-6.8384 0.0108389 0)
(-6.96634 0.00966653 0)
(-7.09534 0.0083544 0)
(-7.22504 0.00712408 0)
(-7.35507 0.00577685 0)
(-7.48505 0.00435905 0)
(-7.61462 0.00290197 0)
(-7.7434 0.00140989 0)
(-7.87099 -0.000132733 0)
(-7.99701 -0.00170634 0)
(-8.12103 -0.00330262 0)
(-8.24262 -0.00491491 0)
(-8.36135 -0.00665034 0)
(-8.47672 -0.00835688 0)
(-8.58824 -0.0100883 0)
(-8.69545 -0.0121467 0)
(-8.79798 -0.0143773 0)
(-8.89537 -0.0165811 0)
(-8.98713 -0.0186275 0)
(-9.0727 -0.0204937 0)
(-9.15153 -0.0222122 0)
(-9.2231 -0.0238466 0)
(-9.28698 -0.0253879 0)
(-9.34279 -0.0270123 0)
(-9.39037 -0.0289577 0)
(-9.42968 -0.031076 0)
(-9.46098 -0.0334237 0)
(-9.48402 -0.0353788 0)
(-9.49832 -0.0367357 0)
(-9.50489 -0.0384635 0)
(-9.50374 -0.0397753 0)
(-9.49586 -0.0413308 0)
(-9.4795 -0.0431869 0)
(-9.45799 -0.0448813 0)
(-9.42683 -0.0465594 0)
(-9.38428 -0.0478318 0)
(-9.3316 -0.0488621 0)
(-9.27048 -0.0498214 0)
(-9.20165 -0.0506784 0)
(-9.12533 -0.0514016 0)
(-9.04175 -0.0519103 0)
(-8.95134 -0.0522346 0)
(-8.85463 -0.0524269 0)
(-8.75217 -0.0525165 0)
(-8.6445 -0.0525353 0)
(-8.53218 -0.0524673 0)
(-8.41578 -0.0522635 0)
(-8.29587 -0.0519106 0)
(-8.17303 -0.0514541 0)
(-8.04782 -0.0509903 0)
(-7.92079 -0.0504445 0)
(-7.79251 -0.0498244 0)
(-7.66353 -0.049108 0)
(-7.5344 -0.0482934 0)
(-7.40565 -0.0473944 0)
(-7.27779 -0.0464216 0)
(-7.15135 -0.0453834 0)
(-7.02681 -0.0442893 0)
(-6.90466 -0.0431426 0)
(-6.78534 -0.0419487 0)
(-6.6693 -0.0407116 0)
(-6.55694 -0.0394298 0)
(-6.44865 -0.0380921 0)
(-6.34478 -0.0366893 0)
(-6.24567 -0.035215 0)
(-6.15159 -0.0336826 0)
(-6.06283 -0.0321162 0)
(-5.97959 -0.0305324 0)
(-5.90209 -0.0289269 0)
(-5.83049 -0.0272864 0)
(-5.76495 -0.0255977 0)
(-5.70562 -0.0238579 0)
(-5.6526 -0.0220645 0)
(-5.60596 -0.0202206 0)
(-5.56563 -0.0183548 0)
(-5.53148 -0.0165117 0)
(-5.50332 -0.0147241 0)
(-5.4809 -0.012967 0)
(-5.4639 -0.0111923 0)
(-5.45198 -0.00916882 0)
(-5.44524 -0.00707331 0)
(-5.44338 -0.00547114 0)
(-5.44566 -0.00333785 0)
(-5.45048 -0.0022251 0)
(-5.46316 -0.000737322 0)
(-5.4799 0.000741751 0)
(-5.50031 0.00253045 0)
(-5.52536 0.00378598 0)
(-5.55454 0.00524531 0)
(-5.58733 0.00672639 0)
(-5.62329 0.00792096 0)
(-5.66221 0.00880863 0)
(-5.70386 0.00962968 0)
(-5.74803 0.0103662 0)
(-5.79452 0.0110105 0)
(-5.84313 0.0115618 0)
(-5.89364 0.0119614 0)
(-5.94588 0.0122418 0)
(-5.99967 0.0124185 0)
(-6.05486 0.0124508 0)
(-6.11131 0.0124031 0)
(-6.16888 0.0122895 0)
(-6.22746 0.0120986 0)
(-6.28692 0.0118747 0)
(-6.34713 0.0115869 0)
(-6.40796 0.0112921 0)
(-6.46928 0.0109568 0)
(-6.53094 0.0105407 0)
(-6.59281 0.010069 0)
(-6.65473 0.00955613 0)
(-6.71653 0.00897821 0)
(-6.77805 0.00840114 0)
(-6.83909 0.00785654 0)
(-6.89947 0.00718532 0)
(-6.95896 0.00648627 0)
(-7.01738 0.005813 0)
(-7.07451 0.00519432 0)
(-7.13015 0.00455423 0)
(-7.18419 0.00411761 0)
(-7.23632 0.00334584 0)
(-7.28626 0.00332765 0)
(-7.33389 0.00292382 0)
(-7.37919 0.00229336 0)
(-7.42183 0.00224064 0)
(-7.4615 0.00185425 0)
(-7.49807 0.00153443 0)
(-7.5312 0.00132632 0)
(-7.56063 0.00106181 0)
(-7.58618 0.000790441 0)
(-7.60786 0.000507682 0)
(-7.62581 0.00026934 0)
(-7.64024 -0.000142159 0)
(-7.65139 -0.000653632 0)
(-7.66002 -0.000948184 0)
(-7.66501 -0.00103294 0)
(-7.66463 -0.00183231 0)
(-7.6618 -0.00226024 0)
(-7.65594 -0.00250388 0)
(-7.6468 -0.00401222 0)
(-7.63411 -0.00368762 0)
(-7.61787 -0.00442487 0)
(-7.59801 -0.00510994 0)
(-7.57453 -0.00574035 0)
(-7.54763 -0.00622907 0)
(-7.51762 -0.00681424 0)
(-7.48476 -0.00762874 0)
(-7.44929 -0.00858968 0)
(-7.41131 -0.00942477 0)
(-7.37105 -0.0102381 0)
(-7.32886 -0.0110227 0)
(-7.285 -0.0118189 0)
(-7.23973 -0.0126119 0)
(-7.19331 -0.0134235 0)
(-7.14595 -0.014239 0)
(-7.09788 -0.0150756 0)
(-7.04929 -0.0159415 0)
(-7.00041 -0.0167386 0)
(-6.95144 -0.0175177 0)
(-6.90258 -0.018291 0)
(-6.854 -0.0190574 0)
(-6.80588 -0.019812 0)
(-6.75838 -0.0205512 0)
(-6.71165 -0.0212689 0)
(-6.66581 -0.0219609 0)
(-6.621 -0.022624 0)
(-6.5773 -0.023259 0)
(-6.5348 -0.0238458 0)
(-6.49357 -0.0243612 0)
(-6.45368 -0.0248139 0)
(-6.4152 -0.0252476 0)
(-6.37823 -0.0256841 0)
(-6.34284 -0.0261236 0)
(-6.30899 -0.0265313 0)
(-6.27641 -0.026897 0)
(-6.24527 -0.0272347 0)
(-6.21394 -0.0275619 0)
(-6.18549 -0.027856 0)
(-6.1583 -0.0281059 0)
(-6.13226 -0.0283229 0)
(-6.10758 -0.028503 0)
(-6.08422 -0.0286377 0)
(-6.0622 -0.0287259 0)
(-6.04152 -0.0287844 0)
(-6.02219 -0.0288294 0)
(-6.00419 -0.0288644 0)
(-5.98754 -0.0288987 0)
(-5.97224 -0.028927 0)
(-5.95828 -0.0289528 0)
(-5.94566 -0.0289907 0)
(-5.9344 -0.0289873 0)
(-5.92451 -0.0288022 0)
(-5.9161 -0.0283261 0)
(-5.90923 -0.0287877 0)
(-5.90383 -0.0290871 0)
(-5.89991 -0.0291243 0)
(-5.89753 -0.0292687 0)
(-5.89669 -0.0292967 0)
(-5.8973 -0.0293243 0)
(-5.89948 -0.0293491 0)
(-5.90341 -0.0293888 0)
(-5.9091 -0.0294504 0)
(-5.91656 -0.0295401 0)
(-5.92579 -0.0296449 0)
(-5.93682 -0.0297567 0)
(-5.94966 -0.0298918 0)
(-5.96431 -0.0300527 0)
(-5.98075 -0.0302448 0)
(-5.99892 -0.0304659 0)
(-6.01874 -0.0307341 0)
(-6.04015 -0.0310592 0)
(-6.06313 -0.0314178 0)
(-6.0876 -0.0318578 0)
(-6.11344 -0.0323672 0)
(-6.14051 -0.0329246 0)
(-6.16865 -0.0335835 0)
(-6.19775 -0.0342385 0)
(-6.22767 -0.0348883 0)
(-6.25824 -0.0356312 0)
(-6.28929 -0.0364177 0)
(-6.32066 -0.0372531 0)
(-6.35214 -0.038141 0)
(-6.38357 -0.039083 0)
(-6.41477 -0.0400625 0)
(-6.44556 -0.0410707 0)
(-6.47579 -0.0421045 0)
(-6.50531 -0.0431625 0)
(-6.53394 -0.044325 0)
(-6.56157 -0.045526 0)
(-6.58797 -0.0467424 0)
(-6.61358 -0.0480254 0)
(-6.63715 -0.049015 0)
(-6.66199 -0.0478021 0)
(-6.68104 -0.0443151 0)
(-6.69696 -0.0431442 0)
(-6.71698 -0.0427935 0)
(-6.72536 -0.0389704 0)
(-6.74243 -0.0441315 0)
(-6.76029 -0.0435713 0)
(-6.76455 -0.034102 0)
(-6.75803 -0.0313507 0)
(-6.75954 -0.0340836 0)
(-6.76624 -0.0394843 0)
(-6.77655 -0.0409837 0)
(-6.7663 -0.0313383 0)
(-6.74944 -0.0288561 0)
(-6.73708 -0.0292354 0)
(-6.7241 -0.0297564 0)
(-6.70862 -0.0294033 0)
(-6.69176 -0.0287096 0)
(-6.675 -0.0282431 0)
(-6.65742 -0.0280846 0)
(-6.63982 -0.0278895 0)
(-6.62165 -0.027671 0)
(-6.60286 -0.0274431 0)
(-6.58366 -0.027195 0)
(-6.56417 -0.026954 0)
(-6.54445 -0.0266629 0)
(-6.5247 -0.0263788 0)
(-6.50514 -0.0261127 0)
(-6.48603 -0.0258354 0)
(-6.46759 -0.0255125 0)
(-6.44999 -0.0251482 0)
(-6.4333 -0.0247595 0)
(-6.41767 -0.0243655 0)
(-6.40321 -0.0239771 0)
(-6.39002 -0.0235761 0)
(-6.3782 -0.0231513 0)
(-6.36783 -0.0227317 0)
(-6.35896 -0.0222908 0)
(-6.35143 -0.0218522 0)
(-6.34528 -0.0213948 0)
(-6.34107 -0.0209519 0)
(-6.33805 -0.0204936 0)
(-6.33626 -0.0199159 0)
(-6.33576 -0.0193829 0)
(-6.33632 -0.0189067 0)
(-6.33786 -0.0184093 0)
(-6.3403 -0.0179106 0)
(-6.34347 -0.0174209 0)
(-6.34719 -0.0169306 0)
(-6.35129 -0.0164418 0)
(-6.35566 -0.0159601 0)
(-6.36021 -0.0154932 0)
(-6.36481 -0.015053 0)
(-6.36927 -0.0146165 0)
(-6.37339 -0.0141767 0)
(-6.37695 -0.0137024 0)
(-6.37977 -0.0132208 0)
(-6.38172 -0.0127089 0)
(-6.38277 -0.0121969 0)
(-6.3828 -0.0116911 0)
(-6.38191 -0.0112559 0)
(-6.3797 -0.0105431 0)
(-6.37601 -0.0100563 0)
(-6.37091 -0.00949525 0)
(-6.36425 -0.00897502 0)
(-6.356 -0.00847958 0)
(-6.34616 -0.00794862 0)
(-6.33479 -0.00739025 0)
(-6.32193 -0.00695064 0)
(-6.30766 -0.00659749 0)
(-6.29204 -0.00629845 0)
(-6.27517 -0.00602713 0)
(-6.25709 -0.00576381 0)
(-6.23789 -0.00545723 0)
(-6.21765 -0.00507295 0)
(-6.19656 -0.00459635 0)
(-6.175 -0.00398416 0)
(-6.15328 -0.00332766 0)
(-6.13033 -0.00263334 0)
(-6.10758 -0.00189426 0)
(-6.08494 -0.00116976 0)
(-6.0625 -0.000354962 0)
(-6.04038 0.000621247 0)
(-6.01863 0.00168189 0)
(-5.99741 0.00283164 0)
(-5.97683 0.00400232 0)
(-5.95694 0.00488549 0)
(-5.93774 0.00566091 0)
(-5.91938 0.00634695 0)
(-5.90193 0.00695897 0)
(-5.88555 0.00755442 0)
(-5.87004 0.0082247 0)
(-5.85495 0.00898278 0)
(-5.83988 0.0100347 0)
(-5.82455 0.0112676 0)
(-5.80905 0.0119232 0)
(-5.79316 0.0130925 0)
(-5.77625 0.0139415 0)
(-5.75827 0.0146016 0)
(-5.7387 0.0151857 0)
(-5.71773 0.0158043 0)
(-5.69485 0.0163951 0)
(-5.66963 0.0167797 0)
(-5.64183 0.0169436 0)
(-5.61117 0.0169654 0)
(-5.57764 0.0167313 0)
(-5.54065 0.016285 0)
(-5.5002 0.0151931 0)
(-5.45509 0.0141455 0)
(-5.40612 0.0122438 0)
(-5.35229 0.00967408 0)
(-5.29374 0.00638175 0)
(-5.22996 0.00270853 0)
(-5.16041 -0.00211126 0)
(-5.08473 -0.00881296 0)
(-5.00236 -0.0171017 0)
(-4.91265 -0.0266866 0)
(-4.81667 -0.0369275 0)
(-4.71927 -0.0426375 0)
(-4.65174 -0.092054 0)
(-4.64053 -0.0841279 0)
(-4.63774 -0.0927784 0)
(-4.60906 -0.0972156 0)
(-4.57541 -0.0724261 0)
(-4.52675 -0.0304178 0)
(-0.247713 0.141579 0)
(-0.359242 -0.0375755 0)
(-0.604368 -0.254226 0)
(-0.791982 -0.350893 0)
(-0.928824 -0.376737 0)
(-1.06198 -0.368422 0)
(-1.22948 -0.302976 0)
(-1.45641 -0.231778 0)
(-1.72279 -0.177152 0)
(-2.0015 -0.110939 0)
(-2.29607 -0.0558035 0)
(-2.60218 -0.0284651 0)
(-2.91357 0.0620322 0)
(-3.28185 0.196678 0)
(-3.78264 0.246753 0)
(-4.34448 0.172196 0)
(-4.91335 0.146303 0)
(-5.54398 0.194527 0)
(-6.27561 0.151774 0)
(-7.10929 0.104876 0)
(-8.08852 0.251 0)
(-9.2377 0.493191 0)
(-10.5503 0.727363 0)
(-11.9606 1.02407 0)
(-13.3869 1.45492 0)
(-14.8124 2.08867 0)
(-16.3026 2.99007 0)
(-18.0917 3.90237 0)
(-20.3646 3.88603 0)
(-22.7505 3.51781 0)
(-25.0736 3.48305 0)
(-27.1379 3.33926 0)
(-28.954 3.09267 0)
(-30.5655 2.77783 0)
(-31.9784 2.44198 0)
(-33.1663 2.13725 0)
(-34.1451 1.96374 0)
(-34.8957 1.81446 0)
(-35.4362 1.71533 0)
(-35.8124 1.56983 0)
(-36.0811 1.38241 0)
(-36.2976 1.20678 0)
(-36.3875 0.924324 0)
(-36.4024 0.59698 0)
(-36.39 0.351521 0)
(-36.2608 0.120072 0)
(-36.0548 -0.150041 0)
(-35.8293 -0.48204 0)
(-35.3778 -0.715329 0)
(-34.8032 -0.866691 0)
(-34.2181 -1.06163 0)
(-33.5729 -1.18416 0)
(-32.8858 -1.32747 0)
(-32.1686 -1.60753 0)
(-31.3649 -1.86357 0)
(-30.4817 -2.08496 0)
(-29.5157 -2.34285 0)
(-28.4446 -2.59038 0)
(-27.2734 -2.81385 0)
(-26.0121 -3.00855 0)
(-24.6769 -3.15632 0)
(-23.2914 -3.24932 0)
(-21.8817 -3.27968 0)
(-20.4738 -3.25324 0)
(-19.0806 -3.17287 0)
(-17.7167 -3.05088 0)
(-16.3929 -2.93324 0)
(-15.1472 -2.794 0)
(-13.9852 -2.55101 0)
(-12.9302 -2.06973 0)
(-11.7791 -1.84624 0)
(-10.6582 -1.64655 0)
(-9.56026 -1.45779 0)
(-8.49019 -1.28702 0)
(-7.45852 -1.12133 0)
(-6.48199 -1.00455 0)
(-5.61679 -0.901182 0)
(-4.94525 -0.885968 0)
(-4.52213 -0.98424 0)
(-4.21551 -0.918569 0)
(-3.91089 -0.861629 0)
(-3.60482 -0.776914 0)
(-3.30572 -0.677646 0)
(-3.02933 -0.563229 0)
(-2.76753 -0.454932 0)
(-2.50524 -0.301661 0)
(-2.22801 -0.194349 0)
(-1.98014 -0.131968 0)
(-1.75097 -0.0817879 0)
(-1.54769 -0.026693 0)
(-1.37492 -0.0151191 0)
(-1.25858 0.00363782 0)
(-1.2282 0.0862867 0)
(-1.27573 0.151606 0)
(-1.36499 0.1901 0)
(-1.46804 0.217026 0)
(-1.56676 0.238227 0)
(-1.66101 0.245283 0)
(-1.75585 0.252814 0)
(-1.85699 0.248803 0)
(-1.96485 0.241355 0)
(-2.07397 0.235121 0)
(-2.17686 0.224033 0)
(-2.27164 0.211378 0)
(-2.35762 0.194887 0)
(-2.43514 0.179438 0)
(-2.50406 0.162876 0)
(-2.56427 0.14547 0)
(-2.61562 0.12751 0)
(-2.65817 0.109536 0)
(-2.69205 0.0920434 0)
(-2.71783 0.0759869 0)
(-2.73671 0.0620685 0)
(-2.74955 0.0498398 0)
(-2.75881 0.0394359 0)
(-2.76196 0.0309454 0)
(-2.76783 0.0246129 0)
(-2.77737 0.019614 0)
(-2.78976 0.0160823 0)
(-2.80643 0.0142143 0)
(-2.82824 0.0133395 0)
(-2.85642 0.0134023 0)
(-2.89107 0.01432 0)
(-2.93212 0.0158794 0)
(-2.97981 0.0178541 0)
(-3.03443 0.020093 0)
(-3.09597 0.0224486 0)
(-3.16422 0.0249889 0)
(-3.23895 0.027566 0)
(-3.31991 0.0300416 0)
(-3.40681 0.0324086 0)
(-3.49939 0.0345474 0)
(-3.59729 0.0363979 0)
(-3.70017 0.0379644 0)
(-3.80766 0.0392294 0)
(-3.91942 0.0401896 0)
(-4.03516 0.0408538 0)
(-4.15458 0.041255 0)
(-4.27742 0.0414066 0)
(-4.4034 0.041319 0)
(-4.53224 0.0410137 0)
(-4.66366 0.0405473 0)
(-4.79737 0.0399822 0)
(-4.93309 0.0392768 0)
(-5.07051 0.0383322 0)
(-5.20923 0.0371603 0)
(-5.34909 0.0358805 0)
(-5.48967 0.0344257 0)
(-5.63072 0.032888 0)
(-5.7718 0.0312244 0)
(-5.91258 0.0294442 0)
(-6.05272 0.0275401 0)
(-6.19185 0.0255006 0)
(-6.32957 0.0233512 0)
(-6.4655 0.0211028 0)
(-6.59918 0.0187679 0)
(-6.73018 0.0164501 0)
(-6.85809 0.0139808 0)
(-6.98237 0.011012 0)
(-7.10249 0.00781711 0)
(-7.21798 0.00436411 0)
(-7.32831 0.000752004 0)
(-7.43301 -0.00306793 0)
(-7.53155 -0.00701996 0)
(-7.62337 -0.011042 0)
(-7.70791 -0.0152602 0)
(-7.78471 -0.0195669 0)
(-7.8533 -0.0239629 0)
(-7.91334 -0.0282795 0)
(-7.96474 -0.032554 0)
(-8.00765 -0.0367217 0)
(-8.04237 -0.0407288 0)
(-8.06893 -0.0444217 0)
(-8.08754 -0.0483285 0)
(-8.09828 -0.0521756 0)
(-8.10098 -0.0548831 0)
(-8.09572 -0.0583739 0)
(-8.0852 -0.0624027 0)
(-8.06518 -0.0657077 0)
(-8.03365 -0.0684439 0)
(-7.99225 -0.0710287 0)
(-7.94248 -0.0734142 0)
(-7.88504 -0.0755515 0)
(-7.8202 -0.0774311 0)
(-7.74824 -0.0790779 0)
(-7.66962 -0.0805495 0)
(-7.58488 -0.0818514 0)
(-7.49452 -0.0829789 0)
(-7.39907 -0.0839581 0)
(-7.29909 -0.0847656 0)
(-7.19512 -0.0853633 0)
(-7.08769 -0.0857429 0)
(-6.97735 -0.0859327 0)
(-6.86465 -0.0860929 0)
(-6.75009 -0.0861129 0)
(-6.6342 -0.0860009 0)
(-6.51751 -0.0857172 0)
(-6.40054 -0.0852537 0)
(-6.28382 -0.0846233 0)
(-6.16784 -0.0838374 0)
(-6.05309 -0.0829034 0)
(-5.94005 -0.0818262 0)
(-5.82918 -0.0806047 0)
(-5.72093 -0.0792403 0)
(-5.61574 -0.0777333 0)
(-5.51402 -0.0760808 0)
(-5.41617 -0.0742681 0)
(-5.32256 -0.0722859 0)
(-5.23354 -0.0701299 0)
(-5.1494 -0.067821 0)
(-5.0704 -0.0653855 0)
(-4.99679 -0.0628447 0)
(-4.9288 -0.0602323 0)
(-4.86659 -0.0574857 0)
(-4.81034 -0.0545736 0)
(-4.76025 -0.0514996 0)
(-4.71648 -0.0482723 0)
(-4.67911 -0.0449051 0)
(-4.64812 -0.0414462 0)
(-4.62342 -0.0379599 0)
(-4.60482 -0.0344925 0)
(-4.5921 -0.0310237 0)
(-4.58479 -0.027482 0)
(-4.58253 -0.0236415 0)
(-4.58569 -0.0198253 0)
(-4.59371 -0.0161377 0)
(-4.60602 -0.01265 0)
(-4.62061 -0.0095908 0)
(-4.64298 -0.00667692 0)
(-4.6695 -0.00290953 0)
(-4.69974 0.000447315 0)
(-4.73436 0.00353294 0)
(-4.77284 0.0067067 0)
(-4.81486 0.0100638 0)
(-4.86006 0.0135619 0)
(-4.90807 0.0168577 0)
(-4.9586 0.0196686 0)
(-5.01145 0.0219639 0)
(-5.06644 0.0238175 0)