/*--------------------------------*- C++ -*----------------------------------*\
| =========                 |                                                 |
| \\      /  F ield         | OpenFOAM: The Open Source CFD Toolbox           |
|  \\    /   O peration     | Version:  v1812                                 |
|   \\  /    A nd           | Web:      www.OpenFOAM.com                      |
|    \\/     M anipulation  |                                                 |
\*---------------------------------------------------------------------------*/
FoamFile
{
    version     2.0;
    format      ascii;
    class       volVectorField;
    location    "0.0055";
    object      U;
}
// * * * * * * * * * * * * * * * * * * * * * * * * * * * * * * * * * * * * * //

dimensions      [0 1 -1 0 0 0 0];


internalField   nonuniform List<vector> 
8475
(
(851.84 2.28665e-15 0)
(851.84 -4.60107e-14 0)
(851.84 -1.08019e-13 0)
(851.84 -6.65673e-14 0)
(851.84 -1.63424e-13 0)
(851.84 -1.81154e-13 0)
(851.84 -1.71741e-13 0)
(851.84 -4.05209e-13 0)
(851.84 -4.41498e-13 0)
(851.84 -3.92408e-13 0)
(851.84 -4.02358e-13 0)
(851.84 -6.06781e-13 0)
(851.84 -6.26034e-13 0)
(851.84 -6.929e-13 0)
(851.84 -2.8903e-13 0)
(851.84 1.12402e-13 0)
(851.84 1.93997e-13 0)
(851.84 3.65864e-13 0)
(851.84 5.37762e-13 0)
(851.84 6.4358e-13 0)
(851.84 9.0066e-13 0)
(851.84 1.03307e-12 0)
(851.84 1.0751e-12 0)
(851.84 1.16221e-12 0)
(851.84 1.20812e-12 0)
(851.84 1.31525e-12 0)
(851.84 1.25935e-12 0)
(851.84 1.26729e-12 0)
(851.84 1.26058e-12 0)
(851.84 1.1966e-12 0)
(851.84 1.17347e-12 0)
(851.84 2.2839e-12 0)
(851.84 2.96644e-11 0)
(851.84 -2.9837e-09 0)
(851.84 8.3522e-07 0)
(851.84 -6.94431e-05 0)
(851.833 0.00812749 0)
(851.435 -0.587497 0)
(851.84 -2.42031e-14 0)
(851.84 -8.1781e-14 0)
(851.84 -1.06622e-13 0)
(851.84 -2.46945e-13 0)
(851.84 -3.03224e-13 0)
(851.84 -4.88419e-13 0)
(851.84 -5.82774e-13 0)
(851.84 -7.51166e-13 0)
(851.84 -8.71082e-13 0)
(851.84 -6.71234e-13 0)
(851.84 -5.26864e-13 0)
(851.84 -8.38214e-13 0)
(851.84 -8.97628e-13 0)
(851.84 -7.48742e-13 0)
(851.84 -9.62686e-14 0)
(851.84 9.42765e-14 0)
(851.84 7.96641e-13 0)
(851.84 1.0764e-12 0)
(851.84 1.3555e-12 0)
(851.84 1.49047e-12 0)
(851.84 1.72409e-12 0)
(851.84 1.87552e-12 0)
(851.84 1.76431e-12 0)
(851.84 1.69818e-12 0)
(851.84 1.61648e-12 0)
(851.84 1.68646e-12 0)
(851.84 1.64101e-12 0)
(851.84 1.56272e-12 0)
(851.84 1.2822e-12 0)
(851.84 1.17502e-12 0)
(851.84 1.13796e-12 0)
(851.84 3.66339e-12 0)
(851.84 8.99441e-11 0)
(851.84 8.62808e-09 0)
(851.84 4.33405e-07 0)
(851.84 3.52627e-05 0)
(851.837 0.00125784 0)
(851.7 0.198511 0)
(851.84 4.36437e-14 0)
(851.84 6.32503e-14 0)
(851.84 1.69891e-14 0)
(851.84 -2.07822e-13 0)
(851.84 -4.7012e-13 0)
(851.84 -5.68603e-13 0)
(851.84 -7.79515e-13 0)
(851.84 -6.96955e-13 0)
(851.84 -8.01505e-13 0)
(851.84 -7.77613e-13 0)
(851.84 -6.73105e-13 0)
(851.84 -8.59628e-13 0)
(851.84 -7.53705e-13 0)
(851.84 -6.02104e-13 0)
(851.84 -5.39886e-13 0)
(851.84 -5.87955e-13 0)
(851.84 2.85909e-13 0)
(851.84 9.97305e-14 0)
(851.84 2.07626e-13 0)
(851.84 5.62628e-13 0)
(851.84 1.02218e-12 0)
(851.84 1.05016e-12 0)
(851.84 1.84993e-12 0)
(851.84 1.58819e-12 0)
(851.84 1.64301e-12 0)
(851.84 1.42826e-12 0)
(851.84 1.51432e-12 0)
(851.84 1.38594e-12 0)
(851.84 1.31667e-12 0)
(851.84 1.45569e-12 0)
(851.84 1.10481e-12 0)
(851.84 3.45779e-12 0)
(851.84 1.62215e-11 0)
(851.84 6.52237e-09 0)
(851.84 6.10003e-08 0)
(851.84 1.75213e-05 0)
(851.839 0.000173167 0)
(851.817 0.0384279 0)
(851.84 5.96856e-14 0)
(851.84 3.99863e-14 0)
(851.84 1.81828e-14 0)
(851.84 -2.43809e-14 0)
(851.84 -3.69354e-13 0)
(851.84 -2.84189e-13 0)
(851.84 -2.28926e-13 0)
(851.84 -2.90192e-13 0)
(851.84 -3.77947e-13 0)
(851.84 -5.38965e-13 0)
(851.84 -7.06253e-13 0)
(851.84 -5.66245e-13 0)
(851.84 -3.95445e-13 0)
(851.84 -7.41297e-13 0)
(851.84 -7.41589e-13 0)
(851.84 -5.93632e-13 0)
(851.84 -5.59171e-13 0)
(851.84 -3.66201e-13 0)
(851.84 -2.65004e-13 0)
(851.84 2.12757e-14 0)
(851.84 2.92326e-13 0)
(851.84 5.32246e-13 0)
(851.84 7.9356e-13 0)
(851.84 8.73239e-13 0)
(851.84 9.076e-13 0)
(851.84 9.63806e-13 0)
(851.84 1.08148e-12 0)
(851.84 1.20512e-12 0)
(851.84 1.40842e-12 0)
(851.84 1.72313e-12 0)
(851.84 1.5523e-12 0)
(851.84 2.09912e-12 0)
(851.84 1.43923e-12 0)
(851.84 1.5553e-09 0)
(851.84 2.38496e-09 0)
(851.84 2.89897e-06 0)
(851.84 7.19671e-06 0)
(851.838 0.00448602 0)
(851.84 -6.00043e-14 0)
(851.84 -9.99465e-14 0)
(851.84 -3.06839e-13 0)
(851.84 -2.36446e-13 0)
(851.84 -2.53798e-13 0)
(851.84 -1.1449e-13 0)
(851.84 -3.78038e-14 0)
(851.84 -9.76868e-14 0)
(851.84 -2.604e-13 0)
(851.84 -3.26439e-13 0)
(851.84 -3.55183e-13 0)
(851.84 -2.20879e-13 0)
(851.84 -2.37217e-13 0)
(851.84 -3.42305e-13 0)
(851.84 -6.6259e-13 0)
(851.84 -3.62774e-13 0)
(851.84 -5.03793e-13 0)
(851.84 -2.83249e-13 0)
(851.84 -1.96924e-13 0)
(851.84 -2.60865e-13 0)
(851.84 -1.95213e-13 0)
(851.84 3.63214e-13 0)
(851.84 3.41683e-13 0)
(851.84 5.17902e-13 0)
(851.84 4.46985e-13 0)
(851.84 6.6119e-13 0)
(851.84 8.31772e-13 0)
(851.84 1.31e-12 0)
(851.84 1.31639e-12 0)
(851.84 1.48863e-12 0)
(851.84 1.1772e-12 0)
(851.84 1.28912e-12 0)
(851.84 5.93379e-13 0)
(851.84 1.95605e-10 0)
(851.84 -9.25749e-11 0)
(851.84 2.77471e-07 0)
(851.84 2.147e-07 0)
(851.84 0.000374654 0)
(851.84 2.89249e-14 0)
(851.84 -9.15704e-14 0)
(851.84 -1.38479e-13 0)
(851.84 -3.07352e-13 0)
(851.84 -2.07913e-13 0)
(851.84 -2.69995e-13 0)
(851.84 -1.62479e-13 0)
(851.84 -3.17875e-13 0)
(851.84 -2.45445e-13 0)
(851.84 -3.37677e-13 0)
(851.84 -8.56315e-14 0)
(851.84 -2.02948e-13 0)
(851.84 -2.96373e-14 0)
(851.84 -7.18124e-14 0)
(851.84 -1.28199e-13 0)
(851.84 -1.73685e-13 0)
(851.84 -1.98582e-13 0)
(851.84 -2.15523e-13 0)
(851.84 -1.35253e-13 0)
(851.84 -2.36551e-13 0)
(851.84 -3.676e-13 0)
(851.84 -3.59607e-13 0)
(851.84 -2.02601e-13 0)
(851.84 1.6047e-14 0)
(851.84 3.37934e-13 0)
(851.84 3.78111e-13 0)
(851.84 5.07621e-13 0)
(851.84 8.56423e-13 0)
(851.84 1.00207e-12 0)
(851.84 9.59714e-13 0)
(851.84 1.16881e-12 0)
(851.84 9.88131e-13 0)
(851.84 1.06261e-12 0)
(851.84 1.72005e-11 0)
(851.84 8.12263e-12 0)
(851.84 1.96628e-08 0)
(851.84 2.05807e-08 0)
(851.84 2.62774e-05 0)
(851.84 2.38722e-14 0)
(851.84 5.54108e-14 0)
(851.84 1.66863e-14 0)
(851.84 -2.1007e-13 0)
(851.84 -2.02319e-13 0)
(851.84 -2.29898e-13 0)
(851.84 -1.36388e-13 0)
(851.84 -2.17123e-13 0)
(851.84 -6.65749e-14 0)
(851.84 -1.449e-13 0)
(851.84 -1.20213e-13 0)
(851.84 -9.02045e-14 0)
(851.84 1.7453e-13 0)
(851.84 3.14158e-13 0)
(851.84 1.29036e-13 0)
(851.84 -4.42323e-14 0)
(851.84 -3.20249e-13 0)
(851.84 -3.90663e-13 0)
(851.84 -3.2637e-13 0)
(851.84 -7.21194e-14 0)
(851.84 -5.75239e-13 0)
(851.84 -6.53251e-13 0)
(851.84 -5.31423e-13 0)
(851.84 -1.8932e-13 0)
(851.84 -7.28629e-14 0)
(851.84 4.37043e-14 0)
(851.84 1.67152e-13 0)
(851.84 2.0306e-13 0)
(851.84 2.90891e-13 0)
(851.84 2.65551e-13 0)
(851.84 5.56575e-13 0)
(851.84 6.91272e-13 0)
(851.84 6.75868e-13 0)
(851.84 2.62472e-12 0)
(851.84 2.7415e-12 0)
(851.84 1.28001e-09 0)
(851.84 1.53442e-09 0)
(851.84 1.74471e-06 0)
(851.84 -1.28822e-13 0)
(851.84 8.98592e-14 0)
(851.84 3.09819e-14 0)
(851.84 8.2358e-14 0)
(851.84 -2.55741e-13 0)
(851.84 -2.85669e-13 0)
(851.84 -2.76141e-13 0)
(851.84 -1.55833e-13 0)
(851.84 -1.6645e-13 0)
(851.84 1.53715e-14 0)
(851.84 8.00116e-16 0)
(851.84 8.57025e-14 0)
(851.84 7.32162e-14 0)
(851.84 2.36568e-13 0)
(851.84 1.81236e-13 0)
(851.84 2.06757e-14 0)
(851.84 1.46169e-14 0)
(851.84 -1.82493e-13 0)
(851.84 -2.55026e-13 0)
(851.84 -2.72341e-13 0)
(851.84 -8.72114e-14 0)
(851.84 -6.7163e-15 0)
(851.84 -3.84862e-15 0)
(851.84 -1.11071e-13 0)
(851.84 -3.94455e-13 0)
(851.84 -4.25427e-13 0)
(851.84 -3.14989e-13 0)
(851.84 -2.93243e-13 0)
(851.84 -3.07259e-13 0)
(851.84 -1.67708e-13 0)
(851.84 -2.48478e-13 0)
(851.84 1.35622e-13 0)
(851.84 4.40956e-13 0)
(851.84 5.71221e-13 0)
(851.84 9.7457e-14 0)
(851.84 8.16041e-11 0)
(851.84 1.07193e-10 0)
(851.84 1.13815e-07 0)
(851.84 5.10719e-14 0)
(851.84 8.05633e-14 0)
(851.84 1.48894e-13 0)
(851.84 1.96064e-13 0)
(851.84 1.52067e-13 0)
(851.84 -1.62061e-13 0)
(851.84 -2.88422e-13 0)
(851.84 -2.66825e-13 0)
(851.84 -2.71226e-13 0)
(851.84 3.97205e-14 0)
(851.84 1.35639e-13 0)
(851.84 1.95423e-13 0)
(851.84 -1.01912e-13 0)
(851.84 -2.07151e-13 0)
(851.84 -2.88491e-14 0)
(851.84 -1.59032e-13 0)
(851.84 -1.47433e-13 0)
(851.84 -1.22877e-13 0)
(851.84 -3.95999e-13 0)
(851.84 -5.18391e-13 0)
(851.84 -6.18569e-13 0)
(851.84 9.16261e-14 0)
(851.84 -8.58203e-14 0)
(851.84 -3.0406e-13 0)
(851.84 -5.13811e-13 0)
(851.84 -6.86705e-13 0)
(851.84 -7.84999e-13 0)
(851.84 -8.67476e-13 0)
(851.84 -7.68749e-13 0)
(851.84 -6.22251e-13 0)
(851.84 -2.98859e-13 0)
(851.84 -1.41102e-13 0)
(851.84 -8.37346e-14 0)
(851.84 1.60249e-13 0)
(851.84 -6.28142e-13 0)
(851.84 5.40696e-12 0)
(851.84 7.83352e-12 0)
(851.84 7.28671e-09 0)
(851.84 4.41903e-14 0)
(851.84 -5.82871e-14 0)
(851.84 -1.11376e-13 0)
(851.84 4.13897e-14 0)
(851.84 1.48319e-13 0)
(851.84 2.04142e-13 0)
(851.84 1.00005e-13 0)
(851.84 -2.22922e-14 0)
(851.84 -4.91989e-14 0)
(851.84 -5.32162e-14 0)
(851.84 -1.00205e-13 0)
(851.84 -1.61289e-13 0)
(851.84 -1.54265e-13 0)
(851.84 -4.01215e-13 0)
(851.84 -2.50192e-13 0)
(851.84 -1.6276e-13 0)
(851.84 -4.13434e-13 0)
(851.84 -2.94591e-13 0)
(851.84 -1.83424e-13 0)
(851.84 -4.42042e-13 0)
(851.84 -5.4689e-13 0)
(851.84 -4.49414e-13 0)
(851.84 -4.52756e-13 0)
(851.84 -7.19564e-13 0)
(851.84 -6.85132e-13 0)
(851.84 -7.79612e-13 0)
(851.84 -1.05849e-12 0)
(851.84 -1.12343e-12 0)
(851.84 -1.027e-12 0)
(851.84 -8.15692e-13 0)
(851.84 -6.10347e-13 0)
(851.84 -4.18372e-13 0)
(851.84 -4.02243e-13 0)
(851.84 -2.62635e-13 0)
(851.84 -4.76499e-13 0)
(851.84 -1.79747e-13 0)
(851.84 -7.53085e-13 0)
(851.84 4.53523e-10 0)
(851.84 -7.32439e-14 0)
(851.84 -1.35166e-13 0)
(851.84 -9.9572e-14 0)
(851.84 1.19265e-13 0)
(851.84 2.22511e-13 0)
(851.84 1.44105e-13 0)
(851.84 8.88171e-14 0)
(851.84 6.11266e-14 0)
(851.84 6.82561e-14 0)
(851.84 -1.60099e-13 0)
(851.84 -3.67435e-13 0)
(851.84 -6.3644e-13 0)
(851.84 -3.4101e-14 0)
(851.84 -1.93397e-13 0)
(851.84 -3.85621e-13 0)
(851.84 -1.04279e-13 0)
(851.84 -1.09051e-13 0)
(851.84 -9.92822e-14 0)
(851.84 -1.01804e-13 0)
(851.84 -9.90543e-14 0)
(851.84 -5.62192e-14 0)
(851.84 -8.34338e-13 0)
(851.84 -8.31133e-13 0)
(851.84 -7.00723e-13 0)
(851.84 -7.18756e-13 0)
(851.84 -7.65779e-13 0)
(851.84 -8.63254e-13 0)
(851.84 -7.09616e-13 0)
(851.84 -6.26581e-13 0)
(851.84 -5.66548e-13 0)
(851.84 -5.16635e-13 0)
(851.84 -4.98194e-13 0)
(851.84 -5.08857e-13 0)
(851.84 -4.40999e-13 0)
(851.84 -5.29413e-13 0)
(851.84 -3.11792e-13 0)
(851.84 -5.85064e-13 0)
(851.84 2.36265e-11 0)
(851.84 7.55141e-14 0)
(851.84 2.90407e-14 0)
(851.84 1.39655e-14 0)
(851.84 -2.28826e-14 0)
(851.84 8.06979e-14 0)
(851.84 1.07358e-13 0)
(851.84 -1.11102e-14 0)
(851.84 -3.3599e-14 0)
(851.84 -2.83535e-14 0)
(851.84 -2.06115e-14 0)
(851.84 3.3216e-14 0)
(851.84 -2.64474e-14 0)
(851.84 4.68686e-14 0)
(851.84 7.99676e-14 0)
(851.84 -2.54875e-14 0)
(851.84 -1.91082e-13 0)
(851.84 -2.43551e-13 0)
(851.84 -2.90006e-13 0)
(851.84 -2.82733e-13 0)
(851.84 -2.06034e-13 0)
(851.84 -1.19489e-13 0)
(851.84 -3.54953e-13 0)
(851.84 -4.57488e-13 0)
(851.84 -5.64887e-13 0)
(851.84 -5.70006e-13 0)
(851.84 -5.2e-13 0)
(851.84 -4.31268e-13 0)
(851.84 -3.58744e-13 0)
(851.84 -1.84487e-13 0)
(851.84 -2.13542e-13 0)
(851.84 -2.5722e-13 0)
(851.84 -3.78959e-13 0)
(851.84 -4.96551e-13 0)
(851.84 -5.98877e-13 0)
(851.84 -5.36478e-13 0)
(851.84 5.1933e-14 0)
(851.84 -1.56715e-12 0)
(851.84 3.5342e-12 0)
(851.84 2.33444e-14 0)
(851.84 -6.77546e-14 0)
(851.84 -1.92528e-14 0)
(851.84 4.97574e-14 0)
(851.84 -2.15542e-14 0)
(851.84 4.52601e-15 0)
(851.84 5.18461e-14 0)
(851.84 4.85102e-14 0)
(851.84 9.49821e-14 0)
(851.84 3.2624e-13 0)
(851.84 5.76075e-13 0)
(851.84 6.42001e-13 0)
(851.84 5.33125e-13 0)
(851.84 4.96064e-13 0)
(851.84 3.6284e-13 0)
(851.84 -1.22185e-14 0)
(851.84 -2.80015e-13 0)
(851.84 -3.54077e-13 0)
(851.84 -2.05256e-13 0)
(851.84 -6.60492e-14 0)
(851.84 -8.80352e-14 0)
(851.84 3.62648e-14 0)
(851.84 -9.1555e-15 0)
(851.84 -8.14688e-14 0)
(851.84 -1.83497e-13 0)
(851.84 -1.96205e-13 0)
(851.84 -1.71282e-13 0)
(851.84 -1.97906e-13 0)
(851.84 -1.7357e-13 0)
(851.84 -2.17455e-13 0)
(851.84 -3.58191e-13 0)
(851.84 -4.47725e-13 0)
(851.84 -7.36669e-13 0)
(851.84 -7.42956e-13 0)
(851.84 -5.81199e-13 0)
(851.84 -7.34953e-13 0)
(851.84 -5.50424e-14 0)
(851.84 -4.32103e-12 0)
(851.84 -6.02164e-14 0)
(851.84 -1.25472e-13 0)
(851.84 -6.4919e-14 0)
(851.84 -4.62413e-14 0)
(851.84 1.73164e-13 0)
(851.84 1.35859e-13 0)
(851.84 1.46874e-13 0)
(851.84 1.32502e-13 0)
(851.84 1.74298e-13 0)
(851.84 2.0993e-13 0)
(851.84 3.46191e-13 0)
(851.84 5.0434e-13 0)
(851.84 5.46039e-13 0)
(851.84 5.00598e-13 0)
(851.84 3.3067e-13 0)
(851.84 1.81065e-13 0)
(851.84 7.60451e-14 0)
(851.84 -2.08952e-13 0)
(851.84 -3.39132e-13 0)
(851.84 1.01527e-13 0)
(851.84 5.35299e-14 0)
(851.84 1.47966e-13 0)
(851.84 4.97169e-14 0)
(851.84 7.51995e-13 0)
(851.84 8.80115e-14 0)
(851.84 5.77824e-14 0)
(851.84 -1.79614e-13 0)
(851.84 -2.02147e-13 0)
(851.84 -3.44168e-13 0)
(851.84 -3.87802e-13 0)
(851.84 -5.53402e-13 0)
(851.84 -4.05866e-13 0)
(851.84 -4.00555e-13 0)
(851.84 -4.05661e-13 0)
(851.84 -3.75931e-13 0)
(851.84 -2.4104e-13 0)
(851.84 -2.98577e-13 0)
(851.84 -3.23807e-13 0)
(851.84 2.29461e-15 0)
(851.84 5.97748e-14 0)
(851.84 -1.33015e-14 0)
(851.84 -1.31863e-13 0)
(851.84 -1.80749e-15 0)
(851.84 4.63066e-14 0)
(851.84 -3.22028e-14 0)
(851.84 4.8584e-14 0)
(851.84 -7.13763e-15 0)
(851.84 8.47485e-14 0)
(851.84 6.63681e-14 0)
(851.84 2.04456e-13 0)
(851.84 1.17195e-13 0)
(851.84 1.21279e-13 0)
(851.84 -1.56847e-13 0)
(851.84 -1.98709e-13 0)
(851.84 -2.68856e-13 0)
(851.84 -2.24285e-13 0)
(851.84 -2.55118e-13 0)
(851.84 1.09207e-14 0)
(851.84 2.49158e-13 0)
(851.84 8.44849e-14 0)
(851.84 -6.10843e-14 0)
(851.84 1.01903e-13 0)
(851.84 7.39869e-14 0)
(851.84 -1.44046e-13 0)
(851.84 3.73313e-15 0)
(851.84 -2.2e-13 0)
(851.84 -1.7941e-13 0)
(851.84 -1.71973e-13 0)
(851.84 -6.13527e-14 0)
(851.84 4.49806e-14 0)
(851.84 -9.08742e-14 0)
(851.84 -1.29153e-13 0)
(851.84 -1.00104e-13 0)
(851.84 -6.16038e-14 0)
(851.84 -1.33346e-13 0)
(851.84 -4.25532e-13 0)
(851.84 3.43397e-14 0)
(851.84 -6.59102e-15 0)
(851.84 1.34426e-14 0)
(851.84 -8.88213e-14 0)
(851.84 -2.53553e-13 0)
(851.84 -3.52512e-13 0)
(851.84 -5.90749e-15 0)
(851.84 -3.48588e-14 0)
(851.84 -7.96533e-15 0)
(851.84 -8.75288e-14 0)
(851.84 -1.75018e-13 0)
(851.84 -1.44606e-13 0)
(851.84 -7.22433e-14 0)
(851.84 -1.92088e-13 0)
(851.84 -4.05344e-13 0)
(851.84 -3.95796e-13 0)
(851.84 -3.30317e-13 0)
(851.84 -1.15848e-13 0)
(851.84 -1.10335e-14 0)
(851.84 -8.0349e-14 0)
(851.84 -7.39925e-14 0)
(851.84 -9.78231e-14 0)
(851.84 -2.86391e-13 0)
(851.84 -1.24545e-13 0)
(851.84 2.29768e-13 0)
(851.84 1.53478e-15 0)
(851.84 -1.27795e-13 0)
(851.84 -1.43908e-13 0)
(851.84 -1.40461e-13 0)
(851.84 5.28017e-14 0)
(851.84 1.06298e-13 0)
(851.84 -1.20133e-13 0)
(851.84 -2.09525e-13 0)
(851.84 -1.61203e-13 0)
(851.84 -2.06263e-13 0)
(851.84 -1.32363e-13 0)
(851.84 7.90527e-16 0)
(851.84 -1.30472e-13 0)
(851.84 -1.26146e-15 0)
(851.84 -6.23725e-14 0)
(851.84 -3.268e-14 0)
(851.84 -5.80739e-14 0)
(851.84 -1.53735e-13 0)
(851.84 -2.6289e-13 0)
(851.84 -1.14425e-13 0)
(851.84 -9.87233e-14 0)
(851.84 -7.93171e-14 0)
(851.84 -3.54158e-13 0)
(851.84 -1.86948e-13 0)
(851.84 -5.36581e-14 0)
(851.84 2.36217e-15 0)
(851.84 -2.3999e-13 0)
(851.84 -2.03679e-13 0)
(851.84 -7.19143e-14 0)
(851.84 -8.54232e-14 0)
(851.84 2.69276e-14 0)
(851.84 9.52931e-15 0)
(851.84 -9.99902e-14 0)
(851.84 -3.48869e-13 0)
(851.84 -3.15552e-13 0)
(851.84 -2.81459e-13 0)
(851.84 -4.02543e-13 0)
(851.84 -2.46408e-13 0)
(851.84 2.28661e-13 0)
(851.84 -7.14157e-14 0)
(851.84 -1.14051e-13 0)
(851.84 -1.02542e-13 0)
(851.84 -1.32623e-13 0)
(851.84 -1.16294e-13 0)
(851.84 -1.5711e-13 0)
(851.84 -1.44616e-13 0)
(851.84 -9.97513e-14 0)
(851.84 -1.49903e-13 0)
(851.84 -8.35575e-14 0)
(851.84 -5.34062e-14 0)
(851.84 -4.02457e-14 0)
(851.84 3.59041e-14 0)
(851.84 1.30984e-13 0)
(851.84 2.67623e-13 0)
(851.84 3.39305e-13 0)
(851.84 5.586e-14 0)
(851.84 -1.29776e-13 0)
(851.84 -3.06981e-13 0)
(851.84 -2.65791e-13 0)
(851.84 -1.95794e-13 0)
(851.84 -2.23571e-13 0)
(851.84 -9.27225e-14 0)
(851.84 -9.07417e-14 0)
(851.84 -1.2426e-13 0)
(851.84 -1.59713e-14 0)
(851.84 2.73626e-13 0)
(851.84 3.8326e-13 0)
(851.84 3.87876e-13 0)
(851.84 1.98486e-13 0)
(851.84 2.69636e-13 0)
(851.84 1.36273e-13 0)
(851.84 1.6134e-13 0)
(851.84 -1.52122e-13 0)
(851.84 -1.82449e-13 0)
(851.84 -2.35986e-13 0)
(851.84 -1.15693e-13 0)
(851.84 -1.06187e-13 0)
(851.84 7.37998e-14 0)
(851.84 -5.68126e-14 0)
(851.84 -1.48204e-13 0)
(851.84 -2.84991e-13 0)
(851.84 -1.91223e-13 0)
(851.84 -2.81228e-13 0)
(851.84 2.31379e-14 0)
(851.84 -2.80963e-15 0)
(851.84 -2.58917e-13 0)
(851.84 -3.70238e-13 0)
(851.84 -3.7335e-13 0)
(851.84 -2.23155e-13 0)
(851.84 7.60885e-14 0)
(851.84 1.09259e-13 0)
(851.84 2.14518e-13 0)
(851.84 2.36824e-13 0)
(851.84 3.53429e-13 0)
(851.84 1.48511e-13 0)
(851.84 -6.16923e-14 0)
(851.84 -1.63198e-13 0)
(851.84 -1.63457e-13 0)
(851.84 -1.67075e-13 0)
(851.84 -1.74707e-13 0)
(851.84 -1.75152e-13 0)
(851.84 -2.794e-13 0)
(851.84 2.71365e-13 0)
(851.84 4.13072e-13 0)
(851.84 3.63113e-13 0)
(851.84 5.146e-13 0)
(851.84 4.25359e-13 0)
(851.84 3.79725e-13 0)
(851.84 3.72213e-13 0)
(851.84 2.58641e-13 0)
(851.84 6.99845e-14 0)
(851.84 -9.2693e-14 0)
(851.84 8.09614e-14 0)
(851.84 3.61773e-14 0)
(851.84 -1.68806e-13 0)
(851.84 -1.07684e-13 0)
(851.84 -1.77293e-13 0)
(851.84 -2.6037e-13 0)
(851.84 -2.79092e-13 0)
(851.84 -1.62912e-13 0)
(851.84 -2.08814e-13 0)
(851.84 -2.61246e-13 0)
(851.84 -3.00113e-13 0)
(851.84 -5.69734e-13 0)
(851.84 -5.8337e-13 0)
(851.84 -5.51809e-13 0)
(851.84 -2.49623e-13 0)
(851.84 -6.1147e-14 0)
(851.84 -1.70912e-13 0)
(851.84 -1.79433e-13 0)
(851.84 -1.34901e-13 0)
(851.84 6.37535e-14 0)
(851.84 2.17664e-13 0)
(851.84 1.00506e-13 0)
(851.84 1.69914e-14 0)
(851.84 4.43559e-14 0)
(851.84 1.34878e-13 0)
(851.84 1.60415e-13 0)
(851.84 1.67078e-13 0)
(851.84 1.32572e-13 0)
(851.84 5.91096e-14 0)
(851.84 1.07827e-13 0)
(851.84 2.90331e-13 0)
(851.84 4.64546e-13 0)
(851.84 6.47158e-13 0)
(851.84 4.22541e-13 0)
(851.84 3.27345e-13 0)
(851.84 1.08323e-13 0)
(851.84 -6.136e-14 0)
(851.84 -2.02614e-13 0)
(851.84 -2.27345e-13 0)
(851.84 -2.05146e-13 0)
(851.84 -1.35657e-13 0)
(851.84 -4.17363e-14 0)
(851.84 -1.63157e-13 0)
(851.84 -3.32641e-13 0)
(851.84 -3.0919e-13 0)
(851.84 -5.89981e-14 0)
(851.84 1.00646e-13 0)
(851.84 -1.09619e-13 0)
(851.84 -9.15693e-14 0)
(851.84 -2.81073e-13 0)
(851.84 -2.37386e-13 0)
(851.84 -3.15206e-13 0)
(851.84 -3.16251e-13 0)
(851.84 -1.22349e-13 0)
(851.84 -7.9678e-14 0)
(851.84 -6.49881e-14 0)
(851.84 -9.36418e-14 0)
(851.84 -2.74501e-13 0)
(851.84 -1.63149e-14 0)
(851.84 1.01385e-13 0)
(851.84 1.32297e-13 0)
(851.84 1.90922e-13 0)
(851.84 2.42195e-13 0)
(851.84 2.77894e-13 0)
(851.84 3.43457e-13 0)
(851.84 1.69955e-13 0)
(851.84 1.0851e-13 0)
(851.84 1.09791e-14 0)
(851.84 3.03652e-13 0)
(851.84 2.90778e-13 0)
(851.84 2.35912e-13 0)
(851.84 2.25392e-13 0)
(851.84 -5.6462e-14 0)
(851.84 3.30526e-14 0)
(851.84 -2.334e-13 0)
(851.84 -1.52377e-13 0)
(851.84 -1.77222e-14 0)
(851.84 6.41522e-14 0)
(851.84 1.72861e-13 0)
(851.84 2.26262e-13 0)
(851.84 1.4175e-13 0)
(851.84 3.34143e-14 0)
(851.84 -5.75843e-14 0)
(851.84 -1.27363e-13 0)
(851.84 -4.92093e-15 0)
(851.84 -9.4871e-14 0)
(851.84 -3.56616e-14 0)
(851.84 1.27107e-13 0)
(851.84 5.49581e-14 0)
(851.84 -4.18845e-14 0)
(851.84 -2.35103e-13 0)
(851.84 -6.05759e-14 0)
(851.84 9.87822e-14 0)
(851.84 1.05659e-13 0)
(851.84 1.31781e-13 0)
(851.84 -8.40869e-14 0)
(851.84 2.07322e-15 0)
(851.84 2.15044e-13 0)
(851.84 3.0117e-13 0)
(851.84 1.6148e-13 0)
(851.84 9.04005e-14 0)
(851.84 -8.94865e-14 0)
(851.84 -1.28132e-13 0)
(851.84 -2.25737e-13 0)
(851.84 8.71262e-14 0)
(851.84 2.12385e-13 0)
(851.84 3.41561e-14 0)
(851.84 -8.82205e-14 0)
(851.84 -1.1089e-13 0)
(851.84 -2.84662e-13 0)
(851.84 -2.81682e-13 0)
(851.84 -2.37682e-13 0)
(851.84 -1.29731e-13 0)
(851.84 -5.5992e-14 0)
(851.84 3.30955e-14 0)
(851.84 2.16692e-13 0)
(851.84 3.77096e-13 0)
(851.84 3.61526e-13 0)
(851.84 2.19239e-13 0)
(851.84 2.88637e-13 0)
(851.84 1.49805e-13 0)
(851.84 -4.8396e-14 0)
(851.84 -2.28436e-14 0)
(851.84 5.643e-14 0)
(851.84 7.68853e-15 0)
(851.84 2.96502e-13 0)
(851.84 3.03771e-13 0)
(851.84 1.94319e-13 0)
(851.84 -1.18851e-13 0)
(851.84 4.78927e-14 0)
(851.84 2.7954e-14 0)
(851.84 -2.59399e-14 0)
(851.84 3.07149e-14 0)
(851.84 2.48005e-13 0)
(851.84 3.70998e-13 0)
(851.84 2.88398e-13 0)
(851.84 1.97326e-13 0)
(851.84 1.95279e-14 0)
(851.84 -1.17375e-13 0)
(851.84 -3.31115e-13 0)
(851.84 -4.17593e-13 0)
(851.84 -2.89005e-13 0)
(851.84 -1.87175e-13 0)
(851.84 1.56285e-14 0)
(851.84 4.71231e-15 0)
(851.84 -1.43676e-13 0)
(851.84 -1.11733e-13 0)
(851.84 -3.00306e-13 0)
(851.84 -8.58852e-14 0)
(851.84 -2.31628e-13 0)
(851.84 -1.37166e-13 0)
(851.84 1.37122e-14 0)
(851.84 1.19539e-13 0)
(851.84 3.06244e-13 0)
(851.84 4.40071e-13 0)
(851.84 5.26071e-13 0)
(851.84 4.06155e-13 0)
(851.84 4.42729e-13 0)
(851.84 3.95885e-13 0)
(851.84 2.61006e-13 0)
(851.84 1.00334e-13 0)
(851.84 1.0729e-13 0)
(851.84 1.6367e-13 0)
(851.84 1.92431e-13 0)
(851.84 9.12967e-14 0)
(851.84 1.77303e-13 0)
(851.84 2.17347e-13 0)
(851.84 6.6252e-14 0)
(851.84 4.26167e-14 0)
(851.84 2.50138e-14 0)
(851.84 -7.71414e-14 0)
(851.84 5.41223e-13 0)
(851.84 3.43387e-13 0)
(851.84 1.70176e-13 0)
(851.84 8.83916e-14 0)
(851.84 1.20041e-13 0)
(851.84 1.97689e-14 0)
(851.84 -9.98961e-14 0)
(851.84 -1.4312e-13 0)
(851.84 -2.76058e-13 0)
(851.84 -3.80637e-13 0)
(851.84 -3.84075e-13 0)
(851.84 -2.80866e-13 0)
(851.84 -2.9516e-13 0)
(851.84 -4.89514e-13 0)
(851.84 -3.20363e-13 0)
(851.84 -1.1813e-13 0)
(851.84 3.09678e-14 0)
(851.84 7.84031e-15 0)
(851.84 3.31043e-13 0)
(851.84 2.60904e-13 0)
(851.84 2.11314e-13 0)
(851.84 3.13975e-13 0)
(851.84 2.24675e-13 0)
(851.84 3.27454e-13 0)
(851.84 3.9777e-13 0)
(851.84 3.42258e-13 0)
(851.84 2.48634e-13 0)
(851.84 1.35495e-13 0)
(851.84 3.35115e-14 0)
(851.84 3.09823e-13 0)
(851.84 2.72887e-13 0)
(851.84 3.5258e-13 0)
(851.84 3.81531e-13 0)
(851.84 3.05773e-13 0)
(851.84 -1.93518e-14 0)
(851.84 1.70514e-14 0)
(851.84 1.1526e-13 0)
(851.84 1.70771e-13 0)
(851.84 1.28987e-13 0)
(851.84 6.27181e-14 0)
(851.84 6.46329e-14 0)
(851.84 6.40822e-14 0)
(851.84 1.49428e-13 0)
(851.84 1.16977e-13 0)
(851.84 -1.13767e-13 0)
(851.84 -2.6054e-13 0)
(851.84 -2.26648e-13 0)
(851.84 -1.13225e-13 0)
(851.84 -2.46857e-13 0)
(851.84 -4.758e-13 0)
(851.84 -3.16252e-13 0)
(851.84 -3.42664e-13 0)
(851.84 -2.5796e-13 0)
(851.84 -2.34369e-13 0)
(851.84 3.99359e-14 0)
(851.84 2.00985e-13 0)
(851.84 1.84702e-13 0)
(851.84 1.14445e-13 0)
(851.84 7.29383e-14 0)
(851.84 2.03475e-13 0)
(851.84 2.36066e-13 0)
(851.84 3.39081e-13 0)
(851.84 2.91924e-13 0)
(851.84 2.35786e-13 0)
(851.84 2.0729e-13 0)
(851.84 1.96802e-13 0)
(851.84 3.25808e-13 0)
(851.84 4.73288e-13 0)
(851.84 4.89485e-13 0)
(851.84 4.84315e-13 0)
(851.84 3.03499e-13 0)
(851.84 8.28156e-14 0)
(851.84 6.58146e-14 0)
(851.84 3.12318e-14 0)
(851.84 -6.96779e-15 0)
(851.84 1.04249e-13 0)
(851.84 -1.70933e-13 0)
(851.84 1.81863e-13 0)
(851.84 2.07857e-13 0)
(851.84 1.90404e-13 0)
(851.84 -8.37359e-14 0)
(851.84 -2.83417e-14 0)
(851.84 -8.63939e-14 0)
(851.84 -1.21924e-13 0)
(851.84 -9.03601e-15 0)
(851.84 1.76342e-13 0)
(851.84 1.29641e-14 0)
(851.84 -5.56535e-14 0)
(851.84 -1.61166e-13 0)
(851.84 -3.75278e-14 0)
(851.84 -2.51344e-14 0)
(851.84 -2.39513e-14 0)
(851.84 1.1488e-13 0)
(851.84 1.34433e-13 0)
(851.84 1.32769e-13 0)
(851.84 1.75459e-13 0)
(851.84 -7.61933e-15 0)
(851.84 -1.88402e-13 0)
(851.84 3.52363e-13 0)
(851.84 5.25195e-13 0)
(851.84 3.15188e-13 0)
(851.84 3.92562e-13 0)
(851.84 3.5819e-13 0)
(851.84 3.47034e-13 0)
(851.84 4.95239e-13 0)
(851.84 4.53791e-13 0)
(851.84 3.5981e-13 0)
(851.84 2.09925e-13 0)
(851.84 -1.0022e-14 0)
(851.84 -1.66105e-13 0)
(851.84 -1.42417e-14 0)
(851.84 -1.12313e-13 0)
(851.84 1.37872e-15 0)
(851.84 -4.03409e-14 0)
(851.84 1.1839e-13 0)
(851.84 2.61647e-13 0)
(851.84 3.58302e-13 0)
(851.84 2.24784e-13 0)
(851.84 1.14397e-13 0)
(851.84 6.58347e-14 0)
(851.84 2.1849e-15 0)
(851.84 -2.32014e-14 0)
(851.84 -1.54715e-13 0)
(851.84 -2.83176e-13 0)
(851.84 -1.90772e-13 0)
(851.84 -1.05487e-13 0)
(851.84 -5.55562e-14 0)
(851.84 -1.2184e-13 0)
(851.84 -7.41873e-14 0)
(851.84 -1.32602e-13 0)
(851.84 2.01569e-13 0)
(851.84 1.6263e-13 0)
(851.84 6.89504e-14 0)
(851.84 3.10474e-14 0)
(851.84 7.10853e-14 0)
(851.84 -1.95042e-13 0)
(851.84 -1.46111e-13 0)
(851.84 -1.80221e-13 0)
(851.84 -1.35447e-13 0)
(851.84 2.12885e-13 0)
(851.84 3.67281e-13 0)
(851.84 3.81957e-13 0)
(851.84 4.31807e-13 0)
(851.84 4.11328e-13 0)
(851.84 2.77984e-13 0)
(851.84 1.28115e-13 0)
(851.84 -2.32907e-14 0)
(851.84 -1.07054e-13 0)
(851.84 -1.04503e-13 0)
(851.84 3.32914e-14 0)
(851.84 6.7768e-14 0)
(851.84 1.59185e-13 0)
(851.84 2.3637e-13 0)
(851.84 1.5474e-13 0)
(851.84 6.85503e-14 0)
(851.84 5.40881e-14 0)
(851.84 9.92164e-14 0)
(851.84 7.11505e-14 0)
(851.84 5.66006e-14 0)
(851.84 -2.50831e-13 0)
(851.84 -3.37068e-13 0)
(851.84 -5.1876e-13 0)
(851.84 -8.02768e-14 0)
(851.84 2.61867e-14 0)
(851.84 9.39059e-14 0)
(851.84 -4.92921e-14 0)
(851.84 -2.02734e-13 0)
(851.84 -1.45995e-13 0)
(851.84 1.55985e-14 0)
(851.84 9.30315e-14 0)
(851.84 8.81754e-14 0)
(851.84 2.36519e-14 0)
(851.84 9.98358e-14 0)
(851.84 -5.14822e-14 0)
(851.84 -5.42923e-13 0)
(851.84 -6.72688e-13 0)
(851.84 -3.77174e-13 0)
(851.84 -1.76587e-13 0)
(851.84 1.90799e-13 0)
(851.84 3.76838e-13 0)
(851.84 2.6755e-13 0)
(851.84 2.35929e-13 0)
(851.84 2.5013e-13 0)
(851.84 -8.21121e-14 0)
(851.84 -1.2816e-13 0)
(851.84 -1.62103e-13 0)
(851.84 4.04334e-14 0)
(851.84 1.86944e-13 0)
(851.84 9.53143e-14 0)
(851.84 4.94825e-14 0)
(851.84 6.93245e-14 0)
(851.84 5.23461e-14 0)
(851.84 1.60047e-14 0)
(851.84 5.91897e-14 0)
(851.84 9.24554e-14 0)
(851.84 1.42316e-13 0)
(851.84 2.70609e-13 0)
(851.84 2.45546e-13 0)
(851.84 2.139e-13 0)
(851.84 1.97754e-13 0)
(851.84 3.37179e-13 0)
(851.84 2.1994e-13 0)
(851.84 8.6667e-14 0)
(851.84 -5.61989e-14 0)
(851.84 -7.74659e-14 0)
(851.84 -1.17996e-13 0)
(851.84 7.01429e-14 0)
(851.84 6.88531e-14 0)
(851.84 5.35302e-14 0)
(851.84 -2.55007e-14 0)
(851.84 -2.03374e-13 0)
(851.84 -2.64854e-13 0)
(851.84 -2.16955e-13 0)
(851.84 -1.51226e-13 0)
(851.84 -8.04427e-14 0)
(851.84 -6.53581e-14 0)
(851.84 -6.99677e-14 0)
(851.84 3.5624e-13 0)
(851.84 2.7898e-13 0)
(851.84 1.90759e-13 0)
(851.84 4.24363e-13 0)
(851.84 3.40031e-13 0)
(851.84 4.42259e-14 0)
(851.84 5.77584e-14 0)
(851.84 8.36162e-14 0)
(851.84 -5.98484e-14 0)
(851.84 -4.90481e-15 0)
(851.84 -1.02408e-13 0)
(851.84 -1.58196e-13 0)
(851.84 -1.32206e-13 0)
(851.84 -3.9013e-14 0)
(851.84 1.30941e-13 0)
(851.84 2.0541e-13 0)
(851.84 2.62004e-13 0)
(851.84 3.36309e-13 0)
(851.84 3.83251e-13 0)
(851.84 5.91109e-13 0)
(851.84 5.21078e-13 0)
(851.84 4.74753e-13 0)
(851.84 2.58366e-13 0)
(851.84 2.26806e-13 0)
(851.84 3.2973e-13 0)
(851.84 4.01051e-13 0)
(851.84 2.9034e-13 0)
(851.84 2.02529e-13 0)
(851.84 8.67124e-14 0)
(851.84 -8.68046e-14 0)
(851.84 -2.07072e-13 0)
(851.84 -1.42076e-14 0)
(851.84 1.63301e-13 0)
(851.84 4.42339e-13 0)
(851.84 5.27957e-13 0)
(851.84 5.69774e-13 0)
(851.84 8.40425e-14 0)
(851.84 -3.27722e-14 0)
(851.84 1.37317e-13 0)
(851.84 4.99007e-13 0)
(851.84 3.10163e-13 0)
(851.84 2.03071e-13 0)
(851.84 3.52791e-13 0)
(851.84 3.47055e-13 0)
(851.84 4.40898e-13 0)
(851.84 -1.77141e-14 0)
(851.84 -9.38258e-14 0)
(851.84 8.99139e-14 0)
(851.84 1.58748e-13 0)
(851.84 1.00907e-13 0)
(851.84 9.21942e-14 0)
(851.84 -5.09775e-14 0)
(851.84 2.62873e-14 0)
(851.84 8.40561e-14 0)
(851.84 2.23988e-13 0)
(851.84 1.04203e-13 0)
(851.84 1.16667e-13 0)
(851.84 2.66233e-13 0)
(851.84 4.34639e-13 0)
(851.84 3.73003e-13 0)
(851.84 3.97058e-13 0)
(851.84 5.24412e-13 0)
(851.84 6.57827e-13 0)
(851.84 5.17733e-13 0)
(851.84 5.76116e-13 0)
(851.84 -3.91595e-14 0)
(851.84 -1.00173e-13 0)
(851.84 -1.7695e-13 0)
(851.84 -1.10237e-13 0)
(851.84 -4.62015e-14 0)
(851.84 6.31627e-13 0)
(851.84 5.55894e-13 0)
(851.84 6.33407e-13 0)
(851.84 7.82517e-13 0)
(851.84 7.85487e-13 0)
(851.84 5.49395e-13 0)
(851.84 3.8324e-13 0)
(851.84 2.95248e-13 0)
(851.84 3.40875e-13 0)
(851.84 1.39313e-13 0)
(851.84 2.70948e-14 0)
(851.84 1.80144e-13 0)
(851.84 1.26232e-13 0)
(851.84 -7.27197e-15 0)
(851.84 5.11381e-14 0)
(851.84 -4.68883e-14 0)
(851.84 5.15343e-14 0)
(851.84 1.86969e-14 0)
(851.84 7.11445e-14 0)
(851.84 6.8495e-14 0)
(851.84 -4.2415e-14 0)
(851.84 9.97047e-14 0)
(851.84 1.87094e-13 0)
(851.84 1.4303e-13 0)
(851.84 1.63632e-13 0)
(851.84 1.65853e-13 0)
(851.84 3.96259e-13 0)
(851.84 3.60788e-13 0)
(851.84 2.20271e-13 0)
(851.84 3.78282e-13 0)
(851.84 5.82349e-13 0)
(851.84 7.46389e-13 0)
(851.84 4.85702e-13 0)
(851.84 2.81491e-13 0)
(851.84 4.31092e-14 0)
(851.84 -1.37849e-13 0)
(851.84 -1.85463e-13 0)
(851.84 -2.40483e-13 0)
(851.84 4.30653e-14 0)
(851.84 1.72599e-14 0)
(851.84 1.9065e-13 0)
(851.84 3.75633e-13 0)
(851.84 5.81242e-13 0)
(851.84 6.67423e-13 0)
(851.84 4.72216e-13 0)
(851.84 4.4899e-13 0)
(851.84 4.0067e-13 0)
(851.84 3.69211e-13 0)
(851.84 3.23681e-13 0)
(851.84 2.91723e-13 0)
(851.84 2.30795e-13 0)
(851.84 3.33969e-14 0)
(851.84 -1.69144e-14 0)
(851.84 -2.3595e-13 0)
(851.84 -2.30838e-13 0)
(851.84 -3.24709e-13 0)
(851.84 -4.00519e-14 0)
(851.84 1.2299e-13 0)
(851.84 3.89724e-13 0)
(851.84 3.65014e-13 0)
(851.84 -9.18348e-14 0)
(851.84 1.64107e-13 0)
(851.84 2.37528e-13 0)
(851.84 1.80974e-13 0)
(851.84 1.75438e-13 0)
(851.84 2.42652e-14 0)
(851.84 4.48878e-14 0)
(851.84 1.37359e-13 0)
(851.84 1.70377e-13 0)
(851.84 2.83038e-13 0)
(851.84 1.05495e-13 0)
(851.84 1.96496e-13 0)
(851.84 5.36678e-15 0)
(851.84 -1.15005e-13 0)
(851.84 -1.64853e-13 0)
(851.84 -1.49707e-13 0)
(851.84 -4.61162e-14 0)
(851.84 -1.24933e-14 0)
(851.84 7.43565e-14 0)
(851.84 1.72543e-14 0)
(851.84 1.44855e-13 0)
(851.84 2.49705e-13 0)