/*--------------------------------*- C++ -*----------------------------------*\
| =========                 |                                                 |
| \\      /  F ield         | OpenFOAM: The Open Source CFD Toolbox           |
|  \\    /   O peration     | Version:  v1812                                 |
|   \\  /    A nd           | Web:      www.OpenFOAM.com                      |
|    \\/     M anipulation  |                                                 |
\*---------------------------------------------------------------------------*/
FoamFile
{
    version     2.0;
    format      ascii;
    class       volScalarField;
    location    "0.9";
    object      p;
}
// * * * * * * * * * * * * * * * * * * * * * * * * * * * * * * * * * * * * * //

dimensions      [1 -1 -2 0 0 0 0];


internalField   nonuniform List<scalar> 
20400
(
99481.1
99481.8
99480.7
99482.4
99483.2
99484.4
99485.7
99487.1
99488.7
99490.6
99492.8
99495.3
99497.8
99500.5
99502.8
99503.7
99506.3
99505.3
99513.3
99517.9
99522
99519.8
99526.6
99534
99535.9
99537.1
99538.9
99541.5
99543.6
99544.1
99544.8
99546.5
99547.5
99552.2
99555.1
99555.7
99560.2
99560.7
99560.9
99563.3
99566.5
99567.3
99566.3
99574.5
99580.6
99586.8
99599.7
99597.8
99623
99636.1
99649.3
99698.4
99703.1
99707.7
99724.8
99740.9
99755.6
99769.7
99778.1
99784.8
99797.2
99807.6
99809.2
99801.3
99810.4
99796.2
99782.4
99789.5
99788.6
99774.8
99769.4
99757.5
99746.1
99733.3
99721.9
99710.5
99700.2
99691.4
99686.2
99681.2
99680.1
99677.2
99679.7
99681
99685.2
99695.7
99706.7
99712
99727.5
99751.1
99773
99796
99815.8
99837.1
99860.3
99881.4
99897.5
99907.4
99923.8
99943.7
99953
99953.3
99953.8
99957.2
99958
99949.4
99946.5
99935.7
99932.6
99923.5
99916.7
99909.3
99901.8
99893.2
99884.1
99874.4
99864.4
99854.1
99843.6
99832.8
99826.6
99816.7
99799.2
99789.3
99783.5
99774.9
99766.6
99755.9
99746
99736.2
99726.5
99717.1
99707.6
99698.3
99689
99680.1
99670.7
99661.3
99655.2
99649.3
99644.6
99637.7
99631.8
99629.2
99624.2
99620.8
99618.2
99615.2
99613.2
99610.7
99609.3
99609.7
99610
99611.3
99612.8
99615.7
99621.1
99623
99624.3
99627.7
99633.3
99638.2
99639.3
99644.1
99652.9
99654.4
99668
99664.4
99665
99698
99708.8
99724.6
99742.2
99754.4
99776.2
99797.8
99822.5
99847.6
99872.8
99898.7
99926.3
99953.9
99983.8
100012
100042
100072
100101
100130
100159
100187
100214
100241
100268
100294
100320
100344
100368
100391
100413
100434
100454
100474
100493
100512
100530
100547
100563
100578
100592
100607
100614
100629
100641
100653
100662
100672
100677
100682
100688
100698
100705
100709
100712
100714
100718
100721
100720
100719
100717
100713
100710
100706
100701
100696
100691
100685
100676
100668
100660
100649
100638
100628
100617
100605
100595
100582
100568
100555
100539
100526
100515
100501
100485
100472
100460
100448
100436
100424
100413
100402
100390
100382
100372
100361
100353
100347
100339
100332
100329
100331
100325
100325
100325
100324
100323
100323
100327
100330
100333
100336
100340
100344
100349
100353
100362
100362
100363
100371
100377
100384
100391
100398
100405
100414
100425
100433
100442
100452
100462
100473
100485
100497
100508
100521
100534
100548
100562
100577
100592
100608
100625
100641
100658
100676
100693
100710
100728
100746
100764
100779
100800
100818
100837
100855
100873
100891
100908
100925
100943
100959
100975
100991
101007
101021
101035
101049
101062
101074
101086
101097
101107
101117
101126
101134
101141
101148
101154
101159
101164
101167
101170
101172
101174
101174
101174
101173
101172
101170
101167
101163
101159
101155
101149
101143
101137
101130
101123
101115
101107
101098
101089
101080
101070
101061
101051
101040
101030
101020
101009
100999
100988
100978
100967
100957
100947
100937
100927
100917
100908
100899
100890
100882
100874
100866
100859
100853
100846
100841
100836
100831
100827
100824
100821
100819
100818
100817
100817
100817
100819
100820
100823
100826
100830
100835
100841
100847
100853
100861
100869
100877
100886
100896
100907
100917
100929
100941
100953
100966
100979
100993
101006
101021
101035
101050
101065
101080
101096
101111
101126
101142
101158
101173
101189
101204
101220
101235
101250
101265
101279
101293
101307
101321
101334
101347
101359
101370
101382
101392
101403
101412
101421
101430
101437
101445
101451
101457
101462
101467
101470
101474
101476
101478
101479
101480
101480
101479
101477
101475
101473
101470
101466
101462
101457
101452
101446
101440
101434
101427
101420
101412
101404
101396
101388
101380
101371
101362
101353
101346
101335
101334
99482.3
99482.4
99481.2
99482.9
99483.4
99484
99484.8
99485.8
99487.1
99488.7
99490.9
99493.3
99495.8
99498.4
99501.6
99505.1
99510.4
99512.7
99515.2
99518
99522.9
99524.8
99509.1
99527.3
99529.4
99531.3
99532.7
99534.9
99536.6
99535.2
99534.6
99535.7
99534.6
99530.2
99532.6
99541
99544.3
99545.1
99546.1
99548.7
99549.6
99552.3
99566.3
99585.9
99598.8
99605.9
99619.2
99631.4
99663.7
99670.3
99687.9
99696.4
99710.6
99719.2
99733.7
99748.8
99763
99775.7
99784.5
99794.6
99829
99763.2
99796.9
99803.4
99812.7
99804.1
99749.2
99780.2
99786.9
99784.7
99782.9
99778
99774.4
99767.2
99759.4
99750
99739.9
99727.4
99716.3
99704.1
99696.3
99686.8
99681.2
99685.4
99701.3
99717
99732.8
99746.2
99757.9
99773.7
99785.4
99798.6
99809.8
99817.9
99829.1
99847.9
99864.6
99863.9
99860.3
99872.9
99899.1
99902.7
99890.2
99885.1
99890.7
99899.9
99903.9
99890.3
99860.2
99854.2
99843.3
99831.5
99819.7
99808.3
99797.5
99787.2
99777.4
99768
99759.3
99750.4
99743.2
99741
99749.9
99739.9
99737.2
99734.4
99731
99729.7
99726.5
99721.2
99715.1
99708.6
99702.3
99696.5
99690.2
99682.8
99673.6
99662.1
99656.2
99650.1
99644.7
99640.2
99637.1
99634.4
99631.6
99630.9
99631.4
99631.9
99634.1
99637.8
99642.5
99643
99641.1
99654.1
99668.1
99671.1
99678.9
99683.9
99688.9
99693.4
99696.6
99698.6
99703.9
99700.9
99676.6
99725.8
99741.7
99699.9
99753.2
99694.2
99715.5
99782.7
99777
99800.4
99807.2
99824.2
99842.7
99862.3
99882.3
99902.9
99924.9
99948.3
99972
99996.6
100022
100049
100075
100103
100130
100158
100186
100213
100241
100268
100294
100320
100346
100370
100394
100417
100439
100460
100480
100499
100517
100535
100551
100566
100581
100595
100611
100620
100632
100642
100650
100661
100667
100674
100680
100689
100696
100700
100705
100707
100710
100713
100712
100712
100711
100709
100709
100707
100704
100700
100692
100685
100673
100672
100663
100657
100648
100640
100630
100619
100607
100582
100571
100558
100546
100541
100514
100502
100492
100481
100468
100452
100439
100428
100417
100407
100395
100393
100386
100379
100373
100368
100364
100358
100353
100348
100342
100339
100336
100334
100332
100330
100329
100329
100329
100330
100332
100335
100339
100344
100356
100341
100347
100349
100353
100359
100367
100376
100385
100395
100408
100419
100431
100444
100457
100470
100484
100498
100513
100528
100543
100558
100573
100589
100605
100621
100638
100654
100671
100688
100705
100722
100740
100757
100775
100790
100809
100827
100844
100861
100878
100895
100912
100928
100945
100960
100976
100991
101006
101020
101034
101047
101060
101072
101084
101095
101105
101114
101123
101131
101139
101146
101152
101157
101161
101165
101168
101170
101172
101172
101172
101172
101170
101168
101165
101162
101158
101153
101148
101142
101135
101129
101121
101114
101105
101097
101088
101079
101069
101059
101049
101039
101029
101018
101008
100997
100987
100976
100966
100956
100945
100935
100926
100916
100907
100898
100889
100881
100873
100865
100858
100851
100845
100840
100835
100830
100826
100823
100820
100818
100817
100816
100816
100817
100818
100820
100823
100826
100830
100835
100840
100846
100853
100860
100868
100877
100886
100896
100906
100917
100929
100940
100953
100966
100979
100992
101006
101021
101035
101050
101065
101080
101096
101111
101126
101142
101158
101173
101189
101205
101220
101235
101250
101265
101279
101293
101307
101321
101334
101347
101359
101370
101382
101392
101402
101412
101421
101429
101437
101444
101450
101456
101461
101466
101469
101472
101475
101476
101477
101478
101477
101476
101475
101473
101470
101466
101462
101458
101453
101447
101441
101434
101428
101420
101412
101404
101396
101387
101378
101369
101359
101350
101341
101333
101323
101328
99481.2
99481.6
99479.9
99481.4
99481.8
99482.6
99483.5
99484.5
99485.7
99487.5
99489.8
99492.3
99494.9
99497.6
99500.5
99503.3
99507.7
99507.8
99512.4
99515.8
99520.9
99512.7
99527.8
99535.1
99539.7
99543.9
99547.5
99550.8
99553.2
99555.2
99557
99558.7
99557.5
99551.9
99550.2
99550.6
99552.3
99551.4
99548
99543.8
99542.4
99545.3
99556.4
99562.6
99569
99583.6
99601.6
99611.9
99630.8
99652.8
99664.2
99673.2
99688.9
99700.2
99714.8
99730.2
99745.5
99760.5
99771.3
99779.5
99787.1
99806.5
99818.8
99810.1
99800.4
99808
99819.8
99801.6
99810
99801.7
99793.1
99779.2
99765.6
99750.2
99736.6
99724.7
99715.7
99707.4
99698.5
99688.5
99676.2
99672.9
99667.3
99660.8
99654.9
99652.7
99657.6
99660.8
99665.5
99677.5
99683
99691.7
99702.5
99717
99724.9
99730.3
99747.1
99785.5
99809.2
99809.2
99808.5
99830
99857.6
99871.7
99872.6
99872.1
99883
99892.5
99901.9
99900.8
99897.5
99892.7
99886.8
99881
99874.4
99867.3
99860.3
99853.3
99846.8
99840.1
99836.9
99827.3
99816.1
99806.1
99783.8
99766
99752.5
99738
99725.9
99715.8
99707
99699.6
99693.1
99686.8
99680.2
99673
99665
99659
99657
99656.2
99653.5
99643.4
99633.8
99633.3
99634
99634.2
99634.4
99633.7
99632.9
99629.7
99627.6
99627.2
99626
99625.2
99627.7
99632.7
99639.2
99641
99641.6
99643.9
99648.5
99655.9
99661
99670
99689.4
99669.5
99666.1
99732.2
99697
99747.2
99745.4
99707.1
99742.5
99759.1
99778.5
99796
99814.5
99835
99862.2
99888
99917
99945.7
99975.8
100006
100036
100068
100098
100128
100158
100187
100216
100244
100271
100298
100325
100350
100375
100399
100421
100444
100465
100486
100505
100525
100543
100559
100577
100592
100606
100620
100632
100643
100657
100668
100678
100687
100695
100702
100708
100716
100723
100727
100731
100733
100735
100737
100736
100734
100732
100727
100722
100717
100699
100700
100707
100690
100676
100663
100656
100645
100636
100623
100612
100630
100591
100616
100599
100543
100559
100537
100539
100504
100480
100479
100476
100456
100433
100421
100409
100394
100377
100370
100359
100344
100333
100323
100316
100308
100299
100285
100277
100270
100265
100261
100258
100257
100258
100260
100262
100266
100270
100276
100281
100285
100288
100328
100337
100350
100364
100376
100387
100395
100404
100413
100426
100435
100445
100455
100466
100477
100488
100501
100513
100526
100538
100552
100565
100580
100594
100609
100625
100640
100657
100673
100690
100707
100724
100742
100760
100775
100796
100814
100833
100851
100869
100888
100906
100924
100941
100958
100975
100991
101006
101021
101036
101049
101063
101075
101087
101098
101108
101118
101127
101135
101143
101149
101155
101160
101165
101168
101171
101173
101175
101176
101175
101175
101173
101171
101168
101164
101160
101156
101150
101144
101138
101131
101124
101116
101108
101099
101090
101081
101071
101061
101051
101041
101031
101021
101010
100999
100989
100978
100968
100958
100947
100937
100927
100918
100908
100899
100891
100882
100874
100867
100860
100853
100847
100841
100836
100832
100828
100824
100822
100819
100818
100817
100817
100818
100819
100821
100823
100827
100831
100835
100841
100847
100853
100861
100869
100877
100886
100896
100907
100917
100929
100941
100953
100966
100979
100992
101006
101021
101035
101050
101065
101080
101096
101111
101126
101142
101158
101173
101189
101204
101220
101235
101250
101265
101279
101293
101307
101321
101334
101347
101359
101371
101382
101393
101403
101413
101422
101430
101438
101445
101452
101458
101463
101467
101471
101475
101477
101479
101480
101481
101481
101481
101480
101478
101475
101472
101469
101465
101461
101456
101450
101444
101438
101431
101424
101416
101408
101399
101391
101382
101372
101362
101352
101343
101334
101334
99481.8
99482.6
99480.6
99482.3
99482.9
99484
99485
99486.3
99487.6
99489.4
99491.6
99493.8
99496.2
99499
99502
99504.4
99507.7
99508.3
99515.8
99517.4
99522.1
99516.5
99526.2
99533.8
99537.2
99540.5
99543.6
99544.9
99548.1
99554.7
99560.6
99563.9
99563.9
99566.9
99565.9
99564.4
99564.4
99564.2
99563.4
99562.7
99562.9
99563.2
99564.8
99570.8
99571.7
99579.8
99590.6
99597.6
99623.4
99639.7
99653.7
99673
99695.3
99711
99725.7
99739.7
99757
99770.7
99781.7
99795.1
99800.9
99818.6
99822
99813.1
99827.5
99827
99821.1
99830.6
99827.3
99819.4
99810.8
99794.3
99780.3
99762.7
99746.1
99730.5
99715.8
99703.1
99688.5
99677.9
99663.7
99657.9
99653.4
99654.1
99657.2
99664.8
99680.3
99689.2
99704.5
99729
99747
99769.9
99793.9
99819.6
99844.2
99861.4
99870.3
99875.5
99889.4
99903.5
99910.5
99919.3
99933.6
99948.7
99955.6
99951.9
99947.5
99941.9
99938.5
99926.5
99914.1
99899.7
99886
99873.5
99863.3
99854.4
99846.6
99839.7
99833.8
99827.5
99823.3
99816.5
99808.9
99804.9
99794.2
99781
99771.5
99761.9
99753.5
99743.9
99733.8
99724.2
99714.9
99705.1
99692
99676.3
99663.8
99652.8
99646.8
99642.5
99635.1
99632.5
99629.7
99626
99623.2
99620.2
99617.3
99612.1
99611.5
99612.2
99614.5
99616.4
99617.9
99622.2
99627.8
99631.7
99634.7
99634.6
99633.3
99636.1
99643.7
99651.8
99659.2
99666.3
99671.8
99667.9
99677.3
99684.5
99686.4
99705.8
99712.7
99716.9
99733.6
99751.8
99771.2
99790.6
99816
99841
99866.4
99893.8
99923
99953.2
99983.2
100010
100037
100063
100091
100120
100150
100179
100208
100236
100264
100292
100319
100344
100369
100393
100415
100438
100458
100478
100497
100515
100533
100550
100566
100580
100594
100608
100618
100631
100647
100653
100660
100672
100679
100684
100688
100699
100705
100709
100713
100715
100719
100722
100723
100724
100725
100725
100725
100723
100733
100725
100710
100714
100710
100699
100689
100679
100668
100657
100645
100607
100622
100585
100571
100596
100554
100537
100525
100524
100512
100483
100456
100445
100441
100423
100408
100396
100387
100374
100366
100358
100351
100344
100338
100333
100328
100326
100322
100321
100322
100323
100324
100324
100321
100317
100316
100317
100318
100320
100323
100327
100335
100338
100346
100357
100368
100378
100389
100398
100408
100418
100429
100434
100443
100454
100465
100477
100489
100501
100513
100526
100539
100553
100567
100582
100597
100614
100631
100647
100664
100681
100698
100715
100732
100750
100768
100783
100803
100821
100839
100857
100874
100892
100909
100926
100943
100959
100975
100991
101006
101021
101035
101049
101062
101074
101086
101097
101107
101117
101126
101134
101141
101148
101154
101159
101164
101167
101170
101172
101174
101174
101174
101174
101172
101170
101167
101164
101159
101155
101149
101144
101137
101130
101123
101115
101107
101098
101089
101080
101070
101061
101051
101040
101030
101020
101009
100999
100988
100977
100967
100957
100946
100936
100926
100917
100908
100898
100890
100881
100873
100866
100859
100852
100846
100840
100835
100831
100827
100823
100821
100819
100817
100816
100816
100817
100818
100820
100823
100826
100830
100835
100840
100846
100853
100860
100868
100877
100886
100896
100906
100917
100928
100940
100953
100965
100979
100992
101006
101020
101035
101050
101065
101080
101095
101111
101126
101142
101158
101173
101189
101204
101220
101235
101250
101265
101279
101293
101307
101321
101334
101347
101359
101370
101382
101392
101403
101412
101421
101430
101437
101445
101451
101457
101462
101466
101470
101473
101476
101478
101479
101479
101479
101478
101477
101475
101472
101469
101465
101461
101456
101451
101445
101439
101432
101425
101418
101410
101402
101394
101386
101378
101369
101361
101352
101344
101335
101331
99481.2
99482.4
99480
99481.8
99482.5
99483.6
99484.8
99486.2
99487.9
99490.1
99492.4
99494.7
99497
99499.7
99503.1
99506.1
99510.2
99511.6
99517.2
99521.9
99526.7
99522.5
99532.9
99541.1
99545.1
99548.4
99550.9
99553
99556.6
99557.9
99558.7
99559.5
99558.5
99559.2
99557.5
99553.4
99551.3
99554
99557.3
99559.5
99559.9
99558.7
99559.8
99569
99572.5
99577.7
99586.6
99600.4
99620.1
99638.2
99651.7
99672.5
99692.3
99708.2
99722.2
99737.3
99755.1
99768.7
99784.2
99792.8
99808.5
99813.7
99826
99825.6
99824.5
99827.3
99820.2
99818.7
99808.9
99798.7
99786.4
99770.5
99756.2
99738.3
99720.6
99703.5
99688
99675.2
99665.5
99650
99648.6
99638
99643.1
99633.4
99645.3
99643.4
99655.3
99657.4
99673.6
99700.8
99723.6
99752.3
99783.4
99818.5
99851.2
99878
99897.5
99913.1
99925.6
99934.5
99944.6
99947.3
99948.6
99952.1
99952.7
99950.2
99949.3
99945
99940
99932.1
99925.8
99918
99908.9
99898.6
99888.1
99877.2
99865.9
99854.4
99843
99831
99820.4
99799.7
99781.9
99771.6
99768.4
99759.9
99751.1
99742.2
99733.6
99727.2
99720.6
99713.5
99706.9
99701.7
99695
99684.2
99672.8
99663.2
99656.4
99648.9
99641.9
99635.5
99626.4
99621.2
99616.5
99612.8
99610.1
99607.5
99609.1
99608.5
99609.7
99610.3
99610.8
99611.6
99614.4
99618
99622.9
99628.1
99630.6
99635.8
99647
99656
99658.2
99653.4
99651.3
99651.8
99651.9
99658.2
99673.9
99681
99701
99715.1
99727.5
99746.8
99766.4
99791.6
99813.1
99839.7
99866.6
99894.7
99924.1
99954.5
99984.7
100015
100046
100077
100107
100137
100166
100192
100217
100243
100270
100296
100322
100347
100372
100396
100417
100438
100457
100477
100496
100515
100533
100552
100569
100585
100600
100610
100618
100628
100641
100649
100659
100672
100679
100682
100687
100699
100707
100712
100717
100721
100717
100716
100720
100720
100720
100716
100714
100711
100706
100701
100696
100692
100685
100677
100666
100655
100645
100633
100622
100609
100598
100577
100568
100560
100541
100531
100510
100501
100486
100471
100455
100442
100430
100417
100404
100395
100386
100375
100359
100345
100337
100329
100321
100315
100314
100318
100318
100320
100324
100327
100332
100337
100338
100337
100339
100342
100345
100349
100353
100357
100363
100370
100375
100373
100373
100379
100386
100393
100401
100411
100424
100433
100443
100453
100464
100474
100484
100497
100510
100523
100537
100550
100565
100581
100593
100608
100623
100640
100656
100673
100691
100708
100726
100745
100762
100777
100797
100816
100835
100853
100871
100890
100907
100924
100942
100958
100975
100991
101006
101021
101035
101049
101062
101074
101086
101097
101108
101117
101126
101135
101142
101149
101155
101160
101164
101168
101171
101173
101174
101175
101175
101174
101173
101171
101168
101164
101160
101155
101150
101144
101138
101131
101123
101116
101107
101099
101090
101081
101071
101061
101051
101041
101031
101020
101010
100999
100989
100978
100967
100957
100947
100937
100927
100917
100908
100899
100890
100882
100874
100866
100859
100852
100846
100841
100836
100831
100827
100824
100821
100819
100817
100816
100816
100817
100818
100820
100823
100826
100830
100835
100840
100846
100853
100860
100868
100877
100886
100896
100906
100917
100928
100940
100953
100965
100978
100992
101006
101020
101035
101050
101065
101080
101095
101111
101126
101142
101157
101173
101189
101204
101220
101235
101250
101265
101279
101293
101307
101321
101334
101346
101359
101370
101382
101392
101403
101412
101421
101430
101437
101445
101451
101457
101462
101467
101471
101474
101476
101478
101479
101480
101480
101479
101478
101476
101474
101470
101467
101463
101458
101453
101447
101441
101435
101428
101421
101413
101405
101397
101389
101381
101373
101364
101355
101347
101338
101331
99480.5
99481.9
99479.3
99481.1
99481.7
99482.6
99483.5
99484.9
99486.9
99489
99491.2
99493.8
99496.5
99498.9
99501.5
99503.9
99507.1
99508.2
99513.2
99517.5
99521.9
99517.8
99527.1
99535.1
99539.2
99543.1
99546.9
99551
99554.2
99554.8
99556.5
99558.9
99559.6
99561.3
99561.3
99558.4
99555.6
99555.7
99552.9
99548
99545.1
99542.6
99542.4
99547.5
99552.5
99561.4
99572.6
99586.7
99602.8
99618.1
99635.6
99656.9
99677.9
99694
99714.6
99733.5
99753.3
99773.7
99780.8
99799.8
99804.4
99823.4
99827.6
99832.7
99833.7
99834.1
99826.7
99822.3
99812.5
99800.4
99787.7
99771.3
99757.8
99740.5
99721.5
99702.9
99685.6
99673.3
99654.7
99648.6
99639.8
99637.5
99641.9
99648.2
99663.4
99666.8
99674.8
99683.8
99701
99725
99743.2
99761.1
99779.8
99795.9
99817.5
99842
99866.8
99889.3
99907.9
99926.4
99945.3
99951.7
99952.6
99954.2
99953
99948.3
99943.7
99935.2
99922
99908.2
99899.8
99893.9
99887.7
99880.6
99873
99865.2
99857.1
99848.5
99839.7
99830.5
99823.9
99812.1
99800
99789.5
99778.8
99767.5
99756.6
99745.1
99733.7
99723.8
99713.1
99701
99688.3
99677.4
99671.7
99666.4
99657.7
99649.5
99644
99638
99633.9
99630
99623.2
99618.2
99614.5
99609.3
99606.5
99600
99596.8
99595.8
99597.7
99599
99600.4
99605.4
99613
99622.5
99632
99642.3
99643.6
99637.7
99630.9
99629.9
99631.8
99629.4
99633.7
99639.1
99650.8
99660.2
99673.8
99685.4
99696.7
99711.6
99717.4
99741.5
99762.6
99777.9
99811.5
99837
99861
99888.8
99918.2
99947.5
99975.1
100004
100037
100070
100099
100131
100161
100189
100215
100242
100269
100296
100323
100349
100373
100396
100418
100439
100459
100481
100501
100522
100541
100555
100565
100577
100590
100598
100610
100622
100635
100645
100657
100671
100678
100689
100682
100697
100703
100707
100710
100711
100712
100716
100715
100716
100717
100714
100713
100709
100703
100699
100693
100685
100681
100674
100666
100655
100644
100632
100621
100608
100594
100585
100567
100556
100546
100528
100514
100500
100487
100473
100458
100443
100434
100423
100412
100405
100392
100384
100376
100366
100359
100352
100347
100341
100337
100334
100328
100319
100310
100306
100307
100309
100312
100317
100321
100326
100332
100339
100346
100353
100362
100371
100382
100385
100386
100392
100400
100407
100415
100425
100430
100431
100441
100452
100463
100473
100485
100499
100512
100525
100537
100548
100560
100575
100589
100606
100623
100640
100657
100677
100697
100715
100730
100746
100765
100780
100801
100819
100838
100857
100873
100891
100909
100925
100943
100959
100976
100992
101007
101022
101036
101050
101063
101075
101087
101098
101108
101118
101127
101135
101142
101149
101155
101160
101164
101168
101171
101173
101175
101175
101175
101174
101173
101171
101168
101164
101160
101155
101150
101144
101138
101131
101124
101116
101108
101099
101090
101081
101071
101061
101051
101041
101031
101020
101010
100999
100989
100978
100967
100957
100947
100937
100927
100917
100908
100899
100890
100882
100874
100866
100859
100852
100846
100840
100835
100831
100827
100823
100821
100819
100817
100816
100816
100817
100818
100820
100822
100826
100830
100834
100840
100846
100853
100860
100868
100876
100886
100895
100906
100917
100928
100940
100952
100965
100978
100992
101006
101020
101035
101049
101064
101080
101095
101111
101126
101142
101157
101173
101189
101204
101219
101235
101250
101264
101279
101293
101307
101320
101334
101346
101359
101370
101382
101392
101403
101412
101421
101430
101437
101445
101451
101457
101462
101467
101471
101474
101476
101478
101479
101480
101480
101479
101478
101476
101473
101470
101467
101463
101458
101453
101447
101441
101435
101428
101420
101413
101405
101397
101389
101381
101372
101364
101355
101347
101338
101330
99480.1
99482
99478.9
99480.5
99481.2
99482.2
99483
99483.9
99485.1
99486.6
99488.4
99491.5
99495.1
99498.5
99501.8
99505
99508.8
99510.6
99518
99522.6
99526.7
99524.5
99531.1
99537.7
99540.9
99543.6
99546.2
99548.2
99551.5
99553.5
99556.3
99560.1
99561.5
99562.2
99562.1
99559.9
99556.6
99556
99552.1
99547.2
99544.8
99542.4
99541.4
99543.5
99546.8
99553.9
99565
99575.3
99590.1
99607.5
99628.4
99652.6
99676
99697.5
99721.2
99742.2
99764.2
99781.6
99801.2
99812.1
99826.3
99836.7
99844
99846.4
99848.2
99847.3
99839.5
99832.5
99820.7
99806.6
99791.7
99772.5
99756.2
99735.5
99712.1
99692.2
99677.6
99656.5
99647.5
99633.2
99629.7
99611.6
99612.9
99616.4
99617.7
99647.5
99651.6
99670
99693
99721
99752.2
99786.2
99811.4
99828.1
99844.2
99860.7
99877.2
99893.4
99906
99914.7
99921.1
99930.4
99937.6
99943.2
99945
99944.4
99942.8
99937.7
99930.3
99922.1
99912.4
99901.5
99890.3
99879.5
99868.9
99857.8
99846.7
99835.4
99822.5
99808.4
99798.9
99792.2
99783.8
99775.2
99767.1
99758
99749.4
99740.3
99731
99722.9
99715.1
99706.4
99695.3
99684.1
99673.4
99664
99653.1
99643.5
99635.4
99626
99619.5
99616.1
99612.3
99607.9
99601.8
99597
99595.2
99592.8
99591.3
99591
99591.5
99592.8
99596.5
99603
99609.2
99613.9
99615
99612
99609.5
99608.5
99612.1
99621.5
99634
99642.1
99648.1
99661.6
99655.1
99656.5
99663.9
99672.3
99682.8
99695.9
99716.6
99733.9
99758.1
99780.7
99810.6
99835.1
99863.3
99891.9
99921.4
99953.6
99982.8
100012
100041
100070
100099
100129
100159
100189
100216
100243
100270
100295
100321
100346
100371
100394
100417
100439
100458
100477
100492
100510
100528
100544
100556
100573
100590
100598
100616
100634
100650
100662
100663
100671
100675
100671
100686
100697
100703
100709
100712
100713
100718
100723
100722
100716
100717
100714
100711
100705
100698
100693
100686
100680
100675
100670
100662
100653
100644
100633
100622
100609
100596
100582
100568
100554
100541
100526
100512
100498
100482
100467
100452
100439
100423
100410
100396
100385
100374
100370
100367
100355
100351
100348
100345
100342
100339
100336
100337
100335
100329
100328
100326
100323
100323
100324
100325
100327
100329
100333
100337
100339
100339
100344
100356
100365
100373
100381
100391
100399
100407
100422
100431
100435
100445
100456
100469
100475
100480
100493
100506
100519
100531
100544
100558
100574
100586
100605
100626
100644
100658
100670
100686
100704
100725
100743
100761
100775
100795
100815
100835
100853
100871
100889
100907
100924
100942
100958
100975
100991
101006
101021
101035
101049
101062
101075
101087
101098
101108
101118
101127
101135
101142
101149
101155
101160
101165
101168
101171
101173
101175
101176
101176
101175
101173
101171
101168
101165
101161
101156
101151
101145
101138
101131
101124
101116
101108
101099
101090
101081
101071
101062
101052
101041
101031
101021
101010
100999
100989
100978
100968
100957
100947
100937
100927
100917
100908
100899
100890
100882
100874
100866
100859
100852
100846
100840
100835
100831
100827
100823
100821
100819
100817
100816
100816
100817
100818
100820
100822
100826
100830
100834
100840
100846
100852
100860
100868
100876
100886
100895
100906
100917
100928
100940
100952
100965
100978
100992
101006
101020
101034
101049
101064
101080
101095
101110
101126
101142
101157
101173
101188
101204
101219
101234
101249
101264
101279
101293
101307
101320
101334
101346
101358
101370
101381
101392
101402
101412
101421
101430
101437
101445
101451
101457
101462
101467
101471
101474
101476
101478
101479
101480
101480
101479
101478
101476
101474
101471
101467
101463
101458
101453
101448
101442
101435
101428
101421
101414
101406
101398
101390
101382
101373
101365
101356
101348
101338
101330
99480.2
99482.6
99479.1
99480.6
99481.3
99482.2
99483.1
99484.2
99485.9
99487.6
99489
99490.6
99492.3
99494.6
99497.5
99500.3
99502.4
99505.2
99512.8
99517.2
99522.5
99523.8
99533.4
99540.8
99545.6
99549.6
99552.8
99555.2
99557.2
99558.2
99558.6
99559.1
99557.3
99554.7
99552.5
99549.8
99545.7
99544.7
99539.7
99533.7
99530.3
99528.2
99526.9
99526.2
99528.6
99534.4
99542.5
99554.6
99573.1
99592.2
99615.1
99642.2
99668
99693.5
99721.5
99745.7
99770.2
99791.5
99810.5
99822
99835.9
99851.1
99856
99858.7
99858.5
99856.8
99848.5
99839
99825.8
99809.5
99793.2
99773.4
99756.3
99735.8
99710.4
99693.5
99671.9
99657.5
99638.6
99629.9
99618.6
99620.6
99606
99620.5
99614
99635.5
99627.5
99640.6
99652.1
99678
99699.7
99727.2
99756.2
99787.1
99816.4
99843.4
99868.9
99894.9
99919.7
99932.7
99936.9
99939
99940.3
99941.8
99939.9
99935.8
99931.8
99925.1
99913.4
99907.7
99900.4
99892
99883
99873.9
99864.8
99855.1
99845.4
99835.9
99827.4
99818
99807
99794.8
99783.8
99773.4
99762.8
99751.8
99740.9
99729.7
99717.6
99705.5
99695.8
99688.5
99681.8
99673.9
99665.8
99657.7
99647.9
99640.2
99633.9
99625.2
99617.7
99610.6
99605.7
99599.7
99592.9
99585.3
99582.1
99580.6
99579.9
99579.7
99580.6
99581.8
99584.4
99587.1
99590.1
99594
99599.4
99605.5
99611.8
99621.3
99631.1
99643.5
99653.8
99653
99644.1
99634.6
99628.6
99636.7
99661.4
99669.9
99682.7
99693.2
99724
99740.4
99762.8
99780.1
99796.9
99832.2
99858.5
99886.2
99915.2
99946.2
99978.2
100010
100041
100072
100101
100131
100161
100190
100217
100244
100272
100299
100325
100350
100374
100397
100417
100438
100459
100479
100498
100517
100536
100555
100573
100592
100607
100615
100623
100624
100638
100651
100653
100660
100671
100669
100696
100700
100700
100712
100715
100709
100714
100714
100710
100720
100716
100712
100711
100707
100701
100696
100691
100687
100681
100673
100665
100655
100645
100633
100622
100608
100596
100583
100569
100555
100542
100528
100514
100500
100484
100472
100458
100442
100431
100419
100409
100401
100387
100381
100370
100357
100349
100343
100335
100321
100313
100308
100309
100308
100310
100312
100314
100316
100319
100322
100326
100331
100335
100341
100349
100356
100358
100361
100365
100370
100375
100381
100390
100395
100399
100408
100422
100431
100439
100450
100462
100472
100482
100495
100507
100519
100532
100545
100563
100579
100592
100601
100616
100636
100650
100668
100687
100702
100724
100744
100762
100779
100801
100820
100840
100858
100874
100891
100910
100925
100942
100959
100976
100992
101008
101023
101037
101051
101064
101076
101087
101098
101108
101118
101127
101135
101143
101150
101156
101161
101165
101169
101172
101174
101175
101176
101176
101175
101174
101171
101168
101165
101161
101156
101151
101145
101139
101132
101124
101116
101108
101099
101090
101081
101072
101062
101052
101041
101031
101021
101010
100999
100989
100978
100968
100957
100947
100937
100927
100917
100908
100899
100890
100882
100874
100866
100859
100852
100846
100840
100835
100831
100827
100823
100820
100818
100817
100816
100816
100816
100818
100820
100822
100825
100829
100834
100839
100845
100852
100860
100868
100876
100885
100895
100905
100916
100928
100940
100952
100965
100978
100991
101005
101020
101034
101049
101064
101079
101095
101110
101126
101141
101157
101173
101188
101204
101219
101234
101249
101264
101279
101293
101307
101320
101333
101346
101358
101370
101381
101392
101402
101412
101421
101429
101437
101444
101451
101457
101462
101467
101471
101474
101476
101478
101480
101480
101480
101479
101478
101476
101474
101471
101467
101463
101459
101453
101448
101442
101435
101428
101421
101414
101406
101398
101390
101382
101373
101365
101356
101348