/*--------------------------------*- C++ -*----------------------------------*\
| =========                 |                                                 |
| \\      /  F ield         | OpenFOAM: The Open Source CFD Toolbox           |
|  \\    /   O peration     | Version:  v1812                                 |
|   \\  /    A nd           | Web:      www.OpenFOAM.com                      |
|    \\/     M anipulation  |                                                 |
\*---------------------------------------------------------------------------*/
FoamFile
{
    version     2.0;
    format      ascii;
    class       surfaceScalarField;
    location    "0.9";
    object      phi;
}
// * * * * * * * * * * * * * * * * * * * * * * * * * * * * * * * * * * * * * //

dimensions      [1 0 -1 0 0 0 0];
oriented        oriented;


internalField   nonuniform List<scalar> 
40240
(
-0.000429103
-2.37382e-05
-0.000869449
-1.24858e-05
-0.00135969
3.78122e-05
-0.00183134
1.94386e-05
-0.00228669
3.56925e-06
-0.00273096
-6.79684e-06
-0.00316984
-1.12018e-05
-0.00360908
-9.51717e-06
-0.00404985
-6.35303e-06
-0.00448449
-1.05849e-05
-0.0049034
-2.40594e-05
-0.0053054
-3.84263e-05
-0.00569458
-4.83826e-05
-0.00607619
-5.30999e-05
-0.00646369
-4.36525e-05
-0.00678439
-0.000107893
-0.00707236
-0.000137087
-0.00719248
-0.000302583
-0.00748255
-0.000125475
-0.00760441
-0.000292483
-0.00765072
-0.00036426
-0.00773639
-0.000319931
-0.00811149
-2.64654e-05
-0.00853562
2.68617e-05
-0.00892584
-5.53003e-06
-0.00932985
1.48119e-05
-0.00972697
1.16238e-05
-0.0100755
-3.15592e-05
-0.0104092
-4.12981e-05
-0.0108148
3.58617e-05
-0.0113769
0.000197967
-0.012166
0.000429404
-0.0131982
0.000679098
-0.0141338
0.000589714
-0.0148482
0.000372041
-0.0154977
0.000315055
-0.0162631
0.000439418
-0.0171
0.000517418
-0.0179836
0.000571819
-0.0188217
0.000533887
-0.0195925
0.000473709
-0.020419
0.000537883
-0.0213985
0.000696255
-0.0223287
0.000651506
-0.0232464
0.000643459
-0.0240558
0.000539567
-0.0245489
0.000229078
-0.0248029
-6.00606e-06
-0.0255546
0.000495557
-0.0261499
0.000343037
-0.0258734
-0.000517306
-0.0253587
-0.000768741
-0.0241178
-0.0014716
-0.022948
-0.00137692
-0.0217647
-0.00137919
-0.0204411
-0.00150845
-0.0189541
-0.00165924
-0.0174581
-0.00165573
-0.0163146
-0.00129519
-0.0156251
-0.000833703
-0.0154131
-0.00034848
-0.0151482
-0.00039506
-0.0145876
-0.000684847
-0.0141161
-0.000590494
-0.0138897
-0.000337687
-0.0134096
-0.000587311
-0.0135835
7.097e-05
-0.0138382
0.00015601
-0.0138255
-0.000108972
-0.0139232
3.08698e-06
-0.0143274
0.000321003
-0.0151792
0.00077078
-0.0164872
0.00123175
-0.0182135
0.00165381
-0.0202522
0.00197046
-0.022513
0.00219738
-0.0248941
0.00232269
-0.0272724
0.00232466
-0.0295044
0.00218382
-0.0315439
0.00199661
-0.0333507
0.0017692
-0.0350057
0.00162257
-0.036447
0.00141436
-0.037719
0.00124874
-0.0387946
0.00105654
-0.0395751
0.000765017
-0.0402046
0.000617753
-0.0408369
0.000623909
-0.0411282
0.000287753
-0.0411067
-2.08402e-05
-0.0407515
-0.000348439
-0.0399287
-0.000816963
-0.0387924
-0.00112628
-0.0374596
-0.0013053
-0.0359823
-0.00145058
-0.0343773
-0.00161166
-0.0326655
-0.00177149
-0.0308423
-0.0017951
-0.0288814
-0.00185853
-0.0268233
-0.00197277
-0.0247543
-0.00208731
-0.0227148
-0.00207013
-0.0207559
-0.00194665
-0.0191162
-0.0015783
-0.0180099
-0.00104411
-0.0172535
-0.000721957
-0.0163765
-0.000864028
-0.0155197
-0.000844594
-0.0145701
-0.00092219
-0.0136675
-0.000865888
-0.0128208
-0.000812986
-0.0119874
-0.000805157
-0.0111402
-0.000820921
-0.0102935
-0.000819911
-0.00946033
-0.000806288
-0.00864393
-0.000790706
-0.00783768
-0.000782496
-0.00703333
-0.000782647
-0.00623101
-0.00078253
-0.00541126
-0.0008024
-0.00469334
-0.000698646
-0.00394189
-0.000738026
-0.00323785
-0.000694232
-0.00248439
-0.000743984
-0.00157562
-0.000902148
-0.000590779
-0.000981432
0.000364429
-0.000958324
0.00123744
-0.000873503
0.00202719
-0.000792845
0.00274162
-0.00071941
0.00337149
-0.000638314
0.00390534
-0.00054531
0.00431991
-0.000428915
0.00460172
-0.000298824
0.00475138
-0.000169133
0.00477895
-4.88643e-05
0.00472366
3.16608e-05
0.00455467
0.00014301
0.00434773
0.000178126
0.00416727
0.000149161
0.0040153
0.000118184
0.00385372
0.000125424
0.00378696
2.62867e-05
0.00349701
0.000246613
0.00297457
0.000476047
0.00234502
0.000580595
0.00172321
0.000569593
0.00112881
0.000539139
0.000565217
0.000504898
-7.14465e-06
0.000510478
-0.000579064
0.000509076
-0.00113712
0.000492988
-0.00163371
0.000428089
-0.00200032
0.000296017
-0.00227417
0.00020512
-0.00233219
-1.34816e-05
-0.00251617
0.000102093
-0.00289763
0.000305973
-0.00343854
0.000459307
-0.00398754
0.000463832
-0.0044525
0.000373788
-0.00487042
0.000338451
-0.00543377
0.000493885
-0.00639567
0.000795078
-0.0074557
0.000976188
-0.00844161
0.00098093
-0.00943255
0.000907465
-0.010445
0.0010271
-0.0116964
0.0011458
-0.0129207
0.00100081
-0.0138631
0.000857162
-0.0146966
0.00076981
-0.015427
0.000664726
-0.0160969
0.000618449
-0.016683
0.000501605
-0.0171388
0.000381563
-0.0174502
0.000229176
-0.0176701
0.000139395
-0.0178364
8.60238e-05
-0.0179721
5.64838e-05
-0.0180503
-5.16955e-07
-0.0180676
-6.01017e-05
-0.018008
-0.000136063
-0.0178475
-0.000236095
-0.0175998
-0.000322177
-0.0172783
-0.000395072
-0.0169322
-0.000418686
-0.0165651
-0.000438976
-0.0161892
-0.000446925
-0.0158195
-0.00043978
-0.0154666
-0.000421867
-0.0151179
-0.000416413
-0.0147621
-0.000422364
-0.0144015
-0.000425833
-0.0140493
-0.000416451
-0.0137142
-0.00039772
-0.0134044
-0.000371179
-0.0131376
-0.000326812
-0.0129228
-0.000273068
-0.0127543
-0.000225341
-0.0126233
-0.000186076
-0.012493
-0.000183824
-0.012365
-0.000179881
-0.0122288
-0.000186959
-0.0120937
-0.000182504
-0.0119732
-0.000166507
-0.0118916
-0.000130651
-0.011813
-0.000121666
-0.0117385
-0.000115674
-0.0117002
-8.58519e-05
-0.0116971
3.92817e-05
-0.011722
-1.7638e-05
-0.0117155
-4.51474e-05
-0.0116639
-8.41093e-05
-0.0115611
-0.000134871
-0.0114743
-0.000118127
-0.01148
-2.42396e-05
-0.0116156
0.000107704
-0.0117547
0.000115092
-0.0117648
-1.80504e-05
-0.0117527
-3.72822e-05
-0.0117665
-9.43459e-06
-0.0118381
4.70854e-05
-0.0119314
7.08223e-05
-0.0119491
-4.16437e-06
-0.0119173
-5.03506e-05
-0.011877
-5.39349e-05
-0.0118298
-5.77218e-05
-0.0117459
-9.79806e-05
-0.0116489
-0.00011642
-0.0115484
-0.000124036
-0.0114827
-9.82493e-05
-0.0114722
-3.22438e-05
-0.0114575
-3.2302e-05
-0.0114319
-4.71778e-05
-0.0114198
-4.25057e-05
-0.0113688
-3.89582e-05
-0.0113277
-5.26139e-05
-0.011308
-3.61283e-05
-0.0112995
-1.74851e-05
-0.0113036
-1.40414e-05
-0.0113222
5.82948e-06
-0.0114019
6.25227e-05
-0.0115298
0.000109325
-0.0117032
0.000149611
-0.0119041
0.000190178
-0.0121263
0.000210871
-0.0123877
0.000270569
-0.0126993
0.000315294
-0.0130594
0.000355029
-0.0134738
0.000382675
-0.0138958
0.000435396
-0.0143516
0.000477142
-0.0148135
0.000463701
-0.0152482
0.000434088
-0.0156457
0.000394992
-0.0159955
0.000363877
-0.0163119
0.000331227
-0.0165776
0.000273796
-0.0167956
0.000228797
-0.0169365
0.000166176
-0.0170069
9.11847e-05
-0.017161
0.000167105
-0.0173698
0.000225501
-0.0175382
0.000187719
-0.0176579
0.000142251
-0.0177664
0.000134559
-0.0178334
8.66138e-05
-0.0178386
3.85005e-05
-0.0176489
-0.000160142
-0.0173872
-0.000230938
-0.0170562
-0.000299319
-0.0166688
-0.000355029
-0.0162793
-0.000356314
-0.0158997
-0.000345353
-0.0154997
-0.000364175
-0.0149852
-0.000477626
-0.014341
-0.000606804
-0.0136423
-0.000661098
-0.0129285
-0.000676746
-0.012214
-0.000677862
-0.0115121
-0.000665661
-0.0108445
-0.000630985
-0.0102293
-0.0005748
-0.00968998
-0.000511829
-0.00935828
-0.000298503
-0.00909694
-0.000218869
-0.00872876
-0.000330265
-0.00828858
-0.000400007
-0.00783099
-0.000418463
-0.00742597
-0.000367677
-0.00711176
-0.000278778
-0.00685334
-0.00022443
-0.00658383
-0.000236963
-0.00628795
-0.000264928
-0.00606649
-0.000192282
-0.00591605
-0.000123162
-0.00580065
-9.00073e-05
-0.00570572
-7.15163e-05
-0.00562956
-5.45568e-05
-0.00558784
-2.23062e-05
-0.00558208
1.26426e-05
-0.0055966
2.88459e-05
-0.00564413
5.91051e-05
-0.0057367
0.000101201
-0.00586896
0.000138264
-0.0060207
0.000155044
-0.00617863
0.000157933
-0.00632826
0.000146993
-0.00645838
0.000124119
-0.00657325
0.000105659
-0.00668509
9.93822e-05
-0.00678901
8.83813e-05
-0.00688561
7.77164e-05
-0.00698433
7.65499e-05
-0.00710361
9.38798e-05
-0.007238
0.000105503
-0.00736528
9.52073e-05
-0.00751333
0.000112725
-0.00771877
0.00016687
-0.00787093
0.000110435
-0.00797942
6.37056e-05
-0.00806072
3.32971e-05
-0.00813425
2.23793e-05
-0.008211
2.28255e-05
-0.00827948
1.08859e-05
-0.00834225
3.30449e-06
-0.00840588
4.74449e-06
-0.00846112
-1.08387e-05
-0.00851051
-1.90062e-05
-0.00855624
-2.60665e-05
-0.0085987
-3.1899e-05
-0.00863874
-3.69983e-05
-0.00867648
-4.18905e-05
-0.00871264
-4.59322e-05
-0.0087477
-4.93767e-05
-0.00878262
-5.17195e-05
-0.008818
-5.33054e-05
-0.00885401
-5.45401e-05
-0.00889127
-5.49896e-05
-0.00892952
-5.55283e-05
-0.00896994
-5.46825e-05
-0.0090125
-5.37227e-05
-0.00905667
-5.30993e-05
-0.00910272
-5.20371e-05
-0.00914997
-5.14319e-05
-0.00919896
-5.00575e-05
-0.00924918
-4.89711e-05
-0.00930026
-4.8088e-05
-0.00935206
-4.72525e-05
-0.00940455
-4.63093e-05
-0.00945787
-4.50549e-05
-0.00951154
-4.39302e-05
-0.00956534
-4.29539e-05
-0.00961877
-4.18341e-05
-0.00967175
-4.06564e-05
-0.00972434
-3.97063e-05
-0.00977572
-3.89363e-05
-0.0098255
-3.82793e-05
-0.00987345
-3.76209e-05
-0.00991949
-3.68335e-05
-0.00996357
-3.58923e-05
-0.0100055
-3.48562e-05
-0.010045
-3.38804e-05
-0.0100818
-3.30448e-05
-0.0101154
-3.2333e-05
-0.0101457
-3.16048e-05
-0.0101727
-3.05984e-05
-0.0101966
-2.92916e-05
-0.0102174
-2.77893e-05
-0.0102348
-2.63798e-05
-0.0102481
-2.55342e-05
-0.0102566
-2.53869e-05
-0.0102595
-2.54238e-05
-0.0102593
-2.38855e-05
-0.0102568
-2.04615e-05
-0.0102516
-1.74411e-05
-0.0102398
-1.8479e-05
-0.0102211
-1.97622e-05
-0.0101972
-1.92645e-05
-0.0101689
-1.7964e-05
-0.0101363
-1.66047e-05
-0.0100993
-1.52234e-05
-0.0100579
-1.39389e-05
-0.0100122
-1.27641e-05
-0.00996202
-1.16873e-05
-0.00990748
-1.06973e-05
-0.00984864
-9.77855e-06
-0.00978559
-8.91608e-06
-0.00971847
-8.0964e-06
-0.00964745
-7.29941e-06
-0.00957272
-6.50151e-06
-0.00949452
-5.67576e-06
-0.00941311
-4.81366e-06
-0.00932878
-3.91176e-06
-0.00924177
-2.9849e-06
-0.00915228
-2.03607e-06
-0.0090606
-1.25118e-06
-0.00896682
-4.51185e-07
-0.00887223
1.3796e-06
-0.00877639
1.46939e-06
-0.00867906
2.38998e-06
-0.00858099
3.20528e-06
-0.0084823
4.0162e-06
-0.00838326
4.76346e-06
-0.00828422
5.54903e-06
-0.00818548
6.25082e-06
-0.00808709
6.84491e-06
-0.00798921
7.27101e-06
-0.00789201
9.2792e-06
-0.00779679
8.39143e-06
-0.00770261
8.40073e-06
-0.00760975
8.71404e-06
-0.00751863
9.00772e-06
-0.00742933
9.26078e-06
-0.00734213
9.42029e-06
-0.00725727
9.54913e-06
-0.00717495
9.61644e-06
-0.00709537
9.60397e-06
-0.00701869
9.49594e-06
-0.00694504
9.29021e-06
-0.00687458
9.03275e-06
-0.00680743
8.7015e-06
-0.00674372
8.30581e-06
-0.00668362
7.89131e-06
-0.00662729
7.46799e-06
-0.00657493
7.07079e-06
-0.00652663
6.62017e-06
-0.00648244
6.08053e-06
-0.00644239
5.4384e-06
-0.00640649
4.69809e-06
-0.00637485
3.97659e-06
-0.00634765
3.34036e-06
-0.00632506
2.83501e-06
-0.0063071
2.30945e-06
-0.00629353
1.52285e-06
-0.00628398
2.32156e-07
-0.00628028
8.46033e-07
-0.00628291
2.15452e-06
-0.00628821
-6.74004e-07
-0.00629612
-3.26822e-06
-0.00630865
-3.88676e-06
-0.00632615
-4.13373e-06
-0.00634851
-4.4985e-06
-0.00637559
-4.98883e-06
-0.00640722
-5.59483e-06
-0.00644329
-6.26033e-06
-0.00648368
-6.96386e-06
-0.0065283
-7.68638e-06
-0.00657703
-8.41969e-06
-0.00662976
-9.16749e-06
-0.00668635
-9.91777e-06
-0.00674668
-1.0656e-05
-0.00681058
-1.14127e-05
-0.00687787
-1.22202e-05
-0.0069484
-1.3027e-05
-0.00702203
-1.38354e-05
-0.00709859
-1.46316e-05
-0.00717791
-1.54273e-05
-0.0072598
-1.62135e-05
-0.0073441
-1.69838e-05
-0.0074306
-1.77579e-05
-0.00751909
-1.85107e-05
-0.00760938
-1.92527e-05
-0.00770126
-1.99383e-05
-0.00779452
-2.05762e-05
-0.00788888
-2.12232e-05
-0.00798408
-2.1848e-05
-0.00807992
-2.24196e-05
-0.00817615
-2.29738e-05
-0.00827253
-2.35208e-05
-0.00836865
-2.40684e-05
-0.0084642
-2.47009e-05
-0.00855902
-2.5183e-05
-0.00865246
-2.56841e-05
-0.0087442
-2.62909e-05
-0.00883416
-2.67729e-05
-0.00892194
-2.72637e-05
-0.0090073
-2.76708e-05
-0.00909002
-2.79075e-05
-0.00917004
-2.7868e-05
-0.00924738
-2.74761e-05
-0.00932209
-2.6725e-05
-0.00939412
-2.56518e-05
-0.00946311
-2.45753e-05
-0.00952781
-2.42196e-05
-0.00958684
-2.50634e-05
-0.00963841
-2.72068e-05
-0.00968001
-3.18557e-05
-0.00970785
-4.02726e-05
-0.00971579
-5.45606e-05
-0.00971072
-6.18732e-05
-0.00969797
-6.30335e-05
-0.00964364
-9.94163e-05
-0.00954128
-0.000141266
-0.00939917
-0.000174741
-0.00923982
-0.000186337
-0.00908426
-0.000176502
-0.00896886
-0.000127783
-4.37411e-05
-0.000567255
9.06427e-05
-0.00117936
0.000146775
-0.00182794
0.000233928
-0.00244887
0.000188108
-0.00305056
0.000153418
-0.00364697
0.000138505
-0.00424477
0.000136497
-0.00484978
0.000146695
-0.00546393
0.000160621
-0.00608009
0.000160297
-0.00668803
0.000140853
-0.00728619
0.000119275
-0.00787964
0.000107529
-0.00846094
9.35474e-05
-0.00899448
5.80381e-05
-0.00944586
-8.62056e-05
-0.00979998
-0.000208804
-0.0101861
-0.000338283
-0.010521
-0.000208528
-0.0108011
-0.000426787
-0.0108744
-0.000702885
-0.0108916
-0.000708969
-0.0114889
0.000170356
-0.0123629
0.000504709
-0.0132383
0.000476599
-0.0141071
0.000494869
-0.0149539
0.000474961
-0.0157456
0.000380072
-0.0165217
0.000360164
-0.0173967
0.000542947
-0.018392
0.00082765
-0.019508
0.00118415
-0.0208201
0.0016391
-0.0226054
0.00203235
-0.0245789
0.00200142
-0.0264466
0.00184755
-0.0282645
0.00193163
-0.0301619
0.00209655
-0.0322027
0.00230236
-0.0343358
0.00236483
-0.0364
0.00224312
-0.0379532
0.00179864
-0.0385611
0.00101559
-0.0385659
0.000371959
-0.0384939
0.000295342
-0.0385153
0.000290836
-0.038503
-5.18386e-05
-0.0384904
-0.000282626
-0.0382048
-5.01284e-05
-0.0376088
-0.000509826
-0.0367991
-0.00157635
-0.0358883
-0.00192687
-0.0351319
-0.00245113
-0.0340958
-0.00261662
-0.0329055
-0.0027578
-0.0315437
-0.00304169
-0.0300427
-0.00332052
-0.0284744
-0.00337416
-0.0268866
-0.00302696
-0.0252678
-0.00259042
-0.0242144
-0.00153341
-0.0248341
9.49982e-05
-0.0257545
0.000116213
-0.0261816
-0.000279245
-0.0261495
-0.000478933
-0.0262676
-0.000576052
-0.0274551
0.00115098
-0.0298738
0.00247017
-0.0323134
0.00222438
-0.0353388
0.00293103
-0.0383109
0.00320172
-0.0411686
0.00354111
-0.0439273
0.00390685
-0.0467024
0.00435054
-0.0495379
0.00473276
-0.0524255
0.00501726
-0.0553207
0.00515514
-0.0581791
0.00512525
-0.0608716
0.00482411
-0.0632938
0.00437273
-0.0653114
0.00374592
-0.0669178
0.00319315
-0.0679843
0.00245099
-0.0683852
0.00162407
-0.0683437
0.000992929
-0.0678484
0.00025169
-0.066686
-0.000560032
-0.0653042
-0.000767336
-0.0638537
-0.00117262
-0.0622997
-0.00157487
-0.0607446
-0.00190455
-0.059104
-0.00245156
-0.0573516
-0.00288793
-0.0554876
-0.00315484
-0.0534803
-0.00340831
-0.0512879
-0.0037771
-0.0488197
-0.00423784
-0.0463117
-0.00446296
-0.0437353
-0.00445435
-0.0409203
-0.00459346
-0.0379717
-0.00490585
-0.0351995
-0.00492094
-0.0325812
-0.00466239
-0.0299909
-0.00414169
-0.0273737
-0.00351505
-0.0248322
-0.00317112
-0.0224415
-0.00326913
-0.0206795
-0.00264551
-0.019638
-0.0019455
-0.0186081
-0.00185672
-0.0175227
-0.00186439
-0.0163792
-0.00192202
-0.0151726
-0.00200321
-0.0139198
-0.00204766
-0.0126402
-0.00206069
-0.0113516
-0.00205538
-0.0100673
-0.00204454
-0.00879876
-0.00203076
-0.00755591
-0.00200643
-0.0063464
-0.00199528
-0.00513273
-0.00189681
-0.00352357
-0.00233005
-0.00137896
-0.00283011
0.000781693
-0.00289656
0.00276776
-0.00288201
0.0045647
-0.00277579
0.00621089
-0.00260286
0.007831
-0.00250209
0.00943387
-0.0024059
0.0109967
-0.00229665
0.0124964
-0.00215485
0.0139026
-0.0019704
0.0151667
-0.00171412
0.0162124
-0.00136753
0.0169176
-0.000899452
0.0172395
-0.000397864
0.0172647
-2.34253e-05
0.0171572
0.000219069
0.0169089
0.000392144
0.0165688
0.000452137
0.0162014
0.0004451
0.0157081
0.0005755
0.0150336
0.000658994
0.0141283
0.00110746
0.0129155
0.00164223
0.0114611
0.00198711
0.00985783
0.00212255
0.00813593
0.00220856
0.00634213
0.00224365
0.00452004
0.00227741
0.00266246
0.00230666
0.000699925
0.0023926
-0.00114779
0.00220447
-0.00244551
0.00153074
-0.00332196
0.00101119
-0.00419605
0.000783289
-0.00508319
0.000916509
-0.0060258
0.00116923
-0.00702474
0.00137719
-0.0080319
0.00139918
-0.0090181
0.00128828
-0.00997856
0.00121064
-0.010935
0.00133893
-0.0120137
0.00191374
-0.0135789
0.00260872
-0.015413
0.00219936
-0.0165659
0.00211791
-0.0179393
0.00263967
-0.0193464
0.00209106
-0.0202377
0.00259233
-0.0217571
0.00190686
-0.022715
0.00144739
-0.0234552
0.00137282
-0.0242057
0.00114922
-0.0247594
0.00101207
-0.0252523
0.000774448
-0.0256243
0.000524564
-0.0259097
0.000343555
-0.0261234
0.000219097
-0.0262655
0.000118257
-0.02633
-1.58696e-05
-0.0263284
-0.000139749
-0.0262521
-0.000289307
-0.0261146
-0.000449504
-0.025916
-0.000595175
-0.0256646
-0.000719816
-0.0253782
-0.000777264
-0.025064
-0.000824315
-0.0247319
-0.000849122
-0.0243926
-0.000847894
-0.0240565
-0.000825637
-0.0237256
-0.000813748
-0.0234012
-0.000811818
-0.0230866
-0.00080411
-0.0227868
-0.000778692
-0.0225055
-0.00073999
-0.0222441
-0.000692164
-0.0220075
-0.000621526
-0.0217986
-0.000538569
-0.0216148
-0.000464057
-0.0214561
-0.000398242
-0.0213047
-0.000386974
-0.0211644
-0.0003706
-0.0210267
-0.000373755
-0.0208902
-0.000363107
-0.0207684
-0.00034223
-0.0206689
-0.000210789
-0.0206699
-0.000162755
-0.0207356
-9.29132e-05
-0.0207976
-5.94104e-05
-0.0208627
-9.13877e-05
-0.0210344
0.000107016
-0.0211629
5.51587e-05
-0.0212493
-3.05374e-05
-0.0213111
-0.000103236
-0.0213802
-7.8318e-05
-0.0215587
0.000126867
-0.0218563
0.000378982
-0.0221648
0.000399149
-0.0223718
0.000165428
-0.0225417
0.000107937
-0.0227275
0.000153025
-0.0229429
0.000238722
-0.023183
0.000288052
-0.023393
0.000185026
-0.0235446
8.2665e-05
-0.0236887
7.42668e-05
-0.0238065
4.3426e-05
-0.0238942
-2.8796e-05
-0.0240043
-3.34628e-05
-0.024105
-5.54991e-05
-0.0242323
1.54715e-05
-0.024448
0.000131785
-0.0246
0.000120417
-0.0246667
7.88817e-05
-0.0247098
1.92508e-05
-0.0248253
1.00952e-06
-0.0249342
2.37997e-05
-0.0250618
8.72102e-05
-0.0252664
0.000145004
-0.0255205
0.000239107
-0.0258503
0.000287527
-0.0262085
0.000372953
-0.026615
0.000517266
-0.0270235
0.00055257
-0.0274126
0.000688169
-0.0279964
0.000745378
-0.0285981
0.000861669
-0.0292443
0.000948715
-0.0299378
0.000991274
-0.030591
0.00120106
-0.0314144
0.00121081
-0.032226
0.00124946
-0.032956
0.00114999
-0.0336094
0.00110682
-0.0341627
0.00099398
-0.0346142
0.000813222
-0.0349437
0.000655589
-0.035148
0.00050863
-0.0352666
0.000324482
-0.0353111
0.000223801
-0.0351701
-3.75076e-05
-0.0347718
-0.000204121
-0.0342543
-0.000270614
-0.0336705
-0.00037747
-0.0330322
-0.000474767
-0.0323426
-0.000529212
-0.0316556
-0.000574146
-0.0309877
-0.000602959
-0.0303073
-0.000812571
-0.02957
-0.000938214
-0.0287415
-0.00109678
-0.0278331
-0.00123196
-0.0268933
-0.00126418
-0.0259551
-0.00125099
-0.0250318
-0.00125424
-0.0240766
-0.00139895
-0.0230803
-0.00156922
-0.0220652
-0.00164257
-0.0210442
-0.0016648
-0.020016
-0.00167348
-0.0189777
-0.00167075
-0.0179379
-0.00163419
-0.0169281
-0.0015399
-0.0160535
-0.00135156
-0.0157065
-0.000607486
-0.0154304
-0.000461702
-0.0150859
-0.000639829
-0.0147012
-0.000748341
-0.0143029
-0.000780678
-0.0139147
-0.000720696
-0.0135591
-0.000600328
-0.0132393
-0.00051108
-0.0129395
-0.000504662
-0.0126599
-0.000513641
-0.0124273
-0.000395237
-0.0122436
-0.000278982
-0.0121018
-0.000205788
-0.0119989
-0.000150116
-0.0119339
-9.71972e-05
-0.0119032
-3.27962e-05
-0.0119059
3.40972e-05
-0.0119497
8.76476e-05
-0.0120287
0.000150736
-0.0121387
0.000220606
-0.0122753
0.000281459
-0.0124328
0.000316247
-0.0126056
0.00033123
-0.0127909
0.000329838
-0.0129804
0.000307933
-0.0131716
0.000287848
-0.0133668
0.000282251
-0.0135621
0.000268268
-0.0137551
0.000251945
-0.0139466
0.000246041
-0.0141424
0.000264246
-0.0143385
0.000272836
-0.0145269
0.000251496
-0.0147138
0.000264247
-0.0149095
0.000323893
-0.0150879
0.000246904
-0.0152504
0.000181225
-0.0153979
0.000132529
-0.0155345
0.000107734
-0.015664
9.80902e-05
-0.0157824
7.14923e-05
-0.015891
5.21179e-05
-0.0159934
4.52731e-05
-0.0160867
1.58976e-05
-0.0161718
-2.43895e-06
-0.0162509
-1.89492e-05
-0.0163241
-3.30183e-05
-0.0163928
-4.53996e-05
-0.0164576
-5.6735e-05
-0.0165194
-6.62463e-05
-0.0165787
-7.4446e-05
-0.0166364
-8.06004e-05
-0.0166931
-8.52093e-05
-0.0167493
-8.88191e-05
-0.0168056
-9.08467e-05
-0.0168619
-9.28281e-05
-0.0169191
-9.24787e-05
-0.0169772
-9.16946e-05
-0.0170364
-9.10304e-05
-0.0170968
-8.94552e-05
-0.0171583
-8.84339e-05
-0.017221
-8.6195e-05
-0.0172847
-8.42619e-05
-0.0173492
-8.24874e-05
-0.0174146
-8.0752e-05
-0.0174806
-7.8899e-05
-0.0175472
-7.66037e-05
-0.0176139
-7.45247e-05
-0.0176806
-7.27609e-05
-0.0177467
-7.0666e-05
-0.0178123
-6.85432e-05
-0.0178771
-6.68818e-05
-0.0179407
-6.5383e-05
-0.0180027
-6.40657e-05
-0.0180628
-6.28131e-05
-0.0181207
-6.14755e-05
-0.0181763
-6.00094e-05
-0.0182292
-5.84619e-05
-0.0182791
-5.70078e-05
-0.0183259
-5.57317e-05
-0.0183693
-5.46216e-05
-0.018409
-5.35375e-05
-0.0184447
-5.21669e-05
-0.0184764
-5.05001e-05
-0.0185039
-4.86428e-05
-0.0185269
-4.68898e-05
-0.0185452
-4.5747e-05
-0.0185587
-4.54317e-05
-0.0185672
-4.51662e-05
-0.0185704
-4.38433e-05
-0.0185694
-3.93237e-05
-0.0185637
-3.50629e-05
-0.018551
-3.75724e-05
-0.0185328
-3.8849e-05
-0.0185091
-3.81e-05
-0.01848
-3.65312e-05
-0.0184453
-3.49706e-05
-0.0184052
-3.33857e-05
-0.0183596
-3.18981e-05
-0.0183086
-3.05152e-05
-0.0182524
-2.92227e-05
-0.0181911
-2.80115e-05
-0.0181247
-2.68653e-05
-0.0180536
-2.57678e-05
-0.0179778
-2.47034e-05
-0.0178975
-2.36475e-05
-0.017813
-2.25714e-05
-0.0177246
-2.14395e-05
-0.0176324
-2.02418e-05
-0.0175367
-1.89701e-05
-0.0174379
-1.76416e-05
-0.0173361
-1.62628e-05
-0.0172317
-1.50889e-05
-0.0171248
-1.38532e-05
-0.0170162
-1.11776e-05
-0.0169061
-1.08262e-05
-0.0167945
-9.36827e-06
-0.0166818
-8.03669e-06
-0.0165684
-6.72092e-06
-0.0164543
-5.38119e-06
-0.0163401
-4.07097e-06
-0.0162259
-2.84282e-06
-0.0161121
-1.68384e-06
-0.0159989
-7.73388e-07
-0.0158867
1.89341e-06
-0.0157755
1.272e-06
-0.0156658
1.8486e-06
-0.0155578
2.59175e-06
-0.0154518
3.3111e-06
-0.0153478
3.96943e-06
-0.0152462
4.53772e-06
-0.0151473
5.04772e-06
-0.0150512
5.47858e-06
-0.0149582
5.80917e-06
-0.0148686
6.02238e-06
-0.0147824
6.11918e-06
-0.0147
6.14822e-06
-0.0146215
6.08851e-06
-0.0145471
5.94531e-06
-0.014477
5.77144e-06
-0.0144113
5.58015e-06
-0.0143502
5.41099e-06
-0.0142938
5.18272e-06
-0.0142422
4.85298e-06
-0.0141957
4.41279e-06
-0.0141542
3.86146e-06
-0.0141179
3.32462e-06
-0.0140868
2.83573e-06
-0.014061
2.47697e-06
-0.0140405
2.1108e-06
-0.0140253
1.53558e-06
-0.0140155
3.04233e-07
-0.0140117
1.82442e-06
-0.0140137
3.66228e-06
-0.0140201
-1.61919e-07
-0.0140318
-2.66426e-06
-0.0140489
-3.12113e-06
-0.0140713
-3.19325e-06
-0.0140991
-3.47484e-06
-0.0141322
-3.91569e-06
-0.0141704
-4.51087e-06
-0.0142137
-5.20083e-06
-0.0142619
-5.98135e-06
-0.014315
-6.83378e-06
-0.0143727
-7.74618e-06
-0.014435
-8.69814e-06
-0.0145016
-9.70023e-06
-0.0145724
-1.07624e-05
-0.0146471
-1.18937e-05
-0.0147256
-1.31523e-05
-0.0148076
-1.44774e-05
-0.0148929
-1.58724e-05
-0.0149813
-1.73257e-05
-0.0150725
-1.88541e-05
-0.0151663
-2.0449e-05
-0.0152623
-2.21091e-05
-0.0153603
-2.38732e-05
-0.01546
-2.57058e-05
-0.0155611
-2.76308e-05
-0.0156631
-2.95941e-05
-0.0157657
-3.16173e-05
-0.0158686
-3.37803e-05
-0.0159713
-3.60535e-05
-0.0160734
-3.8416e-05
-0.0161745
-4.09209e-05
-0.0162741
-4.35718e-05
-0.0163718
-4.64424e-05
-0.0164673
-4.9362e-05
-0.0165596
-5.24904e-05
-0.0166481
-5.60562e-05
-0.0167326
-5.97897e-05
-0.0168122
-6.36698e-05
-0.0168865
-6.78172e-05
-0.0169548
-7.21638e-05
-0.0170164
-7.6665e-05
-0.0170707
-8.12249e-05
-0.0171169
-8.5814e-05
-0.0171542
-9.05328e-05
-0.0171817
-9.56154e-05
-0.0171979
-0.000101401
-0.0172012
-0.000109522
-0.0171965
-0.000114294
-0.0171782
-0.000123668
-0.0171463
-0.000137213
-0.0170998
-0.000154457
-0.0170386
-0.000177891
-0.0169585
-0.000198226
-0.0168609
-0.000211131
-0.0167465
-0.000258433
-0.0166155
-0.000310716
-0.0164694
-0.000352929
-0.0163107
-0.00037068
-0.0161412
-0.000365581
-0.0159779
-0.000303794
-0.000130448
-0.000574853
0.000212973
-0.00118554
0.000305015
-0.00183856
0.000434922
-0.00248801
0.000385701
-0.00312411
0.000338093
-0.00374748
0.000311161
-0.00436916
0.000308502
-0.00500278
0.000331972
-0.00564988
0.000360999
-0.00629793
0.000363485
-0.00693422
0.000334442
-0.00755872
0.000303704
-0.00817793
0.000289431
-0.00878676
0.000268129
-0.00935856
0.000198791
-0.00988599
1.33509e-05
-0.010347
-0.000171398
-0.0107748
-0.000331561
-0.011231
-0.000170451
-0.0118493
-0.000219664
-0.012563
-0.000396157
-0.0133643
-0.000309528
-0.0140978
0.000506372
-0.0148453
0.00085897
-0.0156434
0.00088645
-0.0164848
0.000950399
-0.0173948
0.00100392
-0.0184011
0.00100923
-0.0195069
0.00109312
-0.0207095
0.00137775
-0.0219369
0.0016914
-0.0231199
0.00200892
-0.024272
0.0024397
-0.0255972
0.00301842
-0.0272441
0.00330884
-0.0289847
0.00325493
-0.0306916
0.0033113
-0.032444
0.00353266
-0.0344035
0.0039543
-0.0366221
0.00428237
-0.0387871
0.00411187
-0.0403944
0.00311184
-0.0412759
0.00160686
-0.0418679
0.000681357
-0.042288
0.000436346
-0.0423222
5.13991e-05
-0.0421026
-0.00054205
-0.0417377
-0.000914365
-0.0411457
-0.000903033
-0.0405657
-0.00134056
-0.0403061
-0.00207772
-0.0400829
-0.00237823
-0.0396355
-0.00310601
-0.0388273
-0.00361164
-0.0378789
-0.00387692
-0.036895
-0.00418304
-0.0359358
-0.00442966
-0.0350916
-0.00436128
-0.0343865
-0.00387269
-0.0341335
-0.00298015
-0.034092
-0.00170598
-0.0337644
-0.000357624
-0.0336556
-0.000112486
-0.0337935
-0.000257064
-0.0348301
0.00043971
-0.0364703
0.000949441
-0.0379612
0.00253164
-0.0399054
0.004305
-0.0429993
0.0052126
-0.0464194
0.00625023
-0.049984
0.00666816
-0.0534768
0.00694019
-0.0567335
0.00707491
-0.0596916
0.007226
-0.0622522
0.00721723
-0.0643506
0.00704567
-0.0659794
0.0067193
-0.0672165
0.00630388
-0.0682158
0.00576863
-0.0690258
0.0051332
-0.0696462
0.00432402
-0.069761
0.00326932
-0.0696679
0.0023242
-0.069554
0.0014811
-0.0692865
0.000699405
-0.0688532
-0.000204109
-0.0680149
-0.00141457
-0.0665782
-0.00221978
-0.0649851
-0.00277295
-0.0632367
-0.00333135
-0.0615146
-0.00362937
-0.0597715
-0.00419046
-0.0579251
-0.00471326
-0.0559734
-0.00513076
-0.0539598
-0.00546824
-0.0518046
-0.00588719
-0.0494465
-0.0064417
-0.0468166
-0.00695383
-0.0440566
-0.00727041
-0.0413604
-0.00751289
-0.0385383
-0.00771816
-0.0355655
-0.0077116
-0.0326381
-0.00745799
-0.0298087
-0.00698546
-0.0270702
-0.00634054
-0.0244124
-0.00584455
-0.0218455
-0.00575607
-0.0193817
-0.00502564
-0.0169701
-0.00431507
-0.0147436
-0.00405844
-0.0127137
-0.00386858
-0.0108288
-0.00377749
-0.00900722
-0.00379503
-0.0071582
-0.00386839
-0.00524179
-0.00395013
-0.00323763
-0.00403377
-0.00113187
-0.00412587
0.00108702
-0.00422689
0.00343004
-0.00432817
0.00590356
-0.00445013
0.00850257
-0.00447833
0.0110093
-0.00482416
0.013222
-0.00503282
0.0150749
-0.00474572
0.0164412
-0.00424832
0.017623
-0.00395709
0.0188636
-0.00384447
0.0201763
-0.00381705
0.0215515
-0.00378714
0.022975
-0.00372918
0.0243985
-0.00359094
0.0257889
-0.00337737
0.0270957
-0.00304128
0.0282387
-0.00253417
0.0292223
-0.00190932
0.0300938
-0.00129842
0.0309226
-0.000882026
0.0317956
-0.000685982
0.0327096
-0.000556558
0.0334626
-0.000338603
0.033792
7.04393e-05
0.0337515
0.00056104
0.0330146
0.00134121
0.03157
0.00249684
0.0296675
0.00348785
0.0275858
0.00401043
0.0254869
0.00416173
0.0233779
0.0042559
0.0212015
0.00435532
0.018885
0.00452761
0.0164938
0.00463241
0.0141756
0.00464351
0.0119916
0.00432497
0.00986589
0.00358608
0.00779184
0.00300762
0.00580394
0.00268926
0.00379957
0.00284459
0.00160121
0.00329177
-0.000841906
0.00373669
-0.00340406
0.00386996
-0.0058887
0.00369095
-0.00819444
0.00342902
-0.0102431
0.00332808
-0.0119952
0.00355796
-0.0135387
0.00393103
-0.0148935
0.00383034
-0.0165251
0.00356412
-0.0179683
0.00353915
-0.019158
0.00365487
-0.0204866
0.00333434
-0.0212898
0.0029981
-0.0223323
0.00252288
-0.0232929
0.00215172
-0.0240309
0.0018361
-0.0246649
0.00153111
-0.0251346
0.00116351
-0.0254662
0.00077093
-0.0255568
0.000352332
-0.0253653
-5.40781e-05
-0.0249872
-0.000340699
-0.0245265
-0.000555199
-0.0240396
-0.0007042
-0.0235329
-0.000872112
-0.0230002
-0.00105691
-0.0224569
-0.00121184
-0.0219013
-0.00134744
-0.021355
-0.0013944
-0.020825
-0.00142402
-0.0203306
-0.00141226
-0.0198981
-0.00134803
-0.0195428
-0.00124757
-0.0192548
-0.00116727
-0.0190233
-0.00110773
-0.0188451
-0.0010457
-0.0187211
-0.000965129
-0.0186531
-0.000869332
-0.018637
-0.000768662
-0.018685
-0.000632563
-0.0188116
-0.000469447
-0.0190093
-0.000322557
-0.0192632
-0.000199016
-0.0195336
-0.000169571
-0.0198065
-0.000149377
-0.0200671
-0.000162247
-0.0203259
-0.000155212
-0.0205958
-0.000111584
-0.0208685
-4.23279e-05
-0.0211025
3.03594e-05
-0.0213388
0.000103905
-0.0215887
0.000144723
-0.0218237
0.000127992
-0.0220638
0.000321419
-0.0223122
0.000261419
-0.0225639
0.000189778
-0.0228382
0.000141699
-0.0230947
0.000150984
-0.023385
0.000391504
-0.0236991
0.00066907
-0.0240133
0.000690679
-0.0242976
0.000428496
-0.0245809
0.000369657
-0.0248639
0.000414853
-0.0251501
0.000503718
-0.0254382
0.000555181
-0.0257185
0.000445826
-0.0259723
0.000318031
-0.0262255
0.00031139
-0.0264605
0.000263963
-0.0266675
0.00016324
-0.0268578
0.000144077
-0.0270128
7.34367e-05
-0.027176
0.000136323
-0.0275409
0.000504906
-0.0280496
0.000596578
-0.0285553
0.000446789
-0.0288868
0.000483157
-0.0292854
0.000396031
-0.0296891
0.000427178
-0.0301095
0.000475088
-0.0305126
0.000562352
-0.0309649
0.000647181
-0.0314117
0.000753689
-0.031911
0.000935441
-0.032425
0.000696425
-0.032818
0.00123554
-0.0335084
0.000934072
-0.0337134
0.0011162
-0.0341578
0.00142756
-0.03483
0.00125471
-0.0351962
0.00158488