/*--------------------------------*- C++ -*----------------------------------*\
| =========                 |                                                 |
| \\      /  F ield         | OpenFOAM: The Open Source CFD Toolbox           |
|  \\    /   O peration     | Version:  v1812                                 |
|   \\  /    A nd           | Web:      www.OpenFOAM.com                      |
|    \\/     M anipulation  |                                                 |
\*---------------------------------------------------------------------------*/
FoamFile
{
    version     2.0;
    format      ascii;
    class       volScalarField;
    location    "0.9";
    object      T;
}
// * * * * * * * * * * * * * * * * * * * * * * * * * * * * * * * * * * * * * //

dimensions      [0 0 0 1 0 0 0];


internalField   nonuniform List<scalar> 
20400
(
290.319
290.297
290.255
290.199
290.135
290.068
290.003
289.944
289.893
289.852
289.821
289.801
289.792
289.792
289.804
289.825
289.858
289.899
289.951
290.01
290.075
290.141
290.214
290.289
290.36
290.427
290.491
290.549
290.603
290.652
290.699
290.747
290.796
290.85
290.908
290.967
291.034
291.102
291.172
291.246
291.321
291.394
291.464
291.53
291.567
291.573
291.566
291.515
291.443
291.312
291.164
291.037
290.894
290.789
290.741
290.734
290.789
290.914
291.079
291.281
291.511
291.759
292.026
292.266
292.514
292.73
292.923
293.105
293.255
293.362
293.442
293.487
293.501
293.492
293.466
293.426
293.379
293.331
293.285
293.241
293.201
293.162
293.128
293.095
293.064
293.037
293.011
292.98
292.954
292.933
292.913
292.895
292.875
292.857
292.845
292.829
292.809
292.787
292.773
292.761
292.74
292.713
292.689
292.669
292.646
292.609
292.568
292.519
292.477
292.431
292.387
292.345
292.305
292.267
292.23
292.193
292.153
292.113
292.072
292.031
291.993
291.958
291.915
291.877
291.843
291.806
291.768
291.727
291.683
291.637
291.588
291.536
291.479
291.417
291.348
291.272
291.189
291.099
291.005
290.907
290.807
290.703
290.599
290.5
290.404
290.317
290.243
290.18
290.133
290.103
290.09
290.089
290.125
290.194
290.212
290.269
290.329
290.4
290.466
290.534
290.601
290.664
290.727
290.793
290.837
290.878
290.938
290.959
291.002
291.057
291.057
291.093
291.112
291.123
291.146
291.162
291.176
291.188
291.199
291.208
291.22
291.232
291.246
291.26
291.277
291.295
291.315
291.338
291.364
291.392
291.423
291.457
291.494
291.534
291.576
291.621
291.667
291.715
291.764
291.815
291.866
291.918
291.971
292.026
292.083
292.142
292.202
292.266
292.328
292.399
292.473
292.544
292.628
292.708
292.787
292.872
292.956
293.041
293.126
293.21
293.289
293.361
293.427
293.484
293.533
293.572
293.596
293.607
293.61
293.596
293.575
293.545
293.499
293.448
293.405
293.357
293.305
293.262
293.216
293.16
293.115
293.076
293.039
293.005
292.973
292.939
292.904
292.873
292.838
292.807
292.778
292.743
292.709
292.676
292.644
292.614
292.588
292.564
292.543
292.526
292.511
292.499
292.49
292.483
292.48
292.48
292.483
292.485
292.495
292.508
292.518
292.533
292.55
292.567
292.584
292.602
292.621
292.639
292.655
292.67
292.685
292.698
292.711
292.722
292.735
292.74
292.744
292.753
292.759
292.765
292.771
292.776
292.781
292.788
292.796
292.803
292.811
292.821
292.831
292.842
292.854
292.867
292.88
292.895
292.909
292.924
292.94
292.957
292.974
292.992
293.01
293.028
293.047
293.066
293.086
293.105
293.125
293.145
293.164
293.183
293.204
293.224
293.244
293.264
293.283
293.302
293.321
293.34
293.358
293.376
293.394
293.411
293.427
293.443
293.458
293.473
293.487
293.5
293.513
293.525
293.537
293.547
293.557
293.567
293.575
293.583
293.59
293.597
293.603
293.608
293.612
293.616
293.618
293.621
293.622
293.623
293.624
293.623
293.622
293.621
293.619
293.616
293.613
293.61
293.606
293.601
293.597
293.591
293.586
293.58
293.574
293.568
293.561
293.554
293.547
293.54
293.533
293.525
293.518
293.51
293.503
293.495
293.488
293.48
293.473
293.466
293.459
293.452
293.446
293.439
293.433
293.428
293.422
293.417
293.412
293.408
293.404
293.401
293.398
293.395
293.393
293.391
293.39
293.39
293.39
293.39
293.391
293.393
293.395
293.398
293.401
293.405
293.409
293.414
293.42
293.426
293.433
293.44
293.448
293.456
293.465
293.474
293.484
293.494
293.504
293.515
293.527
293.538
293.55
293.563
293.575
293.588
293.601
293.614
293.628
293.642
293.655
293.669
293.683
293.697
293.711
293.725
293.739
293.753
293.766
293.78
293.793
293.807
293.82
293.832
293.845
293.857
293.869
293.88
293.891
293.902
293.912
293.922
293.932
293.94
293.949
293.957
293.964
293.971
293.977
293.983
293.989
293.993
293.998
294.001
294.004
294.007
294.009
294.01
294.011
294.012
294.012
294.011
294.01
294.008
294.006
294.003
294
293.997
293.992
293.988
293.982
293.976
293.969
293.959
293.949
293.939
293.928
293.917
293.909
293.901
293.895
293.892
293.885
293.882
290.262
290.239
290.196
290.138
290.072
290.004
289.939
289.882
289.833
289.795
289.768
289.753
289.747
289.752
289.769
289.798
289.837
289.885
289.942
290.008
290.08
290.155
290.226
290.314
290.394
290.468
290.536
290.597
290.651
290.697
290.74
290.783
290.825
290.868
290.923
290.985
291.047
291.111
291.178
291.248
291.313
291.372
291.422
291.452
291.459
291.447
291.412
291.341
291.256
291.126
291
290.891
290.82
290.795
290.814
290.923
291.083
291.271
291.469
291.683
291.932
292.138
292.415
292.665
292.889
293.067
293.187
293.325
293.415
293.448
293.454
293.439
293.402
293.347
293.285
293.218
293.149
293.077
293.007
292.937
292.874
292.812
292.755
292.707
292.671
292.641
292.615
292.59
292.565
292.545
292.526
292.51
292.493
292.471
292.452
292.442
292.435
292.417
292.403
292.401
292.409
292.395
292.377
292.371
292.373
292.364
292.329
292.287
292.227
292.182
292.133
292.083
292.035
291.99
291.946
291.901
291.854
291.807
291.758
291.708
291.66
291.614
291.581
291.54
291.507
291.478
291.451
291.427
291.402
291.378
291.356
291.337
291.321
291.306
291.287
291.258
291.218
291.168
291.119
291.068
291.014
290.952
290.881
290.799
290.709
290.62
290.535
290.452
290.372
290.301
290.242
290.212
290.189
290.167
290.225
290.266
290.318
290.381
290.451
290.521
290.593
290.667
290.735
290.781
290.841
290.952
290.97
291.057
291.122
291.08
291.186
291.218
291.262
291.313
291.309
291.34
291.36
291.376
291.387
291.394
291.399
291.402
291.402
291.401
291.4
291.399
291.398
291.4
291.404
291.413
291.425
291.442
291.463
291.489
291.519
291.553
291.591
291.633
291.677
291.725
291.773
291.823
291.874
291.928
291.984
292.043
292.102
292.166
292.236
292.307
292.385
292.474
292.561
292.647
292.74
292.836
292.931
293.027
293.122
293.215
293.303
293.384
293.459
293.524
293.578
293.618
293.638
293.64
293.625
293.6
293.563
293.519
293.463
293.392
293.311
293.239
293.165
293.109
293.063
293.029
292.986
292.944
292.904
292.861
292.813
292.761
292.732
292.685
292.649
292.607
292.544
292.506
292.45
292.402
292.354
292.312
292.279
292.241
292.208
292.175
292.149
292.136
292.121
292.107
292.097
292.092
292.092
292.093
292.097
292.105
292.116
292.136
292.16
292.189
292.221
292.256
292.294
292.335
292.377
292.42
292.461
292.503
292.544
292.583
292.625
292.642
292.669
292.689
292.707
292.723
292.735
292.745
292.752
292.759
292.766
292.771
292.776
292.781
292.788
292.795
292.803
292.813
292.823
292.834
292.846
292.858
292.872
292.886
292.9
292.916
292.932
292.949
292.966
292.984
293.002
293.021
293.04
293.059
293.079
293.098
293.118
293.138
293.159
293.179
293.199
293.219
293.239
293.259
293.279
293.298
293.317
293.335
293.353
293.37
293.387
293.403
293.419
293.434
293.448
293.462
293.475
293.487
293.498
293.509
293.519
293.528
293.536
293.544
293.55
293.556
293.561
293.566
293.569
293.572
293.575
293.576
293.577
293.577
293.576
293.575
293.573
293.571
293.568
293.565
293.561
293.557
293.552
293.547
293.541
293.536
293.529
293.523
293.516
293.51
293.503
293.495
293.488
293.481
293.473
293.466
293.458
293.45
293.443
293.435
293.428
293.421
293.414
293.407
293.401
293.394
293.388
293.382
293.377
293.372
293.367
293.363
293.359
293.356
293.352
293.35
293.348
293.346
293.345
293.344
293.344
293.345
293.346
293.347
293.349
293.352
293.355
293.359
293.363
293.368
293.374
293.38
293.386
293.394
293.401
293.41
293.418
293.427
293.437
293.447
293.457
293.468
293.479
293.491
293.503
293.515
293.528
293.541
293.554
293.567
293.58
293.594
293.608
293.622
293.635
293.649
293.663
293.677
293.691
293.705
293.718
293.732
293.745
293.758
293.771
293.784
293.796
293.808
293.82
293.832
293.843
293.853
293.863
293.873
293.882
293.891
293.9
293.907
293.915
293.921
293.928
293.933
293.939
293.943
293.947
293.951
293.953
293.956
293.958
293.959
293.96
293.96
293.96
293.959
293.957
293.956
293.953
293.95
293.947
293.943
293.938
293.933
293.928
293.92
293.912
293.903
293.893
293.882
293.872
293.863
293.856
293.85
293.845
293.842
293.836
293.839
290.151
290.128
290.082
290.022
289.954
289.886
289.824
289.77
289.727
289.696
289.677
289.669
289.672
289.686
289.712
289.749
289.798
289.856
289.927
290.005
290.093
290.179
290.275
290.371
290.461
290.542
290.613
290.674
290.723
290.764
290.799
290.832
290.864
290.896
290.935
290.979
291.031
291.084
291.138
291.19
291.236
291.272
291.296
291.302
291.293
291.269
291.229
291.15
291.061
290.975
290.902
290.866
290.866
290.951
291.123
291.345
291.592
291.838
292.063
292.27
292.468
292.682
292.906
293.089
293.232
293.341
293.416
293.44
293.446
293.418
293.357
293.275
293.182
293.084
292.988
292.896
292.808
292.723
292.64
292.561
292.484
292.421
292.364
292.31
292.261
292.218
292.183
292.153
292.126
292.108
292.093
292.084
292.077
292.063
292.036
292.007
291.982
291.976
291.958
291.932
291.915
291.934
291.96
291.974
291.977
291.976
291.968
291.949
291.913
291.864
291.809
291.75
291.69
291.632
291.574
291.516
291.458
291.4
291.341
291.28
291.221
291.157
291.097
291.043
290.982
290.927
290.88
290.837
290.8
290.77
290.748
290.739
290.744
290.759
290.781
290.797
290.8
290.797
290.798
290.803
290.822
290.848
290.87
290.883
290.881
290.865
290.836
290.796
290.746
290.671
290.574
290.484
290.402
290.333
290.313
290.289
290.295
290.318
290.373
290.444
290.523
290.609
290.699
290.8
290.882
290.913
291.033
291.114
291.157
291.289
291.34
291.413
291.49
291.556
291.647
291.703
291.756
291.798
291.835
291.861
291.878
291.887
291.888
291.877
291.857
291.83
291.795
291.756
291.714
291.673
291.633
291.599
291.57
291.549
291.536
291.532
291.536
291.55
291.572
291.601
291.635
291.674
291.715
291.759
291.807
291.86
291.919
291.975
292.038
292.111
292.193
292.279
292.373
292.465
292.566
292.676
292.789
292.903
293.014
293.125
293.233
293.334
293.43
293.516
293.593
293.654
293.693
293.708
293.709
293.681
293.627
293.547
293.439
293.353
293.285
293.162
293.047
292.951
292.86
292.772
292.705
292.647
292.594
292.575
292.515
292.518
292.442
292.374
292.332
292.275
292.233
292.107
292.034
291.972
291.933
291.857
291.78
291.732
291.691
291.64
291.594
291.556
291.52
291.487
291.462
291.438
291.419
291.402
291.388
291.372
291.366
291.366
291.377
291.396
291.423
291.457
291.5
291.554
291.618
291.689
291.768
291.851
291.938
292.025
292.11
292.221
292.306
292.391
292.473
292.545
292.605
292.652
292.687
292.714
292.736
292.749
292.756
292.759
292.761
292.76
292.76
292.76
292.76
292.762
292.764
292.768
292.773
292.779
292.785
292.794
292.803
292.814
292.825
292.838
292.851
292.866
292.881
292.897
292.914
292.93
292.949
292.967
292.987
293.008
293.028
293.05
293.071
293.093
293.114
293.136
293.158
293.179
293.201
293.222
293.242
293.262
293.281
293.3
293.318
293.335
293.352
293.368
293.383
293.397
293.411
293.423
293.435
293.445
293.455
293.463
293.471
293.478
293.484
293.489
293.494
293.497
293.499
293.501
293.502
293.502
293.501
293.5
293.498
293.496
293.493
293.489
293.485
293.48
293.475
293.47
293.464
293.458
293.451
293.444
293.437
293.43
293.423
293.416
293.408
293.401
293.393
293.385
293.378
293.37
293.363
293.355
293.348
293.341
293.334
293.328
293.322
293.316
293.31
293.305
293.3
293.296
293.291
293.288
293.285
293.282
293.28
293.278
293.276
293.275
293.275
293.275
293.276
293.277
293.279
293.282
293.285
293.288
293.292
293.297
293.302
293.308
293.314
293.321
293.329
293.337
293.345
293.354
293.363
293.373
293.383
293.394
293.405
293.416
293.428
293.44
293.453
293.465
293.478
293.491
293.504
293.518
293.531
293.545
293.558
293.572
293.586
293.6
293.614
293.627
293.641
293.654
293.667
293.68
293.693
293.706
293.718
293.73
293.742
293.753
293.764
293.775
293.785
293.795
293.804
293.813
293.821
293.829
293.836
293.843
293.849
293.854
293.859
293.864
293.868
293.871
293.874
293.876
293.878
293.879
293.88
293.88
293.88
293.879
293.877
293.875
293.873
293.87
293.867
293.863
293.858
293.853
293.847
293.84
293.832
293.823
293.814
293.804
293.794
293.784
293.776
293.769
293.764
293.761
293.758
293.76
290
289.976
289.927
289.864
289.795
289.728
289.67
289.623
289.589
289.569
289.562
289.566
289.582
289.609
289.649
289.7
289.764
289.839
289.928
290.025
290.132
290.235
290.345
290.451
290.546
290.629
290.697
290.747
290.784
290.813
290.833
290.85
290.869
290.895
290.922
290.953
290.99
291.031
291.072
291.109
291.136
291.151
291.155
291.152
291.13
291.098
291.05
290.987
290.937
290.9
290.885
290.914
291.054
291.26
291.524
291.818
292.11
292.371
292.593
292.787
292.959
293.132
293.277
293.374
293.44
293.462
293.456
293.438
293.382
293.298
293.19
293.066
292.94
292.813
292.691
292.577
292.469
292.366
292.264
292.166
292.067
291.98
291.898
291.822
291.752
291.689
291.637
291.591
291.556
291.532
291.511
291.495
291.486
291.486
291.494
291.497
291.489
291.47
291.458
291.448
291.442
291.444
291.464
291.502
291.546
291.577
291.594
291.598
291.573
291.53
291.475
291.408
291.333
291.255
291.176
291.097
291.02
290.942
290.865
290.786
290.706
290.623
290.543
290.473
290.399
290.325
290.258
290.195
290.141
290.093
290.055
290.028
290.026
290.035
290.052
290.065
290.069
290.067
290.071
290.088
290.133
290.217
290.333
290.457
290.56
290.627
290.668
290.694
290.714
290.729
290.73
290.719
290.691
290.649
290.591
290.513
290.425
290.361
290.353
290.372
290.421
290.493
290.584
290.685
290.783
290.878
290.988
291.093
291.211
291.341
291.456
291.579
291.705
291.834
291.966
292.092
292.217
292.332
292.434
292.519
292.59
292.647
292.688
292.707
292.709
292.687
292.645
292.584
292.505
292.412
292.31
292.203
292.092
291.982
291.875
291.777
291.693
291.627
291.582
291.557
291.549
291.551
291.561
291.578
291.602
291.633
291.67
291.715
291.763
291.821
291.891
291.969
292.064
292.16
292.261
292.381
292.508
292.639
292.765
292.896
293.027
293.154
293.277
293.393
293.504
293.608
293.698
293.765
293.8
293.804
293.776
293.693
293.591
293.459
293.302
293.18
293.057
292.924
292.807
292.696
292.596
292.498
292.402
292.292
292.228
292.104
292.038
291.979
291.887
291.793
291.694
291.65
291.583
291.512
291.43
291.38
291.332
291.266
291.204
291.168
291.124
291.074
291.042
291.009
290.976
290.944
290.912
290.88
290.847
290.815
290.782
290.752
290.726
290.704
290.69
290.681
290.677
290.681
290.699
290.731
290.78
290.848
290.933
291.037
291.16
291.293
291.439
291.594
291.763
291.935
292.102
292.249
292.372
292.479
292.575
292.651
292.704
292.737
292.757
292.766
292.768
292.764
292.756
292.746
292.735
292.725
292.716
292.709
292.702
292.698
292.696
292.694
292.693
292.695
292.697
292.7
292.705
292.711
292.719
292.727
292.737
292.748
292.761
292.776
292.792
292.81
292.829
292.848
292.869
292.89
292.913
292.935
292.959
292.982
293.006
293.03
293.054
293.078
293.101
293.124
293.146
293.168
293.189
293.21
293.229
293.248
293.266
293.282
293.298
293.313
293.326
293.339
293.35
293.361
293.37
293.378
293.385
293.391
293.395
293.399
293.402
293.404
293.405
293.405
293.404
293.402
293.4
293.397
293.393
293.389
293.384
293.379
293.374
293.367
293.361
293.354
293.347
293.34
293.333
293.326
293.318
293.311
293.303
293.296
293.288
293.281
293.273
293.266
293.26
293.253
293.246
293.24
293.235
293.229
293.224
293.22
293.215
293.212
293.208
293.205
293.203
293.201
293.199
293.198
293.198
293.198
293.199
293.2
293.201
293.204
293.206
293.21
293.214
293.218
293.223
293.229
293.235
293.241
293.249
293.256
293.264
293.273
293.282
293.292
293.302
293.312
293.323
293.334
293.346
293.358
293.37
293.382
293.395
293.408
293.421
293.434
293.447
293.461
293.474
293.488
293.501
293.515
293.529
293.542
293.555
293.569
293.582
293.594
293.607
293.619
293.632
293.643
293.655
293.666
293.677
293.687
293.697
293.707
293.716
293.725
293.733
293.741
293.748
293.754
293.76
293.766
293.771
293.775
293.779
293.782
293.785
293.787
293.788
293.789
293.79
293.79
293.789
293.788
293.786
293.784
293.781
293.778
293.774
293.77
293.766
293.76
293.755
293.748
293.741
293.733
293.724
293.715
293.706
293.696
293.687
293.679
293.673
293.669
293.665
293.661
289.821
289.796
289.746
289.68
289.611
289.547
289.496
289.459
289.439
289.433
289.442
289.463
289.496
289.541
289.6
289.67
289.756
289.852
289.963
290.083
290.21
290.332
290.454
290.565
290.658
290.729
290.778
290.805
290.816
290.815
290.813
290.815
290.821
290.834
290.851
290.873
290.902
290.937
290.971
290.998
291.016
291.026
291.029
291.028
291.013
290.991
290.964
290.938
290.926
290.925
290.968
291.097
291.293
291.555
291.862
292.186
292.494
292.756
292.971
293.139
293.281
293.391
293.471
293.5
293.502
293.484
293.424
293.35
293.241
293.115
292.974
292.824
292.675
292.525
292.378
292.236
292.099
291.966
291.834
291.694
291.562
291.421
291.294
291.154
291.032
290.909
290.799
290.704
290.626
290.567
290.524
290.496
290.484
290.499
290.529
290.566
290.6
290.628
290.648
290.663
290.681
290.697
290.726
290.773
290.842
290.915
290.983
291.026
291.031
291.012
290.981
290.933
290.87
290.796
290.715
290.63
290.543
290.455
290.366
290.277
290.186
290.085
289.985
289.893
289.81
289.726
289.648
289.576
289.51
289.452
289.404
289.366
289.343
289.338
289.341
289.34
289.333
289.318
289.319
289.329
289.366
289.443
289.562
289.715
289.867
289.995
290.1
290.197
290.302
290.409
290.509
290.589
290.637
290.662
290.683
290.681
290.646
290.551
290.451
290.411
290.423
290.45
290.489
290.549
290.642
290.756
290.858
290.98
291.126
291.26
291.414
291.568
291.736
291.914
292.098
292.287
292.476
292.666
292.848
293.019
293.174
293.312
293.431
293.531
293.609
293.66
293.681
293.667
293.616
293.535
293.43
293.307
293.162
292.989
292.791
292.577
292.358
292.15
291.968
291.823
291.718
291.647
291.593
291.547
291.511
291.49
291.484
291.497
291.524
291.559
291.604
291.66
291.736
291.82
291.919
292.034
292.159
292.29
292.42
292.557
292.705
292.852
292.999
293.142
293.282
293.427
293.575
293.709
293.813
293.869
293.883
293.85
293.757
293.625
293.466
293.291
293.102
292.907
292.718
292.548
292.395
292.256
292.132
292.016
291.91
291.807
291.723
291.64
291.554
291.477
291.397
291.337
291.271
291.214
291.164
291.128
291.098
291.068
291.043
291.021
291.001
290.988
290.964
290.941
290.921
290.899
290.874
290.845
290.813
290.778
290.732
290.681
290.626
290.565
290.506
290.449
290.393
290.341
290.293
290.25
290.205
290.171
290.153
290.157
290.188
290.251
290.343
290.461
290.613
290.805
291.029
291.266
291.493
291.712
291.936
292.156
292.346
292.493
292.601
292.68
292.735
292.771
292.789
292.794
292.788
292.774
292.759
292.744
292.725
292.708
292.688
292.669
292.649
292.631
292.614
292.598
292.584
292.572
292.561
292.552
292.545
292.539
292.536
292.535
292.537
292.542
292.549
292.558
292.57
292.583
292.598
292.615
292.634
292.654
292.676
292.7
292.724
292.75
292.776
292.803
292.831
292.859
292.886
292.914
292.941
292.968
292.995
293.02
293.045
293.069
293.092
293.114
293.135
293.154
293.173
293.19
293.205
293.22
293.233
293.244
293.255
293.264
293.271
293.277
293.283
293.286
293.289
293.29
293.291
293.29
293.289
293.287
293.284
293.28
293.275
293.27
293.265
293.259
293.253
293.246
293.239
293.233
293.226
293.218
293.211
293.204
293.197
293.19
293.183
293.177
293.17
293.164
293.158
293.153
293.147
293.143
293.138
293.134
293.131
293.128
293.125
293.123
293.122
293.12
293.12
293.12
293.12
293.121
293.123
293.125
293.128
293.131
293.134
293.139
293.143
293.149
293.155
293.161
293.168
293.175
293.183
293.192
293.201
293.21
293.22
293.23
293.24
293.251
293.262
293.274
293.286
293.298
293.311
293.323
293.336
293.349
293.362
293.376
293.389
293.402
293.416
293.429
293.442
293.456
293.469
293.482
293.495
293.507
293.52
293.532
293.544
293.555
293.567
293.578
293.588
293.599
293.608
293.618
293.627
293.635
293.643
293.651
293.658
293.665
293.671
293.676
293.681
293.685
293.689
293.692
293.695
293.697
293.699
293.7
293.7
293.7
293.699
293.698
293.696
293.694
293.691
293.688
293.684
293.68
293.675
293.67
293.665
293.659
293.652
293.645
293.638
293.63
293.621
293.613
293.604
293.595
293.587
293.581
293.576
293.571
289.632
289.607
289.556
289.49
289.424
289.367
289.326
289.304
289.299
289.312
289.341
289.382
289.436
289.503
289.583
289.677
289.784
289.904
290.037
290.178
290.323
290.458
290.584
290.691
290.767
290.81
290.823
290.818
290.798
290.774
290.754
290.741
290.735
290.74
290.754
290.775
290.803
290.837
290.868
290.894
290.916
290.935
290.952
290.965
290.971
290.976
290.983
290.994
291.017
291.06
291.142
291.285
291.489
291.749
292.056
292.381
292.693
292.967
293.181
293.348
293.459
293.531
293.556
293.557
293.526
293.458
293.357
293.238
293.097
292.943
292.781
292.61
292.438
292.262
292.08
291.895
291.707
291.515
291.311
291.108
290.892
290.679
290.468
290.272
290.09
289.922
289.778
289.661
289.568
289.489
289.426
289.376
289.337
289.314
289.311
289.333
289.371
289.417
289.464
289.518
289.58
289.641
289.701
289.772
289.866
289.97
290.082
290.179
290.225
290.237
290.231
290.208
290.169
290.116
290.053
289.982
289.907
289.829
289.747
289.665
289.584
289.498
289.41
289.324
289.238
289.156
289.081
289.012
288.95
288.896
288.849
288.81
288.781
288.762
288.752
288.742
288.727
288.706
288.701
288.707
288.731
288.783
288.869
288.985
289.113
289.23
289.338
289.446
289.574
289.728
289.905
290.088
290.256
290.4
290.514
290.599
290.655
290.666
290.645
290.592
290.536
290.508
290.504
290.516
290.553
290.615
290.704
290.82
290.959
291.101
291.25
291.417
291.593
291.793
292.004
292.224
292.461
292.699
292.938
293.177
293.408
293.632
293.841
294.034
294.209
294.36
294.476
294.551
294.579
294.572
294.542
294.488
294.405
294.28
294.1
293.862
293.573
293.246
292.907
292.596
292.339
292.144
291.993
291.865
291.741
291.616
291.503
291.421
291.386
291.38
291.394
291.417
291.452
291.502
291.576
291.671
291.778
291.904
292.028
292.168
292.326
292.492
292.657
292.82
292.985
293.161
293.343
293.525
293.694
293.83
293.917
293.949
293.939
293.87
293.748
293.57
293.35
293.099
292.845
292.604
292.384
292.188
292.015
291.864
291.735
291.625
291.521
291.436
291.36
291.29
291.234
291.187
291.156
291.137
291.129
291.129
291.143
291.166
291.191
291.218
291.235
291.257
291.28
291.3
291.321
291.34
291.355
291.36
291.357
291.336
291.296
291.234
291.151
291.05
290.934
290.808
290.679
290.551
290.423
290.296
290.178
290.067
289.966
289.876
289.801
289.731
289.689
289.682
289.704
289.775
289.899
290.064
290.262
290.492
290.769
291.085
291.415
291.716
291.977
292.2
292.389
292.542
292.659
292.748
292.808
292.842
292.854
292.851
292.838
292.824
292.806
292.784
292.756
292.725
292.693
292.659
292.625
292.59
292.556
292.52
292.488
292.457
292.428
292.401
292.377
292.356
292.34
292.325
292.315
292.307
292.302
292.299
292.3
292.303
292.31
292.32
292.333
292.349
292.368
292.39
292.415
292.442
292.47
292.501
292.533
292.565
292.599
292.633
292.668
292.702
292.736
292.769
292.802
292.834
292.865
292.895
292.924
292.951
292.977
293.001
293.024
293.046
293.066
293.084
293.1
293.114
293.127
293.138
293.148
293.155
293.161
293.166
293.169
293.171
293.172
293.172
293.17
293.168
293.165
293.161
293.156
293.151
293.146
293.14
293.134
293.128
293.122
293.116
293.109
293.103
293.097
293.091
293.085
293.08
293.074
293.07
293.065
293.061
293.058
293.055
293.052
293.05
293.048
293.047
293.046
293.046
293.046
293.047
293.049
293.051
293.054
293.057
293.06
293.064
293.069
293.074
293.08
293.086
293.093
293.1
293.108
293.116
293.125
293.134
293.144
293.153
293.164
293.174
293.185
293.197
293.208
293.22
293.233
293.245
293.258
293.27
293.283
293.297
293.31
293.323
293.336
293.349
293.362
293.375
293.388
293.401
293.414
293.426
293.439
293.451
293.462
293.474
293.485
293.496
293.506
293.516
293.526
293.535
293.544
293.552
293.56
293.567
293.574
293.581
293.586
293.592
293.597
293.601
293.605
293.608
293.611
293.613
293.614
293.615
293.616
293.615
293.615
293.613
293.612
293.609
293.607
293.603
293.6
293.596
293.591
293.586
293.581
293.575
293.569
293.562
293.555
293.548
293.54
293.532
293.524
293.516
293.508
293.501
293.495
293.49
289.449
289.425
289.374
289.312
289.252
289.207
289.182
289.177
289.193
289.228
289.278
289.343
289.422
289.514
289.619
289.739
289.874
290.021
290.178
290.336
290.488
290.62
290.73
290.811
290.85
290.854
290.827
290.78
290.731
290.685
290.653
290.634
290.626
290.631
290.652
290.682
290.72
290.763
290.803
290.841
290.879
290.916
290.951
290.983
291.013
291.046
291.08
291.114
291.156
291.215
291.301
291.426
291.596
291.824
292.109
292.422
292.736
293.018
293.255
293.427
293.541
293.595
293.608
293.592
293.53
293.425
293.291
293.141
292.975
292.8
292.619
292.428
292.233
292.027
291.802
291.563
291.306
291.028
290.747
290.461
290.189
289.919
289.689
289.493
289.33
289.208
289.098
289.014
288.944
288.877
288.819
288.765
288.708
288.648
288.594
288.552
288.526
288.52
288.529
288.556
288.595
288.649
288.71
288.78
288.867
288.967
289.08
289.194
289.274
289.327
289.351
289.354
289.345
289.322
289.288
289.245
289.196
289.141
289.079
289.011
288.943
288.876
288.809
288.743
288.678
288.616
288.557
288.504
288.455
288.412
288.377
288.351
288.33
288.315
288.303
288.292
288.279
288.264
288.258
288.263
288.28
288.313
288.364
288.433
288.51
288.586
288.665
288.754
288.864
289.003
289.176
289.379
289.602
289.826
290.035
290.224
290.391
290.515
290.586
290.619
290.64
290.64
290.624
290.597
290.592
290.619
290.657
290.72
290.819
290.938
291.074
291.234
291.415
291.609
291.825
292.054
292.301
292.562
292.834
293.114
293.397
293.674
293.939
294.193
294.436
294.663
294.867
295.039
295.171
295.266
295.333
295.375
295.38
295.354
295.271
295.12
294.895
294.599
294.25
293.88
293.522
293.204
292.923
292.669
292.41
292.122
291.825
291.594
291.462
291.394
291.347
291.309
291.288
291.289
291.311
291.369
291.449
291.547
291.666
291.791
291.941
292.109
292.284
292.459
292.64
292.827
293.021
293.223
293.43
293.631
293.8
293.924
294.001
294.025
293.996
293.883
293.69
293.438
293.15
292.853
292.57
292.316
292.091
291.893
291.718
291.57
291.448
291.351
291.277
291.222
291.185
291.164
291.157
291.172
291.205
291.257
291.321
291.392
291.461
291.53
291.595
291.662
291.727
291.78
291.838
291.896
291.95
291.994
292.022
292.032
292.027
291.991
291.93
291.84
291.717
291.565
291.4
291.229
291.049
290.86
290.663
290.46
290.251
290.042
289.844
289.679
289.547
289.44
289.354
289.291
289.28
289.3
289.361
289.478
289.656
289.892
290.177
290.489
290.818
291.156
291.49
291.808
292.092
292.34
292.541
292.691
292.796
292.875
292.927
292.966
292.992
292.999
292.99
292.958
292.917
292.872
292.829
292.784
292.737
292.686
292.639
292.589
292.537
292.482
292.429
292.376
292.327
292.279
292.236
292.195
292.158
292.123
292.09
292.06
292.034
292.011
291.993
291.98
291.972
291.97
291.974
291.982
291.996
292.016
292.04
292.067
292.098
292.133
292.17
292.21
292.251
292.293
292.337
292.381
292.425
292.469
292.512
292.555
292.597
292.638
292.678
292.716
292.753
292.788
292.821
292.853
292.882
292.909
292.933
292.956
292.976
292.993
293.009
293.022
293.033
293.042
293.05
293.055
293.059
293.062
293.063
293.063
293.062
293.06
293.057
293.053
293.049
293.045
293.04
293.035
293.03
293.025
293.02
293.015
293.01
293.005
293.001
292.997
292.993
292.99
292.988
292.985
292.984
292.982
292.982
292.982
292.982
292.983
292.984
292.986
292.989
292.992
292.996
293
293.005
293.01
293.015
293.022
293.028
293.035
293.043
293.051
293.06
293.069
293.078
293.088
293.098
293.108
293.119
293.13
293.142
293.154
293.165
293.178
293.19
293.203
293.215
293.228
293.241
293.254
293.267
293.28
293.293
293.306
293.319
293.332
293.344
293.356
293.368
293.38
293.392
293.403
293.414
293.424
293.435
293.444
293.454
293.463
293.471
293.479
293.487
293.494
293.501
293.507
293.513
293.518
293.523
293.527
293.531
293.534
293.536
293.538
293.54
293.541
293.541
293.541
293.541
293.539
293.538
293.535
293.533
293.53
293.526
293.522
293.517
293.513
293.507
293.502
293.496
293.489
293.483
293.476
293.469
293.462
293.454
293.447
293.439
293.432
293.425
293.42
289.284
289.261
289.214
289.159
289.111
289.083
289.077
289.096
289.137
289.196
289.27
289.356
289.457
289.573
289.705
289.852
290.013
290.186
290.366
290.536
290.685
290.797
290.871
290.902
290.901
290.855
290.78
290.695
290.618
290.56
290.524
290.507
290.502
290.521
290.556
290.602
290.653
290.708
290.76
290.809
290.857
290.904
290.948
290.99
291.031
291.072
291.11
291.155
291.208
291.271
291.352
291.462
291.607
291.796
292.029
292.3
292.6
292.903
293.175
293.382
293.523
293.599
293.617
293.606
293.535
293.411
293.254
293.08
292.895
292.702
292.503
292.295
292.076
291.839
291.573
291.283
290.961
290.623
290.272
289.951
289.669
289.445
289.265
289.153
289.068
289.015
288.945
288.892
288.84
288.788
288.724
288.653
288.574
288.493
288.41
288.328
288.244
288.17
288.115
288.081
288.068
288.07
288.087
288.116
288.16
288.217
288.289
288.37
288.436
288.493
288.535
288.564
288.578
288.579
288.574
288.56
288.538
288.51
288.477
288.438
288.394
288.348
288.304
288.261
288.219
288.177
288.139
288.104
288.071
288.041
288.017
288.001
287.989
287.98
287.972
287.965
287.957
287.952
287.955
287.962
287.977
288
288.032
288.072
288.113
288.155
288.205
288.265
288.341
288.44
288.566
288.726
288.916
289.131
289.36
289.597
289.84
290.081
290.296
290.466
290.575
290.635
290.687
290.707
290.7
290.684
290.691
290.732
290.806
290.892
291.001
291.132
291.297
291.474
291.673
291.891
292.13
292.399
292.675
292.962
293.257
293.557
293.859
294.154
294.438
294.708
294.961
295.194
295.403
295.583
295.733
295.859
295.958
296.021
296.025
295.994
295.904
295.745
295.517
295.238