/*--------------------------------*- C++ -*----------------------------------*\
| =========                 |                                                 |
| \\      /  F ield         | OpenFOAM: The Open Source CFD Toolbox           |
|  \\    /   O peration     | Version:  v1812                                 |
|   \\  /    A nd           | Web:      www.OpenFOAM.com                      |
|    \\/     M anipulation  |                                                 |
\*---------------------------------------------------------------------------*/
FoamFile
{
    version     2.0;
    format      ascii;
    class       volVectorField;
    location    "0.9";
    object      U;
}
// * * * * * * * * * * * * * * * * * * * * * * * * * * * * * * * * * * * * * //

dimensions      [0 1 -1 0 0 0 0];


internalField   nonuniform List<vector> 
20400
(
(-0.0706473 -0.0238777 0)
(-0.21625 -0.0523529 0)
(-0.372303 -0.0585694 0)
(-0.534412 -0.056145 0)
(-0.688572 -0.0407598 0)
(-0.838916 -0.0307951 0)
(-0.986269 -0.0225576 0)
(-1.13273 -0.0146203 0)
(-1.27957 -0.00652349 0)
(-1.42574 0.00250985 0)
(-1.56819 0.0120164 0)
(-1.70507 0.0198611 0)
(-1.83714 0.0259201 0)
(-1.96543 0.0332324 0)
(-2.09274 0.0383383 0)
(-2.22365 0.0105866 0)
(-2.3113 -0.124814 0)
(-2.37928 -0.237856 0)
(-2.42739 0.0761104 0)
(-2.54207 0.178465 0)
(-2.53646 0.297606 0)
(-2.56788 0.387833 0)
(-2.59957 -0.517159 0)
(-2.78183 -0.575888 0)
(-2.91951 -0.573548 0)
(-3.05372 -0.556438 0)
(-3.18906 -0.531467 0)
(-3.31513 -0.512771 0)
(-3.42911 -0.514682 0)
(-3.55279 -0.523743 0)
(-3.71488 -0.528044 0)
(-3.94015 -0.528352 0)
(-4.24731 -0.514377 0)
(-4.60267 -0.414298 0)
(-4.87441 -0.117627 0)
(-5.05596 0.189666 0)
(-5.31778 0.308289 0)
(-5.59171 0.336984 0)
(-5.8829 0.330526 0)
(-6.17535 0.283722 0)
(-6.4446 0.245158 0)
(-6.71398 0.237437 0)
(-7.02022 0.16375 0)
(-7.34996 0.00250362 0)
(-7.6451 -0.213191 0)
(-7.94773 -0.402023 0)
(-8.15192 -0.59272 0)
(-8.26687 -0.750888 0)
(-8.44961 -0.607902 0)
(-8.75238 -0.419991 0)
(-8.79621 0.430229 0)
(-8.57314 0.943595 0)
(-8.2594 0.820828 0)
(-7.85631 0.86125 0)
(-7.47437 0.862825 0)
(-7.05625 0.832134 0)
(-6.58929 0.793434 0)
(-6.08705 0.791636 0)
(-5.64029 0.909953 0)
(-5.35964 1.08981 0)
(-5.20455 1.11003 0)
(-5.1184 -1.29329 0)
(-4.9403 -1.27482 0)
(-4.78699 -0.527217 0)
(-4.70755 0.731009 0)
(-4.49064 0.506006 0)
(-4.54421 -0.724817 0)
(-4.65668 -0.486217 0)
(-4.66637 0.0248101 0)
(-4.67771 -0.0151389 0)
(-4.76532 0.0314932 0)
(-4.9777 0.0585453 0)
(-5.3431 0.105751 0)
(-5.85583 0.143768 0)
(-6.49168 0.155341 0)
(-7.21651 0.169293 0)
(-7.99952 0.208833 0)
(-8.80263 0.284162 0)
(-9.57878 0.352496 0)
(-10.3003 0.399027 0)
(-10.946 0.409406 0)
(-11.5278 0.422423 0)
(-12.0502 0.404869 0)
(-12.5068 0.320733 0)
(-12.8991 0.177244 0)
(-13.2126 0.0491899 0)
(-13.4376 -0.0586977 0)
(-13.6469 -0.14719 0)
(-13.8089 -0.216058 0)
(-13.8531 -0.236589 0)
(-13.7833 -0.250804 0)
(-13.5775 -0.291303 0)
(-13.2428 -0.344214 0)
(-12.8252 -0.364415 0)
(-12.3482 -0.359842 0)
(-11.8279 -0.352371 0)
(-11.2659 -0.337029 0)
(-10.6733 -0.299868 0)
(-10.0372 -0.260231 0)
(-9.35302 -0.240905 0)
(-8.65635 -0.224377 0)
(-7.97316 -0.184388 0)
(-7.29783 -0.0987235 0)
(-6.68068 0.065195 0)
(-6.22121 0.312599 0)
(-5.93887 0.535887 0)
(-5.6465 0.564342 0)
(-5.35626 0.504412 0)
(-5.05536 0.41357 0)
(-4.73631 0.401716 0)
(-4.44459 0.425457 0)
(-4.16294 0.433983 0)
(-3.88067 0.430977 0)
(-3.59575 0.422199 0)
(-3.31364 0.407669 0)
(-3.03674 0.384532 0)
(-2.76446 0.349951 0)
(-2.49432 0.303141 0)
(-2.2243 0.246524 0)
(-1.95792 0.173597 0)
(-1.67587 0.125735 0)
(-1.46449 -0.115844 0)
(-1.20717 -0.233575 0)
(-0.961397 -0.251361 0)
(-0.683689 -0.302538 0)
(-0.363321 -0.326185 0)
(-0.0345007 -0.315133 0)
(0.269208 -0.21888 0)
(0.545561 -0.137711 0)
(0.798937 -0.0994896 0)
(1.02458 -0.0894997 0)
(1.21966 -0.0940334 0)
(1.37876 -0.0972893 0)
(1.49625 -0.0853046 0)
(1.5694 -0.061369 0)
(1.60301 -0.0367939 0)
(1.59835 -0.00628902 0)
(1.55717 0.0351239 0)
(1.48918 0.040878 0)
(1.424 0.030854 0)
(1.36814 0.0155831 0)
(1.31276 -0.0223909 0)
(1.27734 -0.101661 0)
(1.21806 -0.0653889 0)
(1.08287 -0.00862125 0)
(0.887998 0.0345564 0)
(0.678606 0.052254 0)
(0.475714 0.0622924 0)
(0.281911 0.080871 0)
(0.0939866 0.126321 0)
(-0.0978206 0.167559 0)
(-0.286508 0.16202 0)
(-0.466579 0.140525 0)
(-0.622608 0.0436549 0)
(-0.708262 -0.130563 0)
(-0.771045 -0.221523 0)
(-0.804925 -0.172885 0)
(-0.901014 -0.117299 0)
(-1.05872 -0.0920347 0)
(-1.24498 -0.11059 0)
(-1.4138 -0.1394 0)
(-1.55639 -0.142023 0)
(-1.72119 -0.0979855 0)
(-1.97385 -0.0394445 0)
(-2.31257 0.0271052 0)
(-2.66864 0.0289932 0)
(-2.98729 -0.0421186 0)
(-3.32476 -0.0109827 0)
(-3.70776 -0.0138658 0)
(-4.11849 -0.0889029 0)
(-4.47709 -0.0553336 0)
(-4.78419 -0.0900701 0)
(-5.0428 -0.112405 0)
(-5.27268 -0.129694 0)
(-5.48505 -0.14046 0)
(-5.65833 -0.128962 0)
(-5.78713 -0.115472 0)
(-5.8737 -0.0844704 0)
(-5.93771 -0.0533054 0)
(-5.98402 -0.0156963 0)
(-6.02232 0.00365651 0)
(-6.0405 0.0278291 0)
(-6.03028 0.0640263 0)
(-5.98737 0.0724006 0)
(-5.91825 0.0792678 0)
(-5.82114 0.0832704 0)
(-5.70851 0.0894633 0)
(-5.58873 0.0917372 0)
(-5.46359 0.0915134 0)
(-5.33803 0.0899738 0)
(-5.21664 0.0869579 0)
(-5.09915 0.0795987 0)
(-4.98113 0.0680547 0)
(-4.86103 0.0555514 0)
(-4.74161 0.0450716 0)
(-4.62679 0.0363327 0)
(-4.51894 0.030163 0)
(-4.42232 0.0285584 0)
(-4.3419 0.0297505 0)
(-4.27763 0.0313006 0)
(-4.22792 0.0314184 0)
(-4.18449 0.0278616 0)
(-4.1414 0.0235297 0)
(-4.09738 0.0194566 0)
(-4.05215 0.0187138 0)
(-4.0106 0.0195291 0)
(-3.97427 0.023572 0)
(-3.95145 0.0462581 0)
(-3.92642 0.046269 0)
(-3.90132 0.0550157 0)
(-3.89893 0.0289489 0)
(-3.90519 0.0723107 0)
(-3.90793 0.0736259 0)
(-3.90042 0.0631692 0)
(-3.87437 0.0537189 0)
(-3.83905 0.0571541 0)
(-3.82295 0.0792939 0)
(-3.84909 0.111051 0)
(-3.90552 0.111607 0)
(-3.93016 0.0770833 0)
(-3.92642 0.0739988 0)
(-3.92584 0.0798616 0)
(-3.94094 0.0938107 0)
(-3.9732 0.0979018 0)
(-3.99609 0.0756635 0)
(-3.98974 0.0581422 0)
(-3.97678 0.0563963 0)
(-3.96246 0.0523049 0)
(-3.94291 0.0359523 0)
(-3.91004 0.0261513 0)
(-3.87864 0.00858837 0)
(-3.84975 -0.00165966 0)
(-3.83544 -0.00160553 0)
(-3.8318 -0.0125476 0)
(-3.82606 -0.018838 0)
(-3.81757 -0.0317439 0)
(-3.80721 -0.0253045 0)
(-3.79095 -0.0328855 0)
(-3.78103 -0.0357419 0)
(-3.77504 -0.0288118 0)
(-3.77412 -0.0380807 0)
(-3.77821 -0.0288647 0)
(-3.79402 -0.0314221 0)
(-3.83014 -0.0232116 0)
(-3.88176 -0.0163429 0)
(-3.9427 -0.00565892 0)
(-4.01259 0.0118313 0)
(-4.09433 0.0262539 0)
(-4.18821 0.0467605 0)
(-4.30331 0.0618329 0)
(-4.43257 0.0707262 0)
(-4.57002 0.0934719 0)
(-4.71837 0.104983 0)
(-4.87163 0.107754 0)
(-5.02157 0.104754 0)
(-5.161 0.0972503 0)
(-5.28536 0.0858069 0)
(-5.39687 0.078045 0)
(-5.49514 0.0597764 0)
(-5.57597 0.0397651 0)
(-5.64033 0.0117247 0)
(-5.66844 -0.0330775 0)
(-5.709 -0.0313349 0)
(-5.77209 -0.0412266 0)
(-5.83672 -0.071419 0)
(-5.88221 -0.10554 0)
(-5.92044 -0.134308 0)
(-5.95102 -0.161871 0)
(-5.96738 -0.154863 0)
(-5.93688 -0.179481 0)
(-5.85818 -0.193384 0)
(-5.75968 -0.201165 0)
(-5.63912 -0.201596 0)
(-5.5088 -0.189951 0)
(-5.38085 -0.175917 0)
(-5.25015 -0.166617 0)
(-5.09984 -0.17065 0)
(-4.90496 -0.187437 0)
(-4.67975 -0.196963 0)
(-4.44389 -0.196019 0)
(-4.20525 -0.190623 0)
(-3.96845 -0.180421 0)
(-3.73854 -0.165242 0)
(-3.52464 -0.142576 0)
(-3.32103 -0.091699 0)
(-3.18539 -1.76505e-05 0)
(-3.08617 0.0312965 0)
(-2.98239 0.036443 0)
(-2.84595 0.0199337 0)
(-2.69569 0.00914368 0)
(-2.55037 0.0129546 0)
(-2.4301 0.0240372 0)
(-2.33476 0.02563 0)
(-2.24791 0.0120639 0)
(-2.15231 -0.00641054 0)
(-2.06407 -6.92879e-05 0)
(-2.00283 0.006356 0)
(-1.95852 0.00431274 0)
(-1.92342 -0.00102721 0)
(-1.89491 -0.0061132 0)
(-1.87406 -0.00488075 0)
(-1.86581 0.00159343 0)
(-1.86672 -0.00485603 0)
(-1.87838 -0.00683077 0)
(-1.90098 -0.000230789 0)
(-1.93884 0.0044496 0)
(-1.98614 0.00374788 0)
(-2.03766 0.000241432 0)
(-2.08892 -0.00735634 0)
(-2.13535 -0.0155954 0)
(-2.17579 -0.0212953 0)
(-2.21345 -0.0237588 0)
(-2.24943 -0.0264395 0)
(-2.28266 -0.0280684 0)
(-2.31484 -0.0270109 0)
(-2.35069 -0.0219751 0)
(-2.3933 -0.0176939 0)
(-2.43697 -0.0181266 0)
(-2.48085 -0.0116681 0)
(-2.54018 0.00273531 0)
(-2.6015 -0.00951809 0)
(-2.64345 -0.0184534 0)
(-2.6748 -0.022133 0)
(-2.70005 -0.0210486 0)
(-2.72495 -0.0176775 0)
(-2.74909 -0.0166988 0)
(-2.77016 -0.0151677 0)
(-2.79144 -0.0129877 0)
(-2.81085 -0.0124328 0)
(-2.82788 -0.0116064 0)
(-2.8435 -0.0106754 0)
(-2.85788 -0.00992571 0)
(-2.87136 -0.00888345 0)
(-2.88406 -0.00825517 0)
(-2.89611 -0.00766803 0)
(-2.90772 -0.00711845 0)
(-2.91913 -0.00653514 0)
(-2.93062 -0.00597853 0)
(-2.94229 -0.00553775 0)
(-2.9543 -0.00511625 0)
(-2.96668 -0.00474575 0)
(-2.97958 -0.00426443 0)
(-2.99325 -0.0038572 0)
(-3.00753 -0.00362898 0)
(-3.02242 -0.00342745 0)
(-3.03783 -0.00332541 0)
(-3.05373 -0.00313722 0)
(-3.07016 -0.00303682 0)
(-3.08694 -0.00301929 0)
(-3.10399 -0.0030193 0)
(-3.12128 -0.00299392 0)
(-3.13881 -0.00291167 0)
(-3.15663 -0.00285947 0)
(-3.17424 -0.00281132 0)
(-3.19287 -0.00273811 0)
(-3.21031 -0.00265812 0)
(-3.22793 -0.00260237 0)
(-3.24528 -0.00258994 0)
(-3.26217 -0.00258947 0)
(-3.27852 -0.00256621 0)
(-3.29427 -0.00248811 0)
(-3.30939 -0.00235356 0)
(-3.32384 -0.00218614 0)
(-3.33756 -0.00202903 0)
(-3.35042 -0.00190724 0)
(-3.36231 -0.00181374 0)
(-3.37313 -0.00170286 0)
(-3.38287 -0.00150905 0)
(-3.39156 -0.0012179 0)
(-3.39922 -0.000860867 0)
(-3.4058 -0.000530637 0)
(-3.41117 -0.000362293 0)
(-3.41501 -0.000385215 0)
(-3.41727 -0.000444522 0)
(-3.41801 -7.49274e-05 0)
(-3.41779 0.000813231 0)
(-3.41671 0.00129582 0)
(-3.41416 0.00148303 0)
(-3.40929 0.00102621 0)
(-3.40244 0.00107927 0)
(-3.39404 0.00138771 0)
(-3.38415 0.00174452 0)
(-3.37281 0.00209865 0)
(-3.36002 0.00241523 0)
(-3.34576 0.00269013 0)
(-3.33002 0.00292866 0)
(-3.31281 0.00313619 0)
(-3.29414 0.00331726 0)
(-3.27405 0.00347587 0)
(-3.25256 0.00361566 0)
(-3.22974 0.00374148 0)
(-3.20563 0.00385934 0)
(-3.18032 0.00397531 0)
(-3.15388 0.00409144 0)
(-3.12641 0.00420821 0)
(-3.09798 0.00432348 0)
(-3.0687 0.00443062 0)
(-3.03862 0.00452238 0)
(-3.00774 0.00458268 0)
(-2.97651 0.00390062 0)
(-2.94478 0.00418767 0)
(-2.91264 0.00437144 0)
(-2.88012 0.00454852 0)
(-2.84738 0.00469244 0)
(-2.81441 0.00478543 0)
(-2.78161 0.0048729 0)
(-2.74804 0.00492652 0)
(-2.71535 0.00495206 0)
(-2.68252 0.00494874 0)
(-2.65003 0.00490295 0)
(-2.61788 0.00482136 0)
(-2.58623 0.0047592 0)
(-2.55497 0.00467453 0)
(-2.5242 0.00461952 0)
(-2.49401 0.00456385 0)
(-2.46447 0.00449371 0)
(-2.43566 0.00442581 0)
(-2.40765 0.00434219 0)
(-2.38052 0.00423748 0)
(-2.35432 0.00410923 0)
(-2.3291 0.00395543 0)
(-2.30491 0.00379073 0)
(-2.2818 0.00360472 0)
(-2.25982 0.0034041 0)
(-2.239 0.00320301 0)
(-2.21941 0.00300052 0)
(-2.2011 0.00281152 0)
(-2.18412 0.00260493 0)
(-2.16851 0.00237379 0)
(-2.15427 0.00211037 0)
(-2.14141 0.00181529 0)
(-2.12995 0.0015262 0)
(-2.11993 0.00128053 0)
(-2.11142 0.00108156 0)
(-2.10445 0.000886734 0)
(-2.09899 0.000578472 0)
(-2.09503 0.000118209 0)
(-2.09232 -1.59221e-05 0)
(-2.09195 0.000356398 0)
(-2.09326 -0.000319709 0)
(-2.0951 -0.00117708 0)
(-2.09832 -0.0014021 0)
(-2.10311 -0.00152807 0)
(-2.10952 -0.00167032 0)
(-2.11753 -0.0018451 0)
(-2.12707 -0.00204304 0)
(-2.13812 -0.00224919 0)
(-2.15062 -0.00245334 0)
(-2.16455 -0.00265012 0)
(-2.17987 -0.00283609 0)
(-2.19654 -0.00300963 0)
(-2.21452 -0.0031662 0)
(-2.23376 -0.00333006 0)
(-2.25423 -0.00349802 0)
(-2.27585 -0.00363425 0)
(-2.29858 -0.00374773 0)
(-2.32237 -0.00383975 0)
(-2.34717 -0.00390313 0)
(-2.37292 -0.00394177 0)
(-2.39956 -0.00395164 0)
(-2.42703 -0.00392548 0)
(-2.45528 -0.00386452 0)
(-2.48423 -0.00376345 0)
(-2.51382 -0.0036197 0)
(-2.54398 -0.00341991 0)
(-2.57464 -0.00316269 0)
(-2.60573 -0.00285648 0)
(-2.63714 -0.00248853 0)
(-2.66881 -0.00204719 0)
(-2.70067 -0.00153299 0)
(-2.73261 -0.000944978 0)
(-2.76453 -0.000278107 0)
(-2.79637 0.000429954 0)
(-2.82781 0.00125211 0)
(-2.85967 0.00223712 0)
(-2.89023 0.00330375 0)
(-2.92047 0.00447003 0)
(-2.95002 0.00578768 0)
(-2.97884 0.00727685 0)
(-3.00683 0.00897552 0)
(-3.03396 0.0109246 0)
(-3.0602 0.0131757 0)
(-3.08557 0.0157779 0)
(-3.11006 0.0187825 0)
(-3.13362 0.0221613 0)
(-3.15594 0.0258976 0)
(-3.17663 0.028641 0)
(-3.19521 0.0308193 0)
(-3.21075 0.0338156 0)
(-3.22242 0.0356504 0)
(-3.22916 0.035773 0)
(-3.23036 0.0384327 0)
(-3.22651 0.0439154 0)
(-3.21558 0.0378556 0)
(-3.18985 0.028816 0)
(-3.14925 0.0211389 0)
(-3.10001 0.0189252 0)
(-3.04704 0.0231465 0)
(-3.01195 0.032102 0)
(-2.96956 0.0237926 0)
(-0.093253 0.00988736 0)
(-0.292251 0.0164108 0)
(-0.502743 0.0345394 0)
(-0.715661 0.0198059 0)
(-0.919396 0.00814909 0)
(-1.11943 0.00188257 0)
(-1.31877 -0.00150182 0)
(-1.51939 -0.00238594 0)
(-1.72277 -0.00269769 0)
(-1.92817 -0.00603003 0)
(-2.13246 -0.0129323 0)
(-2.33352 -0.0197753 0)
(-2.53209 -0.0246531 0)
(-2.72818 -0.0279706 0)
(-2.91485 -0.0242403 0)
(-3.08004 -0.0422358 0)
(-3.21445 -0.0253177 0)
(-3.33466 -0.0635482 0)
(-3.46624 -0.0638502 0)
(-3.56793 -0.163467 0)
(-3.62919 -0.246908 0)
(-3.63601 -0.289282 0)
(-3.69703 0.175307 0)
(-3.99152 0.235736 0)
(-4.28353 0.210932 0)
(-4.57588 0.206272 0)
(-4.86467 0.190546 0)
(-5.14036 0.163265 0)
(-5.40324 0.16456 0)
(-5.68088 0.209069 0)
(-5.99535 0.289969 0)
(-6.34724 0.3972 0)
(-6.75388 0.497144 0)
(-7.28036 0.38627 0)
(-7.90229 0.167003 0)
(-8.5546 0.0578375 0)
(-9.17244 0.0776851 0)
(-9.79566 0.105328 0)
(-10.4573 0.132696 0)
(-11.1577 0.134882 0)
(-11.8625 0.117493 0)
(-12.4764 0.149028 0)
(-12.8497 0.252588 0)
(-12.9532 0.294403 0)
(-12.932 0.364116 0)
(-12.9186 0.37415 0)
(-12.9231 0.288512 0)
(-12.916 0.240732 0)
(-12.8481 0.406438 0)
(-12.6402 0.28681 0)
(-12.5082 -0.268071 0)
(-12.1533 -0.60126 0)
(-11.9002 -0.875835 0)
(-11.5723 -0.870852 0)
(-11.2019 -0.899685 0)
(-10.7786 -0.979619 0)
(-10.306 -1.07509 0)
(-9.79372 -1.12393 0)
(-9.27152 -1.06179 0)
(-8.74114 -0.981691 0)
(-8.18045 -0.775314 0)
(-8.23184 0.444575 0)
(-8.54028 0.31557 0)
(-8.80593 -0.0274365 0)
(-8.79964 -0.55669 0)
(-8.80675 -0.604615 0)
(-9.01821 0.439139 0)
(-9.71017 0.366923 0)
(-10.4667 -0.0779083 0)
(-11.4168 0.0186154 0)
(-12.4307 0.172688 0)
(-13.4046 0.429373 0)
(-14.3486 0.670421 0)
(-15.2764 0.881704 0)
(-16.2213 1.03674 0)
(-17.185 1.12808 0)
(-18.1586 1.14188 0)
(-19.1271 1.07029 0)
(-20.059 0.938867 0)
(-20.9196 0.806038 0)
(-21.6617 0.679281 0)
(-22.2699 0.595182 0)
(-22.7169 0.495473 0)
(-22.9632 0.447747 0)
(-23.0235 0.412835 0)
(-22.9318 0.32534 0)
(-22.6325 0.292364 0)
(-22.1918 0.31824 0)
(-21.7179 0.187941 0)
(-21.209 0.0578263 0)
(-20.6798 -0.0820777 0)
(-20.1484 -0.268115 0)
(-19.569 -0.383678 0)
(-18.9591 -0.453832 0)
(-18.3089 -0.51191 0)
(-17.594 -0.571554 0)
(-16.7967 -0.637413 0)
(-15.9742 -0.674006 0)
(-15.1196 -0.727147 0)
(-14.2138 -0.772937 0)
(-13.2264 -0.804838 0)
(-12.2774 -0.813347 0)
(-11.3829 -0.808274 0)
(-10.5031 -0.717367 0)
(-9.62985 -0.539694 0)
(-8.76166 -0.430682 0)
(-7.94098 -0.502707 0)
(-7.23 -0.481566 0)
(-6.77113 -0.480475 0)
(-6.42277 -0.456737 0)
(-6.06266 -0.449503 0)
(-5.6882 -0.457972 0)
(-5.29349 -0.473936 0)
(-4.88032 -0.480782 0)
(-4.45521 -0.480453 0)
(-4.02424 -0.476921 0)
(-3.5925 -0.473759 0)
(-3.16408 -0.471495 0)
(-2.74214 -0.467365 0)
(-2.3304 -0.469101 0)
(-1.9208 -0.436283 0)
(-1.45666 -0.607337 0)
(-0.830582 -0.821074 0)
(-0.0955439 -0.830192 0)
(0.597074 -0.787269 0)
(1.23057 -0.714616 0)
(1.80429 -0.626734 0)
(2.35138 -0.599265 0)
(2.89302 -0.577401 0)
(3.42355 -0.501355 0)
(3.93619 -0.40835 0)
(4.42282 -0.308119 0)
(4.86917 -0.20513 0)
(5.25664 -0.11811 0)
(5.55235 -0.0482423 0)
(5.7242 0.014248 0)
(5.78445 0.0381294 0)
(5.77102 0.0656621 0)
(5.70557 0.0856537 0)
(5.60634 0.0766871 0)
(5.48341 0.0744146 0)
(5.34623 0.14264 0)
(5.14172 0.195533 0)
(4.88628 0.330265 0)
(4.52871 0.450943 0)
(4.07678 0.50149 0)
(3.56415 0.502713 0)
(3.00845 0.514166 0)
(2.4193 0.522803 0)
(1.81438 0.528043 0)
(1.20288 0.551774 0)
(0.567994 0.629798 0)
(-0.0798458 0.62195 0)
(-0.614082 0.398607 0)
(-0.950626 0.202672 0)
(-1.25104 0.129263 0)
(-1.55109 0.171262 0)
(-1.85332 0.247807 0)
(-2.17892 0.308401 0)
(-2.51648 0.313057 0)
(-2.84781 0.281427 0)
(-3.18197 0.2609 0)
(-3.50181 0.302222 0)
(-3.81519 0.419569 0)
(-4.29452 0.477544 0)
(-4.83545 0.428272 0)
(-5.32659 0.471043 0)
(-5.81562 0.496276 0)
(-6.18781 0.442755 0)
(-6.62325 0.518243 0)
(-7.05082 0.345679 0)
(-7.42223 0.326839 0)
(-7.72299 0.330975 0)
(-7.97943 0.288838 0)
(-8.19177 0.249706 0)
(-8.37138 0.190171 0)
(-8.51278 0.124851 0)
(-8.62177 0.0801239 0)
(-8.70405 0.0501317 0)
(-8.76409 0.028124 0)
(-8.79863 -0.000854291 0)
(-8.80944 -0.0303077 0)
(-8.79196 -0.0725674 0)
(-8.753 -0.115612 0)
(-8.69377 -0.154022 0)
(-8.61577 -0.18655 0)
(-8.5223 -0.199792 0)
(-8.42002 -0.210797 0)
(-8.30978 -0.216043 0)
(-8.19557 -0.214503 0)
(-8.0811 -0.207734 0)
(-7.96816 -0.20484 0)
(-7.85732 -0.205481 0)
(-7.74933 -0.204645 0)
(-7.64559 -0.198652 0)
(-7.54769 -0.189065 0)
(-7.45612 -0.176534 0)
(-7.37228 -0.157285 0)
(-7.29782 -0.134592 0)
(-7.23186 -0.114292 0)
(-7.17507 -0.0969245 0)
(-7.12256 -0.0946757 0)
(-7.07399 -0.091327 0)
(-7.02714 -0.0928364 0)
(-6.98317 -0.0907408 0)
(-6.93758 -0.0829773 0)
(-6.90345 -0.0691165 0)
(-6.88474 -0.0725675 0)
(-6.89786 -0.0720542 0)
(-6.9277 -0.0644434 0)
(-6.93794 -0.0291393 0)
(-6.98216 -0.040684 0)
(-7.03502 -0.0506212 0)
(-7.07362 -0.0669345 0)
(-7.09686 -0.0893216 0)
(-7.12194 -0.0827081 0)
(-7.16099 -0.0493623 0)
(-7.24157 0.000507894 0)
(-7.353 0.00347043 0)
(-7.43638 -0.0443399 0)
(-7.50143 -0.0538232 0)
(-7.56262 -0.0423347 0)
(-7.62934 -0.02166 0)
(-7.70933 -0.012194 0)
(-7.78615 -0.0389242 0)
(-7.84518 -0.0540788 0)
(-7.89663 -0.0551148 0)
(-7.9418 -0.0554296 0)
(-7.97543 -0.0658133 0)
(-8.00805 -0.0683556 0)
(-8.0429 -0.062161 0)
(-8.07946 -0.0434332 0)
(-8.13132 -0.0129837 0)
(-8.19435 -0.00547494 0)
(-8.23232 -0.011369 0)
(-8.24466 -0.0058599 0)
(-8.2733 -0.0111138 0)
(-8.30821 -0.0064164 0)
(-8.34641 0.00819653 0)
(-8.40133 0.0168649 0)
(-8.47778 0.0294763 0)
(-8.57462 0.0356178 0)
(-8.68819 0.0706579 0)
(-8.8179 0.0822684 0)
(-8.94413 0.0937256 0)
(-9.09178 0.125099 0)
(-9.2547 0.0963513 0)
(-9.44043 0.123424 0)
(-9.65513 0.148488 0)
(-9.87334 0.148523 0)
(-10.1053 0.177498 0)
(-10.3529 0.168324 0)
(-10.6193 0.185744 0)
(-10.8749 0.186731 0)
(-11.1078 0.167135 0)
(-11.3096 0.151538 0)
(-11.4768 0.138043 0)
(-11.6057 0.126597 0)
(-11.6964 0.107918 0)
(-11.7501 0.0959356 0)
(-11.7857 0.0722966 0)
(-11.7635 0.0625188 0)
(-11.6705 0.101465 0)
(-11.517 0.133134 0)
(-11.334 0.125447 0)
(-11.1314 0.114948 0)
(-10.9097 0.121155 0)
(-10.6802 0.107376 0)
(-10.4525 0.0803722 0)
(-10.2342 -0.00581663 0)
(-9.99608 -0.0319739 0)
(-9.7361 -0.0610121 0)
(-9.44637 -0.0862134 0)
(-9.13826 -0.0913266 0)
(-8.82554 -0.0920217 0)
(-8.516 -0.104485 0)
(-8.20471 -0.153868 0)
(-7.87983 -0.205304 0)
(-7.54336 -0.225131 0)
(-7.20446 -0.231909 0)
(-6.86303 -0.234019 0)
(-6.51866 -0.231755 0)
(-6.17202 -0.221257 0)
(-5.83281 -0.20293 0)
(-5.51008 -0.185154 0)
(-5.31306 -0.131159 0)
(-5.20696 -0.101998 0)
(-5.10587 -0.164191 0)
(-4.98183 -0.192882 0)
(-4.85055 -0.200868 0)
(-4.71804 -0.181853 0)
(-4.59472 -0.14679 0)
(-4.48166 -0.123047 0)
(-4.37787 -0.124145 0)
(-4.27894 -0.129978 0)
(-4.19287 -0.097848 0)
(-4.12449 -0.0669216 0)
(-4.06912 -0.0492372 0)
(-4.02761 -0.0368377 0)
(-3.99809 -0.0252539 0)
(-3.98123 -0.00917174 0)
(-3.9749 0.00581862 0)
(-3.98372 0.0192906 0)
(-4.00483 0.035252 0)
(-4.03556 0.0539897 0)
(-4.07651 0.070268 0)
(-4.12561 0.0787267 0)
(-4.18036 0.0818062 0)
(-4.23985 0.0794499 0)
(-4.30192 0.0720345 0)
(-4.36487 0.065659 0)
(-4.42893 0.0636985 0)
(-4.49366 0.0594363 0)
(-4.55794 0.0550291 0)
(-4.6216 0.0538832 0)
(-4.68552 0.0597646 0)
(-4.75062 0.0631444 0)
(-4.81428 0.057802 0)
(-4.8758 0.0628841 0)
(-4.93958 0.081665 0)
(-5.00221 0.05938 0)
(-5.05747 0.0406586 0)
(-5.10869 0.0275761 0)
(-5.15553 0.0216644 0)
(-5.19966 0.020048 0)
(-5.24033 0.0136645 0)
(-5.27743 0.00916346 0)
(-5.31253 0.00630242 0)
(-5.34442 0.000778168 0)
(-5.37359 -0.0036779 0)
(-5.40049 -0.00753678 0)
(-5.42537 -0.0107542 0)
(-5.44856 -0.0137259 0)
(-5.47033 -0.0164162 0)
(-5.49097 -0.0186579 0)
(-5.51071 -0.0205795 0)
(-5.52979 -0.0219787 0)
(-5.54846 -0.0229956 0)
(-5.56688 -0.0237933 0)
(-5.58527 -0.0242011 0)
(-5.6037 -0.0245994 0)
(-5.62228 -0.0243918 0)
(-5.6412 -0.0240896 0)
(-5.66046 -0.0238705 0)
(-5.68014 -0.0234261 0)
(-5.70023 -0.0231486 0)
(-5.72071 -0.0225417 0)
(-5.74159 -0.022038 0)
(-5.7628 -0.0215973 0)
(-5.78431 -0.021168 0)
(-5.80607 -0.0207024 0)
(-5.82804 -0.0201153 0)
(-5.85026 -0.01958 0)
(-5.87218 -0.0191184 0)
(-5.89507 -0.0185855 0)
(-5.9168 -0.0180359 0)
(-5.93856 -0.0175994 0)
(-5.96004 -0.0172233 0)
(-5.98107 -0.0168971 0)
(-6.00155 -0.0165798 0)
(-6.02139 -0.0162275 0)
(-6.04051 -0.015829 0)
(-6.05881 -0.0154015 0)
(-6.07621 -0.015001 0)
(-6.09262 -0.0146544 0)
(-6.10795 -0.0143568 0)
(-6.12211 -0.0140607 0)
(-6.13503 -0.0136701 0)
(-6.14665 -0.0131801 0)
(-6.15689 -0.012625 0)
(-6.16569 -0.0121036 0)
(-6.173 -0.0117767 0)
(-6.17875 -0.0117114 0)
(-6.18286 -0.0116656 0)
(-6.1855 -0.0112399 0)
(-6.18644 -0.00991151 0)
(-6.18557 -0.00866471 0)
(-6.18287 -0.00929245 0)
(-6.17822 -0.00972685 0)
(-6.17172 -0.00952647 0)
(-6.16341 -0.00905557 0)
(-6.15327 -0.00857696 0)
(-6.14128 -0.0080919 0)
(-6.12747 -0.00763885 0)
(-6.11184 -0.00722241 0)
(-6.09444 -0.00683702 0)
(-6.07529 -0.00647923 0)
(-6.05444 -0.00614376 0)
(-6.03194 -0.00582522 0)
(-6.00784 -0.00551882 0)
(-5.98221 -0.00521708 0)
(-5.95512 -0.00491121 0)
(-5.92664 -0.00459125 0)
(-5.89685 -0.00425378 0)
(-5.86584 -0.00389691 0)
(-5.8337 -0.00352483 0)
(-5.80051 -0.00314863 0)
(-5.76637 -0.00278161 0)
(-5.73134 -0.00246295 0)
(-5.69564 -0.00163467 0)
(-5.6593 -0.00153138 0)
(-5.62247 -0.00127528 0)
(-5.5852 -0.000926062 0)
(-5.54761 -0.000580377 0)
(-5.50972 -0.00023911 0)
(-5.47193 0.00010747 0)
(-5.43319 0.000436447 0)
(-5.39539 0.000717946 0)
(-5.35747 0.00098208 0)
(-5.31985 0.0018036 0)
(-5.2825 0.00162525 0)
(-5.24556 0.00162687 0)
(-5.20912 0.00174118 0)
(-5.17326 0.00190048 0)
(-5.13804 0.0020455 0)
(-5.10355 0.00217059 0)
(-5.06988 0.00228341 0)
(-5.0371 0.00236905 0)
(-5.0053 0.00242304 0)
(-4.97455 0.00244127 0)
(-4.94493 0.00242419 0)
(-4.9165 0.00238892 0)
(-4.88932 0.00232528 0)
(-4.86347 0.00223639 0)
(-4.839 0.00213984 0)
(-4.81596 0.00203887 0)
(-4.79441 0.00194809 0)
(-4.77441 0.00183787 0)
(-4.75599 0.00169634 0)
(-4.73921 0.00151882 0)
(-4.72409 0.00130512 0)
(-4.71067 0.00109763 0)
(-4.69897 0.000935063 0)
(-4.68901 0.000819422 0)
(-4.68082 0.000687906 0)
(-4.67439 0.000470602 0)
(-4.6698 4.29235e-05 0)
(-4.66679 0.000346578 0)
(-4.66606 0.00093509 0)
(-4.66703 -0.000189205 0)
(-4.66956 -0.00103003 0)
(-4.67387 -0.00120669 0)
(-4.67995 -0.00125551 0)
(-4.68782 -0.00135992 0)
(-4.69745 -0.00151061 0)
(-4.70881 -0.00170341 0)
(-4.72189 -0.00192718 0)
(-4.73664 -0.00216728 0)
(-4.75302 -0.00242255 0)
(-4.77098 -0.00269036 0)
(-4.79049 -0.0029712 0)
(-4.81148 -0.00328281 0)
(-4.83389 -0.00357852 0)
(-4.85766 -0.00386033 0)
(-4.88273 -0.0041885 0)
(-4.90902 -0.00453799 0)
(-4.93646 -0.00489973 0)
(-4.96497 -0.00526899 0)
(-4.99448 -0.0056502 0)
(-5.02489 -0.00604145 0)
(-5.05613 -0.00644121 0)
(-5.08809 -0.0068582 0)
(-5.12068 -0.00728346 0)
(-5.15378 -0.00772184 0)
(-5.1873 -0.0081575 0)
(-5.22111 -0.00859522 0)
(-5.25508 -0.00905668 0)
(-5.28908 -0.00953435 0)
(-5.32297 -0.0100172 0)
(-5.35661 -0.01052 0)
(-5.38987 -0.0110501 0)
(-5.42258 -0.0116134 0)
(-5.45458 -0.0121975 0)
(-5.48587 -0.0128008 0)
(-5.51621 -0.0134699 0)
(-5.54485 -0.0141817 0)
(-5.57219 -0.0149113 0)
(-5.59784 -0.0156813 0)
(-5.62164 -0.0164706 0)
(-5.64337 -0.0172581 0)
(-5.66279 -0.0180122 0)
(-5.67967 -0.0187143 0)
(-5.69377 -0.0193823 0)
(-5.70473 -0.0200524 0)
(-5.71226 -0.0208474 0)
(-5.71617 -0.0221646 0)
(-5.71614 -0.0230199 0)
(-5.71234 -0.0250185 0)
(-5.70427 -0.0280242 0)
(-5.69145 -0.0322743 0)
(-5.67404 -0.0385331 0)
(-5.65089 -0.0433446 0)
(-5.62092 -0.0456419 0)
(-5.58654 -0.0595431 0)
(-5.5465 -0.0751817 0)
(-5.5008 -0.0877381 0)
(-5.4511 -0.0925702 0)
(-5.39572 -0.0901157 0)
(-5.35025 -0.0713657 0)
(-5.28812 -0.0293942 0)
(-0.0928942 0.0508628 0)
(-0.294704 0.0759488 0)
(-0.504932 0.111974 0)
(-0.723738 0.0964172 0)
(-0.937964 0.0829411 0)
(-1.14828 0.0761468 0)
(-1.35582 0.0752497 0)
(-1.56504 0.0799297 0)
(-1.77869 0.0856858 0)
(-1.99503 0.0846508 0)
(-2.20933 0.0752781 0)
(-2.41948 0.0655174 0)
(-2.62693 0.0605662 0)
(-2.83213 0.0538968 0)
(-3.03121 0.0333411 0)
(-3.21392 -0.0275375 0)
(-3.37509 -0.0859979 0)
(-3.52487 -0.138457 0)
(-3.67614 -0.0771355 0)
(-3.85899 -0.136816 0)
(-4.07031 -0.233293 0)
(-4.35403 -0.234332 0)
(-4.57816 0.0391169 0)
(-4.83716 0.156509 0)
(-5.10202 0.15899 0)
(-5.37686 0.173138 0)
(-5.67144 0.173092 0)
(-5.99217 0.140931 0)
(-6.34859 0.130687 0)
(-6.73636 0.205109 0)
(-7.1454 0.307063 0)
(-7.55286 0.433337 0)
(-7.94904 0.617685 0)
(-8.33606 0.891057 0)
(-8.85365 0.995596 0)
(-9.42654 0.967153 0)
(-10.0062 0.988235 0)
(-10.5867 1.05128 0)
(-11.205 1.14095 0)
(-11.9111 1.15824 0)
(-12.6608 1.05573 0)
(-13.3173 0.758572 0)
(-13.7174 0.34374 0)
(-13.9255 0.0504913 0)
(-14.1141 -0.0337234 0)
(-14.1978 -0.0516328 0)
(-14.1719 -0.185002 0)
(-14.0612 -0.299533 0)
(-13.8788 -0.326505 0)
(-13.6564 -0.491116 0)
(-13.5481 -0.721997 0)
(-13.4404 -0.712316 0)
(-13.3531 -0.831044 0)
(-13.1303 -0.912609 0)
(-12.8382 -0.968374 0)
(-12.5263 -1.07171 0)
(-12.2125 -1.16486 0)
(-11.905 -1.16439 0)
(-11.6502 -1.01431 0)
(-11.4532 -0.827228 0)
(-11.4917 -0.414977 0)
(-11.4365 -0.198791 0)
(-11.333 -0.117705 0)
(-11.337 -0.134784 0)
(-11.5349 0.11695 0)
(-12.0544 0.118687 0)
(-12.5926 0.498421 0)
(-13.0538 1.19031 0)
(-13.9872 1.34392 0)
(-15.0715 1.56708 0)
(-16.253 1.53665 0)
(-17.4381 1.52106 0)
(-18.5726 1.53861 0)
(-19.6151 1.62137 0)
(-20.5412 1.70803 0)
(-21.3224 1.77904 0)
(-21.9457 1.81335 0)
(-22.4263 1.80666 0)
(-22.8014 1.7015 0)
(-23.1065 1.53554 0)
(-23.3459 1.30169 0)
(-23.496 1.09603 0)
(-23.4376 0.83293 0)
(-23.434 0.524385 0)
(-23.3578 0.274255 0)
(-23.2356 -0.00499919 0)
(-23.054 -0.351791 0)
(-22.6246 -0.541828 0)
(-22.1109 -0.714257 0)
(-21.5489 -0.887059 0)
(-20.9542 -0.990108 0)
(-20.379 -1.16361 0)
(-19.7757 -1.31132 0)
(-19.1272 -1.42186 0)
(-18.4529 -1.51385 0)
(-17.7556 -1.64266 0)
(-17.0071 -1.82174 0)
(-16.1491 -1.99643 0)
(-15.2229 -2.1082 0)
(-14.3244 -2.18043 0)
(-13.4048 -2.25477 0)
(-12.4252 -2.2747 0)
(-11.4232 -2.21269 0)
(-10.4579 -2.07247 0)
(-9.53909 -1.87797 0)
(-8.63182 -1.75188 0)
(-7.74605 -1.77259 0)
(-6.90721 -1.58079 0)
(-6.08966 -1.41021 0)
(-5.31181 -1.32559 0)
(-4.59864 -1.24571 0)
(-3.94287 -1.17594 0)
(-3.32217 -1.13022 0)
(-2.70714 -1.10327 0)
(-2.07604 -1.06399 0)
(-1.41945 -1.01452 0)
(-0.731384 -0.960736 0)
(-0.00772211 -0.904902 0)
(0.755396 -0.845569 0)
(1.55832 -0.792056 0)
(2.4065 -0.719789 0)
(3.26615 -0.817879 0)
(4.05 -0.94586 0)
(4.735 -0.974383 0)
(5.2714 -1.09026 0)
(5.69296 -1.13959 0)
(6.09836 -1.14047 0)
(6.52745 -1.11693 0)
(6.97628 -1.07022 0)
(7.44529 -1.07344 0)
(7.92157 -1.0709 0)
(8.39337 -1.04292 0)
(8.84868 -0.967678 0)
(9.26755 -0.819567 0)
(9.62027 -0.575603 0)
(9.92111 -0.300979 0)
(10.1983 -0.0702601 0)
(10.4855 0.0782799 0)
(10.7872 0.175459 0)
(11.0696 0.234674 0)
(11.2581 0.240598 0)
(11.314 0.245497 0)
(11.1679 0.242271 0)
(10.8098 0.413411 0)
(10.254 0.66343 0)
(9.58506 0.866803 0)
(8.88222 0.985029 0)
(8.17812 1.0592 0)
(7.46005 1.10342 0)
(6.70819 1.15363 0)
(5.91619 1.16677 0)
(5.12363 1.14289 0)
(4.36544 1.00498 0)
(3.65952 0.749885 0)
(2.95337 0.597475 0)
(2.27015 0.535814 0)
(1.60536 0.599112 0)
(0.906334 0.706043 0)
(0.130246 0.800872 0)
(-0.708651 0.836405 0)
(-1.55709 0.841419 0)
(-2.35286 0.878936 0)
(-3.07895 0.959785 0)
(-3.73618 1.09242 0)
(-4.25108 1.2023 0)
(-4.76168 1.20391 0)
(-5.27257 1.12859 0)
(-5.72288 1.07014 0)
(-6.24154 1.15764 0)
(-6.63794 0.994318 0)
(-6.9899 0.903517 0)
(-7.31373 0.825509 0)
(-7.64101 0.692844 0)
(-7.93321 0.610283 0)
(-8.1676 0.506967 0)
(-8.35144 0.394671 0)
(-8.48869 0.270732 0)
(-8.57415 0.143019 0)
(-8.55258 0.00527322 0)
(-8.43908 -0.084273 0)
(-8.29626 -0.157884 0)
(-8.13092 -0.210174 0)
(-7.96561 -0.282805 0)
(-7.78907 -0.345109 0)
(-7.60478 -0.381402 0)
(-7.41866 -0.417288 0)
(-7.23043 -0.426535 0)
(-7.04776 -0.431727 0)
(-6.87325 -0.428174 0)
(-6.7151 -0.415418 0)
(-6.58119 -0.39562 0)
(-6.47148 -0.38209 0)
(-6.38235 -0.374 0)
(-6.31136 -0.364314 0)
(-6.25815 -0.347169 0)
(-6.22335 -0.324487 0)
(-6.20529 -0.298017 0)
(-6.2102 -0.259916 0)
(-6.2391 -0.214612 0)
(-6.29395 -0.17236 0)
(-6.36871 -0.13354 0)
(-6.45773 -0.120167 0)
(-6.5472 -0.10573 0)
(-6.63677 -0.102074 0)
(-6.72172 -0.092537 0)
(-6.81135 -0.07182 0)
(-6.89978 -0.0403481 0)
(-6.98678 -0.0217881 0)
(-7.06328 0.00270269 0)
(-7.1442 0.0141487 0)
(-7.22833 0.0279873 0)
(-7.30828 0.0739987 0)
(-7.39329 0.0538397 0)
(-7.47471 0.0262153 0)
(-7.56437 0.00486979 0)
(-7.6611 0.0119142 0)
(-7.74932 0.0867915 0)
(-7.84378 0.175004 0)
(-7.96687 0.18138 0)
(-8.05797 0.0989211 0)
(-8.15994 0.0795795 0)
(-8.25739 0.095138 0)
(-8.35212 0.124443 0)
(-8.45303 0.141053 0)
(-8.55025 0.105167 0)
(-8.63807 0.0669713 0)
(-8.72732 0.0646005 0)
(-8.80951 0.0521116 0)
(-8.8812 0.023442 0)
(-8.94987 0.0193067 0)
(-9.00755 -0.0011014 0)
(-9.05242 0.0129338 0)
(-9.14342 0.0573365 0)
(-9.2947 0.0491038 0)
(-9.4523 0.0223048 0)
(-9.5969 0.0142377 0)
(-9.70649 -0.00145554 0)
(-9.84407 0.0054562 0)
(-9.97511 0.0168952 0)
(-10.1162 0.0420823 0)
(-10.2504 0.06814 0)
(-10.3945 0.0953701 0)
(-10.5781 0.134729 0)
(-10.707 0.17017 0)
(-10.9149 0.22937 0)
(-11.0636 0.221348 0)
(-11.1953 0.304435 0)
(-11.345 0.334071 0)
(-11.4925 0.316737 0)
(-11.6859 0.384799 0)
(-11.8171 0.413951 0)
(-11.937 0.448443 0)
(-12.0635 0.447738 0)
(-12.2132 0.407033 0)
(-12.3302 0.389216 0)
(-12.3849 0.344635 0)
(-12.4244 0.281707 0)
(-12.4537 0.218602 0)
(-12.4458 0.165033 0)
(-12.3959 0.0947909 0)
(-12.3475 0.0591894 0)
(-12.2784 -0.0426763 0)
(-12.1411 -0.123472 0)
(-11.9581 -0.16737 0)
(-11.7487 -0.21625 0)