/*--------------------------------*- C++ -*----------------------------------*\
| =========                 |                                                 |
| \\      /  F ield         | OpenFOAM: The Open Source CFD Toolbox           |
|  \\    /   O peration     | Version:  v1812                                 |
|   \\  /    A nd           | Web:      www.OpenFOAM.com                      |
|    \\/     M anipulation  |                                                 |
\*---------------------------------------------------------------------------*/
FoamFile
{
    version     2.0;
    format      ascii;
    class       surfaceScalarField;
    location    "0.2";
    object      phi;
}
// * * * * * * * * * * * * * * * * * * * * * * * * * * * * * * * * * * * * * //

dimensions      [1 0 -1 0 0 0 0];
oriented        oriented;


internalField   nonuniform List<scalar> 
128384
(
0.00262501
1.64608e-19
0.00262501
1.60399e-19
0.00262501
-4.39219e-20
0.00262501
-2.95002e-20
0.00262501
1.36464e-18
0.00262501
-4.68761e-19
0.00262501
8.95384e-19
0.00262501
2.04266e-18
0.00262501
2.08319e-18
0.00262501
4.93169e-19
0.00262501
1.45023e-18
0.00262501
6.80107e-19
0.00262501
-1.38946e-18
0.00262501
-8.05037e-19
0.00262501
-1.40988e-18
0.00262501
-1.20323e-18
0.00262501
-9.26343e-19
0.00262501
5.18535e-19
0.00262501
5.4951e-20
0.00262501
-2.48952e-19
0.00262501
-7.17318e-20
0.00262501
1.58376e-18
0.00262501
1.21494e-18
0.00262501
-1.77433e-18
0.00262501
1.34739e-18
0.00262501
1.63629e-18
0.00262501
2.44449e-18
0.00262501
1.51222e-18
0.00262501
2.59828e-18
0.00262501
1.71473e-18
0.00262501
1.3412e-18
0.00262501
1.13032e-18
0.00262501
1.71509e-18
0.00262501
1.9732e-18
0.00262501
-1.21957e-18
0.00262501
1.19506e-18
0.00262501
-7.78944e-19
0.00262501
-3.2791e-18
0.00262501
-2.53327e-18
0.00262501
-2.47162e-18
0.00262501
-2.02858e-18
0.00262501
-1.19576e-18
0.00262501
-7.65773e-19
0.00262501
-6.48067e-19
0.00262501
1.5151e-19
0.00262501
1.09651e-18
0.00262501
-8.00574e-19
0.00262501
2.17045e-19
0.00262501
4.02774e-18
0.00262501
1.95669e-18
0.00262501
2.70504e-18
0.00262501
2.6921e-18
0.00262501
4.9417e-19
0.00262501
-1.49057e-19
0.00262501
-2.94747e-19
0.00262501
8.46937e-19
0.00262501
1.30169e-18
0.00262501
1.47221e-18
0.00262501
1.16146e-18
0.00262501
2.68208e-19
0.00262501
-1.1752e-18
0.00262501
-4.33303e-19
0.00262501
-1.69963e-18
0.00262501
6.65332e-19
0.00262501
7.27451e-19
0.00262501
1.1283e-18
0.00262501
9.21882e-17
0.00262501
7.65846e-15
0.00262501
6.64679e-13
0.002625
5.86146e-11
0.00262445
4.52158e-09
0.00258403
3.99105e-07
0.00158398
4.31141e-05
0.00118618
7.3215e-05
0.00117115
0.000117096
0.00114103
8.91333e-05
0.00101764
0.000104198
0.000909398
9.48873e-05
0.000810501
0.00011276
0.000730831
0.000106441
0.000656566
0.00010212
0.000584996
8.80375e-05
0.000513037
7.41798e-05
0.000455142
6.08431e-05
0.000420073
5.19808e-05
0.000395627
5.0295e-05
0.000369725
5.25362e-05
0.000338363
5.55602e-05
0.000300955
5.78128e-05
0.000260012
5.86058e-05
0.000216693
5.95632e-05
0.000172989
5.96762e-05
0.00012811
5.99461e-05
8.59546e-05
6.01505e-05
4.29198e-05
6.13976e-05
5.97899e-05
0.00262501
2.23064e-19
0.00262501
-2.13916e-18
0.00262501
-1.04275e-18
0.00262501
9.28307e-19
0.00262501
4.62148e-19
0.00262501
1.36665e-18
0.00262501
9.88076e-19
0.00262501
2.25416e-18
0.00262501
2.38607e-18
0.00262501
2.8908e-18
0.00262501
5.02133e-19
0.00262501
2.15883e-19
0.00262501
-2.49823e-19
0.00262501
-1.78732e-18
0.00262501
-1.28884e-18
0.00262501
-2.08647e-18
0.00262501
1.45889e-18
0.00262501
-9.94698e-19
0.00262501
5.75809e-19
0.00262501
5.23527e-19
0.00262501
-5.47369e-19
0.00262501
-6.64017e-19
0.00262501
-8.75411e-19
0.00262501
9.64095e-19
0.00262501
1.47991e-18
0.00262501
1.23958e-18
0.00262501
6.76502e-19
0.00262501
9.8773e-19
0.00262501
3.04914e-19
0.00262501
1.10086e-18
0.00262501
2.15342e-19
0.00262501
-1.55007e-19
0.00262501
1.39861e-18
0.00262501
1.0228e-18
0.00262501
1.49823e-18
0.00262501
1.11093e-18
0.00262501
7.98153e-19
0.00262501
4.33677e-19
0.00262501
-9.23768e-20
0.00262501
1.28023e-18
0.00262501
-1.694e-19
0.00262501
-2.84023e-19
0.00262501
-4.5625e-19
0.00262501
2.05688e-18
0.00262501
1.55022e-18
0.00262501
4.91744e-19
0.00262501
9.24481e-19
0.00262501
5.18196e-19
0.00262501
2.20947e-19
0.00262501
-7.56944e-20
0.00262501
-1.88848e-18
0.00262501
-4.83803e-19
0.00262501
1.0263e-18
0.00262501
1.33065e-18
0.00262501
1.0538e-18
0.00262501
-8.03784e-20
0.00262501
-1.36061e-19
0.00262501
6.87084e-19
0.00262501
5.66552e-20
0.00262501
-1.99092e-19
0.00262501
-5.029e-20
0.00262501
1.27045e-18
0.00262501
6.43937e-19
0.00262501
3.17699e-19
0.00262501
8.52978e-19
0.00262501
7.27396e-19
0.00262501
5.94389e-17
0.00262501
5.37194e-15
0.00262501
4.31725e-13
0.002625
3.93287e-11
0.00262447
2.35914e-09
0.0025852
2.90472e-07
0.00162293
4.13019e-05
0.00123256
0.000124816
0.00122529
0.000224164
0.00119596
0.000178716
0.00105976
0.000220577
0.000945525
0.000196786
0.000859292
0.000213911
0.00079184
0.000201062
0.00072221
0.000198473
0.000649035
0.000177397
0.000569262
0.000156683
0.000498208
0.000134179
0.000448467
0.000116782
0.000412539
0.000110824
0.000379271
0.000111819
0.000343508
0.00011503
0.000303915
0.000117701
0.000261885
0.000118331
0.000217935
0.000119649
0.000173899
0.000119517
0.000128859
0.000119819
8.65343e-05
0.000120231
4.27677e-05
0.000123336
0.000119809
0.00262501
-1.12373e-18
0.00262501
3.42341e-19
0.00262501
7.75772e-19
0.00262501
1.24868e-18
0.00262501
1.39316e-18
0.00262501
1.18342e-18
0.00262501
2.27324e-18
0.00262501
7.66906e-19
0.00262501
1.04385e-18
0.00262501
-1.8492e-20
0.00262501
1.5083e-18
0.00262501
7.69125e-19
0.00262501
4.43028e-19
0.00262501
6.30431e-19
0.00262501
1.8983e-19
0.00262501
1.68903e-18
0.00262501
-8.18323e-20
0.00262501
3.3148e-19
0.00262501
9.71781e-19
0.00262501
1.55891e-18
0.00262501
3.47095e-19
0.00262501
8.61933e-19
0.00262501
1.08685e-18
0.00262501
-2.10726e-19
0.00262501
3.27608e-19
0.00262501
-2.57681e-19
0.00262501
1.76773e-18
0.00262501
1.7113e-18
0.00262501
1.16174e-18
0.00262501
2.40969e-19
0.00262501
1.04167e-18
0.00262501
3.03882e-18
0.00262501
9.66908e-19
0.00262501
5.44216e-19
0.00262501
6.8137e-19
0.00262501
-3.27525e-19
0.00262501
-4.65967e-19
0.00262501
-9.07713e-20
0.00262501
3.67857e-19
0.00262501
3.17037e-19
0.00262501
7.79039e-19
0.00262501
2.70608e-19
0.00262501
-6.55557e-20
0.00262501
-1.25246e-18
0.00262501
-1.57753e-19
0.00262501
-3.75936e-20
0.00262501
-6.56976e-19
0.00262501
8.10132e-19
0.00262501
1.33923e-18
0.00262501
2.4093e-19
0.00262501
-3.9755e-19
0.00262501
-1.00695e-18
0.00262501
-6.59855e-19
0.00262501
-1.3245e-19
0.00262501
1.91463e-19
0.00262501
-1.24618e-18
0.00262501
-4.81674e-19
0.00262501
-7.79188e-20
0.00262501
4.14989e-19
0.00262501
-1.62571e-18
0.00262501
-5.25123e-19
0.00262501
-8.36975e-19
0.00262501
-6.16517e-19
0.00262501
2.24424e-19
0.00262501
-7.99338e-19
0.00262501
-4.42694e-19
0.00262501
1.04694e-16
0.00262501
9.45855e-15
0.00262501
8.0873e-13
0.002625
7.5106e-11
0.00262449
5.16221e-09
0.00258619
5.73024e-07
0.00160998
6.4992e-05
0.00119926
0.000214877
0.0011912
0.000317792
0.00114712
0.000271575
0.00101377
0.000332481
0.000909419
0.000294727
0.000836945
0.000307991
0.000772898
0.000293284
0.000700941
0.000294669
0.000623476
0.000268619
0.000540728
0.000241024
0.000473237
0.00020687
0.000430372
0.000178864
0.00040051
0.000167636
0.000371856
0.000167284
0.000339557
0.000171335
0.000302027
0.000175664
0.000261
0.000177118
0.000217495
0.000179238
0.000173613
0.00017891
0.000128732
0.000179184
8.67376e-05
0.000179807
4.25958e-05
0.000185656
0.000180186
0.00262501
1.69562e-18
0.00262501
3.04197e-19
0.00262501
-2.40957e-19
0.00262501
-8.87541e-19
0.00262501
-7.08559e-19
0.00262501
-8.36422e-21
0.00262501
6.70019e-19
0.00262501
1.03277e-18
0.00262501
9.67457e-19
0.00262501
4.96457e-19
0.00262501
1.35982e-19
0.00262501
1.25183e-18
0.00262501
1.1228e-18
0.00262501
2.08635e-19
0.00262501
2.53974e-18
0.00262501
-1.20804e-19
0.00262501
-5.58338e-19
0.00262501
-7.9746e-19
0.00262501
-2.49139e-19
0.00262501
-6.4285e-19
0.00262501
7.25892e-19
0.00262501
4.45608e-19
0.00262501
8.00794e-19
0.00262501
1.72557e-18
0.00262501
-9.24778e-20
0.00262501
-6.2311e-19
0.00262501
-1.32163e-18
0.00262501
7.21208e-20
0.00262501
1.17209e-18
0.00262501
-1.85818e-18
0.00262501
9.54064e-19
0.00262501
1.1165e-18
0.00262501
7.96877e-19
0.00262501
2.25424e-18
0.00262501
1.36244e-18
0.00262501
1.49743e-19
0.00262501
-6.74139e-19
0.00262501
1.55001e-20
0.00262501
5.99546e-19
0.00262501
1.60488e-19
0.00262501
5.20187e-20
0.00262501
-2.60426e-20
0.00262501
-2.30945e-19
0.00262501
-5.1065e-19
0.00262501
-1.10084e-18
0.00262501
-6.88301e-19
0.00262501
5.79877e-19
0.00262501
8.2649e-19
0.00262501
-6.80522e-21
0.00262501
2.83917e-19
0.00262501
-2.50048e-20
0.00262501
-2.73856e-18
0.00262501
-1.84102e-19
0.00262501
-7.10257e-19
0.00262501
1.45381e-19
0.00262501
2.12498e-20
0.00262501
3.79177e-19
0.00262501
-9.83055e-19
0.00262501
-1.9191e-18
0.00262501
4.67662e-19
0.00262501
-1.49351e-18
0.00262501
-1.85836e-18
0.00262501
-4.63007e-19
0.00262501
-1.80023e-18
0.00262501
-2.74021e-19
0.00262501
3.95799e-18
0.00262501
1.19044e-16
0.00262501
1.14693e-14
0.00262501
1.01437e-12
0.002625
9.75405e-11
0.00262454
7.08179e-09
0.0025886
8.1891e-07
0.00162582
9.62705e-05
0.00122029
0.000295617
0.00121753
0.000392741
0.00115751
0.000365742
0.00102567
0.000442071
0.000917306
0.000402632
0.000844429
0.000406286
0.000783459
0.000386213
0.000713842
0.000386948
0.000636157
0.000357073
0.000552184
0.000325347
0.000483945
0.000281999
0.000439537
0.00024477
0.000407481
0.000227877
0.00037731
0.000224585
0.000344318
0.000228435
0.000306316
0.000234095
0.00026434
0.000236533
0.00021992
0.000239404
0.000175204
0.000238748
0.000129701
0.000238813
8.77799e-05
0.000239281
4.35179e-05
0.000248384
0.00024214
0.00262501
-1.09376e-18
0.00262501
-8.5404e-19
0.00262501
4.11159e-19
0.00262501
-1.59939e-18
0.00262501
-3.50271e-19
0.00262501
-8.91367e-20
0.00262501
-5.80992e-19
0.00262501
3.65667e-19
0.00262501
4.25604e-19
0.00262501
5.47956e-19
0.00262501
7.75296e-19
0.00262501
6.7637e-19
0.00262501
2.98646e-18
0.00262501
1.53724e-18
0.00262501
3.10812e-19
0.00262501
5.06881e-19
0.00262501
-4.1435e-19
0.00262501
1.24258e-18
0.00262501
-5.06684e-19
0.00262501
-1.93572e-18
0.00262501
6.2614e-19
0.00262501
8.94895e-19
0.00262501
4.62197e-19
0.00262501
1.52282e-18
0.00262501
7.18502e-19
0.00262501
1.58919e-18
0.00262501
3.66749e-20
0.00262501
-1.60876e-18
0.00262501
-2.10527e-18
0.00262501
1.67954e-18
0.00262501
-5.75541e-19
0.00262501
7.42503e-20
0.00262501
1.54965e-18
0.00262501
8.47026e-19
0.00262501
9.60589e-19
0.00262501
1.32724e-18
0.00262501
2.09229e-18
0.00262501
6.30374e-19
0.00262501
-7.15633e-19
0.00262501
4.89241e-19
0.00262501
-4.70887e-19
0.00262501
-7.34654e-19
0.00262501
1.16297e-19
0.00262501
-1.55513e-19
0.00262501
1.44666e-18
0.00262501
-6.60507e-19
0.00262501
-3.53088e-20
0.00262501
-2.50263e-18
0.00262501
2.06617e-19
0.00262501
5.3304e-19
0.00262501
6.74345e-19
0.00262501
6.46955e-19
0.00262501
-1.44126e-18
0.00262501
-7.67954e-19
0.00262501
-1.78408e-18
0.00262501
-2.77242e-19
0.00262501
3.12686e-19
0.00262501
7.98029e-19
0.00262501
1.21904e-18
0.00262501
1.02234e-19
0.00262501
1.47044e-18
0.00262501
9.93463e-19
0.00262501
-1.44793e-18
0.00262501
9.71077e-19
0.00262501
5.11395e-19
0.00262501
7.78422e-19
0.00262501
9.93383e-17
0.00262501
9.62028e-15
0.00262501
8.50151e-13
0.002625
8.18604e-11
0.00262461
5.78263e-09
0.00259307
7.0625e-07
0.00169173
8.7695e-05
0.00126982
0.000374959
0.00126535
0.000458857
0.00116569
0.000480764
0.00102469
0.000554912
0.000915102
0.000516543
0.000848179
0.000507982
0.000791575
0.000479175
0.000723456
0.000476397
0.000644805
0.000443441
0.000558976
0.000409508
0.000490573
0.000358839
0.000444929
0.000314586
0.000410596
0.000291894
0.000379112
0.000283722
0.000345553
0.000286225
0.000307156
0.000292599
0.000264699
0.000295934
0.000219812
0.00029956
0.000174711
0.000298603
0.000129166
0.000298361
8.79114e-05
0.0002984
4.48608e-05
0.000310534
0.0003056
0.00262501
2.35693e-19
0.00262501
7.24405e-19
0.00262501
8.55393e-19
0.00262501
-9.58156e-20
0.00262501
-2.62561e-18
0.00262501
-2.06078e-18
0.00262501
-1.13145e-18
0.00262501
5.0473e-19
0.00262501
3.82871e-19
0.00262501
-7.43346e-19
0.00262501
1.62303e-18
0.00262501
1.19698e-18
0.00262501
6.43637e-19
0.00262501
2.16706e-19
0.00262501
-6.09615e-19
0.00262501
-1.45973e-19
0.00262501
-1.413e-18
0.00262501
-1.25098e-18
0.00262501
-1.93205e-18
0.00262501
3.2663e-19
0.00262501
3.89097e-19
0.00262501
1.28737e-20
0.00262501
4.4524e-19
0.00262501
-6.74158e-19
0.00262501
3.59115e-20
0.00262501
-7.19509e-19
0.00262501
-7.02055e-19
0.00262501
-2.81247e-19
0.00262501
-6.64823e-19
0.00262501
-9.63881e-19
0.00262501
-7.01016e-19
0.00262501
1.31791e-19
0.00262501
-2.01145e-19
0.00262501
-2.90328e-19
0.00262501
1.61026e-19
0.00262501
-9.33979e-20
0.00262501
6.94838e-19
0.00262501
7.87143e-19
0.00262501
2.51275e-18
0.00262501
1.16168e-18
0.00262501
-1.78656e-19
0.00262501
1.00616e-18
0.00262501
2.95923e-19
0.00262501
-1.41334e-18
0.00262501
-1.31767e-18
0.00262501
8.09907e-19
0.00262501
9.97341e-19
0.00262501
4.38828e-19
0.00262501
3.07495e-19
0.00262501
2.04557e-18
0.00262501
1.73896e-18
0.00262501
1.86269e-18
0.00262501
1.35382e-18
0.00262501
-9.56795e-20
0.00262501
2.77658e-19
0.00262501
-3.71226e-20
0.00262501
-3.60492e-19
0.00262501
-1.6755e-19
0.00262501
-9.44383e-20
0.00262501
1.7566e-18
0.00262501
1.01712e-21
0.00262501
-4.46278e-20
0.00262501
1.96649e-18
0.00262501
6.58746e-19
0.00262501
1.44843e-18
0.00262501
1.74245e-18
0.00262501
9.13527e-17
0.00262501
8.88486e-15
0.00262501
8.32912e-13
0.00262501
8.15088e-11
0.00262468
6.30561e-09
0.00259801
7.65735e-07
0.00175323
8.52108e-05
0.00128114
0.000452578
0.00130019
0.000500505
0.00116539
0.000619676
0.00101244
0.000664929
0.000915949
0.000619965
0.000862746
0.000606168
0.000813038
0.000571106
0.000746242
0.000565357
0.000666271
0.000528845
0.000578451
0.000493273
0.000509374
0.000437676
0.000461113
0.000389307
0.00042258
0.000361027
0.000388313
0.000346452
0.000352981
0.000346195
0.000313172
0.000352348
0.000269124
0.00035621
0.000222662
0.000360475
0.000176321
0.000359301
0.000130051
0.000358898
8.8562e-05
0.000358509
4.53896e-05
0.000373321
0.000369412
0.00262501
-7.34382e-20
0.00262501
-1.12433e-18
0.00262501
-3.79594e-18
0.00262501
-2.63376e-18
0.00262501
-9.93553e-19
0.00262501
-1.43301e-18
0.00262501
-2.31437e-19
0.00262501
-1.37128e-18
0.00262501
-1.52819e-18
0.00262501
1.44674e-19
0.00262501
9.35086e-20
0.00262501
8.14087e-19
0.00262501
9.69581e-19
0.00262501
-1.88405e-19
0.00262501
7.86193e-19
0.00262501
1.09782e-18
0.00262501
7.29846e-19
0.00262501
1.34032e-19
0.00262501
-2.24832e-19
0.00262501
7.18481e-19
0.00262501
-8.80078e-19
0.00262501
-6.27964e-19
0.00262501
-2.03996e-18
0.00262501
-6.12082e-19
0.00262501
-8.47685e-19
0.00262501
-9.10604e-19
0.00262501
-2.20938e-19
0.00262501
-1.11261e-18
0.00262501
-3.97482e-19
0.00262501
1.61958e-18
0.00262501
1.99842e-18
0.00262501
-1.16211e-18
0.00262501
6.31188e-19
0.00262501
-2.43317e-19
0.00262501
9.75991e-20
0.00262501
9.34148e-19
0.00262501
4.96024e-19
0.00262501
-1.10039e-18
0.00262501
-3.34629e-19
0.00262501
-1.4977e-18
0.00262501
-5.94442e-19
0.00262501
-3.69561e-19
0.00262501
3.59328e-19
0.00262501
1.64391e-18
0.00262501
2.11287e-19
0.00262501
-3.10659e-19
0.00262501
-9.67675e-19
0.00262501
1.05646e-18
0.00262501
2.53431e-20
0.00262501
-7.01899e-19
0.00262501
-4.03254e-19
0.00262501
-5.80875e-19
0.00262501
-1.38662e-18
0.00262501
7.60317e-19
0.00262501
1.06956e-18
0.00262501
3.30646e-20
0.00262501
-8.68347e-19
0.00262501
-8.47088e-19
0.00262501
-2.1809e-18
0.00262501
-6.76184e-19
0.00262501
6.0934e-19
0.00262501
-2.80012e-19
0.00262501
-4.93357e-20
0.00262501
-1.10366e-19
0.00262501
4.44574e-19
0.00262501
1.3122e-18
0.00262501
5.13431e-17
0.00262501
6.0674e-15
0.00262501
5.92942e-13
0.00262501
5.76759e-11
0.00262477
4.75393e-09
0.00260437
5.76177e-07
0.00187381
6.3828e-05
0.00132957
0.000506411
0.00135957
0.000544395
0.00118724
0.000781338
0.00101184
0.000777517
0.000924752
0.000712537
0.00088041
0.000702105
0.000833599
0.000668612
0.000764614
0.000659283
0.000681096
0.000616219
0.000590723
0.000577174
0.000520208
0.000518189
0.000468627
0.000468266
0.000427029
0.000434353
0.000391184
0.000411593
0.000355277
0.000407097
0.000315407
0.000412157
0.000270598
0.000416451
0.000223076
0.000421544
0.000176127
0.000420354
0.000129873
0.000419907
8.85403e-05
0.00041918
4.51844e-05
0.000436004
0.000433736
0.00262501
-1.31268e-18
0.00262501
2.579e-19
0.00262501
8.59332e-19
0.00262501
-3.64715e-19
0.00262501
-8.72826e-19
0.00262501
-3.23925e-19
0.00262501
-1.28852e-18
0.00262501
-1.63296e-18
0.00262501
-1.61217e-19
0.00262501
1.09778e-19
0.00262501
8.95682e-19
0.00262501
1.06198e-18
0.00262501
-7.71416e-19
0.00262501
5.37752e-19
0.00262501
7.66521e-19
0.00262501
1.42987e-18
0.00262501
6.65272e-19
0.00262501
-1.11305e-18
0.00262501
4.15611e-19
0.00262501
-1.17367e-18
0.00262501
-1.14779e-19
0.00262501
9.74508e-19
0.00262501
9.64525e-19
0.00262501
-4.53958e-19
0.00262501
-1.64658e-18
0.00262501
-9.41719e-19
0.00262501
-9.3878e-19
0.00262501
-2.49634e-19
0.00262501
-8.58462e-20
0.00262501
-5.50735e-19
0.00262501
-9.06684e-19
0.00262501
1.3917e-18
0.00262501
-1.06296e-18
0.00262501
1.82897e-18
0.00262501
-1.66263e-18
0.00262501
-1.16972e-22
0.00262501
-6.44637e-19
0.00262501
-5.90662e-19
0.00262501
-4.41209e-19
0.00262501
9.48464e-20
0.00262501
5.76359e-19
0.00262501
4.6536e-19
0.00262501
-1.37049e-18
0.00262501
-2.92256e-19
0.00262501
2.02537e-19
0.00262501
-1.13449e-18
0.00262501
-7.25571e-19
0.00262501
-1.0215e-18
0.00262501
-3.39478e-19
0.00262501
-1.70603e-18
0.00262501
-5.27895e-19
0.00262501
-1.35577e-18
0.00262501
1.75609e-18
0.00262501
3.33918e-19
0.00262501
-8.49545e-20
0.00262501
5.90948e-19
0.00262501
4.92298e-19
0.00262501
-2.25868e-18
0.00262501
1.625e-18
0.00262501
-1.7419e-19
0.00262501
-1.62731e-18
0.00262501
8.24097e-19
0.00262501
-3.10735e-19
0.00262501
-8.26368e-19
0.00262501
-3.44045e-19
0.00262501
7.5093e-20
0.00262501
2.67713e-17
0.00262501
2.8396e-15
0.00262501
3.35144e-13
0.00262501
3.84571e-11
0.00262485
3.22282e-09
0.00261052
4.0411e-07
0.00202032
4.52199e-05
0.00138764
0.000525852
0.0013794
0.000627502
0.00117611
0.000959133
0.000980779
0.000896707
0.000903435
0.000795845
0.000875232
0.000787288
0.000839384
0.000762782
0.000773734
0.00075321
0.000690173
0.000703183
0.000600061
0.000660251
0.000530003
0.000598539
0.000476572
0.000549293
0.000433279
0.00050982
0.000396411
0.00047837
0.000359907
0.000469029
0.000319651
0.00047243
0.000273648
0.000477075
0.000224214
0.000483494
0.000175344
0.000483007
0.000127774
0.000482961
8.61029e-05
0.000481269
4.60204e-05
0.000495327
0.000500054
0.00262501
8.20925e-19
0.00262501
1.47359e-19
0.00262501
2.56286e-19
0.00262501
2.97144e-19
0.00262501
3.5514e-19
0.00262501
-4.31456e-19
0.00262501
-4.07143e-19
0.00262501
-4.92225e-19
0.00262501
-1.90678e-18
0.00262501
1.81553e-18
0.00262501
-7.40186e-20
0.00262501
-4.83047e-19
0.00262501
-2.70088e-18
0.00262501
-2.0753e-18
0.00262501
5.13724e-19
0.00262501
-7.50388e-19
0.00262501
1.44701e-18
0.00262501
7.32951e-19
0.00262501
1.01634e-18
0.00262501
7.76207e-19
0.00262501
1.50648e-18
0.00262501
-4.51699e-19
0.00262501
2.16728e-19
0.00262501
3.708e-19
0.00262501
1.10791e-18
0.00262501
-4.07786e-19
0.00262501
-2.54775e-19
0.00262501
-2.10683e-18
0.00262501
2.29813e-19
0.00262501
4.58775e-19
0.00262501
6.1102e-19
0.00262501
1.37553e-18
0.00262501
2.54563e-18
0.00262501
1.11997e-18
0.00262501
4.84841e-18
0.00262501
1.35075e-18
0.00262501
-1.17165e-18
0.00262501
-2.47076e-18
0.00262501
7.28155e-19
0.00262501
7.27589e-19
0.00262501
6.12402e-19
0.00262501
-3.1395e-19
0.00262501
7.37955e-19
0.00262501
-2.26699e-18
0.00262501
-3.15072e-18
0.00262501
-1.75569e-18
0.00262501
-1.62974e-18
0.00262501
-1.63188e-18
0.00262501
-2.7771e-18
0.00262501
4.34666e-19
0.00262501
-1.94196e-18
0.00262501
-5.52023e-19
0.00262501
-6.65741e-19
0.00262501
1.17829e-18
0.00262501
1.90463e-18
0.00262501
3.98736e-19
0.00262501
-2.17867e-19
0.00262501
9.05948e-19
0.00262501
-2.00755e-18
0.00262501
-2.62547e-18
0.00262501
-6.67793e-19
0.00262501
-8.93755e-19
0.00262501
-4.57082e-19
0.00262501
-1.71578e-18
0.00262501
-3.72515e-19
0.00262501
3.13768e-19
0.00262501
1.84406e-17
0.00262501
1.20584e-15
0.00262501
1.17494e-13
0.00262501
1.40736e-11
0.00262492
2.06077e-09
0.00261617
2.83905e-07
0.00220677
2.25397e-05
0.00146963
0.000522003
0.00137659
0.000769514
0.00116794
0.00110085
0.000992107
0.000992687
0.0009264
0.00087414
0.000904297
0.000870873
0.000872617
0.000856214
0.000806748
0.000848745
0.00072058
0.000793449
0.000628925
0.000746287
0.000556763
0.000681424
0.000499288
0.000633726
0.000451928
0.000588825
0.00041121
0.000549162
0.000371712
0.000534407
0.000329261
0.000535073
0.000281189
0.000539376
0.000229705
0.000546725
0.000179281
0.000546801
0.000129771
0.000547861
8.41216e-05
0.000547375
4.31102e-05
0.000557872
0.000563729
0.00262501
-4.17701e-19
0.00262501
9.15331e-19
0.00262501
8.22968e-19
0.00262501
2.20136e-19
0.00262501
-3.96615e-19
0.00262501
1.43228e-19
0.00262501
-1.44801e-18
0.00262501
2.52975e-19
0.00262501
-2.81081e-19
0.00262501
-2.10364e-18
0.00262501
-3.00563e-18
0.00262501
-3.52589e-19
0.00262501
1.10014e-18
0.00262501
2.09321e-18
0.00262501
-1.33031e-18
0.00262501
-1.46857e-19
0.00262501
-1.97608e-18
0.00262501
3.97417e-19
0.00262501
-1.87448e-18
0.00262501
-3.60257e-19
0.00262501
-1.23987e-18
0.00262501
1.22179e-18
0.00262501
3.39148e-18
0.00262501
3.15416e-18
0.00262501
5.45265e-19
0.00262501
1.59929e-18
0.00262501
6.0405e-20
0.00262501
4.51771e-19
0.00262501
1.0819e-19
0.00262501
9.56401e-19
0.00262501
2.20535e-18
0.00262501
2.18041e-18
0.00262501
2.59366e-18
0.00262501
2.91589e-18
0.00262501
2.03229e-19
0.00262501
-1.04193e-18
0.00262501
-7.10547e-19
0.00262501
2.2241e-18
0.00262501
-1.60098e-19
0.00262501
-1.47421e-18
0.00262501
-5.60177e-19
0.00262501
-9.00165e-19
0.00262501
-3.52934e-19
0.00262501
-7.17784e-19
0.00262501
-1.18886e-18
0.00262501
-2.7993e-18
0.00262501
-2.19804e-18
0.00262501
-1.27831e-18
0.00262501
-5.79758e-20
0.00262501
-1.81775e-18
0.00262501
-2.37071e-19
0.00262501
6.63941e-19
0.00262501
1.09188e-18
0.00262501
9.95506e-19
0.00262501
-8.99412e-19
0.00262501
4.61383e-19
0.00262501
-4.0427e-19
0.00262501
2.18465e-19
0.00262501
-1.24325e-19
0.00262501
-4.45989e-20
0.00262501
1.08017e-19
0.00262501
-6.96733e-20
0.00262501
-8.95346e-19
0.00262501
7.49942e-19
0.00262501
-1.62404e-18
0.00262501
-4.80477e-20
0.00262501
1.97241e-17
0.00262501
1.32791e-15
0.00262501
8.59924e-14
0.00262501
4.12092e-12
0.00262497
4.30937e-10
0.00262003
5.1623e-08
0.00236895
1.90417e-05
0.00150171
0.000518443
0.00132437
0.000942931
0.00113767
0.00118079
0.00102721
0.0010511
0.000975185
0.000951927
0.000941209
0.000970509
0.000894164
0.000963189
0.00082205
0.000946029
0.000736319
0.000884912
0.000647359
0.000834058
0.000574035
0.000766253
0.000512716
0.000720639
0.000461789
0.000670264
0.000417498
0.000623029
0.000375761
0.000602263
0.00033227
0.000599061
0.000283712
0.000602115
0.000231707
0.000610046
0.000181167
0.000610806
0.000132106
0.000612927
8.65991e-05
0.000614074
4.40217e-05
0.000623009
0.000628866
0.00262501
8.36618e-19
0.00262501
2.74986e-19
0.00262501
3.37127e-20
0.00262501
5.68159e-19
0.00262501
2.96902e-19
0.00262501
8.99765e-19
0.00262501
6.77833e-19
0.00262501
1.24096e-19
0.00262501
2.5597e-18
0.00262501
-4.63202e-19
0.00262501
-8.42621e-19
0.00262501
-2.81629e-18
0.00262501
-6.05288e-19
0.00262501
-1.37022e-18
0.00262501
-2.59655e-19
0.00262501
7.24429e-19
0.00262501
-2.26533e-19
0.00262501
-3.5107e-19
0.00262501
3.08382e-18
0.00262501
-6.10193e-20
0.00262501
4.19537e-19
0.00262501
1.75345e-18
0.00262501
1.85412e-19
0.00262501
4.69795e-19
0.00262501
1.09438e-18
0.00262501
2.47554e-19
0.00262501
2.22052e-18
0.00262501
1.78766e-18
0.00262501
1.12134e-18
0.00262501
1.82963e-18
0.00262501
3.08307e-19
0.00262501
1.31642e-18
0.00262501
-4.19882e-19
0.00262501
-9.09495e-20
0.00262501
-9.76293e-19
0.00262501
7.14265e-20
0.00262501
1.43912e-18
0.00262501
4.03229e-19
0.00262501
1.85218e-19
0.00262501
7.01508e-20
0.00262501
6.29348e-19
0.00262501
8.34731e-19
0.00262501
-3.60421e-19
0.00262501
4.1512e-19
0.00262501
4.60236e-19
0.00262501
6.14293e-19
0.00262501
3.90788e-19
0.00262501
-1.33046e-18
0.00262501
-5.41402e-20
0.00262501
5.87508e-19
0.00262501
-5.52389e-19
0.00262501
3.7239e-19
0.00262501
-6.01771e-19
0.00262501
-3.32089e-19
0.00262501
1.3266e-18
0.00262501
-9.81915e-19
0.00262501
-9.45327e-19
0.00262501
1.21433e-18
0.00262501
1.33116e-18
0.00262501
8.4478e-19
0.00262501
-1.38243e-18
0.00262501
-2.07909e-19
0.00262501
-3.77855e-19
0.00262501
-7.24998e-20
0.00262501
-1.2893e-18
0.00262501
-1.64398e-18
0.00262501
1.71866e-17
0.00262501
1.51425e-15
0.00262501
1.09648e-13
0.00262501
6.34182e-12
0.00262499
4.00895e-10
0.00262392
1.19594e-08
0.00251524
1.7109e-06
0.00153492
0.000528433
0.00129174
0.00110709
0.00114022
0.00123185
0.00107803
0.00109811
0.00104064
0.00103195
0.000981742
0.00108754
0.000914591
0.00108216
0.000835874
0.00104846
0.000749367
0.000979786
0.00066364
0.000924645
0.000590233
0.00085277
0.000527122
0.00080723
0.00047493
0.000751328
0.000427784
0.000698887
0.00038377
0.000672476
0.000339058
0.000664858
0.000289811
0.000665993
0.000236943
0.000674264
0.000185539
0.000675978
0.000135852
0.000679173
8.98314e-05
0.000681772
4.59197e-05
0.000690215
0.000696628
0.00262501
-1.11614e-18
0.00262501
4.04548e-19
0.00262501
1.67728e-18
0.00262501
9.48287e-19
0.00262501
1.19363e-18
0.00262501
7.03723e-19
0.00262501
-7.39467e-19
0.00262501
-2.06394e-18
0.00262501
-7.76606e-20
0.00262501
5.60959e-19
0.00262501
-4.54656e-19
0.00262501
-2.48992e-19
0.00262501
-9.0266e-19
0.00262501
-2.87425e-19
0.00262501
-2.41076e-18
0.00262501
-2.83154e-18
0.00262501
-4.49862e-19
0.00262501
-1.07158e-18
0.00262501
-1.30525e-18
0.00262501
-1.27388e-19
0.00262501
-1.80814e-19
0.00262501
-1.37237e-18
0.00262501
-3.30721e-19
0.00262501
-3.37914e-19
0.00262501
5.88737e-19
0.00262501
1.58183e-18
0.00262501
1.85338e-18
0.00262501
1.97723e-18
0.00262501
2.06564e-18
0.00262501
1.1263e-18
0.00262501
1.9827e-19
0.00262501
-1.21909e-18
0.00262501
2.52264e-19
0.00262501
2.86432e-19
0.00262501
-3.8421e-19
0.00262501
9.78685e-19
0.00262501
1.384e-18
0.00262501
5.50841e-19
0.00262501
5.13158e-19
0.00262501
-2.03026e-20
0.00262501
-1.44438e-18
0.00262501
-9.91576e-19
0.00262501
-9.3547e-19
0.00262501
-4.31978e-19
0.00262501
1.80834e-18
0.00262501
-1.4911e-18
0.00262501
5.13342e-19
0.00262501
8.12241e-19
0.00262501
-4.7666e-20
0.00262501
-9.28984e-19
0.00262501
-5.15578e-19
0.00262501
8.88386e-19
0.00262501
-3.46058e-19
0.00262501
-8.72259e-19
0.00262501
-3.5593e-20
0.00262501
-4.13988e-19
0.00262501
6.67016e-19
0.00262501
-9.68458e-19
0.00262501
1.81927e-18
0.00262501
2.05914e-18
0.00262501
1.31828e-18
0.00262501
-9.37112e-19
0.00262501
-1.57186e-18
0.00262501
-2.43936e-18
0.00262501
-9.88715e-19
0.00262501
-9.1196e-19
0.00262501
1.47151e-17
0.00262501
1.29888e-15
0.00262501
1.03305e-13
0.00262501
7.11095e-12
0.002625
5.72178e-10
0.00262417
2.85901e-08
0.00257267
2.40577e-06
0.00157067
0.000496929
0.00127085
0.00122902
0.00115237
0.00127072
0.00113182
0.00113542
0.00110556
0.00111919
0.00103602
0.00121617
0.000947153
0.00121262
0.000857118
0.00115772
0.000771986
0.00107732
0.000691468
0.00101712
0.000617589
0.000941701
0.000550687
0.000894937
0.000494892
0.000833746
0.000443282
0.000778241
0.000395482
0.000746645
0.00034832
0.000733973
0.000297431
0.000732455
0.000242921
0.000740642
0.000190028
0.000743056
0.000139286
0.000746829
9.26841e-05
0.000750361
4.83013e-05
0.000758162
0.000767053
0.00262501
5.99945e-20
0.00262501
2.00424e-19
0.00262501
2.09599e-19
0.00262501
1.99715e-18
0.00262501
8.59248e-19
0.00262501
6.57629e-19
0.00262501
6.17566e-19
0.00262501
4.04174e-19
0.00262501
-8.38598e-19
0.00262501
-1.16649e-18
0.00262501
9.95092e-19
0.00262501
-3.76207e-20
0.00262501
-2.42108e-20
0.00262501
-5.07329e-19
0.00262501
-1.26681e-18
0.00262501
-2.81097e-18
0.00262501
-2.54633e-18
0.00262501
-2.6473e-19
0.00262501
-9.11729e-23
0.00262501
4.20026e-19
0.00262501
2.68789e-19
0.00262501
7.49022e-20
0.00262501
-1.3537e-21
0.00262501
-4.51734e-20
0.00262501
3.33981e-18
0.00262501
4.05338e-18
0.00262501
2.03252e-19
0.00262501
9.5928e-19
0.00262501
1.44089e-18
0.00262501
1.22344e-19
0.00262501
-2.90099e-19
0.00262501
-4.55806e-20
0.00262501
-6.72738e-19
0.00262501
-8.57755e-19
0.00262501
-7.89664e-19
0.00262501
6.89522e-20
0.00262501
7.0339e-19
0.00262501
2.03145e-19
0.00262501
-9.50344e-19
0.00262501
-9.56362e-19
0.00262501
-8.19731e-19
0.00262501
9.24018e-19
0.00262501
1.22685e-19
0.00262501
-2.93595e-19
0.00262501
-9.48956e-19
0.00262501
3.40208e-18
0.00262501
1.12495e-18
0.00262501
1.56317e-18
0.00262501
6.21275e-19
0.00262501
1.2062e-18
0.00262501
1.59858e-18
0.00262501
3.92087e-19
0.00262501
4.78729e-19
0.00262501
4.14297e-19
0.00262501
9.96982e-19
0.00262501
1.0849e-18
0.00262501
1.77247e-18
0.00262501
1.55289e-18
0.00262501
-2.52884e-18
0.00262501
-1.19862e-18
0.00262501
-3.35722e-19
0.00262501
-1.04775e-19
0.00262501
-1.35785e-18
0.00262501
-1.03922e-18
0.00262501
-1.14419e-18
0.00262501
4.01927e-19
0.00262501
1.0211e-17
0.00262501
9.26175e-16
0.00262501
8.00548e-14
0.00262501
6.16725e-12
0.002625
5.34006e-10
0.00262425
3.31234e-08
0.00257478
3.31138e-06
0.00160497
0.000443048
0.00124229
0.00122884
0.00118025
0.00131468
0.00119096
0.00119231
0.00115259
0.00123519
0.00106244
0.00135592
0.000968745
0.00133562
0.000883441
0.00126006
0.000805344
0.00117276
0.000726945
0.00111357
0.000648317
0.00103706
0.000573951
0.000987389
0.000512233
0.000919689
0.000455993
0.000861526
0.000404787
0.000824571
0.000355749
0.000806211
0.00030345
0.00080157
0.000247388
0.000809349
0.00019301
0.000812065
0.000141311
0.000815827
9.42342e-05
0.000819827
5.06942e-05
0.000825711
0.000839481
0.00262501
8.87286e-20
0.00262501
-5.36266e-19
0.00262501
-9.36373e-19
0.00262501
-4.93338e-19
0.00262501
6.38822e-19