/*--------------------------------*- C++ -*----------------------------------*\
| =========                 |                                                 |
| \\      /  F ield         | OpenFOAM: The Open Source CFD Toolbox           |
|  \\    /   O peration     | Version:  v1812                                 |
|   \\  /    A nd           | Web:      www.OpenFOAM.com                      |
|    \\/     M anipulation  |                                                 |
\*---------------------------------------------------------------------------*/
FoamFile
{
    version     2.0;
    format      ascii;
    class       volVectorField;
    location    "0.2";
    object      U;
}
// * * * * * * * * * * * * * * * * * * * * * * * * * * * * * * * * * * * * * //

dimensions      [0 1 -1 0 0 0 0];


internalField   nonuniform List<vector> 
64512
(
(3 -7.31111e-17 0)
(3 6.38612e-16 0)
(3 5.90359e-16 0)
(3 2.88632e-16 0)
(3 1.15121e-15 0)
(3 8.6182e-16 0)
(3 1.41835e-15 0)
(3 2.26135e-15 0)
(3 2.26177e-15 0)
(3 1.75798e-15 0)
(3 1.89942e-15 0)
(3 1.53848e-15 0)
(3 6.71937e-16 0)
(3 1.29336e-16 0)
(3 -3.48883e-16 0)
(3 -5.95966e-16 0)
(3 -3.46293e-16 0)
(3 1.51571e-16 0)
(3 7.33252e-16 0)
(3 8.39347e-16 0)
(3 6.58199e-16 0)
(3 1.9614e-15 0)
(3 3.22691e-15 0)
(3 3.4253e-15 0)
(3 4.71527e-15 0)
(3 4.33116e-15 0)
(3 4.50129e-15 0)
(3 3.62543e-15 0)
(3 3.33592e-15 0)
(3 2.44015e-15 0)
(3 2.40515e-15 0)
(3 2.25953e-15 0)
(3 3.05697e-15 0)
(3 2.67679e-15 0)
(3 2.17919e-15 0)
(3 1.00672e-15 0)
(3 1.80778e-16 0)
(3 -9.42341e-16 0)
(3 -1.058e-15 0)
(3 -1.20637e-15 0)
(3 -1.26913e-15 0)
(3 -1.24234e-15 0)
(3 3.44297e-18 0)
(3 3.08344e-16 0)
(3 9.08044e-16 0)
(3 1.79089e-15 0)
(3 1.74837e-15 0)
(3 2.38042e-15 0)
(3 2.9337e-15 0)
(3 3.52107e-15 0)
(3 3.67399e-15 0)
(3 3.24808e-15 0)
(3 2.18312e-15 0)
(3 1.09784e-15 0)
(3 2.92674e-16 0)
(3 8.46637e-16 0)
(3 1.34432e-15 0)
(3 2.04946e-15 0)
(3 1.99686e-15 0)
(3 1.62417e-15 0)
(3 3.81342e-16 0)
(3 4.06384e-16 0)
(3 4.14873e-16 0)
(3 1.08971e-15 0)
(3 1.00208e-15 0)
(3 3.73133e-16 0)
(3 2.84542e-14 0)
(3 8.27472e-13 0)
(3 6.71775e-11 0)
(3 7.71793e-09 0)
(2.99991 4.47193e-07 0)
(2.99232 6.46567e-05 0)
(1.85253 0.00654284 0)
(0.408593 0.0126959 0)
(0.327246 0.0177664 0)
(0.315739 0.0132786 0)
(0.294856 0.0147695 0)
(0.266321 0.013594 0)
(0.24057 0.0173171 0)
(0.217955 0.0176359 0)
(0.198114 0.0172292 0)
(0.17738 0.0153167 0)
(0.157725 0.0128207 0)
(0.139531 0.0102057 0)
(0.126717 0.00825093 0)
(0.118511 0.00751349 0)
(0.111421 0.00766005 0)
(0.103192 0.00806011 0)
(0.0930784 0.00837119 0)
(0.0814536 0.00844625 0)
(0.0693323 0.00858029 0)
(0.0570554 0.00865701 0)
(0.0448889 0.00893499 0)
(0.0324006 0.00905352 0)
(0.0193305 0.00913032 0)
(0.0059691 0.00858294 0)
(3 1.81487e-16 0)
(3 -8.09696e-16 0)
(3 -4.76513e-16 0)
(3 1.44559e-16 0)
(3 6.88809e-16 0)
(3 9.51878e-16 0)
(3 9.59541e-16 0)
(3 1.81474e-15 0)
(3 2.98314e-15 0)
(3 2.93618e-15 0)
(3 1.49596e-15 0)
(3 -2.30579e-16 0)
(3 -1.6614e-15 0)
(3 -1.45388e-15 0)
(3 -1.74364e-15 0)
(3 -1.38926e-15 0)
(3 -8.01577e-16 0)
(3 -4.9174e-16 0)
(3 3.18574e-16 0)
(3 -1.56619e-16 0)
(3 -7.1161e-16 0)
(3 -1.03202e-16 0)
(3 -4.76133e-16 0)
(3 5.34715e-16 0)
(3 1.32912e-15 0)
(3 2.17229e-15 0)
(3 1.17776e-15 0)
(3 6.81899e-16 0)
(3 1.66488e-16 0)
(3 7.3754e-16 0)
(3 -1.17192e-16 0)
(3 -3.81693e-16 0)
(3 9.88853e-17 0)
(3 7.73627e-16 0)
(3 1.20494e-15 0)
(3 1.3843e-15 0)
(3 7.32915e-16 0)
(3 -3.88459e-16 0)
(3 -1.08369e-15 0)
(3 -9.26165e-16 0)
(3 -9.20322e-16 0)
(3 -7.85452e-16 0)
(3 -8.4926e-16 0)
(3 2.42224e-17 0)
(3 1.4342e-15 0)
(3 5.42974e-16 0)
(3 5.77665e-16 0)
(3 5.52151e-16 0)
(3 1.14064e-15 0)
(3 -5.88589e-16 0)
(3 -1.06092e-15 0)
(3 -3.67188e-16 0)
(3 -3.28454e-16 0)
(3 3.72456e-16 0)
(3 -1.88936e-16 0)
(3 -2.05346e-17 0)
(3 7.9277e-17 0)
(3 4.56568e-16 0)
(3 3.66187e-16 0)
(3 1.13158e-17 0)
(3 -2.39622e-16 0)
(3 3.74757e-17 0)
(3 1.92724e-16 0)
(3 5.23888e-16 0)
(3 5.24758e-16 0)
(3 7.45968e-16 0)
(3 4.93182e-14 0)
(3 5.94058e-12 0)
(3 4.92339e-10 0)
(3 4.69024e-08 0)
(2.99992 3.00312e-06 0)
(2.99274 0.000349711 0)
(1.90103 0.024041 0)
(0.422587 0.0272519 0)
(0.340646 0.0458336 0)
(0.328852 0.0352467 0)
(0.306839 0.04354 0)
(0.275535 0.0400792 0)
(0.251143 0.0456745 0)
(0.232338 0.0426557 0)
(0.215169 0.0416364 0)
(0.195237 0.0367191 0)
(0.174596 0.0321322 0)
(0.1536 0.0273966 0)
(0.136908 0.0240027 0)
(0.124915 0.0232375 0)
(0.115121 0.0238654 0)
(0.105274 0.0247941 0)
(0.0942374 0.0254591 0)
(0.0821755 0.0256938 0)
(0.0697987 0.0261076 0)
(0.0573917 0.0263162 0)
(0.0451467 0.0270584 0)
(0.0325988 0.027303 0)
(0.019379 0.0275555 0)
(0.005492 0.0257286 0)
(3 -1.41672e-16 0)
(3 -3.53617e-16 0)
(3 -2.09981e-16 0)
(3 6.45757e-16 0)
(3 8.52721e-16 0)
(3 1.24477e-15 0)
(3 2.07098e-15 0)
(3 1.36796e-15 0)
(3 1.46699e-15 0)
(3 1.14006e-15 0)
(3 1.50967e-15 0)
(3 1.138e-15 0)
(3 6.7021e-16 0)
(3 -3.4442e-16 0)
(3 -6.98751e-16 0)
(3 -7.05625e-16 0)
(3 7.77466e-16 0)
(3 9.00843e-16 0)
(3 1.09515e-15 0)
(3 1.28265e-15 0)
(3 8.80564e-16 0)
(3 8.60777e-16 0)
(3 7.49205e-16 0)
(3 1.46127e-16 0)
(3 -2.88254e-16 0)
(3 -1.41057e-16 0)
(3 7.28211e-16 0)
(3 1.472e-15 0)
(3 1.32351e-15 0)
(3 7.96558e-16 0)
(3 8.50451e-16 0)
(3 1.15402e-15 0)
(3 1.25493e-15 0)
(3 1.24069e-15 0)
(3 7.36867e-16 0)
(3 4.82453e-16 0)
(3 1.33092e-17 0)
(3 3.87104e-17 0)
(3 2.84707e-16 0)
(3 5.00132e-16 0)
(3 5.98383e-16 0)
(3 5.65902e-16 0)
(3 7.55037e-16 0)
(3 7.43157e-16 0)
(3 5.67896e-16 0)
(3 8.00866e-16 0)
(3 -1.02978e-16 0)
(3 2.61696e-16 0)
(3 6.23417e-16 0)
(3 1.50067e-16 0)
(3 -8.35875e-16 0)
(3 -6.82744e-16 0)
(3 -7.18224e-16 0)
(3 -1.24383e-17 0)
(3 5.44079e-17 0)
(3 -3.861e-16 0)
(3 -2.94054e-16 0)
(3 1.28828e-16 0)
(3 1.5708e-16 0)
(3 -2.27526e-16 0)
(3 -1.07558e-16 0)
(3 -2.23118e-16 0)
(3 -3.79322e-16 0)
(3 5.54946e-17 0)
(3 -3.28485e-16 0)
(3 -5.12099e-17 0)
(3 8.71614e-14 0)
(3 7.22192e-12 0)
(3 6.05116e-10 0)
(3 5.7169e-08 0)
(2.99992 3.66583e-06 0)
(2.99324 0.000435364 0)
(1.93799 0.0286557 0)
(0.418114 0.0503855 0)
(0.335547 0.0748372 0)
(0.317776 0.0612171 0)
(0.294671 0.0760672 0)
(0.265315 0.0682018 0)
(0.243653 0.0729063 0)
(0.227098 0.0696135 0)
(0.209295 0.0701576 0)
(0.188952 0.0640912 0)
(0.16695 0.057666 0)
(0.146011 0.0497493 0)
(0.130998 0.0431348 0)
(0.120726 0.0405067 0)
(0.112381 0.0405821 0)
(0.103672 0.0416651 0)
(0.0934159 0.0426996 0)
(0.0817838 0.0429703 0)
(0.0696242 0.0435612 0)
(0.0573021 0.0438248 0)
(0.0450959 0.0449921 0)
(0.0325821 0.0454044 0)
(0.0193737 0.0460808 0)
(0.0045937 0.0429445 0)
(3 6.47873e-16 0)
(3 5.96875e-16 0)
(3 1.0037e-16 0)
(3 -2.23248e-16 0)
(3 -5.33853e-16 0)
(3 3.7051e-16 0)
(3 9.5973e-16 0)
(3 1.13601e-15 0)
(3 8.80834e-16 0)
(3 7.77173e-16 0)
(3 1.73855e-16 0)
(3 5.58465e-16 0)
(3 8.64597e-16 0)
(3 9.44328e-16 0)
(3 1.21452e-15 0)
(3 8.14945e-16 0)
(3 -3.63122e-16 0)
(3 -4.12403e-16 0)
(3 -3.65557e-16 0)
(3 -5.22918e-16 0)
(3 2.71883e-16 0)
(3 2.20363e-16 0)
(3 7.58685e-16 0)
(3 1.18602e-15 0)
(3 9.00754e-16 0)
(3 3.45148e-17 0)
(3 -8.22239e-17 0)
(3 -5.09534e-17 0)
(3 6.23116e-16 0)
(3 1.83002e-16 0)
(3 9.68795e-16 0)
(3 1.44208e-15 0)
(3 1.18462e-15 0)
(3 1.48881e-15 0)
(3 1.43612e-15 0)
(3 6.3332e-16 0)
(3 -2.81141e-16 0)
(3 -2.77603e-16 0)
(3 6.75529e-16 0)
(3 3.52026e-16 0)
(3 5.5954e-16 0)
(3 5.71385e-16 0)
(3 -2.35394e-16 0)
(3 -3.53955e-16 0)
(3 -6.97352e-16 0)
(3 -9.67872e-16 0)
(3 -2.03086e-16 0)
(3 4.22946e-16 0)
(3 -8.75804e-17 0)
(3 7.61822e-16 0)
(3 1.34503e-16 0)
(3 -1.03125e-15 0)
(3 -2.14012e-16 0)
(3 -2.89487e-16 0)
(3 7.60877e-16 0)
(3 5.19861e-16 0)
(3 6.61288e-16 0)
(3 -4.74685e-17 0)
(3 -6.01209e-16 0)
(3 -9.80024e-16 0)
(3 -1.0248e-15 0)
(3 -1.02545e-15 0)
(3 -1.19739e-15 0)
(3 -1.47484e-15 0)
(3 -8.53963e-16 0)
(3 2.09611e-19 0)
(3 1.07504e-13 0)
(3 1.0164e-11 0)
(3 8.69652e-10 0)
(3 8.58432e-08 0)
(2.99993 5.61995e-06 0)
(2.99411 0.000708596 0)
(2.01899 0.0487504 0)
(0.427985 0.0797625 0)
(0.345624 0.098917 0)
(0.321456 0.086196 0)
(0.297386 0.106338 0)
(0.268338 0.0967658 0)
(0.245788 0.0994376 0)
(0.229762 0.0955717 0)
(0.212108 0.096853 0)
(0.192546 0.0894623 0)
(0.170168 0.0815559 0)
(0.149105 0.0707715 0)
(0.134024 0.0614354 0)
(0.123132 0.0574118 0)
(0.114182 0.0569464 0)
(0.105142 0.058146 0)
(0.0947154 0.0595918 0)
(0.0829228 0.0601368 0)
(0.0704931 0.0610155 0)
(0.0579215 0.0613415 0)
(0.0454958 0.0628985 0)
(0.0328431 0.0634245 0)
(0.0196306 0.0647242 0)
(0.00398423 0.0604169 0)
(3 -1.46832e-16 0)
(3 -2.66076e-16 0)
(3 -2.73328e-16 0)
(3 -3.34009e-16 0)
(3 -5.12689e-16 0)
(3 -6.92074e-17 0)
(3 7.18026e-17 0)
(3 6.11652e-16 0)
(3 7.07041e-16 0)
(3 2.62296e-16 0)
(3 2.62102e-16 0)
(3 5.2193e-16 0)
(3 1.56109e-15 0)
(3 1.62427e-15 0)
(3 9.32824e-16 0)
(3 4.68895e-16 0)
(3 -3.53177e-16 0)
(3 -7.30487e-17 0)
(3 -3.2001e-16 0)
(3 -4.92317e-16 0)
(3 6.19313e-17 0)
(3 6.16007e-16 0)
(3 1.09795e-15 0)
(3 1.30966e-15 0)
(3 1.13194e-15 0)
(3 5.40209e-16 0)
(3 -3.9671e-16 0)
(3 -4.85844e-16 0)
(3 -7.15147e-16 0)
(3 4.31961e-16 0)
(3 5.85381e-16 0)
(3 1.42483e-15 0)
(3 2.48901e-15 0)
(3 2.22435e-15 0)
(3 2.17979e-15 0)
(3 1.81708e-15 0)
(3 1.85785e-15 0)
(3 1.69057e-15 0)
(3 -5.43431e-17 0)
(3 2.30282e-17 0)
(3 -3.35348e-16 0)
(3 -5.85951e-16 0)
(3 -8.45809e-16 0)
(3 -7.36137e-16 0)
(3 -2.74994e-16 0)
(3 -4.44975e-16 0)
(3 -2.04568e-16 0)
(3 -9.46681e-16 0)
(3 -1.45977e-17 0)
(3 -3.58862e-16 0)
(3 -2.69404e-16 0)
(3 -9.89239e-16 0)
(3 -1.30074e-15 0)
(3 -1.23359e-15 0)
(3 -1.44973e-15 0)
(3 -8.91336e-16 0)
(3 -6.31269e-16 0)
(3 2.77977e-17 0)
(3 1.84511e-16 0)
(3 6.91612e-16 0)
(3 6.22741e-16 0)
(3 5.45989e-16 0)
(3 -2.05013e-17 0)
(3 1.89258e-16 0)
(3 -2.88866e-16 0)
(3 1.15908e-15 0)
(3 1.05357e-13 0)
(3 1.05367e-11 0)
(3 9.26008e-10 0)
(3 9.21844e-08 0)
(2.99995 6.26249e-06 0)
(2.99526 0.000801227 0)
(2.15241 0.0576053 0)
(0.456482 0.0998057 0)
(0.363785 0.114746 0)
(0.328365 0.114253 0)
(0.298582 0.13712 0)
(0.268372 0.127557 0)
(0.246018 0.127434 0)
(0.23156 0.1216 0)
(0.214154 0.122654 0)
(0.195037 0.114435 0)
(0.171986 0.105791 0)
(0.150851 0.0929108 0)
(0.135879 0.0812866 0)
(0.124473 0.0755633 0)
(0.114913 0.0739819 0)
(0.105534 0.0749578 0)
(0.0950449 0.0766761 0)
(0.0831389 0.0774831 0)
(0.0705645 0.0786162 0)
(0.0578621 0.0789691 0)
(0.0453706 0.0808586 0)
(0.0327593 0.0813939 0)
(0.0196685 0.0833929 0)
(0.00440243 0.0784243 0)
(3 4.22396e-17 0)
(3 8.12856e-16 0)
(3 8.04272e-16 0)
(3 -2.2048e-16 0)
(3 -2.10634e-16 0)
(3 -1.56055e-15 0)
(3 -9.23585e-16 0)
(3 1.19651e-16 0)
(3 4.24818e-16 0)
(3 1.50018e-16 0)
(3 1.08385e-15 0)
(3 7.54325e-16 0)
(3 1.15953e-15 0)
(3 3.23393e-16 0)
(3 1.07125e-16 0)
(3 -4.64396e-17 0)
(3 -5.96379e-16 0)
(3 -5.82725e-16 0)
(3 -1.34077e-15 0)
(3 -5.30319e-16 0)
(3 1.05219e-16 0)
(3 3.927e-16 0)
(3 1.76534e-16 0)
(3 7.28158e-16 0)
(3 6.32406e-16 0)
(3 5.29231e-16 0)
(3 -5.85463e-17 0)
(3 -5.01102e-16 0)
(3 -6.36427e-16 0)
(3 -3.78844e-16 0)
(3 -9.40433e-16 0)
(3 4.72069e-17 0)
(3 9.25183e-18 0)
(3 1.64794e-16 0)
(3 3.21609e-16 0)
(3 7.08471e-16 0)
(3 8.37062e-16 0)
(3 1.10606e-15 0)
(3 1.21799e-15 0)
(3 7.16777e-16 0)
(3 -1.18176e-16 0)
(3 -1.90741e-16 0)
(3 2.53843e-16 0)
(3 -3.47167e-16 0)
(3 -8.28619e-16 0)
(3 -7.32249e-16 0)
(3 7.53813e-16 0)
(3 2.46019e-16 0)
(3 2.77209e-16 0)
(3 6.12729e-16 0)
(3 1.0924e-15 0)
(3 1.12421e-15 0)
(3 -1.8891e-17 0)
(3 -4.91073e-16 0)
(3 -3.225e-16 0)
(3 -2.03305e-16 0)
(3 -2.93875e-16 0)
(3 -2.32473e-17 0)
(3 1.19125e-16 0)
(3 6.4877e-16 0)
(3 3.56601e-16 0)
(3 3.23624e-16 0)
(3 9.52191e-16 0)
(3 8.95825e-16 0)
(3 1.17148e-15 0)
(3 2.1858e-15 0)
(3 9.43449e-14 0)
(3 9.17434e-12 0)
(3 8.39044e-10 0)
(3 8.43102e-08 0)
(2.99996 5.98614e-06 0)
(2.9964 0.000783994 0)
(2.28887 0.0568206 0)
(0.485182 0.131095 0)
(0.371812 0.131878 0)
(0.335344 0.149379 0)
(0.295853 0.167758 0)
(0.267621 0.158026 0)
(0.248474 0.155442 0)
(0.236865 0.147361 0)
(0.220062 0.147581 0)
(0.201112 0.138652 0)
(0.177352 0.129706 0)
(0.156292 0.115183 0)
(0.14102 0.101989 0)
(0.128691 0.0946802 0)
(0.118078 0.0915681 0)
(0.107921 0.0920046 0)
(0.097005 0.0938432 0)
(0.0846816 0.0948862 0)
(0.0716475 0.0962914 0)
(0.0585447 0.0967065 0)
(0.0457785 0.0989445 0)
(0.0330039 0.0994527 0)
(0.0198186 0.102011 0)
(0.00520964 0.0966581 0)
(3 3.89496e-18 0)
(3 -2.1398e-16 0)
(3 -1.02282e-15 0)
(3 -1.49745e-15 0)
(3 -1.75275e-15 0)
(3 -1.12052e-15 0)
(3 -1.24619e-15 0)
(3 -6.40976e-16 0)
(3 -6.75094e-16 0)
(3 4.86392e-16 0)
(3 6.04093e-16 0)
(3 1.12258e-15 0)
(3 6.38463e-16 0)
(3 4.55046e-16 0)
(3 2.88123e-16 0)
(3 1.60038e-16 0)
(3 -6.78311e-17 0)
(3 -2.69076e-16 0)
(3 -2.54453e-16 0)
(3 3.74233e-16 0)
(3 4.43283e-16 0)
(3 -3.35058e-16 0)
(3 -3.92126e-16 0)
(3 -9.14925e-16 0)
(3 -9.19033e-16 0)
(3 -6.0255e-16 0)
(3 -7.13083e-16 0)
(3 -6.95017e-16 0)
(3 -5.8966e-16 0)
(3 6.48609e-18 0)
(3 2.06597e-15 0)
(3 9.32752e-16 0)
(3 4.12668e-16 0)
(3 -5.89921e-16 0)
(3 -4.83949e-16 0)
(3 3.9851e-16 0)
(3 1.09583e-15 0)
(3 3.35008e-16 0)
(3 1.55397e-16 0)
(3 6.31778e-17 0)
(3 -4.68734e-16 0)
(3 -3.52286e-16 0)
(3 8.72621e-16 0)
(3 7.76375e-16 0)
(3 5.94512e-16 0)
(3 8.87449e-17 0)
(3 -4.16708e-16 0)
(3 2.67552e-16 0)
(3 1.82188e-16 0)
(3 -3.60218e-16 0)
(3 -3.23887e-16 0)
(3 -4.46315e-16 0)
(3 -7.75175e-17 0)
(3 1.19853e-16 0)
(3 2.44389e-16 0)
(3 -6.14279e-18 0)
(3 -4.32643e-16 0)
(3 -6.74325e-16 0)
(3 -7.67639e-16 0)
(3 -6.56467e-16 0)
(3 -6.58032e-17 0)
(3 -3.90472e-16 0)
(3 -1.56781e-16 0)
(3 1.00648e-17 0)
(3 7.34617e-16 0)
(3 1.41659e-15 0)
(3 6.5508e-14 0)
(3 7.00897e-12 0)
(3 6.73079e-10 0)
(3 6.96488e-08 0)
(2.99997 5.2817e-06 0)
(2.99754 0.000715201 0)
(2.45341 0.0546888 0)
(0.543923 0.153585 0)
(0.386584 0.139003 0)
(0.347689 0.188833 0)
(0.296249 0.198354 0)
(0.269286 0.185483 0)
(0.252537 0.18245 0)
(0.242499 0.173643 0)
(0.225159 0.173036 0)
(0.2055 0.163013 0)
(0.18072 0.153637 0)
(0.159631 0.138182 0)
(0.143685 0.124371 0)
(0.130434 0.115541 0)
(0.119342 0.110344 0)
(0.108692 0.109736 0)
(0.0976845 0.111343 0)
(0.0852564 0.112517 0)
(0.0719468 0.114178 0)
(0.058594 0.114666 0)
(0.0457648 0.117272 0)
(0.0330085 0.117818 0)
(0.0199833 0.120936 0)
(0.00600174 0.114987 0)
(3 -3.94166e-16 0)
(3 -9.36798e-16 0)
(3 -8.07338e-16 0)
(3 -9.76674e-16 0)
(3 -1.30635e-15 0)
(3 -8.92995e-16 0)
(3 -8.89665e-16 0)
(3 -1.91682e-15 0)
(3 -1.28813e-15 0)
(3 -9.04977e-16 0)
(3 2.46637e-16 0)
(3 1.2191e-15 0)
(3 2.84732e-16 0)
(3 3.68089e-16 0)
(3 1.12387e-15 0)
(3 1.61411e-15 0)
(3 9.65754e-16 0)
(3 3.37482e-16 0)
(3 1.13416e-16 0)
(3 -7.20974e-17 0)
(3 -6.19008e-16 0)
(3 2.70259e-16 0)
(3 -1.4327e-16 0)
(3 -1.30716e-15 0)
(3 -1.23276e-15 0)
(3 -1.66536e-15 0)
(3 -1.11228e-15 0)
(3 -1.03576e-15 0)
(3 -4.38783e-16 0)
(3 -2.18223e-16 0)
(3 -3.55502e-17 0)
(3 6.53569e-17 0)
(3 4.72604e-16 0)
(3 7.28989e-16 0)
(3 3.80135e-16 0)
(3 -4.86333e-16 0)
(3 -3.4036e-16 0)
(3 -4.7107e-16 0)
(3 -4.37785e-16 0)
(3 -4.32984e-16 0)
(3 -1.03631e-16 0)
(3 -6.14078e-17 0)
(3 -6.70383e-16 0)
(3 -2.82763e-17 0)
(3 -3.44737e-16 0)
(3 -2.00357e-16 0)
(3 -9.63316e-16 0)
(3 -1.42252e-16 0)
(3 -4.29707e-16 0)
(3 -7.36978e-16 0)
(3 -7.41344e-16 0)
(3 -6.93311e-16 0)
(3 3.5406e-16 0)
(3 5.54459e-16 0)
(3 1.3195e-16 0)
(3 1.7008e-17 0)
(3 -6.581e-17 0)
(3 -7.98039e-16 0)
(3 -2.0667e-16 0)
(3 -2.33115e-17 0)
(3 -5.6408e-16 0)
(3 -4.53663e-16 0)
(3 -7.49501e-17 0)
(3 -2.89162e-16 0)
(3 -3.19783e-16 0)
(3 -1.80873e-16 0)
(3 4.02091e-14 0)
(3 4.28724e-12 0)
(3 4.22002e-10 0)
(3 4.50107e-08 0)
(2.99998 3.7275e-06 0)
(2.99845 0.000529851 0)
(2.60935 0.041655 0)
(0.622426 0.168457 0)
(0.400119 0.156158 0)
(0.348715 0.233367 0)
(0.288342 0.229572 0)
(0.262412 0.210112 0)
(0.249185 0.208654 0)
(0.242805 0.201285 0)
(0.22685 0.19991 0)
(0.20786 0.18797 0)
(0.182909 0.177709 0)
(0.162394 0.161534 0)
(0.146005 0.147679 0)
(0.132399 0.137285 0)
(0.12126 0.129657 0)
(0.110181 0.127698 0)
(0.0989933 0.128874 0)
(0.086358 0.130177 0)
(0.072587 0.132207 0)
(0.058671 0.132906 0)
(0.0454062 0.135982 0)
(0.0324457 0.136499 0)
(0.0198095 0.139277 0)
(0.00982376 0.133471 0)
(3 2.52056e-16 0)
(3 1.34998e-16 0)
(3 3.27122e-16 0)
(3 9.95848e-17 0)
(3 5.81373e-16 0)
(3 -1.41047e-16 0)
(3 -4.71163e-16 0)
(3 -6.23376e-16 0)
(3 -4.38932e-16 0)
(3 7.76743e-16 0)
(3 8.971e-16 0)
(3 1.84133e-17 0)
(3 -1.42641e-15 0)
(3 -1.0083e-15 0)
(3 -4.58558e-16 0)
(3 -1.91092e-16 0)
(3 5.07899e-16 0)
(3 1.87711e-16 0)
(3 5.79792e-16 0)
(3 -7.05592e-17 0)
(3 3.22049e-16 0)
(3 3.19286e-16 0)
(3 -1.57377e-16 0)
(3 2.4917e-16 0)
(3 -4.5685e-16 0)
(3 -5.86679e-16 0)
(3 -9.1047e-16 0)
(3 -6.96982e-16 0)
(3 -4.88732e-16 0)
(3 5.03277e-16 0)
(3 -6.33891e-16 0)
(3 1.14028e-15 0)
(3 1.6049e-15 0)
(3 2.85232e-15 0)
(3 3.21588e-15 0)
(3 1.82658e-15 0)
(3 -1.02388e-15 0)
(3 -1.14228e-15 0)
(3 -6.22267e-16 0)
(3 2.05975e-16 0)
(3 6.48776e-16 0)
(3 9.20394e-18 0)
(3 1.22051e-16 0)
(3 -6.28108e-16 0)
(3 -1.60205e-15 0)
(3 -1.7595e-15 0)
(3 -1.87567e-15 0)
(3 -1.66768e-15 0)
(3 -1.28184e-15 0)
(3 -6.41236e-16 0)
(3 -7.96931e-16 0)
(3 -1.11732e-15 0)
(3 -5.65867e-16 0)
(3 4.46858e-16 0)
(3 1.53086e-15 0)
(3 9.48637e-16 0)
(3 4.43225e-16 0)
(3 -5.89102e-16 0)
(3 -5.67217e-16 0)
(3 -1.12216e-15 0)
(3 -1.13558e-15 0)
(3 -2.80043e-16 0)
(3 -7.47464e-16 0)
(3 -8.00514e-16 0)
(3 -6.57067e-16 0)
(3 4.70377e-16 0)
(3 3.06935e-14 0)
(3 2.49405e-12 0)
(3 2.33417e-10 0)
(3 2.37447e-08 0)
(2.99999 2.18553e-06 0)
(2.9991 0.000326705 0)
(2.756 0.0294071 0)
(0.729708 0.17327 0)
(0.415509 0.185302 0)
(0.343955 0.278473 0)
(0.288101 0.260506 0)
(0.268563 0.233735 0)
(0.256868 0.231789 0)
(0.251298 0.226639 0)
(0.235729 0.225714 0)
(0.21661 0.212331 0)
(0.191044 0.201212 0)
(0.170442 0.184343 0)
(0.152694 0.171132 0)
(0.138263 0.159399 0)
(0.126327 0.14948 0)
(0.114151 0.146135 0)
(0.10214 0.146738 0)
(0.0888962 0.148119 0)
(0.0744944 0.150577 0)
(0.0599933 0.151599 0)
(0.046346 0.1553 0)
(0.0326923 0.155987 0)
(0.0192714 0.157563 0)
(0.0126783 0.1524 0)
(3 -1.27303e-16 0)
(3 4.444e-16 0)
(3 1.02199e-15 0)
(3 4.46972e-16 0)
(3 2.26761e-17 0)
(3 -1.96151e-16 0)
(3 -3.30054e-16 0)
(3 -3.96208e-16 0)
(3 -5.90755e-16 0)
(3 -6.89488e-16 0)
(3 -1.32498e-15 0)
(3 -1.17813e-15 0)
(3 -3.45237e-16 0)
(3 9.03083e-17 0)
(3 4.17376e-17 0)
(3 -4.04873e-16 0)
(3 -5.48995e-16 0)
(3 -4.70035e-16 0)
(3 -5.36355e-16 0)
(3 -5.35899e-16 0)
(3 -4.85537e-16 0)
(3 2.42126e-16 0)
(3 1.81511e-15 0)
(3 2.28967e-15 0)
(3 1.71674e-15 0)
(3 8.86276e-16 0)
(3 4.86306e-16 0)
(3 -2.98924e-16 0)
(3 3.703e-16 0)
(3 7.46105e-16 0)
(3 1.61822e-15 0)
(3 2.37565e-15 0)
(3 2.59697e-15 0)
(3 2.40939e-15 0)
(3 1.23014e-15 0)
(3 4.63339e-16 0)
(3 -3.64045e-16 0)
(3 -1.38684e-16 0)
(3 3.68133e-16 0)
(3 -1.18458e-16 0)
(3 -7.22243e-17 0)
(3 -4.355e-16 0)
(3 -3.54946e-16 0)
(3 -1.48503e-15 0)
(3 -1.56649e-15 0)
(3 -2.11514e-15 0)
(3 -1.63328e-15 0)
(3 -1.53471e-15 0)
(3 -1.71532e-15 0)
(3 -1.4648e-15 0)
(3 -1.55335e-15 0)
(3 -2.99766e-16 0)
(3 -3.84471e-17 0)
(3 1.02679e-15 0)
(3 5.84105e-16 0)
(3 1.79041e-16 0)
(3 -3.88122e-16 0)
(3 8.07605e-17 0)
(3 -8.61864e-16 0)
(3 -9.98977e-16 0)
(3 -7.00388e-16 0)
(3 -6.07893e-16 0)
(3 -5.4576e-16 0)
(3 -4.60157e-16 0)
(3 -5.88609e-16 0)
(3 3.89228e-16 0)
(3 2.43797e-14 0)
(3 1.77082e-12 0)
(3 1.49609e-10 0)
(3 1.17709e-08 0)
(2.99999 1.12299e-06 0)
(2.99948 0.000147309 0)
(2.86831 0.0148192 0)
(0.840664 0.178975 0)
(0.423766 0.229157 0)
(0.328004 0.309164 0)
(0.293699 0.282692 0)
(0.281313 0.254714 0)
(0.268802 0.257046 0)
(0.258562 0.254401 0)
(0.239977 0.252749 0)
(0.221075 0.238124 0)
(0.195834 0.225891 0)
(0.175763 0.208255 0)
(0.156579 0.195826 0)
(0.141474 0.182775 0)
(0.128824 0.17078 0)
(0.115828 0.165813 0)
(0.103239 0.165438 0)
(0.0897654 0.166564 0)
(0.0751833 0.169268 0)
(0.0605404 0.170555 0)
(0.0469289 0.174959 0)
(0.0333918 0.176298 0)
(0.0198169 0.176913 0)
(0.0130257 0.170979 0)
(3 -5.96055e-17 0)
(3 4.94207e-16 0)
(3 1.57601e-16 0)
(3 6.57599e-17 0)
(3 -2.13893e-16 0)
(3 1.46709e-16 0)
(3 -5.04219e-16 0)
(3 1.78696e-16 0)
(3 -3.17349e-16 0)
(3 -8.10654e-16 0)
(3 -1.66649e-15 0)
(3 -1.7109e-15 0)
(3 -9.24825e-16 0)
(3 -7.49351e-16 0)
(3 -5.6889e-16 0)
(3 -2.7567e-16 0)
(3 -1.15382e-16 0)
(3 4.90267e-16 0)
(3 8.30182e-16 0)
(3 5.03856e-16 0)
(3 8.66579e-16 0)
(3 1.54101e-15 0)
(3 1.76368e-15 0)
(3 1.04356e-15 0)
(3 1.20608e-15 0)
(3 1.31444e-15 0)
(3 2.00536e-15 0)
(3 2.00683e-15 0)
(3 1.53622e-15 0)
(3 1.25017e-15 0)
(3 1.23472e-15 0)
(3 9.89479e-16 0)
(3 7.27943e-16 0)
(3 -7.25493e-17 0)
(3 -1.98035e-16 0)
(3 -4.44673e-16 0)
(3 2.51538e-17 0)
(3 1.63033e-16 0)
(3 2.75137e-16 0)
(3 -1.65715e-16 0)
(3 1.94191e-16 0)
(3 5.43778e-17 0)
(3 -2.33436e-16 0)
(3 -5.63512e-16 0)
(3 -1.01544e-15 0)
(3 -9.93452e-16 0)
(3 -6.20692e-16 0)
(3 -1.01413e-15 0)
(3 -2.23667e-16 0)
(3 -3.48822e-16 0)
(3 -1.75798e-16 0)
(3 4.57587e-16 0)
(3 9.43569e-17 0)
(3 -1.54068e-17 0)
(3 -2.94257e-16 0)
(3 -2.73299e-16 0)
(3 -6.64865e-16 0)
(3 6.63094e-16 0)
(3 9.25929e-16 0)
(3 5.50984e-16 0)
(3 1.60755e-16 0)
(3 -2.017e-16 0)
(3 -1.71618e-16 0)
(3 1.19173e-16 0)
(3 -7.94027e-16 0)
(3 -2.08309e-15 0)
(3 2.07439e-14 0)
(3 1.65308e-12 0)
(3 1.26261e-10 0)
(3 8.35903e-09 0)
(3 6.8745e-07 0)
(2.99966 5.19095e-05 0)
(2.95552 0.00669989 0)
(0.986461 0.195879 0)
(0.437345 0.275258 0)
(0.318696 0.329037 0)
(0.304836 0.297124 0)
(0.296862 0.276851 0)
(0.282459 0.287015 0)
(0.266049 0.285402 0)
(0.244172 0.280465 0)
(0.224818 0.264244 0)
(0.199974 0.251152 0)
(0.180585 0.232695 0)
(0.160354 0.220698 0)
(0.145263 0.20626 0)
(0.1323 0.19261 0)
(0.118669 0.186063 0)
(0.105497 0.184497 0)
(0.0917092 0.185163 0)
(0.0768747 0.188054 0)
(0.0619665 0.189689 0)
(0.0482363 0.194792 0)
(0.0345934 0.196817 0)
(0.020671 0.196961 0)
(0.0136327 0.190233 0)
(3 9.04046e-18 0)
(3 3.10727e-16 0)
(3 3.58771e-16 0)
(3 5.45694e-16 0)
(3 4.10898e-16 0)
(3 8.57768e-16 0)
(3 3.36128e-16 0)
(3 -2.25933e-16 0)
(3 1.515e-16 0)
(3 -5.25576e-18 0)
(3 -3.71155e-16 0)
(3 -1.18726e-15 0)
(3 -9.50989e-16 0)
(3 -8.7332e-16 0)
(3 -1.20891e-15 0)
(3 -1.10236e-15 0)
(3 -7.96661e-16 0)
(3 -7.81766e-16 0)
(3 -2.41366e-16 0)
(3 -2.61387e-16 0)
(3 -2.79743e-16 0)
(3 -1.80669e-16 0)
(3 -5.58616e-16 0)
(3 -2.72788e-16 0)
(3 2.39766e-16 0)
(3 3.10801e-16 0)
(3 1.69604e-15 0)
(3 1.88138e-15 0)
(3 2.38572e-15 0)
(3 2.09067e-15 0)
(3 1.12333e-15 0)
(3 3.14303e-16 0)
(3 3.79085e-16 0)
(3 4.2152e-17 0)
(3 -1.6716e-16 0)
(3 3.6186e-16 0)
(3 1.18977e-15 0)
(3 1.17095e-15 0)
(3 3.79717e-16 0)
(3 2.70005e-17 0)
(3 -6.01922e-16 0)
(3 -6.68601e-16 0)
(3 -7.15129e-16 0)
(3 2.81244e-17 0)
(3 7.8835e-16 0)
(3 4.46905e-16 0)
(3 3.69133e-17 0)
(3 1.93842e-16 0)
(3 3.12289e-16 0)
(3 -9.6197e-17 0)
(3 -2.97051e-16 0)
(3 9.82871e-17 0)
(3 1.5826e-16 0)
(3 -7.46893e-16 0)
(3 3.5177e-16 0)
(3 3.11522e-17 0)
(3 8.72334e-17 0)
(3 2.74067e-16 0)
(3 9.16352e-16 0)
(3 1.59178e-15 0)
(3 6.12621e-16 0)
(3 -1.61129e-16 0)
(3 -7.40276e-16 0)
(3 -9.12832e-16 0)
(3 -1.58571e-15 0)
(3 -1.16781e-15 0)
(3 1.56392e-14 0)
(3 1.48158e-12 0)
(3 1.16426e-10 0)
(3 7.63216e-09 0)
(3 6.30983e-07 0)
(2.99975 3.39166e-05 0)
(2.98084 0.00265295 0)
(1.17711 0.209966 0)
(0.447915 0.314353 0)
(0.319079 0.343753 0)
(0.315518 0.30697 0)
(0.313297 0.298479 0)
(0.29896 0.31989 0)
(0.275948 0.319067 0)
(0.251401 0.309635 0)
(0.231034 0.291271 0)
(0.207174 0.276844 0)
(0.188616 0.257228 0)
(0.167054 0.245261 0)
(0.151371 0.229521 0)
(0.13741 0.215009 0)
(0.122782 0.207172 0)
(0.108681 0.204297 0)
(0.0942541 0.204335 0)
(0.0789211 0.20734 0)
(0.0635234 0.209352 0)
(0.0495073 0.215111 0)
(0.0356884 0.217784 0)
(0.0215282 0.217573 0)
(0.0144221 0.210301 0)
(3 1.02474e-16 0)
(3 2.99153e-16 0)
(3 8.78738e-16 0)
(3 1.66486e-15 0)
(3 1.64274e-15 0)
(3 7.98565e-16 0)
(3 9.1733e-17 0)
(3 -3.26525e-16 0)
(3 -9.88716e-17 0)
(3 -1.59995e-16 0)
(3 1.18154e-17 0)
(3 1.43805e-16 0)
(3 1.74245e-16 0)
(3 -5.50206e-16 0)
(3 -2.1033e-15 0)
(3 -2.75617e-15 0)
(3 -2.10204e-15 0)
(3 -1.22992e-15 0)
(3 -7.58842e-16 0)
(3 -2.28244e-16 0)
(3 -6.37779e-17 0)
(3 -9.6553e-17 0)
(3 -5.85061e-16 0)
(3 2.6269e-16 0)
(3 9.67451e-16 0)
(3 2.85873e-15 0)
(3 1.95805e-15 0)
(3 1.91613e-15 0)
(3 1.49655e-15 0)
(3 4.00845e-16 0)
(3 -3.86002e-16 0)
(3 -8.79582e-16 0)
(3 -7.60592e-16 0)
(3 -8.36065e-16 0)
(3 -6.22789e-16 0)
(3 2.43794e-16 0)
(3 9.73914e-16 0)
(3 6.54378e-16 0)
(3 -2.77042e-16 0)
(3 -8.28911e-16 0)
(3 -1.50981e-15 0)
(3 -6.9321e-16 0)
(3 -1.84308e-16 0)
(3 -1.93556e-16 0)
(3 2.18941e-16 0)
(3 1.04088e-15 0)
(3 9.72524e-16 0)
(3 1.13241e-15 0)
(3 3.98283e-16 0)
(3 8.09388e-16 0)
(3 7.17934e-16 0)
(3 9.1493e-16 0)
(3 -1.28112e-17 0)
(3 6.57827e-16 0)
(3 2.09241e-16 0)
(3 7.50164e-16 0)
(3 1.20739e-15 0)
(3 1.8239e-16 0)
(3 1.08384e-16 0)
(3 -3.56468e-16 0)
(3 -5.68122e-17 0)
(3 -7.4982e-16 0)
(3 -1.36527e-15 0)
(3 -1.89245e-15 0)
(3 -1.06988e-15 0)
(3 -5.27302e-16 0)
(3 1.17103e-14 0)
(3 1.12035e-12 0)
(3 9.37097e-11 0)
(3 6.78364e-09 0)
(3 5.92398e-07 0)
(2.99982 3.29169e-05 0)
(2.986 0.00332275 0)
(1.43039 0.217991 0)
(0.448429 0.33896 0)
(0.324846 0.357885 0)
(0.327148 0.320779 0)
(0.325897 0.325621 0)
(0.307469 0.356855 0)
(0.280001 0.354471 0)
(0.257935 0.339449 0)
(0.239722 0.318211 0)
(0.216949 0.302938 0)
(0.197912 0.28286 0)
(0.174231 0.270686 0)
(0.156928 0.253715 0)
(0.141614 0.23872 0)
(0.126109 0.229698 0)
(0.111275 0.225302 0)
(0.0963128 0.224506 0)
(0.0805263 0.227467 0)
(0.0646461 0.229711 0)
(0.0503384 0.235913 0)
(0.0363583 0.239062 0)
(0.0221071 0.238302 0)
(0.0151863 0.231126 0)
(3 -1.3574e-16 0)
(3 -1.80241e-16 0)
(3 -2.34512e-16 0)
(3 -3.15767e-16 0)
(3 2.4047e-16 0)
(3 -5.57883e-16 0)
(3 4.62304e-17 0)
(3 8.46865e-16 0)
(3 9.23505e-16 0)
(3 2.44838e-17 0)
(3 4.11414e-16 0)
(3 1.32308e-17 0)
(3 -1.50387e-16 0)
(3 -4.91894e-16 0)
(3 -3.14065e-16 0)
(3 -5.55077e-16 0)
(3 -6.9396e-16 0)
(3 7.80529e-18 0)
(3 1.1489e-16 0)
(3 -1.74457e-16 0)
(3 5.05138e-16 0)
(3 3.38667e-16 0)
(3 1.61875e-15 0)
(3 1.77359e-15 0)
(3 1.55416e-15 0)
(3 9.87789e-16 0)
(3 1.91546e-15 0)
(3 2.5917e-15 0)
(3 1.57248e-15 0)
(3 1.48067e-15 0)
(3 1.24911e-15 0)
(3 9.88326e-16 0)
(3 -3.95852e-16 0)
(3 -4.87338e-16 0)
(3 -4.59385e-16 0)
(3 4.1112e-16 0)
(3 6.62729e-16 0)
(3 -1.25364e-17 0)
(3 -8.61226e-16 0)
(3 -1.17978e-16 0)
(3 8.87428e-16 0)
(3 8.7717e-16 0)
(3 3.14071e-16 0)
(3 3.15904e-16 0)
(3 1.17082e-15 0)
(3 1.92448e-15 0)
(3 1.70539e-15 0)
(3 6.29545e-16 0)
(3 -8.33144e-17 0)
(3 -1.75156e-16 0)
(3 1.01073e-15 0)
(3 5.9275e-16 0)
(3 8.64128e-16 0)
(3 6.17695e-16 0)
(3 9.17759e-17 0)
(3 3.14032e-16 0)
(3 4.27378e-16 0)
(3 3.08718e-16 0)
(3 -1.10262e-15 0)
(3 -1.21209e-15 0)
(3 -1.2246e-15 0)
(3 -8.44057e-16 0)
(3 -1.09927e-15 0)
(3 -1.00798e-15 0)
(3 -3.789e-16 0)
(3 -3.30522e-16 0)
(3 8.01722e-15 0)
(3 6.82106e-13 0)
(3 6.25379e-11 0)
(3 4.98194e-09 0)
(3 4.54375e-07 0)
(2.99989 2.83816e-05 0)
(2.99105 0.00311 0)
(1.76094 0.211977 0)
(0.4562 0.33961 0)
(0.346098 0.374721 0)
(0.345565 0.339399 0)
(0.338146 0.359975 0)
(0.311893 0.39303 0)
(0.286861 0.385497 0)
(0.268941 0.366536 0)
(0.251522 0.344554 0)
(0.227925 0.330453 0)
(0.207241 0.31053 0)
(0.181442 0.297263 0)
(0.163417 0.278327 0)
(0.147402 0.262803 0)
(0.131763 0.25266 0)
(0.11658 0.246786 0)
(0.101118 0.245254 0)
(0.0846727 0.248246 0)
(0.0678904 0.250762 0)
(0.0526556 0.257371 0)
(0.0377446 0.261008 0)
(0.022961 0.258981 0)
(0.0163605 0.252739 0)
(3 -7.83917e-17 0)
(3 -6.32209e-17 0)
(3 -1.61844e-16 0)
(3 -1.37451e-16 0)
(3 1.24328e-16 0)
(3 2.89903e-16 0)
(3 9.97454e-16 0)
(3 1.37058e-15 0)
(3 6.80282e-16 0)
(3 8.7512e-16 0)
(3 2.45102e-16 0)
(3 4.73444e-16 0)
(3 2.8235e-16 0)
(3 -8.12675e-16 0)
(3 -4.01001e-16 0)
(3 1.91215e-16 0)
(3 -8.82785e-17 0)
(3 -2.93628e-16 0)
(3 -5.49297e-16 0)
(3 -2.59573e-16 0)
(3 -8.71332e-16 0)
(3 -6.2265e-16 0)
(3 4.15158e-17 0)
(3 9.96942e-16 0)
(3 1.80149e-15 0)
(3 1.33583e-15 0)
(3 1.32059e-15 0)
(3 1.14362e-15 0)
(3 1.18827e-15 0)
(3 1.41313e-15 0)
(3 1.54859e-15 0)
(3 1.25492e-15 0)
(3 1.29672e-15 0)
(3 3.98646e-16 0)
(3 7.2053e-17 0)
(3 -4.99186e-17 0)
(3 -1.9478e-16 0)
(3 -4.51211e-16 0)
(3 6.85672e-17 0)
(3 -3.24079e-16 0)
(3 -1.8262e-16 0)
(3 -2.85377e-16 0)
(3 -2.94474e-16 0)
(3 -1.62535e-16 0)
(3 1.65193e-16 0)
(3 5.93575e-16 0)
(3 1.69252e-15 0)
(3 1.41077e-15 0)
(3 1.32679e-15 0)
(3 1.16691e-15 0)
(3 2.22453e-16 0)
(3 -7.04967e-16 0)
(3 -5.86779e-16 0)
(3 -3.76981e-16 0)
(3 -9.52647e-17 0)
(3 3.99257e-16 0)
(3 4.31381e-16 0)
(3 1.07118e-15 0)
(3 5.11389e-16 0)
(3 -7.57311e-17 0)
(3 -3.16503e-16 0)
(3 -1.35226e-16 0)
(3 6.70248e-16 0)
(3 4.85577e-16 0)
(3 4.21115e-16 0)
(3 -2.62065e-16 0)
(3 2.59187e-15 0)
(3 3.18754e-13 0)
(3 3.26489e-11 0)
(3 2.86751e-09 0)
(3 2.74988e-07 0)
(2.99994 1.93695e-05 0)
(2.99516 0.00233099 0)
(2.13834 0.172083 0)
(0.490615 0.325993 0)
(0.37503 0.403827 0)
(0.363079 0.367243 0)
(0.346123 0.398352 0)
(0.31588 0.423559 0)
(0.297228 0.410953 0)
(0.280624 0.392923 0)
(0.263087 0.372758 0)
(0.237471 0.360681 0)
(0.214424 0.340767 0)
(0.186914 0.325076 0)
(0.168468 0.303878 0)
(0.151087 0.288071 0)
(0.134821 0.277 0)
(0.119051 0.269741 0)
(0.103052 0.267494 0)
(0.0861507 0.270499 0)
(0.0689525 0.273331 0)
(0.0532025 0.280472 0)
(0.0375772 0.284478 0)
(0.0227537 0.279209 0)
(0.0166422 0.275407 0)
(3 4.69154e-16 0)
(3 -1.27143e-16 0)
(3 -8.49172e-16 0)
(3 -4.68841e-16 0)
(3 -6.89222e-16 0)
(3 5.43523e-16 0)
(3 1.16937e-15 0)
(3 8.32986e-16 0)
(3 -7.84276e-18 0)
(3 -1.82843e-16 0)
(3 -1.17041e-16 0)
(3 -2.44166e-16 0)
(3 -2.85941e-16 0)
(3 -3.59618e-16 0)
(3 -2.46129e-16 0)
(3 2.9708e-16 0)
(3 -2.26246e-16 0)
(3 -7.0547e-16 0)
(3 -5.86871e-16 0)
(3 -7.80537e-16 0)
(3 -3.86981e-16 0)
(3 -4.92753e-16 0)
(3 1.05364e-16 0)
(3 3.23297e-16 0)
(3 -4.19444e-16 0)
(3 3.5078e-16 0)
(3 6.76845e-16 0)
(3 7.34634e-16 0)
(3 1.05248e-15 0)
(3 1.49937e-15 0)
(3 2.42334e-15 0)
(3 2.71421e-15 0)
(3 2.2694e-15 0)
(3 1.95157e-15 0)
(3 5.94497e-16 0)
(3 -5.70867e-16 0)
(3 -1.66256e-15 0)
(3 -1.31429e-15 0)
(3 -1.35889e-15 0)
(3 -1.17403e-15 0)
(3 -1.37118e-15 0)
(3 -1.58621e-15 0)
(3 -3.07743e-16 0)
(3 2.80527e-16 0)
(3 6.18932e-16 0)
(3 5.78721e-16 0)
(3 3.20158e-16 0)
(3 7.17044e-16 0)
(3 5.00908e-16 0)
(3 -1.14834e-16 0)
(3 1.4594e-16 0)
(3 4.76327e-16 0)
(3 7.55389e-16 0)
(3 3.77562e-16 0)
(3 -7.98321e-19 0)
(3 -4.50796e-16 0)
(3 -1.23327e-16 0)
(3 1.1405e-16 0)
(3 1.75352e-17 0)
(3 -3.2056e-16 0)
(3 -1.14324e-16 0)