/*--------------------------------*- C++ -*----------------------------------*\
| =========                 |                                                 |
| \\      /  F ield         | OpenFOAM: The Open Source CFD Toolbox           |
|  \\    /   O peration     | Version:  v1812                                 |
|   \\  /    A nd           | Web:      www.OpenFOAM.com                      |
|    \\/     M anipulation  |                                                 |
\*---------------------------------------------------------------------------*/
FoamFile
{
    version     2.0;
    format      ascii;
    class       surfaceScalarField;
    location    "0.1";
    object      phi;
}
// * * * * * * * * * * * * * * * * * * * * * * * * * * * * * * * * * * * * * //

dimensions      [1 0 -1 0 0 0 0];
oriented        oriented;


internalField   nonuniform List<scalar> 
128384
(
0.00262501
-4.59496e-19
0.00262501
-1.03138e-18
0.00262501
2.33385e-19
0.00262501
6.42826e-19
0.00262501
7.24285e-19
0.00262501
1.05637e-18
0.00262501
1.59416e-18
0.00262501
1.01901e-18
0.00262501
3.1792e-19
0.00262501
1.63584e-18
0.00262501
-2.37919e-18
0.00262501
-1.04424e-18
0.00262501
1.44636e-19
0.00262501
5.52001e-19
0.00262501
1.20413e-18
0.00262501
2.19478e-18
0.00262501
2.49453e-18
0.00262501
5.83928e-19
0.00262501
-1.03743e-18
0.00262501
-1.75976e-18
0.00262501
-2.15617e-19
0.00262501
2.65229e-19
0.00262501
-9.44305e-19
0.00262501
-1.35251e-18
0.00262501
-2.25973e-18
0.00262501
-3.3066e-18
0.00262501
-6.22062e-22
0.00262501
-1.62307e-18
0.00262501
5.02504e-19
0.00262501
1.15103e-19
0.00262501
-1.66087e-20
0.00262501
1.75685e-18
0.00262501
9.82652e-19
0.00262501
1.6738e-18
0.00262501
5.44568e-19
0.00262501
-4.49218e-19
0.00262501
-1.50033e-18
0.00262501
-9.22529e-19
0.00262501
-4.27405e-19
0.00262501
-5.47813e-20
0.00262501
1.02166e-18
0.00262501
-1.0073e-18
0.00262501
5.42455e-19
0.00262501
1.7918e-18
0.00262501
7.1193e-19
0.00262501
1.76522e-18
0.00262501
1.22526e-18
0.00262501
1.56366e-18
0.00262501
1.32613e-18
0.00262501
4.15165e-19
0.00262501
1.58566e-18
0.00262501
1.05711e-18
0.00262501
1.78565e-18
0.00262501
1.64746e-19
0.00262501
8.82323e-19
0.00262501
9.52548e-19
0.00262501
-8.84894e-19
0.00262501
-2.8279e-18
0.00262501
2.69351e-19
0.00262501
-5.50151e-19
0.00262501
-4.34301e-19
0.00262501
-2.69348e-19
0.00262501
-9.07185e-20
0.00262501
-5.61559e-19
0.00262501
5.6404e-19
0.00262501
-3.38502e-18
0.00262501
-1.98179e-18
0.00262501
4.70859e-19
0.00262501
3.47213e-18
0.00262501
-7.86744e-19
0.00262501
-1.8993e-18
0.00262501
2.65248e-19
0.00262501
-1.12527e-18
0.00262501
1.86786e-18
0.00262501
3.72679e-19
0.00262501
1.18967e-18
0.00262501
-2.51466e-18
0.00262501
2.53116e-17
0.00262501
3.4e-15
0.002625
4.45973e-13
0.00262453
5.58276e-11
0.00258173
7.23906e-09
0.00122055
8.38082e-07
0.000212449
3.06019e-06
0.000181784
8.97001e-06
2.03644e-05
1.07481e-05
-9.61916e-05
1.53819e-05
-9.09617e-05
2.03827e-05
-7.42042e-06
2.35357e-05
7.07686e-05
2.81406e-05
7.57869e-05
3.20642e-05
4.52731e-05
3.4659e-05
-1.9271e-05
3.75526e-05
-5.89767e-05
3.93164e-05
-5.58922e-05
4.11287e-05
4.11151e-05
0.00262501
4.71225e-19
0.00262501
8.71088e-20
0.00262501
-1.42649e-20
0.00262501
3.91353e-19
0.00262501
2.42714e-18
0.00262501
-4.03287e-19
0.00262501
6.41076e-19
0.00262501
9.67797e-19
0.00262501
6.00517e-19
0.00262501
3.90699e-19
0.00262501
1.41967e-18
0.00262501
5.47611e-19
0.00262501
9.84595e-19
0.00262501
2.90114e-19
0.00262501
1.55134e-18
0.00262501
1.78331e-18
0.00262501
2.95529e-18
0.00262501
1.68718e-18
0.00262501
1.60763e-18
0.00262501
1.60856e-18
0.00262501
7.94336e-19
0.00262501
1.78716e-21
0.00262501
-3.31307e-19
0.00262501
-7.68151e-19
0.00262501
-1.27464e-18
0.00262501
3.58266e-20
0.00262501
-9.31867e-19
0.00262501
3.09184e-20
0.00262501
1.61009e-19
0.00262501
1.61372e-18
0.00262501
-3.8051e-18
0.00262501
5.24927e-19
0.00262501
1.91579e-18
0.00262501
1.04616e-18
0.00262501
8.06189e-19
0.00262501
1.3225e-18
0.00262501
3.08281e-18
0.00262501
-1.35908e-18
0.00262501
-8.03157e-19
0.00262501
1.04936e-18
0.00262501
1.31012e-18
0.00262501
2.0528e-18
0.00262501
1.30773e-18
0.00262501
1.37099e-18
0.00262501
2.37339e-18
0.00262501
8.31408e-19
0.00262501
4.72588e-18
0.00262501
1.89233e-18
0.00262501
3.00738e-18
0.00262501
1.39336e-18
0.00262501
1.77371e-19
0.00262501
8.64661e-19
0.00262501
-7.03837e-19
0.00262501
8.06701e-21
0.00262501
-1.10679e-18
0.00262501
-2.23384e-18
0.00262501
-7.18385e-19
0.00262501
7.43975e-19
0.00262501
-1.50442e-18
0.00262501
-7.92996e-19
0.00262501
-2.41947e-18
0.00262501
-9.41698e-19
0.00262501
-7.01589e-19
0.00262501
-1.41834e-18
0.00262501
-1.47525e-18
0.00262501
1.45624e-18
0.00262501
-1.4662e-18
0.00262501
-4.5304e-19
0.00262501
-2.36421e-18
0.00262501
-5.54347e-19
0.00262501
1.91806e-19
0.00262501
1.16145e-18
0.00262501
1.5638e-18
0.00262501
-1.0681e-18
0.00262501
-5.92334e-19
0.00262501
-1.02513e-18
0.00262501
-6.31073e-18
0.00262501
2.22138e-17
0.00262501
2.47076e-15
0.002625
3.51384e-13
0.00262454
4.18359e-11
0.00258187
6.81922e-09
0.00122421
1.31444e-06
0.000217466
8.84557e-06
0.000186726
2.0938e-05
2.47675e-05
2.67581e-05
-8.89853e-05
3.38294e-05
-8.52421e-05
4.21106e-05
-1.91614e-06
5.19013e-05
7.42063e-05
5.97821e-05
7.88911e-05
6.6577e-05
4.77698e-05
7.11607e-05
-1.70538e-05
7.60618e-05
-5.73964e-05
7.97524e-05
-5.50497e-05
8.29511e-05
8.3002e-05
0.00262501
-3.45664e-19
0.00262501
1.51105e-18
0.00262501
1.36231e-18
0.00262501
2.34812e-19
0.00262501
-7.42731e-19
0.00262501
1.35691e-18
0.00262501
4.30753e-19
0.00262501
1.06279e-19
0.00262501
6.14879e-20
0.00262501
1.47208e-19
0.00262501
1.18417e-18
0.00262501
-1.8177e-19
0.00262501
-6.78069e-19
0.00262501
1.73304e-18
0.00262501
2.05324e-18
0.00262501
2.18678e-18
0.00262501
3.99982e-19
0.00262501
4.89112e-19
0.00262501
1.49602e-18
0.00262501
9.14344e-19
0.00262501
7.18044e-19
0.00262501
-2.52769e-18
0.00262501
-6.19234e-19
0.00262501
-2.00958e-18
0.00262501
-1.57643e-18
0.00262501
-1.24474e-18
0.00262501
-7.60155e-19
0.00262501
-3.49037e-19
0.00262501
4.05012e-19
0.00262501
9.65728e-19
0.00262501
3.75273e-18
0.00262501
4.16163e-20
0.00262501
1.48402e-19
0.00262501
5.85619e-19
0.00262501
1.33289e-18
0.00262501
6.39436e-19
0.00262501
5.18236e-19
0.00262501
2.63788e-18
0.00262501
3.71654e-18
0.00262501
2.36082e-18
0.00262501
-4.06621e-19
0.00262501
1.89144e-18
0.00262501
2.41135e-18
0.00262501
1.91349e-19
0.00262501
2.60318e-18
0.00262501
3.05498e-18
0.00262501
1.26462e-18
0.00262501
1.78327e-18
0.00262501
6.38322e-19
0.00262501
8.97549e-19
0.00262501
1.17879e-18
0.00262501
6.96589e-19
0.00262501
1.88711e-19
0.00262501
1.22808e-18
0.00262501
2.05769e-19
0.00262501
2.52398e-19
0.00262501
-1.75737e-18
0.00262501
-1.25726e-18
0.00262501
-7.6955e-19
0.00262501
4.41799e-20
0.00262501
1.0762e-18
0.00262501
-5.38684e-19
0.00262501
-6.0182e-19
0.00262501
-3.91353e-19
0.00262501
-2.3396e-18
0.00262501
-1.22536e-18
0.00262501
-1.837e-18
0.00262501
-2.99465e-18
0.00262501
-4.62818e-18
0.00262501
-7.81123e-19
0.00262501
5.47154e-19
0.00262501
1.06848e-19
0.00262501
2.43874e-20
0.00262501
-6.40612e-19
0.00262501
-1.17775e-18
0.00262501
-2.98728e-19
0.00262501
8.94227e-18
0.00262501
1.35306e-16
0.00262501
1.69903e-14
0.002625
2.13275e-12
0.00262454
2.20837e-10
0.00258213
2.42304e-08
0.00122977
3.61213e-06
0.000222463
1.87548e-05
0.000191748
3.95837e-05
3.0515e-05
4.77562e-05
-8.06234e-05
5.45429e-05
-7.78424e-05
6.82536e-05
4.3236e-06
8.39626e-05
7.86874e-05
9.35175e-05
8.30603e-05
0.000103263
5.10099e-05
0.000109993
-1.43578e-05
0.000116058
-5.49536e-05
0.00012047
-5.33281e-05
0.000125564
0.000125495
0.00262501
1.08152e-18
0.00262501
-2.88623e-19
0.00262501
-5.30284e-19
0.00262501
-6.08423e-19
0.00262501
1.99789e-18
0.00262501
-7.5288e-19
0.00262501
-4.92925e-19
0.00262501
-3.1784e-19
0.00262501
9.17716e-19
0.00262501
-1.05809e-18
0.00262501
-1.19244e-18
0.00262501
-3.05839e-19
0.00262501
-6.89593e-19
0.00262501
8.99114e-20
0.00262501
-9.25878e-20
0.00262501
2.35335e-19
0.00262501
-2.54732e-19
0.00262501
-4.08563e-19
0.00262501
1.6517e-19
0.00262501
2.68617e-19
0.00262501
-1.46274e-18
0.00262501
-1.39022e-19
0.00262501
-1.6703e-18
0.00262501
3.71344e-20
0.00262501
-4.76042e-19
0.00262501
-1.87951e-18
0.00262501
8.01481e-19
0.00262501
-1.38437e-19
0.00262501
6.22814e-19
0.00262501
-5.53263e-19
0.00262501
-1.19834e-19
0.00262501
-1.12471e-19
0.00262501
-1.47343e-18
0.00262501
4.10412e-19
0.00262501
-2.1808e-19
0.00262501
6.59061e-19
0.00262501
1.71168e-18
0.00262501
3.26832e-18
0.00262501
2.43812e-18
0.00262501
8.74605e-19
0.00262501
3.02311e-18
0.00262501
1.52398e-18
0.00262501
1.31642e-18
0.00262501
1.68375e-18
0.00262501
-5.18876e-19
0.00262501
1.02726e-18
0.00262501
7.88019e-19
0.00262501
4.33934e-19
0.00262501
1.39358e-18
0.00262501
-4.06323e-19
0.00262501
-1.18797e-18
0.00262501
-1.5803e-20
0.00262501
-1.0322e-20
0.00262501
-1.48183e-18
0.00262501
-1.15262e-19
0.00262501
-8.89185e-19
0.00262501
-3.64056e-19
0.00262501
-7.28294e-19
0.00262501
8.27617e-20
0.00262501
-5.51912e-19
0.00262501
-3.4903e-19
0.00262501
-7.28649e-19
0.00262501
-1.24631e-18
0.00262501
-1.31879e-18
0.00262501
-2.29409e-18
0.00262501
-2.71049e-18
0.00262501
-2.62206e-19
0.00262501
-1.1131e-18
0.00262501
-3.61218e-19
0.00262501
-2.29241e-19
0.00262501
1.17278e-19
0.00262501
8.08331e-19
0.00262501
9.14359e-19
0.00262501
3.7807e-18
0.00262501
1.89389e-18
0.00262501
7.7134e-19
0.00262501
1.54136e-18
0.00262501
2.11821e-16
0.00262501
2.35517e-14
0.002625
2.6546e-12
0.00262455
2.85272e-10
0.00258283
4.97959e-08
0.00124509
6.63012e-06
0.000237821
3.50703e-05
0.000205411
6.63242e-05
4.19523e-05
6.92667e-05
-6.55938e-05
8.71336e-05
-6.35297e-05
0.000101951
1.37306e-05
0.000116599
8.84365e-05
0.000132597
9.17233e-05
0.00014291
5.77439e-05
0.000152033
-9.41558e-06
0.000158797
-5.1293e-05
0.000163067
-5.20786e-05
0.000169124
0.000170059
0.00262501
-3.72594e-19
0.00262501
-3.13184e-19
0.00262501
-1.97624e-18
0.00262501
2.47925e-19
0.00262501
-6.04254e-19
0.00262501
6.8563e-19
0.00262501
9.23416e-19
0.00262501
1.68502e-18
0.00262501
-1.53981e-18
0.00262501
-6.61937e-19
0.00262501
-3.76562e-19
0.00262501
-1.14032e-18
0.00262501
-4.03443e-19
0.00262501
-1.99491e-18
0.00262501
-1.25414e-18
0.00262501
-6.8089e-20
0.00262501
-9.79148e-19
0.00262501
6.98607e-19
0.00262501
-2.60156e-18
0.00262501
-2.36028e-18
0.00262501
-6.45467e-19
0.00262501
-6.15751e-19
0.00262501
7.09034e-19
0.00262501
-1.19079e-18
0.00262501
-4.18227e-19
0.00262501
-6.44455e-19
0.00262501
-1.44955e-18
0.00262501
7.78433e-19
0.00262501
2.98596e-19
0.00262501
5.69195e-19
0.00262501
-2.57858e-19
0.00262501
1.32783e-18
0.00262501
-2.54882e-19
0.00262501
-1.48392e-18
0.00262501
-4.48655e-19
0.00262501
1.01224e-18
0.00262501
1.57363e-18
0.00262501
1.69957e-18
0.00262501
3.30556e-18
0.00262501
3.39488e-18
0.00262501
4.4123e-18
0.00262501
3.84225e-18
0.00262501
2.08584e-18
0.00262501
2.85779e-18
0.00262501
1.8688e-18
0.00262501
7.0779e-19
0.00262501
6.69058e-19
0.00262501
8.28045e-19
0.00262501
1.48922e-19
0.00262501
2.27219e-18
0.00262501
1.13925e-18
0.00262501
-9.68945e-19
0.00262501
-4.45193e-19
0.00262501
7.4161e-19
0.00262501
1.32754e-18
0.00262501
1.36279e-18
0.00262501
1.23096e-18
0.00262501
2.18861e-18
0.00262501
8.42056e-19
0.00262501
-3.07206e-19
0.00262501
-3.31279e-18
0.00262501
-1.67062e-19
0.00262501
-1.72801e-18
0.00262501
8.59966e-19
0.00262501
-1.66149e-18
0.00262501
-1.69725e-18
0.00262501
-2.35174e-18
0.00262501
3.34261e-19
0.00262501
-4.89516e-19
0.00262501
-9.20327e-19
0.00262501
-7.1764e-19
0.00262501
3.33728e-18
0.00262501
2.16124e-18
0.00262501
-3.95874e-19
0.00262501
3.20768e-19
0.00262501
1.55931e-19
0.00262501
8.6896e-18
0.00262501
5.78916e-16
0.00262501
6.74988e-14
0.002625
7.62093e-12
0.00262456
7.44807e-10
0.00258401
8.76124e-08
0.00126452
1.19467e-05
0.000258294
6.29223e-05
0.000182255
9.55106e-05
8.19431e-05
0.000102195
-4.39512e-05
0.000119589
-4.89593e-05
0.000138618
2.75321e-05
0.000158836
9.7757e-05
0.000173781
0.000100386
0.000186064
6.43565e-05
0.000196708
-5.11304e-06
0.000204254
-4.7214e-05
0.000207671
-4.78471e-05
0.000215723
0.000216351
0.00262501
-1.4572e-19
0.00262501
2.62251e-19
0.00262501
3.32014e-19
0.00262501
2.85077e-18
0.00262501
-1.79247e-19
0.00262501
7.73426e-19
0.00262501
-1.25409e-19
0.00262501
-1.1442e-18
0.00262501
5.75474e-19
0.00262501
8.58764e-19
0.00262501
1.01124e-18
0.00262501
-4.27425e-19
0.00262501
-1.36895e-18
0.00262501
-3.97059e-19
0.00262501
1.43511e-18
0.00262501
-1.05225e-18
0.00262501
-6.14794e-19
0.00262501
-1.94857e-18
0.00262501
-2.07919e-19
0.00262501
2.99993e-19
0.00262501
-1.72437e-18
0.00262501
-4.29936e-19
0.00262501
-1.52055e-18
0.00262501
-2.7707e-19
0.00262501
-1.9764e-18
0.00262501
-1.05282e-19
0.00262501
3.97392e-19
0.00262501
-2.21732e-19
0.00262501
3.00777e-19
0.00262501
1.53017e-18
0.00262501
1.37932e-18
0.00262501
-2.29908e-18
0.00262501
7.18909e-19
0.00262501
2.25158e-19
0.00262501
1.12461e-18
0.00262501
1.71628e-21
0.00262501
1.9255e-18
0.00262501
2.6331e-18
0.00262501
2.53462e-18
0.00262501
3.35911e-18
0.00262501
1.92813e-18
0.00262501
2.22427e-18
0.00262501
3.11721e-18
0.00262501
1.76574e-18
0.00262501
-3.68437e-20
0.00262501
-7.04892e-19
0.00262501
8.72902e-19
0.00262501
6.0938e-19
0.00262501
1.0476e-18
0.00262501
8.3482e-19
0.00262501
1.4682e-18
0.00262501
4.90585e-19
0.00262501
1.08279e-18
0.00262501
-3.47901e-20
0.00262501
2.14826e-18
0.00262501
1.64954e-18
0.00262501
2.15428e-18
0.00262501
-4.84355e-19
0.00262501
1.40955e-19
0.00262501
-8.90678e-19
0.00262501
4.66909e-19
0.00262501
8.02445e-19
0.00262501
2.10867e-18
0.00262501
6.16819e-19
0.00262501
8.42265e-19
0.00262501
5.94047e-19
0.00262501
-2.50545e-19
0.00262501
4.2976e-21
0.00262501
8.63785e-19
0.00262501
4.09116e-19
0.00262501
8.86399e-19
0.00262501
-3.61896e-19
0.00262501
3.67136e-20
0.00262501
1.04123e-18
0.00262501
-1.88992e-19
0.00262501
2.74014e-19
0.00262501
6.64113e-18
0.00262501
7.29583e-16
0.00262501
8.96941e-14
0.00262501
1.01804e-11
0.00262458
1.02006e-09
0.00258594
1.27272e-07
0.00130267
1.59997e-05
0.000282206
9.54077e-05
0.00020805
0.000143891
8.65189e-05
0.000138655
-3.30602e-05
0.000160652
-3.27209e-05
0.00017752
5.14226e-05
0.000203138
0.000109392
0.000219562
0.000111089
0.000233037
7.2016e-05
0.000244605
-2.23503e-07
0.00025232
-4.15947e-05
0.000255772
-4.7659e-05
0.000264359
0.000266049
0.00262501
1.49393e-18
0.00262501
-3.06292e-18
0.00262501
-2.18083e-19
0.00262501
-3.84246e-19
0.00262501
-9.61443e-20
0.00262501
-1.09888e-18
0.00262501
-1.68695e-18
0.00262501
-3.59586e-20
0.00262501
-6.25871e-19
0.00262501
-1.60463e-19
0.00262501
-2.85537e-19
0.00262501
-2.20147e-19
0.00262501
6.42232e-19
0.00262501
3.81056e-19
0.00262501
-7.11655e-19
0.00262501
-2.14044e-18
0.00262501
-6.63098e-19
0.00262501
-6.30115e-19
0.00262501
-8.26713e-19
0.00262501
-3.06e-18
0.00262501
-1.17135e-18
0.00262501
-3.24197e-18
0.00262501
-2.50396e-18
0.00262501
-1.53622e-18
0.00262501
-4.07071e-19
0.00262501
-2.33481e-19
0.00262501
1.96175e-18
0.00262501
6.74363e-20
0.00262501
1.88409e-19
0.00262501
-2.68852e-18
0.00262501
4.79853e-19
0.00262501
2.8284e-18
0.00262501
7.77637e-19
0.00262501
1.91511e-18
0.00262501
2.32429e-19
0.00262501
-9.90153e-19
0.00262501
-7.53581e-20
0.00262501
4.58432e-19
0.00262501
1.92801e-18
0.00262501
1.47504e-18
0.00262501
2.61624e-18
0.00262501
1.92536e-18
0.00262501
2.23918e-18
0.00262501
2.0282e-18
0.00262501
3.55167e-18
0.00262501
1.50079e-18
0.00262501
1.8304e-18
0.00262501
8.81776e-19
0.00262501
6.31727e-19
0.00262501
5.8224e-20
0.00262501
-1.31427e-18
0.00262501
-4.84116e-20
0.00262501
-2.52039e-19
0.00262501
5.62788e-19
0.00262501
-7.80076e-19
0.00262501
-2.78408e-19
0.00262501
2.19507e-19
0.00262501
-2.29356e-19
0.00262501
-1.28214e-18
0.00262501
-8.17745e-19
0.00262501
-6.00822e-19
0.00262501
3.96417e-19
0.00262501
-4.88681e-19
0.00262501
6.3688e-19
0.00262501
5.95326e-19
0.00262501
6.97356e-19
0.00262501
1.18868e-18
0.00262501
1.2389e-18
0.00262501
-2.83233e-19
0.00262501
-5.41282e-19
0.00262501
4.0385e-19
0.00262501
5.91015e-19
0.00262501
6.29042e-20
0.00262501
-6.87201e-19
0.00262501
2.68922e-19
0.00262501
6.916e-19
0.00262501
7.93063e-18
0.00262501
1.15693e-15
0.00262501
1.21066e-13
0.00262501
1.62921e-11
0.00262462
1.55123e-09
0.00258866
1.68693e-07
0.0013512
2.21226e-05
0.000318342
0.000135854
0.000232115
0.000202134
0.00010485
0.000184671
-9.45393e-06
0.00020555
-1.07496e-05
0.000221295
6.48286e-05
0.000249726
0.000121805
0.00026885
0.000121346
0.000283631
7.93097e-05
0.000294259
5.62335e-06
0.000302791
-3.72945e-05
0.000306941
-3.99283e-05
0.000315867
0.000318531
0.00262501
-5.1903e-19
0.00262501
1.79646e-18
0.00262501
-1.37536e-18
0.00262501
5.91516e-19
0.00262501
3.95997e-19
0.00262501
6.97759e-21
0.00262501
-3.60468e-19
0.00262501
-5.85982e-20
0.00262501
-1.80369e-19
0.00262501
-2.91163e-18
0.00262501
-1.25809e-18
0.00262501
-1.9434e-19
0.00262501
7.35602e-19
0.00262501
1.5981e-18
0.00262501
2.50715e-19
0.00262501
9.94929e-19
0.00262501
-5.40483e-19
0.00262501
6.73372e-19
0.00262501
-7.44894e-20
0.00262501
1.11022e-19
0.00262501
-1.23926e-18
0.00262501
-6.41756e-19
0.00262501
-8.7951e-19
0.00262501
-2.33642e-18
0.00262501
-5.79008e-19
0.00262501
-3.55201e-19
0.00262501
-7.85629e-19
0.00262501
-2.26284e-19
0.00262501
-2.76688e-19
0.00262501
1.23925e-18
0.00262501
-9.69929e-19
0.00262501
4.82653e-19
0.00262501
2.24893e-18
0.00262501
-2.64682e-19
0.00262501
7.9828e-19
0.00262501
7.49425e-19
0.00262501
-1.79887e-19
0.00262501
1.26929e-18
0.00262501
-6.42713e-19
0.00262501
6.21089e-21
0.00262501
5.66309e-19
0.00262501
2.99963e-18
0.00262501
9.4434e-19
0.00262501
2.32611e-18
0.00262501
-2.16294e-19
0.00262501
1.02452e-18
0.00262501
1.44523e-18
0.00262501
2.02125e-18
0.00262501
1.21374e-18
0.00262501
2.48452e-19
0.00262501
4.87224e-19
0.00262501
1.099e-18
0.00262501
-6.25299e-19
0.00262501
-5.31997e-19
0.00262501
-1.69403e-18
0.00262501
1.77263e-19
0.00262501
-1.55098e-18
0.00262501
-6.02595e-19
0.00262501
-1.04595e-18
0.00262501
9.21284e-19
0.00262501
-1.67073e-19
0.00262501
4.37756e-19
0.00262501
-3.14965e-19
0.00262501
-1.20255e-18
0.00262501
-3.60695e-19
0.00262501
1.39822e-18
0.00262501
4.4323e-19
0.00262501
5.5151e-19
0.00262501
6.75852e-19
0.00262501
1.37448e-18
0.00262501
-1.41125e-18
0.00262501
9.82851e-20
0.00262501
-1.33773e-18
0.00262501
-6.7827e-19
0.00262501
1.71421e-19
0.00262501
6.52615e-19
0.00262501
2.2974e-17
0.00262501
2.53314e-15
0.00262501
3.8378e-13
0.00262501
2.28894e-11
0.00262466
1.72781e-09
0.00259221
2.3561e-07
0.00142026
2.78458e-05
0.000353772
0.000180925
0.000275475
0.000279827
0.000114334
0.000231822
1.84838e-05
0.000252311
2.09781e-05
0.000269216
8.17466e-05
0.00030133
0.000135866
0.000320619
0.000133257
0.000337089
8.70849e-05
0.000346226
1.30889e-05
0.000355307
-3.11119e-05
0.000360058
-3.58511e-05
0.000371311
0.000372806
0.00262501
3.49101e-19
0.00262501
2.73271e-19
0.00262501
-3.32009e-20
0.00262501
-6.56999e-19
0.00262501
-2.53943e-18
0.00262501
-1.95487e-18
0.00262501
7.51747e-20
0.00262501
1.04966e-18
0.00262501
-1.40757e-19
0.00262501
8.31145e-20
0.00262501
-2.17995e-19
0.00262501
-5.72005e-19
0.00262501
-2.31323e-20
0.00262501
-1.92764e-19
0.00262501
-5.14248e-20
0.00262501
2.80557e-19
0.00262501
7.44431e-20
0.00262501
-3.18509e-19
0.00262501
-1.29701e-19
0.00262501
6.25824e-19
0.00262501
-5.25633e-19
0.00262501
-1.53256e-18
0.00262501
-4.89664e-19
0.00262501
-8.19546e-19
0.00262501
-9.9461e-19
0.00262501
-1.32008e-18
0.00262501
-2.1666e-18
0.00262501
6.49756e-19
0.00262501
6.4594e-19
0.00262501
-3.74637e-19
0.00262501
-1.67564e-19
0.00262501
-4.42442e-19
0.00262501
6.66071e-19
0.00262501
1.49038e-18
0.00262501
1.70597e-18
0.00262501
9.61138e-20
0.00262501
-1.05253e-18
0.00262501
-7.45971e-19
0.00262501
-1.30121e-18
0.00262501
-6.72248e-19
0.00262501
-1.03245e-18
0.00262501
-7.10395e-19
0.00262501
-2.04081e-18
0.00262501
-4.0781e-19
0.00262501
1.62857e-18
0.00262501
1.33611e-18
0.00262501
1.74316e-18
0.00262501
2.61356e-19
0.00262501
9.87151e-19
0.00262501
1.80371e-18
0.00262501
6.35345e-19
0.00262501
-3.75846e-19
0.00262501
9.51115e-19
0.00262501
-1.39993e-18
0.00262501
4.42882e-19
0.00262501
-1.47902e-18
0.00262501
-1.27492e-18
0.00262501
-1.50849e-19
0.00262501
-1.08133e-18
0.00262501
-7.13328e-19
0.00262501
5.35215e-19
0.00262501
-8.32021e-19
0.00262501
1.90124e-19
0.00262501
1.60082e-19
0.00262501
-5.2334e-19
0.00262501
-1.60675e-18
0.00262501
3.16114e-19
0.00262501
-1.00238e-19
0.00262501
2.18477e-19
0.00262501
-2.02825e-18
0.00262501
-9.50021e-19
0.00262501
-2.81421e-18
0.00262501
-1.48092e-18
0.00262501
-8.46908e-19
0.00262501
2.45269e-19
0.00262501
-1.88901e-18
0.00262501
4.58296e-18
0.00262501
3.55185e-16
0.00262501
7.63958e-15
0.00262501
9.91241e-12
0.00262471
1.72569e-09
0.00259676
2.01048e-07
0.00150134
2.63857e-05
0.000411481
0.000224788
0.000309962
0.000374917
0.000145723
0.000279031
4.25299e-05
0.000312158
4.61149e-05
0.0003201
0.000101216
0.000355945
0.000149282
0.000374503
0.000144223
0.000392683
9.71574e-05
0.000400131
2.01018e-05
0.00040872
-2.53462e-05
0.000415053
-3.11624e-05
0.000428374
0.000429629
0.00262501
-4.46906e-19
0.00262501
-1.29995e-18
0.00262501
8.35875e-21
0.00262501
-1.50074e-18
0.00262501
-1.50263e-18
0.00262501
-1.90878e-18
0.00262501
-1.64707e-18
0.00262501
-1.06107e-18
0.00262501
9.46747e-20
0.00262501
8.048e-19
0.00262501
-3.95755e-19
0.00262501
7.53521e-19
0.00262501
-4.5286e-19
0.00262501
8.38468e-20
0.00262501
6.78699e-19
0.00262501
-6.33353e-19
0.00262501
-2.17521e-19
0.00262501
-1.0022e-18
0.00262501
-3.64486e-19
0.00262501
-6.32779e-19
0.00262501
-1.19054e-18
0.00262501
-8.06972e-19
0.00262501
-1.32594e-18
0.00262501
-3.8348e-19
0.00262501
-1.46059e-18
0.00262501
-1.26237e-18
0.00262501
-4.52911e-19
0.00262501
-1.30798e-18
0.00262501
-4.75085e-19
0.00262501
-3.96399e-19
0.00262501
4.21277e-20
0.00262501
1.12392e-18
0.00262501
3.08212e-19
0.00262501
-2.96993e-19
0.00262501
-1.8564e-18
0.00262501
-7.81639e-19
0.00262501
1.43892e-18
0.00262501
-2.15974e-18
0.00262501
-9.60506e-19
0.00262501
-3.97213e-19
0.00262501
-7.6898e-19
0.00262501
-7.75114e-19
0.00262501
2.06893e-18
0.00262501
8.29906e-19
0.00262501
1.26214e-18
0.00262501
1.24726e-18
0.00262501
8.15577e-19
0.00262501
9.70823e-19
0.00262501
9.68852e-19
0.00262501
2.09553e-18
0.00262501
2.45159e-18
0.00262501
4.6962e-19
0.00262501
4.14306e-19
0.00262501
-1.34917e-19
0.00262501
-3.79625e-19
0.00262501
-7.7356e-19
0.00262501
-9.64096e-19
0.00262501
-1.19533e-18
0.00262501
1.14047e-18
0.00262501
-4.40773e-19
0.00262501
-3.20145e-19
0.00262501
-8.61034e-19
0.00262501
-1.68962e-18
0.00262501
-1.29403e-18
0.00262501
1.80777e-19
0.00262501
-2.0073e-19
0.00262501
7.5751e-19
0.00262501
-1.41267e-19
0.00262501
-5.00623e-19
0.00262501
-9.43588e-19
0.00262501
-1.35093e-18
0.00262501
-8.06627e-19
0.00262501
2.97866e-19
0.00262501
4.47741e-20
0.00262501
-1.24536e-18
0.00262501
2.59298e-20
0.00262501
1.05134e-17
0.00262501
1.38444e-15
0.00262501
1.63894e-13
0.00262501
1.66564e-11
0.00262476
1.96568e-09
0.00260139
2.3387e-07
0.00161683
2.71939e-05
0.000468196
0.000275834
0.00034124
0.000479584
0.000170965
0.000331058
6.96174e-05
0.000375153
7.42912e-05
0.000374082
0.000122696
0.000411931
0.000163902
0.00042907
0.000156944
0.000450068
0.000107565
0.000455666
2.85678e-05
0.000463884
-1.85707e-05
0.000471905
-2.6144e-05
0.000486411
0.000488027
0.00262501
-3.52604e-19
0.00262501
5.86709e-19
0.00262501
1.24839e-18
0.00262501
5.94739e-19
0.00262501
4.26415e-19
0.00262501
1.38462e-18
0.00262501
1.77175e-18
0.00262501
1.09064e-18
0.00262501
1.36563e-18
0.00262501
9.86313e-19
0.00262501
8.99654e-19
0.00262501
-1.29112e-18
0.00262501
1.00913e-18
0.00262501
-3.43158e-19
0.00262501
-2.97346e-20
0.00262501
-1.01439e-18
0.00262501
6.00466e-19
0.00262501
-2.20044e-19
0.00262501
-3.13058e-19
0.00262501
-1.14162e-18
0.00262501
-6.17581e-19
0.00262501
-2.32676e-19
0.00262501
-5.27398e-19
0.00262501
-2.25318e-18
0.00262501
-1.21255e-18
0.00262501
-7.5325e-19
0.00262501
-2.26672e-18
0.00262501
-6.41316e-19
0.00262501
-3.36882e-19
0.00262501
2.62986e-19
0.00262501
9.49834e-19
0.00262501
2.15774e-18
0.00262501
1.39859e-18
0.00262501
3.86214e-18
0.00262501
2.42999e-18
0.00262501
2.26215e-18
0.00262501
-9.33571e-19
0.00262501
1.54715e-19
0.00262501
-8.49419e-19
0.00262501
-7.29748e-19
0.00262501
-7.28754e-19
0.00262501
-1.08407e-18
0.00262501
-1.12822e-19
0.00262501
3.72636e-19
0.00262501
6.45939e-19
0.00262501
2.59329e-18
0.00262501
6.09313e-19
0.00262501
-2.88529e-19
0.00262501
-5.20285e-19
0.00262501
-6.17807e-19
0.00262501
-3.54846e-19
0.00262501
8.63104e-19
0.00262501
4.7566e-19
0.00262501
-1.59774e-19
0.00262501
-2.70387e-19
0.00262501
-7.18873e-19
0.00262501
1.09526e-19
0.00262501
-4.64009e-19
0.00262501
-5.70505e-19
0.00262501
-5.36234e-19
0.00262501
-6.59208e-19
0.00262501
-1.18751e-18
0.00262501
-6.11626e-19
0.00262501
-6.89814e-19
0.00262501
-1.22459e-18
0.00262501
-5.85316e-19
0.00262501
-1.21391e-18
0.00262501
-6.03524e-19
0.00262501
-2.22347e-18
0.00262501
-1.12775e-18
0.00262501
6.88348e-20
0.00262501
-9.70506e-19
0.00262501
-6.99206e-19
0.00262501
-1.22023e-18
0.00262501
-3.04164e-18
0.00262501
-1.70443e-18
0.00262501
1.72549e-17
0.00262501
1.39698e-15
0.00262501
1.53226e-13
0.00262501
1.7111e-11
0.00262482
2.00699e-09
0.0026066
2.07137e-07
0.00176696
2.36285e-05
0.000546601
0.000317397
0.000389919
0.000592854
0.000211218
0.00038422
0.000108395
0.000456648
0.000109653
0.000434452
0.000144713
0.000472963
0.000177103
0.000485329
0.000168159
0.000508078
0.000117169
0.00051245
3.74527e-05
0.000520983
-1.21549e-05
0.000530565
-2.12051e-05
0.000543958
0.000547859
0.00262501
9.14162e-21
0.00262501
4.74297e-19
0.00262501
-1.1391e-18
0.00262501
-4.09268e-19
0.00262501
-4.48895e-19
0.00262501
-9.79446e-19
0.00262501
-6.12243e-19
0.00262501
-5.9258e-19
0.00262501
8.41324e-19
0.00262501
1.41854e-18
0.00262501
2.15358e-19
0.00262501
2.11019e-18
0.00262501
1.99532e-18
0.00262501
3.36211e-18
0.00262501
-9.75166e-19
0.00262501
8.36663e-19
0.00262501
-7.76293e-19
0.00262501
1.6429e-20
0.00262501
-2.42089e-18
0.00262501
1.1068e-18
0.00262501
9.38815e-19
0.00262501
-6.54649e-19
0.00262501
-7.75135e-19
0.00262501
2.0216e-19
0.00262501
5.36463e-19
0.00262501
-1.26301e-19
0.00262501
1.09788e-18
0.00262501
-3.1331e-19
0.00262501
1.68459e-19
0.00262501
9.25389e-19
0.00262501
7.26808e-20
0.00262501
2.35752e-20
0.00262501
-9.18395e-19
0.00262501
-2.59499e-18
0.00262501
1.13182e-19
0.00262501
1.20315e-19
0.00262501
6.93752e-19
0.00262501
6.16172e-19
0.00262501
2.41721e-18
0.00262501
-5.59281e-19
0.00262501
-5.0089e-19
0.00262501
5.54055e-19
0.00262501
-5.11478e-19
0.00262501
1.51025e-18
0.00262501
8.73509e-19
0.00262501
9.04474e-19
0.00262501
-1.14275e-18
0.00262501
3.34286e-18
0.00262501
1.17526e-18
0.00262501
2.91409e-18
0.00262501
1.47607e-18
0.00262501
2.29938e-18
0.00262501
3.72328e-19
0.00262501
3.96869e-19
0.00262501
-4.0231e-19
0.00262501
1.78872e-18
0.00262501
-7.97312e-19
0.00262501
4.33445e-20
0.00262501
-5.99009e-19
0.00262501
-8.84816e-19
0.00262501
-1.77167e-18
0.00262501
-3.91127e-19
0.00262501
-8.3962e-19
0.00262501
3.084e-19
0.00262501
-8.03507e-19
0.00262501
-9.35443e-19
0.00262501
-6.81247e-19
0.00262501
-1.21524e-18
0.00262501
3.29496e-19
0.00262501
1.30824e-18
0.00262501
-3.82779e-19
0.00262501
-1.56389e-18
0.00262501
-1.07331e-18
0.00262501
-1.64987e-18
0.00262501
3.53103e-19
0.00262501
1.62699e-18
0.00262501
1.25155e-17
0.00262501
9.22822e-16
0.00262501
5.8493e-14
0.00262501
4.19663e-12
0.00262488
4.57202e-10
0.00261188
2.59727e-07
0.00192812
2.18889e-05
0.000628719
0.000350455
0.000429394
0.000712115
0.000246506
0.000449862
0.000150475
0.000541215
0.000147792
0.000502273
0.00016688
0.000537799
0.000189837
0.000542564
0.000178946
0.000565948
0.000128087
0.000570117
4.85871e-05
0.000578982
-3.11227e-06
0.000590898
-1.59093e-05
0.000602789
0.000609648
0.00262501
2.0737e-19
0.00262501
-6.65673e-19
0.00262501
5.54135e-19
0.00262501
-2.02043e-19
0.00262501
7.95502e-19
0.00262501
-2.57086e-18
0.00262501
-3.50596e-19
0.00262501
1.13702e-19
0.00262501
-8.42627e-19
0.00262501
7.92895e-21
0.00262501
2.16428e-18
0.00262501
2.76704e-19
0.00262501
1.461e-18
0.00262501
-7.6348e-19
0.00262501
1.42605e-18
0.00262501
1.347e-18
0.00262501
1.2384e-18
0.00262501
6.61205e-19
0.00262501
1.05809e-18
0.00262501
-2.1523e-18
0.00262501
-8.25043e-19
0.00262501
-1.92521e-19
0.00262501
8.70349e-19
0.00262501
3.31468e-19
0.00262501
2.26691e-20
0.00262501
1.19046e-18
0.00262501
-1.68244e-18
0.00262501
-1.15167e-18
0.00262501
-2.09257e-18
0.00262501
-1.10291e-18
0.00262501
-5.69653e-19
0.00262501
-2.96837e-18
0.00262501
-1.59908e-18
0.00262501
-1.05737e-18
0.00262501
-1.08315e-19
0.00262501
1.86964e-18
0.00262501
1.18892e-18
0.00262501
9.14283e-19
0.00262501
9.05196e-19
0.00262501
1.39586e-18
0.00262501
1.51583e-18
0.00262501
1.57936e-19
0.00262501
9.29753e-19
0.00262501
1.15792e-18
0.00262501
2.55559e-18
0.00262501
7.95987e-19
0.00262501
1.6296e-18
0.00262501
2.33272e-18
0.00262501
1.81572e-18
0.00262501
6.90674e-19
0.00262501
1.81994e-18
0.00262501
1.46329e-18
0.00262501
1.85526e-18
0.00262501
1.32541e-18
0.00262501
6.1669e-19
0.00262501
-2.41776e-18
0.00262501
2.01727e-19
0.00262501
-1.10494e-18
0.00262501
-7.12656e-19
0.00262501
-1.15266e-18
0.00262501
3.2417e-19
0.00262501
5.21843e-19
0.00262501
1.22479e-18
0.00262501
6.18163e-19
0.00262501
2.03086e-19
0.00262501
9.83949e-19
0.00262501
6.11219e-19
0.00262501
-9.04448e-19
0.00262501
1.4789e-19
0.00262501
4.52606e-19
0.00262501
-7.98283e-19
0.00262501
-7.81844e-19
0.00262501
-9.71072e-19
0.00262501
-1.4761e-18
0.00262501
-1.23368e-18
0.00262501
-7.89217e-19
0.00262501
1.34308e-17
0.00262501
1.19032e-15
0.00262501
8.99123e-14
0.00262501
6.45761e-12
0.00262496
5.21642e-10
0.00261634
2.99529e-08
0.00209853
1.16474e-05
0.000705196
0.000390347
0.000466616
0.000821604
0.000288973
0.000533106
0.000208717
0.000630052
0.00019096
0.000572215
0.000191993
0.000605976
0.000204265
0.000600923
0.0001905
0.000626241
0.000137198
0.000629204
5.81448e-05
0.000638612
6.12996e-06
0.000652137
-9.75345e-06
0.000664315
0.00067246
0.00262501
6.95107e-20
0.00262501