/*--------------------------------*- C++ -*----------------------------------*\
| =========                 |                                                 |
| \\      /  F ield         | OpenFOAM: The Open Source CFD Toolbox           |
|  \\    /   O peration     | Version:  v1812                                 |
|   \\  /    A nd           | Web:      www.OpenFOAM.com                      |
|    \\/     M anipulation  |                                                 |
\*---------------------------------------------------------------------------*/
FoamFile
{
    version     2.0;
    format      ascii;
    class       volVectorField;
    location    "0.1";
    object      U;
}
// * * * * * * * * * * * * * * * * * * * * * * * * * * * * * * * * * * * * * //

dimensions      [0 1 -1 0 0 0 0];


internalField   nonuniform List<vector> 
64512
(
(3 3.94648e-17 0)
(3 -2.92359e-16 0)
(3 -5.19728e-16 0)
(3 4.27499e-16 0)
(3 5.83065e-16 0)
(3 9.63527e-16 0)
(3 1.44646e-15 0)
(3 1.49371e-15 0)
(3 1.05954e-15 0)
(3 1.23303e-15 0)
(3 4.47639e-16 0)
(3 -3.28732e-16 0)
(3 2.82337e-16 0)
(3 1.79334e-15 0)
(3 3.65031e-15 0)
(3 4.65416e-15 0)
(3 4.6167e-15 0)
(3 3.08697e-15 0)
(3 1.6015e-15 0)
(3 -5.34754e-16 0)
(3 -1.86615e-16 0)
(3 -1.62484e-16 0)
(3 -6.78749e-16 0)
(3 -7.28524e-16 0)
(3 -1.34304e-15 0)
(3 -1.06482e-15 0)
(3 -8.0123e-16 0)
(3 4.92408e-16 0)
(3 8.23095e-16 0)
(3 1.52013e-15 0)
(3 7.71922e-16 0)
(3 1.38246e-15 0)
(3 1.6354e-15 0)
(3 1.66449e-15 0)
(3 1.15974e-15 0)
(3 3.02181e-16 0)
(3 -7.56189e-16 0)
(3 -1.33235e-15 0)
(3 -1.22745e-15 0)
(3 -1.24869e-15 0)
(3 -4.92127e-16 0)
(3 -1.29926e-16 0)
(3 7.63735e-16 0)
(3 8.52843e-16 0)
(3 1.10662e-15 0)
(3 1.01446e-15 0)
(3 1.47939e-15 0)
(3 1.53773e-15 0)
(3 1.33525e-15 0)
(3 1.17265e-15 0)
(3 1.61655e-15 0)
(3 1.8973e-15 0)
(3 2.60568e-15 0)
(3 2.37523e-15 0)
(3 1.21817e-15 0)
(3 1.50112e-15 0)
(3 2.96731e-16 0)
(3 -7.04048e-16 0)
(3 -6.87379e-16 0)
(3 -9.15258e-16 0)
(3 -9.92985e-16 0)
(3 -1.17332e-15 0)
(3 1.16888e-16 0)
(3 -4.73181e-16 0)
(3 8.69045e-16 0)
(3 -9.46872e-17 0)
(3 -2.65605e-16 0)
(3 1.37406e-17 0)
(3 2.05717e-15 0)
(3 3.57743e-16 0)
(3 -5.19887e-16 0)
(3 -5.97933e-16 0)
(3 -3.4631e-16 0)
(3 2.05842e-17 0)
(3 9.67486e-17 0)
(3 -4.17984e-16 0)
(3 -3.58406e-16 0)
(3 6.96629e-15 0)
(3 1.84633e-13 0)
(3 1.78218e-11 0)
(2.99997 2.18698e-09 0)
(2.99684 4.24446e-07 0)
(2.19175 4.12988e-05 0)
(0.181314 0.00025841 0)
(0.079982 0.000616251 0)
(0.00981525 0.000793491 0)
(-0.0118861 0.00124365 0)
(-0.0230257 0.00167651 0)
(-0.0115747 0.00202386 0)
(0.0131331 0.00239067 0)
(0.0183262 0.00280639 0)
(0.0148673 0.00313765 0)
(0.00196021 0.00358288 0)
(-0.0118466 0.00375378 0)
(-0.0149281 0.00384836 0)
(-0.00635923 0.00371359 0)
(3 8.2357e-18 0)
(3 -8.40919e-17 0)
(3 -1.16505e-16 0)
(3 8.28781e-16 0)
(3 1.02314e-15 0)
(3 1.4947e-16 0)
(3 1.0261e-15 0)
(3 6.62552e-16 0)
(3 1.36053e-15 0)
(3 1.01646e-15 0)
(3 6.08968e-16 0)
(3 6.55503e-16 0)
(3 5.17491e-16 0)
(3 7.3259e-16 0)
(3 8.35852e-16 0)
(3 2.11599e-15 0)
(3 2.23832e-15 0)
(3 2.38123e-15 0)
(3 1.51724e-15 0)
(3 1.12342e-15 0)
(3 1.09883e-15 0)
(3 6.08258e-16 0)
(3 -2.53119e-16 0)
(3 -1.07653e-15 0)
(3 -1.40772e-15 0)
(3 -1.30622e-15 0)
(3 -9.10941e-16 0)
(3 -9.81127e-16 0)
(3 -2.1725e-16 0)
(3 2.09624e-16 0)
(3 -1.03408e-15 0)
(3 -8.6749e-16 0)
(3 8.30411e-16 0)
(3 9.36255e-16 0)
(3 6.62708e-16 0)
(3 4.50099e-16 0)
(3 5.68352e-17 0)
(3 -4.05263e-16 0)
(3 8.15738e-17 0)
(3 7.95688e-16 0)
(3 7.31649e-16 0)
(3 8.05503e-16 0)
(3 4.64821e-16 0)
(3 1.61106e-15 0)
(3 1.7676e-15 0)
(3 2.33187e-15 0)
(3 3.17523e-15 0)
(3 2.98453e-15 0)
(3 2.75342e-15 0)
(3 1.92733e-15 0)
(3 9.11188e-16 0)
(3 4.15219e-16 0)
(3 4.02287e-16 0)
(3 1.0518e-16 0)
(3 -2.3406e-16 0)
(3 -9.48333e-16 0)
(3 -1.53588e-15 0)
(3 -1.25111e-15 0)
(3 -1.15615e-15 0)
(3 -1.43818e-15 0)
(3 -1.58519e-15 0)
(3 -1.10457e-15 0)
(3 -1.1419e-15 0)
(3 -1.39813e-15 0)
(3 -1.42667e-15 0)
(3 -1.13641e-15 0)
(3 -1.09529e-15 0)
(3 -4.20037e-16 0)
(3 -8.26992e-16 0)
(3 -4.43286e-16 0)
(3 -9.84731e-17 0)
(3 1.39216e-16 0)
(3 1.70401e-16 0)
(3 2.1395e-16 0)
(3 -6.65009e-16 0)
(3 -1.60917e-15 0)
(3 -2.00172e-15 0)
(3 1.8778e-14 0)
(3 3.77647e-12 0)
(3 4.749e-10 0)
(2.99997 5.16834e-08 0)
(2.99684 8.04402e-06 0)
(2.19387 0.000703964 0)
(0.183122 0.00166619 0)
(0.0811141 0.00360365 0)
(0.0110661 0.00451533 0)
(-0.0107318 0.0061551 0)
(-0.0213789 0.00769196 0)
(-0.0100827 0.00924148 0)
(0.014193 0.0106785 0)
(0.0191418 0.0120511 0)
(0.0155785 0.0130786 0)
(0.00255391 0.0144594 0)
(-0.0113281 0.0151258 0)
(-0.0146169 0.0154949 0)
(-0.00631349 0.014862 0)
(3 -7.91347e-17 0)
(3 3.03461e-16 0)
(3 7.26961e-16 0)
(3 2.3078e-16 0)
(3 -1.1103e-16 0)
(3 5.88741e-16 0)
(3 6.53659e-16 0)
(3 6.17058e-16 0)
(3 -8.02334e-17 0)
(3 1.44356e-16 0)
(3 1.12892e-15 0)
(3 7.94394e-16 0)
(3 9.73979e-16 0)
(3 1.38441e-15 0)
(3 2.36779e-15 0)
(3 1.78572e-15 0)
(3 1.62576e-15 0)
(3 7.44285e-16 0)
(3 1.23071e-15 0)
(3 1.5067e-15 0)
(3 1.00291e-15 0)
(3 -2.03649e-16 0)
(3 -7.34917e-16 0)
(3 -1.30601e-15 0)
(3 -1.69966e-15 0)
(3 -1.49809e-15 0)
(3 -1.19876e-15 0)
(3 -4.91243e-16 0)
(3 -2.46921e-16 0)
(3 1.06793e-15 0)
(3 1.50695e-15 0)
(3 1.24748e-15 0)
(3 1.0002e-15 0)
(3 1.31236e-15 0)
(3 1.28692e-15 0)
(3 2.04298e-15 0)
(3 2.39369e-15 0)
(3 2.22009e-15 0)
(3 1.92547e-15 0)
(3 1.60799e-15 0)
(3 8.67656e-16 0)
(3 1.83077e-15 0)
(3 1.88212e-15 0)
(3 1.89867e-15 0)
(3 2.63728e-15 0)
(3 2.48246e-15 0)
(3 2.02428e-15 0)
(3 1.50109e-15 0)
(3 1.98557e-15 0)
(3 1.54851e-15 0)
(3 1.86542e-15 0)
(3 2.01192e-15 0)
(3 3.42626e-16 0)
(3 2.71271e-16 0)
(3 3.98871e-16 0)
(3 4.82637e-16 0)
(3 -5.4914e-16 0)
(3 -5.07817e-16 0)
(3 -1.22367e-15 0)
(3 -1.59531e-16 0)
(3 -4.00151e-16 0)
(3 -5.81108e-16 0)
(3 -8.30499e-16 0)
(3 -1.12718e-15 0)
(3 -1.72657e-15 0)
(3 -1.38146e-15 0)
(3 -1.73811e-15 0)
(3 -2.31675e-15 0)
(3 -3.32315e-15 0)
(3 -2.09306e-15 0)
(3 1.95091e-16 0)
(3 1.5679e-16 0)
(3 4.26816e-17 0)
(3 -6.12035e-16 0)
(3 -8.04371e-16 0)
(3 8.58655e-16 0)
(3 1.1324e-15 0)
(3 8.55968e-14 0)
(3 8.0357e-12 0)
(3 9.94043e-10 0)
(2.99997 1.02103e-07 0)
(2.99686 1.5905e-05 0)
(2.19744 0.00121517 0)
(0.185584 0.00395306 0)
(0.0823312 0.00723843 0)
(0.0125472 0.0087696 0)
(-0.00923232 0.0109651 0)
(-0.0194234 0.0134218 0)
(-0.00662393 0.016397 0)
(0.0137782 0.0185212 0)
(0.0202454 0.0205323 0)
(0.0165349 0.0221481 0)
(0.00330204 0.0241981 0)
(-0.0107005 0.0252094 0)
(-0.0140721 0.0257728 0)
(-0.00616367 0.0247486 0)
(3 -9.72454e-17 0)
(3 7.46929e-16 0)
(3 2.56271e-16 0)
(3 1.64026e-16 0)
(3 2.29029e-16 0)
(3 1.80061e-16 0)
(3 3.35947e-16 0)
(3 2.19545e-16 0)
(3 -3.56194e-17 0)
(3 -1.8077e-16 0)
(3 -8.24235e-16 0)
(3 -4.91685e-16 0)
(3 -7.39684e-16 0)
(3 -4.03009e-16 0)
(3 2.24645e-17 0)
(3 4.19482e-16 0)
(3 3.87458e-17 0)
(3 3.96728e-16 0)
(3 7.66255e-16 0)
(3 7.00632e-17 0)
(3 -5.66416e-16 0)
(3 -1.05879e-15 0)
(3 -1.10159e-15 0)
(3 -1.43771e-15 0)
(3 -1.12377e-15 0)
(3 -1.06806e-15 0)
(3 -5.29664e-16 0)
(3 -1.57918e-16 0)
(3 6.45084e-16 0)
(3 -1.03615e-16 0)
(3 -4.48717e-17 0)
(3 -2.5362e-16 0)
(3 -4.31905e-16 0)
(3 -2.92649e-17 0)
(3 3.67203e-16 0)
(3 4.97907e-16 0)
(3 1.77876e-15 0)
(3 2.6882e-15 0)
(3 2.78356e-15 0)
(3 2.45511e-15 0)
(3 2.62435e-15 0)
(3 1.96389e-15 0)
(3 2.12994e-15 0)
(3 1.25874e-15 0)
(3 1.10409e-15 0)
(3 1.29852e-15 0)
(3 1.30139e-15 0)
(3 1.18048e-15 0)
(3 8.43003e-16 0)
(3 6.09768e-16 0)
(3 -5.21238e-17 0)
(3 -2.16202e-16 0)
(3 -3.35466e-16 0)
(3 -8.29416e-16 0)
(3 -3.0129e-16 0)
(3 -4.21001e-16 0)
(3 -8.12651e-16 0)
(3 -8.17064e-16 0)
(3 -2.88625e-16 0)
(3 -8.88074e-18 0)
(3 1.2288e-16 0)
(3 -6.16228e-16 0)
(3 -1.36339e-15 0)
(3 -2.12652e-15 0)
(3 -2.25122e-15 0)
(3 -2.74863e-15 0)
(3 -2.4351e-15 0)
(3 -2.33916e-15 0)
(3 -2.97145e-15 0)
(3 -6.19614e-16 0)
(3 3.83505e-16 0)
(3 5.36084e-16 0)
(3 1.20985e-15 0)
(3 1.25156e-15 0)
(3 1.13836e-15 0)
(3 3.49813e-16 0)
(3 2.88491e-15 0)
(3 1.89672e-13 0)
(3 2.24918e-11 0)
(3 2.69441e-09 0)
(2.99997 2.61968e-07 0)
(2.99691 3.96822e-05 0)
(2.20877 0.00333453 0)
(0.191999 0.00791624 0)
(0.0857935 0.0123778 0)
(0.0158113 0.0139323 0)
(-0.00590502 0.0173814 0)
(-0.0168975 0.0209863 0)
(-0.00292137 0.024504 0)
(0.0166148 0.0275315 0)
(0.0225341 0.030087 0)
(0.0185247 0.0323944 0)
(0.00480661 0.0350127 0)
(-0.00960001 0.0360761 0)
(-0.0133046 0.0368144 0)
(-0.00624312 0.0354828 0)
(3 2.83752e-16 0)
(3 -4.29558e-16 0)
(3 -9.78646e-16 0)
(3 -9.49381e-16 0)
(3 -3.96793e-16 0)
(3 -1.46641e-16 0)
(3 -2.24832e-16 0)
(3 -1.09244e-16 0)
(3 3.73709e-16 0)
(3 -9.56926e-16 0)
(3 -1.13208e-15 0)
(3 -1.34735e-15 0)
(3 -9.67217e-16 0)
(3 -8.6776e-16 0)
(3 -1.16293e-15 0)
(3 -7.39861e-16 0)
(3 -1.06667e-15 0)
(3 -6.61606e-16 0)
(3 -1.1274e-15 0)
(3 -1.12151e-15 0)
(3 -1.29302e-15 0)
(3 -4.39607e-16 0)
(3 -8.04988e-16 0)
(3 -6.12408e-16 0)
(3 -1.13693e-15 0)
(3 -1.43148e-15 0)
(3 -1.34389e-15 0)
(3 -2.00976e-16 0)
(3 1.06263e-16 0)
(3 3.29152e-16 0)
(3 9.14911e-17 0)
(3 6.32261e-16 0)
(3 -3.79889e-16 0)
(3 -5.68112e-16 0)
(3 -7.72491e-16 0)
(3 5.416e-16 0)
(3 1.60263e-15 0)
(3 2.09724e-15 0)
(3 2.82663e-15 0)
(3 3.47126e-15 0)
(3 3.74012e-15 0)
(3 3.91135e-15 0)
(3 2.4704e-15 0)
(3 2.66243e-15 0)
(3 2.50634e-15 0)
(3 1.11468e-15 0)
(3 9.51216e-16 0)
(3 7.58938e-16 0)
(3 9.87453e-16 0)
(3 9.49196e-16 0)
(3 2.70192e-16 0)
(3 -5.00255e-16 0)
(3 -3.97616e-16 0)
(3 2.22872e-16 0)
(3 4.01483e-16 0)
(3 -6.63881e-16 0)
(3 -4.00954e-16 0)
(3 4.16553e-16 0)
(3 5.26579e-16 0)
(3 -2.20987e-16 0)
(3 -9.78821e-16 0)
(3 -1.62486e-15 0)
(3 -1.87671e-15 0)
(3 -1.37618e-15 0)
(3 -2.20592e-15 0)
(3 -2.21003e-15 0)
(3 -1.72196e-15 0)
(3 -1.27381e-15 0)
(3 -1.01703e-15 0)
(3 -9.28082e-16 0)
(3 -5.6783e-16 0)
(3 1.5266e-15 0)
(3 1.94241e-15 0)
(3 1.50273e-15 0)
(3 1.53115e-15 0)
(3 1.66832e-15 0)
(3 5.54758e-15 0)
(3 4.16986e-13 0)
(3 4.37646e-11 0)
(3 4.91126e-09 0)
(2.99997 4.88483e-07 0)
(2.99699 7.02937e-05 0)
(2.22524 0.00566087 0)
(0.200625 0.0141027 0)
(0.0892303 0.0194567 0)
(0.0261204 0.0217539 0)
(-0.00867565 0.0254179 0)
(-0.0128671 0.0296023 0)
(0.000220548 0.0343773 0)
(0.0191672 0.0375176 0)
(0.0248976 0.0404751 0)
(0.0205238 0.0434102 0)
(0.00619258 0.0465644 0)
(-0.00843918 0.047494 0)
(-0.0124189 0.0483993 0)
(-0.00623361 0.0466468 0)
(3 -3.9648e-16 0)
(3 7.1241e-17 0)
(3 6.91852e-16 0)
(3 9.66279e-16 0)
(3 7.74258e-16 0)
(3 4.85473e-16 0)
(3 1.02995e-16 0)
(3 -8.41932e-18 0)
(3 -4.64927e-16 0)
(3 4.08e-16 0)
(3 8.86237e-17 0)
(3 -4.72882e-16 0)
(3 -9.4051e-16 0)
(3 -1.19647e-15 0)
(3 -7.51458e-16 0)
(3 -7.29595e-16 0)
(3 -9.34888e-16 0)
(3 -1.02412e-15 0)
(3 -1.73081e-15 0)
(3 -8.02514e-16 0)
(3 -6.75513e-16 0)
(3 -9.7456e-16 0)
(3 -7.8563e-16 0)
(3 -1.42832e-15 0)
(3 -1.33669e-15 0)
(3 -6.8602e-16 0)
(3 -4.15092e-16 0)
(3 -1.23457e-16 0)
(3 3.56806e-16 0)
(3 8.28955e-16 0)
(3 5.9176e-16 0)
(3 -4.77648e-17 0)
(3 -1.92055e-16 0)
(3 -2.28276e-16 0)
(3 4.93024e-16 0)
(3 1.81992e-15 0)
(3 1.71271e-15 0)
(3 2.75935e-15 0)
(3 3.38338e-15 0)
(3 3.50852e-15 0)
(3 3.66049e-15 0)
(3 3.40498e-15 0)
(3 3.20238e-15 0)
(3 3.06587e-15 0)
(3 9.70736e-16 0)
(3 6.23532e-16 0)
(3 4.68666e-16 0)
(3 7.33826e-16 0)
(3 7.01299e-16 0)
(3 1.92046e-15 0)
(3 2.11229e-15 0)
(3 9.23362e-16 0)
(3 8.25722e-16 0)
(3 1.01119e-15 0)
(3 1.64857e-15 0)
(3 1.7096e-15 0)
(3 1.60404e-15 0)
(3 4.39084e-16 0)
(3 1.21875e-16 0)
(3 -8.25466e-16 0)
(3 -5.19514e-16 0)
(3 6.1778e-16 0)
(3 1.41784e-15 0)
(3 1.17228e-15 0)
(3 1.00832e-15 0)
(3 5.95141e-16 0)
(3 -9.0585e-17 0)
(3 1.2312e-16 0)
(3 6.65991e-16 0)
(3 6.64327e-16 0)
(3 6.34983e-16 0)
(3 2.50827e-16 0)
(3 1.13259e-16 0)
(3 2.68322e-16 0)
(3 5.47153e-16 0)
(3 -5.41233e-16 0)
(3 9.13013e-15 0)
(3 6.92352e-13 0)
(3 8.2798e-11 0)
(3 9.11962e-09 0)
(2.99997 8.43035e-07 0)
(2.99714 0.000120554 0)
(2.25661 0.00976952 0)
(0.215878 0.0233895 0)
(0.094294 0.0296669 0)
(0.0274517 0.029082 0)
(-0.00105403 0.0349691 0)
(-0.0089019 0.0398664 0)
(0.00578226 0.0446096 0)
(0.0233178 0.0483987 0)
(0.0279155 0.0518813 0)
(0.0228852 0.0552772 0)
(0.00794032 0.0589373 0)
(-0.00712114 0.0597812 0)
(-0.0112577 0.0606684 0)
(-0.00646887 0.058686 0)
(3 -7.38124e-17 0)
(3 -2.20499e-16 0)
(3 -6.16978e-16 0)
(3 -4.13004e-17 0)
(3 -3.42098e-16 0)
(3 -3.24644e-17 0)
(3 -3.64763e-16 0)
(3 -5.26161e-16 0)
(3 -5.25632e-16 0)
(3 1.06835e-16 0)
(3 2.97166e-16 0)
(3 -2.38643e-16 0)
(3 1.09255e-16 0)
(3 8.31206e-17 0)
(3 2.28127e-17 0)
(3 -1.38875e-15 0)
(3 -1.39006e-15 0)
(3 -1.74678e-15 0)
(3 -1.20072e-15 0)
(3 -1.59798e-15 0)
(3 -1.5545e-15 0)
(3 -1.33669e-15 0)
(3 -2.04237e-15 0)
(3 -1.53979e-15 0)
(3 -1.13327e-15 0)
(3 -2.29348e-16 0)
(3 1.15921e-15 0)
(3 1.29961e-16 0)
(3 -3.73614e-17 0)
(3 -4.7956e-16 0)
(3 4.37335e-16 0)
(3 3.41062e-16 0)
(3 3.6697e-16 0)
(3 6.42301e-16 0)
(3 6.19743e-16 0)
(3 -4.04073e-16 0)
(3 -1.58001e-16 0)
(3 7.75453e-16 0)
(3 1.74946e-15 0)
(3 2.42187e-15 0)
(3 2.66111e-15 0)
(3 2.64649e-15 0)
(3 2.90392e-15 0)
(3 2.50818e-15 0)
(3 2.86133e-15 0)
(3 1.60316e-15 0)
(3 1.75377e-15 0)
(3 9.44456e-16 0)
(3 9.38019e-16 0)
(3 5.26121e-16 0)
(3 -1.33768e-16 0)
(3 -1.62811e-16 0)
(3 -6.35671e-17 0)
(3 2.82717e-16 0)
(3 -2.43069e-16 0)
(3 -1.73989e-16 0)
(3 6.52894e-16 0)
(3 -1.87944e-16 0)
(3 -3.33241e-16 0)
(3 -4.87067e-16 0)
(3 -4.04282e-16 0)
(3 3.17541e-16 0)
(3 3.76815e-16 0)
(3 7.57506e-16 0)
(3 7.70921e-16 0)
(3 1.01058e-15 0)
(3 8.58135e-16 0)
(3 1.01101e-15 0)
(3 8.53703e-16 0)
(3 2.42696e-16 0)
(3 -5.15096e-17 0)
(3 5.30263e-16 0)
(3 -2.13171e-18 0)
(3 3.18979e-16 0)
(3 -4.2214e-16 0)
(3 8.89426e-16 0)
(3 8.25782e-15 0)
(3 9.96683e-13 0)
(3 1.15369e-10 0)
(3 1.28619e-08 0)
(2.99997 1.19098e-06 0)
(2.99736 0.000168511 0)
(2.30038 0.013373 0)
(0.236807 0.0344022 0)
(0.102704 0.0420743 0)
(0.0329515 0.0399362 0)
(0.00421174 0.0457062 0)
(-0.00323257 0.0502991 0)
(0.00976571 0.0565666 0)
(0.0269153 0.0606697 0)
(0.0308866 0.0644393 0)
(0.0251874 0.067952 0)
(0.00894973 0.0721176 0)
(-0.00483759 0.0730391 0)
(-0.0103362 0.0739967 0)
(-0.00601735 0.0714207 0)
(3 1.53449e-16 0)
(3 -1.38986e-16 0)
(3 -3.18996e-16 0)
(3 -1.55742e-16 0)
(3 5.2301e-16 0)
(3 -7.12992e-17 0)
(3 -4.53177e-16 0)
(3 2.0372e-16 0)
(3 -5.84615e-16 0)
(3 -1.10702e-15 0)
(3 -1.03361e-15 0)
(3 -2.74085e-16 0)
(3 8.16963e-16 0)
(3 1.7041e-15 0)
(3 7.46977e-16 0)
(3 6.83214e-16 0)
(3 -7.84428e-17 0)
(3 3.86594e-16 0)
(3 3.953e-16 0)
(3 -8.77209e-16 0)
(3 -1.08275e-15 0)
(3 -1.32008e-15 0)
(3 -1.3891e-15 0)
(3 -1.30413e-15 0)
(3 -1.03626e-15 0)
(3 -3.30539e-16 0)
(3 -2.91034e-16 0)
(3 1.94457e-16 0)
(3 4.88214e-17 0)
(3 6.74244e-16 0)
(3 4.66322e-16 0)
(3 8.28105e-16 0)
(3 1.58583e-15 0)
(3 1.33901e-15 0)
(3 1.01264e-15 0)
(3 4.38977e-16 0)
(3 -8.22015e-17 0)
(3 7.23217e-16 0)
(3 5.65338e-16 0)
(3 1.15815e-15 0)
(3 1.57106e-15 0)
(3 1.88967e-15 0)
(3 1.88549e-15 0)
(3 1.42138e-15 0)
(3 1.02264e-15 0)
(3 8.56604e-16 0)
(3 1.48908e-15 0)
(3 1.20504e-15 0)
(3 1.09908e-15 0)
(3 1.95374e-16 0)
(3 -4.53823e-16 0)
(3 5.23975e-16 0)
(3 1.12321e-17 0)
(3 -2.28977e-16 0)
(3 -6.02139e-16 0)
(3 -2.84158e-16 0)
(3 -4.03629e-16 0)
(3 -2.6736e-16 0)
(3 -9.67486e-16 0)
(3 -5.14643e-16 0)
(3 -3.13125e-16 0)
(3 1.26479e-16 0)
(3 -3.09914e-16 0)
(3 -5.34632e-16 0)
(3 -3.81016e-16 0)
(3 6.80648e-16 0)
(3 7.79351e-16 0)
(3 1.32369e-15 0)
(3 4.49443e-16 0)
(3 3.83583e-16 0)
(3 1.24645e-17 0)
(3 1.37264e-16 0)
(3 -2.20914e-16 0)
(3 -3.01054e-16 0)
(3 1.13778e-16 0)
(3 3.35111e-16 0)
(3 1.3892e-14 0)
(3 1.53106e-12 0)
(3 1.63076e-10 0)
(3 1.92193e-08 0)
(2.99998 1.80269e-06 0)
(2.99765 0.000212983 0)
(2.36071 0.0189458 0)
(0.264768 0.0478116 0)
(0.113779 0.0597097 0)
(0.0390322 0.0514715 0)
(0.00925652 0.0582288 0)
(0.00496298 0.0617341 0)
(0.0145972 0.0691997 0)
(0.0309889 0.0735788 0)
(0.0344629 0.0778799 0)
(0.027675 0.0812468 0)
(0.0114889 0.0860639 0)
(-0.003526 0.0871173 0)
(-0.00912908 0.0882059 0)
(-0.0052145 0.0850475 0)
(3 1.17804e-16 0)
(3 3.00625e-16 0)
(3 5.1045e-16 0)
(3 1.85946e-16 0)
(3 -7.9708e-16 0)
(3 -9.79573e-16 0)
(3 -4.52088e-16 0)
(3 2.90515e-16 0)
(3 5.44338e-16 0)
(3 -2.89586e-16 0)
(3 5.25239e-18 0)
(3 -1.56535e-16 0)
(3 -2.608e-17 0)
(3 -1.01557e-16 0)
(3 -1.56937e-16 0)
(3 1.24376e-16 0)
(3 3.82723e-16 0)
(3 1.19917e-17 0)
(3 -1.66957e-16 0)
(3 3.97249e-16 0)
(3 -3.42326e-16 0)
(3 -9.7083e-16 0)
(3 -7.92038e-16 0)
(3 -1.12692e-15 0)
(3 -2.83067e-16 0)
(3 -1.01221e-15 0)
(3 -8.26092e-16 0)
(3 -3.37206e-16 0)
(3 1.38348e-16 0)
(3 2.40438e-16 0)
(3 -3.61955e-16 0)
(3 1.66956e-16 0)
(3 7.31433e-16 0)
(3 9.94054e-16 0)
(3 6.61376e-16 0)
(3 1.51527e-16 0)
(3 1.01623e-16 0)
(3 -5.31777e-16 0)
(3 -1.38625e-15 0)
(3 -5.45698e-16 0)
(3 -7.54579e-16 0)
(3 -6.04283e-16 0)
(3 -5.78246e-16 0)
(3 2.03697e-16 0)
(3 3.93887e-16 0)
(3 1.61974e-15 0)
(3 1.95881e-15 0)
(3 1.60762e-15 0)
(3 1.24331e-15 0)
(3 6.28733e-16 0)
(3 3.95294e-16 0)
(3 -9.20056e-16 0)
(3 1.09722e-16 0)
(3 -1.1589e-15 0)
(3 -9.5932e-16 0)
(3 -1.23725e-15 0)
(3 -1.58117e-15 0)
(3 -1.39674e-15 0)
(3 -1.13596e-15 0)
(3 -4.67169e-16 0)
(3 -2.09946e-16 0)
(3 -4.45631e-16 0)
(3 1.70304e-17 0)
(3 -5.44371e-16 0)
(3 -3.51203e-16 0)
(3 -2.60515e-16 0)
(3 8.83298e-17 0)
(3 -1.68958e-16 0)
(3 -7.07366e-17 0)
(3 -4.87654e-16 0)
(3 -9.18201e-16 0)
(3 -1.24305e-15 0)
(3 -1.33062e-15 0)
(3 -1.05395e-15 0)
(3 -2.29171e-17 0)
(3 2.56081e-16 0)
(3 1.1459e-14 0)
(3 1.33202e-12 0)
(3 1.66113e-10 0)
(3 1.79203e-08 0)
(2.99998 1.70352e-06 0)
(2.998 0.000247282 0)
(2.42866 0.0209939 0)
(0.301801 0.061069 0)
(0.127981 0.0808201 0)
(0.0471973 0.0634886 0)
(0.0173591 0.0718376 0)
(0.011125 0.0750225 0)
(0.0198301 0.0831526 0)
(0.0350973 0.0873545 0)
(0.0379582 0.0922034 0)
(0.0301738 0.0952934 0)
(0.0137802 0.100567 0)
(-0.00179915 0.10193 0)
(-0.00778155 0.103342 0)
(-0.00428129 0.0994046 0)
(3 8.88837e-17 0)
(3 -7.42177e-17 0)
(3 -5.05378e-16 0)
(3 -1.05113e-15 0)
(3 -2.54738e-15 0)
(3 -2.37435e-15 0)
(3 -2.26793e-15 0)
(3 -2.04149e-15 0)
(3 -8.71317e-16 0)
(3 8.10237e-17 0)
(3 -2.09195e-16 0)
(3 2.2335e-17 0)
(3 -3.65727e-16 0)
(3 -7.94145e-16 0)
(3 -1.31065e-16 0)
(3 -9.32203e-17 0)
(3 -5.46928e-16 0)
(3 -1.15219e-15 0)
(3 -6.40262e-16 0)
(3 -7.10589e-16 0)
(3 -1.2915e-15 0)
(3 -1.18679e-15 0)
(3 -1.30625e-15 0)
(3 -9.04146e-16 0)
(3 -1.26883e-15 0)
(3 -1.56987e-15 0)
(3 -7.11598e-16 0)
(3 -6.07002e-16 0)
(3 -5.06877e-16 0)
(3 -5.87621e-16 0)
(3 -3.96308e-16 0)
(3 3.91005e-16 0)
(3 4.15803e-16 0)
(3 8.67952e-18 0)
(3 -3.14925e-16 0)
(3 -7.48335e-17 0)
(3 -1.04472e-16 0)
(3 -1.18585e-15 0)
(3 -1.46347e-15 0)
(3 -1.33382e-15 0)
(3 -1.2557e-15 0)
(3 -8.28772e-16 0)
(3 -3.41714e-17 0)
(3 1.21956e-15 0)
(3 1.55064e-15 0)
(3 1.79293e-15 0)
(3 1.6008e-15 0)
(3 9.92817e-16 0)
(3 1.50425e-15 0)
(3 2.08803e-15 0)
(3 1.83566e-15 0)
(3 1.38364e-15 0)
(3 2.06339e-16 0)
(3 6.10799e-16 0)
(3 -4.27667e-16 0)
(3 -1.02899e-15 0)
(3 -1.16634e-15 0)
(3 -1.20252e-15 0)
(3 -5.66863e-16 0)
(3 -8.083e-16 0)
(3 -2.69008e-16 0)
(3 -8.80699e-16 0)
(3 -6.08845e-16 0)
(3 -5.61663e-16 0)
(3 -1.82893e-16 0)
(3 -4.58993e-16 0)
(3 3.1136e-16 0)
(3 3.7205e-17 0)
(3 -1.216e-16 0)
(3 -1.58509e-15 0)
(3 -1.26606e-15 0)
(3 -1.71823e-15 0)
(3 -1.07145e-15 0)
(3 -7.64057e-16 0)
(3 -7.10523e-16 0)
(3 -8.4583e-16 0)
(3 1.2442e-14 0)
(3 1.24488e-12 0)
(3 1.14597e-10 0)
(3 1.33578e-08 0)
(2.99998 1.47194e-06 0)
(2.99838 0.000246711 0)
(2.51544 0.0203388 0)
(0.349992 0.0781669 0)
(0.141675 0.107046 0)
(0.0545774 0.0771682 0)
(0.0254019 0.08827 0)
(0.0182238 0.0889387 0)
(0.0257698 0.0977763 0)
(0.0396038 0.101643 0)
(0.0417852 0.107165 0)
(0.0330009 0.109907 0)
(0.0163745 0.115611 0)
(0.000235815 0.117427 0)
(-0.00623636 0.119013 0)
(-0.00311992 0.114468 0)
(3 -1.61401e-16 0)
(3 -5.64023e-16 0)
(3 6.49244e-16 0)
(3 6.11084e-16 0)
(3 -6.40328e-17 0)
(3 9.1142e-17 0)
(3 4.71876e-16 0)
(3 4.47599e-16 0)
(3 1.24059e-15 0)
(3 1.36073e-15 0)
(3 9.16703e-16 0)
(3 -9.88742e-17 0)
(3 -4.38077e-16 0)
(3 1.6841e-16 0)
(3 -2.12635e-16 0)
(3 -7.01652e-16 0)
(3 -3.34425e-16 0)
(3 -3.9322e-16 0)
(3 -3.47769e-16 0)
(3 -5.016e-16 0)
(3 -8.339e-16 0)
(3 -1.15283e-15 0)
(3 -1.03319e-15 0)
(3 -1.38223e-15 0)
(3 -1.62738e-15 0)
(3 -1.32688e-15 0)
(3 -1.43529e-15 0)
(3 -1.43172e-15 0)
(3 -5.66136e-16 0)
(3 -4.75044e-16 0)
(3 1.53398e-15 0)
(3 1.5362e-15 0)
(3 1.78471e-15 0)
(3 2.64802e-15 0)
(3 2.05008e-15 0)
(3 1.41343e-15 0)
(3 8.25375e-16 0)
(3 -3.02854e-16 0)
(3 -7.30058e-16 0)
(3 -1.08794e-15 0)
(3 -7.07434e-16 0)
(3 -7.05535e-16 0)
(3 6.44101e-16 0)
(3 5.41786e-16 0)
(3 1.1336e-15 0)
(3 1.01205e-15 0)
(3 9.00542e-16 0)
(3 3.06293e-16 0)
(3 4.4784e-17 0)
(3 -2.63279e-16 0)
(3 1.35285e-16 0)
(3 2.63401e-16 0)
(3 1.48545e-16 0)
(3 -3.44156e-16 0)
(3 -8.24317e-16 0)
(3 -6.96499e-16 0)
(3 -3.81799e-16 0)
(3 -7.30977e-17 0)
(3 -9.0245e-17 0)
(3 -2.47662e-16 0)
(3 -2.32384e-16 0)
(3 -5.83517e-16 0)
(3 -1.30525e-15 0)
(3 -7.92602e-16 0)
(3 -1.07525e-15 0)
(3 -9.35299e-16 0)
(3 -7.44754e-16 0)
(3 -8.22832e-16 0)
(3 -1.08718e-15 0)
(3 -8.38813e-16 0)
(3 -1.05851e-15 0)
(3 -9.34151e-16 0)
(3 -1.03032e-16 0)
(3 -3.41382e-16 0)
(3 -1.21446e-15 0)
(3 -2.2949e-15 0)
(3 1.36464e-14 0)
(3 1.47191e-12 0)
(3 1.45084e-10 0)
(3 1.64651e-08 0)
(2.99999 1.7477e-06 0)
(2.99876 0.000238184 0)
(2.61449 0.0228095 0)
(0.415741 0.0934774 0)
(0.161288 0.134923 0)
(0.0660361 0.0897282 0)
(0.03802 0.106735 0)
(0.0277674 0.103954 0)
(0.0324237 0.113266 0)
(0.0438528 0.116497 0)
(0.0451232 0.122759 0)
(0.0355864 0.125205 0)
(0.018955 0.131335 0)
(0.00244659 0.133646 0)
(-0.00489029 0.135025 0)
(-0.00143285 0.130035 0)
(3 -1.34379e-16 0)
(3 5.5221e-16 0)
(3 2.97988e-16 0)
(3 -3.76154e-16 0)
(3 2.2362e-16 0)
(3 1.05591e-15 0)
(3 1.63464e-15 0)
(3 1.76977e-15 0)
(3 8.52103e-16 0)
(3 8.11645e-16 0)
(3 1.16765e-15 0)
(3 1.47445e-15 0)
(3 2.33881e-15 0)
(3 1.70708e-15 0)
(3 3.55046e-17 0)
(3 3.4774e-16 0)
(3 -8.83797e-17 0)
(3 -2.90827e-16 0)
(3 -2.91732e-16 0)
(3 -6.36003e-16 0)
(3 6.99702e-17 0)
(3 -2.71445e-16 0)
(3 -3.77741e-16 0)
(3 -5.62648e-16 0)
(3 -1.79086e-16 0)
(3 -3.12081e-16 0)
(3 -4.18578e-16 0)
(3 -5.61526e-16 0)
(3 3.33509e-16 0)
(3 8.09508e-16 0)
(3 6.07285e-16 0)
(3 1.10479e-15 0)
(3 1.16495e-16 0)
(3 -7.68038e-17 0)
(3 4.85734e-16 0)
(3 1.74068e-16 0)
(3 2.83545e-16 0)
(3 8.63446e-16 0)
(3 8.21887e-16 0)
(3 1.48041e-16 0)
(3 -2.10101e-16 0)
(3 -1.00005e-16 0)
(3 -5.73424e-16 0)
(3 -1.77327e-16 0)
(3 -3.07643e-16 0)
(3 3.07471e-16 0)
(3 5.2266e-16 0)
(3 1.10773e-15 0)
(3 1.30126e-15 0)
(3 1.51133e-15 0)
(3 1.53236e-15 0)
(3 1.45069e-15 0)
(3 9.84617e-16 0)
(3 5.87254e-16 0)
(3 -6.72429e-17 0)
(3 1.80598e-16 0)
(3 -7.77847e-17 0)
(3 -1.75287e-16 0)
(3 -7.0353e-16 0)
(3 -5.14595e-16 0)
(3 -1.0433e-15 0)
(3 -1.21524e-15 0)
(3 -1.27173e-15 0)
(3 -1.27481e-15 0)
(3 -6.63118e-16 0)
(3 -8.91871e-16 0)
(3 -1.26802e-15 0)
(3 -1.0996e-15 0)
(3 -5.22266e-16 0)
(3 -6.61899e-17 0)
(3 -3.48786e-16 0)
(3 -6.90999e-16 0)
(3 -1.11267e-15 0)
(3 -1.6492e-15 0)
(3 -1.82916e-15 0)
(3 -8.61433e-16 0)
(3 1.66449e-14 0)
(3 1.34896e-12 0)
(3 1.25721e-10 0)
(3 1.1941e-08 0)
(2.99999 1.27245e-06 0)
(2.99909 0.00019582 0)
(2.70755 0.0194262 0)
(0.492669 0.107215 0)
(0.18204 0.164347 0)
(0.0760955 0.105817 0)
(0.0499657 0.129377 0)
(0.0381637 0.121662 0)
(0.0397226 0.13019 0)
(0.0479017 0.131946 0)
(0.0484639 0.138637 0)
(0.0385038 0.140933 0)
(0.0219421 0.147601 0)
(0.00551515 0.150474 0)
(-0.00281425 0.151278 0)
(-0.000450334 0.146265 0)
(3 -1.13217e-16 0)
(3 -6.59624e-17 0)
(3 -3.20353e-16 0)
(3 -7.17774e-16 0)
(3 -9.82694e-16 0)
(3 -1.0586e-15 0)
(3 -8.49533e-16 0)
(3 -5.13132e-16 0)
(3 -2.9852e-16 0)
(3 1.84442e-16 0)
(3 5.25481e-16 0)
(3 1.18361e-15 0)
(3 1.61185e-15 0)
(3 1.37931e-15 0)
(3 1.87014e-15 0)
(3 1.48698e-15 0)
(3 7.51009e-16 0)
(3 6.61059e-16 0)
(3 -6.25397e-16 0)
(3 -5.48399e-16 0)
(3 -5.33636e-16 0)
(3 1.00779e-17 0)
(3 3.53865e-16 0)
(3 3.45528e-16 0)
(3 1.84402e-16 0)
(3 4.19296e-16 0)
(3 -6.1158e-16 0)
(3 -7.89465e-16 0)
(3 -1.13309e-15 0)
(3 -7.7268e-16 0)
(3 -5.96818e-16 0)
(3 -1.06522e-15 0)
(3 -1.44087e-15 0)
(3 -8.07573e-16 0)
(3 -5.29613e-16 0)
(3 1.1256e-15 0)
(3 1.59707e-15 0)
(3 1.37289e-15 0)
(3 2.06821e-15 0)
(3 1.43926e-15 0)
(3 1.49037e-15 0)
(3 1.1001e-15 0)
(3 1.03188e-15 0)
(3 1.5803e-15 0)
(3 2.05646e-15 0)
(3 2.43115e-15 0)
(3 1.85947e-15 0)
(3 3.60091e-15 0)
(3 3.3453e-15 0)
(3 2.68733e-15 0)
(3 2.27496e-15 0)
(3 2.09129e-15 0)
(3 1.01988e-15 0)
(3 4.89069e-16 0)
(3 -1.90089e-16 0)
(3 -1.04815e-15 0)
(3 -8.72503e-16 0)
(3 -6.78505e-16 0)
(3 -1.09439e-15 0)
(3 -1.04651e-15 0)
(3 -7.99385e-16 0)
(3 1.88878e-16 0)
(3 8.90926e-16 0)
(3 7.67001e-16 0)
(3 2.74029e-17 0)
(3 1.93011e-16 0)
(3 -3.25511e-16 0)
(3 -6.6907e-16 0)
(3 -1.69003e-16 0)
(3 -6.44885e-17 0)
(3 -2.56254e-16 0)
(3 -1.54728e-15 0)
(3 -2.19098e-15 0)
(3 -2.60987e-15 0)
(3 -2.29335e-15 0)
(3 -8.74155e-16 0)
(3 1.49111e-14 0)
(3 1.25485e-12 0)
(3 1.0324e-10 0)
(3 8.21449e-09 0)
(2.99999 8.22252e-07 0)
(2.99936 0.000133924 0)
(2.80155 0.0136904 0)
(0.591653 0.123935 0)
(0.198573 0.195077 0)
(0.0893607 0.125854 0)
(0.0640703 0.15369 0)
(0.0503935 0.140126 0)
(0.049043 0.14814 0)
(0.0525994 0.147894 0)
(0.0523141 0.154935 0)
(0.0414901 0.157173 0)
(0.0250106 0.164436 0)
(0.00822186 0.167936 0)
(-0.000676868 0.168334 0)
(0.00105954 0.163045 0)
(3 4.1396e-17 0)
(3 -5.88434e-16 0)
(3 -5.46189e-16 0)
(3 -9.13693e-18 0)
(3 2.90995e-16 0)
(3 1.6582e-16 0)
(3 2.04063e-16 0)
(3 5.11376e-16 0)
(3 1.54876e-16 0)
(3 -1.31601e-16 0)
(3 3.44373e-16 0)
(3 -3.55221e-16 0)
(3 -1.60218e-16 0)
(3 -7.24529e-16 0)
(3 -7.15431e-16 0)
(3 -8.52901e-16 0)
(3 -4.78134e-16 0)
(3 -6.42023e-16 0)
(3 -1.14515e-15 0)
(3 -1.2601e-15 0)
(3 -9.00114e-16 0)
(3 -5.84509e-16 0)
(3 -8.62341e-17 0)
(3 6.31162e-16 0)
(3 9.56607e-16 0)
(3 2.35019e-16 0)
(3 -1.95036e-16 0)
(3 -5.58551e-16 0)
(3 -1.27113e-15 0)
(3 -1.50616e-15 0)
(3 -2.20124e-15 0)
(3 -2.63269e-15 0)
(3 -2.41578e-15 0)
(3 -2.21501e-15 0)
(3 -3.20028e-16 0)
(3 -5.23034e-17 0)
(3 6.62617e-16 0)
(3 1.35164e-15 0)
(3 1.13109e-15 0)
(3 8.79436e-16 0)
(3 5.87456e-16 0)
(3 7.52165e-16 0)
(3 6.63367e-16 0)
(3 1.24659e-15 0)
(3 1.3869e-15 0)
(3 1.15358e-15 0)
(3 1.52761e-15 0)
(3 1.54537e-16 0)
(3 4.92675e-16 0)
(3 1.307e-15 0)
(3 2.35526e-15 0)
(3 2.46856e-15 0)
(3 2.71866e-15 0)
(3 1.7934e-15 0)
(3 1.8422e-15 0)
(3 1.28587e-15 0)
(3 5.35592e-16 0)
(3 6.11092e-17 0)
(3 2.58479e-16 0)
(3 -3.75788e-17 0)
(3 1.59643e-16 0)
(3 8.70096e-16 0)
(3 1.29462e-15 0)
(3 1.26347e-15 0)
(3 1.19643e-15 0)
(3 7.03009e-16 0)
(3 9.09178e-16 0)
(3 -2.47797e-17 0)
(3 -1.10203e-16 0)
(3 -1.85594e-16 0)
(3 1.43872e-16 0)
(3 9.50345e-16 0)
(3 6.78356e-16 0)
(3 3.80251e-16 0)
(3 -6.21756e-16 0)
(3 -3.28654e-16 0)
(3 1.65475e-14 0)
(3 1.27624e-12 0)
(3 9.76944e-11 0)
(3 7.77201e-09 0)
(2.99999 5.64342e-07 0)
(2.99956 7.85729e-05 0)
(2.88386 0.00921297 0)
(0.710757 0.140534 0)
(0.211652 0.222891 0)
(0.112167 0.15374 0)
(0.0814708 0.175481 0)
(0.0658595 0.158555 0)
(0.0595099 0.166885 0)
(0.0594088 0.164815 0)
(0.0565718 0.172668 0)
(0.0444055 0.174266 0)
(0.0276919 0.181902 0)
(0.0109899 0.185931 0)
(0.00123091 0.186 0)
(0.00277232 0.18029 0)
(3 -2.19527e-16 0)
(3 -8.69216e-17 0)
(3 -2.01056e-16 0)
(3 -3.6515e-16 0)
(3 3.60125e-16 0)
(3 9.19574e-17 0)
(3 5.95947e-16 0)
(3 9.76159e-16 0)
(3 1.2232e-15 0)
(3 6.73333e-16 0)
(3 3.25089e-16 0)
(3 9.75876e-16 0)
(3 4.43157e-16 0)
(3 -1.26875e-15 0)
(3 -1.81079e-15 0)
(3 -1.65037e-15 0)
(3 -1.51946e-15 0)
(3 -1.46724e-15 0)
(3 -1.43797e-15 0)
(3 -3.998e-16 0)
(3 -1.77867e-16 0)
(3 2.87428e-16 0)
(3 3.36496e-16 0)
(3 1.33848e-16 0)
(3 -6.8555e-16 0)
(3 -1.28846e-15 0)
(3 -1.22121e-15 0)
(3 -2.01095e-15 0)
(3 -1.96205e-15 0)
(3 -2.29364e-15 0)
(3 -2.23916e-15 0)
(3 -2.24471e-15 0)
(3 -1.93208e-15 0)
(3 -9.17986e-16 0)
(3 -3.4583e-16 0)
(3 -2.42117e-16 0)
(3 -1.12228e-16 0)
(3 -4.67156e-16 0)
(3 -8.7891e-16 0)
(3 -1.55373e-15 0)
(3 -2.0467e-15 0)
(3 -1.26488e-15 0)
(3 -6.30227e-17 0)
(3 4.4617e-16 0)
(3 2.08949e-15 0)
(3 2.29411e-15 0)
(3 1.22842e-15 0)
(3 1.44443e-15 0)
(3 1.13146e-15 0)
(3 1.45234e-15 0)
(3 6.32791e-16 0)
(3 1.29414e-15 0)
(3 5.92506e-16 0)
(3 4.21182e-16 0)
(3 1.14614e-16 0)
(3 6.27559e-17 0)
(3 5.01303e-16 0)
(3 1.05479e-16 0)
(3 5.19593e-16 0)
(3 2.84623e-17 0)
(3 -7.67976e-18 0)
(3 4.60051e-17 0)
(3 7.23059e-16 0)
(3 1.59778e-17 0)
(3 3.92462e-16 0)
(3 -4.28853e-16 0)
(3 -7.34304e-16 0)
(3 -3.23821e-16 0)
(3 -6.91189e-16 0)
(3 -6.0564e-17 0)
(3 7.60997e-16 0)
(3 1.52828e-15 0)
(3 2.96709e-15 0)
(3 3.08014e-15 0)
(3 2.79922e-15 0)
(3 1.57476e-15 0)
(3 1.39413e-14 0)
(3 1.22496e-12 0)
(3 9.78199e-11 0)
(3 7.10702e-09 0)
(3 5.80902e-07 0)
(2.99967 3.86577e-05 0)
(2.95133 0.00393695 0)
(0.853217 0.158425 0)
(0.226265 0.245712 0)
(0.133065 0.190356 0)
(0.0970321 0.201164 0)
(0.0796078 0.178942 0)
(0.0691356 0.18669 0)
(0.0658332 0.183406 0)
(0.0609177 0.192214 0)
(0.0480246 0.192075 0)
(0.0312118 0.19985 0)
(0.0147441 0.204059 0)
(0.0042064 0.204093 0)
(0.00408559 0.1981 0)
(3 3.55551e-16 0)
(3 9.11417e-17 0)
(3 9.27431e-17 0)
(3 5.81002e-17 0)
(3 -2.12542e-16 0)
(3 -8.38651e-16 0)
(3 -1.15947e-15 0)
(3 -9.50342e-16 0)
(3 -7.35916e-16 0)
(3 -1.02205e-17 0)
(3 -2.57077e-16 0)
(3 -6.83444e-16 0)
(3 -1.53651e-15 0)
(3 -1.11287e-15 0)
(3 -1.35707e-15 0)
(3 -1.04312e-15 0)
(3 -1.21627e-15 0)
(3 -7.05253e-16 0)
(3 -2.06301e-16 0)
(3 1.69127e-16 0)
(3 4.4148e-17 0)
(3 -8.50882e-16 0)
(3 -6.23183e-16 0)
(3 -3.66458e-16 0)
(3 -1.19238e-15 0)
(3 -1.93834e-15 0)
(3 -2.32087e-15 0)
(3 -1.58443e-15 0)
(3 -2.11886e-15 0)
(3 -1.85453e-15 0)
(3 -1.66785e-15 0)
(3 -1.3684e-15 0)
(3 4.98586e-17 0)
(3 1.06038e-15 0)
(3 6.97131e-16 0)
(3 6.72338e-16 0)
(3 3.18337e-16 0)
(3 4.66414e-16 0)
(3 8.72718e-16 0)
(3 7.29647e-16 0)
(3 6.2991e-17 0)
(3 -7.95361e-16 0)
(3 -6.74777e-16 0)
(3 -8.45567e-16 0)
(3 -5.45273e-16 0)
(3 -7.36242e-16 0)
(3 7.75488e-16 0)
(3 3.02897e-16 0)
(3 1.15353e-15 0)
(3 1.77547e-16 0)
(3 3.77197e-16 0)
(3 -5.84348e-16 0)
(3 -3.64415e-16 0)
(3 7.07644e-16 0)
(3 7.34042e-16 0)
(3 5.53772e-17 0)
(3 4.21138e-17 0)
(3 6.89479e-17 0)
(3 -7.12072e-16 0)
(3 -1.40261e-16 0)
(3 -3.75909e-16 0)
(3 -8.39294e-16 0)
(3 -1.18062e-15 0)
(3 -1.27122e-16 0)
(3 -5.10688e-16 0)
(3 -5.46565e-16 0)
(3 2.01587e-16 0)
(3 1.76743e-16 0)
(3 3.02393e-16 0)
(3 7.31161e-16 0)
(3 2.35201e-16 0)
(3 2.40573e-16 0)
(3 1.14101e-15 0)
(3 2.55029e-15 0)
(3 2.6588e-15 0)