/*--------------------------------*- C++ -*----------------------------------*\
| =========                 |                                                 |
| \\      /  F ield         | OpenFOAM: The Open Source CFD Toolbox           |
|  \\    /   O peration     | Version:  v1812                                 |
|   \\  /    A nd           | Web:      www.OpenFOAM.com                      |
|    \\/     M anipulation  |                                                 |
\*---------------------------------------------------------------------------*/
FoamFile
{
    version     2.0;
    format      ascii;
    class       surfaceScalarField;
    location    "0.3";
    object      phi;
}
// * * * * * * * * * * * * * * * * * * * * * * * * * * * * * * * * * * * * * //

dimensions      [1 0 -1 0 0 0 0];
oriented        oriented;


internalField   nonuniform List<scalar> 
128384
(
0.00262501
-4.95251e-19
0.00262501
4.4925e-19
0.00262501
6.38522e-19
0.00262501
-2.52906e-20
0.00262501
8.44858e-19
0.00262501
4.1984e-19
0.00262501
1.33824e-18
0.00262501
9.75083e-19
0.00262501
1.24507e-19
0.00262501
-8.8239e-19
0.00262501
-1.41087e-18
0.00262501
1.19203e-18
0.00262501
-1.41579e-18
0.00262501
3.6249e-19
0.00262501
1.48406e-18
0.00262501
1.51163e-18
0.00262501
3.80749e-19
0.00262501
2.98514e-19
0.00262501
-1.49321e-18
0.00262501
-4.52989e-19
0.00262501
3.54555e-20
0.00262501
-1.94445e-19
0.00262501
2.19576e-18
0.00262501
1.39274e-18
0.00262501
1.53674e-18
0.00262501
1.59945e-18
0.00262501
3.98116e-19
0.00262501
1.78441e-18
0.00262501
9.16333e-19
0.00262501
-2.32159e-19
0.00262501
2.10904e-19
0.00262501
3.52225e-19
0.00262501
5.32684e-19
0.00262501
1.82975e-18
0.00262501
1.48429e-18
0.00262501
1.11118e-18
0.00262501
-3.99349e-18
0.00262501
4.86696e-19
0.00262501
1.5008e-18
0.00262501
-1.74996e-18
0.00262501
-1.23776e-18
0.00262501
-6.14568e-19
0.00262501
4.1338e-19
0.00262501
-4.47506e-19
0.00262501
5.34677e-19
0.00262501
7.61092e-19
0.00262501
2.53342e-19
0.00262501
-1.59204e-19
0.00262501
-1.82974e-18
0.00262501
-4.41929e-19
0.00262501
-1.94416e-19
0.00262501
-9.93818e-19
0.00262501
-2.68473e-19
0.00262501
-2.17035e-18
0.00262501
-5.2824e-19
0.00262501
1.84675e-19
0.00262501
5.13555e-19
0.00262501
-4.5201e-19
0.00262501
3.38914e-19
0.00262501
-6.64118e-19
0.00262501
-6.76082e-19
0.00262501
1.21564e-16
0.00262501
1.1867e-16
0.00262501
4.83563e-13
0.00262499
-2.70573e-11
0.00262176
2.49666e-09
0.00247816
1.16279e-07
0.00195172
9.17362e-05
0.0021015
-8.09041e-05
0.00195463
0.000133275
0.00171379
0.000148519
0.00151284
8.63396e-05
0.00139617
5.57256e-05
0.00132073
6.96237e-05
0.00128442
8.62844e-05
0.00126996
8.74079e-05
0.00124333
8.16658e-05
0.00117449
7.61557e-05
0.00107467
7.20326e-05
0.000965742
6.97059e-05
0.000870617
7.11183e-05
0.000790052
7.56355e-05
0.000724841
7.87313e-05
0.000665727
7.83036e-05
0.000603344
7.32749e-05
0.000538215
6.44446e-05
0.00047197
5.67974e-05
0.000409887
5.33448e-05
0.000355948
5.35225e-05
0.000307486
5.49751e-05
0.000261001
5.63548e-05
0.000212066
5.72576e-05
0.000155603
5.92129e-05
9.77909e-05
6.03951e-05
4.18864e-05
6.18632e-05
4.92463e-05
0.00262501
1.50962e-20
0.00262501
1.60447e-20
0.00262501
-7.48889e-19
0.00262501
1.44207e-18
0.00262501
-1.06724e-20
0.00262501
-7.98993e-19
0.00262501
-1.73534e-19
0.00262501
-1.01873e-18
0.00262501
1.55944e-18
0.00262501
-1.65165e-19
0.00262501
-3.24511e-19
0.00262501
-2.53962e-19
0.00262501
-2.12409e-18
0.00262501
-2.75184e-19
0.00262501
4.49253e-19
0.00262501
8.80976e-19
0.00262501
1.63346e-18
0.00262501
7.57296e-19
0.00262501
3.62714e-19
0.00262501
3.40194e-19
0.00262501
-9.72501e-20
0.00262501
1.25965e-18
0.00262501
-5.27702e-19
0.00262501
1.61167e-18
0.00262501
-3.83414e-19
0.00262501
-2.24323e-19
0.00262501
8.76693e-19
0.00262501
-5.13078e-19
0.00262501
-1.99402e-18
0.00262501
8.4641e-19
0.00262501
5.93839e-19
0.00262501
5.39528e-19
0.00262501
1.19338e-18
0.00262501
-1.08666e-19
0.00262501
2.15681e-19
0.00262501
1.55041e-18
0.00262501
3.3106e-18
0.00262501
1.29408e-18
0.00262501
1.11867e-18
0.00262501
5.78569e-19
0.00262501
1.14681e-18
0.00262501
1.02e-18
0.00262501
8.55304e-19
0.00262501
-8.14834e-19
0.00262501
-1.69152e-18
0.00262501
-5.72652e-19
0.00262501
-5.22067e-19
0.00262501
-2.8106e-19
0.00262501
3.10556e-19
0.00262501
-5.18e-19
0.00262501
-1.94083e-18
0.00262501
7.54254e-20
0.00262501
-7.01884e-19
0.00262501
-1.15114e-18
0.00262501
-1.51205e-18
0.00262501
-5.7068e-19
0.00262501
1.03002e-19
0.00262501
2.38175e-19
0.00262501
-1.78462e-18
0.00262501
-1.39856e-19
0.00262501
7.23171e-18
0.00262501
2.26754e-16
0.00262501
9.10208e-15
0.00262501
9.61839e-13
0.00262499
-4.42552e-11
0.00262187
-1.39954e-08
0.00246781
1.35769e-07
0.0020103
0.00013543
0.00207325
-6.97964e-05
0.00192963
0.000230033
0.00171069
0.00027628
0.00151352
0.000177806
0.00140143
0.0001135
0.00133641
0.000131798
0.00131797
0.000158347
0.00131352
0.000161228
0.00129211
0.000156895
0.00122221
0.000152953
0.00111797
0.000149567
0.00100496
0.000144603
0.000908567
0.000144436
0.000830258
0.000149887
0.000769307
0.000153466
0.000713514
0.000153116
0.000651531
0.000145531
0.000583656
0.000130407
0.000516645
0.000116015
0.00045441
0.000108176
0.00040041
0.000107551
0.000351941
0.000110263
0.000304559
0.000113783
0.000255073
0.000115338
0.000201745
0.000115432
0.000149782
0.000114229
8.59446e-05
0.000130688
0.000143126
0.00262501
-3.3921e-19
0.00262501
-4.79398e-19
0.00262501
1.58717e-19
0.00262501
1.06841e-19
0.00262501
4.00475e-19
0.00262501
9.36233e-19
0.00262501
4.8183e-20
0.00262501
1.56301e-19
0.00262501
2.84463e-19
0.00262501
3.63891e-19
0.00262501
-1.80957e-18
0.00262501
-5.19049e-19
0.00262501
1.77515e-18
0.00262501
6.79312e-19
0.00262501
5.46033e-19
0.00262501
-2.24447e-20
0.00262501
-7.46295e-19
0.00262501
1.36454e-18
0.00262501
2.56415e-19
0.00262501
3.21825e-19
0.00262501
4.01367e-19
0.00262501
3.70364e-19
0.00262501
1.69626e-18
0.00262501
-7.88194e-19
0.00262501
3.50512e-19
0.00262501
9.29763e-19
0.00262501
-2.38404e-19
0.00262501
-1.68258e-19
0.00262501
1.60728e-18
0.00262501
-3.9504e-19
0.00262501
-6.55535e-19
0.00262501
1.12415e-18
0.00262501
-4.64431e-19
0.00262501
1.42614e-18
0.00262501
2.62039e-18
0.00262501
1.17701e-18
0.00262501
7.82619e-19
0.00262501
1.26636e-18
0.00262501
6.14563e-19
0.00262501
2.79611e-18
0.00262501
1.512e-18
0.00262501
3.48026e-18
0.00262501
5.25929e-19
0.00262501
1.86841e-18
0.00262501
2.50188e-18
0.00262501
2.19101e-18
0.00262501
1.07418e-18
0.00262501
-4.65683e-19
0.00262501
-4.09002e-19
0.00262501
1.85796e-19
0.00262501
1.34648e-18
0.00262501
-1.93502e-18
0.00262501
-1.32936e-18
0.00262501
2.21473e-19
0.00262501
-1.31078e-18
0.00262501
-5.62424e-19
0.00262501
-1.30705e-19
0.00262501
4.00138e-19
0.00262501
1.83226e-18
0.00262501
1.84078e-18
0.00262501
4.4399e-18
0.00262501
9.83917e-17
0.00262501
-1.3859e-14
0.00262501
-6.51887e-12
0.00262499
-1.37065e-09
0.00262254
-2.61127e-07
0.0024671
-2.90078e-05
0.00205279
0.000173539
0.00205416
-3.92877e-05
0.00194856
0.000290596
0.00175882
0.000375094
0.00158122
0.000258286
0.00147014
0.000180861
0.0014146
0.000196146
0.00140378
0.000225083
0.00140031
0.000228675
0.00137383
0.000230296
0.00129563
0.000231193
0.00118564
0.000229861
0.00106343
0.000226516
0.000954423
0.000228813
0.00086318
0.000236083
0.000790074
0.000238826
0.000722393
0.000235795
0.000650131
0.000223835
0.000576276
0.000201738
0.000502286
0.000179703
0.000435028
0.000166753
0.000378266
0.000164536
0.000327889
0.000167792
0.000279485
0.000172626
0.000228664
0.000174875
0.000170273
0.000176274
0.000109067
0.000177216
5.39288e-05
0.000191803
0.000202655
0.00262501
7.62782e-19
0.00262501
4.94755e-19
0.00262501
1.25188e-18
0.00262501
-2.17607e-19
0.00262501
-3.32926e-19
0.00262501
-6.89248e-19
0.00262501
9.90541e-19
0.00262501
-2.93617e-19
0.00262501
-1.88282e-18
0.00262501
3.69965e-19
0.00262501
1.05757e-18
0.00262501
4.84121e-19
0.00262501
2.58618e-18
0.00262501
3.26074e-18
0.00262501
2.30271e-19
0.00262501
-2.72999e-18
0.00262501
8.41738e-19
0.00262501
-8.6458e-19
0.00262501
6.87822e-20
0.00262501
1.41696e-19
0.00262501
6.92366e-19
0.00262501
-5.33902e-20
0.00262501
-8.81366e-19
0.00262501
7.64306e-19
0.00262501
6.31255e-19
0.00262501
-1.81391e-18
0.00262501
-1.62015e-18
0.00262501
-2.46263e-18
0.00262501
-5.68108e-19
0.00262501
-2.73318e-19
0.00262501
9.19591e-20
0.00262501
9.87005e-19
0.00262501
1.4878e-18
0.00262501
1.24718e-18
0.00262501
1.1235e-18
0.00262501
1.04972e-18
0.00262501
1.00929e-18
0.00262501
1.19666e-18
0.00262501
1.17177e-18
0.00262501
3.0563e-18
0.00262501
2.81131e-18
0.00262501
9.29884e-19
0.00262501
1.40648e-18
0.00262501
1.14178e-18
0.00262501
1.39812e-18
0.00262501
1.93148e-18
0.00262501
-7.69962e-19
0.00262501
1.34173e-18
0.00262501
2.30312e-19
0.00262501
2.42063e-19
0.00262501
-8.24457e-19
0.00262501
-1.0158e-18
0.00262501
-4.20695e-19
0.00262501
-9.76634e-19
0.00262501
5.16372e-19
0.00262501
1.25145e-18
0.00262501
-6.08824e-19
0.00262501
1.36357e-18
0.00262501
2.23045e-18
0.00262501
2.19413e-18
0.00262501
2.95223e-17
0.00262501
1.86876e-15
0.00262501
1.52012e-13
0.00262501
1.57836e-11
0.00262496
1.86971e-09
0.00262072
3.14072e-07
0.00243282
3.67186e-05
0.00181827
0.000343194
0.00179082
7.69832e-06
0.00171747
0.000323163
0.00159649
0.000420614
0.00146017
0.000315391
0.00138874
0.000223312
0.00136842
0.000241767
0.00136574
0.000281462
0.00135769
0.000290221
0.00132122
0.000306238
0.00123902
0.000313719
0.00113182
0.000313306
0.00102147
0.000306644
0.000927447
0.000306052
0.000850408
0.000312508
0.000787769
0.000315175
0.00072511
0.000312743
0.00065408
0.000299506
0.000578978
0.000272694
0.000502669
0.000244934
0.000433197
0.000227681
0.000374712
0.000223699
0.00032333
0.000226867
0.000274604
0.000232353
0.000223636
0.00023491
0.000165165
0.000237187
0.000104055
0.000239322
4.44415e-05
0.00025614
0.000253688
0.00262501
-8.34924e-20
0.00262501
-1.53785e-19
0.00262501
-1.15715e-18
0.00262501
-5.33226e-19
0.00262501
-4.94068e-19
0.00262501
-1.52517e-18
0.00262501
-4.54476e-19
0.00262501
5.83276e-19
0.00262501
-1.72652e-19
0.00262501
-1.50199e-18
0.00262501
1.08863e-19
0.00262501
2.59346e-18
0.00262501
9.57042e-19
0.00262501
1.4429e-19
0.00262501
3.60607e-19
0.00262501
1.31872e-19
0.00262501
-1.95323e-18
0.00262501
4.22948e-19
0.00262501
-8.88985e-19
0.00262501
-5.40555e-19
0.00262501
1.46918e-19
0.00262501
-3.56389e-20
0.00262501
-4.04433e-19
0.00262501
2.86235e-20
0.00262501
-9.26723e-19
0.00262501
-5.92104e-19
0.00262501
-4.40873e-19
0.00262501
4.29476e-19
0.00262501
-1.30606e-19
0.00262501
-7.83867e-19
0.00262501
-8.69507e-19
0.00262501
-6.00532e-19
0.00262501
1.51573e-18
0.00262501
1.19349e-18
0.00262501
8.67934e-19
0.00262501
2.19296e-18
0.00262501
3.15493e-19
0.00262501
4.84947e-19
0.00262501
1.49641e-18
0.00262501
1.10243e-18
0.00262501
3.08061e-18
0.00262501
2.49215e-18
0.00262501
2.58191e-18
0.00262501
2.60366e-18
0.00262501
-2.2282e-19
0.00262501
-7.06422e-19
0.00262501
2.10933e-18
0.00262501
8.42419e-19
0.00262501
4.68554e-19
0.00262501
-6.35104e-19
0.00262501
-1.4779e-18
0.00262501
1.07202e-18
0.00262501
6.21419e-20
0.00262501
4.53412e-19
0.00262501
1.18929e-18
0.00262501
3.11838e-19
0.00262501
-3.72222e-20
0.00262501
-4.94305e-20
0.00262501
-1.18659e-19
0.00262501
1.15345e-18
0.00262501
2.2268e-17
0.00262501
1.4324e-15
0.00262501
7.86731e-14
0.00262501
5.20989e-12
0.002625
1.55405e-10
0.00262427
2.00549e-08
0.00256168
2.42468e-06
0.00205364
0.000400212
0.00199193
4.56591e-05
0.00183563
0.00041796
0.00165153
0.00052056
0.00150671
0.000402884
0.00142701
0.000290695
0.00139861
0.0002965
0.00138553
0.000342607
0.00136823
0.000357019
0.00132706
0.000381375
0.00124512
0.000394098
0.00114099
0.000395981
0.00103544
0.000387318
0.000944752
0.000384039
0.000870212
0.000389221
0.000807445
0.000392498
0.000741253
0.000392059
0.000664924
0.000378275
0.000584153
0.000347269
0.000503242
0.00031364
0.000431535
0.000290934
0.000372433
0.000284039
0.00032117
0.00028654
0.000272177
0.000292877
0.000219865
0.000296529
0.000159484
0.000300185
0.000102006
0.00030103
5.89059e-05
0.000305645
0.00031455
0.00262501
-8.2514e-19
0.00262501
2.95679e-19
0.00262501
1.27319e-18
0.00262501
4.88828e-19
0.00262501
5.20376e-19
0.00262501
-1.8473e-21
0.00262501
-1.07842e-18
0.00262501
-7.79639e-19
0.00262501
-3.12275e-19
0.00262501
-1.05238e-18
0.00262501
-3.23659e-20
0.00262501
8.13305e-20
0.00262501
-7.98475e-20
0.00262501
4.10378e-19
0.00262501
9.31418e-19
0.00262501
1.62824e-18
0.00262501
1.15836e-18
0.00262501
5.39436e-19
0.00262501
1.06315e-18
0.00262501
1.04032e-18
0.00262501
2.63138e-19
0.00262501
-5.72722e-19
0.00262501
2.8524e-18
0.00262501
-1.35058e-18
0.00262501
2.13701e-19
0.00262501
-1.29462e-19
0.00262501
-1.96223e-19
0.00262501
-1.15129e-19
0.00262501
1.57309e-19
0.00262501
3.54194e-19
0.00262501
2.39298e-19
0.00262501
-1.5225e-19
0.00262501
-1.7246e-20
0.00262501
-3.5735e-19
0.00262501
-2.88388e-19
0.00262501
-1.21261e-18
0.00262501
2.27204e-18
0.00262501
1.21111e-18
0.00262501
5.22494e-18
0.00262501
7.88633e-19
0.00262501
1.06701e-18
0.00262501
2.19997e-18
0.00262501
1.48833e-18
0.00262501
1.87146e-18
0.00262501
2.6431e-18
0.00262501
1.79744e-18
0.00262501
2.047e-18
0.00262501
1.83572e-18
0.00262501
7.70117e-19
0.00262501
1.90862e-18
0.00262501
2.53829e-18
0.00262501
2.24951e-18
0.00262501
1.45074e-18
0.00262501
-1.72381e-19
0.00262501
-8.7875e-19
0.00262501
-3.54704e-18
0.00262501
4.50182e-19
0.00262501
-6.79931e-20
0.00262501
2.82667e-19
0.00262501
1.32422e-18
0.00262501
1.90065e-17
0.00262501
1.19125e-15
0.00262501
6.89763e-14
0.00262501
4.81038e-12
0.002625
1.58307e-10
0.00262442
1.9182e-08
0.00259677
-2.82292e-07
0.00208066
0.000405632
0.00199774
6.64197e-05
0.00185349
0.000494691
0.00171291
0.000592852
0.00159217
0.000487299
0.00150607
0.000370254
0.00145468
0.000376485
0.00141449
0.000426217
0.00137417
0.000440779
0.00131615
0.000463472
0.0012298
0.000474832
0.00112876
0.000476333
0.00102833
0.000467232
0.000939996
0.000464034
0.000867144
0.0004681
0.000804652
0.000471056
0.000738617
0.000470288
0.000663715
0.000453402
0.00058462
0.000418393
0.000504637
0.000380341
0.000434045
0.000353375
0.000376001
0.000343944
0.000325669
0.000345891
0.000277207
0.000353339
0.00022499
0.000358514
0.000164517
0.00036394
0.00010299
0.000364633
5.55862e-05
0.000357472
0.000375447
0.00262501
7.26674e-19
0.00262501
-2.78436e-19
0.00262501
-6.2145e-19
0.00262501
2.55286e-18
0.00262501
5.85723e-19
0.00262501
9.90308e-19
0.00262501
-3.58381e-19
0.00262501
-3.97209e-19
0.00262501
-3.5336e-19
0.00262501
-2.81216e-20
0.00262501
5.97899e-20
0.00262501
-5.20748e-19
0.00262501
-7.34173e-19
0.00262501
-1.08527e-18
0.00262501
1.91789e-21
0.00262501
6.21873e-19
0.00262501
1.9388e-18
0.00262501
7.21453e-19
0.00262501
3.43051e-19
0.00262501
1.04591e-18
0.00262501
1.08055e-18
0.00262501
1.04617e-18
0.00262501
-7.41957e-19
0.00262501
1.15788e-19
0.00262501
-2.00469e-19
0.00262501
1.1475e-19
0.00262501
-2.75174e-19
0.00262501
3.12695e-19
0.00262501
-2.15421e-18
0.00262501
-1.64422e-19
0.00262501
2.53135e-19
0.00262501
-9.89518e-19
0.00262501
-4.66399e-19
0.00262501
-1.0055e-18
0.00262501
-2.03854e-19
0.00262501
7.48011e-19
0.00262501
2.67686e-19
0.00262501
1.82725e-18
0.00262501
1.45499e-19
0.00262501
3.78458e-18
0.00262501
1.90404e-18
0.00262501
1.44054e-18
0.00262501
2.41325e-18
0.00262501
1.39177e-18
0.00262501
1.01018e-18
0.00262501
1.03153e-18
0.00262501
9.63452e-19
0.00262501
2.39773e-18
0.00262501
2.53348e-18
0.00262501
1.6803e-18
0.00262501
1.63521e-18
0.00262501
1.17369e-18
0.00262501
5.15604e-19
0.00262501
1.91814e-18
0.00262501
-5.8853e-20
0.00262501
4.61046e-19
0.00262501
3.87081e-19
0.00262501
1.56404e-18
0.00262501
6.26135e-19
0.00262501
1.79616e-18
0.00262501
2.24106e-17
0.00262501
1.36857e-15
0.00262501
8.98686e-14
0.00262501
6.00681e-12
0.002625
3.03721e-10
0.00262444
2.68689e-08
0.00259462
6.41268e-07
0.00204612
0.000428896
0.00195881
0.000100742
0.00179413
0.000589058
0.00167634
0.000651395
0.00158727
0.00055413
0.00152357
0.000442856
0.00148109
0.000452807
0.00143957
0.000509261
0.00139237
0.000524782
0.00132638
0.000544948
0.00123878
0.000553189
0.0011408
0.000554366
0.0010453
0.000546855
0.000959633
0.000545186
0.000889242
0.000548702
0.000827731
0.000550348
0.000761438
0.000547726
0.000685529
0.000527659
0.00060461
0.000489477
0.000522124
0.000448628
0.000449376
0.000418284
0.000389682
0.000406147
0.000338204
0.000407016
0.00028907
0.000415015
0.000236361
0.000421164
0.000174874
0.000428381
0.000109852
0.0004312
5.35573e-05
0.000418743
0.000431882
0.00262501
-5.91758e-19
0.00262501
1.77504e-18
0.00262501
1.06484e-18
0.00262501
-5.46879e-19
0.00262501
-2.41796e-19
0.00262501
2.01075e-19
0.00262501
7.82703e-20
0.00262501
-5.5496e-19
0.00262501
-7.46945e-19
0.00262501
9.183e-19
0.00262501
1.37796e-19
0.00262501
-8.12589e-19
0.00262501
-9.60802e-19
0.00262501
5.44636e-19
0.00262501
1.78338e-19
0.00262501
-6.12186e-19
0.00262501
-1.26327e-18
0.00262501
4.36767e-19
0.00262501
1.43989e-18
0.00262501
2.0377e-18
0.00262501
-3.1774e-19
0.00262501
8.00743e-19
0.00262501
4.69622e-19
0.00262501
-6.39163e-19
0.00262501
7.37866e-19
0.00262501
-4.84751e-20
0.00262501
-2.66137e-19
0.00262501
-1.52853e-18
0.00262501
9.04439e-20
0.00262501
-1.35656e-18
0.00262501
-1.89556e-18
0.00262501
5.19881e-19
0.00262501
2.87461e-19
0.00262501
1.2222e-18
0.00262501
1.41377e-18
0.00262501
1.84643e-18
0.00262501
2.14728e-18
0.00262501
2.37495e-18
0.00262501
8.66845e-19
0.00262501
6.10881e-19
0.00262501
1.08019e-18
0.00262501
1.86841e-18
0.00262501
5.40134e-19
0.00262501
1.76918e-18
0.00262501
1.96277e-18
0.00262501
7.75709e-19
0.00262501
6.77608e-19
0.00262501
8.05203e-19
0.00262501
1.26491e-18
0.00262501
7.49779e-19
0.00262501
1.44644e-18
0.00262501
3.142e-18
0.00262501
1.39566e-18
0.00262501
9.64811e-19
0.00262501
4.59e-19
0.00262501
8.49777e-19
0.00262501
-2.55694e-19
0.00262501
1.3193e-18
0.00262501
1.45418e-18
0.00262501
2.28928e-18
0.00262501
2.36826e-17
0.00262501
1.57484e-15
0.00262501
1.08492e-13
0.00262501
6.93986e-12
0.002625
4.11981e-10
0.00262444
2.96719e-08
0.00259466
1.14236e-06
0.00204492
0.000438868
0.00190193
0.000190005
0.00173157
0.000680389
0.00164865
0.000691971
0.00159254
0.000600693
0.00155059
0.000506125
0.00151334
0.000531061
0.00146404
0.000595465
0.00140544
0.000611939
0.00132846
0.000627452
0.00123864
0.000630158
0.00114183
0.000629829
0.00105054
0.000624869
0.000969525
0.000625788
0.00090285
0.000629247
0.000842812
0.000629683
0.000775113
0.000625485
0.0006957
0.00060333
0.000610522
0.000563137
0.000524008
0.000520038
0.000448999
0.000485692
0.000388657
0.000469525
0.000337635
0.000468308
0.000290095
0.000475727
0.000240304
0.000481288
0.000183493
0.00048778
0.000121095
0.000492673
4.42775e-05
0.000494475
0.000486769
0.00262501
1.03384e-18
0.00262501
3.59189e-19
0.00262501
-4.61952e-19
0.00262501
-4.19397e-19
0.00262501
-1.10732e-19
0.00262501
-7.14209e-19
0.00262501
9.70983e-19
0.00262501
1.92459e-18
0.00262501
6.81991e-19
0.00262501
-6.67042e-19
0.00262501
-2.46082e-18
0.00262501
-3.21659e-19
0.00262501
-6.16508e-19
0.00262501
-4.83999e-19
0.00262501
-1.26814e-18
0.00262501
-1.88314e-18
0.00262501
-4.68216e-19
0.00262501
-3.8581e-19
0.00262501
-2.60229e-19
0.00262501
-5.21148e-19
0.00262501
8.26169e-19
0.00262501
-1.37906e-18
0.00262501
-1.26665e-18
0.00262501
5.84512e-19
0.00262501
-2.03907e-20
0.00262501
3.5904e-19
0.00262501
5.79288e-19
0.00262501
1.4702e-18
0.00262501
-7.93886e-21
0.00262501
-3.21594e-20
0.00262501
1.32165e-18
0.00262501
-6.6304e-19
0.00262501
-1.79088e-19
0.00262501
-5.10046e-20
0.00262501
6.75307e-19
0.00262501
1.26985e-18
0.00262501
1.64505e-18
0.00262501
1.4131e-18
0.00262501
2.22773e-18
0.00262501
-6.22134e-19
0.00262501
-1.09458e-18
0.00262501
-3.34707e-19
0.00262501
1.11143e-19
0.00262501
2.77869e-19
0.00262501
-2.08166e-19
0.00262501
1.86851e-18
0.00262501
2.52395e-18
0.00262501
1.22087e-18
0.00262501
1.02954e-18
0.00262501
1.9851e-18
0.00262501
1.67228e-18
0.00262501
2.58158e-19
0.00262501
1.27042e-18
0.00262501
1.09019e-18
0.00262501
1.98043e-18
0.00262501
4.70946e-19
0.00262501
6.4925e-19
0.00262501
2.50248e-19
0.00262501
6.36907e-19
0.00262501
-4.16055e-19
0.00262501
2.12655e-17
0.00262501
1.57812e-15
0.00262501
1.11994e-13
0.00262501
7.10972e-12
0.002625
4.81074e-10
0.00262445
3.05517e-08
0.00259436
1.70823e-06
0.0020741
0.000401463
0.00182198
0.000361126
0.00168554
0.000730909
0.00163959
0.00071243
0.0016133
0.000639596
0.00158482
0.000571041
0.0015366
0.000616281
0.00147787
0.000686672
0.00140999
0.000700102
0.00132724
0.00070754
0.00123524
0.000703345
0.00114147
0.000701646
0.00105484
0.000700649
0.000977647
0.000706726
0.000913053
0.000711306
0.000851637
0.000710925
0.000781029
0.00070499
0.000699674
0.000679524
0.000612953
0.000636864
0.000526383
0.000591333
0.000452405
0.000552957
0.000392958
0.000532747
0.000342775
0.000529359
0.000295522
0.00053628
0.000245221
0.00054168
0.000188178
0.000547631
0.000128628
0.000552911
6.03956e-05
0.000565962
0.000551353
0.00262501
-1.41519e-18
0.00262501
-2.15828e-20
0.00262501
8.75064e-19
0.00262501
1.22589e-18
0.00262501
-1.80346e-18
0.00262501
1.65278e-19
0.00262501
-1.72569e-19
0.00262501
-5.85859e-19
0.00262501
4.96373e-19
0.00262501
-6.69787e-19
0.00262501
7.50849e-19
0.00262501
-1.15641e-18
0.00262501
-6.49259e-19
0.00262501
-1.46251e-18
0.00262501
-1.06336e-18
0.00262501
9.59576e-19
0.00262501
-1.03272e-18
0.00262501
4.54481e-20
0.00262501
-1.55823e-18
0.00262501
-1.78568e-18
0.00262501
-1.49058e-18
0.00262501
-1.25339e-18
0.00262501
1.05316e-18
0.00262501
1.4205e-18
0.00262501
1.85272e-18
0.00262501
-2.46729e-19
0.00262501
3.82376e-19
0.00262501
1.18593e-19
0.00262501
3.26045e-19
0.00262501
1.3323e-18
0.00262501
-1.20168e-18
0.00262501
-1.79444e-18
0.00262501
-1.27388e-18
0.00262501
-8.89839e-19
0.00262501
2.32601e-18
0.00262501
1.18809e-18
0.00262501
2.73423e-18
0.00262501
1.25193e-18
0.00262501
7.12107e-20
0.00262501
5.37808e-19
0.00262501
5.28224e-19
0.00262501
-2.10539e-18
0.00262501
-7.29321e-20
0.00262501
2.39228e-21
0.00262501
7.88579e-19
0.00262501
3.26236e-19
0.00262501
-8.0343e-19
0.00262501
-1.97136e-19
0.00262501
1.77683e-18
0.00262501
4.1708e-19
0.00262501
8.29617e-19
0.00262501
5.69197e-19
0.00262501
7.36671e-19
0.00262501
1.26336e-18
0.00262501
7.07524e-19
0.00262501
3.55207e-19
0.00262501
1.0739e-18
0.00262501
9.07532e-19
0.00262501
8.19494e-19
0.00262501
9.66449e-19
0.00262501
2.33271e-17
0.00262501
1.41041e-15
0.00262501
1.01199e-13
0.00262501
6.22254e-12
0.002625
4.44683e-10
0.00262448
2.3582e-08
0.00259505
1.62182e-06
0.0020729
0.000334923
0.00171856
0.000582918
0.0016633
0.000723113
0.00165489
0.000725787
0.00165077
0.000677151
0.00162549
0.000639884
0.00156564
0.000710789
0.0015018
0.000779626
0.00142929
0.000785114
0.00134544
0.000784605
0.00124993
0.000773632
0.00115679
0.00077087
0.00107428
0.000775364
0.00100046
0.000787914
0.000937173
0.000795148
0.000873178
0.000794519
0.000798671
0.000786374
0.000715625
0.000756769
0.000627237
0.000711025
0.000540462
0.000663358
0.000466553
0.000621623
0.000406167
0.000597579
0.000354956
0.000591959
0.000306073
0.000598344
0.000253539
0.000603778
0.000193627
0.000610083
0.000131309
0.000615784
6.25336e-05
0.000637546
0.000618655
0.00262501
8.95686e-19
0.00262501
-2.45906e-19
0.00262501
-1.7053e-18
0.00262501
-2.04793e-18
0.00262501
7.77522e-19
0.00262501
-2.33414e-19
0.00262501
4.47097e-19
0.00262501
4.02693e-22
0.00262501
-9.10967e-19
0.00262501
1.00087e-18
0.00262501
-8.12415e-19
0.00262501
-1.6998e-18
0.00262501
-1.18638e-18
0.00262501
-2.24483e-18
0.00262501
-1.11762e-18
0.00262501
-7.38263e-19
0.00262501
8.08092e-19
0.00262501
-9.61193e-20
0.00262501
2.26204e-18
0.00262501
-5.0313e-19
0.00262501
1.35576e-18
0.00262501
1.047e-18
0.00262501
-1.4298e-18
0.00262501
1.96223e-19
0.00262501
-1.19495e-18
0.00262501
1.4998e-18
0.00262501
7.30105e-19
0.00262501
-1.37286e-18
0.00262501
-1.52784e-18
0.00262501
-5.09752e-19
0.00262501
2.24845e-19
0.00262501
4.33103e-19
0.00262501
4.71828e-19
0.00262501
4.73208e-19
0.00262501
-2.92909e-19
0.00262501
1.11525e-18
0.00262501
3.93587e-19
0.00262501
9.52613e-19
0.00262501
9.66768e-19
0.00262501
2.91652e-18
0.00262501
9.08987e-19
0.00262501
1.39918e-18
0.00262501
6.08079e-19
0.00262501
-1.22863e-18
0.00262501
2.00673e-19
0.00262501
3.85676e-19
0.00262501
3.78697e-19
0.00262501
-6.98142e-19
0.00262501
-6.44341e-19
0.00262501
8.12862e-19
0.00262501
1.66403e-18
0.00262501
1.65715e-18
0.00262501
1.38521e-18
0.00262501
7.22521e-20
0.00262501
-7.59673e-19
0.00262501
1.09996e-18
0.00262501
1.83992e-18
0.00262501
-1.36267e-18
0.00262501
-1.90245e-18
0.00262501
2.31604e-18
0.00262501
1.68689e-17
0.00262501
1.34662e-15
0.00262501
1.02258e-13
0.00262501
6.8476e-12
0.002625
5.29117e-10
0.0026245
3.02291e-08
0.00259449
2.51326e-06
0.00199817
0.000320462
0.00170267
0.000722511
0.0017083
0.000700122
0.0017092
0.000748459
0.00170555
0.000721624
0.00166664
0.000736199
0.00158482
0.000828861
0.00151268
0.000875507
0.00143574
0.000865778
0.00134848
0.000856646
0.00125206
0.000840359
0.00116152
0.000838211
0.00108121
0.000849655
0.00101203
0.000869787
0.000950492
0.000879925
0.000884655
0.000878571
0.000807563
0.000867202
0.000723702
0.000833144
0.000635207
0.000785016
0.000549129
0.000736391
0.000475264
0.000692224
0.000413441
0.000664649
0.000360625
0.000656292
0.000309845
0.000661682
0.00025548
0.000666886
0.000194151
0.000673858
0.000131146
0.000679712
6.33369e-05
0.000708463
0.000685916
0.00262501
-1.2934e-19
0.00262501
-9.18753e-19
0.00262501
-1.8887e-19
0.00262501
1.27695e-19
0.00262501
-1.22107e-19
0.00262501
2.0796e-19
0.00262501
-9.92416e-19
0.00262501
-1.60134e-18
0.00262501
-1.69328e-20
0.00262501
-2.18764e-19
0.00262501
-1.6879e-18
0.00262501
-1.35662e-19
0.00262501
-1.3563e-18
0.00262501
-1.38076e-18
0.00262501
-1.48479e-18
0.00262501
-5.20274e-19
0.00262501
-2.42716e-19
0.00262501
8.27749e-20
0.00262501
-5.88267e-19
0.00262501
-1.50905e-19
0.00262501
-1.55729e-18
0.00262501
4.70583e-19
0.00262501
4.91257e-19
0.00262501
1.10899e-18
0.00262501
5.3763e-20
0.00262501
3.66985e-19
0.00262501
-4.99551e-19
0.00262501
7.73268e-20
0.00262501
7.16865e-19
0.00262501
4.07257e-20
0.00262501
5.17887e-20
0.00262501
4.31856e-20
0.00262501
4.55946e-19
0.00262501
1.33769e-18
0.00262501
2.12435e-19
0.00262501
-9.69083e-19
0.00262501
-5.93261e-20
0.00262501
-1.02345e-20
0.00262501
2.07703e-18
0.00262501
2.83816e-20
0.00262501
1.41318e-18
0.00262501
1.23596e-18
0.00262501
1.62394e-18
0.00262501
1.6606e-18
0.00262501
2.15076e-19
0.00262501
-1.35839e-19
0.00262501
1.15359e-18
0.00262501
1.91474e-18
0.00262501
1.30929e-18
0.00262501
1.41079e-19
0.00262501
-1.33471e-18
0.00262501
-1.45815e-18
0.00262501
-7.87843e-19
0.00262501
3.33507e-19
0.00262501
1.39175e-18
0.00262501
1.80997e-18
0.00262501
-5.69648e-19
0.00262501
9.49244e-19
0.00262501
1.69166e-18
0.00262501
5.92062e-19
0.00262501
1.0783e-17
0.00262501
8.16293e-16
0.00262501
6.52085e-14
0.00262501
4.61498e-12
0.002625
3.70274e-10
0.0026246
2.20898e-08
0.00259888
2.00107e-06
0.00204274
0.000265964
0.00187085
0.000702963
0.00188629
0.000698968
0.00184466
0.000840828
0.00176474
0.000859239
0.00165528
0.000897239
0.00155753
0.000950825
0.001499
0.000946882
0.00144006
0.000920979
0.00135782
0.00091553
0.00126202
0.000902991
0.00117332
0.000906751
0.00109569
0.000925995
0.00103054
0.000952953
0.000970473
0.000964773
0.000902678
0.000962055
0.000823212
0.000946889
0.000738033
0.000908692
0.000649427
0.000859168
0.000564711
0.000810611
0.000491294
0.000764796
0.000428181
0.000733958
0.000373354
0.000722461
0.000320009
0.000726592
0.000263273
0.000731553
0.000199854
0.000739767
0.000135107
0.000745616
6.61169e-05
0.000780369
0.000755343
0.00262501
4.0216e-20
0.00262501
-1.82268e-19
0.00262501
-9.25568e-20
0.00262501
-3.20735e-19
0.00262501
-5.60894e-19
0.00262501
2.88817e-19
0.00262501
7.23235e-20
0.00262501
1.46814e-18
0.00262501
7.26714e-19
0.00262501
6.16859e-19
0.00262501
-2.10413e-19
0.00262501
-7.93494e-19
0.00262501
-1.45773e-19
0.00262501
5.38059e-19
0.00262501
1.24103e-19
0.00262501
-1.83527e-18
0.00262501
-5.63209e-19
0.00262501
-8.58785e-19
0.00262501
-1.93908e-18
0.00262501
-2.08034e-18
0.00262501
-1.09933e-18
0.00262501
-1.67149e-18
0.00262501
8.09259e-20
0.00262501
-8.78157e-19
0.00262501
-3.56676e-19
0.00262501
-9.47553e-19
0.00262501
-7.60307e-19
0.00262501
1.27375e-18
0.00262501
-3.31425e-19
0.00262501
2.01297e-19
0.00262501
-8.1833e-19
0.00262501
1.34907e-18
0.00262501
1.30117e-18
0.00262501
-6.35776e-19
0.00262501
-3.13592e-19
0.00262501
-6.95753e-19
0.00262501
-1.0498e-18
0.00262501
-9.2163e-19
0.00262501
-2.22366e-20
0.00262501
1.36029e-19
0.00262501
4.25561e-19
0.00262501
9.61375e-19
0.00262501
5.00055e-19
0.00262501
-9.14651e-19
0.00262501
7.58992e-20
0.00262501
2.12615e-19
0.00262501
2.4385e-18
0.00262501
8.45839e-19
0.00262501
5.49811e-19
0.00262501
1.81037e-18
0.00262501
7.33873e-19
0.00262501
6.25849e-19
0.00262501
5.91378e-19
0.00262501
4.48312e-19
0.00262501
1.74313e-19
0.00262501
4.60533e-19
0.00262501
6.40732e-19
0.00262501
-4.91153e-19
0.00262501
1.3279e-18
0.00262501
1.56431e-18
0.00262501
5.88998e-18
0.00262501
3.83254e-16
0.00262501
3.2418e-14
0.00262501
2.40214e-12
0.00262501
1.98895e-10
0.00262472
1.23818e-08
0.00260538
1.26687e-06
0.00213643
0.000158034
0.00193578
0.000596787
0.00195943
0.000723218
0.00188345
0.000977741
0.00175168
0.00105324
0.00163628
0.00106031
0.0015674
0.00103366
0.00151975
0.000994992
0.00145908
0.000967439
0.00137412
0.000968651
0.0012784
0.000965364
0.00119098
0.000979143
0.00111682
0.00100664
0.00105447
0.00103832
0.000993552
0.00105026
0.000922101
0.00104514
0.000838935
0.00102624
0.000750955
0.000984993
0.000661173
0.000935233
0.000577074
0.000887268
0.000503314
0.000840174
0.00043835
0.000806201
0.000380784
0.000791076
0.000324492
0.000793247
0.000265811
0.00079731
0.000201304
0.000806571
0.000136199
0.00081169
6.72751e-05
0.000851677
0.000826256
0.00262501
-4.913e-19
0.00262501
-1.13279e-18
0.00262501
1.07036e-18
0.00262501
1.54634e-18
0.00262501
8.17599e-19
0.00262501
-7.4237e-19
0.00262501
9.56167e-19
0.00262501
-5.96935e-19
0.00262501
-2.13178e-18
0.00262501