/*--------------------------------*- C++ -*----------------------------------*\
| =========                 |                                                 |
| \\      /  F ield         | OpenFOAM: The Open Source CFD Toolbox           |
|  \\    /   O peration     | Version:  v1812                                 |
|   \\  /    A nd           | Web:      www.OpenFOAM.com                      |
|    \\/     M anipulation  |                                                 |
\*---------------------------------------------------------------------------*/
FoamFile
{
    version     2.0;
    format      ascii;
    class       volVectorField;
    location    "0.3";
    object      U;
}
// * * * * * * * * * * * * * * * * * * * * * * * * * * * * * * * * * * * * * //

dimensions      [0 1 -1 0 0 0 0];


internalField   nonuniform List<vector> 
64512
(
(3 -4.86295e-17 0)
(3 1.87832e-16 0)
(3 2.50361e-16 0)
(3 9.78208e-17 0)
(3 -1.15556e-18 0)
(3 1.35603e-16 0)
(3 2.02824e-16 0)
(3 1.12806e-16 0)
(3 6.32441e-17 0)
(3 -4.57349e-16 0)
(3 -9.95655e-16 0)
(3 -9.03885e-16 0)
(3 -6.41013e-16 0)
(3 -2.25679e-16 0)
(3 2.75425e-16 0)
(3 6.75915e-16 0)
(3 5.96939e-16 0)
(3 6.38595e-16 0)
(3 6.09721e-16 0)
(3 5.87634e-16 0)
(3 4.78878e-16 0)
(3 1.11675e-15 0)
(3 2.12949e-15 0)
(3 2.1675e-15 0)
(3 1.78459e-15 0)
(3 1.31354e-15 0)
(3 1.45676e-15 0)
(3 1.68472e-15 0)
(3 1.69636e-15 0)
(3 1.9367e-15 0)
(3 1.01317e-15 0)
(3 1.35119e-15 0)
(3 2.00863e-15 0)
(3 2.2241e-15 0)
(3 1.95851e-15 0)
(3 1.24185e-15 0)
(3 4.42428e-16 0)
(3 6.2125e-17 0)
(3 1.68526e-16 0)
(3 3.29727e-16 0)
(3 -2.5286e-16 0)
(3 3.62146e-16 0)
(3 4.98673e-16 0)
(3 9.26686e-16 0)
(3 1.29767e-15 0)
(3 1.61388e-15 0)
(3 1.46731e-15 0)
(3 1.52697e-15 0)
(3 5.75462e-16 0)
(3 4.49378e-16 0)
(3 2.00609e-17 0)
(3 2.8429e-16 0)
(3 -3.75813e-16 0)
(3 -1.15918e-15 0)
(3 -3.59381e-16 0)
(3 -1.71681e-16 0)
(3 7.74275e-17 0)
(3 -2.02673e-16 0)
(3 -1.3808e-16 0)
(3 -5.05445e-16 0)
(3 -9.4106e-16 0)
(3 8.09367e-14 0)
(3 -2.39926e-12 0)
(3 4.03583e-10 0)
(2.99999 -3.49877e-08 0)
(2.99946 2.23344e-06 0)
(2.91843 -0.000436556 0)
(0.976612 0.0225093 0)
(0.599983 -0.0295165 0)
(0.564369 0.0209848 0)
(0.510439 0.0210719 0)
(0.45197 0.0109004 0)
(0.412404 0.00776442 0)
(0.391165 0.0107067 0)
(0.374692 0.0136979 0)
(0.365463 0.0137065 0)
(0.358567 0.0127838 0)
(0.3437 0.0120411 0)
(0.320124 0.0114387 0)
(0.293068 0.0111437 0)
(0.266876 0.0116068 0)
(0.245164 0.012753 0)
(0.225846 0.0137553 0)
(0.209517 0.0140264 0)
(0.192609 0.0134365 0)
(0.172789 0.0120784 0)
(0.153366 0.0109868 0)
(0.133995 0.0104749 0)
(0.116706 0.0104875 0)
(0.101722 0.0106255 0)
(0.0870266 0.010673 0)
(0.0725608 0.0107585 0)
(0.0567437 0.0114727 0)
(0.0397363 0.0121525 0)
(0.0219804 0.0110415 0)
(0.00611222 0.00719554 0)
(3 2.16671e-16 0)
(3 -5.77223e-17 0)
(3 1.48409e-17 0)
(3 7.53563e-17 0)
(3 5.60547e-17 0)
(3 -5.8603e-16 0)
(3 -2.20593e-16 0)
(3 -2.99489e-16 0)
(3 2.06102e-16 0)
(3 -6.28215e-16 0)
(3 -4.32007e-16 0)
(3 -6.03365e-16 0)
(3 -1.12832e-15 0)
(3 -4.46524e-16 0)
(3 1.06203e-15 0)
(3 1.267e-15 0)
(3 8.47872e-16 0)
(3 1.00873e-15 0)
(3 -1.39385e-16 0)
(3 2.41955e-16 0)
(3 -2.15595e-17 0)
(3 1.79719e-16 0)
(3 7.24146e-17 0)
(3 5.3838e-16 0)
(3 4.59838e-16 0)
(3 4.67736e-17 0)
(3 9.48049e-17 0)
(3 1.91386e-16 0)
(3 -4.46066e-16 0)
(3 -2.30702e-16 0)
(3 4.58877e-16 0)
(3 4.93857e-16 0)
(3 1.29834e-15 0)
(3 9.10102e-16 0)
(3 9.93265e-16 0)
(3 1.50357e-15 0)
(3 1.19657e-15 0)
(3 8.45413e-16 0)
(3 8.16591e-16 0)
(3 -3.09378e-16 0)
(3 3.07807e-16 0)
(3 2.92961e-17 0)
(3 2.39474e-16 0)
(3 -9.74294e-16 0)
(3 -1.59274e-15 0)
(3 -8.93571e-16 0)
(3 -6.25639e-16 0)
(3 -8.93512e-16 0)
(3 -2.14552e-16 0)
(3 -1.48177e-16 0)
(3 -8.50729e-16 0)
(3 -5.01078e-16 0)
(3 -7.22825e-16 0)
(3 -1.58179e-15 0)
(3 -1.0131e-15 0)
(3 -4.97528e-16 0)
(3 2.23657e-17 0)
(3 2.33322e-16 0)
(3 -3.97186e-16 0)
(3 -3.42811e-16 0)
(3 1.74516e-15 0)
(3 1.88779e-13 0)
(3 2.06718e-13 0)
(3 1.00161e-09 0)
(2.99999 -3.05072e-08 0)
(2.99946 1.10339e-05 0)
(2.91663 -0.000235228 0)
(0.994582 0.0416009 0)
(0.593948 -0.0191887 0)
(0.556 0.0487491 0)
(0.506978 0.0578277 0)
(0.453015 0.0367961 0)
(0.413316 0.0249843 0)
(0.393164 0.0294615 0)
(0.38136 0.0362581 0)
(0.375622 0.036944 0)
(0.370655 0.0349263 0)
(0.356193 0.0328898 0)
(0.332041 0.0317054 0)
(0.303947 0.030916 0)
(0.277177 0.031299 0)
(0.25565 0.0327305 0)
(0.237393 0.0336469 0)
(0.222322 0.0337686 0)
(0.206415 0.0318142 0)
(0.186745 0.0282698 0)
(0.166916 0.0251 0)
(0.147379 0.0236065 0)
(0.130142 0.0237497 0)
(0.115065 0.0245135 0)
(0.100302 0.0253377 0)
(0.08552 0.025788 0)
(0.0700899 0.0264045 0)
(0.0549609 0.0269726 0)
(0.0369218 0.029359 0)
(0.0147013 0.0284205 0)
(3 -1.74834e-16 0)
(3 -8.86448e-17 0)
(3 -2.15457e-16 0)
(3 5.41868e-16 0)
(3 3.09525e-16 0)
(3 6.57426e-16 0)
(3 4.73335e-16 0)
(3 -1.12732e-16 0)
(3 6.46298e-16 0)
(3 2.63549e-16 0)
(3 -1.5849e-16 0)
(3 -1.4553e-16 0)
(3 -3.23676e-16 0)
(3 1.6829e-16 0)
(3 -3.89623e-16 0)
(3 3.72768e-16 0)
(3 5.26139e-16 0)
(3 2.76461e-16 0)
(3 4.05779e-16 0)
(3 7.66174e-17 0)
(3 1.29809e-16 0)
(3 8.53729e-16 0)
(3 7.94995e-16 0)
(3 4.77064e-16 0)
(3 1.35705e-16 0)
(3 9.22733e-16 0)
(3 4.8263e-16 0)
(3 1.84133e-16 0)
(3 3.45926e-16 0)
(3 2.10491e-16 0)
(3 -4.71601e-17 0)
(3 5.21326e-16 0)
(3 3.05449e-16 0)
(3 1.55965e-15 0)
(3 2.06263e-15 0)
(3 2.4079e-15 0)
(3 1.92133e-15 0)
(3 1.70727e-15 0)
(3 2.0834e-15 0)
(3 2.1584e-15 0)
(3 1.82687e-15 0)
(3 1.81578e-15 0)
(3 1.76588e-15 0)
(3 2.27599e-15 0)
(3 3.05871e-15 0)
(3 2.23703e-15 0)
(3 1.29923e-15 0)
(3 2.55077e-16 0)
(3 -2.96707e-16 0)
(3 -1.8206e-16 0)
(3 -3.31566e-16 0)
(3 -7.91876e-16 0)
(3 -1.19005e-15 0)
(3 -1.22817e-15 0)
(3 -1.38913e-15 0)
(3 -8.26939e-16 0)
(3 -2.23907e-16 0)
(3 5.26255e-16 0)
(3 7.94503e-16 0)
(3 1.576e-15 0)
(3 3.68357e-15 0)
(3 1.68651e-13 0)
(3 -1.27495e-11 0)
(3 8.85039e-10 0)
(2.99999 -3.4135e-07 0)
(2.99947 -3.37616e-05 0)
(2.92225 -0.00500565 0)
(1.01656 0.0515428 0)
(0.578497 -0.0189068 0)
(0.558389 0.0698415 0)
(0.511243 0.0914939 0)
(0.466892 0.0607893 0)
(0.430687 0.0417132 0)
(0.409968 0.0480238 0)
(0.40115 0.0560898 0)
(0.397538 0.0556446 0)
(0.392204 0.0539815 0)
(0.376188 0.0530876 0)
(0.351186 0.0528281 0)
(0.321439 0.0524603 0)
(0.291658 0.0536496 0)
(0.266916 0.0563073 0)
(0.245007 0.0579606 0)
(0.226598 0.0581341 0)
(0.207431 0.0558865 0)
(0.18545 0.0506928 0)
(0.163855 0.0452238 0)
(0.142519 0.0421219 0)
(0.124098 0.0417071 0)
(0.108262 0.0425616 0)
(0.0930105 0.0437821 0)
(0.0778904 0.0443838 0)
(0.0616044 0.0451076 0)
(0.0438155 0.045976 0)
(0.0255217 0.0499278 0)
(0.0158581 0.051802 0)
(3 1.87437e-17 0)
(3 -8.1738e-19 0)
(3 5.49233e-16 0)
(3 2.68608e-16 0)
(3 1.45705e-16 0)
(3 4.44626e-16 0)
(3 -2.15853e-18 0)
(3 -2.54437e-16 0)
(3 -2.74563e-16 0)
(3 6.06877e-18 0)
(3 -1.12048e-16 0)
(3 -1.75467e-17 0)
(3 2.0386e-15 0)
(3 1.83069e-15 0)
(3 7.96293e-16 0)
(3 -4.88127e-16 0)
(3 -4.0366e-16 0)
(3 2.69566e-16 0)
(3 1.51212e-16 0)
(3 4.92575e-16 0)
(3 8.11092e-16 0)
(3 4.16384e-16 0)
(3 3.85518e-16 0)
(3 4.14539e-16 0)
(3 1.54206e-16 0)
(3 -1.47617e-16 0)
(3 -9.24082e-16 0)
(3 -1.02589e-15 0)
(3 -1.09733e-15 0)
(3 -3.66804e-16 0)
(3 2.20921e-16 0)
(3 1.09164e-15 0)
(3 1.18967e-15 0)
(3 8.48293e-16 0)
(3 1.32218e-15 0)
(3 1.09075e-15 0)
(3 9.50593e-16 0)
(3 1.60987e-15 0)
(3 1.81712e-15 0)
(3 3.02865e-15 0)
(3 3.21072e-15 0)
(3 2.79125e-15 0)
(3 1.03874e-15 0)
(3 9.88321e-16 0)
(3 2.27508e-15 0)
(3 1.72034e-15 0)
(3 1.3764e-15 0)
(3 9.0212e-16 0)
(3 6.33814e-16 0)
(3 -3.76185e-16 0)
(3 -2.51591e-16 0)
(3 -1.64676e-15 0)
(3 -1.20881e-15 0)
(3 -2.529e-16 0)
(3 -3.40039e-17 0)
(3 6.24291e-16 0)
(3 4.03586e-16 0)
(3 8.23755e-16 0)
(3 2.39793e-15 0)
(3 2.5633e-15 0)
(3 1.53668e-14 0)
(3 4.59175e-13 0)
(3 1.75975e-11 0)
(3 1.62928e-09 0)
(2.99999 2.11051e-08 0)
(2.99937 1.49479e-05 0)
(2.88237 -0.00145965 0)
(0.944722 0.08349 0)
(0.512487 -0.00240838 0)
(0.499957 0.0845037 0)
(0.462588 0.113168 0)
(0.430312 0.0835994 0)
(0.405254 0.0599104 0)
(0.393299 0.0645894 0)
(0.390736 0.0736783 0)
(0.387594 0.0741653 0)
(0.380476 0.0763352 0)
(0.362894 0.0775527 0)
(0.337437 0.0778702 0)
(0.309105 0.0773074 0)
(0.282948 0.0782462 0)
(0.26122 0.0808076 0)
(0.242854 0.0822796 0)
(0.226617 0.0820315 0)
(0.208177 0.0788361 0)
(0.186459 0.0719549 0)
(0.164432 0.0646196 0)
(0.142381 0.0602041 0)
(0.123373 0.059397 0)
(0.107026 0.0603975 0)
(0.0915975 0.0619265 0)
(0.0764192 0.0626651 0)
(0.0600389 0.0638929 0)
(0.0421937 0.0657139 0)
(0.0239487 0.0698686 0)
(0.0103849 0.0685135 0)
(3 1.22268e-16 0)
(3 -2.9615e-17 0)
(3 -2.31759e-16 0)
(3 -5.78223e-16 0)
(3 -9.04982e-16 0)
(3 -9.16271e-16 0)
(3 -5.12155e-16 0)
(3 -2.48202e-16 0)
(3 -7.17181e-16 0)
(3 -2.81329e-16 0)
(3 -1.06253e-16 0)
(3 1.72799e-15 0)
(3 1.82793e-15 0)
(3 1.51733e-15 0)
(3 2.95588e-16 0)
(3 -5.53549e-16 0)
(3 -6.09527e-16 0)
(3 -1.59358e-16 0)
(3 -3.99648e-17 0)
(3 -3.29431e-16 0)
(3 -3.68939e-16 0)
(3 -2.24248e-16 0)
(3 -5.0321e-16 0)
(3 -4.00411e-17 0)
(3 -2.02595e-16 0)
(3 -1.80383e-15 0)
(3 -1.03775e-15 0)
(3 -7.66657e-16 0)
(3 -2.54231e-16 0)
(3 -2.30449e-16 0)
(3 -6.89704e-16 0)
(3 -2.76532e-17 0)
(3 1.49185e-15 0)
(3 2.03749e-15 0)
(3 2.33537e-15 0)
(3 1.5432e-15 0)
(3 1.51878e-15 0)
(3 7.8262e-16 0)
(3 9.47153e-16 0)
(3 1.50429e-15 0)
(3 2.85974e-15 0)
(3 3.27342e-15 0)
(3 3.01643e-15 0)
(3 2.57346e-15 0)
(3 6.15392e-16 0)
(3 5.123e-16 0)
(3 7.9827e-16 0)
(3 8.13712e-16 0)
(3 2.94016e-16 0)
(3 -5.54194e-17 0)
(3 -8.40747e-16 0)
(3 -1.62488e-16 0)
(3 -3.02896e-16 0)
(3 9.11015e-17 0)
(3 4.32373e-16 0)
(3 5.55371e-16 0)
(3 4.89831e-16 0)
(3 2.94802e-16 0)
(3 1.02108e-15 0)
(3 1.0332e-15 0)
(3 1.88668e-14 0)
(3 1.53976e-12 0)
(3 1.04481e-10 0)
(3 8.36141e-09 0)
(2.99999 7.37997e-07 0)
(2.99952 6.24331e-05 0)
(2.9603 0.01089 0)
(1.08148 0.157306 0)
(0.568986 0.00930433 0)
(0.539991 0.0992323 0)
(0.487616 0.131902 0)
(0.445553 0.102482 0)
(0.418924 0.075295 0)
(0.402151 0.0785772 0)
(0.397885 0.0896834 0)
(0.392143 0.0925233 0)
(0.383395 0.0974037 0)
(0.365135 0.100686 0)
(0.340209 0.101558 0)
(0.312813 0.100108 0)
(0.287907 0.100357 0)
(0.26648 0.102763 0)
(0.24856 0.104476 0)
(0.231795 0.104976 0)
(0.21179 0.101824 0)
(0.188878 0.0938952 0)
(0.165363 0.0849819 0)
(0.142311 0.0791855 0)
(0.122936 0.07771 0)
(0.106381 0.0785869 0)
(0.0909579 0.0803139 0)
(0.075532 0.0812391 0)
(0.058735 0.0829492 0)
(0.0406735 0.0850554 0)
(0.0243824 0.0881843 0)
(0.015603 0.0852434 0)
(3 -7.79034e-17 0)
(3 2.20776e-16 0)
(3 7.4735e-17 0)
(3 5.40639e-17 0)
(3 9.61354e-17 0)
(3 -7.77013e-16 0)
(3 -5.36034e-16 0)
(3 -5.17843e-16 0)
(3 -4.50366e-16 0)
(3 -1.00416e-15 0)
(3 -2.29898e-16 0)
(3 5.712e-16 0)
(3 6.48359e-16 0)
(3 6.72448e-16 0)
(3 1.34176e-15 0)
(3 1.78779e-15 0)
(3 1.2787e-15 0)
(3 5.90023e-16 0)
(3 -1.66152e-16 0)
(3 4.04607e-16 0)
(3 2.00449e-16 0)
(3 3.48953e-16 0)
(3 5.45626e-16 0)
(3 -4.5273e-16 0)
(3 -3.84842e-16 0)
(3 3.5537e-16 0)
(3 -1.16961e-16 0)
(3 7.38001e-17 0)
(3 1.81783e-16 0)
(3 -3.08506e-16 0)
(3 -9.73399e-17 0)
(3 -6.11207e-16 0)
(3 5.38112e-17 0)
(3 2.16515e-16 0)
(3 -7.56762e-17 0)
(3 4.17685e-16 0)
(3 1.40146e-15 0)
(3 1.58237e-15 0)
(3 2.18122e-15 0)
(3 2.25536e-15 0)
(3 1.37861e-15 0)
(3 2.11069e-15 0)
(3 2.58456e-15 0)
(3 2.32401e-15 0)
(3 2.17844e-15 0)
(3 2.02844e-15 0)
(3 1.55609e-15 0)
(3 1.99136e-15 0)
(3 7.77616e-16 0)
(3 9.28552e-16 0)
(3 9.05704e-16 0)
(3 2.52843e-15 0)
(3 2.34182e-15 0)
(3 8.67438e-16 0)
(3 -3.0874e-17 0)
(3 -1.04031e-15 0)
(3 -2.98218e-16 0)
(3 -1.90771e-16 0)
(3 5.30752e-17 0)
(3 1.54774e-15 0)
(3 2.11588e-14 0)
(3 1.45561e-12 0)
(3 7.95912e-11 0)
(3 6.31352e-09 0)
(2.99999 1.94888e-07 0)
(2.99959 3.21845e-05 0)
(2.97343 -6.80872e-05 0)
(1.16029 0.151993 0)
(0.57408 0.0184113 0)
(0.548456 0.126652 0)
(0.498504 0.158128 0)
(0.46714 0.124675 0)
(0.442109 0.0922507 0)
(0.419859 0.0950872 0)
(0.408899 0.109054 0)
(0.396475 0.113528 0)
(0.382513 0.119384 0)
(0.361528 0.123307 0)
(0.336795 0.124731 0)
(0.310466 0.123374 0)
(0.286639 0.123534 0)
(0.265349 0.125929 0)
(0.247649 0.127949 0)
(0.230866 0.128914 0)
(0.210814 0.125489 0)
(0.188829 0.116393 0)
(0.165743 0.105913 0)
(0.143102 0.0986252 0)
(0.124062 0.0962913 0)
(0.107664 0.0969331 0)
(0.0924891 0.0989334 0)
(0.0771175 0.100279 0)
(0.060247 0.102658 0)
(0.04196 0.104755 0)
(0.024722 0.103863 0)
(0.0172005 0.104087 0)
(3 -5.99667e-17 0)
(3 2.19359e-16 0)
(3 2.47453e-16 0)
(3 1.34771e-15 0)
(3 9.14802e-16 0)
(3 1.30993e-15 0)
(3 2.74776e-16 0)
(3 1.53824e-16 0)
(3 -5.0685e-16 0)
(3 -2.75128e-16 0)
(3 -3.36649e-16 0)
(3 -3.74585e-16 0)
(3 -3.67162e-16 0)
(3 -5.45266e-16 0)
(3 -3.71856e-17 0)
(3 7.26547e-16 0)
(3 1.11363e-15 0)
(3 1.24849e-15 0)
(3 1.25682e-15 0)
(3 6.27257e-16 0)
(3 1.75003e-15 0)
(3 5.51529e-16 0)
(3 8.02291e-16 0)
(3 -6.10275e-17 0)
(3 2.89507e-17 0)
(3 -2.3161e-16 0)
(3 8.87702e-17 0)
(3 -5.94991e-17 0)
(3 -4.01949e-16 0)
(3 -2.70116e-16 0)
(3 3.09829e-16 0)
(3 8.22866e-17 0)
(3 2.32359e-17 0)
(3 -5.86691e-16 0)
(3 -5.11837e-16 0)
(3 -4.53953e-16 0)
(3 5.32507e-16 0)
(3 1.23349e-15 0)
(3 2.22643e-15 0)
(3 3.10185e-15 0)
(3 3.3076e-15 0)
(3 1.77451e-15 0)
(3 2.43149e-15 0)
(3 2.01674e-15 0)
(3 1.99681e-15 0)
(3 1.8336e-15 0)
(3 1.8248e-15 0)
(3 2.01819e-15 0)
(3 2.89601e-15 0)
(3 2.30804e-15 0)
(3 2.19448e-15 0)
(3 1.52683e-15 0)
(3 7.76078e-16 0)
(3 7.41516e-16 0)
(3 -1.85792e-16 0)
(3 -3.96398e-16 0)
(3 -1.4879e-16 0)
(3 6.45514e-16 0)
(3 1.24697e-15 0)
(3 1.6975e-15 0)
(3 2.557e-14 0)
(3 1.42594e-12 0)
(3 9.05464e-11 0)
(3 6.35539e-09 0)
(2.99999 2.79779e-07 0)
(2.99962 2.84178e-05 0)
(2.97562 0.000400134 0)
(1.22896 0.166104 0)
(0.572543 0.0246717 0)
(0.535905 0.151168 0)
(0.487681 0.177453 0)
(0.46328 0.148578 0)
(0.444985 0.116312 0)
(0.425868 0.119162 0)
(0.415695 0.13343 0)
(0.402403 0.137271 0)
(0.386476 0.142946 0)
(0.364459 0.146243 0)
(0.340207 0.147634 0)
(0.315185 0.146408 0)
(0.292095 0.146798 0)
(0.271438 0.149039 0)
(0.254211 0.150916 0)
(0.237448 0.151702 0)
(0.217158 0.147501 0)
(0.195169 0.137505 0)
(0.171474 0.126148 0)
(0.148261 0.117858 0)
(0.128683 0.114839 0)
(0.111725 0.115275 0)
(0.0962757 0.117523 0)
(0.0806718 0.119243 0)
(0.0635751 0.122323 0)
(0.044783 0.125278 0)
(0.0256642 0.121805 0)
(0.0156755 0.122125 0)
(3 -7.00215e-17 0)
(3 3.4531e-16 0)
(3 4.82378e-16 0)
(3 -1.25628e-16 0)
(3 -1.18446e-16 0)
(3 -1.37447e-16 0)
(3 -5.6276e-16 0)
(3 -6.38362e-16 0)
(3 -4.3777e-16 0)
(3 -2.7162e-16 0)
(3 -5.81314e-17 0)
(3 -5.85087e-16 0)
(3 -1.13553e-15 0)
(3 -6.46421e-16 0)
(3 8.54389e-17 0)
(3 -1.35453e-16 0)
(3 2.92742e-16 0)
(3 4.24244e-16 0)
(3 1.61473e-15 0)
(3 1.90619e-15 0)
(3 1.32393e-15 0)
(3 8.03262e-16 0)
(3 3.03044e-17 0)
(3 -7.0943e-17 0)
(3 -2.84412e-16 0)
(3 -2.08876e-16 0)
(3 -4.67569e-16 0)
(3 -1.03296e-15 0)
(3 -9.88855e-16 0)
(3 -5.19356e-16 0)
(3 -5.20417e-16 0)
(3 -4.6595e-16 0)
(3 7.87642e-16 0)
(3 1.35332e-15 0)
(3 1.72877e-15 0)
(3 1.86036e-15 0)
(3 2.43504e-15 0)
(3 2.12064e-15 0)
(3 1.75876e-15 0)
(3 6.88418e-16 0)
(3 9.60562e-16 0)
(3 1.97641e-15 0)
(3 1.0507e-15 0)
(3 1.49205e-15 0)
(3 1.39422e-15 0)
(3 6.39857e-16 0)
(3 1.21091e-15 0)
(3 1.40071e-15 0)
(3 7.35742e-16 0)
(3 1.19743e-15 0)
(3 1.62596e-15 0)
(3 2.01267e-15 0)
(3 2.02818e-15 0)
(3 8.04961e-16 0)
(3 6.91432e-16 0)
(3 6.44219e-16 0)
(3 4.06548e-16 0)
(3 1.25093e-15 0)
(3 1.39818e-15 0)
(3 1.78387e-15 0)
(3 2.46754e-14 0)
(3 1.5787e-12 0)
(3 1.07928e-10 0)
(3 7.17477e-09 0)
(2.99999 3.92273e-07 0)
(2.99967 3.24507e-05 0)
(2.97824 0.000873522 0)
(1.33673 0.185585 0)
(0.576484 0.0422798 0)
(0.518068 0.180424 0)
(0.476786 0.191221 0)
(0.462334 0.164407 0)
(0.449039 0.13519 0)
(0.433428 0.139686 0)
(0.422915 0.156353 0)
(0.407467 0.161003 0)
(0.388413 0.166113 0)
(0.365153 0.168503 0)
(0.340852 0.169837 0)
(0.316777 0.169401 0)
(0.294497 0.170509 0)
(0.274887 0.172674 0)
(0.258371 0.174224 0)
(0.241537 0.174678 0)
(0.220416 0.169984 0)
(0.197585 0.159534 0)
(0.172634 0.147675 0)
(0.148625 0.138414 0)
(0.128688 0.134428 0)
(0.111585 0.134367 0)
(0.0964288 0.136575 0)
(0.0814754 0.138332 0)
(0.0653844 0.141719 0)
(0.0480811 0.145633 0)
(0.0276406 0.14314 0)
(0.00708139 0.138399 0)
(3 3.07601e-16 0)
(3 4.24571e-16 0)
(3 1.41178e-16 0)
(3 -1.3707e-16 0)
(3 -1.16741e-16 0)
(3 -3.3865e-16 0)
(3 2.45522e-16 0)
(3 8.4142e-16 0)
(3 5.27411e-16 0)
(3 5.67815e-17 0)
(3 -6.34581e-16 0)
(3 -8.24182e-16 0)
(3 -4.43482e-16 0)
(3 -1.12814e-16 0)
(3 -3.12787e-16 0)
(3 -5.73169e-16 0)
(3 -3.19347e-16 0)
(3 -1.56576e-16 0)
(3 2.87714e-16 0)
(3 8.1017e-16 0)
(3 3.21534e-16 0)
(3 1.12059e-16 0)
(3 -3.77765e-16 0)
(3 -2.18202e-16 0)
(3 2.36375e-16 0)
(3 3.21687e-16 0)
(3 -2.59812e-17 0)
(3 4.87615e-16 0)
(3 3.64442e-16 0)
(3 -1.27287e-16 0)
(3 -1.32298e-16 0)
(3 2.16874e-17 0)
(3 -2.01982e-16 0)
(3 -7.0132e-17 0)
(3 4.49817e-16 0)
(3 1.30095e-15 0)
(3 1.12712e-15 0)
(3 1.77876e-15 0)
(3 1.65055e-15 0)
(3 5.87528e-16 0)
(3 6.70899e-17 0)
(3 7.1785e-17 0)
(3 2.72114e-16 0)
(3 2.07705e-16 0)
(3 -4.05162e-17 0)
(3 1.08026e-15 0)
(3 9.06017e-16 0)
(3 1.41702e-15 0)
(3 2.20365e-15 0)
(3 1.78346e-15 0)
(3 1.79224e-15 0)
(3 1.42508e-15 0)
(3 1.13602e-15 0)
(3 1.38107e-15 0)
(3 1.15771e-15 0)
(3 8.72995e-16 0)
(3 6.50827e-16 0)
(3 -2.3108e-16 0)
(3 -6.55834e-16 0)
(3 2.45058e-16 0)
(3 2.24318e-14 0)
(3 1.67213e-12 0)
(3 1.17747e-10 0)
(3 7.53464e-09 0)
(3 4.80254e-07 0)
(2.99972 3.30092e-05 0)
(2.98139 0.00141968 0)
(1.48667 0.193245 0)
(0.58595 0.0779232 0)
(0.499127 0.202941 0)
(0.472906 0.201454 0)
(0.466531 0.177392 0)
(0.455026 0.153756 0)
(0.440767 0.162598 0)
(0.4276 0.181624 0)
(0.409817 0.185915 0)
(0.388253 0.189435 0)
(0.364998 0.190217 0)
(0.340805 0.191414 0)
(0.317982 0.192041 0)
(0.296474 0.194304 0)
(0.277565 0.196655 0)
(0.261173 0.19795 0)
(0.243566 0.198139 0)
(0.221654 0.192919 0)
(0.198521 0.181982 0)
(0.173321 0.169603 0)
(0.149673 0.159245 0)
(0.13008 0.154054 0)
(0.113141 0.153307 0)
(0.0981434 0.155298 0)
(0.0831468 0.156908 0)
(0.0669143 0.160205 0)
(0.0496063 0.164895 0)
(0.0297402 0.167019 0)
(0.0024185 0.156953 0)
(3 1.13292e-16 0)
(3 1.44684e-16 0)
(3 1.31392e-16 0)
(3 -7.36585e-17 0)
(3 6.62934e-17 0)
(3 2.37173e-16 0)
(3 6.54481e-16 0)
(3 -3.8606e-17 0)
(3 -2.56433e-16 0)
(3 -8.63174e-16 0)
(3 -5.27525e-16 0)
(3 -1.04297e-15 0)
(3 -7.39333e-16 0)
(3 -9.26733e-16 0)
(3 -1.21567e-15 0)
(3 -8.05961e-16 0)
(3 -6.70436e-16 0)
(3 -4.44799e-16 0)
(3 -8.07432e-16 0)
(3 -9.87708e-16 0)
(3 -1.0607e-15 0)
(3 -1.23654e-15 0)
(3 1.61554e-16 0)
(3 9.59659e-16 0)
(3 6.12263e-16 0)
(3 4.02043e-16 0)
(3 7.93932e-16 0)
(3 3.32003e-16 0)
(3 3.50701e-16 0)
(3 5.91823e-16 0)
(3 9.24832e-17 0)
(3 -7.94827e-16 0)
(3 -1.1096e-15 0)
(3 -8.00527e-16 0)
(3 1.10235e-15 0)
(3 1.78046e-15 0)
(3 2.05904e-15 0)
(3 1.59264e-15 0)
(3 9.13708e-16 0)
(3 -3.73612e-17 0)
(3 -2.41072e-16 0)
(3 -5.86552e-16 0)
(3 -1.4777e-16 0)
(3 -1.40705e-16 0)
(3 3.53252e-16 0)
(3 3.64022e-16 0)
(3 -2.1681e-16 0)
(3 -3.00038e-16 0)
(3 7.25369e-16 0)
(3 9.07348e-16 0)
(3 1.1188e-15 0)
(3 7.6557e-16 0)
(3 1.07758e-15 0)
(3 1.4055e-15 0)
(3 1.29686e-15 0)
(3 6.02757e-16 0)
(3 1.30227e-15 0)
(3 2.20115e-15 0)
(3 1.91265e-15 0)
(3 1.41482e-15 0)
(3 2.33173e-14 0)
(3 1.58164e-12 0)
(3 1.14685e-10 0)
(3 7.19594e-09 0)
(3 5.11052e-07 0)
(2.99978 3.02723e-05 0)
(2.98495 0.00176527 0)
(1.66377 0.179156 0)
(0.587145 0.133745 0)
(0.481177 0.208813 0)
(0.477032 0.208301 0)
(0.474882 0.188877 0)
(0.464331 0.172108 0)
(0.45046 0.186966 0)
(0.434629 0.207013 0)
(0.41573 0.209989 0)
(0.393157 0.211658 0)
(0.369805 0.210738 0)
(0.345375 0.211735 0)
(0.32354 0.213749 0)
(0.302775 0.217698 0)
(0.284454 0.220654 0)
(0.267916 0.221961 0)
(0.249254 0.221809 0)
(0.22653 0.215787 0)
(0.203068 0.204204 0)
(0.17761 0.19133 0)
(0.154167 0.179985 0)
(0.134476 0.173687 0)
(0.117169 0.172322 0)
(0.101718 0.174201 0)
(0.0860901 0.175864 0)
(0.0691425 0.179307 0)
(0.0506118 0.184514 0)
(0.0306503 0.189495 0)
(0.000220265 0.177329 0)
(3 -1.44488e-16 0)
(3 -6.40867e-17 0)
(3 -1.94851e-16 0)
(3 -5.5943e-16 0)
(3 -3.59967e-16 0)
(3 1.70253e-16 0)
(3 5.2054e-16 0)
(3 1.76082e-17 0)
(3 3.16763e-16 0)
(3 2.97045e-16 0)
(3 -7.21297e-17 0)
(3 -1.12113e-15 0)
(3 -1.27194e-15 0)
(3 -1.83659e-15 0)
(3 -1.81975e-15 0)
(3 -1.96249e-15 0)
(3 -6.5732e-16 0)
(3 -5.57282e-16 0)
(3 -2.02395e-16 0)
(3 -7.4926e-16 0)
(3 -9.70586e-16 0)
(3 -2.78648e-16 0)
(3 -8.85677e-16 0)
(3 -6.04269e-16 0)
(3 -2.31854e-16 0)
(3 1.66478e-16 0)
(3 -1.31782e-16 0)
(3 -2.76916e-16 0)
(3 -7.07304e-16 0)
(3 -7.00157e-16 0)
(3 -5.20343e-16 0)
(3 4.76403e-17 0)
(3 -6.39613e-17 0)
(3 2.82741e-16 0)
(3 -2.10918e-17 0)
(3 9.54689e-16 0)
(3 1.19054e-15 0)
(3 1.15469e-15 0)
(3 1.12737e-15 0)
(3 1.55501e-15 0)
(3 1.21701e-15 0)
(3 8.66103e-16 0)
(3 7.01633e-16 0)
(3 1.50584e-16 0)
(3 5.62441e-16 0)
(3 2.32443e-16 0)
(3 2.17536e-16 0)
(3 -1.04558e-16 0)
(3 2.41416e-16 0)
(3 9.04104e-16 0)
(3 9.56325e-16 0)
(3 1.18609e-15 0)
(3 1.2749e-15 0)
(3 6.67874e-16 0)
(3 5.47681e-17 0)
(3 6.43095e-16 0)
(3 8.57698e-16 0)
(3 -9.22772e-18 0)
(3 4.73552e-17 0)
(3 2.80542e-16 0)
(3 2.08163e-14 0)
(3 1.38751e-12 0)
(3 1.05641e-10 0)
(3 6.7127e-09 0)
(3 5.22704e-07 0)
(2.99983 2.80288e-05 0)
(2.9884 0.00218623 0)
(1.82064 0.170093 0)
(0.583376 0.196184 0)
(0.48776 0.200509 0)
(0.491947 0.208803 0)
(0.487918 0.197723 0)
(0.473514 0.193457 0)
(0.458692 0.216861 0)
(0.43766 0.234333 0)
(0.416954 0.232921 0)
(0.394706 0.232816 0)
(0.370805 0.23061 0)
(0.346686 0.231805 0)
(0.32567 0.235632 0)
(0.30574 0.241752 0)
(0.288107 0.24563 0)
(0.271547 0.246941 0)
(0.252007 0.246157 0)
(0.229187 0.239029 0)
(0.20561 0.226809 0)
(0.180166 0.213655 0)
(0.156973 0.201604 0)
(0.137116 0.194317 0)
(0.119306 0.192233 0)
(0.103272 0.193856 0)
(0.0870346 0.195477 0)
(0.069661 0.199178 0)
(0.0505513 0.204887 0)
(0.0309351 0.212396 0)
(-0.00180478 0.197954 0)
(3 1.42767e-17 0)
(3 -5.45459e-16 0)
(3 -8.05042e-16 0)
(3 -2.4028e-16 0)
(3 8.33939e-18 0)
(3 -6.6879e-18 0)
(3 -7.67533e-17 0)
(3 -4.86552e-16 0)
(3 -3.80977e-16 0)
(3 -4.08283e-16 0)
(3 -1.23812e-15 0)
(3 -7.24828e-16 0)
(3 -8.65428e-16 0)
(3 -1.68642e-15 0)
(3 -1.17122e-15 0)
(3 -5.91168e-16 0)
(3 -2.57626e-16 0)
(3 -2.72238e-16 0)
(3 -4.1049e-16 0)
(3 -3.94081e-16 0)
(3 -2.62426e-16 0)
(3 5.01115e-17 0)
(3 7.46622e-16 0)
(3 8.95166e-16 0)
(3 4.62554e-16 0)
(3 3.54033e-16 0)
(3 -1.94608e-16 0)
(3 -1.53774e-16 0)
(3 4.73236e-16 0)
(3 -2.04093e-16 0)
(3 2.66314e-16 0)
(3 2.76506e-16 0)
(3 2.4514e-16 0)
(3 5.66526e-16 0)
(3 6.88721e-16 0)
(3 1.34174e-16 0)
(3 1.85575e-16 0)
(3 3.74793e-16 0)
(3 1.26041e-15 0)
(3 1.23389e-15 0)
(3 1.17311e-15 0)
(3 1.40804e-15 0)
(3 1.41687e-15 0)
(3 1.50785e-15 0)
(3 8.11412e-16 0)
(3 9.91998e-16 0)
(3 1.34104e-15 0)
(3 1.93979e-15 0)
(3 1.03141e-15 0)
(3 3.27694e-16 0)
(3 -1.13627e-16 0)
(3 -3.65112e-16 0)
(3 -1.83625e-16 0)
(3 4.04283e-16 0)
(3 1.27002e-15 0)
(3 1.50954e-15 0)
(3 8.24154e-16 0)
(3 8.24622e-16 0)
(3 6.82836e-16 0)
(3 7.41846e-16 0)
(3 1.34504e-14 0)
(3 1.0603e-12 0)
(3 8.23015e-11 0)
(3 5.54032e-09 0)
(3 4.53385e-07 0)
(2.99989 2.48094e-05 0)
(2.9923 0.00230188 0)
(2.0842 0.168554 0)
(0.635093 0.227936 0)
(0.537597 0.194895 0)
(0.535543 0.22157 0)
(0.509487 0.22143 0)
(0.477714 0.229251 0)
(0.451842 0.250885 0)
(0.431712 0.257256 0)
(0.415949 0.253033 0)
(0.396895 0.25186 0)
(0.373777 0.249449 0)
(0.350354 0.251684 0)
(0.329568 0.257646 0)
(0.310727 0.265801 0)
(0.293698 0.270381 0)
(0.27701 0.271533 0)
(0.256574 0.269978 0)
(0.233891 0.261778 0)
(0.210032 0.24919 0)
(0.184756 0.236049 0)
(0.161981 0.223498 0)
(0.141985 0.215344 0)
(0.123673 0.212438 0)
(0.106899 0.213767 0)
(0.0898738 0.215378 0)
(0.0718814 0.219506 0)
(0.0519852 0.225697 0)
(0.0320566 0.235286 0)
(-0.00274682 0.219081 0)
(3 -3.1528e-16 0)
(3 -6.28171e-16 0)
(3 -3.2605e-16 0)
(3 -1.19614e-16 0)
(3 1.18883e-16 0)
(3 1.34627e-16 0)
(3 -5.13079e-16 0)
(3 4.70172e-17 0)
(3 4.18963e-16 0)
(3 1.2548e-16 0)
(3 -2.02905e-16 0)
(3 -5.0929e-16 0)
(3 -3.54444e-16 0)
(3 -1.39762e-16 0)
(3 -3.4793e-16 0)
(3 -3.73318e-16 0)
(3 -4.24812e-16 0)
(3 -1.41975e-16 0)
(3 -6.65073e-16 0)
(3 -1.28851e-15 0)
(3 -1.49432e-15 0)
(3 -9.41942e-16 0)
(3 -5.56042e-16 0)
(3 -2.82178e-16 0)
(3 -6.28098e-16 0)
(3 -1.85514e-16 0)
(3 -4.06729e-16 0)
(3 3.38931e-16 0)
(3 1.66e-16 0)
(3 5.36514e-16 0)
(3 -1.74677e-16 0)
(3 6.70942e-16 0)
(3 6.27827e-16 0)
(3 2.98299e-16 0)
(3 -3.5245e-16 0)
(3 -6.89953e-16 0)
(3 -8.48049e-16 0)
(3 -5.12345e-16 0)
(3 3.07434e-16 0)
(3 1.22171e-16 0)
(3 7.9873e-16 0)
(3 1.15429e-15 0)
(3 1.08816e-15 0)
(3 1.0905e-16 0)
(3 2.56478e-17 0)
(3 5.32918e-16 0)
(3 1.01882e-15 0)
(3 1.49948e-15 0)
(3 9.87008e-16 0)
(3 7.0496e-16 0)
(3 4.13575e-16 0)
(3 2.69082e-16 0)
(3 2.60411e-16 0)
(3 1.27644e-16 0)
(3 7.16191e-16 0)
(3 7.43109e-16 0)
(3 6.35334e-16 0)
(3 1.6541e-16 0)
(3 1.02249e-15 0)
(3 1.19215e-15 0)
(3 7.85363e-15 0)
(3 5.70133e-13 0)
(3 4.83156e-11 0)
(3 3.4576e-09 0)
(3 2.87191e-07 0)
(2.99994 1.66674e-05 0)
(2.99543 0.0016514 0)
(2.35922 0.128973 0)
(0.691726 0.190547 0)
(0.555935 0.201918 0)
(0.552578 0.259146 0)
(0.51199 0.269909 0)
(0.47386 0.274973 0)
(0.449469 0.280153 0)
(0.436107 0.275164 0)
(0.422122 0.267616 0)
(0.402418 0.267762 0)
(0.37898 0.267483 0)
(0.356267 0.272151 0)
(0.335358 0.280477 0)
(0.317436 0.290231 0)
(0.300546 0.295106 0)
(0.283091 0.295964 0)
(0.261419 0.293624 0)
(0.238396 0.284645 0)
(0.213863 0.272051 0)
(0.188518 0.259171 0)
(0.165956 0.246315 0)
(0.145489 0.2374 0)
(0.126558 0.233574 0)
(0.108848 0.234443 0)
(0.0910496 0.235929 0)
(0.0726577 0.240544 0)
(0.052385 0.247079 0)
(0.0325046 0.258517 0)
(-0.00345426 0.240916 0)
(3 1.41016e-16 0)
(3 -2.41702e-16 0)
(3 3.02474e-16 0)
(3 5.39102e-16 0)
(3 1.09941e-16 0)
(3 -2.1081e-16 0)
(3 1.34423e-16 0)
(3 6.87539e-17 0)
(3 -1.05504e-15 0)
(3 -6.14996e-16 0)
(3 -3.61249e-16 0)
(3 -5.44386e-16 0)
(3 -4.45429e-16 0)
(3 4.54143e-16 0)
(3 4.6099e-16 0)
(3 -3.19256e-16 0)
(3 -4.64347e-16 0)
(3 -8.6687e-16 0)
(3 -1.81782e-15 0)
(3 -2.19836e-15 0)
(3 -1.30932e-15 0)
(3 -8.24266e-16 0)
(3 -1.0744e-15 0)
(3 -1.19492e-15 0)
(3 -7.64888e-16 0)
(3 -1.12002e-16 0)
(3 2.95972e-16 0)
(3 -4.70187e-16 0)
(3 -1.20907e-15 0)
(3 -1.09695e-15 0)
(3 -4.75577e-16 0)
(3 -3.59695e-16 0)
(3 7.07983e-16 0)
(3 1.26756e-16 0)
(3 4.46996e-16 0)
(3 -2.73061e-16 0)
(3 -8.12723e-16 0)
(3 -9.94193e-16 0)
(3 -7.10256e-16 0)
(3 2.25122e-17 0)
(3 5.45411e-16 0)
(3 5.31931e-16 0)
(3 3.6395e-16 0)
(3 3.66814e-16 0)
(3 1.63057e-16 0)
(3 1.15858e-16 0)
(3 9.09066e-16 0)
(3 2.99568e-16 0)
(3 3.48151e-16 0)
(3 5.25013e-16 0)
(3 1.08421e-16 0)
(3 9.50381e-16 0)
(3 7.2432e-16 0)
(3 6.97577e-16 0)
(3 5.84617e-16 0)
(3 -6.49792e-17 0)
(3 5.66847e-16 0)
(3 9.61342e-16 0)
(3 8.35292e-16 0)
(3 2.41854e-16 0)
(3 4.38268e-15 0)
(3 2.66805e-13 0)
(3 2.41001e-11 0)
(3 1.86697e-09 0)
(3 1.61616e-07 0)
(2.99997 9.93556e-06 0)
(2.99751 0.00108276 0)
(2.59131 0.0840455 0)
(0.772389 0.176601 0)
(0.545171 0.213928 0)
(0.545499 0.296195 0)
(0.509561 0.318986 0)
(0.479047 0.313892 0)
(0.462231 0.300834 0)
(0.448615 0.287757 0)
(0.430449 0.28139 0)
(0.407043 0.284442 0)
(0.381348 0.287404 0)
(0.358422 0.294724 0)
(0.338077 0.304762 0)
(0.322013 0.31519 0)
(0.306234 0.319774 0)
(0.288552 0.320259 0)
(0.266233 0.317395 0)
(0.242787 0.308046 0)
(0.217641 0.295767 0)
(0.192437 0.283203 0)
(0.170171 0.270038 0)
(0.1494 0.260339 0)
(0.129895 0.255528 0)
(0.111189 0.255767 0)
(0.0925547 0.256959 0)
(0.0736669 0.261972 0)
(0.0530118 0.268511 0)
(0.0333818 0.281621 0)
(-0.00310122 0.263574 0)
(3 -9.94607e-17 0)
(3 4.73887e-16 0)
(3 2.62917e-16 0)
(3 -5.96782e-16 0)
(3 -4.01989e-16 0)
(3 1.51898e-16 0)
(3 -9.68715e-16 0)
(3 -1.37455e-15 0)
(3 -1.19795e-15 0)
(3 -9.50708e-16 0)
(3 -2.06056e-16 0)
(3 3.49921e-16 0)
(3 6.12746e-16 0)
(3 1.37808e-15 0)
(3 1.9508e-15 0)
(3 2.00612e-15 0)
(3 1.23158e-15 0)
(3 4.69325e-16 0)
(3 -1.37816e-16 0)
(3 3.42276e-16 0)
(3 -6.86487e-16 0)
(3 -8.02482e-16 0)
(3 -7.19884e-16 0)
(3 -2.84802e-16 0)
(3 1.28583e-17 0)
(3 -4.37724e-16 0)
(3 -1.1796e-16 0)
(3 7.98859e-17 0)
(3 -1.04557e-15 0)
(3 -9.90535e-16 0)
(3 -9.63206e-16 0)
(3 -1.26075e-15 0)
(3 -1.1071e-15 0)
(3 -6.27661e-16 0)
(3 -4.70461e-16 0)
(3 -9.54417e-17 0)
(3 -4.85746e-16 0)
(3 -2.86399e-16 0)
(3 -3.62064e-16 0)
(3 1.39613e-16 0)
(3 -1.05057e-15 0)
(3 -1.56449e-16 0)
(3 2.76193e-16 0)
(3 2.29724e-15 0)
(3 1.91207e-15 0)
(3 9.25096e-16 0)
(3 8.12224e-16 0)
(3 1.53515e-15 0)
(3 1.06157e-15 0)
(3 1.50275e-15 0)
(3 1.73799e-15 0)
(3 1.03281e-15 0)
(3 9.67934e-16 0)
(3 -4.83994e-16 0)
(3 -9.34725e-16 0)
(3 -4.60324e-16 0)
(3 -3.56412e-16 0)
(3 3.97371e-17 0)
(3 7.98874e-17 0)
(3 4.48487e-16 0)
(3 1.42518e-15 0)
(3 9.36831e-14 0)
(3 9.70385e-12 0)
(3 8.01817e-10 0)
(3 7.0839e-08 0)
(2.99998 5.09761e-06 0)
(2.99879 0.000591216 0)
(2.77476 0.0489743 0)
(0.894337 0.183532 0)
(0.549961 0.235231 0)
(0.54782 0.331299 0)
(0.515467 0.35436 0)
(0.495092 0.339655 0)
(0.482431 0.315549 0)
(0.464751 0.301251 0)
(0.439987 0.29875 0)
(0.411454 0.305186 0)
(0.383824 0.310516 0)
(0.361069 0.318762 0)
(0.343686 0.32884 0)
(0.330051 0.33845 0)
(0.315471 0.342498 0)
(0.297037 0.343303 0)
(0.274148 0.340787 0)
(0.24969 0.331771 0)
(0.22407 0.320093 0)
(0.199157 0.307769 0)
(0.177117 0.294235 0)
(0.155989 0.283854 0)
(0.135692 0.278164 0)
(0.115655 0.277771 0)
(0.0958616 0.278649 0)
(0.0759705 0.284004 0)
(0.054684 0.290026 0)
(0.0353351 0.30484 0)
(-5.38367e-05 0.288058 0)
(3 -2.20472e-16 0)
(3 -1.17186e-16 0)
(3 -1.54567e-16 0)
(3 -1.32764e-16 0)
(3 -1.25836e-16 0)
(3 -5.24912e-16 0)
(3 -8.26168e-16 0)
(3 -9.80812e-16 0)
(3 -8.78309e-16 0)
(3 -9.32947e-16 0)
(3 -8.12315e-16 0)
(3 -5.84376e-16 0)
(3 2.15639e-17 0)
(3 3.82048e-16 0)
(3 1.27704e-16 0)
(3 4.96258e-16 0)
(3 3.93692e-17 0)
(3 -1.12073e-15 0)
(3 -3.81216e-16 0)
(3 -4.88129e-16 0)
(3 -5.52495e-16 0)
(3 -1.74327e-15 0)
(3 -1.9217e-15 0)
(3 -1.77876e-15 0)
(3 -1.15106e-15 0)
(3 -8.64792e-16 0)
(3 -7.21603e-16 0)
(3 -4.8359e-16 0)
(3 -3.64458e-16 0)
(3 2.50249e-16 0)
(3 6.99983e-16 0)
(3 1.17109e-15 0)
(3 9.77203e-16 0)
(3 8.05702e-16 0)
(3 5.37279e-16 0)
(3 1.90836e-17 0)
(3 1.81899e-16 0)
(3 -5.94058e-16 0)
(3 -7.05587e-16 0)
(3 -9.01826e-16 0)
(3 -7.02027e-16 0)
(3 -3.5988e-16 0)
(3 7.10437e-17 0)
(3 -1.58413e-16 0)
(3 5.37464e-16 0)
(3 1.46532e-15 0)