/*--------------------------------*- C++ -*----------------------------------*\
| =========                 |                                                 |
| \\      /  F ield         | OpenFOAM: The Open Source CFD Toolbox           |
|  \\    /   O peration     | Version:  v1812                                 |
|   \\  /    A nd           | Web:      www.OpenFOAM.com                      |
|    \\/     M anipulation  |                                                 |
\*---------------------------------------------------------------------------*/
FoamFile
{
    version     2.0;
    format      ascii;
    class       volScalarField;
    location    "1.5";
    object      p;
}
// * * * * * * * * * * * * * * * * * * * * * * * * * * * * * * * * * * * * * //

dimensions      [1 -1 -2 0 0 0 0];


internalField   nonuniform List<scalar> 
20400
(
100709
100707
100709
100709
100707
100708
100706
100706
100702
100701
100697
100695
100690
100687
100681
100678
100672
100669
100663
100660
100655
100653
100648
100645
100639
100637
100631
100628
100622
100619
100611
100607
100599
100595
100587
100582
100575
100570
100563
100559
100552
100548
100543
100540
100533
100532
100526
100525
100522
100520
100519
100518
100517
100517
100517
100517
100516
100519
100520
100521
100521
100521
100522
100522
100523
100524
100523
100522
100522
100520
100519
100514
100512
100507
100503
100497
100493
100485
100479
100473
100461
100455
100443
100432
100424
100413
100402
100389
100380
100357
100351
100319
100324
100307
100288
100276
100258
100251
100230
100229
100205
100208
100191
100194
100187
100189
100188
100199
100207
100205
100219
100229
100241
100259
100273
100293
100310
100318
100329
100342
100357
100362
100371
100378
100383
100385
100392
100394
100394
100397
100396
100397
100398
100395
100396
100394
100393
100389
100386
100383
100380
100377
100374
100371
100369
100367
100363
100361
100360
100357
100356
100355
100352
100351
100352
100350
100348
100346
100345
100344
100340
100339
100338
100336
100336
100334
100332
100330
100327
100326
100324
100321
100319
100318
100313
100314
100310
100314
100313
100318
100324
100329
100338
100352
100360
100376
100389
100404
100418
100434
100448
100456
100472
100479
100491
100502
100510
100524
100535
100542
100547
100557
100562
100570
100575
100583
100586
100593
100597
100602
100607
100613
100618
100620
100624
100627
100632
100635
100642
100644
100648
100651
100658
100661
100653
100649
100661
100660
100660
100660
100659
100662
100665
100669
100666
100665
100670
100671
100669
100669
100672
100672
100674
100674
100673
100676
100676
100679
100680
100683
100685
100688
100691
100695
100699
100703
100707
100711
100716
100721
100726
100730
100736
100740
100744
100749
100752
100757
100761
100764
100765
100771
100775
100778
100782
100785
100791
100795
100797
100800
100804
100807
100809
100810
100810
100811
100813
100812
100811
100812
100812
100813
100813
100813
100813
100813
100813
100812
100812
100812
100811
100811
100810
100810
100808
100809
100807
100807
100805
100807
100803
100802
100803
100803
100802
100801
100803
100801
100803
100801
100800
100801
100802
100803
100804
100805
100806
100807
100809
100811
100814
100815
100818
100820
100823
100825
100829
100831
100835
100837
100842
100845
100850
100854
100860
100866
100873
100879
100887
100895
100903
100912
100920
100928
100937
100945
100953
100961
100969
100978
100987
100995
101000
101009
101015
101022
101030
101037
101042
101049
101055
101063
101071
101077
101083
101090
101096
101101
101106
101111
101114
101117
101120
101123
101125
101127
101129
101131
101131
101132
101133
101135
101137
101138
101139
101139
101139
101139
101140
101139
101140
101140
101141
101142
101141
101142
101142
101143
101145
101145
101145
101146
101146
101146
101145
101145
101145
101144
101143
101142
101141
101141
101140
101139
101138
101137
101137
101136
101136
101136
101136
101136
101136
101137
101138
101139
101141
101142
101144
101145
101147
101149
101152
101153
101155
101157
101158
101159
101163
101163
101167
101169
101171
101173
101175
101176
101177
101180
101183
101184
101187
101190
101192
101195
101197
101200
101203
101206
101209
101212
101215
101218
101222
101225
101229
101232
101236
101240
101244
101248
101251
101255
101260
101265
101269
101273
101275
101277
101281
101285
101289
101293
101297
101300
101303
101307
101310
101313
101314
101306
100706
100709
100708
100708
100709
100706
100708
100704
100705
100700
100700
100693
100693
100685
100684
100676
100675
100666
100667
100658
100658
100650
100651
100642
100644
100634
100635
100625
100625
100616
100614
100603
100603
100590
100591
100578
100579
100567
100567
100556
100556
100547
100544
100539
100536
100530
100528
100522
100523
100518
100520
100519
100518
100518
100518
100516
100518
100515
100520
100518
100519
100520
100520
100520
100521
100521
100522
100522
100519
100520
100516
100514
100508
100508
100500
100499
100489
100485
100478
100469
100464
100454
100443
100432
100423
100414
100400
100392
100375
100371
100333
100352
100313
100302
100302
100273
100269
100245
100245
100222
100223
100202
100207
100190
100191
100185
100188
100195
100203
100210
100221
100232
100242
100261
100273
100286
100293
100306
100320
100333
100341
100348
100354
100362
100368
100371
100378
100384
100381
100388
100387
100392
100388
100390
100381
100388
100385
100388
100386
100383
100381
100377
100375
100371
100369
100367
100363
100362
100360
100357
100356
100354
100352
100353
100352
100350
100347
100346
100344
100344
100342
100341
100344
100336
100340
100336
100335
100334
100330
100330
100327
100325
100322
100319
100318
100313
100315
100311
100314
100316
100322
100328
100337
100348
100358
100367
100381
100394
100408
100420
100441
100449
100460
100478
100478
100489
100497
100514
100521
100539
100544
100556
100561
100569
100574
100581
100586
100592
100597
100602
100606
100615
100616
100622
100621
100630
100630
100640
100640
100647
100645
100655
100657
100659
100649
100658
100658
100662
100664
100665
100664
100666
100670
100669
100670
100673
100672
100673
100674
100676
100674
100674
100675
100675
100676
100675
100677
100678
100681
100682
100685
100687
100691
100695
100698
100703
100706
100712
100715
100721
100724
100729
100732
100736
100739
100744
100746
100750
100755
100755
100759
100764
100768
100773
100778
100776
100781
100786
100790
100793
100797
100800
100807
100808
100809
100809
100813
100811
100812
100811
100813
100812
100813
100813
100813
100813
100813
100812
100813
100811
100812
100810
100811
100808
100811
100807
100810
100803
100809
100803
100804
100804
100805
100807
100808
100804
100802
100805
100805
100804
100804
100803
100807
100806
100806
100807
100808
100810
100809
100812
100812
100816
100817
100821
100823
100826
100828
100831
100834
100838
100840
100845
100849
100854
100859
100865
100872
100879
100888
100895
100902
100909
100918
100926
100933
100939
100947
100955
100963
100972
100981
100989
100995
101003
101008
101014
101022
101030
101036
101045
101052
101061
101067
101075
101082
101089
101095
101100
101106
101110
101113
101117
101120
101123
101125
101128
101129
101131
101133
101134
101136
101138
101138
101141
101141
101142
101142
101142
101143
101142
101144
101141
101143
101144
101144
101144
101145
101146
101148
101148
101148
101149
101150
101149
101148
101147
101147
101147
101146
101144
101143
101142
101142
101141
101140
101139
101139
101138
101138
101138
101138
101138
101138
101138
101138
101138
101138
101139
101140
101142
101144
101145
101147
101149
101151
101154
101153
101156
101158
101164
101161
101162
101164
101167
101169
101172
101174
101178
101179
101182
101186
101189
101191
101195
101197
101200
101203
101206
101209
101212
101216
101219
101222
101226
101228
101233
101236
101240
101244
101248
101252
101256
101261
101265
101269
101273
101276
101278
101283
101286
101290
101294
101298
101301
101305
101309
101313
101316
101317
101309
100712
100709
100710
100710
100708
100709
100706
100707
100701
100703
100696
100697
100689
100689
100681
100679
100672
100670
100662
100662
100654
100654
100646
100648
100637
100640
100630
100631
100621
100621
100611
100609
100597
100599
100585
100585
100574
100572
100563
100561
100553
100549
100543
100541
100534
100531
100524
100525
100519
100521
100516
100518
100515
100515
100514
100516
100514
100519
100516
100522
100520
100521
100522
100523
100522
100524
100523
100521
100522
100519
100519
100516
100513
100507
100506
100496
100495
100484
100480
100473
100463
100456
100447
100433
100426
100412
100408
100389
100386
100356
100363
100324
100327
100307
100288
100283
100259
100252
100230
100225
100202
100202
100184
100186
100173
100180
100180
100184
100187
100194
100197
100213
100227
100244
100270
100280
100308
100303
100327
100336
100357
100349
100370
100369
100381
100375
100391
100387
100392
100391
100391
100395
100394
100391
100394
100387
100389
100385
100384
100382
100380
100377
100374
100371
100369
100365
100364
100361
100361
100357
100356
100354
100353
100351
100353
100352
100349
100344
100345
100345
100342
100341
100340
100339
100336
100338
100335
100335
100331
100330
100329
100325
100323
100321
100317
100317
100310
100314
100309
100317
100316
100329
100336
100344
100360
100368
100384
100396
100414
100426
100442
100449
100464
100476
100492
100497
100511
100520
100527
100539
100543
100556
100559
100569
100573
100582
100585
100593
100597
100603
100611
100608
100625
100613
100629
100623
100637
100633
100645
100643
100651
100651
100662
100655
100657
100656
100666
100661
100663
100661
100667
100659
100664
100669
100672
100665
100666
100672
100674
100672
100668
100675
100673
100677
100673
100678
100675
100681
100679
100684
100685
100690
100693
100696
100700
100703
100708
100710
100716
100720
100725
100729
100732
100740
100741
100749
100748
100756
100757
100764
100761
100769
100772
100776
100777
100785
100788
100795
100794
100800
100799
100804
100805
100810
100805
100812
100810
100813
100808
100813
100810
100813
100812
100814
100813
100813
100813
100813
100811
100813
100810
100813
100809
100812
100807
100812
100804
100812
100802
100810
100801
100807
100803
100804
100802
100804
100801
100802
100804
100803
100799
100801
100803
100803
100805
100805
100809
100808
100812
100812
100817
100816
100821
100821
100826
100827
100831
100833
100837
100840
100844
100847
100852
100856
100862
100867
100873
100879
100886
100893
100904
100908
100921
100925
100937
100941
100952
100957
100967
100974
100985
100993
100998
101003
101014
101019
101031
101035
101043
101050
101055
101064
101069
101076
101082
101089
101095
101101
101106
101110
101114
101117
101120
101122
101125
101127
101130
101132
101133
101134
101135
101136
101138
101140
101140
101140
101140
101140
101139
101140
101139
101141
101141
101143
101140
101143
101142
101145
101145
101146
101146
101147
101147
101147
101145
101146
101145
101145
101144
101144
101142
101142
101140
101140
101139
101139
101137
101138
101136
101137
101136
101136
101136
101137
101138
101139
101140
101140
101143
101143
101147
101146
101151
101150
101154
101156
101159
101157
101161
101161
101166
101168
101171
101173
101175
101174
101176
101180
101181
101183
101186
101189
101192
101195
101197
101200
101204
101206
101209
101212
101216
101218
101222
101225
101229
101232
101237
101240
101245
101248
101252
101256
101261
101265
101269
101273
101276
101278
101281
101285
101289
101293
101297
101300
101304
101308
101310
101315
101314
101307
100711
100711
100710
100711
100710
100708
100709
100705
100706
100700
100701
100693
100694
100685
100684
100676
100675
100666
100667
100658
100658
100650
100651
100641
100646
100634
100636
100625
100626
100616
100615
100603
100605
100591
100592
100579
100580
100568
100569
100557
100556
100546
100544
100537
100534
100528
100525
100520
100520
100515
100519
100515
100519
100516
100519
100515
100517
100511
100520
100512
100519
100516
100521
100516
100523
100515
100524
100518
100521
100518
100516
100514
100510
100509
100502
100501
100492
100487
100479
100474
100466
100458
100449
100439
100426
100422
100405
100401
100381
100378
100349
100352
100321
100316
100301
100283
100273
100252
100240
100218
100214
100186
100197
100163
100178
100170
100174
100178
100185
100200
100196
100215
100224
100242
100258
100283
100294
100318
100307
100333
100347
100357
100354
100368
100371
100377
100381
100388
100385
100392
100387
100394
100393
100393
100390
100388
100386
100384
100383
100381
100379
100377
100374
100372
100367
100368
100362
100364
100360
100357
100355
100354
100351
100355
100352
100353
100350
100345
100345
100346
100345
100342
100343
100338
100340
100337
100336
100334
100329
100330
100327
100324
100322
100317
100317
100311
100312
100309
100313
100307
100321
100323
100327
100346
100348
100366
100373
100390
100405
100423
100441
100448
100459
100479
100488
100500
100503
100521
100524
100538
100543
100556
100559
100567
100573
100581
100587
100592
100598
100602
100606
100616
100610
100635
100612
100638
100624
100642
100637
100650
100647
100660
100653
100661
100657
100660
100660
100667
100662
100661
100664
100667
100665
100667
100668
100671
100669
100668
100675
100674
100670
100672
100677
100672
100674
100675
100678
100677
100681
100682
100686
100687
100691
100694
100697
100703
100704
100712
100713
100720
100722
100729
100732
100736
100742
100743
100749
100750
100758
100757
100763
100764
100772
100775
100777
100781
100788
100793
100795
100793
100799
100799
100810
100802
100808
100805
100818
100807
100812
100810
100813
100810
100815
100811
100814
100814
100813
100811
100814
100810
100814
100810
100813
100809
100814
100807
100815
100803
100814
100801
100808
100799
100812
100801
100807
100805
100805
100803
100804
100803
100805
100800
100805
100804
100805
100806
100806
100809
100809
100812
100813
100817
100817
100822
100822
100827
100827
100832
100834
100839
100841
100846
100849
100854
100859
100865
100871
100878
100884
100893
100899
100911
100916
100926
100932
100942
100948
100957
100964
100972
100982
100993
100996
101002
101013
101019
101029
101035
101042
101051
101056
101064
101069
101076
101083
101089
101096
101101
101106
101110
101114
101118
101120
101124
101125
101128
101130
101132
101133
101134
101135
101138
101137
101140
101142
101141
101141
101141
101141
101139
101141
101141
101142
101142
101142
101143
101144
101144
101146
101147
101147
101148
101148
101147
101146
101146
101146
101145
101144
101144
101142
101142
101141
101140
101139
101138
101138
101137
101137
101136
101136
101136
101137
101137
101137
101138
101139
101141
101141
101144
101144
101147
101147
101150
101151
101155
101156
101157
101160
101163
101164
101167
101169
101172
101174
101175
101175
101180
101180
101182
101185
101190
101191
101195
101196
101200
101203
101206
101209
101212
101215
101219
101221
101227
101227
101235
101234
101242
101244
101249
101252
101257
101261
101266
101269
101273
101277
101279
101281
101286
101289
101293
101297
101302
101305
101308
101312
101314
101316
101304
100712
100711
100711
100712
100711
100709
100710
100707
100703
100704
100698
100697
100691
100688
100681
100679
100673
100669
100663
100661
100655
100654
100647
100648
100637
100642
100631
100633
100622
100622
100612
100610
100601
100599
100587
100587
100576
100574
100565
100561
100553
100549
100543
100538
100533
100528
100524
100520
100517
100518
100512
100514
100511
100511
100513
100513
100513
100515
100511
100521
100516
100520
100517
100525
100515
100530
100515
100530
100517
100525
100516
100519
100512
100511
100506
100501
100496
100489
100483
100475
100471
100464
100454
100446
100434
100424
100413
100400
100388
100373
100360
100343
100330
100310
100296
100278
100260
100249
100223
100226
100191
100206
100156
100181
100155
100160
100162
100158
100179
100177
100196
100199
100219
100235
100255
100280
100297
100307
100316
100330
100351
100352
100362
100367
100376
100375
100385
100386
100390
100390
100391
100395
100393
100393
100391
100388
100387
100384
100381
100380
100377
100376
100373
100371
100369
100363
100366
100360
100362
100356
100356
100352
100354
100350
100354
100354
100352
100348
100344
100347
100345
100342
100344
100338
100339
100338
100336
100336
100331
100330
100329
100324
100321
100318
100315
100311
100307
100308
100301
100311
100310
100316
100326
100330
100352
100358
100375
100387
100406
100422
100432
100452
100462
100475
100489
100499
100505
100518
100526
100538
100544
100553
100558
100567
100574
100581
100585
100591
100598
100602
100609
100608
100625
100609
100644
100613
100645
100627
100648
100638
100653
100653
100659
100656
100664
100660
100661
100668
100667
100659
100660
100669
100669
100664
100666
100673
100669
100669
100670
100675
100667
100676
100672
100675
100671
100677
100673
100679
100678
100682
100683
100687
100691
100693
100699
100700
100707
100707
100716
100715
100725
100727
100731
100736
100739
100746
100747
100753
100757
100762
100762
100767
100772
100775
100779
100783
100789
100795
100794
100795
100799
100805
100802
100808
100802
100815
100806
100815
100806
100815
100811
100814
100810
100815
100812
100813
100813
100814
100809
100815
100810
100815
100810
100814
100808
100814
100806
100818
100804
100816
100798
100813
100796
100814
100801
100806
100803
100804
100804
100805
100797
100802
100804
100804
100802
100806
100807
100808
100810
100812
100814
100816
100818
100820
100824
100825
100829
100830
100835
100837
100842
100845
100850
100853
100860
100865
100871
100877
100885
100890
100901
100907
100918
100923
100934
100940
100949
100955
100963
100973
100984
100991
100998
101001
101014
101020
101030
101037
101043
101052
101057
101066
101070
101078
101083
101090
101095
101101
101106
101110
101115
101117
101122
101122
101127
101127
101131
101132
101133
101133
101135
101136
101139
101140
101141
101142
101140
101141
101140
101139
101140
101140
101141
101142
101140
101142
101141
101143
101146
101146
101147
101148
101148
101146
101146
101145
101147
101144
101145
101143
101142
101140
101141
101138
101140
101137
101138
101137
101137
101136
101136
101136
101136
101136
101138
101138
101139
101139
101142
101142
101146
101145
101150
101147
101152
101156
101158
101155
101159
101163
101164
101168
101170
101175
101175
101173
101176
101178
101180
101182
101187
101189
101192
101194
101197
101200
101203
101206
101210
101212
101217
101216
101222
101224
101231
101231
101240
101239
101246
101247
101253
101256
101262
101265
101269
101273
101277
101279
101281
101286
101290
101293
101299
101300
101305
101309
101310
101318
101311
101307
100712
100713
100711
100712
100712
100712
100708
100708
100704
100702
100699
100695
100692
100686
100682
100677
100674
100669
100665
100660
100657
100652
100650
100645
100644
100636
100637
100629
100625
100619
100615
100608
100603
100595
100591
100583
100578
100570
100565
100559
100551
100546
100539
100537
100528
100527
100520
100518
100515
100511
100514
100511
100511
100513
100509
100513
100511
100512
100514
100508
100519
100515
100520
100518
100526
100511
100533
100512
100532
100514
100527
100513
100520
100509
100510
100503
100499
100492
100486
100480
100473
100466
100459
100447
100439
100426
100416
100403
100389
100376
100359
100346
100326
100312
100295
100278
100268
100238
100237
100199
100205
100160
100180
100143
100153
100149
100142
100156
100156
100174
100176
100196
100207
100221
100253
100273
100296
100308
100306
100326
100348
100357
100351
100367
100371
100375
100383
100385
100385
100390
100388
100394
100394
100392
100390
100388
100385
100384
100382
100379
100376
100378
100368
100374
100365
100368
100358
100365
100357
100358
100352
100353
100348
100356
100352
100354
100354
100349
100346
100348
100345
100342
100342
100341
100339
100340
100336
100336
100330
100331
100327
100324
100320
100317
100313
100307
100305
100298
100305
100299
100306
100312
100310
100332
100336
100358
100363
100384
100400
100419
100431
100446
100459
100473
100493
100497
100501
100519
100525
100535
100544
100552
100558
100565
100574
100579
100587
100590
100598
100600
100604
100614
100610
100630
100611
100642
100617
100650
100629
100650
100639
100658
100656
100660
100659
100663
100663
100660
100666
100661
100661
100661
100668
100667
100668
100667
100668
100671
100669
100672
100669
100668
100677
100672
100672
100672
100675
100675
100679
100679
100683
100685
100690
100693
100696
100701
100703
100710
100710
100718
100719
100726
100730
100734
100739
100742
100749
100749
100759
100758
100765
100761
100776
100774
100777
100781
100792
100790
100796
100792
100797
100801
100806
100804
100807
100804
100819
100805
100814
100811
100814
100809
100818
100809
100815
100812
100814
100810
100816
100805
100819
100809
100815
100809
100814
100808
100814
100808
100817
100802
100811
100797
100817
100795
100811
100801
100806
100805
100802
100802
100800
100801
100809
100798
100806
100806
100809
100805
100810
100810
100814
100815
100817
100820
100821
100825
100826
100830
100832
100837
100840
100845
100848
100853
100858
100864
100869
100877
100882
100891
100897
100908
100914
100925
100931
100940
100947
100956
100964
100968
100985
100991
100996
101002
101011
101018
101031
101037
101044
101052
101059
101065
101072
101077
101085
101090
101097
101101
101107
101111
101113
101120
101120
101125
101124
101130
101129
101134
101132
101134
101133
101139
101137
101143
101141
101140
101142
101142
101142
101136
101141
101140
101142
101142
101140
101141
101140
101145
101146
101149
101147
101149
101149
101147
101145
101147
101146
101145
101144
101144
101142
101142
101140
101141
101137
101139
101136
101137
101136
101136
101136
101136
101135
101136
101136
101137
101138
101139
101140
101142
101144
101145
101146
101147
101150
101155
101158
101157
101157
101161
101164
101168
101171
101175
101172
101173
101174
101180
101180
101181
101186
101189
101192
101194
101196
101201
101203
101206
101210
101213
101216
101218
101223
101227
101227
101236
101230
101246
101240
101251
101251
101258
101260
101266
101268
101273
101277
101279
101281
101287
101288
101294
101297
101303
101305
101308
101312
101315
101317
101301
100715
100712
100714
100712
100712
100711
100710
100707
100705
100702
100699
100694
100691
100686
100681
100677
100671
100668
100663
100660
100655
100653
100649
100646
100642
100639
100634
100630
100624
100620
100614
100607
100602
100596
100590
100582
100578
100569
100565
100556
100551
100543
100542
100530
100531
100520
100521
100513
100513
100511
100509
100508
100508
100505
100511
100508
100510
100510
100508
100516
100511
100516
100515
100521
100518
100529
100511
100535
100513
100532
100514
100527
100510
100521
100509
100508
100502
100497
100491
100485
100478
100471
100462
100454
100443
100432
100419
100405
100392
100375
100363
100346
100330
100312
100293
100276
100258
100243
100214
100205
100176
100179
100139
100148
100133
100128
100135
100129
100150
100151
100173
100176
100204
100217
100234
100274
100292
100299
100306
100325
100346
100348
100355
100362
100374
100369
100382
100385
100385
100388
100389
100392
100393
100389
100388
100388
100384
100383
100380
100378
100378
100368
100379
100361
100372
100355
100369
100355
100362
100356
100354
100346
100351
100349
100356
100354
100352
100350
100347
100344
100348
100341
100344
100340
100340
100338
100337
100336
100332
100329
100329
100324
100318
100316
100311
100304
100298
100300
100291
100298
100299
100296
100315
100312
100340
100348
100366
100368
100409
100412
100429
100443
100455
100477
100490
100493
100501
100513
100525
100534
100543
100548
100556
100565
100571
100577
100585
100587
100598
100599
100608
100605
100619
100609
100633
100613
100644
100616
100654
100629
100652
100642
100658
100656
100661
100660
100663
100664
100656
100664
100661
100660
100664
100668
100665
100665
100668
100670
100665
100670
100672
100671
100664
100674
100666
100673
100671
100675
100675
100679
100681
100685
100688
100693
100697
100699
100704
100705
100714
100714
100721
100723
100728
100733
100737
100743
100747
100752
100757
100764
100757
100772
100766
100778
100776
100783
100789
100794
100790
100796
100794
100805
100802
100805
100803
100814
100804
100816
100805
100815
100809
100818
100807
100820
100810
100816
100809
100815
100805
100819
100801
100822
100807
100815
100808
100813
100806
100814
100808
100811
100799
100808
100799
100818
100797
100806
100803
100806
100804
100799
100792
100809
100799
100805
100799
100809
100804
100812
100806
100812
100813
100817
100816
100819
100821
100823
100826
100828
100833
100836
100841
100843
100848
100852
100858
100862
100869
100874
100883
100889
100898
100904
100916
100921
100933
100935
100951
100951
100963
100969
100983
100993
100993
100999
101008
101024
101030
101037
101044
101053
101058
101067
101072
101079
101085
101091
101096
101103
101106
101111
101116
101117
101124
101122
101128
101126
101132
101131
101134
101132
101134
101136
101141
101141
101142
101142
101140
101142
101140
101140
101139
101140
101141
101141
101138
101139
101142
101143
101148
101146
101148
101149
101149
101147
101147
101145
101147
101144
101145
101143
101142
101142
101141
101138
101141
101136
101138
101136
101136
101135
101136
101134
101136
101135
101137
101136
101138
101138
101140
101140
101145
101141
101148
101144
101151
101159
101159
101153
101156
101161
101163
101169
101171
101173
101175
101172
101175
101176
101180
101180
101188
101188
101194
101193
101197
101200
101203
101207
101210
101214
101217
101220
101224
101225
101230
101229
101238
101233
101250
101245
101254
101255
101262
101264
101269
101273
101277
101277
101282
101284
101292
101292
101299
101302
101306
101310
101308
101319
101311
101307
100713
100716
100711
100714
100713
100711
100709
100707
100706
100702
100699
100695
100692
100685
100683
100675
100673
100667
100663
100659
100655
100653
100648
100646
100641
100638
100634
100630
100623
100619
100612
100608
100601
100596
100589
100584
100575
100570
100561
100557
100547
100544
100534
100534
100522
100523
100513
100513
100509
100507
100506
100507
100503
100506
100503
100506
100504
100510
100506
100506
100514
100511
100517
100518
100522
100516
100533
100510
100538
100512
100534
100511
100530
100507
100522
100507
100506
100502
100497
100490
100483
100474
100467
100456
100447
100435
100423
100411
100394
100384
100363
100350
100331
100310
100293
100273
100262
100230
100218
100191
100185
100150
100147
100126
100116
100121
100114
100128
100128
100144
100155
100171
100193
100203
100230
100265
100289
100299
100298
100322
100339
100355
100344
100367
100366
100372
100376
100383
100376
100386
100389
100389
100390
100386
100387
100383
100383
100380
100378
100379
100369
100381
100356
100379
100352
100376
100346
100370
100350
100359
100353
100349
100338
100357
100349
100353
100350
100352
100345
100344
100344
100343
100344
100344
100338
100341
100335
100337
100331
100330
100327
100323
100319
100314
100309
100300
100299
100287
100292
100289
100289
100300
100292
100321
100323
100349
100346
100389
100384
100419
100418
100443
100447
100471
100485
100495
100496
100517
100522
100528
100541
100547
100554
100560
100571
100575
100583
100586
100591
100598
100599
100610
100607
100622
100612
100635
100613
100646
100615
100655
100625
100656
100643
100658
100656
100661
100660
100659
100659
100655
100660
100660
100665
100664
100662
100667
100669
100668
100662
100669
100674
100668
100664
100664
100671
100669
100671
100671
100675
100676
100681
100682
100689
100689
100696
100697
100703
100705
100710
100715
100719
100722
100731
100729
100739
100739
100750
100747
100762
100758
100767
100758
100774
100773
100778
100780
100791
100790
100793
100791
100796
100800
100803
100802
100806
100807
100816
100801
100816
100807
100816
100806
100822
100804
100821
100808
100818
100804
100818
100801
100823
100799
100823
100804
100816
100807
100811
100805
100811
100806
100804
100797
100813
100802
100812
100798
100802
100807
100809
100790
100797
100808
100812
100793
100799
100811
100811
100800
100810
100808
100817
100812
100819
100816
100821
100822
100825
100828
100831
100836
100838
100843
100847
100852
100856
100862
100866
100874
100880
100889
100895
100905
100912
100922
100927
100940
100947
100954
100959
100969
100981
100990
100991
101002
101008
101016
101033
101037
101046
101051
101061
101065
101074
101078
101086
101090
101098
101101
101108
101111
101114
101119
101120
101126
101124
101130
101128
101134
101131
101134
101131
101142
101136
101142
101142
101143
101139
101140
101143
101142
101137
101138
101143
101142
101137
101138
101138
101149
101146
101149
101145
101151
101150
101147
101145
101147
101146
101145
101144
101144
101142
101142
101140
101141
101137
101140
101135
101138
101135
101136
101134
101136
101134
101136
101135
101137
101136
101138
101138
101141
101140
101146
101145
101141
101139
101164
101167
101149
101153
101160
101164
101168
101171
101174
101171
101174
101174
101177
101179
101181
101186
101189
101190
101194
101197
101200
101203
101207
101209
101213
101215
101220
101222
101226
101227
101234
101233
101244
101237
101254
101249
101258
101259
101266
101266
101273
101276
101280
101279
101286
101290
101295
101297
101302
101307
101308
101310
101314
101320
101296
100717
100712
100716
100712
100713
100711
100709
100708
100704
100704
100697
100697
100688
100686
100678
100674
100670
100665
100662
100657
100656
100651
100649
100643
100642
100637
100635
100628
100624
100619
100614
100606
100602
100594
100590
100581
100578
100568
100564
100551
100549
100539
100537
100525
100525
100515
100514
100509
100506
100504
100502
100499
100501
100500
100502
100501
100503
100504
100507
100505
100508
100513
100512
100520
100519
100526
100517
100535
100513
100537
100514
100536
100510
100532
100508
100520
100510
100507
100501
100494
100488
100481
100472
100464
100452
100441
100429
100413
100400
100378
100368
100346
100332
100318
100300
100265
100245
100235
100216
100189
100156
100158
100118
100116
100111
100092
100109
100108
100125
100129
100153
100155
100189
100199
100224
100260
100293
100279
100300
100321
100346
100327
100348
100357
100371
100363
100378
100376
100377
100381
100385
100383
100387
100381
100382
100381
100378
100378
100377
100371
100378
100360
100378
100347
100377
100341
100379
100339
100365
100346
100359
100339
100350
100338
100358
100346
100346
100346
100345
100351
100344
100341
100345