/*--------------------------------*- C++ -*----------------------------------*\
| =========                 |                                                 |
| \\      /  F ield         | OpenFOAM: The Open Source CFD Toolbox           |
|  \\    /   O peration     | Version:  v1812                                 |
|   \\  /    A nd           | Web:      www.OpenFOAM.com                      |
|    \\/     M anipulation  |                                                 |
\*---------------------------------------------------------------------------*/
FoamFile
{
    version     2.0;
    format      ascii;
    class       surfaceScalarField;
    location    "1.5";
    object      phi;
}
// * * * * * * * * * * * * * * * * * * * * * * * * * * * * * * * * * * * * * //

dimensions      [1 0 -1 0 0 0 0];
oriented        oriented;


internalField   nonuniform List<scalar> 
40240
(
-0.000152881
-0.000127468
-0.000185491
-0.000249306
-0.00036556
-0.000101561
-0.000538764
-0.000103966
-0.000820459
-6.80671e-07
-0.00104042
-6.00742e-05
-0.00133872
1.87175e-05
-0.00159095
-2.62898e-05
-0.00195794
8.54184e-05
-0.00226282
3.37624e-05
-0.00264513
0.000109178
-0.00297256
5.70682e-05
-0.00339012
0.000150038
-0.00375066
9.60817e-05
-0.00418134
0.000167446
-0.00455056
0.00010936
-0.00499698
0.000187636
-0.00537833
0.000126795
-0.00582464
0.000191809
-0.00620855
0.00013327
-0.00664201
0.000182074
-0.00701585
0.000121397
-0.00744435
0.000177677
-0.00780533
0.000109926
-0.0082556
0.000203084
-0.00862831
0.000121557
-0.00909301
0.000218336
-0.00947801
0.000138298
-0.00995505
0.00023507
-0.0103434
0.000152546
-0.010836
0.000259292
-0.0112655
0.000201122
-0.0118034
0.00030857
-0.0122469
0.000225929
-0.012825
0.000363515
-0.0133226
0.000281223
-0.0139454
0.000408676
-0.014493
0.000335417
-0.0151495
0.000447397
-0.0157529
0.00040216
-0.0164103
0.000454962
-0.0170377
0.000421433
-0.0176987
0.000456088
-0.0182952
0.000401513
-0.0189109
0.000415421
-0.0194864
0.000390438
-0.0199463
0.000268296
-0.020324
0.00019314
-0.0205358
2.97296e-05
-0.0206359
-7.7721e-05
-0.0206297
-0.000179229
-0.0205306
-0.000270114
-0.0203824
-0.00031642
-0.0201108
-0.000439283
-0.0198777
-0.000393457
-0.0195866
-0.00044645
-0.0193294
-0.000406316
-0.0190178
-0.000460918
-0.0187148
-0.000456671
-0.0182459
-0.000610431
-0.0177689
-0.000621673
-0.0173444
-0.000564637
-0.0168909
-0.000582575
-0.016494
-0.000520036
-0.0160669
-0.000551719
-0.015599
-0.000602909
-0.0150821
-0.000640755
-0.0145762
-0.000633425
-0.0139963
-0.000686062
-0.0135058
-0.000597643
-0.0129516
-0.000659731
-0.0124756
-0.000568234
-0.0119675
-0.00060672
-0.0115779
-0.000486587
-0.0111358
-0.000536339
-0.0108345
-0.000404482
-0.0104906
-0.000438404
-0.0102412
-0.000342783
-0.00986124
-0.000472542
-0.0095912
-0.000362987
-0.00924829
-0.000434355
-0.00899082
-0.000348112
-0.00875698
-0.000322592
-0.00864789
-0.000196771
-0.00860847
-0.000125667
-0.00885698
0.000160973
-0.00905317
0.000117998
-0.00954867
0.000414023
-0.0100042
0.000374616
-0.0107491
0.000661541
-0.011683
0.000857842
-0.0122884
0.000539219
-0.0134388
0.00110843
-0.0144757
0.00096958
-0.0160874
0.0015389
-0.0175763
0.00144623
-0.0195236
0.00188759
-0.0213297
0.0017538
-0.023495
0.00211596
-0.0255474
0.00199451
-0.0276936
0.00210321
-0.0298619
0.00211833
-0.0318096
0.00189308
-0.0336368
0.0017672
-0.0349607
0.00126566
-0.0358169
0.000800812
-0.0361465
0.000275915
-0.0360497
-0.000146973
-0.0356305
-0.000471669
-0.0348505
-0.000840878
-0.0340188
-0.000878881
-0.0329561
-0.00111904
-0.0319771
-0.00103105
-0.0305881
-0.00145244
-0.0290849
-0.00154881
-0.0275674
-0.00156242
-0.0260907
-0.00153012
-0.0246314
-0.00151444
-0.0229268
-0.00175751
-0.021188
-0.0017911
-0.0193465
-0.00189091
-0.017861
-0.0015341
-0.016212
-0.00169235
-0.0147757
-0.00148235
-0.0131831
-0.00163858
-0.011839
-0.00138804
-0.0102182
-0.00166532
-0.00883634
-0.0014271
-0.00744301
-0.00143602
-0.00618618
-0.00129953
-0.00494235
-0.00128566
-0.00377098
-0.00121267
-0.00270768
-0.0011045
-0.00179838
-0.000951456
-0.000939752
-0.000900631
-0.000296135
-0.000684923
0.000104016
-0.000443115
0.000418695
-0.000356319
0.000566364
-0.000189299
0.000695947
-0.000171961
0.000798837
-0.00014635
0.000848026
-9.22341e-05
0.000885211
-8.08829e-05
0.000884433
-4.4153e-05
0.000868893
-3.0372e-05
0.000852811
-3.03809e-05
0.000842945
-3.70511e-05
0.000838068
-4.19409e-05
0.000788793
2.40106e-06
0.000722367
2.02006e-05
0.000635016
4.15545e-05
0.000533411
5.5752e-05
0.000499706
-1.11134e-05
0.000474066
-1.95232e-05
0.000483231
-5.4567e-05
0.000486653
-4.88878e-05
0.000440463
2.29605e-07
0.000383641
1.04296e-05
0.000320881
1.75764e-05
0.000245275
2.74913e-05
0.000153495
4.20544e-05
-5.36825e-05
0.00015833
-0.000285816
0.000182171
-0.000617124
0.000279989
-0.000965194
0.000294747
-0.00139522
0.000376022
-0.00192963
0.000480094
-0.00246207
0.000478166
-0.00320587
0.00068994
-0.00386721
0.000607774
-0.00475956
0.000839579
-0.00559038
0.00077936
-0.00661828
0.000975823
-0.00758041
0.000909699
-0.00865316
0.00102129
-0.00973096
0.00102597
-0.0108206
0.00103767
-0.0119763
0.00110302
-0.0130226
0.000991515
-0.0140316
0.000951992
-0.0145789
0.000488453
-0.0149452
0.000308008
-0.0149947
-5.51486e-06
-0.014687
-0.000364571
-0.0142154
-0.000522939
-0.0132578
-0.00101718
-0.0121759
-0.00113305
-0.01095
-0.00127274
-0.00957966
-0.00141057
-0.00828094
-0.0013343
-0.00683242
-0.00147916
-0.00559935
-0.00126182
-0.00446932
-0.00115791
-0.00346438
-0.00102639
-0.00229671
-0.00119436
-0.00143341
-0.000891765
-0.000804116
-0.000659922
-0.000118087
-0.000719093
0.000179999
-0.000331083
0.000706948
-0.000561492
0.000986659
-0.00031406
0.00138621
-0.000437029
0.00164925
-0.000298224
0.00199974
-0.0003861
0.00223931
-0.000272958
0.00252066
-0.000312349
0.00275235
-0.000259934
0.00294539
-0.000221035
0.00314308
-0.000221435
0.00320791
-8.84164e-05
0.00324711
-5.66753e-05
0.00323102
-2.69424e-06
0.00319668
1.66921e-05
0.00311303
6.61747e-05
0.00299192
0.000103843
0.00283856
0.000132906
0.00263487
0.000178714
0.00242018
0.000191946
0.0021864
0.000209132
0.00193932
0.000223259
0.00171585
0.000199814
0.00139455
0.00029965
0.00116423
0.000209327
0.000884208
0.000260081
0.00087683
-1.25524e-05
0.00073084
0.000124824
0.000482638
0.000227893
0.000174441
0.000286073
8.67745e-05
6.29872e-05
-0.00025732
0.000317769
-0.000790485
0.00050756
-0.00135606
0.000541441
-0.0018708
0.000491028
-0.00230291
0.000408194
-0.00289569
0.000571856
-0.00343258
0.000517065
-0.00391645
0.000464258
-0.00434569
0.00041128
-0.00488162
0.000520167
-0.00531717
0.000419477
-0.00569351
0.000358161
-0.00602658
0.000324961
-0.00635396
0.000316914
-0.00666593
0.000299874
-0.00699121
0.000314128
-0.00730974
0.000307161
-0.00764062
0.000320023
-0.00795377
0.000303293
-0.00823615
0.000272915
-0.00851233
0.000265256
-0.00875308
0.000229726
-0.0089809
0.000215551
-0.00917965
0.000186499
-0.00935872
0.000167599
-0.00949671
0.000127282
-0.009615
0.00010842
-0.00968914
6.58282e-05
-0.00974652
5.04151e-05
-0.00975647
5.13375e-06
-0.00975444
-8.03649e-06
-0.00966074
-0.000100737
-0.00956388
-0.000106327
-0.00934798
-0.000225438
-0.00910755
-0.000248959
-0.00875614
-0.000358389
-0.00835626
-0.000407506
-0.00787375
-0.000488766
-0.00730936
-0.000568785
-0.00673682
-0.000574913
-0.00614675
-0.000592173
-0.00563919
-0.000506873
-0.004949
-0.00068799
-0.00428865
-0.000656789
-0.00357527
-0.000708928
-0.00312573
-0.000445131
-0.00261908
-0.000500536
-0.00201001
-0.000604754
-0.00136065
-0.000646321
-0.000858137
-0.000500626
-0.000435429
-0.000425388
-0.000134335
-0.000306303
4.83211e-06
-0.000148174
0.000217326
-0.000224312
0.000351761
-0.000149327
0.00046949
-0.00013417
0.000604378
-0.000150439
0.000761848
-0.000174844
0.000873058
-0.000129717
0.000951964
-9.52784e-05
0.00104828
-0.000110757
0.00114526
-0.000109382
0.00125729
-0.000122919
0.00134161
-9.43175e-05
0.00142458
-9.16864e-05
0.00146264
-4.62964e-05
0.00150179
-4.62502e-05
0.0015054
-9.4173e-06
0.00148765
1.27819e-05
0.00146839
1.48453e-05
0.00142665
3.76723e-05
0.00138247
4.03777e-05
0.00130846
7.04447e-05
0.00122247
8.26704e-05
0.0011289
9.05505e-05
0.00101475
0.000111052
0.000907315
0.000103943
0.000757091
0.00014726
0.000671387
8.53606e-05
0.000538485
0.000133028
0.000425591
0.000111077
0.000202197
0.000220689
7.62425e-05
0.000120683
-0.000200858
0.000271339
-0.000413794
0.00020496
-0.000742132
0.000324431
-0.00117796
0.000431539
-0.0014787
0.000297307
-0.00177055
0.00028948
-0.0020462
0.000272569
-0.0023965
0.000346674
-0.00275315
0.000352899
-0.00310959
0.000352725
-0.00338416
0.000270458
-0.00365007
0.000261782
-0.00391323
0.000259537
-0.00414617
0.000228937
-0.00431713
0.000165381
-0.00445175
0.000129573
-0.00461034
0.000151095
-0.00481841
0.000199427
-0.00500742
0.000177975
-0.00527478
0.000253802
-0.00551731
0.00022756
-0.00580681
0.000271344
-0.00607862
0.000252594
-0.00637395
0.000276982
-0.00665878
0.000266971
-0.00694601
0.000269757
-0.00723199
0.000268656
-0.00750552
0.000256205
-0.0077878
0.000265318
-0.00805649
0.000251984
-0.00832293
0.000249839
-0.00855906
0.000219764
-0.00876634
0.00019073
-0.0089008
0.000117488
-0.00898151
6.29999e-05
-0.00900109
1.4343e-06
-0.00900551
-1.43253e-05
-0.0088802
-0.000143007
-0.00871745
-0.000181213
-0.00840912
-0.000325107
-0.00805731
-0.000366646
-0.00768286
-0.000388082
-0.00734132
-0.000353397
-0.00697272
-0.000378739
-0.00656737
-0.000414688
-0.00614063
-0.000436658
-0.00564788
-0.000502655
-0.00512999
-0.000527783
-0.00448412
-0.000655721
-0.00389319
-0.000601439
-0.0033646
-0.000540265
-0.00299022
-0.000388653
-0.00254658
-0.00045401
-0.00206104
-0.000495555
-0.00152569
-0.000545889
-0.00109463
-0.000441656
-0.000752099
-0.000353629
-0.000433957
-0.00032933
-0.000217808
-0.000228118
-3.56872e-05
-0.000192098
3.02436e-05
-7.62439e-05
0.000100882
-8.15016e-05
0.000162354
-7.29329e-05
0.000201197
-4.97387e-05
0.00024147
-5.03707e-05
0.000265053
-3.25779e-05
0.000287364
-3.11146e-05
0.000294257
-1.65825e-05
0.000294442
-9.02697e-06
0.000293324
-7.12445e-06
0.000275729
9.23303e-06
0.000251552
1.59325e-05
0.000219895
2.33402e-05
0.000191762
1.83524e-05
0.000164355
1.59305e-05
0.000129462
2.14768e-05
9.19247e-05
2.26036e-05
1.18535e-05
6.53106e-05
-7.60874e-05
7.34196e-05
-0.000229064
0.000138905
-0.000405874
0.000164051
-0.000572669
0.000154558
-0.000691023
0.000108251
-0.000835853
0.00013526
-0.00099654
0.000151859
-0.00118269
0.00017803
-0.00137708
0.000187028
-0.00157911
0.00019484
-0.00178386
0.000197961
-0.00194524
0.000156494
-0.00217539
0.000220411
-0.00236106
0.000177311
-0.00257725
0.000207796
-0.0027769
0.000190575
-0.00297543
0.000189707
-0.00313498
0.000150547
-0.00325286
0.000108818
-0.00336321
0.000101209
-0.003487
0.000114643
-0.00359935
0.000103393
-0.00369916
9.15101e-05
-0.00380421
9.70712e-05
-0.00391635
0.000104934
-0.00402802
0.000104469
-0.00411539
8.19767e-05
-0.00418983
6.94662e-05
-0.00425394
5.95673e-05
-0.00433964
8.13912e-05
-0.00444096
9.79574e-05
-0.00454869
0.00010528
-0.00465461
0.000104093
-0.00476933
0.000113027
-0.00487814
0.000107825
-0.00498327
0.000104035
-0.00506585
8.25963e-05
-0.00515481
8.93928e-05
-0.00521864
6.44236e-05
-0.0052883
7.04715e-05
-0.00534097
5.35735e-05
-0.00538633
4.62835e-05
-0.00541861
3.29453e-05
-0.00544171
2.37097e-05
-0.00545305
1.20359e-05
-0.00544216
-9.56646e-06
-0.00540783
-3.28246e-05
-0.00533719
-6.87811e-05
-0.00523864
-9.66015e-05
-0.00507317
-0.000161793
-0.0048692
-0.000199898
-0.00463337
-0.000231558
-0.00438195
-0.000248314
-0.00414318
-0.000236438
-0.0038743
-0.000267497
-0.00360641
-0.000266614
-0.00334207
-0.000264526
-0.00310666
-0.000239856
-0.00279786
-0.000313065
-0.00256928
-0.000233473
-0.00216538
-0.000408588
-0.0017451
-0.000425293
-0.00131278
-0.000437413
-0.00094125
-0.000376231
-0.000615536
-0.000329734
-0.000399067
-0.0002198
-0.000258096
-0.000142458
-9.86149e-05
-0.000159371
-1.61606e-05
-8.16559e-05
4.08059e-05
-5.42129e-05
7.97416e-05
-3.58694e-05
0.000139763
-5.61455e-05
0.000184472
-3.99774e-05
0.00023647
-4.74742e-05
0.000258749
-1.74432e-05
0.000294791
-3.07345e-05
0.000341726
-4.10171e-05
0.000368171
-1.98705e-05
0.000405138
-2.98618e-05
0.000418283
-5.50901e-06
0.000444589
-1.81195e-05
0.000448487
3.98234e-06
0.000445099
1.11645e-05
0.00043976
1.28765e-05
0.000426064
2.03503e-05
0.000413902
1.79122e-05
0.000387667
3.12632e-05
0.000366648
2.54818e-05
0.00034844
2.20273e-05
0.000331716
1.87067e-05
0.000293315
3.82313e-05
0.000241922
4.92665e-05
0.000197253
4.10558e-05
0.000166488
2.62498e-05
0.000137698
2.39434e-05
0.000120708
1.17499e-05
0.000101507
1.42634e-05
3.86312e-05
5.7155e-05
-1.54063e-05
4.91216e-05
-0.000108903
9.01325e-05
-0.000189418
7.79213e-05
-0.000261783
7.07073e-05
-0.000323783
6.10537e-05
-0.000421335
9.80976e-05
-0.000520301
0.000100876
-0.000623989
0.000106193
-0.000745809
0.000124521
-0.000953012
0.000209408
-0.00119296
0.000241506
0.000254351
-0.000208846
-0.00019956
-0.000646907
-9.03718e-05
-0.000993286
-3.61672e-05
-0.00162312
0.000241277
-0.00215866
0.000262702
-0.00288225
0.00038038
-0.00346001
0.00031644
-0.00423928
0.000473641
-0.00489485
0.000463995
-0.00573384
0.000597404
-0.0064253
0.000527155
-0.00726645
0.000627246
-0.0079883
0.000605581
-0.00883329
0.000678256
-0.00956378
0.000634751
-0.0103945
0.000680948
-0.0111191
0.000651365
-0.0119364
0.000686437
-0.0126302
0.000631925
-0.013413
0.000666024
-0.0140784
0.00059772
-0.0148246
0.000614514
-0.0154748
0.00057537
-0.0162301
0.000613672
-0.0168594
0.000583043
-0.0176239
0.000637934
-0.018255
0.000602082
-0.0190154
0.000652645
-0.0196557
0.000637373
-0.020417
0.000676845
-0.0210834
0.00069169
-0.0218886
0.000774817
-0.0225897
0.000784921
-0.0234159
0.000832518
-0.0241228
0.000854744
-0.0249758
0.000918315
-0.0257007
0.00092371
-0.0265744
0.000996812
-0.0273122
0.000980381
-0.0281426
0.00103632
-0.0288962
0.000992239
-0.0296823
0.000995444
-0.0303699
0.000952932
-0.0310528
0.000886651
-0.0317042
0.000869772
-0.0322299
0.000723074
-0.0327686
0.000618957
-0.0331068
0.000347318
-0.03344
0.000180058
-0.0336147
-8.05601e-05
-0.0336951
-0.000272086
-0.0336778
-0.000459235
-0.0335277
-0.000638098
-0.0333558
-0.000770814
-0.0330356
-0.000874813
-0.032709
-0.000934253
-0.0322993
-0.000967541
-0.0318918
-0.00102688
-0.0312915
-0.00118595
-0.0307507
-0.00132387
-0.0300192
-0.00146594
-0.0292434
-0.00148079
-0.028548
-0.00139945
-0.0277667
-0.00143267
-0.0270602
-0.00140396
-0.0262311
-0.00153865
-0.025408
-0.00159442
-0.0244984
-0.00167273
-0.0237
-0.00159982
-0.0227704
-0.00163678
-0.0220036
-0.00151425
-0.0211245
-0.00155631
-0.0204493
-0.00137096
-0.0196444
-0.00138552
-0.0190951
-0.00118438
-0.0184107
-0.0011901
-0.0180238
-0.000923064
-0.017541
-0.000920691
-0.017328
-0.000779243
-0.0169865
-0.000798591
-0.0168711
-0.000641816
-0.0167365
-0.000573944
-0.0167839
-0.000362653
-0.0168565
-0.000207372
-0.0173447
0.000273344
-0.0177259
0.000453776
-0.0185953
0.000919545
-0.019267
0.000994785
-0.0206077
0.00164124
-0.0218424
0.00181502
-0.0229129
0.0018459
-0.0250651
0.00264757
-0.0259614
0.00191708
-0.0281716
0.00308976
-0.029975
0.00334145
-0.0323848
0.00375664
-0.0342611
0.00374086
-0.0367256
0.0041532
-0.0387109
0.0040387
-0.0408186
0.00404571
-0.042623
0.00384933
-0.0440565
0.0035354
-0.0455278
0.00329183
-0.0462829
0.00247556
-0.0471101
0.00203247
-0.0474578
0.00108753
-0.0475751
0.000340201
-0.0474974
-0.000282556
-0.0468432
-0.00117096
-0.0462915
-0.00145676
-0.0450053
-0.00218479
-0.0437876
-0.00240818
-0.0421044
-0.00276636
-0.0402175
-0.0033957
-0.0382068
-0.00362105
-0.0356362
-0.00418696
-0.0335001
-0.00371331
-0.0314419
-0.00362399
-0.0293952
-0.00385522
-0.0268812
-0.00435534
-0.024691
-0.00412854
-0.0224797
-0.00379143
-0.0205016
-0.00371717
-0.0182965
-0.00373378
-0.0164215
-0.00356053
-0.0144761
-0.00337904
-0.012667
-0.00352027
-0.0106408
-0.00349625
-0.00908221
-0.00303956
-0.007225
-0.00319939
-0.00569886
-0.00285379
-0.00396687
-0.00298742
-0.00260974
-0.00250331
-0.00145726
-0.00214695
-0.00057531
-0.00182511
0.000163919
-0.0014697
0.000902086
-0.00122529
0.0014538
-0.000952853
0.0019651
-0.000744663
0.00237575
-0.000624901
0.00263575
-0.00045003
0.00285543
-0.000354322
0.0029333
-0.000202553
0.00297738
-0.000133407
0.00296531
-6.42224e-05
0.00290356
-1.54348e-05
0.00284964
-2.93471e-05
0.00277867
-1.8029e-05
0.00268807
4.62914e-05
0.00250081
0.00016102
0.00228997
0.000206446
0.00207363
0.000225952
0.00185224
0.000165476
0.00174473
4.32881e-05
0.00165107
-6.68429e-06
0.00163593
-7.93104e-05
0.00154547
4.48662e-05
0.00132148
0.000188377
0.00112406
0.000168943
0.000938634
0.000163677
0.000600945
0.00033188
0.000300182
0.000410622
-0.000125767
0.000558473
-0.000643856
0.000746251
-0.00122485
0.000823539
-0.00195429
0.00105145
-0.00277128
0.00124285
-0.00378621
0.00143868
-0.00482
0.00167001
-0.00609054
0.00182421
-0.0071942
0.00189002
-0.00858546
0.00211986
-0.0097214
0.00205499
-0.0111053
0.00223864
-0.0121985
0.00206715
-0.0134167
0.00219318
-0.0143954
0.00196314
-0.0152523
0.001907
-0.0159839
0.00166809
-0.0163515
0.00126375
-0.0167102
0.000790824
-0.0168377
0.000377409
-0.0168618
-3.67141e-05
-0.0167938
-0.000490703
-0.0162396
-0.00115083
-0.0156565
-0.00166395
-0.014581
-0.00225419
-0.0132533
-0.00265425
-0.0117647
-0.00294043
-0.00985528
-0.00327864
-0.00800504
-0.00335829
-0.00630347
-0.00298609
-0.00474542
-0.00274771
-0.00316514
-0.0026402
-0.0020424
-0.00234675
-0.00121529
-0.00174778
-0.000214523
-0.00169101
0.000813805
-0.00178048
0.00201577
-0.00156247
0.00310694
-0.00168819
0.00408934
-0.00133178
0.00501792
-0.00140019
0.0058925
-0.00120673
0.00667831
-0.00120902
0.0073719
-0.000993072
0.00808904
-0.00106345
0.00863607
-0.000831115
0.00923649
-0.000852195
0.0095627
-0.000568069
0.00991457
-0.000466668
0.00999458
-0.000153576
0.0100161
-4.67104e-05
0.00993644
7.24189e-05
0.00975974
0.000227492
0.00948706
0.000355941
0.00906411
0.000534865
0.00863358
0.000586286
0.00801967
0.000782538
0.00741868
0.000786003
0.006697
0.000921315
0.00604591
0.000827935
0.00543282
0.000890715
0.00439765
0.00122556
0.00381981
0.000817499
0.00327666
0.000512769
0.00296757
0.000414822
0.00210041
0.00107515
0.00138134
0.000984208
0.000643594
0.000777063
0.000276827
0.000660767
-0.000539006
0.00129756
-0.00134211
0.00132074
-0.00207211
0.00119742
-0.00274741
0.001061
-0.00351713
0.00132997
-0.00432337
0.00130787
-0.00494359
0.00106578
-0.00545395
0.000903957
-0.00603804
0.00108509
-0.00660086
0.000964787
-0.00713302
0.000876748
-0.00757547
0.000756294
-0.00797275
0.000702763
-0.00837121
0.000688019
-0.00874869
0.000681027
-0.00915928
0.000707161
-0.00946572
0.000617653
-0.00978103
0.000608957
-0.0100117
0.000495366
-0.0102544
0.000495701
-0.0104234
0.000386615
-0.0105825
0.000363476
-0.0106915
0.00028234
-0.0107734
0.00023934
-0.0108491
0.000193012
-0.0108805
0.000130883
-0.0109274
0.000104274
-0.0109068
2.38719e-05
-0.0109072
-2.1034e-08
-0.0108587
-6.12362e-05
-0.0108031
-0.000164802
-0.0106737
-0.000242294
-0.0105417
-0.000359986
-0.0103043
-0.000490816
-0.0100385
-0.000634598
-0.00963525
-0.000817321
-0.00918551
-0.000943173
-0.00861812
-0.00113688
-0.00786881
-0.00132746
-0.00719982
-0.00126441
-0.00652244
-0.0011826
-0.00584566
-0.00135832
-0.00488071
-0.00161977
-0.00407781
-0.00150759
-0.00316972
-0.00134688
-0.00253198
-0.00113318
-0.00188238
-0.00125005
-0.00124455
-0.00128163
-0.000720151
-0.00102354
-0.000238457
-0.000908807
0.000135215
-0.000685369
0.000633244
-0.000656174
0.00115028
-0.00075656
0.00158971
-0.000604037
0.00195379
-0.000514577
0.00239259
-0.000605804
0.00282617
-0.000626178
0.00315868
-0.000480412
0.0034206
-0.000374474
0.00372608
-0.00043136
0.00403711
-0.000431438
0.00428953
-0.00038597
0.00455525
-0.000370155
0.00473881
-0.000282571
0.00490023
-0.0002165
0.00497212
-0.000124794
0.00500952
-5.27746e-05
0.00498774
2.96574e-05
0.00488691
0.000111263
0.00478695
0.000133839
0.00461012
0.00021358
0.00442759
0.0002496
0.00416192
0.000344944
0.00388926
0.000360025
0.00357315
0.000424212
0.00319398
0.000480022
0.00285611
0.000482463
0.00246923
0.000469548
0.00211771
0.000485773
0.00160488
0.000628773
0.00114529
0.000681613
0.000581702
0.000681567
0.000139604
0.00070953
-0.000306738
0.000644329
-0.000597699
0.000609664
-0.00108641
0.000916364
-0.0016576
0.000863056
-0.00207361
0.000701119
-0.00245935
0.000654177
-0.00291459
0.00079816
-0.00339796
0.000832026
-0.00379605
0.000747082
-0.00411447
0.0005845
-0.00445301
0.000597809
-0.00479431
0.000597703
-0.00508117
0.000510693
-0.00537542
0.000453491
-0.00564505
0.00039308
-0.00601776
0.000516985
-0.00629824
0.000471191
-0.00665544
0.000524374
-0.00695368
0.000538202
-0.00737639
0.000634246
-0.00768508
0.000561978
-0.00807309
0.000621873
-0.00837254
0.000555802
-0.00870503
0.000581509
-0.00897465
0.000522218
-0.00924285
0.000520152
-0.00946863
0.000464239
-0.00966882
0.000448904
-0.00984581
0.000412097
-0.00998234
0.000370397
-0.0101099
0.00033066
-0.0101942
0.000258622
-0.0102776
0.000184164
-0.0103179
8.6183e-05
-0.0103392
4.78686e-06
-0.0102699
-0.000105092
-0.0102007
-0.000232289
-0.0100299
-0.000370339
-0.00983038
-0.000541334
-0.00955136
-0.000660498
-0.00919916
-0.000754894
-0.00876259
-0.000801976
-0.00832487
-0.000827719
-0.0078237
-0.000925435
-0.00729592
-0.000974467
-0.00673442
-0.00107443
-0.00603753
-0.0012355
-0.00533866
-0.00136431
-0.0044905
-0.00146035
-0.00383707
-0.00120372
-0.00307478
-0.00116111
-0.00247485
-0.00106408
-0.00196634
-0.00101412
-0.00144996
-0.00107225
-0.000994437
-0.0009069
-0.000602764
-0.000755809
-0.000220777
-0.000721072
0.000106192
-0.000566017
0.000368371
-0.000465344
0.00064639
-0.000364111
0.00088946
-0.000336101
0.00107057
-0.000264849
0.00123387
-0.000223612
0.0013397
-0.000165538
0.00143174
-0.000133037
0.00146789
-7.54038e-05
0.00148423
-4.0779e-05
0.00147516
-8.27536e-06
0.00143135
2.8749e-05
0.00137784
5.4682e-05
0.00127449
0.000110889
0.00116339
0.000125991
0.00102813
0.000143721
0.00089446
0.000138808
0.000766769
0.00013684
0.000580735
0.000194075
0.000364961
0.00026718
0.000135928
0.000286678
-5.32105e-05
0.000313651
-0.000263734
0.00036251
-0.000435635
0.000314711
-0.000606431
0.000268151
-0.000760497
0.000280158
-0.000932772
0.000315131
-0.00112488
0.000361827
-0.00133208
0.000386631
-0.00154776
0.000404161
-0.00179654
0.000438517
-0.00217514
0.000526436
-0.00239148
0.000428756
-0.00265183
0.000429219
-0.00287666
0.000423654
-0.00311145
0.000416603
-0.00328513
0.000351951
-0.00343558
0.00029106
-0.00355748
0.000221359
-0.00372159
0.000255526
-0.00386444
0.000248648
-0.00399588
0.000225245
-0.00412263
0.000209757
-0.0042692
0.000235792
-0.00440013
0.000229177
-0.00451696
0.00021462
-0.00461971
0.000179098
-0.0047348
0.000179861
-0.0048536
0.000174167
-0.00499001
0.000214366
-0.00510515
0.000210277
-0.00523118
0.000229125
-0.00533205
0.000203423
-0.00544267
0.0002222
-0.00553212
0.000196519
-0.0056289
0.000198651
-0.00570892
0.000163107
-0.00578357
0.000163591
-0.00584977
0.000131713
-0.00589971
0.000121661
-0.00594331
9.82262e-05
-0.00597736
8.12672e-05
-0.00600527
6.15538e-05
-0.00601505
3.41097e-05
-0.00600634
4.14519e-06
-0.0059831
-3.18304e-05
-0.00592831
-8.60152e-05
-0.00586291
-0.000130477
-0.00574876
-0.000205658
-0.00563197
-0.000274336
-0.00544456
-0.000381791
-0.00522857
-0.000442501
-0.00496521
-0.000508117
-0.00468633
-0.000511643
-0.00440088
-0.00055228
-0.0040231
-0.000645352
-0.00371092
-0.000578779
-0.0033862
-0.000567871
-0.00307824
-0.000625582
-0.00250193
-0.000814016
-0.00208529
-0.000830106
-0.00163684
-0.000878971
-0.00124364
-0.000835535
-0.000828093
-0.000796065
-0.000514079
-0.000647164
-0.000295754
-0.000441131
-7.68222e-05
-0.000361883
0.000119268
-0.000353645
0.000314302
-0.000275486
0.000456154
-0.000193362
0.000657302
-0.000234378
0.0008566
-0.000253277
0.00103688
-0.000215718
0.00119154
-0.000197623
0.00131525
-0.00013673
0.00146458
-0.000174864
0.00159664
-0.000167329
0.00170715
-0.00012391
0.00179961
-0.000115224
0.00188011
-7.83492e-05
0.00192843
-5.83612e-05
0.0019614
-2.11934e-05
0.00196422
1.60443e-05
0.0019472
3.69962e-05
0.00191368
6.01504e-05
0.00186678
7.07958e-05
0.00179377
0.000109108
0.00171829
0.000105302
0.00165106
9.27575e-05
0.00156696
0.000104667
0.00144646
0.000157865
0.0012919
0.000201656
0.00114982
0.000180066
0.00102254
0.000149319
0.000894963
0.000147241
0.000796145
0.000106101
0.000678307
0.000126814
0.000496322
0.000233366
0.000281022
0.000260798
0.000126431
0.000241221
-1.32535e-05
0.000212917
-0.000108362
0.000164596
-0.000198329
0.000149692
-0.000297827
0.000198777
-0.000430672
0.000235106
-0.000540349
0.000218101
-0.000701506
0.000288602
-0.000879606
0.000389673
-0.00111504
0.000478419
0.000477419
-0.000444475
-3.13555e-05
-0.00090807
8.43352e-05
-0.00172917
0.00051553
-0.00238758
0.000639322
-0.00337875
0.000963891
-0.00421853
0.000956933
-0.00524389
0.00105952
-0.00614596
0.00109978
-0.00725256
0.00129214
-0.00815459
0.00122302
-0.00922698
0.00132524
-0.0101419
0.00127096
-0.011197
0.00139319
-0.0120959
0.00131442
-0.0130992
0.00136894
-0.0139645
0.0012956
-0.0149139
0.00134347
-0.015755
0.00126553
-0.0166514
0.00127582
-0.0174387
0.00120093
-0.0182623
0.00117264
-0.0190053
0.00110427
-0.0198099
0.00112556
-0.0205528
0.00110863
-0.0213648
0.00114817
-0.0220741
0.00109604
-0.0228797
0.0011615
-0.0235862
0.00111122
-0.0244052
0.00121626
-0.0251242
0.00116018
-0.0259472
0.00127496
-0.0266653
0.00126299
-0.0274899
0.00138208
-0.0282473
0.00137084
-0.0290561
0.0014562
-0.0298025
0.00145131
-0.0306371
0.00153484
-0.0313565
0.00150863
-0.032109
0.0015373
-0.0328254
0.00154176
-0.033502
0.00147304
-0.0341445
0.00143752
-0.0347571
0.00135229
-0.0353278
0.00126905
-0.0357908
0.00111785
-0.0362754
0.00102473
-0.0365872
0.000744038
-0.0369657
0.000540235
-0.0372212
0.000254193
-0.037449
-3.05208e-05
-0.0375918
-0.000302872
-0.0376406
-0.000581561
-0.0376208
-0.000826271
-0.0374813
-0.00108235
-0.0372962
-0.00121759
-0.0369492
-0.00145469
-0.0365215
-0.00153447
-0.0359851
-0.00169867
-0.0354595
-0.00187332
-0.0347636
-0.00214878
-0.0340446
-0.00232847
-0.0332927
-0.00236889
-0.0323987
-0.00241948
-0.0315702
-0.00239188
-0.030642
-0.00246054
-0.0297632
-0.00255304
-0.0287761
-0.002708
-0.0278415
-0.00272339
-0.0268221
-0.00273856
-0.0259283
-0.00263552
-0.0249523
-0.00260362
-0.0241471
-0.00244781
-0.0232262
-0.00238721
-0.0225075
-0.0021902
-0.0217021
-0.0020984
-0.0211702
-0.0018251
-0.0204933
-0.00169492
-0.020223
-0.00128329
-0.0198387
-0.00125559
-0.0198205
-0.000906607
-0.0197384
-0.000816598
-0.0199985
-0.000404482
-0.0201526
-0.000299328
-0.0208196
0.000381612
-0.0212351
0.000610922
-0.022242
0.00137574
-0.0230031
0.00159357
-0.0244098
0.00233559
-0.0255086
0.00265228
-0.0269724
0.0031954
-0.0288867
0.0036987
-0.0300127
0.00368956
-0.0323585
0.00425798
-0.0338642
0.00449009
-0.0360354
0.00541965
-0.0377374
0.0054627
-0.0398954
0.00577797
-0.0415008
0.00576951
-0.0433389
0.00579332
-0.0448241
0.00549469
-0.0461286
0.00511244
-0.0473139
0.00466036
-0.0478924
0.00381923
-0.0486079
0.00312383
-0.0488364
0.00220177
-0.0490255
0.00122999
-0.0490385
0.000309601
-0.0488034
-0.000559426
-0.0486139
-0.0013877
-0.0477036
-0.00242609
-0.0469168
-0.00300597
-0.0454587
-0.00392074
-0.0436253
-0.00466225
-0.0416003
-0.00547375
-0.0387705
-0.00651716
-0.0362793
-0.00672972
-0.0334236
-0.00660552
-0.0313224
-0.00577611
-0.0289325
-0.00629424
-0.0266342
-0.00670411
-0.0238707
-0.00694142
-0.0217542
-0.00596161
-0.0193904
-0.00612323
-0.017346
-0.00582368
-0.0151894
-0.00576155
-0.0133625
-0.0052523
-0.0112618
-0.0056645
-0.0093783
-0.00542128
-0.00769023
-0.00477194
-0.00604159
-0.0048903
-0.00433777
-0.00459979
-0.00294881
-0.00441892
-0.00153446
-0.0039599
-0.000423224
-0.00330025
0.000662689
-0.00295366
0.00158289
-0.00243303
0.00247604
-0.00216227
0.00327043
-0.00179434
0.00400246
-0.00152133
0.00453649
-0.00120271
0.00502131
-0.000982292
0.00528566
-0.000661302
0.00551067
-0.000473718
0.00557839
-0.000247286
0.00555798
-9.07218e-05
0.00549028
5.49033e-06
0.00533552
7.92644e-05
0.00520439
6.62864e-05
0.00505327
0.000150473
0.0048293
0.000337886
0.00449646
0.000492643
0.00411952
0.000556162
0.00378251
0.000457059
0.00347766
0.000302444
0.00327211
0.000154282
0.00307409
7.32055e-05
0.00294229
0.000130395
0.00264266
0.000443443
0.00222091
0.000546184
0.00186955
0.000471188
0.0014394
0.000714588
0.000916921
0.000884511
0.000412829
0.00101261
-0.000247656
0.00135647
-0.000860795
0.00138368
-0.00171522
0.0018525
-0.00263397
0.00210732
-0.00370898
0.00245963
-0.00496675
0.00287386
-0.00623452
0.00303811
-0.00759754
0.00319975
-0.00888398
0.00335417
-0.010309
0.00342761
-0.0114985
0.00337549
-0.0127924
0.00330888
-0.0137837
0.00313121
-0.0148249
0.00295092
-0.0155578
0.00258402
-0.0161024
0.002157
-0.0164592
0.00156704
-0.0167268
0.00100385
-0.0168381
0.000430541
-0.0168335
-9.64966e-05
-0.0164861
-0.000890523
-0.0159508
-0.0017545
-0.014956
-0.00268958
-0.0136912
-0.0035566
-0.0121918
-0.00420965
-0.0104925
-0.00469222
-0.00873352
-0.00507249
-0.00688513
-0.00523987
-0.00532373
-0.004585
-0.00378685
-0.00431783
-0.00232592
-0.00413454
-0.000881964
-0.00381661
0.000510329
-0.00316221
0.00184187
-0.00305637
0.00347357
-0.00344284
0.00503067
-0.003159
0.00667886
-0.00337168
0.00804613
-0.00272782
0.00952616
-0.00291384
0.0106752
-0.00238898
0.0118949
-0.00246314
0.0129195
-0.00205093
0.0139069
-0.00208016
0.0147867
-0.00174399
0.0154919
-0.00158688
0.0160866
-0.00118728
0.0164616
-0.000865116
0.016774
-0.00049342
0.0169128
-0.000200146
0.0168742
8.31628e-05
0.0166643
0.000407881
0.0162552
0.000743771
0.0158215
0.000940733
0.0150596
0.00132448
0.0144002
0.00141929
0.013464
0.0016988
0.0124211
0.00194054
0.0111587
0.00206755
0.0101803
0.00184666
0.00936001
0.00202664
0.00782051
0.0023397
0.00658
0.00173502
0.00562467
0.00135147
0.00501564
0.00166535
0.00347904
0.00250154
0.00227894
0.00195569
0.00136218
0.0015525
0.00076752
0.00186569
-0.000459066
0.00252889
-0.00144856
0.00216407
-0.00222984
0.00182459
-0.00284175
0.00191345
-0.00379072
0.00222977
-0.00460678
0.00186241
-0.00525123
0.00152845
-0.00573561
0.0015496
-0.0064211
0.00163842