/*--------------------------------*- C++ -*----------------------------------*\
| =========                 |                                                 |
| \\      /  F ield         | OpenFOAM: The Open Source CFD Toolbox           |
|  \\    /   O peration     | Version:  v1812                                 |
|   \\  /    A nd           | Web:      www.OpenFOAM.com                      |
|    \\/     M anipulation  |                                                 |
\*---------------------------------------------------------------------------*/
FoamFile
{
    version     2.0;
    format      ascii;
    class       volScalarField;
    location    "1.5";
    object      T;
}
// * * * * * * * * * * * * * * * * * * * * * * * * * * * * * * * * * * * * * //

dimensions      [0 0 0 1 0 0 0];


internalField   nonuniform List<scalar> 
20400
(
292.524
292.525
292.531
292.545
292.569
292.598
292.636
292.676
292.721
292.761
292.802
292.837
292.871
292.9
292.928
292.953
292.977
292.996
293.014
293.025
293.039
293.054
293.076
293.103
293.13
293.155
293.178
293.197
293.212
293.225
293.241
293.265
293.292
293.32
293.347
293.372
293.391
293.409
293.418
293.432
293.442
293.463
293.477
293.496
293.508
293.515
293.526
293.541
293.557
293.578
293.598
293.62
293.637
293.656
293.669
293.697
293.729
293.769
293.79
293.803
293.799
293.812
293.834
293.868
293.887
293.913
293.933
293.968
293.994
294.029
294.055
294.087
294.112
294.132
294.139
294.142
294.14
294.138
294.138
294.131
294.124
294.1
294.081
294.057
294.039
294.015
293.986
293.95
293.899
293.832
293.725
293.676
293.653
293.659
293.632
293.588
293.546
293.5
293.47
293.436
293.443
293.421
293.385
293.336
293.287
293.251
293.222
293.211
293.19
293.185
293.143
293.144
293.13
293.133
293.129
293.146
293.153
293.15
293.151
293.149
293.137
293.141
293.129
293.124
293.11
293.1
293.09
293.091
293.082
293.08
293.077
293.079
293.074
293.076
293.069
293.072
293.067
293.069
293.06
293.045
293.022
292.986
292.943
292.893
292.842
292.792
292.746
292.707
292.674
292.645
292.616
292.588
292.557
292.531
292.516
292.511
292.512
292.514
292.514
292.522
292.543
292.572
292.612
292.653
292.707
292.76
292.815
292.871
292.928
292.989
293.05
293.111
293.167
293.213
293.253
293.287
293.321
293.354
293.393
293.433
293.475
293.517
293.549
293.576
293.613
293.647
293.702
293.758
293.816
293.862
293.894
293.908
293.906
293.913
293.902
293.896
293.892
293.897
293.892
293.903
293.914
293.912
293.913
293.911
293.913
293.901
293.881
293.841
293.791
293.719
293.633
293.528
293.422
293.326
293.254
293.21
293.186
293.181
293.179
293.182
293.181
293.198
293.23
293.263
293.293
293.34
293.4
293.453
293.494
293.539
293.609
293.673
293.734
293.773
293.809
293.828
293.832
293.838
293.845
293.851
293.85
293.851
293.845
293.84
293.835
293.835
293.83
293.826
293.817
293.81
293.798
293.785
293.77
293.753
293.735
293.713
293.69
293.664
293.638
293.615
293.593
293.577
293.565
293.56
293.556
293.557
293.553
293.549
293.544
293.539
293.538
293.54
293.552
293.568
293.585
293.591
293.605
293.628
293.667
293.712
293.775
293.838
293.915
293.991
294.06
294.122
294.178
294.231
294.274
294.307
294.329
294.346
294.355
294.359
294.36
294.358
294.35
294.333
294.306
294.271
294.229
294.179
294.121
294.05
293.974
293.89
293.805
293.716
293.635
293.557
293.483
293.414
293.347
293.294
293.244
293.207
293.168
293.127
293.075
293.028
292.983
292.947
292.926
292.915
292.914
292.912
292.914
292.91
292.907
292.903
292.902
292.901
292.902
292.902
292.904
292.907
292.911
292.919
292.927
292.939
292.95
292.964
292.977
292.991
293.004
293.017
293.03
293.043
293.052
293.059
293.071
293.08
293.091
293.096
293.097
293.097
293.099
293.101
293.104
293.103
293.105
293.112
293.117
293.121
293.119
293.12
293.119
293.123
293.127
293.137
293.146
293.15
293.149
293.152
293.154
293.151
293.143
293.128
293.111
293.096
293.085
293.08
293.079
293.079
293.079
293.08
293.08
293.082
293.085
293.088
293.089
293.088
293.09
293.094
293.096
293.101
293.107
293.11
293.112
293.112
293.112
293.109
293.111
293.111
293.112
293.114
293.119
293.128
293.138
293.151
293.165
293.179
293.191
293.204
293.216
293.228
293.239
293.251
293.262
293.274
293.285
293.297
293.307
293.316
293.324
293.332
293.338
293.346
293.353
293.36
293.368
293.374
293.381
293.386
293.391
293.394
293.396
293.398
293.399
293.398
293.401
293.406
293.414
293.421
293.425
293.428
293.427
293.43
293.429
293.432
293.428
293.427
293.428
293.433
293.436
293.438
293.438
293.435
293.428
293.42
293.409
293.398
293.39
293.382
293.374
293.364
293.353
293.343
293.332
293.32
293.307
293.294
293.279
293.262
293.246
293.232
293.221
293.214
293.21
293.21
293.211
293.213
293.214
293.214
293.215
293.215
293.218
293.223
293.226
293.224
293.221
293.216
293.211
293.207
293.203
293.201
293.198
293.196
293.194
293.192
292.525
292.524
292.532
292.547
292.568
292.6
292.634
292.677
292.719
292.763
292.8
292.838
292.87
292.9
292.924
292.948
292.971
292.989
293.012
293.018
293.034
293.04
293.071
293.09
293.129
293.144
293.173
293.183
293.211
293.212
293.233
293.244
293.289
293.301
293.342
293.351
293.388
293.389
293.413
293.413
293.432
293.439
293.468
293.472
293.493
293.491
293.508
293.516
293.54
293.553
293.58
293.595
293.621
293.627
293.653
293.663
293.71
293.729
293.782
293.777
293.803
293.792
293.828
293.842
293.892
293.896
293.933
293.947
293.996
294.016
294.06
294.075
294.116
294.126
294.14
294.137
294.139
294.134
294.135
294.134
294.118
294.103
294.077
294.055
294.035
294.013
293.976
293.943
293.888
293.816
293.735
293.653
293.667
293.649
293.621
293.573
293.539
293.486
293.459
293.415
293.428
293.381
293.371
293.287
293.257
293.209
293.187
293.171
293.175
293.137
293.125
293.071
293.067
293.051
293.059
293.058
293.092
293.074
293.088
293.076
293.093
293.079
293.089
293.083
293.089
293.076
293.077
293.07
293.073
293.068
293.069
293.067
293.069
293.064
293.07
293.063
293.067
293.06
293.051
293.039
293.013
292.984
292.938
292.892
292.84
292.791
292.746
292.706
292.675
292.647
292.62
292.593
292.563
292.538
292.521
292.516
292.515
292.518
292.521
292.525
292.544
292.575
292.607
292.656
292.705
292.762
292.815
292.872
292.93
292.99
293.054
293.115
293.173
293.222
293.259
293.298
293.329
293.365
293.4
293.439
293.481
293.518
293.549
293.569
293.593
293.625
293.687
293.753
293.817
293.877
293.904
293.923
293.922
293.916
293.932
293.925
293.932
293.92
293.916
293.916
293.923
293.928
293.924
293.929
293.919
293.919
293.888
293.87
293.801
293.753
293.653
293.566
293.439
293.351
293.26
293.217
293.19
293.18
293.184
293.183
293.186
293.199
293.23
293.27
293.301
293.338
293.399
293.456
293.488
293.521
293.578
293.661
293.708
293.762
293.795
293.82
293.836
293.84
293.847
293.854
293.857
293.855
293.849
293.843
293.837
293.837
293.832
293.828
293.818
293.811
293.797
293.785
293.767
293.751
293.731
293.712
293.687
293.664
293.636
293.614
293.587
293.573
293.552
293.549
293.543
293.545
293.539
293.536
293.533
293.537
293.535
293.536
293.547
293.561
293.575
293.596
293.606
293.634
293.666
293.716
293.767
293.829
293.899
293.968
294.046
294.097
294.165
294.207
294.26
294.282
294.318
294.329
294.345
294.347
294.351
294.349
294.343
294.324
294.3
294.267
294.227
294.18
294.123
294.055
293.982
293.893
293.815
293.72
293.651
293.562
293.498
293.413
293.351
293.288
293.239
293.201
293.172
293.125
293.08
293.03
292.991
292.953
292.934
292.922
292.922
292.92
292.921
292.915
292.915
292.909
292.908
292.905
292.908
292.907
292.909
292.91
292.915
292.92
292.928
292.939
292.951
292.963
292.978
292.99
293.004
293.017
293.029
293.04
293.049
293.056
293.068
293.077
293.088
293.091
293.095
293.093
293.096
293.098
293.103
293.106
293.108
293.114
293.121
293.126
293.133
293.131
293.134
293.132
293.14
293.142
293.149
293.151
293.154
293.155
293.156
293.155
293.146
293.133
293.114
293.097
293.085
293.079
293.078
293.078
293.078
293.078
293.079
293.081
293.085
293.087
293.087
293.085
293.088
293.091
293.092
293.096
293.099
293.105
293.104
293.107
293.105
293.109
293.109
293.11
293.109
293.114
293.119
293.127
293.137
293.152
293.166
293.18
293.192
293.205
293.216
293.228
293.239
293.252
293.262
293.275
293.285
293.298
293.307
293.317
293.324
293.332
293.338
293.346
293.352
293.36
293.366
293.374
293.38
293.385
293.39
293.394
293.396
293.397
293.398
293.397
293.4
293.404
293.413
293.42
293.425
293.428
293.432
293.431
293.432
293.43
293.435
293.433
293.438
293.441
293.446
293.445
293.445
293.44
293.434
293.425
293.412
293.402
293.393
293.387
293.378
293.369
293.357
293.349
293.335
293.326
293.311
293.3
293.283
293.268
293.25
293.236
293.223
293.215
293.212
293.211
293.212
293.214
293.216
293.216
293.216
293.217
293.219
293.224
293.227
293.226
293.222
293.217
293.211
293.208
293.204
293.204
293.199
293.199
293.195
293.194
292.523
292.528
292.535
292.55
292.571
292.598
292.635
292.675
292.721
292.76
292.802
292.836
292.87
292.897
292.919
292.939
292.957
292.979
292.994
293.014
293.013
293.028
293.033
293.083
293.094
293.141
293.141
293.174
293.178
293.208
293.201
293.23
293.238
293.294
293.298
293.343
293.347
293.377
293.38
293.397
293.393
293.422
293.42
293.451
293.451
293.455
293.458
293.482
293.485
293.52
293.526
293.559
293.567
293.59
293.59
293.619
293.625
293.689
293.694
293.766
293.762
293.788
293.776
293.826
293.844
293.904
293.901
293.947
293.972
294.022
294.043
294.091
294.105
294.133
294.133
294.142
294.133
294.139
294.132
294.132
294.12
294.101
294.079
294.06
294.034
294.009
293.968
293.932
293.879
293.815
293.716
293.678
293.642
293.653
293.622
293.578
293.538
293.515
293.466
293.426
293.378
293.374
293.261
293.248
293.153
293.141
293.111
293.098
293.093
293.082
293.02
293.022
292.968
293
292.964
292.995
292.978
293.003
292.978
293.001
292.981
293.006
292.983
293.01
293.006
293.022
293.012
293.023
293.014
293.025
293.026
293.025
293.03
293.031
293.03
293.034
293.03
293.025
293.018
293.002
292.992
292.955
292.927
292.878
292.833
292.784
292.741
292.705
292.675
292.65
292.629
292.605
292.582
292.558
292.543
292.532
292.533
292.534
292.537
292.537
292.551
292.572
292.609
292.653
292.708
292.758
292.816
292.865
292.924
292.981
293.041
293.104
293.162
293.214
293.26
293.294
293.335
293.362
293.409
293.44
293.488
293.519
293.551
293.578
293.572
293.629
293.673
293.766
293.831
293.91
293.962
293.986
293.984
293.985
293.996
294.004
293.995
293.983
293.98
293.974
293.98
293.976
293.98
293.963
293.98
293.954
293.959
293.905
293.895
293.805
293.785
293.641
293.579
293.384
293.337
293.228
293.211
293.194
293.196
293.191
293.204
293.209
293.232
293.27
293.324
293.351
293.384
293.434
293.49
293.491
293.527
293.593
293.688
293.699
293.739
293.78
293.818
293.81
293.817
293.832
293.844
293.837
293.836
293.828
293.83
293.826
293.828
293.82
293.819
293.805
293.8
293.779
293.767
293.739
293.725
293.696
293.682
293.647
293.635
293.596
293.586
293.545
293.541
293.522
293.529
293.518
293.525
293.512
293.517
293.513
293.518
293.511
293.522
293.533
293.558
293.56
293.582
293.603
293.642
293.679
293.723
293.775
293.826
293.92
293.955
294.05
294.07
294.156
294.164
294.229
294.237
294.285
294.288
294.311
294.311
294.316
294.308
294.296
294.273
294.251
294.215
294.179
294.127
294.077
293.992
293.935
293.817
293.778
293.661
293.634
293.501
293.456
293.346
293.295
293.235
293.197
293.167
293.142
293.089
293.055
292.998
292.986
292.943
292.943
292.926
292.929
292.918
292.922
292.916
292.917
292.911
292.912
292.911
292.914
292.913
292.917
292.917
292.924
292.93
292.941
292.952
292.966
292.978
292.992
293.004
293.016
293.026
293.036
293.043
293.059
293.066
293.086
293.09
293.103
293.099
293.105
293.102
293.109
293.112
293.123
293.12
293.128
293.136
293.143
293.143
293.149
293.147
293.151
293.149
293.154
293.161
293.159
293.164
293.165
293.167
293.164
293.161
293.143
293.128
293.101
293.084
293.076
293.073
293.074
293.074
293.074
293.075
293.077
293.081
293.082
293.083
293.08
293.078
293.079
293.084
293.084
293.088
293.091
293.098
293.096
293.1
293.1
293.104
293.101
293.108
293.109
293.12
293.123
293.135
293.147
293.165
293.173
293.191
293.199
293.216
293.222
293.237
293.243
293.261
293.268
293.286
293.291
293.308
293.314
293.325
293.329
293.337
293.342
293.352
293.355
293.364
293.37
293.377
293.383
293.387
293.393
293.394
293.399
293.398
293.4
293.398
293.406
293.413
293.425
293.426
293.434
293.435
293.438
293.436
293.439
293.437
293.441
293.443
293.452
293.46
293.464
293.461
293.456
293.455
293.443
293.432
293.417
293.414
293.402
293.4
293.382
293.379
293.364
293.361
293.34
293.336
293.314
293.308
293.284
293.271
293.246
293.235
293.222
293.218
293.217
293.218
293.219
293.221
293.221
293.223
293.222
293.223
293.227
293.232
293.229
293.227
293.22
293.214
293.21
293.21
293.207
293.21
293.204
293.202
293.197
292.524
292.526
292.544
292.558
292.586
292.605
292.64
292.68
292.719
292.759
292.801
292.837
292.87
292.894
292.915
292.932
292.949
292.961
292.988
292.992
293.005
293.001
293.023
293.024
293.084
293.089
293.133
293.13
293.164
293.169
293.188
293.176
293.215
293.223
293.281
293.281
293.326
293.326
293.349
293.352
293.364
293.366
293.385
293.387
293.393
293.391
293.397
293.398
293.427
293.428
293.469
293.475
293.497
293.5
293.5
293.504
293.532
293.538
293.624
293.636
293.714
293.716
293.716
293.726
293.808
293.837
293.912
293.941
293.985
294.015
294.052
294.078
294.112
294.128
294.14
294.134
294.138
294.132
294.134
294.13
294.119
294.107
294.09
294.068
294.042
294.011
293.976
293.931
293.886
293.803
293.74
293.665
293.656
293.623
293.623
293.589
293.574
293.523
293.495
293.421
293.373
293.238
293.221
293.084
293.067
293.024
293.023
292.998
293.032
292.979
293.003
292.957
292.982
292.928
292.963
292.885
292.902
292.884
292.903
292.865
292.889
292.87
292.898
292.879
292.902
292.897
292.913
292.906
292.921
292.912
292.922
292.922
292.924
292.924
292.928
292.934
292.931
292.931
292.922
292.925
292.908
292.902
292.867
292.851
292.805
292.768
292.728
292.7
292.671
292.654
292.633
292.623
292.605
292.599
292.58
292.578
292.566
292.568
292.567
292.568
292.569
292.589
292.61
292.659
292.703
292.759
292.807
292.856
292.904
292.952
293.005
293.065
293.122
293.19
293.228
293.288
293.303
293.352
293.373
293.44
293.46
293.511
293.544
293.539
293.591
293.589
293.683
293.769
293.878
293.957
294.045
294.094
294.082
294.105
294.12
294.128
294.115
294.108
294.09
294.097
294.078
294.099
294.076
294.082
294.051
294.076
294.037
294.043
293.986
293.987
293.911
293.894
293.694
293.656
293.386
293.368
293.243
293.239
293.234
293.233
293.228
293.259
293.236
293.274
293.327
293.382
293.369
293.4
293.453
293.5
293.488
293.524
293.592
293.663
293.651
293.689
293.735
293.761
293.754
293.761
293.782
293.79
293.784
293.784
293.784
293.787
293.784
293.786
293.78
293.779
293.764
293.757
293.73
293.718
293.682
293.678
293.637
293.633
293.585
293.581
293.528
293.522
293.486
293.486
293.476
293.481
293.47
293.473
293.464
293.468
293.46
293.459
293.457
293.473
293.483
293.496
293.495
293.523
293.555
293.579
293.612
293.63
293.715
293.737
293.842
293.845
293.961
293.963
294.031
294.037
294.115
294.128
294.193
294.194
294.229
294.228
294.231
294.221
294.22
294.199
294.197
294.162
294.136
294.083
294.047
293.949
293.913
293.774
293.781
293.65
293.65
293.467
293.423
293.291
293.265
293.205
293.189
293.161
293.155
293.089
293.07
293.003
293.003
292.965
292.962
292.935
292.933
292.923
292.924
292.915
292.915
292.912
292.914
292.913
292.915
292.914
292.918
292.921
292.93
292.938
292.951
292.963
292.979
292.991
293.005
293.015
293.025
293.033
293.047
293.052
293.071
293.084
293.108
293.113
293.131
293.126
293.136
293.126
293.145
293.151
293.161
293.161
293.169
293.165
293.169
293.175
293.177
293.179
293.177
293.178
293.18
293.184
293.183
293.188
293.186
293.189
293.182
293.177
293.141
293.115
293.086
293.074
293.068
293.066
293.064
293.064
293.065
293.068
293.068
293.071
293.071
293.068
293.063
293.062
293.065
293.072
293.069
293.074
293.075
293.086
293.085
293.087
293.085
293.092
293.096
293.112
293.114
293.125
293.129
293.146
293.154
293.173
293.176
293.196
293.201
293.221
293.222
293.24
293.243
293.263
293.267
293.287
293.292
293.312
293.318
293.33
293.337
293.344
293.346
293.355
293.357
293.367
293.372
293.376
293.382
293.383
293.391
293.391
293.398
293.394
293.4
293.402
293.414
293.422
293.434
293.436
293.44
293.439
293.441
293.441
293.441
293.442
293.451
293.467
293.478
293.489
293.489
293.49
293.49
293.485
293.465
293.461
293.448
293.447
293.43
293.427
293.41
293.41
293.394
293.391
293.365
293.364
293.341
293.339
293.301
293.294
293.254
293.247
293.232
293.232
293.23
293.231
293.232
293.233
293.234
293.236
293.233
293.237
293.238
293.241
293.238
293.234
293.227
293.223
293.218
293.221
293.22
293.22
293.209
293.208
292.526
292.533
292.545
292.567
292.588
292.624
292.646
292.697
292.717
292.772
292.804
292.857
292.873
292.903
292.914
292.936
292.949
292.967
292.969
292.987
292.987
293
292.992
293.016
293.015
293.076
293.081
293.115
293.115
293.14
293.146
293.145
293.149
293.193
293.203
293.252
293.262
293.283
293.292
293.298
293.303
293.31
293.311
293.312
293.312
293.305
293.3
293.303
293.304
293.337
293.338
293.368
293.371
293.376
293.372
293.381
293.375
293.409
293.413
293.547
293.56
293.611
293.599
293.631
293.647
293.794
293.825
293.934
293.95
294.009
294.03
294.077
294.102
294.127
294.134
294.133
294.134
294.132
294.133
294.129
294.123
294.11
294.102
294.076
294.053
294.016
293.986
293.94
293.89
293.82
293.745
293.692
293.645
293.635
293.602
293.616
293.547
293.514
293.41
293.382
293.217
293.187
293.015
292.983
292.911
292.901
292.896
292.91
292.866
292.913
292.882
292.909
292.886
292.924
292.823
292.803
292.717
292.761
292.697
292.703
292.69
292.709
292.689
292.701
292.697
292.707
292.702
292.713
292.714
292.719
292.719
292.72
292.726
292.723
292.732
292.731
292.745
292.745
292.747
292.749
292.76
292.748
292.765
292.759
292.754
292.721
292.706
292.677
292.669
292.646
292.636
292.628
292.634
292.632
292.641
292.631
292.624
292.61
292.616
292.615
292.616
292.617
292.642
292.66
292.716
292.754
292.806
292.838
292.88
292.91
292.958
292.993
293.067
293.11
293.2
293.225
293.294
293.293
293.362
293.364
293.435
293.465
293.461
293.515
293.513
293.61
293.671
293.785
293.877
294.011
294.114
294.152
294.204
294.237
294.293
294.276
294.278
294.252
294.275
294.249
294.268
294.239
294.246
294.208
294.24
294.201
294.212
294.171
294.198
294.147
294.149
294.058
294.035
293.776
293.758
293.466
293.437
293.314
293.325
293.284
293.294
293.292
293.308
293.275
293.325
293.362
293.397
293.381
293.407
293.456
293.497
293.473
293.503
293.556
293.602
293.587
293.616
293.655
293.674
293.666
293.678
293.691
293.703
293.699
293.701
293.699
293.704
293.704
293.707
293.702
293.701
293.681
293.674
293.646
293.642
293.604
293.605
293.552
293.552
293.491
293.49
293.435
293.428
293.403
293.41
293.396
293.396
293.38
293.381
293.368
293.359
293.347
293.348
293.348
293.347
293.344
293.351
293.37
293.388
293.4
293.398
293.443
293.464
293.541
293.539
293.651
293.66
293.751
293.741
293.803
293.82
293.935
293.954
294.035
294.044
294.08
294.079
294.101
294.103
294.132
294.132
294.144
294.122
294.1
294.05
294.015
293.92
293.896
293.773
293.792
293.676
293.673
293.449
293.417
293.284
293.283
293.243
293.247
293.22
293.214
293.122
293.112
293.051
293.056
293.003
292.994
292.961
292.96
292.938
292.931
292.919
292.92
292.916
292.918
292.916
292.918
292.917
292.923
292.928
292.939
292.95
292.964
292.978
292.993
293.004
293.016
293.023
293.034
293.038
293.053
293.064
293.087
293.107
293.144
293.153
293.173
293.159
293.18
293.187
293.2
293.202
293.21
293.206
293.201
293.205
293.211
293.217
293.213
293.214
293.211
293.217
293.214
293.22
293.216
293.222
293.22
293.224
293.197
293.174
293.121
293.094
293.076
293.065
293.058
293.054
293.047
293.047
293.046
293.048
293.047
293.048
293.046
293.043
293.037
293.043
293.044
293.052
293.047
293.056
293.058
293.065
293.063
293.063
293.063
293.087
293.097
293.115
293.12
293.13
293.134
293.148
293.152
293.171
293.171
293.191
293.193
293.214
293.216
293.23
293.232
293.248
293.25
293.278
293.28
293.315
293.319
293.335
293.336
293.345
293.345
293.355
293.356
293.363
293.367
293.364
293.371
293.371
293.384
293.384
293.395
293.395
293.405
293.412
293.427
293.435
293.439
293.438
293.441
293.442
293.44
293.439
293.442
293.455
293.471
293.495
293.508
293.526
293.531
293.546
293.536
293.534
293.517
293.516
293.499
293.498
293.479
293.477
293.463
293.467
293.447
293.446
293.417
293.416
293.394
293.389
293.344
293.331
293.274
293.274
293.253
293.253
293.252
293.255
293.253
293.258
293.257
293.256
293.251
293.256
293.257
293.258
293.255
293.256
293.247
293.242
293.228
293.236
293.226
293.226
293.214
292.536
292.537
292.554
292.567
292.591
292.619
292.663
292.681
292.751
292.774
292.843
292.863
292.898
292.907
292.927
292.934
292.951
292.955
292.968
292.968
292.98
292.982
292.983
292.982
293.006
293.01
293.055
293.067
293.082
293.088
293.092
293.096
293.099
293.111
293.137
293.162
293.179
293.194
293.192
293.2
293.196
293.199
293.194
293.191
293.177
293.169
293.164
293.155
293.166
293.169
293.199
293.2
293.208
293.201
293.212
293.199
293.213
293.201
293.274
293.285
293.432
293.435
293.462
293.446
293.519
293.541
293.775
293.777
293.924
293.919
294.006
294.02
294.095
294.101
294.132
294.131
294.131
294.132
294.129
294.13
294.123
294.118
294.102
294.085
294.052
294.02
293.979
293.934
293.881
293.813
293.772
293.695
293.664
293.615
293.62
293.574
293.519
293.402
293.376
293.216
293.185
293.016
292.967
292.835
292.803
292.756
292.788
292.737
292.782
292.765
292.794
292.754
292.808
292.734
292.708
292.564
292.569
292.492
292.488
292.454
292.464
292.45
292.445
292.426
292.421
292.419
292.421
292.422
292.42
292.424
292.415
292.424
292.421
292.425
292.428
292.434
292.441
292.469
292.461
292.482
292.476
292.538
292.538
292.629
292.629
292.634
292.642
292.653
292.636
292.638
292.626
292.633
292.639
292.673
292.676
292.689
292.671
292.665
292.663
292.681
292.667
292.681
292.676
292.705
292.717
292.771
292.8
292.837
292.86
292.889
292.899
292.944
292.969
293.058
293.094
293.198
293.211
293.265
293.257
293.314
293.33
293.357
293.395
293.361
293.456
293.511
293.646
293.746
293.895
294.037
294.122
294.194
294.259
294.404
294.413
294.449
294.428
294.458
294.446
294.453
294.439
294.448
294.411
294.422
294.405
294.418
294.374
294.39
294.38
294.375
294.299
294.302
294.199
294.17
293.894
293.851
293.599
293.559
293.411
293.419
293.353
293.369
293.348
293.367
293.32
293.363
293.379
293.401
293.372
293.402
293.439
293.474
293.441
293.459
293.494
293.533
293.501
293.532
293.552
293.565
293.557
293.568
293.574
293.58
293.573
293.578
293.577
293.583
293.582
293.586
293.579
293.576
293.56
293.559
293.538
293.536
293.491
293.492
293.431
293.431
293.359
293.355
293.311
293.309
293.289
293.286
293.266
293.258
293.246
293.224
293.215
293.177
293.181
293.149
293.139
293.127
293.14
293.144
293.149
293.134
293.14
293.152
293.209
293.189
293.257
293.255
293.387
293.373
293.44
293.434
293.521
293.541
293.703
293.725
293.817
293.83
293.888
293.895
293.961
293.968
294.064
294.069
294.102
294.081
294.061
294.013
293.985
293.899
293.877
293.787
293.81
293.707
293.694
293.459
293.443
293.367
293.389
293.356
293.363
293.297
293.291
293.207
293.206
293.131
293.129
293.072
293.068
293.006
293.003
292.965
292.961
292.94
292.936
292.925
292.927
292.925
292.926
292.926
292.933
292.939
292.95
292.963
292.98
292.992
293.005
293.015
293.025
293.027
293.04
293.043
293.066
293.084
293.119
293.144
293.184
293.185
293.22
293.226
293.243
293.243
293.255
293.26
293.25
293.246
293.251
293.266
293.256
293.26
293.256
293.261
293.254
293.263
293.26
293.264
293.261
293.27
293.255
293.238
293.181
293.146
293.103
293.081
293.066
293.056
293.038
293.033
293.018
293.018
293.016
293.016
293.013
293.014
293.011
293.014
293.007
293.017
293.014
293.025
293.016
293.03
293.028
293.032
293.028
293.038
293.045
293.081
293.091
293.114
293.12
293.128
293.127
293.139
293.143
293.158
293.155
293.178
293.184
293.197
293.198
293.205
293.206
293.223
293.225
293.261
293.269
293.31
293.313
293.327
293.327
293.336
293.338
293.344
293.347
293.346
293.348
293.345
293.354
293.355
293.374
293.378
293.395
293.398
293.415
293.424
293.434
293.438
293.438
293.44
293.437
293.435
293.432
293.442
293.454
293.475
293.499
293.526
293.543
293.58
293.587
293.606
293.6
293.603
293.585
293.582
293.563
293.567
293.55
293.549
293.536
293.538
293.516
293.513
293.495
293.495
293.466
293.467
293.396
293.384
293.308
293.309
293.286
293.288
293.288
293.289
293.287
293.294
293.285
293.283
293.278
293.287
293.288
293.289
293.287
293.287
293.264
293.255
293.235
293.24
293.232
293.229
292.541
292.549
292.551
292.568
292.586
292.62
292.656
292.712
292.753
292.826
292.846
292.887
292.898
292.916
292.926
292.935
292.944
292.95
292.956
292.956
292.959
292.956
292.956
292.952
292.955
292.965
292.986
293.001
293.014
293.013
293.018
293.012
293.019
293.02
293.042
293.05
293.069
293.064
293.071
293.06
293.056
293.055
293.052
293.027
293.028
293.007
292.997
292.993
292.981
292.991
292.993
293.004
292.996
293.002
292.986
293.002
292.981
293.01
292.992
293.117
293.135
293.23
293.225
293.233
293.231
293.378
293.406
293.694
293.692
293.847
293.844
293.965
293.971
294.084
294.085
294.117
294.118
294.124
294.125
294.123
294.121
294.108
294.1
294.074
294.052
294.015
293.974
293.932
293.872
293.83
293.754
293.726
293.662
293.629
293.577
293.542
293.446
293.393
293.272
293.194
293.078
293.02
292.877
292.792
292.702
292.704
292.639
292.679
292.652
292.692
292.608
292.638
292.609
292.59
292.435
292.426
292.3
292.259
292.198
292.202
292.192
292.15
292.134
292.096
292.1
292.055
292.077
292.053
292.064
292.046
292.055
292.037
292.047
292.038
292.052
292.042
292.068
292.078
292.11
292.089
292.137
292.143
292.313
292.322
292.451
292.459
292.558
292.566
292.605
292.594
292.6
292.604
292.653
292.673
292.699
292.698
292.718
292.706
292.712
292.715
292.741
292.734
292.751
292.739
292.774
292.777
292.822
292.833
292.861
292.866
292.882
292.882
292.919
292.943
293.044
293.078
293.168
293.163
293.2
293.189
293.218
293.238
293.224
293.264
293.281
293.416
293.534
293.704
293.897
294.008
294.099
294.176
294.348
294.413
294.536
294.562
294.582
294.585
294.647
294.621
294.641
294.611
294.619
294.604
294.623
294.587
294.6
294.56
294.595
294.534
294.521
294.427
294.436
294.301
294.276
294.012
293.983
293.73
293.688
293.516
293.521
293.414
293.437
293.41
293.425
293.357
293.386
293.384
293.396
293.352
293.387
293.406
293.446
293.39
293.402
293.42
293.446
293.417
293.43
293.431
293.439
293.426
293.437
293.431
293.435
293.425
293.434
293.423
293.426
293.424
293.426
293.42
293.423
293.415
293.417
293.396
293.395
293.342
293.344
293.267
293.262
293.202
293.188
293.165
293.137
293.129
293.101
293.09
293.073
293.071
292.998
293.001
292.925
292.919
292.871
292.877
292.879
292.879
292.842
292.842
292.836
292.869
292.838
292.873
292.859
292.942
292.933
293.048
293.032
293.1
293.082
293.222
293.237
293.442
293.455
293.569
293.593
293.692
293.704
293.832
293.84
294.002
294.011
294.055
294.031
294.021
293.976
293.96
293.887
293.874
293.802
293.831
293.722
293.717
293.542
293.541
293.53
293.543
293.471
293.45
293.385
293.415
293.338
293.305
293.236
293.248
293.177
293.159
293.064
293.07
293.025
293.024
292.966
292.963
292.946
292.948
292.94
292.942
292.941
292.946
292.952
292.97
292.979
292.995
293.004
293.015
293.017
293.029
293.031
293.05
293.061
293.089
293.113
293.151
293.177
293.222
293.246
293.278
293.282
293.294
293.31
293.302
293.297
293.299
293.316
293.304
293.313
293.304
293.313
293.308
293.312
293.307
293.319
293.308
293.319
293.296
293.289
293.238
293.2
293.149
293.123
293.091
293.074
293.052
293.036
293.012
293.003
292.979
292.987
292.966
292.97
292.969
292.97
292.972
292.98
292.966
292.979
292.973
292.988
292.977
292.99
292.983
292.993
292.984
293.007
293.021
293.065
293.082
293.103
293.105
293.105
293.108
293.123
293.118
293.133
293.135
293.163
293.165
293.165
293.165
293.17
293.171
293.187
293.188
293.243
293.252
293.296
293.297
293.311
293.312
293.317
293.319
293.319
293.32
293.318
293.319
293.319
293.33
293.336
293.358
293.374
293.395
293.411
293.416
293.425
293.432
293.442
293.429
293.426
293.42
293.432
293.442
293.456
293.47
293.5
293.525
293.567
293.585
293.634
293.644
293.675
293.67
293.671
293.652
293.658
293.645
293.647
293.632
293.633
293.618
293.621
293.601
293.602
293.584
293.587
293.553
293.552
293.454
293.442
293.353
293.354
293.337
293.341
293.332
293.337
293.326
293.333
293.32
293.322
293.321
293.333
293.323
293.325
293.302
293.294
293.26
293.259
293.237
293.243
293.234
292.553
292.55
292.561
292.563
292.589
292.622
292.674
292.724
292.791
292.827
292.868
292.883
292.901
292.916
292.922
292.931
292.926
292.929
292.921
292.923
292.918
292.921
292.913
292.91
292.906
292.916
292.919
292.933
292.933
292.939
292.931
292.929
292.917
292.927
292.929
292.942
292.928
292.926
292.923
292.919
292.896
292.905
292.882
292.879
292.843
292.842
292.826
292.797
292.797
292.778
292.783
292.779
292.783
292.758
292.771
292.754
292.771
292.763
292.778
292.789
292.918
292.915
292.949
292.934
292.976
292.982
293.213
293.241
293.543
293.535
293.707
293.706
293.88
293.888
294.032
294.036
294.075
294.091
294.099
294.105
294.101
294.099
294.078
294.074
294.036
294.015
293.973
293.926
293.884
293.821
293.784
293.71
293.666
293.615
293.575
293.492
293.446
293.353
293.272
293.181
293.093
292.982
292.866
292.754
292.69
292.615
292.64
292.602
292.645
292.545
292.529
292.422
292.465
292.359
292.276
292.193
292.071
291.995
291.939
291.955
291.89
291.858
291.759
291.795
291.72
291.72
291.66
291.676
291.632
291.665
291.625
291.645
291.613
291.627
291.62
291.628
291.623
291.654
291.65
291.685
291.678
291.82
291.834
292.073
292.07
292.288
292.301
292.491
292.504
292.519
292.515
292.565
292.604
292.685
292.684
292.712
292.714
292.741
292.723
292.752
292.754
292.81
292.81
292.813
292.811
292.844
292.824
292.853
292.859
292.871
292.868
292.877
292.868
292.903
292.923
293.029
293.045
293.094
293.079
293.093
293.098
293.093
293.105
293.092
293.162
293.271
293.401
293.658
293.781
294.006
294.014
294.193
294.313
294.454