/*--------------------------------*- C++ -*----------------------------------*\
| =========                 |                                                 |
| \\      /  F ield         | OpenFOAM: The Open Source CFD Toolbox           |
|  \\    /   O peration     | Version:  v1812                                 |
|   \\  /    A nd           | Web:      www.OpenFOAM.com                      |
|    \\/     M anipulation  |                                                 |
\*---------------------------------------------------------------------------*/
FoamFile
{
    version     2.0;
    format      ascii;
    class       volVectorField;
    location    "1.5";
    object      U;
}
// * * * * * * * * * * * * * * * * * * * * * * * * * * * * * * * * * * * * * //

dimensions      [0 1 -1 0 0 0 0];


internalField   nonuniform List<vector> 
20400
(
(-0.033024 -0.0280889 0)
(-0.0587267 -0.0716835 0)
(-0.059874 -0.067178 0)
(-0.183161 -0.0350118 0)
(-0.184482 -0.0608095 0)
(-0.357076 -0.0118748 0)
(-0.344625 -0.0533912 0)
(-0.543564 -0.00592677 0)
(-0.532165 -0.0601472 0)
(-0.766484 -0.012321 0)
(-0.7569 -0.0679622 0)
(-0.998905 -7.94212e-06 0)
(-0.997307 -0.0577081 0)
(-1.25523 0.000919074 0)
(-1.26085 -0.0586344 0)
(-1.51966 0.00393977 0)
(-1.53289 -0.0607024 0)
(-1.79382 -0.00101164 0)
(-1.81033 -0.0679932 0)
(-2.06999 -0.00451585 0)
(-2.08601 -0.0629745 0)
(-2.34069 0.000248784 0)
(-2.35766 -0.0589802 0)
(-2.60614 0.0111209 0)
(-2.62655 -0.0559178 0)
(-2.88079 0.0139526 0)
(-2.90019 -0.0480586 0)
(-3.16559 0.0182616 0)
(-3.1828 -0.0398709 0)
(-3.45675 0.0225196 0)
(-3.47298 -0.0372202 0)
(-3.76474 0.0251899 0)
(-3.78684 -0.0405143 0)
(-4.09356 0.0332394 0)
(-4.11945 -0.0391112 0)
(-4.45082 0.0288899 0)
(-4.47857 -0.0391749 0)
(-4.84093 0.0306618 0)
(-4.86934 -0.0313207 0)
(-5.26115 0.0404137 0)
(-5.29028 -0.0104699 0)
(-5.69113 0.0620612 0)
(-5.72376 0.0146298 0)
(-6.11772 0.0677099 0)
(-6.15443 0.0236142 0)
(-6.50726 0.0653008 0)
(-6.55928 0.0248065 0)
(-6.78446 0.040902 0)
(-6.8279 0.00548147 0)
(-6.9062 -0.0131151 0)
(-6.91383 -0.0293008 0)
(-6.90286 -0.0400296 0)
(-6.8435 -0.066771 0)
(-6.81303 -0.0734792 0)
(-6.66869 -0.0380032 0)
(-6.65618 -0.0129021 0)
(-6.48127 0.0319487 0)
(-6.47838 0.0646594 0)
(-6.27463 0.0178546 0)
(-6.27734 0.0420369 0)
(-5.95424 0.0400757 0)
(-5.96561 0.0142465 0)
(-5.6614 0.0544548 0)
(-5.67697 0.0209313 0)
(-5.38081 -0.00280756 0)
(-5.3962 -0.00076138 0)
(-5.06441 -0.0316835 0)
(-5.06463 -0.0463347 0)
(-4.70533 -0.0278109 0)
(-4.69719 -0.0714009 0)
(-4.35841 -0.0198922 0)
(-4.34893 -0.0636108 0)
(-4.02457 -0.00969045 0)
(-4.01879 -0.0511177 0)
(-3.74833 0.0136717 0)
(-3.73857 -0.0217987 0)
(-3.52885 0.0427822 0)
(-3.5151 0.00232025 0)
(-3.33888 -0.0354597 0)
(-3.27716 -0.0242978 0)
(-3.17224 -0.0757347 0)
(-3.04496 -0.0478584 0)
(-3.01114 -0.0508867 0)
(-2.89084 -0.0423385 0)
(-2.91298 -0.0401282 0)
(-2.87593 -0.0445624 0)
(-3.06347 -0.0175379 0)
(-3.0346 -0.0656074 0)
(-3.37419 0.00525821 0)
(-3.41762 -0.0816802 0)
(-3.82609 0.0710735 0)
(-4.05989 -0.0810159 0)
(-4.21108 0.103112 0)
(-4.82239 0.0124015 0)
(-4.89686 -0.123869 0)
(-5.87929 0.079019 0)
(-5.97648 -0.093341 0)
(-7.12553 0.123682 0)
(-7.28834 -0.0808384 0)
(-8.50435 0.122324 0)
(-8.75721 -0.0871106 0)
(-9.86966 0.147133 0)
(-10.2425 -0.0183747 0)
(-11.0906 0.139591 0)
(-11.4699 0.0507245 0)
(-11.9053 0.00504728 0)
(-12.0721 -0.061217 0)
(-12.1322 -0.10497 0)
(-11.9899 -0.151954 0)
(-11.9221 -0.222241 0)
(-11.4305 -0.203418 0)
(-11.4005 -0.236435 0)
(-10.7234 -0.0880962 0)
(-10.7017 -0.130621 0)
(-9.78345 0.0981598 0)
(-9.71076 0.131281 0)
(-8.8062 0.403199 0)
(-8.66775 0.184665 0)
(-7.78395 0.312208 0)
(-7.56585 0.288743 0)
(-6.6179 0.497734 0)
(-6.36199 0.340974 0)
(-5.57581 0.479304 0)
(-5.28528 0.352678 0)
(-4.58648 0.414676 0)
(-4.25326 0.305717 0)
(-3.6289 0.29328 0)
(-3.22888 0.188609 0)
(-2.68705 0.207429 0)
(-2.2988 0.0891287 0)
(-1.84812 0.0391908 0)
(-1.47076 -0.0698697 0)
(-1.06903 -0.155516 0)
(-0.775981 -0.25827 0)
(-0.439989 -0.271173 0)
(-0.219584 -0.195465 0)
(-0.0140999 -0.107924 0)
(0.0613477 -0.0474023 0)
(0.185228 -0.0068901 0)
(0.190081 0.0116216 0)
(0.273426 -0.00704573 0)
(0.266687 0.00161888 0)
(0.299039 -0.00733378 0)
(0.295654 -0.00537709 0)
(0.297447 -0.00388879 0)
(0.28508 -0.00676743 0)
(0.284819 -0.00714323 0)
(0.278766 -0.00862193 0)
(0.283735 -0.00653819 0)
(0.235906 -0.0101661 0)
(0.249831 -0.00249096 0)
(0.175223 -0.00533424 0)
(0.174358 -0.00724496 0)
(0.161637 -0.00874825 0)
(0.160377 -0.00814281 0)
(0.15937 -0.0070408 0)
(0.167292 -0.00551023 0)
(0.122385 -0.013238 0)
(0.136093 -0.00101246 0)
(0.0755406 -0.0046118 0)
(0.0773922 0.000848339 0)
(-0.000941622 0.0320094 0)
(-0.0416713 0.0582009 0)
(-0.167985 0.0528985 0)
(-0.253487 0.0105006 0)
(-0.407023 -0.00242103 0)
(-0.538129 -0.0355274 0)
(-0.758456 -0.0454032 0)
(-0.904163 -0.0626234 0)
(-1.23495 -0.0544872 0)
(-1.3632 -0.0585812 0)
(-1.81821 0.00106087 0)
(-1.9403 -0.0344021 0)
(-2.48704 0.0674378 0)
(-2.61623 -0.00812981 0)
(-3.19345 0.130928 0)
(-3.35405 0.05526 0)
(-3.91193 0.194823 0)
(-4.1244 0.139604 0)
(-4.58996 0.154252 0)
(-4.78148 0.100442 0)
(-4.95995 0.0649172 0)
(-5.02305 0.0510366 0)
(-4.99071 0.0391985 0)
(-4.8224 0.0732762 0)
(-4.64552 0.12807 0)
(-4.2258 0.201857 0)
(-3.91954 0.247089 0)
(-3.41022 0.241315 0)
(-3.01775 0.20473 0)
(-2.52312 0.0948689 0)
(-2.09509 0.0474515 0)
(-1.65968 -0.0554566 0)
(-1.36483 -0.200401 0)
(-0.946361 -0.354911 0)
(-0.630456 -0.30196 0)
(-0.36745 -0.199151 0)
(-0.184974 -0.204324 0)
(0.0495717 -0.0932924 0)
(0.066781 -0.0662194 0)
(0.372939 -0.0405779 0)
(0.314399 -0.0169025 0)
(0.602052 -0.0386749 0)
(0.521422 -0.0147862 0)
(0.807945 -0.0398628 0)
(0.714042 -0.00405045 0)
(0.96557 -0.0301665 0)
(0.895096 -0.00528838 0)
(1.07158 -0.0198244 0)
(1.03971 -0.0140009 0)
(1.10456 -0.00503495 0)
(1.07819 -0.00803012 0)
(1.09068 0.00234633 0)
(1.04823 -0.00860305 0)
(1.04277 0.0143612 0)
(0.953284 -0.0123667 0)
(0.959296 0.0239698 0)
(0.791679 -0.0179761 0)
(0.847129 0.0291121 0)
(0.602677 -0.0128916 0)
(0.704353 0.0452167 0)
(0.426906 -0.0303619 0)
(0.515384 0.0097296 0)
(0.266262 -0.00838794 0)
(0.305445 -0.00806221 0)
(0.267265 -0.0134508 0)
(0.262548 0.015732 0)
(0.0566051 0.00887213 0)
(0.0610955 0.0158654 0)
(-0.0489104 0.0803628 0)
(-0.150016 0.148923 0)
(-0.390466 0.124701 0)
(-0.526981 0.0525626 0)
(-0.704296 -0.0325638 0)
(-0.860969 -0.0324479 0)
(-1.07377 -0.0736241 0)
(-1.20286 -0.106989 0)
(-1.40948 -0.0389545 0)
(-1.51232 -0.0691755 0)
(-1.73881 -0.0831132 0)
(-1.8043 -0.099299 0)
(-1.99463 -0.0153524 0)
(-2.03115 -0.0210878 0)
(-2.21484 0.0110892 0)
(-2.24797 -0.0248704 0)
(-2.42888 0.0197253 0)
(-2.46466 0.00482546 0)
(-2.64395 0.0398956 0)
(-2.67977 0.0176452 0)
(-2.83012 0.0418723 0)
(-2.86741 0.020595 0)
(-2.98638 0.033225 0)
(-3.02464 0.0139022 0)
(-3.11251 0.0185482 0)
(-3.14744 0.0169466 0)
(-3.20042 0.0159378 0)
(-3.22655 0.0224768 0)
(-3.2495 0.0186974 0)
(-3.26261 0.0262266 0)
(-3.26207 0.0348542 0)
(-3.24814 0.0419259 0)
(-3.20671 0.0561848 0)
(-3.1716 0.0617795 0)
(-3.0692 0.0803986 0)
(-3.0042 0.0789544 0)
(-2.83726 0.128238 0)
(-2.73705 0.118046 0)
(-2.5093 0.162777 0)
(-2.3717 0.153174 0)
(-2.12613 0.199768 0)
(-1.98359 0.158024 0)
(-1.75616 0.130716 0)
(-1.55441 0.0905652 0)
(-1.31115 0.0513947 0)
(-1.11022 0.0401615 0)
(-0.968643 -0.142463 0)
(-0.776659 -0.197443 0)
(-0.561313 -0.192418 0)
(-0.369668 -0.161192 0)
(-0.215075 -0.123833 0)
(-0.100863 -0.102855 0)
(-0.00992479 -0.0485863 0)
(0.00746453 -0.0349551 0)
(0.121897 -0.0143954 0)
(0.110517 -0.0226503 0)
(0.204964 -0.0072151 0)
(0.204915 -0.0113493 0)
(0.301758 0.00250734 0)
(0.278466 -0.0120963 0)
(0.359282 0.00166892 0)
(0.342982 -0.00850563 0)
(0.423003 -0.0042064 0)
(0.419018 -0.00630627 0)
(0.478802 -0.00401914 0)
(0.474485 -0.000118812 0)
(0.504941 -0.00459392 0)
(0.502456 -0.00129282 0)
(0.507149 0.00105862 0)
(0.489142 -0.00112469 0)
(0.496578 0.00618432 0)
(0.454527 -0.00474791 0)
(0.473358 0.00848769 0)
(0.395302 -0.00628472 0)
(0.426342 0.014237 0)
(0.32181 -0.0135634 0)
(0.363237 0.0161233 0)
(0.236352 -0.0120849 0)
(0.275641 0.018364 0)
(0.163749 -0.0310697 0)
(0.206336 0.00918235 0)
(0.0660528 -0.0112475 0)
(0.0690195 0.0252505 0)
(-0.0435645 0.052254 0)
(-0.0928934 0.0638986 0)
(-0.197298 0.107024 0)
(-0.313788 0.12265 0)
(-0.460873 0.010304 0)
(-0.526159 -0.0338455 0)
(-0.646822 -0.0504242 0)
(-0.728099 -0.0589357 0)
(-0.869808 -0.0613404 0)
(-0.959202 -0.0680581 0)
(-1.09826 -0.0665113 0)
(-1.15011 -0.0817547 0)
(-1.28075 -0.050697 0)
(-1.32066 -0.0485662 0)
(-1.42637 -0.0310983 0)
(-1.44103 -0.0611821 0)
(-1.53076 -0.0193075 0)
(-1.54192 -0.0292443 0)
(-1.66383 0.0147508 0)
(-1.67755 -0.00526164 0)
(-1.83323 0.0317922 0)
(-1.8447 0.0172815 0)
(-2.02135 0.053482 0)
(-2.03205 0.0394467 0)
(-2.21306 0.06681 0)
(-2.22828 0.0527135 0)
(-2.3998 0.072943 0)
(-2.42535 0.0561033 0)
(-2.5769 0.0739698 0)
(-2.61847 0.0547637 0)
(-2.74745 0.0635759 0)
(-2.80059 0.0459429 0)
(-2.89459 0.0468112 0)
(-2.94068 0.0327312 0)
(-2.98016 0.0133186 0)
(-2.99755 0.00171457 0)
(-2.99886 -0.00411538 0)
(-2.98816 -0.00615976 0)
(-2.91809 -0.000172893 0)
(-2.87573 -0.00524198 0)
(-2.71634 0.0317115 0)
(-2.649 0.0443955 0)
(-2.47641 0.12652 0)
(-2.41025 0.105627 0)
(-2.22614 0.13948 0)
(-2.13977 0.132942 0)
(-1.9391 0.146502 0)
(-1.81082 0.143055 0)
(-1.58664 0.114706 0)
(-1.40423 0.0766374 0)
(-1.20047 0.0762577 0)
(-1.04972 0.0484155 0)
(-0.931893 -0.125144 0)
(-0.766913 -0.164924 0)
(-0.598415 -0.163056 0)
(-0.432173 -0.149458 0)
(-0.309861 -0.106003 0)
(-0.198468 -0.106692 0)
(-0.106491 -0.0770311 0)
(-0.0452448 -0.0612159 0)
(0.00569488 -0.0247021 0)
(0.0080112 -0.01705 0)
(0.0573053 -0.0145292 0)
(0.051952 -0.00745768 0)
(0.0826602 -0.00988049 0)
(0.0799834 -0.00643157 0)
(0.0968676 -0.00602704 0)
(0.0972745 -0.00446707 0)
(0.0983665 -0.00385859 0)
(0.0970809 -0.00372302 0)
(0.100422 -0.00183425 0)
(0.0809967 -0.00130081 0)
(0.087627 0.00158816 0)
(0.0575134 -0.00402458 0)
(0.0712456 -0.00113343 0)
(0.0383369 0.000854573 0)
(0.045967 -0.000424338 0)
(0.00686992 0.0129543 0)
(-0.00207755 0.0249431 0)
(-0.0555011 0.0472506 0)
(-0.10171 0.0569134 0)
(-0.166643 0.0481685 0)
(-0.207331 0.0393778 0)
(-0.255 0.0447024 0)
(-0.305391 0.045179 0)
(-0.36029 0.0587512 0)
(-0.426735 0.054055 0)
(-0.490303 0.0642815 0)
(-0.561886 0.0514047 0)
(-0.618447 -0.0372096 0)
(-0.679407 -0.0521838 0)
(-0.758834 -0.0527675 0)
(-0.814696 -0.0722242 0)
(-0.895092 -0.0548026 0)
(-0.950959 -0.0616936 0)
(-1.02036 -0.0521213 0)
(-1.0572 -0.0659229 0)
(-1.10315 -0.0671972 0)
(-1.13292 -0.0805246 0)
(-1.18327 -0.0615192 0)
(-1.20803 -0.0722288 0)
(-1.25251 -0.0605432 0)
(-1.27741 -0.0699248 0)
(-1.32673 -0.0539479 0)
(-1.34942 -0.0601981 0)
(-1.38536 -0.0603618 0)
(-1.39883 -0.0720389 0)
(-1.43514 -0.0559698 0)
(-1.45302 -0.0571254 0)
(-1.50199 -0.0392904 0)
(-1.52396 -0.0439952 0)
(-1.57354 -0.0314993 0)
(-1.59832 -0.0384253 0)
(-1.64582 -0.0341046 0)
(-1.66654 -0.0420376 0)
(-1.70482 -0.0358187 0)
(-1.72279 -0.0394014 0)
(-1.74982 -0.0334553 0)
(-1.76734 -0.0376736 0)
(-1.7862 -0.0311257 0)
(-1.7984 -0.015079 0)
(-1.80722 0.00625039 0)
(-1.8131 0.0271963 0)
(-1.81503 0.0436686 0)
(-1.8051 0.0544589 0)
(-1.78909 0.0551264 0)
(-1.75672 0.0662365 0)
(-1.72124 0.0562934 0)
(-1.64659 0.0770779 0)
(-1.59013 0.0726454 0)
(-1.48984 0.104701 0)
(-1.42768 0.0866543 0)
(-1.32439 0.111214 0)
(-1.25218 0.0916933 0)
(-1.14734 0.103258 0)
(-1.08039 0.0756563 0)
(-0.96925 0.0667828 0)
(-0.894677 0.0467476 0)
(-0.788098 -0.120953 0)
(-0.653236 -0.141049 0)
(-0.507959 -0.131985 0)
(-0.374841 -0.12874 0)
(-0.257505 -0.102638 0)
(-0.168466 -0.076465 0)
(-0.108409 -0.051201 0)
(-0.0614209 -0.0517723 0)
(-0.0124549 -0.0301668 0)
(-0.0031836 -0.0179871 0)
(0.0265522 -0.005236 0)
(0.0267307 -0.00742963 0)
(0.0646514 -0.00355702 0)
(0.0601077 -0.00601348 0)
(0.094448 0.00107322 0)
(0.0798599 0.000317874 0)
(0.116921 -0.00285085 0)
(0.108701 0.000194822 0)
(0.137467 -0.00212184 0)
(0.131055 0.00121025 0)
(0.147819 -0.00143689 0)
(0.146988 -0.000173276 0)
(0.151155 0.00237732 0)
(0.145421 0.0026226 0)
(0.146853 0.00473927 0)
(0.13731 0.00150096 0)
(0.137667 0.00439959 0)
(0.120369 0.00135233 0)
(0.125193 0.00506204 0)
(0.106108 -0.000668176 0)
(0.113191 0.00275271 0)
(0.0799659 0.00527365 0)
(0.0820283 0.00873328 0)
(0.0484857 -0.000386775 0)
(0.0628867 0.00209015 0)
(0.029779 -0.000330161 0)
(0.0487153 0.00044832 0)
(0.0136515 0.0101666 0)
(0.0104451 0.0135245 0)
(-0.0259337 0.0282992 0)
(-0.0465531 0.0266286 0)
(-0.0775353 0.0222915 0)
(-0.0954635 0.0222573 0)
(-0.124416 0.0327912 0)
(-0.155498 0.0354569 0)
(-0.191078 0.0340761 0)
(-0.227514 0.0434295 0)
(-0.275893 0.070969 0)
(-0.360831 0.0823563 0)
(-0.4519 0.0849856 0)
(-0.0453615 -0.0531538 0)
(-0.0824219 -0.0875185 0)
(-0.330235 -0.0165394 0)
(-0.338943 -0.0407081 0)
(-0.73297 0.0449738 0)
(-0.720993 -0.0381591 0)
(-1.18497 0.0540927 0)
(-1.14617 -0.0224565 0)
(-1.66628 0.0986058 0)
(-1.62443 0.0216905 0)
(-2.18662 0.114025 0)
(-2.1325 0.0224572 0)
(-2.70418 0.127346 0)
(-2.65923 0.0459919 0)
(-3.22694 0.133201 0)
(-3.18909 0.0519414 0)
(-3.74191 0.143533 0)
(-3.71337 0.0641935 0)
(-4.25101 0.148173 0)
(-4.21485 0.0711109 0)
(-4.73482 0.137048 0)
(-4.69671 0.0620445 0)
(-5.20128 0.131966 0)
(-5.17071 0.0430899 0)
(-5.66311 0.144702 0)
(-5.63903 0.0489905 0)
(-6.12862 0.144911 0)
(-6.10946 0.0555035 0)
(-6.60328 0.144674 0)
(-6.5743 0.0621305 0)
(-7.07353 0.154219 0)
(-7.06256 0.0840223 0)
(-7.58084 0.180713 0)
(-7.57383 0.0909317 0)
(-8.08988 0.205135 0)
(-8.09555 0.122048 0)
(-8.62123 0.221502 0)
(-8.62595 0.148057 0)
(-9.15934 0.233184 0)
(-9.16755 0.173978 0)
(-9.67695 0.223708 0)
(-9.69328 0.179176 0)
(-10.1657 0.203996 0)
(-10.1712 0.165829 0)
(-10.6202 0.185773 0)
(-10.6254 0.153906 0)
(-10.9703 0.120356 0)
(-10.9954 0.0714636 0)
(-11.185 0.0192664 0)
(-11.223 -0.029166 0)
(-11.2821 -0.0624883 0)
(-11.2898 -0.0980476 0)
(-11.2812 -0.11254 0)
(-11.187 -0.157105 0)
(-11.1774 -0.1544 0)
(-10.9724 -0.18696 0)
(-10.9679 -0.18135 0)
(-10.6961 -0.227214 0)
(-10.7039 -0.20301 0)
(-10.2909 -0.288998 0)
(-10.3482 -0.293898 0)
(-9.78065 -0.2565 0)
(-9.85253 -0.278781 0)
(-9.2961 -0.240614 0)
(-9.35681 -0.246864 0)
(-8.80141 -0.272456 0)
(-8.81338 -0.274635 0)
(-8.23276 -0.259952 0)
(-8.24023 -0.30051 0)
(-7.65767 -0.240967 0)
(-7.65882 -0.295746 0)
(-7.10047 -0.232662 0)
(-7.1221 -0.2762 0)
(-6.60685 -0.199494 0)
(-6.62146 -0.251692 0)
(-6.19754 -0.169052 0)
(-6.19692 -0.221269 0)
(-5.89268 -0.154823 0)
(-5.88721 -0.200594 0)
(-5.72617 -0.172698 0)
(-5.68109 -0.159057 0)
(-5.6591 -0.149423 0)
(-5.59073 -0.132429 0)
(-5.67956 -0.0741946 0)
(-5.64413 -0.0455998 0)
(-5.99114 0.104726 0)
(-5.93345 0.0661618 0)
(-6.52627 0.247943 0)
(-6.46817 0.177818 0)
(-7.36612 0.421815 0)
(-7.46205 0.320545 0)
(-8.00244 0.446829 0)
(-8.68892 0.439083 0)
(-8.73271 0.483314 0)
(-10.1107 0.822971 0)
(-10.122 0.681014 0)
(-11.5504 0.92148 0)
(-11.5418 0.775033 0)
(-13.05 0.989926 0)
(-13.014 0.862741 0)
(-14.336 0.94928 0)
(-14.3323 0.881096 0)
(-15.2584 0.814581 0)
(-15.3246 0.702685 0)
(-15.7649 0.508225 0)
(-15.8584 0.313451 0)
(-15.9774 0.124346 0)
(-15.949 -0.030661 0)
(-15.9224 -0.152681 0)
(-15.5292 -0.257953 0)
(-15.5135 -0.29012 0)
(-14.6873 -0.358757 0)
(-14.6813 -0.349602 0)
(-13.5179 -0.532288 0)
(-13.4564 -0.558144 0)
(-12.0681 -0.662426 0)
(-11.8684 -0.637564 0)
(-10.6182 -0.657751 0)
(-10.4715 -0.679379 0)
(-9.14869 -0.856058 0)
(-8.89062 -0.805584 0)
(-7.65758 -0.771207 0)
(-7.42342 -0.721625 0)
(-6.27514 -0.806577 0)
(-5.99626 -0.725843 0)
(-4.9895 -0.77546 0)
(-4.70554 -0.741693 0)
(-3.74321 -0.819925 0)
(-3.41562 -0.665283 0)
(-2.61384 -0.782085 0)
(-2.24392 -0.637678 0)
(-1.54323 -0.767448 0)
(-1.15564 -0.581273 0)
(-0.632208 -0.564728 0)
(-0.405264 -0.415528 0)
(-0.00478299 -0.38687 0)
(0.092408 -0.274089 0)
(0.471714 -0.232469 0)
(0.493398 -0.149625 0)
(0.801589 -0.141473 0)
(0.795763 -0.0922794 0)
(0.962105 -0.0679982 0)
(0.955496 -0.0456606 0)
(1.00194 -0.0244784 0)
(0.992113 -0.0179576 0)
(0.994704 -0.0129332 0)
(0.939457 -0.0211694 0)
(0.971906 -0.0131442 0)
(0.88083 0.00790391 0)
(0.916818 0.0276133 0)
(0.755137 0.0320798 0)
(0.777525 0.0458749 0)
(0.603238 -0.000342824 0)
(0.641641 8.59964e-06 0)
(0.527122 -0.0337303 0)
(0.577152 -0.0261894 0)
(0.512165 0.00421506 0)
(0.522342 0.0256299 0)
(0.355564 0.00714241 0)
(0.398546 0.0277676 0)
(0.203709 0.0429212 0)
(0.192499 0.0956123 0)
(-0.0218494 0.109021 0)
(-0.102736 0.201163 0)
(-0.344821 0.174921 0)
(-0.513319 0.234702 0)
(-0.816377 0.266143 0)
(-1.06311 0.284879 0)
(-1.48311 0.34732 0)
(-1.75926 0.339495 0)
(-2.30129 0.379077 0)
(-2.52894 0.374904 0)
(-3.18238 0.406838 0)
(-3.34339 0.386882 0)
(-4.04746 0.406749 0)
(-4.15474 0.397342 0)
(-4.79912 0.392726 0)
(-4.87352 0.394974 0)
(-5.33231 0.347618 0)
(-5.39136 0.331724 0)
(-5.58158 0.16682 0)
(-5.62896 0.102426 0)
(-5.67281 -0.00513922 0)
(-5.6422 -0.132119 0)
(-5.6165 -0.186696 0)
(-5.28114 -0.428662 0)
(-5.21204 -0.439713 0)
(-4.53212 -0.660126 0)
(-4.33728 -0.595608 0)
(-3.4858 -0.808599 0)
(-3.08688 -0.728376 0)
(-2.3168 -0.765906 0)
(-1.93429 -0.594122 0)
(-1.23712 -0.716449 0)
(-0.926988 -0.52323 0)
(-0.485108 -0.468332 0)
(-0.366388 -0.331995 0)
(0.229266 -0.460989 0)
(0.302572 -0.268145 0)
(1.05639 -0.420636 0)
(1.00641 -0.214588 0)
(1.75628 -0.315824 0)
(1.60106 -0.187042 0)
(2.35797 -0.26314 0)
(2.12317 -0.154605 0)
(2.82753 -0.220967 0)
(2.61113 -0.15178 0)
(3.17561 -0.16269 0)
(3.0406 -0.134404 0)
(3.35492 -0.0627101 0)
(3.29882 -0.0401023 0)
(3.40878 0.00595902 0)
(3.31634 -0.0056846 0)
(3.34434 0.0533789 0)
(3.19007 0.0409558 0)
(3.18824 0.120051 0)
(2.85891 0.0843851 0)
(2.95639 0.173076 0)
(2.38796 0.10577 0)
(2.60195 0.185769 0)
(1.85355 0.0796654 0)
(2.2247 0.252333 0)
(1.38321 0.152698 0)
(1.56075 0.199402 0)
(0.948944 -0.022765 0)
(1.28634 0.125769 0)
(0.681995 0.15779 0)
(0.723727 0.243275 0)
(0.202562 0.0772853 0)
(0.236041 0.19409 0)
(-0.138091 0.225421 0)
(-0.231565 0.361925 0)
(-0.655164 0.22559 0)
(-0.749612 0.308548 0)
(-1.10786 0.249422 0)
(-1.23712 0.328505 0)
(-1.62722 0.191831 0)
(-1.67455 0.197865 0)
(-1.98912 0.208216 0)
(-2.04617 0.217362 0)
(-2.36829 0.14034 0)
(-2.40427 0.135827 0)
(-2.65621 0.117118 0)
(-2.6845 0.114688 0)
(-2.91349 0.12078 0)
(-2.94643 0.114282 0)
(-3.15949 0.115581 0)
(-3.17825 0.106511 0)
(-3.34711 0.098116 0)
(-3.36062 0.0906738 0)
(-3.48532 0.0821864 0)
(-3.49695 0.0729862 0)
(-3.5738 0.0666396 0)
(-3.58274 0.0580932 0)
(-3.62339 0.041498 0)
(-3.63117 0.0365613 0)
(-3.64722 0.0203796 0)
(-3.65111 0.0194691 0)
(-3.64502 0.000226768 0)
(-3.64198 -0.0039436 0)
(-3.61499 -0.0384916 0)
(-3.60371 -0.0420015 0)
(-3.52548 -0.0889704 0)
(-3.51827 -0.0968972 0)
(-3.36128 -0.153406 0)
(-3.34454 -0.163104 0)
(-3.08335 -0.227789 0)
(-3.05267 -0.23231 0)
(-2.67041 -0.308351 0)
(-2.59183 -0.264061 0)
(-2.2135 -0.294004 0)
(-2.14026 -0.289527 0)
(-1.7202 -0.405524 0)
(-1.53971 -0.348149 0)
(-1.17109 -0.325883 0)
(-0.985763 -0.224987 0)
(-0.70141 -0.325415 0)
(-0.566159 -0.28556 0)
(-0.285907 -0.27187 0)
(-0.209768 -0.202473 0)
(0.0273689 -0.175035 0)
(0.0497475 -0.110643 0)
(0.384176 -0.168523 0)
(0.382526 -0.117214 0)
(0.668055 -0.0748333 0)
(0.649863 -0.114661 0)
(0.953133 -0.114522 0)
(0.935422 -0.104768 0)
(1.16886 -0.0491952 0)
(1.12405 -0.083929 0)
(1.36445 -0.064966 0)
(1.34019 -0.0848508 0)
(1.52849 -0.0586922 0)
(1.52322 -0.0597666 0)
(1.64631 -0.031727 0)
(1.63813 -0.0225982 0)
(1.68954 -0.0044503 0)
(1.66753 0.00802131 0)
(1.67686 0.018283 0)
(1.58637 0.0167455 0)
(1.62671 0.0424864 0)
(1.44732 0.0356892 0)
(1.5234 0.073448 0)
(1.24797 0.0412688 0)
(1.36586 0.103597 0)
(1.01276 0.04838 0)
(1.13288 0.125195 0)
(0.755462 0.0186447 0)
(0.91306 0.135003 0)
(0.490604 0.0562461 0)
(0.575125 0.18451 0)
(0.202615 0.0758022 0)
(0.183854 0.195593 0)
(-0.0927675 0.105556 0)
(-0.11727 0.166565 0)
(-0.323493 0.176458 0)
(-0.402938 0.250533 0)
(-0.671861 0.126992 0)
(-0.717386 0.172714 0)
(-0.93559 0.150825 0)
(-1.0058 0.201626 0)
(-1.24166 0.141797 0)
(-1.27268 0.138705 0)
(-1.46705 0.109449 0)
(-1.50058 0.123095 0)
(-1.68412 0.0876261 0)
(-1.70296 0.0712044 0)
(-1.87169 0.0567835 0)
(-1.8959 0.0593812 0)
(-2.0896 0.07639 0)
(-2.10898 0.0617635 0)
(-2.30828 0.0964299 0)
(-2.32913 0.0803465 0)
(-2.55951 0.0983128 0)
(-2.56986 0.0862774 0)
(-2.7902 0.0981596 0)
(-2.79527 0.0878391 0)
(-2.99164 0.0929036 0)
(-2.99439 0.0872547 0)
(-3.15579 0.0877955 0)
(-3.15977 0.0850704 0)
(-3.27832 0.0863852 0)
(-3.28799 0.0811339 0)
(-3.36172 0.0747186 0)
(-3.37719 0.0615492 0)
(-3.41504 0.0365622 0)
(-3.42916 0.0201694 0)
(-3.44248 0.00138481 0)
(-3.4384 -0.00141063 0)
(-3.40076 -0.0482373 0)
(-3.39601 -0.0623631 0)
(-3.28195 -0.120608 0)
(-3.26807 -0.133144 0)
(-3.08151 -0.15719 0)
(-3.04639 -0.14361 0)
(-2.78944 -0.181317 0)
(-2.75388 -0.171284 0)
(-2.45175 -0.226883 0)
(-2.40602 -0.20943 0)
(-2.05172 -0.30434 0)
(-1.95876 -0.284351 0)
(-1.57409 -0.356094 0)
(-1.42282 -0.267828 0)
(-1.11825 -0.285363 0)
(-0.951757 -0.210157 0)
(-0.710099 -0.264492 0)
(-0.603861 -0.238638 0)
(-0.373498 -0.237206 0)
(-0.305702 -0.172464 0)
(-0.0994767 -0.185251 0)
(-0.057398 -0.139113 0)
(0.113472 -0.109932 0)
(0.125394 -0.0694942 0)
(0.296261 -0.0726649 0)
(0.29595 -0.0531296 0)
(0.415 -0.0451378 0)
(0.410087 -0.0354611 0)
(0.479773 -0.0259435 0)
(0.476574 -0.0199479 0)
(0.500625 -0.0097279 0)
(0.486366 -0.00364208 0)
(0.497715 0.0017452 0)
(0.451766 0.00882305 0)
(0.466767 0.0193023 0)
(0.377187 0.0185591 0)
(0.399306 0.0278142 0)
(0.281702 0.0177617 0)
(0.315229 0.0233253 0)
(0.19152 0.0329075 0)
(0.192164 0.0595691 0)
(0.0486064 0.05605 0)
(0.0470762 0.07822 0)
(-0.0833856 0.0855384 0)
(-0.0867395 0.08966 0)
(-0.201578 0.0613506 0)
(-0.205664 0.0766523 0)
(-0.305994 0.0722275 0)
(-0.320057 0.0984809 0)
(-0.432421 0.0859581 0)
(-0.461972 0.106915 0)
(-0.573227 0.0929895 0)
(-0.63813 0.146753 0)
(-0.782869 0.0972118 0)
(-0.810412 0.11129 0)
(-0.946031 0.095239 0)
(-0.968703 0.104859 0)
(-1.08821 0.0804575 0)
(-1.09825 0.0755623 0)
(-1.17722 0.0501262 0)
(-1.19086 0.0583297 0)
(-1.27941 0.0528903 0)
(-1.29038 0.0546389 0)
(-1.36549 0.0444775 0)
(-1.37944 0.0515453 0)
(-1.45656 0.0470715 0)
(-1.47048 0.0501848 0)
(-1.53158 0.0378334 0)
(-1.54387 0.0378099 0)
(-1.60595 0.0311766 0)
(-1.62583 0.0400952 0)
(-1.68955 0.0416835 0)
(-1.70874 0.0457352 0)
(-1.7666 0.0426226 0)
(-1.78332 0.0468653 0)
(-1.8334 0.043499 0)
(-1.84813 0.0443331 0)
(-1.89294 0.0350842 0)
(-1.90575 0.0385533 0)
(-1.94015 0.0282995 0)
(-1.95234 0.0298521 0)
(-1.97111 0.0252918 0)
(-1.98273 0.0219051 0)
(-1.99335 0.0156995 0)
(-2.00095 0.00975546 0)
(-2.0013 0.00308749 0)
(-1.99354 -0.00741729 0)
(-1.98534 -0.0183604 0)
(-1.95676 -0.0323169 0)
(-1.94396 -0.0441611 0)
(-1.87989 -0.0713571 0)
(-1.86912 -0.0827287 0)
(-1.74972 -0.109117 0)
(-1.73276 -0.108191 0)
(-1.56935 -0.12537 0)
(-1.55152 -0.116533 0)
(-1.35988 -0.159145 0)
(-1.3246 -0.123919 0)
(-1.14181 -0.155695 0)
(-1.1191 -0.135868 0)
(-0.883686 -0.25087 0)
(-0.794832 -0.174649 0)
(-0.586558 -0.228949 0)
(-0.508345 -0.194637 0)
(-0.317515 -0.20489 0)
(-0.242709 -0.162932 0)
(-0.116728 -0.118584 0)
(-0.0862299 -0.0900597 0)
(0.0318145 -0.0904746 0)
(0.0439439 -0.0630718 0)
(0.15355 -0.041743 0)
(0.153275 -0.0421208 0)
(0.284922 -0.0504097 0)
(0.282122 -0.0412636 0)
(0.412604 -0.0363194 0)
(0.377613 -0.0223587 0)
(0.498507 -0.0329761 0)
(0.478883 -0.0352362 0)
(0.579107 -0.0211853 0)
(0.56141 -0.0244631 0)
(0.630953 -0.010322 0)
(0.624532 -0.014102 0)
(0.654384 0.00126136 0)
(0.650186 0.00367017 0)
(0.657615 0.0072503 0)
(0.635534 0.00828521 0)
(0.639766 0.0139505 0)
(0.598234 0.0193626 0)
(0.599304 0.0243767 0)
(0.53903 0.0102979 0)
(0.5613 0.0192811 0)
(0.476159 0.0306546 0)
(0.485865 0.0403462 0)
(0.369915 0.0237499 0)
(0.397121 0.0323417 0)
(0.279042 0.0211019 0)
(0.317073 0.0159284 0)
(0.211448 0.0218197 0)
(0.234238 0.0502179 0)
(0.0948258 0.046784 0)
(0.0923555 0.0575354 0)
(-0.00591307 0.0448012 0)
(-0.00308968 0.0424249 0)
(-0.0664868 0.0367812 0)
(-0.067202 0.0527628 0)
(-0.13727 0.0565575 0)
(-0.149959 0.0587479 0)
(-0.216793 0.0733918 0)
(-0.250035 0.105126 0)
(-0.338245 0.121053 0)
(-0.420594 0.122288 0)
(-0.0396309 -0.0493825 0)
(-0.271956 0.0163948 0)
(-0.331033 0.00660026 0)
(-0.788249 0.171386 0)
(-0.817469 0.1286 0)
(-1.40588 0.254917 0)
(-1.42207 0.145753 0)
(-2.06316 0.289863 0)
(-2.06244 0.185996 0)
(-2.75179 0.325388 0)
(-2.72013 0.210167 0)
(-3.41625 0.338606 0)
(-3.38645 0.245671 0)
(-4.06992 0.345973 0)
(-4.03397 0.260455 0)
(-4.68669 0.335892 0)
(-4.66169 0.262378 0)
(-5.28725 0.32796 0)
(-5.26146 0.246231 0)
(-5.85527 0.307896 0)
(-5.81794 0.234371 0)
(-6.37479 0.284229 0)
(-6.34747 0.232913 0)
(-6.89793 0.299917 0)
(-6.87135 0.221489 0)
(-7.41179 0.307225 0)
(-7.38408 0.231459 0)
(-7.91122 0.306674 0)
(-7.89426 0.252584 0)
(-8.42403 0.309893 0)
(-8.40562 0.271697 0)
(-8.9375 0.34361 0)
(-8.93151 0.309081 0)
(-9.47279 0.373781 0)
(-9.47307 0.325277 0)
(-9.98513 0.393364 0)
(-9.99369 0.353045 0)
(-10.5024 0.409075 0)
(-10.5136 0.363806 0)
(-10.9872 0.414121 0)
(-11.0055 0.376301 0)
(-11.4271 0.385342 0)
(-11.45 0.373124 0)
(-11.8335 0.338375 0)
(-11.8421 0.327371 0)
(-12.1316 0.270949 0)
(-12.1792 0.227613 0)
(-12.3484 0.136097 0)
(-12.425 0.0693228 0)
(-12.5186 -0.020223 0)
(-12.5749 -0.102358 0)
(-12.6138 -0.171604 0)
(-12.607 -0.243087 0)
(-12.6133 -0.298422 0)
(-12.5064 -0.337871 0)
(-12.4994 -0.353228 0)
(-12.2629 -0.364504 0)
(-12.2486 -0.371372 0)
(-11.9049 -0.452783 0)
(-11.91 -0.475529 0)
(-11.4182 -0.555319 0)
(-11.4301 -0.560204 0)
(-10.8835 -0.527601 0)
(-10.8748 -0.543529 0)
(-10.3005 -0.544143 0)
(-10.2904 -0.578527 0)
(-9.67793 -0.622157 0)
(-9.66151 -0.647061 0)
(-9.01999 -0.615985 0)
(-9.00634 -0.644009 0)
(-8.39596 -0.579287 0)
(-8.38274 -0.613975 0)
(-7.82001 -0.521202 0)
(-7.80974 -0.551031 0)
(-7.31175 -0.438329 0)
(-7.30638 -0.477858 0)
(-6.90129 -0.32524 0)
(-6.9003 -0.358865 0)
(-6.66283 -0.280274 0)
(-6.66019 -0.288508 0)
(-6.64576 -0.238779 0)
(-6.61847 -0.206871 0)
(-6.79557 -0.108034 0)
(-6.77679 -0.0687365 0)
(-7.16755 0.150089 0)
(-7.14833 0.17088 0)
(-7.76997 0.427093 0)
(-7.76319 0.372782 0)
(-8.60853 0.733076 0)
(-8.66128 0.652203 0)
(-9.56517 0.858776 0)
(-9.91295 0.964622 0)
(-10.2745 0.825488 0)
(-11.3306 1.25093 0)
(-11.4353 1.2294 0)
(-12.6729 1.47966 0)
(-12.7533 1.38528 0)
(-13.9434 1.57635 0)
(-13.9998 1.47263 0)
(-15.0468 1.4728 0)
(-15.1203 1.38748 0)
(-15.8285 1.23942 0)
(-15.9069 1.16154 0)
(-16.2553 0.847716 0)
(-16.3415 0.680718 0)
(-16.419 0.377844 0)
(-16.4652 0.113207 0)
(-16.4309 -0.103989 0)
(-16.3349 -0.426752 0)
(-16.2667 -0.557074 0)
(-15.7424 -0.899841 0)
(-15.6955 -0.935882 0)
(-14.7267 -1.40935 0)
(-14.5569 -1.309 0)
(-13.2097 -2.03524 0)
(-12.8097 -1.70518 0)
(-11.4605 -2.01985 0)
(-11.0751 -1.45235 0)
(-9.82845 -2.05419 0)
(-9.57808 -1.75847 0)
(-8.19399 -2.14152 0)
(-7.88217 -1.58305 0)
(-6.62376 -1.94713 0)
(-6.39766 -1.55064 0)
(-5.20974 -1.80673 0)
(-5.03447 -1.41108 0)
(-3.84539 -1.7655 0)
(-3.704 -1.49626 0)
(-2.61499 -1.48389 0)
(-2.55468 -1.35091 0)
(-1.48141 -1.39029 0)
(-1.40499 -1.25777 0)
(-0.56232 -1.18099 0)
(-0.475676 -0.957358 0)
(0.17693 -0.883711 0)
(0.227963 -0.685749 0)
(0.811786 -0.615383 0)
(0.826342 -0.471218 0)
(1.34316 -0.398064 0)
(1.33581 -0.300204 0)
(1.69104 -0.235664 0)
(1.67995 -0.174098 0)
(1.84949 -0.0989166 0)
(1.84445 -0.0656394 0)
(1.8808 -0.0222875 0)
(1.83036 -0.00180002 0)
(1.8481 0.0114133 0)
(1.71167 -0.00335773 0)
(1.77459 0.0297838 0)
(1.58668 0.0836662 0)
(1.64293 0.114431 0)
(1.35591 0.114741 0)
(1.40244 0.125968 0)
(1.12195 0.02151 0)
(1.21286 0.0333531 0)
(0.977289 -0.0299687 0)
(1.07839 0.0257454 0)
(0.875918 0.101524 0)
(0.893122 0.128162 0)
(0.59148 0.0930741 0)
(0.64467 0.204542 0)
(0.307636 0.213804 0)
(0.298041 0.303205 0)
(-0.057721 0.349445 0)
(-0.125474 0.416842 0)
(-0.49996 0.502547 0)
(-0.672999 0.606594 0)
(-1.1228 0.663933 0)
(-1.38698 0.804719 0)
(-1.94563 0.80158 0)
(-2.23484 0.90948 0)
(-2.84716 0.888474 0)
(-3.10837 0.994681 0)
(-3.75943 0.890331 0)
(-3.96021 1.00139 0)
(-4.56535 0.840011 0)
(-4.70351 0.942477 0)
(-5.18392 0.702091 0)
(-5.26533 0.748808 0)
(-5.52133 0.441171 0)
(-5.54272 0.357108 0)
(-5.65688 0.131831 0)
(-5.64818 -0.0490048 0)
(-5.68213 -0.178542 0)
(-5.37847 -0.622668 0)
(-5.3825 -0.59769 0)
(-4.62752 -1.18521 0)
(-4.60022 -1.07207 0)
(-3.56136 -1.51301 0)
(-3.48016 -1.34593 0)
(-2.37655 -1.62175 0)
(-2.24566 -1.2582 0)
(-1.32716 -1.31745 0)
(-1.22585 -1.12473 0)
(-0.344607 -1.16456 0)
(-0.272336 -0.838767 0)
(0.61045 -0.918764 0)
(0.625734 -0.828754 0)
(1.69723 -0.881038 0)
(1.69846 -0.779392 0)
(2.76309 -0.736547 0)
(2.66754 -0.665046 0)
(3.71168 -0.640526 0)
(3.48225 -0.565464 0)
(4.47495 -0.531463 0)
(4.23143 -0.493544 0)
(5.08813 -0.433298 0)
(4.88735 -0.399904 0)
(5.48804 -0.285902 0)
(5.3615 -0.23597 0)
(5.67236 -0.100774 0)
(5.633 -0.0625402 0)
(5.73122 0.0281594 0)
(5.59465 0.0619479 0)
(5.59709 0.18989 0)
(5.3016 0.203536 0)
(5.32912 0.34148 0)
(4.70976 0.322194 0)
(4.96677 0.447693 0)
(4.00622 0.431654 0)
(4.31964 0.514376 0)
(3.11883 0.32789 0)
(3.73582 0.668573 0)
(2.46745 0.360041 0)
(2.76092 0.421673 0)
(1.62348 0.131624 0)
(2.19025 0.551626 0)
(1.12432 0.468366 0)
(1.17938 0.547014 0)
(0.334955 0.268451 0)
(0.590052 0.636908 0)
(-0.141256 0.570868 0)
(-0.181547 0.677462 0)
(-0.784186 0.431319 0)
(-0.711814 0.644653 0)
(-1.24276 0.517117 0)
(-1.29462 0.599284 0)
(-1.75961 0.367889 0)
(-1.7585 0.528337 0)
(-2.10563 0.369677 0)
(-2.19085 0.493579 0)
(-2.51665 0.293817 0)
(-2.57894 0.387488 0)
(-2.79804 0.263145 0)
(-2.86957 0.36764 0)
(-3.07626 0.273037 0)
(-3.12883 0.326382 0)
(-3.29385 0.230545 0)
(-3.32632 0.261298 0)
(-3.45613 0.18455 0)
(-3.47039 0.194467 0)
(-3.56333 0.133512 0)
(-3.5682 0.128834 0)
(-3.61589 0.0865158 0)
(-3.62416 0.0803034 0)
(-3.64502 0.0479267 0)
(-3.6479 0.042256 0)
(-3.65283 0.00809378 0)
(-3.6524 0.00245824 0)
(-3.62694 -0.0465044 0)
(-3.62436 -0.0521916 0)
(-3.55571 -0.1421 0)
(-3.54046 -0.134373 0)
(-3.40892 -0.269939 0)
(-3.38443 -0.251083 0)
(-3.13601 -0.438332 0)