/*--------------------------------*- C++ -*----------------------------------*\
| =========                 |                                                 |
| \\      /  F ield         | OpenFOAM: The Open Source CFD Toolbox           |
|  \\    /   O peration     | Version:  v1812                                 |
|   \\  /    A nd           | Web:      www.OpenFOAM.com                      |
|    \\/     M anipulation  |                                                 |
\*---------------------------------------------------------------------------*/
FoamFile
{
    version     2.0;
    format      ascii;
    class       volScalarField;
    location    "1.5";
    object      p;
}
// * * * * * * * * * * * * * * * * * * * * * * * * * * * * * * * * * * * * * //

dimensions      [1 -1 -2 0 0 0 0];


internalField   nonuniform List<scalar> 
20400
(
99598.4
99586.5
99597.6
99598.7
99600.1
99600.7
99601.2
99601.9
99602.7
99603.8
99605.1
99606.2
99606.8
99607.8
99608.1
99608.1
99605.3
99609.3
99612.5
99614.5
99614.9
99614.4
99612.1
99612.7
99609.5
99613.5
99614.7
99613.4
99611.5
99610.1
99608.1
99604.5
99602.1
99592.4
99596.9
99588.3
99585.9
99580.5
99576.7
99570.1
99563.1
99557.6
99551.9
99541
99543
99529.2
99532.4
99532.4
99529.7
99525.5
99523
99510.7
99517.1
99520.7
99519.2
99517.2
99514.5
99513.9
99516.4
99513.9
99513.2
99511.8
99508.7
99506
99501.8
99496.2
99493.2
99478.6
99488.1
99474.3
99471.9
99465.5
99462.1
99456.9
99451.9
99448.5
99439.7
99440.1
99442.8
99441.3
99439.2
99442.9
99444.2
99450.3
99459.2
99459.7
99462
99468.5
99471.9
99483.4
99496
99501.4
99505.7
99512
99518.2
99524.9
99529.2
99532.4
99537.9
99542.3
99546.8
99551.7
99557.3
99563.8
99569.5
99574.4
99580.5
99588
99596.2
99602.7
99613.8
99628
99634.5
99646.4
99660.6
99678
99695.8
99710.6
99727
99744.9
99762.1
99778.8
99794.3
99808.9
99823.5
99838
99854
99869
99882.6
99895.7
99907.7
99918.1
99926.1
99933.6
99939.8
99941.1
99943.1
99945.2
99947.4
99948.3
99947.9
99948
99945.6
99942.9
99940.4
99939.5
99933.4
99932.3
99928.1
99913.8
99908.9
99904
99900.2
99895.6
99890.5
99884.3
99878.9
99874.7
99870.7
99869.5
99866.3
99859.2
99856
99846.3
99836
99828.6
99829.8
99821.3
99811.9
99803
99797.6
99786.8
99775.7
99766.8
99756.9
99752.4
99747
99737
99734.8
99732.2
99736.7
99744.3
99747.3
99750.9
99762.7
99772.5
99786.3
99803.1
99819
99837.1
99854.9
99873.8
99892.7
99911.8
99930.5
99949.1
99967
99984.7
100002
100019
100036
100053
100068
100083
100096
100118
100122
100134
100148
100161
100177
100191
100205
100218
100232
100245
100258
100272
100286
100299
100312
100326
100337
100346
100362
100374
100387
100399
100412
100424
100436
100450
100462
100474
100486
100497
100503
100515
100526
100535
100548
100559
100567
100575
100580
100587
100592
100597
100601
100600
100601
100604
100606
100604
100602
100601
100600
100599
100597
100597
100596
100596
100595
100594
100592
100593
100594
100596
100596
100599
100601
100606
100610
100615
100619
100624
100628
100632
100636
100644
100643
100646
100647
100649
100650
100649
100647
100644
100643
100640
100635
100630
100625
100621
100614
100607
100599
100592
100586
100578
100571
100563
100555
100547
100540
100533
100527
100521
100515
100508
100499
100492
100487
100478
100466
100464
100455
100449
100443
100436
100430
100426
100423
100420
100417
100417
100416
100418
100421
100425
100429
100435
100440
100446
100456
100464
100474
100486
100496
100511
100531
100548
100566
100588
100612
100634
100656
100678
100701
100724
100749
100772
100794
100816
100839
100860
100880
100898
100915
100931
100947
100962
100977
100990
101002
101015
101027
101038
101049
101060
101069
101078
101088
101097
101106
101114
101122
101131
101138
101146
101153
101161
101168
101174
101181
101186
101191
101196
101200
101205
101209
101212
101215
101219
101221
101221
101224
101224
101224
101224
101221
101220
101218
101215
101213
101209
101206
101201
101197
101192
101188
101183
101178
101173
101167
101160
101154
101148
101142
101136
101131
101125
101119
101113
101108
101104
101099
101095
101091
101087
101083
101080
101076
101073
101070
101067
101064
101061
101059
101056
101055
101052
101050
101047
101045
101044
101041
101039
101036
101032
101030
101028
101026
101025
101023
101023
101022
101021
101020
101020
101020
101020
101022
101024
101026
101028
101032
101035
101038
101041
101045
101050
101055
101060
101066
101072
101077
101085
101091
101098
101106
101114
101121
101130
101138
101147
101156
101166
101175
101185
101197
101208
101219
101231
101245
101258
101272
101286
101298
101320
99597.3
99586.2
99598.3
99597.4
99599
99599.3
99599.6
99600.1
99600.8
99601.8
99602.9
99603.8
99604.4
99606.9
99608.7
99610.2
99609.4
99606.5
99609.5
99612.1
99612.7
99611.6
99610.2
99615.3
99614.3
99604.1
99611.8
99610.9
99608.9
99607.1
99604.8
99600.9
99597.7
99590.5
99583.2
99580.5
99577.6
99571.9
99567.3
99564.5
99564.3
99560.9
99554
99540
99536
99515.9
99528.7
99529.5
99526.2
99522
99518.8
99520.5
99520.8
99516.5
99514.9
99513.4
99508.7
99519.3
99513.6
99508.6
99507.8
99507.3
99505.4
99503.6
99499
99493
99492.4
99486.4
99475.7
99448.8
99460.8
99458.8
99453.7
99449.5
99453.7
99451.1
99440.4
99439.4
99442.3
99442.1
99441.3
99447.5
99444.1
99441.7
99457
99464.7
99468.5
99484
99486.5
99450.8
99485.1
99499.3
99507
99514
99520.2
99527.1
99533.1
99540.4
99546.8
99552.4
99558.2
99564
99570.2
99575.8
99582.2
99586.1
99591.3
99600.9
99615.9
99622.9
99633.5
99644.9
99650
99658.6
99668.5
99677.2
99687
99695.2
99704.4
99715.2
99726.6
99739.6
99753.3
99768.5
99784.9
99800.4
99808.4
99814.3
99820.1
99827.3
99835.2
99843.8
99850.3
99860.7
99880.7
99895.9
99909.7
99922.4
99933.5
99940.9
99944.6
99946.3
99944.6
99942.2
99939.2
99937.9
99932.1
99934.2
99928
99916.7
99909.7
99904.3
99900.8
99896.7
99893.1
99889.5
99885.2
99879.9
99872
99867.3
99856.7
99853.1
99849.8
99853
99860.8
99863.4
99856.9
99857.1
99853.6
99845
99834.2
99824.4
99816.1
99806.9
99795.8
99791
99785.5
99772.3
99764.3
99753.8
99754
99765.9
99767.6
99763.3
99766.4
99769.7
99775.1
99781.8
99790.1
99800
99811.1
99823.8
99837.6
99852.6
99868.3
99884.9
99902
99919.5
99937.5
99955.4
99973.2
99991.2
100009
100027
100045
100061
100099
100116
100133
100151
100169
100186
100201
100217
100232
100245
100260
100275
100290
100305
100319
100333
100345
100369
100381
100396
100409
100422
100434
100445
100457
100467
100478
100488
100496
100505
100511
100517
100527
100534
100542
100550
100557
100565
100571
100578
100585
100588
100593
100595
100597
100599
100600
100600
100601
100600
100599
100597
100594
100593
100590
100588
100587
100586
100584
100588
100591
100594
100601
100602
100603
100608
100609
100609
100609
100610
100611
100614
100621
100609
100601
100597
100594
100592
100590
100589
100588
100587
100586
100585
100584
100583
100581
100580
100578
100575
100571
100567
100563
100558
100554
100549
100543
100537
100531
100526
100521
100510
100505
100499
100491
100485
100480
100474
100465
100463
100456
100453
100449
100445
100440
100436
100432
100429
100425
100423
100421
100420
100421
100422
100424
100428
100432
100440
100450
100459
100470
100486
100500
100518
100533
100548
100564
100582
100599
100617
100636
100655
100677
100704
100714
100727
100745
100762
100780
100799
100819
100839
100860
100880
100901
100921
100941
100960
100978
100995
101012
101028
101043
101058
101070
101083
101096
101108
101119
101129
101139
101148
101157
101165
101172
101179
101186
101192
101198
101204
101209
101214
101217
101221
101224
101225
101226
101224
101221
101215
101216
101217
101217
101216
101213
101212
101210
101207
101204
101201
101198
101194
101190
101185
101180
101175
101171
101166
101161
101156
101152
101147
101141
101135
101131
101126
101120
101111
101105
101098
101091
101084
101078
101072
101067
101061
101056
101052
101047
101043
101039
101036
101033
101030
101028
101026
101025
101023
101022
101022
101021
101022
101022
101021
101021
101021
101021
101021
101021
101021
101022
101023
101023
101023
101024
101024
101024
101024
101025
101021
101025
101027
101031
101034
101038
101042
101046
101051
101056
101062
101068
101075
101081
101088
101096
101104
101111
101120
101129
101138
101148
101158
101169
101180
101192
101204
101215
101227
101243
101256
101269
101282
101294
101321
99597.6
99585.6
99597.6
99597.1
99598.5
99599
99599.3
99599.7
99600.4
99601.4
99602.2
99602.8
99603.6
99606.4
99607.5
99608.3
99608.2
99608.4
99608.3
99612.2
99612.7
99612.2
99610.6
99612.6
99604.5
99610.2
99611.2
99610.2
99609
99607.9
99606.1
99604.3
99603.8
99599.7
99591.3
99586.2
99583.2
99576.4
99567.9
99561.9
99559
99553
99546.7
99540.2
99539.2
99528.1
99528.9
99528.9
99526.3
99523.3
99519.7
99511.4
99521.1
99517.1
99520.1
99519.8
99519.7
99506.8
99514.2
99515
99514.4
99512.5
99508.7
99505.7
99503.4
99497.7
99496.2
99493
99480.3
99469.8
99468
99465.1
99458.1
99451.1
99448.9
99446.1
99438.9
99438.4
99441.7
99441.4
99440.4
99443.2
99446.4
99451.1
99455.7
99459.5
99462.2
99471.3
99473.2
99488
99501
99506.4
99512.9
99519.9
99526.4
99532.9
99538
99541.5
99547
99550.7
99554.8
99558.5
99561.1
99565.6
99567.4
99568.7
99571.8
99573.1
99572.6
99575.9
99579.3
99584.6
99583.4
99588.5
99593.6
99599.5
99607.7
99615.7
99626.5
99639.9
99656.3
99678.9
99706.9
99735.9
99762.8
99787.2
99807.7
99824.1
99837.5
99849.3
99859.8
99868.7
99877.6
99887.2
99896.6
99905.9
99913.9
99920.2
99926.5
99930.8
99933.6
99936.8
99936.6
99936.6
99936.5
99940.1
99942.5
99938.1
99919.4
99910.9
99908.2
99905.6
99903.3
99901.3
99898.4
99892.1
99884.5
99880.1
99875.1
99873.8
99880.7
99883.9
99886.3
99879.9
99867.9
99853.7
99847.2
99838.6
99829.8
99818.2
99809.3
99807.3
99801.3
99794.8
99784.7
99776
99766.7
99757.6
99758.6
99759.8
99747.7
99736.6
99737.2
99746.3
99754.1
99764.4
99775.9
99790.3
99805.6
99822.6
99839.6
99857
99874.1
99891.3
99908.4
99925.9
99943.2
99960.4
99978.3
99996.5
100015
100036
100055
100073
100092
100110
100125
100141
100156
100170
100184
100196
100208
100221
100234
100247
100261
100275
100290
100304
100318
100331
100344
100356
100369
100383
100396
100409
100422
100434
100447
100460
100474
100487
100500
100511
100523
100545
100553
100562
100571
100580
100589
100597
100605
100612
100619
100625
100630
100634
100639
100637
100633
100636
100636
100634
100632
100629
100624
100623
100617
100614
100610
100608
100605
100601
100596
100594
100592
100589
100586
100584
100583
100583
100583
100583
100584
100583
100585
100597
100607
100614
100618
100622
100626
100629
100629
100630
100632
100632
100631
100629
100628
100626
100621
100613
100607
100602
100596
100590
100584
100578
100571
100565
100558
100551
100542
100540
100532
100526
100521
100516
100511
100503
100499
100484
100476
100474
100472
100466
100460
100457
100454
100451
100448
100448
100446
100448
100448
100449
100450
100453
100454
100460
100466
100470
100476
100484
100491
100505
100517
100529
100542
100559
100575
100594
100612
100634
100657
100680
100711
100740
100765
100790
100816
100841
100864
100887
100908
100928
100949
100966
100981
100993
101005
101017
101029
101041
101053
101063
101073
101083
101093
101102
101110
101118
101126
101134
101142
101149
101156
101163
101170
101176
101182
101188
101193
101197
101201
101205
101209
101213
101218
101224
101227
101239
101239
101239
101239
101238
101236
101235
101233
101230
101227
101223
101220
101215
101210
101205
101199
101193
101187
101181
101174
101167
101160
101153
101146
101138
101130
101123
101115
101112
101107
101101
101095
101090
101086
101081
101077
101072
101068
101064
101061
101057
101055
101053
101051
101049
101049
101048
101047
101045
101045
101045
101043
101042
101039
101036
101033
101031
101030
101028
101027
101027
101026
101026
101026
101027
101028
101030
101033
101035
101036
101050
101053
101056
101060
101064
101069
101074
101079
101085
101090
101096
101102
101109
101116
101123
101130
101138
101145
101153
101161
101169
101177
101185
101194
101201
101210
101219
101227
101237
101247
101256
101267
101280
101289
101311
99598.6
99587.2
99598.3
99598.8
99599.5
99600.1
99600.7
99601.4
99602.3
99603.4
99604.2
99604.7
99605.3
99606.6
99606.8
99607.6
99606.8
99608.2
99610.4
99612.2
99614.4
99616.1
99613.5
99612.9
99607.1
99610
99612.4
99610.8
99609.6
99607.6
99603.8
99602.5
99602.1
99597.3
99596
99589
99586
99581.7
99574.4
99568.4
99562
99555.2
99544.8
99538.1
99538.4
99527.1
99527.8
99527.1
99523.9
99523.5
99519.4
99513.3
99515.8
99519.4
99520.7
99524.1
99520.7
99508.1
99516.3
99515.1
99514.8
99513.9
99510.6
99505.1
99503.3
99499.2
99494.1
99485.7
99484.4
99474.1
99473
99468.5
99464.5
99458.1
99453.2
99449.4
99444.8
99442.8
99441.2
99438.8
99437.6
99439.4
99442.4
99446.8
99452.5
99457.5
99461.8
99468.4
99474.3
99482.6
99487.3
99492.3
99497.9
99504.7
99511.8
99518.7
99525.4
99533.7
99538.8
99544.7
99548.2
99552.7
99558
99563.8
99568.5
99571.6
99578.3
99585.3
99591.3
99597.1
99604.9
99619.1
99623.1
99631
99646.5
99657.9
99674.4
99690.5
99707.5
99726.4
99745.1
99762.7
99778.3
99792
99805.5
99820.4
99839.4
99857.7
99874.4
99888.9
99902.3
99914.2
99922.3
99927.7
99929.6
99930.8
99932.2
99933.2
99934.1
99934.2
99934.4
99935.8
99935.1
99935.1
99932.8
99932.9
99938.3
99935.2
99926.9
99918.7
99913.2
99904.7
99897.2
99888.9
99884.8
99881.4
99877.3
99876.6
99875
99881.2
99882.3
99870.3
99854.1
99849.7
99842.7
99826.3
99817.1
99821.2
99814.4
99806.9
99805.7
99803.1
99794.3
99784.9
99773.2
99763.5
99751.6
99737.7
99739.9
99734.3
99734
99731.6
99737.6
99740.1
99750.4
99754.8
99767.7
99785.1
99803.7
99824
99844.7
99866.1
99886.9
99907.3
99927
99947
99966.3
99985.2
100005
100024
100040
100048
100059
100072
100087
100100
100115
100130
100144
100160
100177
100190
100205
100220
100235
100249
100263
100274
100286
100300
100314
100328
100341
100355
100368
100383
100395
100408
100421
100434
100448
100461
100474
100485
100495
100503
100508
100517
100528
100538
100548
100558
100569
100579
100587
100594
100599
100602
100605
100608
100608
100608
100611
100610
100610
100609
100607
100604
100599
100597
100594
100591
100588
100587
100583
100584
100583
100584
100585
100586
100588
100593
100595
100600
100605
100610
100616
100621
100626
100629
100634
100639
100642
100644
100646
100648
100648
100646
100637
100630
100625
100620
100617
100614
100613
100607
100600
100594
100587
100580
100574
100567
100560
100552
100545
100540
100535
100527
100523
100517
100511
100502
100495
100489
100478
100466
100460
100457
100452
100446
100439
100434
100430
100427
100422
100421
100419
100419
100421
100422
100424
100428
100430
100436
100446
100454
100465
100478
100490
100503
100521
100536
100552
100574
100595
100619
100643
100667
100690
100714
100739
100764
100786
100807
100825
100843
100862
100880
100899
100918
100938
100957
100975
100988
101000
101014
101027
101039
101048
101059
101070
101081
101091
101100
101109
101118
101127
101136
101145
101153
101160
101165
101172
101178
101184
101190
101197
101202
101206
101212
101216
101219
101221
101223
101224
101224
101225
101225
101226
101225
101223
101222
101220
101217
101214
101211
101207
101202
101198
101193
101188
101182
101177
101171
101165
101158
101153
101147
101141
101134
101128
101123
101115
101108
101102
101097
101092
101087
101084
101081
101078
101076
101073
101072
101070
101068
101067
101067
101066
101061
101052
101046
101042
101039
101037
101037
101035
101037
101035
101033
101030
101029
101027
101026
101025
101024
101024
101025
101025
101026
101026
101026
101027
101028
101030
101031
101035
101038
101042
101045
101049
101053
101057
101062
101067
101072
101079
101085
101092
101099
101107
101115
101122
101131
101139
101148
101157
101166
101175
101184
101195
101206
101216
101228
101241
101254
101266
101282
101295
101318
99596.1
99585.6
99595.6
99595.3
99596.2
99597.3
99598.4
99599.9
99601.2
99602.4
99603.5
99604.7
99605.6
99606.7
99607.4
99608.1
99607.3
99608
99609.7
99611.1
99612.4
99613.2
99613.8
99614.8
99610.2
99614.3
99616.8
99616.4
99615.1
99612.7
99608.5
99606.1
99603.9
99599.4
99595.6
99587.4
99585
99582.9
99578.5
99572.3
99566.2
99560.9
99550.6
99542.3
99537.4
99528.3
99525.5
99521.5
99518.9
99515.3
99514.2
99513.2
99516.9
99512.9
99513.3
99514.6
99512.5
99513.7
99518.6
99518.5
99518
99517.6
99515
99509.5
99510.6
99506
99500.7
99496.4
99493.6
99486.5
99483.1
99476.4
99470.7
99466.1
99459.9
99455.7
99450.6
99447.6
99441.9
99439.9
99438.9
99440.8
99441.1
99442.7
99446.2
99449.2
99456.4
99460.6
99465.8
99480.3
99487.8
99495.8
99503
99511.4
99519.5
99526.7
99533.4
99539
99544.3
99547.9
99550.8
99552.8
99556.3
99560.8
99565.1
99568.2
99572.6
99582
99586.9
99591.4
99606.7
99613.4
99617.7
99631.6
99639
99655
99669
99686.1
99705.2
99725.1
99744.5
99762.3
99778.4
99792.7
99806.5
99819.1
99832.6
99848.1
99862
99876.5
99893.2
99910.7
99924.9
99934.8
99938.6
99942.3
99943.9
99943.8
99943.8
99942.3
99940.3
99937.8
99934
99931.3
99925.5
99922.2
99918.6
99916.1
99912.4
99906.4
99897.8
99893.2
99888.9
99884.2
99880.7
99876.7
99872.9
99874
99862.2
99848.1
99850.7
99852.2
99839.5
99836.5
99842
99836
99824.4
99839.2
99841.1
99829.8
99813.8
99800.6
99786.1
99771.3
99757.2
99745.5
99732.2
99717.3
99718
99719.8
99723.4
99729.9
99729.4
99738.7
99754.8
99767.5
99778.2
99791.1
99804.6
99819.9
99837.3
99857.2
99877.8
99899.1
99920.4
99942
99963.1
99983.4
100005
100027
100048
100062
100076
100092
100107
100121
100134
100148
100161
100174
100182
100191
100203
100216
100229
100242
100256
100271
100286
100300
100313
100327
100341
100353
100364
100379
100392
100405
100418
100429
100437
100448
100459
100470
100482
100493
100501
100513
100526
100538
100551
100566
100570
100575
100581
100589
100594
100595
100599
100605
100607
100610
100613
100612
100613
100612
100609
100605
100600
100598
100595
100593
100589
100588
100586
100588
100588
100591
100591
100594
100596
100595
100596
100598
100602
100606
100611
100616
100622
100627
100632
100639
100643
100646
100650
100656
100662
100664
100657
100651
100647
100644
100643
100639
100619
100605
100601
100596
100589
100582
100575
100568
100561
100555
100549
100545
100540
100532
100521
100512
100507
100498
100488
100482
100475
100470
100461
100457
100452
100446
100438
100432
100429
100425
100421
100421
100418
100420
100422
100425
100427
100432
100436
100441
100449
100460
100467
100478
100493
100504
100517
100530
100547
100568
100590
100616
100641
100667
100692
100718
100747
100776
100805
100831
100851
100869
100888
100905
100923
100940
100959
100972
100979
100989
101001
101014
101026
101038
101051
101063
101072
101083
101091
101102
101111
101119
101124
101128
101134
101141
101149
101158
101165
101171
101178
101186
101195
101200
101203
101204
101205
101209
101212
101216
101221
101223
101224
101225
101227
101226
101222
101221
101220
101217
101214
101210
101206
101202
101199
101195
101190
101183
101178
101172
101166
101159
101153
101147
101141
101134
101129
101124
101119
101114
101109
101100
101093
101087
101082
101077
101074
101072
101069
101069
101069
101068
101067
101068
101069
101068
101064
101060
101059
101057
101057
101059
101057
101044
101034
101032
101030
101028
101027
101024
101024
101025
101025
101025
101024
101024
101024
101024
101024
101025
101027
101030
101034
101037
101041
101044
101048
101052
101057
101063
101069
101073
101081
101088
101097
101106
101113
101119
101124
101133
101141
101149
101158
101167
101176
101185
101196
101209
101218
101229
101244
101253
101270
101284
101298
101318
99595.2
99584.5
99594
99593.9
99594.5
99595.7
99596.5
99597.6
99598.5
99599
99599.8
99601.4
99603.2
99604.5
99605.9
99607.2
99606.9
99608.1
99611.2
99612.3
99611.9
99612.7
99612.9
99613.6
99610.2
99612.5
99614.3
99614.2
99613.8
99612.6
99611
99609.1
99607.4
99602.5
99598.9
99592.6
99588.6
99582.4
99574.6
99567.2
99561.7
99558
99549.9
99541.7
99538.5
99530.8
99527.9
99522
99517.1
99514.2
99512.5
99512.9
99514.3
99514.3
99516.1
99517.2
99518
99519.7
99522.1
99522.2
99522.9
99521.8
99520.4
99518.9
99515.4
99510.3
99501.9
99495.8
99490.5
99482.1
99477.6
99468.8
99461.7
99454.4
99448
99443
99438.5
99434
99430.7
99426
99425.2
99426.1
99429.9
99433.7
99439.1
99445.3
99453.4
99462.8
99472.5
99484.1
99489.8
99495
99502
99509.5
99517
99524.1
99531.2
99539.1
99545.7
99551.4
99555.4
99559.7
99565.6
99570.7
99575.7
99578.4
99586.8
99589.4
99597.8
99602.3
99601.6
99635.7
99634
99631
99654
99661.4
99677.5
99691.6
99705
99721.7
99738.1
99755
99771.9
99789.2
99806.6
99822.4
99837
99850.9
99861.4
99868.9
99873
99877.6
99885.4
99894.7
99902.7
99910.5
99917.3
99922.7
99927.1
99929.2
99930.3
99929.8
99928.1
99927.5
99922.9
99921.9
99921.3
99913.7
99907.3
99901
99893.6
99887.6
99882.4
99877.5
99871.9
99867.5
99863
99859.1
99852
99845
99849.5
99853.6
99856.5
99854.7
99859.7
99848
99825.7
99811.2
99805.9
99795.8
99779.5
99769.4
99765.4
99756.2
99747.8
99742.5
99727.6
99717.3
99716.4
99713.8
99717.9
99724.1
99730.2
99736.7
99752
99766
99779.4
99798.1
99816.8
99834.2
99852.4
99870.6
99889.4
99908.4
99926.4
99944.6
99962.6
99978.7
99990.1
100003
100022
100043
100060
100077
100093
100110
100125
100141
100155
100172
100185
100195
100210
100224
100238
100252
100266
100276
100282
100296
100310
100323
100336
100350
100363
100379
100391
100403
100414
100426
100438
100452
100465
100478
100495
100510
100520
100522
100523
100527
100536
100548
100556
100563
100574
100584
100592
100598
100605
100614
100619
100618
100612
100606
100603
100598
100594
100592
100587
100585
100581
100582
100581
100579
100578
100585
100586
100588
100594
100599
100601
100608
100612
100615
100619
100622
100625
100627
100631
100632
100633
100636
100636
100635
100630
100629
100632
100635
100635
100633
100630
100627
100628
100629
100619
100610
100603
100597
100590
100581
100576
100572
100566
100557
100546
100533
100527
100520
100510
100500
100500
100496
100490
100489
100480
100478
100470
100461
100450
100439
100430
100426
100421
100417
100413
100410
100408
100409
100416
100418
100421
100427
100430
100436
100447
100454
100463
100480
100497
100508
100526
100541
100559
100580
100599
100620
100640
100660
100681
100701
100723
100746
100773
100798
100822
100845
100868
100889
100909
100929
100952
100975
100983
100992
101005
101021
101035
101045
101046
101058
101068
101079
101088
101095
101102
101109
101118
101126
101134
101140
101150
101163
101173
101181
101179
101179
101187
101191
101194
101201
101203
101207
101210
101216
101223
101227
101228
101223
101222
101221
101219
101219
101218
101216
101213
101210
101209
101202
101196
101190
101186
101181
101176
101171
101165
101158
101153
101147
101142
101135
101129
101124
101120
101114
101110
101105
101102
101097
101093
101089
101085
101083
101078
101075
101073
101070
101064
101053
101047
101048
101048
101046
101045
101043
101043
101045
101045
101041
101034
101032
101030
101030
101031
101030
101023
101023
101023
101024
101024
101024
101024
101024
101024
101025
101026
101028
101032
101036
101040
101045
101048
101052
101057
101063
101068
101071
101080
101087
101090
101094
101101
101109
101114
101125
101134
101144
101155
101165
101174
101183
101195
101205
101217
101231
101240
101258
101266
101285
101298
101318
99592.5
99585.2
99591.5
99592.1
99592.8
99594.4
99595.2
99596.2
99597.3
99598.2
99599
99600
99600.9
99601.9
99603
99603.2
99603.1
99605.6
99608.8
99610.4
99611.6
99612.9
99614.2
99616.2
99611.7
99614
99615.6
99615.5
99614.9
99612.5
99610.5
99610
99608
99603.6
99600.5
99596.3
99591.5
99585.2
99578.3
99570.7
99562.4
99555.3
99542.6
99535.6
99531.6
99524.7
99521
99515.5
99512.1
99508.4
99506.8
99506.3
99508.2
99508.8
99511.6
99517.2
99515.5
99519.4
99516.5
99517.1
99516.2
99516.4
99516
99515.4
99515.9
99513.9
99504.6
99499.7
99492.5
99483.8
99477.2
99467.6
99459.7
99451.5
99444.5
99438
99432.8
99427.4
99425.4
99423.1
99424.2
99423.8
99425
99428.3
99434.3
99440.1
99451.2
99461.1
99473
99487.3
99497.6
99507.1
99517
99526.4
99535
99541.6
99547.3
99551.4
99554
99555.6
99556.4
99555.5
99556
99557.9
99563.1
99566.1
99571.8
99582.3
99590.6
99591.4
99610.2
99618.9
99616.6
99631.6
99643.4
99657.6
99669.4
99683
99699.8
99715.8
99731.6
99747
99762.9
99779.3
99796.9
99815.8
99832.9
99851.6
99871.8
99888.6
99897.4
99901.4
99904.2
99906.8
99907.7
99909.6
99911.3
99912.6
99913.9
99913.4
99912.6
99910.1
99907.4
99905.3
99898.1
99897.5
99897.8
99894.4
99890.1
99884.4
99877.5
99873.6
99869.4
99864.3
99860.2
99855.9
99851.9
99849.9
99846.1
99848.6
99853.3
99852
99850.1
99840.4
99827.2
99813.1
99800.5
99792.8
99793.6
99795.3
99794.8
99791.4
99788.4
99771.4
99759.1
99742.7
99723.1
99707.6
99707
99704.3
99703.1
99715.2
99719.7
99732
99737.2
99749.5
99763.2
99779.7
99801.2
99822.3
99843.6
99865.2
99887.1
99908.8
99929.2
99950.3
99973.2
99996
100013
100026
100040
100056
100070
100084
100098
100112
100125
100136
100148
100159
100176
100189
100203
100217
100231
100245
100260
100273
100284
100296
100310
100325
100339
100352
100360
100374
100387
100400
100413
100426
100439
100453
100465
100474
100479
100487
100495
100499
100509
100522
100533
100548
100565
100583
100598
100605
100604
100601
100597
100597
100598
100597
100593
100594
100594
100592
100592
100593
100589
100590
100583
100584
100580
100578
100581
100574
100574
100579
100574
100578
100582
100591
100595
100601
100607
100613
100619
100625
100631
100636
100640
100646
100653
100658
100655
100650
100647
100644
100642
100637
100632
100626
100619
100617
100615
100605
100597
100592
100586
100579
100571
100561
100552
100543
100535
100526
100525
100522
100518
100518
100520
100516
100506
100493
100475
100467
100457
100444
100435
100428
100418
100420
100418
100413
100409
100407
100407
100412
100418
100420
100422
100427
100431
100438
100443
100453
100459
100467
100480
100496
100515
100533
100554
100578
100599
100624
100648
100676
100704
100727
100747
100766
100786
100806
100826
100847
100867
100886
100904
100921
100939
100957
100975
100985
100997
101011
101025
101037
101046
101058
101068
101078
101086
101095
101104
101112
101122
101134
101143
101146
101141
101150
101158
101166
101168
101176
101187
101187
101190
101203
101209
101216
101217
101207
101214
101218
101216
101215
101219
101219
101216
101218
101219
101218
101215
101207
101202
101197
101195
101189
101185
101181
101177
101173
101166
101159
101153
101146
101140
101133
101129
101123
101115
101106
101101
101097
101093
101089
101087
101085
101084
101083
101080
101079
101077
101078
101077
101070
101066
101063
101059
101056
101052
101049
101046
101044
101040
101039
101034
101030
101026
101024
101025
101023
101022
101022
101022
101022
101022
101021
101021
101020
101020
101021
101023
101028
101034
101039
101043
101046
101047
101049
101053
101058
101064
101066
101076
101080
101087
101095
101104
101115
101122
101134
101144
101150
101156
101164
101173
101182
101194
101207
101216
101225
101240
101252
101270
101282
101298
101316
99589
99583.5
99588.5
99589.2
99590
99591.9
99593.1
99594.3
99595.5
99596.8
99597.8
99599
99600.3
99601.6
99603.2
99604.1
99604.4
99605.4
99607.6
99609.2
99610
99610.3
99611.6
99614
99610.4
99614.1
99617
99617
99616
99614.5
99613.2
99610.2
99606.8
99603.5
99600.7
99596.7
99591.6
99585
99579.1
99571.7
99562.8
99555
99541.3
99534.8
99529.2
99520.4
99515.4
99509.2
99505.1
99501.9
99501.3
99501.5
99503.4
99505.5
99509.2
99510.6
99516.1
99520.6
99524.5
99527.5
99530.4
99530.6
99531.6
99529.8
99526
99520.8
99513.3
99506.3
99498.7
99489
99480.6
99469.3
99459.8
99450.6
99442.4
99434.9
99427
99422.4
99419.5
99415.7
99421.7
99421.9
99425.5
99430.5
99437.7
99444.5
99455
99463.2
99468.4
99475.4
99484
99494.4
99505.7
99516.4
99526.9
99537.6
99546.6
99554.1
99560.6
99566.4
99571.3
99574.9
99578.9
99580.2
99579.8
99579.2
99584.2
99583.2
99600.8
99600.4
99596.1
99620.6
99628.3
99622.2
99643.9
99653.1
99663.1
99676.2
99690.5
99708.3
99725.4
99742.1
99758.5
99774.1
99789.1
99802.9
99813
99821.6
99833.3
99847.8
99860.9
99872.8
99882.8
99891.8
99898.5
99904.4
99908.1
99910.4
99911.8
99911.4
99910.8
99908.1
99906.5
99904.9
99896.9
99893.9
99889.1
99882.2
99876.7
99869.4
99862.4
99857.1
99852.7
99849.4
99845.7
99843.1
99840.3
99840.3
99837.6
99835.7
99834.1
99827.8
99824.5
99822.3
99820
99815.6
99817.1
99817.9
99817.1
99811.6
99802.7
99783.5
99757.8
99733.2
99730
99721.4
99693.1
99704.3
99704.5
99702.2
99697.1
99713.2
99715.5
99720.5
99735
99751.4
99764.6
99781.4
99799.6
99819.1
99838.8
99858.3
99878.6
99898
99916.2
99932.3
99949.6
99972
99993.1
100013
100031
100048
100065
100081
100096
100112
100128
100143
100156
100169
100181
100193
100207
100220
100232
100244
100256
100270
100281
100294
100307
100320
100335
100348
100360
100373
100386
100399
100410
100422
100433
100445
100456
100466
100477
100491
100503
100512
100527
100548
100558
100557
100565
100572
100578
100580
100578
100582
100590
100592
100595
100600
100606
100611
100612
100603
100593
100588
100582
100576
100580
100578
100576
100575
100574
100574
100576
100578
100586
100588
100588
100591
100594
100598
100602
100606
100610
100613
100617
100619
100618
100618
100625
100630
100633
100635
100636
100637
100637
100634
100632
100631
100627
100621
100616
100608
100602
100594
100587
100578
100570
100564
100558
100551
100547
100540
100545
100542
100532
100520
100508
100501
100490
100472
100462
100460
100452
100443
100440
100435
100427
100421
100416
100408
100406
100403
100406
100406
100411
100414
100416
100420
100424
100430
100439
100446
100456
100472
100483
100502
100513
100527
100544
100563
100581
100598
100619
100645
100672
100696
100723
100748
100774
100799
100823
100845
100867
100888
100910
100932
100949
100964
100978
100988
101000
101014
101025
101036
101046
101057
101067
101077
101086
101096
101105
101111
101116
101120
101129
101135
101141
101152
101160
101167
101172
101184
101198
101198
101191
101197
101199
101205
101204
101207
101214
101217
101216
101216
101227
101227
101227
101221
101212
101213
101210
101205
101203
101195
101195
101193
101190
101184
101176
101170
101165
101158
101153
101148
101141
101135
101128
101123
101116
101111
101107
101101
101097
101091
101087
101082
101078
101075
101070
101061
101056
101056
101057
101056
101054
101053
101052
101050
101049
101046
101046
101048
101046
101043
101039
101035
101032
101029
101027
101024
101022
101021
101021
101021
101020
101019
101019
101019
101020
101023
101030
101032
101033
101034
101036
101040
101043
101046
101052
101060
101066
101068
101079
101087
101096
101105
101108