/*--------------------------------*- C++ -*----------------------------------*\
| =========                 |                                                 |
| \\      /  F ield         | OpenFOAM: The Open Source CFD Toolbox           |
|  \\    /   O peration     | Version:  v1812                                 |
|   \\  /    A nd           | Web:      www.OpenFOAM.com                      |
|    \\/     M anipulation  |                                                 |
\*---------------------------------------------------------------------------*/
FoamFile
{
    version     2.0;
    format      ascii;
    class       surfaceScalarField;
    location    "1.5";
    object      phi;
}
// * * * * * * * * * * * * * * * * * * * * * * * * * * * * * * * * * * * * * //

dimensions      [1 0 -1 0 0 0 0];
oriented        oriented;


internalField   nonuniform List<scalar> 
40240
(
-0.000130641
-0.000173233
-0.000424694
-1.06822e-05
-0.000621468
-0.00010632
-0.000846808
-7.86399e-05
-0.00104716
-0.000103678
-0.00125091
-0.000100348
-0.00147702
-7.81375e-05
-0.00173209
-4.94561e-05
-0.00200489
-3.2101e-05
-0.0022672
-4.30098e-05
-0.00250075
-7.20692e-05
-0.002714
-9.23937e-05
-0.00292831
-9.09935e-05
-0.00315222
-8.10797e-05
-0.00340245
-5.46699e-05
-0.00362831
-7.92032e-05
-0.00372361
-0.000209492
-0.0038546
-0.000173476
-0.00403339
-0.000124082
-0.00417111
-0.000164427
-0.00430659
-0.000165402
-0.00442975
-0.000176453
-0.00448152
-0.000246484
-0.00463011
-0.000148398
-0.00471542
-0.000210652
-0.00497913
-3.04362e-05
-0.00521444
-5.68925e-05
-0.00546816
-3.72402e-05
-0.00573239
-2.5299e-05
-0.00600309
-1.69273e-05
-0.00631161
2.31857e-05
-0.00671995
0.000125453
-0.00723366
0.000233825
-0.00767781
0.000173853
-0.00787726
-6.93806e-05
-0.00798806
-0.000158124
-0.00827218
2.0056e-05
-0.0086393
0.000104956
-0.00902344
0.000126661
-0.00946831
0.000192072
-0.00997418
0.000257752
-0.0105188
0.000300502
-0.0111781
0.000419302
-0.0119928
0.000581968
-0.0124211
0.000195512
-0.0125695
-7.53838e-05
-0.0128262
3.78143e-05
-0.0130678
2.86577e-05
-0.0133088
3.52419e-05
-0.0135134
4.52251e-06
-0.0136391
-6.99933e-05
-0.0138194
-1.28212e-05
-0.0142282
0.000223395
-0.0142039
-0.000203059
-0.0140405
-0.000335176
-0.0138089
-0.000398652
-0.0136793
-0.000289185
-0.0137361
-9.79455e-05
-0.0136403
-0.000245853
-0.0135971
-0.000186447
-0.0135788
-0.000155728
-0.0135234
-0.000186297
-0.0134776
-0.000171594
-0.0134558
-0.000140071
-0.0135342
-3.28054e-05
-0.0137827
0.000144846
-0.0142023
0.00031856
-0.0145512
0.000256564
-0.0147452
0.000103326
-0.0148181
-8.02638e-06
-0.0149697
7.37447e-05
-0.0152181
0.000174402
-0.0156659
0.000378732
-0.0161032
0.000374794
-0.0165469
0.000387959
-0.0169025
0.000307039
-0.0170411
9.16048e-05
-0.0173698
0.000291893
-0.0175644
0.000162619
-0.0177075
0.000115674
-0.0178571
0.000126658
-0.0180857
0.000210819
-0.0182761
0.000177321
-0.0182977
1.28278e-05
-0.0180586
-0.000241107
-0.0176379
-0.000418717
-0.0174214
-0.00021073
-0.0174093
-2.60796e-06
-0.0175161
0.000117454
-0.0175207
1.8336e-05
-0.0172963
-0.000209287
-0.0170271
-0.00025314
-0.0167676
-0.000243012
-0.0165742
-0.000176203
-0.0164698
-8.73188e-05
-0.0164432
-7.89697e-06
-0.0164381
1.20913e-05
-0.0165171
9.97049e-05
-0.0166919
0.000195952
-0.0169883
0.000317258
-0.0174122
0.00044423
-0.0179262
0.000533355
-0.0184647
0.00055761
-0.018978
0.000532126
-0.0195007
0.000540832
-0.0200883
0.000604805
-0.0207249
0.000651935
-0.0213652
0.000654678
-0.0219987
0.000646818
-0.0226188
0.000632233
-0.0230612
0.00045301
-0.0233372
0.000285612
-0.0236607
0.000332129
-0.0238719
0.000218109
-0.0238983
3.19817e-05
-0.023879
-1.53217e-05
-0.0236349
-0.000242406
-0.0231259
-0.000509428
-0.0224043
-0.000723879
-0.0214961
-0.000912054
-0.0204773
-0.00102379
-0.0194234
-0.00106194
-0.0183657
-0.00106896
-0.0172944
-0.00108437
-0.0162035
-0.00110521
-0.0150608
-0.00115819
-0.0138051
-0.00127172
-0.0124339
-0.00139055
-0.0109735
-0.00148226
-0.00945083
-0.00154681
-0.00789032
-0.00158733
-0.0063206
-0.00160001
-0.00476751
-0.00158624
-0.00322383
-0.00158074
-0.00173303
-0.00153059
-0.00041418
-0.00136151
0.0008419
-0.00130175
0.00208966
-0.00129655
0.00334199
-0.00130337
0.00453647
-0.00124796
0.00562281
-0.00114204
0.00659069
-0.00102478
0.00737128
-0.000838936
0.0079641
-0.000652933
0.00838119
-0.000478776
0.00858028
-0.000259743
0.00892806
-0.000411377
0.00926305
-0.000400454
0.00928219
-8.41993e-05
0.00919263
1.54015e-05
0.00879823
0.00032391
0.00820456
0.000522198
0.00755718
0.000575479
0.00688807
0.000594497
0.00618733
0.00062306
0.00545625
0.000650184
0.00477475
0.00060057
0.00423057
0.000463092
0.00391999
0.000228681
0.00379508
4.19557e-05
0.00376543
-5.65059e-05
0.0037287
-4.67586e-05
0.00361111
4.07055e-05
0.00323
0.000304551
0.00251589
0.000622964
0.00175524
0.000620312
0.00123094
0.000419088
0.000704191
0.000444052
9.51518e-05
0.000515971
-0.000524342
0.000535874
-0.00112407
0.000515328
-0.00189961
0.000692697
-0.00290855
0.000926938
-0.00410224
0.00110854
-0.00546301
0.00126933
-0.0068525
0.00129852
-0.00826824
0.00134039
-0.00972924
0.00140122
-0.011042
0.00124642
-0.0122597
0.0011234
-0.0133459
0.000965232
-0.0142327
0.000807233
-0.0149942
0.000720657
-0.0156254
0.000582278
-0.0160906
0.000397183
-0.0163633
0.000201459
-0.0164454
1.28882e-05
-0.0163472
-0.000160639
-0.0160897
-0.000314719
-0.015725
-0.000418665
-0.015273
-0.000504443
-0.0147319
-0.000592591
-0.0141182
-0.000663656
-0.0134542
-0.000712094
-0.0127642
-0.000736117
-0.0120645
-0.000744668
-0.011379
-0.00073063
-0.0107117
-0.000712598
-0.010057
-0.000699234
-0.00942571
-0.000672797
-0.00880782
-0.000654873
-0.00818808
-0.000653913
-0.0076111
-0.000611284
-0.00711032
-0.000538389
-0.00670784
-0.000431912
-0.00632841
-0.000420078
-0.00633616
-3.46494e-05
-0.00631542
-4.82261e-05
-0.00612199
-0.000225695
-0.00583712
-0.000313712
-0.00553682
-0.00032986
-0.00527947
-0.000287329
-0.0050888
-0.000220634
-0.00497165
-0.000145993
-0.00492471
-7.30892e-05
-0.00492187
-2.8831e-05
-0.00491242
-3.35631e-05
-0.00490236
-3.30211e-05
-0.00488047
-4.38118e-05
-0.00485486
-4.62456e-05
-0.00482796
-4.57182e-05
-0.00479513
-4.94147e-05
-0.00479636
-1.28126e-05
-0.00493334
0.000122315
-0.00501701
6.84608e-05
-0.00517056
0.000143103
-0.00536836
0.000189257
-0.00559827
0.000222643
-0.005841
0.000236495
-0.00603754
0.000190985
-0.00613185
8.91226e-05
-0.00613657
-1.5949e-07
-0.0061068
-3.34939e-05
-0.00603279
-7.57824e-05
-0.00595324
-8.2595e-05
-0.00595323
7.83199e-06
-0.00612077
0.000168628
-0.00626402
0.000143567
-0.00637137
0.000108414
-0.00639104
2.10382e-05
-0.00635984
-2.84965e-05
-0.00614179
-0.000215435
-0.00581616
-0.000322363
-0.00550088
-0.000311624
-0.00526184
-0.000234259
-0.00506179
-0.000198921
-0.00486778
-0.000137149
-0.00472562
-0.0001405
-0.00468334
-3.61307e-05
-0.00470678
2.79178e-05
-0.00487684
0.000177213
-0.00510179
0.000231529
-0.00532921
0.000234259
-0.00568322
0.000361099
-0.0062133
0.000537387
-0.00687582
0.000670572
-0.00761771
0.000750507
-0.00839421
0.000784884
-0.00918378
0.000796878
-0.0099341
0.000756192
-0.0106665
0.000737951
-0.0113765
0.000717829
-0.012065
0.000699208
-0.0127608
0.000705582
-0.0134785
0.000722174
-0.0141433
0.000663055
-0.0147209
0.00058024
-0.0151674
0.000447734
-0.0155267
0.000360845
-0.0157867
0.000266692
-0.0159259
0.00015011
-0.0159298
9.25677e-06
-0.0159243
-5.27272e-06
-0.0158249
-0.000100428
-0.0156077
-0.000216444
-0.015298
-0.000307612
-0.0149113
-0.000384934
-0.0144587
-0.000451125
-0.0139556
-0.000501291
-0.0133238
-0.000606313
-0.012601
-0.000725773
-0.011853
-0.000751678
-0.011089
-0.000767428
-0.0103017
-0.000789942
-0.00951733
-0.000788046
-0.00880793
-0.00071475
-0.00819514
-0.000619094
-0.00761643
-0.000585501
-0.00701115
-0.000612816
-0.00642576
-0.000594018
-0.00590874
-0.000526191
-0.00545727
-0.000461182
-0.00501147
-0.000456302
-0.00455088
-0.000471064
-0.00412762
-0.000435733
-0.0037901
-0.000350717
-0.00351579
-0.000288219
-0.00323205
-0.000298203
-0.00291612
-0.000331048
-0.00259737
-0.000334674
-0.0023099
-0.000304053
-0.00208461
-0.000243009
-0.00193029
-0.000172941
-0.00181268
-0.000137049
-0.00171211
-0.000120994
-0.00159993
-0.00013334
-0.0015254
-9.66027e-05
-0.00149859
-4.93599e-05
-0.00131174
-0.0002107
-0.00101875
-0.000318012
-0.000739007
-0.000305883
-0.000480043
-0.000285333
-0.000275489
-0.000232106
-0.000245334
-5.87391e-05
-0.000457266
0.00018242
-0.000730676
0.000242621
-0.00108797
0.000325839
-0.00153387
0.000414401
-0.00206908
0.000503833
-0.00272551
0.000625235
-0.00349182
0.000735118
-0.00428471
0.000761433
-0.0050416
0.000725288
-0.00577796
0.000704772
-0.00652752
0.00071811
-0.00726
0.000701054
-0.00797579
0.000684712
-0.00863832
0.000631661
-0.00923858
0.000569479
-0.00980556
0.000536168
-0.0103629
0.000526603
-0.0109322
0.00053885
-0.011585
0.000622648
-0.012302
0.000687467
-0.012999
0.00066777
-0.013666
0.00063744
-0.0142158
0.000521939
-0.0145396
0.000293026
-0.0146394
7.5376e-05
-0.0149559
0.000288378
-0.0152704
0.000290632
-0.0155202
0.000226405
-0.0156621
0.000118328
-0.0156649
-1.98263e-05
-0.0154951
-0.000192883
-0.0151123
-0.000405567
-0.0146352
-0.000498733
-0.0141257
-0.000530188
-0.0135817
-0.000563182
-0.0129566
-0.000644099
-0.0122302
-0.000738818
-0.0114965
-0.000751998
-0.0108021
-0.000710538
-0.0100795
-0.000739384
-0.00928642
-0.000810853
-0.00846186
-0.000843262
-0.00767548
-0.000804762
-0.00698564
-0.000707426
-0.00639797
-0.000604509
-0.0058926
-0.000521563
-0.00542597
-0.000482649
-0.0049772
-0.000463769
-0.0045704
-0.000421609
-0.0042709
-0.000313936
-0.00406869
-0.000215414
-0.00392762
-0.000153391
-0.00382441
-0.00011444
-0.0037608
-7.39413e-05
-0.00372627
-4.3647e-05
-0.00372089
-1.40494e-05
-0.00373715
8.77417e-06
-0.00377819
3.35703e-05
-0.0038733
8.85249e-05
-0.00400201
0.000122649
-0.0041564
0.000149099
-0.00432522
0.000164403
-0.00450593
0.000177204
-0.00468439
0.000175886
-0.00485571
0.000169502
-0.0050154
0.000158633
-0.00514209
0.000126376
-0.00523442
9.25356e-05
-0.00529335
5.97659e-05
-0.00533776
4.58694e-05
-0.00536014
2.47049e-05
-0.00538581
2.84916e-05
-0.0054495
6.65685e-05
-0.00556942
0.000123218
-0.00573881
0.000173025
-0.00590323
0.00016738
-0.00603598
0.000136317
-0.00613797
0.000106319
-0.0061594
2.86689e-05
-0.00614767
-6.14365e-06
-0.00610709
-3.44114e-05
-0.00611563
-7.51464e-06
-0.00609088
-2.4367e-05
-0.0060482
-3.1458e-05
-0.00601091
-2.41726e-05
-0.00600633
5.30209e-06
-0.00604867
5.06236e-05
-0.0060947
5.07067e-05
-0.00612632
3.61534e-05
-0.0061584
3.67914e-05
-0.00620011
4.63534e-05
-0.00625195
5.64375e-05
-0.00631368
6.61264e-05
-0.0063935
8.42174e-05
-0.00648007
8.93078e-05
-0.00656822
8.93311e-05
-0.00666954
0.000101373
-0.00678682
0.000117916
-0.00691267
0.000128139
-0.00704709
0.00013825
-0.00719294
0.000150219
-0.00735439
0.000165721
-0.0075076
0.000156758
-0.00766471
0.000158427
-0.00782813
0.000162977
-0.00800156
0.000173874
-0.00816939
0.000167989
-0.00832382
0.000152587
-0.00849026
0.000155749
-0.00865759
0.00016247
-0.0087861
0.000129844
-0.00887607
8.92178e-05
-0.00893223
5.29603e-05
-0.0089447
8.69293e-06
-0.00892834
-2.04954e-05
-0.00888355
-4.93251e-05
-0.00881227
-7.62416e-05
-0.00870939
-0.000108382
-0.00857318
-0.000141957
-0.00840493
-0.000174504
-0.00822599
-0.00018578
-0.00804836
-0.000184949
-0.00784934
-0.00020664
-0.00762484
-0.000232905
-0.0073852
-0.000248468
-0.00711936
-0.000274758
-0.00681339
-0.000315406
-0.00649754
-0.000325333
-0.0061948
-0.000312344
-0.0059201
-0.000284283
-0.00564366
-0.000286105
-0.00533047
-0.000323107
-0.00502796
-0.000311576
-0.0047888
-0.000249794
-0.00464434
-0.000155458
-0.00457775
-7.81966e-05
-0.00453714
-5.25699e-05
-0.00449245
-5.71199e-05
-0.0044275
-7.78373e-05
-0.00435273
-8.80344e-05
-0.00428532
-8.10974e-05
-0.00423059
-6.8883e-05
-0.00421285
-3.22412e-05
-0.00421597
-1.15426e-05
-0.0042421
1.141e-05
-0.004305
4.92644e-05
-0.00440205
8.42467e-05
-0.00450186
8.51783e-05
-0.00456812
4.86476e-05
-0.00460913
2.28382e-05
-0.00464097
1.63908e-05
-0.00467955
2.3845e-05
-0.00467934
-1.25665e-05
-0.00468979
-2.79304e-06
-0.00474283
3.83455e-05
-0.0048462
8.85337e-05
-0.00498003
0.000119706
-0.00511248
0.000118962
-0.00521944
9.39578e-05
-0.00528801
5.56806e-05
-0.00534277
4.20374e-05
-0.00542087
6.59126e-05
-0.00552877
9.54027e-05
-0.00563671
9.64722e-05
-0.00577034
0.000122124
-0.0059262
0.000144515
-0.00609912
0.000161426
-0.00627752
0.000167161
-0.00649054
0.000202722
-0.00671524
0.000214621
-0.00695728
0.000232332
-0.00721106
0.00024419
-0.00748305
0.000262889
-0.00778876
0.000297412
-0.00813644
0.000339375
-0.00850721
0.000362276
-0.00883478
0.000319724
-0.00911922
0.000278606
-0.00935097
0.000225788
-0.00947593
0.000119254
-0.00951205
3.1459e-05
-0.0095123
-3.50546e-06
-0.00945298
-6.23653e-05
-0.00929821
-0.000156858
-0.00914288
-0.000157347
-0.000107628
-0.000227276
-0.000249561
-0.000517093
-2.67917e-05
-0.000849782
-7.72117e-05
-0.00122953
-3.19395e-06
-0.00160316
-3.44407e-05
-0.00198922
-1.88809e-05
-0.00239612
2.39261e-05
-0.0028229
7.21592e-05
-0.00326299
0.000102522
-0.00370705
9.53888e-05
-0.00415309
6.83908e-05
-0.00460684
5.61189e-05
-0.00504591
4.31863e-05
-0.00538864
-4.33937e-05
-0.00564662
-0.00010093
-0.00584297
-0.000186988
-0.00601705
-0.000338805
-0.00613091
-0.000364353
-0.00644945
-0.000107641
-0.00685193
-6.28712e-05
-0.00730927
-7.5127e-06
-0.00776018
-2.37816e-05
-0.00803824
-0.000266528
-0.00805182
-0.00043178
-0.00807514
-0.000482538
-0.00843688
3.68963e-05
-0.00901311
0.00022726
-0.00958411
0.000242887
-0.0101365
0.00023788
-0.0106569
0.000216074
-0.0111617
0.000242896
-0.0117036
0.000385515
-0.0122727
0.000524895
-0.012856
0.000484628
-0.013607
0.000411891
-0.0143984
0.000364168
-0.0153766
0.000735354
-0.0164869
0.00095391
-0.017581
0.000963684
-0.0184577
0.00081553
-0.0190163
0.000568862
-0.0193675
0.00040854
-0.0196819
0.000494871
-0.0198622
0.000529267
-0.0204648
0.000569622
-0.0208368
7.27502e-05
-0.0215302
0.000512376
-0.0222476
0.000532671
-0.0229143
0.000495013
-0.0234875
0.000376925
-0.0237489
-8.58964e-06
-0.0236811
-0.000273968
-0.0236523
8.37126e-06
-0.0237016
-0.000335444
-0.0237044
-0.00050595
-0.0237047
-0.000565091
-0.0238256
-0.000328873
-0.0236385
-0.000440514
-0.0236086
-0.000425659
-0.0237227
-0.000217452
-0.0240143
-2.82257e-06
-0.0244303
9.617e-05
-0.0249305
0.000201957
-0.0254619
0.000272103
-0.0260007
0.000396621
-0.0263607
0.0004054
-0.0264762
0.00032885
-0.0265994
0.000270671
-0.0269681
0.000390886
-0.0273802
0.000322033
-0.0284636
0.00107979
-0.0298407
0.00147869
-0.0311042
0.00157365
-0.0318942
0.00110149
-0.0321985
0.000637127
-0.0323194
0.000379912
-0.0326208
0.000352507
-0.0329809
0.000617746
-0.0332713
0.000423138
-0.0334619
0.000282073
-0.0335229
0.00016877
-0.0336205
0.00029526
-0.0338875
0.00043903
-0.0340754
0.000191526
-0.0341402
-0.00017807
-0.0338984
-0.000659021
-0.0332807
-0.000823383
-0.032601
-0.000675053
-0.0322712
-0.00019802
-0.032868
0.000622333
-0.0336854
0.000621242
-0.034137
0.000212573
-0.0344232
5.84571e-05
-0.0346681
8.43531e-05
-0.0349065
0.000167234
-0.0351674
0.000270713
-0.0354839
0.000348447
-0.0358598
0.000497261
-0.0363442
0.000701
-0.0369569
0.000949845
-0.0376956
0.00120107
-0.0385262
0.00138081
-0.0393826
0.00143088
-0.0402095
0.00137476
-0.0409398
0.00128674
-0.041557
0.00123679
-0.0419304
0.00103807
-0.0419723
0.000707516
-0.0418785
0.000563562
-0.0416397
0.000403218
-0.0411801
1.35424e-06
-0.0404799
-0.00040771
-0.0397443
-0.000397765
-0.0389344
-0.000587766
-0.0379724
-0.000927507
-0.0368618
-0.00112455
-0.0356232
-0.00148175
-0.0342938
-0.00184185
-0.0328477
-0.00217545
-0.0312325
-0.00253525
-0.0294212
-0.00284302
-0.0274035
-0.00308731
-0.025187
-0.00329672
-0.0227655
-0.00352043
-0.0201797
-0.00370718
-0.017611
-0.00374619
-0.0153341
-0.00357092
-0.0133757
-0.00337397
-0.0116257
-0.0032597
-0.00995133
-0.00325104
-0.00828994
-0.00328145
-0.00664361
-0.00328165
-0.00504033
-0.00322905
-0.00329265
-0.00336922
-0.00104914
-0.00381535
0.00164525
-0.00410223
0.0045618
-0.00426699
0.00756622
-0.00435242
0.0105544
-0.00434578
0.0133818
-0.00413225
0.0159331
-0.0037526
0.0181556
-0.0033087
0.0200146
-0.0027609
0.0215645
-0.00226701
0.0228712
-0.00185036
0.0240064
-0.0014592
0.0249298
-0.00140135
0.0254804
-0.00102006
0.0254419
-0.000114386
0.0250658
0.000320426
0.0244447
0.000873899
0.0235712
0.00132355
0.0225382
0.00153595
0.0213833
0.00167559
0.0201351
0.00179605
0.0188037
0.00190402
0.0173577
0.00196859
0.0157442
0.00199658
0.0139145
0.00197846
0.0119528
0.0019224
0.00961214
0.00220302
0.00717036
0.00232004
0.0050043
0.00213453
0.00343347
0.00177842
0.0024347
0.0015165
0.00177339
0.00122817
0.0011394
0.00101598
0.000506296
0.000993699
-0.000220201
0.00115265
-0.00123039
0.00144948
-0.00268012
0.00187767
-0.00443127
0.00236014
-0.00625926
0.00267913
-0.00807186
0.00284384
-0.00988749
0.00298743
-0.0116159
0.0029154
-0.0132651
0.00289784
-0.0148264
0.00292808
-0.0161323
0.00253938
-0.0172974
0.00221641
-0.0182726
0.00176487
-0.018927
0.00127769
-0.0193938
0.00109685
-0.0197232
0.000890387
-0.01985
0.000453743
-0.019883
0.000160557
-0.0197965
-0.000138977
-0.0195714
-0.000447572
-0.0192338
-0.000710728
-0.0187853
-0.000922891
-0.0182436
-0.00109926
-0.0176135
-0.00127363
-0.0169068
-0.00141913
-0.0161376
-0.00152797
-0.0153227
-0.00159549
-0.0144759
-0.0016345
-0.0136159
-0.00163303
-0.0127553
-0.00161512
-0.0118991
-0.0015964
-0.0110581
-0.00155205
-0.0102337
-0.00151371
-0.00941848
-0.00150049
-0.00862835
-0.00143227
-0.00787965
-0.00132093
-0.00718727
-0.00115699
-0.00652617
-0.00111748
-0.00547937
-0.00110313
-0.00455814
-0.000998347
-0.00391465
-0.000897943
-0.0034501
-0.000806518
-0.00308708
-0.000721621
-0.00281747
-0.000584969
-0.00262816
-0.000436809
-0.00252607
-0.000273629
-0.00251305
-0.000109756
-0.00255616
-8.67366e-06
-0.00265918
4.72409e-05
-0.0028214
0.000107791
-0.003044
0.000158529
-0.00335569
0.000246522
-0.00379463
0.00037609
-0.00435896
0.000500059
-0.00489452
0.00050638
-0.00518045
0.000397492
-0.00544993
0.000327127
-0.00573962
0.000424514
-0.00603906
0.000481203
-0.00634101
0.000517634
-0.00664395
0.000533072
-0.00694057
0.000481686
-0.00721727
0.000360326
-0.0074613
0.000239017
-0.00767116
0.000172704
-0.00784954
9.98048e-05
-0.00799239
6.20637e-05
-0.00811075
0.000124713
-0.00823628
0.000296651
-0.00861298
0.000522923
-0.00900868
0.000505218
-0.00937431
0.00038821
-0.00962118
0.000221053
-0.00979367
-3.99416e-05
-0.00991553
-0.000196925
-0.0100251
-0.000198182
-0.0101637
-9.10615e-05
-0.0103266
-2.62655e-05
-0.0105127
-4.92386e-05
-0.0107014
6.83113e-05
-0.0109793
0.000242871
-0.0114162
0.000469209
-0.0120246
0.000792642
-0.0128154
0.00102867
-0.0137449
0.00117042
-0.0147839
0.00140714
-0.0158862
0.00164679
-0.0170408
0.0018326
-0.018249
0.00196693
-0.0194963
0.00204071
-0.0207583
0.00206688
-0.0219693
0.0019737
-0.0231253
0.0018997
-0.0241759
0.00177633
-0.0250836
0.0016187
-0.0258215
0.00145695
-0.0263687
0.00127621
-0.02668
0.000969337
-0.0268011
0.000681309
-0.0268154
0.000459999
-0.0265856
0.000132534
-0.0261851
-0.000118654
-0.0256919
-0.00032251
-0.0250546
-0.000619877
-0.0243159
-0.000750787
-0.0234939
-0.000932548
-0.0225966
-0.00111701
-0.021626
-0.00127362
-0.0205726
-0.00143391
-0.0194384
-0.00158553
-0.0183378
-0.00159262
-0.0176252
-0.00136879
-0.0170354
-0.00133491
-0.0163536
-0.00144516
-0.015597
-0.00153027
-0.0147813
-0.00161112
-0.0139234
-0.00165265
-0.0130579
-0.00158832
-0.0122153
-0.00147052
-0.0113955
-0.00141483
-0.0105852
-0.00143296
-0.00980341
-0.00138633
-0.00906897
-0.00127136
-0.00839098
-0.00115016
-0.00775602
-0.00110257
-0.00716458
-0.00107377
-0.00662445
-0.000988233
-0.00615092
-0.000837115
-0.00574447
-0.000708106
-0.00538169
-0.000674872
-0.00505793
-0.000669148
-0.00477515
-0.000632398
-0.00453201
-0.000562696
-0.00432911
-0.000462411
-0.00416712
-0.000352392
-0.00403229
-0.000290259
-0.00392053
-0.000252161
-0.00381721
-0.000256893
-0.0037344
-0.000200744
-0.00376053
-4.51665e-05
-0.00376412
-0.000230106
-0.00376569
-0.000340659
-0.00385084
-0.000246073
-0.00402022
-0.000141913
-0.00419228
-8.72774e-05
-0.00445796
0.000178229
-0.0050332
0.000728523
-0.0059164
0.0010959
-0.00704411
0.00142258
-0.00824981
0.00158878
-0.0094273
0.00164996
-0.0105884
0.00175491
-0.0117488
0.00186392
-0.0128865
0.00186745
-0.0139982
0.0018052
-0.0151148
0.00178975
-0.0162643
0.00183597
-0.0174123
0.00181724
-0.0185427
0.00178361
-0.0196146
0.00167218
-0.0206116
0.0015352
-0.021558
0.00145148
-0.0224482
0.00138602
-0.0232507
0.00131059
-0.0239638
0.00130509
-0.0245135
0.00120767
-0.0249222
0.00104787
-0.0252373
0.000926101
-0.0253629
0.000624184
-0.0253177
0.000230759
-0.02527
5.95778e-06
-0.0250586
5.15111e-05
-0.0245377
-0.000251461
-0.0239144
-0.000419381
-0.0232593
-0.000561922
-0.0225461
-0.000759602
-0.0217705
-0.000995102
-0.0209085
-0.00129186
-0.0199594
-0.00146909
-0.018918
-0.00159076
-0.0177317
-0.00176916
-0.0164941
-0.0018977
-0.0156771
-0.00158322
-0.0150597
-0.0013866
-0.0143948
-0.00139474
-0.013663
-0.00149011
-0.0128714
-0.00162132
-0.012044
-0.00168917
-0.0112123
-0.00165369
-0.0104087
-0.00152695
-0.00965349
-0.00137457
-0.00896138
-0.00122792
-0.00833162
-0.00112626
-0.0077667
-0.00104181
-0.00726993
-0.000931049
-0.00685735
-0.000738777
-0.0065277
-0.00055649
-0.00626964
-0.000422077
-0.00607686
-0.000316827
-0.00594604
-0.000213716
-0.00587477
-0.000122794
-0.00585745
-3.87868e-05
-0.00588208
2.69508e-05
-0.00595394
9.88368e-05
-0.0060665
0.000195499
-0.00621924
0.000270197
-0.00640437
0.000329825
-0.00661577
0.000372214
-0.00684964
0.000408284
-0.00709804
0.000422336
-0.00735654
0.000426757
-0.00762326
0.000424749
-0.0078898
0.000392869
-0.00815343
0.000356581
-0.00841026
0.000317569
-0.00866515
0.000302273
-0.00891346
0.000275189
-0.00915677
0.000274499
-0.00940081
0.000313746
-0.00964719
0.000373437
-0.00989474
0.000425299
-0.0101279
0.000405132
-0.0103404
0.000353978
-0.0105245
0.000295789
-0.0106596
0.000173988
-0.0107129
6.32361e-05
-0.0107319
-9.53512e-06
-0.0108768
0.000148699
-0.011052
0.000157706
-0.0112378
0.000168058
-0.0114288
0.000176157
-0.0116305
0.00021147
-0.011861
0.000286657
-0.0120815
0.000277241
-0.0122868
0.000248097
-0.012488
0.000244174
-0.0126917
0.000255529
-0.0128973
0.000266082
-0.0131006
0.000274258
-0.0133102
0.000299375
-0.0135106
0.000295852
-0.0136995
0.000283697
-0.0138844
0.000289085
-0.014063
0.000297418
-0.0142267
0.000291897
-0.0143785
0.00028919
-0.0145271
0.000297881
-0.0146737
0.000312569
-0.0147838
0.000268754
-0.0148605
0.000237891
-0.0149161
0.000220075
-0.0149513
0.000208282
-0.0149442
0.000159543
-0.0148898
9.30533e-05
-0.0148366
7.10656e-05
-0.0148142
0.00013402
-0.0147643
7.99012e-05
-0.0146846
8.25089e-06
-0.0145761
-5.93033e-05
-0.014435
-0.000136961
-0.0142565
-0.000203679
-0.0140506
-0.000260239
-0.0138171
-0.000315127
-0.0135582
-0.000373205
-0.0132752
-0.000431232
-0.0129677
-0.000488814
-0.0126426
-0.000518098
-0.0123098
-0.000525582
-0.0119648
-0.000559858
-0.0116083
-0.000598159
-0.0112487
-0.000617396
-0.010886
-0.000647011
-0.0105141
-0.000697121
-0.0101442
-0.000705145
-0.00978427
-0.000682082
-0.00944507
-0.000633257
-0.00912311
-0.00061778
-0.00881251
-0.000643704
-0.00853119
-0.000602069
-0.00828308
-0.000508028
-0.00808019
-0.000368799
-0.00792625
-0.000243213
-0.00781034
-0.000180083
-0.0077245
-0.000154952
-0.00766213
-0.000152618
-0.00762384
-0.000139116
-0.00760686
-0.000111199
-0.00760209
-8.68458e-05
-0.00761656
-3.14184e-05
-0.00765077
8.63218e-06
-0.00770152
4.89563e-05
-0.00776194
9.75388e-05
-0.00782749
0.000138542
-0.00789064
0.000136551
-0.00793906
8.28093e-05
-0.00796478
3.23566e-05
-0.00798384
1.92842e-05
-0.00814725
0.000173468
-0.00835848
0.000183014
-0.0086152
0.000240308
-0.00890226
0.000311611
-0.00921434
0.000387369
-0.00954182
0.000434587
-0.00987549
0.000440325
-0.0102091
0.000415276
-0.0105303
0.000364612
-0.0108513
0.000350934
-0.0111986
0.000401664
-0.0115645
0.000449406
-0.0119294
0.000450413
-0.0123118
0.000493732
-0.012706
0.000528261
-0.0131099
0.000554583
-0.0135136
0.000560124
-0.0139398
0.000618883
-0.0143564
0.000621667
-0.0147677
0.000634757
-0.015165
0.00063331
-0.015546
0.000635759
-0.0159109
0.00065468
-0.0162557
0.000676984
-0.0165721
0.000671005
-0.0168295
0.000572235
-0.0170368
0.000482078
-0.0172002
0.00038441
-0.0172611
0.000176109
-0.0172296
-4.02008e-06
-0.0169836
-0.000252749
-0.0165705
-0.00047778
-0.0160733
-0.000655555
-0.0156047
-0.000627588
-0.000284275
-0.000310292
-0.000243217
-0.000620345
-2.1876e-05
-0.000939139
-6.18862e-05
-0.00130686
6.09859e-05
-0.00171088
6.63521e-05
-0.00213069
9.76369e-05
-0.00256924
0.000159131
-0.00302073
0.00022009
-0.00347574
0.000253694
-0.0039309
0.000246515
-0.00440241
0.000235835
-0.00490344
0.000253182
-0.00539603
0.000231513
-0.00583123
8.74348e-05
-0.00621946
-1.6162e-05
-0.00653526
-0.000174506
-0.00677984
-0.000396313
-0.00711704
-0.000329871
-0.00749736
-2.86852e-05
-0.00794153
8.02335e-05
-0.00837601
0.000127193
-0.00878364
8.54967e-05
-0.00926787
-7.94987e-05
-0.00977104
-0.000224682
-0.010364
-0.000184487
-0.0108916
0.000271775
-0.0114187
0.000462951
-0.0119889
0.000523422
-0.0125936
0.000554553
-0.0132103
0.000546524
-0.0138041
0.000552945
-0.0143295
0.000629888
-0.0147467
0.000664923
-0.0151555
0.000622001
-0.015789
0.000777618
-0.0166073
0.000914911
-0.0174742
0.00133929
-0.0185109
0.00173059
-0.0197253
0.00192266
-0.0208973
0.00173527
-0.0218488
0.00127242
-0.0226277
0.000943928
-0.0232256
0.000853664
-0.023449
0.000520346
-0.0238111
0.000706426
-0.0246733
0.000710347
-0.0254737
0.00109302
-0.026235
0.00107969
-0.0268792
0.00093141
-0.0272984
0.000594429
-0.0275996
9.61476e-05
-0.0277414
-0.00032451
-0.0278184
-0.00010119
-0.0278752
-0.000461449
-0.0279177
-0.000639112
-0.0279237
-0.000728782
-0.0279237
-0.000490989
-0.0281061
-0.000412118
-0.0284597
-0.000220442
-0.0288799
5.77553e-05
-0.0293938
0.000372605
-0.0300305
0.000601314
-0.0307314
0.000777753
-0.0313197
0.000742199
-0.0316995
0.000665667
-0.0318714
0.000470567
-0.0318711
0.000227186
-0.0318414
0.000145262
-0.0321335
0.000595769
-0.0331706
0.00127202
-0.0342898
0.00212064
-0.035423
0.00254079
-0.0364215
0.00250828
-0.0373484
0.00197033
-0.0381075
0.00134559
-0.0387671
0.000995182
-0.0393944
0.000943059
-0.0398466
0.0010375
-0.0403719
0.000921062
-0.0408632
0.000750707
-0.0412611
0.000551213
-0.0415263
0.0005478
-0.0416199
0.000524525
-0.0416602
0.000224863
-0.0417402
-0.000103303
-0.0419566
-0.000443343
-0.0421763
-0.000601185
-0.0425778
-0.000270884
-0.0429183
0.000145758
-0.0428293
0.000545622
-0.0427546
0.000557287
-0.0426897
0.00016031
-0.0426865
6.76903e-05
-0.0426956
0.00010777
-0.0427223
0.000207004
-0.0427723
0.000333782
-0.0428742
0.000463011
-0.0430034
0.000639401
-0.0430767
0.000790629
-0.0431475
0.00103876
-0.0432155
0.00128746
-0.0432712
0.00145543
-0.043292
0.00147027
-0.043286
0.00138797
-0.0432253
0.00124391
-0.0431246
0.00115253
-0.0429866
0.000915409
-0.0427665
0.000501948
-0.0424258
0.000235756
-0.0420447
3.34216e-05
-0.041558
-0.000475048
-0.040919
-0.00103717
-0.0401886
-0.00112023
-0.0393826
-0.00138723
-0.038432
-0.00187287
-0.037318
-0.002234
-0.0360661
-0.00273108
-0.0347077
-0.00319911
-0.0332305
-0.00365267
-0.0315765
-0.00419079
-0.0296595
-0.00476477
-0.0273318
-0.00542123
-0.0245051
-0.00612866
-0.0213023
-0.00672924
-0.0179452
-0.00707396
-0.0145998
-0.00710548
-0.0113434
-0.00684513
-0.00821791
-0.00652015
-0.00520676
-0.00629401
-0.00225112
-0.00623247
0.000684822
-0.00624605
0.00361702
-0.00624545
0.00658573
-0.00622993
0.00960069
-0.00641878
0.0126162
-0.00686911
0.0155687
-0.00709638
0.0183998
-0.00714374
0.0210873
-0.00708906
0.0236601
-0.00697064
0.0261308
-0.0066578
0.0285296
-0.0062086
0.0308893
-0.00572799
0.0331872
-0.0051204
0.0354685
-0.0046118
0.0377239
-0.00417098
0.0399001
-0.0037017
0.0416027
-0.00317192
0.0422358
-0.00172706
0.0421561
-0.000120346
0.0414187
0.000983096
0.0404072
0.00180874
0.0393359
0.00231644
0.0382619
0.0025311
0.0371675
0.00268984
0.0358715
0.00301081
0.0340908
0.00360307
0.03164
0.00433788
0.0286744
0.00487991
0.0255229
0.00504788
0.0226395
0.00472607
0.0205133
0.0042506
0.0189212
0.00383461
0.0175304
0.00343993
0.0158705
0.00334507
0.0136204
0.00369965
0.0108754
0.0039152
0.00806507
0.00371632
0.0053547
0.00360952
0.00278958
0.00362659
0.000281369
0.00387115
-0.00208744
0.00415704
-0.00417222
0.00434735
-0.0060962
0.00450226
-0.00792613
0.00458413
-0.00969128
0.00468313
-0.0113617
0.00451899
-0.013011
0.00444917
-0.0146112
0.00439873
-0.0160291
0.00383363
-0.017131
0.00327435
-0.0179953
0.00267368
-0.0187222
0.00201883
-0.0193272
0.00160089
-0.0196495
0.00106379
-0.0196268
0.0003572
-0.0192065
-0.000316084
-0.0185024
-0.000899352
-0.0175518
-0.00145624
-0.0163786
-0.00194168
-0.0150418
-0.00231486
-0.0136329
-0.00255954
-0.0122191
-0.00273562
-0.0108435
-0.00284078
-0.00951454
-0.00290118
-0.00823106
-0.00292136
-0.00698542
-0.00292078
-0.00578484
-0.00287296
-0.00463301
-0.00280543
-0.00351632
-0.00275079
-0.00242139
-0.00268374
-0.00132244
-0.00264633
-0.000166395
-0.00268623
0.000997875
-0.0026227
0.00213942
-0.00248627
0.00327556
-0.00231345
0.00431949
-0.00218315
0.00517465
-0.00198177
0.00590298
-0.00174696
0.00650963
-0.00152887
0.00697763
-0.0013014
0.00727553
-0.00104787
0.00740423
-0.000740309
0.00741389
-0.000470732
0.00732488
-0.000206629
0.0071469
4.76263e-05
0.00688819
0.000229974
0.00660437
0.000311964
0.00631112
0.000382818
0.00601066
0.000441907
0.00565693
0.000584268
0.00521804
0.000800296
0.00470865
0.000995629
0.00409152
0.00111213
0.00334771
0.00113081
0.0025338
0.00113102
0.00168142
0.0012688
0.000795021
0.0013602
-0.000116743
0.0014224
-0.00105768
0.00146746
-0.00201228
0.00143012
-0.00294545
0.00128811
-0.00382902
0.00111793
-0.00469374
0.00103382
-0.00559414
0.000997796
-0.00659183
0.00105918
-0.00763449
0.00116045
-0.00844319
0.00110002
-0.0088797
0.000959186
-0.00928591
0.000911997
-0.00969071
0.000794103
-0.0100511
0.000583709
-0.01038
0.000291721
-0.0106966
0.000123037
-0.0110131
0.00012221
-0.0113563
0.000255207
-0.0117162
0.000340234