/*--------------------------------*- C++ -*----------------------------------*\
| =========                 |                                                 |
| \\      /  F ield         | OpenFOAM: The Open Source CFD Toolbox           |
|  \\    /   O peration     | Version:  v1812                                 |
|   \\  /    A nd           | Web:      www.OpenFOAM.com                      |
|    \\/     M anipulation  |                                                 |
\*---------------------------------------------------------------------------*/
FoamFile
{
    version     2.0;
    format      ascii;
    class       volScalarField;
    location    "1.5";
    object      T;
}
// * * * * * * * * * * * * * * * * * * * * * * * * * * * * * * * * * * * * * //

dimensions      [0 0 0 1 0 0 0];


internalField   nonuniform List<scalar> 
20400
(
289.801
289.794
289.806
289.813
289.822
289.835
289.851
289.872
289.898
289.929
289.966
290.009
290.056
290.11
290.167
290.228
290.292
290.362
290.434
290.509
290.584
290.659
290.734
290.81
290.884
290.957
291.03
291.098
291.163
291.225
291.283
291.337
291.389
291.433
291.485
291.524
291.567
291.607
291.647
291.685
291.724
291.763
291.8
291.833
291.871
291.894
291.931
291.963
291.989
292.012
292.034
292.046
292.061
292.075
292.083
292.088
292.091
292.094
292.097
292.097
292.1
292.104
292.109
292.115
292.121
292.123
292.122
292.103
292.093
292.05
292.003
291.941
291.877
291.816
291.763
291.72
291.683
291.662
291.655
291.654
291.668
291.697
291.734
291.782
291.843
291.901
291.957
292.015
292.065
292.112
292.165
292.206
292.238
292.264
292.285
292.301
292.311
292.316
292.32
292.323
292.326
292.33
292.333
292.336
292.339
292.34
292.341
292.342
292.344
292.342
292.342
292.345
292.337
292.332
292.328
292.326
292.322
292.314
292.306
292.298
292.288
292.278
292.267
292.257
292.247
292.24
292.234
292.229
292.224
292.218
292.211
292.201
292.188
292.171
292.157
292.139
292.121
292.104
292.083
292.058
292.031
292
291.966
291.93
291.894
291.856
291.814
291.773
291.729
291.676
291.63
291.583
291.539
291.498
291.462
291.431
291.405
291.383
291.364
291.349
291.335
291.324
291.321
291.315
291.304
291.296
291.298
291.288
291.28
291.272
291.267
291.259
291.253
291.248
291.243
291.241
291.238
291.231
291.227
291.222
291.22
291.22
291.216
291.21
291.21
291.208
291.209
291.214
291.217
291.224
291.231
291.241
291.252
291.265
291.28
291.296
291.315
291.335
291.358
291.383
291.41
291.441
291.473
291.507
291.543
291.588
291.622
291.662
291.706
291.75
291.797
291.845
291.895
291.944
291.992
292.038
292.083
292.125
292.164
292.199
292.23
292.258
292.279
292.296
292.317
292.33
292.34
292.348
292.353
292.357
292.36
292.362
292.363
292.36
292.354
292.346
292.333
292.324
292.314
292.304
292.296
292.29
292.283
292.278
292.273
292.271
292.267
292.266
292.264
292.258
292.251
292.246
292.239
292.23
292.219
292.208
292.196
292.183
292.171
292.161
292.15
292.141
292.133
292.125
292.118
292.115
292.114
292.114
292.115
292.118
292.12
292.124
292.129
292.135
292.14
292.146
292.153
292.161
292.169
292.182
292.188
292.197
292.204
292.21
292.214
292.213
292.208
292.201
292.192
292.179
292.163
292.145
292.127
292.107
292.087
292.066
292.046
292.029
292.015
292.004
291.998
291.995
291.994
291.995
291.997
292.002
292.008
292.014
292.024
292.033
292.042
292.051
292.061
292.067
292.073
292.082
292.089
292.096
292.103
292.109
292.116
292.124
292.132
292.14
292.149
292.16
292.171
292.183
292.196
292.209
292.222
292.234
292.246
292.259
292.273
292.285
292.297
292.308
292.318
292.328
292.342
292.354
292.365
292.379
292.396
292.411
292.426
292.443
292.46
292.478
292.498
292.518
292.538
292.56
292.582
292.606
292.629
292.653
292.678
292.704
292.731
292.759
292.789
292.818
292.848
292.879
292.911
292.942
292.974
293.006
293.037
293.069
293.1
293.131
293.163
293.193
293.223
293.253
293.283
293.311
293.34
293.369
293.396
293.422
293.447
293.47
293.49
293.507
293.521
293.534
293.546
293.554
293.561
293.567
293.57
293.57
293.571
293.569
293.567
293.564
293.558
293.553
293.548
293.541
293.534
293.527
293.519
293.511
293.504
293.496
293.49
293.484
293.478
293.472
293.467
293.462
293.457
293.452
293.447
293.442
293.437
293.433
293.427
293.421
293.417
293.412
293.408
293.403
293.4
293.397
293.394
293.391
293.388
293.387
293.385
293.383
293.381
293.38
293.378
293.377
293.376
293.374
293.372
293.369
293.365
293.362
293.357
293.352
293.346
293.339
293.331
293.324
293.317
293.31
293.303
293.297
293.29
293.283
293.276
293.269
293.263
293.257
293.251
293.247
293.242
293.239
293.236
293.233
293.23
293.227
293.225
293.224
293.225
293.229
293.234
293.241
293.25
293.258
293.265
293.273
293.28
293.289
293.297
293.308
293.32
293.335
293.351
293.367
293.382
293.395
293.407
293.416
293.423
293.431
293.443
293.458
293.479
293.507
293.533
293.553
289.793
289.788
289.801
289.809
289.821
289.836
289.854
289.878
289.906
289.941
289.981
290.026
290.078
290.137
290.198
290.263
290.331
290.402
290.476
290.555
290.634
290.712
290.79
290.87
290.944
291.013
291.087
291.155
291.219
291.279
291.334
291.385
291.433
291.477
291.521
291.565
291.606
291.646
291.686
291.728
291.769
291.807
291.842
291.872
291.906
291.927
291.965
291.994
292.016
292.034
292.049
292.061
292.072
292.077
292.079
292.08
292.077
292.084
292.081
292.077
292.077
292.079
292.081
292.082
292.079
292.069
292.055
292.027
291.983
291.919
291.873
291.812
291.758
291.718
291.695
291.68
291.669
291.678
291.7
291.728
291.767
291.826
291.887
291.953
292.021
292.083
292.128
292.172
292.202
292.213
292.264
292.295
292.314
292.327
292.334
292.339
292.34
292.34
292.339
292.338
292.337
292.336
292.334
292.331
292.328
292.321
292.316
292.313
292.314
292.308
292.306
292.307
292.3
292.297
292.296
292.295
292.295
292.293
292.291
292.289
292.287
292.287
292.286
292.287
292.289
292.291
292.287
292.281
292.274
292.266
292.256
292.245
292.232
292.215
292.203
292.193
292.179
292.165
292.15
292.133
292.113
292.091
292.067
292.041
292.015
291.99
291.96
291.934
291.898
291.855
291.81
291.763
291.712
291.657
291.603
291.554
291.513
291.478
291.444
291.409
291.372
291.345
291.326
291.313
291.309
291.311
291.307
291.313
291.315
291.316
291.318
291.321
291.326
291.332
291.338
291.351
291.365
291.373
291.385
291.393
291.407
291.431
291.445
291.452
291.462
291.47
291.477
291.482
291.486
291.488
291.49
291.492
291.493
291.495
291.498
291.501
291.504
291.509
291.514
291.521
291.528
291.537
291.549
291.563
291.581
291.598
291.638
291.662
291.689
291.718
291.749
291.78
291.814
291.85
291.887
291.925
291.965
292.004
292.043
292.081
292.116
292.15
292.18
292.217
292.238
292.259
292.276
292.29
292.3
292.309
292.319
292.331
292.341
292.348
292.349
292.343
292.331
292.317
292.305
292.289
292.271
292.254
292.237
292.222
292.21
292.201
292.195
292.189
292.184
292.177
292.169
292.159
292.147
292.134
292.119
292.102
292.082
292.062
292.042
292.022
292.002
291.982
291.963
291.944
291.927
291.917
291.898
291.889
291.883
291.874
291.867
291.863
291.859
291.856
291.855
291.857
291.864
291.875
291.893
291.902
291.917
291.939
291.963
291.989
292.016
292.041
292.063
292.081
292.096
292.108
292.116
292.12
292.12
292.114
292.104
292.09
292.072
292.053
292.035
292.018
292.004
291.996
291.991
291.991
291.993
291.998
292.006
292.012
292.023
292.034
292.045
292.056
292.068
292.079
292.086
292.095
292.104
292.115
292.126
292.136
292.147
292.159
292.171
292.184
292.197
292.212
292.226
292.242
292.258
292.273
292.288
292.304
292.319
292.335
292.352
292.368
292.384
292.403
292.417
292.433
292.446
292.458
292.469
292.481
292.492
292.503
292.512
292.523
292.534
292.55
292.552
292.555
292.563
292.57
292.579
292.589
292.602
292.616
292.632
292.65
292.67
292.691
292.715
292.741
292.769
292.798
292.828
292.86
292.891
292.923
292.955
292.987
293.019
293.051
293.083
293.115
293.146
293.177
293.208
293.239
293.271
293.302
293.333
293.364
293.394
293.422
293.447
293.468
293.485
293.5
293.513
293.523
293.531
293.535
293.536
293.532
293.534
293.535
293.532
293.528
293.521
293.514
293.507
293.499
293.49
293.483
293.469
293.459
293.445
293.435
293.429
293.418
293.409
293.405
293.396
293.387
293.381
293.377
293.37
293.364
293.359
293.354
293.348
293.34
293.335
293.329
293.324
293.319
293.315
293.311
293.309
293.306
293.304
293.303
293.303
293.303
293.304
293.305
293.307
293.309
293.312
293.315
293.318
293.321
293.324
293.326
293.326
293.326
293.323
293.32
293.316
293.311
293.306
293.3
293.293
293.287
293.28
293.272
293.264
293.256
293.247
293.239
293.23
293.222
293.215
293.203
293.2
293.194
293.187
293.181
293.174
293.169
293.166
293.166
293.168
293.172
293.177
293.181
293.184
293.189
293.193
293.198
293.203
293.213
293.226
293.239
293.254
293.265
293.273
293.279
293.286
293.291
293.292
293.291
293.3
293.313
293.331
293.358
293.387
293.414
289.779
289.775
289.791
289.802
289.818
289.838
289.861
289.89
289.924
289.963
290.008
290.058
290.115
290.179
290.245
290.317
290.391
290.471
290.551
290.635
290.718
290.799
290.88
290.961
291.032
291.103
291.172
291.236
291.296
291.353
291.405
291.453
291.499
291.54
291.579
291.62
291.661
291.7
291.741
291.786
291.83
291.869
291.906
291.939
291.974
291.997
292.021
292.043
292.058
292.07
292.077
292.08
292.09
292.089
292.086
292.081
292.076
292.063
292.059
292.052
292.045
292.038
292.029
292.018
292.004
291.978
291.944
291.903
291.853
291.803
291.761
291.725
291.701
291.692
291.706
291.736
291.769
291.815
291.871
291.931
291.996
292.067
292.141
292.214
292.276
292.319
292.344
292.363
292.371
292.387
292.406
292.412
292.413
292.411
292.406
292.396
292.385
292.372
292.362
292.35
292.34
292.33
292.32
292.312
292.303
292.296
292.291
292.286
292.28
292.276
292.272
292.27
292.263
292.261
292.26
292.26
292.261
292.261
292.262
292.264
292.266
292.272
292.281
292.29
292.297
292.301
292.302
292.298
292.29
292.279
292.264
292.246
292.226
292.207
292.188
292.166
292.142
292.116
292.09
292.065
292.04
292.019
291.997
291.978
291.959
291.95
291.948
291.945
291.938
291.926
291.911
291.891
291.868
291.841
291.81
291.768
291.717
291.666
291.619
291.574
291.523
291.457
291.402
291.363
291.346
291.34
291.347
291.362
291.38
291.395
291.414
291.438
291.464
291.494
291.526
291.563
291.602
291.646
291.703
291.758
291.801
291.84
291.885
291.931
291.973
292.008
292.037
292.06
292.075
292.086
292.091
292.092
292.09
292.085
292.077
292.067
292.056
292.042
292.027
292.011
291.992
291.973
291.952
291.932
291.916
291.905
291.896
291.891
291.888
291.883
291.878
291.871
291.866
291.866
291.87
291.878
291.892
291.909
291.929
291.949
291.972
291.996
292.023
292.05
292.08
292.11
292.138
292.163
292.182
292.196
292.211
292.233
292.262
292.296
292.324
292.339
292.346
292.345
292.327
292.306
292.279
292.247
292.213
292.18
292.15
292.125
292.105
292.089
292.077
292.065
292.055
292.04
292.02
292.001
291.98
291.955
291.928
291.901
291.873
291.846
291.819
291.792
291.766
291.741
291.716
291.686
291.668
291.641
291.617
291.592
291.567
291.542
291.519
291.496
291.473
291.451
291.431
291.414
291.402
291.402
291.41
291.426
291.45
291.485
291.531
291.585
291.642
291.699
291.76
291.821
291.884
291.945
292.004
292.054
292.09
292.108
292.114
292.109
292.097
292.078
292.056
292.035
292.019
292.01
292.007
292.009
292.01
292.02
292.031
292.042
292.056
292.069
292.081
292.091
292.103
292.113
292.124
292.139
292.157
292.175
292.194
292.216
292.24
292.264
292.288
292.314
292.342
292.373
292.404
292.435
292.466
292.498
292.529
292.563
292.595
292.625
292.655
292.684
292.709
292.732
292.754
292.772
292.786
292.8
292.81
292.817
292.82
292.821
292.819
292.811
292.805
292.795
292.781
292.765
292.748
292.729
292.711
292.694
292.681
292.672
292.669
292.669
292.673
292.679
292.688
292.701
292.718
292.739
292.763
292.789
292.816
292.845
292.874
292.903
292.933
292.962
292.992
293.022
293.053
293.084
293.117
293.152
293.187
293.224
293.263
293.303
293.34
293.372
293.399
293.422
293.442
293.46
293.478
293.495
293.505
293.523
293.526
293.526
293.524
293.519
293.511
293.502
293.49
293.476
293.461
293.444
293.431
293.412
293.398
293.38
293.361
293.345
293.329
293.31
293.298
293.288
293.276
293.264
293.253
293.24
293.228
293.217
293.205
293.197
293.186
293.177
293.168
293.161
293.155
293.149
293.145
293.141
293.138
293.137
293.137
293.138
293.141
293.146
293.151
293.158
293.167
293.176
293.188
293.202
293.218
293.236
293.252
293.266
293.275
293.281
293.285
293.287
293.289
293.29
293.289
293.287
293.283
293.278
293.271
293.264
293.255
293.245
293.235
293.224
293.212
293.208
293.193
293.179
293.164
293.149
293.134
293.12
293.108
293.097
293.089
293.083
293.079
293.076
293.074
293.069
293.063
293.06
293.058
293.059
293.061
293.067
293.072
293.082
293.091
293.096
293.095
293.092
293.085
293.082
293.079
293.078
293.085
293.106
293.131
293.155
289.762
289.761
289.78
289.797
289.818
289.844
289.875
289.912
289.953
290
290.051
290.108
290.171
290.241
290.314
290.394
290.477
290.565
290.652
290.741
290.829
290.914
290.994
291.072
291.142
291.207
291.271
291.329
291.383
291.432
291.478
291.524
291.569
291.609
291.652
291.69
291.733
291.775
291.818
291.866
291.913
291.956
291.992
292.023
292.051
292.065
292.082
292.093
292.1
292.105
292.105
292.098
292.093
292.086
292.075
292.064
292.049
292.027
292.017
292
291.984
291.969
291.953
291.931
291.903
291.863
291.819
291.773
291.739
291.708
291.694
291.688
291.707
291.745
291.8
291.868
291.938
292.015
292.094
292.174
292.253
292.331
292.402
292.462
292.508
292.533
292.544
292.548
292.548
292.549
292.546
292.539
292.525
292.507
292.487
292.465
292.443
292.423
292.4
292.38
292.359
292.341
292.324
292.31
292.296
292.282
292.272
292.263
292.256
292.252
292.25
292.254
292.254
292.255
292.264
292.271
292.281
292.291
292.301
292.313
292.324
292.333
292.339
292.342
292.342
292.339
292.337
292.331
292.321
292.307
292.289
292.266
292.235
292.194
292.146
292.094
292.043
291.992
291.943
291.896
291.852
291.812
291.775
291.742
291.708
291.685
291.69
291.703
291.72
291.738
291.75
291.754
291.758
291.763
291.771
291.782
291.793
291.796
291.788
291.776
291.748
291.68
291.568
291.45
291.372
291.337
291.334
291.358
291.393
291.436
291.487
291.537
291.585
291.642
291.704
291.775
291.85
291.931
292.03
292.126
292.224
292.32
292.417
292.511
292.603
292.681
292.752
292.813
292.861
292.896
292.918
292.931
292.935
292.934
292.927
292.917
292.902
292.882
292.859
292.831
292.795
292.747
292.695
292.639
292.582
292.528
292.482
292.443
292.411
292.38
292.348
292.309
292.266
292.22
292.174
292.137
292.111
292.09
292.071
292.054
292.037
292.019
291.999
291.982
291.975
291.978
291.989
292.009
292.031
292.045
292.053
292.064
292.088
292.131
292.189
292.249
292.288
292.31
292.319
292.318
292.305
292.28
292.24
292.189
292.132
292.081
292.036
292
291.972
291.951
291.932
291.912
291.892
291.869
291.847
291.823
291.799
291.776
291.755
291.737
291.72
291.703
291.687
291.67
291.65
291.633
291.612
291.591
291.568
291.542
291.512
291.482
291.447
291.41
291.372
291.331
291.289
291.247
291.205
291.163
291.124
291.085
291.05
291.026
291.017
291.029
291.059
291.104
291.16
291.229
291.31
291.407
291.521
291.646
291.776
291.884
291.967
292.029
292.071
292.094
292.097
292.085
292.061
292.039
292.024
292.016
292.015
292.018
292.028
292.043
292.06
292.077
292.093
292.107
292.12
292.132
292.149
292.173
292.203
292.235
292.271
292.312
292.356
292.4
292.444
292.492
292.542
292.595
292.65
292.703
292.755
292.807
292.857
292.91
292.963
293.01
293.058
293.106
293.145
293.18
293.216
293.246
293.273
293.3
293.326
293.349
293.369
293.386
293.398
293.405
293.404
293.394
293.373
293.342
293.301
293.249
293.188
293.12
293.048
292.975
292.905
292.842
292.791
292.753
292.725
292.704
292.69
292.68
292.676
292.68
292.69
292.706
292.724
292.744
292.765
292.786
292.808
292.832
292.857
292.884
292.913
292.945
292.98
293.018
293.061
293.109
293.162
293.211
293.253
293.29
293.319
293.345
293.37
293.394
293.416
293.436
293.453
293.465
293.473
293.475
293.472
293.465
293.453
293.439
293.423
293.404
293.384
293.361
293.338
293.314
293.29
293.265
293.241
293.218
293.196
293.176
293.157
293.14
293.122
293.105
293.088
293.072
293.055
293.038
293.022
293.005
292.99
292.975
292.963
292.951
292.94
292.931
292.922
292.916
292.911
292.908
292.908
292.913
292.92
292.927
292.93
292.937
292.948
292.965
292.99
293.022
293.057
293.096
293.126
293.15
293.169
293.186
293.204
293.22
293.235
293.247
293.256
293.262
293.264
293.262
293.257
293.25
293.24
293.228
293.216
293.201
293.187
293.168
293.147
293.124
293.099
293.075
293.05
293.027
293.005
292.985
292.968
292.953
292.94
292.925
292.911
292.898
292.886
292.878
292.872
292.869
292.869
292.871
292.874
292.874
292.872
292.868
292.862
292.856
292.852
292.851
292.854
292.866
292.886
292.909
289.742
289.744
289.767
289.79
289.819
289.854
289.895
289.941
289.991
290.046
290.107
290.173
290.245
290.323
290.405
290.494
290.587
290.682
290.776
290.87
290.96
291.046
291.127
291.202
291.266
291.325
291.38
291.429
291.474
291.515
291.553
291.592
291.634
291.676
291.721
291.765
291.815
291.865
291.915
291.966
292.015
292.057
292.087
292.11
292.126
292.133
292.137
292.137
292.133
292.125
292.115
292.101
292.09
292.068
292.047
292.024
291.996
291.969
291.946
291.919
291.894
291.872
291.85
291.822
291.79
291.749
291.71
291.682
291.665
291.657
291.675
291.712
291.767
291.842
291.928
292.023
292.118
292.217
292.312
292.406
292.495
292.575
292.641
292.693
292.726
292.739
292.742
292.735
292.722
292.714
292.696
292.669
292.638
292.603
292.567
292.529
292.492
292.455
292.42
292.385
292.352
292.321
292.294
292.27
292.25
292.231
292.215
292.204
292.196
292.193
292.196
292.197
292.197
292.206
292.214
292.228
292.243
292.261
292.28
292.3
292.317
292.33
292.337
292.338
292.335
292.327
292.315
292.298
292.275
292.244
292.207
292.163
292.109
292.043
291.968
291.888
291.809
291.731
291.658
291.59
291.528
291.47
291.417
291.371
291.323
291.291
291.294
291.315
291.346
291.379
291.405
291.428
291.45
291.48
291.525
291.583
291.648
291.708
291.738
291.761
291.789
291.787
291.728
291.595
291.456
291.371
291.342
291.356
291.386
291.427
291.481
291.549
291.629
291.722
291.823
291.929
292.035
292.148
292.279
292.414
292.552
292.689
292.821
292.956
293.094
293.224
293.341
293.448
293.542
293.619
293.679
293.723
293.753
293.772
293.782
293.783
293.778
293.765
293.745
293.717
293.682
293.636
293.583
293.52
293.449
293.373
293.3
293.237
293.183
293.136
293.088
293.037
292.978
292.905
292.819
292.735
292.664
292.606
292.555
292.505
292.45
292.386
292.314
292.236
292.159
292.095
292.049
292.02
291.995
291.97
291.946
291.924
291.92
291.931
291.971
292.038
292.11
292.171
292.215
292.247
292.275
292.3
292.298
292.26
292.188
292.105
292.027
291.959
291.907
291.872
291.845
291.824
291.807
291.791
291.779
291.771
291.765
291.761
291.758
291.759
291.762
291.768
291.774
291.783
291.792
291.802
291.806
291.809
291.804
291.792
291.771
291.744
291.708
291.665
291.613
291.551
291.482
291.404
291.32
291.233
291.143
291.06
290.978
290.902
290.835
290.774
290.727
290.7
290.691
290.699
290.727
290.779
290.862
290.989
291.148
291.323
291.49
291.636
291.767
291.885
291.982
292.046
292.072
292.073
292.062
292.045
292.034
292.024
292.021
292.029
292.048
292.07
292.09
292.109
292.129
292.15
292.175
292.21
292.253
292.304
292.365
292.432
292.504
292.576
292.648
292.723
292.799
292.877
292.951
293.023
293.089
293.151
293.208
293.264
293.315
293.358
293.395
293.428
293.454
293.473
293.49
293.508
293.528
293.552
293.579
293.609
293.641
293.673
293.705
293.738
293.772
293.805
293.837
293.858
293.864
293.857
293.835
293.794
293.731
293.64
293.524
293.384
293.242
293.132
293.049
292.977
292.905
292.836
292.776
292.732
292.701
292.681
292.669
292.665
292.666
292.668
292.673
292.68
292.689
292.701
292.716
292.735
292.758
292.785
292.819
292.862
292.918
292.977
293.034
293.086
293.128
293.166
293.199
293.234
293.272
293.309
293.345
293.377
293.406
293.425
293.432
293.433
293.427
293.418
293.404
293.386
293.365
293.34
293.315
293.287
293.258
293.227
293.196
293.166
293.137
293.109
293.084
293.061
293.038
293.016
292.996
292.975
292.955
292.934
292.915
292.892
292.869
292.847
292.825
292.803
292.782
292.762
292.742
292.724
292.707
292.691
292.676
292.666
292.66
292.657
292.651
292.646
292.646
292.652
292.669
292.703
292.755
292.811
292.859
292.901
292.933
292.963
292.994
293.029
293.068
293.109
293.147
293.18
293.206
293.223
293.233
293.235
293.233
293.23
293.225
293.218
293.207
293.191
293.17
293.143
293.113
293.081
293.048
293.014
292.978
292.942
292.909
292.876
292.847
292.821
292.795
292.77
292.745
292.725
292.708
292.694
292.685
292.68
292.678
292.677
292.675
292.675
292.675
292.677
292.684
292.693
292.707
292.72
292.734
292.75
289.723
289.729
289.757
289.788
289.826
289.872
289.922
289.978
290.037
290.102
290.172
290.248
290.331
290.42
290.514
290.615
290.719
290.823
290.924
291.019
291.108
291.19
291.265
291.332
291.388
291.437
291.481
291.52
291.555
291.589
291.622
291.658
291.7
291.745
291.797
291.849
291.905
291.96
292.015
292.069
292.116
292.152
292.174
292.186
292.191
292.186
292.179
292.165
292.149
292.13
292.108
292.086
292.061
292.032
292.002
291.968
291.93
291.892
291.855
291.819
291.787
291.759
291.732
291.704
291.67
291.637
291.608
291.592
291.587
291.605
291.649
291.708
291.785
291.876
291.978
292.088
292.204
292.322
292.437
292.545
292.643
292.728
292.799
292.852
292.887
292.905
292.909
292.906
292.893
292.877
292.847
292.806
292.76
292.71
292.657
292.603
292.55
292.499
292.45
292.403
292.358
292.315
292.277
292.242
292.212
292.185
292.166
292.145
292.129
292.118
292.111
292.123
292.116
292.115
292.131
292.142
292.161
292.18
292.2
292.221
292.24
292.255
292.263
292.265
292.261
292.247
292.225
292.195
292.152
292.094
292.022
291.94
291.85
291.753
291.648
291.542
291.437
291.336
291.24
291.152
291.073
291
290.935
290.879
290.821
290.788
290.794
290.816
290.854
290.902
290.947
290.988
291.029
291.077
291.135
291.207
291.295
291.394
291.488
291.577
291.672
291.747
291.755
291.723
291.632
291.508
291.419
291.374
291.369
291.379
291.42
291.493
291.587
291.687
291.803
291.927
292.059
292.199
292.348
292.5
292.658
292.821
292.978
293.136
293.294
293.449
293.599
293.751
293.896
294.029
294.147
294.247
294.327
294.388
294.433
294.465
294.485
294.491
294.487
294.472
294.452
294.425
294.387
294.334
294.269
294.194
294.115
294.042
293.977
293.925
293.877
293.832
293.781
293.711
293.621
293.521
293.425
293.339
293.264
293.206
293.146
293.073
292.976
292.853
292.706
292.556
292.418
292.304
292.213
292.136
292.068
292.009
291.96
291.919
291.883
291.881
291.9
291.941
291.987
292.03
292.08
292.15
292.228
292.271
292.256
292.178
292.08
291.993
291.925
291.872
291.826
291.789
291.764
291.752
291.75
291.757
291.769
291.785
291.805
291.835
291.867
291.904
291.942
291.981
292.02
292.059
292.087
292.106
292.118
292.122
292.114
292.103
292.079
292.045
291.998
291.936
291.86
291.769
291.665
291.549
291.425
291.296
291.16
291.022
290.884
290.76
290.658
290.571
290.496
290.437
290.397
290.384
290.399
290.458
290.558
290.696
290.852
291.017
291.195
291.386
291.585
291.772
291.917
292.007
292.051
292.062
292.062
292.048
292.029
292.022
292.032
292.053
292.077
292.101
292.125
292.155
292.191
292.233
292.285
292.352
292.432
292.53
292.632
292.737
292.841
292.946
293.046
293.14
293.227
293.301
293.363
293.413
293.449
293.478
293.495
293.5
293.5
293.495
293.488
293.477
293.467
293.457
293.453
293.455
293.465
293.487
293.52
293.564
293.615
293.672
293.734
293.799
293.868
293.936
293.998
294.052
294.097
294.133
294.16
294.168
294.142
294.062
293.93
293.801
293.692
293.585
293.464
293.326
293.174
293.042
292.931
292.85
292.79
292.747
292.715
292.693
292.678
292.665
292.651
292.636
292.625
292.62
292.619
292.625
292.633
292.65
292.686
292.731
292.783
292.839
292.887
292.931
292.968
293.008
293.058
293.114
293.175
293.231
293.282
293.323
293.351
293.368
293.375
293.377
293.374
293.366
293.354
293.335
293.31
293.281
293.25
293.218
293.186
293.152
293.119
293.086
293.057
293.03
293.005
292.981
292.958
292.935
292.913
292.891
292.869
292.844
292.82
292.793
292.765
292.735
292.704
292.672
292.639
292.607
292.575
292.544
292.512
292.476
292.444
292.419
292.396
292.371
292.35
292.337
292.339
292.358
292.403
292.463
292.519
292.566
292.6
292.63
292.665
292.707
292.76
292.828
292.901
292.975
293.041
293.096
293.136
293.163
293.178
293.188
293.196
293.201
293.207
293.207
293.2
293.181
293.152
293.119
293.085
293.049
293.01
292.964
292.918
292.866
292.813
292.763
292.72
292.68
292.642
292.612
292.584
292.561
292.544
292.533
292.527
292.525
292.525
292.53
292.538
292.551
292.57
292.598
292.626
292.658
292.68
292.692
289.707
289.72
289.751
289.792
289.841
289.899
289.961
290.026
290.096
290.17
290.25
290.335
290.428
290.529
290.635
290.747
290.862
290.976
291.082
291.179
291.265
291.341
291.407
291.462
291.504
291.539
291.57
291.596
291.621
291.646
291.676
291.713
291.759
291.813
291.876
291.939
292.003
292.063
292.119
292.168
292.206
292.23
292.236
292.236
292.23
292.214
292.196
292.171
292.144
292.114
292.082
292.047
292.012
291.973
291.935
291.896
291.848
291.802
291.751
291.705
291.663
291.629
291.598
291.568
291.539
291.512
291.489
291.48
291.479
291.511
291.563
291.628
291.703
291.786
291.881
291.986
292.103
292.226
292.353
292.474
292.587
292.688
292.776
292.852
292.915
292.962
292.995
293.011
293.015
293.014
292.996
292.961
292.918
292.865
292.805
292.739
292.672
292.603
292.535
292.469
292.407
292.348
292.295
292.245
292.202
292.16
292.128
292.101
292.079
292.057
292.049
292.041
292.031
292.035
292.043
292.055
292.069
292.087
292.11
292.131
292.15
292.163
292.166
292.16
292.144
292.115
292.072
292.017
291.954
291.876
291.78
291.668
291.544
291.413
291.275
291.139
291.008
290.884
290.769
290.666
290.574
290.491
290.419
290.358
290.299
290.263
290.267
290.285
290.319
290.365
290.416
290.472
290.534
290.601
290.676
290.76
290.854
290.965
291.088
291.227
291.378
291.526
291.652
291.682
291.668
291.627
291.556
291.474
291.408
291.385
291.394
291.434
291.509
291.602
291.723
291.852
291.977
292.102
292.245
292.396
292.551
292.715
292.878
293.05
293.226
293.407
293.588
293.769
293.95
294.123
294.287
294.439
294.579
294.699
294.797
294.875
294.937
294.984
295.014
295.029
295.03
295.024
295.006
294.974
294.928
294.87
294.804
294.735
294.674
294.623
294.586
294.551
294.509
294.449
294.368
294.272
294.172
294.075
293.997
293.941
293.893
293.839
293.76
293.645
293.486
293.301
293.106
292.925
292.766
292.626
292.496
292.373
292.255
292.141
292.032
291.948
291.887
291.84
291.815
291.816
291.828
291.883
291.998
292.146
292.243
292.25
292.202
292.109
292.018
291.937
291.863
291.802
291.761
291.744
291.745
291.758
291.784
291.822
291.865
291.916
291.967
292.022
292.075
292.129
292.182
292.228
292.269
292.306
292.329
292.348
292.357
292.361
292.348
292.325
292.289
292.235
292.164
292.072
291.962
291.833
291.688
291.533
291.372
291.208
291.039
290.874
290.721
290.582
290.461
290.356
290.269
290.2
290.163
290.166
290.196
290.251
290.337
290.449
290.591
290.772
290.989
291.233
291.482
291.704
291.874
291.98
292.049
292.07
292.061
292.043
292.039
292.046
292.061
292.081
292.106
292.139
292.176
292.221
292.274
292.347
292.443
292.563
292.697
292.837
292.975
293.105
293.226
293.331
293.416
293.479
293.521
293.541
293.543
293.526
293.491
293.445
293.39
293.324
293.256
293.195
293.142
293.094
293.063
293.039
293.025
293.025
293.041
293.077
293.128
293.189
293.259
293.34
293.434
293.543
293.661
293.785
293.911
294.038
294.159
294.264
294.349
294.402
294.421
294.412
294.379
294.31
294.198
294.04
293.844
293.64
293.451
293.292
293.159
293.049
292.959
292.888
292.835
292.795
292.762
292.732
292.697
292.671
292.642
292.616
292.587
292.567
292.565
292.566
292.581
292.614
292.648
292.683
292.719
292.753
292.809
292.878
292.954
293.031
293.105
293.165
293.212
293.248
293.277
293.301
293.319
293.327
293.325
293.317
293.302
293.279
293.254
293.225
293.195
293.164
293.131
293.098
293.067
293.038
293.01
292.985
292.962
292.94
292.916
292.892
292.869
292.844
292.818
292.788
292.755
292.719
292.679
292.636
292.586
292.536
292.485
292.437
292.39
292.337
292.287
292.238
292.191
292.144
292.1
292.061
292.04
292.042
292.063
292.106
292.154
292.196
292.225
292.251
292.281
292.319
292.374
292.448
292.539
292.642
292.747
292.845
292.928
292.991
293.033
293.063
293.088
293.115
293.149
293.181
293.197
293.198
293.187
293.164
293.137
293.108
293.073
293.024
292.97
292.903
292.837
292.774
292.718
292.663
292.611
292.567
292.526
292.492
292.462
292.442
292.429
292.425
292.426
292.435
292.449
292.47
292.5
292.539
292.586
292.636
292.681
292.701
289.698
289.715
289.752
289.804
289.865
289.935
290.008
290.085
290.165
290.249
290.339
290.436
290.54
290.653
290.771
290.894
291.016
291.132
291.239
291.333
291.412
291.478
291.531
291.573
291.601
291.623
291.641
291.654
291.669
291.688
291.715
291.752
291.803
291.869
291.943
292.019
292.09
292.154
292.208
292.248
292.273
292.282
292.276
292.265
292.246
292.219
292.19
292.157
292.12
292.08
292.037
291.992
291.946
291.899
291.852
291.802
291.752
291.697
291.641
291.585
291.535
291.489
291.451
291.414
291.376
291.339
291.308
291.288
291.279
291.287
291.324
291.366
291.411
291.458
291.512
291.579
291.663
291.767
291.882
291.998
292.114
292.224
292.334
292.445
292.561
292.679
292.792
292.889
292.96
293.004
293.025
293.03
293.018
292.989
292.95
292.901
292.839
292.77
292.696
292.62
292.545
292.472
292.406
292.344
292.282
292.216
292.16
292.11
292.073
292.04
292.019
292.011
292.003
291.992
292.001
292.005
292.011
292.024
292.038
292.055
292.068
292.07
292.065
292.045
292.008
291.953
291.875
291.777
291.665
291.543
291.411
291.272
291.126
290.975
290.823
290.677
290.54
290.415
290.302
290.201
290.113
290.034
289.966
289.909
289.858
289.824
289.824
289.834
289.858
289.892
289.935
289.989
290.054
290.129
290.213
290.307
290.408
290.523
290.648
290.791
290.951
291.124
291.311
291.468
291.569
291.619
291.637
291.619
291.552
291.467
291.416
291.387
291.398
291.449
291.564
291.683
291.782
291.905
292.034
292.172
292.307
292.452
292.589
292.745
292.931
293.129
293.333
293.55
293.777
294.006
294.228
294.433
294.613
294.771