/*--------------------------------*- C++ -*----------------------------------*\
| =========                 |                                                 |
| \\      /  F ield         | OpenFOAM: The Open Source CFD Toolbox           |
|  \\    /   O peration     | Version:  v1812                                 |
|   \\  /    A nd           | Web:      www.OpenFOAM.com                      |
|    \\/     M anipulation  |                                                 |
\*---------------------------------------------------------------------------*/
FoamFile
{
    version     2.0;
    format      ascii;
    class       volVectorField;
    location    "1.5";
    object      U;
}
// * * * * * * * * * * * * * * * * * * * * * * * * * * * * * * * * * * * * * //

dimensions      [0 1 -1 0 0 0 0];


internalField   nonuniform List<vector> 
20400
(
(-0.0297871 -0.0347787 0)
(-0.094702 -0.000133052 0)
(-0.172105 -0.0646272 0)
(-0.246569 -0.0490986 0)
(-0.315877 -0.0272786 0)
(-0.383318 -0.0170083 0)
(-0.45486 -0.00603146 0)
(-0.535105 0.00577751 0)
(-0.623441 0.0144528 0)
(-0.713399 0.0152287 0)
(-0.796313 0.0076025 0)
(-0.870566 -0.000332382 0)
(-0.942176 -0.00385387 0)
(-1.01557 -0.0134183 0)
(-1.09502 -0.0408582 0)
(-1.17557 -0.0904735 0)
(-1.2275 -0.140775 0)
(-1.25725 0.140631 0)
(-1.32077 0.144834 0)
(-1.37308 0.130989 0)
(-1.41677 0.104354 0)
(-1.46199 0.0824182 0)
(-1.49145 0.0561245 0)
(-1.52467 0.119576 0)
(-1.56501 0.187545 0)
(-1.58962 -0.292816 0)
(-1.70368 -0.371569 0)
(-1.79017 -0.355621 0)
(-1.87711 -0.335277 0)
(-1.96777 -0.3228 0)
(-2.06468 -0.318698 0)
(-2.18498 -0.319621 0)
(-2.33825 -0.312699 0)
(-2.5255 -0.306978 0)
(-2.64268 -0.0859097 0)
(-2.65647 0.181362 0)
(-2.7325 0.183516 0)
(-2.84074 0.170168 0)
(-2.96861 0.164592 0)
(-3.10802 0.129179 0)
(-3.27231 0.0519626 0)
(-3.44359 -0.0819034 0)
(-3.63394 -0.229278 0)
(-3.90281 -0.307385 0)
(-4.17716 -0.207326 0)
(-4.20753 0.595921 0)
(-4.27165 0.53896 0)
(-4.35847 0.508362 0)
(-4.4407 0.490084 0)
(-4.53992 0.423308 0)
(-4.56079 0.105403 0)
(-4.62191 -0.431703 0)
(-4.78769 -0.246354 0)
(-4.78677 0.575325 0)
(-4.7496 0.549096 0)
(-4.6728 0.45654 0)
(-4.59455 0.227941 0)
(-4.6144 -0.428834 0)
(-4.62193 -0.626644 0)
(-4.58227 -0.647336 0)
(-4.57522 -0.664453 0)
(-4.55787 -0.659068 0)
(-4.54202 -0.616978 0)
(-4.52845 -0.540467 0)
(-4.53307 -0.417722 0)
(-4.58115 -0.281743 0)
(-4.70535 -0.227178 0)
(-4.8619 -0.256854 0)
(-4.97615 0.0776328 0)
(-4.98061 0.650085 0)
(-5.0031 0.464898 0)
(-5.06727 0.337269 0)
(-5.19848 0.323416 0)
(-5.35704 0.274637 0)
(-5.48649 0.118704 0)
(-5.61842 0.00601386 0)
(-5.71344 -0.0205525 0)
(-5.77451 0.185311 0)
(-5.88482 0.302882 0)
(-5.92541 0.393169 0)
(-5.97771 0.453706 0)
(-6.07503 0.416208 0)
(-6.10331 -0.115509 0)
(-6.15748 -0.419243 0)
(-6.12953 -0.0664405 0)
(-6.03169 0.327877 0)
(-5.86466 0.580446 0)
(-5.86115 0.844154 0)
(-5.88175 0.516493 0)
(-5.90343 -0.86083 0)
(-5.84748 -0.75324 0)
(-5.7977 -0.356382 0)
(-5.70323 -0.138626 0)
(-5.61745 -0.0637814 0)
(-5.56578 -0.0335625 0)
(-5.54241 -0.0207889 0)
(-5.53554 -0.0316349 0)
(-5.54937 -0.0343045 0)
(-5.59253 -0.0207885 0)
(-5.67107 0.00208137 0)
(-5.79182 0.0368019 0)
(-5.94967 0.0718159 0)
(-6.12808 0.0886072 0)
(-6.30477 0.0985429 0)
(-6.47805 0.105624 0)
(-6.66352 0.134326 0)
(-6.86995 0.157754 0)
(-7.08615 0.144041 0)
(-7.29605 0.100176 0)
(-7.5094 0.0885449 0)
(-7.69027 0.0337333 0)
(-7.80307 -0.00650861 0)
(-7.90388 0.0020279 0)
(-7.99712 -0.020671 0)
(-8.03688 -0.0396485 0)
(-8.03811 -0.0168921 0)
(-7.99632 -0.0779104 0)
(-7.86113 -0.125359 0)
(-7.65162 -0.13617 0)
(-7.37447 -0.108973 0)
(-7.04574 -0.0207743 0)
(-6.69499 0.145068 0)
(-6.34726 0.376199 0)
(-5.99839 0.599631 0)
(-5.62659 0.716422 0)
(-5.23966 0.672953 0)
(-4.84323 0.496716 0)
(-4.40736 0.288259 0)
(-3.92994 0.128602 0)
(-3.42724 0.0221175 0)
(-2.90883 -0.0532833 0)
(-2.38293 -0.111503 0)
(-1.85914 -0.15357 0)
(-1.34022 -0.200381 0)
(-0.829471 -0.267879 0)
(-0.356616 -0.298661 0)
(0.0743395 -0.205952 0)
(0.489244 -0.0700989 0)
(0.908708 0.0476329 0)
(1.31946 0.138269 0)
(1.70118 0.19521 0)
(2.04486 0.228198 0)
(2.33936 0.267404 0)
(2.56809 0.306417 0)
(2.73614 0.341765 0)
(2.84232 0.387118 0)
(2.92385 0.290247 0)
(3.07281 0.18992 0)
(3.12538 -0.0637881 0)
(3.09371 -0.154788 0)
(3.01236 -0.0960069 0)
(2.84542 -0.0275887 0)
(2.6367 0.0166202 0)
(2.41706 0.0393784 0)
(2.18843 0.0455283 0)
(1.94869 0.0430335 0)
(1.71126 0.0448054 0)
(1.50519 0.0444287 0)
(1.34726 0.0127393 0)
(1.26158 -0.11495 0)
(1.27629 -0.41322 0)
(1.25387 -0.49774 0)
(1.22422 -0.389326 0)
(1.1775 -0.147694 0)
(0.978706 0.0757602 0)
(0.709811 0.131102 0)
(0.49315 0.0862109 0)
(0.324592 0.142762 0)
(0.132232 0.115295 0)
(-0.0748023 0.0672933 0)
(-0.274739 0.00498262 0)
(-0.504405 -0.00479128 0)
(-0.804892 0.0203945 0)
(-1.17322 0.0402909 0)
(-1.60263 0.0469042 0)
(-2.0631 0.0295413 0)
(-2.53068 0.012493 0)
(-3.01703 0.000922129 0)
(-3.48003 -0.0251389 0)
(-3.89974 -0.0318726 0)
(-4.28476 -0.0280552 0)
(-4.61779 -0.0324191 0)
(-4.89196 -0.0105324 0)
(-5.12723 0.0108287 0)
(-5.30582 0.0921331 0)
(-5.44367 0.130678 0)
(-5.50512 0.245662 0)
(-5.50028 0.338257 0)
(-5.42814 0.380736 0)
(-5.32245 0.414546 0)
(-5.1841 0.431824 0)
(-5.0173 0.436128 0)
(-4.82325 0.432514 0)
(-4.60889 0.424404 0)
(-4.38203 0.41355 0)
(-4.14918 0.40025 0)
(-3.91706 0.386198 0)
(-3.69085 0.368335 0)
(-3.46956 0.346302 0)
(-3.25421 0.323501 0)
(-3.0461 0.296206 0)
(-2.83939 0.264697 0)
(-2.63856 0.241416 0)
(-2.45695 0.219675 0)
(-2.3049 0.198016 0)
(-2.15877 0.11557 0)
(-2.10157 -0.00679269 0)
(-2.11854 -0.0203665 0)
(-2.08243 -0.0782602 0)
(-1.99684 -0.104559 0)
(-1.89908 -0.108682 0)
(-1.80566 -0.0944483 0)
(-1.73095 -0.0720675 0)
(-1.67925 -0.0472649 0)
(-1.65131 -0.0236976 0)
(-1.64466 -0.00950388 0)
(-1.64262 -0.0106094 0)
(-1.63944 -0.0106122 0)
(-1.63448 -0.0140084 0)
(-1.62605 -0.0143459 0)
(-1.61803 -0.0139673 0)
(-1.60655 -0.0158162 0)
(-1.59891 -0.00496737 0)
(-1.61835 -0.0994388 0)
(-1.65705 -0.161794 0)
(-1.70076 -0.163847 0)
(-1.75971 -0.165731 0)
(-1.83067 -0.166119 0)
(-1.90967 -0.170813 0)
(-1.9843 -0.190624 0)
(-2.03199 -0.219464 0)
(-2.04853 -0.229733 0)
(-2.04658 -0.21009 0)
(-2.02236 -0.184013 0)
(-1.99961 -0.127704 0)
(-1.97257 -0.0596022 0)
(-2.00797 -0.0102535 0)
(-2.06313 0.026143 0)
(-2.10685 0.021051 0)
(-2.12946 0.017289 0)
(-2.12784 0.0714606 0)
(-2.08441 0.0499987 0)
(-1.99254 0.0265155 0)
(-1.88426 0.0203996 0)
(-1.79277 0.0310514 0)
(-1.71942 0.0296634 0)
(-1.65554 0.0231683 0)
(-1.59855 0.027878 0)
(-1.56377 0.0463359 0)
(-1.56126 0.0467262 0)
(-1.5922 0.0835135 0)
(-1.66395 0.104071 0)
(-1.73808 0.112293 0)
(-1.83276 0.13763 0)
(-1.98036 0.179919 0)
(-2.17993 0.215821 0)
(-2.41422 0.240261 0)
(-2.66683 0.254415 0)
(-2.92873 0.263108 0)
(-3.18457 0.258636 0)
(-3.43054 0.262169 0)
(-3.67099 0.261358 0)
(-3.90396 0.259194 0)
(-4.1333 0.258529 0)
(-4.36987 0.25282 0)
(-4.59926 0.219601 0)
(-4.80754 0.186761 0)
(-4.97867 0.135343 0)
(-5.10809 0.0754801 0)
(-5.214 0.0497755 0)
(-5.28223 0.020162 0)
(-5.30525 -0.00844123 0)
(-5.30477 -0.00150461 0)
(-5.28677 -0.0111769 0)
(-5.23185 -0.00901263 0)
(-5.14404 0.0163821 0)
(-5.02866 0.0612012 0)
(-4.89019 0.11594 0)
(-4.7268 0.160881 0)
(-4.54439 0.270487 0)
(-4.31166 0.255499 0)
(-4.07043 0.262995 0)
(-3.81915 0.263297 0)
(-3.56163 0.255855 0)
(-3.29928 0.248539 0)
(-3.05003 0.251788 0)
(-2.82999 0.256022 0)
(-2.63306 0.245598 0)
(-2.43667 0.220518 0)
(-2.23676 0.201852 0)
(-2.05256 0.193618 0)
(-1.89171 0.185142 0)
(-1.74334 0.163841 0)
(-1.59299 0.133489 0)
(-1.44433 0.115345 0)
(-1.31697 0.109808 0)
(-1.21557 0.100251 0)
(-1.1237 0.0756562 0)
(-1.02449 0.0414305 0)
(-0.918479 0.0127273 0)
(-0.817258 -0.00382111 0)
(-0.731165 -0.00668026 0)
(-0.668235 -0.00210885 0)
(-0.62323 -0.00116034 0)
(-0.587447 -0.00412562 0)
(-0.552963 -0.0119057 0)
(-0.517323 -0.00583017 0)
(-0.504684 0.0291233 0)
(-0.474317 -0.021684 0)
(-0.388846 -0.0649425 0)
(-0.292206 -0.0761124 0)
(-0.204396 -0.0818325 0)
(-0.121697 -0.0697904 0)
(-0.072088 -0.0161459 0)
(-0.112587 0.0601467 0)
(-0.202232 0.0809564 0)
(-0.302494 0.10772 0)
(-0.437472 0.135074 0)
(-0.600722 0.160714 0)
(-0.798377 0.194013 0)
(-1.03663 0.220693 0)
(-1.29832 0.221276 0)
(-1.55657 0.206285 0)
(-1.80459 0.198571 0)
(-2.05348 0.203607 0)
(-2.30022 0.203716 0)
(-2.54099 0.202652 0)
(-2.77234 0.190726 0)
(-2.98291 0.180638 0)
(-3.17746 0.185521 0)
(-3.36528 0.193385 0)
(-3.55282 0.204923 0)
(-3.7549 0.234399 0)
(-3.98512 0.247788 0)
(-4.22108 0.23981 0)
(-4.44811 0.224404 0)
(-4.65465 0.177064 0)
(-4.80252 0.0880074 0)
(-4.86465 -0.00331629 0)
(-4.93231 0.0645268 0)
(-5.04314 0.0757059 0)
(-5.1339 0.0561848 0)
(-5.19933 0.0303946 0)
(-5.22438 0.0139586 0)
(-5.19558 -0.00332669 0)
(-5.09703 -0.00695827 0)
(-4.9519 0.0366845 0)
(-4.78814 0.114566 0)
(-4.61897 0.213015 0)
(-4.4203 0.254413 0)
(-4.19359 0.264869 0)
(-3.94731 0.254963 0)
(-3.71051 0.270856 0)
(-3.47526 0.263374 0)
(-3.22285 0.236693 0)
(-2.9528 0.20888 0)
(-2.6838 0.191091 0)
(-2.43778 0.184418 0)
(-2.2252 0.179301 0)
(-2.04352 0.168632 0)
(-1.88231 0.147662 0)
(-1.7308 0.119193 0)
(-1.58761 0.0962098 0)
(-1.46918 0.0901921 0)
(-1.38606 0.0853997 0)
(-1.32892 0.0749795 0)
(-1.28838 0.0594379 0)
(-1.25931 0.0434514 0)
(-1.24389 0.023649 0)
(-1.2358 0.00621281 0)
(-1.23957 -0.00282693 0)
(-1.24673 -0.0241264 0)
(-1.27237 -0.0305201 0)
(-1.30925 -0.041112 0)
(-1.35654 -0.0516345 0)
(-1.41013 -0.062518 0)
(-1.46834 -0.0723847 0)
(-1.52816 -0.0822508 0)
(-1.58612 -0.0907401 0)
(-1.64141 -0.0985582 0)
(-1.6891 -0.106919 0)
(-1.72561 -0.112385 0)
(-1.75073 -0.114378 0)
(-1.76794 -0.11229 0)
(-1.78014 -0.109795 0)
(-1.78649 -0.100597 0)
(-1.80049 -0.0851022 0)
(-1.83124 -0.0671577 0)
(-1.88023 -0.0539403 0)
(-1.93665 -0.0522693 0)
(-1.985 -0.0556658 0)
(-2.02386 -0.0554076 0)
(-2.04632 -0.060729 0)
(-2.05 -0.0464899 0)
(-2.03413 -0.0290356 0)
(-2.02829 -0.000784191 0)
(-2.0316 0.0261778 0)
(-2.01829 0.0301875 0)
(-2.00543 0.0331314 0)
(-1.99784 0.0357235 0)
(-2.00381 0.0521967 0)
(-2.02086 0.052851 0)
(-2.03258 0.0493785 0)
(-2.04291 0.0499457 0)
(-2.05507 0.0523273 0)
(-2.07081 0.0547608 0)
(-2.0897 0.0570431 0)
(-2.11317 0.0611397 0)
(-2.14126 0.0616402 0)
(-2.17013 0.0598515 0)
(-2.20144 0.0613078 0)
(-2.23799 0.0637253 0)
(-2.27864 0.0651715 0)
(-2.32199 0.0673822 0)
(-2.36846 0.0694068 0)
(-2.4202 0.070547 0)
(-2.47257 0.0626291 0)
(-2.52389 0.0577929 0)
(-2.57729 0.0556705 0)
(-2.63358 0.0597255 0)
(-2.69075 0.0552811 0)
(-2.74426 0.0488968 0)
(-2.79721 0.0592026 0)
(-2.85363 0.0629609 0)
(-2.90291 0.0646258 0)
(-2.93918 0.0695412 0)
(-2.96366 0.0760485 0)
(-2.97693 0.0810426 0)
(-2.97658 0.0929557 0)
(-2.96466 0.101123 0)
(-2.94565 0.110328 0)
(-2.91639 0.116807 0)
(-2.87673 0.121982 0)
(-2.82589 0.12703 0)
(-2.76785 0.134411 0)
(-2.70897 0.140736 0)
(-2.64656 0.14212 0)
(-2.57577 0.140359 0)
(-2.49844 0.136461 0)
(-2.41493 0.127665 0)
(-2.31975 0.115144 0)
(-2.21578 0.105029 0)
(-2.11258 0.0977132 0)
(-2.01633 0.0910641 0)
(-1.92567 0.0772753 0)
(-1.82828 0.054063 0)
(-1.72504 0.0351277 0)
(-1.63392 0.0344196 0)
(-1.56992 0.0424161 0)
(-1.53475 0.0457867 0)
(-1.51646 0.0382347 0)
(-1.50391 0.0238241 0)
(-1.48609 0.00667587 0)
(-1.46229 -0.00747831 0)
(-1.43879 -0.014899 0)
(-1.4177 -0.0168121 0)
(-1.40422 -0.0104171 0)
(-1.40279 -0.00479761 0)
(-1.40832 -0.00490139 0)
(-1.42212 0.0045168 0)
(-1.44894 0.0141101 0)
(-1.48218 0.0156137 0)
(-1.5102 0.00755933 0)
(-1.52699 0.0030228 0)
(-1.54047 0.0019368 0)
(-1.55273 0.0331835 0)
(-1.55749 0.0538674 0)
(-1.55878 0.0493094 0)
(-1.56947 0.0578792 0)
(-1.59472 0.073429 0)
(-1.63486 0.0848743 0)
(-1.67939 0.0876107 0)
(-1.71962 0.0828007 0)
(-1.74851 0.074127 0)
(-1.76854 0.0703111 0)
(-1.79019 0.0747127 0)
(-1.82144 0.0820712 0)
(-1.85774 0.081544 0)
(-1.89715 0.0880774 0)
(-1.94553 0.093724 0)
(-2.00036 0.0978466 0)
(-2.05847 0.0985711 0)
(-2.12317 0.106853 0)
(-2.19639 0.110032 0)
(-2.27372 0.113681 0)
(-2.35629 0.115001 0)
(-2.44344 0.117497 0)
(-2.53916 0.123267 0)
(-2.64727 0.130359 0)
(-2.76739 0.133215 0)
(-2.88379 0.119216 0)
(-2.98425 0.10309 0)
(-3.07122 0.0873892 0)
(-3.13369 0.0556519 0)
(-3.15701 0.0198085 0)
(-3.16475 0.00361355 0)
(-3.15443 -0.0115917 0)
(-3.11593 -0.0307016 0)
(-3.06475 -0.0363046 0)
(-3.00241 -0.0560307 0)
(-0.0750284 -0.0730594 0)
(-0.119431 -0.0055171 0)
(-0.227317 -0.0240872 0)
(-0.346702 -0.0216354 0)
(-0.472489 -0.0372704 0)
(-0.599318 -0.0389895 0)
(-0.731683 -0.0328401 0)
(-0.870844 -0.0240035 0)
(-1.01573 -0.0188849 0)
(-1.1636 -0.0235597 0)
(-1.3119 -0.0336642 0)
(-1.46173 -0.0406066 0)
(-1.61131 -0.0397738 0)
(-1.74402 -0.03159 0)
(-1.84327 -0.0109241 0)
(-1.92034 -0.00419619 0)
(-1.98899 -0.0420952 0)
(-2.02753 -0.132364 0)
(-2.10581 -0.107422 0)
(-2.22515 -0.121907 0)
(-2.36806 -0.113156 0)
(-2.51962 -0.111546 0)
(-2.6434 -0.134422 0)
(-2.6938 -0.114203 0)
(-2.69963 -0.184842 0)
(-2.73995 0.116337 0)
(-2.92534 0.15183 0)
(-3.11796 0.149328 0)
(-3.30633 0.141121 0)
(-3.48732 0.136873 0)
(-3.66051 0.152852 0)
(-3.83472 0.199666 0)
(-4.02185 0.23933 0)
(-4.23276 0.201216 0)
(-4.42582 -0.0224651 0)
(-4.70051 -0.150193 0)
(-4.99914 -0.0692814 0)
(-5.34985 -0.0254558 0)
(-5.72377 -0.0150929 0)
(-6.05988 0.0350549 0)
(-6.30359 0.101605 0)
(-6.45909 0.176811 0)
(-6.55724 0.290623 0)
(-6.64625 0.38745 0)
(-6.79879 0.155724 0)
(-6.95193 -0.272375 0)
(-7.13046 -0.189421 0)
(-7.36988 -0.181844 0)
(-7.59807 -0.174106 0)
(-7.81067 -0.162337 0)
(-7.98184 -0.0784636 0)
(-7.99747 0.170277 0)
(-7.96718 0.202039 0)
(-7.96159 -0.318769 0)
(-7.9783 -0.371599 0)
(-7.97755 -0.368211 0)
(-8.0156 -0.232788 0)
(-8.00098 0.129309 0)
(-7.9456 0.134369 0)
(-7.95945 0.176656 0)
(-8.03416 0.206448 0)
(-8.15469 0.198345 0)
(-8.30843 0.194402 0)
(-8.48171 0.17967 0)
(-8.66 0.173076 0)
(-8.82261 0.193424 0)
(-8.89662 0.253445 0)
(-8.94112 0.240055 0)
(-8.9874 -0.00451152 0)
(-9.15032 -0.318895 0)
(-9.3962 -0.183115 0)
(-9.81132 -0.0722812 0)
(-10.2489 0.030496 0)
(-10.6048 0.0519749 0)
(-10.7793 0.138496 0)
(-10.8555 0.149687 0)
(-10.914 0.054774 0)
(-11.046 0.059048 0)
(-11.1405 -0.056437 0)
(-11.2236 -0.119988 0)
(-11.2675 -0.142895 0)
(-11.304 -0.0812894 0)
(-11.3312 0.14157 0)
(-11.4361 0.18297 0)
(-11.5235 -0.0905085 0)
(-11.4832 -0.349344 0)
(-11.3131 -0.381924 0)
(-11.0737 -0.417451 0)
(-10.8423 -0.198738 0)
(-10.9639 0.422901 0)
(-11.2474 0.268596 0)
(-11.423 0.0485028 0)
(-11.543 -0.0531416 0)
(-11.6396 -0.0562002 0)
(-11.7191 -0.0265145 0)
(-11.8005 0.00727163 0)
(-11.901 0.0244428 0)
(-12.0128 0.0785383 0)
(-12.1581 0.121636 0)
(-12.3414 0.171442 0)
(-12.5681 0.21729 0)
(-12.8324 0.243407 0)
(-13.1159 0.245841 0)
(-13.3984 0.22592 0)
(-13.6584 0.226025 0)
(-13.883 0.241152 0)
(-14.0503 0.251599 0)
(-14.1234 0.25761 0)
(-14.1108 0.271891 0)
(-14.0477 0.266689 0)
(-13.938 0.202745 0)
(-13.7354 0.138421 0)
(-13.4891 0.152148 0)
(-13.2316 0.105489 0)
(-12.9356 0.0295873 0)
(-12.5818 -0.00346453 0)
(-12.1861 -0.0832316 0)
(-11.7544 -0.180898 0)
(-11.287 -0.264559 0)
(-10.772 -0.344813 0)
(-10.1942 -0.406256 0)
(-9.54868 -0.455311 0)
(-8.83584 -0.514366 0)
(-8.05677 -0.599092 0)
(-7.2151 -0.694918 0)
(-6.34422 -0.782629 0)
(-5.52966 -0.854674 0)
(-4.81922 -0.881064 0)
(-4.19782 -0.887501 0)
(-3.62341 -0.896419 0)
(-3.0627 -0.907127 0)
(-2.50466 -0.908531 0)
(-1.95777 -0.891319 0)
(-1.39604 -0.946613 0)
(-0.7365 -1.12019 0)
(0.100382 -1.216 0)
(1.0421 -1.26597 0)
(2.03366 -1.28898 0)
(3.03873 -1.26276 0)
(4.01448 -1.17863 0)
(4.91409 -1.05877 0)
(5.71424 -0.945114 0)
(6.39684 -0.821628 0)
(6.96681 -0.720643 0)
(7.44417 -0.638476 0)
(7.84904 -0.547213 0)
(8.19825 -0.556826 0)
(8.49073 -0.442153 0)
(8.574 0.0054566 0)
(8.47571 0.163326 0)
(8.30379 0.304037 0)
(8.04206 0.370965 0)
(7.71974 0.369246 0)
(7.35258 0.366605 0)
(6.94901 0.39012 0)
(6.51696 0.428631 0)
(6.04963 0.406266 0)
(5.53881 0.305027 0)
(4.96763 0.156691 0)
(4.31469 0.167931 0)
(3.61827 0.471682 0)
(2.81495 0.69767 0)
(2.02967 0.701948 0)
(1.40599 0.564689 0)
(0.980609 0.439183 0)
(0.698614 0.334589 0)
(0.489985 0.271317 0)
(0.27213 0.242289 0)
(0.0454769 0.281572 0)
(-0.237321 0.359027 0)
(-0.652811 0.399916 0)
(-1.19082 0.462431 0)
(-1.79165 0.523612 0)
(-2.39944 0.564312 0)
(-3.00706 0.606031 0)
(-3.60023 0.597952 0)
(-4.16442 0.602193 0)
(-4.70876 0.614554 0)
(-5.1894 0.534837 0)
(-5.60134 0.460495 0)
(-5.95394 0.387896 0)
(-6.22738 0.32354 0)
(-6.42256 0.286814 0)
(-6.56217 0.222945 0)
(-6.63711 0.14031 0)
(-6.66349 0.062845 0)
(-6.65814 -0.0228003 0)
(-6.59994 -0.103229 0)
(-6.50316 -0.172494 0)
(-6.36868 -0.225295 0)
(-6.20122 -0.269123 0)
(-6.00453 -0.312922 0)
(-5.77962 -0.34884 0)
(-5.53155 -0.374775 0)
(-5.26548 -0.389872 0)
(-4.98654 -0.397579 0)
(-4.70001 -0.394826 0)
(-4.41155 -0.388945 0)
(-4.12359 -0.383591 0)
(-3.83905 -0.371785 0)
(-3.56041 -0.362385 0)
(-3.28567 -0.359596 0)
(-3.01654 -0.34047 0)
(-2.75837 -0.309438 0)
(-2.5159 -0.26235 0)
(-2.29002 -0.255579 0)
(-2.00604 -0.310176 0)
(-1.67033 -0.278256 0)
(-1.41302 -0.256566 0)
(-1.23004 -0.237748 0)
(-1.09074 -0.214953 0)
(-0.984305 -0.175106 0)
(-0.907086 -0.129489 0)
(-0.856175 -0.0815129 0)
(-0.835974 -0.0336092 0)
(-0.842647 -0.00790404 0)
(-0.870574 0.00437114 0)
(-0.914756 0.0186101 0)
(-0.980012 0.0298198 0)
(-1.06811 0.0567313 0)
(-1.19185 0.0971918 0)
(-1.35666 0.141918 0)
(-1.54852 0.149248 0)
(-1.6806 0.0872762 0)
(-1.77334 0.0657512 0)
(-1.86741 0.0952299 0)
(-1.9659 0.112168 0)
(-2.066 0.123747 0)
(-2.167 0.128548 0)
(-2.26813 0.112212 0)
(-2.36261 0.0747647 0)
(-2.44817 0.0395777 0)
(-2.52503 0.0231286 0)
(-2.58845 0.00419384 0)
(-2.64289 -0.00840397 0)
(-2.68963 0.0121281 0)
(-2.7207 0.065636 0)
(-2.80994 0.0512408 0)
(-2.94058 0.0385808 0)
(-3.06494 0.00412008 0)
(-3.17384 -0.0329427 0)
(-3.23403 -0.109246 0)
(-3.2815 -0.15412 0)
(-3.32398 -0.153712 0)
(-3.36156 -0.128129 0)
(-3.41541 -0.114791 0)
(-3.46965 -0.108177 0)
(-3.5342 -0.0935517 0)
(-3.60919 -0.0529054 0)
(-3.72933 -0.0176719 0)
(-3.90123 0.0409971 0)
(-4.13623 0.0558552 0)
(-4.42391 0.0501098 0)
(-4.75139 0.104983 0)
(-5.1062 0.176167 0)
(-5.4821 0.225907 0)
(-5.87492 0.252918 0)
(-6.28353 0.261524 0)
(-6.70189 0.261625 0)
(-7.11288 0.242427 0)
(-7.50597 0.230712 0)
(-7.87305 0.221206 0)
(-8.19849 0.213349 0)
(-8.47171 0.216692 0)
(-8.6845 0.226961 0)
(-8.82824 0.21353 0)
(-8.90317 0.190674 0)
(-8.92418 0.149787 0)
(-8.88398 0.13353 0)
(-8.77696 0.0987965 0)
(-8.62844 0.0578247 0)
(-8.44142 0.00778427 0)
(-8.21121 -0.00187081 0)
(-7.95239 -0.0378927 0)
(-7.66666 -0.0839931 0)
(-7.35593 -0.123775 0)
(-7.02033 -0.160971 0)
(-6.65808 -0.194864 0)
(-6.28125 -0.217953 0)
(-5.9787 -0.284688 0)
(-5.77221 -0.343293 0)
(-5.55786 -0.366224 0)
(-5.31758 -0.382861 0)
(-5.05678 -0.4 0)
(-4.77811 -0.406119 0)
(-4.49118 -0.382651 0)
(-4.20787 -0.347338 0)
(-3.9317 -0.333021 0)
(-3.66041 -0.34043 0)
(-3.39475 -0.329038 0)
(-3.14254 -0.298517 0)
(-2.90798 -0.267615 0)
(-2.68925 -0.258954 0)
(-2.48479 -0.256951 0)
(-2.29558 -0.236106 0)
(-2.12741 -0.196785 0)
(-1.98153 -0.16526 0)
(-1.85286 -0.161666 0)
(-1.73847 -0.166292 0)
(-1.63702 -0.160745 0)
(-1.54908 -0.144004 0)
(-1.4747 -0.116954 0)
(-1.41556 -0.0869866 0)
(-1.3658 -0.0707118 0)
(-1.32521 -0.0616502 0)
(-1.28968 -0.0644547 0)
(-1.25861 -0.048916 0)
(-1.24857 -0.0480454 0)
(-1.25772 -0.107022 0)
(-1.25389 -0.145515 0)
(-1.2684 -0.137638 0)
(-1.31265 -0.124065 0)
(-1.37481 -0.104659 0)
(-1.43518 -0.0359536 0)
(-1.57659 0.0601797 0)
(-1.82707 0.0781999 0)
(-2.16141 0.109692 0)
(-2.55223 0.142431 0)
(-2.94942 0.178291 0)
(-3.33778 0.226784 0)
(-3.72496 0.2718 0)
(-4.10972 0.284847 0)
(-4.48504 0.271425 0)
(-4.85625 0.261938 0)
(-5.23535 0.263095 0)
(-5.61896 0.251431 0)
(-6.00026 0.241459 0)
(-6.36792 0.219363 0)
(-6.71307 0.193297 0)
(-7.03677 0.172044 0)
(-7.34386 0.161998 0)
(-7.62676 0.161736 0)
(-7.87924 0.189196 0)
(-8.09104 0.215947 0)
(-8.24943 0.210873 0)
(-8.37079 0.202362 0)
(-8.45476 0.166806 0)
(-8.46911 0.0991522 0)
(-8.44262 0.0349979 0)
(-8.40218 0.109508 0)
(-8.26997 0.101978 0)
(-8.0782 0.078249 0)
(-7.86559 0.0403391 0)
(-7.63723 -0.0110328 0)
(-7.3883 -0.0779475 0)
(-7.11674 -0.159774 0)
(-6.81144 -0.202993 0)
(-6.47931 -0.229584 0)
(-6.11061 -0.263318 0)
(-5.69418 -0.304306 0)
(-5.35262 -0.348355 0)
(-5.11997 -0.35557 0)
(-4.90639 -0.350742 0)
(-4.67154 -0.37196 0)
(-4.41779 -0.405427 0)
(-4.14701 -0.421273 0)
(-3.86953 -0.408284 0)
(-3.5971 -0.370624 0)
(-3.33752 -0.328099 0)
(-3.09669 -0.290049 0)
(-2.87625 -0.266697 0)
(-2.67711 -0.249823 0)
(-2.49876 -0.223999 0)
(-2.34811 -0.173939 0)
(-2.22546 -0.12762 0)
(-2.12755 -0.0950545 0)
(-2.05182 -0.0711264 0)
(-1.99788 -0.047306 0)
(-1.96348 -0.0274149 0)
(-1.9469 -0.00863551 0)
(-1.94879 0.00408886 0)
(-1.96652 0.0224202 0)
(-1.99625 0.0474482 0)
(-2.04141 0.0654844 0)
(-2.09774 0.0797046 0)
(-2.16384 0.0892055 0)
(-2.23786 0.0972718 0)
(-2.31822 0.0993477 0)
(-2.40239 0.099032 0)
(-2.48997 0.0968105 0)
(-2.5786 0.0860552 0)
(-2.66683 0.0744396 0)
(-2.75319 0.0625265 0)
(-2.83858 0.0576298 0)
(-2.92229 0.0496098 0)
(-3.00438 0.0502339 0)
(-3.08548 0.06341 0)
(-3.16645 0.0827077 0)
(-3.24863 0.0993757 0)
(-3.32955 0.0952201 0)
(-3.40257 0.0813439 0)
(-3.47067 0.0672307 0)
(-3.52284 0.035075 0)
(-3.55807 0.0106996 0)
(-3.56506 -0.00866514 0)
(-3.59626 -0.0116497 0)
(-3.64596 -0.0264151 0)
(-3.70665 -0.0275783 0)
(-3.76966 -0.0267778 0)
(-3.83492 -0.0164246 0)
(-3.90621 -0.00163293 0)
(-3.98208 -0.00289495 0)
(-4.05225 -0.00849916 0)
(-4.1197 -0.00861196 0)
(-4.18698 -0.0053658 0)
(-4.25518 -0.00184916 0)
(-4.32312 0.00193147 0)
(-4.39168 0.00873434 0)
(-4.46018 0.0111815 0)
(-4.52484 0.0116507 0)
(-4.5869 0.0163212 0)
(-4.64749 0.0227454 0)
(-4.70468 0.0271221 0)
(-4.75715 0.0319346 0)
(-4.80676 0.0380431 0)
(-4.85602 0.0463857 0)
(-4.89956 0.0464015 0)
(-4.93063 0.0495185 0)
(-4.95218 0.0521428 0)
(-4.96839 0.0554434 0)
(-4.97365 0.055992 0)
(-4.96278 0.0516475 0)
(-4.94418 0.0504604 0)
(-4.9319 0.0499458 0)
(-4.92177 0.0349048 0)
(-4.9002 0.0156462 0)
(-4.86872 -0.00170203 0)
(-4.82798 -0.0218036 0)
(-4.77437 -0.0376679 0)
(-4.71047 -0.0518374 0)
(-4.63755 -0.0654856 0)
(-4.55582 -0.0804457 0)
(-4.46596 -0.0957684 0)
(-4.36799 -0.110623 0)
(-4.26253 -0.117189 0)
(-4.15313 -0.118373 0)
(-4.04069 -0.127902 0)
(-3.92404 -0.138501 0)
(-3.80479 -0.144335 0)
(-3.6849 -0.153794 0)
(-3.56292 -0.168591 0)
(-3.43923 -0.171401 0)
(-3.31762 -0.165256 0)
(-3.20157 -0.152449 0)
(-3.09185 -0.150151 0)
(-2.9864 -0.160593 0)
(-2.88701 -0.152139 0)
(-2.79803 -0.125492 0)
(-2.72403 -0.0866167 0)
(-2.66596 -0.0530409 0)
(-2.62043 -0.0385371 0)
(-2.58646 -0.0351958 0)
(-2.56171 -0.0382186 0)
(-2.54435 -0.0376792 0)
(-2.53468 -0.0318938 0)
(-2.53037 -0.0257078 0)
(-2.53166 -0.0107822 0)
(-2.54094 -0.00282938 0)
(-2.55558 0.00697049 0)
(-2.57335 0.0207694 0)
(-2.59381 0.0327878 0)
(-2.61728 0.0321402 0)
(-2.63509 0.018081 0)
(-2.64694 0.00831395 0)
(-2.65432 0.00528984 0)
(-2.68388 -0.00628007 0)
(-2.74712 -0.0263678 0)
(-2.82494 -0.0225081 0)
(-2.91509 -0.00898226 0)
(-3.01422 0.0075087 0)
(-3.12067 0.0167654 0)
(-3.23061 0.0148666 0)
(-3.34162 0.00442221 0)
(-3.45023 -0.0109407 0)
(-3.55669 -0.0168987 0)
(-3.66747 -0.00874253 0)
(-3.78633 0.00186983 0)
(-3.90786 0.00179642 0)
(-4.03151 0.011083 0)
(-4.16061 0.0191548 0)
(-4.29325 0.0253868 0)
(-4.42708 0.0278158 0)
(-4.56454 0.0412019 0)
(-4.70503 0.0463072 0)
(-4.84211 0.0538273 0)
(-4.97656 0.0595874 0)
(-5.10568 0.0681506 0)
(-5.22931 0.0827591 0)
(-5.34616 0.100573 0)
(-5.45624 0.111057 0)
(-5.55172 0.0974472 0)
(-5.62752 0.0850702 0)
(-5.69056 0.0668805 0)
(-5.73113 0.0304076 0)
(-5.73322 0.00521309 0)
(-5.68305 -0.00400638 0)
(-5.57281 -0.0254189 0)
(-5.42278 -0.0614215 0)
(-5.26527 -0.0594264 0)
(-5.1247 -0.0277848 0)
(-0.102701 -0.0861998 0)
(-0.149798 -0.0119901 0)
(-0.26143 -0.0283745 0)
(-0.372575 0.0136032 0)
(-0.504074 0.0101753 0)
(-0.641241 0.0199025 0)
(-0.784232 0.038807 0)
(-0.932736 0.0580787 0)
(-1.08445 0.0689388 0)
(-1.23663 0.0651467 0)
(-1.39082 0.0542605 0)
(-1.55315 0.0484949 0)
(-1.72124 0.0366267 0)
(-1.87483 -0.00955508 0)
(-2.01427 -0.0418094 0)
(-2.13341 -0.0880521 0)
(-2.22218 -0.152937 0)
(-2.33348 -0.111181 0)
(-2.43158 0.0149131 0)
(-2.58301 0.049668 0)
(-2.73015 0.0673831 0)
(-2.87979 0.0498478 0)
(-3.01929 -0.0647074 0)
(-3.18297 -0.164183 0)
(-3.38512 -0.168039 0)
(-3.55644 -0.0265993 0)
(-3.7373 0.0408726 0)
(-3.92379 0.0518372 0)
(-4.1219 0.0547927 0)
(-4.32755 0.0479749 0)
(-4.53281 0.0532582 0)
(-4.72297 0.101391 0)
(-4.88027 0.152545 0)
(-5.02329 0.157002 0)
(-5.18713 0.253441 0)
(-5.44819 0.30584 0)
(-5.71955 0.445089 0)
(-6.04056 0.519521 0)
(-6.42674 0.500105 0)
(-6.83393 0.377152 0)
(-7.18343 0.213523 0)
(-7.47126 0.111163 0)
(-7.70799 0.10561 0)
(-7.85892 0.0683894 0)
(-7.9347 0.22111 0)
(-8.17103 0.254836 0)
(-8.4325 0.411562 0)
(-8.70529 0.403132 0)
(-8.94079 0.361119 0)
(-9.14131 0.276063 0)
(-9.24708 0.0352656 0)
(-9.31435 -0.238006 0)
(-9.35278 -0.103333 0)
(-9.37279 -0.00376818 0)
(-9.39206 -0.0596865 0)
(-9.39798 -0.0962429 0)
(-9.39874 -0.0360697 0)
(-9.43027 -0.298109 0)
(-9.52908 -0.281225 0)
(-9.64849 -0.189043 0)
(-9.80153 -0.0927151 0)
(-9.99834 -0.0380497 0)
(-10.2229 0.0161938 0)
(-10.4447 0.0571832 0)
(-10.6018 0.12352 0)
(-10.7069 0.115152 0)
(-10.7375 0.039865 0)
(-10.7197 0.00408839 0)
(-10.7162 0.230066 0)
(-10.989 0.441052 0)
(-11.3316 0.716105 0)
(-11.7228 0.821038 0)
(-12.1003 0.779849 0)
(-12.4183 0.517178 0)
(-12.6771 0.238752 0)
(-12.9236 0.109578 0)
(-13.162 0.143726 0)
(-13.3264 0.273196 0)
(-13.5012 0.231825 0)
(-13.6744 0.190312 0)
(-13.8253 0.144442 0)
(-13.9435 0.175056 0)
(-14.018 0.154798 0)
(-14.0288 0.0294809 0)
(-14.0499 -0.0463783 0)
(-14.0873 -0.177059 0)
(-14.1774 -0.247113 0)
(-14.2843 -0.171552 0)
(-14.4346 -0.040481 0)
(-14.4691 0.197013 0)
(-14.4205 0.216257 0)
(-14.3956 0.0899788 0)
(-14.3843 0.047985 0)
(-14.3849 0.0572318 0)
(-14.3893 0.0836266 0)
(-14.3978 0.116099 0)
(-14.4262 0.139666 0)
(-14.4677 0.182785 0)
(-14.5022 0.253494 0)
(-14.5161 0.340265 0)
(-14.5426 0.426916 0)
(-14.5563 0.486282 0)
(-14.574 0.495446 0)
(-14.5789 0.470334 0)
(-14.5685 0.426771 0)
(-14.5302 0.401927 0)
(-14.4922 0.327686 0)
(-14.4471 0.202759 0)
(-14.3394 0.133517 0)
(-14.2079 0.0721242 0)
(-14.0788 -0.0819687 0)
(-13.8896 -0.243608 0)
(-13.6419 -0.256472 0)
(-13.3868 -0.334845 0)
(-13.0989 -0.473671 0)
(-12.7432 -0.572587 0)
(-12.348 -0.718926 0)
(-11.9061 -0.857909 0)
(-11.4268 -0.995726 0)
(-10.9001 -1.16303 0)
(-10.2979 -1.34946 0)
(-9.58594 -1.57672 0)
(-8.71924 -1.83134 0)
(-7.70092 -2.04768 0)
(-6.59363 -2.16541 0)
(-5.46275 -2.15708 0)
(-4.35495 -2.00979 0)
(-3.2843 -1.85451 0)
(-2.25479 -1.7345 0)
(-1.25243 -1.68432 0)
(-0.262924 -1.66972 0)
(0.721653 -1.64895 0)
(1.71039 -1.6053 0)
(2.715 -1.59998 0)
(3.72619 -1.66221 0)
(4.72671 -1.7064 0)
(5.69624 -1.72162 0)
(6.61981 -1.71752 0)
(7.50113 -1.71943 0)
(8.34759 -1.64319 0)
(9.16166 -1.49175 0)
(9.96097 -1.28793 0)
(10.7343 -1.03437 0)
(11.4986 -0.801984 0)
(12.2578 -0.605394 0)
(12.9929 -0.438474 0)
(13.6536 -0.380803 0)
(14.0713 -0.26078 0)
(14.1672 -0.0909037 0)
(14.0021 0.0487542 0)
(13.709 0.279699 0)
(13.366 0.511784 0)
(13.0001 0.657009 0)
(12.6367 0.759504 0)
(12.236 0.818388 0)
(11.7218 0.847973 0)
(11.0094 0.916943 0)
(10.0998 1.05844 0)
(9.07758 1.25803 0)
(8.06023 1.27301 0)
(7.20989 1.20329 0)
(6.59429 1.02672 0)
(6.098 0.887925 0)
(5.59577 0.775102 0)
(4.93689 0.708445 0)
(4.09733 0.609947 0)
(3.16595 0.514673 0)
(2.2407 0.553222 0)
(1.35866 0.685938 0)
(0.514694 0.90099 0)
(-0.303278 1.12499 0)
(-1.04896 1.27371 0)
(-1.718 1.35508 0)
(-2.34779 1.39288 0)
(-2.95217 1.43121 0)
(-3.52943 1.38944 0)
(-4.08193 1.37176 0)
(-4.63998 1.35798 0)
(-5.14015 1.18268 0)
(-5.57204 1.01371 0)
(-5.90473 0.84704 0)
(-6.1619 0.659249 0)
(-6.38693 0.520279 0)
(-6.56282 0.361077 0)
(-6.62945 0.135763 0)
(-6.53944 -0.0825391 0)
(-6.33831 -0.255932 0)
(-6.0565 -0.387951 0)
(-5.69526 -0.473186 0)
(-5.2721 -0.543583 0)
(-4.8096 -0.610841 0)
(-4.33572 -0.686099 0)
(-3.86746 -0.75603 0)
(-3.41361 -0.814376 0)
(-2.97505 -0.856074 0)
(-2.5506 -0.887103 0)
(-2.13969 -0.900324 0)
(-1.74516 -0.904703 0)
(-1.36473 -0.908904 0)
(-0.993728 -0.893816 0)
(-0.626327 -0.864026 0)
(-0.248832 -0.798971 0)
(0.140073 -0.714176 0)
(0.524386 -0.624466 0)
(0.902753 -0.532249 0)
(1.27251 -0.478686 0)
(1.58782 -0.407793 0)
(1.85107 -0.353529 0)
(2.07384 -0.302025 0)
(2.25291 -0.261548 0)
(2.38402 -0.238381 0)
(2.45767 -0.196816 0)
(2.48408 -0.154632 0)
(2.46669 -0.0957073 0)
(2.42112 -0.038065 0)
(2.34496 0.0070344 0)
(2.25187 0.0383464 0)
(2.15592 0.073517 0)
(2.05646 0.105029 0)
(1.94771 0.142602 0)
(1.81657 0.195337 0)
(1.65729 0.235581 0)
(1.46904 0.233647 0)
(1.24209 0.227554 0)
(0.980306 0.207433 0)
(0.703183 0.252103 0)
(0.413254 0.28287 0)
(0.113365 0.303403 0)
(-0.195565 0.316478 0)
(-0.512448 0.307616 0)
(-0.827604 0.276156 0)
(-1.13044 0.246087 0)
(-1.42168 0.24214 0)
(-1.71512 0.245992 0)
(-2.02969 0.283816 0)
(-2.36869 0.336753 0)
(-2.68714 0.316761 0)
(-2.88601 0.246831 0)
(-3.02735 0.235898 0)
(-3.16436 0.196243 0)
(-3.29456 0.132844 0)
(-3.39971 0.0413164 0)
(-3.50835 -0.0121369 0)
(-3.61724 -0.0119404 0)
(-3.7234 0.0279624 0)
(-3.84072 0.0526877 0)
(-3.96347 0.0620602 0)
(-4.09222 0.0892515 0)
(-4.22479 0.152875 0)
(-4.37632 0.236354 0)
(-4.52885 0.35573 0)
(-4.76737 0.466264 0)
(-5.13586 0.551035 0)
(-5.55948 0.627582 0)
(-5.96492 0.693627 0)
(-6.34057 0.748055 0)
(-6.70285 0.791809 0)
(-7.05916 0.816863 0)
(-7.40822 0.823026 0)
(-7.72632 0.781134 0)
(-8.01152 0.749878 0)
(-8.26151 0.695166 0)
(-8.46781 0.630172 0)
(-8.63526 0.562467 0)
(-8.76427 0.48079 0)
(-8.83952 0.366877 0)
(-8.8964 0.260854 0)
(-8.92206 0.153335 0)
(-8.89588 0.00337918 0)
(-8.802 -0.122407 0)
(-8.66598 -0.216411 0)
(-8.51039 -0.330445 0)
(-8.29327 -0.406423 0)
(-8.03725 -0.490335 0)
(-7.74639 -0.573331 0)
(-7.42514 -0.645338 0)
(-7.07691 -0.71794 0)
(-6.70227 -0.787053 0)
(-6.28732 -0.84305 0)
(-5.78131 -0.897626 0)
(-5.16535 -0.941147 0)
(-4.53098 -0.947933 0)
(-3.93744 -0.93609 0)
(-3.39144 -0.94175 0)
(-2.8783 -0.945679 0)
(-2.39509 -0.912014 0)
(-1.95662 -0.854262 0)