/*--------------------------------*- C++ -*----------------------------------*\
| =========                 |                                                 |
| \\      /  F ield         | OpenFOAM: The Open Source CFD Toolbox           |
|  \\    /   O peration     | Version:  v1812                                 |
|   \\  /    A nd           | Web:      www.OpenFOAM.com                      |
|    \\/     M anipulation  |                                                 |
\*---------------------------------------------------------------------------*/
FoamFile
{
    version     2.0;
    format      ascii;
    class       surfaceScalarField;
    location    "0.003";
    object      phi;
}
// * * * * * * * * * * * * * * * * * * * * * * * * * * * * * * * * * * * * * //

dimensions      [1 0 -1 0 0 0 0];
oriented        oriented;


internalField   nonuniform List<scalar> 
16762
(
0.0423011
1.9166e-18
0.0423011
-1.71684e-17
0.0423011
-5.44858e-18
0.0423011
-1.06977e-18
0.0423011
-1.73145e-17
0.0423011
-1.36812e-17
0.0423011
-2.63327e-17
0.0423011
-2.86136e-17
0.0423011
-2.71704e-17
0.0423011
-2.59907e-17
0.0423011
-3.10067e-17
0.0423011
-3.32484e-17
0.0423011
-1.98909e-17
0.0423011
3.75285e-19
0.0423011
-1.58074e-18
0.0423011
6.18817e-18
0.0423011
2.75593e-17
0.0423011
3.05933e-17
0.0423011
3.87843e-17
0.0423011
7.60406e-17
0.0423011
9.77547e-17
0.0423011
8.59263e-17
0.0423011
9.17176e-17
0.0423011
6.41923e-17
0.0423011
6.84266e-17
0.0423011
6.5754e-17
0.0423011
6.81005e-17
0.0423011
5.26502e-17
0.0423011
7.18725e-17
0.0423011
4.26403e-17
0.0423011
7.18167e-17
0.0423011
2.41016e-16
0.0423011
1.79322e-14
0.0423011
6.18275e-13
0.0423011
7.94678e-11
0.0423011
3.06279e-09
0.0423007
3.82099e-07
1.60981e-05
0.0422847
0.0423011
1.8439e-17
0.0423011
4.03289e-18
0.0423011
3.41974e-18
0.0423011
-9.04097e-18
0.0423011
-1.80773e-18
0.0423011
-1.25719e-17
0.0423011
-1.09109e-17
0.0423011
5.44778e-18
0.0423011
-4.18267e-17
0.0423011
-4.10357e-17
0.0423011
-3.01409e-17
0.0423011
-2.70711e-17
0.0423011
-1.62079e-17
0.0423011
-2.63188e-17
0.0423011
-2.34808e-17
0.0423011
-5.45516e-18
0.0423011
-9.37889e-18
0.0423011
4.55562e-18
0.0423011
1.95382e-17
0.0423011
1.65387e-17
0.0423011
3.5819e-17
0.0423011
4.81911e-17
0.0423011
6.8252e-17
0.0423011
7.18512e-17
0.0423011
6.5524e-17
0.0423011
8.12812e-17
0.0423011
7.52947e-17
0.0423011
7.08579e-17
0.0423011
6.91735e-17
0.0423011
8.63438e-17
0.0423011
8.01979e-17
0.0423011
2.39173e-16
0.0423011
6.98168e-15
0.0423011
5.25212e-13
0.0423011
2.02826e-11
0.0423011
1.57902e-09
0.0423015
4.69521e-08
3.51514e-06
0.0423141
0.0423011
-1.77961e-17
0.0423011
-8.72882e-18
0.0423011
-4.3709e-18
0.0423011
-1.77568e-17
0.0423011
-1.92781e-17
0.0423011
-2.36546e-17
0.0423011
-1.79447e-17
0.0423011
-1.53598e-17
0.0423011
-1.85348e-17
0.0423011
-2.7024e-17
0.0423011
-2.89875e-17
0.0423011
-1.71973e-17
0.0423011
-2.92075e-17
0.0423011
-2.73914e-17
0.0423011
-3.15016e-17
0.0423011
-2.93796e-17
0.0423011
-3.89715e-17
0.0423011
-1.76919e-17
0.0423011
5.59428e-18
0.0423011
1.74517e-17
0.0423011
4.07663e-17
0.0423011
4.84807e-17
0.0423011
2.32738e-17
0.0423011
1.95625e-17
0.0423011
5.55252e-17
0.0423011
3.60041e-17
0.0423011
4.78133e-17
0.0423011
6.03392e-17
0.0423011
8.38613e-17
0.0423011
6.15206e-17
0.0423011
6.74619e-17
0.0423011
9.51002e-17
0.0423011
8.2157e-16
0.0423011
1.15375e-13
0.0423011
1.48689e-12
0.0423011
2.24246e-10
0.0423012
1.84227e-09
3.58946e-07
0.0423043
0.0423011
2.08273e-17
0.0423011
-1.63599e-17
0.0423011
-6.38544e-18
0.0423011
-1.56503e-17
0.0423011
-2.15496e-19
0.0423011
-1.192e-17
0.0423011
-3.25916e-17
0.0423011
-5.23717e-17
0.0423011
-2.33311e-17
0.0423011
-2.34464e-17
0.0423011
-4.96872e-17
0.0423011
-5.00182e-17
0.0423011
-5.03711e-17
0.0423011
-3.26853e-17
0.0423011
-3.22311e-17
0.0423011
-2.67393e-17
0.0423011
-8.9697e-18
0.0423011
-1.96358e-17
0.0423011
-1.78597e-17
0.0423011
-1.07766e-17
0.0423011
-7.83529e-19
0.0423011
1.14411e-17
0.0423011
2.06014e-17
0.0423011
3.49769e-17
0.0423011
2.03205e-17
0.0423011
1.88558e-17
0.0423011
1.20185e-17
0.0423011
2.2852e-17
0.0423011
4.45527e-17
0.0423011
6.17178e-17
0.0423011
5.421e-17
0.0423011
5.67061e-17
0.0423011
6.33217e-17
0.0423011
1.09301e-14
0.0423011
3.28889e-14
0.0423011
1.522e-11
0.0423011
3.57132e-11
2.08064e-08
0.0423015
0.0423011
-1.93912e-17
0.0423011
-4.36107e-18
0.0423011
-3.98638e-18
0.0423011
9.51313e-18
0.0423011
-1.41978e-17
0.0423011
-3.47286e-18
0.0423011
-7.59102e-18
0.0423011
-2.24135e-17
0.0423011
-3.28554e-17
0.0423011
-1.62991e-17
0.0423011
-6.02067e-18
0.0423011
-1.7841e-17
0.0423011
-2.9683e-17
0.0423011
-3.49986e-17
0.0423011
-2.53514e-17
0.0423011
-1.08821e-17
0.0423011
-3.01848e-17
0.0423011
-2.17074e-17
0.0423011
-9.99799e-18
0.0423011
-2.19653e-17
0.0423011
-1.24046e-17
0.0423011
-9.83527e-18
0.0423011
1.26497e-17
0.0423011
-1.1156e-18
0.0423011
-2.11215e-18
0.0423011
1.1237e-17
0.0423011
9.85298e-18
0.0423011
2.04838e-17
0.0423011
1.58336e-17
0.0423011
3.01369e-17
0.0423011
3.35109e-17
0.0423011
3.68647e-17
0.0423011
2.77562e-17
0.0423011
4.802e-16
0.0423011
3.00264e-17
0.0423011
6.1924e-13
0.0423011
6.89729e-13
8.35979e-10
0.0423011
0.0423011
1.23949e-19
0.0423011
-2.19935e-18
0.0423011
-4.80955e-18
0.0423011
-2.42729e-18
0.0423011
-1.17904e-17
0.0423011
-2.47886e-17
0.0423011
-2.05339e-17
0.0423011
-5.8257e-18
0.0423011
-1.32828e-19
0.0423011
2.79727e-18
0.0423011
4.13481e-18
0.0423011
2.84078e-18
0.0423011
-4.4779e-17
0.0423011
-6.16749e-17
0.0423011
-4.34903e-17
0.0423011
-5.76629e-17
0.0423011
-2.4596e-17
0.0423011
-2.68972e-17
0.0423011
-2.89692e-17
0.0423011
1.09828e-17
0.0423011
9.72709e-18
0.0423011
-8.61049e-18
0.0423011
2.05191e-17
0.0423011
-6.77757e-18
0.0423011
1.09524e-18
0.0423011
-1.65029e-18
0.0423011
1.30535e-17
0.0423011
1.92812e-17
0.0423011
2.98691e-17
0.0423011
2.48007e-17
0.0423011
2.27727e-17
0.0423011
1.10141e-17
0.0423011
1.84875e-17
0.0423011
4.08366e-17
0.0423011
-9.1397e-17
0.0423011
1.74762e-14
0.0423011
2.15683e-14
2.52874e-11
0.0423011
0.0423011
-1.03771e-17
0.0423011
-6.84357e-19
0.0423011
8.34259e-18
0.0423011
-2.37154e-18
0.0423011
3.5484e-18
0.0423011
-2.0788e-17
0.0423011
-7.32976e-18
0.0423011
2.25482e-18
0.0423011
-8.30997e-18
0.0423011
6.58648e-18
0.0423011
4.18673e-18
0.0423011
-1.28245e-17
0.0423011
6.71907e-18
0.0423011
-3.38196e-18
0.0423011
-1.73302e-17
0.0423011
-3.87309e-17
0.0423011
-6.13029e-18
0.0423011
-3.21229e-17
0.0423011
-2.2694e-17
0.0423011
-4.38166e-17
0.0423011
-3.81118e-17
0.0423011
-1.94285e-17
0.0423011
-2.30496e-17
0.0423011
-3.24911e-18
0.0423011
2.00013e-17
0.0423011
-8.91787e-19
0.0423011
1.05743e-17
0.0423011
1.14116e-17
0.0423011
5.92776e-18
0.0423011
-4.80615e-18
0.0423011
6.94846e-18
0.0423011
-6.9255e-18
0.0423011
-1.95174e-17
0.0423011
-2.32597e-17
0.0423011
-3.35129e-17
0.0423011
3.13883e-16
0.0423011
4.18832e-16
6.21405e-13
0.0423011
0.0423011
6.24046e-18
0.0423011
8.61938e-18
0.0423011
-2.7346e-18
0.0423011
7.06392e-18
0.0423011
6.9256e-18
0.0423011
1.69724e-17
0.0423011
-6.97291e-18
0.0423011
-4.63098e-18
0.0423011
5.79187e-18
0.0423011
3.38177e-18
0.0423011
-1.2088e-17
0.0423011
2.86551e-17
0.0423011
1.06203e-17
0.0423011
1.32561e-17
0.0423011
1.45646e-18
0.0423011
-2.78377e-18
0.0423011
-7.62576e-18
0.0423011
-1.12439e-17
0.0423011
-1.63652e-17
0.0423011
-1.06018e-17
0.0423011
-2.33713e-17
0.0423011
-1.92505e-17
0.0423011
-7.92367e-18
0.0423011
-1.4868e-17
0.0423011
6.2169e-19
0.0423011
2.0996e-17
0.0423011
-3.28087e-17
0.0423011
-3.31662e-17
0.0423011
-1.08571e-17
0.0423011
-1.19835e-17
0.0423011
-3.6193e-17
0.0423011
-2.22428e-17
0.0423011
-1.00653e-17
0.0423011
-3.36817e-17
0.0423011
-5.78739e-17
0.0423011
-1.36983e-17
0.0423011
-1.28558e-17
1.3538e-14
0.0423011
0.0423011
-9.89391e-19
0.0423011
-1.64697e-17
0.0423011
7.1857e-18
0.0423011
1.47913e-17
0.0423011
1.08197e-17
0.0423011
1.64821e-17
0.0423011
2.00678e-17
0.0423011
2.10033e-17
0.0423011
1.35978e-17
0.0423011
5.6418e-18
0.0423011
9.25739e-18
0.0423011
-1.18704e-17
0.0423011
-1.54903e-18
0.0423011
1.77525e-18
0.0423011
1.96568e-17
0.0423011
1.66773e-17
0.0423011
-6.84786e-19
0.0423011
-6.17163e-18
0.0423011
-1.59564e-17
0.0423011
-2.95275e-17
0.0423011
-3.17921e-17
0.0423011
-1.27934e-17
0.0423011
-7.3473e-19
0.0423011
3.2025e-18
0.0423011
-9.23684e-18
0.0423011
-1.1645e-17
0.0423011
-8.31083e-18
0.0423011
-1.26037e-17
0.0423011
-3.65781e-17
0.0423011
-3.41825e-17
0.0423011
-2.66785e-17
0.0423011
-2.25284e-17
0.0423011
-1.39843e-17
0.0423011
1.02164e-17
0.0423011
-1.43346e-17
0.0423011
-1.8993e-17
0.0423011
-2.26076e-17
1.99438e-16
0.0423011
0.0423011
-8.17633e-18
0.0423011
3.09776e-18
0.0423011
3.83218e-18
0.0423011
-1.10793e-17
0.0423011
7.04458e-18
0.0423011
1.10189e-17
0.0423011
2.54159e-17
0.0423011
1.47282e-17
0.0423011
9.76291e-18
0.0423011
1.12032e-17
0.0423011
1.53282e-17
0.0423011
8.51257e-18
0.0423011
-9.22172e-18
0.0423011
6.19828e-18
0.0423011
2.56138e-18
0.0423011
3.37564e-17
0.0423011
5.28568e-18
0.0423011
5.53991e-18
0.0423011
-1.03782e-17
0.0423011
-3.38761e-17
0.0423011
-2.91732e-17
0.0423011
-3.7429e-17
0.0423011
-1.13465e-17
0.0423011
4.77217e-18
0.0423011
4.22259e-18
0.0423011
-3.02641e-18
0.0423011
-4.53654e-18
0.0423011
-1.07971e-17
0.0423011
-9.26242e-18
0.0423011
-2.80333e-17
0.0423011
-9.75288e-18
0.0423011
-7.38922e-18
0.0423011
-1.5081e-17
0.0423011
-1.85496e-17
0.0423011
1.30959e-17
0.0423011
-1.23549e-18
0.0423011
-2.42826e-17
-2.49596e-17
0.0423011
0.0423011
5.22709e-18
0.0423011
-3.3643e-18
0.0423011
-1.32744e-17
0.0423011
1.01228e-18
0.0423011
7.75424e-18
0.0423011
3.94281e-17
0.0423011
1.93234e-17
0.0423011
4.92956e-18
0.0423011
9.25546e-18
0.0423011
-1.44587e-18
0.0423011
3.30763e-18
0.0423011
1.17897e-17
0.0423011
1.86651e-17
0.0423011
-1.22025e-18
0.0423011
-1.29152e-20
0.0423011
6.36064e-18
0.0423011
1.50079e-17
0.0423011
-1.03776e-17
0.0423011
-2.34359e-17
0.0423011
-3.69331e-18
0.0423011
-1.22157e-17
0.0423011
-1.81672e-17
0.0423011
-2.00902e-17
0.0423011
-4.60401e-17
0.0423011
-3.32804e-17
0.0423011
9.97848e-18
0.0423011
7.30373e-18
0.0423011
-1.46531e-17
0.0423011
-2.56018e-17
0.0423011
-1.96921e-17
0.0423011
-2.46713e-17
0.0423011
-2.01177e-17
0.0423011
-4.79309e-17
0.0423011
-4.52717e-17
0.0423011
-4.41285e-17
0.0423011
-3.21885e-17
0.0423011
-3.65545e-17
-2.32497e-17
0.0423011
0.0423011
9.60695e-18
0.0423011
1.5734e-17
0.0423011
-4.49126e-18
0.0423011
1.88225e-17
0.0423011
4.08585e-17
0.0423011
2.04191e-17
0.0423011
1.06652e-17
0.0423011
1.80355e-17
0.0423011
-2.2468e-18
0.0423011
1.51832e-17
0.0423011
5.42007e-18
0.0423011
5.86928e-18
0.0423011
5.70024e-18
0.0423011
2.98413e-17
0.0423011
-1.69988e-18
0.0423011
-9.17778e-18
0.0423011
3.81648e-18
0.0423011
1.22291e-17
0.0423011
2.4035e-17
0.0423011
6.49704e-18
0.0423011
1.37412e-17
0.0423011
1.10464e-18
0.0423011
-4.33276e-17
0.0423011
9.16513e-20
0.0423011
-2.33756e-17
0.0423011
-3.88645e-17
0.0423011
-2.83694e-17
0.0423011
-2.28571e-17
0.0423011
-1.3567e-18
0.0423011
-2.02245e-17
0.0423011
-3.95997e-17
0.0423011
-2.95927e-17
0.0423011
-1.47659e-17
0.0423011
-3.03853e-18
0.0423011
-4.23524e-18
0.0423011
-1.37501e-17
0.0423011
-4.94993e-17
-3.27072e-17
0.0423011
0.0423011
4.48808e-18
0.0423011
8.85176e-19
0.0423011
1.26778e-17
0.0423011
7.34079e-19
0.0423011
-1.46512e-17
0.0423011
-1.23949e-17
0.0423011
1.88747e-17
0.0423011
-3.70103e-19
0.0423011
2.70048e-17
0.0423011
-2.45467e-18
0.0423011
-2.60328e-18
0.0423011
-2.68226e-18
0.0423011
-8.82902e-18
0.0423011
-1.41281e-17
0.0423011
-3.92916e-18
0.0423011
3.08031e-17
0.0423011
1.28105e-17
0.0423011
-1.08764e-17
0.0423011
-2.04197e-17
0.0423011
1.4489e-17
0.0423011
2.23951e-19
0.0423011
-5.14382e-18
0.0423011
1.74817e-17
0.0423011
-3.4531e-17
0.0423011
-1.77181e-17
0.0423011
-4.06072e-17
0.0423011
-4.60501e-17
0.0423011
-2.82317e-17
0.0423011
-3.72661e-17
0.0423011
-4.48102e-17
0.0423011
-3.06406e-17
0.0423011
-4.07648e-17
0.0423011
-3.47789e-17
0.0423011
-6.16017e-17
0.0423011
-4.89572e-17
0.0423011
-2.9136e-17
0.0423011
-1.90859e-17
-5.22051e-19
0.0423011
0.0423011
-5.62454e-18
0.0423011
1.07214e-17
0.0423011
-9.04778e-18
0.0423011
-1.67002e-17
0.0423011
-1.48763e-17
0.0423011
-2.58975e-18
0.0423011
-1.10314e-17
0.0423011
-6.70911e-18
0.0423011
-1.21514e-17
0.0423011
1.37397e-18
0.0423011
-1.45888e-17
0.0423011
-1.70127e-17
0.0423011
3.90298e-18
0.0423011
-1.325e-17
0.0423011
-1.48402e-17
0.0423011
-1.01961e-17
0.0423011
-5.09194e-18
0.0423011
1.06451e-18
0.0423011
1.15156e-17
0.0423011
-4.42859e-18
0.0423011
-2.17844e-18
0.0423011
-4.4685e-18
0.0423011
-1.92703e-18
0.0423011
-6.16249e-18
0.0423011
-3.47725e-17
0.0423011
-1.53446e-17
0.0423011
-2.36701e-17
0.0423011
-3.45745e-17
0.0423011
-3.18864e-17
0.0423011
-2.78054e-17
0.0423011
-2.49273e-17
0.0423011
-2.85287e-17
0.0423011
-1.07226e-17
0.0423011
-2.82055e-18
0.0423011
-3.03405e-17
0.0423011
-3.31975e-18
0.0423011
-1.13476e-17
-1.84228e-17
0.0423011
0.0423011
-3.53632e-17
0.0423011
-4.85755e-18
0.0423011
-2.65439e-17
0.0423011
-1.12515e-17
0.0423011
-3.66178e-17
0.0423011
-1.92337e-17
0.0423011
-1.23559e-17
0.0423011
1.5155e-17
0.0423011
-2.19614e-18
0.0423011
-1.07213e-17
0.0423011
1.12969e-17
0.0423011
1.02919e-17
0.0423011
2.82072e-17
0.0423011
1.5884e-17
0.0423011
-1.667e-17
0.0423011
-4.02501e-18
0.0423011
-3.70788e-18
0.0423011
2.47152e-18
0.0423011
-9.88768e-18
0.0423011
-1.89841e-17
0.0423011
-1.37445e-17
0.0423011
-1.56208e-18
0.0423011
-1.12292e-17
0.0423011
-1.95014e-17
0.0423011
-6.19069e-18
0.0423011
-1.99547e-17
0.0423011
-6.1998e-18
0.0423011
-1.51439e-17
0.0423011
-4.33062e-17
0.0423011
-1.42604e-17
0.0423011
-1.8264e-17
0.0423011
-3.73561e-17
0.0423011
-2.77302e-17
0.0423011
-3.38772e-17
0.0423011
-2.26066e-17
0.0423011
-3.24615e-17
0.0423011
-4.07e-17
-1.23878e-17
0.0423011
0.0423011
6.79654e-18
0.0423011
-1.53461e-17
0.0423011
-1.59404e-18
0.0423011
-3.89824e-19
0.0423011
1.17084e-17
0.0423011
-3.03131e-17
0.0423011
-3.4592e-17
0.0423011
-4.46023e-17
0.0423011
-2.65956e-17
0.0423011
-1.59105e-17
0.0423011
-7.88994e-18
0.0423011
-1.7488e-18
0.0423011
-3.32634e-18
0.0423011
2.5057e-18
0.0423011
7.34185e-18
0.0423011
-3.58582e-17
0.0423011
-3.42649e-17
0.0423011
-1.7816e-17
0.0423011
-4.59129e-18
0.0423011
2.14781e-17
0.0423011
1.01324e-18
0.0423011
-3.35527e-18
0.0423011
-1.4766e-18
0.0423011
8.80677e-18
0.0423011
9.42239e-18
0.0423011
3.64428e-18
0.0423011
-1.68296e-17
0.0423011
-6.07767e-18
0.0423011
5.02747e-18
0.0423011
-1.26249e-17
0.0423011
-1.50809e-17
0.0423011
-1.73912e-17
0.0423011
-3.7863e-17
0.0423011
-1.27581e-17
0.0423011
4.53139e-19
0.0423011
3.45942e-18
0.0423011
2.63902e-17
3.88403e-17
0.0423011
0.0423011
2.32909e-18
0.0423011
-2.56748e-18
0.0423011
-7.2433e-18
0.0423011
7.18414e-18
0.0423011
-1.33902e-17
0.0423011
-1.90542e-17
0.0423011
-1.57713e-17
0.0423011
-6.36341e-18
0.0423011
-1.1627e-17
0.0423011
-1.48592e-18
0.0423011
-1.54849e-17
0.0423011
-8.71488e-18
0.0423011
9.94097e-18
0.0423011
1.44742e-17
0.0423011
1.2766e-17
0.0423011
6.92951e-19
0.0423011
9.53422e-19
0.0423011
6.32298e-18
0.0423011
1.16614e-17
0.0423011
3.82981e-18
0.0423011
1.16647e-17
0.0423011
4.27512e-18
0.0423011
1.73754e-17
0.0423011
1.35265e-17
0.0423011
2.30405e-17
0.0423011
1.48538e-17
0.0423011
1.82424e-17
0.0423011
6.46786e-18
0.0423011
-3.46145e-18
0.0423011
-2.48951e-18
0.0423011
-2.00399e-17
0.0423011
-2.24556e-17
0.0423011
8.19813e-18
0.0423011
5.67757e-18
0.0423011
1.30202e-17
0.0423011
1.8985e-17
0.0423011
4.20084e-18
7.26008e-18
0.0423011
0.0423011
1.44219e-19
0.0423011
4.06504e-18
0.0423011
-4.92124e-18
0.0423011
-2.98198e-17
0.0423011
-1.24534e-17
0.0423011
4.35013e-18
0.0423011
4.56579e-18
0.0423011
-1.11958e-17
0.0423011
-2.83086e-18
0.0423011
-7.46336e-18
0.0423011
2.40228e-17
0.0423011
1.75239e-17
0.0423011
1.00576e-18
0.0423011
-6.3656e-18
0.0423011
-7.43695e-19
0.0423011
3.7428e-18
0.0423011
2.87369e-18
0.0423011
-4.76905e-18
0.0423011
1.10506e-17
0.0423011
-3.60083e-19
0.0423011
1.55636e-17
0.0423011
-5.17238e-18
0.0423011
4.31936e-18
0.0423011
2.56272e-17
0.0423011
2.12257e-17
0.0423011
2.17094e-17
0.0423011
5.78201e-18
0.0423011
8.33272e-18
0.0423011
4.32936e-18
0.0423011
2.06678e-18
0.0423011
-3.31064e-18
0.0423011
2.10244e-18
0.0423011
9.46095e-18
0.0423011
3.75315e-18
0.0423011
-5.18949e-18
0.0423011
-1.38581e-17
0.0423011
7.82762e-18
-1.2987e-17
0.0423011
0.0423011
-1.82638e-18
0.0423011
2.08244e-17
0.0423011
5.51707e-18
0.0423011
-2.45749e-18
0.0423011
1.50844e-18
0.0423011
4.71251e-18
0.0423011
4.88557e-18
0.0423011
6.02341e-18
0.0423011
4.29793e-18
0.0423011
-7.65194e-18
0.0423011
3.29807e-18
0.0423011
2.74157e-18
0.0423011
-5.54272e-18
0.0423011
-3.03479e-17
0.0423011
-1.64056e-17
0.0423011
1.13767e-18
0.0423011
-2.0663e-18
0.0423011
1.50874e-17
0.0423011
2.41878e-17
0.0423011
3.11255e-17
0.0423011
2.2191e-17
0.0423011
4.19033e-17
0.0423011
8.50636e-18
0.0423011
-3.61401e-17
0.0423011
-3.37945e-17
0.0423011
-4.754e-17
0.0423011
-1.7567e-17
0.0423011
-7.0536e-18
0.0423011
1.82716e-17
0.0423011
8.95359e-18
0.0423011
5.4847e-18
0.0423011
9.3342e-18
0.0423011
-2.72903e-18
0.0423011
1.27376e-17
0.0423011
1.17338e-17
0.0423011
1.60454e-17
0.0423011
1.77187e-17
1.7913e-17
0.0423011
0.0423011
1.11497e-17
0.0423011
-1.90639e-17
0.0423011
-2.11917e-17
0.0423011
-2.20717e-17
0.0423011
1.8666e-17
0.0423011
-2.99489e-18
0.0423011
1.07849e-17
0.0423011
6.56405e-18
0.0423011
3.56617e-18
0.0423011
-2.28505e-18
0.0423011
-8.9981e-18
0.0423011
-4.33509e-17
0.0423011
-7.63347e-18
0.0423011
-2.49489e-18
0.0423011
2.16358e-18
0.0423011
1.81068e-18
0.0423011
-6.32467e-20
0.0423011
7.54186e-18
0.0423011
-7.233e-18
0.0423011
1.64869e-17
0.0423011
1.45943e-17
0.0423011
1.16195e-19
0.0423011
1.01001e-17
0.0423011
3.45793e-18
0.0423011
-4.79622e-17
0.0423011
-6.20355e-18
0.0423011
-1.32039e-17
0.0423011
-1.93323e-18
0.0423011
1.07746e-17
0.0423011
1.58696e-18
0.0423011
2.13821e-17
0.0423011
-1.58655e-17
0.0423011
-2.47939e-17
0.0423011
-1.09891e-17
0.0423011
-1.12362e-17
0.0423011
9.6055e-18
0.0423011
1.02189e-17
3.02508e-17
0.0423011
0.0423011
4.14129e-19
0.0423011
1.9762e-17
0.0423011
1.57659e-18
0.0423011
-3.27884e-18
0.0423011
-9.09309e-18
0.0423011
-1.15069e-17
0.0423011
1.37504e-17
0.0423011
-1.40628e-17
0.0423011
1.36258e-17
0.0423011
-1.64414e-18
0.0423011
-6.74555e-18
0.0423011
-3.21015e-17
0.0423011
1.44832e-17
0.0423011
7.19164e-18
0.0423011
1.29628e-17
0.0423011
-3.31771e-18
0.0423011
1.11083e-17
0.0423011
2.09315e-17
0.0423011
9.37597e-18
0.0423011
-7.39291e-20
0.0423011
9.65403e-18
0.0423011
6.71332e-18
0.0423011
3.98534e-18
0.0423011
1.43799e-17
0.0423011
2.35442e-17
0.0423011
2.42441e-18
0.0423011
-6.69703e-19
0.0423011
-5.62409e-18
0.0423011
-2.48815e-18
0.0423011
6.16312e-18
0.0423011
2.44631e-18
0.0423011
3.24617e-17
0.0423011
3.39373e-17
0.0423011
1.2507e-17
0.0423011
2.16283e-17
0.0423011
2.49862e-18
0.0423011
1.26731e-17
4.66149e-18
0.0423011
0.0423011
-5.06028e-19
0.0423011
-6.22042e-18
0.0423011
3.24925e-17
0.0423011
2.19159e-17
0.0423011
-4.64358e-18
0.0423011
-9.55421e-18
0.0423011
-1.80182e-17
0.0423011
-6.75803e-18
0.0423011
-5.1804e-18
0.0423011
-2.4235e-17
0.0423011
-1.59368e-17
0.0423011
5.75506e-18
0.0423011
1.40245e-17
0.0423011
1.92252e-17
0.0423011
2.39647e-17
0.0423011
3.14701e-17
0.0423011
3.36937e-17
0.0423011
-3.02406e-18
0.0423011
1.62597e-18
0.0423011
7.39289e-18
0.0423011
3.06293e-18
0.0423011
9.35163e-18
0.0423011
-1.09141e-17
0.0423011
1.6166e-17
0.0423011
-7.32455e-19
0.0423011
-2.49598e-18
0.0423011
7.17204e-18
0.0423011
2.71966e-17
0.0423011
1.84333e-17
0.0423011
2.99364e-17
0.0423011
3.27601e-17
0.0423011
1.66715e-17
0.0423011
2.29571e-17
0.0423011
2.31161e-17
0.0423011
1.88714e-17
0.0423011
5.38055e-18
0.0423011
-8.93056e-19
-1.51243e-17
0.0423011
0.0423011
-2.29106e-18
0.0423011
-1.53708e-17
0.0423011
-2.97681e-18
0.0423011
-8.92509e-19
0.0423011
1.1883e-17
0.0423011
7.52287e-18
0.0423011
-7.92721e-18
0.0423011
7.87358e-18
0.0423011
6.56015e-18
0.0423011
2.01929e-17
0.0423011
1.79005e-18
0.0423011
1.18905e-17
0.0423011
2.2785e-17
0.0423011
2.50176e-17
0.0423011
2.327e-17
0.0423011
1.95123e-17
0.0423011
-7.65281e-18
0.0423011
9.8898e-18
0.0423011
1.01902e-17
0.0423011
-1.75579e-18
0.0423011
2.13385e-18
0.0423011
-1.90883e-17
0.0423011
7.95316e-19
0.0423011
-3.67501e-17
0.0423011
-9.36206e-18
0.0423011
1.75248e-17
0.0423011
1.59242e-17
0.0423011
2.09302e-17
0.0423011
2.71831e-17
0.0423011
4.6943e-17
0.0423011
1.89803e-17
0.0423011
2.60646e-17
0.0423011
2.27412e-17
0.0423011
1.87629e-17
0.0423011
1.42403e-17
0.0423011
1.30184e-17
0.0423011
-1.48081e-18
5.18627e-18
0.0423011
0.0423011
-1.98277e-18
0.0423011
1.23452e-17
0.0423011
1.35757e-19
0.0423011
9.75064e-18
0.0423011
2.12812e-17
0.0423011
9.65726e-18
0.0423011
-1.4302e-17
0.0423011
7.78865e-18
0.0423011
-1.13026e-17
0.0423011
-2.24654e-17
0.0423011
1.81606e-17
0.0423011
1.76201e-18
0.0423011
-5.22431e-18
0.0423011
-8.18012e-18
0.0423011
4.24486e-18
0.0423011
2.28421e-18
0.0423011
2.16992e-17
0.0423011
8.7667e-18
0.0423011
1.16726e-17
0.0423011
1.66317e-17
0.0423011
-2.94572e-18
0.0423011
-3.38263e-18
0.0423011
-2.15006e-17
0.0423011
9.28715e-18
0.0423011
1.24802e-17
0.0423011
1.28449e-17
0.0423011
3.71827e-18
0.0423011
1.29807e-17
0.0423011
2.5506e-17
0.0423011
2.52821e-17
0.0423011
5.36902e-17
0.0423011
3.4278e-17
0.0423011
3.79787e-17
0.0423011
1.58084e-17
0.0423011
1.57299e-17
0.0423011
6.97927e-18
0.0423011
2.07101e-17
1.45709e-17
0.0423011
0.0423011
1.86917e-17
0.0423011
-8.06735e-18
0.0423011
-9.38398e-19
0.0423011
-1.06853e-17
0.0423011
5.70289e-18
0.0423011
1.66277e-17
0.0423011
1.32279e-17
0.0423011
5.47008e-18
0.0423011
2.19735e-17
0.0423011
2.32717e-17
0.0423011
2.38997e-17
0.0423011
1.13847e-17
0.0423011
-2.35432e-17
0.0423011
-3.81047e-17
0.0423011
-8.87486e-19
0.0423011
9.75656e-18
0.0423011
-5.54291e-18
0.0423011
1.40436e-17
0.0423011
6.91257e-18
0.0423011
1.76768e-18
0.0423011
2.49004e-18
0.0423011
-7.40482e-18
0.0423011
3.00505e-17
0.0423011
3.47439e-17
0.0423011
2.97469e-17
0.0423011
2.18767e-18
0.0423011
2.61328e-17
0.0423011
1.30015e-17
0.0423011
1.771e-17
0.0423011
7.11442e-18
0.0423011
1.01683e-17
0.0423011
1.43454e-17
0.0423011
5.1253e-17
0.0423011
3.15319e-17
0.0423011
-1.63772e-18
0.0423011
2.39545e-17
0.0423011
-2.05925e-18
1.00991e-17
0.0423011
0.0423011
-4.63745e-18
0.0423011
-1.55452e-18
0.0423011
4.98823e-18
0.0423011
7.0268e-18
0.0423011
6.55355e-18
0.0423011
3.2106e-17
0.0423011
3.5798e-17
0.0423011
1.74086e-17
0.0423011
-1.85947e-17
0.0423011
3.09884e-18
0.0423011
5.42961e-18
0.0423011
7.80031e-18
0.0423011
3.04069e-18
0.0423011
1.21197e-17
0.0423011
8.04008e-18
0.0423011
1.39387e-17
0.0423011
1.45054e-17
0.0423011
1.75707e-17
0.0423011
1.17577e-17
0.0423011
1.85657e-17
0.0423011
-2.93772e-18
0.0423011
1.25053e-17
0.0423011
8.13712e-18
0.0423011
-1.22056e-18
0.0423011
1.02533e-17
0.0423011
2.23181e-17
0.0423011
6.50035e-18
0.0423011
2.54878e-17
0.0423011
1.95823e-17
0.0423011
1.33039e-17
0.0423011
2.2979e-17
0.0423011
7.86773e-18
0.0423011
1.43083e-17
0.0423011
2.23004e-17
0.0423011
2.67539e-17
0.0423011
1.41691e-17
0.0423011
2.01552e-17
3.02366e-17
0.0423011
0.0423011
-6.89489e-19
0.0423011
-8.78791e-18
0.0423011
5.64995e-18
0.0423011
1.30729e-17
0.0423011
4.82642e-18
0.0423011
-2.51969e-17
0.0423011
9.73853e-18
0.0423011
1.47553e-18
0.0423011
5.57459e-17
0.0423011
1.39317e-17
0.0423011
4.15462e-18
0.0423011
6.40779e-18
0.0423011
2.71025e-18
0.0423011
-3.67168e-19
0.0423011
-5.22168e-18
0.0423011
7.86832e-18
0.0423011
2.17214e-17
0.0423011
1.50792e-17
0.0423011
1.43927e-17
0.0423011
3.4544e-18
0.0423011
1.77812e-17
0.0423011
8.3979e-18
0.0423011
1.27936e-17
0.0423011
6.36565e-19
0.0423011
-1.37532e-17
0.0423011
-1.40858e-17
0.0423011
1.84412e-17
0.0423011
-1.92387e-17
0.0423011
-1.42485e-17
0.0423011
1.22983e-18
0.0423011
-4.72111e-18
0.0423011
2.18797e-17
0.0423011
9.75347e-18
0.0423011
-2.22229e-17
0.0423011
9.93977e-18
0.0423011
1.80897e-17
0.0423011
6.92297e-18
1.04043e-17
0.0423011
0.0423011
-1.2111e-18
0.0423011
8.45264e-18
0.0423011
1.02067e-18
0.0423011
-7.50326e-18
0.0423011
1.32017e-17
0.0423011
4.68431e-19
0.0423011
-4.32785e-19
0.0423011
-9.0355e-18
0.0423011
-1.00372e-17
0.0423011
-3.87385e-18
0.0423011
9.7062e-18
0.0423011
-1.83384e-17
0.0423011
1.78088e-17
0.0423011
2.88343e-17
0.0423011
2.88123e-17
0.0423011
2.19837e-17
0.0423011
-2.59218e-18
0.0423011
-2.70413e-17
0.0423011
9.53901e-18
0.0423011
-2.37862e-17
0.0423011
7.88134e-18
0.0423011
3.17465e-17
0.0423011
1.95835e-17
0.0423011
1.32293e-17
0.0423011
9.56987e-18
0.0423011
-4.07389e-18
0.0423011
-7.99946e-18
0.0423011
3.09016e-19
0.0423011
1.00823e-17
0.0423011
1.24911e-17
0.0423011
5.91319e-18
0.0423011
6.60991e-18
0.0423011
-7.1675e-18
0.0423011
5.17871e-18
0.0423011
-3.3433e-18
0.0423011
2.28493e-18
0.0423011
-4.09621e-18
8.8079e-18
0.0423011
0.0423011
5.8518e-19
0.0423011
9.13415e-18
0.0423011
-1.6229e-17
0.0423011
8.63764e-18
0.0423011
-1.30228e-17
0.0423011
2.47036e-18
0.0423011
4.09081e-18
0.0423011
1.29349e-18
0.0423011
2.18529e-17
0.0423011
9.12622e-18
0.0423011
3.99832e-18
0.0423011
1.73509e-17
0.0423011
-2.20532e-18
0.0423011
-5.04164e-18
0.0423011
-3.19644e-19
0.0423011
6.96369e-18
0.0423011
1.117e-17
0.0423011
3.04548e-17
0.0423011
-3.56329e-18
0.0423011
1.78074e-17
0.0423011
1.17644e-17
0.0423011
6.3151e-18
0.0423011
1.98989e-17
0.0423011
1.2297e-17
0.0423011
3.00166e-18
0.0423011
2.31709e-17
0.0423011
7.52958e-18
0.0423011
1.76452e-17
0.0423011
-3.15378e-18
0.0423011
-1.28123e-18
0.0423011
5.54937e-18
0.0423011
-4.34794e-18
0.0423011
1.09126e-18
0.0423011
2.81311e-19
0.0423011
8.72341e-18
0.0423011
1.7649e-17
0.0423011
7.79238e-18
6.15098e-18
0.0423011
0.0423011
4.17108e-18
0.0423011
5.71545e-18
0.0423011
2.1195e-17
0.0423011
-1.73579e-18
0.0423011
-1.12926e-17
0.0423011
-1.65253e-18
0.0423011
1.71397e-18
0.0423011
-4.59609e-19
0.0423011
1.10666e-17
0.0423011
1.27206e-17
0.0423011
1.86568e-17
0.0423011
-3.6276e-19
0.0423011
-9.88266e-18
0.0423011
-2.09334e-17
0.0423011
-6.8419e-18
0.0423011
-1.23762e-18
0.0423011
3.31373e-18
0.0423011
6.53197e-18
0.0423011
4.88496e-18
0.0423011
1.80457e-17
0.0423011
2.2279e-17
0.0423011
1.56154e-17
0.0423011
-5.78206e-18
0.0423011
2.01913e-17
0.0423011
4.2596e-17
0.0423011
7.61684e-18
0.0423011
2.90881e-17
0.0423011
6.00437e-18
0.0423011
-1.70735e-17
0.0423011
-9.79932e-18
0.0423011
-5.43606e-18
0.0423011
6.89696e-19
0.0423011
-1.9863e-18
0.0423011
9.86677e-18
0.0423011
2.17675e-19
0.0423011
-2.77703e-17
0.0423011
1.63959e-17
3.99087e-17
0.0423011
0.0423011
1.70641e-17
0.0423011
9.91662e-18
0.0423011
-6.4122e-19
0.0423011
-8.73185e-19
0.0423011
-1.35035e-18
0.0423011
-3.51621e-18
0.0423011
6.82681e-19
0.0423011
1.78772e-17
0.0423011
1.32238e-17
0.0423011
3.28335e-17
0.0423011
4.61798e-18
0.0423011
1.11467e-17
0.0423011
1.02817e-17
0.0423011
3.14784e-18
0.0423011
1.42545e-17
0.0423011
-8.67834e-18
0.0423011
-3.59683e-18
0.0423011
2.34925e-18
0.0423011
-2.40052e-19
0.0423011
2.85906e-18
0.0423011
9.25151e-18
0.0423011
8.22763e-18
0.0423011
2.00429e-17
0.0423011
1.35162e-17
0.0423011
1.47451e-17
0.0423011
3.2436e-17
0.0423011
2.00183e-17
0.0423011
2.50979e-17
0.0423011
1.28167e-17
0.0423011
-2.07017e-19
0.0423011
-1.87352e-17
0.0423011
6.98364e-18
0.0423011
6.87681e-18
0.0423011
4.79562e-19
0.0423011
2.84857e-17
0.0423011
2.53226e-17
0.0423011
2.36873e-18
1.13158e-17
0.0423011
0.0423011
-9.10411e-18
0.0423011
-9.09427e-18
0.0423011
4.47753e-18
0.0423011
2.11988e-17
0.0423011
1.96392e-17
0.0423011
2.37753e-17
0.0423011
1.24145e-17
0.0423011
3.26355e-18
0.0423011
1.31751e-17
0.0423011
-3.44352e-18
0.0423011
1.55328e-17
0.0423011
1.11187e-17
0.0423011
2.79914e-18
0.0423011
9.03972e-19
0.0423011
-3.08689e-17
0.0423011
-1.93191e-17
0.0423011
-9.0862e-18
0.0423011
1.81126e-17
0.0423011
1.86076e-17
0.0423011
6.43189e-19
0.0423011
7.79967e-18
0.0423011
2.21236e-17
0.0423011
1.77189e-17
0.0423011
-4.27167e-18
0.0423011
1.79868e-17
0.0423011
-4.06644e-18
0.0423011
1.20459e-17
0.0423011
-5.32442e-19
0.0423011
-1.8953e-18
0.0423011
6.70428e-18
0.0423011
2.10573e-17
0.0423011
1.96923e-17
0.0423011
1.62957e-17
0.0423011
2.28294e-17
0.0423011
2.06442e-17
0.0423011
1.2095e-17
0.0423011
3.12857e-17
1.32729e-17
0.0423011
0.0423011
1.56604e-18
0.0423011
-2.92491e-18
0.0423011
-1.10665e-17
0.0423011
2.0001e-18
0.0423011
2.2926e-17
0.0423011
1.49232e-17
0.0423011
2.25594e-17
0.0423011
2.70266e-17
0.0423011
2.3363e-17
0.0423011
1.57155e-17
0.0423011
2.81436e-17
0.0423011
5.89394e-18
0.0423011
7.6374e-18
0.0423011
2.12116e-18
0.0423011
6.44083e-18
0.0423011
-2.71812e-18
0.0423011
5.02218e-18
0.0423011
2.11098e-18
0.0423011
8.54502e-18
0.0423011
1.44812e-17
0.0423011
1.96839e-17
0.0423011
1.06728e-17
0.0423011
5.98139e-18
0.0423011
3.64404e-18
0.0423011
1.61415e-17
0.0423011
4.45692e-18
0.0423011
-7.38564e-18
0.0423011
-1.27175e-18
0.0423011
6.42388e-18
0.0423011
-1.21103e-19
0.0423011
7.76043e-18
0.0423011
1.3515e-17
0.0423011
9.06345e-18
0.0423011
1.00022e-17
0.0423011
-1.43045e-18
0.0423011
1.78677e-17
0.0423011
1.23523e-17
4.74857e-18
0.0423011
0.0423011
3.10754e-18
0.0423011
1.74793e-17
0.0423011
-2.43953e-18
0.0423011
-1.72024e-18
0.0423011
-1.49419e-17
0.0423011
-4.77263e-18
0.0423011
3.11493e-19
0.0423011
-1.33391e-17
0.0423011
-2.73475e-18
0.0423011
-4.12744e-18
0.0423011
-4.81594e-18
0.0423011
1.93027e-17
0.0423011
1.5937e-17
0.0423011
1.31521e-17
0.0423011
1.49625e-17
0.0423011
1.16523e-17
0.0423011
2.33661e-18
0.0423011
-3.96453e-18
0.0423011
6.81235e-19
0.0423011
1.77097e-17
0.0423011
1.55133e-17
0.0423011
9.68207e-18
0.0423011
1.03326e-17
0.0423011
3.74149e-17
0.0423011
1.75313e-17
0.0423011
9.51242e-18
0.0423011
1.14821e-17
0.0423011
1.19903e-17
0.0423011
4.00783e-18
0.0423011
1.56706e-18
0.0423011
-1.33612e-17
0.0423011
-1.16966e-17
0.0423011
3.36844e-18
0.0423011
1.02416e-17
0.0423011
8.18351e-18
0.0423011
2.05971e-17
0.0423011
1.42924e-17
2.03101e-17
0.0423011
0.0423011
-8.15225e-18
0.0423011
-1.09218e-17
0.0423011
4.22635e-18
0.0423011
-1.64349e-17
0.0423011
2.31925e-18
0.0423011
3.18431e-18
0.0423011
-1.10798e-17
0.0423011
8.48451e-18
0.0423011
-8.72136e-18
0.0423011
-3.30436e-17
0.0423011
-1.58388e-17
0.0423011