/*--------------------------------*- C++ -*----------------------------------*\
| =========                 |                                                 |
| \\      /  F ield         | OpenFOAM: The Open Source CFD Toolbox           |
|  \\    /   O peration     | Version:  v1812                                 |
|   \\  /    A nd           | Web:      www.OpenFOAM.com                      |
|    \\/     M anipulation  |                                                 |
\*---------------------------------------------------------------------------*/
FoamFile
{
    version     2.0;
    format      ascii;
    class       volVectorField;
    location    "0.003";
    object      U;
}
// * * * * * * * * * * * * * * * * * * * * * * * * * * * * * * * * * * * * * //

dimensions      [0 1 -1 0 0 0 0];


internalField   nonuniform List<vector> 
8475
(
(851.84 1.41251e-13 0)
(851.84 -7.48043e-14 0)
(851.84 -2.78543e-14 0)
(851.84 1.19276e-14 0)
(851.84 -1.86824e-13 0)
(851.84 -3.90557e-14 0)
(851.84 -5.08403e-13 0)
(851.84 -4.7555e-13 0)
(851.84 -4.92504e-13 0)
(851.84 -4.70715e-13 0)
(851.84 -4.63111e-13 0)
(851.84 -4.41063e-13 0)
(851.84 -3.80974e-13 0)
(851.84 -2.58975e-13 0)
(851.84 -3.4701e-13 0)
(851.84 -2.30518e-13 0)
(851.84 1.65842e-13 0)
(851.84 8.97513e-14 0)
(851.84 7.9033e-13 0)
(851.84 1.53502e-12 0)
(851.84 2.04362e-12 0)
(851.84 2.39136e-12 0)
(851.84 2.82699e-12 0)
(851.84 2.85763e-12 0)
(851.84 2.78256e-12 0)
(851.84 2.72833e-12 0)
(851.84 2.81274e-12 0)
(851.84 2.80251e-12 0)
(851.84 2.89495e-12 0)
(851.84 2.56065e-12 0)
(851.84 2.94489e-12 0)
(851.84 1.98089e-12 0)
(851.84 1.9193e-10 0)
(851.84 -6.79851e-09 0)
(851.84 8.52112e-07 0)
(851.84 -3.20693e-05 0)
(851.832 0.00423085 0)
(851.35 -0.177993 0)
(851.84 1.02345e-13 0)
(851.84 1.03661e-13 0)
(851.84 4.78195e-14 0)
(851.84 -1.0173e-14 0)
(851.84 -1.31433e-13 0)
(851.84 -1.97729e-13 0)
(851.84 -3.32596e-13 0)
(851.84 -3.2397e-13 0)
(851.84 -7.1406e-13 0)
(851.84 -7.7574e-13 0)
(851.84 -8.10084e-13 0)
(851.84 -6.01711e-13 0)
(851.84 -3.80011e-13 0)
(851.84 -3.59843e-13 0)
(851.84 -3.29949e-13 0)
(851.84 -2.31596e-14 0)
(851.84 9.92583e-14 0)
(851.84 4.13685e-13 0)
(851.84 4.71503e-13 0)
(851.84 7.41069e-13 0)
(851.84 9.99109e-13 0)
(851.84 1.09582e-12 0)
(851.84 1.23158e-12 0)
(851.84 1.31755e-12 0)
(851.84 1.35647e-12 0)
(851.84 1.49371e-12 0)
(851.84 1.46625e-12 0)
(851.84 1.48941e-12 0)
(851.84 1.3464e-12 0)
(851.84 1.53731e-12 0)
(851.84 1.66601e-12 0)
(851.84 4.33648e-12 0)
(851.84 1.49273e-10 0)
(851.84 1.15107e-08 0)
(851.84 5.03663e-07 0)
(851.84 4.70597e-05 0)
(851.837 0.00155444 0)
(851.72 0.181027 0)
(851.84 -1.21569e-13 0)
(851.84 -8.4462e-14 0)
(851.84 -3.49659e-14 0)
(851.84 -2.65414e-13 0)
(851.84 -2.59248e-13 0)
(851.84 -3.09994e-13 0)
(851.84 -1.87671e-13 0)
(851.84 -1.68529e-13 0)
(851.84 -3.11869e-13 0)
(851.84 -5.62106e-13 0)
(851.84 -5.82696e-13 0)
(851.84 -5.28248e-13 0)
(851.84 -4.0601e-13 0)
(851.84 -6.15937e-13 0)
(851.84 -6.02074e-13 0)
(851.84 -5.78165e-13 0)
(851.84 -5.45394e-13 0)
(851.84 -2.6547e-13 0)
(851.84 1.62305e-13 0)
(851.84 3.05684e-13 0)
(851.84 5.83611e-13 0)
(851.84 8.35841e-13 0)
(851.84 6.90557e-13 0)
(851.84 9.94225e-13 0)
(851.84 1.3276e-12 0)
(851.84 1.45652e-12 0)
(851.84 1.56611e-12 0)
(851.84 1.37532e-12 0)
(851.84 1.51201e-12 0)
(851.84 1.41336e-12 0)
(851.84 1.24777e-12 0)
(851.84 2.71245e-12 0)
(851.84 3.71275e-11 0)
(851.84 5.79209e-09 0)
(851.84 7.28151e-08 0)
(851.84 1.58569e-05 0)
(851.84 0.000115239 0)
(851.823 0.0348954 0)
(851.84 1.02956e-13 0)
(851.84 -9.74823e-14 0)
(851.84 -2.12125e-13 0)
(851.84 -3.93007e-13 0)
(851.84 -2.79708e-13 0)
(851.84 -4.05145e-13 0)
(851.84 -4.33198e-13 0)
(851.84 -3.97307e-13 0)
(851.84 -4.27808e-13 0)
(851.84 -5.08198e-13 0)
(851.84 -7.14083e-13 0)
(851.84 -5.66252e-13 0)
(851.84 -8.67855e-13 0)
(851.84 -7.59115e-13 0)
(851.84 -7.12526e-13 0)
(851.84 -6.11858e-13 0)
(851.84 -5.00249e-13 0)
(851.84 -4.03065e-13 0)
(851.84 -3.22764e-13 0)
(851.84 -2.13363e-13 0)
(851.84 2.03961e-13 0)
(851.84 2.6461e-13 0)
(851.84 3.7609e-13 0)
(851.84 4.34477e-13 0)
(851.84 3.3503e-13 0)
(851.84 3.83865e-13 0)
(851.84 4.13561e-13 0)
(851.84 6.60388e-13 0)
(851.84 9.72233e-13 0)
(851.84 1.3085e-12 0)
(851.84 1.2658e-12 0)
(851.84 1.67844e-12 0)
(851.84 -1.08919e-12 0)
(851.84 1.13104e-09 0)
(851.84 5.7164e-10 0)
(851.84 2.03742e-06 0)
(851.84 1.58138e-06 0)
(851.839 0.00313144 0)
(851.84 4.13544e-15 0)
(851.84 -2.29029e-13 0)
(851.84 -8.93223e-14 0)
(851.84 4.30713e-14 0)
(851.84 3.56602e-14 0)
(851.84 1.74325e-14 0)
(851.84 -3.16591e-13 0)
(851.84 -7.30284e-13 0)
(851.84 -5.26154e-13 0)
(851.84 -5.2529e-13 0)
(851.84 -4.52364e-13 0)
(851.84 -6.00242e-13 0)
(851.84 -6.51991e-13 0)
(851.84 -5.90891e-13 0)
(851.84 -5.39278e-13 0)
(851.84 -5.56623e-13 0)
(851.84 -5.95407e-13 0)
(851.84 -4.32884e-13 0)
(851.84 -3.81288e-13 0)
(851.84 -3.15843e-13 0)
(851.84 -1.5559e-13 0)
(851.84 -5.2253e-14 0)
(851.84 -1.6086e-14 0)
(851.84 1.6052e-13 0)
(851.84 2.61747e-13 0)
(851.84 3.69953e-13 0)
(851.84 2.70748e-13 0)
(851.84 3.76376e-13 0)
(851.84 4.04133e-13 0)
(851.84 6.58256e-13 0)
(851.84 7.68513e-13 0)
(851.84 9.49088e-13 0)
(851.84 1.11426e-12 0)
(851.84 9.98928e-11 0)
(851.84 -1.80355e-10 0)
(851.84 1.31725e-07 0)
(851.84 -1.01505e-07 0)
(851.84 0.000180563 0)
(851.84 -9.84557e-14 0)
(851.84 -3.73509e-14 0)
(851.84 4.46223e-14 0)
(851.84 -9.10308e-14 0)
(851.84 -2.90055e-13 0)
(851.84 -3.53158e-13 0)
(851.84 -3.80946e-13 0)
(851.84 -2.49913e-13 0)
(851.84 -1.8493e-13 0)
(851.84 -7.97585e-14 0)
(851.84 -2.3413e-14 0)
(851.84 -2.39311e-13 0)
(851.84 -6.53382e-13 0)
(851.84 -8.07134e-13 0)
(851.84 -5.27693e-13 0)
(851.84 -6.26968e-13 0)
(851.84 -5.08333e-13 0)
(851.84 -4.08986e-13 0)
(851.84 -3.59469e-13 0)
(851.84 -9.64274e-14 0)
(851.84 -3.20121e-15 0)
(851.84 -1.09584e-13 0)
(851.84 3.28719e-13 0)
(851.84 -5.01561e-14 0)
(851.84 -7.49316e-14 0)
(851.84 -8.05156e-14 0)
(851.84 2.03174e-13 0)
(851.84 3.77649e-13 0)
(851.84 4.65679e-13 0)
(851.84 6.00971e-13 0)
(851.84 6.87473e-13 0)
(851.84 7.00931e-13 0)
(851.84 8.06638e-13 0)
(851.84 3.80023e-12 0)
(851.84 -1.15067e-11 0)
(851.84 5.29177e-09 0)
(851.84 -3.8867e-09 0)
(851.84 7.35446e-06 0)
(851.84 1.60818e-14 0)
(851.84 -5.18189e-14 0)
(851.84 -1.7829e-13 0)
(851.84 -4.06085e-14 0)
(851.84 -9.65678e-14 0)
(851.84 -2.70641e-13 0)
(851.84 -1.58829e-13 0)
(851.84 -4.03746e-14 0)
(851.84 -3.21702e-14 0)
(851.84 8.23824e-14 0)
(851.84 2.32861e-14 0)
(851.84 3.6174e-14 0)
(851.84 -2.72492e-13 0)
(851.84 -4.76421e-13 0)
(851.84 -6.51005e-13 0)
(851.84 -9.23607e-13 0)
(851.84 -6.75952e-13 0)
(851.84 -7.60308e-13 0)
(851.84 -4.64764e-13 0)
(851.84 -4.95525e-13 0)
(851.84 -5.70299e-13 0)
(851.84 -2.3459e-13 0)
(851.84 -2.67842e-13 0)
(851.84 -1.17717e-13 0)
(851.84 1.29835e-13 0)
(851.84 1.89983e-14 0)
(851.84 1.92333e-13 0)
(851.84 4.83429e-13 0)
(851.84 3.26706e-13 0)
(851.84 1.08876e-13 0)
(851.84 1.86935e-13 0)
(851.84 -9.60787e-14 0)
(851.84 -2.6665e-13 0)
(851.84 -1.09347e-13 0)
(851.84 -8.07212e-13 0)
(851.84 1.52502e-10 0)
(851.84 -4.00067e-11 0)
(851.84 2.27506e-07 0)
(851.84 -2.43747e-14 0)
(851.84 8.96461e-14 0)
(851.84 1.74596e-13 0)
(851.84 4.44136e-15 0)
(851.84 8.86113e-15 0)
(851.84 -1.01577e-13 0)
(851.84 -1.36109e-13 0)
(851.84 -5.05167e-14 0)
(851.84 4.75928e-14 0)
(851.84 -3.26057e-15 0)
(851.84 -7.09223e-14 0)
(851.84 1.61409e-13 0)
(851.84 3.7294e-13 0)
(851.84 2.29721e-13 0)
(851.84 1.07939e-13 0)
(851.84 -2.05527e-13 0)
(851.84 2.52133e-14 0)
(851.84 -2.12556e-13 0)
(851.84 -2.96335e-13 0)
(851.84 -4.07449e-13 0)
(851.84 -5.38838e-13 0)
(851.84 -4.78953e-13 0)
(851.84 -2.49794e-13 0)
(851.84 -1.08945e-13 0)
(851.84 1.07021e-13 0)
(851.84 5.93329e-14 0)
(851.84 -3.45264e-14 0)
(851.84 -1.84744e-13 0)
(851.84 -2.65937e-14 0)
(851.84 -1.98995e-13 0)
(851.84 -3.55027e-13 0)
(851.84 -4.04588e-13 0)
(851.84 -4.54831e-13 0)
(851.84 -6.52566e-13 0)
(851.84 -8.39004e-13 0)
(851.84 1.24338e-12 0)
(851.84 -3.21073e-12 0)
(851.84 5.77232e-09 0)
(851.84 -3.20465e-14 0)
(851.84 -6.81927e-14 0)
(851.84 1.00557e-13 0)
(851.84 1.97848e-13 0)
(851.84 2.5448e-13 0)
(851.84 3.75591e-13 0)
(851.84 5.9373e-13 0)
(851.84 5.38442e-13 0)
(851.84 3.69902e-13 0)
(851.84 3.62367e-13 0)
(851.84 2.00582e-13 0)
(851.84 -1.80371e-14 0)
(851.84 6.06408e-15 0)
(851.84 9.7223e-14 0)
(851.84 1.42242e-13 0)
(851.84 2.86689e-13 0)
(851.84 4.43165e-15 0)
(851.84 -1.04783e-13 0)
(851.84 -1.92336e-13 0)
(851.84 -2.33312e-13 0)
(851.84 -4.12777e-13 0)
(851.84 2.71192e-14 0)
(851.84 -1.25505e-14 0)
(851.84 -2.16939e-14 0)
(851.84 -1.39323e-13 0)
(851.84 -1.99517e-13 0)
(851.84 -3.38844e-13 0)
(851.84 -6.98004e-13 0)
(851.84 -7.27008e-13 0)
(851.84 -7.08728e-13 0)
(851.84 -6.52106e-13 0)
(851.84 -3.92391e-13 0)
(851.84 -3.71503e-13 0)
(851.84 -1.66805e-13 0)
(851.84 -5.7777e-13 0)
(851.84 -2.16817e-13 0)
(851.84 -2.11239e-13 0)
(851.84 1.31232e-10 0)
(851.84 1.08664e-15 0)
(851.84 -4.07415e-14 0)
(851.84 5.61788e-14 0)
(851.84 -6.90367e-14 0)
(851.84 3.22065e-14 0)
(851.84 2.80193e-13 0)
(851.84 3.57916e-13 0)
(851.84 3.92188e-13 0)
(851.84 3.57989e-13 0)
(851.84 1.0606e-13 0)
(851.84 2.59502e-13 0)
(851.84 -2.16948e-15 0)
(851.84 -6.89776e-14 0)
(851.84 -5.56325e-16 0)
(851.84 2.11832e-13 0)
(851.84 4.82311e-13 0)
(851.84 1.23078e-13 0)
(851.84 -1.30258e-13 0)
(851.84 -3.5561e-13 0)
(851.84 -6.26667e-13 0)
(851.84 -5.33009e-13 0)
(851.84 -5.88773e-13 0)
(851.84 -1.38442e-13 0)
(851.84 3.9278e-14 0)
(851.84 -5.03028e-14 0)
(851.84 -1.08201e-13 0)
(851.84 -1.30889e-13 0)
(851.84 -3.00478e-13 0)
(851.84 -5.34037e-13 0)
(851.84 -6.49101e-13 0)
(851.84 -4.02299e-13 0)
(851.84 -3.73358e-13 0)
(851.84 -2.86804e-13 0)
(851.84 -1.99496e-13 0)
(851.84 -2.96987e-14 0)
(851.84 -2.38471e-13 0)
(851.84 -4.29719e-13 0)
(851.84 3.56919e-13 0)
(851.84 3.28103e-14 0)
(851.84 -4.50198e-14 0)
(851.84 -1.36273e-13 0)
(851.84 -1.37057e-13 0)
(851.84 -8.77169e-14 0)
(851.84 3.21453e-13 0)
(851.84 2.20495e-13 0)
(851.84 5.21654e-14 0)
(851.84 3.28941e-14 0)
(851.84 1.8558e-14 0)
(851.84 3.36158e-15 0)
(851.84 6.60716e-14 0)
(851.84 1.35173e-13 0)
(851.84 1.94921e-13 0)
(851.84 2.54915e-14 0)
(851.84 2.29289e-13 0)
(851.84 1.20519e-13 0)
(851.84 4.38475e-15 0)
(851.84 -2.21273e-13 0)
(851.84 -4.56616e-13 0)
(851.84 -4.83057e-13 0)
(851.84 -5.30689e-13 0)
(851.84 -4.69319e-13 0)
(851.84 -4.10455e-13 0)
(851.84 -2.21783e-13 0)
(851.84 -6.76573e-16 0)
(851.84 -4.90698e-14 0)
(851.84 -2.25983e-13 0)
(851.84 -3.5049e-13 0)
(851.84 -3.86461e-13 0)
(851.84 -4.41367e-13 0)
(851.84 -3.88973e-13 0)
(851.84 -5.32304e-13 0)
(851.84 -6.36258e-13 0)
(851.84 -5.69439e-13 0)
(851.84 -4.45611e-13 0)
(851.84 -5.45806e-13 0)
(851.84 -3.42163e-13 0)
(851.84 1.28081e-13 0)
(851.84 1.13598e-13 0)
(851.84 -1.63884e-13 0)
(851.84 2.86604e-13 0)
(851.84 5.47291e-13 0)
(851.84 6.12339e-13 0)
(851.84 3.34178e-13 0)
(851.84 2.26417e-13 0)
(851.84 1.35138e-13 0)
(851.84 2.97882e-13 0)
(851.84 1.00668e-13 0)
(851.84 2.82742e-13 0)
(851.84 3.65453e-13 0)
(851.84 2.71696e-13 0)
(851.84 2.25892e-13 0)
(851.84 -8.95516e-14 0)
(851.84 -8.69526e-14 0)
(851.84 -1.17788e-13 0)
(851.84 2.87593e-14 0)
(851.84 6.65254e-14 0)
(851.84 4.17991e-14 0)
(851.84 -8.65085e-14 0)
(851.84 -3.37067e-13 0)
(851.84 -4.17184e-13 0)
(851.84 -5.69725e-13 0)
(851.84 -4.66787e-13 0)
(851.84 -3.83132e-13 0)
(851.84 -3.72923e-13 0)
(851.84 -2.36602e-13 0)
(851.84 -4.04126e-13 0)
(851.84 -6.2131e-13 0)
(851.84 -5.61209e-13 0)
(851.84 -6.11916e-13 0)
(851.84 -5.41447e-13 0)
(851.84 -4.5391e-13 0)
(851.84 -6.3802e-13 0)
(851.84 -7.37244e-13 0)
(851.84 -6.47248e-13 0)
(851.84 1.10924e-13 0)
(851.84 1.43715e-13 0)
(851.84 3.30137e-13 0)
(851.84 1.20207e-13 0)
(851.84 -9.7376e-15 0)
(851.84 6.22845e-14 0)
(851.84 2.67639e-13 0)
(851.84 -9.58379e-15 0)
(851.84 2.35316e-13 0)
(851.84 1.05129e-13 0)
(851.84 -1.87556e-14 0)
(851.84 -9.14944e-14 0)
(851.84 -1.88847e-13 0)
(851.84 -1.07091e-13 0)
(851.84 -1.15887e-13 0)
(851.84 2.61056e-13 0)
(851.84 1.84428e-13 0)
(851.84 1.07381e-13 0)
(851.84 -7.7897e-17 0)
(851.84 1.9441e-13 0)
(851.84 -4.29249e-14 0)
(851.84 -2.9522e-14 0)
(851.84 -1.17361e-13 0)
(851.84 -3.14637e-13 0)
(851.84 -3.92287e-13 0)
(851.84 -7.19887e-13 0)
(851.84 -7.74967e-13 0)
(851.84 -5.12938e-13 0)
(851.84 -4.60564e-13 0)
(851.84 -5.51761e-13 0)
(851.84 -5.57771e-13 0)
(851.84 -5.91565e-13 0)
(851.84 -6.13409e-13 0)
(851.84 -6.86378e-13 0)
(851.84 -7.90956e-13 0)
(851.84 -5.47585e-13 0)
(851.84 -6.44082e-13 0)
(851.84 -5.21341e-13 0)
(851.84 8.15539e-15 0)
(851.84 1.16121e-13 0)
(851.84 1.92426e-14 0)
(851.84 -1.77724e-13 0)
(851.84 -2.52006e-13 0)
(851.84 -2.76453e-13 0)
(851.84 -1.24317e-13 0)
(851.84 5.44593e-15 0)
(851.84 9.58396e-14 0)
(851.84 2.40246e-14 0)
(851.84 -9.79837e-14 0)
(851.84 -1.3015e-13 0)
(851.84 -9.15946e-14 0)
(851.84 -3.23829e-13 0)
(851.84 -3.06478e-13 0)
(851.84 -1.60341e-13 0)
(851.84 2.01048e-13 0)
(851.84 1.1584e-13 0)
(851.84 1.17841e-13 0)
(851.84 2.08878e-13 0)
(851.84 6.59245e-14 0)
(851.84 -1.17969e-14 0)
(851.84 -2.53845e-14 0)
(851.84 -1.95701e-13 0)
(851.84 -4.87646e-13 0)
(851.84 -6.78766e-13 0)
(851.84 -6.42671e-13 0)
(851.84 -6.74689e-13 0)
(851.84 -9.05734e-13 0)
(851.84 -7.14432e-13 0)
(851.84 -6.76964e-13 0)
(851.84 -5.07076e-13 0)
(851.84 -3.57433e-13 0)
(851.84 -6.04632e-13 0)
(851.84 -7.35535e-13 0)
(851.84 -5.04986e-13 0)
(851.84 -4.474e-13 0)
(851.84 -4.29398e-13 0)
(851.84 -2.37316e-13 0)
(851.84 -8.28055e-14 0)
(851.84 -3.19469e-13 0)
(851.84 -3.03423e-13 0)
(851.84 -4.08514e-13 0)
(851.84 -2.04581e-13 0)
(851.84 -1.21386e-13 0)
(851.84 3.97198e-14 0)
(851.84 -1.9492e-13 0)
(851.84 -1.49251e-13 0)
(851.84 2.22388e-14 0)
(851.84 2.05102e-13 0)
(851.84 3.03566e-13 0)
(851.84 3.16841e-13 0)
(851.84 -3.89551e-13 0)
(851.84 -2.39051e-13 0)
(851.84 -2.59579e-13 0)
(851.84 -1.07137e-13 0)
(851.84 -1.5338e-13 0)
(851.84 -2.01073e-13 0)
(851.84 -1.36103e-13 0)
(851.84 -1.013e-13 0)
(851.84 -1.00818e-13 0)
(851.84 -2.66501e-13 0)
(851.84 -3.05229e-13 0)
(851.84 -2.34659e-13 0)
(851.84 -2.85949e-13 0)
(851.84 -3.60569e-13 0)
(851.84 -6.27032e-13 0)
(851.84 -4.91172e-13 0)
(851.84 -4.86706e-13 0)
(851.84 -7.92892e-13 0)
(851.84 -5.16669e-13 0)
(851.84 -3.44767e-13 0)
(851.84 -4.62855e-13 0)
(851.84 -3.73331e-13 0)
(851.84 -4.37204e-13 0)
(851.84 -3.00589e-13 0)
(851.84 1.86563e-14 0)
(851.84 -1.5959e-13 0)
(851.84 -2.18471e-13 0)
(851.84 9.08623e-15 0)
(851.84 -2.08761e-13 0)
(851.84 -4.57134e-13 0)
(851.84 -5.46892e-13 0)
(851.84 -6.42685e-13 0)
(851.84 -5.16137e-13 0)
(851.84 -4.19555e-13 0)
(851.84 -1.21922e-13 0)
(851.84 -1.01867e-13 0)
(851.84 5.51299e-15 0)
(851.84 -7.03857e-14 0)
(851.84 -6.70556e-14 0)
(851.84 -3.22901e-13 0)
(851.84 -3.48952e-13 0)
(851.84 -3.19301e-13 0)
(851.84 -2.25628e-13 0)
(851.84 -7.88696e-14 0)
(851.84 -7.02674e-14 0)
(851.84 -4.90132e-14 0)
(851.84 -2.19268e-13 0)
(851.84 1.79458e-14 0)
(851.84 5.1379e-14 0)
(851.84 -1.17048e-13 0)
(851.84 -8.26567e-14 0)
(851.84 -3.16789e-13 0)
(851.84 -1.7717e-13 0)
(851.84 -2.36309e-13 0)
(851.84 -2.18787e-13 0)
(851.84 -4.85067e-13 0)
(851.84 -6.18928e-13 0)
(851.84 -5.66301e-13 0)
(851.84 -2.68134e-13 0)
(851.84 -1.9099e-13 0)
(851.84 1.95303e-13 0)
(851.84 3.47722e-13 0)
(851.84 3.56583e-14 0)
(851.84 -1.3735e-13 0)
(851.84 -1.06586e-13 0)
(851.84 -6.79251e-14 0)
(851.84 1.82536e-14 0)
(851.84 -6.11564e-13 0)
(851.84 -7.44364e-13 0)
(851.84 -6.98834e-13 0)
(851.84 -5.56976e-13 0)
(851.84 -3.39531e-13 0)
(851.84 -2.00507e-13 0)
(851.84 -1.47384e-13 0)
(851.84 9.34345e-14 0)
(851.84 4.91741e-13 0)
(851.84 3.72532e-13 0)
(851.84 5.69718e-14 0)
(851.84 -8.47342e-14 0)
(851.84 -3.92348e-14 0)
(851.84 2.28901e-13 0)
(851.84 1.03486e-13 0)
(851.84 3.30945e-13 0)
(851.84 1.1402e-13 0)
(851.84 1.01748e-13 0)
(851.84 1.62808e-13 0)
(851.84 3.71511e-13 0)
(851.84 2.45311e-13 0)
(851.84 9.75801e-14 0)
(851.84 5.78271e-14 0)
(851.84 -8.22787e-14 0)
(851.84 -3.61545e-14 0)
(851.84 -3.90968e-13 0)
(851.84 -2.92317e-13 0)
(851.84 -3.50404e-13 0)
(851.84 -1.35643e-13 0)
(851.84 1.78665e-13 0)
(851.84 4.2249e-13 0)
(851.84 1.85957e-13 0)
(851.84 2.73847e-13 0)
(851.84 -3.77602e-15 0)
(851.84 -3.89269e-14 0)
(851.84 1.30451e-13 0)
(851.84 -9.53167e-14 0)
(851.84 -2.5841e-13 0)
(851.84 -8.16355e-14 0)
(851.84 -1.08611e-13 0)
(851.84 -1.68401e-13 0)
(851.84 -8.26111e-14 0)
(851.84 -1.48217e-13 0)
(851.84 -9.74816e-14 0)
(851.84 9.08115e-14 0)
(851.84 2.15182e-13 0)
(851.84 -8.85793e-14 0)
(851.84 -2.40698e-13 0)
(851.84 3.06407e-14 0)
(851.84 -8.28798e-14 0)
(851.84 4.48821e-14 0)
(851.84 1.22436e-13 0)
(851.84 6.01984e-14 0)
(851.84 -2.69899e-13 0)
(851.84 -2.06315e-14 0)
(851.84 1.54609e-13 0)
(851.84 3.75788e-13 0)
(851.84 6.44257e-13 0)
(851.84 6.67194e-13 0)
(851.84 3.49686e-13 0)
(851.84 2.07887e-13 0)
(851.84 6.26705e-14 0)
(851.84 -8.90084e-14 0)
(851.84 -9.29288e-14 0)
(851.84 -2.1596e-13 0)
(851.84 -4.14161e-14 0)
(851.84 1.9647e-13 0)
(851.84 1.00074e-13 0)
(851.84 3.09432e-14 0)
(851.84 -5.46417e-14 0)
(851.84 -1.15743e-13 0)
(851.84 4.07391e-14 0)
(851.84 1.49822e-13 0)
(851.84 1.65325e-13 0)
(851.84 -5.3072e-14 0)
(851.84 -2.14735e-13 0)
(851.84 -1.26865e-13 0)
(851.84 5.10228e-14 0)
(851.84 5.89049e-14 0)
(851.84 -3.51399e-15 0)
(851.84 -6.61621e-14 0)
(851.84 1.29841e-13 0)
(851.84 1.86397e-13 0)
(851.84 3.44525e-14 0)
(851.84 -1.92535e-13 0)
(851.84 -1.58021e-13 0)
(851.84 -1.78324e-13 0)
(851.84 -9.3345e-15 0)
(851.84 1.7876e-13 0)
(851.84 6.68649e-13 0)
(851.84 4.95638e-13 0)
(851.84 8.15025e-13 0)
(851.84 5.15884e-13 0)
(851.84 2.02417e-13 0)
(851.84 -1.48406e-13 0)
(851.84 -2.23771e-13 0)
(851.84 -3.64558e-13 0)
(851.84 -4.67423e-14 0)
(851.84 -9.4821e-14 0)
(851.84 1.85632e-13 0)
(851.84 1.38994e-13 0)
(851.84 8.16255e-14 0)
(851.84 2.49139e-13 0)
(851.84 3.56376e-13 0)
(851.84 4.04892e-13 0)
(851.84 3.45729e-13 0)
(851.84 2.8252e-13 0)
(851.84 4.57228e-13 0)
(851.84 -2.61139e-14 0)
(851.84 8.65972e-14 0)
(851.84 -4.8765e-14 0)
(851.84 -2.70918e-13 0)
(851.84 -1.63112e-13 0)
(851.84 1.40467e-13 0)
(851.84 2.00875e-13 0)
(851.84 1.81934e-13 0)
(851.84 2.69837e-13 0)
(851.84 1.77902e-13 0)
(851.84 -2.24127e-14 0)
(851.84 -1.36808e-13 0)
(851.84 -5.53732e-14 0)
(851.84 -2.04335e-13 0)
(851.84 -1.54973e-13 0)
(851.84 -5.81804e-14 0)
(851.84 3.95087e-14 0)
(851.84 -4.75355e-14 0)
(851.84 -7.92313e-14 0)
(851.84 -3.89056e-13 0)
(851.84 4.45984e-13 0)
(851.84 3.39956e-13 0)
(851.84 -3.07929e-14 0)
(851.84 9.83735e-14 0)
(851.84 -7.73687e-13 0)
(851.84 -8.47655e-13 0)
(851.84 -6.57807e-13 0)
(851.84 -4.63126e-13 0)
(851.84 -1.13157e-13 0)
(851.84 1.98036e-13 0)
(851.84 1.27975e-13 0)
(851.84 1.36233e-13 0)
(851.84 8.51744e-14 0)
(851.84 -1.99713e-13 0)
(851.84 -6.87293e-14 0)
(851.84 -1.4602e-13 0)
(851.84 2.17829e-13 0)
(851.84 2.48676e-13 0)
(851.84 7.05564e-13 0)
(851.84 -7.2276e-15 0)
(851.84 1.00651e-13 0)
(851.84 -2.66733e-13 0)
(851.84 -3.61878e-13 0)
(851.84 -2.30955e-13 0)
(851.84 -1.30695e-13 0)
(851.84 1.85083e-13 0)
(851.84 1.436e-14 0)
(851.84 1.07799e-13 0)
(851.84 -4.3924e-14 0)
(851.84 -8.75098e-14 0)
(851.84 -7.65844e-13 0)
(851.84 1.21861e-13 0)
(851.84 9.07954e-14 0)
(851.84 -9.38324e-14 0)
(851.84 8.29132e-14 0)
(851.84 2.08922e-13 0)
(851.84 3.13852e-13 0)
(851.84 8.4689e-14 0)
(851.84 4.32948e-14 0)
(851.84 2.38477e-13 0)
(851.84 1.999e-13 0)
(851.84 3.50529e-13 0)
(851.84 3.37633e-13 0)
(851.84 1.13084e-13 0)
(851.84 9.19902e-14 0)
(851.84 -6.25305e-14 0)
(851.84 -8.10585e-14 0)
(851.84 -5.29297e-14 0)
(851.84 2.97509e-14 0)
(851.84 1.96517e-13 0)
(851.84 2.53193e-13 0)
(851.84 2.96623e-13 0)
(851.84 1.94888e-13 0)
(851.84 3.35847e-13 0)
(851.84 4.77239e-14 0)
(851.84 1.22557e-13 0)
(851.84 1.28387e-13 0)
(851.84 1.65749e-14 0)
(851.84 2.37928e-14 0)
(851.84 2.40516e-13 0)
(851.84 4.16761e-13 0)
(851.84 -6.06658e-14 0)
(851.84 -2.98472e-13 0)
(851.84 -1.27541e-13 0)
(851.84 -8.13119e-14 0)
(851.84 5.85983e-15 0)
(851.84 -1.10981e-13 0)
(851.84 -1.62916e-13 0)
(851.84 1.48984e-14 0)
(851.84 1.47004e-13 0)
(851.84 1.92795e-13 0)
(851.84 4.03484e-13 0)
(851.84 5.26264e-13 0)
(851.84 3.85883e-13 0)
(851.84 2.80846e-13 0)
(851.84 7.41191e-14 0)
(851.84 2.5303e-13 0)
(851.84 1.45902e-13 0)
(851.84 2.80334e-13 0)
(851.84 3.97299e-14 0)
(851.84 1.63044e-13 0)
(851.84 1.22194e-13 0)
(851.84 6.18165e-14 0)
(851.84 1.18249e-13 0)
(851.84 2.42585e-13 0)
(851.84 3.03861e-13 0)
(851.84 3.30037e-13 0)
(851.84 3.81475e-13 0)
(851.84 2.60648e-13 0)
(851.84 3.19999e-13 0)
(851.84 2.1646e-13 0)
(851.84 2.31698e-13 0)
(851.84 1.4435e-13 0)
(851.84 2.48785e-14 0)
(851.84 -1.76348e-13 0)
(851.84 -4.9498e-14 0)
(851.84 -1.08797e-13 0)
(851.84 -1.18693e-13 0)
(851.84 -1.88452e-14 0)
(851.84 1.12443e-13 0)
(851.84 8.35924e-14 0)
(851.84 -4.89623e-13 0)
(851.84 -1.55694e-13 0)
(851.84 -4.6088e-14 0)
(851.84 2.72947e-14 0)
(851.84 1.39182e-13 0)
(851.84 2.2878e-13 0)
(851.84 4.47491e-13 0)
(851.84 6.14733e-13 0)
(851.84 5.95163e-13 0)
(851.84 3.82934e-13 0)
(851.84 1.78501e-13 0)
(851.84 2.30386e-13 0)
(851.84 1.82919e-13 0)
(851.84 -1.00146e-13 0)
(851.84 -1.26985e-13 0)
(851.84 -2.56434e-13 0)
(851.84 -2.04483e-13 0)
(851.84 -2.28399e-13 0)
(851.84 -1.31142e-13 0)
(851.84 3.38175e-14 0)
(851.84 3.05953e-13 0)
(851.84 6.84824e-13 0)
(851.84 5.43927e-13 0)
(851.84 8.87666e-13 0)
(851.84 6.90348e-13 0)
(851.84 4.80649e-13 0)
(851.84 6.51096e-13 0)
(851.84 6.98467e-13 0)
(851.84 4.63608e-13 0)
(851.84 4.51726e-13 0)
(851.84 3.82305e-14 0)
(851.84 -1.00701e-13 0)
(851.84 -9.0678e-14 0)
(851.84 2.75238e-15 0)
(851.84 6.34664e-14 0)
(851.84 4.09032e-14 0)
(851.84 1.33169e-13 0)
(851.84 1.09259e-13 0)
(851.84 5.44252e-14 0)
(851.84 -4.71069e-14 0)
(851.84 -1.55606e-13 0)
(851.84 -5.61528e-14 0)
(851.84 -9.7391e-14 0)
(851.84 -9.33672e-14 0)
(851.84 -3.46322e-14 0)
(851.84 4.2228e-14 0)
(851.84 1.32381e-13 0)
(851.84 1.74976e-13 0)
(851.84 3.33959e-13 0)
(851.84 1.72686e-13 0)
(851.84 2.18104e-13 0)
(851.84 3.84001e-13 0)
(851.84 1.14749e-13 0)
(851.84 -1.74265e-13 0)
(851.84 -6.21944e-14 0)
(851.84 -1.21069e-13 0)
(851.84 -9.91755e-14 0)
(851.84 3.72496e-13 0)
(851.84 2.17297e-13 0)
(851.84 1.6918e-13 0)
(851.84 4.03555e-13 0)
(851.84 5.21931e-13 0)
(851.84 7.12583e-13 0)
(851.84 7.45077e-13 0)
(851.84 4.85169e-13 0)
(851.84 2.48953e-13 0)
(851.84 3.13735e-13 0)
(851.84 1.77227e-13 0)
(851.84 3.23986e-13 0)
(851.84 2.57685e-13 0)
(851.84 2.01553e-13 0)
(851.84 -1.39896e-13 0)
(851.84 -1.26896e-13 0)
(851.84 -1.09503e-13 0)
(851.84 1.68249e-13 0)
(851.84 1.67267e-13 0)
(851.84 1.19615e-13 0)
(851.84 4.23632e-13 0)
(851.84 5.12636e-13 0)
(851.84 5.32394e-13 0)
(851.84 4.75627e-13 0)
(851.84 2.05152e-13 0)
(851.84 -1.01829e-13 0)
(851.84 -4.12057e-13 0)
(851.84 -2.01042e-13 0)
(851.84 2.24809e-14 0)
(851.84 -8.59245e-14 0)
(851.84 3.48455e-14 0)
(851.84 2.61375e-13 0)
(851.84 7.87252e-14 0)
(851.84 5.00894e-14 0)
(851.84 -8.15016e-14 0)
(851.84 1.6127e-13 0)
(851.84 4.48135e-13 0)
(851.84 5.18547e-13 0)
(851.84 2.15631e-13 0)
(851.84 2.6645e-13 0)
(851.84 3.20091e-13 0)
(851.84 5.83284e-13 0)
(851.84 4.83631e-13 0)
(851.84 3.49163e-13 0)
(851.84 7.3522e-13 0)
(851.84 7.26126e-13 0)
(851.84 6.79592e-13 0)
(851.84 1.36342e-13 0)
(851.84 2.78064e-13 0)
(851.84 2.25359e-13 0)
(851.84 3.03123e-13 0)
(851.84 -3.04497e-14 0)
(851.84 5.02165e-14 0)
(851.84 1.11098e-13 0)
(851.84 1.44987e-13 0)
(851.84 3.27238e-13 0)
(851.84 5.38963e-13 0)
(851.84 5.44611e-13 0)
(851.84 3.15713e-13 0)
(851.84 -2.00667e-13 0)
(851.84 -1.75238e-13 0)
(851.84 2.0095e-13 0)
(851.84 2.99644e-13 0)
(851.84 1.06584e-13 0)
(851.84 1.00417e-13 0)
(851.84 2.28726e-13 0)
(851.84 2.63207e-13 0)
(851.84 4.86928e-13 0)
(851.84 4.52292e-13 0)
(851.84 3.09307e-13 0)
(851.84 2.87867e-13 0)
(851.84 -7.7427e-14 0)
(851.84 9.3146e-14 0)
(851.84 2.31708e-13 0)
(851.84 1.19301e-13 0)
(851.84 3.4463e-13 0)
(851.84 3.67377e-13 0)
(851.84 3.96853e-13 0)
(851.84 4.33501e-13 0)
(851.84 3.66145e-13 0)
(851.84 2.18472e-13 0)
(851.84 3.36557e-13 0)
(851.84 5.03779e-17 0)
(851.84 3.7795e-13 0)
(851.84 6.61296e-13 0)
(851.84 7.11322e-13 0)
(851.84 6.64231e-13 0)
(851.84 6.72537e-13 0)
(851.84 7.54032e-13 0)
(851.84 -2.08164e-14 0)
(851.84 -8.72221e-14 0)
(851.84 2.30271e-13 0)
(851.84 3.37362e-13 0)
(851.84 2.82712e-14 0)
(851.84 -7.29452e-14 0)
(851.84 2.32523e-13 0)
(851.84 2.70075e-13 0)
(851.84 4.09695e-13 0)
(851.84 3.05744e-13 0)
(851.84 8.58762e-14 0)
(851.84 1.23109e-13 0)
(851.84 8.62319e-14 0)
(851.84 7.95401e-14 0)
(851.84 1.47043e-13 0)
(851.84 2.7275e-13 0)
(851.84 2.97596e-13 0)
(851.84 3.15113e-13 0)
(851.84 1.13709e-13 0)
(851.84 1.38547e-13 0)
(851.84 2.19669e-13 0)
(851.84 3.30054e-13 0)
(851.84 1.95233e-13 0)
(851.84 -5.00195e-14 0)
(851.84 -1.27219e-13 0)
(851.84 -9.33326e-14 0)
(851.84 1.84599e-13 0)
(851.84 9.21897e-14 0)
(851.84 -1.03091e-14 0)
(851.84 -4.26294e-14 0)
(851.84 2.16063e-13 0)
(851.84 4.82543e-13 0)
(851.84 3.20212e-13 0)
(851.84 1.62902e-14 0)
(851.84 2.43948e-13 0)
(851.84 3.80195e-13 0)
(851.84 2.3017e-13 0)
(851.84 3.63548e-13 0)
(851.84 -7.81293e-14 0)
(851.84 2.90156e-14 0)
(851.84 -8.59908e-14 0)
(851.84 9.6409e-14 0)
(851.84 8.27558e-14 0)
(851.84 5.61327e-14 0)
(851.84 9.35048e-14 0)
(851.84 -7.26322e-14 0)
(851.84 5.87847e-15 0)
(851.84 6.74748e-14 0)
(851.84 2.17968e-13 0)
(851.84 -9.01228e-14 0)
(851.84 9.8183e-14 0)
(851.84 3.29128e-13 0)
(851.84 2.45564e-13 0)
(851.84 2.36377e-13 0)
(851.84 7.36271e-14 0)
(851.84 -1.39557e-13 0)
(851.84 2.34763e-13 0)
(851.84 4.82299e-14 0)
(851.84 2.00123e-13 0)
(851.84 4.91434e-13 0)
(851.84 3.99529e-13 0)
(851.84 2.58794e-13 0)
(851.84 4.52832e-14 0)
(851.84 -1.01137e-13 0)
(851.84 9.67792e-14 0)
(851.84 2.1203e-14 0)
(851.84 5.29294e-14 0)
(851.84 2.30015e-13 0)
(851.84 1.19116e-13 0)
(851.84 1.38942e-13 0)
(851.84 8.96621e-14 0)
(851.84 -1.62205e-13 0)
(851.84 -6.20881e-14 0)
(851.84 -2.33208e-14 0)
(851.84 7.60773e-14 0)
(851.84 1.30514e-13 0)
(851.84 7.0769e-15 0)
(851.84 9.58645e-14 0)
(851.84 -4.95007e-14 0)
(851.84 -1.16522e-13 0)
(851.84 -6.95883e-14 0)
(851.84 -9.89239e-14 0)
(851.84 -1.6667e-13 0)
(851.84 -2.90981e-14 0)
(851.84 1.05505e-13 0)
(851.84 -1.1291e-14 0)
(851.84 -4.17244e-14 0)
(851.84 -4.02203e-14 0)
(851.84 -5.681e-14 0)
(851.84 1.21507e-14 0)
(851.84 1.53034e-13 0)
(851.84 2.68231e-13 0)
(851.84 2.31535e-13 0)
(851.84 2.02705e-13 0)
(851.84 8.8439e-14 0)
(851.84 1.69902e-13 0)
(851.84 2.16979e-13 0)
(851.84 1.46778e-13 0)
(851.84 3.39802e-13 0)
(851.84 2.77428e-13 0)
(851.84 2.22677e-13 0)
(851.84 1.97681e-13 0)
(851.84 -2.15857e-13 0)
(851.84 -7.20261e-14 0)
(851.84 8.31299e-14 0)
(851.84 1.43823e-13 0)
(851.84 2.70707e-14 0)
(851.84 -3.40216e-14 0)
(851.84 -1.27107e-13 0)
(851.84 -9.58541e-14 0)
(851.84 7.24253e-14 0)
(851.84 1.21782e-13 0)
(851.84 1.47353e-13 0)
(851.84 1.76591e-13 0)
(851.84 5.53288e-14 0)
(851.84 9.23096e-14 0)
(851.84 2.00015e-13 0)
(851.84 -1.24037e-13 0)
(851.84 -2.74586e-13 0)
(851.84 -1.40024e-13 0)
(851.84 -5.64871e-15 0)
(851.84 -7.06665e-14 0)
(851.84 2.17347e-13 0)
(851.84 2.60976e-13 0)
(851.84 2.4679e-13 0)
(851.84 1.66233e-13 0)
(851.84 1.33268e-13 0)
(851.84 -8.86707e-15 0)
(851.84 -7.75299e-14 0)
(851.84 -8.35775e-14 0)
(851.84 1.07508e-13 0)
(851.84 1.67658e-13 0)
(851.84 1.93111e-13 0)
(851.84 3.11381e-13 0)
(851.84 3.46272e-13 0)
(851.84 2.36236e-13 0)
(851.84 1.59012e-13 0)
(851.84 2.98955e-13 0)
(851.84 5.41644e-13 0)
(851.84 2.94864e-13 0)
(851.84 2.15367e-13 0)
(851.84 1.58681e-13 0)
(851.84 -1.19204e-13 0)
(851.84 -4.24128e-14 0)
(851.84 5.23502e-14 0)
(851.84 2.24383e-14 0)
(851.84 1.01863e-13 0)
(851.84 1.76589e-13 0)
(851.84 -3.21634e-14 0)
(851.84 -5.34617e-14 0)
(851.84 2.3107e-13 0)
(851.84 4.97478e-13 0)
(851.84 1.67304e-13 0)
(851.84 2.64222e-13 0)
(851.84 4.84906e-14 0)
(851.84 1.14946e-13 0)
(851.84 -3.78042e-14 0)
(851.84 7.09884e-14 0)
(851.84 5.98227e-14 0)
(851.84 2.15831e-13 0)
(851.84 2.79535e-13 0)
(851.84 3.18096e-13 0)
(851.84 8.95267e-14 0)
(851.84 8.43266e-14 0)
(851.84 -1.28141e-13 0)
(851.84 -1.31117e-13 0)
(851.84 1.00796e-13 0)
(851.84 -7.01798e-14 0)
(851.84 5.41691e-14 0)
(851.84 1.11337e-13 0)
(851.84 1.00556e-13 0)
(851.84 2.20386e-13 0)
(851.84 2.57151e-13 0)
(851.84 3.47089e-13 0)
(851.84 4.19742e-13 0)
(851.84 7.52954e-13 0)
(851.84 7.98719e-13 0)
(851.84 7.05839e-13 0)
(851.84 9.63672e-13 0)
(851.84 3.32762e-13 0)
(851.84 4.14702e-14 0)
(851.84 -3.54568e-13 0)
(851.84 -1.97961e-13 0)
(851.84 -4.03651e-14 0)
(851.84 -3.31574e-14 0)
(851.84 1.08358e-13 0)
(851.84 5.40292e-13 0)
(851.84 3.9488e-13 0)
(851.84 2.05955e-13 0)
(851.84 3.55144e-13 0)
(851.84 3.5147e-16 0)
(851.84 -1.54951e-13 0)
(851.84 1.07313e-13 0)
(851.84 1.98283e-13 0)
(851.84 2.74907e-13 0)
(851.84 3.88552e-13 0)
(851.84 2.03549e-13 0)
(851.84 1.58938e-13 0)
(851.84 2.66265e-13 0)
(851.84 2.04939e-13 0)
(851.84 3.67152e-13 0)
(851.84 2.44542e-13 0)
(851.84 2.66541e-13 0)
(851.84 3.00184e-13 0)
(851.84 -4.03349e-14 0)
(851.84 -1.23985e-13 0)
(851.84 -9.54244e-14 0)
(851.84 9.58161e-14 0)
(851.84 2.48195e-13 0)
(851.84 -6.40553e-14 0)
(851.84 2.21802e-13 0)
(851.84 2.62993e-13 0)
(851.84 2.94246e-13 0)
(851.84 -1.85996e-13 0)
(851.84 3.42251e-13 0)
(851.84 4.25061e-13 0)
(851.84 2.67853e-13 0)
(851.84 2.94446e-13 0)
(851.84 2.81786e-13 0)
(851.84 3.36528e-13 0)
(851.84 3.77653e-13 0)
(851.84 3.49014e-13 0)
(851.84 5.2676e-13 0)
(851.84 5.25278e-13 0)
(851.84 5.51178e-13 0)
(851.84 3.82121e-13 0)
(851.84 3.81877e-13 0)
(851.84 2.63907e-13 0)
(851.84 -1.63253e-14 0)
(851.84 -1.91035e-13 0)
(851.84 -2.82427e-13 0)
(851.84 1.81374e-13 0)
(851.84 3.87842e-13 0)
(851.84 2.84e-13 0)
(851.84 4.31728e-13 0)
(851.84 3.95187e-13 0)
(851.84 4.02396e-13 0)
(851.84 5.40723e-13 0)
(851.84 4.23467e-13 0)
(851.84 3.24361e-13 0)
(851.84 -1.49742e-15 0)
(851.84 -1.61457e-13 0)
(851.84 -2.10285e-13 0)
(851.84 -2.9373e-13 0)
(851.84 -5.48086e-14 0)
(851.84 1.65374e-13 0)
(851.84 1.94367e-13 0)
(851.84 1.24342e-13 0)
(851.84 1.74716e-13 0)
(851.84 2.11055e-13 0)
(851.84 1.39865e-13 0)
(851.84 1.7983e-13 0)
(851.84 1.284e-13 0)
(851.84 -7.49035e-14 0)
(851.84 -1.59223e-13 0)
(851.84 -6.12802e-14 0)
(851.84 -9.21694e-16 0)
(851.84 2.63077e-14 0)
(851.84 5.33247e-14 0)