/*--------------------------------*- C++ -*----------------------------------*\
| =========                 |                                                 |
| \\      /  F ield         | OpenFOAM: The Open Source CFD Toolbox           |
|  \\    /   O peration     | Version:  v1812                                 |
|   \\  /    A nd           | Web:      www.OpenFOAM.com                      |
|    \\/     M anipulation  |                                                 |
\*---------------------------------------------------------------------------*/
FoamFile
{
    version     2.0;
    format      ascii;
    class       volScalarField;
    location    "2";
    object      p;
}
// * * * * * * * * * * * * * * * * * * * * * * * * * * * * * * * * * * * * * //

dimensions      [1 -1 -2 0 0 0 0];


internalField   nonuniform List<scalar> 
1000
(
1.00001034
1.000010339
1.000010339
1.000010339
1.000010338
1.000010338
1.000010338
1.000010337
1.000010337
1.000010337
1.000010336
1.000010336
1.000010336
1.000010336
1.000010335
1.000010335
1.000010335
1.000010335
1.000010334
1.000010334
1.000010334
1.000010334
1.000010334
1.000010334
1.000010333
1.000010333
1.000010333
1.000010333
1.000010333
1.000010333
1.000010333
1.000010333
1.000010333
1.000010333
1.000010332
1.000010332
1.000010332
1.000010332
1.000010332
1.000010332
1.000010332
1.000010332
1.000010333
1.000010333
1.000010333
1.000010333
1.000010333
1.000010333
1.000010333
1.000010333
1.000010333
1.000010333
1.000010334
1.000010334
1.000010334
1.000010334
1.000010334
1.000010334
1.000010334
1.000010335
1.000010335
1.000010335
1.000010335
1.000010335
1.000010335
1.000010335
1.000010335
1.000010335
1.000010334
1.000010334
1.000010333
1.000010333
1.000010331
1.00001033
1.000010329
1.000010327
1.000010324
1.000010321
1.000010318
1.000010314
1.000010309
1.000010304
1.000010297
1.00001029
1.000010281
1.000010272
1.00001026
1.000010248
1.000010234
1.000010218
1.0000102
1.00001018
1.000010158
1.000010133
1.000010107
1.000010077
1.000010045
1.00001001
1.000009972
1.000009932
1.000009888
1.000009841
1.000009791
1.000009738
1.000009682
1.000009622
1.00000956
1.000009495
1.000009428
1.000009358
1.000009286
1.000009212
1.000009137
1.000009061
1.000008984
1.000008907
1.00000883
1.000008753
1.000008678
1.000008605
1.000008533
1.000008465
1.000008401
1.00000834
1.000008284
1.000008233
1.000008186
1.000008146
1.000008111
1.000008083
1.000008061
1.000008046
1.000008038
1.000008036
1.00000804
1.00000805
1.000008068
1.000008095
1.000008129
1.00000817
1.000008218
1.000008272
1.000008334
1.000008401
1.000008475
1.000008554
1.000008637
1.000008725
1.000008817
1.000008911
1.000009009
1.000009108
1.000009209
1.000009311
1.000009414
1.000009516
1.000009619
1.000009721
1.000009821
1.000009921
1.000010018
1.000010114
1.000010207
1.000010298
1.000010386
1.000010472
1.000010555
1.000010635
1.000010712
1.000010785
1.000010857
1.000010925
1.000010991
1.000011054
1.000011115
1.000011173
1.000011229
1.000011284
1.000011337
1.000011387
1.000011435
1.000011483
1.000011529
1.000011574
1.000011618
1.000011662
1.000011704
1.000011746
1.000011788
1.000011829
1.00001187
1.000011911
1.000011952
1.000011992
1.000012033
1.000012074
1.000012114
1.000012155
1.000012196
1.000012237
1.000012278
1.000012319
1.00001236
1.000012401
1.000012442
1.000012483
1.000012523
1.000012563
1.000012603
1.000012642
1.000012681
1.000012719
1.000012756
1.000012793
1.000012829
1.000012863
1.000012897
1.000012929
1.00001296
1.000012989
1.000013017
1.000013044
1.000013068
1.000013091
1.000013112
1.000013131
1.000013149
1.000013164
1.000013177
1.000013188
1.000013197
1.000013204
1.000013208
1.000013209
1.000013209
1.000013208
1.000013204
1.000013197
1.000013189
1.000013179
1.000013166
1.000013152
1.000013135
1.000013117
1.000013097
1.000013074
1.00001305
1.000013024
1.000012997
1.000012968
1.000012938
1.000012906
1.000012873
1.000012839
1.000012804
1.000012768
1.000012731
1.000012694
1.000012656
1.000012617
1.000012579
1.000012539
1.0000125
1.000012461
1.000012421
1.000012382
1.000012343
1.000012305
1.000012267
1.000012229
1.000012192
1.000012155
1.000012119
1.000012084
1.00001205
1.000012017
1.000011984
1.000011953
1.000011922
1.000011892
1.000011864
1.000011836
1.00001181
1.000011784
1.00001176
1.000011736
1.000011714
1.000011693
1.000011673
1.000011654
1.000011636
1.000011618
1.000011602
1.000011587
1.000011573
1.00001156
1.000011547
1.000011536
1.000011525
1.000011515
1.000011506
1.000011498
1.00001149
1.000011483
1.000011477
1.000011472
1.000011467
1.000011462
1.000011459
1.000011455
1.000011452
1.00001145
1.000011448
1.000011446
1.000011445
1.000011444
1.000011444
1.000011444
1.000011444
1.000011444
1.000011445
1.000011446
1.000011447
1.000011448
1.00001145
1.000011452
1.000011453
1.000011455
1.000011457
1.000011459
1.000011462
1.000011464
1.000011466
1.000011468
1.000011471
1.000011473
1.000011475
1.000011477
1.000011478
1.000011479
1.00001148
1.00001148
1.00001148
1.000011479
1.000011477
1.000011475
1.000011471
1.000011465
1.000011458
1.000011449
1.000011438
1.000011424
1.000011407
1.000011387
1.000011363
1.000011334
1.000011301
1.000011262
1.000011216
1.000011163
1.000011103
1.000011033
1.000010954
1.000010863
1.000010761
1.000010646
1.000010516
1.000010372
1.000010211
1.000010032
1.000009834
1.000009617
1.000009378
1.000009117
1.000008833
1.000008524
1.00000819
1.000007831
1.000007446
1.000007034
1.000006595
1.000006129
1.000005636
1.000005118
1.000004574
1.000004005
1.000003413
1.0000028
1.000002166
1.000001515
1.000000848
1.000000168
0.9999994784
0.9999987817
0.9999980815
0.9999973814
0.9999966852
0.9999959969
0.9999953204
0.9999946599
0.9999940194
0.9999934027
0.999992814
0.9999922568
0.999991735
0.9999912524
0.9999908126
0.9999904196
0.9999900769
0.999989788
0.9999895559
0.9999893819
0.9999892651
0.9999891999
0.9999891759
0.9999891799
0.9999892061
0.9999892977
0.9999894702
0.9999897129
0.9999900133
0.9999903648
0.9999907643
0.9999912092
0.999991697
0.9999922247
0.999992789
0.9999933866
0.9999940138
0.9999946669
0.9999953422
0.9999960359
0.9999967442
0.9999974636
0.9999981904
0.9999989213
0.999999653
1.000000382
1.000001107
1.000001823
1.000002529
1.000003222
1.000003901
1.000004563
1.000005207
1.000005831
1.000006435
1.000007017
1.000007577
1.000008114
1.000008628
1.000009118
1.000009585
1.000010029
1.00001045
1.000010848
1.000011224
1.000011578
1.000011911
1.000012224
1.000012518
1.000012793
1.00001305
1.00001329
1.000013515
1.000013724
1.000013918
1.000014099
1.000014268
1.000014424
1.00001457
1.000014705
1.00001483
1.000014946
1.000015054
1.000015155
1.000015248
1.000015335
1.000015416
1.000015491
1.000015562
1.000015627
1.000015689
1.000015746
1.0000158
1.000015851
1.000015899
1.000015944
1.000015987
1.000016028
1.000016066
1.000016103
1.000016138
1.000016172
1.000016205
1.000016237
1.000016266
1.000016295
1.000016324
1.000016351
1.000016378
1.000016405
1.00001643
1.000016456
1.000016481
1.000016505
1.00001653
1.000016554
1.000016578
1.000016602
1.000016625
1.000016649
1.000016672
1.000016696
1.00001672
1.000016743
1.000016767
1.000016791
1.000016815
1.000016839
1.000016863
1.000016888
1.000016913
1.000016938
1.000016963
1.000016989
1.000017015
1.000017041
1.000017068
1.000017095
1.000017122
1.00001715
1.000017178
1.000017207
1.000017236
1.000017265
1.000017295
1.000017326
1.000017356
1.000017387
1.000017419
1.000017451
1.000017483
1.000017516
1.000017548
1.000017581
1.000017614
1.000017648
1.000017681
1.000017714
1.000017747
1.000017779
1.000017811
1.000017842
1.000017873
1.000017902
1.00001793
1.000017956
1.000017981
1.000018003
1.000018023
1.00001804
1.000018053
1.00001806
1.000018062
1.000018061
1.000018054
1.000018044
1.000018027
1.000018003
1.00001797
1.000017928
1.000017876
1.000017814
1.000017739
1.000017652
1.000017552
1.000017436
1.000017305
1.000017157
1.000016991
1.000016805
1.000016598
1.00001637
1.000016119
1.000015843
1.000015541
1.000015212
1.000014856
1.00001447
1.000014055
1.000013608
1.000013129
1.000012617
1.000012071
1.000011491
1.000010877
1.000010227
1.000009542
1.000008822
1.000008067
1.000007278
1.000006455
1.000005598
1.00000471
1.000003791
1.000002842
1.000001865
1.000000864
0.9999998387
0.9999987932
0.9999977299
0.9999966518
0.999995562
0.999994464
0.9999933612
0.9999922574
0.9999911567
0.9999900631
0.999988981
0.9999879148
0.9999868687
0.9999858472
0.9999848545
0.9999838947
0.9999829721
0.9999820905
0.999981254
0.9999804663
0.999979731
0.9999790514
0.9999784304
0.999977871
0.9999773754
0.999976946
0.9999765853
0.9999762984
0.9999760973
0.9999759933
0.9999759682
0.9999759734
0.9999760145
0.9999761108
0.9999762727
0.9999765045
0.9999768059
0.9999771746
0.9999776075
0.9999781009
0.9999786513
0.9999792552
0.9999799086
0.9999806078
0.9999813487
0.9999821269
0.9999829381
0.9999837779
0.9999846421
0.999985527
0.9999864289
0.9999873445
0.99998827
0.9999892011
0.9999901335
0.999991063
0.9999919862
0.9999929002
0.9999938018
0.9999946873
0.999995553
0.9999963971
0.9999972221
0.9999980205
0.9999988069
0.9999995763
1.000000268
1.000000976
1.000001634
1.000002261
1.00000286
1.00000343
1.000003973
1.000004489
1.000004976
1.000005436
1.000005866
1.000006268
1.00000664
1.000006982
1.000007297
1.000007585
1.000007852
1.000008109
1.000008357
1.000008589
1.000008801
1.00000899
1.000009156
1.0000093
1.00000943
1.000009544
1.00000966
1.000009808
1.000009833
1.000009747
1.000009788
1.000009919
1.000009994
1.000010059
1.000010116
1.000010165
1.000010207
1.000010243
1.000010274
1.000010301
1.000010324
1.000010345
1.000010363
1.000010381
1.000010397
1.000010412
1.000010426
1.000010439
1.00001045
1.00001046
1.000010469
1.000010476
1.000010482
1.000010488
1.000010493
1.000010497
1.000010501
1.000010505
1.000010509
1.000010512
1.000010515
1.000010518
1.00001052
1.000010521
1.000010523
1.000010523
1.000010524
1.000010524
1.000010525
1.000010525
1.000010526
1.000010526
1.000010526
1.000010526
1.000010526
1.000010526
1.000010525
1.000010525
1.000010524
1.000010523
1.000010523
1.000010522
1.000010521
1.00001052
1.00001052
1.000010519
1.000010518
1.000010517
1.000010516
1.000010515
1.000010514
1.000010513
1.000010512
1.000010511
1.00001051
1.000010509
1.000010508
1.000010507
1.000010506
1.000010505
1.000010504
1.000010503
1.000010501
1.0000105
1.000010499
1.000010498
1.000010497
1.000010496
1.000010495
1.000010494
1.000010493
1.000010492
1.000010491
1.00001049
1.000010489
1.000010488
1.000010487
1.000010486
1.000010485
1.000010484
1.000010483
1.000010482
1.000010481
1.00001048
1.000010479
1.000010478
1.000010478
1.000010477
1.000010476
1.000010475
1.000010474
1.000010473
1.000010472
1.000010471
1.00001047
1.00001047
1.000010469
1.000010468
1.000010467
1.000010466
1.000010465
1.000010465
1.000010464
1.000010463
1.000010462
1.000010461
1.000010461
1.00001046
1.000010459
1.000010458
1.000010457
1.000010457
1.000010456
1.000010455
1.000010454
1.000010453
1.000010453
1.000010452
1.000010451
1.00001045
1.00001045
1.000010449
1.000010448
1.000010448
1.000010447
1.000010446
1.000010445
1.000010445
1.000010444
1.000010443
1.000010443
1.000010442
1.000010441
1.000010441
1.00001044
1.000010439
1.000010439
1.000010438
1.000010437
1.000010437
1.000010436
1.000010435
1.000010435
1.000010434
1.000010434
1.000010433
1.000010432
1.000010432
1.000010431
1.00001043
1.00001043
1.000010429
1.000010428
1.000010428
1.000010427
1.000010427
1.000010426
1.000010425
1.000010425
1.000010424
1.000010424
1.000010423
1.000010422
1.000010422
1.000010421
1.00001042
1.00001042
1.000010419
1.000010418
1.000010417
1.000010417
1.000010416
1.000010415
1.000010414
1.000010413
1.000010412
1.000010411
1.00001041
1.000010409
1.000010407
1.000010406
1.000010404
1.000010403
1.000010401
1.000010398
1.000010396
1.000010393
1.00001039
1.000010387
1.000010383
1.000010379
1.000010374
1.000010369
1.000010363
1.000010357
1.00001035
1.000010342
1.000010334
1.000010325
1.000010315
1.000010304
1.000010293
1.00001028
1.000010266
1.000010252
1.000010236
1.000010219
1.0000102
1.000010181
1.00001016
1.000010138
1.000010114
1.000010089
1.000010062
1.000010035
1.000010005
1.000009975
1.000009942
1.000009909
1.000009874
1.000009838
1.000009801
1.000009762
1.000009723
1.000009682
1.000009641
1.000009598
1.000009555
1.000009512
1.000009468
1.000009424
1.000009379
1.000009335
1.000009291
1.000009247
1.000009204
1.000009161
1.000009119
1.000009079
1.000009039
1.000009001
1.000008965
1.00000893
1.000008898
1.000008867
1.000008838
1.000008812
1.000008788
1.000008766
1.000008747
1.000008731
1.000008716
1.000008703
1.000008694
1.000008687
1.000008682
1.00000868
1.000008681
1.000008683
1.000008688
1.000008694
1.000008703
1.000008713
1.000008725
1.000008739
1.000008754
1.000008769
1.000008786
1.000008803
1.000008821
1.000008839
1.000008858
1.000008876
1.000008895
1.000008913
1.00000893
1.000008947
1.000008963
1.000008978
1.000008992
1.000009004
1.000009016
1.000009026
1.000009034
1.000009046
)
;

boundaryField
{
    sides
    {
        type            zeroGradient;
    }
    empty
    {
        type            empty;
    }
}


// ************************************************************************* //
