/*--------------------------------*- C++ -*----------------------------------*\
| =========                 |                                                 |
| \\      /  F ield         | OpenFOAM: The Open Source CFD Toolbox           |
|  \\    /   O peration     | Version:  v1812                                 |
|   \\  /    A nd           | Web:      www.OpenFOAM.com                      |
|    \\/     M anipulation  |                                                 |
\*---------------------------------------------------------------------------*/
FoamFile
{
    version     2.0;
    format      ascii;
    class       surfaceScalarField;
    location    "2";
    object      phi;
}
// * * * * * * * * * * * * * * * * * * * * * * * * * * * * * * * * * * * * * //

dimensions      [1 0 -1 0 0 0 0];
oriented        oriented;


internalField   nonuniform List<scalar> 
999
(
0.5597016823
0.5597016977
0.5597017131
0.5597017284
0.5597017438
0.5597017592
0.5597017746
0.55970179
0.5597018053
0.5597018207
0.5597018361
0.5597018514
0.5597018667
0.5597018819
0.5597018971
0.5597019121
0.559701927
0.5597019417
0.5597019563
0.559701971
0.5597019859
0.559702001
0.5597020163
0.5597020317
0.5597020472
0.5597020628
0.5597020786
0.5597020946
0.5597021106
0.5597021265
0.5597021423
0.5597021579
0.5597021734
0.559702189
0.5597022045
0.5597022199
0.5597022352
0.5597022503
0.5597022654
0.5597022804
0.5597022954
0.5597023104
0.5597023255
0.5597023409
0.5597023564
0.559702372
0.5597023877
0.5597024037
0.5597024202
0.5597024374
0.5597024556
0.5597024749
0.5597024954
0.559702517
0.5597025391
0.5597025613
0.5597025829
0.5597026033
0.559702622
0.5597026395
0.5597026564
0.5597026732
0.5597026895
0.5597027048
0.5597027188
0.5597027314
0.5597027433
0.5597027556
0.5597027693
0.559702785
0.5597028029
0.5597028228
0.5597028443
0.5597028672
0.5597028917
0.5597029179
0.559702946
0.559702976
0.5597030081
0.5597030426
0.5597030797
0.5597031198
0.5597031633
0.5597032106
0.5597032621
0.5597033183
0.5597033798
0.5597034471
0.5597035207
0.5597036012
0.5597036889
0.5597037845
0.5597038884
0.559704001
0.5597041228
0.5597042542
0.5597043956
0.5597045474
0.5597047099
0.5597048834
0.5597050682
0.5597052644
0.5597054721
0.5597056913
0.5597059218
0.5597061632
0.5597064151
0.5597066769
0.5597069478
0.559707227
0.5597075135
0.5597078062
0.5597081039
0.5597084052
0.5597087087
0.5597090129
0.5597093159
0.5597096161
0.5597099115
0.5597102
0.5597104795
0.5597107479
0.5597110033
0.559711244
0.5597114685
0.5597116756
0.5597118643
0.5597120335
0.5597121821
0.5597123089
0.559712412
0.5597124906
0.5597125448
0.5597125809
0.5597125953
0.5597125928
0.5597125572
0.5597124929
0.5597124055
0.5597122956
0.5597121627
0.5597120071
0.5597118296
0.5597116317
0.5597114153
0.5597111823
0.5597109348
0.5597106751
0.5597104052
0.5597101272
0.5597098432
0.5597095553
0.5597092655
0.5597089758
0.5597086882
0.5597084046
0.5597081269
0.5597078565
0.5597075952
0.5597073441
0.5597071046
0.5597068777
0.5597066644
0.5597064656
0.5597062818
0.5597061139
0.5597059623
0.5597058275
0.5597057096
0.5597056086
0.5597055242
0.559705456
0.5597054037
0.5597053671
0.5597053462
0.5597053409
0.55970535
0.559705375
0.5597054118
0.5597054665
0.559705532
0.5597056098
0.5597057003
0.559705802
0.5597059144
0.5597060371
0.5597061695
0.559706311
0.5597064609
0.5597066189
0.5597067843
0.5597069566
0.5597071353
0.5597073199
0.5597075099
0.5597077047
0.5597079038
0.5597081067
0.5597083129
0.5597085218
0.5597087331
0.5597089461
0.5597091603
0.5597093753
0.5597095906
0.5597098055
0.5597100198
0.5597102327
0.559710444
0.5597106531
0.5597108594
0.5597110626
0.559711262
0.5597114571
0.5597116474
0.5597118326
0.5597120121
0.5597121857
0.5597123528
0.5597125131
0.559712666
0.5597128113
0.5597129485
0.5597130772
0.5597131973
0.5597133085
0.5597134105
0.5597135033
0.5597135866
0.5597136599
0.5597137228
0.5597137742
0.5597138135
0.5597138445
0.5597138697
0.5597138856
0.5597138875
0.5597138825
0.5597138683
0.5597138443
0.559713811
0.5597137682
0.5597137162
0.5597136552
0.5597135856
0.5597135078
0.559713422
0.5597133288
0.5597132283
0.5597131212
0.5597130077
0.5597128883
0.5597127636
0.5597126339
0.5597124998
0.5597123617
0.5597122202
0.5597120757
0.5597119287
0.5597117797
0.5597116291
0.5597114774
0.5597113251
0.5597111727
0.5597110205
0.5597108689
0.5597107185
0.5597105695
0.5597104224
0.5597102774
0.5597101349
0.5597099952
0.5597098585
0.5597097252
0.5597095953
0.5597094692
0.559709347
0.5597092289
0.5597091149
0.5597090053
0.5597089001
0.5597087993
0.559708703
0.5597086113
0.5597085242
0.5597084417
0.5597083637
0.5597082903
0.5597082213
0.5597081568
0.5597080967
0.5597080408
0.5597079892
0.5597079417
0.5597078982
0.5597078587
0.5597078229
0.5597077909
0.5597077624
0.5597077374
0.5597077157
0.5597076972
0.5597076818
0.5597076693
0.5597076596
0.5597076527
0.559707649
0.5597076467
0.5597076464
0.559707648
0.5597076519
0.5597076578
0.5597076657
0.5597076753
0.5597076866
0.5597076997
0.5597077144
0.55970773
0.5597077465
0.559707764
0.5597077826
0.5597078023
0.5597078229
0.5597078443
0.5597078666
0.5597078896
0.5597079133
0.5597079378
0.5597079628
0.5597079886
0.559708015
0.559708042
0.5597080698
0.5597080982
0.5597081274
0.5597081574
0.5597081883
0.5597082207
0.5597082548
0.5597082913
0.5597083302
0.5597083708
0.5597084132
0.5597084586
0.5597085077
0.5597085612
0.5597086198
0.5597086842
0.5597087553
0.5597088342
0.559708922
0.55970902
0.5597091296
0.5597092525
0.5597093906
0.5597095458
0.5597097204
0.5597099169
0.559710138
0.5597103866
0.5597106658
0.559710979
0.5597113297
0.5597117216
0.5597121585
0.5597126445
0.5597131837
0.5597137803
0.5597144387
0.5597151631
0.5597159577
0.5597168269
0.5597177745
0.5597188043
0.55971992
0.5597211246
0.559722421
0.5597238113
0.5597252972
0.55972688
0.5597285598
0.5597303363
0.5597322082
0.5597341736
0.5597362293
0.5597383714
0.559740595
0.5597428941
0.5597452617
0.55974769
0.55975017
0.5597526918
0.5597552445
0.5597578163
0.5597603946
0.5597629661
0.5597655168
0.5597680323
0.559770498
0.5597728993
0.5597752219
0.5597774515
0.5597795743
0.5597815768
0.5597834455
0.559785167
0.5597867277
0.5597881141
0.5597893129
0.5597903125
0.5597911042
0.5597916861
0.5597920656
0.5597922735
0.5597923634
0.559792355
0.5597922376
0.5597918393
0.559791148
0.5597902261
0.5597891139
0.5597878254
0.5597863689
0.5597847536
0.5597829899
0.559781089
0.5597790627
0.5597769238
0.5597746855
0.5597723612
0.5597699647
0.5597675094
0.5597650085
0.5597624752
0.5597599219
0.5597573606
0.5597548029
0.5597522594
0.5597497404
0.5597472551
0.5597448122
0.5597424195
0.5597400839
0.5597378116
0.5597356079
0.5597334774
0.5597314239
0.5597294502
0.5597275588
0.5597257511
0.5597240283
0.5597223906
0.5597208378
0.5597193693
0.5597179839
0.5597166799
0.5597154556
0.5597143086
0.5597132366
0.5597122367
0.5597113062
0.5597104422
0.5597096416
0.5597089013
0.5597082182
0.5597075893
0.5597070115
0.5597064818
0.5597059972
0.559705555
0.5597051525
0.5597047869
0.5597044557
0.5597041566
0.5597038872
0.5597036453
0.559703429
0.5597032364
0.5597030657
0.5597029152
0.5597027834
0.5597026689
0.5597025702
0.5597024859
0.5597024151
0.5597023565
0.5597023092
0.5597022725
0.5597022455
0.5597022276
0.5597022181
0.5597022165
0.559702222
0.5597022337
0.5597022512
0.5597022747
0.5597023052
0.5597023399
0.5597023789
0.5597024226
0.5597024707
0.5597025227
0.5597025786
0.5597026381
0.559702701
0.5597027674
0.5597028369
0.5597029095
0.5597029851
0.5597030636
0.5597031448
0.5597032289
0.5597033156
0.5597034052
0.5597034977
0.5597035931
0.5597036915
0.5597037928
0.5597038969
0.5597040035
0.5597041123
0.5597042229
0.5597043352
0.5597044493
0.5597045655
0.5597046846
0.5597048073
0.5597049338
0.5597050642
0.5597051982
0.5597053353
0.5597054753
0.5597056174
0.5597057614
0.5597059069
0.559706054
0.559706203
0.5597063546
0.5597065089
0.5597066662
0.5597068263
0.5597069889
0.5597071537
0.5597073203
0.5597074883
0.5597076575
0.5597078274
0.5597079978
0.5597081683
0.5597083383
0.5597085074
0.5597086749
0.5597088401
0.5597090022
0.5597091602
0.5597093132
0.5597094601
0.5597095998
0.5597097312
0.5597098529
0.5597099629
0.5597100575
0.5597101308
0.5597101787
0.5597102105
0.5597102229
0.5597102176
0.5597101886
0.5597101296
0.5597100359
0.5597099034
0.5597097287
0.5597095082
0.5597092384
0.5597089154
0.5597085351
0.5597080927
0.5597075835
0.5597070021
0.5597063435
0.5597056021
0.5597047728
0.5597038499
0.5597028282
0.5597017022
0.5597004664
0.5596991154
0.5596976437
0.5596960464
0.5596943183
0.559692455
0.5596904522
0.5596883062
0.5596860138
0.5596835721
0.5596809788
0.5596782323
0.5596753314
0.5596722757
0.5596690655
0.5596657021
0.5596621876
0.5596585252
0.5596547193
0.5596507749
0.5596466982
0.5596424965
0.5596381779
0.5596337517
0.5596292282
0.5596246191
0.5596199371
0.5596151961
0.559610411
0.5596055975
0.5596007722
0.559595952
0.5595911543
0.5595863971
0.5595816987
0.5595770779
0.559572554
0.5595681465
0.5595638748
0.5595597582
0.5595558151
0.5595520631
0.5595485186
0.5595451967
0.5595421116
0.5595392762
0.5595367033
0.5595344046
0.5595323922
0.5595306777
0.5595292756
0.5595282208
0.5595275949
0.5595274149
0.5595273815
0.5595274844
0.5595278012
0.5595283885
0.5595292818
0.5595304876
0.5595320001
0.5595338073
0.5595358932
0.5595382403
0.5595408303
0.5595436448
0.5595466664
0.5595498779
0.5595532631
0.5595568062
0.5595604914
0.5595643022
0.5595682202
0.5595722256
0.5595762977
0.5595804166
0.5595845646
0.5595887263
0.5595928865
0.5595970284
0.5596011331
0.5596051808
0.5596091517
0.559613023
0.5596167578
0.5596202927
0.5596235186
0.5596262487
0.5596282807
0.5596289983
0.5596278375
0.5596232345
0.5596131444
0.5595941179
0.5595607832
0.5595049385
0.5594142923
0.5592708521
0.5590488892
0.5587125137
0.5582129783
0.5574859629
0.5564492707
0.5550015725
0.553023028
0.5503787393
0.5469259363
0.542525425
0.5370571908
0.530438963
0.522645302
0.5137237776
0.5038044756
0.4930997168
0.481892583
0.470515202
0.4593199733
0.4486479193
0.4387997293
0.4300123224
0.4224426286
0.4161611387
0.4111542935
0.407334386
0.4045565438
0.4026403543
0.4013932164
0.400631869
0.4001986846
0.3999705599
0.3998602107
0.3998115989
0.3997922903
0.3997854614
0.3997833512
0.3997828046
0.3997827051
0.3997827111
0.3997827362
0.3997827606
0.3997827813
0.3997827996
0.3997828178
0.399782837
0.3997828574
0.3997828784
0.3997828987
0.3997829176
0.3997829345
0.3997829496
0.3997829631
0.3997829753
0.3997829863
0.3997829964
0.3997830058
0.399783015
0.3997830241
0.3997830337
0.3997830439
0.3997830547
0.399783066
0.3997830777
0.3997830893
0.3997831008
0.399783112
0.3997831229
0.3997831336
0.3997831442
0.399783155
0.3997831659
0.3997831772
0.3997831888
0.3997832006
0.3997832126
0.3997832245
0.3997832364
0.3997832481
0.3997832596
0.3997832709
0.3997832822
0.3997832934
0.3997833048
0.3997833164
0.399783328
0.3997833398
0.3997833517
0.3997833635
0.3997833752
0.3997833867
0.3997833981
0.3997834094
0.3997834206
0.3997834317
0.3997834429
0.3997834542
0.3997834655
0.3997834769
0.3997834883
0.3997834996
0.3997835109
0.3997835222
0.3997835333
0.3997835443
0.3997835552
0.3997835661
0.3997835771
0.399783588
0.399783599
0.39978361
0.3997836211
0.3997836321
0.3997836431
0.399783654
0.3997836649
0.3997836758
0.3997836866
0.3997836973
0.3997837081
0.3997837189
0.3997837297
0.3997837405
0.3997837513
0.3997837621
0.3997837729
0.3997837837
0.3997837944
0.3997838051
0.3997838158
0.3997838264
0.3997838371
0.3997838477
0.3997838583
0.399783869
0.3997838795
0.3997838901
0.3997839006
0.3997839111
0.3997839216
0.399783932
0.3997839424
0.3997839527
0.3997839631
0.3997839735
0.3997839839
0.3997839943
0.3997840047
0.3997840151
0.3997840256
0.399784036
0.3997840465
0.3997840569
0.3997840672
0.3997840776
0.399784088
0.3997840983
0.3997841086
0.399784119
0.3997841293
0.3997841396
0.3997841499
0.3997841601
0.3997841704
0.3997841807
0.3997841909
0.3997842011
0.3997842113
0.3997842215
0.3997842317
0.3997842419
0.399784252
0.3997842622
0.3997842723
0.3997842824
0.3997842926
0.3997843027
0.3997843128
0.3997843229
0.3997843329
0.399784343
0.3997843531
0.3997843631
0.3997843732
0.3997843832
0.3997843933
0.3997844033
0.3997844133
0.3997844233
0.3997844333
0.3997844433
0.3997844533
0.3997844633
0.3997844732
0.3997844832
0.3997844932
0.3997845032
0.3997845132
0.3997845233
0.3997845334
0.3997845435
0.3997845537
0.399784564
0.3997845743
0.3997845847
0.3997845953
0.399784606
0.3997846168
0.3997846279
0.3997846391
0.3997846507
0.3997846626
0.3997846749
0.3997846876
0.3997847009
0.3997847147
0.3997847293
0.3997847446
0.3997847608
0.3997847779
0.3997847962
0.3997848156
0.3997848363
0.3997848584
0.3997848821
0.3997849075
0.3997849346
0.3997849637
0.3997849949
0.3997850282
0.399785064
0.3997851022
0.3997851431
0.3997851868
0.3997852335
0.3997852833
0.3997853364
0.3997853929
0.3997854529
0.3997855167
0.3997855842
0.3997856556
0.399785731
0.3997858105
0.3997858941
0.3997859817
0.3997860735
0.3997861694
0.3997862693
0.399786373
0.3997864806
0.3997865918
0.3997867064
0.3997868243
0.3997869451
0.3997870686
0.3997871945
0.3997873224
0.3997874519
0.3997875825
0.3997877138
0.3997878453
0.3997879766
0.399788107
0.3997882359
0.3997883629
0.3997884873
0.3997886084
0.3997887257
0.3997888385
0.3997889462
0.3997890482
0.399789144
0.3997892328
0.3997893141
0.3997893871
0.3997894514
0.3997895063
0.3997895516
0.3997895868
0.3997896117
0.3997896262
0.3997896307
0.3997896255
0.3997896085
0.3997895797
0.3997895407
0.3997894891
0.3997894245
0.3997893498
0.3997892651
0.3997891685
0.3997890607
0.3997889421
0.399788813
0.3997886739
0.3997885251
0.3997883671
0.3997882003
0.3997880254
0.3997878425
0.3997876521
0.3997874546
0.3997872506
0.3997870407
0.3997868256
0.3997866056
0.3997863815
0.3997861535
0.3997859223
0.3997856882
0.3997854519
0.3997852138
0.3997849745
0.3997847344
0.3997844938
)
;

boundaryField
{
    sides
    {
        type            calculated;
        value           nonuniform List<scalar> 2(0.3997842531 -0.5597016668);
    }
    empty
    {
        type            empty;
        value           nonuniform 0();
    }
}


// ************************************************************************* //
