/*--------------------------------*- C++ -*----------------------------------*\
| =========                 |                                                 |
| \\      /  F ield         | OpenFOAM: The Open Source CFD Toolbox           |
|  \\    /   O peration     | Version:  v1812                                 |
|   \\  /    A nd           | Web:      www.OpenFOAM.com                      |
|    \\/     M anipulation  |                                                 |
\*---------------------------------------------------------------------------*/
FoamFile
{
    version     2.0;
    format      ascii;
    class       volScalarField;
    location    "2";
    object      rho;
}
// * * * * * * * * * * * * * * * * * * * * * * * * * * * * * * * * * * * * * //

dimensions      [1 -3 0 0 0 0 0];


internalField   nonuniform List<scalar> 
1000
(
1.399254167
1.399254166
1.399254166
1.399254165
1.399254165
1.399254164
1.399254164
1.399254163
1.399254163
1.399254162
1.399254162
1.399254161
1.399254161
1.39925416
1.399254159
1.399254158
1.399254156
1.399254154
1.399254152
1.39925415
1.399254148
1.399254147
1.399254146
1.399254146
1.399254146
1.399254146
1.399254147
1.399254148
1.399254149
1.39925415
1.39925415
1.399254151
1.399254151
1.399254151
1.399254151
1.39925415
1.39925415
1.399254149
1.399254148
1.399254146
1.399254145
1.399254143
1.399254142
1.399254141
1.399254141
1.399254141
1.399254141
1.399254142
1.399254143
1.399254146
1.399254151
1.399254159
1.39925417
1.399254183
1.399254199
1.399254215
1.39925423
1.399254242
1.399254251
1.399254255
1.399254257
1.399254257
1.399254256
1.399254253
1.399254247
1.399254236
1.399254222
1.399254207
1.399254193
1.399254182
1.399254174
1.399254169
1.399254167
1.399254166
1.399254164
1.399254162
1.399254161
1.399254159
1.399254157
1.399254154
1.399254149
1.399254144
1.399254137
1.399254129
1.39925412
1.399254109
1.399254097
1.399254084
1.399254069
1.399254053
1.399254035
1.399254015
1.399253993
1.399253969
1.399253942
1.399253913
1.399253881
1.399253846
1.399253808
1.399253768
1.399253724
1.399253677
1.399253627
1.399253573
1.399253517
1.399253457
1.399253395
1.39925333
1.399253262
1.399253192
1.39925312
1.399253046
1.399252971
1.399252895
1.399252818
1.399252741
1.399252664
1.399252587
1.399252512
1.399252438
1.399252367
1.399252299
1.399252234
1.399252173
1.399252116
1.399252065
1.399252018
1.399251978
1.399251943
1.399251915
1.399251894
1.399251881
1.399251875
1.399251875
1.399251883
1.399251897
1.39925192
1.399251953
1.399251994
1.399252042
1.399252097
1.399252158
1.399252225
1.399252298
1.399252376
1.399252458
1.399252543
1.399252631
1.399252722
1.399252815
1.39925291
1.399253005
1.399253102
1.399253199
1.399253296
1.399253394
1.399253491
1.399253588
1.399253685
1.39925378
1.399253875
1.399253968
1.399254059
1.399254149
1.399254237
1.399254322
1.399254406
1.399254486
1.399254564
1.399254638
1.39925471
1.399254778
1.399254844
1.399254908
1.399254969
1.399255027
1.399255084
1.399255138
1.399255191
1.399255241
1.39925529
1.399255337
1.399255384
1.399255429
1.399255473
1.399255516
1.399255559
1.399255601
1.399255642
1.399255683
1.399255724
1.399255765
1.399255805
1.399255846
1.399255886
1.399255927
1.399255967
1.399256008
1.399256049
1.39925609
1.399256131
1.399256172
1.399256213
1.399256254
1.399256295
1.399256335
1.399256375
1.399256416
1.399256455
1.399256495
1.399256534
1.399256572
1.39925661
1.399256646
1.399256682
1.399256716
1.39925675
1.399256782
1.399256813
1.399256842
1.39925687
1.399256897
1.399256921
1.399256944
1.399256965
1.399256985
1.399257002
1.399257017
1.39925703
1.399257042
1.399257051
1.399257057
1.399257061
1.399257063
1.399257063
1.399257061
1.399257058
1.399257051
1.399257043
1.399257033
1.39925702
1.399257006
1.39925699
1.399256971
1.399256951
1.399256929
1.399256905
1.399256879
1.399256851
1.399256823
1.399256792
1.399256761
1.399256728
1.399256694
1.399256659
1.399256623
1.399256586
1.399256549
1.399256511
1.399256473
1.399256434
1.399256395
1.399256356
1.399256316
1.399256277
1.399256238
1.399256199
1.39925616
1.399256122
1.399256084
1.399256047
1.39925601
1.399255975
1.39925594
1.399255905
1.399255872
1.399255839
1.399255808
1.399255777
1.399255748
1.399255719
1.399255691
1.399255665
1.399255639
1.399255615
1.399255592
1.399255569
1.399255548
1.399255528
1.399255509
1.399255491
1.399255474
1.399255457
1.399255442
1.399255428
1.399255415
1.399255402
1.399255391
1.39925538
1.39925537
1.399255361
1.399255353
1.399255345
1.399255338
1.399255332
1.399255327
1.399255322
1.399255317
1.399255313
1.39925531
1.399255307
1.399255305
1.399255303
1.399255301
1.3992553
1.399255299
1.399255299
1.399255299
1.399255299
1.399255299
1.3992553
1.399255301
1.399255302
1.399255303
1.399255305
1.399255307
1.399255308
1.39925531
1.399255312
1.399255314
1.399255317
1.399255319
1.399255321
1.399255323
1.399255325
1.399255327
1.399255329
1.399255331
1.399255333
1.399255334
1.399255335
1.399255335
1.399255335
1.399255334
1.399255332
1.399255329
1.399255325
1.39925532
1.399255313
1.399255304
1.399255292
1.399255278
1.399255262
1.399255241
1.399255217
1.399255188
1.399255155
1.399255115
1.39925507
1.399255017
1.399254956
1.399254886
1.399254807
1.399254716
1.399254614
1.399254498
1.399254369
1.399254224
1.399254063
1.399253884
1.399253686
1.399253469
1.39925323
1.399252968
1.399252684
1.399252375
1.399252041
1.399251681
1.399251295
1.399250882
1.399250443
1.399249977
1.399249484
1.399248965
1.399248421
1.399247852
1.39924726
1.399246646
1.399246013
1.399245361
1.399244695
1.399244015
1.399243325
1.399242629
1.399241929
1.39924123
1.399240534
1.399239846
1.399239171
1.399238511
1.399237872
1.399237256
1.399236668
1.399236112
1.399235592
1.39923511
1.399234671
1.399234279
1.399233938
1.39923365
1.399233419
1.399233246
1.399233131
1.399233067
1.399233043
1.399233046
1.399233073
1.399233165
1.399233339
1.399233584
1.399233886
1.399234238
1.399234638
1.399235084
1.399235572
1.399236101
1.399236665
1.399237263
1.399237891
1.399238544
1.399239219
1.399239913
1.399240621
1.39924134
1.399242067
1.399242798
1.399243529
1.399244258
1.399244982
1.399245697
1.399246403
1.399247095
1.399247773
1.399248435
1.399249078
1.399249702
1.399250305
1.399250886
1.399251445
1.399251981
1.399252495
1.399252984
1.399253451
1.399253894
1.399254314
1.399254711
1.399255086
1.39925544
1.399255773
1.399256085
1.399256378
1.399256652
1.399256909
1.399257149
1.399257373
1.399257581
1.399257775
1.399257956
1.399258124
1.39925828
1.399258425
1.39925856
1.399258685
1.399258801
1.399258909
1.39925901
1.399259103
1.39925919
1.39925927
1.399259345
1.399259416
1.399259481
1.399259542
1.3992596
1.399259653
1.399259704
1.399259752
1.399259797
1.39925984
1.39925988
1.399259919
1.399259956
1.399259991
1.399260025
1.399260058
1.399260089
1.399260119
1.399260148
1.399260176
1.399260204
1.399260231
1.399260257
1.399260283
1.399260308
1.399260333
1.399260358
1.399260383
1.399260407
1.39926043
1.399260454
1.399260477
1.3992605
1.399260523
1.399260546
1.39926057
1.399260594
1.399260619
1.399260645
1.399260672
1.399260699
1.399260725
1.399260749
1.399260772
1.399260792
1.399260812
1.399260831
1.399260853
1.399260878
1.399260907
1.399260938
1.399260971
1.399261005
1.399261039
1.399261071
1.399261101
1.399261129
1.399261156
1.399261182
1.39926121
1.399261239
1.399261269
1.399261301
1.399261334
1.399261368
1.399261401
1.399261435
1.399261468
1.399261501
1.399261534
1.399261567
1.399261599
1.399261631
1.399261663
1.399261694
1.399261724
1.399261753
1.39926178
1.399261806
1.39926183
1.399261853
1.399261873
1.399261889
1.399261902
1.39926191
1.399261912
1.399261911
1.399261904
1.399261894
1.399261878
1.399261854
1.399261822
1.399261781
1.399261729
1.399261667
1.399261593
1.399261507
1.399261407
1.399261292
1.399261161
1.399261014
1.399260848
1.399260663
1.399260457
1.399260229
1.399259979
1.399259703
1.399259403
1.399259075
1.399258719
1.399258335
1.39925792
1.399257474
1.399256996
1.399256485
1.39925594
1.399255361
1.399254748
1.399254099
1.399253416
1.399252697
1.399251943
1.399251155
1.399250333
1.399249478
1.399248591
1.399247673
1.399246725
1.39924575
1.399244749
1.399243725
1.399242681
1.399241618
1.399240541
1.399239452
1.399238355
1.399237252
1.399236149
1.399235049
1.399233955
1.399232873
1.399231807
1.399230761
1.399229739
1.399228745
1.399227785
1.399226862
1.399225979
1.399225141
1.399224352
1.399223615
1.399222934
1.399222311
1.39922175
1.399221252
1.39922082
1.399220457
1.399220167
1.399219962
1.399219856
1.399219831
1.399219836
1.399219875
1.39921997
1.399220129
1.399220359
1.399220659
1.399221025
1.399221456
1.399221948
1.399222497
1.399223099
1.399223751
1.399224449
1.399225189
1.399225968
1.39922678
1.399227622
1.399228489
1.399229378
1.399230285
1.399231205
1.399232136
1.399233072
1.399234009
1.399234941
1.399235859
1.399236752
1.399237601
1.399238372
1.399239006
1.399239407
1.399239405
1.399238679
1.399236713
1.399232543
1.399224511
1.399210046
1.399184695
1.399141446
1.399069234
1.398950976
1.398760879
1.398460828
1.397995792
1.397288221
1.396231613
1.394683723
1.392460277
1.38933051
1.385016401
1.379197839
1.371526062
1.361647188
1.349236384
1.334041008
1.315928156
1.294929142
1.271271747
1.245391425
1.217915768
1.189621765
1.161371338
1.13403497
1.10841507
1.085180303
1.064817249
1.04760297
1.033600534
1.022675568
1.014530599
1.008753787
1.004875456
1.002424341
1.000974767
1.000177773
0.9997732488
0.9995851714
0.999505763
0.9994756163
0.9994654432
0.9994624347
0.9994616707
0.9994615134
0.9994614929
0.9994614981
0.9994615064
0.999461515
0.9994615265
0.9994615429
0.999461564
0.9994615876
0.9994616103
0.9994616292
0.999461643
0.9994616521
0.9994616577
0.9994616613
0.9994616636
0.9994616652
0.9994616662
0.9994616667
0.9994616667
0.9994616666
0.9994616669
0.9994616674
0.9994616679
0.9994616686
0.9994616693
0.9994616699
0.9994616705
0.9994616709
0.9994616712
0.9994616713
0.9994616713
0.9994616712
0.9994616711
0.999461671
0.9994616708
0.9994616707
0.9994616705
0.9994616702
0.9994616699
0.9994616696
0.9994616691
0.9994616687
0.9994616681
0.9994616676
0.9994616671
0.9994616666
0.9994616661
0.9994616656
0.9994616651
0.9994616646
0.9994616641
0.9994616635
0.9994616629
0.9994616623
0.9994616616
0.999461661
0.9994616604
0.9994616598
0.9994616592
0.9994616586
0.999461658
0.9994616574
0.9994616569
0.9994616563
0.9994616556
0.999461655
0.9994616544
0.9994616537
0.9994616531
0.9994616525
0.9994616519
0.9994616513
0.9994616508
0.9994616502
0.9994616496
0.9994616491
0.9994616485
0.9994616479
0.9994616473
0.9994616467
0.9994616461
0.9994616456
0.999461645
0.9994616445
0.9994616439
0.9994616434
0.9994616428
0.9994616423
0.9994616418
0.9994616412
0.9994616407
0.9994616402
0.9994616396
0.9994616391
0.9994616386
0.9994616381
0.9994616375
0.999461637
0.9994616365
0.999461636
0.9994616355
0.9994616349
0.9994616344
0.9994616339
0.9994616333
0.9994616328
0.9994616323
0.9994616318
0.9994616313
0.9994616309
0.9994616304
0.9994616299
0.9994616294
0.999461629
0.9994616285
0.999461628
0.9994616275
0.9994616271
0.9994616266
0.9994616261
0.9994616257
0.9994616252
0.9994616248
0.9994616243
0.9994616239
0.9994616234
0.999461623
0.9994616226
0.9994616221
0.9994616217
0.9994616212
0.9994616208
0.9994616203
0.9994616198
0.9994616194
0.9994616189
0.9994616185
0.999461618
0.9994616176
0.9994616172
0.9994616168
0.9994616164
0.999461616
0.9994616156
0.9994616152
0.9994616149
0.9994616145
0.9994616142
0.9994616138
0.9994616134
0.999461613
0.9994616126
0.9994616121
0.9994616117
0.9994616112
0.9994616107
0.9994616103
0.9994616098
0.9994616093
0.9994616088
0.9994616083
0.9994616078
0.9994616072
0.9994616066
0.999461606
0.9994616054
0.9994616047
0.999461604
0.9994616032
0.9994616023
0.9994616014
0.9994616004
0.9994615994
0.9994615982
0.9994615969
0.9994615955
0.999461594
0.9994615923
0.9994615904
0.9994615883
0.9994615859
0.9994615833
0.9994615804
0.9994615771
0.9994615735
0.9994615695
0.999461565
0.9994615601
0.9994615547
0.9994615488
0.9994615423
0.9994615352
0.9994615275
0.9994615191
0.99946151
0.9994615002
0.9994614896
0.9994614782
0.999461466
0.9994614529
0.9994614389
0.9994614239
0.999461408
0.9994613911
0.9994613733
0.9994613544
0.9994613345
0.9994613135
0.9994612916
0.9994612687
0.9994612447
0.9994612199
0.9994611941
0.9994611675
0.99946114
0.9994611117
0.9994610827
0.9994610531
0.9994610229
0.9994609923
0.9994609612
0.9994609298
0.9994608983
0.9994608666
0.999460835
0.9994608035
0.9994607722
0.9994607414
0.999460711
0.9994606813
0.9994606524
0.9994606243
0.9994605972
0.9994605713
0.9994605465
0.9994605232
0.9994605012
0.9994604809
0.9994604622
0.9994604452
0.9994604299
0.9994604163
0.9994604044
0.9994603941
0.9994603851
0.9994603786
0.9994603737
0.9994603703
0.9994603691
0.9994603694
0.999460371
0.9994603743
0.9994603792
0.9994603854
0.9994603929
0.9994604016
0.9994604112
0.9994604218
0.9994604331
0.9994604451
0.9994604575
0.9994604703
0.9994604834
0.9994604967
0.9994605099
0.999460523
0.9994605358
0.9994605483
0.9994605602
0.9994605716
0.9994605823
0.9994605923
0.9994606015
0.9994606097
0.9994606168
0.9994606211
0.9994606328
)
;

boundaryField
{
    sides
    {
        type            calculated;
        value           nonuniform List<scalar> 2(0.9994606328 1.399254167);
    }
    empty
    {
        type            empty;
    }
}


// ************************************************************************* //
