/*--------------------------------*- C++ -*----------------------------------*\
| =========                 |                                                 |
| \\      /  F ield         | OpenFOAM: The Open Source CFD Toolbox           |
|  \\    /   O peration     | Version:  v1812                                 |
|   \\  /    A nd           | Web:      www.OpenFOAM.com                      |
|    \\/     M anipulation  |                                                 |
\*---------------------------------------------------------------------------*/
FoamFile
{
    version     2.0;
    format      ascii;
    class       volScalarField;
    location    "2";
    object      T;
}
// * * * * * * * * * * * * * * * * * * * * * * * * * * * * * * * * * * * * * //

dimensions      [0 0 0 1 0 0 0];


internalField   nonuniform List<scalar> 
1000
(
0.002492707414
0.002492707414
0.002492707414
0.002492707414
0.002492707414
0.002492707414
0.002492707414
0.002492707414
0.002492707414
0.002492707414
0.002492707414
0.002492707415
0.002492707415
0.002492707416
0.002492707417
0.002492707418
0.00249270742
0.002492707423
0.002492707427
0.00249270743
0.002492707433
0.002492707435
0.002492707435
0.002492707436
0.002492707435
0.002492707435
0.002492707434
0.002492707432
0.002492707429
0.002492707427
0.002492707426
0.002492707425
0.002492707425
0.002492707425
0.002492707425
0.002492707425
0.002492707426
0.002492707428
0.00249270743
0.002492707432
0.002492707435
0.002492707438
0.00249270744
0.002492707442
0.002492707443
0.002492707443
0.002492707443
0.002492707442
0.002492707439
0.002492707434
0.002492707425
0.002492707412
0.002492707393
0.00249270737
0.002492707343
0.002492707314
0.002492707287
0.002492707266
0.002492707251
0.002492707243
0.002492707241
0.002492707241
0.002492707243
0.002492707248
0.00249270726
0.002492707279
0.002492707303
0.002492707329
0.002492707354
0.002492707373
0.002492707385
0.002492707391
0.002492707393
0.002492707392
0.002492707391
0.002492707389
0.002492707386
0.002492707382
0.002492707377
0.002492707373
0.002492707369
0.002492707365
0.002492707361
0.002492707357
0.002492707352
0.002492707347
0.00249270734
0.002492707332
0.002492707323
0.002492707312
0.0024927073
0.002492707286
0.00249270727
0.002492707252
0.002492707233
0.002492707212
0.002492707189
0.002492707164
0.002492707137
0.002492707108
0.002492707077
0.002492707044
0.002492707008
0.002492706971
0.002492706931
0.002492706889
0.002492706845
0.0024927068
0.002492706752
0.002492706702
0.002492706652
0.002492706599
0.002492706546
0.002492706492
0.002492706437
0.002492706382
0.002492706328
0.002492706273
0.00249270622
0.002492706168
0.002492706118
0.00249270607
0.002492706024
0.002492705982
0.002492705942
0.002492705906
0.002492705874
0.002492705845
0.00249270582
0.002492705799
0.002492705781
0.002492705768
0.002492705759
0.002492705753
0.00249270575
0.002492705749
0.002492705752
0.00249270576
0.002492705773
0.00249270579
0.002492705812
0.002492705839
0.002492705872
0.002492705911
0.002492705956
0.002492706007
0.002492706063
0.002492706124
0.002492706191
0.002492706261
0.002492706335
0.002492706413
0.002492706493
0.002492706574
0.002492706657
0.002492706739
0.002492706821
0.002492706902
0.002492706981
0.002492707058
0.002492707133
0.002492707205
0.002492707275
0.002492707341
0.002492707405
0.002492707466
0.002492707525
0.00249270758
0.002492707634
0.002492707685
0.002492707735
0.002492707783
0.002492707829
0.002492707874
0.002492707917
0.002492707958
0.002492707998
0.002492708037
0.002492708075
0.00249270811
0.002492708145
0.002492708179
0.002492708212
0.002492708244
0.002492708275
0.002492708306
0.002492708336
0.002492708366
0.002492708396
0.002492708425
0.002492708455
0.002492708484
0.002492708513
0.002492708542
0.002492708572
0.002492708601
0.00249270863
0.002492708659
0.002492708689
0.002492708718
0.002492708747
0.002492708776
0.002492708805
0.002492708834
0.002492708864
0.002492708893
0.002492708922
0.00249270895
0.002492708979
0.002492709006
0.002492709033
0.00249270906
0.002492709086
0.002492709112
0.002492709137
0.002492709162
0.002492709186
0.002492709209
0.002492709231
0.002492709252
0.002492709272
0.002492709291
0.002492709308
0.002492709324
0.002492709339
0.002492709353
0.002492709365
0.002492709376
0.002492709385
0.002492709393
0.002492709399
0.002492709404
0.002492709406
0.002492709407
0.002492709407
0.002492709406
0.002492709403
0.002492709398
0.002492709393
0.002492709385
0.002492709376
0.002492709366
0.002492709354
0.002492709341
0.002492709326
0.00249270931
0.002492709293
0.002492709275
0.002492709255
0.002492709235
0.002492709213
0.00249270919
0.002492709167
0.002492709142
0.002492709117
0.002492709092
0.002492709065
0.002492709038
0.002492709011
0.002492708984
0.002492708956
0.002492708928
0.0024927089
0.002492708872
0.002492708844
0.002492708816
0.002492708789
0.002492708761
0.002492708734
0.002492708707
0.002492708681
0.002492708655
0.00249270863
0.002492708605
0.00249270858
0.002492708557
0.002492708533
0.002492708511
0.002492708489
0.002492708468
0.002492708448
0.002492708428
0.002492708409
0.002492708391
0.002492708374
0.002492708357
0.002492708341
0.002492708326
0.002492708312
0.002492708298
0.002492708286
0.002492708273
0.002492708262
0.002492708251
0.002492708241
0.002492708232
0.002492708223
0.002492708215
0.002492708207
0.0024927082
0.002492708194
0.002492708188
0.002492708183
0.002492708178
0.002492708173
0.002492708169
0.002492708166
0.002492708163
0.00249270816
0.002492708158
0.002492708156
0.002492708154
0.002492708152
0.002492708151
0.002492708151
0.00249270815
0.00249270815
0.00249270815
0.00249270815
0.00249270815
0.002492708151
0.002492708151
0.002492708152
0.002492708153
0.002492708154
0.002492708155
0.002492708156
0.002492708158
0.002492708159
0.002492708161
0.002492708162
0.002492708164
0.002492708166
0.002492708167
0.002492708169
0.002492708171
0.002492708172
0.002492708174
0.002492708175
0.002492708175
0.002492708176
0.002492708176
0.002492708176
0.002492708175
0.002492708174
0.002492708172
0.002492708169
0.002492708165
0.00249270816
0.002492708154
0.002492708146
0.002492708136
0.002492708124
0.00249270811
0.002492708093
0.002492708073
0.00249270805
0.002492708022
0.00249270799
0.002492707953
0.00249270791
0.002492707861
0.002492707804
0.00249270774
0.002492707668
0.002492707586
0.002492707494
0.002492707392
0.002492707277
0.00249270715
0.00249270701
0.002492706855
0.002492706686
0.002492706501
0.002492706299
0.002492706081
0.002492705844
0.002492705589
0.002492705316
0.002492705023
0.002492704712
0.002492704381
0.002492704032
0.002492703663
0.002492703277
0.002492702873
0.002492702452
0.002492702016
0.002492701566
0.002492701103
0.002492700628
0.002492700145
0.002492699654
0.002492699157
0.002492698659
0.00249269816
0.002492697664
0.002492697173
0.00249269669
0.002492696219
0.002492695761
0.002492695321
0.0024926949
0.002492694502
0.002492694129
0.002492693784
0.002492693469
0.002492693188
0.002492692942
0.002492692734
0.002492692567
0.002492692441
0.002492692356
0.002492692308
0.002492692291
0.002492692294
0.002492692312
0.002492692377
0.002492692496
0.002492692665
0.002492692876
0.002492693125
0.002492693407
0.002492693722
0.002492694068
0.002492694443
0.002492694843
0.002492695268
0.002492695714
0.002492696178
0.002492696658
0.002492697151
0.002492697655
0.002492698167
0.002492698685
0.002492699205
0.002492699726
0.002492700246
0.002492700762
0.002492701273
0.002492701776
0.00249270227
0.002492702754
0.002492703226
0.002492703685
0.002492704131
0.002492704561
0.002492704977
0.002492705376
0.00249270576
0.002492706126
0.002492706476
0.00249270681
0.002492707126
0.002492707427
0.002492707711
0.002492707979
0.002492708232
0.00249270847
0.002492708694
0.002492708904
0.002492709101
0.002492709285
0.002492709457
0.002492709617
0.002492709766
0.002492709905
0.002492710035
0.002492710155
0.002492710267
0.002492710371
0.002492710467
0.002492710557
0.00249271064
0.002492710718
0.002492710789
0.002492710856
0.002492710918
0.002492710976
0.00249271103
0.00249271108
0.002492711127
0.002492711171
0.002492711212
0.002492711251
0.002492711287
0.002492711322
0.002492711354
0.002492711385
0.002492711414
0.002492711442
0.002492711468
0.002492711492
0.002492711516
0.00249271154
0.002492711562
0.002492711583
0.002492711604
0.002492711625
0.002492711644
0.002492711663
0.002492711682
0.0024927117
0.002492711718
0.002492711736
0.002492711753
0.002492711771
0.002492711788
0.002492711805
0.002492711822
0.00249271184
0.002492711857
0.002492711875
0.002492711893
0.00249271191
0.002492711926
0.00249271194
0.002492711953
0.002492711965
0.002492711978
0.002492711992
0.00249271201
0.002492712032
0.002492712058
0.002492712086
0.002492712115
0.002492712141
0.002492712162
0.002492712178
0.002492712189
0.002492712198
0.002492712207
0.002492712218
0.002492712232
0.002492712251
0.002492712274
0.002492712301
0.00249271233
0.002492712357
0.002492712383
0.002492712407
0.00249271243
0.002492712452
0.002492712473
0.002492712495
0.002492712518
0.002492712541
0.002492712565
0.002492712589
0.002492712613
0.002492712637
0.002492712661
0.002492712684
0.002492712707
0.002492712729
0.002492712751
0.002492712771
0.002492712791
0.002492712808
0.002492712825
0.002492712839
0.002492712851
0.00249271286
0.002492712865
0.002492712866
0.002492712865
0.00249271286
0.002492712852
0.002492712839
0.002492712821
0.002492712797
0.002492712766
0.002492712728
0.002492712683
0.002492712629
0.002492712566
0.002492712494
0.002492712411
0.002492712316
0.00249271221
0.002492712091
0.002492711957
0.002492711809
0.002492711646
0.002492711465
0.002492711268
0.002492711052
0.002492710816
0.002492710561
0.002492710286
0.002492709988
0.002492709669
0.002492709326
0.00249270896
0.002492708571
0.002492708156
0.002492707717
0.002492707253
0.002492706764
0.002492706249
0.00249270571
0.002492705147
0.002492704559
0.002492703948
0.002492703314
0.002492702658
0.002492701981
0.002492701285
0.00249270057
0.002492699839
0.002492699094
0.002492698336
0.002492697568
0.002492696792
0.002492696009
0.002492695224
0.002492694438
0.002492693655
0.002492692877
0.002492692107
0.002492691349
0.002492690605
0.002492689879
0.002492689174
0.002492688493
0.002492687838
0.002492687213
0.00249268662
0.002492686062
0.002492685542
0.002492685061
0.002492684623
0.002492684229
0.00249268388
0.002492683579
0.002492683327
0.002492683129
0.002492682993
0.002492682921
0.002492682904
0.002492682909
0.00249268294
0.002492683012
0.002492683131
0.0024926833
0.002492683518
0.002492683783
0.002492684094
0.002492684448
0.002492684843
0.002492685275
0.002492685742
0.002492686242
0.00249268677
0.002492687324
0.002492687899
0.002492688492
0.002492689102
0.002492689724
0.002492690357
0.002492690999
0.002492691647
0.0024926923
0.002492692956
0.002492693613
0.002492694279
0.002492694966
0.002492695701
0.002492696535
0.002492697563
0.002492698953
0.002492701014
0.002492704297
0.00249270976
0.002492719106
0.002492735138
0.002492762673
0.00249280948
0.002492888097
0.00249301826
0.002493230424
0.002493570619
0.002494106921
0.002494937788
0.002496202342
0.002498092438
0.002500865949
0.002504860201
0.002510503801
0.00251832442
0.002528949458
0.002543096086
0.002561547137
0.002585109891
0.002614556156
0.002650544298
0.00269352694
0.00274365187
0.002800667757
0.002863849992
0.002931964226
0.003003284782
0.003075680623
0.003146771966
0.00321414714
0.003275613083
0.003329438604
0.003374543563
0.003410593121
0.003437974625
0.003457662979
0.003471008022
0.003479495414
0.003484534396
0.003487311152
0.003488722254
0.003489378748
0.003489656036
0.003489761354
0.003489796931
0.003489807488
0.003489810202
0.003489810798
0.003489810908
0.003489810925
0.003489810926
0.003489810921
0.003489810903
0.003489810865
0.003489810808
0.003489810741
0.003489810677
0.003489810624
0.003489810589
0.003489810569
0.00348981056
0.003489810557
0.003489810556
0.003489810556
0.003489810556
0.003489810557
0.00348981056
0.003489810561
0.003489810562
0.003489810562
0.003489810562
0.003489810561
0.003489810559
0.003489810557
0.003489810554
0.003489810552
0.003489810549
0.003489810546
0.003489810544
0.003489810541
0.003489810539
0.003489810537
0.003489810535
0.003489810533
0.003489810531
0.00348981053
0.003489810528
0.003489810526
0.003489810524
0.003489810522
0.00348981052
0.003489810518
0.003489810516
0.003489810514
0.003489810512
0.00348981051
0.003489810509
0.003489810507
0.003489810505
0.003489810504
0.003489810502
0.0034898105
0.003489810499
0.003489810497
0.003489810495
0.003489810494
0.003489810492
0.003489810491
0.003489810489
0.003489810488
0.003489810486
0.003489810485
0.003489810483
0.003489810482
0.003489810481
0.003489810479
0.003489810478
0.003489810476
0.003489810475
0.003489810474
0.003489810473
0.003489810471
0.00348981047
0.003489810469
0.003489810468
0.003489810466
0.003489810465
0.003489810464
0.003489810463
0.003489810462
0.00348981046
0.003489810459
0.003489810458
0.003489810457
0.003489810456
0.003489810455
0.003489810454
0.003489810453
0.003489810452
0.003489810451
0.00348981045
0.003489810449
0.003489810448
0.003489810447
0.003489810446
0.003489810445
0.003489810444
0.003489810443
0.003489810442
0.003489810441
0.00348981044
0.003489810439
0.003489810438
0.003489810437
0.003489810436
0.003489810435
0.003489810434
0.003489810433
0.003489810432
0.003489810431
0.00348981043
0.00348981043
0.003489810429
0.003489810428
0.003489810427
0.003489810426
0.003489810426
0.003489810425
0.003489810424
0.003489810423
0.003489810422
0.003489810421
0.003489810421
0.00348981042
0.003489810419
0.003489810418
0.003489810417
0.003489810417
0.003489810416
0.003489810415
0.003489810415
0.003489810414
0.003489810413
0.003489810413
0.003489810412
0.003489810411
0.003489810411
0.00348981041
0.003489810409
0.003489810408
0.003489810408
0.003489810407
0.003489810406
0.003489810405
0.003489810404
0.003489810403
0.003489810402
0.003489810402
0.003489810401
0.0034898104
0.003489810399
0.003489810399
0.003489810398
0.003489810398
0.003489810397
0.003489810396
0.003489810396
0.003489810395
0.003489810394
0.003489810394
0.003489810393
0.003489810392
0.003489810391
0.00348981039
0.00348981039
0.003489810389
0.003489810388
0.003489810387
0.003489810386
0.003489810384
0.003489810383
0.003489810381
0.003489810379
0.003489810377
0.003489810375
0.003489810372
0.003489810369
0.003489810366
0.003489810362
0.003489810358
0.003489810354
0.003489810349
0.003489810343
0.003489810338
0.003489810331
0.003489810324
0.003489810317
0.003489810309
0.0034898103
0.00348981029
0.003489810279
0.003489810268
0.003489810255
0.003489810242
0.003489810227
0.003489810212
0.003489810195
0.003489810177
0.003489810157
0.003489810136
0.003489810114
0.003489810091
0.003489810066
0.003489810039
0.003489810012
0.003489809982
0.003489809952
0.00348980992
0.003489809886
0.003489809852
0.003489809816
0.003489809779
0.00348980974
0.003489809701
0.00348980966
0.003489809619
0.003489809577
0.003489809534
0.00348980949
0.003489809446
0.003489809402
0.003489809358
0.003489809314
0.00348980927
0.003489809226
0.003489809183
0.00348980914
0.003489809099
0.003489809058
0.003489809019
0.003489808981
0.003489808944
0.003489808909
0.003489808876
0.003489808845
0.003489808817
0.00348980879
0.003489808766
0.003489808744
0.003489808725
0.003489808708
0.003489808693
0.003489808681
0.003489808671
0.003489808664
0.003489808659
0.003489808657
0.003489808657
0.003489808659
0.003489808663
0.00348980867
0.003489808678
0.003489808688
0.0034898087
0.003489808713
0.003489808728
0.003489808743
0.00348980876
0.003489808777
0.003489808794
0.003489808813
0.003489808831
0.003489808849
0.003489808867
0.003489808885
0.003489808902
0.003489808919
0.003489808935
0.003489808949
0.003489808963
0.003489808976
0.003489808987
0.003489808999
0.003489809009
0.003489809013
)
;

boundaryField
{
    sides
    {
        type            zeroGradient;
    }
    empty
    {
        type            empty;
    }
}


// ************************************************************************* //
