/*--------------------------------*- C++ -*----------------------------------*\
| =========                 |                                                 |
| \\      /  F ield         | OpenFOAM: The Open Source CFD Toolbox           |
|  \\    /   O peration     | Version:  v1812                                 |
|   \\  /    A nd           | Web:      www.OpenFOAM.com                      |
|    \\/     M anipulation  |                                                 |
\*---------------------------------------------------------------------------*/
FoamFile
{
    version     2.0;
    format      ascii;
    class       volVectorField;
    location    "2";
    object      U;
}
// * * * * * * * * * * * * * * * * * * * * * * * * * * * * * * * * * * * * * //

dimensions      [0 1 -1 0 0 0 0];


internalField   nonuniform List<vector> 
1000
(
(0.1000000011 0 0)
(0.1000000042 0 0)
(0.100000007 0 0)
(0.1000000098 0 0)
(0.1000000125 0 0)
(0.1000000153 0 0)
(0.1000000181 0 0)
(0.1000000209 0 0)
(0.1000000237 0 0)
(0.1000000265 0 0)
(0.1000000292 0 0)
(0.100000032 0 0)
(0.1000000348 0 0)
(0.1000000376 0 0)
(0.1000000404 0 0)
(0.1000000431 0 0)
(0.1000000459 0 0)
(0.1000000487 0 0)
(0.1000000515 0 0)
(0.1000000542 0 0)
(0.100000057 0 0)
(0.1000000598 0 0)
(0.1000000625 0 0)
(0.1000000653 0 0)
(0.1000000681 0 0)
(0.1000000709 0 0)
(0.1000000736 0 0)
(0.1000000764 0 0)
(0.1000000792 0 0)
(0.100000082 0 0)
(0.1000000847 0 0)
(0.1000000875 0 0)
(0.1000000903 0 0)
(0.1000000931 0 0)
(0.1000000958 0 0)
(0.1000000986 0 0)
(0.1000001014 0 0)
(0.1000001042 0 0)
(0.100000107 0 0)
(0.1000001098 0 0)
(0.1000001125 0 0)
(0.1000001153 0 0)
(0.1000001181 0 0)
(0.1000001209 0 0)
(0.1000001237 0 0)
(0.1000001265 0 0)
(0.1000001293 0 0)
(0.1000001321 0 0)
(0.1000001349 0 0)
(0.1000001377 0 0)
(0.1000001405 0 0)
(0.1000001433 0 0)
(0.1000001461 0 0)
(0.1000001489 0 0)
(0.1000001517 0 0)
(0.1000001546 0 0)
(0.1000001574 0 0)
(0.1000001603 0 0)
(0.1000001631 0 0)
(0.100000166 0 0)
(0.1000001689 0 0)
(0.1000001718 0 0)
(0.1000001748 0 0)
(0.1000001778 0 0)
(0.1000001809 0 0)
(0.100000184 0 0)
(0.1000001872 0 0)
(0.1000001904 0 0)
(0.1000001937 0 0)
(0.1000001972 0 0)
(0.1000002008 0 0)
(0.1000002045 0 0)
(0.1000002084 0 0)
(0.1000002125 0 0)
(0.1000002169 0 0)
(0.1000002215 0 0)
(0.1000002265 0 0)
(0.1000002318 0 0)
(0.1000002375 0 0)
(0.1000002437 0 0)
(0.1000002504 0 0)
(0.1000002577 0 0)
(0.1000002656 0 0)
(0.1000002743 0 0)
(0.1000002838 0 0)
(0.1000002942 0 0)
(0.1000003055 0 0)
(0.100000318 0 0)
(0.1000003316 0 0)
(0.1000003465 0 0)
(0.1000003629 0 0)
(0.1000003807 0 0)
(0.1000004 0 0)
(0.1000004211 0 0)
(0.100000444 0 0)
(0.1000004687 0 0)
(0.1000004953 0 0)
(0.100000524 0 0)
(0.1000005548 0 0)
(0.1000005877 0 0)
(0.1000006229 0 0)
(0.1000006603 0 0)
(0.1000006999 0 0)
(0.1000007419 0 0)
(0.1000007861 0 0)
(0.1000008325 0 0)
(0.100000881 0 0)
(0.1000009316 0 0)
(0.100000984 0 0)
(0.1000010381 0 0)
(0.1000010938 0 0)
(0.1000011508 0 0)
(0.1000012089 0 0)
(0.1000012679 0 0)
(0.1000013274 0 0)
(0.1000013872 0 0)
(0.100001447 0 0)
(0.1000015063 0 0)
(0.1000015649 0 0)
(0.1000016223 0 0)
(0.1000016782 0 0)
(0.100001732 0 0)
(0.1000017834 0 0)
(0.1000018321 0 0)
(0.1000018777 0 0)
(0.1000019199 0 0)
(0.1000019586 0 0)
(0.1000019934 0 0)
(0.1000020242 0 0)
(0.1000020508 0 0)
(0.1000020727 0 0)
(0.1000020898 0 0)
(0.100002102 0 0)
(0.1000021106 0 0)
(0.1000021155 0 0)
(0.1000021151 0 0)
(0.1000021098 0 0)
(0.1000020983 0 0)
(0.1000020818 0 0)
(0.1000020607 0 0)
(0.1000020352 0 0)
(0.100002005 0 0)
(0.1000019704 0 0)
(0.1000019317 0 0)
(0.1000018891 0 0)
(0.1000018431 0 0)
(0.1000017941 0 0)
(0.1000017425 0 0)
(0.1000016886 0 0)
(0.1000016331 0 0)
(0.1000015761 0 0)
(0.1000015182 0 0)
(0.1000014597 0 0)
(0.100001401 0 0)
(0.1000013424 0 0)
(0.1000012844 0 0)
(0.1000012273 0 0)
(0.1000011714 0 0)
(0.100001117 0 0)
(0.1000010644 0 0)
(0.1000010138 0 0)
(0.1000009655 0 0)
(0.1000009197 0 0)
(0.1000008764 0 0)
(0.100000836 0 0)
(0.1000007985 0 0)
(0.100000764 0 0)
(0.1000007326 0 0)
(0.1000007045 0 0)
(0.1000006796 0 0)
(0.1000006579 0 0)
(0.1000006394 0 0)
(0.1000006239 0 0)
(0.1000006114 0 0)
(0.100000602 0 0)
(0.1000005954 0 0)
(0.1000005918 0 0)
(0.1000005907 0 0)
(0.1000005924 0 0)
(0.1000005973 0 0)
(0.1000006046 0 0)
(0.1000006139 0 0)
(0.1000006256 0 0)
(0.1000006396 0 0)
(0.1000006556 0 0)
(0.1000006735 0 0)
(0.1000006932 0 0)
(0.1000007147 0 0)
(0.1000007377 0 0)
(0.1000007623 0 0)
(0.1000007882 0 0)
(0.1000008155 0 0)
(0.100000844 0 0)
(0.1000008735 0 0)
(0.1000009041 0 0)
(0.1000009356 0 0)
(0.1000009679 0 0)
(0.1000010009 0 0)
(0.1000010345 0 0)
(0.1000010687 0 0)
(0.1000011033 0 0)
(0.1000011383 0 0)
(0.1000011735 0 0)
(0.1000012089 0 0)
(0.1000012444 0 0)
(0.10000128 0 0)
(0.1000013154 0 0)
(0.1000013507 0 0)
(0.1000013858 0 0)
(0.1000014205 0 0)
(0.1000014548 0 0)
(0.1000014887 0 0)
(0.100001522 0 0)
(0.1000015546 0 0)
(0.1000015865 0 0)
(0.1000016175 0 0)
(0.1000016478 0 0)
(0.100001677 0 0)
(0.1000017052 0 0)
(0.1000017324 0 0)
(0.1000017584 0 0)
(0.1000017831 0 0)
(0.1000018066 0 0)
(0.1000018287 0 0)
(0.1000018494 0 0)
(0.1000018687 0 0)
(0.1000018865 0 0)
(0.1000019028 0 0)
(0.1000019176 0 0)
(0.1000019308 0 0)
(0.1000019424 0 0)
(0.1000019522 0 0)
(0.1000019601 0 0)
(0.1000019662 0 0)
(0.1000019708 0 0)
(0.1000019746 0 0)
(0.1000019767 0 0)
(0.1000019769 0 0)
(0.1000019757 0 0)
(0.100001973 0 0)
(0.1000019688 0 0)
(0.100001963 0 0)
(0.1000019557 0 0)
(0.1000019469 0 0)
(0.1000019367 0 0)
(0.1000019252 0 0)
(0.1000019123 0 0)
(0.1000018981 0 0)
(0.1000018828 0 0)
(0.1000018663 0 0)
(0.1000018487 0 0)
(0.1000018302 0 0)
(0.1000018107 0 0)
(0.1000017904 0 0)
(0.1000017694 0 0)
(0.1000017476 0 0)
(0.1000017253 0 0)
(0.1000017024 0 0)
(0.1000016791 0 0)
(0.1000016554 0 0)
(0.1000016314 0 0)
(0.1000016072 0 0)
(0.1000015828 0 0)
(0.1000015584 0 0)
(0.100001534 0 0)
(0.1000015097 0 0)
(0.1000014855 0 0)
(0.1000014615 0 0)
(0.1000014378 0 0)
(0.1000014144 0 0)
(0.1000013913 0 0)
(0.1000013687 0 0)
(0.1000013466 0 0)
(0.100001325 0 0)
(0.1000013039 0 0)
(0.1000012834 0 0)
(0.1000012636 0 0)
(0.1000012444 0 0)
(0.1000012258 0 0)
(0.100001208 0 0)
(0.1000011908 0 0)
(0.1000011744 0 0)
(0.1000011587 0 0)
(0.1000011437 0 0)
(0.1000011295 0 0)
(0.100001116 0 0)
(0.1000011033 0 0)
(0.1000010912 0 0)
(0.10000108 0 0)
(0.1000010694 0 0)
(0.1000010596 0 0)
(0.1000010504 0 0)
(0.100001042 0 0)
(0.1000010342 0 0)
(0.1000010271 0 0)
(0.1000010206 0 0)
(0.1000010148 0 0)
(0.1000010096 0 0)
(0.1000010049 0 0)
(0.1000010009 0 0)
(0.1000009973 0 0)
(0.1000009943 0 0)
(0.1000009918 0 0)
(0.1000009898 0 0)
(0.1000009883 0 0)
(0.1000009872 0 0)
(0.1000009866 0 0)
(0.1000009864 0 0)
(0.1000009864 0 0)
(0.1000009868 0 0)
(0.1000009875 0 0)
(0.1000009886 0 0)
(0.1000009899 0 0)
(0.1000009916 0 0)
(0.1000009935 0 0)
(0.1000009958 0 0)
(0.1000009983 0 0)
(0.100001001 0 0)
(0.1000010039 0 0)
(0.1000010069 0 0)
(0.1000010101 0 0)
(0.1000010134 0 0)
(0.1000010169 0 0)
(0.1000010206 0 0)
(0.1000010244 0 0)
(0.1000010283 0 0)
(0.1000010324 0 0)
(0.1000010365 0 0)
(0.1000010408 0 0)
(0.1000010452 0 0)
(0.1000010497 0 0)
(0.1000010543 0 0)
(0.1000010591 0 0)
(0.1000010639 0 0)
(0.1000010689 0 0)
(0.100001074 0 0)
(0.1000010793 0 0)
(0.1000010849 0 0)
(0.1000010907 0 0)
(0.1000010969 0 0)
(0.1000011036 0 0)
(0.1000011107 0 0)
(0.1000011181 0 0)
(0.100001126 0 0)
(0.1000011346 0 0)
(0.1000011439 0 0)
(0.1000011542 0 0)
(0.1000011656 0 0)
(0.1000011782 0 0)
(0.1000011923 0 0)
(0.100001208 0 0)
(0.1000012255 0 0)
(0.1000012453 0 0)
(0.1000012675 0 0)
(0.1000012926 0 0)
(0.1000013208 0 0)
(0.1000013527 0 0)
(0.1000013886 0 0)
(0.1000014292 0 0)
(0.1000014749 0 0)
(0.1000015264 0 0)
(0.1000015843 0 0)
(0.1000016493 0 0)
(0.1000017221 0 0)
(0.1000018035 0 0)
(0.1000018941 0 0)
(0.100001995 0 0)
(0.1000021068 0 0)
(0.1000022304 0 0)
(0.1000023667 0 0)
(0.1000025165 0 0)
(0.1000026807 0 0)
(0.1000028601 0 0)
(0.1000030554 0 0)
(0.1000032675 0 0)
(0.1000034968 0 0)
(0.1000037441 0 0)
(0.1000040098 0 0)
(0.1000042943 0 0)
(0.100004598 0 0)
(0.1000049208 0 0)
(0.1000052629 0 0)
(0.100005624 0 0)
(0.1000060039 0 0)
(0.100006402 0 0)
(0.1000068177 0 0)
(0.10000725 0 0)
(0.1000076979 0 0)
(0.1000081601 0 0)
(0.1000086351 0 0)
(0.1000091212 0 0)
(0.1000096166 0 0)
(0.1000101192 0 0)
(0.1000106268 0 0)
(0.1000111369 0 0)
(0.1000116469 0 0)
(0.1000121542 0 0)
(0.1000126559 0 0)
(0.1000131492 0 0)
(0.1000136311 0 0)
(0.1000140988 0 0)
(0.1000145495 0 0)
(0.1000149802 0 0)
(0.1000153885 0 0)
(0.1000157714 0 0)
(0.1000161265 0 0)
(0.1000164509 0 0)
(0.1000167421 0 0)
(0.1000169972 0 0)
(0.1000172139 0 0)
(0.1000173901 0 0)
(0.1000175248 0 0)
(0.1000176189 0 0)
(0.1000176755 0 0)
(0.1000177032 0 0)
(0.1000177165 0 0)
(0.1000177065 0 0)
(0.1000176525 0 0)
(0.1000175399 0 0)
(0.100017377 0 0)
(0.1000171735 0 0)
(0.1000169338 0 0)
(0.1000166599 0 0)
(0.1000163536 0 0)
(0.1000160168 0 0)
(0.1000156516 0 0)
(0.1000152604 0 0)
(0.1000148455 0 0)
(0.1000144096 0 0)
(0.1000139553 0 0)
(0.1000134853 0 0)
(0.1000130022 0 0)
(0.1000125088 0 0)
(0.1000120077 0 0)
(0.1000115013 0 0)
(0.1000109922 0 0)
(0.1000104826 0 0)
(0.1000099748 0 0)
(0.1000094708 0 0)
(0.1000089726 0 0)
(0.1000084819 0 0)
(0.1000080004 0 0)
(0.1000075296 0 0)
(0.1000070707 0 0)
(0.1000066248 0 0)
(0.1000061931 0 0)
(0.1000057762 0 0)
(0.1000053749 0 0)
(0.1000049896 0 0)
(0.1000046208 0 0)
(0.1000042688 0 0)
(0.1000039336 0 0)
(0.1000036152 0 0)
(0.1000033137 0 0)
(0.1000030287 0 0)
(0.10000276 0 0)
(0.1000025073 0 0)
(0.1000022702 0 0)
(0.1000020482 0 0)
(0.1000018408 0 0)
(0.1000016474 0 0)
(0.1000014675 0 0)
(0.1000013004 0 0)
(0.1000011457 0 0)
(0.1000010025 0 0)
(0.1000008704 0 0)
(0.1000007487 0 0)
(0.1000006368 0 0)
(0.1000005342 0 0)
(0.1000004403 0 0)
(0.1000003544 0 0)
(0.1000002762 0 0)
(0.100000205 0 0)
(0.1000001404 0 0)
(0.1000000819 0 0)
(0.100000029 0 0)
(0.09999998144 0 0)
(0.09999993871 0 0)
(0.09999990048 0 0)
(0.09999986641 0 0)
(0.09999983619 0 0)
(0.0999998095 0 0)
(0.09999978607 0 0)
(0.09999976563 0 0)
(0.09999974792 0 0)
(0.09999973274 0 0)
(0.09999971987 0 0)
(0.09999970914 0 0)
(0.0999997004 0 0)
(0.09999969349 0 0)
(0.09999968828 0 0)
(0.09999968466 0 0)
(0.09999968246 0 0)
(0.09999968162 0 0)
(0.0999996818 0 0)
(0.09999968317 0 0)
(0.09999968602 0 0)
(0.09999968977 0 0)
(0.09999969427 0 0)
(0.09999969969 0 0)
(0.09999970597 0 0)
(0.09999971303 0 0)
(0.09999972082 0 0)
(0.09999972931 0 0)
(0.09999973846 0 0)
(0.09999974825 0 0)
(0.09999975865 0 0)
(0.09999976962 0 0)
(0.09999978116 0 0)
(0.09999979323 0 0)
(0.09999980583 0 0)
(0.09999981895 0 0)
(0.09999983256 0 0)
(0.09999984666 0 0)
(0.09999986125 0 0)
(0.09999987631 0 0)
(0.09999989184 0 0)
(0.09999990783 0 0)
(0.09999992428 0 0)
(0.09999994119 0 0)
(0.09999995856 0 0)
(0.09999997637 0 0)
(0.09999999464 0 0)
(0.1000000134 0 0)
(0.1000000325 0 0)
(0.1000000521 0 0)
(0.1000000722 0 0)
(0.1000000927 0 0)
(0.1000001137 0 0)
(0.1000001351 0 0)
(0.100000157 0 0)
(0.1000001793 0 0)
(0.1000002021 0 0)
(0.1000002253 0 0)
(0.100000249 0 0)
(0.1000002731 0 0)
(0.1000002976 0 0)
(0.1000003226 0 0)
(0.100000348 0 0)
(0.1000003738 0 0)
(0.1000004 0 0)
(0.1000004265 0 0)
(0.1000004534 0 0)
(0.1000004806 0 0)
(0.1000005081 0 0)
(0.1000005358 0 0)
(0.1000005637 0 0)
(0.1000005918 0 0)
(0.1000006199 0 0)
(0.100000648 0 0)
(0.1000006759 0 0)
(0.1000007037 0 0)
(0.1000007312 0 0)
(0.1000007582 0 0)
(0.1000007847 0 0)
(0.1000008104 0 0)
(0.1000008352 0 0)
(0.100000859 0 0)
(0.1000008815 0 0)
(0.1000009025 0 0)
(0.1000009218 0 0)
(0.100000939 0 0)
(0.1000009533 0 0)
(0.1000009637 0 0)
(0.10000097 0 0)
(0.100000974 0 0)
(0.1000009752 0 0)
(0.1000009727 0 0)
(0.1000009659 0 0)
(0.100000954 0 0)
(0.1000009362 0 0)
(0.1000009117 0 0)
(0.10000088 0 0)
(0.1000008407 0 0)
(0.100000793 0 0)
(0.1000007364 0 0)
(0.1000006701 0 0)
(0.1000005933 0 0)
(0.1000005052 0 0)
(0.1000004049 0 0)
(0.1000002917 0 0)
(0.1000001646 0 0)
(0.1000000228 0 0)
(0.09999986536 0 0)
(0.09999969142 0 0)
(0.09999950009 0 0)
(0.0999992905 0 0)
(0.09999906176 0 0)
(0.09999881301 0 0)
(0.09999854343 0 0)
(0.09999825225 0 0)
(0.09999793874 0 0)
(0.09999760228 0 0)
(0.09999724228 0 0)
(0.09999685828 0 0)
(0.09999644986 0 0)
(0.09999601669 0 0)
(0.09999555854 0 0)
(0.09999507528 0 0)
(0.09999456689 0 0)
(0.09999403349 0 0)
(0.09999347538 0 0)
(0.09999289298 0 0)
(0.09999228692 0 0)
(0.09999165795 0 0)
(0.09999100701 0 0)
(0.09999033519 0 0)
(0.09998964372 0 0)
(0.09998893403 0 0)
(0.09998820769 0 0)
(0.09998746648 0 0)
(0.09998671238 0 0)
(0.09998594755 0 0)
(0.09998517435 0 0)
(0.09998439528 0 0)
(0.09998361296 0 0)
(0.09998283011 0 0)
(0.09998204952 0 0)
(0.09998127405 0 0)
(0.09998050664 0 0)
(0.09997975029 0 0)
(0.09997900809 0 0)
(0.09997828319 0 0)
(0.09997757878 0 0)
(0.099976898 0 0)
(0.09997624394 0 0)
(0.09997561952 0 0)
(0.09997502749 0 0)
(0.09997447041 0 0)
(0.09997395063 0 0)
(0.09997347033 0 0)
(0.09997303159 0 0)
(0.09997263639 0 0)
(0.09997228668 0 0)
(0.09997198441 0 0)
(0.09997173158 0 0)
(0.09997153139 0 0)
(0.0999713921 0 0)
(0.09997132441 0 0)
(0.09997131399 0 0)
(0.09997132646 0 0)
(0.09997136151 0 0)
(0.09997143484 0 0)
(0.09997155536 0 0)
(0.09997172594 0 0)
(0.09997194695 0 0)
(0.09997221697 0 0)
(0.0999725337 0 0)
(0.09997289439 0 0)
(0.09997329608 0 0)
(0.09997373575 0 0)
(0.09997421044 0 0)
(0.09997471732 0 0)
(0.09997525369 0 0)
(0.09997581698 0 0)
(0.09997640465 0 0)
(0.09997701411 0 0)
(0.09997764255 0 0)
(0.09997828686 0 0)
(0.09997894369 0 0)
(0.09997960965 0 0)
(0.09998028168 0 0)
(0.09998095713 0 0)
(0.09998163369 0 0)
(0.099982309 0 0)
(0.09998298047 0 0)
(0.0999836455 0 0)
(0.09998430188 0 0)
(0.09998494822 0 0)
(0.099985583 0 0)
(0.09998620383 0 0)
(0.09998681009 0 0)
(0.09998738728 0 0)
(0.09998795538 0 0)
(0.09998852058 0 0)
(0.0999890373 0 0)
(0.09998952909 0 0)
(0.09999001748 0 0)
(0.09999048415 0 0)
(0.09999092724 0 0)
(0.09999134814 0 0)
(0.09999174601 0 0)
(0.09999212032 0 0)
(0.09999247128 0 0)
(0.09999279884 0 0)
(0.09999310192 0 0)
(0.09999337735 0 0)
(0.09999361913 0 0)
(0.09999381893 0 0)
(0.09999396818 0 0)
(0.09999406474 0 0)
(0.0999941275 0 0)
(0.09999420753 0 0)
(0.09999440456 0 0)
(0.09999488465 0 0)
(0.09999586177 0 0)
(0.09999755735 0 0)
(0.1000001252 0 0)
(0.1000035641 0 0)
(0.1000076516 0 0)
(0.1000119269 0 0)
(0.1000157953 0 0)
(0.1000186544 0 0)
(0.1000198346 0 0)
(0.1000194338 0 0)
(0.1000175759 0 0)
(0.1000145416 0 0)
(0.1000110844 0 0)
(0.1000077411 0 0)
(0.1000049201 0 0)
(0.1000028035 0 0)
(0.100001374 0 0)
(0.1000004942 0 0)
(0.09999999408 0 0)
(0.09999972754 0 0)
(0.0999995936 0 0)
(0.09999953117 0 0)
(0.09999950633 0 0)
(0.09999950063 0 0)
(0.09999950336 0 0)
(0.09999950986 0 0)
(0.0999995168 0 0)
(0.09999952406 0 0)
(0.09999953151 0 0)
(0.09999953718 0 0)
(0.09999954192 0 0)
(0.09999954603 0 0)
(0.0999995495 0 0)
(0.09999955257 0 0)
(0.09999955544 0 0)
(0.09999955825 0 0)
(0.09999956111 0 0)
(0.09999956407 0 0)
(0.0999995671 0 0)
(0.09999957015 0 0)
(0.09999957313 0 0)
(0.09999957597 0 0)
(0.09999957863 0 0)
(0.09999958109 0 0)
(0.09999958343 0 0)
(0.09999958569 0 0)
(0.09999958796 0 0)
(0.09999959031 0 0)
(0.09999959277 0 0)
(0.09999959537 0 0)
(0.09999959808 0 0)
(0.0999996009 0 0)
(0.09999960379 0 0)
(0.09999960652 0 0)
(0.09999960932 0 0)
(0.09999961206 0 0)
(0.09999961473 0 0)
(0.09999961739 0 0)
(0.09999962006 0 0)
(0.09999962278 0 0)
(0.09999962557 0 0)
(0.09999962844 0 0)
(0.09999963139 0 0)
(0.09999963438 0 0)
(0.09999963739 0 0)
(0.0999996404 0 0)
(0.09999964337 0 0)
(0.09999964631 0 0)
(0.0999996492 0 0)
(0.09999965208 0 0)
(0.09999965495 0 0)
(0.09999965783 0 0)
(0.09999966075 0 0)
(0.09999966371 0 0)
(0.09999966669 0 0)
(0.0999996697 0 0)
(0.0999996727 0 0)
(0.09999967569 0 0)
(0.09999967866 0 0)
(0.09999968158 0 0)
(0.09999968448 0 0)
(0.09999968735 0 0)
(0.09999969021 0 0)
(0.09999969306 0 0)
(0.09999969593 0 0)
(0.09999969882 0 0)
(0.09999970172 0 0)
(0.09999970462 0 0)
(0.09999970753 0 0)
(0.09999971042 0 0)
(0.0999997133 0 0)
(0.09999971615 0 0)
(0.09999971898 0 0)
(0.09999972179 0 0)
(0.09999972458 0 0)
(0.09999972738 0 0)
(0.09999973018 0 0)
(0.09999973298 0 0)
(0.09999973579 0 0)
(0.09999973861 0 0)
(0.09999974143 0 0)
(0.09999974424 0 0)
(0.09999974704 0 0)
(0.09999974983 0 0)
(0.0999997526 0 0)
(0.09999975537 0 0)
(0.09999975812 0 0)
(0.09999976088 0 0)
(0.09999976363 0 0)
(0.09999976638 0 0)
(0.09999976914 0 0)
(0.0999997719 0 0)
(0.09999977466 0 0)
(0.09999977742 0 0)
(0.09999978017 0 0)
(0.09999978291 0 0)
(0.09999978565 0 0)
(0.09999978838 0 0)
(0.0999997911 0 0)
(0.09999979381 0 0)
(0.09999979653 0 0)
(0.09999979924 0 0)
(0.09999980195 0 0)
(0.09999980465 0 0)
(0.09999980735 0 0)
(0.09999981004 0 0)
(0.09999981272 0 0)
(0.09999981539 0 0)
(0.09999981805 0 0)
(0.0999998207 0 0)
(0.09999982335 0 0)
(0.099999826 0 0)
(0.09999982864 0 0)
(0.09999983129 0 0)
(0.09999983395 0 0)
(0.0999998366 0 0)
(0.09999983926 0 0)
(0.09999984192 0 0)
(0.09999984458 0 0)
(0.09999984724 0 0)
(0.09999984989 0 0)
(0.09999985254 0 0)
(0.09999985518 0 0)
(0.09999985782 0 0)
(0.09999986046 0 0)
(0.09999986309 0 0)
(0.09999986572 0 0)
(0.09999986834 0 0)
(0.09999987097 0 0)
(0.09999987359 0 0)
(0.09999987621 0 0)
(0.09999987882 0 0)
(0.09999988143 0 0)
(0.09999988403 0 0)
(0.09999988664 0 0)
(0.09999988923 0 0)
(0.09999989183 0 0)
(0.09999989442 0 0)
(0.09999989701 0 0)
(0.0999998996 0 0)
(0.09999990219 0 0)
(0.09999990477 0 0)
(0.09999990736 0 0)
(0.09999990993 0 0)
(0.09999991251 0 0)
(0.09999991508 0 0)
(0.09999991765 0 0)
(0.09999992021 0 0)
(0.09999992278 0 0)
(0.09999992533 0 0)
(0.09999992789 0 0)
(0.09999993044 0 0)
(0.09999993299 0 0)
(0.09999993554 0 0)
(0.09999993809 0 0)
(0.09999994063 0 0)
(0.09999994317 0 0)
(0.09999994571 0 0)
(0.09999994825 0 0)
(0.09999995079 0 0)
(0.09999995333 0 0)
(0.09999995587 0 0)
(0.09999995841 0 0)
(0.09999996096 0 0)
(0.09999996351 0 0)
(0.09999996606 0 0)
(0.09999996862 0 0)
(0.09999997119 0 0)
(0.09999997377 0 0)
(0.09999997637 0 0)
(0.09999997898 0 0)
(0.09999998161 0 0)
(0.09999998427 0 0)
(0.09999998696 0 0)
(0.09999998968 0 0)
(0.09999999245 0 0)
(0.09999999526 0 0)
(0.09999999814 0 0)
(0.1000000011 0 0)
(0.1000000041 0 0)
(0.1000000072 0 0)
(0.1000000105 0 0)
(0.1000000139 0 0)
(0.1000000174 0 0)
(0.1000000211 0 0)
(0.100000025 0 0)
(0.1000000291 0 0)
(0.1000000335 0 0)
(0.1000000382 0 0)
(0.1000000432 0 0)
(0.1000000485 0 0)
(0.1000000542 0 0)
(0.1000000602 0 0)
(0.1000000668 0 0)
(0.1000000738 0 0)
(0.1000000813 0 0)
(0.1000000894 0 0)
(0.1000000981 0 0)
(0.1000001073 0 0)
(0.1000001173 0 0)
(0.100000128 0 0)
(0.1000001394 0 0)
(0.1000001516 0 0)
(0.1000001647 0 0)
(0.1000001786 0 0)
(0.1000001934 0 0)
(0.1000002092 0 0)
(0.100000226 0 0)
(0.1000002438 0 0)
(0.1000002627 0 0)
(0.1000002827 0 0)
(0.1000003037 0 0)
(0.1000003259 0 0)
(0.1000003492 0 0)
(0.1000003737 0 0)
(0.1000003992 0 0)
(0.1000004259 0 0)
(0.1000004537 0 0)
(0.1000004825 0 0)
(0.1000005123 0 0)
(0.1000005431 0 0)
(0.1000005749 0 0)
(0.1000006075 0 0)
(0.1000006409 0 0)
(0.100000675 0 0)
(0.1000007097 0 0)
(0.1000007449 0 0)
(0.1000007805 0 0)
(0.1000008163 0 0)
(0.1000008524 0 0)
(0.1000008884 0 0)
(0.1000009243 0 0)
(0.1000009599 0 0)
(0.100000995 0 0)
(0.1000010296 0 0)
(0.1000010634 0 0)
(0.1000010962 0 0)
(0.100001128 0 0)
(0.1000011585 0 0)
(0.1000011875 0 0)
(0.1000012149 0 0)
(0.1000012406 0 0)
(0.1000012644 0 0)
(0.100001286 0 0)
(0.1000013054 0 0)
(0.1000013223 0 0)
(0.1000013367 0 0)
(0.1000013485 0 0)
(0.1000013575 0 0)
(0.1000013638 0 0)
(0.1000013673 0 0)
(0.1000013685 0 0)
(0.1000013665 0 0)
(0.1000013612 0 0)
(0.1000013532 0 0)
(0.1000013422 0 0)
(0.1000013277 0 0)
(0.1000013107 0 0)
(0.1000012907 0 0)
(0.1000012676 0 0)
(0.1000012415 0 0)
(0.1000012125 0 0)
(0.1000011808 0 0)
(0.1000011463 0 0)
(0.1000011094 0 0)
(0.1000010699 0 0)
(0.1000010282 0 0)
(0.1000009842 0 0)
(0.1000009382 0 0)
(0.1000008903 0 0)
(0.1000008405 0 0)
(0.1000007889 0 0)
(0.1000007358 0 0)
(0.1000006814 0 0)
(0.1000006257 0 0)
(0.1000005689 0 0)
(0.1000005111 0 0)
(0.1000004526 0 0)
(0.1000003933 0 0)
(0.1000003335 0 0)
(0.1000002732 0 0)
(0.1000002127 0 0)
(0.1000001526 0 0)
(0.1000000897 0 0)
(0.1000000403 0 0)
)
;

boundaryField
{
    sides
    {
        type            fixedValue;
        value           uniform (0.1 0 0);
    }
    empty
    {
        type            empty;
    }
}


// ************************************************************************* //
