/*--------------------------------*- C++ -*----------------------------------*\
| =========                 |                                                 |
| \\      /  F ield         | OpenFOAM: The Open Source CFD Toolbox           |
|  \\    /   O peration     | Version:  v1812                                 |
|   \\  /    A nd           | Web:      www.OpenFOAM.com                      |
|    \\/     M anipulation  |                                                 |
\*---------------------------------------------------------------------------*/
FoamFile
{
    version     2.0;
    format      ascii;
    class       volScalarField;
    location    "0.15";
    object      p;
}
// * * * * * * * * * * * * * * * * * * * * * * * * * * * * * * * * * * * * * //

dimensions      [1 -1 -2 0 0 0 0];


internalField   nonuniform List<scalar> 
800
(
0.4
0.4
0.4
0.4
0.4
0.4
0.4
0.4
0.4
0.4
0.4
0.4
0.4
0.4
0.4
0.4
0.4
0.4
0.4
0.4
0.4
0.4
0.4
0.4
0.4
0.399999
0.399999
0.399999
0.399998
0.399997
0.399995
0.399992
0.399988
0.399982
0.399973
0.399961
0.399945
0.399923
0.399893
0.399853
0.3998
0.399731
0.399643
0.39953
0.399389
0.399214
0.398999
0.398737
0.398422
0.398047
0.397604
0.397086
0.396486
0.395797
0.395014
0.394129
0.393138
0.392037
0.390821
0.389489
0.388037
0.386467
0.384777
0.382969
0.381044
0.379004
0.376854
0.374596
0.372236
0.369776
0.367223
0.364582
0.361857
0.359054
0.356179
0.353237
0.350233
0.347173
0.344062
0.340904
0.337705
0.334469
0.331201
0.327904
0.324583
0.321242
0.317884
0.314512
0.31113
0.307741
0.304348
0.300953
0.297558
0.294165
0.290778
0.287397
0.284024
0.280662
0.277312
0.273976
0.270654
0.267348
0.264059
0.260788
0.257537
0.254306
0.251095
0.247907
0.24474
0.241597
0.238477
0.235382
0.23231
0.229264
0.226244
0.223249
0.22028
0.217337
0.214422
0.211532
0.20867
0.205835
0.203027
0.200246
0.197493
0.194768
0.19207
0.189399
0.186756
0.184141
0.181553
0.178993
0.17646
0.173954
0.171476
0.169026
0.166602
0.164205
0.161836
0.159493
0.157177
0.154888
0.152625
0.150389
0.148179
0.145994
0.143836
0.141704
0.139597
0.137515
0.135459
0.133427
0.131421
0.129439
0.127482
0.125549
0.123641
0.121756
0.119895
0.118058
0.116244
0.114453
0.112685
0.11094
0.109218
0.107518
0.10584
0.104184
0.10255
0.100937
0.0993463
0.0977764
0.0962275
0.0946994
0.0931919
0.0917048
0.0902379
0.0887909
0.0873637
0.0859561
0.0845679
0.0831988
0.0818487
0.0805175
0.0792048
0.0779104
0.0766343
0.0753762
0.0741359
0.0729132
0.0717079
0.0705198
0.0693488
0.0681946
0.0670571
0.065936
0.0648312
0.0637425
0.0626697
0.0616127
0.0605712
0.059545
0.058534
0.0575381
0.0565569
0.0555904
0.0546384
0.0537007
0.0527771
0.0518674
0.0509715
0.0500893
0.0492204
0.0483649
0.0475224
0.0466929
0.0458762
0.0450721
0.0442804
0.0435011
0.0427339
0.0419786
0.0412352
0.0405035
0.0397832
0.0390744
0.0383767
0.0376901
0.0370145
0.0363496
0.0356953
0.0350515
0.0344181
0.0337949
0.0331817
0.0325785
0.031985
0.0314012
0.030827
0.0302621
0.0297065
0.0291601
0.0286226
0.0280941
0.0275743
0.0270632
0.0265606
0.0260664
0.0255805
0.0251027
0.0246331
0.0241713
0.0237174
0.0232713
0.0228327
0.0224017
0.0219781
0.0215617
0.0211526
0.0207506
0.0203555
0.0199674
0.019586
0.0192113
0.0188432
0.0184817
0.0181265
0.0177776
0.017435
0.0170985
0.016768
0.0164434
0.0161247
0.0158117
0.0155045
0.0152028
0.0149066
0.0146158
0.0143303
0.0140501
0.0137751
0.0135051
0.0132401
0.0129801
0.012725
0.0124746
0.012229
0.011988
0.0117516
0.0115198
0.0112926
0.0110699
0.0108518
0.0106382
0.0104293
0.010225
0.0100256
0.00983108
0.00964175
0.00945783
0.00927965
0.00910759
0.00894207
0.00878353
0.00863243
0.00848916
0.00835401
0.0082271
0.00810828
0.00799718
0.00789311
0.00779513
0.00770211
0.00761282
0.00752604
0.00744069
0.00735593
0.00727121
0.00718628
0.00710123
0.00701635
0.00693209
0.00684895
0.00676739
0.00668777
0.00661034
0.00653537
0.00646285
0.00639276
0.00632501
0.00625946
0.00619595
0.00613434
0.00607446
0.00601621
0.00595951
0.00590431
0.0058506
0.00579842
0.00574778
0.00569874
0.00565133
0.00560554
0.00556136
0.00551872
0.00547754
0.00543769
0.00539905
0.00536149
0.00532491
0.00528921
0.00525435
0.00522028
0.00518702
0.00515458
0.005123
0.00509232
0.00506256
0.00503378
0.00500599
0.00497921
0.00495345
0.00492871
0.00490499
0.00488229
0.0048606
0.0048399
0.00482019
0.00480144
0.00478363
0.00476676
0.00475079
0.00473569
0.00472145
0.00470804
0.00469542
0.00468358
0.00467248
0.0046621
0.00465241
0.00464339
0.00463501
0.00462725
0.00462008
0.00461349
0.00460745
0.00460194
0.00459694
0.00459243
0.00458839
0.00458481
0.00458166
0.00457894
0.00457662
0.0045747
0.00457316
0.00457195
0.00457101
0.00457028
0.00456998
0.00456998
0.00457028
0.00457101
0.00457195
0.00457316
0.0045747
0.00457662
0.00457894
0.00458166
0.00458481
0.00458839
0.00459243
0.00459694
0.00460194
0.00460745
0.00461349
0.00462008
0.00462725
0.00463501
0.00464339
0.00465241
0.0046621
0.00467248
0.00468358
0.00469542
0.00470804
0.00472145
0.00473569
0.00475079
0.00476676
0.00478363
0.00480144
0.00482019
0.0048399
0.0048606
0.00488229
0.00490499
0.00492871
0.00495345
0.00497921
0.00500599
0.00503378
0.00506256
0.00509232
0.005123
0.00515458
0.00518702
0.00522028
0.00525435
0.00528921
0.00532491
0.00536149
0.00539905
0.00543769
0.00547754
0.00551872
0.00556136
0.00560554
0.00565133
0.00569874
0.00574778
0.00579842
0.0058506
0.00590431
0.00595951
0.00601621
0.00607446
0.00613434
0.00619595
0.00625946
0.00632501
0.00639276
0.00646285
0.00653537
0.00661034
0.00668777
0.00676739
0.00684895
0.00693209
0.00701635
0.00710123
0.00718628
0.00727121
0.00735593
0.00744069
0.00752604
0.00761282
0.00770211
0.00779513
0.00789311
0.00799718
0.00810828
0.0082271
0.00835401
0.00848916
0.00863243
0.00878353
0.00894207
0.00910759
0.00927965
0.00945783
0.00964175
0.00983108
0.0100256
0.010225
0.0104293
0.0106382
0.0108518
0.0110699
0.0112926
0.0115198
0.0117516
0.011988
0.012229
0.0124746
0.012725
0.0129801
0.0132401
0.0135051
0.0137751
0.0140501
0.0143303
0.0146158
0.0149066
0.0152028
0.0155045
0.0158117
0.0161247
0.0164434
0.016768
0.0170985
0.017435
0.0177776
0.0181265
0.0184817
0.0188432
0.0192113
0.019586
0.0199674
0.0203555
0.0207506
0.0211526
0.0215617
0.0219781
0.0224017
0.0228327
0.0232713
0.0237174
0.0241713
0.0246331
0.0251027
0.0255805
0.0260664
0.0265606
0.0270632
0.0275743
0.0280941
0.0286226
0.0291601
0.0297065
0.0302621
0.030827
0.0314012
0.031985
0.0325785
0.0331817
0.0337949
0.0344181
0.0350515
0.0356953
0.0363496
0.0370145
0.0376901
0.0383767
0.0390744
0.0397832
0.0405035
0.0412352
0.0419786
0.0427339
0.0435011
0.0442804
0.0450721
0.0458762
0.0466929
0.0475224
0.0483649
0.0492204
0.0500893
0.0509715
0.0518674
0.0527771
0.0537007
0.0546384
0.0555904
0.0565569
0.0575381
0.058534
0.059545
0.0605712
0.0616127
0.0626697
0.0637425
0.0648312
0.065936
0.0670571
0.0681946
0.0693488
0.0705198
0.0717079
0.0729132
0.0741359
0.0753762
0.0766343
0.0779104
0.0792048
0.0805175
0.0818487
0.0831988
0.0845679
0.0859561
0.0873637
0.0887909
0.0902379
0.0917048
0.0931919
0.0946994
0.0962275
0.0977764
0.0993463
0.100937
0.10255
0.104184
0.10584
0.107518
0.109218
0.11094
0.112685
0.114453
0.116244
0.118058
0.119895
0.121756
0.123641
0.125549
0.127482
0.129439
0.131421
0.133427
0.135459
0.137515
0.139597
0.141704
0.143836
0.145994
0.148179
0.150389
0.152625
0.154888
0.157177
0.159493
0.161836
0.164205
0.166602
0.169026
0.171476
0.173954
0.17646
0.178993
0.181553
0.184141
0.186756
0.189399
0.19207
0.194768
0.197493
0.200246
0.203027
0.205835
0.20867
0.211532
0.214422
0.217337
0.22028
0.223249
0.226244
0.229264
0.23231
0.235382
0.238477
0.241597
0.24474
0.247907
0.251095
0.254306
0.257537
0.260788
0.264059
0.267348
0.270654
0.273976
0.277312
0.280662
0.284024
0.287397
0.290778
0.294165
0.297558
0.300953
0.304348
0.307741
0.31113
0.314512
0.317884
0.321242
0.324583
0.327904
0.331201
0.334469
0.337705
0.340904
0.344062
0.347173
0.350233
0.353237
0.356179
0.359054
0.361857
0.364582
0.367223
0.369776
0.372236
0.374596
0.376854
0.379004
0.381044
0.382969
0.384777
0.386467
0.388037
0.389489
0.390821
0.392037
0.393138
0.394129
0.395014
0.395797
0.396486
0.397086
0.397604
0.398047
0.398422
0.398737
0.398999
0.399214
0.399389
0.39953
0.399643
0.399731
0.3998
0.399853
0.399893
0.399923
0.399945
0.399961
0.399973
0.399982
0.399988
0.399992
0.399995
0.399997
0.399998
0.399999
0.399999
0.399999
0.4
0.4
0.4
0.4
0.4
0.4
0.4
0.4
0.4
0.4
0.4
0.4
0.4
0.4
0.4
0.4
0.4
0.4
0.4
0.4
0.4
0.4
0.4
0.4
0.4
)
;

boundaryField
{
    sides
    {
        type            zeroGradient;
    }
    empty1
    {
        type            empty;
    }
    empty2
    {
        type            empty;
    }
}


// ************************************************************************* //
