/*--------------------------------*- C++ -*----------------------------------*\
| =========                 |                                                 |
| \\      /  F ield         | OpenFOAM: The Open Source CFD Toolbox           |
|  \\    /   O peration     | Version:  v1812                                 |
|   \\  /    A nd           | Web:      www.OpenFOAM.com                      |
|    \\/     M anipulation  |                                                 |
\*---------------------------------------------------------------------------*/
FoamFile
{
    version     2.0;
    format      ascii;
    class       surfaceScalarField;
    location    "0.15";
    object      phi;
}
// * * * * * * * * * * * * * * * * * * * * * * * * * * * * * * * * * * * * * //

dimensions      [1 0 -1 0 0 0 0];
oriented        oriented;


internalField   nonuniform List<scalar> 
799
(
-0.000799955
-0.000799955
-0.000799955
-0.000799955
-0.000799955
-0.000799955
-0.000799955
-0.000799955
-0.000799955
-0.000799955
-0.000799955
-0.000799955
-0.000799955
-0.000799955
-0.000799955
-0.000799955
-0.000799955
-0.000799955
-0.000799955
-0.000799955
-0.000799955
-0.000799955
-0.000799955
-0.000799954
-0.000799954
-0.000799954
-0.000799953
-0.000799952
-0.00079995
-0.000799947
-0.000799943
-0.000799937
-0.000799928
-0.000799916
-0.000799898
-0.000799873
-0.000799838
-0.000799791
-0.000799727
-0.000799643
-0.000799533
-0.000799389
-0.000799205
-0.000798972
-0.00079868
-0.000798318
-0.000797874
-0.000797335
-0.000796688
-0.000795919
-0.000795013
-0.000793956
-0.000792734
-0.000791333
-0.000789742
-0.000787948
-0.000785942
-0.000783715
-0.00078126
-0.000778571
-0.000775647
-0.000772484
-0.000769084
-0.000765449
-0.000761581
-0.000757486
-0.00075317
-0.000748641
-0.000743906
-0.000738975
-0.000733857
-0.000728562
-0.000723101
-0.000717485
-0.000711723
-0.000705827
-0.000699808
-0.000693674
-0.000687437
-0.000681107
-0.000674692
-0.000668202
-0.000661645
-0.00065503
-0.000648364
-0.000641656
-0.000634911
-0.000628137
-0.000621339
-0.000614527
-0.000607704
-0.000600873
-0.00059404
-0.00058721
-0.000580387
-0.000573575
-0.000566778
-0.000559999
-0.000553241
-0.000546507
-0.000539801
-0.000533124
-0.000526479
-0.000519868
-0.000513293
-0.000506756
-0.000500259
-0.000493803
-0.000487389
-0.00048102
-0.000474696
-0.000468418
-0.000462187
-0.000456005
-0.000449871
-0.000443788
-0.000437755
-0.000431773
-0.000425843
-0.000419965
-0.00041414
-0.000408367
-0.000402648
-0.000396982
-0.000391371
-0.000385813
-0.000380309
-0.00037486
-0.000369465
-0.000364124
-0.000358838
-0.000353606
-0.000348429
-0.000343306
-0.000338237
-0.000333222
-0.000328262
-0.000323355
-0.000318502
-0.000313703
-0.000308957
-0.000304264
-0.000299625
-0.000295038
-0.000290504
-0.000286022
-0.000281591
-0.000277213
-0.000272886
-0.000268611
-0.000264386
-0.000260212
-0.000256088
-0.000252014
-0.00024799
-0.000244014
-0.000240088
-0.000236211
-0.000232382
-0.0002286
-0.000224867
-0.00022118
-0.000217541
-0.000213948
-0.000210401
-0.000206899
-0.000203444
-0.000200033
-0.000196667
-0.000193345
-0.000190067
-0.000186832
-0.000183641
-0.000180493
-0.000177386
-0.000174322
-0.0001713
-0.000168318
-0.000165378
-0.000162478
-0.000159618
-0.000156798
-0.000154017
-0.000151275
-0.000148572
-0.000145907
-0.000143279
-0.000140689
-0.000138136
-0.00013562
-0.00013314
-0.000130696
-0.000128287
-0.000125914
-0.000123576
-0.000121272
-0.000119002
-0.000116765
-0.000114562
-0.000112393
-0.000110255
-0.00010815
-0.000106077
-0.000104036
-0.000102026
-0.000100047
-9.8098e-05
-9.61795e-05
-9.42909e-05
-9.24319e-05
-9.06021e-05
-8.88011e-05
-8.70287e-05
-8.52845e-05
-8.35682e-05
-8.18794e-05
-8.02178e-05
-7.85832e-05
-7.69751e-05
-7.53933e-05
-7.38374e-05
-7.23071e-05
-7.08021e-05
-6.9322e-05
-6.78666e-05
-6.64355e-05
-6.50285e-05
-6.36451e-05
-6.22851e-05
-6.09482e-05
-5.9634e-05
-5.83422e-05
-5.70726e-05
-5.58248e-05
-5.45985e-05
-5.33934e-05
-5.22092e-05
-5.10456e-05
-4.99023e-05
-4.87791e-05
-4.76755e-05
-4.65914e-05
-4.55263e-05
-4.44802e-05
-4.34526e-05
-4.24433e-05
-4.1452e-05
-4.04785e-05
-3.95225e-05
-3.85837e-05
-3.76619e-05
-3.67568e-05
-3.58682e-05
-3.49958e-05
-3.41394e-05
-3.32988e-05
-3.24737e-05
-3.16639e-05
-3.08692e-05
-3.00894e-05
-2.93242e-05
-2.85735e-05
-2.78371e-05
-2.71147e-05
-2.64061e-05
-2.57112e-05
-2.50298e-05
-2.43617e-05
-2.37067e-05
-2.30646e-05
-2.24353e-05
-2.18185e-05
-2.12142e-05
-2.0622e-05
-2.00419e-05
-1.94737e-05
-1.89173e-05
-1.83724e-05
-1.78389e-05
-1.73167e-05
-1.68056e-05
-1.63054e-05
-1.5816e-05
-1.53373e-05
-1.48691e-05
-1.44112e-05
-1.39636e-05
-1.35259e-05
-1.30983e-05
-1.26806e-05
-1.22728e-05
-1.18749e-05
-1.14867e-05
-1.11084e-05
-1.07399e-05
-1.03814e-05
-1.00329e-05
-9.69469e-06
-9.36705e-06
-9.05031e-06
-8.74491e-06
-8.45134e-06
-8.17014e-06
-7.90185e-06
-7.64696e-06
-7.4058e-06
-7.17851e-06
-6.96486e-06
-6.7643e-06
-6.57581e-06
-6.39802e-06
-6.22924e-06
-6.06764e-06
-5.91135e-06
-5.75867e-06
-5.60816e-06
-5.45881e-06
-5.31009e-06
-5.16199e-06
-5.01485e-06
-4.86925e-06
-4.72583e-06
-4.58513e-06
-4.44759e-06
-4.31393e-06
-4.18443e-06
-4.05898e-06
-3.93749e-06
-3.81989e-06
-3.70599e-06
-3.59551e-06
-3.4882e-06
-3.38382e-06
-3.28217e-06
-3.18309e-06
-3.08646e-06
-2.99223e-06
-2.90036e-06
-2.81087e-06
-2.72375e-06
-2.63903e-06
-2.55669e-06
-2.47667e-06
-2.39888e-06
-2.32319e-06
-2.24945e-06
-2.17747e-06
-2.10709e-06
-2.03815e-06
-1.97051e-06
-1.90407e-06
-1.83879e-06
-1.77463e-06
-1.7116e-06
-1.64971e-06
-1.589e-06
-1.5295e-06
-1.47123e-06
-1.41421e-06
-1.35846e-06
-1.30398e-06
-1.25076e-06
-1.19879e-06
-1.14807e-06
-1.09858e-06
-1.05031e-06
-1.00322e-06
-9.57307e-07
-9.12544e-07
-8.68908e-07
-8.26376e-07
-7.84928e-07
-7.44543e-07
-7.05201e-07
-6.66881e-07
-6.29558e-07
-5.93206e-07
-5.57796e-07
-5.23298e-07
-4.89691e-07
-4.56957e-07
-4.25089e-07
-3.94085e-07
-3.63945e-07
-3.34671e-07
-3.06263e-07
-2.78724e-07
-2.52061e-07
-2.26278e-07
-2.01366e-07
-1.77286e-07
-1.53959e-07
-1.31274e-07
-1.09113e-07
-8.74417e-08
-6.64782e-08
-4.68448e-08
-2.93064e-08
-1.40022e-08
5.59977e-17
1.40022e-08
2.93064e-08
4.68448e-08
6.64782e-08
8.74417e-08
1.09113e-07
1.31274e-07
1.53959e-07
1.77286e-07
2.01366e-07
2.26278e-07
2.52061e-07
2.78724e-07
3.06263e-07
3.34671e-07
3.63945e-07
3.94085e-07
4.25089e-07
4.56957e-07
4.89691e-07
5.23298e-07
5.57796e-07
5.93206e-07
6.29558e-07
6.66881e-07
7.05201e-07
7.44543e-07
7.84928e-07
8.26376e-07
8.68908e-07
9.12544e-07
9.57307e-07
1.00322e-06
1.05031e-06
1.09858e-06
1.14807e-06
1.19879e-06
1.25076e-06
1.30398e-06
1.35846e-06
1.41421e-06
1.47123e-06
1.5295e-06
1.589e-06
1.64971e-06
1.7116e-06
1.77463e-06
1.83879e-06
1.90407e-06
1.97051e-06
2.03815e-06
2.10709e-06
2.17747e-06
2.24945e-06
2.32319e-06
2.39888e-06
2.47667e-06
2.55669e-06
2.63903e-06
2.72375e-06
2.81087e-06
2.90036e-06
2.99223e-06
3.08646e-06
3.18309e-06
3.28217e-06
3.38382e-06
3.4882e-06
3.59551e-06
3.70599e-06
3.81989e-06
3.93749e-06
4.05898e-06
4.18443e-06
4.31393e-06
4.44759e-06
4.58513e-06
4.72583e-06
4.86925e-06
5.01485e-06
5.16199e-06
5.31009e-06
5.45881e-06
5.60816e-06
5.75867e-06
5.91135e-06
6.06764e-06
6.22924e-06
6.39802e-06
6.57581e-06
6.7643e-06
6.96486e-06
7.17851e-06
7.4058e-06
7.64696e-06
7.90185e-06
8.17014e-06
8.45134e-06
8.74491e-06
9.05031e-06
9.36705e-06
9.69469e-06
1.00329e-05
1.03814e-05
1.07399e-05
1.11084e-05
1.14867e-05
1.18749e-05
1.22728e-05
1.26806e-05
1.30983e-05
1.35259e-05
1.39636e-05
1.44112e-05
1.48691e-05
1.53373e-05
1.5816e-05
1.63054e-05
1.68056e-05
1.73167e-05
1.78389e-05
1.83724e-05
1.89173e-05
1.94737e-05
2.00419e-05
2.0622e-05
2.12142e-05
2.18185e-05
2.24353e-05
2.30646e-05
2.37067e-05
2.43617e-05
2.50298e-05
2.57112e-05
2.64061e-05
2.71147e-05
2.78371e-05
2.85735e-05
2.93242e-05
3.00894e-05
3.08692e-05
3.16639e-05
3.24737e-05
3.32988e-05
3.41394e-05
3.49958e-05
3.58682e-05
3.67568e-05
3.76619e-05
3.85837e-05
3.95225e-05
4.04785e-05
4.1452e-05
4.24433e-05
4.34526e-05
4.44802e-05
4.55263e-05
4.65914e-05
4.76755e-05
4.87791e-05
4.99023e-05
5.10456e-05
5.22092e-05
5.33934e-05
5.45985e-05
5.58248e-05
5.70726e-05
5.83422e-05
5.9634e-05
6.09482e-05
6.22851e-05
6.36451e-05
6.50285e-05
6.64355e-05
6.78666e-05
6.9322e-05
7.08021e-05
7.23071e-05
7.38374e-05
7.53933e-05
7.69751e-05
7.85832e-05
8.02178e-05
8.18794e-05
8.35682e-05
8.52845e-05
8.70287e-05
8.88011e-05
9.06021e-05
9.24319e-05
9.42909e-05
9.61795e-05
9.8098e-05
0.000100047
0.000102026
0.000104036
0.000106077
0.00010815
0.000110255
0.000112393
0.000114562
0.000116765
0.000119002
0.000121272
0.000123576
0.000125914
0.000128287
0.000130696
0.00013314
0.00013562
0.000138136
0.000140689
0.000143279
0.000145907
0.000148572
0.000151275
0.000154017
0.000156798
0.000159618
0.000162478
0.000165378
0.000168318
0.0001713
0.000174322
0.000177386
0.000180493
0.000183641
0.000186832
0.000190067
0.000193345
0.000196667
0.000200033
0.000203444
0.000206899
0.000210401
0.000213948
0.000217541
0.00022118
0.000224867
0.0002286
0.000232382
0.000236211
0.000240088
0.000244014
0.00024799
0.000252014
0.000256088
0.000260212
0.000264386
0.000268611
0.000272886
0.000277213
0.000281591
0.000286022
0.000290504
0.000295038
0.000299625
0.000304264
0.000308957
0.000313703
0.000318502
0.000323355
0.000328262
0.000333222
0.000338237
0.000343306
0.000348429
0.000353606
0.000358838
0.000364124
0.000369465
0.00037486
0.000380309
0.000385813
0.000391371
0.000396982
0.000402648
0.000408367
0.00041414
0.000419965
0.000425843
0.000431773
0.000437755
0.000443788
0.000449871
0.000456005
0.000462187
0.000468418
0.000474696
0.00048102
0.000487389
0.000493803
0.000500259
0.000506756
0.000513293
0.000519868
0.000526479
0.000533124
0.000539801
0.000546507
0.000553241
0.000559999
0.000566778
0.000573575
0.000580387
0.00058721
0.00059404
0.000600873
0.000607704
0.000614527
0.000621339
0.000628137
0.000634911
0.000641656
0.000648364
0.00065503
0.000661645
0.000668202
0.000674692
0.000681107
0.000687437
0.000693674
0.000699808
0.000705827
0.000711723
0.000717485
0.000723101
0.000728562
0.000733857
0.000738975
0.000743906
0.000748641
0.00075317
0.000757486
0.000761581
0.000765449
0.000769084
0.000772484
0.000775647
0.000778571
0.00078126
0.000783715
0.000785942
0.000787948
0.000789742
0.000791333
0.000792734
0.000793956
0.000795013
0.000795919
0.000796688
0.000797335
0.000797874
0.000798318
0.00079868
0.000798972
0.000799205
0.000799389
0.000799533
0.000799643
0.000799727
0.000799791
0.000799838
0.000799873
0.000799898
0.000799916
0.000799928
0.000799937
0.000799943
0.000799947
0.00079995
0.000799952
0.000799953
0.000799954
0.000799954
0.000799954
0.000799955
0.000799955
0.000799955
0.000799955
0.000799955
0.000799955
0.000799955
0.000799955
0.000799955
0.000799955
0.000799955
0.000799955
0.000799955
0.000799955
0.000799955
0.000799955
0.000799955
0.000799955
0.000799955
0.000799955
0.000799955
0.000799955
0.000799955
)
;

boundaryField
{
    sides
    {
        type            calculated;
        value           nonuniform List<scalar> 2(0.000799955 0.000799955);
    }
    empty1
    {
        type            empty;
        value           nonuniform 0();
    }
    empty2
    {
        type            empty;
        value           nonuniform 0();
    }
}


// ************************************************************************* //
