/*--------------------------------*- C++ -*----------------------------------*\
| =========                 |                                                 |
| \\      /  F ield         | OpenFOAM: The Open Source CFD Toolbox           |
|  \\    /   O peration     | Version:  v1812                                 |
|   \\  /    A nd           | Web:      www.OpenFOAM.com                      |
|    \\/     M anipulation  |                                                 |
\*---------------------------------------------------------------------------*/
FoamFile
{
    version     2.0;
    format      ascii;
    class       volScalarField;
    location    "0.15";
    object      rho;
}
// * * * * * * * * * * * * * * * * * * * * * * * * * * * * * * * * * * * * * //

dimensions      [1 -3 0 0 0 0 0];


internalField   nonuniform List<scalar> 
800
(
0.999943
0.999943
0.999943
0.999943
0.999943
0.999943
0.999943
0.999943
0.999943
0.999943
0.999943
0.999943
0.999943
0.999943
0.999943
0.999943
0.999943
0.999943
0.999943
0.999943
0.999943
0.999943
0.999943
0.999943
0.999943
0.999943
0.999942
0.999941
0.99994
0.999938
0.999935
0.99993
0.999924
0.999914
0.9999
0.999881
0.999854
0.999817
0.999768
0.999701
0.999613
0.999499
0.999351
0.999163
0.998926
0.998631
0.998267
0.997823
0.997287
0.996647
0.995888
0.994999
0.993967
0.992777
0.99142
0.989882
0.988154
0.986228
0.984095
0.98175
0.979187
0.976406
0.973403
0.970179
0.966736
0.963077
0.959207
0.95513
0.950853
0.946383
0.941728
0.936895
0.931894
0.926733
0.921422
0.915969
0.910384
0.904675
0.898851
0.892921
0.886893
0.880775
0.874575
0.868301
0.861959
0.855556
0.849099
0.842594
0.836046
0.829462
0.822849
0.816207
0.809543
0.802861
0.796165
0.789458
0.782745
0.776028
0.769312
0.762598
0.755889
0.749189
0.742499
0.735822
0.72916
0.722514
0.715887
0.709281
0.702696
0.696135
0.689598
0.683088
0.676604
0.67015
0.663724
0.657329
0.650965
0.644633
0.638335
0.632069
0.625838
0.619642
0.613482
0.607357
0.601269
0.595218
0.589204
0.583227
0.577289
0.571389
0.565528
0.559706
0.553923
0.548179
0.542475
0.536811
0.531186
0.525602
0.520057
0.514553
0.509089
0.503665
0.498282
0.492939
0.487637
0.482375
0.477154
0.471973
0.466832
0.461732
0.456672
0.451653
0.446673
0.441734
0.436835
0.431976
0.427157
0.422378
0.417638
0.412938
0.408278
0.403657
0.399075
0.394532
0.390029
0.385564
0.381138
0.37675
0.372401
0.36809
0.363817
0.359582
0.355385
0.351225
0.347103
0.343018
0.338971
0.33496
0.330986
0.327048
0.323147
0.319282
0.315452
0.311659
0.307901
0.304179
0.300491
0.296839
0.293222
0.289639
0.28609
0.282576
0.279096
0.275649
0.272236
0.268857
0.265511
0.262197
0.258917
0.255669
0.252454
0.24927
0.246119
0.243
0.239912
0.236856
0.233831
0.230837
0.227873
0.224941
0.222039
0.219167
0.216326
0.213514
0.210732
0.20798
0.205257
0.202563
0.199898
0.197262
0.194654
0.192074
0.189523
0.186999
0.184504
0.182035
0.179594
0.17718
0.174792
0.172431
0.170097
0.167788
0.165505
0.163247
0.161015
0.158808
0.156625
0.154467
0.152333
0.150222
0.148136
0.146073
0.144033
0.142015
0.14002
0.138048
0.136097
0.134168
0.132261
0.130375
0.12851
0.126665
0.124841
0.123038
0.121254
0.11949
0.117746
0.116021
0.114315
0.112629
0.110961
0.109312
0.107681
0.106069
0.104475
0.102899
0.101341
0.0998004
0.0982778
0.0967728
0.0952852
0.0938151
0.0923622
0.0909265
0.0895078
0.0881063
0.0867216
0.0853538
0.0840029
0.0826686
0.0813511
0.0800502
0.0787659
0.0774981
0.0762469
0.0750122
0.0737938
0.0725916
0.0714059
0.0702367
0.0690843
0.067949
0.066831
0.0657305
0.0646481
0.0635843
0.0625398
0.0615156
0.0605128
0.0595327
0.0585771
0.0576479
0.0567472
0.0558774
0.0550406
0.054239
0.0534739
0.0527461
0.0520551
0.0513992
0.0507754
0.0501792
0.0496056
0.0490491
0.0485041
0.0479655
0.0474293
0.0468927
0.046355
0.0458167
0.0452798
0.044746
0.0442174
0.0436953
0.043182
0.0426803
0.0421902
0.0417109
0.0412422
0.0407842
0.0403365
0.0398979
0.0394676
0.039045
0.0386294
0.0382203
0.0378175
0.0374208
0.0370302
0.0366457
0.0362673
0.0358951
0.0355289
0.0351684
0.0348131
0.0344624
0.0341156
0.0337719
0.0334307
0.0330911
0.0327526
0.0324148
0.0320775
0.0317403
0.0314033
0.0310664
0.0307296
0.0303929
0.0300563
0.0297198
0.0293833
0.0290467
0.02871
0.0283729
0.0280355
0.0276976
0.027359
0.0270196
0.0266793
0.0263377
0.0259949
0.0256508
0.0253052
0.0249581
0.0246097
0.0242597
0.0239079
0.0235539
0.0231972
0.0228371
0.0224733
0.0221053
0.0217332
0.0213573
0.0209778
0.0205948
0.0202087
0.0198199
0.0194291
0.0190362
0.0186389
0.0182302
0.0177948
0.0173053
0.016721
0.0159995
0.0151381
0.0142375
0.0135061
0.0131436
0.0131436
0.0135061
0.0142375
0.0151381
0.0159995
0.016721
0.0173053
0.0177948
0.0182302
0.0186389
0.0190362
0.0194291
0.0198199
0.0202087
0.0205948
0.0209778
0.0213573
0.0217332
0.0221053
0.0224733
0.0228371
0.0231972
0.0235539
0.0239079
0.0242597
0.0246097
0.0249581
0.0253052
0.0256508
0.0259949
0.0263377
0.0266793
0.0270196
0.027359
0.0276976
0.0280355
0.0283729
0.02871
0.0290467
0.0293833
0.0297198
0.0300563
0.0303929
0.0307296
0.0310664
0.0314033
0.0317403
0.0320775
0.0324148
0.0327526
0.0330911
0.0334307
0.0337719
0.0341156
0.0344624
0.0348131
0.0351684
0.0355289
0.0358951
0.0362673
0.0366457
0.0370302
0.0374208
0.0378175
0.0382203
0.0386294
0.039045
0.0394676
0.0398979
0.0403365
0.0407842
0.0412422
0.0417109
0.0421902
0.0426803
0.043182
0.0436953
0.0442174
0.044746
0.0452798
0.0458167
0.046355
0.0468927
0.0474293
0.0479655
0.0485041
0.0490491
0.0496056
0.0501792
0.0507754
0.0513992
0.0520551
0.0527461
0.0534739
0.054239
0.0550406
0.0558774
0.0567472
0.0576479
0.0585771
0.0595327
0.0605128
0.0615156
0.0625398
0.0635843
0.0646481
0.0657305
0.066831
0.067949
0.0690843
0.0702367
0.0714059
0.0725916
0.0737938
0.0750122
0.0762469
0.0774981
0.0787659
0.0800502
0.0813511
0.0826686
0.0840029
0.0853538
0.0867216
0.0881063
0.0895078
0.0909265
0.0923622
0.0938151
0.0952852
0.0967728
0.0982778
0.0998004
0.101341
0.102899
0.104475
0.106069
0.107681
0.109312
0.110961
0.112629
0.114315
0.116021
0.117746
0.11949
0.121254
0.123038
0.124841
0.126665
0.12851
0.130375
0.132261
0.134168
0.136097
0.138048
0.14002
0.142015
0.144033
0.146073
0.148136
0.150222
0.152333
0.154467
0.156625
0.158808
0.161015
0.163247
0.165505
0.167788
0.170097
0.172431
0.174792
0.17718
0.179594
0.182035
0.184504
0.186999
0.189523
0.192074
0.194654
0.197262
0.199898
0.202563
0.205257
0.20798
0.210732
0.213514
0.216326
0.219167
0.222039
0.224941
0.227873
0.230837
0.233831
0.236856
0.239912
0.243
0.246119
0.24927
0.252454
0.255669
0.258917
0.262197
0.265511
0.268857
0.272236
0.275649
0.279096
0.282576
0.28609
0.289639
0.293222
0.296839
0.300491
0.304179
0.307901
0.311659
0.315452
0.319282
0.323147
0.327048
0.330986
0.33496
0.338971
0.343018
0.347103
0.351225
0.355385
0.359582
0.363817
0.36809
0.372401
0.37675
0.381138
0.385564
0.390029
0.394532
0.399075
0.403657
0.408278
0.412938
0.417638
0.422378
0.427157
0.431976
0.436835
0.441734
0.446673
0.451653
0.456672
0.461732
0.466832
0.471973
0.477154
0.482375
0.487637
0.492939
0.498282
0.503665
0.509089
0.514553
0.520057
0.525602
0.531186
0.536811
0.542475
0.548179
0.553923
0.559706
0.565528
0.571389
0.577289
0.583227
0.589204
0.595218
0.601269
0.607357
0.613482
0.619642
0.625838
0.632069
0.638335
0.644633
0.650965
0.657329
0.663724
0.67015
0.676604
0.683088
0.689598
0.696135
0.702696
0.709281
0.715887
0.722514
0.72916
0.735822
0.742499
0.749189
0.755889
0.762598
0.769312
0.776028
0.782745
0.789458
0.796165
0.802861
0.809543
0.816207
0.822849
0.829462
0.836046
0.842594
0.849099
0.855556
0.861959
0.868301
0.874575
0.880775
0.886893
0.892921
0.898851
0.904675
0.910384
0.915969
0.921422
0.926733
0.931894
0.936895
0.941728
0.946383
0.950853
0.95513
0.959207
0.963077
0.966736
0.970179
0.973403
0.976406
0.979187
0.98175
0.984095
0.986228
0.988154
0.989882
0.99142
0.992777
0.993967
0.994999
0.995888
0.996647
0.997287
0.997823
0.998267
0.998631
0.998926
0.999163
0.999351
0.999499
0.999613
0.999701
0.999768
0.999817
0.999854
0.999881
0.9999
0.999914
0.999924
0.99993
0.999935
0.999938
0.99994
0.999941
0.999942
0.999943
0.999943
0.999943
0.999943
0.999943
0.999943
0.999943
0.999943
0.999943
0.999943
0.999943
0.999943
0.999943
0.999943
0.999943
0.999943
0.999943
0.999943
0.999943
0.999943
0.999943
0.999943
0.999943
0.999943
0.999943
0.999943
)
;

boundaryField
{
    sides
    {
        type            calculated;
        value           nonuniform List<scalar> 2(0.999943 0.999943);
    }
    empty1
    {
        type            empty;
    }
    empty2
    {
        type            empty;
    }
}


// ************************************************************************* //
