/*--------------------------------*- C++ -*----------------------------------*\
| =========                 |                                                 |
| \\      /  F ield         | OpenFOAM: The Open Source CFD Toolbox           |
|  \\    /   O peration     | Version:  v1812                                 |
|   \\  /    A nd           | Web:      www.OpenFOAM.com                      |
|    \\/     M anipulation  |                                                 |
\*---------------------------------------------------------------------------*/
FoamFile
{
    version     2.0;
    format      ascii;
    class       volScalarField;
    location    "0.15";
    object      T;
}
// * * * * * * * * * * * * * * * * * * * * * * * * * * * * * * * * * * * * * //

dimensions      [0 0 0 1 0 0 0];


internalField   nonuniform List<scalar> 
800
(
1
1
1
1
1
1
1
1
1
1
1
1
1
1
1
1
1
1
1
1
1
1
1
1
1
1
0.999999
0.999999
0.999998
0.999997
0.999995
0.999993
0.999989
0.999984
0.999976
0.999966
0.999952
0.999933
0.999907
0.999874
0.999829
0.999772
0.999698
0.999606
0.99949
0.999347
0.999172
0.998961
0.998708
0.998408
0.998056
0.997647
0.997175
0.996636
0.996025
0.995338
0.994571
0.993722
0.992788
0.991766
0.990657
0.989458
0.988171
0.986795
0.985331
0.983781
0.982147
0.98043
0.978633
0.976759
0.97481
0.97279
0.970701
0.968546
0.966329
0.964052
0.961719
0.959332
0.956895
0.95441
0.951879
0.949307
0.946694
0.944044
0.941359
0.938641
0.935891
0.933114
0.930309
0.927479
0.924626
0.92175
0.918854
0.915939
0.913006
0.910056
0.907091
0.904112
0.90112
0.898115
0.8951
0.892074
0.889038
0.885994
0.882942
0.879883
0.876818
0.873746
0.87067
0.867588
0.864502
0.861413
0.85832
0.855225
0.852127
0.849028
0.845927
0.842825
0.839722
0.836619
0.833515
0.830412
0.827309
0.824207
0.821106
0.818006
0.814908
0.811812
0.808718
0.805625
0.802536
0.799449
0.796364
0.793283
0.790205
0.78713
0.784059
0.780991
0.777928
0.774868
0.771812
0.768761
0.765714
0.762671
0.759633
0.7566
0.753572
0.750549
0.747531
0.744518
0.741511
0.738509
0.735512
0.732522
0.729536
0.726557
0.723584
0.720617
0.717656
0.714701
0.711752
0.70881
0.705874
0.702944
0.700022
0.697105
0.694196
0.691294
0.688398
0.68551
0.682628
0.679754
0.676886
0.674026
0.671174
0.668329
0.665491
0.662661
0.659838
0.657023
0.654216
0.651416
0.648625
0.645841
0.643066
0.640298
0.637539
0.634788
0.632045
0.62931
0.626584
0.623866
0.621156
0.618456
0.615763
0.613079
0.610404
0.607738
0.60508
0.602431
0.599791
0.597159
0.594537
0.591923
0.589318
0.586721
0.584134
0.581555
0.578985
0.576423
0.57387
0.571326
0.568791
0.566264
0.563745
0.561236
0.558734
0.556241
0.553757
0.551281
0.548813
0.546354
0.543903
0.541461
0.539027
0.536602
0.534185
0.531776
0.529376
0.526985
0.524603
0.52223
0.519866
0.517512
0.515167
0.512832
0.510506
0.508191
0.505887
0.503593
0.501311
0.49904
0.49678
0.494533
0.492299
0.490077
0.487869
0.485675
0.483495
0.481329
0.479179
0.477044
0.474925
0.472822
0.470736
0.468667
0.466616
0.464582
0.462567
0.460571
0.458593
0.456635
0.454697
0.452778
0.450879
0.449
0.447142
0.445305
0.443488
0.441692
0.439916
0.438162
0.436428
0.434715
0.433023
0.431351
0.4297
0.428069
0.426459
0.424868
0.423297
0.421746
0.420213
0.4187
0.417206
0.41573
0.414273
0.412835
0.411415
0.410013
0.40863
0.407264
0.405918
0.404592
0.403286
0.402003
0.400745
0.399513
0.398313
0.397147
0.396022
0.394944
0.393921
0.39296
0.392071
0.391263
0.390543
0.389917
0.389387
0.388952
0.388607
0.388343
0.388145
0.387998
0.387886
0.387793
0.38771
0.387629
0.387546
0.387458
0.387367
0.38728
0.38721
0.387171
0.387163
0.387179
0.387234
0.387338
0.387492
0.38769
0.38793
0.388216
0.388546
0.388918
0.389333
0.389791
0.390294
0.390844
0.391443
0.392097
0.392807
0.393578
0.394413
0.395316
0.396289
0.397334
0.398453
0.399647
0.400919
0.402269
0.403702
0.40522
0.406827
0.408529
0.410331
0.412239
0.414261
0.416403
0.418672
0.421075
0.423619
0.426311
0.429157
0.432165
0.435342
0.438695
0.442233
0.445964
0.449897
0.454041
0.458405
0.463
0.467832
0.47291
0.478244
0.483844
0.489725
0.495906
0.502413
0.509274
0.516516
0.524167
0.532247
0.540777
0.549776
0.559266
0.56927
0.579805
0.590888
0.602554
0.614917
0.628271
0.643262
0.661123
0.683937
0.714539
0.754995
0.802593
0.845915
0.869193
0.869193
0.845915
0.802593
0.754995
0.714539
0.683937
0.661123
0.643262
0.628271
0.614917
0.602554
0.590888
0.579805
0.56927
0.559266
0.549776
0.540777
0.532247
0.524167
0.516516
0.509274
0.502413
0.495906
0.489725
0.483844
0.478244
0.47291
0.467832
0.463
0.458405
0.454041
0.449897
0.445964
0.442233
0.438695
0.435342
0.432165
0.429157
0.426311
0.423619
0.421075
0.418672
0.416403
0.414261
0.412239
0.410331
0.408529
0.406827
0.40522
0.403702
0.402269
0.400919
0.399647
0.398453
0.397334
0.396289
0.395316
0.394413
0.393578
0.392807
0.392097
0.391443
0.390844
0.390294
0.389791
0.389333
0.388918
0.388546
0.388216
0.38793
0.38769
0.387492
0.387338
0.387234
0.387179
0.387163
0.387171
0.38721
0.38728
0.387367
0.387458
0.387546
0.387629
0.38771
0.387793
0.387886
0.387998
0.388145
0.388343
0.388607
0.388952
0.389387
0.389917
0.390543
0.391263
0.392071
0.39296
0.393921
0.394944
0.396022
0.397147
0.398313
0.399513
0.400745
0.402003
0.403286
0.404592
0.405918
0.407264
0.40863
0.410013
0.411415
0.412835
0.414273
0.41573
0.417206
0.4187
0.420213
0.421746
0.423297
0.424868
0.426459
0.428069
0.4297
0.431351
0.433023
0.434715
0.436428
0.438162
0.439916
0.441692
0.443488
0.445305
0.447142
0.449
0.450879
0.452778
0.454697
0.456635
0.458593
0.460571
0.462567
0.464582
0.466616
0.468667
0.470736
0.472822
0.474925
0.477044
0.479179
0.481329
0.483495
0.485675
0.487869
0.490077
0.492299
0.494533
0.49678
0.49904
0.501311
0.503593
0.505887
0.508191
0.510506
0.512832
0.515167
0.517512
0.519866
0.52223
0.524603
0.526985
0.529376
0.531776
0.534185
0.536602
0.539027
0.541461
0.543903
0.546354
0.548813
0.551281
0.553757
0.556241
0.558734
0.561236
0.563745
0.566264
0.568791
0.571326
0.57387
0.576423
0.578985
0.581555
0.584134
0.586721
0.589318
0.591923
0.594537
0.597159
0.599791
0.602431
0.60508
0.607738
0.610404
0.613079
0.615763
0.618456
0.621156
0.623866
0.626584
0.62931
0.632045
0.634788
0.637539
0.640298
0.643066
0.645841
0.648625
0.651416
0.654216
0.657023
0.659838
0.662661
0.665491
0.668329
0.671174
0.674026
0.676886
0.679754
0.682628
0.68551
0.688398
0.691294
0.694196
0.697105
0.700022
0.702944
0.705874
0.70881
0.711752
0.714701
0.717656
0.720617
0.723584
0.726557
0.729536
0.732522
0.735512
0.738509
0.741511
0.744518
0.747531
0.750549
0.753572
0.7566
0.759633
0.762671
0.765714
0.768761
0.771812
0.774868
0.777928
0.780991
0.784059
0.78713
0.790205
0.793283
0.796364
0.799449
0.802536
0.805625
0.808718
0.811812
0.814908
0.818006
0.821106
0.824207
0.827309
0.830412
0.833515
0.836619
0.839722
0.842825
0.845927
0.849028
0.852127
0.855225
0.85832
0.861413
0.864502
0.867588
0.87067
0.873746
0.876818
0.879883
0.882942
0.885994
0.889038
0.892074
0.8951
0.898115
0.90112
0.904112
0.907091
0.910056
0.913006
0.915939
0.918854
0.92175
0.924626
0.927479
0.930309
0.933114
0.935891
0.938641
0.941359
0.944044
0.946694
0.949307
0.951879
0.95441
0.956895
0.959332
0.961719
0.964052
0.966329
0.968546
0.970701
0.97279
0.97481
0.976759
0.978633
0.98043
0.982147
0.983781
0.985331
0.986795
0.988171
0.989458
0.990657
0.991766
0.992788
0.993722
0.994571
0.995338
0.996025
0.996636
0.997175
0.997647
0.998056
0.998408
0.998708
0.998961
0.999172
0.999347
0.99949
0.999606
0.999698
0.999772
0.999829
0.999874
0.999907
0.999933
0.999952
0.999966
0.999976
0.999984
0.999989
0.999993
0.999995
0.999997
0.999998
0.999999
0.999999
1
1
1
1
1
1
1
1
1
1
1
1
1
1
1
1
1
1
1
1
1
1
1
1
1
1
)
;

boundaryField
{
    sides
    {
        type            zeroGradient;
    }
    empty1
    {
        type            empty;
    }
    empty2
    {
        type            empty;
    }
}


// ************************************************************************* //
