/*--------------------------------*- C++ -*----------------------------------*\
| =========                 |                                                 |
| \\      /  F ield         | OpenFOAM: The Open Source CFD Toolbox           |
|  \\    /   O peration     | Version:  v1812                                 |
|   \\  /    A nd           | Web:      www.OpenFOAM.com                      |
|    \\/     M anipulation  |                                                 |
\*---------------------------------------------------------------------------*/
FoamFile
{
    version     2.0;
    format      ascii;
    class       volVectorField;
    location    "0.15";
    object      U;
}
// * * * * * * * * * * * * * * * * * * * * * * * * * * * * * * * * * * * * * //

dimensions      [0 1 -1 0 0 0 0];


internalField   nonuniform List<vector> 
800
(
(-2 0 0)
(-2 0 0)
(-2 0 0)
(-2 0 0)
(-2 0 0)
(-2 0 0)
(-2 0 0)
(-2 0 0)
(-2 0 0)
(-2 0 0)
(-2 0 0)
(-2 0 0)
(-2 0 0)
(-2 0 0)
(-2 0 0)
(-2 0 0)
(-2 0 0)
(-2 0 0)
(-2 0 0)
(-2 0 0)
(-2 0 0)
(-2 0 0)
(-2 0 0)
(-2 0 0)
(-2 0 0)
(-2 0 0)
(-2 0 0)
(-2 0 0)
(-2 0 0)
(-2 0 0)
(-1.99999 0 0)
(-1.99999 0 0)
(-1.99998 0 0)
(-1.99998 0 0)
(-1.99997 0 0)
(-1.99995 0 0)
(-1.99993 0 0)
(-1.9999 0 0)
(-1.99986 0 0)
(-1.99981 0 0)
(-1.99974 0 0)
(-1.99965 0 0)
(-1.99954 0 0)
(-1.9994 0 0)
(-1.99921 0 0)
(-1.99898 0 0)
(-1.9987 0 0)
(-1.99836 0 0)
(-1.99795 0 0)
(-1.99746 0 0)
(-1.99688 0 0)
(-1.9962 0 0)
(-1.9954 0 0)
(-1.99449 0 0)
(-1.99345 0 0)
(-1.99228 0 0)
(-1.99095 0 0)
(-1.98948 0 0)
(-1.98784 0 0)
(-1.98604 0 0)
(-1.98407 0 0)
(-1.98193 0 0)
(-1.97962 0 0)
(-1.97713 0 0)
(-1.97447 0 0)
(-1.97164 0 0)
(-1.96863 0 0)
(-1.96546 0 0)
(-1.96212 0 0)
(-1.95862 0 0)
(-1.95497 0 0)
(-1.95116 0 0)
(-1.9472 0 0)
(-1.9431 0 0)
(-1.93887 0 0)
(-1.9345 0 0)
(-1.93001 0 0)
(-1.92539 0 0)
(-1.92067 0 0)
(-1.91583 0 0)
(-1.91089 0 0)
(-1.90584 0 0)
(-1.90071 0 0)
(-1.89548 0 0)
(-1.89016 0 0)
(-1.88477 0 0)
(-1.8793 0 0)
(-1.87375 0 0)
(-1.86813 0 0)
(-1.86245 0 0)
(-1.85671 0 0)
(-1.85091 0 0)
(-1.84504 0 0)
(-1.83913 0 0)
(-1.83316 0 0)
(-1.82714 0 0)
(-1.82108 0 0)
(-1.81497 0 0)
(-1.80883 0 0)
(-1.80264 0 0)
(-1.79641 0 0)
(-1.79014 0 0)
(-1.78385 0 0)
(-1.77751 0 0)
(-1.77115 0 0)
(-1.76476 0 0)
(-1.75833 0 0)
(-1.75188 0 0)
(-1.74541 0 0)
(-1.7389 0 0)
(-1.73238 0 0)
(-1.72583 0 0)
(-1.71926 0 0)
(-1.71266 0 0)
(-1.70605 0 0)
(-1.69941 0 0)
(-1.69276 0 0)
(-1.68609 0 0)
(-1.6794 0 0)
(-1.6727 0 0)
(-1.66597 0 0)
(-1.65924 0 0)
(-1.65248 0 0)
(-1.64572 0 0)
(-1.63893 0 0)
(-1.63214 0 0)
(-1.62533 0 0)
(-1.61851 0 0)
(-1.61168 0 0)
(-1.60483 0 0)
(-1.59798 0 0)
(-1.59111 0 0)
(-1.58423 0 0)
(-1.57734 0 0)
(-1.57044 0 0)
(-1.56353 0 0)
(-1.55662 0 0)
(-1.54969 0 0)
(-1.54275 0 0)
(-1.53581 0 0)
(-1.52886 0 0)
(-1.52189 0 0)
(-1.51492 0 0)
(-1.50795 0 0)
(-1.50096 0 0)
(-1.49397 0 0)
(-1.48697 0 0)
(-1.47997 0 0)
(-1.47295 0 0)
(-1.46594 0 0)
(-1.45891 0 0)
(-1.45188 0 0)
(-1.44484 0 0)
(-1.4378 0 0)
(-1.43075 0 0)
(-1.4237 0 0)
(-1.41664 0 0)
(-1.40957 0 0)
(-1.4025 0 0)
(-1.39543 0 0)
(-1.38835 0 0)
(-1.38126 0 0)
(-1.37418 0 0)
(-1.36708 0 0)
(-1.35999 0 0)
(-1.35288 0 0)
(-1.34578 0 0)
(-1.33867 0 0)
(-1.33156 0 0)
(-1.32444 0 0)
(-1.31732 0 0)
(-1.31019 0 0)
(-1.30307 0 0)
(-1.29593 0 0)
(-1.2888 0 0)
(-1.28166 0 0)
(-1.27452 0 0)
(-1.26738 0 0)
(-1.26023 0 0)
(-1.25308 0 0)
(-1.24593 0 0)
(-1.23877 0 0)
(-1.23162 0 0)
(-1.22446 0 0)
(-1.21729 0 0)
(-1.21013 0 0)
(-1.20296 0 0)
(-1.19579 0 0)
(-1.18862 0 0)
(-1.18145 0 0)
(-1.17427 0 0)
(-1.16709 0 0)
(-1.15991 0 0)
(-1.15273 0 0)
(-1.14555 0 0)
(-1.13836 0 0)
(-1.13117 0 0)
(-1.12399 0 0)
(-1.1168 0 0)
(-1.1096 0 0)
(-1.10241 0 0)
(-1.09522 0 0)
(-1.08802 0 0)
(-1.08082 0 0)
(-1.07362 0 0)
(-1.06642 0 0)
(-1.05922 0 0)
(-1.05202 0 0)
(-1.04482 0 0)
(-1.03761 0 0)
(-1.0304 0 0)
(-1.0232 0 0)
(-1.01599 0 0)
(-1.00878 0 0)
(-1.00157 0 0)
(-0.99436 0 0)
(-0.987149 0 0)
(-0.979937 0 0)
(-0.972724 0 0)
(-0.96551 0 0)
(-0.958295 0 0)
(-0.95108 0 0)
(-0.943864 0 0)
(-0.936648 0 0)
(-0.92943 0 0)
(-0.922213 0 0)
(-0.914994 0 0)
(-0.907775 0 0)
(-0.900556 0 0)
(-0.893336 0 0)
(-0.886116 0 0)
(-0.878895 0 0)
(-0.871673 0 0)
(-0.864451 0 0)
(-0.857229 0 0)
(-0.850006 0 0)
(-0.842783 0 0)
(-0.835559 0 0)
(-0.828335 0 0)
(-0.821111 0 0)
(-0.813886 0 0)
(-0.806661 0 0)
(-0.799435 0 0)
(-0.792209 0 0)
(-0.784983 0 0)
(-0.777756 0 0)
(-0.770528 0 0)
(-0.7633 0 0)
(-0.756072 0 0)
(-0.748843 0 0)
(-0.741614 0 0)
(-0.734384 0 0)
(-0.727154 0 0)
(-0.719923 0 0)
(-0.712691 0 0)
(-0.705459 0 0)
(-0.698226 0 0)
(-0.690992 0 0)
(-0.683758 0 0)
(-0.676523 0 0)
(-0.669287 0 0)
(-0.66205 0 0)
(-0.654812 0 0)
(-0.647574 0 0)
(-0.640334 0 0)
(-0.633093 0 0)
(-0.62585 0 0)
(-0.618607 0 0)
(-0.611362 0 0)
(-0.604115 0 0)
(-0.596867 0 0)
(-0.589618 0 0)
(-0.582366 0 0)
(-0.575113 0 0)
(-0.567858 0 0)
(-0.5606 0 0)
(-0.553341 0 0)
(-0.546079 0 0)
(-0.538815 0 0)
(-0.531548 0 0)
(-0.524279 0 0)
(-0.517008 0 0)
(-0.509734 0 0)
(-0.502458 0 0)
(-0.495179 0 0)
(-0.487899 0 0)
(-0.480617 0 0)
(-0.473332 0 0)
(-0.466046 0 0)
(-0.458761 0 0)
(-0.451478 0 0)
(-0.444199 0 0)
(-0.436929 0 0)
(-0.429668 0 0)
(-0.422424 0 0)
(-0.4152 0 0)
(-0.408004 0 0)
(-0.400845 0 0)
(-0.393736 0 0)
(-0.386689 0 0)
(-0.379723 0 0)
(-0.372858 0 0)
(-0.366117 0 0)
(-0.359525 0 0)
(-0.353111 0 0)
(-0.346898 0 0)
(-0.34091 0 0)
(-0.335164 0 0)
(-0.329665 0 0)
(-0.324408 0 0)
(-0.319375 0 0)
(-0.314536 0 0)
(-0.309848 0 0)
(-0.305263 0 0)
(-0.300733 0 0)
(-0.296211 0 0)
(-0.29166 0 0)
(-0.287055 0 0)
(-0.282383 0 0)
(-0.277646 0 0)
(-0.272858 0 0)
(-0.268038 0 0)
(-0.26321 0 0)
(-0.258397 0 0)
(-0.253617 0 0)
(-0.24889 0 0)
(-0.244228 0 0)
(-0.239634 0 0)
(-0.23511 0 0)
(-0.230655 0 0)
(-0.226262 0 0)
(-0.221926 0 0)
(-0.217642 0 0)
(-0.213402 0 0)
(-0.209203 0 0)
(-0.205042 0 0)
(-0.200918 0 0)
(-0.196832 0 0)
(-0.192786 0 0)
(-0.188785 0 0)
(-0.184832 0 0)
(-0.180931 0 0)
(-0.177083 0 0)
(-0.173289 0 0)
(-0.169547 0 0)
(-0.165852 0 0)
(-0.162199 0 0)
(-0.158581 0 0)
(-0.154991 0 0)
(-0.151422 0 0)
(-0.14787 0 0)
(-0.144332 0 0)
(-0.140806 0 0)
(-0.137293 0 0)
(-0.133794 0 0)
(-0.130313 0 0)
(-0.126851 0 0)
(-0.123412 0 0)
(-0.12 0 0)
(-0.116616 0 0)
(-0.113262 0 0)
(-0.109939 0 0)
(-0.106649 0 0)
(-0.103393 0 0)
(-0.100169 0 0)
(-0.0969788 0 0)
(-0.0938221 0 0)
(-0.0906983 0 0)
(-0.0876071 0 0)
(-0.0845477 0 0)
(-0.0815193 0 0)
(-0.0785207 0 0)
(-0.0755508 0 0)
(-0.0726083 0 0)
(-0.0696917 0 0)
(-0.0667997 0 0)
(-0.0639306 0 0)
(-0.061083 0 0)
(-0.0582553 0 0)
(-0.0554462 0 0)
(-0.0526541 0 0)
(-0.0498776 0 0)
(-0.0471153 0 0)
(-0.0443661 0 0)
(-0.0416286 0 0)
(-0.0389018 0 0)
(-0.0361845 0 0)
(-0.0334757 0 0)
(-0.0307746 0 0)
(-0.0280803 0 0)
(-0.0253923 0 0)
(-0.0227102 0 0)
(-0.0200336 0 0)
(-0.0173628 0 0)
(-0.0146976 0 0)
(-0.0120353 0 0)
(-0.00936955 0 0)
(-0.00669398 0 0)
(-0.00401812 0 0)
(-0.00133844 0 0)
(0.00133844 0 0)
(0.00401812 0 0)
(0.00669398 0 0)
(0.00936955 0 0)
(0.0120353 0 0)
(0.0146976 0 0)
(0.0173628 0 0)
(0.0200336 0 0)
(0.0227102 0 0)
(0.0253923 0 0)
(0.0280803 0 0)
(0.0307746 0 0)
(0.0334757 0 0)
(0.0361845 0 0)
(0.0389018 0 0)
(0.0416286 0 0)
(0.0443661 0 0)
(0.0471153 0 0)
(0.0498776 0 0)
(0.0526541 0 0)
(0.0554462 0 0)
(0.0582553 0 0)
(0.061083 0 0)
(0.0639306 0 0)
(0.0667997 0 0)
(0.0696917 0 0)
(0.0726083 0 0)
(0.0755508 0 0)
(0.0785207 0 0)
(0.0815193 0 0)
(0.0845477 0 0)
(0.0876071 0 0)
(0.0906983 0 0)
(0.0938221 0 0)
(0.0969788 0 0)
(0.100169 0 0)
(0.103393 0 0)
(0.106649 0 0)
(0.109939 0 0)
(0.113262 0 0)
(0.116616 0 0)
(0.12 0 0)
(0.123412 0 0)
(0.126851 0 0)
(0.130313 0 0)
(0.133794 0 0)
(0.137293 0 0)
(0.140806 0 0)
(0.144332 0 0)
(0.14787 0 0)
(0.151422 0 0)
(0.154991 0 0)
(0.158581 0 0)
(0.162199 0 0)
(0.165852 0 0)
(0.169547 0 0)
(0.173289 0 0)
(0.177083 0 0)
(0.180931 0 0)
(0.184832 0 0)
(0.188785 0 0)
(0.192786 0 0)
(0.196832 0 0)
(0.200918 0 0)
(0.205042 0 0)
(0.209203 0 0)
(0.213402 0 0)
(0.217642 0 0)
(0.221926 0 0)
(0.226262 0 0)
(0.230655 0 0)
(0.23511 0 0)
(0.239634 0 0)
(0.244228 0 0)
(0.24889 0 0)
(0.253617 0 0)
(0.258397 0 0)
(0.26321 0 0)
(0.268038 0 0)
(0.272858 0 0)
(0.277646 0 0)
(0.282383 0 0)
(0.287055 0 0)
(0.29166 0 0)
(0.296211 0 0)
(0.300733 0 0)
(0.305263 0 0)
(0.309848 0 0)
(0.314536 0 0)
(0.319375 0 0)
(0.324408 0 0)
(0.329665 0 0)
(0.335164 0 0)
(0.34091 0 0)
(0.346898 0 0)
(0.353111 0 0)
(0.359525 0 0)
(0.366117 0 0)
(0.372858 0 0)
(0.379723 0 0)
(0.386689 0 0)
(0.393736 0 0)
(0.400845 0 0)
(0.408004 0 0)
(0.4152 0 0)
(0.422424 0 0)
(0.429668 0 0)
(0.436929 0 0)
(0.444199 0 0)
(0.451478 0 0)
(0.458761 0 0)
(0.466046 0 0)
(0.473332 0 0)
(0.480617 0 0)
(0.487899 0 0)
(0.495179 0 0)
(0.502458 0 0)
(0.509734 0 0)
(0.517008 0 0)
(0.524279 0 0)
(0.531548 0 0)
(0.538815 0 0)
(0.546079 0 0)
(0.553341 0 0)
(0.5606 0 0)
(0.567858 0 0)
(0.575113 0 0)
(0.582366 0 0)
(0.589618 0 0)
(0.596867 0 0)
(0.604115 0 0)
(0.611362 0 0)
(0.618607 0 0)
(0.62585 0 0)
(0.633093 0 0)
(0.640334 0 0)
(0.647574 0 0)
(0.654812 0 0)
(0.66205 0 0)
(0.669287 0 0)
(0.676523 0 0)
(0.683758 0 0)
(0.690992 0 0)
(0.698226 0 0)
(0.705459 0 0)
(0.712691 0 0)
(0.719923 0 0)
(0.727154 0 0)
(0.734384 0 0)
(0.741614 0 0)
(0.748843 0 0)
(0.756072 0 0)
(0.7633 0 0)
(0.770528 0 0)
(0.777756 0 0)
(0.784983 0 0)
(0.792209 0 0)
(0.799435 0 0)
(0.806661 0 0)
(0.813886 0 0)
(0.821111 0 0)
(0.828335 0 0)
(0.835559 0 0)
(0.842783 0 0)
(0.850006 0 0)
(0.857229 0 0)
(0.864451 0 0)
(0.871673 0 0)
(0.878895 0 0)
(0.886116 0 0)
(0.893336 0 0)
(0.900556 0 0)
(0.907775 0 0)
(0.914994 0 0)
(0.922213 0 0)
(0.92943 0 0)
(0.936648 0 0)
(0.943864 0 0)
(0.95108 0 0)
(0.958295 0 0)
(0.96551 0 0)
(0.972724 0 0)
(0.979937 0 0)
(0.987149 0 0)
(0.99436 0 0)
(1.00157 0 0)
(1.00878 0 0)
(1.01599 0 0)
(1.0232 0 0)
(1.0304 0 0)
(1.03761 0 0)
(1.04482 0 0)
(1.05202 0 0)
(1.05922 0 0)
(1.06642 0 0)
(1.07362 0 0)
(1.08082 0 0)
(1.08802 0 0)
(1.09522 0 0)
(1.10241 0 0)
(1.1096 0 0)
(1.1168 0 0)
(1.12399 0 0)
(1.13117 0 0)
(1.13836 0 0)
(1.14555 0 0)
(1.15273 0 0)
(1.15991 0 0)
(1.16709 0 0)
(1.17427 0 0)
(1.18145 0 0)
(1.18862 0 0)
(1.19579 0 0)
(1.20296 0 0)
(1.21013 0 0)
(1.21729 0 0)
(1.22446 0 0)
(1.23162 0 0)
(1.23877 0 0)
(1.24593 0 0)
(1.25308 0 0)
(1.26023 0 0)
(1.26738 0 0)
(1.27452 0 0)
(1.28166 0 0)
(1.2888 0 0)
(1.29593 0 0)
(1.30307 0 0)
(1.31019 0 0)
(1.31732 0 0)
(1.32444 0 0)
(1.33156 0 0)
(1.33867 0 0)
(1.34578 0 0)
(1.35288 0 0)
(1.35999 0 0)
(1.36708 0 0)
(1.37418 0 0)
(1.38126 0 0)
(1.38835 0 0)
(1.39543 0 0)
(1.4025 0 0)
(1.40957 0 0)
(1.41664 0 0)
(1.4237 0 0)
(1.43075 0 0)
(1.4378 0 0)
(1.44484 0 0)
(1.45188 0 0)
(1.45891 0 0)
(1.46594 0 0)
(1.47295 0 0)
(1.47997 0 0)
(1.48697 0 0)
(1.49397 0 0)
(1.50096 0 0)
(1.50795 0 0)
(1.51492 0 0)
(1.52189 0 0)
(1.52886 0 0)
(1.53581 0 0)
(1.54275 0 0)
(1.54969 0 0)
(1.55662 0 0)
(1.56353 0 0)
(1.57044 0 0)
(1.57734 0 0)
(1.58423 0 0)
(1.59111 0 0)
(1.59798 0 0)
(1.60483 0 0)
(1.61168 0 0)
(1.61851 0 0)
(1.62533 0 0)
(1.63214 0 0)
(1.63893 0 0)
(1.64572 0 0)
(1.65248 0 0)
(1.65924 0 0)
(1.66597 0 0)
(1.6727 0 0)
(1.6794 0 0)
(1.68609 0 0)
(1.69276 0 0)
(1.69941 0 0)
(1.70605 0 0)
(1.71266 0 0)
(1.71926 0 0)
(1.72583 0 0)
(1.73238 0 0)
(1.7389 0 0)
(1.74541 0 0)
(1.75188 0 0)
(1.75833 0 0)
(1.76476 0 0)
(1.77115 0 0)
(1.77751 0 0)
(1.78385 0 0)
(1.79014 0 0)
(1.79641 0 0)
(1.80264 0 0)
(1.80883 0 0)
(1.81497 0 0)
(1.82108 0 0)
(1.82714 0 0)
(1.83316 0 0)
(1.83913 0 0)
(1.84504 0 0)
(1.85091 0 0)
(1.85671 0 0)
(1.86245 0 0)
(1.86813 0 0)
(1.87375 0 0)
(1.8793 0 0)
(1.88477 0 0)
(1.89016 0 0)
(1.89548 0 0)
(1.90071 0 0)
(1.90584 0 0)
(1.91089 0 0)
(1.91583 0 0)
(1.92067 0 0)
(1.92539 0 0)
(1.93001 0 0)
(1.9345 0 0)
(1.93887 0 0)
(1.9431 0 0)
(1.9472 0 0)
(1.95116 0 0)
(1.95497 0 0)
(1.95862 0 0)
(1.96212 0 0)
(1.96546 0 0)
(1.96863 0 0)
(1.97164 0 0)
(1.97447 0 0)
(1.97713 0 0)
(1.97962 0 0)
(1.98193 0 0)
(1.98407 0 0)
(1.98604 0 0)
(1.98784 0 0)
(1.98948 0 0)
(1.99095 0 0)
(1.99228 0 0)
(1.99345 0 0)
(1.99449 0 0)
(1.9954 0 0)
(1.9962 0 0)
(1.99688 0 0)
(1.99746 0 0)
(1.99795 0 0)
(1.99836 0 0)
(1.9987 0 0)
(1.99898 0 0)
(1.99921 0 0)
(1.9994 0 0)
(1.99954 0 0)
(1.99965 0 0)
(1.99974 0 0)
(1.99981 0 0)
(1.99986 0 0)
(1.9999 0 0)
(1.99993 0 0)
(1.99995 0 0)
(1.99997 0 0)
(1.99998 0 0)
(1.99998 0 0)
(1.99999 0 0)
(1.99999 0 0)
(2 0 0)
(2 0 0)
(2 0 0)
(2 0 0)
(2 0 0)
(2 0 0)
(2 0 0)
(2 0 0)
(2 0 0)
(2 0 0)
(2 0 0)
(2 0 0)
(2 0 0)
(2 0 0)
(2 0 0)
(2 0 0)
(2 0 0)
(2 0 0)
(2 0 0)
(2 0 0)
(2 0 0)
(2 0 0)
(2 0 0)
(2 0 0)
(2 0 0)
(2 0 0)
(2 0 0)
(2 0 0)
(2 0 0)
(2 0 0)
)
;

boundaryField
{
    sides
    {
        type            surfaceNormalFixedValue;
        refValue        uniform 2;
    }
    empty1
    {
        type            empty;
    }
    empty2
    {
        type            empty;
    }
}


// ************************************************************************* //
