/*--------------------------------*- C++ -*----------------------------------*\
| =========                 |                                                 |
| \\      /  F ield         | OpenFOAM: The Open Source CFD Toolbox           |
|  \\    /   O peration     | Version:  v1812                                 |
|   \\  /    A nd           | Web:      www.OpenFOAM.com                      |
|    \\/     M anipulation  |                                                 |
\*---------------------------------------------------------------------------*/
FoamFile
{
    version     2.0;
    format      ascii;
    class       volScalarField;
    location    "1.4";
    object      p;
}
// * * * * * * * * * * * * * * * * * * * * * * * * * * * * * * * * * * * * * //

dimensions      [1 -1 -2 0 0 0 0];


internalField   nonuniform List<scalar> 
20400
(
98370.6
98370
98366.5
98364.6
98362.8
98359.1
98354.9
98349.8
98344.2
98338.2
98331.6
98324.7
98317.4
98309.3
98301.6
98293.4
98284.6
98276.3
98267.8
98259.2
98251
98242.9
98233.9
98225.4
98217.1
98208.5
98200.2
98191.7
98183.4
98174.9
98166.1
98156.9
98147.9
98138.6
98130.2
98121
98112.3
98103.8
98094.6
98088.8
98082.3
98075.6
98068.3
98058
98052.1
98046.5
98044.5
98042.7
98043.9
98045.2
98048.4
98052.3
98060.9
98068.4
98074.3
98088.1
98096.6
98106.4
98117.1
98128.7
98140.8
98152
98162.9
98173.3
98184.3
98193.8
98201.5
98210.9
98217.9
98227.8
98231.8
98229.9
98238.5
98242.8
98250.9
98253
98254
98256
98253.1
98244.3
98238.5
98234.1
98228.4
98217.8
98217.3
98219
98215.1
98215.8
98217.9
98218.5
98231.9
98245.8
98253.6
98265.1
98283
98303.4
98324.8
98347.8
98375.6
98405.8
98443.9
98478.9
98515.4
98552.3
98589.7
98630.9
98670.3
98708
98746.4
98783.5
98818.5
98850.5
98879.7
98905.9
98930
98950.7
98967.1
98982.9
98973.5
99001.3
98990.7
98994.8
99015
99001.3
98998.9
98999.1
98995.5
98994.1
98982.7
98968.2
98964.7
98960.3
98951.2
98941.7
98924.4
98912.1
98898.1
98885.5
98873.2
98861.3
98849.7
98836.8
98825.7
98817.8
98810.8
98804.6
98799.2
98796
98792.6
98791.8
98793.9
98794.5
98796.4
98797.4
98800
98803
98806.5
98809.2
98813.5
98816.7
98818.7
98821.3
98823.8
98825.8
98828.3
98830.3
98832.7
98835.4
98838.2
98840.8
98843.1
98845.6
98848.3
98849.7
98850.9
98852.1
98853.5
98854.6
98856.2
98857.5
98858.5
98860.1
98863.1
98866.3
98868.4
98870.2
98871.9
98873.4
98874.7
98876.4
98880.4
98885.1
98885.4
98886.4
98887.8
98889
98890.4
98892.9
98894.6
98895.6
98895.5
98896.5
98897.6
98898.7
98900
98901
98902.1
98902.8
98903.5
98904.1
98905.4
98907.4
98911.2
98917.7
98926.2
98929.7
98935.9
98930.3
98938.3
98941.1
98933.2
98933.3
98934.5
98927.4
98926
98921.6
98917
98913.3
98907.5
98902
98897.6
98892
98883.4
98878.2
98873.2
98866.5
98861.4
98856.9
98853.4
98850.3
98849.6
98849.8
98851.3
98854.7
98861.4
98870.5
98881.3
98892.4
98905
98919.6
98936.6
98950.5
98964.5
98979.6
98994.2
99006.1
99019.9
99035.4
99048
99059.1
99067.8
99076.4
99086.4
99094.3
99095.8
99099.4
99102.4
99106.4
99109.9
99113.2
99115.1
99118.7
99120.3
99122.7
99127.3
99127.9
99133.2
99137.5
99140.6
99139.5
99146
99148.5
99148.3
99153.3
99157.5
99160.1
99165.4
99166.1
99171.1
99173.4
99175.4
99176.1
99181.6
99187.7
99190.2
99190.2
99195.5
99202.5
99206.2
99212.1
99222.9
99229.3
99240.3
99252
99264.2
99279
99295.4
99311.7
99333.4
99354
99375.9
99399.6
99428.6
99455.4
99484.1
99513.8
99544.2
99575
99605.7
99636.7
99666.7
99696
99724.7
99753
99782.4
99811.7
99840.7
99868.1
99895.5
99922.3
99950.1
99974.8
100005
100028
100050
100070
100091
100112
100133
100153
100172
100196
100220
100236
100254
100272
100289
100306
100324
100344
100359
100374
100390
100405
100419
100434
100447
100461
100473
100487
100498
100510
100520
100531
100541
100551
100561
100571
100578
100587
100597
100604
100607
100614
100622
100621
100624
100630
100636
100638
100640
100642
100642
100642
100645
100644
100644
100646
100648
100647
100649
100651
100653
100656
100662
100666
100671
100678
100683
100688
100694
100701
100710
100719
100730
100741
100752
100764
100776
100788
100799
100809
100819
100832
100845
100857
100869
100881
100893
100905
100916
100927
100939
100953
100965
100976
100987
100999
101012
101024
101037
101049
101062
101075
101089
101102
101115
101128
101142
101156
101169
101185
101198
101209
101220
101235
101241
101255
101267
101281
101290
101299
101307
101316
101324
101324
101333
101342
101351
101355
101359
101368
101375
101379
101383
101389
101393
101397
101400
101404
101408
101414
101418
101422
101425
101428
101430
101431
101432
101434
101436
101437
101437
101437
101435
101432
101428
101424
101418
101412
101406
101400
101395
101388
101380
101371
101361
101352
101341
101377
98376.7
98376.1
98374.3
98372
98369.4
98365
98360.1
98354.4
98348.1
98341.4
98334.1
98326.5
98318.5
98309.7
98301.5
98292.6
98284.9
98276.1
98267.2
98258.3
98249.3
98240.6
98231.7
98222.7
98214.2
98205.5
98197.2
98189.1
98181.2
98173
98165.1
98157.3
98149.8
98141.5
98133.9
98126.3
98119.6
98112.8
98105.8
98095.3
98088.2
98080.8
98073.7
98068.8
98066.4
98059.9
98056.7
98052.1
98050.7
98048.8
98048.8
98050.3
98053.8
98057.7
98061.7
98068.3
98074.2
98083.5
98093.3
98104.4
98116.2
98129.5
98143.2
98156.2
98169.8
98182.3
98193.4
98206.2
98216.7
98224.3
98231.5
98234.5
98249
98251.9
98252.5
98276.1
98278
98280.7
98282.7
98283.3
98285.4
98289.7
98294.1
98293
98282.6
98278.4
98270.4
98266.7
98262.3
98252.4
98252.5
98251.1
98255.2
98260.7
98274.9
98299.4
98323.8
98338.2
98364.6
98381.2
98407.2
98436.1
98463.6
98491.9
98519.6
98553.8
98589.2
98620.4
98653.1
98684.5
98714.1
98742.6
98770.4
98797.1
98822.9
98853.2
98891.1
98932.9
98957.7
98991.8
98996.4
99006.9
99018.9
99011.1
99009.3
99008.8
99007.7
98997.4
98984.2
98978.3
98962.5
98945.3
98929.6
98918.3
98910.7
98900
98886.6
98873.6
98861.1
98849.3
98839.3
98831.2
98826.2
98819
98812
98805.5
98799.6
98795.4
98790.9
98790.7
98791.4
98792
98794.3
98796.1
98797.4
98798.1
98799.5
98801.5
98805.3
98810.7
98813.9
98817.2
98820.8
98824.3
98828.5
98831.7
98834
98835.7
98836.6
98836.4
98837
98838.8
98842.1
98845.5
98847.3
98849.9
98850.8
98851.9
98852.5
98852.1
98852
98853.4
98856.1
98860.9
98864.8
98868
98871.1
98874.3
98877.3
98881
98885
98889.4
98887.5
98887.7
98889.6
98890.9
98892.2
98894.8
98897.2
98899.4
98899.8
98900.3
98901.2
98901.8
98903.2
98904.5
98906.2
98907.2
98908
98908.1
98908.4
98909.9
98912.7
98916.9
98925.3
98929.7
98934.1
98933.7
98943
98948.9
98945.7
98944.9
98941.2
98933.1
98930.5
98925.8
98920.3
98918.8
98916.1
98913.8
98912.1
98909.2
98903.7
98898.7
98893.5
98885.9
98879.3
98873.2
98867.2
98862
98858.4
98854.7
98852.7
98852.5
98855.6
98859.2
98865.7
98874
98884.9
98898
98915.4
98932.1
98949.2
98969.7
98990.9
99007.8
99016.9
99021.6
99028.7
99037.2
99045.2
99052.1
99064.9
99079.8
99086.4
99093.6
99100.2
99106.6
99111.4
99115
99116.4
99119.1
99121.8
99126.3
99130.4
99130.4
99132.8
99135.3
99144.3
99144
99153.2
99158.4
99158.7
99160.5
99156.1
99155.7
99162.3
99163.1
99167.8
99175.1
99179.3
99181
99187.9
99196.7
99203.5
99207.9
99215.3
99220.8
99223.6
99227.6
99237.8
99244.2
99254.9
99264.6
99275.9
99289.1
99304.2
99319.4
99337.2
99355.4
99375.9
99397.7
99422.2
99446.5
99473.3
99502
99532.1
99563.3
99595.4
99628.5
99662
99696.1
99730.1
99764.3
99797.8
99818.5
99835.9
99858.7
99882.8
99906.8
99933
99957.2
99989.5
100021
100044
100067
100090
100114
100139
100163
100186
100210
100226
100238
100253
100270
100286
100301
100318
100341
100358
100375
100391
100406
100421
100435
100449
100462
100474
100486
100498
100509
100520
100532
100542
100552
100564
100573
100581
100587
100596
100603
100609
100617
100629
100631
100626
100626
100632
100632
100633
100636
100638
100640
100644
100643
100645
100650
100651
100649
100650
100650
100651
100654
100661
100666
100670
100677
100683
100691
100700
100709
100717
100726
100734
100741
100747
100755
100764
100774
100784
100795
100806
100818
100835
100849
100863
100876
100890
100904
100919
100932
100947
100960
100970
100976
100988
100999
101011
101024
101038
101051
101063
101075
101088
101101
101115
101128
101142
101157
101169
101183
101195
101206
101219
101239
101252
101255
101259
101271
101270
101285
101300
101310
101313
101313
101321
101336
101349
101362
101362
101367
101374
101378
101380
101386
101390
101394
101397
101403
101408
101413
101415
101418
101419
101421
101422
101422
101421
101424
101426
101428
101432
101432
101432
101431
101430
101428
101426
101422
101418
101413
101405
101394
101383
101373
101360
101350
101335
101370
98373.1
98372.1
98370.4
98367.1
98364.8
98360.4
98355.8
98350.3
98344.4
98338.1
98331
98323.8
98316.1
98307.6
98299.8
98291.6
98283.7
98274.8
98266.2
98257.5
98248.7
98240.2
98231.4
98222.6
98214.1
98205.6
98197.8
98190.7
98182.1
98172.5
98164.3
98157.4
98149.9
98140.9
98131.7
98125
98117.8
98110.8
98101.6
98092.4
98084.1
98076.5
98069.6
98070.1
98065.5
98062.3
98060.8
98056.9
98055.4
98053.2
98051.9
98051.6
98054.2
98055.3
98057
98067.4
98075.2
98081.5
98091.5
98103.9
98117.1
98130.7
98143.3
98156.4
98170.5
98182.7
98193.5
98206.6
98216
98226.4
98235.6
98247
98251.9
98259.1
98275.3
98277.7
98277.5
98279.9
98279.3
98275.6
98272.2
98269.9
98265
98254.5
98252.6
98251.2
98251.5
98265.3
98256.8
98265.6
98262.8
98268.1
98278.4
98279.1
98284.6
98295.3
98307.1
98321.8
98340.3
98362.1
98390.6
98416.9
98450.4
98491
98531.7
98573.1
98615.1
98654.9
98695.1
98735.2
98773.7
98809.7
98843.3
98874.3
98903.1
98928.2
98949.3
98971.8
98982.9
99000.2
98995.9
98992.8
99001.2
98991.4
98995.1
98996.1
98997.2
98988.9
98987
98977.7
98963
98950
98938.2
98934.9
98934.8
98925.1
98909.7
98894.2
98880.1
98866
98852.3
98838.9
98826.5
98817.4
98809.8
98803.3
98797.4
98794.2
98790.2
98789.5
98791.6
98792.9
98796.3
98798.5
98802.4
98806.2
98811.7
98816.9
98822.9
98818.1
98815.4
98816.7
98819.3
98822
98824.9
98828.4
98832
98835.3
98838.7
98843.7
98848.2
98851.1
98850.5
98847.7
98847.9
98850.6
98853.9
98856.1
98858.8
98863.6
98868.7
98871.8
98873.4
98870.6
98866.4
98864.5
98864.4
98865.4
98867
98869
98873.7
98881.9
98883.5
98886.9
98889.6
98892.3
98893.3
98896.5
98898
98896.8
98898.3
98899.8
98901.6
98903
98905
98905.6
98906.2
98906.2
98906
98905.3
98903.4
98904.7
98906.9
98914.8
98924.7
98936.9
98944
98937.7
98929.9
98926.5
98931.6
98929.1
98919.3
98924.1
98921.6
98916.7
98914.8
98919.5
98918.3
98911.3
98904.3
98894.7
98883.7
98875.8
98870.5
98864.3
98858.3
98854.6
98849.8
98846
98845
98845.6
98848.4
98851.3
98853
98859.1
98866.1
98875.2
98887.1
98901
98920.4
98939.8
98957.1
98976.7
99001.4
99024.3
99040.2
99051.2
99063.5
99077
99089.7
99105.9
99105.7
99098
99091.1
99096.6
99099.2
99103.7
99108
99113.2
99116.9
99121.7
99121.7
99119.7
99125.1
99129.6
99131.9
99144.6
99146.6
99138.4
99135.7
99139.9
99142.8
99139.2
99145.7
99150.9
99158.3
99158.9
99165.2
99173.6
99183.4
99184.8
99188.9
99188.1
99189.8
99191.7
99193.2
99192.9
99194.9
99203.9
99216
99224.6
99236
99249.4
99261.2
99274.1
99287.6
99302.4
99325
99353.3
99374.7
99398.2
99419.4
99444.2
99472.1
99501.2
99531.4
99562.4
99594.2
99627.4
99661.8
99696.4
99729
99763.7
99797.6
99827
99853.3
99880
99909.6
99939.1
99969.6
99999.2
100025
100023
100039
100060
100083
100104
100126
100149
100171
100196
100218
100235
100253
100274
100294
100315
100334
100350
100359
100371
100388
100403
100418
100432
100445
100458
100472
100488
100501
100514
100522
100531
100542
100550
100559
100569
100577
100587
100601
100612
100606
100604
100615
100616
100619
100625
100631
100632
100632
100637
100641
100644
100648
100653
100645
100645
100648
100648
100649
100651
100654
100657
100660
100666
100669
100675
100679
100684
100693
100701
100712
100723
100735
100748
100761
100775
100789
100804
100819
100834
100848
100860
100860
100863
100870
100878
100888
100897
100909
100921
100934
100948
100963
100975
100987
101000
101012
101023
101034
101047
101061
101075
101089
101102
101115
101127
101141
101155
101168
101184
101204
101211
101213
101227
101235
101249
101261
101271
101276
101285
101309
101321
101332
101330
101323
101335
101342
101348
101355
101363
101373
101375
101378
101388
101394
101398
101401
101404
101407
101415
101420
101426
101430
101434
101439
101444
101449
101449
101450
101447
101437
101431
101428
101423
101419
101415
101412
101408
101404
101400
101397
101388
101380
101372
101363
101358
101353
101391
98374.7
98373.6
98372.2
98368.2
98366.8
98362.6
98358.2
98352.9
98347.2
98341
98334
98326.8
98319.2
98310.9
98303.1
98295.2
98286.9
98278.4
98269.5
98260.6
98252
98243.4
98234.8
98226.1
98217.7
98209.1
98200.3
98190.5
98182
98175.2
98167.7
98158.4
98149.8
98142.6
98136
98124.7
98115.6
98107.8
98098.8
98091.4
98084.1
98077.3
98071.8
98063.9
98058.8
98053.5
98050.7
98046
98045.2
98042.5
98044.8
98048.2
98054.4
98060.6
98065.2
98076.9
98086.7
98095.4
98105.5
98118
98130.7
98142.9
98154.2
98165.8
98178.5
98189.8
98199.3
98212.2
98221.4
98234
98239.9
98244.3
98250.3
98261.9
98279
98280.4
98282.1
98282.8
98279.7
98273.9
98265.1
98258.2
98249.8
98235.2
98231.7
98225.5
98221.4
98213.2
98212.5
98205.8
98213.3
98212.9
98219.7
98230.1
98250.2
98266.5
98289.1
98308.8
98340.8
98369
98405.3
98440.4
98477.3
98517.4
98555.4
98594.2
98634
98670.6
98706.2
98741.5
98777.1
98811.8
98844.8
98875.7
98904.1
98928.8
98950.3
98972.8
98986.5
99007
99012.4
99016.8
99024.4
99016.2
99011.5
99008.9
99002
98995
98982.6
98971
98964.1
98954.9
98944.2
98930.7
98914.8
98899.1
98884.3
98872.6
98860.9
98848.6
98837
98826.3
98818.1
98812.8
98805.3
98798.7
98793.4
98789.6
98787
98786.3
98787.3
98788.3
98790.7
98793
98797.3
98803.5
98809.8
98814.5
98821.6
98822.3
98823.2
98825.8
98828.8
98831.6
98834.8
98835.9
98833.2
98832.3
98835.5
98839.9
98844
98847.4
98849.4
98850.9
98853.3
98855.4
98851.9
98850.1
98853.4
98857.8
98862.6
98866
98868.6
98870.1
98873.2
98875.3
98879
98883.9
98887.6
98892.1
98897.2
98890
98877.2
98879.6
98881
98882.7
98885
98888.2
98891.6
98894.2
98897.3
98897.6
98898.6
98897.3
98899
98900.8
98904.1
98905.7
98906.3
98907.6
98908.3
98912.3
98916.1
98920.8
98923.8
98919.4
98926.4
98927.9
98920.2
98921.4
98929.6
98922.5
98909.4
98923.9
98932
98929.7
98915.4
98907.1
98906
98902.2
98893.7
98883.2
98879
98871.7
98869.9
98868.8
98863.9
98855.8
98848.8
98845.9
98844.4
98844.6
98847.9
98851.9
98859.2
98868.8
98878.5
98890
98902.7
98914.6
98930.4
98946.1
98958.5
98971.1
98980
98994.6
99012.1
99029
99042.9
99056.4
99072.5
99094.9
99101
99097.1
99098.1
99104.7
99110
99113.8
99115.5
99114.8
99114.1
99117.4
99120.2
99124.7
99134.3
99134.6
99125.2
99121.5
99137.5
99138.1
99132.9
99136.8
99144.5
99137.8
99149.8
99161
99172.8
99168.6
99163
99165.4
99175.6
99180.3
99181.7
99178
99180.3
99188.6
99192.8
99197.5
99199
99214.8
99223.3
99229.5
99242.2
99249.5
99260.5
99274
99290.9
99305.4
99329.7
99354.5
99376.7
99401.3
99430.1
99458
99487.5
99518.5
99549.8
99581
99612
99643.5
99675.1
99706
99732
99752.5
99774.5
99807.1
99838
99865.3
99894.2
99924.2
99954.5
99986.7
100017
100030
100049
100072
100095
100119
100140
100163
100182
100207
100218
100226
100245
100266
100286
100304
100325
100340
100357
100372
100389
100405
100421
100435
100451
100466
100474
100482
100494
100506
100516
100529
100539
100548
100561
100575
100586
100581
100588
100599
100601
100606
100619
100619
100621
100631
100641
100644
100640
100636
100634
100634
100636
100633
100637
100640
100642
100642
100647
100648
100649
100650
100657
100661
100668
100676
100682
100692
100699
100704
100707
100712
100720
100730
100741
100754
100767
100781
100795
100810
100823
100837
100847
100858
100870
100883
100897
100910
100925
100940
100956
100968
100969
100971
100985
100997
101009
101021
101035
101051
101064
101075
101087
101100
101113
101126
101141
101162
101172
101179
101190
101199
101214
101227
101238
101251
101264
101286
101295
101295
101296
101305
101317
101309
101324
101338
101340
101346
101356
101366
101378
101385
101378
101382
101386
101390
101395
101403
101407
101411
101412
101416
101420
101424
101430
101436
101440
101444
101445
101445
101445
101443
101443
101441
101439
101436
101433
101429
101423
101416
101402
101388
101377
101368
101358
101354
101337
101384
98377.9
98376.5
98375.6
98371.1
98369.8
98365.4
98361
98355.7
98349.9
98343.5
98336.5
98329.2
98321.3
98312.9
98304.9
98296.2
98287.2
98278.5
98269.8
98261.1
98252.4
98244
98235.6
98227.1
98219
98210.4
98202.1
98193.7
98186.1
98178.1
98169.8
98161.2
98152.6
98143.6
98135.7
98126.2
98117.7
98110.6
98102.8
98096.4
98089.5
98082.4
98074.4
98064.3
98057.2
98050.5
98046.5
98041.5
98040.5
98037.1
98040.4
98043.9
98050.7
98057.8
98061.4
98073.3
98082.9
98091.4
98102
98115.3
98128.8
98141.6
98153.6
98166
98179.4
98190.7
98199.8
98212.9
98222.9
98233.3
98240.7
98244.9
98249.1
98262.1
98272.9
98270.7
98272.2
98272.9
98268.6
98261.4
98249.5
98240.6
98229.9
98216.6
98210.1
98205
98195.5
98195.2
98192.9
98190.3
98202.9
98207.7
98226.1
98230.1
98248.7
98261.8
98289.5
98306.7
98341.5
98369.6
98403.9
98440.3
98478.4
98519.8
98560.1
98600.7
98648.9
98698.1
98741.6
98777.7
98810.3
98840.9
98868.7
98893.3
98914.8
98932
98947
98962
98971.2
98983.6
98983.4
98982.2
98993.6
98996.4
98999
98998
98995.2
98986.6
98979.2
98969.3
98960.8
98950.4
98940.1
98930
98918.8
98907.3
98897.9
98890.4
98879.7
98865.2
98849.9
98835.7
98822.8
98812.3
98804.4
98798
98792.4
98789.3
98786.6
98785.7
98787.3
98788.8
98791.6
98793.6
98797.6
98800.9
98802.9
98805.6
98808.3
98816.1
98820.9
98824.1
98827.2
98830.2
98832.6
98836
98838.5
98839.9
98841.7
98842.7
98842.9
98844.1
98846.9
98850.5
98852.4
98855.6
98856.9
98858.4
98859.9
98861.6
98863.1
98860.2
98856.5
98860.6
98864.9
98867.4
98870.3
98874.8
98878.1
98882.6
98889
98888.2
98884.6
98888.3
98892.3
98895.5
98898.6
98902.4
98901.7
98888.8
98892
98893.5
98895.2
98896.2
98900.1
98901.9
98904.1
98905.8
98909.2
98911.8
98908.3
98902.4
98900.7
98906.4
98910.9
98916.1
98927
98927
98931.8
98940.6
98950
98942.9
98928
98910.7
98912.8
98912.5
98903.3
98895.8
98901
98896.9
98889.4
98885.2
98890.2
98884.7
98871.5
98861.6
98852.1
98847.5
98841.3
98840
98841.4
98841
98838.5
98842
98847.5
98855.9
98869.1
98881.8
98897.8
98912.3
98930.1
98951.3
98975.9
98993
99001
99009.9
99021.2
99032.8
99043.3
99054.4
99064.3
99076.1
99084.9
99094.7
99095
99099.3
99103.6
99108.7
99111.5
99113.8
99114.8
99122
99125.8
99116.8
99111.7
99124.9
99127.2
99122.3
99133
99136.5
99138
99138.8
99152.3
99160.9
99156.7
99146.7
99159.4
99165.6
99162.9
99161.5
99173.2
99181
99184.5
99190.3
99195.4
99203.8
99205.3
99202.6
99204.7
99204.2
99204.1
99211.9
99224.3
99237.7
99251.4
99265.2
99284.2
99304.1
99318.9
99336.9
99359.2
99384.5
99414.6
99441.6
99472.3
99505.2
99539.5
99574.4
99608.8
99642.9
99677
99710.3
99745.7
99770.5
99797.1
99824.1
99849.7
99875.3
99902.2
99928.1
99950.5
99971.8
100001
100029
100047
100068
100091
100114
100136
100161
100179
100204
100223
100238
100256
100276
100294
100309
100326
100344
100358
100372
100387
100403
100417
100432
100443
100456
100469
100482
100494
100504
100518
100532
100544
100551
100553
100565
100571
100579
100591
100599
100601
100608
100626
100629
100631
100623
100623
100629
100630
100625
100632
100634
100633
100634
100637
100649
100655
100651
100647
100650
100650
100656
100661
100667
100668
100670
100684
100694
100702
100711
100721
100730
100740
100750
100760
100770
100781
100792
100802
100813
100822
100829
100839
100849
100860
100872
100884
100897
100910
100924
100940
100954
100963
100972
100984
100998
101013
101026
101032
101045
101058
101073
101087
101100
101115
101131
101139
101147
101163
101173
101189
101202
101216
101235
101249
101263
101263
101266
101283
101290
101292
101305
101318
101312
101331
101346
101351
101355
101355
101359
101367
101368
101378
101381
101386
101392
101398
101404
101407
101414
101420
101425
101429
101432
101435
101437
101441
101429
101427
101430
101433
101431
101430
101429
101427
101426
101423
101420
101416
101413
101405
101395
101386
101377
101368
101360
101347
101389
98381.6
98380
98379.4
98375
98373.4
98368.8
98364.1
98358.8
98352.9
98346.2
98338.7
98331.3
98323.4
98315.1
98306.9
98298
98288.5
98279.7
98270.9
98262.3
98253.6
98245.2
98236.9
98228.5
98220.5
98212.1
98204
98195.7
98187.7
98179.4
98171.2
98162.7
98154.2
98145
98136.3
98125.9
98116.7
98108.2
98100.9
98093.7
98085.9
98078.8
98070.9
98062.5
98056.5
98049.9
98045.8
98040.1
98038.2
98033.5
98037.3
98039.4
98044.1
98051.7
98058.2
98071.3
98082.6
98093.5
98105.4
98120.3
98135.3
98149
98161.9
98174.5
98187.7
98198.5
98206.1
98220.3
98231.7
98241.6
98250.3
98255.6
98263.6
98266.3
98279.9
98273.4
98272.2
98271.6
98266.8
98259.3
98246.2
98236
98229.8
98210
98200.8
98192
98186.4
98183.6
98174.4
98179.7
98184.1
98202.2
98225.5
98230.2
98239.8
98268.9
98292.8
98319.7
98349.9
98368.6
98400.2
98434.1
98466.7
98502.6
98536.3
98570.3
98604
98646.8
98689
98730.4
98770.7
98808.6
98843.6
98874.8
98902.8
98927
98950.1
98974
98991.9
99009.4
99013.6
99005.1
99006.7
99002.4
98998.9
98995.5
98989.6
98982.9
98975.2
98967.1
98959.9
98951
98942.7
98933.2
98921.8
98908.3
98892.1
98876.2
98861.3
98847.3
98835
98823
98812.5
98803.4
98799.6
98794.4
98789.3
98785.5
98783.2
98782.8
98783.9
98785.6
98788.3
98792.8
98797.6
98802.1
98805.4
98808.7
98813.3
98816.4
98817.9
98820.1
98822.1
98824
98825.3
98828.5
98834
98837.8
98840
98841.4
98842.7
98844.9
98846.9
98848
98848.6
98850.1
98854.4
98857.5
98859.8
98860.6
98865.9
98866.5
98868
98869.7
98871.2
98872.6
98874.1
98876.2
98875.7
98876.4
98874.7
98882.3
98881
98882.1
98883.6
98885.6
98888.5
98894.3
98895.5
98894.2
98897
98898.2
98898.7
98894.4
98893.5
98894.7
98899.1
98901.4
98899.1
98896.8
98895.9
98898.3
98902.3
98913.4
98927.4
98943
98956.4
98952.4
98947.4
98939.9
98926.6
98922.5
98914.9
98908
98913.9
98911.8
98907.8
98911.4
98921.2
98919.2
98908.8
98892.1
98881.9
98872.7
98857.8
98853.8
98847.5
98844.6
98843
98838.7
98834.6
98834.5
98836.6
98841
98846
98851.8
98860.8
98871.2
98883.9
98894.2
98906.4
98922.8
98943.3
98959.9
98977.5
98994.6
99010.8
99026
99040.4
99057.4
99070.8
99079.5
99085.5
99092.7
99094.3
99098.9
99102.8
99106.9
99110.5
99113.2
99117.7
99114
99114.5
99114.7
99116.1
99126.4
99129.2
99129.8
99140
99140.2
99153.2
99146.6
99139.4
99149.7
99154.8
99150.7
99157.1
99166
99172.6
99177.8
99187
99190.2
99190.9
99191.5
99191.2
99191.2
99188.6
99184.4
99194.8
99197.3
99198.9
99220.7
99232.9
99241.8
99255.6
99268.6
99284.7
99304.4
99320.3
99343.7
99366.7
99390.5
99417.6
99446
99474.4
99505.2
99537.5
99569.5
99600.7
99627.5
99652.1
99681.5
99718.9
99753.9
99784.6
99814.8
99843.7
99872.3
99902
99929.2
99956.2
99983.7
100007
100030
100050
100072
100093
100116
100135
100157
100167
100189
100219
100237
100253
100272
100290
100307
100325
100343
100359
100375
100390
100405
100420
100432
100445
100459
100473
100489
100505
100509
100513
100525
100538
100541
100553
100567
100572
100581
100594
100608
100613
100613
100616
100617
100624
100625
100626
100634
100634
100627
100638
100647
100647
100640
100638
100640
100641
100641
100643
100649
100652
100651
100651
100654
100667
100676
100681
100679
100682
100691
100703
100714
100726
100738
100750
100763
100777
100790
100802
100816
100831
100844
100853
100862
100873
100884
100894
100905
100917
100928
100940
100952
100963
100973
100983
100994
101008
101020
101032
101045
101058
101072
101088
101099
101107
101121
101133
101147
101165
101178
101194
101214
101227
101229
101234
101250
101261
101267
101281
101291
101297
101304
101328
101332
101328
101337
101342
101344
101351
101358
101366
101370
101378
101390
101390
101392
101397
101401
101404
101411
101417
101422
101428
101432
101438
101439
101442
101443
101441
101443
101443
101441
101439
101436
101433
101428
101423
101416
101406
101398
101395
101387
101379
101370
101361
101355
101338
101393
98387.2
98384.8
98384.6
98380.3
98378.2
98373.7
98368.7
98363.1
98356.5
98348.7
98340.6
98333.3
98325.5
98317
98308
98298.9
98290.2
98281.7
98272.4
98263.2
98254.5
98246.2
98237.9
98229.8
98222.1
98213.9
98206.2
98198.7
98191.2
98183.2
98174.7
98167
98158.3
98149.4
98141.6
98132.5
98122
98113.7
98105.5
98095.6
98085.8
98077.4
98068.5
98059.7
98053.2
98046.7
98042.5
98036
98033.6
98029
98032.3
98033.8
98037.3
98045.5
98052.4
98064.5
98075.9
98087.7
98099.1
98114.3
98129.8
98144.5
98159.1
98174.1
98189.8
98202
98211
98227.1
98238.8
98251.4
98259.5
98266.4
98274.5
98279.6
98281.5
98279.2
98274.4
98271.7
98265.8
98258.8
98241.4
98229.2
98215.4
98202.6
98187.5
98179.8
98170.9
98164
98168.7
98164.3
98179.1
98187.5
98203.6
98213.2
98236.5
98243.6
98268.7
98312.6
98331.1
98361.1
98397.4
98434.8
98471.6
98511.7
98556.6
98598
98629.4
98660.9
98694.1
98728.6
98763.8
98797.4
98828.7
98856.6
98881.5
98902.9
98921.1
98938.8
98953.5
98974.6
98987.1
98985.7
98992.4
98992.6
98992.7
98989.3
98984
98976.5
98969.2
98960.4
98951.6
98942
98932.3
98922.1
98910.6
98898.1
98886.6
98873.5
98862.1
98851.9
98842
98830.8
98820.6
98811.6
98802.1
98795.2
98789.1
98786.4
98784.7
98784.2
98785.3
98787
98789.3
98791.5
98795.5
98799.1
98803
98807.6
98811.8
98817
98819.7
98821.9
98824.2
98826.1
98828.8
98831.1
98833.5
98835
98837.1
98838.8
98840.3
98843.3
98846.5
98848.1
98849.8
98851.2
98852.3
98852.7
98853.4
98852.8
98853.1
98860
98863.1
98866.3
98868.7
98871.1
98873.5
98875.7
98878.8
98881
98881.2
98882.7
98880.9
98882.2
98883.2
98883.6
98882
98882.2
98888.3
98888.4
98888.3
98888.4
98887.9
98889.8
98891.1
98893.6
98893.8
98893.7
98894.8
98898.9
98903.6
98908.9
98920
98926.5
98931.8
98931.2
98933.5
98927
98922.6
98922.8
98923.9
98921.4
98918
98921.7
98933
98933.6
98927
98917.2
98907.3
98899.1
98889.7
98873.6
98874.4
98868.3
98855.9
98855.2
98858.4
98849.2
98840.5
98835.4
98834.1
98832
98833.1
98838.8
98844.2
98854
98863.9
98879.1
98893.5
98907.4
98924.9
98936.9
98948.8
98962.1
98977.6
98992.3
99006.2
99019
99030.7
99041.4
99055.4
99069.1
99079.1
99085.1
99088.7
99094.6
99100.2
99106
99109.6
99112.5
99112.8
99115.3
99117
99119.3
99127.1
99131.8
99135.7
99136.4
99138.3
99129.3
99138.9
99143
99140.3
99145.6
99153.8
99158.9
99168
99172.4
99177.2
99179.3
99179.6
99179.6
99178.8
99176.4
99178.7
99185.9
99188.6
99183.9
99196.1
99205.6
99209.9
99216.9
99224.7
99235.8
99250.6
99264.1
99278.3
99291
99312.1
99332
99354.5
99381.9
99409.8
99441.6
99473.5
99506.9
99542.1
99576.9
99612.6
99645.1
99673.5
99703.6
99732.7
99761.3
99789.2
99816.9
99843.9
99871.1
99890.6
99910.9
99942.3
99975.1
100002
100025
100047
100071
100093
100116
100137
100156
100176
100200
100220
100236
100254
100273
100288
100305
100320
100337
100357
100374
100389
100404
100418
100432
100446
100460
100470
100481
100494
100502
100511
100526
100536
100541
100558
100571
100584
100589
100590
100594
100604
100611
100614
100618
100625
100627
100631
100637
100638
100643
100635
100633
100636
100635
100638
100641
100641
100643
100649
100649
100652
100651
100654
100659
100667
100675
100682
100687
100697
100704
100711
100719
100728
100738
100748
100758
100769
100780
100787
100795
100809
100824
100838
100850
100862
100875
100888
100901
100914
100927
100943
100956
100966
100976
100986
100997
101010
101022
101033
101044
101057
101070
101084
101097
101109
101123
101138
101154
101170
101184
101192
101201
101214
101224
101233
101249
101263
101275
101289
101302
101309
101307
101314
101321
101325
101333
101343
101348
101356
101368
101371
101370
101374
101379
101386
101389
101395
101400
101405
101411
101415
101419
101422
101426
101426
101423
101428
101433
101432
101435
101436
101436
101436
101435
101433
101429
101427
101424
101418
101410
101403
101394
101385
101374
101365
101357
101340
101384
98393
98390.2
98391.1
98387
98384.1
98379.7
98374.4
98368.5
98361.4
98353.6
98345.5
98337.5
98328.5
98319
98309.2
98299.3
98290.5
98281.8
98272.7
98263.9
98255.7
98247.1
98238.9
98230.7
98223
98214.8
98207.1
98199.7
98192.2
98185
98176.9
98169.1
98160.9
98152.1
98144.6
98134.5
98124.7
98116.6
98108.2
98098.1
98087.5
98077.7
98067.5
98057.4
98049.8
98041.9
98036.5
98028.2
98024.5
98019.8
98022.9
98023.8
98025.4
98033
98038.8
98050.6
98063.7
98077.6
98090.6
98107.6
98125.4
98142.7
98160.6
98180
98198.5
98213.1
98226.5
98239
98247.9
98256.4
98266.3
98276.3
98280.5
98287.2
98285.4
98283.4
98277.2
98272.1
98266.1
98254.7
98238.8
98220.9
98211.3
98189.7
98183.1
98164.2
98161.9
98161.2
98148.8
98163.7
98162.7
98180.9
98202.5
98228
98219.5
98238.2
98260.7
98301.3
98319.1
98335.5
98368.3
98402.2
98431.9
98463.6
98505.9
98548.7
98592.2
98634.6
98676
98717.9
98757.8
98794.7
98828.7
98860.2
98888.8
98914.1
98935.6
98951.3
98958.7
98970.8
98979.1
98975.2
98979.7
98979.1
98978.4
98975.5
98971
98964.9
98958.7
98950.7
98943
98934.6
98925.3
98915.7
98905.5
98894.4
98882.9
98870.6
98858
98844.7
98831.5
98821
98812.7
98804
98797.9
98792
98787.2
98783.4
98782.3
98782.7
98783.4
98785.6
98788.3
98793.3
98796.7
98800.8
98804.2
98808.4
98811.9
98815.4
98817.6
98820.4
98823.6
98826.4
98829.3
98832
98833.6
98835.5
98837.6
98839.5
98841.5
98843.6
98845.9
98847.7
98850.5
98852.4
98854.8
98855.6
98856.6
98857.3
98861.1
98862.3
98863
98864.6
98865.8
98866.7
98865.5
98864
98867.9
98874
98876.7
98878.5
98877.8
98880
98882.1
98884.8
98886
98884.9
98885.9
98886.5
98887
98886.1
98884.8
98884.8
98886.9
98888.9
98890.9
98893.9
98896.3
98898.1
98903.5
98903.1
98893.5
98904.2
98911
98913.2
98919.2
98922.9
98928.4
98930.8
98936.2
98941.1
98940.3
98926.4
98918.6
98916.5
98912.9
98902.2
98898.4
98898.6
98892.2
98873.9
98885.6
98882.8
98871
98854.5
98845
98842.5
98832.6
98832.7
98830
98826.6
98828.5
98829.8
98834.2
98839.5
98850.1
98857.2
98868.2
98885.3
98903.8
98923.4
98941.4
98959.2
98978.6
98996.1
99013.5
99030.3
99044.1
99051.6
99060.1
99070.6
99078.4
99082.4
99086.3
99091.2
99096.1
99100.5
99105.4
99110.6
99112.5
99118.9
99121.9
99125.3
99129.3
99122.7
99122.1
99129.4
99130.3
99125.8
99136.6
99141.1
99146.8
99156.2
99162.6
99165.5
99168.1
99166.9
99171.8
99169.4
99169.1
99173.7
99178.9
99181.8
99183.9
99187.9
99186.1
99187.3
99190
99184.3
99197.5
99206.6
99217.5
99229.4
99246.5
99260.7
99273
99296
99315
99336.9
99357.6
99382
99408.5
99437.7
99465.6
99495.9
99522.4
99550.4
99583.3
99620
99655.4
99689.6
99723.4
99756.1
99786.7
99817
99847.4
99878.4
99902.7
99927.5
99953
99979.3
100004
100026
100048
100070
100090
100109
100124
100149
100170
100193
100215
100232
100251
100270
100286
100304
100321
100339
100355
100371
100386
100402
100417
100431
100445
100458
100469
100483
100495