/*--------------------------------*- C++ -*----------------------------------*\
| =========                 |                                                 |
| \\      /  F ield         | OpenFOAM: The Open Source CFD Toolbox           |
|  \\    /   O peration     | Version:  v1812                                 |
|   \\  /    A nd           | Web:      www.OpenFOAM.com                      |
|    \\/     M anipulation  |                                                 |
\*---------------------------------------------------------------------------*/
FoamFile
{
    version     2.0;
    format      ascii;
    class       surfaceScalarField;
    location    "1.4";
    object      phi;
}
// * * * * * * * * * * * * * * * * * * * * * * * * * * * * * * * * * * * * * //

dimensions      [1 0 -1 0 0 0 0];
oriented        oriented;


internalField   nonuniform List<scalar> 
40240
(
4.8691e-05
-3.05849e-05
6.45597e-05
1.58e-06
2.64399e-05
5.40154e-05
-4.96897e-05
9.5207e-05
-0.000112791
8.0895e-05
-0.000183107
8.73156e-05
-0.000262224
9.55048e-05
-0.000354948
0.000108847
-0.000455377
0.00011641
-0.000553215
0.000113849
-0.000648745
0.000111569
-0.000736887
0.000104093
-0.000821339
0.00010047
-0.000911857
0.000106675
-0.000993773
9.84899e-05
-0.00106905
9.27229e-05
-0.00114789
9.70132e-05
-0.00120388
7.50925e-05
-0.00123501
5.1152e-05
-0.0012412
2.69178e-05
-0.00123146
1.24696e-05
-0.00119838
-9.91336e-06
-0.00111702
-5.70421e-05
-0.0010116
-7.9866e-05
-0.000884675
-0.000100214
-0.000750083
-0.000106985
-0.000610725
-0.000111626
-0.000478103
-0.000106795
-0.000350709
-0.000100513
-0.000237504
-8.28951e-05
-0.000158907
-4.57106e-05
-0.000125881
-8.68502e-07
-0.000122695
2.82606e-05
-0.000131613
4.28773e-05
-0.000157921
6.34497e-05
-0.000237681
0.000116332
-0.000383622
0.000179766
-0.000572661
0.000222187
-0.000786443
0.000251244
-0.000967707
0.000221379
-0.00116665
0.000239851
-0.00141952
0.00029427
-0.00176415
0.000386465
-0.00225485
0.000533832
-0.00278035
0.000565099
-0.00327266
0.000526574
-0.00368752
0.000453509
-0.00402127
0.000378893
-0.00430475
0.000331091
-0.00455082
0.000298958
-0.00474236
0.000245416
-0.00484124
0.000149407
-0.00480096
1.13471e-05
-0.0045785
-0.000172461
-0.0042608
-0.000267088
-0.00375997
-0.000450937
-0.00316212
-0.00054774
-0.00253442
-0.00057697
-0.00187102
-0.000612111
-0.00114696
-0.000672706
-0.000351602
-0.000744143
0.000484002
-0.000784868
0.00133934
-0.000804303
0.00219978
-0.000809142
0.00306032
-0.000809067
0.00386132
-0.000749586
0.00455781
-0.00064491
0.00517527
-0.000566097
0.00565431
-0.00042917
0.00597141
-0.000268549
0.00600786
9.86436e-06
0.00595254
0.00010081
0.00587008
0.000132484
0.00585766
6.39139e-05
0.00597367
-7.23893e-05
0.00600295
1.62871e-05
0.00608949
-3.99732e-05
0.00622462
-8.81468e-05
0.00628167
-1.26536e-05
0.00596757
0.000353662
0.00495962
0.00105292
0.00327654
0.00172381
0.00104013
0.002276
-0.00157779
0.0026567
-0.004386
0.00284669
-0.00721472
0.00286805
-0.0101307
0.00295761
-0.0129413
0.00285622
-0.0155584
0.00266312
-0.0179951
0.0024762
-0.019985
0.0020218
-0.0216545
0.00171204
-0.0233325
0.00171931
-0.0249832
0.00169412
-0.0263825
0.00144329
-0.0274661
0.00112746
-0.0282655
0.000845111
-0.0287156
0.000499386
-0.028792
0.000125209
-0.0288357
9.20653e-05
-0.0285682
-0.000213213
-0.0279664
-0.000540595
-0.0270733
-0.000837784
-0.0259064
-0.00112379
-0.0244788
-0.00137736
-0.0227991
-0.00162587
-0.0209873
-0.0017583
-0.0191264
-0.00181005
-0.0171789
-0.00189908
-0.0151206
-0.00201049
-0.0129639
-0.00210708
-0.0107381
-0.00217244
-0.00845709
-0.00222314
-0.00611183
-0.00228453
-0.00369522
-0.0023558
-0.00129306
-0.00234347
0.000884281
-0.00212071
0.00254684
-0.00159915
0.00361205
-0.000999855
0.00523493
-0.00155154
0.00653241
-0.00124312
0.00745346
-0.000868957
0.00782913
-0.000324028
0.008664
-0.000779911
0.0096176
-0.000896203
0.0103534
-0.000670291
0.0106664
-0.000237048
0.0111316
-0.000411108
0.0111613
2.98083e-05
0.0110957
0.000123973
0.0110641
9.53295e-05
0.0110924
3.14625e-05
0.0111864
-2.76327e-05
0.011015
0.000235369
0.0104308
0.000653558
0.00962604
0.000871583
0.00879242
0.000903277
0.00798247
0.000882161
0.00719895
0.00085834
0.00642946
0.000846875
0.00567523
0.00083284
0.00489283
0.000863512
0.00409205
0.000884749
0.003339
0.000839577
0.00269085
0.00073548
0.00215089
0.000628912
0.0017161
0.000525219
0.00140075
0.00040725
0.00120496
0.000290625
0.00115074
0.000149369
0.00119245
5.49214e-05
0.00133826
-4.88823e-05
0.00155455
-0.000119007
0.00177951
-0.000127434
0.00201478
-0.000137401
0.00227281
-0.00016011
0.0025577
-0.000187025
0.00285696
-0.000201714
0.00319943
-0.000245359
0.00353866
-0.00024273
0.0038318
-0.000197983
0.00409482
-0.000168893
0.00433396
-0.000146252
0.004553
-0.000127268
0.00476697
-0.000123335
0.0049768
-0.000120208
0.00520184
-0.000136064
0.00546325
-0.000173472
0.0057671
-0.000217118
0.0061105
-0.000258322
0.00648319
-0.000289406
0.00688203
-0.00031732
0.00728639
-0.000325497
0.00764274
-0.000280633
0.0079399
-0.000224237
0.00818849
-0.000178772
0.00840803
-0.000152151
0.00859985
-0.000127196
0.00877249
-0.000110952
0.00892573
-9.45716e-05
0.00906023
-7.90399e-05
0.00919972
-8.64844e-05
0.00939211
-0.000142367
0.00962375
-0.000186058
0.00981533
-0.000150215
0.00994375
-9.13075e-05
0.0100199
-4.27396e-05
0.0100484
5.34794e-07
0.0100519
2.17029e-05
0.010066
8.23769e-06
0.0101484
-6.37024e-05
0.0102639
-0.000102732
0.0102952
-2.15842e-05
0.0102894
1.08577e-05
0.0102063
8.54237e-05
0.0100362
0.000167149
0.00980378
0.000226007
0.00957096
0.000223513
0.00932902
0.000230375
0.00903984
0.000275698
0.00867693
0.000345622
0.00828587
0.0003722
0.00789807
0.000366399
0.00751663
0.000357667
0.00713724
0.000352125
0.00674101
0.000365959
0.00631844
0.000389657
0.00585616
0.000426501
0.00536583
0.000452067
0.00488384
0.000441859
0.0044819
0.000361868
0.00423006
0.000210359
0.00414661
4.06593e-05
0.00417689
-7.20023e-05
0.00439773
-0.000262912
0.0046385
-0.000286659
0.00472815
-0.000132639
0.00471506
-3.80362e-05
0.00479313
-0.000124812
0.0048494
-0.000106752
0.00470218
9.67266e-05
0.00435463
0.000298653
0.00396326
0.000340549
0.00345425
0.000455631
0.00293021
0.000471996
0.00239462
0.00048273
0.00185204
0.000492018
0.00134248
0.000458959
0.000785105
0.000506472
0.000187462
0.000548706
-0.000414234
0.000554427
-0.00106357
0.000602242
-0.00185571
0.000746295
-0.0027135
0.0008143
-0.00359277
0.000837322
-0.00452303
0.000890844
-0.00547224
0.000912973
-0.00641504
0.000908791
-0.00733037
0.000885491
-0.0081955
0.000838955
-0.00896228
0.000744684
-0.00961901
0.00063947
-0.0101403
0.000508789
-0.0104855
0.000338257
-0.0106334
0.000144606
-0.0106219
-6.45031e-06
-0.0103582
-0.000255986
-0.0098538
-0.000491053
-0.0091602
-0.000675556
-0.00829034
-0.000845888
-0.00726591
-0.000995923
-0.00623197
-0.00100162
-0.00524476
-0.000949009
-0.00428344
-0.000917792
-0.00337432
-0.00086097
-0.00255337
-0.000767479
-0.00172143
-0.000771372
-0.000820536
-0.000835473
7.41127e-05
-0.00082403
0.000902165
-0.000751965
0.00164516
-0.000661213
0.00235953
-0.000626502
0.00307855
-0.000622944
0.00368186
-0.000507269
0.00406184
-0.000276097
0.00433797
-0.0001664
0.00456476
-0.00011124
0.00479032
-0.000104237
0.00501336
-9.55703e-05
0.00521013
-6.4381e-05
0.00536249
-1.57487e-05
0.00549382
9.05398e-06
0.00556457
7.19357e-05
0.00562766
8.45146e-05
0.00568625
9.28781e-05
0.0056827
0.00015579
0.00572843
0.000115757
0.00584753
4.46681e-05
0.00587861
0.000126789
0.00585104
0.00019404
0.005873
0.000143807
0.00588193
0.000155444
0.00575211
0.000303511
0.00559266
0.000336119
0.00551238
0.000257562
0.00548218
0.00021199
0.00545433
0.000209496
0.0053352
0.000304173
0.00518777
0.000334749
0.00495343
0.000421283
0.00454939
0.000590582
0.00401477
0.000722783
0.00354308
0.000659265
0.00314859
0.000581965
0.00266737
0.000666752
0.00197423
0.000878516
0.00121607
0.000944738
0.000505828
0.000896426
-0.000235793
0.000926482
-0.000977158
0.000925889
-0.00163883
0.000844921
-0.00234778
0.000890805
-0.00303862
0.000871171
-0.00368901
0.000829882
-0.00430644
0.000795574
-0.00486437
0.000735027
-0.00536398
0.000675779
-0.00580506
0.00061397
-0.00612511
0.000493516
-0.00639393
0.000438637
-0.00659422
0.000369383
-0.006654
0.000226419
-0.00653464
4.44353e-05
-0.00621911
-0.000155021
-0.00574861
-0.000312209
-0.00515414
-0.000439005
-0.00446698
-0.000534812
-0.00371589
-0.000602035
-0.00292974
-0.000640494
-0.00213691
-0.000650592
-0.00138714
-0.000611384
-0.000713104
-0.000540636
-0.00012634
-0.000455702
0.000385921
-0.000385857
0.000881972
-0.000372949
0.00137637
-0.000373786
0.00186146
-0.000369184
0.00232125
-0.000346753
0.00278882
-0.000357738
0.00330403
-0.000408425
0.00390969
-0.000502339
0.00456925
-0.000558115
0.00532391
-0.00065522
0.00592378
-0.000506387
0.00627747
-0.000262498
0.00647497
-0.000107658
0.00661364
-5.14079e-05
0.00673999
-4.19789e-05
0.00687549
-5.33399e-05
0.00699096
-3.6415e-05
0.00709454
-2.48083e-05
0.00728242
-0.000110585
0.00755255
-0.000190079
0.00768588
-5.9223e-05
0.00773016
2.87568e-05
0.00773437
6.63138e-05
0.00772012
8.37459e-05
0.00770765
7.87361e-05
0.00771895
5.86186e-05
0.00782912
-4.08658e-05
0.00790582
-9.36637e-06
0.00793891
3.5889e-05
0.00794942
5.83439e-05
0.00794094
7.70379e-05
0.00790877
0.000101211
0.00785953
0.000118424
0.00780951
0.000119989
0.00777488
0.000105751
0.00775969
8.8156e-05
0.00776841
6.39991e-05
0.00776696
7.46694e-05
0.0077388
0.000103996
0.00767362
0.000142049
0.00763228
0.000119493
0.00761141
9.8982e-05
0.00760557
8.50519e-05
0.00762023
6.74342e-05
0.0076325
7.11432e-05
0.00763598
8.28278e-05
0.00764718
7.98226e-05
0.007722
1.72468e-05
0.00774636
6.81958e-05
0.00771135
0.000132947
0.00770515
0.000110203
0.00773004
7.66219e-05
0.00757613
0.000257003
0.00738659
0.000298038
0.00735176
0.000148386
0.00734543
0.000120008
0.00728159
0.000180978
0.00716294
0.00023993
0.00701622
0.000270077
0.00680954
0.000331829
0.00657453
0.000362533
0.00636324
0.000341011
0.00613118
0.000362572
0.00590271
0.000362921
0.00574679
0.000291315
0.00557994
0.000303221
0.00533833
0.000380837
0.00508969
0.0003909
0.0048825
0.000352278
0.00475723
0.000272656
0.00472289
0.000184367
0.00477157
0.000102506
0.00492067
3.99175e-06
0.00512052
-4.53679e-05
0.00537266
-9.69945e-05
0.00560054
-7.2457e-05
0.00578386
-2.78871e-05
0.00594569
-6.6887e-06
0.00611949
-1.76182e-05
0.00636375
-8.73395e-05
0.00667692
-0.00015616
0.00705872
-0.000223997
0.00750241
-0.000285435
0.00800779
-0.000347977
0.00855887
-0.000394472
0.00912875
-0.000414584
0.00968051
-0.000398046
0.010179
-0.000346575
0.010604
-0.000275679
0.0109708
-0.000217815
0.0113705
-0.000252228
0.0118134
-0.000297912
0.0122386
-0.000283011
0.0126276
-0.000249857
0.012978
-0.000214284
0.0132945
-0.000184064
0.0135707
-0.000147342
0.0137922
-9.67807e-05
0.0139641
-5.11699e-05
0.0141266
-4.44071e-05
0.0143232
-7.90095e-05
0.0144845
-4.94965e-05
0.014568
2.62276e-05
0.0146307
4.36596e-05
0.0146781
5.5527e-05
0.0147203
5.60469e-05
0.0147433
6.99249e-05
0.0147515
8.31158e-05
0.0147478
9.10489e-05
0.0147297
0.000101264
0.0147191
8.99391e-05
0.0146952
9.86809e-05
0.0146481
0.000117381
0.0145911
0.000121808
0.014535
0.000115548
0.0144729
0.000117281
0.0144304
9.29912e-05
0.0144114
6.66368e-05
0.0144156
3.99716e-05
0.0144284
2.77882e-05
0.0144101
5.52333e-05
0.0142891
0.000155577
0.0141803
0.000136789
0.0139137
0.000285664
0.0136
0.000333587
0.0135019
0.000119865
0.0135672
-5.2416e-05
0.0135603
1.12366e-05
0.0133009
0.000258451
0.0128243
0.000480684
0.0123566
0.000464274
0.0119621
0.00038771
0.0116237
0.000330233
0.0112586
0.000354566
0.0110019
0.000243058
0.0107574
0.000230551
0.0104562
0.000282483
0.0101226
0.000316501
0.00981968
0.000285705
0.00958672
0.000211713
0.00930763
0.000255733
0.00901274
0.000271337
0.00874274
0.000243368
0.00846539
0.000249967
0.00819076
0.000246233
0.00795739
0.000205164
0.00783093
9.75136e-05
0.00780241
-1.37107e-06
0.00780972
-3.74244e-05
0.00786256
-8.27373e-05
0.00795565
-0.000123414
0.00806122
-0.000136564
0.00815626
-0.000126554
0.00821807
-9.4316e-05
0.00825183
-6.55992e-05
0.00830347
-8.33504e-05
0.00841161
-0.00013835
0.00863646
-0.000252231
0.0089715
-0.00036305
0.00932751
-0.000383982
0.00965642
-0.000354941
0.00995133
-0.000320576
0.0102104
-0.000282543
0.0104379
-0.000249875
0.0106382
-0.000221657
0.0108174
-0.00019956
0.0109864
-0.000188527
0.0111727
-0.000203636
0.0114073
-0.000249749
0.0116773
-0.00028388
0.0119191
-0.000253578
0.0121139
-0.000205394
0.0122707
-0.000165402
0.0123948
-0.000129852
0.0125156
-0.000126758
0.0126512
-0.000140571
-0.000303076
-5.23806e-05
4.11532e-05
-0.00010954
7.81763e-05
-0.000186503
0.000149777
-0.000277592
0.000206773
-0.000380198
0.000199891
-0.000501543
0.000226394
-0.000630921
0.000242178
-0.000765853
0.000260876
-0.000899394
0.000266894
-0.00102488
0.000256281
-0.00114633
0.000249924
-0.00125998
0.000234596
-0.00136841
0.000225803
-0.00147045
0.000225668
-0.00153988
0.000185293
-0.00156931
0.000140465
-0.0015666
0.000113194
-0.00155434
8.29296e-05
-0.00153417
5.22455e-05
-0.00150464
2.01592e-05
-0.00146327
-5.32198e-06
-0.00140967
-3.91951e-05
-0.00134765
-9.36898e-05
-0.00127437
-0.000126693
-0.00119272
-0.000154374
-0.00110712
-0.000164584
-0.00102194
-0.000168591
-0.000940957
-0.000161823
-0.000862421
-0.000148736
-0.000793401
-0.00011743
-0.000741536
-6.49328e-05
-0.000710366
-2.39976e-08
-0.000702405
5.25092e-05
-0.000717824
8.89132e-05
-0.000751635
0.000134367
-0.000807917
0.00021233
-0.000894987
0.000304583
-0.00100838
0.000372159
-0.00116188
0.000441353
-0.00145211
0.000551594
-0.00179356
0.00062246
-0.00214163
0.000683716
-0.00247612
0.00076346
-0.00277521
0.000877606
-0.00304324
0.000881609
-0.00334101
0.000878504
-0.00361857
0.00078113
-0.00389058
0.000700098
-0.00409932
0.000590938
-0.00423692
0.000487225
-0.00427979
0.000338096
-0.00422128
0.000139808
-0.00398864
-0.000170797
-0.00357373
-0.000537606
-0.00307204
-0.000718716
-0.00247755
-0.000995372
-0.00178272
-0.00119149
-0.000966287
-0.001342
-4.02057e-05
-0.00148612
0.00099161
-0.00165218
0.00212408
-0.00182371
0.00336108
-0.00196789
0.00466192
-0.00205184
0.00595732
-0.00205121
0.00720424
-0.00200287
0.00833069
-0.00182329
0.00928596
-0.00154772
0.0100595
-0.00128779
0.0105567
-0.00087726
0.0106785
-0.000340614
0.0106173
0.000116579
0.0100385
0.000726971
0.00911857
0.00110026
0.00772249
0.00150561
0.00604281
0.00165484
0.00472568
0.00138099
0.00336507
0.00136613
0.00174693
0.00157473
-0.000218342
0.0019949
-0.00253435
0.00271323
-0.00513126
0.00369386
-0.00790761
0.00454426
-0.0108548
0.00526731
-0.0141386
0.00598273
-0.0179773
0.00672587
-0.0221999
0.00713142
-0.0264329
0.00723227
-0.030315
0.00678543
-0.0337515
0.0061489
-0.0367466
0.00552787
-0.0391307
0.00445247
-0.0410224
0.00364933
-0.042447
0.00318763
-0.0433808
0.00267241
-0.0437221
0.00182998
-0.0436741
0.00112513
-0.0430781
0.000296006
-0.0423091
-0.000218655
-0.0412776
-0.000868646
-0.0401272
-0.001029
-0.0387302
-0.00153504
-0.0370298
-0.00216266
-0.0350857
-0.00274754
-0.0328722
-0.00330691
-0.0304484
-0.00374474
-0.0277869
-0.00421302
-0.0249462
-0.00453141
-0.0220908
-0.00460565
-0.0192519
-0.00467519
-0.016488
-0.00470555
-0.0138503
-0.00467239
-0.0113185
-0.00463037
-0.00883834
-0.00462804
-0.00635769
-0.00468792
-0.00379332
-0.00484071
-0.000899921
-0.00515391
0.00257466
-0.00551274
0.00644677
-0.00538753
0.0100174
-0.00448364
0.0132142
-0.00466302
0.0157133
-0.00366781
0.0179338
-0.00301531
0.0201954
-0.00251561
0.0221605
-0.0026778
0.0237966
-0.00246788
0.02504
-0.00185384
0.0258111
-0.000952204
0.0259481
-0.000487688
0.0261481
-0.000108094
0.0262227
0.000109807
0.0261838
0.000199409
0.0260102
0.000257149
0.0253886
0.000660551
0.0243618
0.00133324
0.0231023
0.00198744
0.0216794
0.00236515
0.0201896
0.00246521
0.0186978
0.00244844
0.0172501
0.00238327
0.0159079
0.0022691
0.0147561
0.00206737
0.0138716
0.00183442
0.0131724
0.00167028
0.012531
0.0015684
0.0119531
0.00140153
0.0114776
0.00119374
0.0111339
0.000959508
0.0109345
0.000698673
0.0108932
0.000426023
0.010995
0.000142716
0.011373
-0.000226321
0.0120064
-0.000585126
0.0128108
-0.00082515
0.0136244
-0.000842553
0.014306
-0.000720407
0.0148152
-0.000570754
0.015214
-0.000486757
0.0155678
-0.000456713
0.0159649
-0.000543393
0.0165049
-0.000683801
0.0171005
-0.000696665
0.0177149
-0.000686914
0.0183579
-0.000693906
0.0190459
-0.000720981
0.0197951
-0.000778904
0.0205591
-0.000792541
0.0212858
-0.000771932
0.0219396
-0.000736944
0.0224944
-0.00068332
0.0229624
-0.000639187
0.0234067
-0.000647596
0.0238942
-0.000719629
0.0244847
-0.000832605
0.0251684
-0.00088456
0.0258644
-0.000843088
0.0265324
-0.000773096
0.0271214
-0.000670798
0.0276228
-0.00056091
0.0280362
-0.000460385
0.0283598
-0.000356829
0.0286315
-0.000291965
0.0289192
-0.000317648
0.0292759
-0.000444217
0.0297371
-0.000595213
0.0302237
-0.000591961
0.0306713
-0.000496667
0.0310662
-0.000399372
0.0314087
-0.000307544
0.0317095
-0.000248991
0.0319598
-0.000214774
0.0321979
-0.000279354
0.0323321
-0.000222726
0.0323222
2.80024e-07
0.0321638
0.000177536
0.0318388
0.000413719
0.0313889
0.000614972
0.0308751
0.000734347
0.0303473
0.000742636
0.0298097
0.000756089
0.0292117
0.000859157
0.0284832
0.00105507
0.0276342
0.00120076
0.0267188
0.00125854
0.0257797
0.00127084
0.0248631
0.00123896
0.0239787
0.00121765
0.0231211
0.00121227
0.0222641
0.00124733
0.0213975
0.0012807
0.0205376
0.00126108
0.0197482
0.0011092
0.0191164
0.000797934
0.0186976
0.000413489
0.018577
9.19136e-07
0.0185818
-0.000315147
0.0185661
-0.00032323
0.0184649
-8.0704e-05
0.0181157
0.000256417
0.0177147
0.000230763
0.0173216
0.000237649
0.0166376
0.000732469
0.0155601
0.00132871
0.0140616
0.00178863
0.0121853
0.00227922
0.0103361
0.00227089
0.00867844
0.00208978
0.00727288
0.00184942
0.0061601
0.0015242
0.00523448
0.00138482
0.00442022
0.00131816
0.00366715
0.00126201
0.00288217
0.00134266
0.00197266
0.00161105
0.000949856
0.00179431
-0.000119597
0.00186544
-0.00122881
0.00196131
-0.00229934
0.00194787
-0.0032651
0.0018416
-0.00410207
0.00169363
-0.0047853
0.00149664
-0.00530925
0.00124783
-0.0057036
0.00101572
-0.00593444
0.000728623
-0.00597905
0.000377918
-0.00581934
-1.73072e-05
-0.00538237
-0.000438887
-0.00465888
-0.000970561
-0.003632
-0.00150375
-0.00230815
-0.00198088
-0.000686986
-0.00244306
0.00126402
-0.00291834
0.00346076
-0.00316655
0.00583742
-0.00328841
0.00841506
-0.00345295
0.0110811
-0.00348061
0.0134897
-0.003127
0.0153119
-0.00254212
0.0165826
-0.00204842
0.0175604
-0.00173733
0.0184107
-0.00153175
0.0191698
-0.00134416
0.0198835
-0.00125803
0.0207145
-0.00135985
0.0216886
-0.00138631
0.0225739
-0.00105981
0.0233483
-0.000832958
0.0239967
-0.000645557
0.0245167
-0.000504651
0.0248475
-0.000301134
0.0249714
-5.8255e-05
0.0249741
0.000116657
0.0249571
0.000166825
0.0249304
0.000243004
0.0249344
0.000232186
0.0249425
0.000239031
0.0248194
0.000431688
0.0245991
0.000499375
0.0245109
0.000298843
0.024376
0.000424635
0.0241743
0.000564693
0.0241048
0.000379085
0.0240379
0.000390806
0.0237435
0.000771814
0.0229687
0.00128355
0.0216146
0.00178774
0.0200206
0.00198981
0.0186497
0.00176119
0.0174807
0.00165672
0.0165691
0.00143335
0.0157908
0.00138717
0.0149294
0.00163899
0.0138553
0.00198554
0.0127162
0.00198692
0.011655
0.00183144
0.0106124
0.00189584
0.00952603
0.00215027
0.00841607
0.00224005
0.00722721
0.00226896
0.00588058
0.0024552
0.00453439
0.00245411
0.00340341
0.00215769
0.00240541
0.00206859
0.00156235
0.00189301
0.00081544
0.00175426
0.00016864
0.00161858
-0.000337913
0.00141723
-0.000691825
0.00120472
-0.000895333
0.000989196
-0.00103559
0.000804872
-0.0011389
0.000710848
-0.00114878
0.000547623
-0.000995278
0.000238409
-0.000579458
-0.000207998
2.58761e-05
-0.000599685
0.000810893
-0.000938312
0.00177515
-0.00124663
0.00290896
-0.00151449
0.00419942
-0.00174102
0.00563824
-0.00193058
0.00722716
-0.00209369
0.00895496
-0.00219679
0.0108039
-0.0022509
0.0127205
-0.00223694
0.014607
-0.00214259
0.0162016
-0.00184179
0.0171628
-0.00121841
0.0176769
-0.000768405
0.0181075
-0.000663179
0.0186154
-0.000753723
0.0192425
-0.000925596
0.0199886
-0.00113931
0.0207665
-0.00123013
0.0216002
-0.00138172
0.0225457
-0.00135559
0.0233628
-0.000984855
0.0240515
-0.000703422
0.0247022
-0.000611677
0.0254099
-0.000661849
0.0262648
-0.000822837
0.0272276
-0.000918219
0.028132
-0.000850236
0.028753
-0.00065724
0.0289385
-0.000296806
0.0289312
2.13201e-05
0.0288729
0.000161069
0.0287855
0.000223451
0.0286738
0.000263257
0.0285687
0.000249677
0.0285445
0.000149449
0.0285979
-2.26161e-05
0.0288036
-0.00014836
0.0290297
-0.000123112
0.029179
-2.35789e-05
0.0292403
8.36834e-05
0.0292533
0.000156595
0.0292494
0.000190407
0.0292227
0.000216292
0.0291608
0.0002374
0.0290163
0.000303893
0.0288581
0.000295027
0.0287007
0.00030658
0.028556
0.000324896
0.0284271
0.000348187
0.0283213
0.000304405
0.0282242
0.000274632
0.0281205
0.000269315
0.0280598
0.000210447
0.0279816
0.000232733
0.0278176
0.000332679
0.0275788
0.000408664
0.0274187
0.000270478
0.0272788
0.000301952
0.0271806
0.00033123
0.0271691
0.000224937
0.0272254
0.000121831
0.0272243
0.000356891
0.0267368
0.000889205
0.0257999
0.00119725
0.0248135
0.00121896
0.0239442
0.00116509
0.0232445
0.00105915
0.0227401
0.000897989
0.0223392
0.000857723
0.0220135
0.000815855
0.0217294
0.000754202
0.0213992
0.00082416
0.0211438
0.000752683
0.0209464
0.00062369
0.0207284
0.000657118
0.0204036
0.000843964
0.0200458
0.000890432
0.0197516
0.000791499
0.0195842
0.000587759
0.0195678
0.000353271
0.019691
0.000130283
0.0200798
-0.000231067
0.0206522
-0.000463234
0.0213402
-0.000628527
0.0220706
-0.000645059
0.0228128
-0.000613554
0.0235788
-0.00061571
0.0243797
-0.000662369
0.0252005
-0.000752616
0.0260527
-0.000852952
0.0268927
-0.000910593
0.0276905
-0.000930296
0.0284574
-0.000961525
0.0292294
-0.00101313
0.0300235
-0.00105569
0.0308264
-0.00104881
0.031609
-0.000977783
0.0323292
-0.000846391
0.0329718
-0.000712011
0.0336063
-0.000737899
0.0343255
-0.000868965
0.0350582
-0.000872813
0.0357599
-0.000809355
0.036427
-0.000744845
0.0370854
-0.000708494
0.0377454
-0.000677469
0.0383876
-0.00061284
0.038968
-0.000509264
0.0394173
-0.000374305
0.03968
-0.000225847
0.0397114
2.60353e-05
0.0396423
0.000206815
0.0395182
0.000274133
0.0394116
0.000265204
0.0393505
0.000215693
0.0393329
0.000182016
0.03934
0.000168117
0.0393403
0.000177141
0.0392418
0.000282034
0.0390095
0.000401562
0.0386929
0.000490626
0.0383539
0.000526988
0.0380277
0.000513615
0.0377284
0.000475381
0.0374931
0.000408817
0.0372792
0.00035689
0.0370096
0.000383981
0.0367462
0.000344537
0.0364074
0.000405692
0.0360379
0.000463557
0.0359451
0.000284548
0.0359341
0.000180542
0.0359292
0.000308556
0.0353869
0.000889146
0.0341879
0.00134024
0.0329574
0.00119499
0.0321889
0.000781252
0.0314029
0.00105269
0.0307558
0.00113458
0.0299629
0.00125088
0.0290312
0.00130976
0.0280068
0.00134509
0.0273848
0.000970565
0.0271836
0.000434299
0.0271777
0.000224505
0.0272365
0.000209458
0.0271208
0.000411495
0.0266265
0.000762131
0.0260555
0.000762666
0.0254469
0.000840152
0.0248582
0.000835468
0.0244349
0.000640978
0.0241278
0.000530282
0.0239151
0.000431816
0.0237964
0.000296937
0.0237918
7.42522e-05
0.0238833
-0.000122059
0.0241224
-0.000307113
0.024422
-0.000413269
0.0247183
-0.000451416
0.0249774
-0.000427907
0.0252021
-0.000383251
0.0253874
-0.00031225
0.025531
-0.000241699
0.0256696
-0.000252697
0.0258914
-0.000390072
0.0262227
-0.000610849
0.0267123
-0.000879748
0.0273358
-0.00103668
0.0279477
-0.00099278
0.0285611
-0.000959168
0.0291829
-0.00092748
0.0298274
-0.000915981
0.0305139
-0.000928469
0.0312462
-0.000951218
0.0319993
-0.000960293
0.0327223
-0.000944108
0.0333336
-0.000878948
0.0337443
-0.000711845
0.0339549
-0.000480649
0.0340447
-0.000308466
0.0340693
-0.000201093
0.0340635
-0.000132308
0.0340591
-0.000129766
0.0339696
-5.62214e-05
-0.000566883
1.85105e-05
4.23534e-05
-2.49292e-05
0.000139181
-9.67743e-05
0.000236966
-0.000215375
0.000343103
-0.000341559
0.000343016
-0.000473935
0.000375529
-0.000611157
0.000396148
-0.000751996
0.000418437
-0.00089019
0.000421729
-0.00102128
0.000403996
-0.00115005
0.0003953
-0.00127245
0.000373619
-0.00139215
0.000362351
-0.00149487
0.000345369
-0.00155646
0.000264238
-0.00156607
0.000168041
-0.00153732
0.000103594
-0.00149867
6.4745e-05
-0.00145724
3.22431e-05
-0.00140994
-3.81041e-06
-0.00135364
-3.75857e-05
-0.00128951
-7.89871e-05
-0.00121825
-0.000139455
-0.00113766
-0.000180443
-0.00105017
-0.000214494
-0.000961932
-0.000226901
-0.000869878
-0.000238898
-0.000753559
-0.000252418
-0.000632785
-0.000225884
-0.000534738
-0.000169965
-0.000465362
-0.000106631
-0.000409647
-3.06312e-05
-0.0003888
6.2798e-05
-0.000402576
0.000116958
-0.000449126
0.000215578
-0.000503631
0.000316266
-0.000619363
0.000460963
-0.000765651
0.000551805
-0.000982458
0.000691088
-0.00130662
0.000914459
-0.00170534
0.00106065
-0.00210151
0.00111973
-0.00239719
0.00110451
-0.00252361
0.00104767
-0.00266635
0.00106945
-0.00281923
0.00107768
-0.00296913
0.000981596
-0.00312941
0.000911818
-0.00325897
0.000769606
-0.00336567
0.000643066
-0.00341083
0.000431193
-0.00339373
0.000170977
-0.00329622
-0.000218828
-0.0031015
-0.000683095
-0.00284449
-0.000926665
-0.00238688
-0.00140235
-0.00157169
-0.00195772
-0.000591013
-0.00227216
0.000468305
-0.00249545
0.00162367
-0.00275772
0.00287284
-0.00302297
0.00417999
-0.00322458
0.00547277
-0.00329326
0.00672444
-0.00325161
0.00789975
-0.00312729
0.00890666
-0.00277978
0.00971368
-0.00230458
0.0102798
-0.00180355
0.0105693
-0.00111738
0.0107195
-0.000440721
0.0107294
0.000155134
0.0103419
0.00116157
0.00915164
0.00233742
0.00739904
0.00330796
0.00541649
0.00368792
0.0029552
0.00388977
-0.000119718
0.00448815
-0.00368697
0.00518835
-0.00763362
0.00598753
-0.011875
0.00699928
-0.0162664
0.00812895
-0.0206392
0.00895913
-0.0249224
0.00959282
-0.0290189
0.010122
-0.0325367
0.0102869
-0.0353379
0.00997579
-0.0373996
0.00933198
-0.038864
0.00827688
-0.0402893
0.00760201
-0.0412478
0.00651149
-0.0421387
0.00539397
-0.042886
0.00442775
-0.0432917
0.00363323
-0.0435955
0.00301751
-0.0437239
0.00200393
-0.0436118
0.00106258
-0.0431665
-0.000102309
-0.042402
-0.000937683
-0.0414483
-0.00175916
-0.0401983
-0.00220183
-0.0386217
-0.00308043
-0.0366214
-0.0041424
-0.0341364
-0.00516948
-0.0312359
-0.00612166
-0.0280804
-0.00683466
-0.0247323
-0.0075126
-0.0212211
-0.00799397
-0.0176464
-0.00812497
-0.0140241
-0.00823771
-0.0103089
-0.00835822
-0.00649289
-0.00842187
-0.00260319
-0.00844784
0.001335
-0.00848797
0.00530555
-0.00857516
0.009296
-0.00874412
0.0132565
-0.00902425
0.0171559
-0.00931914
0.020929
-0.00906355
0.0244653
-0.00791214
0.0274819
-0.00756866
0.0298353
-0.00591408
0.0316743
-0.00475666
0.0330594
-0.00381346
0.0340253
-0.00355244
0.0347853
-0.00314075
0.0354392
-0.00242898
0.0358978
-0.00133522
0.0359595
-0.000478195
0.0361571
-0.000235548
0.0364028
-7.00804e-05
0.0362896
0.000379495
0.0356446
0.00096773
0.0347626
0.00161017
0.0340615
0.00211065
0.0335947
0.00252716
0.0330699
0.00295762
0.0321724
0.00343184
0.0308909
0.0038022
0.0294274
0.00392153
0.0279564
0.00381702
0.0265701
0.00353262
0.0253212
0.00316361
0.0242289
0.00284625
0.0233796
0.00250367
0.0227356
0.00213292
0.0222587
0.00175947
0.0219253
0.00138255
0.021704
0.00101169
0.0216191
0.000604003
0.0217055
0.000149829
0.0220233
-0.000448477
0.0225737
-0.00103988
0.0232789
-0.00143307
0.0240977
-0.00156323
0.0250568
-0.00157963
0.0261939
-0.00160693
0.0275362
-0.00172744
0.0289579
-0.00177664
0.0301613
-0.00164573
0.0308953
-0.00131934
0.0313385
-0.00104121
0.0317013
-0.000950944
0.0321017
-0.000996405
0.03258
-0.00110249
0.0331502
-0.0012523
0.0338303
-0.00137629
0.034611
-0.00145783
0.0354822
-0.00151366
0.0364758
-0.00158278
0.0376381
-0.00170737
0.0388821
-0.00179854
0.0399552
-0.00170173
0.0406532
-0.00144304
0.0410405
-0.00118536
0.0413304
-0.00104816
0.0416402
-0.00100096
0.0420845
-0.00103662
0.042695
-0.00109704
0.0434947
-0.00118777
0.0445513
-0.00134255
0.0458332
-0.00150706
0.0471199
-0.00154117
0.0481391
-0.00140321
0.0487585
-0.00116394
0.0490638
-0.000848313
0.0492553
-0.000639653
0.0494327
-0.000531657
0.049644
-0.000477026
0.0498954
-0.000461379
0.050163
-0.000447884
0.0504482
-0.000531002
0.0508648
-0.000613988
0.0512451
-0.000358529
0.0514967
-5.68423e-05
0.0516013
0.000319076
0.0515735
0.000647186
0.0514907
0.000816549
0.0512852
0.000942177
0.0508765
0.0011532
0.0501086
0.00161145
0.049053
0.002091
0.0478524
0.00238138
0.0466469
0.00244176
0.0454801
0.00241083
0.0443308
0.00235471
0.0431301
0.00237913
0.0418454
0.00245346
0.0404579
0.00259102
0.038987
0.00271019
0.0374812
0.00272687
0.0360319
0.00252025
0.034835
0.0019543
0.0340541
0.00115207
0.0337606
0.000246872
0.0337381
-0.000346211
0.0338668
-0.000514734
0.033981
-0.000258906
0.0338832
0.000280359
0.0327137
0.00133534
0.0304519
0.00244734
0.0276704
0.00346344
0.0247495
0.00419909
0.0220554
0.00443182
0.0200313
0.00425044
0.0183567
0.0038937
0.0169573
0.0034368
0.0160012
0.00275742
0.0153657
0.00211104
0.0146688
0.00203206
0.0137724
0.00216626
0.0125657
0.00242193
0.0109861
0.00287525
0.00911174
0.00344041
0.00728287
0.00358136
0.00575959
0.00335073
0.00453421
0.00315028
0.00353515
0.00291469
0.00272885
0.00261784
0.00205526
0.00234237
0.00154611
0.00198305
0.00123464
0.00154376
0.00117864
0.00106018
0.00138738
0.000511411
0.00181431
-5.2531e-05
0.00236524
-0.00056608
0.00311209
-0.00117769
0.00405845
-0.00190415
0.00526057
-0.00268783
0.00671542
-0.00341348
0.00839062
-0.00409065
0.0103521
-0.00484788
0.0125476
-0.0053285
0.014781
-0.00548516
0.0171072
-0.00573817
0.0196684
-0.00599728
0.0224304
-0.00584321
0.0251886
-0.00525268
0.0278634
-0.00466948
0.0305761
-0.00438963
0.0333828
-0.00427349
0.0361887
-0.00408126
0.0385423
-0.0035406
0.0397108
-0.00246178
0.0398163
-0.00141944
0.0398312
-0.000983931
0.0399383
-0.0008402
0.0402036
-0.000805778
0.0405143
-0.000702762
0.0407968
-0.000464686
0.0410814
-0.000218339
0.0413387
-9.03651e-06
0.0414725
0.000171376
0.0414653
0.000388294
0.0413136
0.00052973
0.0411491
0.00056071
0.0409694
0.000767508
0.0408912
0.000744517