/*--------------------------------*- C++ -*----------------------------------*\
| =========                 |                                                 |
| \\      /  F ield         | OpenFOAM: The Open Source CFD Toolbox           |
|  \\    /   O peration     | Version:  v1812                                 |
|   \\  /    A nd           | Web:      www.OpenFOAM.com                      |
|    \\/     M anipulation  |                                                 |
\*---------------------------------------------------------------------------*/
FoamFile
{
    version     2.0;
    format      ascii;
    class       volScalarField;
    location    "1.4";
    object      T;
}
// * * * * * * * * * * * * * * * * * * * * * * * * * * * * * * * * * * * * * //

dimensions      [0 0 0 1 0 0 0];


internalField   nonuniform List<scalar> 
20400
(
288.807
288.806
288.802
288.799
288.798
288.798
288.8
288.805
288.815
288.83
288.85
288.875
288.905
288.941
288.981
289.024
289.071
289.121
289.173
289.227
289.282
289.339
289.396
289.454
289.513
289.572
289.631
289.689
289.748
289.806
289.862
289.917
289.971
290.023
290.073
290.121
290.168
290.213
290.255
290.298
290.338
290.375
290.409
290.438
290.468
290.497
290.528
290.558
290.59
290.621
290.653
290.684
290.716
290.745
290.771
290.799
290.82
290.839
290.855
290.871
290.887
290.9
290.915
290.933
290.955
290.983
291.016
291.058
291.102
291.146
291.177
291.181
291.174
291.139
291.081
290.997
290.902
290.811
290.721
290.634
290.559
290.497
290.45
290.417
290.404
290.402
290.401
290.404
290.408
290.411
290.423
290.435
290.443
290.453
290.464
290.476
290.486
290.494
290.505
290.516
290.532
290.543
290.553
290.562
290.569
290.577
290.582
290.586
290.59
290.595
290.6
290.605
290.61
290.616
290.622
290.629
290.634
290.637
290.62
290.641
290.624
290.636
290.648
290.636
290.633
290.632
290.628
290.627
290.618
290.603
290.59
290.576
290.559
290.545
290.526
290.513
290.499
290.487
290.476
290.465
290.456
290.447
290.441
290.437
290.434
290.432
290.429
290.428
290.425
290.423
290.421
290.417
290.411
290.403
290.394
290.384
290.374
290.362
290.352
290.341
290.329
290.316
290.303
290.289
290.274
290.258
290.242
290.226
290.21
290.195
290.18
290.166
290.155
290.144
290.135
290.128
290.122
290.118
290.115
290.115
290.116
290.12
290.129
290.142
290.158
290.179
290.205
290.236
290.272
290.314
290.362
290.417
290.474
290.535
290.6
290.666
290.733
290.8
290.864
290.925
290.983
291.04
291.094
291.144
291.191
291.233
291.27
291.304
291.333
291.36
291.382
291.4
291.412
291.418
291.417
291.403
291.382
291.346
291.318
291.286
291.245
291.214
291.188
291.159
291.137
291.115
291.096
291.082
291.066
291.053
291.045
291.039
291.032
291.03
291.031
291.032
291.037
291.045
291.056
291.069
291.085
291.104
291.125
291.148
291.175
291.204
291.237
291.271
291.306
291.342
291.38
291.412
291.441
291.468
291.489
291.504
291.516
291.526
291.531
291.531
291.525
291.514
291.501
291.482
291.455
291.425
291.393
291.359
291.324
291.288
291.25
291.214
291.178
291.142
291.109
291.075
291.046
291.018
290.99
290.959
290.937
290.913
290.888
290.87
290.855
290.842
290.834
290.822
290.815
290.807
290.8
290.793
290.792
290.794
290.796
290.798
290.805
290.814
290.821
290.831
290.844
290.853
290.868
290.881
290.897
290.915
290.936
290.957
290.982
291.008
291.035
291.065
291.099
291.132
291.167
291.204
291.242
291.28
291.319
291.357
291.393
291.428
291.462
291.496
291.53
291.565
291.601
291.637
291.675
291.714
291.756
291.797
291.844
291.886
291.924
291.959
291.994
292.027
292.059
292.09
292.119
292.151
292.183
292.208
292.234
292.259
292.284
292.308
292.333
292.359
292.38
292.401
292.423
292.443
292.465
292.486
292.508
292.53
292.552
292.577
292.601
292.625
292.649
292.675
292.702
292.728
292.757
292.784
292.811
292.839
292.867
292.892
292.914
292.937
292.959
292.972
292.986
293.001
293.016
293.028
293.039
293.051
293.059
293.067
293.077
293.083
293.09
293.098
293.104
293.108
293.113
293.117
293.122
293.127
293.134
293.14
293.146
293.154
293.161
293.167
293.174
293.181
293.19
293.2
293.21
293.221
293.232
293.244
293.256
293.267
293.277
293.287
293.296
293.306
293.316
293.326
293.335
293.344
293.353
293.361
293.369
293.376
293.382
293.391
293.397
293.402
293.407
293.413
293.419
293.424
293.431
293.436
293.442
293.448
293.455
293.461
293.467
293.474
293.481
293.488
293.494
293.503
293.509
293.514
293.517
293.524
293.523
293.528
293.531
293.537
293.54
293.544
293.547
293.552
293.559
293.561
293.572
293.584
293.596
293.606
293.613
293.624
293.633
293.639
293.644
293.652
293.658
293.665
293.672
293.682
293.691
293.703
293.714
293.726
293.736
293.747
293.758
293.767
293.776
293.786
293.797
293.807
293.816
293.823
293.829
293.835
293.839
293.842
293.845
293.846
293.848
293.849
293.85
293.85
293.848
293.846
293.842
293.838
293.835
293.848
288.798
288.798
288.797
288.795
288.796
288.797
288.801
288.808
288.82
288.837
288.859
288.886
288.918
288.954
288.995
289.04
289.088
289.139
289.192
289.247
289.303
289.362
289.421
289.481
289.542
289.602
289.663
289.723
289.782
289.84
289.896
289.951
290.004
290.054
290.103
290.149
290.195
290.238
290.28
290.316
290.353
290.387
290.419
290.452
290.485
290.514
290.545
290.574
290.606
290.637
290.669
290.7
290.73
290.757
290.781
290.804
290.823
290.841
290.856
290.87
290.884
290.898
290.912
290.927
290.945
290.966
290.992
291.025
291.063
291.101
291.133
291.144
291.14
291.096
291.003
290.906
290.795
290.69
290.604
290.537
290.491
290.461
290.448
290.446
290.448
290.461
290.476
290.497
290.519
290.536
290.563
290.59
290.62
290.651
290.689
290.74
290.79
290.832
290.877
290.91
290.948
290.983
291.008
291.026
291.037
291.043
291.039
291.024
291.005
290.984
290.962
290.942
290.928
290.918
290.91
290.904
290.898
290.876
290.822
290.773
290.704
290.656
290.626
290.595
290.574
290.56
290.55
290.536
290.525
290.52
290.507
290.495
290.479
290.466
290.457
290.445
290.431
290.419
290.408
290.398
290.389
290.383
290.381
290.379
290.379
290.38
290.382
290.387
290.392
290.4
290.408
290.413
290.416
290.415
290.41
290.402
290.391
290.379
290.367
290.355
290.342
290.329
290.315
290.301
290.287
290.271
290.254
290.235
290.214
290.19
290.166
290.14
290.115
290.092
290.069
290.049
290.031
290.016
290.002
289.99
289.978
289.968
289.96
289.954
289.95
289.947
289.95
289.956
289.968
289.986
290.012
290.046
290.083
290.127
290.18
290.239
290.303
290.373
290.448
290.523
290.596
290.665
290.733
290.802
290.871
290.936
290.994
291.042
291.08
291.115
291.15
291.189
291.236
291.289
291.346
291.391
291.417
291.418
291.412
291.389
291.346
291.302
291.259
291.217
291.182
291.147
291.115
291.088
291.062
291.037
291.017
290.999
290.982
290.966
290.951
290.933
290.917
290.903
290.891
290.878
290.866
290.854
290.845
290.839
290.837
290.84
290.849
290.865
290.89
290.923
290.966
291.015
291.066
291.124
291.184
291.24
291.285
291.319
291.352
291.384
291.414
291.44
291.464
291.484
291.49
291.491
291.485
291.474
291.457
291.433
291.401
291.365
291.325
291.285
291.243
291.197
291.153
291.109
291.074
291.033
291.003
290.974
290.945
290.921
290.894
290.873
290.86
290.845
290.835
290.827
290.819
290.81
290.806
290.806
290.809
290.813
290.822
290.833
290.844
290.855
290.868
290.878
290.891
290.903
290.916
290.932
290.95
290.97
290.993
291.015
291.04
291.067
291.095
291.124
291.153
291.184
291.215
291.246
291.276
291.307
291.336
291.367
291.398
291.43
291.464
291.489
291.507
291.528
291.549
291.571
291.594
291.617
291.648
291.686
291.72
291.753
291.786
291.817
291.851
291.887
291.926
291.967
292
292.028
292.056
292.086
292.115
292.146
292.177
292.215
292.248
292.28
292.31
292.338
292.365
292.39
292.415
292.439
292.461
292.484
292.506
292.527
292.548
292.57
292.592
292.614
292.64
292.666
292.692
292.719
292.749
292.779
292.809
292.84
292.875
292.903
292.921
292.939
292.959
292.974
292.989
293.005
293.018
293.031
293.043
293.051
293.058
293.069
293.077
293.081
293.086
293.089
293.09
293.092
293.097
293.102
293.106
293.114
293.121
293.129
293.138
293.148
293.156
293.165
293.173
293.181
293.189
293.198
293.208
293.219
293.231
293.243
293.254
293.264
293.277
293.288
293.298
293.308
293.318
293.329
293.34
293.351
293.362
293.371
293.377
293.379
293.384
293.388
293.392
293.397
293.404
293.41
293.415
293.421
293.427
293.433
293.439
293.445
293.451
293.458
293.463
293.469
293.474
293.479
293.485
293.497
293.505
293.503
293.499
293.5
293.491
293.496
293.499
293.499
293.492
293.481
293.479
293.484
293.492
293.504
293.511
293.522
293.534
293.541
293.544
293.547
293.547
293.546
293.546
293.548
293.552
293.56
293.569
293.579
293.59
293.599
293.608
293.615
293.62
293.629
293.637
293.648
293.663
293.674
293.686
293.695
293.703
293.71
293.717
293.725
293.733
293.741
293.746
293.748
293.748
293.747
293.743
293.74
293.736
293.746
288.773
288.773
288.776
288.777
288.782
288.788
288.798
288.811
288.829
288.852
288.879
288.911
288.947
288.987
289.031
289.079
289.131
289.184
289.241
289.299
289.36
289.424
289.488
289.553
289.618
289.683
289.747
289.809
289.868
289.923
289.977
290.029
290.079
290.124
290.167
290.209
290.249
290.286
290.32
290.353
290.384
290.414
290.443
290.479
290.51
290.543
290.579
290.614
290.652
290.689
290.725
290.757
290.788
290.813
290.833
290.851
290.869
290.88
290.892
290.904
290.917
290.929
290.941
290.953
290.967
290.981
290.997
291.02
291.044
291.071
291.09
291.099
291.08
291.018
290.921
290.793
290.66
290.557
290.488
290.45
290.444
290.453
290.47
290.493
290.531
290.58
290.64
290.722
290.792
290.882
290.969
291.067
291.168
291.266
291.368
291.471
291.571
291.659
291.738
291.807
291.873
291.928
291.976
292.018
292.048
292.068
292.078
292.076
292.068
292.054
292.037
292.018
292.003
291.992
291.986
291.979
291.96
291.907
291.788
291.645
291.419
291.192
290.999
290.83
290.708
290.615
290.546
290.486
290.448
290.415
290.389
290.373
290.361
290.357
290.358
290.352
290.343
290.334
290.324
290.316
290.308
290.303
290.3
290.3
290.304
290.312
290.324
290.342
290.362
290.387
290.416
290.443
290.468
290.485
290.495
290.497
290.496
290.49
290.483
290.467
290.449
290.433
290.418
290.404
290.389
290.374
290.357
290.338
290.318
290.297
290.271
290.238
290.197
290.15
290.103
290.06
290.021
289.988
289.959
289.935
289.912
289.888
289.862
289.831
289.799
289.767
289.736
289.708
289.683
289.662
289.648
289.645
289.647
289.658
289.679
289.708
289.745
289.794
289.853
289.921
289.998
290.073
290.146
290.221
290.305
290.399
290.499
290.591
290.661
290.702
290.725
290.745
290.778
290.842
290.943
291.079
291.228
291.354
291.436
291.454
291.444
291.405
291.349
291.307
291.264
291.218
291.169
291.127
291.083
291.035
290.989
290.943
290.897
290.852
290.809
290.765
290.722
290.681
290.639
290.597
290.556
290.516
290.479
290.444
290.411
290.385
290.363
290.349
290.345
290.35
290.37
290.402
290.443
290.496
290.564
290.641
290.713
290.775
290.834
290.897
290.973
291.067
291.166
291.246
291.305
291.355
291.391
291.424
291.45
291.469
291.475
291.471
291.46
291.435
291.403
291.361
291.309
291.26
291.204
291.134
291.07
291.018
290.975
290.938
290.916
290.894
290.88
290.864
290.854
290.847
290.844
290.837
290.834
290.828
290.827
290.828
290.834
290.844
290.858
290.88
290.901
290.915
290.93
290.943
290.956
290.971
290.988
291.006
291.03
291.062
291.089
291.118
291.144
291.173
291.202
291.232
291.26
291.286
291.311
291.334
291.355
291.374
291.39
291.409
291.428
291.445
291.461
291.477
291.495
291.512
291.528
291.54
291.56
291.558
291.568
291.578
291.591
291.604
291.62
291.64
291.664
291.694
291.723
291.747
291.769
291.793
291.819
291.85
291.888
291.934
291.978
292.023
292.068
292.11
292.151
292.188
292.225
292.261
292.296
292.334
292.368
292.4
292.425
292.449
292.472
292.491
292.509
292.529
292.547
292.571
292.601
292.638
292.669
292.703
292.746
292.778
292.81
292.839
292.866
292.888
292.908
292.931
292.953
292.972
292.988
293.006
293.012
293.022
293.034
293.04
293.044
293.045
293.045
293.042
293.038
293.035
293.031
293.031
293.031
293.032
293.034
293.036
293.039
293.044
293.05
293.058
293.067
293.078
293.093
293.111
293.133
293.159
293.185
293.208
293.217
293.225
293.234
293.242
293.251
293.261
293.274
293.29
293.305
293.321
293.335
293.345
293.355
293.363
293.37
293.375
293.377
293.38
293.382
293.385
293.389
293.393
293.399
293.403
293.409
293.415
293.421
293.429
293.441
293.446
293.445
293.451
293.451
293.453
293.451
293.449
293.438
293.435
293.437
293.437
293.433
293.419
293.395
293.382
293.365
293.349
293.346
293.349
293.358
293.363
293.365
293.369
293.365
293.357
293.34
293.323
293.307
293.306
293.307
293.316
293.333
293.35
293.364
293.373
293.375
293.376
293.38
293.388
293.394
293.406
293.423
293.439
293.452
293.463
293.472
293.482
293.493
293.507
293.523
293.535
293.546
293.554
293.559
293.566
293.574
293.589
288.742
288.744
288.751
288.757
288.769
288.783
288.802
288.824
288.851
288.881
288.916
288.955
288.998
289.044
289.094
289.147
289.204
289.264
289.326
289.392
289.461
289.532
289.604
289.677
289.749
289.819
289.885
289.946
290.003
290.057
290.107
290.151
290.192
290.232
290.269
290.299
290.329
290.358
290.386
290.413
290.44
290.468
290.499
290.53
290.566
290.605
290.649
290.692
290.738
290.779
290.819
290.852
290.879
290.901
290.914
290.928
290.938
290.945
290.951
290.959
290.967
290.975
290.981
290.987
290.993
291
291.009
291.022
291.031
291.039
291.036
291.024
290.985
290.908
290.796
290.657
290.537
290.468
290.448
290.452
290.469
290.509
290.567
290.637
290.732
290.838
290.959
291.089
291.23
291.373
291.524
291.657
291.792
291.92
292.045
292.155
292.254
292.334
292.407
292.463
292.516
292.557
292.588
292.612
292.627
292.638
292.651
292.664
292.678
292.693
292.71
292.729
292.75
292.776
292.805
292.835
292.862
292.873
292.853
292.798
292.655
292.448
292.19
291.896
291.602
291.326
291.08
290.875
290.705
290.571
290.468
290.388
290.33
290.289
290.261
290.243
290.231
290.225
290.221
290.216
290.214
290.214
290.219
290.231
290.246
290.265
290.289
290.32
290.358
290.403
290.456
290.514
290.574
290.629
290.677
290.717
290.746
290.756
290.758
290.751
290.736
290.724
290.715
290.709
290.704
290.696
290.684
290.671
290.661
290.649
290.629
290.596
290.545
290.482
290.413
290.346
290.281
290.228
290.189
290.155
290.122
290.081
290.033
289.978
289.922
289.864
289.809
289.757
289.705
289.655
289.607
289.553
289.498
289.457
289.422
289.393
289.368
289.362
289.367
289.384
289.419
289.465
289.516
289.572
289.641
289.727
289.837
289.964
290.094
290.203
290.263
290.281
290.288
290.31
290.377
290.514
290.738
291.012
291.257
291.416
291.471
291.466
291.436
291.418
291.39
291.35
291.288
291.212
291.131
291.048
290.965
290.885
290.813
290.74
290.671
290.609
290.548
290.487
290.427
290.37
290.317
290.267
290.223
290.183
290.148
290.118
290.09
290.064
290.042
290.02
290.005
289.996
289.991
289.996
290.009
290.038
290.077
290.12
290.163
290.215
290.292
290.41
290.562
290.707
290.831
290.938
291.032
291.124
291.214
291.294
291.36
291.412
291.446
291.467
291.469
291.462
291.428
291.372
291.307
291.216
291.12
291.047
290.996
290.951
290.937
290.921
290.912
290.896
290.881
290.873
290.869
290.863
290.858
290.849
290.846
290.85
290.856
290.87
290.891
290.929
290.963
290.986
291.007
291.019
291.033
291.05
291.07
291.091
291.119
291.149
291.175
291.201
291.23
291.259
291.288
291.317
291.345
291.372
291.397
291.42
291.44
291.459
291.471
291.478
291.483
291.496
291.511
291.525
291.54
291.553
291.561
291.564
291.568
291.556
291.547
291.545
291.547
291.552
291.558
291.565
291.569
291.578
291.578
291.576
291.578
291.581
291.583
291.589
291.605
291.628
291.662
291.701
291.745
291.79
291.836
291.883
291.933
291.987
292.041
292.096
292.152
292.204
292.251
292.296
292.335
292.368
292.399
292.426
292.451
292.466
292.489
292.516
292.54
292.573
292.62
292.657
292.691
292.727
292.764
292.8
292.831
292.861
292.888
292.91
292.929
292.941
292.956
292.97
292.982
292.988
292.995
292.994
292.989
292.98
292.972
292.96
292.951
292.944
292.934
292.929
292.922
292.915
292.906
292.897
292.892
292.89
292.89
292.893
292.901
292.914
292.933
292.96
292.99
293.019
293.039
293.055
293.068
293.082
293.096
293.112
293.134
293.164
293.201
293.242
293.268
293.288
293.311
293.328
293.34
293.35
293.359
293.368
293.374
293.376
293.378
293.378
293.377
293.377
293.379
293.387
293.391
293.392
293.397
293.396
293.399
293.402
293.404
293.405
293.404
293.411
293.409
293.401
293.388
293.377
293.364
293.332
293.314
293.291
293.256
293.22
293.19
293.169
293.163
293.162
293.155
293.155
293.15
293.136
293.112
293.083
293.047
293.018
293.006
293.008
293.017
293.034
293.052
293.057
293.054
293.047
293.043
293.045
293.05
293.058
293.075
293.095
293.117
293.138
293.157
293.174
293.193
293.214
293.232
293.249
293.268
293.285
293.3
293.317
293.325
293.355
288.709
288.714
288.726
288.739
288.76
288.785
288.814
288.847
288.884
288.925
288.969
289.016
289.067
289.12
289.177
289.237
289.301
289.369
289.442
289.518
289.598
289.68
289.763
289.845
289.924
289.998
290.065
290.124
290.175
290.22
290.259
290.292
290.321
290.347
290.371
290.392
290.412
290.432
290.451
290.473
290.497
290.526
290.561
290.601
290.65
290.703
290.761
290.817
290.87
290.912
290.947
290.971
290.988
290.998
290.999
291.002
291.002
291
290.999
291
291.001
290.999
290.997
290.996
290.995
290.993
290.989
290.985
290.975
290.958
290.932
290.897
290.841
290.759
290.647
290.527
290.453
290.436
290.452
290.486
290.545
290.632
290.741
290.862
291.003
291.149
291.293
291.447
291.601
291.754
291.907
292.041
292.173
292.28
292.381
292.464
292.534
292.581
292.622
292.652
292.676
292.688
292.691
292.688
292.676
292.66
292.652
292.653
292.66
292.67
292.686
292.709
292.74
292.78
292.831
292.892
292.963
293.043
293.118
293.186
293.202
293.198
293.168
293.062
292.878
292.628
292.328
292.002
291.677
291.366
291.087
290.838
290.63
290.472
290.361
290.289
290.245
290.217
290.198
290.187
290.184
290.186
290.195
290.212
290.237
290.267
290.303
290.347
290.4
290.462
290.536
290.618
290.705
290.794
290.883
290.966
291.04
291.1
291.139
291.16
291.164
291.166
291.168
291.17
291.17
291.171
291.171
291.172
291.176
291.18
291.178
291.164
291.129
291.076
291.006
290.93
290.855
290.793
290.75
290.72
290.69
290.649
290.596
290.538
290.474
290.404
290.329
290.251
290.164
290.072
289.979
289.883
289.793
289.716
289.642
289.565
289.483
289.4
289.316
289.226
289.162
289.111
289.084
289.086
289.101
289.135
289.198
289.296
289.428
289.576
289.702
289.772
289.792
289.813
289.86
289.982
290.22
290.557
290.928
291.224
291.388
291.453
291.485
291.496
291.494
291.473
291.413
291.318
291.21
291.093
290.979
290.874
290.783
290.692
290.598
290.511
290.432
290.365
290.305
290.255
290.215
290.179
290.145
290.118
290.093
290.069
290.047
290.021
289.993
289.96
289.926
289.891
289.859
289.821
289.777
289.74
289.713
289.697
289.691
289.699
289.731
289.801
289.913
290.048
290.177
290.306
290.44
290.588
290.748
290.905
291.047
291.174
291.283
291.364
291.429
291.453
291.445
291.411
291.359
291.274
291.178
291.093
291.033
290.993
290.96
290.933
290.928
290.915
290.898
290.888
290.89
290.888
290.885
290.885
290.886
290.893
290.902
290.914
290.942
290.977
291.014
291.05
291.079
291.099
291.117
291.135
291.158
291.182
291.206
291.231
291.253
291.275
291.301
291.325
291.351
291.377
291.404
291.429
291.452
291.474
291.495
291.515
291.535
291.547
291.56
291.576
291.593
291.611
291.629
291.644
291.654
291.657
291.658
291.656
291.644
291.636
291.632
291.632
291.632
291.632
291.623
291.614
291.599
291.576
291.559
291.546
291.533
291.52
291.51
291.502
291.501
291.503
291.51
291.523
291.542
291.57
291.606
291.653
291.71
291.776
291.845
291.913
291.984
292.057
292.128
292.197
292.256
292.311
292.348
292.378
292.409
292.435
292.455
292.481
292.519
292.553
292.59
292.622
292.661
292.705
292.746
292.78
292.819
292.846
292.864
292.881
292.899
292.919
292.934
292.938
292.94
292.939
292.929
292.915
292.896
292.877
292.855
292.835
292.822
292.803
292.786
292.771
292.758
292.746
292.736
292.728
292.722
292.72
292.722
292.727
292.739
292.759
292.783
292.804
292.822
292.835
292.845
292.853
292.863
292.875
292.893
292.92
292.965
293.022
293.077
293.127
293.172
293.212
293.246
293.278
293.301
293.326
293.346
293.363
293.377
293.384
293.387
293.39
293.387
293.38
293.375
293.364
293.365
293.364
293.364
293.369
293.371
293.378
293.374
293.368
293.368
293.357
293.335
293.317
293.297
293.257
293.238
293.21
293.175
293.133
293.082
293.034
292.994
292.959
292.948
292.936
292.924
292.906
292.88
292.845
292.8
292.761
292.737
292.734
292.737
292.746
292.757
292.762
292.764
292.752
292.742
292.739
292.738
292.739
292.745
292.758
292.775
292.794
292.812
292.829
292.848
292.869
292.888
292.905
292.927
292.949
292.972
292.997
293.019
293.062
288.677
288.685
288.704
288.727
288.759
288.796
288.838
288.883
288.932
288.983
289.037
289.092
289.15
289.212
289.277
289.346
289.42
289.499
289.585
289.675
289.768
289.862
289.955
290.043
290.124
290.196
290.257
290.307
290.346
290.377
290.4
290.419
290.433
290.443
290.453
290.461
290.469
290.479
290.494
290.513
290.541
290.58
290.629
290.689
290.757
290.829
290.899
290.961
291.011
291.044
291.066
291.074
291.075
291.074
291.064
291.056
291.047
291.037
291.027
291.019
291.011
291
290.986
290.969
290.953
290.936
290.916
290.896
290.867
290.828
290.785
290.737
290.677
290.6
290.519
290.45
290.431
290.449
290.495
290.572
290.674
290.801
290.941
291.067
291.19
291.308
291.43
291.564
291.699
291.846
291.987
292.122
292.249
292.346
292.428
292.504
292.56
292.597
292.614
292.611
292.597
292.564
292.52
292.473
292.419
292.361
292.298
292.247
292.203
292.166
292.135
292.11
292.095
292.093
292.111
292.158
292.241
292.371
292.549
292.756
292.983
293.171
293.318
293.403
293.428
293.418
293.363
293.222
292.992
292.692
292.347
291.967
291.578
291.213
290.902
290.662
290.492
290.381
290.311
290.27
290.252
290.25
290.256
290.273
290.306
290.35
290.405
290.47
290.544
290.627
290.719
290.82
290.927
291.04
291.153
291.266
291.375
291.473
291.555
291.614
291.654
291.68
291.695
291.703
291.707
291.711
291.718
291.728
291.741
291.756
291.762
291.761
291.749
291.72
291.674
291.617
291.559
291.506
291.465
291.432
291.408
291.377
291.341
291.301
291.256
291.202
291.137
291.058
290.962
290.854
290.735
290.627
290.527
290.435
290.339
290.23
290.101
289.948
289.769
289.58
289.408
289.261
289.146
289.046
288.954
288.868
288.838
288.846
288.884
288.968
289.087
289.197
289.261
289.303
289.362
289.483
289.706
290.031
290.425
290.798
291.071
291.252
291.364
291.446
291.52
291.531
291.507
291.442
291.343
291.216
291.076
290.938
290.81
290.686
290.564
290.465
290.385
290.324
290.28
290.245
290.219
290.202
290.194
290.191
290.192
290.188
290.181
290.166
290.141
290.099
290.044
289.977
289.902
289.82
289.743
289.67
289.6
289.53
289.468
289.427
289.414
289.425
289.464
289.53
289.61
289.707
289.825
289.971
290.147
290.345
290.555
290.76
290.958
291.136
291.288
291.395
291.42
291.411
291.39
291.333
291.265
291.177
291.093
291.033
290.982
290.943
290.928
290.918
290.911
290.909
290.913
290.916
290.919
290.922
290.926
290.933
290.941
290.954
290.987
291.026
291.064
291.113
291.145
291.167
291.187
291.202
291.22
291.24
291.258
291.283
291.307
291.333
291.361
291.39
291.419
291.448
291.477
291.502
291.523
291.538
291.55
291.565
291.586
291.605
291.623
291.641
291.662
291.684
291.707
291.729
291.749
291.763
291.768
291.77
291.769
291.769
291.769
291.771
291.772
291.772
291.76
291.75
291.734
291.709
291.683
291.661
291.639
291.616
291.592
291.564
291.533
291.5
291.468
291.436
291.411
291.401
291.402
291.409
291.43
291.467
291.519
291.577
291.647
291.733
291.83
291.925
292.026
292.122
292.198
292.264
292.318
292.365
292.397
292.423
292.449
292.474
292.508
292.542
292.582
292.631
292.675
292.709
292.75
292.784
292.812
292.83
292.849
292.865
292.875
292.88
292.879
292.876
292.866
292.848
292.827
292.802
292.783
292.758
292.731
292.701
292.675
292.653
292.636
292.62
292.607
292.596
292.587
292.58
292.575
292.575
292.577
292.584
292.598
292.611
292.618
292.624
292.629
292.632
292.636
292.642
292.654
292.674
292.709
292.757
292.814
292.87
292.924
292.975
293.028
293.078
293.129
293.18
293.231
293.278
293.319
293.349
293.374
293.393
293.399
293.399
293.394
293.38
293.369
293.362
293.356
293.343
293.34
293.344
293.341
293.334
293.33
293.318
293.296
293.267
293.247
293.216
293.176
293.142
293.099
293.046
292.989
292.929
292.869
292.815
292.778
292.755
292.731
292.706
292.678
292.644
292.603
292.567
292.541
292.532
292.533
292.536
292.542
292.546
292.551
292.552
292.55
292.552
292.554
292.556
292.56
292.567
292.576
292.585
292.595
292.602
292.606
292.61
292.617
292.621
292.628
292.638
292.652
292.67
292.685
292.727
288.651
288.663
288.69
288.724
288.769
288.819
288.875
288.933
288.993
289.053
289.115
289.178
289.244
289.313
289.386
289.466
289.552
289.646
289.746
289.85
289.957
290.062
290.16
290.248
290.324
290.386
290.434
290.468
290.49
290.503
290.51
290.511
290.509
290.504
290.5
290.497
290.495
290.5
290.513
290.537
290.575
290.631
290.701
290.781
290.868
290.95
291.024
291.08
291.12
291.14
291.149
291.148
291.14
291.132
291.117
291.102
291.086
291.067
291.045
291.026
291.005
290.979
290.95
290.918
290.885
290.851
290.814
290.776
290.731
290.682
290.631
290.583
290.532
290.482
290.444
290.431
290.442
290.488
290.568
290.677
290.797
290.916
291.008
291.091
291.177
291.268
291.364
291.468
291.594
291.724
291.862
291.988
292.109
292.212
292.295
292.351
292.394
292.418
292.41
292.398
292.385
292.355
292.313
292.265
292.218
292.168
292.107
292.042
291.979
291.916
291.852
291.784
291.715
291.648
291.589
291.547
291.537
291.563
291.647
291.79
291.989
292.226
292.508
292.811
293.117
293.38
293.568
293.649
293.65
293.605
293.472
293.23
292.891
292.484
292.048
291.63
291.271
290.992
290.795
290.664
290.578
290.533
290.527
290.535
290.561
290.61
290.677
290.763
290.863
290.972
291.088
291.207
291.328
291.449
291.572
291.696
291.818
291.934
292.037
292.123
292.189
292.238
292.27
292.285
292.291
292.293
292.296
292.299
292.306
292.315
292.321
292.323
292.319
292.306
292.283
292.25
292.213
292.176
292.143
292.114
292.089
292.07
292.048
292.022
291.992
291.954
291.905
291.842
291.766
291.678
291.581
291.491
291.407
291.326
291.235
291.123
290.983
290.809
290.602
290.36
290.107
289.863
289.64
289.44
289.255
289.084
288.942
288.813
288.69
288.652
288.666
288.703
288.747
288.79
288.852
288.965
289.171
289.478
289.862
290.25
290.576
290.826
291.027
291.214
291.391
291.521
291.558
291.541
291.477
291.362
291.21
291.037
290.879
290.727
290.59
290.484
290.409
290.345
290.303
290.28
290.274
290.278
290.296
290.322
290.347
290.368
290.377
290.375
290.363
290.332
290.283
290.207
290.108
289.989
289.863
289.736
289.615
289.504
289.4
289.305
289.238
289.211
289.209
289.219
289.246
289.295
289.369
289.472
289.61
289.786
290
290.251
290.518
290.783
291.025
291.214
291.337
291.386
291.389
291.363
291.323
291.254
291.165
291.081
291.008
290.956
290.931
290.917
290.915
290.914
290.919
290.928
290.937
290.946
290.959
290.976
290.989
291.003
291.037
291.077
291.115
291.152
291.18
291.203
291.222
291.239
291.257
291.277
291.302
291.331
291.366
291.411
291.458
291.509
291.558
291.606
291.651
291.688
291.716
291.733
291.743
291.753
291.763
291.773
291.783
291.797
291.815
291.836
291.855
291.874
291.9
291.92
291.929
291.931
291.932
291.934
291.936
291.939
291.943
291.946
291.945
291.942
291.93
291.911
291.892
291.871
291.847
291.822
291.792
291.758
291.718
291.67
291.617
291.559
291.498
291.44
291.386
291.339
291.306
291.299
291.303
291.318
291.354
291.417
291.498
291.591
291.704
291.818
291.936
292.05
292.153
292.239
292.309
292.358
292.393
292.422
292.454
292.486
292.522
292.564
292.602
292.646
292.679
292.714
292.749
292.775
292.795
292.809
292.815
292.82
292.819
292.811
292.799
292.781
292.76
292.736
292.713
292.687
292.662
292.636
292.616
292.596
292.577
292.559
292.544
292.529
292.516
292.503
292.492
292.483
292.474
292.467
292.466
292.466
292.465
292.463
292.46
292.458
292.453
292.454
292.457
292.466
292.486
292.516
292.55
292.589
292.631
292.677
292.729
292.787
292.85
292.917
292.988
293.06
293.133
293.206
293.277
293.34
293.383
293.408
293.415
293.411
293.398
293.38
293.365
293.348
293.331
293.326
293.318
293.31
293.302
293.291
293.272
293.239
293.207
293.17
293.126
293.079
293.029
292.971
292.911
292.851
292.788
292.723
292.67
292.626
292.591
292.559
292.531
292.503
292.474
292.451
292.436
292.432
292.433
292.438
292.445
292.451
292.463
292.473
292.481
292.491
292.5
292.509
292.517
292.523
292.528
292.531
292.536
292.537
292.535
292.53
292.524
292.516
292.509
292.501
292.494
292.489
292.478
292.48
288.632
288.648
288.686
288.732
288.791
288.857
288.926
288.997
289.066
289.134
289.202
289.27
289.341
289.417
289.499
289.589
289.689
289.798
289.913
290.03
290.146
290.256
290.354
290.436
290.501
290.547
290.575
290.59
290.592
290.586
290.575
290.56
290.543
290.525
290.51
290.498
290.492
290.496
290.512
290.544
290.598
290.671
290.758
290.853
290.947
291.029
291.096
291.142
291.171
291.184
291.189
291.185
291.173
291.162
291.146
291.131
291.115
291.095
291.069
291.042
291.01
290.975
290.936
290.894
290.847
290.795
290.742
290.687
290.627
290.569
290.519
290.481
290.448
290.432
290.431
290.44
290.476
290.55
290.651
290.762
290.862
290.928
290.991
291.04
291.083
291.114
291.153
291.22
291.301
291.419
291.541
291.656
291.78
291.892
291.957
292.007
292.045
292.077
292.078
292.072
292.079
292.077
292.059
292.026
291.993
291.959
291.923
291.883
291.837
291.785
291.724
291.653
291.572
291.484
291.391
291.298
291.216
291.161
291.147
291.171
291.244
291.363
291.544
291.784
292.088
292.443
292.823
293.194
293.523
293.764
293.851
293.843
293.772
293.595
293.306
292.932
292.523
292.133
291.801
291.541
291.35
291.218
291.132
291.11
291.119
291.15
291.211
291.302
291.417
291.545
291.678
291.812
291.941
292.065
292.18
292.293
292.403
292.508
292.607
292.695
292.768
292.828
292.873
292.894
292.898
292.897
292.894
292.887
292.88
292.871
292.864
292.856
292.847
292.833
292.815
292.792
292.767
292.741
292.715
292.691
292.672
292.654
292.636
292.616
292.591
292.56
292.522
292.474
292.421
292.363
292.296
292.227
292.158
292.087
292.005
291.906