/*--------------------------------*- C++ -*----------------------------------*\
| =========                 |                                                 |
| \\      /  F ield         | OpenFOAM: The Open Source CFD Toolbox           |
|  \\    /   O peration     | Version:  v1812                                 |
|   \\  /    A nd           | Web:      www.OpenFOAM.com                      |
|    \\/     M anipulation  |                                                 |
\*---------------------------------------------------------------------------*/
FoamFile
{
    version     2.0;
    format      ascii;
    class       volVectorField;
    location    "1.4";
    object      U;
}
// * * * * * * * * * * * * * * * * * * * * * * * * * * * * * * * * * * * * * //

dimensions      [0 1 -1 0 0 0 0];


internalField   nonuniform List<vector> 
20400
(
(0.0130708 -0.00845438 0)
(0.0215465 0.00172766 0)
(0.0176434 0.0197415 0)
(-0.00529574 0.0227069 0)
(-0.0278046 0.0119819 0)
(-0.0497779 0.00877392 0)
(-0.0750022 0.0069974 0)
(-0.103835 0.00674329 0)
(-0.136566 0.00558945 0)
(-0.169945 0.00296658 0)
(-0.202495 0.000861901 0)
(-0.233585 -0.000711958 0)
(-0.262479 -0.000270209 0)
(-0.292169 0.00355254 0)
(-0.321194 0.0107203 0)
(-0.3479 0.0115712 0)
(-0.37378 0.00361021 0)
(-0.396941 -0.00400687 0)
(-0.411286 -0.00966672 0)
(-0.418812 -0.00924281 0)
(-0.419449 0.0013153 0)
(-0.412207 0.0216371 0)
(-0.390661 0.0209156 0)
(-0.359498 0.0205841 0)
(-0.320416 0.015101 0)
(-0.276294 0.00884511 0)
(-0.230144 8.61891e-06 0)
(-0.184149 -0.00853095 0)
(-0.140583 -0.0159374 0)
(-0.0997704 -0.01849 0)
(-0.0663913 -0.0126737 0)
(-0.047333 -0.000985808 0)
(-0.041549 0.00629364 0)
(-0.0428295 0.0076113 0)
(-0.0486613 0.0111988 0)
(-0.0658622 0.0217429 0)
(-0.105741 0.0271995 0)
(-0.162505 0.0196839 0)
(-0.232496 0.00461616 0)
(-0.2972 -0.0227831 0)
(-0.3621 -0.0286128 0)
(-0.438968 -0.0178998 0)
(-0.53942 0.00135353 0)
(-0.682949 0.0210854 0)
(-0.855932 0.0170397 0)
(-1.03175 0.0293516 0)
(-1.18254 0.0832795 0)
(-1.30945 0.127441 0)
(-1.4153 0.111482 0)
(-1.50478 0.0993791 0)
(-1.58071 0.0806704 0)
(-1.63568 0.0488612 0)
(-1.65105 0.00136197 0)
(-1.59878 -0.0604563 0)
(-1.50016 -0.0920904 0)
(-1.3666 -0.152828 0)
(-1.17543 -0.184335 0)
(-0.967632 -0.194582 0)
(-0.748666 -0.206769 0)
(-0.513349 -0.226653 0)
(-0.255188 -0.249749 0)
(0.0233126 -0.246772 0)
(0.309684 -0.205264 0)
(0.600957 -0.181189 0)
(0.893461 -0.172614 0)
(1.17695 -0.164331 0)
(1.4305 -0.153675 0)
(1.65403 -0.147312 0)
(1.84195 -0.122448 0)
(1.98262 -0.0606413 0)
(2.04386 0.00796715 0)
(2.03891 0.013635 0)
(1.99695 -0.146968 0)
(1.99181 -0.40882 0)
(2.02245 -0.400844 0)
(2.03538 0.00386484 0)
(2.0519 -0.011243 0)
(2.09007 -0.0270792 0)
(2.13438 -0.00311821 0)
(2.10029 0.123634 0)
(1.87095 0.357087 0)
(1.40366 0.581539 0)
(0.738786 0.765916 0)
(-0.105011 0.840317 0)
(-1.01668 0.573677 0)
(-1.96024 0.272299 0)
(-2.93915 0.12584 0)
(-3.91464 0.115714 0)
(-4.83328 0.238744 0)
(-5.67893 0.435248 0)
(-6.44325 0.51612 0)
(-7.05679 0.51241 0)
(-7.61989 0.53553 0)
(-8.18805 0.548052 0)
(-8.70975 0.479075 0)
(-9.12502 0.346699 0)
(-9.4363 0.231294 0)
(-9.65242 0.17947 0)
(-9.73791 0.124985 0)
(-9.77591 0.218696 0)
(-9.72341 0.292314 0)
(-9.56731 0.436267 0)
(-9.31842 0.637561 0)
(-8.96392 0.803777 0)
(-8.5165 0.867953 0)
(-7.98632 0.86346 0)
(-7.39073 0.812532 0)
(-6.76774 0.702508 0)
(-6.1247 0.531273 0)
(-5.44966 0.320281 0)
(-4.73804 0.116617 0)
(-3.99688 -0.0464274 0)
(-3.23579 -0.169863 0)
(-2.45624 -0.264417 0)
(-1.65429 -0.334306 0)
(-0.841695 -0.371012 0)
(-0.0632088 -0.315687 0)
(0.606904 -0.0765101 0)
(1.02329 0.214346 0)
(1.49877 0.191022 0)
(1.9871 0.358121 0)
(2.35091 0.519803 0)
(2.57433 0.646262 0)
(2.75038 0.310264 0)
(3.06341 0.103899 0)
(3.36769 0.0987904 0)
(3.54054 0.204847 0)
(3.68768 0.0785148 0)
(3.78311 -0.15528 0)
(3.74474 -0.253616 0)
(3.71762 0.0352451 0)
(3.72935 0.327291 0)
(3.76243 0.234699 0)
(3.77842 -0.0773754 0)
(3.63844 -0.335967 0)
(3.37985 -0.439234 0)
(3.10192 -0.47435 0)
(2.82453 -0.467207 0)
(2.55616 -0.432627 0)
(2.29372 -0.372544 0)
(2.03342 -0.277379 0)
(1.77846 -0.111941 0)
(1.52469 0.0889026 0)
(1.25471 0.188036 0)
(1.01565 0.199453 0)
(0.816048 0.185137 0)
(0.650619 0.161381 0)
(0.524728 0.127077 0)
(0.434964 0.0914045 0)
(0.391165 0.0464063 0)
(0.388922 0.0171414 0)
(0.424289 -0.0161615 0)
(0.487455 -0.0383364 0)
(0.563078 -0.0412096 0)
(0.639534 -0.0418284 0)
(0.722459 -0.0429651 0)
(0.81432 -0.0435396 0)
(0.912333 -0.0396474 0)
(1.01989 -0.0416708 0)
(1.13609 -0.0429623 0)
(1.24202 -0.0296576 0)
(1.33529 -0.028494 0)
(1.4199 -0.0318812 0)
(1.49687 -0.0351126 0)
(1.56973 -0.0398601 0)
(1.64105 -0.0448833 0)
(1.71385 -0.0494172 0)
(1.79552 -0.0547468 0)
(1.89081 -0.0543274 0)
(1.99969 -0.0447506 0)
(2.11989 -0.0327699 0)
(2.24922 -0.021301 0)
(2.38511 -0.0207015 0)
(2.51319 -0.0207961 0)
(2.62282 -0.0206454 0)
(2.71448 -0.0209163 0)
(2.79303 -0.0102865 0)
(2.86283 0.000930181 0)
(2.92428 0.0228491 0)
(2.97817 0.0524683 0)
(3.02603 0.0757502 0)
(3.07239 0.0866402 0)
(3.12889 0.0753206 0)
(3.19976 0.0422141 0)
(3.27233 0.0150622 0)
(3.32487 -0.00822705 0)
(3.36081 -0.0156913 0)
(3.38028 -0.0269839 0)
(3.38563 -0.0430414 0)
(3.38283 -0.0675285 0)
(3.40156 -0.0825501 0)
(3.44648 -0.0717337 0)
(3.46445 -0.0185778 0)
(3.46996 -0.012655 0)
(3.45557 0.002953 0)
(3.41231 0.0215302 0)
(3.34354 0.0159923 0)
(3.26628 -0.00174129 0)
(3.18812 -0.0194203 0)
(3.09925 -0.0177092 0)
(2.99016 0.00336408 0)
(2.86189 0.0153347 0)
(2.73131 0.0293685 0)
(2.60195 0.0385257 0)
(2.47405 0.038868 0)
(2.3434 0.0386222 0)
(2.20548 0.0497745 0)
(2.05671 0.0713167 0)
(1.89624 0.0911812 0)
(1.7318 0.0987852 0)
(1.58088 0.0825215 0)
(1.46754 0.0424853 0)
(1.40963 -0.00918622 0)
(1.39714 -0.038463 0)
(1.4471 -0.080759 0)
(1.53 -0.0639827 0)
(1.58592 -0.0196388 0)
(1.60366 -0.0397024 0)
(1.59613 -0.118264 0)
(1.62896 -0.132791 0)
(1.6218 -0.0719344 0)
(1.53097 0.00866506 0)
(1.40198 0.0585878 0)
(1.25094 0.090171 0)
(1.07439 0.071838 0)
(0.899292 0.0334952 0)
(0.716208 0.0140843 0)
(0.536036 0.025075 0)
(0.360537 0.092813 0)
(0.164852 0.154608 0)
(-0.0389481 0.185991 0)
(-0.249184 0.203193 0)
(-0.491293 0.251309 0)
(-0.772243 0.272945 0)
(-1.06465 0.28098 0)
(-1.36959 0.298479 0)
(-1.68745 0.304961 0)
(-2.00698 0.303498 0)
(-2.32051 0.294763 0)
(-2.62268 0.278933 0)
(-2.89772 0.247481 0)
(-3.13759 0.211175 0)
(-3.33779 0.166919 0)
(-3.48713 0.109568 0)
(-3.57321 0.0447443 0)
(-3.60369 -0.00648919 0)
(-3.55259 -0.0904351 0)
(-3.41641 -0.167988 0)
(-3.21184 -0.228732 0)
(-2.94884 -0.285602 0)
(-2.62747 -0.333582 0)
(-2.27756 -0.332965 0)
(-1.93778 -0.3157 0)
(-1.60919 -0.304929 0)
(-1.29156 -0.284878 0)
(-1.00031 -0.254404 0)
(-0.72289 -0.258225 0)
(-0.429802 -0.278795 0)
(-0.124936 -0.273444 0)
(0.1663 -0.241735 0)
(0.429874 -0.198676 0)
(0.673975 -0.171089 0)
(0.916969 -0.154808 0)
(1.1455 -0.110473 0)
(1.30701 -0.0546328 0)
(1.41614 -0.0328472 0)
(1.50084 -0.0309016 0)
(1.5764 -0.0335038 0)
(1.65238 -0.0335795 0)
(1.72406 -0.0220101 0)
(1.78108 -0.00317967 0)
(1.82958 0.00671879 0)
(1.86309 0.0176245 0)
(1.88438 0.0109673 0)
(1.91072 0.0196249 0)
(1.91607 0.0458234 0)
(1.91701 0.0279252 0)
(1.94972 0.0196444 0)
(1.97737 0.0319776 0)
(1.97764 0.0277305 0)
(1.97293 0.00956745 0)
(1.98353 0.013825 0)
(1.96713 0.0624679 0)
(1.9079 0.0852937 0)
(1.86759 0.0872611 0)
(1.84922 0.0773334 0)
(1.84245 0.0865709 0)
(1.81819 0.110155 0)
(1.76804 0.115394 0)
(1.70789 0.0878243 0)
(1.59863 0.084277 0)
(1.43927 0.0453316 0)
(1.27113 -0.0266492 0)
(1.12311 -0.0399604 0)
(0.978342 0.0152407 0)
(0.789337 0.132239 0)
(0.536653 0.225789 0)
(0.289412 0.261927 0)
(0.0480878 0.301177 0)
(-0.204767 0.306941 0)
(-0.43898 0.280108 0)
(-0.66814 0.295646 0)
(-0.906036 0.28936 0)
(-1.13048 0.275063 0)
(-1.34356 0.263105 0)
(-1.54124 0.242236 0)
(-1.7176 0.222375 0)
(-1.87762 0.202523 0)
(-2.00371 0.161073 0)
(-2.10225 0.143938 0)
(-2.18398 0.119817 0)
(-2.2363 0.0733607 0)
(-2.22539 0.0110539 0)
(-2.14449 -0.0547694 0)
(-2.00976 -0.10629 0)
(-1.82987 -0.147581 0)
(-1.61422 -0.178573 0)
(-1.37261 -0.200278 0)
(-1.1147 -0.212488 0)
(-0.849468 -0.215137 0)
(-0.590254 -0.201102 0)
(-0.351625 -0.176996 0)
(-0.140148 -0.150242 0)
(0.0433394 -0.12831 0)
(0.211966 -0.128783 0)
(0.37823 -0.124914 0)
(0.5428 -0.114028 0)
(0.700691 -0.097987 0)
(0.85551 -0.0892447 0)
(1.01907 -0.0855704 0)
(1.20747 -0.0861667 0)
(1.41723 -0.063523 0)
(1.65476 -0.0766581 0)
(1.88468 -0.0636157 0)
(2.04341 -0.0418094 0)
(2.13336 -0.0231477 0)
(2.18987 -0.0181408 0)
(2.23372 -0.0356759 0)
(2.27606 -0.0593143 0)
(2.3198 -0.0698299 0)
(2.35497 -0.0778434 0)
(2.40007 -0.0979628 0)
(2.48842 -0.0818384 0)
(2.54944 -0.0139124 0)
(2.57979 0.0162489 0)
(2.58646 0.0368864 0)
(2.5845 0.0520774 0)
(2.57735 0.0568277 0)
(2.57404 0.0543972 0)
(2.59424 0.0116942 0)
(2.63043 0.00669812 0)
(2.64681 0.00987789 0)
(2.65446 0.0107525 0)
(2.65514 0.0143227 0)
(2.64735 0.0207718 0)
(2.63333 0.0248745 0)
(2.61631 0.0249533 0)
(2.60234 0.024356 0)
(2.59327 0.0261783 0)
(2.59236 0.0269608 0)
(2.59503 0.0289113 0)
(2.5902 0.0385849 0)
(2.57184 0.0405599 0)
(2.55462 0.0289687 0)
(2.54372 0.0233428 0)
(2.53836 0.0136316 0)
(2.54084 0.00532799 0)
(2.54713 0.00557259 0)
(2.54834 0.0124967 0)
(2.54992 0.0178095 0)
(2.56591 0.0106293 0)
(2.58544 0.0205766 0)
(2.58236 0.00930453 0)
(2.57208 -0.0161937 0)
(2.58372 -0.0211114 0)
(2.57111 0.0511015 0)
(2.49879 0.0901076 0)
(2.45753 0.0692894 0)
(2.45466 0.0778146 0)
(2.44742 0.111829 0)
(2.41295 0.138776 0)
(2.36888 0.145907 0)
(2.30887 0.141987 0)
(2.23487 0.122852 0)
(2.16135 0.108198 0)
(2.08596 0.103295 0)
(2.01077 0.0775475 0)
(1.94475 0.0627449 0)
(1.89239 0.0771634 0)
(1.82624 0.106454 0)
(1.74093 0.115556 0)
(1.6647 0.109996 0)
(1.60631 0.0915891 0)
(1.57711 0.0576501 0)
(1.57961 0.027498 0)
(1.61691 -0.000181923 0)
(1.67651 -0.0160279 0)
(1.75172 -0.0307274 0)
(1.83308 -0.0318618 0)
(1.9012 -0.0273499 0)
(1.95876 -0.0327806 0)
(2.0138 -0.0459583 0)
(2.0831 -0.0621906 0)
(2.17661 -0.0793548 0)
(2.29276 -0.0815606 0)
(2.43039 -0.0831593 0)
(2.58863 -0.0718859 0)
(2.76499 -0.0488882 0)
(2.95209 -0.0114603 0)
(3.13906 0.0396805 0)
(3.31381 0.0974066 0)
(3.46674 0.149815 0)
(3.59826 0.181846 0)
(3.72716 0.165163 0)
(3.86601 0.114997 0)
(4.01233 0.075017 0)
(4.14665 0.0307124 0)
(4.27008 -0.0110333 0)
(4.37883 -0.0575124 0)
(4.47951 -0.0826894 0)
(4.56153 -0.114076 0)
(4.6257 -0.13768 0)
(4.68245 -0.140477 0)
(4.74633 -0.104788 0)
(4.79882 -0.029248 0)
(4.8388 0.0126775 0)
(4.86483 0.0124417 0)
(4.8833 0.00655877 0)
(4.8976 -0.0101143 0)
(4.90582 -0.0274551 0)
(4.91213 -0.0294177 0)
(4.914 -0.00581337 0)
(4.90948 0.0188675 0)
(4.90287 0.0255839 0)
(4.89625 0.0234895 0)
(4.88335 0.0151239 0)
(4.86638 -0.00299094 0)
(4.84844 -0.0201619 0)
(4.82459 -0.0174784 0)
(4.81017 0.0011402 0)
(4.7971 0.00565614 0)
(4.79078 -0.0137427 0)
(4.80329 -0.0978213 0)
(4.79647 -0.181209 0)
(4.7707 -0.161232 0)
(4.72847 -0.126775 0)
(4.68029 -0.00513879 0)
(4.58026 0.15547 0)
(4.48395 0.22977 0)
(4.49842 0.352344 0)
(4.51089 0.443373 0)
(4.49556 0.0647853 0)
(4.36696 -0.227851 0)
(4.17983 -0.327981 0)
(4.05148 -0.418482 0)
(3.91873 -0.47616 0)
(3.78697 -0.366439 0)
(3.69859 -0.2125 0)
(3.62385 -0.106828 0)
(3.52025 -0.0512733 0)
(3.42789 0.0503486 0)
(3.31026 0.0714784 0)
(3.22345 0.0709618 0)
(3.13959 0.0964202 0)
(3.04275 0.120975 0)
(2.94864 0.118417 0)
(2.8583 0.111314 0)
(2.76643 0.0996694 0)
(2.68 0.080448 0)
(2.61862 0.0421934 0)
(2.59549 0.00582298 0)
(2.59156 0.0110963 0)
(2.60259 0.0129791 0)
(2.62746 0.0169357 0)
(2.66036 0.0291784 0)
(2.69448 0.0444519 0)
(2.72293 0.0696973 0)
(2.73292 0.0990007 0)
(2.74974 0.102896 0)
(2.77511 0.0942338 0)
(2.8317 0.0756579 0)
(2.9244 0.0289766 0)
(3.04008 -0.0109908 0)
(3.15257 -0.0500637 0)
(3.25641 -0.0770915 0)
(3.34957 -0.0897615 0)
(3.43021 -0.112782 0)
(3.50129 -0.136294 0)
(3.56464 -0.156749 0)
(3.62231 -0.174965 0)
(3.68094 -0.189239 0)
(3.75272 -0.185787 0)
(3.83818 -0.153981 0)
(3.92281 -0.102302 0)
(3.99421 -0.0546229 0)
(4.05432 -0.018083 0)
(4.09819 0.0194905 0)
(4.14101 0.0426961 0)
(4.17153 0.0628338 0)
(4.30582 0.059307 0)
(-0.00895779 0.00296788 0)
(-0.0286166 0.0144699 0)
(-0.0478436 0.0359761 0)
(-0.0777859 0.0521879 0)
(-0.111024 0.0463515 0)
(-0.148554 0.0488671 0)
(-0.190815 0.0508524 0)
(-0.235146 0.05462 0)
(-0.280573 0.0557809 0)
(-0.324144 0.0529331 0)
(-0.365753 0.050557 0)
(-0.405416 0.0460459 0)
(-0.442549 0.042983 0)
(-0.478426 0.0434069 0)
(-0.507435 0.0371947 0)
(-0.524604 0.0335828 0)
(-0.529376 0.0359772 0)
(-0.526984 0.027623 0)
(-0.521559 0.0187717 0)
(-0.513558 0.00949211 0)
(-0.50122 0.00265099 0)
(-0.484628 -0.00716633 0)
(-0.466935 -0.0245406 0)
(-0.443259 -0.0342837 0)
(-0.417384 -0.0425779 0)
(-0.38895 -0.0454637 0)
(-0.360035 -0.0471862 0)
(-0.33195 -0.0446383 0)
(-0.305134 -0.0415903 0)
(-0.279561 -0.0334583 0)
(-0.258567 -0.0176765 0)
(-0.245314 0.000610096 0)
(-0.237607 0.0147135 0)
(-0.239338 0.0236923 0)
(-0.250228 0.0335912 0)
(-0.262704 0.0562261 0)
(-0.287238 0.0829549 0)
(-0.322647 0.101613 0)
(-0.366779 0.117654 0)
(-0.443435 0.123626 0)
(-0.552037 0.133331 0)
(-0.668903 0.148815 0)
(-0.786234 0.177843 0)
(-0.890822 0.227344 0)
(-0.988415 0.24449 0)
(-1.08575 0.242552 0)
(-1.18323 0.219949 0)
(-1.27699 0.191673 0)
(-1.35896 0.162866 0)
(-1.42099 0.134678 0)
(-1.45525 0.0994445 0)
(-1.45349 0.046078 0)
(-1.40371 -0.0246813 0)
(-1.28907 -0.0897994 0)
(-1.12531 -0.119967 0)
(-0.947256 -0.208411 0)
(-0.724659 -0.256216 0)
(-0.467523 -0.267306 0)
(-0.170829 -0.285065 0)
(0.161874 -0.312901 0)
(0.529233 -0.342174 0)
(0.931819 -0.361262 0)
(1.36386 -0.36833 0)
(1.80486 -0.360508 0)
(2.23685 -0.346644 0)
(2.641 -0.307315 0)
(2.9927 -0.252085 0)
(3.28783 -0.211354 0)
(3.50605 -0.151898 0)
(3.62564 -0.101561 0)
(3.63513 0.00210482 0)
(3.51577 0.0403865 0)
(3.25996 0.10157 0)
(2.86964 0.181568 0)
(2.34462 0.254258 0)
(1.82868 0.218746 0)
(1.3784 0.128891 0)
(0.869158 0.101709 0)
(0.258127 0.153268 0)
(-0.472058 0.31395 0)
(-1.29753 0.604182 0)
(-2.20951 0.890442 0)
(-3.17654 1.14726 0)
(-4.23713 1.40105 0)
(-5.42897 1.74564 0)
(-6.80724 1.89435 0)
(-8.25002 1.87777 0)
(-9.62862 1.64487 0)
(-10.8626 1.34008 0)
(-11.9629 1.05436 0)
(-12.8641 0.764664 0)
(-13.5874 0.601363 0)
(-14.1546 0.593995 0)
(-14.5574 0.57292 0)
(-14.7885 0.479466 0)
(-14.8393 0.384346 0)
(-14.7113 0.293526 0)
(-14.4791 0.163179 0)
(-14.1784 0.0284821 0)
(-13.7957 -0.00710593 0)
(-13.372 -0.143402 0)
(-12.8403 -0.290032 0)
(-12.2228 -0.451492 0)
(-11.5172 -0.629251 0)
(-10.7261 -0.779124 0)
(-9.86409 -0.931605 0)
(-8.92639 -1.04257 0)
(-7.9584 -1.1048 0)
(-6.99324 -1.17164 0)
(-6.04212 -1.22809 0)
(-5.12659 -1.25638 0)
(-4.252 -1.26517 0)
(-3.40413 -1.27543 0)
(-2.56436 -1.30267 0)
(-1.71192 -1.36012 0)
(-0.796243 -1.48317 0)
(0.271372 -1.63215 0)
(1.53014 -1.61598 0)
(2.77163 -1.35801 0)
(3.93811 -1.50938 0)
(4.88185 -1.29497 0)
(5.66331 -1.11357 0)
(6.40674 -0.844154 0)
(7.13198 -0.748917 0)
(7.73317 -0.604727 0)
(8.22136 -0.444335 0)
(8.53937 -0.254583 0)
(8.71762 -0.277946 0)
(8.75088 0.121358 0)
(8.81424 0.261535 0)
(8.85101 0.0253999 0)
(8.79875 -0.230792 0)
(8.62804 -0.211733 0)
(8.38005 0.134185 0)
(8.01887 0.576574 0)
(7.55013 0.819564 0)
(7.05305 0.913253 0)
(6.54989 0.934857 0)
(6.0552 0.923456 0)
(5.5843 0.890603 0)
(5.16179 0.818456 0)
(4.81249 0.701666 0)
(4.55864 0.531278 0)
(4.33497 0.401037 0)
(4.12683 0.315865 0)
(3.94846 0.254453 0)
(3.80855 0.20417 0)
(3.71629 0.154939 0)
(3.66651 0.106333 0)
(3.67999 0.0562913 0)
(3.76713 0.0121981 0)
(3.94054 -0.0261059 0)
(4.18327 -0.0505068 0)
(4.45711 -0.0503308 0)
(4.70982 -0.0616755 0)
(4.91001 -0.0863503 0)
(5.0614 -0.114251 0)
(5.18824 -0.134586 0)
(5.31135 -0.169209 0)
(5.47124 -0.155887 0)
(5.66306 -0.13225 0)
(5.86584 -0.105448 0)
(6.07654 -0.0772069 0)
(6.29967 -0.0542479 0)
(6.54149 -0.0429613 0)
(6.79637 -0.0314327 0)
(7.04715 -0.0381202 0)
(7.27958 -0.0617614 0)
(7.48337 -0.0980013 0)
(7.65355 -0.144773 0)
(7.80556 -0.183861 0)
(7.9603 -0.217289 0)
(8.14227 -0.220155 0)
(8.35632 -0.18133 0)
(8.58737 -0.139337 0)
(8.81608 -0.103846 0)
(9.02719 -0.0965526 0)
(9.2098 -0.0905561 0)
(9.36386 -0.10245 0)
(9.48732 -0.124374 0)
(9.58715 -0.141015 0)
(9.6797 -0.159375 0)
(9.78601 -0.188121 0)
(9.92677 -0.180506 0)
(10.0859 -0.124045 0)
(10.2392 -0.0547054 0)
(10.3825 -0.0133201 0)
(10.5051 0.0283288 0)
(10.6127 0.0613331 0)
(10.7071 0.0805882 0)
(10.7897 0.0476913 0)
(10.8547 0.0109599 0)
(10.8774 0.00843101 0)
(10.8503 0.0226034 0)
(10.7696 0.0584016 0)
(10.6401 0.0936621 0)
(10.4814 0.13993 0)
(10.3064 0.157793 0)
(10.1301 0.185017 0)
(9.94376 0.22064 0)
(9.72212 0.250026 0)
(9.45707 0.256053 0)
(9.16163 0.236929 0)
(8.85117 0.219687 0)
(8.53974 0.216482 0)
(8.23811 0.230878 0)
(7.94613 0.240922 0)
(7.65836 0.245687 0)
(7.36886 0.24284 0)
(7.07751 0.226044 0)
(6.79902 0.18368 0)
(6.5592 0.116921 0)
(6.38282 0.049168 0)
(6.2788 -0.00578213 0)
(6.27628 -0.101138 0)
(6.27566 -0.139307 0)
(6.26617 -0.082177 0)
(6.19454 0.0259101 0)
(6.04732 0.0684083 0)
(5.91742 0.10207 0)
(5.74034 0.182763 0)
(5.4351 0.227818 0)
(5.00147 0.189115 0)
(4.42807 0.234528 0)
(3.79637 0.269887 0)
(3.20789 0.336928 0)
(2.68963 0.394024 0)
(2.26472 0.39088 0)
(1.92247 0.357494 0)
(1.62895 0.330069 0)
(1.3641 0.307825 0)
(1.10435 0.336126 0)
(0.82191 0.403169 0)
(0.492711 0.425926 0)
(0.139818 0.427303 0)
(-0.227066 0.442325 0)
(-0.595772 0.447345 0)
(-0.939275 0.438855 0)
(-1.2433 0.419213 0)
(-1.50155 0.387377 0)
(-1.70472 0.331812 0)
(-1.86067 0.271153 0)
(-1.97151 0.203741 0)
(-2.02436 0.125828 0)
(-2.00371 0.0396398 0)
(-1.89471 -0.0574122 0)
(-1.69874 -0.169187 0)
(-1.40091 -0.26918 0)
(-1.00236 -0.343551 0)
(-0.506207 -0.406027 0)
(0.0966507 -0.456319 0)
(0.798584 -0.44491 0)
(1.5681 -0.403917 0)
(2.40136 -0.364842 0)
(3.28694 -0.316968 0)
(4.14749 -0.26835 0)
(4.86468 -0.276539 0)
(5.3825 -0.343708 0)
(5.75906 -0.370058 0)
(6.06776 -0.369558 0)
(6.34142 -0.359567 0)
(6.58892 -0.377136 0)
(6.84747 -0.382251 0)
(7.15977 -0.315276 0)
(7.46486 -0.178916 0)
(7.74585 -0.105803 0)
(7.98313 -0.0504669 0)
(8.18083 -0.0365894 0)
(8.32418 -0.0263121 0)
(8.40193 -0.0163603 0)
(8.42134 -0.00541191 0)
(8.4153 -0.00130981 0)
(8.40747 0.0364289 0)
(8.40144 0.0594895 0)
(8.40748 0.0536316 0)
(8.38574 0.0670821 0)
(8.32022 0.0518601 0)
(8.26923 0.00354354 0)
(8.23975 0.0614744 0)
(8.18053 0.121562 0)
(8.12256 0.111996 0)
(8.1053 0.119114 0)
(8.0444 0.167782 0)
(7.85852 0.156863 0)
(7.50059 0.0856863 0)
(7.0021 0.06077 0)
(6.5022 0.0518656 0)
(6.07764 0.0917195 0)
(5.7204 0.105254 0)
(5.43941 0.200294 0)
(5.16988 0.32514 0)
(4.84975 0.475772 0)
(4.4659 0.541372 0)
(4.0954 0.524946 0)
(3.7442 0.538422 0)
(3.38509 0.571632 0)
(3.01391 0.519159 0)
(2.63362 0.435584 0)
(2.20536 0.412346 0)
(1.74992 0.399991 0)
(1.33306 0.374896 0)
(0.977038 0.394956 0)
(0.666327 0.389133 0)
(0.400664 0.367777 0)
(0.165355 0.353169 0)
(-0.0291653 0.326114 0)
(-0.173858 0.296755 0)
(-0.272914 0.263439 0)
(-0.321677 0.20294 0)
(-0.367229 0.167594 0)
(-0.393329 0.139884 0)
(-0.369574 0.074646 0)
(-0.267164 0.00280314 0)
(-0.0950507 -0.0835815 0)
(0.138915 -0.156399 0)
(0.433221 -0.210438 0)
(0.785682 -0.247082 0)
(1.19247 -0.267147 0)
(1.64985 -0.271784 0)
(2.15709 -0.263828 0)
(2.71245 -0.237471 0)
(3.31068 -0.192202 0)
(3.93982 -0.135916 0)
(4.574 -0.0873492 0)
(5.16361 -0.0657853 0)
(5.5936 -0.116283 0)
(5.83551 -0.152147 0)
(5.98867 -0.16992 0)
(6.14552 -0.20065 0)
(6.33474 -0.254898 0)
(6.56391 -0.333056 0)
(6.81535 -0.406549 0)
(7.09001 -0.44809 0)
(7.38892 -0.31821 0)
(7.67357 -0.146271 0)
(7.92539 -0.0518445 0)
(8.1493 -0.0164835 0)
(8.37382 0.0130318 0)
(8.63375 0.0374392 0)
(8.93688 0.0693947 0)
(9.24742 0.0914157 0)
(9.51094 0.0560582 0)
(9.63957 -0.032267 0)
(9.67101 -0.0214173 0)
(9.65796 0.00139139 0)
(9.63023 0.00408413 0)
(9.5975 -0.00409712 0)
(9.55969 -0.015697 0)
(9.53419 -0.0335122 0)
(9.54072 -0.0484501 0)
(9.58428 -0.0150176 0)
(9.65723 0.0147425 0)
(9.71973 0.0299494 0)
(9.75434 0.0414115 0)
(9.76665 0.0512833 0)
(9.76664 0.0585804 0)
(9.75988 0.0593581 0)
(9.74631 0.0500393 0)
(9.71083 0.0340149 0)
(9.65933 0.0128807 0)
(9.60592 0.0205516 0)
(9.5546 0.0300238 0)
(9.51045 0.0546216 0)
(9.46933 0.0528065 0)
(9.4365 0.0455724 0)
(9.40184 0.0457995 0)
(9.37398 0.0455992 0)
(9.35254 0.0487669 0)
(9.31238 0.0496003 0)
(9.24235 0.0355903 0)
(9.17827 -0.000796444 0)
(9.12072 0.0227477 0)
(9.09197 0.0859472 0)
(9.06748 0.0988261 0)
(9.08292 0.0874571 0)
(9.09303 0.139857 0)
(9.00863 0.112379 0)
(8.77293 0.0229853 0)
(8.44649 -0.00427423 0)
(8.13843 0.00314168 0)
(7.87735 0.0133914 0)
(7.67502 0.0245737 0)
(7.52646 0.0723862 0)
(7.40606 0.114801 0)
(7.30555 0.11889 0)
(7.20296 0.138956 0)
(7.10235 0.170649 0)
(7.02833 0.141852 0)
(6.95934 0.134429 0)
(6.86913 0.154775 0)
(6.75328 0.148616 0)
(6.6435 0.124687 0)
(6.56689 0.0855069 0)
(6.53488 0.0605373 0)
(6.54979 0.0406394 0)
(6.63896 0.000952883 0)
(6.80188 -0.0154973 0)
(7.01118 -0.0346602 0)
(7.24837 -0.0140613 0)
(7.49281 0.0165476 0)
(7.74319 0.0413319 0)
(8.00543 0.0528017 0)
(8.27483 0.0188356 0)
(8.55436 -0.0101191 0)
(8.83612 -0.0599503 0)
(9.10991 -0.106194 0)
(9.36932 -0.167108 0)
(9.62498 -0.226613 0)
(9.88565 -0.279709 0)
(10.1518 -0.319384 0)
(10.4164 -0.340545 0)
(10.6673 -0.343534 0)
(10.8937 -0.337025 0)
(11.1044 -0.344446 0)
(11.3298 -0.316851 0)
(11.5719 -0.261684 0)
(11.8089 -0.195418 0)
(12.0358 -0.132624 0)
(12.2536 -0.0675967 0)
(12.4739 -0.0218941 0)
(12.6885 0.0386289 0)
(12.8896 0.0908372 0)
(13.0636 0.101642 0)
(13.1844 0.0501518 0)
(13.2313 0.00338954 0)
(13.2229 0.00619893 0)
(13.1857 0.0175305 0)
(13.1466 0.0280636 0)
(13.1151 0.0400429 0)
(13.1011 0.0636148 0)
(13.0999 0.075434 0)
(13.1034 0.0631227 0)
(13.0848 0.0468635 0)
(13.0259 0.0326667 0)
(12.932 0.038948 0)
(12.8219 0.0570289 0)
(12.7105 0.073817 0)
(12.6049 0.0835515 0)
(12.5124 0.0839728 0)
(12.4395 0.0558447 0)
(12.3581 0.0348126 0)
(12.2631 0.0296618 0)
(12.167 0.0857988 0)
(12.05 0.166468 0)
(11.9651 0.215203 0)
(11.9466 0.181319 0)
(11.9545 0.187656 0)
(11.87 0.080121 0)
(11.5689 -0.106369 0)
(11.1761 -0.28665 0)
(10.7987 -0.330154 0)
(10.5628 0.0727319 0)
(10.353 0.414071 0)
(10.0911 0.492996 0)
(9.80601 0.527461 0)
(9.48058 0.560512 0)
(9.1782 0.492491 0)
(9.04845 0.305834 0)
(9.02352 0.218096 0)
(9.04543 0.216061 0)
(9.04181 0.151993 0)
(8.92373 0.111739 0)
(8.74655 0.0684152 0)
(8.5516 0.0756436 0)
(8.35257 0.0613498 0)
(8.18291 0.0439501 0)
(8.0623 0.0538002 0)
(7.97628 0.0613027 0)
(7.91729 0.0517974 0)
(7.89296 0.0205673 0)
(7.90938 -0.00601771 0)
(7.96748 -0.0365212 0)
(8.0582 -0.0687917 0)
(8.15696 -0.100465 0)
(8.24896 -0.122558 0)
(8.32956 -0.132334 0)
(8.39879 -0.138396 0)
(8.45385 -0.150405 0)
(8.5004 -0.170541 0)
(8.56 -0.197697 0)
(8.64688 -0.257134 0)
(8.7881 -0.28274 0)
(8.97682 -0.246951 0)
(9.17928 -0.189045 0)
(9.38109 -0.134524 0)
(9.58754 -0.0974829 0)
(9.79752 -0.0545844 0)
(10.0186 -0.0123739 0)
(10.2546 0.0235429 0)
(10.5018 0.0503367 0)
(10.7484 0.0564907 0)
(10.9724 0.0259207 0)
(11.1427 -0.0261906 0)
(11.2471 -0.0562028 0)
(11.2974 -0.0721178 0)
(11.32 -0.0810691 0)
(11.3209 -0.0954827 0)
(11.3272 -0.114966 0)
(11.2936 -0.150145 0)
(11.3779 -0.245753 0)
(0.0108055 0.0159878 0)
(-0.0014905 0.035979 0)
(-0.0172807 0.0651739 0)
(-0.0509344 0.0930165 0)
(-0.0950298 0.0937449 0)
(-0.13712 0.103479 0)
(-0.182788 0.109846 0)
(-0.229379 0.116968 0)
(-0.276753 0.118637 0)
(-0.321959 0.113829 0)
(-0.365861 0.111253 0)
(-0.40812 0.104966 0)
(-0.44864 0.101401 0)
(-0.487989 0.0985073 0)
(-0.517006 0.0780235 0)
(-0.530358 0.0549087 0)
(-0.525683 0.0374019 0)
(-0.512208 0.0257292 0)
(-0.498949 0.0150408 0)
(-0.484535 0.00318044 0)
(-0.466648 -0.006568 0)
(-0.445957 -0.0194694 0)
(-0.424814 -0.0388366 0)
(-0.398518 -0.0513779 0)
(-0.370391 -0.0618199 0)
(-0.340176 -0.0658632 0)
(-0.309883 -0.068221 0)
(-0.274984 -0.0647272 0)
(-0.234709 -0.0592449 0)
(-0.196649 -0.0466229 0)
(-0.167354 -0.0270787 0)
(-0.148134 -0.000859845 0)
(-0.132686 0.020886 0)
(-0.131672 0.0352649 0)
(-0.14744 0.0542485 0)
(-0.157639 0.0873127 0)
(-0.188018 0.127944 0)
(-0.235807 0.158298 0)
(-0.294796 0.199363 0)
(-0.38514 0.256531 0)
(-0.510781 0.292265 0)
(-0.645805 0.314057 0)
(-0.769298 0.328738 0)
(-0.839103 0.326861 0)
(-0.879879 0.333815 0)
(-0.935077 0.331993 0)
(-0.982745 0.298786 0)
(-1.04014 0.274173 0)
(-1.08641 0.23064 0)
(-1.1306 0.190015 0)
(-1.16054 0.128615 0)
(-1.15899 0.0506324 0)
(-1.14235 -0.0693795 0)
(-1.1027 -0.210246 0)
(-0.999323 -0.28254 0)
(-0.907337 -0.429843 0)
(-0.681112 -0.582766 0)
(-0.365843 -0.654555 0)
(-0.0200512 -0.710074 0)
(0.355324 -0.776611 0)
(0.763408 -0.846603 0)
(1.19841 -0.901908 0)
(1.64123 -0.922673 0)
(2.07276 -0.914793 0)
(2.48749 -0.886251 0)
(2.86131 -0.796573 0)
(3.16714 -0.669825 0)
(3.41419 -0.539921 0)
(3.56162 -0.350546 0)
(3.62125 -0.142442 0)
(3.66518 0.0430816 0)
(3.6285 0.341832 0)
(3.33652 0.633608 0)
(2.82002 0.883934 0)
(2.17969 0.987365 0)
(1.42511 0.977825 0)
(0.483557 1.0353 0)
(-0.645806 1.11886 0)
(-1.92255 1.2544 0)
(-3.30756 1.49122 0)
(-4.76736 1.78953 0)
(-6.25469 2.01718 0)
(-7.72063 2.19171 0)
(-9.14655 2.36567 0)
(-10.4379 2.5243 0)
(-11.5115 2.60943 0)
(-12.3412 2.62214 0)
(-12.9409 2.45867 0)
(-13.4316 2.23974 0)
(-13.8702 2.01147 0)
(-14.1413 1.62549 0)
(-14.4411 1.33917 0)
(-14.6509 1.15027 0)
(-14.7784 0.955652 0)
(-14.8619 0.64231 0)
(-14.8686 0.356128 0)
(-14.7962 0.00306895 0)
(-14.5593 -0.25608 0)
(-14.2844 -0.51866 0)
(-13.8768 -0.649305 0)
(-13.4105 -0.927016 0)
(-12.8078 -1.26683 0)
(-12.0401 -1.60322 0)
(-11.1186 -1.91572 0)
(-10.0821 -2.16315 0)
(-8.9774 -2.38024 0)
(-7.80561 -2.51424 0)
(-6.5965 -2.52418 0)
(-5.37351 -2.50027 0)
(-4.12695 -2.42828 0)
(-2.84861 -2.31138 0)
(-1.5417 -2.19173 0)
(-0.215033 -2.09736 0)
(1.12402 -2.03657 0)
(2.47182 -2.01645 0)
(3.81749 -2.05254 0)
(5.14225 -2.11859 0)
(6.4531 -2.02879 0)
(7.65416 -1.65402 0)
(8.81376 -1.63348 0)
(9.66885 -1.17828 0)
(10.3679 -0.954521 0)
(10.9183 -0.8933 0)
(11.2919 -1.08866 0)
(11.6104 -1.06743 0)
(11.8479 -0.814444 0)
(12.0141 -0.403185 0)
(12.0895 -0.0819219 0)
(12.1245 -0.17482 0)
(12.2326 -0.15914 0)
(12.2788 0.102741 0)
(12.1241 0.365765 0)
(11.8576 0.623487 0)
(11.5818 0.776665 0)
(11.3789 0.812326 0)
(11.223 0.834409 0)
(10.9849 0.808265 0)
(10.6159 0.770822 0)
(10.1531 0.732949 0)
(9.66018 0.680306 0)
(9.18258 0.60449 0)
(8.73987 0.550266 0)
(8.34443 0.596363 0)
(8.01992 0.663359 0)
(7.76447 0.637971 0)
(7.57461 0.558524 0)
(7.43553 0.448416 0)
(7.34736 0.321254 0)
(7.28268 0.18408 0)
(7.29316 0.0400601 0)
(7.35197 -0.168378 0)
(7.50265 -0.368974 0)
(7.72331 -0.496674 0)
(7.99284 -0.498944 0)
(8.28755 -0.396245 0)
(8.63541 -0.26713 0)
(9.05408 -0.179177 0)
(9.51972 -0.135345 0)
(9.9736 -0.154809 0)
(10.2931 -0.281954 0)
(10.4896 -0.320642 0)
(10.6239 -0.339758 0)
(10.751 -0.371754 0)
(10.899 -0.413104 0)
(11.073 -0.466228 0)
(11.2851 -0.483572 0)
(11.531 -0.457924 0)
(11.8078 -0.40639 0)
(12.1183 -0.333781 0)
(12.4774 -0.255004 0)
(12.8835 -0.220238 0)
(13.2777 -0.234649 0)
(13.5752 -0.307609 0)
(13.7482 -0.384978 0)
(13.8629 -0.395975 0)
(13.9618 -0.382965 0)
(14.0828 -0.320457 0)
(14.2602 -0.255603 0)
(14.4946 -0.180917 0)
(14.8019 -0.0923912 0)
(15.1956 -0.0320176 0)
(15.6287 -0.0314039 0)
(16.0192 -0.086678 0)
(16.2898 -0.193437 0)
(16.4414 -0.249998 0)
(16.5235 -0.250486 0)
(16.5836 -0.234877 0)
(16.6468 -0.221892 0)
(16.7239 -0.219995 0)
(16.8102 -0.223178 0)
(16.9041 -0.237778 0)
(17.0285 -0.163863 0)
(17.1474 -0.0102487 0)
(17.2688 0.0898802 0)
(17.3243 0.205123 0)
(17.3429 0.301084 0)
(17.3184 0.336763 0)
(17.2698 0.328465 0)
(17.1705 0.313635 0)
(16.974 0.345606 0)
(16.6737 0.446784 0)
(16.2973 0.540198 0)
(15.896 0.60033 0)
(15.5007 0.629918 0)
(15.1161 0.615908 0)
(14.7258 0.588741 0)
(14.3121 0.576284 0)
(13.8661 0.595019 0)
(13.3879 0.61857 0)
(12.8876 0.621541 0)
(12.3864 0.557112 0)
(11.9374 0.413574 0)
(11.5974 0.218906 0)
(11.4203 0.00287011 0)
(11.3799 -0.111352 0)
(11.3988 -0.061943 0)
(11.4734 0.0462814 0)
(11.47 0.142389 0)
(11.2564 0.0687403 0)
(10.6577 0.0253606 0)
(9.80828 0.268019 0)
(8.85195 0.595292 0)
(7.89219 0.927229 0)
(7.11722 1.26166 0)
(6.47765 1.29751 0)
(5.95316 1.15273 0)
(5.54602 0.937826 0)
(5.30897 0.699875 0)
(5.06845 0.631571 0)
(4.80091 0.604791 0)
(4.44561 0.572131 0)
(3.97397 0.577212 0)
(3.39033 0.674817 0)
(2.76325 0.783324 0)
(2.19616 0.840372 0)
(1.73684 0.912341 0)
(1.35827 0.906363 0)
(1.05341 0.839168 0)
(0.803221 0.74515 0)
(0.600036 0.623029 0)
(0.464226 0.50276 0)
(0.385666 0.410306 0)
(0.419149 0.285831 0)
(0.53823 0.128189 0)
(0.698103 -0.0599755 0)
(0.923795 -0.249544 0)
(1.20083 -0.503533 0)
(1.56126 -0.770173 0)
(2.01259 -1.02143 0)
(2.53988 -1.26822 0)
(3.14402 -1.52469 0)
(3.85373 -1.67374 0)
(4.6023 -1.75386 0)
(5.36367 -1.85086 0)
(6.19312 -1.84916 0)
(7.09848 -1.61319 0)
(8.01508 -1.20832 0)
(8.9223 -0.850844 0)
(9.83267 -0.646824 0)
(10.7629 -0.524849 0)
(11.705 -0.420677 0)
(12.5914 -0.345595 0)
(13.1919 -0.424317 0)
(13.4128 -0.531004 0)
(13.4317 -0.479126 0)
(13.437 -0.408472 0)
(13.5113 -0.34609 0)
(13.6166 -0.280412 0)
(13.7168 -0.167864 0)
(13.8005 -0.0261357 0)
(13.8911 0.0742278 0)
(13.9684 0.105089 0)
(13.9874 0.116376 0)
(13.9622 0.0781858 0)
(13.8876 0.089803 0)
(13.8509 0.204824 0)
(13.7934 0.25969 0)
(13.7862 0.194282 0)
(13.7934 0.202512 0)
(13.699 0.224302 0)
(13.3589 0.107412 0)
(12.7444 0.108037 0)
(12.0149 0.28137 0)
(11.2696 0.560715 0)
(10.6547 0.927182 0)
(10.1718 1.11232 0)
(9.79422 1.03837 0)
(9.44428 0.975985 0)
(9.14673 0.842613 0)
(8.94762 0.718328 0)
(8.77669 0.762262 0)
(8.55925 0.839297 0)
(8.2424 0.775037 0)
(7.77693 0.680251 0)
(7.15406 0.69706 0)
(6.43618 0.811317 0)
(5.66618 0.896556 0)
(4.89636 0.990711 0)
(4.20615 1.15877 0)
(3.65911 1.21573 0)
(3.30052 1.06352 0)
(2.98941 0.994336 0)
(2.73105 0.880152 0)
(2.49971 0.81577 0)
(2.30153 0.734648 0)
(2.12793 0.612666 0)
(1.96125 0.484564 0)
(1.83154 0.364565 0)
(1.7715 0.311754 0)
(1.84369 0.308578 0)
(2.04715 0.227034 0)
(2.33088 0.0858601 0)
(2.5772 -0.14722 0)
(2.84462 -0.325439 0)
(3.14187 -0.482222 0)