/*--------------------------------*- C++ -*----------------------------------*\
| =========                 |                                                 |
| \\      /  F ield         | OpenFOAM: The Open Source CFD Toolbox           |
|  \\    /   O peration     | Version:  v1812                                 |
|   \\  /    A nd           | Web:      www.OpenFOAM.com                      |
|    \\/     M anipulation  |                                                 |
\*---------------------------------------------------------------------------*/
FoamFile
{
    version     2.0;
    format      ascii;
    class       volScalarField;
    location    "0.012";
    object      p;
}
// * * * * * * * * * * * * * * * * * * * * * * * * * * * * * * * * * * * * * //

dimensions      [1 -1 -2 0 0 0 0];


internalField   nonuniform List<scalar> 
800
(
0.01
0.01
0.01
0.01
0.01
0.01
0.01
0.01
0.01
0.01
0.01
0.01
0.01
0.01
0.01
0.01
0.01
0.01
0.01
0.01
0.01
0.01
0.01
0.01
0.01
0.01
0.01
0.01
0.01
0.01
0.01
0.01
0.01
0.01
0.01
0.01
0.01
0.01
0.01
0.01
0.01
0.01
0.01
0.01
0.01
0.01
0.01
0.01
0.01
0.01
0.01
0.01
0.01
0.01
0.01
0.01
0.01
0.01
0.01
0.01
0.01
0.01
0.01
0.01
0.01
0.01
0.01
0.01
0.01
0.01
0.01
0.01
0.01
0.01
0.01
0.01
0.01
0.01
0.01
0.01
0.01
0.01
0.01
0.01
0.01
0.01
0.01
0.01
0.01
0.01
0.01
0.01
0.01
0.01
0.01
0.01
0.01
0.01
0.01
0.01
0.01
0.01
0.01
0.01
0.01
0.01
0.01
0.01
0.01
0.01
0.01
0.01
0.01
0.01
0.01
0.01
0.01
0.01
0.01
0.01
0.01
0.01
0.01
0.01
0.01
0.01
0.01
0.01
0.01
0.01
0.01
0.01
0.01
0.01
0.01
0.01
0.01
0.01
0.01
0.01
0.01
0.01
0.01
0.01
0.01
0.01
0.01
0.01
0.01
0.01
0.01
0.01
0.01
0.01
0.01
0.01
0.01
0.01
0.01
0.01
0.01
0.01
0.01
0.01
0.01
0.01
0.01
0.01
0.01
0.01
0.01
0.01
0.01
0.01
0.01
0.01
0.01
0.01
0.01
0.01
0.01
0.01
0.01
0.01
0.01
0.01
0.01
0.01
0.01
0.01
0.01
0.01
0.01
0.01
0.01
0.01
0.01
0.01
0.01
0.01
0.01
0.01
0.01
0.01
0.01
0.01
0.01
0.01
0.01
0.01
0.01
0.01
0.01
0.01
0.01
0.01
0.01
0.01
0.01
0.01
0.01
0.01
0.01
0.01
0.01
0.01
0.01
0.01
0.01
0.01
0.01
0.01
0.01
0.01
0.01
0.01
0.01
0.01
0.01
0.01
0.01
0.01
0.01
0.01
0.01
0.01
0.01
0.01
0.01
0.01
0.01
0.01
0.01
0.01
0.01
0.01
0.01
0.01
0.01
0.01
0.01
0.01
0.01
0.01
0.01
0.01
0.01
0.01
0.01
0.01
0.01
0.01
0.01
0.01
0.01
0.01
0.01
0.01
0.01
0.01
0.01
0.01
0.01
0.01
0.01
0.01
0.01
0.01
0.01
0.01
0.01
0.01
0.01
0.01
0.01
0.01
0.01
0.01
0.01
0.01
0.01
0.01
0.01
0.01
0.01
0.01
0.01
0.01
0.01
0.01
0.01
0.01
0.01
0.01
0.01
0.01
0.01
0.01
0.01
0.01
0.01
0.01
0.01
0.00999998
0.00999129
0.0283139
3.80901
20.2316
35.6023
42.6482
45.1704
46.0419
46.3395
46.4133
46.4361
46.4023
46.3204
46.2121
46.1196
46.1659
46.2963
46.3013
46.2688
46.2429
46.2306
46.2171
46.2141
46.2117
46.2122
46.2126
46.2117
46.2105
46.2094
46.2086
46.2081
46.2079
46.2079
46.2079
46.2079
46.2086
46.2099
46.2104
46.2107
46.2104
46.2097
46.2089
46.2084
46.208
46.2078
46.2087
46.2106
46.2132
46.2154
46.2166
46.2174
46.218
46.2185
46.2188
46.219
46.219
46.2188
46.218
46.2163
46.2131
46.208
46.2007
46.1908
46.1781
46.1622
46.1431
46.1209
46.0961
46.0698
46.0443
46.0217
46.0034
45.9892
45.9777
45.9675
45.9577
45.9493
45.944
45.942
45.9417
45.9422
45.9438
45.9476
45.9544
45.9644
45.9777
45.9942
46.014
46.037
46.0633
46.0924
46.1238
46.1566
46.1904
46.2248
46.2601
46.2964
46.3331
46.3683
46.3993
46.424
46.4422
46.4554
46.4658
46.4756
46.4871
46.5026
46.5253
46.5588
46.6067
46.6726
46.7593
46.8694
47.0051
47.1692
47.3644
47.5936
47.8591
48.1621
48.5025
48.8787
49.2883
49.728
50.1941
50.6833
51.1925
51.7189
52.2603
52.8149
53.381
53.9576
54.5438
55.1387
55.7417
56.3526
56.9708
57.596
58.2282
58.867
59.5123
60.164
60.8219
61.4861
62.1564
62.8327
63.5149
64.2031
64.8972
65.597
66.3025
67.0137
67.7305
68.4527
69.1804
69.9134
70.6516
71.3948
72.143
72.896
73.6537
74.4157
75.182
75.9523
76.7264
77.5039
78.2845
79.0679
79.8536
80.6412
81.4302
82.22
83.0101
83.7996
84.5878
85.3738
86.1566
86.9352
87.7083
88.4746
89.2326
89.9807
90.717
91.4397
92.1465
92.8353
93.5036
94.1488
94.7683
95.3594
95.9194
96.4458
96.9362
97.3884
97.8009
98.1725
98.5026
98.7917
99.0407
99.2513
99.4263
99.5687
99.6821
99.7705
99.8378
99.8878
99.9241
99.9498
99.9675
99.9795
99.9873
99.9923
99.9954
99.9974
99.9985
99.9992
99.9995
99.9998
99.9999
99.9999
100
100
100
100
100
100
100
100
100
100
100
100
100
100
100
100
100
100
100
100
100
100
100
100
100
100
100
100
100
100
100
100
100
100
100
100
100
100
100
100
100
100
100
100
100
100
100
100
100
100
100
100
100
100
100
100
100
100
100
100
100
100
100
100
100
100
100
100
100
100
100
100
100
100
100
100
100
100
100
100
100
100
100
100
100
100
100
100
100
100
100
100
100
100
100
100
100
100
100
100
100
100
100
100
100
100
100
100
100
100
100
100
100
100
100
100
100
100
100
100
100
100
100
100
100
100
100
100
100
100
100
100
100
100
100
100
100
100
100
100
100
100
100
100
100
100
100
100
100
100
100
100
100
100
100
100
100
100
100
100
100
100
100
100
100
100
100
100
100
100
100
100
100
100
100
100
100
100
100
100
100
100
100
100
100
100
100
100
100
100
100
100
100
100
100
100
100
100
100
100
100
100
100
100
100
100
100
100
100
100
100
100
100
100
100
100
100
100
100
100
100
100
100
100
100
100
100
100
100
100
100
100
100
100
100
100
100
100
100
100
100
100
100
100
100
100
100
100
100
100
100
100
100
100
100
100
100
)
;

boundaryField
{
    sides
    {
        type            zeroGradient;
    }
    empty1
    {
        type            empty;
    }
    empty2
    {
        type            empty;
    }
}


// ************************************************************************* //
