/*--------------------------------*- C++ -*----------------------------------*\
| =========                 |                                                 |
| \\      /  F ield         | OpenFOAM: The Open Source CFD Toolbox           |
|  \\    /   O peration     | Version:  v1812                                 |
|   \\  /    A nd           | Web:      www.OpenFOAM.com                      |
|    \\/     M anipulation  |                                                 |
\*---------------------------------------------------------------------------*/
FoamFile
{
    version     2.0;
    format      ascii;
    class       surfaceScalarField;
    location    "0.012";
    object      phi;
}
// * * * * * * * * * * * * * * * * * * * * * * * * * * * * * * * * * * * * * //

dimensions      [1 0 -1 0 0 0 0];
oriented        oriented;


internalField   nonuniform List<scalar> 
799
(
4.40457e-20
-1.6263e-19
-1.01644e-19
-7.45389e-20
-2.03288e-20
8.47033e-20
1.15196e-19
7.7927e-20
1.18585e-19
2.71051e-20
-3.38813e-21
-8.47033e-20
1.4569e-19
-3.72694e-20
1.69407e-20
3.04932e-20
6.77626e-21
4.06576e-20
-7.11508e-20
-1.69407e-20
-6.43745e-20
2.37169e-20
5.42101e-20
2.03288e-20
-1.999e-19
-1.05032e-19
3.38813e-20
1.38913e-19
-2.71051e-20
1.38913e-19
0
3.38813e-21
-4.74338e-20
1.01644e-19
-3.38813e-21
6.77626e-21
-3.38813e-20
8.80914e-20
0
-6.77626e-20
-1.72795e-19
-1.25361e-19
1.35525e-20
2.03288e-19
1.999e-19
2.60886e-19
-2.37169e-20
-6.43745e-20
-5.42101e-20
1.35525e-20
-1.01644e-19
8.47033e-20
1.69407e-20
3.72694e-20
0
1.01644e-20
1.18585e-19
-1.35525e-20
-3.04932e-20
-4.06576e-20
-1.69407e-20
-2.71051e-20
2.03288e-20
-4.06576e-20
-7.45389e-20
2.71051e-20
-7.7927e-20
1.69407e-20
-3.72694e-20
5.42101e-20
1.01644e-19
-1.69407e-20
-2.71051e-20
9.14796e-20
-1.35525e-20
-1.21973e-19
1.59242e-19
4.74338e-20
-6.43745e-20
0
6.77626e-21
-1.01644e-20
-9.82558e-20
-1.76183e-19
-3.72694e-20
1.52466e-19
6.77626e-20
6.09864e-20
1.69407e-20
3.38813e-20
6.43745e-20
1.35525e-20
-8.80914e-20
-8.80914e-20
-1.69407e-20
1.18585e-19
8.13152e-20
6.77626e-21
-2.03288e-20
-5.42101e-20
4.06576e-20
4.74338e-20
-1.15196e-19
3.38813e-21
-6.09864e-20
-2.37169e-20
-8.47033e-20
6.77626e-20
-6.77626e-21
-4.06576e-20
9.82558e-20
5.0822e-20
1.69407e-20
3.38813e-20
1.15196e-19
-6.77626e-21
2.71051e-20
6.09864e-20
3.38813e-21
3.72694e-20
-6.43745e-20
-5.75982e-20
-1.18585e-19
-8.80914e-20
-1.35525e-20
3.38813e-21
6.43745e-20
-9.48677e-20
-9.48677e-20
2.37169e-20
3.72694e-20
1.21973e-19
1.6263e-19
2.37169e-20
-3.38813e-21
7.11508e-20
-1.35525e-20
5.0822e-20
-6.43745e-20
-2.20229e-19
-1.82959e-19
-2.03288e-20
2.03288e-19
6.09864e-20
6.43745e-20
6.77626e-21
1.69407e-20
-1.25361e-19
6.77626e-20
1.01644e-19
4.06576e-20
-9.14796e-20
4.06576e-20
9.82558e-20
-3.38813e-20
6.77626e-20
9.48677e-20
-4.74338e-20
2.03288e-20
-3.38813e-21
-1.59242e-19
-9.14796e-20
-1.15196e-19
-1.89735e-19
1.69407e-20
2.71051e-20
8.47033e-20
-3.38813e-21
0
6.43745e-20
2.57498e-19
6.43745e-20
-7.7927e-20
-3.38813e-21
-2.03288e-20
5.75982e-20
-1.01644e-20
1.35525e-19
9.48677e-20
-6.43745e-20
4.06576e-20
-6.77626e-20
7.11508e-20
3.38813e-20
1.35525e-20
0
3.38813e-21
-7.7927e-20
1.01644e-20
-1.01644e-20
-4.40457e-20
-9.48677e-20
-2.57498e-19
-6.77626e-21
-9.82558e-20
2.98156e-19
1.76183e-19
1.01644e-19
2.71051e-20
-6.77626e-21
3.38813e-21
6.09864e-20
3.38813e-21
2.23617e-19
-2.03288e-20
-5.0822e-20
-1.15196e-19
-9.14796e-20
-6.43745e-20
3.38813e-20
3.04932e-20
-1.05032e-19
-6.43745e-20
0
-3.72694e-20
-4.06576e-20
3.72694e-20
-5.42101e-20
1.21973e-19
1.35525e-19
1.69407e-20
3.72694e-20
-2.37169e-20
-7.7927e-20
-6.77626e-21
-1.05032e-19
-1.15196e-19
-8.80914e-20
-1.21973e-19
8.80914e-20
6.09864e-20
1.59242e-19
4.74338e-20
3.04932e-20
-3.38813e-21
3.72694e-20
8.80914e-20
6.09864e-20
-1.89735e-19
3.04932e-20
3.38813e-21
1.49078e-19
1.21973e-19
1.49078e-19
-1.42302e-19
-3.72694e-20
-1.52466e-19
-6.09864e-20
-6.09864e-20
-5.42101e-20
-2.71051e-20
7.45389e-20
-7.7927e-20
-2.03288e-20
1.49078e-19
4.06576e-20
4.40457e-20
2.37169e-20
-1.35525e-20
-4.06576e-20
-4.74338e-20
-3.38813e-21
1.69407e-20
1.01644e-20
-1.35525e-20
-5.0822e-20
-7.11508e-20
-8.47033e-20
-3.04932e-20
1.38913e-19
6.43745e-20
6.77626e-20
-7.11508e-20
-2.71051e-20
-7.11508e-20
-6.77626e-20
-1.32137e-19
-1.01644e-20
1.35525e-20
2.71051e-20
8.47033e-20
4.74338e-20
-1.01644e-20
-1.69407e-20
-8.80914e-20
7.11508e-20
1.89735e-19
-3.72694e-20
1.01644e-20
-8.80914e-20
-1.6263e-19
-2.37169e-20
1.72795e-19
4.74338e-20
2.03288e-19
3.38813e-20
5.0822e-20
-2.71051e-20
-3.38813e-20
-1.21973e-19
1.01644e-19
-4.74338e-20
-1.35525e-19
-1.69407e-20
3.38813e-21
1.4569e-19
-5.0822e-20
-6.09864e-20
1.35525e-20
-3.38813e-21
-2.37169e-20
1.6263e-19
-2.67662e-19
-6.77626e-21
3.38813e-20
7.7927e-20
-1.01644e-20
3.38813e-21
0
1.35525e-20
5.0822e-20
5.3214e-17
4.27807e-13
1.78655e-08
9.0627e-06
-0.000152469
-0.00351727
-0.00921774
-0.0126211
-0.0140104
-0.0145387
-0.014736
-0.014798
-0.0148043
-0.0146744
-0.0141576
-0.0130701
-0.0113425
-0.00915699
-0.00696335
-0.00514082
-0.0038294
-0.0029565
-0.00239228
-0.0020295
-0.00179684
-0.0016486
-0.00155547
-0.00149817
-0.00146391
-0.0014441
-0.00143307
-0.00142717
-0.00142416
-0.00142269
-0.00142203
-0.00142176
-0.00142166
-0.00142165
-0.00142165
-0.00142167
-0.00142174
-0.0014218
-0.00142187
-0.00142194
-0.001422
-0.00142205
-0.0014221
-0.00142213
-0.00142215
-0.00142214
-0.00142214
-0.00142214
-0.00142216
-0.00142218
-0.00142219
-0.00142221
-0.00142223
-0.00142226
-0.00142228
-0.0014223
-0.00142234
-0.0014224
-0.00142248
-0.0014226
-0.00142275
-0.00142294
-0.00142318
-0.00142347
-0.00142381
-0.0014242
-0.00142462
-0.00142505
-0.00142544
-0.00142578
-0.00142604
-0.00142625
-0.00142643
-0.0014266
-0.00142675
-0.00142687
-0.00142693
-0.00142696
-0.00142697
-0.00142697
-0.00142694
-0.00142687
-0.00142675
-0.00142657
-0.00142635
-0.00142607
-0.00142575
-0.00142537
-0.00142494
-0.00142447
-0.00142397
-0.00142345
-0.00142292
-0.00142238
-0.00142182
-0.00142125
-0.00142068
-0.00142015
-0.00141971
-0.00141938
-0.00141914
-0.00141897
-0.00141882
-0.00141867
-0.00141847
-0.00141819
-0.00141776
-0.00141714
-0.00141624
-0.00141504
-0.00141347
-0.0014115
-0.00140909
-0.00140617
-0.0014027
-0.00139862
-0.00139387
-0.00138844
-0.00138232
-0.00137551
-0.00136807
-0.00136001
-0.0013514
-0.00134228
-0.00133268
-0.00132264
-0.00131218
-0.00130134
-0.00129012
-0.00127855
-0.00126663
-0.00125437
-0.00124179
-0.00122887
-0.00121563
-0.00120207
-0.00118819
-0.001174
-0.00115948
-0.00114464
-0.00112949
-0.00111402
-0.00109823
-0.00108212
-0.0010657
-0.00104895
-0.00103188
-0.0010145
-0.000996789
-0.000978762
-0.000960417
-0.000941754
-0.000922774
-0.000903478
-0.000883869
-0.000863949
-0.000843722
-0.000823189
-0.000802357
-0.00078123
-0.000759813
-0.000738114
-0.00071614
-0.0006939
-0.000671405
-0.000648666
-0.000625697
-0.000602513
-0.000579131
-0.000555571
-0.000531855
-0.000508008
-0.000484057
-0.000460035
-0.000435978
-0.000411923
-0.000387918
-0.000364009
-0.000340254
-0.000316711
-0.000293449
-0.00027054
-0.000248064
-0.000226105
-0.000204755
-0.000184109
-0.000164265
-0.000145324
-0.000127384
-0.00011054
-9.48772e-05
-8.04715e-05
-6.73803e-05
-5.56411e-05
-4.52671e-05
-3.62449e-05
-2.85328e-05
-2.20622e-05
-1.674e-05
-1.24538e-05
-9.07717e-06
-6.47777e-06
-4.52373e-06
-3.0902e-06
-2.06432e-06
-1.34833e-06
-8.61046e-07
-5.37643e-07
-3.28294e-07
-1.96081e-07
-1.14588e-07
-6.55428e-08
-3.67087e-08
-2.01398e-08
-1.08289e-08
-5.70905e-09
-2.95261e-09
-1.49875e-09
-7.47046e-10
-3.65832e-10
-1.76095e-10
-8.33598e-11
-3.88258e-11
-1.78009e-11
-8.03747e-12
-3.57559e-12
-1.56789e-12
-6.77948e-13
-2.89184e-13
-1.21732e-13
-5.05902e-14
-2.07659e-14
-8.41905e-15
-3.3749e-15
-1.33704e-15
-5.23019e-16
-2.03396e-16
-7.71952e-17
-2.90566e-17
-1.21431e-17
-8.23994e-18
-5.20417e-18
-5.20417e-18
0
-8.67362e-19
-3.03577e-18
-1.30104e-18
-1.30104e-18
-4.33681e-19
-4.33681e-19
0
-1.73472e-18
-8.67362e-19
-1.73472e-18
-1.73472e-18
-2.1684e-18
-2.1684e-18
-4.33681e-18
-4.33681e-19
1.73472e-18
3.03577e-18
2.1684e-18
8.67362e-19
0
-8.67362e-19
-1.30104e-18
0
0
-4.33681e-19
-8.67362e-19
-1.73472e-18
-8.67362e-19
-3.03577e-18
-3.03577e-18
-3.03577e-18
-5.63785e-18
-5.63785e-18
-6.07153e-18
-2.60209e-18
-5.20417e-18
-3.90313e-18
-3.90313e-18
-3.90313e-18
-5.20417e-18
-4.77049e-18
-3.46945e-18
-2.1684e-18
-4.33681e-19
4.33681e-19
2.60209e-18
2.1684e-18
3.90313e-18
3.90313e-18
3.46945e-18
3.03577e-18
3.03577e-18
2.1684e-18
-8.67362e-19
-4.33681e-19
8.67362e-19
1.30104e-18
2.1684e-18
1.73472e-18
1.73472e-18
1.73472e-18
2.1684e-18
2.60209e-18
8.67362e-19
4.33681e-19
-8.67362e-19
-3.03577e-18
-4.33681e-18
-4.33681e-19
-4.33681e-19
-8.67362e-19
-2.60209e-18
-4.33681e-19
1.30104e-18
4.33681e-19
-3.46945e-18
-2.60209e-18
-3.90313e-18
-6.07153e-18
-4.33681e-18
-3.03577e-18
-3.03577e-18
-2.1684e-18
-1.30104e-18
1.30104e-18
1.73472e-18
8.67362e-19
-2.1684e-18
-4.33681e-19
0
0
-8.67362e-19
-8.67362e-19
-3.46945e-18
-2.60209e-18
-3.03577e-18
-3.03577e-18
-3.90313e-18
-4.33681e-18
-3.46945e-18
-3.03577e-18
-3.90313e-18
-2.1684e-18
0
4.33681e-19
-2.1684e-18
-1.73472e-18
-4.33681e-19
-1.30104e-18
0
0
-8.67362e-19
-4.33681e-19
-4.33681e-19
-4.33681e-19
2.1684e-18
3.90313e-18
3.46945e-18
3.03577e-18
2.60209e-18
6.50521e-18
5.63785e-18
5.20417e-18
6.50521e-18
7.80626e-18
8.67362e-18
9.54098e-18
7.37257e-18
3.90313e-18
6.50521e-18
7.80626e-18
7.80626e-18
6.93889e-18
6.50521e-18
7.80626e-18
6.93889e-18
6.93889e-18
6.50521e-18
5.63785e-18
3.90313e-18
2.60209e-18
4.33681e-18
1.73472e-18
0
1.30104e-18
2.1684e-18
3.03577e-18
2.60209e-18
3.46945e-18
5.63785e-18
8.23994e-18
5.20417e-18
5.20417e-18
3.46945e-18
2.1684e-18
2.60209e-18
4.33681e-18
7.37257e-18
7.80626e-18
8.67362e-18
8.67362e-18
9.1073e-18
1.12757e-17
1.04083e-17
1.12757e-17
1.17094e-17
9.97466e-18
1.21431e-17
1.25767e-17
1.43115e-17
1.34441e-17
1.47451e-17
1.25767e-17
1.64799e-17
1.77809e-17
1.69136e-17
1.73472e-17
1.56125e-17
1.64799e-17
1.64799e-17
1.77809e-17
2.12504e-17
2.29851e-17
2.47198e-17
2.34188e-17
2.34188e-17
2.55872e-17
2.38524e-17
2.25514e-17
2.21177e-17
2.12504e-17
1.95156e-17
2.25514e-17
2.34188e-17
2.21177e-17
2.21177e-17
2.21177e-17
2.21177e-17
2.29851e-17
2.42861e-17
2.29851e-17
2.1684e-17
2.21177e-17
1.95156e-17
1.69136e-17
1.64799e-17
1.86483e-17
1.86483e-17
1.9082e-17
1.86483e-17
1.99493e-17
1.99493e-17
2.1684e-17
2.1684e-17
2.1684e-17
1.95156e-17
2.34188e-17
2.42861e-17
2.38524e-17
2.34188e-17
2.25514e-17
2.08167e-17
2.1684e-17
1.99493e-17
2.08167e-17
2.0383e-17
2.1684e-17
2.34188e-17
2.55872e-17
2.51535e-17
)
;

boundaryField
{
    sides
    {
        type            calculated;
        value           nonuniform List<scalar> 2(2.51535e-17 -6.09864e-20);
    }
    empty1
    {
        type            empty;
        value           nonuniform 0();
    }
    empty2
    {
        type            empty;
        value           nonuniform 0();
    }
}


// ************************************************************************* //
