/*--------------------------------*- C++ -*----------------------------------*\
| =========                 |                                                 |
| \\      /  F ield         | OpenFOAM: The Open Source CFD Toolbox           |
|  \\    /   O peration     | Version:  v1812                                 |
|   \\  /    A nd           | Web:      www.OpenFOAM.com                      |
|    \\/     M anipulation  |                                                 |
\*---------------------------------------------------------------------------*/
FoamFile
{
    version     2.0;
    format      ascii;
    class       volVectorField;
    location    "0.012";
    object      U;
}
// * * * * * * * * * * * * * * * * * * * * * * * * * * * * * * * * * * * * * //

dimensions      [0 1 -1 0 0 0 0];


internalField   nonuniform List<vector> 
800
(
(1.49842e-16 0 0)
(-1.30467e-16 0 0)
(-4.5655e-16 0 0)
(-1.64266e-16 0 0)
(-1.64774e-16 0 0)
(-9.71944e-17 0 0)
(1.07914e-16 0 0)
(3.62767e-16 0 0)
(1.20076e-16 0 0)
(-1.72661e-17 0 0)
(5.28949e-17 0 0)
(-1.48309e-16 0 0)
(-5.24656e-17 0 0)
(1.1602e-16 0 0)
(4.71207e-17 0 0)
(8.0865e-17 0 0)
(1.20995e-16 0 0)
(-1.09404e-17 0 0)
(-1.15772e-16 0 0)
(6.37424e-17 0 0)
(-4.49728e-17 0 0)
(-1.96247e-16 0 0)
(8.35534e-17 0 0)
(7.20677e-17 0 0)
(-1.82651e-16 0 0)
(-3.80205e-16 0 0)
(-2.67505e-18 0 0)
(3.72682e-16 0 0)
(1.21431e-16 0 0)
(2.03458e-17 0 0)
(1.41413e-16 0 0)
(-4.10503e-17 0 0)
(-5.5179e-18 0 0)
(-2.00764e-17 0 0)
(-4.32671e-17 0 0)
(3.10583e-17 0 0)
(2.10175e-18 0 0)
(3.50474e-16 0 0)
(1.07705e-18 0 0)
(-2.11371e-16 0 0)
(-2.4596e-16 0 0)
(-6.32516e-16 0 0)
(-1.52065e-16 0 0)
(2.54229e-16 0 0)
(5.57556e-16 0 0)
(2.87109e-16 0 0)
(4.52395e-16 0 0)
(-7.67256e-17 0 0)
(-5.72133e-16 0 0)
(2.07184e-16 0 0)
(-4.74585e-17 0 0)
(-2.41749e-16 0 0)
(2.44393e-16 0 0)
(-4.82168e-18 0 0)
(-1.90418e-16 0 0)
(3.07831e-16 0 0)
(-5.21577e-17 0 0)
(1.4121e-16 0 0)
(3.25182e-17 0 0)
(-2.44599e-16 0 0)
(-6.22868e-17 0 0)
(-1.50547e-16 0 0)
(1.36708e-16 0 0)
(7.16782e-17 0 0)
(-1.4833e-16 0 0)
(-7.65199e-17 0 0)
(-5.91005e-17 0 0)
(-6.17121e-17 0 0)
(-8.92596e-17 0 0)
(-9.2263e-17 0 0)
(2.71607e-16 0 0)
(1.16409e-16 0 0)
(-8.50218e-17 0 0)
(1.39991e-17 0 0)
(1.56916e-17 0 0)
(2.43209e-17 0 0)
(-9.04638e-18 0 0)
(3.4283e-16 0 0)
(4.41197e-17 0 0)
(-8.06095e-17 0 0)
(-1.43829e-17 0 0)
(5.24316e-17 0 0)
(-1.74407e-16 0 0)
(-6.08583e-16 0 0)
(-5.6499e-17 0 0)
(4.20178e-17 0 0)
(2.21804e-16 0 0)
(1.33238e-16 0 0)
(3.76308e-18 0 0)
(2.21369e-16 0 0)
(-5.46979e-17 0 0)
(7.0883e-17 0 0)
(-7.06293e-17 0 0)
(-3.80541e-16 0 0)
(2.44074e-17 0 0)
(1.74185e-16 0 0)
(1.71232e-16 0 0)
(5.62449e-17 0 0)
(-4.16014e-17 0 0)
(-1.39711e-16 0 0)
(-6.58711e-17 0 0)
(2.46249e-16 0 0)
(9.03825e-17 0 0)
(-2.27707e-16 0 0)
(-1.26078e-17 0 0)
(-7.84269e-17 0 0)
(-1.51023e-16 0 0)
(5.57959e-18 0 0)
(-1.2636e-16 0 0)
(-4.68361e-17 0 0)
(7.10883e-17 0 0)
(1.89576e-16 0 0)
(1.29344e-16 0 0)
(-8.88933e-17 0 0)
(3.03739e-16 0 0)
(-2.82018e-17 0 0)
(-1.2138e-16 0 0)
(1.33763e-16 0 0)
(-5.82751e-17 0 0)
(2.04953e-16 0 0)
(-1.98846e-17 0 0)
(-2.90517e-16 0 0)
(-7.11125e-17 0 0)
(-1.80444e-16 0 0)
(-2.54244e-16 0 0)
(-1.84359e-17 0 0)
(2.06531e-16 0 0)
(8.38435e-17 0 0)
(-3.61966e-16 0 0)
(-2.68043e-16 0 0)
(2.56257e-17 0 0)
(1.81996e-16 0 0)
(4.23373e-16 0 0)
(1.70574e-16 0 0)
(-3.31059e-17 0 0)
(7.184e-17 0 0)
(1.64044e-16 0 0)
(-8.87943e-18 0 0)
(-1.24038e-17 0 0)
(-1.94709e-16 0 0)
(-6.28955e-16 0 0)
(-1.88346e-16 0 0)
(1.25702e-16 0 0)
(5.3904e-16 0 0)
(1.89112e-16 0 0)
(-4.43234e-17 0 0)
(-5.74151e-17 0 0)
(-2.82621e-16 0 0)
(-3.05572e-17 0 0)
(2.76374e-16 0 0)
(8.61229e-17 0 0)
(-4.99017e-17 0 0)
(1.09878e-16 0 0)
(3.23489e-17 0 0)
(8.61926e-17 0 0)
(1.18073e-17 0 0)
(2.68192e-17 0 0)
(8.43954e-17 0 0)
(6.77719e-17 0 0)
(-8.01619e-17 0 0)
(-2.68497e-16 0 0)
(-4.61468e-17 0 0)
(-2.00857e-16 0 0)
(-4.45067e-16 0 0)
(-4.89207e-17 0 0)
(1.04455e-16 0 0)
(-5.16592e-18 0 0)
(3.37144e-18 0 0)
(1.55959e-17 0 0)
(1.09872e-16 0 0)
(4.05948e-16 0 0)
(3.07848e-16 0 0)
(-4.25789e-17 0 0)
(-2.15509e-16 0 0)
(-4.08024e-17 0 0)
(8.01419e-17 0 0)
(1.02133e-16 0 0)
(4.44177e-17 0 0)
(4.20007e-16 0 0)
(4.61791e-17 0 0)
(-3.35283e-16 0 0)
(2.4971e-16 0 0)
(-1.42585e-16 0 0)
(2.904e-17 0 0)
(-3.85526e-17 0 0)
(-1.13535e-16 0 0)
(-2.73943e-17 0 0)
(-7.32492e-17 0 0)
(9.29565e-17 0 0)
(-6.75968e-17 0 0)
(6.13064e-17 0 0)
(-1.8265e-16 0 0)
(-6.80728e-16 0 0)
(-2.13151e-16 0 0)
(-1.84654e-16 0 0)
(7.92978e-17 0 0)
(6.54305e-16 0 0)
(3.37723e-16 0 0)
(1.64954e-16 0 0)
(-6.16916e-17 0 0)
(7.27834e-18 0 0)
(1.34097e-16 0 0)
(3.22162e-16 0 0)
(1.1188e-16 0 0)
(2.7585e-16 0 0)
(1.03212e-17 0 0)
(-5.0849e-16 0 0)
(-1.67454e-16 0 0)
(-2.10515e-16 0 0)
(-1.62344e-16 0 0)
(7.06453e-17 0 0)
(1.28905e-16 0 0)
(-3.23116e-16 0 0)
(-8.67403e-17 0 0)
(1.13195e-16 0 0)
(-2.29719e-18 0 0)
(-2.0686e-16 0 0)
(-9.75601e-17 0 0)
(2.05962e-16 0 0)
(1.98588e-16 0 0)
(7.59229e-17 0 0)
(3.0158e-17 0 0)
(1.99747e-16 0 0)
(-5.14709e-17 0 0)
(-2.93769e-16 0 0)
(7.91693e-17 0 0)
(1.22643e-17 0 0)
(-3.60338e-16 0 0)
(-3.87427e-16 0 0)
(-3.72331e-17 0 0)
(4.26513e-16 0 0)
(2.36252e-16 0 0)
(5.7451e-17 0 0)
(1.15623e-16 0 0)
(3.06382e-17 0 0)
(-4.76333e-17 0 0)
(2.24279e-16 0 0)
(-9.7482e-17 0 0)
(-3.88776e-16 0 0)
(-3.61694e-17 0 0)
(-1.19729e-18 0 0)
(9.08492e-17 0 0)
(2.96972e-16 0 0)
(-8.20093e-18 0 0)
(3.89791e-17 0 0)
(1.77765e-17 0 0)
(1.77856e-17 0 0)
(4.22918e-17 0 0)
(-2.72002e-16 0 0)
(-1.27644e-16 0 0)
(-4.61468e-17 0 0)
(8.20285e-17 0 0)
(-4.17608e-17 0 0)
(-1.93175e-16 0 0)
(1.24777e-16 0 0)
(3.02428e-16 0 0)
(1.70136e-18 0 0)
(5.10444e-17 0 0)
(6.58054e-17 0 0)
(-2.56097e-17 0 0)
(-8.29421e-17 0 0)
(-1.63806e-16 0 0)
(1.58203e-16 0 0)
(6.01036e-17 0 0)
(-6.10151e-17 0 0)
(-6.8842e-17 0 0)
(-2.94055e-16 0 0)
(-1.32611e-16 0 0)
(-3.85993e-17 0 0)
(1.14165e-16 0 0)
(5.25465e-16 0 0)
(6.89399e-17 0 0)
(-1.78848e-16 0 0)
(5.80955e-17 0 0)
(-2.30816e-16 0 0)
(-2.83883e-16 0 0)
(-2.29717e-16 0 0)
(-1.67624e-16 0 0)
(1.72453e-17 0 0)
(2.46848e-16 0 0)
(2.1035e-16 0 0)
(1.22473e-16 0 0)
(3.23293e-17 0 0)
(2.48758e-17 0 0)
(-7.68659e-17 0 0)
(-8.64821e-17 0 0)
(2.3262e-16 0 0)
(1.17804e-16 0 0)
(-9.18943e-17 0 0)
(2.13659e-17 0 0)
(-2.04831e-16 0 0)
(-3.64936e-16 0 0)
(1.42371e-16 0 0)
(3.94813e-16 0 0)
(2.74838e-16 0 0)
(3.0015e-16 0 0)
(-9.66599e-17 0 0)
(3.7045e-17 0 0)
(-8.78157e-17 0 0)
(-3.87611e-16 0 0)
(-3.13361e-17 0 0)
(2.51189e-16 0 0)
(8.72311e-17 0 0)
(-2.72484e-16 0 0)
(-2.13774e-18 0 0)
(2.78441e-16 0 0)
(6.56136e-17 0 0)
(-2.51373e-16 0 0)
(2.08513e-16 0 0)
(3.64258e-17 0 0)
(-1.08947e-16 0 0)
(-5.8408e-17 0 0)
(-1.06891e-16 0 0)
(-1.35964e-17 0 0)
(-1.91345e-16 0 0)
(3.65989e-16 0 0)
(7.83988e-17 0 0)
(-2.30449e-16 0 0)
(-6.85753e-17 0 0)
(-8.18642e-17 0 0)
(2.80464e-16 0 0)
(7.52702e-17 0 0)
(5.59319e-11 0 0)
(1.51515e-07 0 0)
(-7.86779e-07 0 0)
(-0.0299324 0 0)
(-1.5909 0 0)
(-4.3379 0 0)
(-5.57884 0 0)
(-6.00583 0 0)
(-6.14759 0 0)
(-6.19289 0 0)
(-6.20603 0 0)
(-6.21063 0 0)
(-6.21335 0 0)
(-6.21713 0 0)
(-6.22831 0 0)
(-6.25625 0 0)
(-6.2969 0 0)
(-6.32524 0 0)
(-6.33023 0 0)
(-6.31061 0 0)
(-6.2703 0 0)
(-6.23399 0 0)
(-6.20779 0 0)
(-6.19244 0 0)
(-6.18374 0 0)
(-6.17968 0 0)
(-6.17775 0 0)
(-6.17702 0 0)
(-6.17686 0 0)
(-6.17698 0 0)
(-6.17715 0 0)
(-6.17729 0 0)
(-6.17736 0 0)
(-6.17739 0 0)
(-6.1774 0 0)
(-6.17739 0 0)
(-6.17737 0 0)
(-6.17731 0 0)
(-6.1771 0 0)
(-6.177 0 0)
(-6.17697 0 0)
(-6.177 0 0)
(-6.17712 0 0)
(-6.17726 0 0)
(-6.17736 0 0)
(-6.17742 0 0)
(-6.17743 0 0)
(-6.17731 0 0)
(-6.177 0 0)
(-6.17657 0 0)
(-6.17622 0 0)
(-6.17602 0 0)
(-6.1759 0 0)
(-6.1758 0 0)
(-6.17572 0 0)
(-6.17567 0 0)
(-6.17565 0 0)
(-6.17566 0 0)
(-6.17568 0 0)
(-6.17581 0 0)
(-6.1761 0 0)
(-6.17663 0 0)
(-6.17747 0 0)
(-6.17866 0 0)
(-6.18028 0 0)
(-6.18237 0 0)
(-6.18498 0 0)
(-6.18811 0 0)
(-6.19176 0 0)
(-6.19583 0 0)
(-6.20013 0 0)
(-6.20434 0 0)
(-6.20807 0 0)
(-6.21108 0 0)
(-6.21341 0 0)
(-6.2153 0 0)
(-6.21698 0 0)
(-6.21859 0 0)
(-6.21998 0 0)
(-6.22088 0 0)
(-6.22121 0 0)
(-6.22124 0 0)
(-6.22116 0 0)
(-6.22089 0 0)
(-6.22027 0 0)
(-6.21916 0 0)
(-6.21752 0 0)
(-6.21533 0 0)
(-6.21262 0 0)
(-6.20937 0 0)
(-6.20558 0 0)
(-6.20127 0 0)
(-6.19649 0 0)
(-6.19134 0 0)
(-6.18595 0 0)
(-6.18043 0 0)
(-6.17479 0 0)
(-6.16902 0 0)
(-6.16308 0 0)
(-6.15708 0 0)
(-6.15132 0 0)
(-6.14625 0 0)
(-6.14221 0 0)
(-6.13925 0 0)
(-6.1371 0 0)
(-6.13541 0 0)
(-6.1338 0 0)
(-6.13193 0 0)
(-6.1294 0 0)
(-6.1257 0 0)
(-6.12025 0 0)
(-6.11246 0 0)
(-6.10176 0 0)
(-6.08768 0 0)
(-6.06986 0 0)
(-6.04793 0 0)
(-6.0215 0 0)
(-5.99014 0 0)
(-5.95348 0 0)
(-5.91119 0 0)
(-5.86317 0 0)
(-5.80954 0 0)
(-5.75062 0 0)
(-5.68692 0 0)
(-5.61905 0 0)
(-5.54764 0 0)
(-5.4733 0 0)
(-5.39658 0 0)
(-5.31794 0 0)
(-5.23778 0 0)
(-5.15641 0 0)
(-5.07409 0 0)
(-4.99101 0 0)
(-4.90734 0 0)
(-4.8232 0 0)
(-4.73869 0 0)
(-4.65389 0 0)
(-4.56887 0 0)
(-4.48368 0 0)
(-4.39835 0 0)
(-4.31293 0 0)
(-4.22744 0 0)
(-4.14191 0 0)
(-4.05636 0 0)
(-3.9708 0 0)
(-3.88525 0 0)
(-3.79974 0 0)
(-3.71426 0 0)
(-3.62884 0 0)
(-3.54348 0 0)
(-3.45821 0 0)
(-3.37302 0 0)
(-3.28793 0 0)
(-3.20295 0 0)
(-3.1181 0 0)
(-3.03339 0 0)
(-2.94883 0 0)
(-2.86443 0 0)
(-2.78021 0 0)
(-2.69619 0 0)
(-2.61238 0 0)
(-2.5288 0 0)
(-2.44548 0 0)
(-2.36242 0 0)
(-2.27966 0 0)
(-2.19722 0 0)
(-2.11512 0 0)
(-2.03341 0 0)
(-1.9521 0 0)
(-1.87124 0 0)
(-1.79087 0 0)
(-1.71103 0 0)
(-1.63176 0 0)
(-1.55313 0 0)
(-1.47519 0 0)
(-1.398 0 0)
(-1.32163 0 0)
(-1.24617 0 0)
(-1.17171 0 0)
(-1.09832 0 0)
(-1.02613 0 0)
(-0.955246 0 0)
(-0.885792 0 0)
(-0.817908 0 0)
(-0.751742 0 0)
(-0.687453 0 0)
(-0.625213 0 0)
(-0.565201 0 0)
(-0.507605 0 0)
(-0.45262 0 0)
(-0.400439 0 0)
(-0.351254 0 0)
(-0.305245 0 0)
(-0.262576 0 0)
(-0.223384 0 0)
(-0.187773 0 0)
(-0.1558 0 0)
(-0.127473 0 0)
(-0.102739 0 0)
(-0.0814835 0 0)
(-0.0635305 0 0)
(-0.0486462 0 0)
(-0.0365487 0 0)
(-0.0269209 0 0)
(-0.0194258 0 0)
(-0.0137236 0 0)
(-0.0094872 0 0)
(-0.00641539 0 0)
(-0.00424241 0 0)
(-0.00274314 0 0)
(-0.00173428 0 0)
(-0.00107217 0 0)
(-0.000648265 0 0)
(-0.000383438 0 0)
(-0.000221935 0 0)
(-0.000125748 0 0)
(-6.9775e-05 0 0)
(-3.79325e-05 0 0)
(-2.02134e-05 0 0)
(-1.05631e-05 0 0)
(-5.41603e-06 0 0)
(-2.72601e-06 0 0)
(-1.34756e-06 0 0)
(-6.54576e-07 0 0)
(-3.12593e-07 0 0)
(-1.46831e-07 0 0)
(-6.78707e-08 0 0)
(-3.08871e-08 0 0)
(-1.38452e-08 0 0)
(-6.11564e-09 0 0)
(-2.66311e-09 0 0)
(-1.14371e-09 0 0)
(-4.84617e-10 0 0)
(-2.02669e-10 0 0)
(-8.36939e-11 0 0)
(-3.41422e-11 0 0)
(-1.37536e-11 0 0)
(-5.48035e-12 0 0)
(-2.16055e-12 0 0)
(-8.3693e-13 0 0)
(-3.28991e-13 0 0)
(-1.2262e-13 0 0)
(-4.72593e-14 0 0)
(-2.48007e-14 0 0)
(-1.587e-14 0 0)
(-1.11598e-14 0 0)
(-5.59183e-15 0 0)
(-3.86555e-15 0 0)
(-2.14018e-15 0 0)
(-4.00285e-15 0 0)
(-4.98456e-15 0 0)
(-1.39682e-15 0 0)
(1.12083e-17 0 0)
(2.52781e-15 0 0)
(1.14759e-15 0 0)
(-1.95406e-15 0 0)
(-2.86515e-15 0 0)
(-6.8977e-15 0 0)
(-4.69293e-15 0 0)
(-5.22753e-15 0 0)
(-7.47424e-15 0 0)
(-4.19154e-15 0 0)
(2.0893e-15 0 0)
(3.7871e-15 0 0)
(3.73568e-15 0 0)
(4.11598e-15 0 0)
(2.0247e-15 0 0)
(6.18391e-16 0 0)
(-2.84466e-16 0 0)
(-1.79204e-15 0 0)
(-3.41269e-15 0 0)
(-2.95791e-15 0 0)
(-8.33075e-16 0 0)
(-3.18772e-15 0 0)
(-3.00895e-15 0 0)
(-4.53184e-15 0 0)
(-6.66007e-15 0 0)
(-7.49608e-15 0 0)
(-1.17507e-14 0 0)
(-1.26812e-14 0 0)
(-1.08086e-14 0 0)
(-8.33446e-15 0 0)
(-9.27039e-15 0 0)
(-1.03071e-14 0 0)
(-1.05141e-14 0 0)
(-1.09939e-14 0 0)
(-1.00676e-14 0 0)
(-1.10388e-14 0 0)
(-1.18581e-14 0 0)
(-8.28237e-15 0 0)
(-2.901e-15 0 0)
(2.54323e-16 0 0)
(2.62383e-15 0 0)
(7.37142e-15 0 0)
(6.17919e-15 0 0)
(7.89156e-15 0 0)
(8.98155e-15 0 0)
(8.51931e-15 0 0)
(8.81557e-15 0 0)
(3.74005e-15 0 0)
(-2.02999e-15 0 0)
(-1.80719e-15 0 0)
(1.28724e-15 0 0)
(2.70648e-15 0 0)
(4.94334e-15 0 0)
(4.92131e-15 0 0)
(5.28331e-15 0 0)
(5.36304e-15 0 0)
(8.05949e-15 0 0)
(6.41524e-15 0 0)
(2.06769e-15 0 0)
(4.1172e-15 0 0)
(-2.3879e-15 0 0)
(-9.44824e-16 0 0)
(-3.70593e-15 0 0)
(-4.19563e-15 0 0)
(-1.03446e-15 0 0)
(-1.21021e-15 0 0)
(-6.18e-15 0 0)
(-4.65407e-15 0 0)
(1.6666e-15 0 0)
(3.54528e-15 0 0)
(-3.97486e-15 0 0)
(-9.06213e-15 0 0)
(-6.14667e-15 0 0)
(-1.13516e-14 0 0)
(-1.0155e-14 0 0)
(-6.85116e-15 0 0)
(-6.1134e-15 0 0)
(-6.074e-15 0 0)
(-6.08572e-15 0 0)
(8.32891e-16 0 0)
(1.95442e-15 0 0)
(3.05426e-15 0 0)
(-2.43165e-16 0 0)
(-1.35702e-15 0 0)
(-9.5496e-16 0 0)
(-1.67747e-15 0 0)
(-4.98189e-15 0 0)
(-4.12258e-15 0 0)
(-3.36966e-15 0 0)
(-5.41085e-15 0 0)
(-6.31035e-15 0 0)
(-8.17113e-15 0 0)
(-1.09716e-14 0 0)
(-1.02901e-14 0 0)
(-9.26063e-15 0 0)
(-6.07855e-15 0 0)
(-7.56562e-15 0 0)
(-7.39366e-15 0 0)
(-2.27697e-15 0 0)
(-6.56561e-16 0 0)
(-3.34834e-15 0 0)
(-8.49275e-15 0 0)
(-5.79908e-15 0 0)
(-2.74871e-15 0 0)
(-2.912e-15 0 0)
(-2.25799e-15 0 0)
(-1.94041e-15 0 0)
(-1.64642e-15 0 0)
(4.44517e-16 0 0)
(-1.18632e-16 0 0)
(4.08129e-15 0 0)
(8.89213e-15 0 0)
(8.56722e-15 0 0)
(9.7517e-15 0 0)
(7.46849e-15 0 0)
(5.09165e-15 0 0)
(6.43128e-15 0 0)
(9.05622e-15 0 0)
(1.26825e-14 0 0)
(1.85301e-14 0 0)
(1.94999e-14 0 0)
(2.15637e-14 0 0)
(2.24399e-14 0 0)
(1.40411e-14 0 0)
(1.43304e-14 0 0)
(1.49022e-14 0 0)
(1.80248e-14 0 0)
(1.59833e-14 0 0)
(1.56496e-14 0 0)
(1.75456e-14 0 0)
(1.68515e-14 0 0)
(1.85976e-14 0 0)
(1.46084e-14 0 0)
(1.14291e-14 0 0)
(1.17996e-14 0 0)
(8.64268e-15 0 0)
(1.03692e-14 0 0)
(7.62168e-15 0 0)
(-5.40018e-16 0 0)
(1.75628e-15 0 0)
(9.55647e-15 0 0)
(7.89716e-15 0 0)
(5.48365e-15 0 0)
(7.38307e-15 0 0)
(1.20155e-14 0 0)
(1.82643e-14 0 0)
(1.46908e-14 0 0)
(1.49179e-14 0 0)
(1.0339e-14 0 0)
(4.9595e-15 0 0)
(6.02319e-15 0 0)
(7.71058e-15 0 0)
(1.14879e-14 0 0)
(1.41979e-14 0 0)
(1.90871e-14 0 0)
(2.28247e-14 0 0)
(2.18306e-14 0 0)
(2.64377e-14 0 0)
(2.91131e-14 0 0)
(2.83707e-14 0 0)
(3.01282e-14 0 0)
(2.71529e-14 0 0)
(2.62035e-14 0 0)
(2.85424e-14 0 0)
(3.19197e-14 0 0)
(2.99267e-14 0 0)
(3.34338e-14 0 0)
(3.52017e-14 0 0)
(3.4333e-14 0 0)
(4.15634e-14 0 0)
(4.2269e-14 0 0)
(4.18853e-14 0 0)
(4.18635e-14 0 0)
(4.38709e-14 0 0)
(4.30585e-14 0 0)
(4.16677e-14 0 0)
(4.76889e-14 0 0)
(5.3667e-14 0 0)
(5.8348e-14 0 0)
(5.88999e-14 0 0)
(5.83861e-14 0 0)
(5.90361e-14 0 0)
(6.10359e-14 0 0)
(5.98556e-14 0 0)
(5.70301e-14 0 0)
(5.55415e-14 0 0)
(5.34463e-14 0 0)
(5.37361e-14 0 0)
(5.55777e-14 0 0)
(5.48071e-14 0 0)
(5.23244e-14 0 0)
(5.16038e-14 0 0)
(5.46456e-14 0 0)
(5.60884e-14 0 0)
(5.79184e-14 0 0)
(5.75647e-14 0 0)
(5.352e-14 0 0)
(5.3778e-14 0 0)
(5.27837e-14 0 0)
(4.7612e-14 0 0)
(4.13997e-14 0 0)
(4.58522e-14 0 0)
(4.62062e-14 0 0)
(4.52905e-14 0 0)
(4.76599e-14 0 0)
(4.96547e-14 0 0)
(5.15853e-14 0 0)
(5.20817e-14 0 0)
(5.15904e-14 0 0)
(5.3476e-14 0 0)
(5.17598e-14 0 0)
(5.51252e-14 0 0)
(5.9731e-14 0 0)
(6.12777e-14 0 0)
(5.91106e-14 0 0)
(5.80848e-14 0 0)
(5.62899e-14 0 0)
(5.37823e-14 0 0)
(5.27538e-14 0 0)
(5.47223e-14 0 0)
(5.58329e-14 0 0)
(5.78062e-14 0 0)
(5.84392e-14 0 0)
(6.2396e-14 0 0)
(6.47948e-14 0 0)
(6.25094e-14 0 0)
)
;

boundaryField
{
    sides
    {
        type            zeroGradient;
    }
    empty1
    {
        type            empty;
    }
    empty2
    {
        type            empty;
    }
}


// ************************************************************************* //
