/*--------------------------------*- C++ -*----------------------------------*\
| =========                 |                                                 |
| \\      /  F ield         | OpenFOAM: The Open Source CFD Toolbox           |
|  \\    /   O peration     | Version:  v1812                                 |
|   \\  /    A nd           | Web:      www.OpenFOAM.com                      |
|    \\/     M anipulation  |                                                 |
\*---------------------------------------------------------------------------*/
FoamFile
{
    version     2.0;
    format      ascii;
    class       volScalarField;
    location    "1.8";
    object      p;
}
// * * * * * * * * * * * * * * * * * * * * * * * * * * * * * * * * * * * * * //

dimensions      [1 -1 -2 0 0 0 0];


internalField   nonuniform List<scalar> 
8000
(
10.33333
10.33333
10.33333
10.33333
10.33333
10.33333
10.33333
10.33333
10.33333
10.33333
10.33333
10.33333
10.33333
10.33333
10.33333
10.33333
10.33333
10.33333
10.33333
10.33333
10.33333
10.33333
10.33333
10.33333
10.33333
10.33333
10.33333
10.33333
10.33333
10.33333
10.33333
10.33333
10.33333
10.33333
10.33333
10.33333
10.33333
10.33333
10.33333
10.33333
10.33333
10.33333
10.33333
10.33333
10.33333
10.33333
10.33333
10.33333
10.33333
10.33333
10.33333
10.33333
10.33333
10.33333
10.33333
10.33333
10.33333
10.33333
10.33333
10.33333
10.33333
10.33333
10.33333
10.33333
10.33333
10.33333
10.33333
10.33333
10.33333
10.33333
10.33333
10.33333
10.33333
10.33333
10.33333
10.33333
10.33333
10.33333
10.33333
10.33333
10.33333
10.33333
10.33333
10.33333
10.33333
10.33333
10.33333
10.33333
10.33333
10.33333
10.33333
10.33333
10.33333
10.33333
10.33333
10.33333
10.33333
10.33333
10.33333
10.33333
10.33333
10.33333
10.33333
10.33333
10.33333
10.33333
10.33333
10.33333
10.33333
10.33333
10.33333
10.33333
10.33333
10.33333
10.33333
10.33333
10.33333
10.33333
10.33333
10.33333
10.33333
10.33333
10.33333
10.33333
10.33333
10.33333
10.33333
10.33333
10.33333
10.33333
10.33333
10.33333
10.33333
10.33333
10.33333
10.33333
10.33333
10.33333
10.33333
10.33333
10.33333
10.33333
10.33333
10.33333
10.33333
10.33333
10.33333
10.33333
10.33333
10.33333
10.33333
10.33333
10.33333
10.33333
10.33333
10.33333
10.33333
10.33333
10.33333
10.33333
10.33333
10.33333
10.33333
10.33333
10.33333
10.33333
10.33333
10.33333
10.33333
10.33333
10.33333
10.33333
10.33333
10.33333
10.33333
10.33333
10.33333
10.33333
10.33333
10.33333
10.33333
10.33333
10.33333
10.33333
10.33333
10.33333
10.33333
10.33333
10.33333
10.33333
10.33333
10.33333
10.33333
10.33333
10.33333
10.33333
10.33333
10.33333
10.33333
10.33333
10.33333
10.33333
10.33333
10.33333
10.33333
10.33333
10.33333
10.33333
10.33333
10.33333
10.33333
10.33333
10.33333
10.33333
10.33333
10.33333
10.33333
10.33333
10.33333
10.33333
10.33333
10.33333
10.33333
10.33333
10.33333
10.33333
10.33333
10.33333
10.33333
10.33333
10.33333
10.33333
10.33333
10.33333
10.33333
10.33333
10.33333
10.33333
10.33333
10.33333
10.33333
10.33333
10.33333
10.33333
10.33333
10.33333
10.33333
10.33333
10.33333
10.33333
10.33333
10.33333
10.33333
10.33333
10.33333
10.33333
10.33333
10.33333
10.33333
10.33333
10.33333
10.33333
10.33333
10.33333
10.33333
10.33333
10.33333
10.33333
10.33333
10.33333
10.33333
10.33333
10.33333
10.33333
10.33333
10.33333
10.33333
10.33333
10.33333
10.33333
10.33333
10.33333
10.33333
10.33333
10.33333
10.33333
10.33333
10.33333
10.33333
10.33333
10.33333
10.33333
10.33333
10.33333
10.33333
10.33333
10.33333
10.33333
10.33333
10.33333
10.33333
10.33333
10.33333
10.33333
10.33333
10.33333
10.33333
10.33333
10.33333
10.33333
10.33333
10.33333
10.33333
10.33333
10.33333
10.33333
10.33333
10.33333
10.33333
10.33333
10.33333
10.33333
10.33333
10.33333
10.33333
10.33333
10.33333
10.33333
10.33333
10.33333
10.33333
10.33333
10.33333
10.33333
10.33333
10.33333
10.33333
10.33333
10.33333
10.33333
10.33333
10.33333
10.33333
10.33333
10.33333
10.33333
10.33333
10.33333
10.33333
10.33333
10.33333
10.33333
10.33333
10.33333
10.33333
10.33333
10.33333
10.33333
10.33333
10.33333
10.33333
10.33333
10.33333
10.33333
10.33333
10.33333
10.33333
10.33333
10.33333
10.33333
10.33333
10.33333
10.33333
10.33333
10.33333
10.33333
10.33333
10.33333
10.33333
10.33333
10.33333
10.33333
10.33333
10.33333
10.33333
10.33333
10.33333
10.33333
10.33333
10.33333
10.33333
10.33333
10.33333
10.33333
10.33333
10.33333
10.33333
10.33333
10.33333
10.33333
10.33333
10.33333
10.33333
10.33333
10.33333
10.33333
10.33333
10.33333
10.33333
10.33333
10.33333
10.33333
10.33333
10.33333
10.33333
10.33333
10.33333
10.33333
10.33333
10.33333
10.33333
10.33333
10.33333
10.33333
10.33333
10.33333
10.33333
10.33333
10.33333
10.33333
10.33333
10.33333
10.33333
10.33333
10.33333
10.33333
10.33333
10.33333
10.33333
10.33333
10.33333
10.33333
10.33333
10.33333
10.33333
10.33333
10.33333
10.33333
10.33333
10.33333
10.33333
10.33333
10.33333
10.33333
10.33333
10.33333
10.33333
10.33333
10.33333
10.33333
10.33333
10.33333
10.33333
10.33333
10.33333
10.33333
10.33333
10.33333
10.33333
10.33333
10.33333
10.33333
10.33333
10.33333
10.33333
10.33333
10.33333
10.33333
10.33333
10.33333
10.33333
10.33333
10.33333
10.33333
10.33333
10.33333
10.33333
10.33333
10.33333
10.33333
10.33333
10.33333
10.33333
10.33333
10.33333
10.33333
10.33333
10.33333
10.33333
10.33333
10.33333
10.33333
10.33333
10.33333
10.33333
10.33333
10.33333
10.33333
10.33333
10.33333
10.33333
10.33333
10.33333
10.33333
10.33333
10.33333
10.33333
10.33333
10.33333
10.33333
10.33333
10.33333
10.33333
10.33333
10.33333
10.33333
10.33333
10.33333
10.33333
10.33333
10.33333
10.33333
10.33333
10.33333
10.33333
10.33333
10.33333
10.33333
10.33333
10.33333
10.33333
10.33333
10.33333
10.33333
10.33333
10.33333
10.33333
10.33333
10.33333
10.33333
10.33333
10.33333
10.33333
10.33333
10.33333
10.33333
10.33333
10.33333
10.33333
10.33333
10.33333
10.33333
10.33333
10.33333
10.33333
10.33333
10.33333
10.33333
10.33333
10.33333
10.33333
10.33333
10.33333
10.33333
10.33333
10.33333
10.33333
10.33333
10.33333
10.33333
10.33333
10.33333
10.33333
10.33333
10.33333
10.33333
10.33333
10.33333
10.33333
10.33333
10.33333
10.33333
10.33333
10.33333
10.33333
10.33333
10.33333
10.33333
10.33333
10.33333
10.33333
10.33333
10.33333
10.33333
10.33333
10.33333
10.33333
10.33333
10.33333
10.33333
10.33333
10.33333
10.33333
10.33333
10.33333
10.33333
10.33333
10.33333
10.33333
10.33333
10.33333
10.33333
10.33333
10.33333
10.33333
10.33333
10.33333
10.33333
10.33333
10.33333
10.33333
10.33333
10.33333
10.33333
10.33333
10.33333
10.33333
10.33333
10.33333
10.33333
10.33333
10.33333
10.33333
10.33333
10.33333
10.33333
10.33333
10.33333
10.33333
10.33333
10.33333
10.33333
10.33333
10.33333
10.33333
10.33333
10.33333
10.33333
10.33333
10.33333
10.33333
10.33333
10.33333
10.33333
10.33333
10.33333
10.33333
10.33333
10.33333
10.33333
10.33333
10.33333
10.33333
10.33333
10.33333
10.33333
10.33333
10.33333
10.33333
10.33333
10.33333
10.33333
10.33333
10.33333
10.33333
10.33333
10.33333
10.33333
10.33333
10.33333
10.33333
10.33333
10.33333
10.33333
10.33333
10.33333
10.33333
10.33333
10.33333
10.33333
10.33333
10.33333
10.33333
10.33333
10.33333
10.33333
10.33333
10.33333
10.33333
10.33333
10.33333
10.33333
10.33333
10.33333
10.33333
10.33333
10.33333
10.33333
10.33333
10.33333
10.33333
10.33333
10.33333
10.33333
10.33333
10.33333
10.33333
10.33333
10.33333
10.33333
10.33333
10.33333
10.33333
10.33333
10.33333
10.33333
10.33333
10.33333
10.33333
10.33333
10.33333
10.33333
10.33333
10.33333
10.33333
10.33333
10.33333
10.33333
10.33333
10.33333
10.33333
10.33333
10.33333
10.33333
10.33333
10.33333
10.33333
10.33333
10.33333
10.33333
10.33333
10.33333
10.33333
10.33333
10.33333
10.33333
10.33333
10.33333
10.33333
10.33333
10.33333
10.33333
10.33333
10.33333
10.33333
10.33333
10.33333
10.33333
10.33333
10.33333
10.33333
10.33333
10.33333
10.33333
10.33333
10.33333
10.33333
10.33333
10.33333
10.33333
10.33333
10.33333
10.33333
10.33333
10.33333
10.33333
10.33333
10.33333
10.33333
10.33333
10.33333
10.33333
10.33333
10.33333
10.33333
10.33333
10.33333
10.33333
10.33333
10.33333
10.33333
10.33333
10.33333
10.33333
10.33333
10.33333
10.33333
10.33333
10.33333
10.33333
10.33333
10.33333
10.33333
10.33333
10.33333
10.33333
10.33333
10.33333
10.33333
10.33333
10.33333
10.33333
10.33333
10.33333
10.33333
10.33333
10.33333
10.33333
10.33333
10.33333
10.33333
10.33333
10.33333
10.33333
10.33333
10.33333
10.33333
10.33333
10.33333
10.33333
10.33333
10.33333
10.33333
10.33333
10.33333
10.33333
10.33333
10.33333
10.33333
10.33333
10.33333
10.33333
10.33333
10.33333
10.33333
10.33333
10.33333
10.33333
10.33333
10.33333
10.33333
10.33333
10.33333
10.33333
10.33333
10.33333
10.33333
10.33333
10.33333
10.33333
10.33333
10.33333
10.33333
10.33333
10.33333
10.33333
10.33333
10.33333
10.33333
10.33333
10.33333
10.33333
10.33333
10.33333
10.33333
10.33333
10.33333
10.33333
10.33333
10.33333
10.33333
10.33333
10.33333
10.33333
10.33333
10.33333
10.33333
10.33333
10.33333
10.33333
10.33333
10.33333
10.33333
10.33333
10.33333
10.33333
10.33333
10.33333
10.33333
10.33333
10.33333
10.33333
10.33333
10.33333
10.33333
10.33333
10.33333
10.33333
10.33333
10.33333
10.33333
10.33333
10.33333
10.33333
10.33333
10.33333
10.33333
10.33333
10.33333
10.33333
10.33333
10.33333
10.33333
10.33333
10.33333
10.33333
10.33333
10.33333
10.33333
10.33333
10.33333
10.33333
10.33333
10.33333
10.33333
10.33333
10.33333
10.33333
10.33333
10.33333
10.33333
10.33333
10.33333
10.33333
10.33333
10.33333
10.33333
10.33333
10.33333
10.33333
10.33333
10.33333
10.33333
10.33333
10.33333
10.33333
10.33333
10.33333
10.33333
10.33333
10.33333
10.33333
10.33333
10.33333
10.33333
10.33333
10.33333
10.33333
10.33333
10.33333
10.33333
10.33333
10.33333
10.33333
10.33333
10.33333
10.33333
10.33333
10.33333
10.33333
10.33333
10.33333
10.33333
10.33333
10.33333
10.33333
10.33333
10.33333
10.33333
10.33333
10.33333
10.33333
10.33333
10.33333
10.33333
10.33333
10.33333
10.33333
10.33333
10.33333
10.33333
10.33333
10.33333
10.33333
10.33333
10.33333
10.33333
10.33333
10.33333
10.33333
10.33333
10.33333
10.33333
10.33333
10.33333
10.33333
10.33333
10.33333
10.33333
10.33333
10.33333
10.33333
10.33333
10.33333
10.33333
10.33333
10.33333
10.33333
10.33333
10.33333
10.33333
10.33333
10.33333
10.33333
10.33333
10.33333
10.33333
10.33333
10.33333
10.33333
10.33333
10.33333
10.33333
10.33333
10.33333
10.33333
10.33333
10.33333
10.33333
10.33333
10.33333
10.33333
10.33333
10.33333
10.33333
10.33333
10.33333
10.33333
10.33333
10.33333
10.33333
10.33333
10.33333
10.33333
10.33333
10.33333
10.33333
10.33333
10.33333
10.33333
10.33333
10.33333
10.33333
10.33333
10.33333
10.33333
10.33333
10.33333
10.33333
10.33333
10.33333
10.33333
10.33333
10.33333
10.33333
10.33333
10.33333
10.33333
10.33333
10.33333
10.33333
10.33333
10.33333
10.33333
10.33333
10.33333
10.33333
10.33333
10.33333
10.33333
10.33333
10.33333
10.33333
10.33333
10.33333
10.33333
10.33333
10.33333
10.33333
10.33333
10.33333
10.33333
10.33333
10.33333
10.33333
10.33333
10.33333
10.33333
10.33333
10.33333
10.33333
10.33333
10.33333
10.33333
10.33333
10.33333
10.33333
10.33333
10.33333
10.33333
10.33333
10.33333
10.33333
10.33333
10.33333
10.33333
10.33333
10.33333
10.33333
10.33333
10.33333
10.33333
10.33333
10.33333
10.33333
10.33333
10.33333
10.33333
10.33333
10.33333
10.33333
10.33333
10.33333
10.33333
10.33333
10.33333
10.33333
10.33333
10.33333
10.33333
10.33333
10.33333
10.33333
10.33333
10.33333
10.33333
10.33333
10.33333
10.33333
10.33333
10.33333
10.33333
10.33333
10.33333
10.33333
10.33333
10.33333
10.33333
10.33333
10.33333
10.33333
10.33333
10.33333
10.33333
10.33333
10.33333
10.33333
10.33333
10.33333
10.33333
10.33333
10.33333
10.33333
10.33333
10.33333
10.33333
10.33333
10.33333
10.33333
10.33333
10.33333
10.33333
10.33333
10.33333
10.33333
10.33333
10.33333
10.33333
10.33333
10.33333
10.33333
10.33333
10.33333
10.33333
10.33333
10.33333
10.33333
10.33333
10.33333
10.33333
10.33333
10.33333
10.33333
10.33333
10.33333
10.33333
10.33333
10.33333
10.33333
10.33333
10.33333
10.33333
10.33333
10.33333
10.33333
10.33333
10.33333
10.33333
10.33333
10.33333
10.33333
10.33333
10.33333
10.33333
10.33333
10.33333
10.33333
10.33333
10.33333
10.33333
10.33333
10.33333
10.33333
10.33333
10.33333
10.33333
10.33333
10.33333
10.33333
10.33333
10.33333
10.33333
10.33333
10.33333
10.33333
10.33333
10.33333
10.33333
10.33333
10.33333
10.33333
10.33333
10.33333
10.33333
10.33333
10.33333
10.33333
10.33333
10.33333
10.33333
10.33333
10.33333
10.33333
10.33333
10.33333
10.33333
10.33333
10.33333
10.33333
10.33333
10.33333
10.33333
10.33333
10.33333
10.33333
10.33333
10.33333
10.33333
10.33333
10.33333
10.33333
10.33333
10.33333
10.33333
10.33333
10.33333
10.33333
10.33333
10.33333
10.33333
10.33333
10.33333
10.33333
10.33333
10.33333
10.33333
10.33333
10.33333
10.33333
10.33333
10.33333
10.33333
10.33333
10.33333
10.33333
10.33333
10.33333
10.33333
10.33333
10.33333
10.33333
10.33333
10.33333
10.33333
10.33333
10.33333
10.33333
10.33333
10.33333
10.33333
10.33333
10.33333
10.33333
10.33333
10.33333
10.33333
10.33333
10.33333
10.33333
10.33333
10.33333
10.33333
10.33333
10.33333
10.33333
10.33333
10.33333
10.33333
10.33333
10.33333
10.33333
10.33333
10.33333
10.33333
10.33333
10.33333
10.33333
10.33333
10.33333
10.33333
10.33333
10.33333
10.33333
10.33333
10.33333
10.33333
10.33333
10.33333
10.33333
10.33333
10.33333
10.33333
10.33333
10.33333
10.33333
10.33333
10.33333
10.33333
10.33333
10.33333
10.33333
10.33333
10.33333
10.33333
10.33333
10.33333
10.33333
10.33333
10.33333
10.33333
10.33333
10.33333
10.33333
10.33333
10.33333
10.33333
10.33333
10.33333
10.33333
10.33333
10.33333
10.33333
10.33333
10.33333
10.33333
10.33333
10.33333
10.33333
10.33333
10.33333
10.33333
10.33333
10.33333
10.33333
10.33333
10.33333
10.33333
10.33333
10.33333
10.33333
10.33333
10.33333
10.33333
10.33333
10.33333
10.33333
10.33333
10.33333
10.33333
10.33333
10.33333
10.33333
10.33333
10.33333
10.33333
10.33333
10.33333
10.33333
10.33333
10.33333
10.33333
10.33333
10.33333
10.33333
10.33333
10.33333
10.33333
10.33333
10.33333
10.33333
10.33333
10.33333
10.33333
10.33333
10.33333
10.33333
10.33333
10.33333
10.33333
10.33333
10.33333
10.33333
10.33333
10.33333
10.33333
10.33333
10.33333
10.33333
10.33333
10.33333
10.33333
10.33333
10.33333
10.33333
10.33333
10.33333
10.33333
10.33333
10.33333
10.33333
10.33333
10.33333
10.33333
10.33333
10.33333
10.33333
10.33333
10.33333
10.33333
10.33333
10.33333
10.33333
10.33333
10.33333
10.33333
10.33333
10.33333
10.33333
10.33333
10.33333
10.33333
10.33333
10.33333
10.33333
10.33333
10.33333
10.33333
10.33333
10.33333
10.33333
10.33333
10.33333
10.33333
10.33333
10.33333
10.33333
10.33333
10.33333
10.33333
10.33333
10.33333
10.33333
10.33333
10.33333
10.33333
10.33333
10.33333
10.33333
10.33333
10.33333
10.33333
10.33333
10.33333
10.33333
10.33333
10.33333
10.33333
10.33333
10.33333
10.33333
10.33333
10.33333
10.33333
10.33333
10.33333
10.33333
10.33333
10.33333
10.33333
10.33333
10.33333
10.33333
10.33333
10.33333
10.33333
10.33333
10.33333
10.33333
10.33333
10.33333
10.33333
10.33333
10.33333
10.33333
10.33333
10.33333
10.33333
10.33333
10.33333
10.33333
10.33333
10.33333
10.33333
10.33333
10.33333
10.33333
10.33333
10.33333
10.33333
10.33333
10.33333
10.33333
10.33333
10.33333
10.33333
10.33333
10.33333
10.33333
10.33333
10.33333
10.33333
10.33333
10.33333
10.33333
10.33333
10.33333
10.33333
10.33333
10.33333
10.33333
10.33333
10.33333
10.33333
10.33333
10.33333
10.33333
10.33333
10.33333
10.33333
10.33333
10.33333
10.33333
10.33333
10.33333
10.33333
10.33333
10.33333
10.33333
10.33333
10.33333
10.33333
10.33333
10.33333
10.33333
10.33333
10.33333
10.33333
10.33333
10.33333
10.33333
10.33333
10.33333
10.33333
10.33333
10.33333
10.33333
10.33333
10.33333
10.33333
10.33333
10.33333
10.33333
10.33333
10.33333
10.33333
10.33333
10.33333
10.33333
10.33333
10.33333
10.33333
10.33333
10.33333
10.33333
10.33333
10.33333
10.33333
10.33333
10.33333
10.33333
10.33333
10.33333
10.33333
10.33333
10.33333
10.33333
10.33333
10.33333
10.33333
10.33333
10.33333
10.33333
10.33333
10.33333
10.33333
10.33333
10.33333
10.33333
10.33333
10.33333
10.33333
10.33333
10.33333
10.33333
10.33333
10.33333
10.33333
10.33333
10.33333
10.33333
10.33333
10.33333
10.33333
10.33333
10.33333
10.33333
10.33333
10.33333
10.33333
10.33333
10.33332999
10.33332999
10.33332999
10.33332998
10.33332998
10.33332997
10.33332995
10.33332993
10.3333299
10.33332986
10.33332981
10.33332973
10.33332962
10.33332948
10.33332928
10.333329
10.33332863
10.33332812
10.33332744
10.33332653
10.3333253
10.33332368
10.33332152
10.33331866
10.33331492
10.33331001
10.33330363
10.33329535
10.33328468
10.33327097
10.33325347
10.33323122
10.33320308
10.33316769
10.3331234
10.33306827
10.33300003
10.33291604
10.33281323
10.33268812
10.33253676
10.33235473
10.33213715
10.33187865
10.33157345
10.33121535
10.33079785
10.33031418
10.32975743
10.32912067
10.32839703
10.32757991
10.32666304
10.32564069
10.32450774
10.32325981
10.32189336
10.32040572
10.31879521
10.31706104
10.31520339
10.31322332
10.31112271
10.30890419
10.30657105
10.30412711
10.30157665
10.29892428
10.29617485
10.29333336
10.29040487
10.28739443
10.28430703
10.28114751
10.27792059
10.27463078
10.27128238
10.26787946
10.26442587
10.26092523
10.25738091
10.25379608
10.25017366
10.2465164
10.24282681
10.23910724
10.23535986
10.23158668
10.22778956
10.22397019
10.22013017
10.21627095
10.21239389
10.20850023
10.20459112
10.20066764
10.19673077
10.19278142
10.18882045
10.18484864
10.18086671
10.17687536
10.1728752
10.16886682
10.16485077
10.16082756
10.15679767
10.15276153
10.14871956
10.14467215
10.14061965
10.13656242
10.13250077
10.128435
10.12436538
10.12029219
10.11621568
10.11213607
10.10805359
10.10396845
10.09988084
10.09579096
10.09169897
10.08760506
10.08350937
10.07941205
10.07531326
10.07121312
10.06711176
10.06300932
10.05890591
10.05480163
10.05069661
10.04659093
10.04248471
10.03837804
10.034271
10.03016369
10.02605619
10.02194858
10.01784094
10.01373334
10.00962587
10.0055186
10.00141158
9.997304896
9.993198608
9.989092781
9.984987479
9.980882763
9.976778695
9.972675335
9.968572741
9.964470973
9.960370089
9.956270146
9.952171202
9.948073313
9.943976526
9.939880871
9.935786417
9.931693582
9.927604225
9.923520786
9.919432935
9.915255517
9.910694132
9.905498545
9.902026793
9.902075129
9.90488627
9.917747012
9.959991523
10.08190998
10.38977325
10.9437009
11.33741462
11.37927179
11.38490627
11.389427
11.39336524
11.39639452
11.39804062
11.39842323
11.39822565
11.39777819
11.39765494
11.39790479
11.39878077
11.40018699
11.40172358
11.40305473
11.4039359
11.40422805
11.40417299
11.40388568
11.40356144
11.40342815
11.4034851
11.40373252
11.40405247
11.40445275
11.40467264
11.40457851
11.40436744
11.40407783
11.40376238
11.40346074
11.40319516
11.40295349
11.40272202
11.40247425
11.4021901
11.40184672
11.40142233
11.40090795
11.40031252
11.39966006
11.39898155
11.39830375
11.3976389
11.39698134
11.39631289
11.3956124
11.39486469
11.39406541
11.3932208
11.39234357
11.39144713
11.39054085
11.38962781
11.38870515
11.38776627
11.38680361
11.38581127
11.38478656
11.38373038
11.38264639
11.38153953
11.38041433
11.37927368
11.37811829
11.37694694
11.37575727
11.37454683
11.37331398
11.37205841
11.37078115
11.36948411
11.36816948
11.36683909
11.36549394
11.36413411
11.362759
11.36136768
11.35995935
11.35853362
11.35709065
11.35563108
11.35415578
11.35266562
11.35116122
11.34964285
11.34811045
11.34656377
11.34500254
11.34342659
11.34183597
11.34023093
11.33861187
11.33697924
11.33533337
11.33367452
11.33200273
11.33031799
11.32862022
11.32690938
11.32518557
11.32344897
11.32169991
11.31993876
11.31816592
11.31638171
11.31458639
11.31278011
11.31096297
11.30913498
11.30729616
11.30544652
11.30358609
11.30171493
11.29983312
11.29794074
11.29603788
11.29412462
11.29220104
11.29026723
11.28832329
11.28636933
11.2844055
11.28243195
11.28044881
11.27845624
11.27645436
11.27444328
11.27242309
11.27039386
11.26835566
11.26630857
11.26425265
11.26218797
11.26011464
11.25803271
11.25594229
11.25384346
11.25173629
11.24962085
11.24749722
11.24536548
11.24322571
11.24107799
11.23892241
11.23675907
11.23458807
11.2324095
11.23022346
11.22803004
11.22582932
11.22362139
11.2214063
11.21918412
11.21695491
11.2147187
11.21247554
11.21022544
11.20796844
11.20570456
11.2034338
11.20115621
11.19887179
11.19658059
11.19428265
11.19197803
11.1896668
11.18734905
11.18502487
11.18269437
11.18035764
11.17801481
11.17566598
11.17331125
11.17095072
11.16858446
11.16621254
11.16383499
11.16145184
11.15906309
11.15666873
11.15426875
11.15186311
11.14945179
11.14703478
11.14461206
11.14218364
11.13974956
11.13730987
11.13486465
11.13241398
11.12995799
11.12749678
11.12503049
11.12255925
11.12008316
11.11760233
11.11511685
11.11262676
11.11013211
11.10763291
11.10512915
11.10262082
11.10010789
11.09759031
11.09506805
11.09254109
11.09000942
11.08747304
11.08493198
11.08238627
11.07983598
11.07728118
11.07472197
11.07215844
11.06959068
11.06701879
11.06444285
11.06186294
11.0592791
11.05669138
11.05409979
11.05150433
11.048905
11.04630175
11.04369457
11.04108341
11.03846823
11.03584901
11.03322571
11.03059833
11.02796687
11.02533135
11.02269181
11.02004829
11.01740087
11.0147496
11.01209458
11.00943589
11.00677362
11.00410786
11.00143867
10.99876614
10.99609031
10.99341124
10.99072895
10.98804347
10.98535481
10.98266295
10.9799679
10.97726964
10.97456815
10.97186343
10.96915546
10.96644424
10.96372978
10.9610121
10.95829122
10.95556719
10.95284004
10.95010983
10.94737662
10.94464046
10.94190143
10.93915958
10.93641496
10.93366761
10.93091757
10.92816487
10.92540952
10.92265153
10.9198909
10.91712762
10.91436168
10.91159306
10.90882174
10.90604772
10.90327098
10.90049152
10.89770936
10.89492449
10.89213695
10.88934677
10.88655399
10.88375865
10.88096079
10.87816047
10.87535775
10.87255265
10.86974524
10.86693555
10.86412362
10.86130946
10.8584931
10.85567455
10.85285382
10.85003091
10.84720581
10.84437853
10.84154906
10.83871739
10.83588354
10.83304749
10.83020926
10.82736887
10.82452633
10.82168168
10.81883493
10.81598613
10.81313531
10.81028251
10.80742776
10.80457111
10.80171259
10.79885222
10.79599004
10.79312607
10.79026032
10.78739279
10.78452351
10.78165247
10.77877968
10.77590512
10.77302881
10.77015074
10.7672709
10.76438932
10.76150598
10.75862091
10.75573413
10.75284564
10.74995547
10.74706366
10.74417022
10.7412752
10.73837862
10.73548051
10.7325809
10.72967982
10.72677729
10.72387333
10.72096797
10.71806121
10.71515306
10.71224354
10.70933265
10.70642039
10.70350677
10.70059179
10.69767545
10.69475777
10.69183874
10.68891839
10.68599673
10.68307376
10.68014952
10.67722401
10.67429727
10.67136932
10.66844018
10.66550987
10.66257842
10.65964585
10.65671217
10.65377742
10.65084159
10.6479047
10.64496677
10.6420278
10.6390878
10.63614678
10.63320474
10.63026168
10.62731762
10.62437256
10.62142651
10.61847949
10.6155315
10.61258255
10.60963268
10.60668189
10.6037302
10.60077764
10.59782422
10.59486997
10.5919149
10.58895904
10.5860024
10.583045
10.58008686
10.57712798
10.57416837
10.57120806
10.56824704
10.56528532
10.56232291
10.55935982
10.55639605
10.55343161
10.55046651
10.54750076
10.54453437
10.54156736
10.53859973
10.53563151
10.5326627
10.52969334
10.52672343
10.52375299
10.52078205
10.51781062
10.51483872
10.51186636
10.50889356
10.50592033
10.5029467
10.49997266
10.49699823
10.49402343
10.49104825
10.48807272
10.48509683
10.48212061
10.47914406
10.47616719
10.47319001
10.47021254
10.46723479
10.46425677
10.4612785
10.4583
10.45532127
10.45234234
10.44936322
10.44638393
10.44340448
10.44042489
10.43744516
10.43446532
10.43148538
10.42850534
10.42552521
10.42254502
10.41956476
10.41658445
10.4136041
10.41062371
10.4076433
10.40466288
10.40168247
10.39870206
10.39572168
10.39274133
10.38976104
10.38678081
10.38380067
10.38082062
10.37784068
10.37486087
10.37188119
10.36890168
10.36592233
10.36294317
10.35996421
10.35698547
10.35400695
10.35102867
10.34805064
10.34507288
10.3420954
10.33911821
10.33614133
10.33316477
10.33018855
10.32721267
10.32423716
10.32126202
10.31828728
10.31531295
10.31233904
10.30936557
10.30639254
10.30341998
10.3004479
10.29747631
10.29450523
10.29153465
10.2885646
10.28559509
10.28262612
10.2796577
10.27668985
10.27372257
10.27075588
10.26778977
10.26482427
10.26185939
10.25889513
10.25593151
10.25296854
10.25000624
10.24704461
10.24408369
10.24112348
10.238164
10.23520527
10.23224732
10.22929015
10.22633378
10.22337825
10.22042356
10.21746974
10.21451681
10.21156478
10.20861368
10.20566352
10.20271432
10.19976611
10.19681889
10.19387268
10.19092751
10.18798339
10.18504034
10.18209837
10.1791575
10.17621775
10.17327912
10.17034165
10.16740534
10.16447021
10.16153628
10.15860355
10.15567206
10.1527418
10.14981281
10.14688508
10.14395865
10.14103351
10.1381097
10.13518722
10.13226609
10.12934633
10.12642794
10.12351096
10.12059539
10.11768125
10.11476855
10.11185732
10.10894758
10.10603933
10.10313261
10.10022742
10.09732378
10.09442173
10.09152126
10.08862241
10.0857252
10.08282963
10.07993574
10.07704353
10.07415304
10.07126427
10.06837726
10.06549201
10.06260855
10.05972689
10.05684706
10.05396908
10.05109296
10.04821872
10.04534639
10.04247599
10.03960753
10.03674103
10.03387653
10.03101404
10.02815357
10.02529517
10.02243884
10.01958461
10.01673251
10.01388255
10.01103477
10.00818918
10.00534582
10.00250471
9.999665867
9.996829327
9.993995113
9.991163252
9.98833377
9.985506694
9.982682051
9.979859869
9.977040174
9.974222995
9.971408359
9.968596294
9.965786827
9.962979987
9.960175801
9.957374297
9.954575502
9.951779446
9.948986157
9.946195661
9.943407988
9.940623166
9.937841224
9.935062191
9.932286096
9.929512969
9.926742839
9.923975738
9.921211696
9.918450744
9.915692916
9.912938242
9.910186758
9.907438496
9.904693492
9.901951779
9.899213394
9.896478373
9.893746752
9.891018569
9.888293861
9.885572666
9.882855023
9.88014097
9.877430547
9.874723792
9.872020747
9.869321451
9.866625944
9.863934268
9.861246464
9.858562574
9.85588264
9.853206706
9.850534813
9.847867007
9.845203331
9.84254383
9.83988855
9.837237538
9.834590839
9.831948502
9.829310574
9.826677103
9.82404814
9.821423734
9.818803936
9.816188796
9.813578367
9.810972701
9.80837185
9.805775869
9.803184812
9.800598735
9.798017692
9.795441742
9.792870941
9.790305348
9.787745023
9.785190026
9.782640418
9.780096261
9.77755762
9.775024559
9.772497143
9.76997544
9.767459519
9.764949447
9.762445297
9.759947141
9.75745505
9.754969102
9.75248937
9.750015933
9.74754887
9.745088259
9.742634184
9.740186727
9.737745973
9.735312007
9.732884916
9.730464791
9.72805172
9.725645797
9.723247115
9.72085577
9.718471859
9.71609548
9.713726734
9.711365724
9.709012554
9.706667331
9.704330162
9.702001157
9.69968043
9.697368094
9.695064266
9.692769065
9.690482612
9.688205031
9.685936448
9.683676992
9.681426794
9.679185988
9.67695471
9.674733102
9.672521306
9.670319468
9.668127738
9.665946268
9.663775214
9.661614737
9.659464999
9.657326168
9.655198416
9.653081918
9.650976853
9.648883405
9.646801764
9.644732121
9.642674675
9.64062963
9.638597192
9.636577576
9.634571
9.63257769
9.630597875
9.628631794
9.626679688
9.624741808
9.622818411
9.620909759
9.619016125
9.617137785
9.615275027
9.613428145
9.611597442
9.609783229
9.607985826
9.606205565
9.604442783
9.602697832
9.600971072
9.599262873
9.59757362
9.595903707
9.594253542
9.592623544
9.591014149
9.589425804
9.587858973
9.586314132
9.584791776
9.583292416
9.581816579
9.58036481
9.578937674
9.577535753
9.576159653
9.574809997
9.573487435
9.572192637
9.570926301
9.569689152
9.568481942
9.567305456
9.566160514
9.565047971
9.563968723
9.562923709
9.561913915
9.560940378
9.560004187
9.559106485
9.558248469
9.557431384
9.556656516
9.555925184
9.555238728
9.55459853
9.554006087
9.553463438
9.552974768
9.552551328
9.552226558
9.552052779
9.552014257
9.552015252
9.552022281
9.552049089
9.552112178
9.552226316
9.552404678
9.55265846
9.552996904
9.553428134
9.553959664
9.554598707
9.55535229
9.5562273
9.557233031
9.558397159
9.559831313
9.561908837
9.565742498
9.574601716
9.59813203
9.664137461
9.846679571
10.28694851
10.93830727
11.23265923
11.26027932
11.26558967
11.27104053
11.27860173
11.28654196
11.29293901
11.29817155
11.30326908
11.30859532
11.31386574
11.31874366
11.32323926
11.32753447
11.33172198
11.3357686
11.33961919
11.3432742
11.34676936
11.35012882
11.35335331
11.35643735
11.35938421
11.3622037
11.36490407
11.36748916
11.36996122
11.3723237
11.37458112
11.37673766
11.37879663
11.3807609
11.38263345
11.38441729
11.38611529
11.38773005
11.38926403
11.39071957
11.39209898
11.39340443
11.39463799
11.39580165
11.39689735
11.39792696
11.39889232
11.39979521
11.40063739
11.40142061
11.40214661
11.40281717
11.40343416
11.40399964
11.4045159
11.40498516
11.40540789
11.40577843
11.4060649
11.40622716
11.40628828
11.40629345
11.40628623
11.40627407
11.4062567
11.40622958
11.40618564
11.40611727
11.40601704
11.40587867
11.40569786
11.40547243
11.40520198
11.40488713
11.40452889
11.40412829
11.40368644
11.40320467
11.40268459
11.402128
11.40153669
11.40091227
11.40025614
11.39956952
11.39885354
11.39810928
11.39733766
11.39653939
11.39571492
11.39486434
11.39398752
11.39308417
11.39215393
11.3911965
11.3902117
11.38919949
11.38815996
11.38709338
11.38600016
11.38488082
11.38373594
11.38256616
11.3813721
11.38015436
11.37891346
11.37764987
11.37636398
11.37505612
11.37372659
11.37237564
11.37100353
11.3696105
11.36819678
11.36676262
11.36530823
11.36383386
11.36233972
11.360826
11.35929291
11.35774062
11.35616932
11.35457919
11.3529704
11.35134315
11.34969764
11.34803407
11.34635266
11.34465361
11.34293714
11.34120348
11.33945282
11.33768538
11.33590135
11.33410092
11.33228427
11.33045159
11.32860305
11.32673883
11.3248591
11.32296402
11.32105376
11.3191285
11.31718838
11.31523358
11.31326425
11.31128053
11.30928257
11.30727051