/*--------------------------------*- C++ -*----------------------------------*\
| =========                 |                                                 |
| \\      /  F ield         | OpenFOAM: The Open Source CFD Toolbox           |
|  \\    /   O peration     | Version:  v1812                                 |
|   \\  /    A nd           | Web:      www.OpenFOAM.com                      |
|    \\/     M anipulation  |                                                 |
\*---------------------------------------------------------------------------*/
FoamFile
{
    version     2.0;
    format      ascii;
    class       surfaceScalarField;
    location    "1.8";
    object      phi;
}
// * * * * * * * * * * * * * * * * * * * * * * * * * * * * * * * * * * * * * //

dimensions      [1 0 -1 0 0 0 0];
oriented        oriented;


internalField   nonuniform List<scalar> 
7999
(
40.56737259
40.56737259
40.56737259
40.56737259
40.56737259
40.56737259
40.56737259
40.56737259
40.56737259
40.56737259
40.56737259
40.56737259
40.56737259
40.56737259
40.56737259
40.56737259
40.56737259
40.56737259
40.56737259
40.56737259
40.56737259
40.56737259
40.56737259
40.56737259
40.56737259
40.56737259
40.56737259
40.56737259
40.56737259
40.56737259
40.56737259
40.56737259
40.56737259
40.56737259
40.56737259
40.56737259
40.56737259
40.56737259
40.56737259
40.56737259
40.56737259
40.56737259
40.56737259
40.56737259
40.56737259
40.56737259
40.56737259
40.56737259
40.56737259
40.56737259
40.56737259
40.56737259
40.56737259
40.56737259
40.56737259
40.56737259
40.56737259
40.56737259
40.56737259
40.56737259
40.56737259
40.56737259
40.56737259
40.56737259
40.56737259
40.56737259
40.56737259
40.56737259
40.56737259
40.56737259
40.56737259
40.56737259
40.56737259
40.56737259
40.56737259
40.56737259
40.56737259
40.56737259
40.56737259
40.56737259
40.56737259
40.56737259
40.56737259
40.56737259
40.56737259
40.56737259
40.56737259
40.56737259
40.56737259
40.56737259
40.56737259
40.56737259
40.56737259
40.56737259
40.56737259
40.56737259
40.56737259
40.56737259
40.56737259
40.56737259
40.56737259
40.56737259
40.56737259
40.56737259
40.56737259
40.56737259
40.56737259
40.56737259
40.56737259
40.56737259
40.56737259
40.56737259
40.56737259
40.56737259
40.56737259
40.56737259
40.56737259
40.56737259
40.56737259
40.56737259
40.56737259
40.56737259
40.56737259
40.56737259
40.56737259
40.56737259
40.56737259
40.56737259
40.56737259
40.56737259
40.56737259
40.56737259
40.56737259
40.56737259
40.56737259
40.56737259
40.56737259
40.56737259
40.56737259
40.56737259
40.56737259
40.56737259
40.56737259
40.56737259
40.56737259
40.56737259
40.56737259
40.56737259
40.56737259
40.56737259
40.56737259
40.56737259
40.56737259
40.56737259
40.56737259
40.56737259
40.56737259
40.56737259
40.56737259
40.56737259
40.56737259
40.56737259
40.56737259
40.56737259
40.56737259
40.56737259
40.56737259
40.56737259
40.56737259
40.56737259
40.56737259
40.56737259
40.56737259
40.56737259
40.56737259
40.56737259
40.56737259
40.56737259
40.56737259
40.56737259
40.56737259
40.56737259
40.56737259
40.56737259
40.56737259
40.56737259
40.56737259
40.56737259
40.56737259
40.56737259
40.56737259
40.56737259
40.56737259
40.56737259
40.56737259
40.56737259
40.56737259
40.56737259
40.56737259
40.56737259
40.56737259
40.56737259
40.56737259
40.56737259
40.56737259
40.56737259
40.56737259
40.56737259
40.56737259
40.56737259
40.56737259
40.56737259
40.56737259
40.56737259
40.56737259
40.56737259
40.56737259
40.56737259
40.56737259
40.56737259
40.56737259
40.56737259
40.56737259
40.56737259
40.56737259
40.56737259
40.56737259
40.56737259
40.56737259
40.56737259
40.56737259
40.56737259
40.56737259
40.56737259
40.56737259
40.56737259
40.56737259
40.56737259
40.56737259
40.56737259
40.56737259
40.56737259
40.56737259
40.56737259
40.56737259
40.56737259
40.56737259
40.56737259
40.56737259
40.56737259
40.56737259
40.56737259
40.56737259
40.56737259
40.56737259
40.56737259
40.56737259
40.56737259
40.56737259
40.56737259
40.56737259
40.56737259
40.56737259
40.56737259
40.56737259
40.56737259
40.56737259
40.56737259
40.56737259
40.56737259
40.56737259
40.56737259
40.56737259
40.56737259
40.56737259
40.56737259
40.56737259
40.56737259
40.56737259
40.56737259
40.56737259
40.56737259
40.56737259
40.56737259
40.56737259
40.56737259
40.56737259
40.56737259
40.56737259
40.56737259
40.56737259
40.56737259
40.56737259
40.56737259
40.56737259
40.56737259
40.56737259
40.56737259
40.56737259
40.56737259
40.56737259
40.56737259
40.56737259
40.56737259
40.56737259
40.56737259
40.56737259
40.56737259
40.56737259
40.56737259
40.56737259
40.56737259
40.56737259
40.56737259
40.56737259
40.56737259
40.56737259
40.56737259
40.56737259
40.56737259
40.56737259
40.56737259
40.56737259
40.56737259
40.56737259
40.56737259
40.56737259
40.56737259
40.56737259
40.56737259
40.56737259
40.56737259
40.56737259
40.56737259
40.56737259
40.56737259
40.56737259
40.56737259
40.56737259
40.56737259
40.56737259
40.56737259
40.56737259
40.56737259
40.56737259
40.56737259
40.56737259
40.56737259
40.56737259
40.56737259
40.56737259
40.56737259
40.56737259
40.56737259
40.56737259
40.56737259
40.56737259
40.56737259
40.56737259
40.56737259
40.56737259
40.56737259
40.56737259
40.56737259
40.56737259
40.56737259
40.56737259
40.56737259
40.56737259
40.56737259
40.56737259
40.56737259
40.56737259
40.56737259
40.56737259
40.56737259
40.56737259
40.56737259
40.56737259
40.56737259
40.56737259
40.56737259
40.56737259
40.56737259
40.56737259
40.56737259
40.56737259
40.56737259
40.56737259
40.56737259
40.56737259
40.56737259
40.56737259
40.56737259
40.56737259
40.56737259
40.56737259
40.56737259
40.56737259
40.56737259
40.56737259
40.56737259
40.56737259
40.56737259
40.56737259
40.56737259
40.56737259
40.56737259
40.56737259
40.56737259
40.56737259
40.56737259
40.56737259
40.56737259
40.56737259
40.56737259
40.56737259
40.56737259
40.56737259
40.56737259
40.56737259
40.56737259
40.56737259
40.56737259
40.56737259
40.56737259
40.56737259
40.56737259
40.56737259
40.56737259
40.56737259
40.56737259
40.56737259
40.56737259
40.56737259
40.56737259
40.56737259
40.56737259
40.56737259
40.56737259
40.56737259
40.56737259
40.56737259
40.56737259
40.56737259
40.56737259
40.56737259
40.56737259
40.56737259
40.56737259
40.56737259
40.56737259
40.56737259
40.56737259
40.56737259
40.56737259
40.56737259
40.56737259
40.56737259
40.56737259
40.56737259
40.56737259
40.56737259
40.56737259
40.56737259
40.56737259
40.56737259
40.56737259
40.56737259
40.56737259
40.56737259
40.56737259
40.56737259
40.56737259
40.56737259
40.56737259
40.56737259
40.56737259
40.56737259
40.56737259
40.56737259
40.56737259
40.56737259
40.56737259
40.56737259
40.56737259
40.56737259
40.56737259
40.56737259
40.56737259
40.56737259
40.56737259
40.56737259
40.56737259
40.56737259
40.56737259
40.56737259
40.56737259
40.56737259
40.56737259
40.56737259
40.56737259
40.56737259
40.56737259
40.56737259
40.56737259
40.56737259
40.56737259
40.56737259
40.56737259
40.56737259
40.56737259
40.56737259
40.56737259
40.56737259
40.56737259
40.56737259
40.56737259
40.56737259
40.56737259
40.56737259
40.56737259
40.56737259
40.56737259
40.56737259
40.56737259
40.56737259
40.56737259
40.56737259
40.56737259
40.56737259
40.56737259
40.56737259
40.56737259
40.56737259
40.56737259
40.56737259
40.56737259
40.56737259
40.56737259
40.56737259
40.56737259
40.56737259
40.56737259
40.56737259
40.56737259
40.56737259
40.56737259
40.56737259
40.56737259
40.56737259
40.56737259
40.56737259
40.56737259
40.56737259
40.56737259
40.56737259
40.56737259
40.56737259
40.56737259
40.56737259
40.56737259
40.56737259
40.56737259
40.56737259
40.56737259
40.56737259
40.56737259
40.56737259
40.56737259
40.56737259
40.56737259
40.56737259
40.56737259
40.56737259
40.56737259
40.56737259
40.56737259
40.56737259
40.56737259
40.56737259
40.56737259
40.56737259
40.56737259
40.56737259
40.56737259
40.56737259
40.56737259
40.56737259
40.56737259
40.56737259
40.56737259
40.56737259
40.56737259
40.56737259
40.56737259
40.56737259
40.56737259
40.56737259
40.56737259
40.56737259
40.56737259
40.56737259
40.56737259
40.56737259
40.56737259
40.56737259
40.56737259
40.56737259
40.56737259
40.56737259
40.56737259
40.56737259
40.56737259
40.56737259
40.56737259
40.56737259
40.56737259
40.56737259
40.56737259
40.56737259
40.56737259
40.56737259
40.56737259
40.56737259
40.56737259
40.56737259
40.56737259
40.56737259
40.56737259
40.56737259
40.56737259
40.56737259
40.56737259
40.56737259
40.56737259
40.56737259
40.56737259
40.56737259
40.56737259
40.56737259
40.56737259
40.56737259
40.56737259
40.56737259
40.56737259
40.56737259
40.56737259
40.56737259
40.56737259
40.56737259
40.56737259
40.56737259
40.56737259
40.56737259
40.56737259
40.56737259
40.56737259
40.56737259
40.56737259
40.56737259
40.56737259
40.56737259
40.56737259
40.56737259
40.56737259
40.56737259
40.56737259
40.56737259
40.56737259
40.56737259
40.56737259
40.56737259
40.56737259
40.56737259
40.56737259
40.56737259
40.56737259
40.56737259
40.56737259
40.56737259
40.56737259
40.56737259
40.56737259
40.56737259
40.56737259
40.56737259
40.56737259
40.56737259
40.56737259
40.56737259
40.56737259
40.56737259
40.56737259
40.56737259
40.56737259
40.56737259
40.56737259
40.56737259
40.56737259
40.56737259
40.56737259
40.56737259
40.56737259
40.56737259
40.56737259
40.56737259
40.56737259
40.56737259
40.56737259
40.56737259
40.56737259
40.56737259
40.56737259
40.56737259
40.56737259
40.56737259
40.56737259
40.56737259
40.56737259
40.56737259
40.56737259
40.56737259
40.56737259
40.56737259
40.56737259
40.56737259
40.56737259
40.56737259
40.56737259
40.56737259
40.56737259
40.56737259
40.56737259
40.56737259
40.56737259
40.56737259
40.56737259
40.56737259
40.56737259
40.56737259
40.56737259
40.56737259
40.56737259
40.56737259
40.56737259
40.56737259
40.56737259
40.56737259
40.56737259
40.56737259
40.56737259
40.56737259
40.56737259
40.56737259
40.56737259
40.56737259
40.56737259
40.56737259
40.56737259
40.56737259
40.56737259
40.56737259
40.56737259
40.56737259
40.56737259
40.56737259
40.56737259
40.56737259
40.56737259
40.56737259
40.56737259
40.56737259
40.56737259
40.56737259
40.56737259
40.56737259
40.56737259
40.56737259
40.56737259
40.56737259
40.56737259
40.56737259
40.56737259
40.56737259
40.56737259
40.56737259
40.56737259
40.56737259
40.56737259
40.56737259
40.56737259
40.56737259
40.56737259
40.56737259
40.56737259
40.56737259
40.56737259
40.56737259
40.56737259
40.56737259
40.56737259
40.56737259
40.56737259
40.56737259
40.56737259
40.56737259
40.56737259
40.56737259
40.56737259
40.56737259
40.56737259
40.56737259
40.56737259
40.56737259
40.56737259
40.56737259
40.56737259
40.56737259
40.56737259
40.56737259
40.56737259
40.56737259
40.56737259
40.56737259
40.56737259
40.56737259
40.56737259
40.56737259
40.56737259
40.56737259
40.56737259
40.56737259
40.56737259
40.56737259
40.56737259
40.56737259
40.56737259
40.56737259
40.56737259
40.56737259
40.56737259
40.56737259
40.56737259
40.56737259
40.56737259
40.56737259
40.56737259
40.56737259
40.56737259
40.56737259
40.56737259
40.56737259
40.56737259
40.56737259
40.56737259
40.56737259
40.56737259
40.56737259
40.56737259
40.56737259
40.56737259
40.56737259
40.56737259
40.56737259
40.56737259
40.56737259
40.56737259
40.56737259
40.56737259
40.56737259
40.56737259
40.56737259
40.56737259
40.56737259
40.56737259
40.56737259
40.56737259
40.56737259
40.56737259
40.56737259
40.56737259
40.56737259
40.56737259
40.56737259
40.56737259
40.56737259
40.56737259
40.56737259
40.56737259
40.56737259
40.56737259
40.56737259
40.56737259
40.56737259
40.56737259
40.56737259
40.56737259
40.56737259
40.56737259
40.56737259
40.56737259
40.56737259
40.56737259
40.56737259
40.56737259
40.56737259
40.56737259
40.56737259
40.56737259
40.56737259
40.56737259
40.56737259
40.56737259
40.56737259
40.56737259
40.56737259
40.56737259
40.56737259
40.56737259
40.56737259
40.56737259
40.56737259
40.56737259
40.56737259
40.56737259
40.56737259
40.56737259
40.56737259
40.56737259
40.56737259
40.56737259
40.56737259
40.56737259
40.56737259
40.56737259
40.56737259
40.56737259
40.56737259
40.56737259
40.56737259
40.56737259
40.56737259
40.56737259
40.56737259
40.56737259
40.56737259
40.56737259
40.56737259
40.56737259
40.56737259
40.56737259
40.56737259
40.56737259
40.56737259
40.56737259
40.56737259
40.56737259
40.56737259
40.56737259
40.56737259
40.56737259
40.56737259
40.56737259
40.56737259
40.56737259
40.56737259
40.56737259
40.56737259
40.56737259
40.56737259
40.56737259
40.56737259
40.56737259
40.56737259
40.56737259
40.56737259
40.56737259
40.56737259
40.56737259
40.56737259
40.56737259
40.56737259
40.56737259
40.56737259
40.56737259
40.56737259
40.56737259
40.56737259
40.56737259
40.56737259
40.56737259
40.56737259
40.56737259
40.56737259
40.56737259
40.56737259
40.56737259
40.56737259
40.56737259
40.56737259
40.56737259
40.56737259
40.56737259
40.56737259
40.56737259
40.56737259
40.56737259
40.56737259
40.56737259
40.56737259
40.56737259
40.56737259
40.56737259
40.56737259
40.56737259
40.56737259
40.56737259
40.56737259
40.56737259
40.56737259
40.56737259
40.56737259
40.56737259
40.56737259
40.56737259
40.56737259
40.56737259
40.56737259
40.56737259
40.56737259
40.56737259
40.56737259
40.56737259
40.56737259
40.56737259
40.56737259
40.56737259
40.56737259
40.56737259
40.56737259
40.56737259
40.56737259
40.56737259
40.56737259
40.56737259
40.56737259
40.56737259
40.56737259
40.56737259
40.56737259
40.56737259
40.56737259
40.56737259
40.56737259
40.56737259
40.56737259
40.56737259
40.56737259
40.56737259
40.56737259
40.56737259
40.56737259
40.56737259
40.56737259
40.56737259
40.56737259
40.56737259
40.56737259
40.56737259
40.56737259
40.56737259
40.56737259
40.56737259
40.56737259
40.56737259
40.56737259
40.56737259
40.56737259
40.56737259
40.56737259
40.56737259
40.56737259
40.56737259
40.56737259
40.56737259
40.56737259
40.56737259
40.56737259
40.56737259
40.56737259
40.56737259
40.56737259
40.56737259
40.56737259
40.56737259
40.56737259
40.56737259
40.56737259
40.56737259
40.56737259
40.56737259
40.56737259
40.56737259
40.56737259
40.56737259
40.56737259
40.56737259
40.56737259
40.56737259
40.56737259
40.56737259
40.56737259
40.56737259
40.56737259
40.56737259
40.56737259
40.56737259
40.56737259
40.56737259
40.56737259
40.56737259
40.56737259
40.56737259
40.56737259
40.56737259
40.56737259
40.56737259
40.56737259
40.56737259
40.56737259
40.56737259
40.56737259
40.56737259
40.56737259
40.56737259
40.56737259
40.56737259
40.56737259
40.56737259
40.56737259
40.56737259
40.56737259
40.56737259
40.56737259
40.56737259
40.56737259
40.56737259
40.56737259
40.56737259
40.56737259
40.56737259
40.56737259
40.56737259
40.56737259
40.56737259
40.56737259
40.56737259
40.56737259
40.56737259
40.56737259
40.56737259
40.56737259
40.56737259
40.56737259
40.56737259
40.56737259
40.56737259
40.56737259
40.56737259
40.56737259
40.56737259
40.56737259
40.56737259
40.56737259
40.56737259
40.56737259
40.56737259
40.56737259
40.56737259
40.56737259
40.56737259
40.56737259
40.56737259
40.56737259
40.56737259
40.56737259
40.56737259
40.56737259
40.56737259
40.56737259
40.56737259
40.56737259
40.56737259
40.56737259
40.56737259
40.56737259
40.56737259
40.56737259
40.56737259
40.56737259
40.56737259
40.56737259
40.56737259
40.56737259
40.56737259
40.56737259
40.56737259
40.56737259
40.56737259
40.56737259
40.56737259
40.56737259
40.56737259
40.56737259
40.56737259
40.56737259
40.56737259
40.56737259
40.56737259
40.56737259
40.56737259
40.56737259
40.56737259
40.56737259
40.56737259
40.56737259
40.56737259
40.56737259
40.56737259
40.56737259
40.56737259
40.56737259
40.56737259
40.56737259
40.56737259
40.56737259
40.56737259
40.56737259
40.56737259
40.56737259
40.56737259
40.56737259
40.56737259
40.56737259
40.56737259
40.56737259
40.56737259
40.56737259
40.56737259
40.56737259
40.56737259
40.56737259
40.56737259
40.56737259
40.56737259
40.56737259
40.56737259
40.56737259
40.56737259
40.56737259
40.56737259
40.56737259
40.56737259
40.56737259
40.56737259
40.56737259
40.56737259
40.56737259
40.56737259
40.56737259
40.56737259
40.56737259
40.56737259
40.56737259
40.56737259
40.56737259
40.56737259
40.56737259
40.56737259
40.56737259
40.56737259
40.56737259
40.56737259
40.56737259
40.56737259
40.56737259
40.56737259
40.56737259
40.56737259
40.56737259
40.56737259
40.56737259
40.56737259
40.56737259
40.56737259
40.56737259
40.56737259
40.56737259
40.56737259
40.56737259
40.56737259
40.56737259
40.56737259
40.56737259
40.56737259
40.56737259
40.56737259
40.56737259
40.56737259
40.56737259
40.56737259
40.56737259
40.56737259
40.56737259
40.56737259
40.56737259
40.56737259
40.56737259
40.56737259
40.56737259
40.56737259
40.56737259
40.56737259
40.56737259
40.56737259
40.56737259
40.56737259
40.56737259
40.56737259
40.56737259
40.56737259
40.56737259
40.56737259
40.56737259
40.56737259
40.56737259
40.56737259
40.56737259
40.56737259
40.56737259
40.56737259
40.56737259
40.56737259
40.56737259
40.56737259
40.56737259
40.56737259
40.56737259
40.56737259
40.56737259
40.56737259
40.56737259
40.56737259
40.56737259
40.56737259
40.56737259
40.56737259
40.56737259
40.56737259
40.56737259
40.56737259
40.56737259
40.56737259
40.56737259
40.56737259
40.56737259
40.56737259
40.56737259
40.56737259
40.56737259
40.56737259
40.56737259
40.56737259
40.56737259
40.56737259
40.56737259
40.56737259
40.56737259
40.56737259
40.56737259
40.56737259
40.56737259
40.56737259
40.56737259
40.56737259
40.56737259
40.56737259
40.56737259
40.56737259
40.56737259
40.56737259
40.56737259
40.56737259
40.56737259
40.56737259
40.56737259
40.56737259
40.56737259
40.56737259
40.56737259
40.56737259
40.56737259
40.56737259
40.56737259
40.56737259
40.56737259
40.56737259
40.56737259
40.56737259
40.56737259
40.56737259
40.56737259
40.56737259
40.56737259
40.56737259
40.56737259
40.56737259
40.56737259
40.56737259
40.56737259
40.56737259
40.56737259
40.56737259
40.56737259
40.56737259
40.56737259
40.56737259
40.56737259
40.56737259
40.56737259
40.56737259
40.56737259
40.56737259
40.56737259
40.56737259
40.56737259
40.56737259
40.56737259
40.56737259
40.56737259
40.56737259
40.56737259
40.56737259
40.56737259
40.56737259
40.56737259
40.56737259
40.56737259
40.56737259
40.56737259
40.56737259
40.56737259
40.56737259
40.56737259
40.56737259
40.56737259
40.56737259
40.56737259
40.56737259
40.56737259
40.56737259
40.56737259
40.56737259
40.56737259
40.56737259
40.56737259
40.56737259
40.56737259
40.56737259
40.56737259
40.56737259
40.56737259
40.56737259
40.56737259
40.56737259
40.56737259
40.56737259
40.56737259
40.56737259
40.56737259
40.56737259
40.56737259
40.56737259
40.56737259
40.56737259
40.56737259
40.56737259
40.56737259
40.56737259
40.56737259
40.56737259
40.56737259
40.56737259
40.56737259
40.56737259
40.56737259
40.56737259
40.56737259
40.56737259
40.56737259
40.56737259
40.56737259
40.56737259
40.56737259
40.56737259
40.56737259
40.56737259
40.56737259
40.56737259
40.56737259
40.56737259
40.56737259
40.56737259
40.56737259
40.56737259
40.56737259
40.56737259
40.56737259
40.56737259
40.56737259
40.56737259
40.56737259
40.56737259
40.56737259
40.56737259
40.56737259
40.56737259
40.56737259
40.56737259
40.56737259
40.56737259
40.56737259
40.56737259
40.56737259
40.56737259
40.56737259
40.56737259
40.56737259
40.56737259
40.56737259
40.56737259
40.56737259
40.56737259
40.56737259
40.56737259
40.56737259
40.56737259
40.56737259
40.56737259
40.56737259
40.56737259
40.56737259
40.56737259
40.56737259
40.56737259
40.56737259
40.56737259
40.56737259
40.56737259
40.56737259
40.56737259
40.56737259
40.56737259
40.56737259
40.56737259
40.56737259
40.56737259
40.56737259
40.56737259
40.56737259
40.56737259
40.56737259
40.56737259
40.56737259
40.56737259
40.56737259
40.56737259
40.56737259
40.56737259
40.56737259
40.56737259
40.56737259
40.56737259
40.56737259
40.56737259
40.56737259
40.56737259
40.56737259
40.56737259
40.56737259
40.56737259
40.56737259
40.56737259
40.56737259
40.56737259
40.56737259
40.56737259
40.56737259
40.56737259
40.56737259
40.56737259
40.56737259
40.56737259
40.56737259
40.56737259
40.56737259
40.56737259
40.56737259
40.56737259
40.56737259
40.56737259
40.56737259
40.56737259
40.56737259
40.56737259
40.56737259
40.56737259
40.56737259
40.56737259
40.56737259
40.56737259
40.56737259
40.56737259
40.56737259
40.56737259
40.56737259
40.56737259
40.56737259
40.56737259
40.56737259
40.56737259
40.56737259
40.56737259
40.56737259
40.56737259
40.56737259
40.56737259
40.56737259
40.56737259
40.56737259
40.56737259
40.56737259
40.56737259
40.56737259
40.56737259
40.56737259
40.56737259
40.56737259
40.56737259
40.56737259
40.56737259
40.56737259
40.56737259
40.56737259
40.56737259
40.56737259
40.56737259
40.56737259
40.56737259
40.56737259
40.56737259
40.56737259
40.56737259
40.56737259
40.56737259
40.56737259
40.56737259
40.56737259
40.56737259
40.56737259
40.56737259
40.56737259
40.56737259
40.56737259
40.56737259
40.56737259
40.56737259
40.56737259
40.56737259
40.56737259
40.56737259
40.56737259
40.56737259
40.56737259
40.56737259
40.56737259
40.56737259
40.56737259
40.56737259
40.56737259
40.56737259
40.56737259
40.56737259
40.56737259
40.56737259
40.56737259
40.56737259
40.56737259
40.56737259
40.56737259
40.56737259
40.56737259
40.56737259
40.56737259
40.56737259
40.56737259
40.56737259
40.56737259
40.56737259
40.56737259
40.56737259
40.56737259
40.56737259
40.56737259
40.56737259
40.56737259
40.56737259
40.56737259
40.56737259
40.56737259
40.56737259
40.56737259
40.56737259
40.56737259
40.56737259
40.56737259
40.56737259
40.56737259
40.56737259
40.56737258
40.56737258
40.56737258
40.56737257
40.56737257
40.56737256
40.56737255
40.56737253
40.5673725
40.56737247
40.56737242
40.56737236
40.56737227
40.56737214
40.56737197
40.56737174
40.56737142
40.567371
40.56737042
40.56736965
40.56736862
40.56736725
40.56736544
40.56736306
40.56735992
40.56735584
40.56735052
40.56734365
40.56733481
40.56732347
40.56730902
40.5672907
40.56726758
40.56723855
40.56720232
40.56715732
40.56710176
40.56703353
40.56695022
40.56684909
40.56672706
40.56658069
40.56640618
40.56619941
40.56595594
40.56567105
40.56533981
40.56495713
40.56451785
40.56401681
40.56344897
40.5628095
40.56209389
40.56129802
40.5604183
40.55945168
40.55839577
40.55724883
40.55600984
40.55467845
40.55325499
40.55174042
40.55013629
40.54844466
40.54666804
40.5448093
40.54287161
40.54085837
40.53877309
40.53661941
40.53440095
40.53212134
40.52978413
40.52739277
40.52495059
40.52246078
40.51992637
40.51735024
40.51473507
40.51208342
40.50939764
40.50667995
40.50393241
40.50115692
40.49835526
40.49552906
40.49267985
40.48980902
40.48691788
40.48400761
40.48107933
40.47813407
40.47517277
40.47219629
40.46920546
40.46620103
40.46318368
40.46015406
40.45711277
40.45406036
40.45099734
40.4479242
40.44484137
40.44174928
40.43864831
40.43553882
40.43242114
40.4292956
40.42616247
40.42302206
40.41987459
40.41672034
40.41355951
40.41039232
40.40721898
40.40403967
40.40085457
40.39766386
40.39446768
40.3912662
40.38805955
40.38484787
40.38163128
40.37840992
40.37518388
40.3719533
40.36871826
40.36547887
40.36223522
40.35898741
40.35573552
40.35247964
40.34921984
40.3459562
40.3426888
40.33941771
40.33614299
40.33286471
40.32958294
40.32629774
40.32300916
40.31971728
40.31642213
40.31312378
40.30982228
40.30651769
40.30321006
40.29989943
40.29658586
40.29326939
40.28995008
40.28662797
40.28330311
40.27997555
40.27664533
40.27331251
40.26997712
40.26663922
40.26329883
40.25995598
40.25661082
40.25326386
40.24991748
40.24657139
40.24320437
40.23970112
40.23575054
40.23157486
40.23057891
40.23025302
40.2341557
40.24991447
40.29907312
40.43508356
40.74686924
41.14227506
41.22011254
41.2181536
41.22678768
41.23917384
41.24973523
41.25549252
41.25548999
41.25164663
41.2460896
41.24056183
41.23700183
41.23590202
41.23848719
41.24317908
41.24779744
41.25115434
41.25216351
41.2512192
41.24944542
41.24678149
41.24472965
41.24397877
41.24416234
41.24535916
41.24708018
41.24859258
41.24900624
41.24903163
41.24843337
41.24751193
41.24661252
41.24600483
41.24571461
41.24576309
41.24603747
41.2463598
41.2465561
41.24650183
41.24616426
41.24560335
41.24493767
41.24429534
41.24377268
41.2434102
41.24318503
41.24302831
41.2428551
41.24259458
41.24221069
41.24170799
41.24112311
41.24050741
41.23990757
41.23935177
41.23884463
41.23837106
41.23790508
41.23742071
41.23690052
41.23633951
41.23574385
41.23512605
41.23449901
41.23387114
41.23324404
41.23261328
41.23197107
41.2313098
41.23062511
41.22991728
41.22919086
41.22845274
41.22770965
41.22696619
41.22622373
41.22548064
41.22473346
41.2239783
41.22321211
41.22243331
41.2216417
41.22083785
41.22002233
41.21919524
41.21835613
41.21750438
41.21663986
41.21576338
41.21487694
41.21398335
41.21308557
41.21218581
41.21128469
41.21038084
41.20947109
41.20855118
41.20761687
41.20666505
41.20569455
41.20470647
41.20370382
41.20269079
41.20167173
41.20065015
41.19962812
41.19860607
41.19758311
41.19655763
41.19552813
41.19449383
41.19345493
41.19241259
41.19136841
41.19032377
41.18927922
41.18823404
41.18718619
41.1861326
41.18506987
41.18399499
41.18290603
41.18180263
41.180686
41.17955863
41.17842367
41.17728421
41.17614262
41.17500007
41.17385639
41.17271024
41.17155952
41.17040197
41.16923565
41.16805943
41.16687308
41.16567729
41.16447336
41.16326285
41.16204722
41.16082751
41.15960424
41.15837741
41.15714664
41.15591141
41.1546713
41.15342613
41.15217602
41.1509214
41.14966279
41.1484007
41.14713544
41.14586702
41.1445951
41.14331908
41.14203822
41.1407518
41.13945926
41.13816029
41.13685487
41.13554326
41.13422583
41.13290301
41.13157516
41.13024247
41.12890494
41.12756241
41.12621465
41.12486143
41.1235026
41.12213819
41.12076844
41.11939373
41.11801456
41.11663146
41.11524492
41.11385527
41.11246271
41.11106724
41.1096687
41.10826682
41.10686126
41.10545169
41.10403778
41.10261925
41.10119587
41.09976747
41.09833392
41.09689513
41.09545105
41.09400172
41.0925472
41.09108769
41.08962345
41.08815484
41.08668227
41.08520618
41.08372698
41.08224502
41.08076053
41.07927361
41.07778422
41.07629216
41.07479715
41.07329883
41.07179683
41.07029077
41.06878036
41.06726537
41.06574566
41.06422121
41.06269207
41.06115836
41.0596203
41.05807811
41.05653206
41.05498244
41.05342952
41.05187357
41.05031481
41.04875339
41.04718941
41.04562288
41.04405372
41.04248178
41.04090681
41.03932852
41.03774658
41.03616066
41.03457044
41.03297565
41.03137608
41.0297716
41.02816215
41.02654776
41.02492854
41.02330464
41.02167629
41.02004375
41.01840729
41.0167672
41.01512378
41.01347728
41.01182793
41.01017592
41.00852138
41.00686438
41.00520492
41.00354295
41.00187835
41.00021097
40.9985406
40.99686704
40.99519008
40.99350952
40.9918252
40.99013701
40.98844488
40.98674879
40.9850488
40.983345
40.98163752
40.97992655
40.97821227
40.97649489
40.97477462
40.97305163
40.97132609
40.96959812
40.9678678
40.96613515
40.96440016
40.96266276
40.96092285
40.95918029
40.95743492
40.95568657
40.95393509
40.95218031
40.95042212
40.94866043
40.94689518
40.94512637
40.94335403
40.94157822
40.93979905
40.93801665
40.93623115
40.9344427
40.93265145
40.93085752
40.92906104
40.92726207
40.92546069
40.92365689
40.92185066
40.92004197
40.91823073
40.91641683
40.91460018
40.91278065
40.91095812
40.90913248
40.90730365
40.90547156
40.90363616
40.90179746
40.89995547
40.89811024
40.89626185
40.8944104
40.892556
40.89069877
40.88883882
40.88697627
40.88511123
40.88324377
40.88137396
40.87950184
40.87762741
40.87575067
40.87387158
40.87199008
40.87010612
40.86821961
40.86633048
40.86443865
40.86254407
40.86064668
40.85874644
40.85684334
40.8549374
40.85302863
40.85111709
40.84920282
40.8472859
40.8453664
40.8434444
40.84151998
40.83959319
40.8376641
40.83573274
40.83379913
40.83186328
40.82992518
40.82798481
40.82604213
40.8240971
40.82214968
40.82019982
40.81824748
40.81629263
40.81433525
40.81237533
40.81041289
40.80844795
40.80648054
40.80451074
40.80253859
40.80056417
40.79858757
40.79660884
40.79462807
40.79264531
40.79066062
40.78867403
40.78668555
40.78469519
40.78270292
40.78070873
40.77871254
40.77671431
40.77471396
40.7727114
40.77070657
40.76869936
40.76668971
40.76467754
40.76266279
40.76064541
40.75862536
40.7566026
40.75457712
40.75254892
40.750518
40.74848436
40.74644804
40.74440905
40.74236741
40.74032317
40.73827634
40.73622696
40.73417506
40.73212067
40.73006381
40.72800453
40.72594285
40.7238788
40.72181243
40.71974377
40.71767288
40.71559979
40.71352455
40.71144722
40.70936785
40.70728649
40.70520319
40.70311802
40.70103101
40.6989422
40.69685165
40.69475937
40.69266539
40.69056973
40.6884724
40.6863734
40.68427273
40.68217038
40.68006633
40.67796056
40.67585305
40.67374379
40.67163275
40.6695199
40.66740523
40.66528873
40.66317039
40.66105021
40.65892817
40.6568043
40.65467859
40.65255107
40.65042174
40.64829063
40.64615775
40.64402313
40.64188678
40.63974872
40.63760896
40.6354675
40.63332436
40.63117954
40.62903304
40.62688485
40.62473497
40.6225834
40.62043013
40.61827516
40.61611847
40.61396007
40.61179996
40.60963815
40.60747464
40.60530943
40.60314255
40.60097401
40.59880383
40.59663203
40.59445862
40.59228362
40.59010706
40.58792895
40.58574931
40.58356815
40.58138549
40.57920132
40.57701567
40.57482853
40.57263991
40.57044981
40.56825823
40.56606518
40.56387066
40.56167467
40.55947721
40.5572783
40.55507795
40.55287616
40.55067295
40.54846833
40.54626232
40.54405493
40.54184619
40.5396361
40.53742468
40.53521195
40.53299792
40.53078261
40.52856601
40.52634815
40.52412902
40.52190864
40.519687
40.51746411
40.51523996
40.51301457
40.51078794
40.50856007
40.50633096
40.50410062
40.50186907
40.49963631
40.49740234
40.4951672
40.49293089
40.49069343
40.48845483
40.48621512
40.48397432
40.48173243
40.4794895
40.47724552
40.47500051
40.4727545
40.4705075
40.46825952
40.46601058
40.46376068
40.46150984
40.45925808
40.4570054
40.45475181
40.45249733
40.45024196
40.44798573
40.44572864
40.44347071