/*--------------------------------*- C++ -*----------------------------------*\
| =========                 |                                                 |
| \\      /  F ield         | OpenFOAM: The Open Source CFD Toolbox           |
|  \\    /   O peration     | Version:  v1812                                 |
|   \\  /    A nd           | Web:      www.OpenFOAM.com                      |
|    \\/     M anipulation  |                                                 |
\*---------------------------------------------------------------------------*/
FoamFile
{
    version     2.0;
    format      ascii;
    class       volScalarField;
    location    "1.8";
    object      rho;
}
// * * * * * * * * * * * * * * * * * * * * * * * * * * * * * * * * * * * * * //

dimensions      [1 -3 0 0 0 0 0];


internalField   nonuniform List<scalar> 
8000
(
3.857139545
3.857139545
3.857139545
3.857139545
3.857139545
3.857139545
3.857139545
3.857139545
3.857139545
3.857139545
3.857139545
3.857139545
3.857139545
3.857139545
3.857139545
3.857139545
3.857139545
3.857139545
3.857139545
3.857139545
3.857139545
3.857139545
3.857139545
3.857139545
3.857139545
3.857139545
3.857139545
3.857139545
3.857139545
3.857139545
3.857139545
3.857139545
3.857139545
3.857139545
3.857139545
3.857139545
3.857139545
3.857139545
3.857139545
3.857139545
3.857139545
3.857139545
3.857139545
3.857139545
3.857139545
3.857139545
3.857139545
3.857139545
3.857139545
3.857139545
3.857139545
3.857139545
3.857139545
3.857139545
3.857139545
3.857139545
3.857139545
3.857139545
3.857139545
3.857139545
3.857139545
3.857139545
3.857139545
3.857139545
3.857139545
3.857139545
3.857139545
3.857139545
3.857139545
3.857139545
3.857139545
3.857139545
3.857139545
3.857139545
3.857139545
3.857139545
3.857139545
3.857139545
3.857139545
3.857139545
3.857139545
3.857139545
3.857139545
3.857139545
3.857139545
3.857139545
3.857139545
3.857139545
3.857139545
3.857139545
3.857139545
3.857139545
3.857139545
3.857139545
3.857139545
3.857139545
3.857139545
3.857139545
3.857139545
3.857139545
3.857139545
3.857139545
3.857139545
3.857139545
3.857139545
3.857139545
3.857139545
3.857139545
3.857139545
3.857139545
3.857139545
3.857139545
3.857139545
3.857139545
3.857139545
3.857139545
3.857139545
3.857139545
3.857139545
3.857139545
3.857139545
3.857139545
3.857139545
3.857139545
3.857139545
3.857139545
3.857139545
3.857139545
3.857139545
3.857139545
3.857139545
3.857139545
3.857139545
3.857139545
3.857139545
3.857139545
3.857139545
3.857139545
3.857139545
3.857139545
3.857139545
3.857139545
3.857139545
3.857139545
3.857139545
3.857139545
3.857139545
3.857139545
3.857139545
3.857139545
3.857139545
3.857139545
3.857139545
3.857139545
3.857139545
3.857139545
3.857139545
3.857139545
3.857139545
3.857139545
3.857139545
3.857139545
3.857139545
3.857139545
3.857139545
3.857139545
3.857139545
3.857139545
3.857139545
3.857139545
3.857139545
3.857139545
3.857139545
3.857139545
3.857139545
3.857139545
3.857139545
3.857139545
3.857139545
3.857139545
3.857139545
3.857139545
3.857139545
3.857139545
3.857139545
3.857139545
3.857139545
3.857139545
3.857139545
3.857139545
3.857139545
3.857139545
3.857139545
3.857139545
3.857139545
3.857139545
3.857139545
3.857139545
3.857139545
3.857139545
3.857139545
3.857139545
3.857139545
3.857139545
3.857139545
3.857139545
3.857139545
3.857139545
3.857139545
3.857139545
3.857139545
3.857139545
3.857139545
3.857139545
3.857139545
3.857139545
3.857139545
3.857139545
3.857139545
3.857139545
3.857139545
3.857139545
3.857139545
3.857139545
3.857139545
3.857139545
3.857139545
3.857139545
3.857139545
3.857139545
3.857139545
3.857139545
3.857139545
3.857139545
3.857139545
3.857139545
3.857139545
3.857139545
3.857139545
3.857139545
3.857139545
3.857139545
3.857139545
3.857139545
3.857139545
3.857139545
3.857139545
3.857139545
3.857139545
3.857139545
3.857139545
3.857139545
3.857139545
3.857139545
3.857139545
3.857139545
3.857139545
3.857139545
3.857139545
3.857139545
3.857139545
3.857139545
3.857139545
3.857139545
3.857139545
3.857139545
3.857139545
3.857139545
3.857139545
3.857139545
3.857139545
3.857139545
3.857139545
3.857139545
3.857139545
3.857139545
3.857139545
3.857139545
3.857139545
3.857139545
3.857139545
3.857139545
3.857139545
3.857139545
3.857139545
3.857139545
3.857139545
3.857139545
3.857139545
3.857139545
3.857139545
3.857139545
3.857139545
3.857139545
3.857139545
3.857139545
3.857139545
3.857139545
3.857139545
3.857139545
3.857139545
3.857139545
3.857139545
3.857139545
3.857139545
3.857139545
3.857139545
3.857139545
3.857139545
3.857139545
3.857139545
3.857139545
3.857139545
3.857139545
3.857139545
3.857139545
3.857139545
3.857139545
3.857139545
3.857139545
3.857139545
3.857139545
3.857139545
3.857139545
3.857139545
3.857139545
3.857139545
3.857139545
3.857139545
3.857139545
3.857139545
3.857139545
3.857139545
3.857139545
3.857139545
3.857139545
3.857139545
3.857139545
3.857139545
3.857139545
3.857139545
3.857139545
3.857139545
3.857139545
3.857139545
3.857139545
3.857139545
3.857139545
3.857139545
3.857139545
3.857139545
3.857139545
3.857139545
3.857139545
3.857139545
3.857139545
3.857139545
3.857139545
3.857139545
3.857139545
3.857139545
3.857139545
3.857139545
3.857139545
3.857139545
3.857139545
3.857139545
3.857139545
3.857139545
3.857139545
3.857139545
3.857139545
3.857139545
3.857139545
3.857139545
3.857139545
3.857139545
3.857139545
3.857139545
3.857139545
3.857139545
3.857139545
3.857139545
3.857139545
3.857139545
3.857139545
3.857139545
3.857139545
3.857139545
3.857139545
3.857139545
3.857139545
3.857139545
3.857139545
3.857139545
3.857139545
3.857139545
3.857139545
3.857139545
3.857139545
3.857139545
3.857139545
3.857139545
3.857139545
3.857139545
3.857139545
3.857139545
3.857139545
3.857139545
3.857139545
3.857139545
3.857139545
3.857139545
3.857139545
3.857139545
3.857139545
3.857139545
3.857139545
3.857139545
3.857139545
3.857139545
3.857139545
3.857139545
3.857139545
3.857139545
3.857139545
3.857139545
3.857139545
3.857139545
3.857139545
3.857139545
3.857139545
3.857139545
3.857139545
3.857139545
3.857139545
3.857139545
3.857139545
3.857139545
3.857139545
3.857139545
3.857139545
3.857139545
3.857139545
3.857139545
3.857139545
3.857139545
3.857139545
3.857139545
3.857139545
3.857139545
3.857139545
3.857139545
3.857139545
3.857139545
3.857139545
3.857139545
3.857139545
3.857139545
3.857139545
3.857139545
3.857139545
3.857139545
3.857139545
3.857139545
3.857139545
3.857139545
3.857139545
3.857139545
3.857139545
3.857139545
3.857139545
3.857139545
3.857139545
3.857139545
3.857139545
3.857139545
3.857139545
3.857139545
3.857139545
3.857139545
3.857139545
3.857139545
3.857139545
3.857139545
3.857139545
3.857139545
3.857139545
3.857139545
3.857139545
3.857139545
3.857139545
3.857139545
3.857139545
3.857139545
3.857139545
3.857139545
3.857139545
3.857139545
3.857139545
3.857139545
3.857139545
3.857139545
3.857139545
3.857139545
3.857139545
3.857139545
3.857139545
3.857139545
3.857139545
3.857139545
3.857139545
3.857139545
3.857139545
3.857139545
3.857139545
3.857139545
3.857139545
3.857139545
3.857139545
3.857139545
3.857139545
3.857139545
3.857139545
3.857139545
3.857139545
3.857139545
3.857139545
3.857139545
3.857139545
3.857139545
3.857139545
3.857139545
3.857139545
3.857139545
3.857139545
3.857139545
3.857139545
3.857139545
3.857139545
3.857139545
3.857139545
3.857139545
3.857139545
3.857139545
3.857139545
3.857139545
3.857139545
3.857139545
3.857139545
3.857139545
3.857139545
3.857139545
3.857139545
3.857139545
3.857139545
3.857139545
3.857139545
3.857139545
3.857139545
3.857139545
3.857139545
3.857139545
3.857139545
3.857139545
3.857139545
3.857139545
3.857139545
3.857139545
3.857139545
3.857139545
3.857139545
3.857139545
3.857139545
3.857139545
3.857139545
3.857139545
3.857139545
3.857139545
3.857139545
3.857139545
3.857139545
3.857139545
3.857139545
3.857139545
3.857139545
3.857139545
3.857139545
3.857139545
3.857139545
3.857139545
3.857139545
3.857139545
3.857139545
3.857139545
3.857139545
3.857139545
3.857139545
3.857139545
3.857139545
3.857139545
3.857139545
3.857139545
3.857139545
3.857139545
3.857139545
3.857139545
3.857139545
3.857139545
3.857139545
3.857139545
3.857139545
3.857139545
3.857139545
3.857139545
3.857139545
3.857139545
3.857139545
3.857139545
3.857139545
3.857139545
3.857139545
3.857139545
3.857139545
3.857139545
3.857139545
3.857139545
3.857139545
3.857139545
3.857139545
3.857139545
3.857139545
3.857139545
3.857139545
3.857139545
3.857139545
3.857139545
3.857139545
3.857139545
3.857139545
3.857139545
3.857139545
3.857139545
3.857139545
3.857139545
3.857139545
3.857139545
3.857139545
3.857139545
3.857139545
3.857139545
3.857139545
3.857139545
3.857139545
3.857139545
3.857139545
3.857139545
3.857139545
3.857139545
3.857139545
3.857139545
3.857139545
3.857139545
3.857139545
3.857139545
3.857139545
3.857139545
3.857139545
3.857139545
3.857139545
3.857139545
3.857139545
3.857139545
3.857139545
3.857139545
3.857139545
3.857139545
3.857139545
3.857139545
3.857139545
3.857139545
3.857139545
3.857139545
3.857139545
3.857139545
3.857139545
3.857139545
3.857139545
3.857139545
3.857139545
3.857139545
3.857139545
3.857139545
3.857139545
3.857139545
3.857139545
3.857139545
3.857139545
3.857139545
3.857139545
3.857139545
3.857139545
3.857139545
3.857139545
3.857139545
3.857139545
3.857139545
3.857139545
3.857139545
3.857139545
3.857139545
3.857139545
3.857139545
3.857139545
3.857139545
3.857139545
3.857139545
3.857139545
3.857139545
3.857139545
3.857139545
3.857139545
3.857139545
3.857139545
3.857139545
3.857139545
3.857139545
3.857139545
3.857139545
3.857139545
3.857139545
3.857139545
3.857139545
3.857139545
3.857139545
3.857139545
3.857139545
3.857139545
3.857139545
3.857139545
3.857139545
3.857139545
3.857139545
3.857139545
3.857139545
3.857139545
3.857139545
3.857139545
3.857139545
3.857139545
3.857139545
3.857139545
3.857139545
3.857139545
3.857139545
3.857139545
3.857139545
3.857139545
3.857139545
3.857139545
3.857139545
3.857139545
3.857139545
3.857139545
3.857139545
3.857139545
3.857139545
3.857139545
3.857139545
3.857139545
3.857139545
3.857139545
3.857139545
3.857139545
3.857139545
3.857139545
3.857139545
3.857139545
3.857139545
3.857139545
3.857139545
3.857139545
3.857139545
3.857139545
3.857139545
3.857139545
3.857139545
3.857139545
3.857139545
3.857139545
3.857139545
3.857139545
3.857139545
3.857139545
3.857139545
3.857139545
3.857139545
3.857139545
3.857139545
3.857139545
3.857139545
3.857139545
3.857139545
3.857139545
3.857139545
3.857139545
3.857139545
3.857139545
3.857139545
3.857139545
3.857139545
3.857139545
3.857139545
3.857139545
3.857139545
3.857139545
3.857139545
3.857139545
3.857139545
3.857139545
3.857139545
3.857139545
3.857139545
3.857139545
3.857139545
3.857139545
3.857139545
3.857139545
3.857139545
3.857139545
3.857139545
3.857139545
3.857139545
3.857139545
3.857139545
3.857139545
3.857139545
3.857139545
3.857139545
3.857139545
3.857139545
3.857139545
3.857139545
3.857139545
3.857139545
3.857139545
3.857139545
3.857139545
3.857139545
3.857139545
3.857139545
3.857139545
3.857139545
3.857139545
3.857139545
3.857139545
3.857139545
3.857139545
3.857139545
3.857139545
3.857139545
3.857139545
3.857139545
3.857139545
3.857139545
3.857139545
3.857139545
3.857139545
3.857139545
3.857139545
3.857139545
3.857139545
3.857139545
3.857139545
3.857139545
3.857139545
3.857139545
3.857139545
3.857139545
3.857139545
3.857139545
3.857139545
3.857139545
3.857139545
3.857139545
3.857139545
3.857139545
3.857139545
3.857139545
3.857139545
3.857139545
3.857139545
3.857139545
3.857139545
3.857139545
3.857139545
3.857139545
3.857139545
3.857139545
3.857139545
3.857139545
3.857139545
3.857139545
3.857139545
3.857139545
3.857139545
3.857139545
3.857139545
3.857139545
3.857139545
3.857139545
3.857139545
3.857139545
3.857139545
3.857139545
3.857139545
3.857139545
3.857139545
3.857139545
3.857139545
3.857139545
3.857139545
3.857139545
3.857139545
3.857139545
3.857139545
3.857139545
3.857139545
3.857139545
3.857139545
3.857139545
3.857139545
3.857139545
3.857139545
3.857139545
3.857139545
3.857139545
3.857139545
3.857139545
3.857139545
3.857139545
3.857139545
3.857139545
3.857139545
3.857139545
3.857139545
3.857139545
3.857139545
3.857139545
3.857139545
3.857139545
3.857139545
3.857139545
3.857139545
3.857139545
3.857139545
3.857139545
3.857139545
3.857139545
3.857139545
3.857139545
3.857139545
3.857139545
3.857139545
3.857139545
3.857139545
3.857139545
3.857139545
3.857139545
3.857139545
3.857139545
3.857139545
3.857139545
3.857139545
3.857139545
3.857139545
3.857139545
3.857139545
3.857139545
3.857139545
3.857139545
3.857139545
3.857139545
3.857139545
3.857139545
3.857139545
3.857139545
3.857139545
3.857139545
3.857139545
3.857139545
3.857139545
3.857139545
3.857139545
3.857139545
3.857139545
3.857139545
3.857139545
3.857139545
3.857139545
3.857139545
3.857139545
3.857139545
3.857139545
3.857139545
3.857139545
3.857139545
3.857139545
3.857139545
3.857139545
3.857139545
3.857139545
3.857139545
3.857139545
3.857139545
3.857139545
3.857139545
3.857139545
3.857139545
3.857139545
3.857139545
3.857139545
3.857139545
3.857139545
3.857139545
3.857139545
3.857139545
3.857139545
3.857139545
3.857139545
3.857139545
3.857139545
3.857139545
3.857139545
3.857139545
3.857139545
3.857139545
3.857139545
3.857139545
3.857139545
3.857139545
3.857139545
3.857139545
3.857139545
3.857139545
3.857139545
3.857139545
3.857139545
3.857139545
3.857139545
3.857139545
3.857139545
3.857139545
3.857139545
3.857139545
3.857139545
3.857139545
3.857139545
3.857139545
3.857139545
3.857139545
3.857139545
3.857139545
3.857139545
3.857139545
3.857139545
3.857139545
3.857139545
3.857139545
3.857139545
3.857139545
3.857139545
3.857139545
3.857139545
3.857139545
3.857139545
3.857139545
3.857139545
3.857139545
3.857139545
3.857139545
3.857139545
3.857139545
3.857139545
3.857139545
3.857139545
3.857139545
3.857139545
3.857139545
3.857139545
3.857139545
3.857139545
3.857139545
3.857139545
3.857139545
3.857139545
3.857139545
3.857139545
3.857139545
3.857139545
3.857139545
3.857139545
3.857139545
3.857139545
3.857139545
3.857139545
3.857139545
3.857139545
3.857139545
3.857139545
3.857139545
3.857139545
3.857139545
3.857139545
3.857139545
3.857139545
3.857139545
3.857139545
3.857139545
3.857139545
3.857139545
3.857139545
3.857139545
3.857139545
3.857139545
3.857139545
3.857139545
3.857139545
3.857139545
3.857139545
3.857139545
3.857139545
3.857139545
3.857139545
3.857139545
3.857139545
3.857139545
3.857139545
3.857139545
3.857139545
3.857139545
3.857139545
3.857139545
3.857139545
3.857139545
3.857139545
3.857139545
3.857139545
3.857139545
3.857139545
3.857139545
3.857139545
3.857139545
3.857139545
3.857139545
3.857139545
3.857139545
3.857139545
3.857139545
3.857139545
3.857139545
3.857139545
3.857139545
3.857139545
3.857139545
3.857139545
3.857139545
3.857139545
3.857139545
3.857139545
3.857139545
3.857139545
3.857139545
3.857139545
3.857139545
3.857139545
3.857139545
3.857139545
3.857139545
3.857139545
3.857139545
3.857139545
3.857139545
3.857139545
3.857139545
3.857139545
3.857139545
3.857139545
3.857139545
3.857139545
3.857139545
3.857139545
3.857139545
3.857139545
3.857139545
3.857139545
3.857139545
3.857139545
3.857139545
3.857139545
3.857139545
3.857139545
3.857139545
3.857139545
3.857139545
3.857139545
3.857139545
3.857139545
3.857139545
3.857139545
3.857139545
3.857139545
3.857139545
3.857139545
3.857139545
3.857139545
3.857139545
3.857139545
3.857139545
3.857139545
3.857139545
3.857139545
3.857139545
3.857139545
3.857139545
3.857139545
3.857139545
3.857139545
3.857139545
3.857139545
3.857139545
3.857139545
3.857139545
3.857139545
3.857139545
3.857139545
3.857139545
3.857139545
3.857139545
3.857139545
3.857139545
3.857139545
3.857139545
3.857139545
3.857139545
3.857139545
3.857139545
3.857139545
3.857139545
3.857139545
3.857139545
3.857139545
3.857139545
3.857139545
3.857139545
3.857139545
3.857139545
3.857139545
3.857139545
3.857139545
3.857139545
3.857139545
3.857139545
3.857139545
3.857139545
3.857139545
3.857139545
3.857139545
3.857139545
3.857139545
3.857139545
3.857139545
3.857139545
3.857139545
3.857139545
3.857139545
3.857139545
3.857139545
3.857139545
3.857139545
3.857139545
3.857139545
3.857139545
3.857139545
3.857139545
3.857139545
3.857139545
3.857139545
3.857139545
3.857139545
3.857139545
3.857139545
3.857139545
3.857139545
3.857139545
3.857139545
3.857139545
3.857139545
3.857139545
3.857139545
3.857139545
3.857139545
3.857139545
3.857139545
3.857139545
3.857139545
3.857139545
3.857139545
3.857139545
3.857139545
3.857139545
3.857139545
3.857139545
3.857139545
3.857139545
3.857139545
3.857139545
3.857139545
3.857139545
3.857139545
3.857139545
3.857139545
3.857139545
3.857139545
3.857139545
3.857139545
3.857139545
3.857139545
3.857139545
3.857139545
3.857139545
3.857139545
3.857139545
3.857139545
3.857139545
3.857139545
3.857139545
3.857139545
3.857139545
3.857139545
3.857139545
3.857139545
3.857139545
3.857139545
3.857139545
3.857139545
3.857139545
3.857139545
3.857139545
3.857139545
3.857139545
3.857139545
3.857139545
3.857139545
3.857139545
3.857139545
3.857139545
3.857139545
3.857139545
3.857139545
3.857139545
3.857139545
3.857139545
3.857139545
3.857139545
3.857139545
3.857139545
3.857139545
3.857139545
3.857139545
3.857139545
3.857139545
3.857139545
3.857139545
3.857139545
3.857139545
3.857139545
3.857139545
3.857139545
3.857139545
3.857139545
3.857139545
3.857139545
3.857139545
3.857139545
3.857139545
3.857139545
3.857139545
3.857139545
3.857139545
3.857139545
3.857139545
3.857139545
3.857139545
3.857139545
3.857139545
3.857139545
3.857139545
3.857139545
3.857139545
3.857139545
3.857139545
3.857139545
3.857139545
3.857139545
3.857139545
3.857139545
3.857139545
3.857139545
3.857139545
3.857139545
3.857139545
3.857139545
3.857139545
3.857139545
3.857139545
3.857139545
3.857139545
3.857139545
3.857139545
3.857139545
3.857139545
3.857139545
3.857139545
3.857139545
3.857139545
3.857139545
3.857139545
3.857139545
3.857139545
3.857139545
3.857139545
3.857139545
3.857139545
3.857139545
3.857139545
3.857139545
3.857139545
3.857139545
3.857139545
3.857139545
3.857139545
3.857139545
3.857139545
3.857139545
3.857139545
3.857139545
3.857139545
3.857139545
3.857139545
3.857139545
3.857139545
3.857139545
3.857139545
3.857139545
3.857139545
3.857139545
3.857139545
3.857139545
3.857139545
3.857139545
3.857139545
3.857139545
3.857139545
3.857139545
3.857139545
3.857139545
3.857139545
3.857139545
3.857139545
3.857139545
3.857139545
3.857139545
3.857139545
3.857139545
3.857139545
3.857139545
3.857139545
3.857139545
3.857139545
3.857139545
3.857139545
3.857139545
3.857139545
3.857139545
3.857139545
3.857139545
3.857139545
3.857139545
3.857139545
3.857139545
3.857139545
3.857139545
3.857139545
3.857139545
3.857139545
3.857139545
3.857139545
3.857139545
3.857139545
3.857139545
3.857139545
3.857139545
3.857139545
3.857139545
3.857139545
3.857139545
3.857139545
3.857139545
3.857139545
3.857139545
3.857139545
3.857139545
3.857139545
3.857139545
3.857139545
3.857139545
3.857139545
3.857139545
3.857139545
3.857139545
3.857139545
3.857139545
3.857139545
3.857139545
3.857139545
3.857139545
3.857139545
3.857139545
3.857139545
3.857139545
3.857139545
3.857139545
3.857139545
3.857139545
3.857139545
3.857139545
3.857139545
3.857139545
3.857139545
3.857139545
3.857139545
3.857139545
3.857139545
3.857139545
3.857139545
3.857139545
3.857139545
3.857139545
3.857139545
3.857139545
3.857139545
3.857139545
3.857139545
3.857139545
3.857139545
3.857139545
3.857139545
3.857139545
3.857139545
3.857139545
3.857139545
3.857139545
3.857139545
3.857139545
3.857139545
3.857139545
3.857139545
3.857139545
3.857139545
3.857139545
3.857139545
3.857139545
3.857139545
3.857139545
3.857139545
3.857139545
3.857139545
3.857139545
3.857139545
3.857139545
3.857139545
3.857139545
3.857139545
3.857139545
3.857139545
3.857139545
3.857139545
3.857139545
3.857139545
3.857139545
3.857139545
3.857139545
3.857139545
3.857139545
3.857139545
3.857139545
3.857139545
3.857139545
3.857139545
3.857139545
3.857139545
3.857139545
3.857139545
3.857139545
3.857139545
3.857139545
3.857139545
3.857139545
3.857139545
3.857139545
3.857139545
3.857139545
3.857139545
3.857139545
3.857139545
3.857139545
3.857139545
3.857139545
3.857139545
3.857139545
3.857139545
3.857139545
3.857139545
3.857139545
3.857139545
3.857139545
3.857139545
3.857139545
3.857139545
3.857139545
3.857139545
3.857139545
3.857139545
3.857139545
3.857139545
3.857139545
3.857139545
3.857139545
3.857139545
3.857139545
3.857139545
3.857139545
3.857139545
3.857139545
3.857139545
3.857139545
3.857139545
3.857139545
3.857139545
3.857139545
3.857139545
3.857139545
3.857139545
3.857139545
3.857139545
3.857139545
3.857139545
3.857139545
3.857139545
3.857139545
3.857139545
3.857139545
3.857139545
3.857139545
3.857139545
3.857139545
3.857139545
3.857139545
3.857139545
3.857139545
3.857139545
3.857139545
3.857139545
3.857139545
3.857139545
3.857139545
3.857139545
3.857139545
3.857139545
3.857139545
3.857139545
3.857139545
3.857139545
3.857139545
3.857139545
3.857139545
3.857139545
3.857139545
3.857139545
3.857139545
3.857139545
3.857139545
3.857139545
3.857139545
3.857139545
3.857139545
3.857139545
3.857139545
3.857139545
3.857139545
3.857139545
3.857139545
3.857139545
3.857139545
3.857139545
3.857139545
3.857139545
3.857139545
3.857139545
3.857139545
3.857139545
3.857139545
3.857139545
3.857139545
3.857139545
3.857139545
3.857139545
3.857139545
3.857139545
3.857139545
3.857139545
3.857139545
3.857139544
3.857139544
3.857139544
3.857139544
3.857139544
3.857139544
3.857139544
3.857139543
3.857139542
3.857139541
3.85713954
3.857139538
3.857139535
3.857139532
3.857139526
3.857139519
3.857139508
3.857139493
3.857139473
3.857139444
3.857139405
3.857139352
3.857139279
3.857139179
3.857139045
3.857138864
3.85713862
3.857138294
3.85713786
3.857137285
3.857136526
3.857135528
3.857134222
3.857132521
3.857130317
3.857127474
3.857123824
3.857119162
3.857113236
3.857105742
3.857096314
3.857084516
3.857069832
3.857051655
3.85702928
3.857001893
3.856968565
3.856928242
3.856879749
3.856821782
3.856752911
3.856671594
3.856576182
3.856464938
3.856336058
3.8561877
3.856018011
3.855825164
3.855607392
3.855363027
3.855090533
3.854788542
3.854455883
3.854091606
3.853695001
3.853265605
3.852803209
3.852307852
3.851779809
3.851219578
3.850627853
3.850005503
3.849353544
3.84867311
3.847965425
3.847231776
3.846473493
3.845691919
3.844888397
3.844064252
3.843220777
3.842359223
3.841480789
3.840586619
3.8396778
3.838755354
3.837820244
3.836873368
3.835915568
3.834947625
3.833970266
3.832984164
3.831989943
3.830988182
3.829979415
3.828964133
3.827942795
3.826915821
3.8258836
3.824846492
3.823804828
3.822758918
3.821709043
3.820655469
3.819598438
3.818538176
3.817474894
3.816408784
3.815340028
3.814268795
3.813195239
3.812119506
3.811041733
3.809962046
3.808880562
3.807797392
3.80671264
3.805626402
3.804538769
3.803449826
3.802359653
3.801268324
3.80017591
3.799082478
3.797988091
3.796892807
3.795796681
3.794699768
3.793602116
3.792503773
3.791404783
3.790305189
3.789205032
3.788104349
3.787003177
3.78590155
3.784799503
3.783697065
3.782594269
3.781491141
3.780387711
3.779284004
3.778180046
3.777075861
3.775971474
3.774866906
3.773762179
3.772657316
3.771552335
3.770447257
3.769342102
3.768236888
3.767131632
3.766026354
3.76492107
3.763815797
3.762710552
3.761605352
3.760500213
3.75939515
3.758290179
3.757185316
3.756080577
3.754975977
3.753871532
3.752767254
3.751663149
3.75055924
3.749455631
3.748352806
3.747251627
3.746148795
3.745023644
3.743793782
3.742371887
3.741449695
3.741467183
3.742224235
3.745685541
3.757055488
3.78978181
3.87257286
4.019268002
4.120541763
4.13134958
4.13280447
4.133955451
4.13499685
4.135775053
4.136204188
4.136317477
4.136287662
4.136181876
4.136140772
4.136197478
4.136414503
4.136780938
4.13718877
4.137537767
4.137766222
4.137842793
4.137834133
4.137768229
4.137675665
4.137629814
4.137636837
4.137692819
4.137776602
4.13788069
4.137940613
4.137917638
4.137870154
4.137799781
4.137719269
4.137642551
4.137574117
4.137509626
4.137446225
4.137379063
4.137303291
4.137212853
4.137101921
4.136968063
4.1368136
4.136644759
4.136469436
4.136294374
4.136122685
4.135952984
4.135780682
4.135600373
4.135408061
4.135202383
4.134984578
4.134757504
4.134524278
4.134287189
4.134047214
4.133804132
4.133556988
4.133304644
4.133046238
4.132781394
4.132510205
4.132233018
4.131950198
4.131661945
4.131368228
4.13106885
4.130763589
4.130452334
4.130135181
4.129812451
4.129484625
4.129152219
4.128815655
4.128475177
4.128130826
4.127782493
4.127430012
4.127073245
4.126712138
4.126346725
4.12597709
4.125603303
4.125225369
4.124843205
4.124456681
4.124065676
4.123670159
4.12327024
4.122866182
4.122458354
4.12204715
4.12163289
4.121215732
4.120795627
4.120372326
4.119945455
4.119514613
4.119079493
4.118639965
4.118196114
4.117748226
4.117296713
4.116842023
4.116384542
4.115924524
4.115462067
4.11499713
4.114529588
4.114059307
4.113586213
4.113110328
4.112631775
4.112150742
4.111667423
4.111181949
4.110694341
4.110204486
4.109712155
4.10921705
4.10871888
4.108217426
4.107712599
4.107204464
4.106693223
4.106179171
4.105662628
4.105143875
4.104623098
4.10410036
4.103575602
4.103048672
4.102519376
4.101987526
4.101452996
4.100915739
4.1003758
4.099833298
4.099288394
4.098741256
4.098192024
4.097640794
4.097087606
4.096532459
4.095975323
4.095416165
4.094854969
4.094291745
4.09372653
4.093159382
4.092590362
4.09201952
4.091446881
4.090872442
4.090296167
4.089718005
4.0891379
4.088555807
4.087971702
4.087385592
4.086797511
4.086207513
4.08561566
4.085022014
4.084426619
4.083829504
4.083230674
4.082630122
4.082027833
4.081423796
4.080818007
4.080210481
4.079601249
4.078990352
4.078377841
4.077763765
4.077148167
4.076531075
4.075912507
4.075292464
4.074670942
4.074047926
4.073423406
4.072797372
4.072169817
4.071540742
4.070910149
4.070278045
4.069644435
4.069009325
4.068372723
4.067734638
4.067095083
4.066454076
4.065811644
4.065167817
4.064522632
4.063876125
4.063228333
4.062579285
4.061929003
4.0612775
4.060624779
4.059970833
4.059315652
4.058659221
4.058001526
4.057342557
4.056682308
4.056020779
4.055357974
4.054693904
4.054028584
4.05336203
4.052694262
4.052025302
4.051355171
4.05068389
4.050011481
4.049337965
4.04866336
4.047987682
4.047310942
4.046633147
4.045954299
4.045274394
4.044593426
4.043911384
4.043228256
4.04254403
4.041858697
4.041172249
4.040484685
4.039796005
4.039106216
4.038415328
4.037723356
4.037030316
4.036336228
4.035641113
4.034944991
4.034247886
4.033549817
4.032850806
4.032150869
4.031450024
4.030748282
4.030045653
4.029342143
4.028637755
4.027932487
4.027226337
4.0265193
4.025811371
4.025102545
4.024392818
4.023682189
4.022970659
4.022258232
4.021544916
4.020830719
4.020115655
4.019399738
4.018682982
4.017965406
4.017247024
4.016527852
4.015807904
4.015087193
4.014365728
4.013643517
4.012920564
4.012196871
4.011472438
4.01074726
4.010021334
4.009294655
4.008567217
4.007839015
4.007110046
4.006380309
4.005649804
4.004918535
4.004186506
4.003453727
4.002720207
4.001985959
4.001250995
4.000515329
3.999778976
3.999041949
3.99830426
3.997565922
3.996826944
3.996087334
3.995347097
3.994606238
3.993864758
3.993122658
3.992379936
3.991636591
3.990892621
3.990148023
3.989402796
3.988656939
3.987910453
3.98716334
3.986415604
3.985667249
3.984918283
3.984168713
3.98341855
3.982667801
3.981916478
3.981164591
3.980412149
3.97965916
3.978905634
3.978151575
3.977396991
3.976641884
3.975886257
3.975130112
3.97437345
3.973616271
3.972858574
3.972100359
3.971341626
3.970582376
3.969822611
3.969062333
3.968301545
3.967540253
3.966778462
3.966016179
3.965253411
3.964490167
3.963726454
3.96296228
3.962197653
3.96143258
3.960667068
3.959901122
3.959134746
3.958367945
3.95760072
3.956833076
3.956065012
3.95529653
3.954527632
3.953758319
3.952988593
3.952218457
3.951447913
3.950676967
3.949905623
3.949133887
3.948361766
3.947589268
3.9468164
3.946043172
3.945269592
3.944495666
3.943721404
3.942946813
3.942171897
3.941396662
3.940621111
3.939845248
3.939069072
3.938292585
3.937515785
3.936738669
3.935961235
3.93518348
3.9344054
3.933626992
3.932848252
3.932069177
3.931289765
3.930510014
3.929729922
3.92894949
3.928168717
3.927387605
3.926606157
3.925824375
3.925042261
3.924259822
3.923477059
3.92269398
3.921910588
3.921126889
3.920342889
3.919558595
3.918774013
3.91798915
3.917204013
3.916418608
3.915632944
3.914847029
3.91406087
3.913274474
3.912487851
3.911701008
3.910913952
3.910126691
3.909339232
3.908551582
3.907763746
3.906975732
3.906187543
3.905399186
3.904610663
3.903821978
3.903033135
3.902244136
3.901454983
3.900665679
3.899876225
3.899086623
3.898296873
3.897506978
3.896716939
3.895926756
3.895136433
3.894345972
3.893555373
3.89276464
3.891973776
3.891182784
3.890391667
3.889600429
3.888809073
3.888017603
3.887226024
3.886434337
3.885642548
3.88485066
3.884058676
3.8832666
3.882474434
3.881682181
3.880889844
3.880097426
3.879304928
3.878512354
3.877719706
3.876926985
3.876134196
3.87534134
3.874548421
3.873755441
3.872962404
3.872169313
3.871376172
3.870582984
3.869789754
3.868996485
3.868203182
3.867409848
3.866616488
3.865823105
3.865029704
3.864236288
3.863442861
3.862649428
3.86185599
3.861062553
3.86026912
3.859475694
3.858682279
3.857888878
3.857095495
3.856302134
3.855508799
3.854715492
3.853922219
3.853128983
3.852335788
3.851542638
3.850749537
3.849956488
3.849163496
3.848370564
3.847577695
3.846784894
3.845992162
3.845199504
3.844406921
3.843614417
3.842821995
3.842029657
3.841237405
3.840445242
3.839653171
3.838861194
3.838069313
3.837277533
3.836485856
3.835694285
3.834902824
3.834111477
3.833320248
3.832529141
3.831738161
3.830947312
3.8301566
3.829366029
3.828575605
3.827785333
3.826995218
3.826205265
3.82541548
3.824625868
3.823836435
3.823047185
3.822258123
3.821469254
3.820680584
3.819892117
3.819103858
3.818315812
3.817527982
3.816740374
3.815952992
3.815165841
3.814378925
3.813592248
3.812805815