/*--------------------------------*- C++ -*----------------------------------*\
| =========                 |                                                 |
| \\      /  F ield         | OpenFOAM: The Open Source CFD Toolbox           |
|  \\    /   O peration     | Version:  v1812                                 |
|   \\  /    A nd           | Web:      www.OpenFOAM.com                      |
|    \\/     M anipulation  |                                                 |
\*---------------------------------------------------------------------------*/
FoamFile
{
    version     2.0;
    format      ascii;
    class       volScalarField;
    location    "0.035";
    object      p;
}
// * * * * * * * * * * * * * * * * * * * * * * * * * * * * * * * * * * * * * //

dimensions      [1 -1 -2 0 0 0 0];


internalField   nonuniform List<scalar> 
800
(
460.894
460.894
460.894
460.894
460.894
460.894
460.894
460.894
460.894
460.894
460.894
460.894
460.894
460.894
460.894
460.894
460.894
460.894
460.894
460.894
460.894
460.894
460.894
460.894
460.894
460.894
460.894
460.894
460.894
460.894
460.894
460.894
460.894
460.894
460.894
460.894
460.894
460.894
460.894
460.894
460.894
460.894
460.894
460.894
460.894
460.894
460.894
460.894
460.894
460.894
460.894
460.894
460.894
460.894
460.894
460.894
460.894
460.894
460.894
460.894
460.894
460.894
460.894
460.894
460.894
460.894
460.894
460.894
460.894
460.894
460.894
460.894
460.894
460.894
460.894
460.894
460.894
460.894
460.894
460.894
460.894
460.894
460.894
460.894
460.894
460.894
460.894
460.894
460.894
460.894
460.894
460.894
460.894
460.894
460.894
460.894
460.894
460.894
460.894
460.894
460.894
460.894
460.894
460.894
460.894
460.894
460.894
460.894
460.894
460.894
460.894
460.894
460.894
460.894
460.894
460.894
460.894
460.894
460.894
460.894
460.894
460.894
460.894
460.894
460.894
460.894
460.894
460.894
460.894
460.894
460.894
460.894
460.894
460.894
460.894
460.894
460.894
460.894
460.894
460.894
460.894
460.894
460.894
460.894
460.894
460.894
460.894
460.894
460.894
460.894
460.894
460.894
460.894
460.894
460.894
460.894
460.894
460.894
460.894
460.894
460.894
460.894
460.894
460.894
460.894
460.894
460.894
460.894
460.894
460.894
460.894
460.894
460.894
460.894
460.894
460.894
460.894
460.894
460.894
460.894
460.894
460.894
460.894
460.894
460.894
460.894
460.894
460.894
460.894
460.894
460.894
460.894
460.894
460.894
460.894
460.894
460.894
460.894
460.894
460.894
460.894
460.894
460.894
460.894
460.894
460.894
460.894
460.894
460.894
460.894
460.894
460.894
460.894
460.894
460.894
460.894
460.894
460.894
460.894
460.894
460.894
460.894
460.894
460.894
460.894
460.894
460.894
460.894
460.894
460.894
460.894
460.894
460.894
460.894
460.894
460.894
460.894
460.894
460.894
460.894
460.894
460.894
460.894
460.894
460.894
460.894
460.894
460.894
460.894
460.894
460.894
460.894
460.894
460.894
460.894
460.894
460.894
460.894
460.894
460.894
460.894
460.894
460.894
460.894
460.894
460.894
460.894
460.894
460.894
460.894
460.894
460.894
460.894
460.894
460.894
460.894
460.894
460.894
460.894
460.894
460.894
460.894
460.894
460.894
460.894
460.894
460.894
460.894
460.894
460.894
460.894
460.894
460.894
460.894
460.894
460.894
460.894
460.894
460.894
460.894
460.894
460.894
460.894
460.894
460.894
460.894
460.894
460.894
460.894
460.894
460.894
460.894
460.894
460.894
460.894
460.894
460.894
460.894
460.894
460.894
460.894
460.894
460.894
460.894
460.894
460.894
460.894
460.894
460.894
460.894
460.894
460.894
460.894
460.894
460.894
460.894
460.894
460.894
460.894
460.894
460.894
460.894
460.894
460.894
460.894
460.894
460.894
460.894
460.894
460.894
460.894
460.894
460.894
460.894
460.894
460.894
460.894
460.894
460.894
460.894
460.894
460.894
460.894
460.894
460.894
460.894
460.894
460.894
460.894
460.894
460.894
460.894
460.894
460.894
460.894
460.894
460.894
460.894
460.894
460.894
460.894
460.894
460.894
460.894
460.894
460.894
460.894
460.894
460.894
460.894
460.894
460.894
460.894
460.894
460.894
460.894
460.894
460.894
460.894
460.894
460.894
460.894
460.894
460.894
460.894
460.894
460.894
460.894
460.894
460.894
460.894
460.894
460.894
460.894
460.894
460.894
460.894
460.894
460.897
460.965
462.53
499.674
1305.56
1688.57
1692.94
1692.95
1693.93
1695.32
1696.23
1697.03
1697.73
1697.81
1697.61
1696.94
1696.41
1695.53
1694.58
1693.69
1692.69
1691.84
1691.29
1690.85
1690.66
1690.58
1690.74
1690.83
1690.99
1691.18
1691.45
1691.62
1692.05
1692.6
1693.3
1694.2
1695.13
1695.98
1696.68
1697.13
1697.33
1697.28
1697.1
1696.73
1696.17
1695.43
1694.55
1693.6
1692.71
1691.91
1691.32
1690.93
1690.84
1690.98
1691.3
1691.71
1692.14
1692.5
1692.8
1693.07
1693.37
1693.77
1694.25
1694.82
1695.37
1695.88
1696.18
1696.24
1696.05
1695.59
1694.95
1694.23
1693.55
1692.96
1692.49
1692.14
1691.88
1691.65
1691.48
1691.38
1691.36
1691.46
1691.74
1692.19
1692.71
1693.23
1693.67
1693.98
1694.17
1694.27
1694.4
1694.6
1694.85
1695.17
1695.47
1695.64
1695.61
1695.43
1695.13
1694.75
1694.34
1693.93
1693.49
1693.08
1692.65
1692.24
1691.91
1691.7
1691.73
1691.95
1692.38
1693.02
1693.61
1694.14
1694.46
1694.6
1694.54
1694.38
1694.35
1694.34
1694.45
1694.67
1694.85
1694.9
1694.75
1694.36
1693.74
1693.11
1692.56
1692.15
1691.97
1692.1
1692.46
1692.86
1693.2
1693.48
1693.74
1693.85
1694.03
1694.27
1694.54
1694.8
1694.96
1694.91
1694.71
1694.44
1694.18
1693.98
1693.92
1694.04
1694.18
1694.3
1694.26
1694
1693.52
1692.94
1692.36
1691.98
1691.84
1691.98
1692.47
1693.08
1693.58
1693.93
1694.19
1694.25
1694.34
1694.49
1694.7
1694.91
1695.04
1694.96
1694.67
1694.26
1693.87
1693.58
1693.4
1693.48
1693.73
1694.04
1694.15
1694.01
1693.67
1693.11
1692.48
1692.07
1691.96
1692.1
1692.62
1693.39
1693.98
1694.27
1694.26
1694.01
1693.48
1693.1
1693.06
1693.16
1693.46
1694.25
1694.88
1695.23
1695.19
1694.78
1694.62
1694.34
1694.11
1694.07
1694.11
1694.02
1693.77
1693.41
1692.87
1692.32
1692.13
1692.26
1692.73
1693.35
1694.06
1694.66
1694.77
1694.43
1693.5
1692.64
1693.07
1693.06
1693.5
1694.82
1696.08
1694.9
1694.24
1693.86
1693.94
1694.17
1694.01
1693.52
1692.01
1691.65
1692.23
1694.35
1695.68
1695.6
1694.31
1691.92
1691.44
1692.44
1695.17
1695.37
1694.97
1693.47
1690.97
1691.02
1691.89
1694.62
1695.64
1695.49
1694.56
1694.38
1694.51
1695.18
1695.1
1694.25
1691.79
1691.34
1691.96
1694.29
1695.37
1695.11
1693.62
1691.05
1691.17
1692.41
1695.71
1695.99
1695.47
1693.68
1691.26
1691.09
1692.08
1694.61
1694.69
1693.65
1691.11
1691.24
1693.92
1696.3
1695.86
1693.38
1691.29
1691.35
1692.66
1696.01
1696
1695.33
1693.22
1691.15
1691.17
1692.37
1695.36
1695.81
1695.24
1693.93
1694.01
1695.13
1695.43
1695.07
1693.81
1691.51
1691.1
1692.39
1695.87
1695.81
1694.66
1692.99
1690.88
1690.79
1693.09
1696.08
1695.95
1694.53
1691.21
1677.47
1624.54
1368.35
539.976
50.63
46.1037
46.095
46.095
46.095
46.095
46.095
46.095
46.095
46.095
46.095
46.095
46.095
46.095
46.095
46.095
46.095
46.095
46.095
46.095
46.095
46.095
46.095
46.095
46.095
46.095
46.095
46.095
46.095
46.095
46.095
46.095
46.095
46.095
46.095
46.095
46.095
46.095
46.095
46.095
46.095
46.095
46.095
46.095
46.095
46.095
46.095
46.095
46.095
46.095
46.095
46.095
46.095
46.095
46.095
46.095
46.095
)
;

boundaryField
{
    sides
    {
        type            zeroGradient;
    }
    empty1
    {
        type            empty;
    }
    empty2
    {
        type            empty;
    }
}


// ************************************************************************* //
