/*--------------------------------*- C++ -*----------------------------------*\
| =========                 |                                                 |
| \\      /  F ield         | OpenFOAM: The Open Source CFD Toolbox           |
|  \\    /   O peration     | Version:  v1812                                 |
|   \\  /    A nd           | Web:      www.OpenFOAM.com                      |
|    \\/     M anipulation  |                                                 |
\*---------------------------------------------------------------------------*/
FoamFile
{
    version     2.0;
    format      ascii;
    class       surfaceScalarField;
    location    "0.035";
    object      phi;
}
// * * * * * * * * * * * * * * * * * * * * * * * * * * * * * * * * * * * * * //

dimensions      [1 0 -1 0 0 0 0];
oriented        oriented;


internalField   nonuniform List<scalar> 
799
(
0.0470255
0.0470255
0.0470255
0.0470255
0.0470255
0.0470255
0.0470255
0.0470255
0.0470255
0.0470255
0.0470255
0.0470255
0.0470255
0.0470255
0.0470255
0.0470255
0.0470255
0.0470255
0.0470255
0.0470255
0.0470255
0.0470255
0.0470255
0.0470255
0.0470255
0.0470255
0.0470255
0.0470255
0.0470255
0.0470255
0.0470255
0.0470255
0.0470255
0.0470255
0.0470255
0.0470255
0.0470255
0.0470255
0.0470255
0.0470255
0.0470255
0.0470255
0.0470255
0.0470255
0.0470255
0.0470255
0.0470255
0.0470255
0.0470255
0.0470255
0.0470255
0.0470255
0.0470255
0.0470255
0.0470255
0.0470255
0.0470255
0.0470255
0.0470255
0.0470255
0.0470255
0.0470255
0.0470255
0.0470255
0.0470255
0.0470255
0.0470255
0.0470255
0.0470255
0.0470255
0.0470255
0.0470255
0.0470255
0.0470255
0.0470255
0.0470255
0.0470255
0.0470255
0.0470255
0.0470255
0.0470255
0.0470255
0.0470255
0.0470255
0.0470255
0.0470255
0.0470255
0.0470255
0.0470255
0.0470255
0.0470255
0.0470255
0.0470255
0.0470255
0.0470255
0.0470255
0.0470255
0.0470255
0.0470255
0.0470255
0.0470255
0.0470255
0.0470255
0.0470255
0.0470255
0.0470255
0.0470255
0.0470255
0.0470255
0.0470255
0.0470255
0.0470255
0.0470255
0.0470255
0.0470255
0.0470255
0.0470255
0.0470255
0.0470255
0.0470255
0.0470255
0.0470255
0.0470255
0.0470255
0.0470255
0.0470255
0.0470255
0.0470255
0.0470255
0.0470255
0.0470255
0.0470255
0.0470255
0.0470255
0.0470255
0.0470255
0.0470255
0.0470255
0.0470255
0.0470255
0.0470255
0.0470255
0.0470255
0.0470255
0.0470255
0.0470255
0.0470255
0.0470255
0.0470255
0.0470255
0.0470255
0.0470255
0.0470255
0.0470255
0.0470255
0.0470255
0.0470255
0.0470255
0.0470255
0.0470255
0.0470255
0.0470255
0.0470255
0.0470255
0.0470255
0.0470255
0.0470255
0.0470255
0.0470255
0.0470255
0.0470255
0.0470255
0.0470255
0.0470255
0.0470255
0.0470255
0.0470255
0.0470255
0.0470255
0.0470255
0.0470255
0.0470255
0.0470255
0.0470255
0.0470255
0.0470255
0.0470255
0.0470255
0.0470255
0.0470255
0.0470255
0.0470255
0.0470255
0.0470255
0.0470255
0.0470255
0.0470255
0.0470255
0.0470255
0.0470255
0.0470255
0.0470255
0.0470255
0.0470255
0.0470255
0.0470255
0.0470255
0.0470255
0.0470255
0.0470255
0.0470255
0.0470255
0.0470255
0.0470255
0.0470255
0.0470255
0.0470255
0.0470255
0.0470255
0.0470255
0.0470255
0.0470255
0.0470255
0.0470255
0.0470255
0.0470255
0.0470255
0.0470255
0.0470255
0.0470255
0.0470255
0.0470255
0.0470255
0.0470255
0.0470255
0.0470255
0.0470255
0.0470255
0.0470255
0.0470255
0.0470255
0.0470255
0.0470255
0.0470255
0.0470255
0.0470255
0.0470255
0.0470255
0.0470255
0.0470255
0.0470255
0.0470255
0.0470255
0.0470255
0.0470255
0.0470255
0.0470255
0.0470255
0.0470255
0.0470255
0.0470255
0.0470255
0.0470255
0.0470255
0.0470255
0.0470255
0.0470255
0.0470255
0.0470255
0.0470255
0.0470255
0.0470255
0.0470255
0.0470255
0.0470255
0.0470255
0.0470255
0.0470255
0.0470255
0.0470255
0.0470255
0.0470255
0.0470255
0.0470255
0.0470255
0.0470255
0.0470255
0.0470255
0.0470255
0.0470255
0.0470255
0.0470255
0.0470255
0.0470255
0.0470255
0.0470255
0.0470255
0.0470255
0.0470255
0.0470255
0.0470255
0.0470255
0.0470255
0.0470255
0.0470255
0.0470255
0.0470255
0.0470255
0.0470255
0.0470255
0.0470255
0.0470255
0.0470255
0.0470255
0.0470255
0.0470255
0.0470255
0.0470255
0.0470255
0.0470255
0.0470255
0.0470255
0.0470255
0.0470255
0.0470255
0.0470255
0.0470255
0.0470255
0.0470255
0.0470255
0.0470255
0.0470255
0.0470255
0.0470255
0.0470255
0.0470255
0.0470255
0.0470255
0.0470255
0.0470255
0.0470255
0.0470255
0.0470255
0.0470255
0.0470255
0.0470255
0.0470255
0.0470255
0.0470255
0.0470255
0.0470255
0.0470255
0.0470255
0.0470255
0.0470255
0.0470255
0.0470255
0.0470255
0.0470255
0.0470255
0.0470255
0.0470255
0.0470255
0.0470255
0.0470255
0.0470255
0.0470255
0.0470255
0.0470255
0.0470255
0.0470255
0.0470255
0.0470255
0.0470255
0.0470255
0.0470255
0.0470255
0.0470255
0.0470255
0.0470255
0.0470255
0.0470255
0.0470255
0.0470255
0.0470255
0.0470255
0.0470255
0.0470255
0.0470255
0.0470255
0.0470255
0.0470255
0.0470255
0.0470255
0.0470255
0.0470255
0.0470255
0.0470255
0.0470255
0.0470255
0.0470255
0.0470255
0.0470255
0.0470255
0.0470255
0.0470255
0.0470255
0.0470255
0.0470255
0.0470255
0.0470255
0.0470255
0.0470255
0.0470255
0.0470255
0.0470255
0.0470255
0.0470255
0.0470256
0.0470268
0.0470514
0.047464
0.049477
0.0498219
0.0497287
0.0496498
0.0496098
0.0496264
0.0496787
0.049737
0.0497969
0.0498775
0.0499441
0.0499304
0.049883
0.0497986
0.0496869
0.0495954
0.0495373
0.0495041
0.049498
0.0495173
0.0495366
0.0495357
0.0495311
0.0495226
0.0495034
0.0494954
0.0495066
0.0495399
0.0495839
0.0496396
0.0496959
0.0497407
0.0497724
0.0497905
0.0497905
0.0497837
0.0497753
0.0497646
0.0497492
0.0497327
0.0497119
0.0496834
0.0496484
0.0496104
0.0495755
0.0495463
0.0495267
0.049516
0.0495151
0.0495183
0.0495265
0.0495399
0.0495579
0.0495794
0.049603
0.0496282
0.0496559
0.049685
0.0497122
0.0497352
0.0497506
0.0497609
0.0497629
0.0497579
0.0497482
0.0497321
0.0497116
0.0496872
0.0496603
0.0496331
0.0496075
0.0495846
0.0495665
0.0495541
0.0495486
0.0495477
0.0495486
0.0495532
0.0495632
0.0495777
0.0495965
0.0496191
0.0496443
0.0496704
0.049695
0.0497147
0.0497291
0.0497365
0.0497365
0.0497325
0.0497246
0.0497125
0.0496975
0.0496792
0.0496585
0.049636
0.0496135
0.0495928
0.0495765
0.0495654
0.0495617
0.0495623
0.0495662
0.0495727
0.0495809
0.0495912
0.0496023
0.0496159
0.0496316
0.0496487
0.0496678
0.0496872
0.0497042
0.0497172
0.0497229
0.049722
0.0497173
0.0497079
0.0496954
0.0496811
0.0496669
0.0496529
0.0496405
0.0496282
0.0496165
0.0496064
0.049596
0.0495874
0.049582
0.049581
0.0495838
0.0495908
0.0496013
0.0496141
0.0496279
0.0496415
0.0496545
0.0496671
0.0496795
0.0496906
0.0496992
0.0497046
0.0497057
0.0497028
0.0496944
0.0496832
0.0496693
0.0496553
0.049642
0.0496305
0.049623
0.0496178
0.0496132
0.0496087
0.0496063
0.049603
0.0495998
0.0495998
0.0496039
0.0496112
0.0496213
0.049633
0.0496447
0.0496552
0.0496642
0.0496714
0.0496773
0.0496826
0.0496871
0.0496897
0.0496892
0.0496855
0.0496774
0.0496667
0.0496526
0.0496389
0.0496293
0.0496218
0.0496195
0.049621
0.0496236
0.0496257
0.0496273
0.0496291
0.0496296
0.0496314
0.0496374
0.0496479
0.049661
0.0496771
0.049693
0.0497056
0.0497125
0.0497174
0.0497165
0.0497103
0.0497063
0.0497059
0.049708
0.0497138
0.049724
0.0497408
0.0497668
0.0498086
0.0498756
0.0499778
0.0501287
0.0503446
0.0506449
0.0510514
0.0515904
0.0523002
0.0532228
0.054403
0.0558935
0.0577503
0.0600244
0.0627595
0.0659825
0.0696846
0.0738434
0.0783805
0.0831608
0.0879955
0.0926635
0.0969264
0.10058
0.103511
0.105671
0.107115
0.107948
0.10834
0.108489
0.108526
0.108553
0.108568
0.108569
0.108566
0.10856
0.108548
0.108536
0.108524
0.108505
0.108498
0.108492
0.108491
0.108497
0.108501
0.108512
0.10853
0.108548
0.108563
0.108578
0.10858
0.108578
0.108571
0.108562
0.10855
0.108526
0.108519
0.108517
0.108519
0.108525
0.108532
0.108541
0.108552
0.108563
0.108572
0.108581
0.108574
0.108566
0.108557
0.108545
0.108539
0.108532
0.10852
0.108525
0.108528
0.108532
0.108538
0.108551
0.108558
0.108561
0.108563
0.108566
0.108567
0.108566
0.108561
0.108558
0.10855
0.108541
0.108539
0.108536
0.108537
0.108543
0.108551
0.108558
0.108561
0.108566
0.108576
0.108578
0.108579
0.108579
0.108577
0.108572
0.108572
0.108574
0.10857
0.108565
0.108565
0.108568
0.108567
0.108575
0.108581
0.108571
0.108491
0.108184
0.106636
0.0988018
0.0628287
-0.00750816
-0.0148348
-0.014852
-0.014852
-0.014852
-0.014852
-0.014852
-0.014852
-0.014852
-0.014852
-0.014852
-0.014852
-0.014852
-0.014852
-0.014852
-0.014852
-0.014852
-0.014852
-0.014852
-0.014852
-0.014852
-0.014852
-0.014852
-0.014852
-0.014852
-0.014852
-0.014852
-0.014852
-0.014852
-0.014852
-0.014852
-0.014852
-0.014852
-0.014852
-0.014852
-0.014852
-0.014852
-0.014852
-0.014852
-0.014852
-0.014852
-0.014852
-0.014852
-0.014852
-0.014852
-0.014852
-0.014852
-0.014852
-0.014852
-0.014852
-0.014852
-0.014852
-0.014852
-0.014852
-0.014852
-0.014852
-0.014852
)
;

boundaryField
{
    sides
    {
        type            calculated;
        value           nonuniform List<scalar> 2(-0.014852 -0.0470255);
    }
    empty1
    {
        type            empty;
        value           nonuniform 0();
    }
    empty2
    {
        type            empty;
        value           nonuniform 0();
    }
}


// ************************************************************************* //
