/*--------------------------------*- C++ -*----------------------------------*\
| =========                 |                                                 |
| \\      /  F ield         | OpenFOAM: The Open Source CFD Toolbox           |
|  \\    /   O peration     | Version:  v1812                                 |
|   \\  /    A nd           | Web:      www.OpenFOAM.com                      |
|    \\/     M anipulation  |                                                 |
\*---------------------------------------------------------------------------*/
FoamFile
{
    version     2.0;
    format      ascii;
    class       volScalarField;
    location    "0.035";
    object      rho;
}
// * * * * * * * * * * * * * * * * * * * * * * * * * * * * * * * * * * * * * //

dimensions      [1 -3 0 0 0 0 0];


internalField   nonuniform List<scalar> 
800
(
5.99892
5.99892
5.99892
5.99892
5.99892
5.99892
5.99892
5.99892
5.99892
5.99892
5.99892
5.99892
5.99892
5.99892
5.99892
5.99892
5.99892
5.99892
5.99892
5.99892
5.99892
5.99892
5.99892
5.99892
5.99892
5.99892
5.99892
5.99892
5.99892
5.99892
5.99892
5.99892
5.99892
5.99892
5.99892
5.99892
5.99892
5.99892
5.99892
5.99892
5.99892
5.99892
5.99892
5.99892
5.99892
5.99892
5.99892
5.99892
5.99892
5.99892
5.99892
5.99892
5.99892
5.99892
5.99892
5.99892
5.99892
5.99892
5.99892
5.99892
5.99892
5.99892
5.99892
5.99892
5.99892
5.99892
5.99892
5.99892
5.99892
5.99892
5.99892
5.99892
5.99892
5.99892
5.99892
5.99892
5.99892
5.99892
5.99892
5.99892
5.99892
5.99892
5.99892
5.99892
5.99892
5.99892
5.99892
5.99892
5.99892
5.99892
5.99892
5.99892
5.99892
5.99892
5.99892
5.99892
5.99892
5.99892
5.99892
5.99892
5.99892
5.99892
5.99892
5.99892
5.99892
5.99892
5.99892
5.99892
5.99892
5.99892
5.99892
5.99892
5.99892
5.99892
5.99892
5.99892
5.99892
5.99892
5.99892
5.99892
5.99892
5.99892
5.99892
5.99892
5.99892
5.99892
5.99892
5.99892
5.99892
5.99892
5.99892
5.99892
5.99892
5.99892
5.99892
5.99892
5.99892
5.99892
5.99892
5.99892
5.99892
5.99892
5.99892
5.99892
5.99892
5.99892
5.99892
5.99892
5.99892
5.99892
5.99892
5.99892
5.99892
5.99892
5.99892
5.99892
5.99892
5.99892
5.99892
5.99892
5.99892
5.99892
5.99892
5.99892
5.99892
5.99892
5.99892
5.99892
5.99892
5.99892
5.99892
5.99892
5.99892
5.99892
5.99892
5.99892
5.99892
5.99892
5.99892
5.99892
5.99892
5.99892
5.99892
5.99892
5.99892
5.99892
5.99892
5.99892
5.99892
5.99892
5.99892
5.99892
5.99892
5.99892
5.99892
5.99892
5.99892
5.99892
5.99892
5.99892
5.99892
5.99892
5.99892
5.99892
5.99892
5.99892
5.99892
5.99892
5.99892
5.99892
5.99892
5.99892
5.99892
5.99892
5.99892
5.99892
5.99892
5.99892
5.99892
5.99892
5.99892
5.99892
5.99892
5.99892
5.99892
5.99892
5.99892
5.99892
5.99892
5.99892
5.99892
5.99892
5.99892
5.99892
5.99892
5.99892
5.99892
5.99892
5.99892
5.99892
5.99892
5.99892
5.99892
5.99892
5.99892
5.99892
5.99892
5.99892
5.99892
5.99892
5.99892
5.99892
5.99892
5.99892
5.99892
5.99892
5.99892
5.99892
5.99892
5.99892
5.99892
5.99892
5.99892
5.99892
5.99892
5.99892
5.99892
5.99892
5.99892
5.99892
5.99892
5.99892
5.99892
5.99892
5.99892
5.99892
5.99892
5.99892
5.99892
5.99892
5.99892
5.99892
5.99892
5.99892
5.99892
5.99892
5.99892
5.99892
5.99892
5.99892
5.99892
5.99892
5.99892
5.99892
5.99892
5.99892
5.99892
5.99892
5.99892
5.99892
5.99892
5.99892
5.99892
5.99892
5.99892
5.99892
5.99892
5.99892
5.99892
5.99892
5.99892
5.99892
5.99892
5.99892
5.99892
5.99892
5.99892
5.99892
5.99892
5.99892
5.99892
5.99892
5.99892
5.99892
5.99892
5.99892
5.99892
5.99892
5.99892
5.99892
5.99892
5.99892
5.99892
5.99892
5.99892
5.99892
5.99892
5.99892
5.99892
5.99892
5.99892
5.99892
5.99892
5.99892
5.99892
5.99892
5.99892
5.99892
5.99892
5.99892
5.99892
5.99892
5.99892
5.99892
5.99892
5.99892
5.99892
5.99892
5.99892
5.99892
5.99892
5.99892
5.99892
5.99892
5.99892
5.99892
5.99892
5.99892
5.99892
5.99892
5.99892
5.99892
5.99892
5.99892
5.99892
5.99892
5.99892
5.99892
5.99892
5.99892
5.99892
5.99892
5.99892
5.99892
5.99892
5.99892
5.99892
5.99892
5.99892
5.99892
5.99892
5.99892
5.99892
5.99892
5.99892
5.99892
5.99892
5.99892
5.99892
5.99892
5.99892
5.99892
5.99892
5.99892
5.99892
5.99892
5.99892
5.99892
5.99892
5.99892
5.99892
5.99892
5.99892
5.99892
5.99892
5.99892
5.99892
5.99892
5.99894
5.99958
6.01418
6.35366
11.9253
14.3908
14.362
14.3221
14.2967
14.2853
14.2867
14.2938
14.3045
14.3202
14.3416
14.3497
14.3447
14.3322
14.3122
14.2909
14.2795
14.274
14.275
14.2819
14.2919
14.2966
14.2975
14.2959
14.2906
14.2823
14.2785
14.2798
14.2841
14.2916
14.3023
14.3111
14.318
14.3225
14.3237
14.3221
14.3206
14.32
14.3193
14.3191
14.3189
14.3172
14.3131
14.3068
14.2995
14.2923
14.2868
14.2835
14.2832
14.2851
14.2881
14.2918
14.2953
14.2976
14.2987
14.2987
14.2991
14.3007
14.3037
14.3076
14.312
14.3164
14.319
14.3194
14.318
14.3147
14.3101
14.3054
14.3012
14.298
14.2958
14.2944
14.2932
14.2919
14.2906
14.2897
14.289
14.2891
14.2905
14.2931
14.2966
14.3001
14.3031
14.3052
14.3063
14.3068
14.3075
14.3085
14.3098
14.3116
14.3136
14.3147
14.3146
14.3134
14.3114
14.3089
14.3061
14.3032
14.3004
14.2978
14.2952
14.293
14.2912
14.2901
14.2903
14.2917
14.2943
14.2981
14.3018
14.305
14.3071
14.3084
14.3082
14.3074
14.3074
14.3074
14.308
14.3094
14.3104
14.3108
14.3099
14.3076
14.3039
14.3001
14.2968
14.2943
14.2931
14.294
14.2962
14.2986
14.3007
14.3025
14.3042
14.305
14.3061
14.3075
14.3091
14.3106
14.3115
14.3112
14.31
14.3083
14.3067
14.3055
14.305
14.3057
14.3065
14.3073
14.307
14.3054
14.3025
14.299
14.2956
14.2933
14.2925
14.2934
14.2963
14.3
14.3031
14.3052
14.3068
14.3071
14.3077
14.3086
14.3098
14.311
14.3118
14.3113
14.3096
14.3071
14.3046
14.3029
14.3018
14.3023
14.3039
14.3058
14.3066
14.3059
14.304
14.3009
14.2974
14.2951
14.2949
14.2961
14.2998
14.3051
14.3091
14.3118
14.3122
14.3113
14.3088
14.3071
14.3076
14.3088
14.3115
14.317
14.3218
14.3254
14.3266
14.3265
14.3292
14.3328
14.3392
14.351
14.369
14.3944
14.4302
14.4807
14.5505
14.6472
14.7808
14.9609
15.1982
15.5042
15.8926
16.377
16.9691
17.6828
18.5273
19.5109
20.6439
21.895
23.2422
24.6439
26.0322
27.3119
28.4513
29.4021
30.1426
30.6666
30.9961
31.156
31.2157
31.2381
31.2476
31.2769
31.2927
31.2898
31.2713
31.2391
31.2295
31.2418
31.275
31.2788
31.2739
31.2553
31.2229
31.2267
31.2391
31.2759
31.2924
31.291
31.2796
31.2773
31.2788
31.2872
31.2858
31.2743
31.2412
31.2347
31.2429
31.2733
31.2885
31.2855
31.2663
31.2331
31.2349
31.2511
31.2958
31.2963
31.289
31.2648
31.2321
31.2301
31.2432
31.2759
31.278
31.2651
31.2329
31.235
31.2709
31.3026
31.2967
31.2639
31.2355
31.2358
31.2523
31.2956
31.2945
31.2854
31.2572
31.2304
31.2315
31.2477
31.2861
31.2948
31.2881
31.2704
31.2727
31.2877
31.2936
31.2892
31.2733
31.2429
31.2395
31.2569
31.3047
31.3028
31.2872
31.2645
31.2367
31.2347
31.2636
31.3006
31.2981
31.2783
31.2331
31.0572
30.3672
26.9563
15.3328
6.39492
5.9931
5.99225
5.99225
5.99225
5.99225
5.99225
5.99225
5.99225
5.99225
5.99225
5.99225
5.99225
5.99225
5.99225
5.99225
5.99225
5.99225
5.99225
5.99225
5.99225
5.99225
5.99225
5.99225
5.99225
5.99225
5.99225
5.99225
5.99225
5.99225
5.99225
5.99225
5.99225
5.99225
5.99225
5.99225
5.99225
5.99225
5.99225
5.99225
5.99225
5.99225
5.99225
5.99225
5.99225
5.99225
5.99225
5.99225
5.99225
5.99225
5.99225
5.99225
5.99225
5.99225
5.99225
5.99225
5.99225
)
;

boundaryField
{
    sides
    {
        type            calculated;
        value           nonuniform List<scalar> 2(5.99225 5.99892);
    }
    empty1
    {
        type            empty;
    }
    empty2
    {
        type            empty;
    }
}


// ************************************************************************* //
