/*--------------------------------*- C++ -*----------------------------------*\
| =========                 |                                                 |
| \\      /  F ield         | OpenFOAM: The Open Source CFD Toolbox           |
|  \\    /   O peration     | Version:  v1812                                 |
|   \\  /    A nd           | Web:      www.OpenFOAM.com                      |
|    \\/     M anipulation  |                                                 |
\*---------------------------------------------------------------------------*/
FoamFile
{
    version     2.0;
    format      ascii;
    class       volScalarField;
    location    "0.035";
    object      T;
}
// * * * * * * * * * * * * * * * * * * * * * * * * * * * * * * * * * * * * * //

dimensions      [0 0 0 1 0 0 0];


internalField   nonuniform List<scalar> 
800
(
192.063
192.063
192.063
192.063
192.063
192.063
192.063
192.063
192.063
192.063
192.063
192.063
192.063
192.063
192.063
192.063
192.063
192.063
192.063
192.063
192.063
192.063
192.063
192.063
192.063
192.063
192.063
192.063
192.063
192.063
192.063
192.063
192.063
192.063
192.063
192.063
192.063
192.063
192.063
192.063
192.063
192.063
192.063
192.063
192.063
192.063
192.063
192.063
192.063
192.063
192.063
192.063
192.063
192.063
192.063
192.063
192.063
192.063
192.063
192.063
192.063
192.063
192.063
192.063
192.063
192.063
192.063
192.063
192.063
192.063
192.063
192.063
192.063
192.063
192.063
192.063
192.063
192.063
192.063
192.063
192.063
192.063
192.063
192.063
192.063
192.063
192.063
192.063
192.063
192.063
192.063
192.063
192.063
192.063
192.063
192.063
192.063
192.063
192.063
192.063
192.063
192.063
192.063
192.063
192.063
192.063
192.063
192.063
192.063
192.063
192.063
192.063
192.063
192.063
192.063
192.063
192.063
192.063
192.063
192.063
192.063
192.063
192.063
192.063
192.063
192.063
192.063
192.063
192.063
192.063
192.063
192.063
192.063
192.063
192.063
192.063
192.063
192.063
192.063
192.063
192.063
192.063
192.063
192.063
192.063
192.063
192.063
192.063
192.063
192.063
192.063
192.063
192.063
192.063
192.063
192.063
192.063
192.063
192.063
192.063
192.063
192.063
192.063
192.063
192.063
192.063
192.063
192.063
192.063
192.063
192.063
192.063
192.063
192.063
192.063
192.063
192.063
192.063
192.063
192.063
192.063
192.063
192.063
192.063
192.063
192.063
192.063
192.063
192.063
192.063
192.063
192.063
192.063
192.063
192.063
192.063
192.063
192.063
192.063
192.063
192.063
192.063
192.063
192.063
192.063
192.063
192.063
192.063
192.063
192.063
192.063
192.063
192.063
192.063
192.063
192.063
192.063
192.063
192.063
192.063
192.063
192.063
192.063
192.063
192.063
192.063
192.063
192.063
192.063
192.063
192.063
192.063
192.063
192.063
192.063
192.063
192.063
192.063
192.063
192.063
192.063
192.063
192.063
192.063
192.063
192.063
192.063
192.063
192.063
192.063
192.063
192.063
192.063
192.063
192.063
192.063
192.063
192.063
192.063
192.063
192.063
192.063
192.063
192.063
192.063
192.063
192.063
192.063
192.063
192.063
192.063
192.063
192.063
192.063
192.063
192.063
192.063
192.063
192.063
192.063
192.063
192.063
192.063
192.063
192.063
192.063
192.063
192.063
192.063
192.063
192.063
192.063
192.063
192.063
192.063
192.063
192.063
192.063
192.063
192.063
192.063
192.063
192.063
192.063
192.063
192.063
192.063
192.063
192.063
192.063
192.063
192.063
192.063
192.063
192.063
192.063
192.063
192.063
192.063
192.063
192.063
192.063
192.063
192.063
192.063
192.063
192.063
192.063
192.063
192.063
192.063
192.063
192.063
192.063
192.063
192.063
192.063
192.063
192.063
192.063
192.063
192.063
192.063
192.063
192.063
192.063
192.063
192.063
192.063
192.063
192.063
192.063
192.063
192.063
192.063
192.063
192.063
192.063
192.063
192.063
192.063
192.063
192.063
192.063
192.063
192.063
192.063
192.063
192.063
192.063
192.063
192.063
192.063
192.063
192.063
192.063
192.063
192.063
192.063
192.063
192.063
192.063
192.063
192.063
192.063
192.063
192.063
192.063
192.063
192.063
192.063
192.063
192.063
192.063
192.063
192.063
192.063
192.063
192.063
192.063
192.063
192.063
192.063
192.063
192.063
192.063
192.063
192.063
192.063
192.063
192.063
192.063
192.063
192.063
192.063
192.063
192.063
192.063
192.063
192.071
192.256
196.598
273.681
293.326
294.676
295.496
296.192
296.673
296.803
296.795
296.696
296.384
295.908
295.623
295.636
295.738
295.988
296.27
296.332
296.299
296.182
295.96
295.72
295.61
295.618
295.668
295.805
296.01
296.137
296.139
296.125
296.065
295.967
295.943
295.961
296.017
296.115
296.227
296.293
296.297
296.279
296.219
296.124
296.031
295.962
295.926
295.923
295.932
295.943
295.943
295.932
295.918
295.91
295.907
295.91
295.924
295.955
296
296.046
296.081
296.105
296.123
296.127
296.127
296.125
296.127
296.122
296.111
296.093
296.066
296.033
295.997
295.96
295.928
295.907
295.894
295.89
295.892
295.902
295.918
295.94
295.962
295.983
296.002
296.016
296.026
296.036
296.044
296.053
296.067
296.083
296.1
296.112
296.118
296.117
296.11
296.097
296.083
296.07
296.057
296.041
296.022
295.999
295.975
295.954
295.94
295.94
295.951
295.972
296.004
296.032
296.058
296.071
296.069
296.062
296.051
296.047
296.044
296.049
296.061
296.07
296.071
296.064
296.043
296.011
295.98
295.952
295.932
295.923
295.93
295.948
295.967
295.982
295.994
296.005
296.009
296.017
296.029
296.043
296.057
296.067
296.065
296.055
296.042
296.03
296.021
296.019
296.025
296.033
296.039
296.037
296.024
296.001
295.971
295.942
295.922
295.914
295.921
295.945
295.976
296.001
296.017
296.03
296.032
296.037
296.045
296.056
296.067
296.074
296.07
296.057
296.037
296.018
296.004
295.996
295.999
296.009
296.024
296.026
296.017
295.996
295.963
295.926
295.901
295.886
295.886
295.9
295.925
295.945
295.94
295.93
295.905
295.865
295.833
295.816
295.809
295.805
295.829
295.84
295.827
295.796
295.726
295.642
295.518
295.346
295.097
294.734
294.198
293.425
292.34
290.844
288.831
286.187
282.765
278.427
273.031
266.471
258.681
249.671
239.546
228.501
216.871
205.021
193.306
182.148
171.922
162.874
155.134
148.864
144.017
140.486
138.104
136.623
135.882
135.502
135.376
135.381
135.423
135.462
135.468
135.445
135.393
135.397
135.424
135.497
135.497
135.486
135.447
135.388
135.375
135.391
135.45
135.46
135.454
135.429
135.425
135.428
135.445
135.445
135.427
135.374
135.366
135.38
135.435
135.455
135.447
135.411
135.349
135.351
135.38
135.45
135.471
135.461
135.422
135.37
135.366
135.388
135.449
135.446
135.418
135.355
135.357
135.415
135.469
135.459
135.402
135.359
135.362
135.395
135.475
135.479
135.465
135.418
135.369
135.366
135.392
135.464
135.463
135.447
135.418
135.415
135.439
135.438
135.428
135.396
135.344
135.326
135.354
135.425
135.428
135.404
135.369
135.32
135.322
135.381
135.46
135.459
135.432
135.362
135.023
133.734
126.897
88.0379
19.7919
19.2309
19.23
19.23
19.23
19.23
19.23
19.23
19.23
19.23
19.23
19.23
19.23
19.23
19.23
19.23
19.23
19.23
19.23
19.23
19.23
19.23
19.23
19.23
19.23
19.23
19.23
19.23
19.23
19.23
19.23
19.23
19.23
19.23
19.23
19.23
19.23
19.23
19.23
19.23
19.23
19.23
19.23
19.23
19.23
19.23
19.23
19.23
19.23
19.23
19.23
19.23
19.23
19.23
19.23
19.23
19.23
)
;

boundaryField
{
    sides
    {
        type            zeroGradient;
    }
    empty1
    {
        type            empty;
    }
    empty2
    {
        type            empty;
    }
}


// ************************************************************************* //
