/*--------------------------------*- C++ -*----------------------------------*\
| =========                 |                                                 |
| \\      /  F ield         | OpenFOAM: The Open Source CFD Toolbox           |
|  \\    /   O peration     | Version:  v1812                                 |
|   \\  /    A nd           | Web:      www.OpenFOAM.com                      |
|    \\/     M anipulation  |                                                 |
\*---------------------------------------------------------------------------*/
FoamFile
{
    version     2.0;
    format      ascii;
    class       volVectorField;
    location    "0.035";
    object      U;
}
// * * * * * * * * * * * * * * * * * * * * * * * * * * * * * * * * * * * * * //

dimensions      [0 1 -1 0 0 0 0];


internalField   nonuniform List<vector> 
800
(
(19.5975 0 0)
(19.5975 0 0)
(19.5975 0 0)
(19.5975 0 0)
(19.5975 0 0)
(19.5975 0 0)
(19.5975 0 0)
(19.5975 0 0)
(19.5975 0 0)
(19.5975 0 0)
(19.5975 0 0)
(19.5975 0 0)
(19.5975 0 0)
(19.5975 0 0)
(19.5975 0 0)
(19.5975 0 0)
(19.5975 0 0)
(19.5975 0 0)
(19.5975 0 0)
(19.5975 0 0)
(19.5975 0 0)
(19.5975 0 0)
(19.5975 0 0)
(19.5975 0 0)
(19.5975 0 0)
(19.5975 0 0)
(19.5975 0 0)
(19.5975 0 0)
(19.5975 0 0)
(19.5975 0 0)
(19.5975 0 0)
(19.5975 0 0)
(19.5975 0 0)
(19.5975 0 0)
(19.5975 0 0)
(19.5975 0 0)
(19.5975 0 0)
(19.5975 0 0)
(19.5975 0 0)
(19.5975 0 0)
(19.5975 0 0)
(19.5975 0 0)
(19.5975 0 0)
(19.5975 0 0)
(19.5975 0 0)
(19.5975 0 0)
(19.5975 0 0)
(19.5975 0 0)
(19.5975 0 0)
(19.5975 0 0)
(19.5975 0 0)
(19.5975 0 0)
(19.5975 0 0)
(19.5975 0 0)
(19.5975 0 0)
(19.5975 0 0)
(19.5975 0 0)
(19.5975 0 0)
(19.5975 0 0)
(19.5975 0 0)
(19.5975 0 0)
(19.5975 0 0)
(19.5975 0 0)
(19.5975 0 0)
(19.5975 0 0)
(19.5975 0 0)
(19.5975 0 0)
(19.5975 0 0)
(19.5975 0 0)
(19.5975 0 0)
(19.5975 0 0)
(19.5975 0 0)
(19.5975 0 0)
(19.5975 0 0)
(19.5975 0 0)
(19.5975 0 0)
(19.5975 0 0)
(19.5975 0 0)
(19.5975 0 0)
(19.5975 0 0)
(19.5975 0 0)
(19.5975 0 0)
(19.5975 0 0)
(19.5975 0 0)
(19.5975 0 0)
(19.5975 0 0)
(19.5975 0 0)
(19.5975 0 0)
(19.5975 0 0)
(19.5975 0 0)
(19.5975 0 0)
(19.5975 0 0)
(19.5975 0 0)
(19.5975 0 0)
(19.5975 0 0)
(19.5975 0 0)
(19.5975 0 0)
(19.5975 0 0)
(19.5975 0 0)
(19.5975 0 0)
(19.5975 0 0)
(19.5975 0 0)
(19.5975 0 0)
(19.5975 0 0)
(19.5975 0 0)
(19.5975 0 0)
(19.5975 0 0)
(19.5975 0 0)
(19.5975 0 0)
(19.5975 0 0)
(19.5975 0 0)
(19.5975 0 0)
(19.5975 0 0)
(19.5975 0 0)
(19.5975 0 0)
(19.5975 0 0)
(19.5975 0 0)
(19.5975 0 0)
(19.5975 0 0)
(19.5975 0 0)
(19.5975 0 0)
(19.5975 0 0)
(19.5975 0 0)
(19.5975 0 0)
(19.5975 0 0)
(19.5975 0 0)
(19.5975 0 0)
(19.5975 0 0)
(19.5975 0 0)
(19.5975 0 0)
(19.5975 0 0)
(19.5975 0 0)
(19.5975 0 0)
(19.5975 0 0)
(19.5975 0 0)
(19.5975 0 0)
(19.5975 0 0)
(19.5975 0 0)
(19.5975 0 0)
(19.5975 0 0)
(19.5975 0 0)
(19.5975 0 0)
(19.5975 0 0)
(19.5975 0 0)
(19.5975 0 0)
(19.5975 0 0)
(19.5975 0 0)
(19.5975 0 0)
(19.5975 0 0)
(19.5975 0 0)
(19.5975 0 0)
(19.5975 0 0)
(19.5975 0 0)
(19.5975 0 0)
(19.5975 0 0)
(19.5975 0 0)
(19.5975 0 0)
(19.5975 0 0)
(19.5975 0 0)
(19.5975 0 0)
(19.5975 0 0)
(19.5975 0 0)
(19.5975 0 0)
(19.5975 0 0)
(19.5975 0 0)
(19.5975 0 0)
(19.5975 0 0)
(19.5975 0 0)
(19.5975 0 0)
(19.5975 0 0)
(19.5975 0 0)
(19.5975 0 0)
(19.5975 0 0)
(19.5975 0 0)
(19.5975 0 0)
(19.5975 0 0)
(19.5975 0 0)
(19.5975 0 0)
(19.5975 0 0)
(19.5975 0 0)
(19.5975 0 0)
(19.5975 0 0)
(19.5975 0 0)
(19.5975 0 0)
(19.5975 0 0)
(19.5975 0 0)
(19.5975 0 0)
(19.5975 0 0)
(19.5975 0 0)
(19.5975 0 0)
(19.5975 0 0)
(19.5975 0 0)
(19.5975 0 0)
(19.5975 0 0)
(19.5975 0 0)
(19.5975 0 0)
(19.5975 0 0)
(19.5975 0 0)
(19.5975 0 0)
(19.5975 0 0)
(19.5975 0 0)
(19.5975 0 0)
(19.5975 0 0)
(19.5975 0 0)
(19.5975 0 0)
(19.5975 0 0)
(19.5975 0 0)
(19.5975 0 0)
(19.5975 0 0)
(19.5975 0 0)
(19.5975 0 0)
(19.5975 0 0)
(19.5975 0 0)
(19.5975 0 0)
(19.5975 0 0)
(19.5975 0 0)
(19.5975 0 0)
(19.5975 0 0)
(19.5975 0 0)
(19.5975 0 0)
(19.5975 0 0)
(19.5975 0 0)
(19.5975 0 0)
(19.5975 0 0)
(19.5975 0 0)
(19.5975 0 0)
(19.5975 0 0)
(19.5975 0 0)
(19.5975 0 0)
(19.5975 0 0)
(19.5975 0 0)
(19.5975 0 0)
(19.5975 0 0)
(19.5975 0 0)
(19.5975 0 0)
(19.5975 0 0)
(19.5975 0 0)
(19.5975 0 0)
(19.5975 0 0)
(19.5975 0 0)
(19.5975 0 0)
(19.5975 0 0)
(19.5975 0 0)
(19.5975 0 0)
(19.5975 0 0)
(19.5975 0 0)
(19.5975 0 0)
(19.5975 0 0)
(19.5975 0 0)
(19.5975 0 0)
(19.5975 0 0)
(19.5975 0 0)
(19.5975 0 0)
(19.5975 0 0)
(19.5975 0 0)
(19.5975 0 0)
(19.5975 0 0)
(19.5975 0 0)
(19.5975 0 0)
(19.5975 0 0)
(19.5975 0 0)
(19.5975 0 0)
(19.5975 0 0)
(19.5975 0 0)
(19.5975 0 0)
(19.5975 0 0)
(19.5975 0 0)
(19.5975 0 0)
(19.5975 0 0)
(19.5975 0 0)
(19.5975 0 0)
(19.5975 0 0)
(19.5975 0 0)
(19.5975 0 0)
(19.5975 0 0)
(19.5975 0 0)
(19.5975 0 0)
(19.5975 0 0)
(19.5975 0 0)
(19.5975 0 0)
(19.5975 0 0)
(19.5975 0 0)
(19.5975 0 0)
(19.5975 0 0)
(19.5975 0 0)
(19.5975 0 0)
(19.5975 0 0)
(19.5975 0 0)
(19.5975 0 0)
(19.5975 0 0)
(19.5975 0 0)
(19.5975 0 0)
(19.5975 0 0)
(19.5975 0 0)
(19.5975 0 0)
(19.5975 0 0)
(19.5975 0 0)
(19.5975 0 0)
(19.5975 0 0)
(19.5975 0 0)
(19.5975 0 0)
(19.5975 0 0)
(19.5975 0 0)
(19.5975 0 0)
(19.5975 0 0)
(19.5975 0 0)
(19.5975 0 0)
(19.5975 0 0)
(19.5975 0 0)
(19.5975 0 0)
(19.5975 0 0)
(19.5975 0 0)
(19.5975 0 0)
(19.5975 0 0)
(19.5975 0 0)
(19.5975 0 0)
(19.5975 0 0)
(19.5975 0 0)
(19.5975 0 0)
(19.5975 0 0)
(19.5975 0 0)
(19.5975 0 0)
(19.5975 0 0)
(19.5975 0 0)
(19.5975 0 0)
(19.5975 0 0)
(19.5975 0 0)
(19.5975 0 0)
(19.5975 0 0)
(19.5975 0 0)
(19.5975 0 0)
(19.5975 0 0)
(19.5975 0 0)
(19.5975 0 0)
(19.5975 0 0)
(19.5975 0 0)
(19.5975 0 0)
(19.5975 0 0)
(19.5975 0 0)
(19.5975 0 0)
(19.5975 0 0)
(19.5975 0 0)
(19.5975 0 0)
(19.5975 0 0)
(19.5975 0 0)
(19.5975 0 0)
(19.5975 0 0)
(19.5975 0 0)
(19.5975 0 0)
(19.5975 0 0)
(19.5975 0 0)
(19.5975 0 0)
(19.5975 0 0)
(19.5975 0 0)
(19.5975 0 0)
(19.5975 0 0)
(19.5975 0 0)
(19.5975 0 0)
(19.5975 0 0)
(19.5975 0 0)
(19.5975 0 0)
(19.5975 0 0)
(19.5975 0 0)
(19.5975 0 0)
(19.5975 0 0)
(19.5975 0 0)
(19.5975 0 0)
(19.5975 0 0)
(19.5975 0 0)
(19.5975 0 0)
(19.5975 0 0)
(19.5975 0 0)
(19.5975 0 0)
(19.5975 0 0)
(19.5975 0 0)
(19.5975 0 0)
(19.5975 0 0)
(19.5975 0 0)
(19.5975 0 0)
(19.5975 0 0)
(19.5975 0 0)
(19.5975 0 0)
(19.5975 0 0)
(19.5975 0 0)
(19.5975 0 0)
(19.5975 0 0)
(19.5975 0 0)
(19.5975 0 0)
(19.5975 0 0)
(19.5975 0 0)
(19.5975 0 0)
(19.5975 0 0)
(19.5975 0 0)
(19.5975 0 0)
(19.5975 0 0)
(19.5975 0 0)
(19.5975 0 0)
(19.5975 0 0)
(19.5975 0 0)
(19.5975 0 0)
(19.5975 0 0)
(19.5975 0 0)
(19.5975 0 0)
(19.5975 0 0)
(19.5975 0 0)
(19.5975 0 0)
(19.5975 0 0)
(19.5975 0 0)
(19.5975 0 0)
(19.5975 0 0)
(19.5975 0 0)
(19.5975 0 0)
(19.5975 0 0)
(19.5975 0 0)
(19.5975 0 0)
(19.5975 0 0)
(19.5975 0 0)
(19.5975 0 0)
(19.5975 0 0)
(19.5968 0 0)
(19.5816 0 0)
(19.2238 0 0)
(11.217 0 0)
(8.68654 0 0)
(8.67259 0 0)
(8.67736 0 0)
(8.67841 0 0)
(8.6822 0 0)
(8.6888 0 0)
(8.69438 0 0)
(8.69842 0 0)
(8.70088 0 0)
(8.70195 0 0)
(8.70083 0 0)
(8.69738 0 0)
(8.69345 0 0)
(8.6881 0 0)
(8.68274 0 0)
(8.6777 0 0)
(8.67274 0 0)
(8.66932 0 0)
(8.66649 0 0)
(8.66415 0 0)
(8.66262 0 0)
(8.66106 0 0)
(8.66108 0 0)
(8.6616 0 0)
(8.66334 0 0)
(8.66699 0 0)
(8.67068 0 0)
(8.67439 0 0)
(8.67863 0 0)
(8.68237 0 0)
(8.68542 0 0)
(8.68808 0 0)
(8.68937 0 0)
(8.69012 0 0)
(8.69056 0 0)
(8.69022 0 0)
(8.6889 0 0)
(8.68686 0 0)
(8.68432 0 0)
(8.68124 0 0)
(8.67792 0 0)
(8.67486 0 0)
(8.67228 0 0)
(8.67033 0 0)
(8.66901 0 0)
(8.66818 0 0)
(8.66724 0 0)
(8.66681 0 0)
(8.66592 0 0)
(8.6649 0 0)
(8.66472 0 0)
(8.66538 0 0)
(8.66733 0 0)
(8.6706 0 0)
(8.67479 0 0)
(8.67927 0 0)
(8.68327 0 0)
(8.68638 0 0)
(8.68854 0 0)
(8.68907 0 0)
(8.6887 0 0)
(8.68834 0 0)
(8.68738 0 0)
(8.68691 0 0)
(8.68677 0 0)
(8.68639 0 0)
(8.68535 0 0)
(8.68338 0 0)
(8.68064 0 0)
(8.67738 0 0)
(8.674 0 0)
(8.67116 0 0)
(8.66923 0 0)
(8.66839 0 0)
(8.66844 0 0)
(8.669 0 0)
(8.6695 0 0)
(8.6699 0 0)
(8.6704 0 0)
(8.67125 0 0)
(8.67275 0 0)
(8.6751 0 0)
(8.67829 0 0)
(8.68202 0 0)
(8.68554 0 0)
(8.68823 0 0)
(8.68952 0 0)
(8.68921 0 0)
(8.68775 0 0)
(8.6856 0 0)
(8.68326 0 0)
(8.6807 0 0)
(8.67853 0 0)
(8.67639 0 0)
(8.67416 0 0)
(8.67195 0 0)
(8.6699 0 0)
(8.66824 0 0)
(8.66759 0 0)
(8.66791 0 0)
(8.66895 0 0)
(8.6704 0 0)
(8.67177 0 0)
(8.67332 0 0)
(8.67416 0 0)
(8.67432 0 0)
(8.67403 0 0)
(8.67439 0 0)
(8.67544 0 0)
(8.67742 0 0)
(8.67996 0 0)
(8.683 0 0)
(8.68605 0 0)
(8.68817 0 0)
(8.68832 0 0)
(8.68739 0 0)
(8.68528 0 0)
(8.68286 0 0)
(8.68008 0 0)
(8.67795 0 0)
(8.67699 0 0)
(8.67717 0 0)
(8.67722 0 0)
(8.67718 0 0)
(8.67664 0 0)
(8.67553 0 0)
(8.67365 0 0)
(8.67099 0 0)
(8.66889 0 0)
(8.66771 0 0)
(8.66759 0 0)
(8.6682 0 0)
(8.66977 0 0)
(8.67136 0 0)
(8.67286 0 0)
(8.67423 0 0)
(8.67559 0 0)
(8.67732 0 0)
(8.6793 0 0)
(8.68183 0 0)
(8.68414 0 0)
(8.68569 0 0)
(8.68625 0 0)
(8.68549 0 0)
(8.6833 0 0)
(8.68068 0 0)
(8.67792 0 0)
(8.67529 0 0)
(8.67412 0 0)
(8.67447 0 0)
(8.67545 0 0)
(8.67675 0 0)
(8.67718 0 0)
(8.67715 0 0)
(8.6763 0 0)
(8.67384 0 0)
(8.67124 0 0)
(8.66972 0 0)
(8.66949 0 0)
(8.67024 0 0)
(8.67186 0 0)
(8.67348 0 0)
(8.67492 0 0)
(8.67589 0 0)
(8.67654 0 0)
(8.67725 0 0)
(8.67833 0 0)
(8.68029 0 0)
(8.6825 0 0)
(8.68414 0 0)
(8.68495 0 0)
(8.68427 0 0)
(8.68255 0 0)
(8.67945 0 0)
(8.6758 0 0)
(8.67323 0 0)
(8.67195 0 0)
(8.67248 0 0)
(8.67427 0 0)
(8.67682 0 0)
(8.67842 0 0)
(8.67931 0 0)
(8.67879 0 0)
(8.67668 0 0)
(8.67365 0 0)
(8.67144 0 0)
(8.67207 0 0)
(8.67337 0 0)
(8.67631 0 0)
(8.68088 0 0)
(8.68416 0 0)
(8.68599 0 0)
(8.68619 0 0)
(8.68505 0 0)
(8.68075 0 0)
(8.67687 0 0)
(8.67493 0 0)
(8.67349 0 0)
(8.67472 0 0)
(8.67426 0 0)
(8.67455 0 0)
(8.67418 0 0)
(8.67319 0 0)
(8.67173 0 0)
(8.67115 0 0)
(8.67169 0 0)
(8.67306 0 0)
(8.67581 0 0)
(8.67877 0 0)
(8.6802 0 0)
(8.68054 0 0)
(8.67918 0 0)
(8.6775 0 0)
(8.67553 0 0)
(8.67503 0 0)
(8.67629 0 0)
(8.67998 0 0)
(8.68693 0 0)
(8.69281 0 0)
(8.69236 0 0)
(8.69309 0 0)
(8.69105 0 0)
(8.68458 0 0)
(8.6768 0 0)
(8.68039 0 0)
(8.68002 0 0)
(8.67896 0 0)
(8.67725 0 0)
(8.675 0 0)
(8.67525 0 0)
(8.6767 0 0)
(8.68191 0 0)
(8.68565 0 0)
(8.68417 0 0)
(8.67728 0 0)
(8.67346 0 0)
(8.67416 0 0)
(8.67909 0 0)
(8.68918 0 0)
(8.689 0 0)
(8.68475 0 0)
(8.67494 0 0)
(8.67166 0 0)
(8.67279 0 0)
(8.67793 0 0)
(8.68648 0 0)
(8.68668 0 0)
(8.68377 0 0)
(8.67311 0 0)
(8.67189 0 0)
(8.67299 0 0)
(8.6778 0 0)
(8.67888 0 0)
(8.67836 0 0)
(8.67583 0 0)
(8.67509 0 0)
(8.67758 0 0)
(8.68576 0 0)
(8.68607 0 0)
(8.68364 0 0)
(8.67449 0 0)
(8.67109 0 0)
(8.67231 0 0)
(8.67841 0 0)
(8.68818 0 0)
(8.68912 0 0)
(8.68516 0 0)
(8.67483 0 0)
(8.67284 0 0)
(8.67456 0 0)
(8.68082 0 0)
(8.68938 0 0)
(8.68902 0 0)
(8.68485 0 0)
(8.67442 0 0)
(8.6738 0 0)
(8.67781 0 0)
(8.68768 0 0)
(8.68742 0 0)
(8.67748 0 0)
(8.66944 0 0)
(8.67153 0 0)
(8.68136 0 0)
(8.68956 0 0)
(8.68949 0 0)
(8.68472 0 0)
(8.6736 0 0)
(8.67208 0 0)
(8.67428 0 0)
(8.68172 0 0)
(8.68864 0 0)
(8.68835 0 0)
(8.68373 0 0)
(8.67139 0 0)
(8.67143 0 0)
(8.6738 0 0)
(8.67914 0 0)
(8.67899 0 0)
(8.6752 0 0)
(8.67401 0 0)
(8.67532 0 0)
(8.67981 0 0)
(8.68811 0 0)
(8.68922 0 0)
(8.68408 0 0)
(8.67078 0 0)
(8.67088 0 0)
(8.67515 0 0)
(8.68139 0 0)
(8.68763 0 0)
(8.69051 0 0)
(8.68188 0 0)
(8.67171 0 0)
(8.67248 0 0)
(8.67613 0 0)
(8.67122 0 0)
(8.64156 0 0)
(8.42721 0 0)
(7.35251 0 0)
(2.60094 0 0)
(-5.77206 0 0)
(-6.19628 0 0)
(-6.19633 0 0)
(-6.19633 0 0)
(-6.19633 0 0)
(-6.19633 0 0)
(-6.19633 0 0)
(-6.19633 0 0)
(-6.19633 0 0)
(-6.19633 0 0)
(-6.19633 0 0)
(-6.19633 0 0)
(-6.19633 0 0)
(-6.19633 0 0)
(-6.19633 0 0)
(-6.19633 0 0)
(-6.19633 0 0)
(-6.19633 0 0)
(-6.19633 0 0)
(-6.19633 0 0)
(-6.19633 0 0)
(-6.19633 0 0)
(-6.19633 0 0)
(-6.19633 0 0)
(-6.19633 0 0)
(-6.19633 0 0)
(-6.19633 0 0)
(-6.19633 0 0)
(-6.19633 0 0)
(-6.19633 0 0)
(-6.19633 0 0)
(-6.19633 0 0)
(-6.19633 0 0)
(-6.19633 0 0)
(-6.19633 0 0)
(-6.19633 0 0)
(-6.19633 0 0)
(-6.19633 0 0)
(-6.19633 0 0)
(-6.19633 0 0)
(-6.19633 0 0)
(-6.19633 0 0)
(-6.19633 0 0)
(-6.19633 0 0)
(-6.19633 0 0)
(-6.19633 0 0)
(-6.19633 0 0)
(-6.19633 0 0)
(-6.19633 0 0)
(-6.19633 0 0)
(-6.19633 0 0)
(-6.19633 0 0)
(-6.19633 0 0)
(-6.19633 0 0)
(-6.19633 0 0)
(-6.19633 0 0)
(-6.19633 0 0)
)
;

boundaryField
{
    sides
    {
        type            zeroGradient;
    }
    empty1
    {
        type            empty;
    }
    empty2
    {
        type            empty;
    }
}


// ************************************************************************* //
