/*--------------------------------*- C++ -*----------------------------------*\
| =========                 |                                                 |
| \\      /  F ield         | OpenFOAM: The Open Source CFD Toolbox           |
|  \\    /   O peration     | Version:  v1812                                 |
|   \\  /    A nd           | Web:      www.OpenFOAM.com                      |
|    \\/     M anipulation  |                                                 |
\*---------------------------------------------------------------------------*/
FoamFile
{
    version     2.0;
    format      ascii;
    class       volScalarField;
    location    "0.2";
    object      p;
}
// * * * * * * * * * * * * * * * * * * * * * * * * * * * * * * * * * * * * * //

dimensions      [1 -1 -2 0 0 0 0];


internalField   nonuniform List<scalar> 
1000
(
1
1
1
1
1
1
1
1
1
1
1
1
1
1
1
1
1
1
1
1
1
1
1
1
1
1
1
1
1
1
1
1
1
1
1
1
1
1
1
1
1
1
1
1
1
1
1
1
1
1
1
1
1
1
1
1
1
1
1
1
1
1
1
1
1
1
1
1
1
1
1
1
1
1
1
1
1
1
1
1
1
1
1
1
1
1
1
1
1
1
1
1
1
1
1
1
1
1
1
1
1
1
1
1
1
1
1
1
1
1
1
1
1
1
1
1
1
1
1
1
1
1
1
1
1
1
1
1
1
1
1
1
1
1
1
1
1
1
1
1
1
1
1
1
1
1
1
1
1
1
1
1
1
1
1
1
1
1
1
1
1
1
1
1
1
1
1
1
1
1
1
1
1
1
1
1
1
1
1
1
1
1
1
1
1
1
1
1
1
1
1
1
1
1
1
1
1
1
1
1
1
1
1
1
1
1
1
1
1
1
1
1
1
1
1
1
1
1
1
1
1
1
1
1
1
1
1
1
1
1
1
1
1
1
1
1
1
1
1
1
1
1
1
1
1
1
1
1
1
1
1
1
1
1
1
1
0.9999999999
0.999999977
0.9999979236
0.9999504705
0.9995775752
0.9982800206
0.9957134028
0.9921271069
0.987969329
0.9835564067
0.9790454459
0.9745013789
0.9699483834
0.9653950205
0.9608445198
0.956298518
0.9517582477
0.9472248434
0.9426993848
0.9381828815
0.9336762565
0.9291803398
0.9246958691
0.9202234961
0.9157637937
0.9113172649
0.9068843504
0.9024654366
0.8980608619
0.8936709228
0.8892958788
0.8849359574
0.8805913576
0.8762622531
0.8719487961
0.8676511186
0.8633693357
0.8591035469
0.8548538381
0.8506202827
0.8464029433
0.8422018725
0.8380171141
0.833848704
0.8296966708
0.8255610365
0.8214418173
0.817339024
0.8132526624
0.8091827342
0.8051292367
0.8010921637
0.7970715055
0.7930672492
0.7890793795
0.7851078779
0.781152724
0.7772138949
0.7732913658
0.7693851099
0.7654950989
0.7616213027
0.7577636897
0.7539222272
0.750096881
0.7462876159
0.7424943953
0.7387171821
0.7349559379
0.7312106235
0.7274811991
0.7237676239
0.7200698566
0.7163878552
0.7127215771
0.7090709792
0.7054360178
0.701816649
0.6982128281
0.6946245102
0.69105165
0.687494202
0.6839521201
0.6804253581
0.6769138696
0.6734176077
0.6699365255
0.6664705758
0.6630197112
0.6595838843
0.6561630472
0.6527571522
0.6493661513
0.6459899964
0.6426286394
0.6392820319
0.6359501256
0.6326328722
0.629330223
0.6260421296
0.6227685435
0.619509416
0.6162646984
0.6130343421
0.6098182986
0.6066165189
0.6034289546
0.600255557
0.5970962773
0.593951067
0.5908198774
0.5877026599
0.5845993659
0.581509947
0.5784343546
0.5753725402
0.5723244555
0.5692900519
0.5662692814
0.5632620954
0.5602684459
0.5572882846
0.5543215634
0.5513682343
0.5484282493
0.5455015605
0.5425881199
0.5396878798
0.5368007925
0.5339268103
0.5310658856
0.5282179709
0.5253830186
0.5225609816
0.5197518124
0.5169554638
0.5141718887
0.51140104
0.5086428707
0.5058973338
0.5031643826
0.5004439702
0.4977360501
0.4950405755
0.4923574999
0.4896867769
0.4870283601
0.4843822032
0.4817482599
0.4791264842
0.4765168299
0.4739192511
0.4713337017
0.468760136
0.4661985081
0.4636487722
0.4611108827
0.4585847939
0.4560704603
0.4535678362
0.4510768762
0.4485975349
0.4461297667
0.4436735263
0.4412287681
0.4387954468
0.436373517
0.4339629333
0.43156365
0.4291756218
0.4267988032
0.4244331484
0.4220786118
0.4197351477
0.4174027103
0.4150812535
0.4127707314
0.4104710977
0.4081823062
0.4059043104
0.4036370637
0.4013805193
0.3991346304
0.3968993498
0.3946746303
0.3924604244
0.3902566846
0.3880633631
0.385880412
0.3837077834
0.381545429
0.3793933009
0.3772513508
0.3751195308
0.372997793
0.3708860898
0.368784374
0.3666925987
0.3646107178
0.3625386859
0.3604764583
0.3584239914
0.3563812425
0.3543481701
0.3523247338
0.3503108941
0.3483066125
0.3463118514
0.3443265733
0.3423507409
0.3403843161
0.3384272597
0.3364795296
0.3345410801
0.3326118595
0.3306918079
0.328780853
0.3268789053
0.3249858484
0.3231015278
0.3212257294
0.3193581465
0.3174983236
0.3156455713
0.3137988533
0.3119567171
0.310117561
0.3082811978
0.3064545461
0.3046675022
0.3030078094
0.3016566219
0.300847166
0.3005710521
0.300545155
0.3005919207
0.3008740378
0.3016033436
0.3023679653
0.3025446917
0.3025450353
0.3025499138
0.3026067214
0.3027571354
0.3029128533
0.3029509463
0.3029530804
0.3029491307
0.3029504995
0.3029642675
0.3029913682
0.3030085438
0.3030094134
0.3030125404
0.3030243146
0.3030417727
0.3030504196
0.3030533743
0.3030566095
0.3030642051
0.3030724241
0.3030741057
0.3030748635
0.3030776709
0.3030836121
0.3030884821
0.303090613
0.3030924421
0.3030953166
0.3030989299
0.303101568
0.303102543
0.3031035447
0.3031051515
0.3031066957
0.3031078083
0.3031093278
0.303111324
0.3031135199
0.3031154456
0.303116529
0.3031166462
0.303116307
0.3031154994
0.3031150203
0.3031152908
0.3031164434
0.3031183461
0.3031205079
0.3031219499
0.303122316
0.3031222415
0.3031217508
0.3031211838
0.3031211202
0.303121368
0.3031220393
0.3031230063
0.3031239341
0.3031245651
0.3031247709
0.3031247342
0.3031245483
0.303124352
0.3031243319
0.3031244872
0.3031247979
0.303125294
0.3031259006
0.3031263122
0.3031266155
0.3031267236
0.3031265849
0.3031260775
0.3031252882
0.3031247226
0.3031247117
0.3031248773
0.3031252163
0.3031255839
0.3031260712
0.3031263708
0.3031264442
0.303126401
0.3031262998
0.3031261601
0.3031261317
0.3031261871
0.3031262962
0.3031264509
0.3031266307
0.3031267739
0.3031272194
0.3031273596
0.3031273108
0.3031270673
0.3031269997
0.3031271204
0.3031276634
0.3031281199
0.3031283151
0.3031284405
0.3031285642
0.303128514
0.3031282912
0.3031279561
0.3031275273
0.3031271582
0.3031270012
0.3031269935
0.3031270524
0.3031272109
0.3031274831
0.3031278558
0.3031281521
0.3031283587
0.3031285506
0.3031287022
0.3031287719
0.303128752
0.3031287064
0.303128637
0.3031285496
0.3031284319
0.3031282546
0.3031281069
0.3031280851
0.3031281214
0.303128202
0.3031283558
0.3031286452
0.3031289654
0.3031291314
0.3031291442
0.3031290798
0.3031289529
0.3031286641
0.3031281943
0.3031277032
0.3031274367
0.3031272022
0.3031271063
0.303127115
0.3031271826
0.3031273995
0.3031277691
0.3031281291
0.3031281964
0.3031282979
0.303128363
0.303128367
0.303128315
0.3031282519
0.3031281715
0.3031282122
0.3031281977
0.3031281793
0.3031281638
0.3031281633
0.3031282331
0.3031283959
0.3031287142
0.3031290836
0.3031292716
0.303129513
0.3031297062
0.3031294635
0.3031293634
0.3031294575
0.3031289088
0.3031285582
0.3031283333
0.3031279515
0.3031278304
0.3031278358
0.3031278889
0.3031280007
0.3031281715
0.3031283913
0.3031286416
0.3031288866
0.3031290618
0.3031291761
0.303129326
0.3031294965
0.3031295943
0.3031297097
0.3031296123
0.3031292523
0.3031286985
0.303130216
0.3031300331
0.3031226625
0.3031220653
0.3031240311
0.3031269095
0.3031295743
0.3031308604
0.303131017
0.3031310812
0.3031312019
0.3031313415
0.3031315111
0.3031316619
0.3031317343
0.3031317397
0.3031317224
0.3031316638
0.3031315537
0.3031313931
0.303131223
0.3031310557
0.3031309133
0.3031308215
0.3031307894
0.3031307934
0.3031308164
0.3031308692
0.3031309579
0.3031310837
0.3031312345
0.3031313831
0.3031315022
0.3031315754
0.3031316062
0.303131613
0.3031316132
0.303131606
0.3031315853
0.3031315514
0.3031315064
0.3031314566
0.3031314189
0.3031313967
0.3031313932
0.303131395
0.3031314049
0.3031314311
0.3031314885
0.3031315946
0.3031317566
0.3031319551
0.3031321397
0.3031322469
0.3031322628
0.3031322481
0.3031321991
0.3031320684
0.3031318488
0.3031315453
0.3031311375
0.3031307415
0.3031304894
0.3031304255
0.303130431
0.3031304929
0.3031306661
0.3031310057
0.3031315548
0.3031323028
0.3031331345
0.3031338522
0.3031343305
0.3031345388
0.303134588
0.3031345727
0.3031344806
0.303134268
0.303133936
0.3031335032
0.3031330438
0.3031326638
0.3031324524
0.3031323783
0.3031323659
0.3031323615
0.3031323687
0.3031324029
0.303132467
0.3031325473
0.3031326331
0.3031327206
0.3031328049
0.3031328865
0.3031329797
0.3031331042
0.3031332642
0.3031334368
0.3031335806
0.3031336679
0.3031336903
0.3031336708
0.3031335796
0.3031334112
0.3031331517
0.3031327452
0.3031321837
0.3031315741
0.3031311143
0.3031309104
0.3031308332
0.3031308439
0.3031309385
0.3031311725
0.303131568
0.3031321749
0.3031330009
0.3031339245
0.3031347319
0.3031352818
0.3031355642
0.303135693
0.3031357049
0.3031356456
0.3031356122
0.3031355961
0.3031355486
0.3031355106
0.3031355194
0.3031355808
0.3031355733
0.3031355358
0.3031356008
0.3031357296
0.3031358157
0.3031358656
0.3031360247
0.3031362638
0.3031364381
0.3031364342
0.3031364957
0.3031366621
0.3031368005
0.3031367302
0.303136665
0.3031367852
0.3031369244
0.3031367924
0.3031365566
0.3031365418
0.3031365531
0.3031361834
0.303135479
0.303135083
0.3031349096
0.3031345931
0.3031340074
0.303133847
0.3031329804
0.3031240119
0.3030649409
0.3026663766
0.2999856284
0.2830604659
0.2128375936
0.1237874532
0.1011867563
0.1000126903
0.1000000172
0.1
0.1
0.1
0.1
0.1
0.1
0.1
0.1
0.1
0.1
0.1
0.1
0.1
0.1
0.1
0.1
0.1
0.1
0.1
0.1
0.1
0.1
0.1
0.1
0.1
0.1
0.1
0.1
0.1
0.1
0.1
0.1
0.1
0.1
0.1
0.1
0.1
0.1
0.1
0.1
0.1
0.1
0.1
0.1
0.1
0.1
0.1
0.1
0.1
0.1
0.1
0.1
0.1
0.1
0.1
0.1
0.1
0.1
0.1
0.1
0.1
0.1
0.1
0.1
0.1
0.1
0.1
0.1
0.1
0.1
0.1
0.1
0.1
0.1
0.1
0.1
0.1
0.1
0.1
0.1
0.1
0.1
0.1
0.1
0.1
0.1
0.1
0.1
0.1
0.1
0.1
0.1
0.1
0.1
0.1
0.1
0.1
0.1
0.1
0.1
0.1
0.1
0.1
0.1
0.1
0.1
0.1
0.1
0.1
0.1
0.1
0.1
0.1
0.1
0.1
0.1
0.1
0.1
0.1
0.1
0.1
0.1
0.1
0.1
0.1
0.1
0.1
0.1
0.1
0.1
0.1
0.1
0.1
0.1
0.1
0.1
0.1
0.1
0.1
0.1
0.1
0.1
0.1
0.1
0.1
)
;

boundaryField
{
    sides
    {
        type            zeroGradient;
    }
    empty
    {
        type            empty;
    }
}


// ************************************************************************* //
