/*--------------------------------*- C++ -*----------------------------------*\
| =========                 |                                                 |
| \\      /  F ield         | OpenFOAM: The Open Source CFD Toolbox           |
|  \\    /   O peration     | Version:  v1812                                 |
|   \\  /    A nd           | Web:      www.OpenFOAM.com                      |
|    \\/     M anipulation  |                                                 |
\*---------------------------------------------------------------------------*/
FoamFile
{
    version     2.0;
    format      ascii;
    class       surfaceScalarField;
    location    "0.2";
    object      phi;
}
// * * * * * * * * * * * * * * * * * * * * * * * * * * * * * * * * * * * * * //

dimensions      [1 0 -1 0 0 0 0];
oriented        oriented;


internalField   nonuniform List<scalar> 
999
(
2.039330011e-15
1.401252584e-15
5.09146799e-15
4.746461532e-15
5.742325846e-15
4.946679917e-15
4.263979845e-15
4.474055707e-15
1.929473618e-15
1.711017501e-15
1.232704518e-15
1.424850661e-15
1.082677539e-15
2.092769041e-15
8.679068228e-16
1.252646161e-15
8.809026325e-16
1.260302448e-15
1.140995868e-15
1.943776592e-15
1.572759575e-15
3.306642443e-16
8.567572132e-16
5.122187171e-16
1.2458729e-15
5.965075493e-15
6.963718256e-15
8.363174848e-15
9.740248992e-15
1.126001213e-14
1.120339196e-14
1.109067931e-14
1.090856354e-14
1.083582523e-14
9.957415533e-15
9.514727247e-15
1.022533975e-14
8.476850704e-15
8.625258259e-15
7.825082775e-15
7.241504744e-15
6.831315103e-15
7.635091829e-15
6.364125319e-15
6.628777752e-15
6.048725227e-15
5.91067803e-15
6.119513601e-15
6.121418249e-15
5.479352909e-15
5.100991789e-15
4.913213434e-15
2.888754186e-15
4.045420008e-15
3.165050703e-15
2.578959213e-15
8.70345643e-16
5.120567311e-17
-3.960239545e-16
-2.320310581e-15
-4.485519339e-15
-4.410213343e-15
-6.08489581e-15
-5.698386261e-15
-5.365498479e-15
-5.476435642e-15
-3.563088508e-15
-4.382720556e-15
-3.879121264e-15
-5.068899989e-15
-5.698398908e-15
-7.442690086e-15
-6.367741954e-15
-6.260885149e-15
-4.451681695e-15
-5.400912425e-15
-4.85722918e-15
-9.099341258e-16
-1.625258079e-15
9.583043984e-16
1.077405386e-15
2.545913731e-15
2.998657316e-15
3.174128038e-15
5.481628796e-15
3.878234471e-15
2.799328854e-15
1.782842939e-15
1.728649079e-15
1.604425903e-15
-2.144298072e-16
-5.511112762e-16
-4.87067297e-16
-5.97505071e-16
-1.883738844e-16
2.454261686e-15
1.516650663e-15
1.088223627e-15
1.32796122e-15
5.917726403e-16
2.893525571e-16
-2.532772701e-15
-2.450198297e-15
-3.78416536e-15
-5.271681178e-15
-4.76164086e-15
-4.207003022e-15
-2.821493171e-15
-2.203679049e-15
-1.683770245e-15
-3.426952531e-15
-3.625708306e-15
-3.700249763e-15
-3.953194656e-15
-2.963887637e-15
-2.989635047e-15
-5.994972843e-15
-6.877319596e-15
-9.077029124e-15
-8.934294151e-15
-9.107054871e-15
-1.012127972e-14
-8.805325895e-15
-7.098270266e-15
-4.739911256e-15
-1.61351665e-15
1.412040766e-15
6.053959907e-15
9.36402871e-15
1.111030975e-14
1.159826582e-14
1.192324377e-14
1.403485866e-14
1.635431254e-14
1.402149663e-14
1.403822722e-14
1.460611142e-14
1.510108424e-14
1.552607042e-14
1.672319399e-14
1.44008027e-14
1.369347422e-14
1.356928684e-14
1.320134e-14
1.285298256e-14
1.294446997e-14
1.101047148e-14
1.060230419e-14
1.122773573e-14
1.216512909e-14
1.327240537e-14
1.091299432e-14
1.238227763e-14
1.179364888e-14
9.675078534e-15
9.49555605e-15
8.355770873e-15
8.293603736e-15
8.193719011e-15
7.94414424e-15
7.131620991e-15
6.740722899e-15
7.332344e-15
9.07409722e-15
8.772902148e-15
7.87378956e-15
7.402637438e-15
7.410820068e-15
8.328564055e-15
7.501223516e-15
7.133402398e-15
7.859154941e-15
7.578954499e-15
7.762001541e-15
8.411543427e-15
9.34629958e-15
1.120342595e-14
1.078626006e-14
1.195993261e-14
1.320184744e-14
1.27584178e-14
1.065489265e-14
7.98311728e-15
5.308860946e-15
6.236887721e-15
6.468761467e-15
5.519323639e-15
5.463353121e-15
5.417551693e-15
4.336398185e-15
3.557062347e-15
4.703952641e-15
4.025855517e-15
2.739864252e-15
4.445684054e-15
1.59061089e-15
4.491850452e-16
1.894481194e-15
9.773020403e-16
3.347127811e-16
-1.033601765e-15
-1.515459414e-15
-1.162321506e-15
-1.27184535e-15
-7.849885035e-16
-2.487995619e-16
3.78161752e-17
4.308523933e-16
2.000971115e-16
-1.241591035e-15
-1.375115694e-15
-2.774401147e-15
-3.43447405e-15
-4.389746166e-15
-3.643711243e-15
-3.762209264e-15
-2.56312091e-15
-3.101409265e-15
-3.279908741e-15
-1.624912369e-15
-9.932226071e-16
-1.904880633e-15
-1.154208527e-15
7.285456616e-16
3.63962699e-16
-1.022258795e-16
-1.630354405e-16
3.602221212e-16
-1.212921577e-15
-2.11108935e-15
-2.128346723e-15
-2.109076373e-15
-2.325831987e-15
-2.524803036e-15
-3.725687708e-15
-6.240398757e-15
-7.174966705e-15
-7.052854178e-15
-8.199971868e-15
-9.110320878e-15
-1.005579447e-14
-9.823213813e-15
-1.119596352e-14
-1.086492373e-14
-1.062267883e-14
-1.04605257e-14
-1.032818745e-14
-1.073686168e-14
-1.135677311e-14
-1.144737148e-14
-1.158514687e-14
-1.223523537e-14
-1.385137762e-14
-1.419348874e-14
-1.457432837e-14
4.897472397e-13
1.251177914e-09
4.467594185e-07
2.939223066e-05
0.000489729632
0.00299777356
0.009500718817
0.02007610643
0.03329404643
0.04778388991
0.06276870719
0.07790468208
0.09305882765
0.1081830742
0.1232600493
0.1382822823
0.1532450698
0.1681444007
0.1829765162
0.1977379017
0.2124253428
0.2270359584
0.2415672035
0.2560168524
0.2703829719
0.2846638908
0.2988581705
0.3129645768
0.3269820546
0.3409097057
0.3547467695
0.3684926057
0.3821466797
0.3957085499
0.4091778566
0.4225543126
0.4358376946
0.4490278362
0.4621246215
0.4751279797
0.4880378803
0.5008543286
0.5135773625
0.5262070487
0.5387434801
0.5511867733
0.5635370659
0.5757945151
0.5879592953
0.6000315969
0.6120116247
0.6238995964
0.6356957419
0.6474003016
0.6590135263
0.6705356754
0.6819670169
0.6933078261
0.7045583854
0.7157189836
0.726789915
0.7377714796
0.7486639819
0.7594677311
0.7701830405
0.7808102269
0.7913496106
0.8018015153
0.8121662672
0.8224441953
0.8326356308
0.8427409074
0.8527603604
0.8626943271
0.8725431464
0.8823071585
0.8919867052
0.9015821293
0.9110937746
0.9205219858
0.9298671088
0.9391294897
0.9483094756
0.957407414
0.9664236528
0.9753585404
0.9842124254
0.9929856566
1.001678583
1.010291554
1.018824919
1.027279026
1.035654226
1.043950866
1.052169296
1.060309865
1.068372921
1.076358812
1.084267886
1.09210049
1.099856973
1.10753768
1.115142959
1.122673154
1.130128612
1.137509678
1.144816695
1.152050009
1.159209962
1.166296897
1.173311157
1.180253083
1.187123016
1.193921296
1.200648264
1.207304258
1.213889617
1.220404678
1.226849779
1.233225256
1.239531445
1.245768679
1.251937294
1.258037623
1.264069999
1.270034754
1.275932218
1.281762722
1.287526596
1.293224168
1.298855767
1.30442172
1.309922353
1.315357992
1.320728962
1.326035586
1.331278189
1.336457091
1.341572616
1.346625084
1.351614814
1.356542125
1.361407337
1.366210765
1.370952727
1.375633539
1.380253514
1.384812968
1.389312213
1.393751562
1.398131325
1.402451814
1.406713337
1.410916205
1.415060724
1.419147203
1.423175946
1.42714726
1.431061449
1.434918817
1.438719666
1.442464298
1.446153015
1.449786117
1.453363903
1.456886672
1.460354722
1.463768349
1.46712785
1.470433519
1.473685652
1.476884542
1.480030481
1.483123763
1.486164677
1.489153514
1.492090563
1.494976114
1.497810453
1.500593869
1.503326646
1.50600907
1.508641426
1.511223995
1.513757062
1.516240907
1.518675811
1.521062053
1.52339991
1.525689662
1.527931583
1.530125948
1.53227303
1.534373103
1.536426435
1.538433297
1.540393956
1.542308677
1.544177724
1.54600136
1.547779845
1.549513436
1.55120239
1.552846961
1.554447401
1.55600396
1.557516888
1.558986432
1.560412837
1.561796349
1.563137213
1.564435672
1.565691971
1.566906357
1.568079075
1.569210376
1.570300513
1.571349743
1.57235833
1.573326549
1.574254689
1.575143061
1.575992009
1.576801934
1.577573315
1.57830675
1.579002937
1.579662458
1.580284937
1.58086638
1.58139316
1.581833627
1.582139225
1.582278659
1.58227983
1.582251161
1.582193143
1.582064084
1.581905606
1.581770353
1.581750045
1.581737266
1.581721004
1.581697678
1.58166112
1.581628796
1.581632271
1.581638287
1.581642058
1.581644224
1.581640847
1.581629396
1.581609437
1.581595319
1.58158878
1.581590975
1.581598671
1.581614367
1.581622306
1.581623081
1.581617365
1.581606216
1.581596003
1.581589355
1.581587193
1.581588956
1.581593327
1.581598002
1.5816011
1.581601739
1.581599825
1.581596353
1.581591843
1.581587552
1.581584347
1.581582922
1.58158496
1.581591096
1.581599209
1.581606311
1.581608926
1.581603931
1.581594836
1.581583991
1.5815738
1.581569373
1.581570875
1.581578926
1.581591847
1.581603029
1.581606865
1.581604837
1.581600674
1.581593372
1.581587906
1.581584802
1.581584776
1.581587836
1.581592087
1.581595475
1.581596392
1.581594713
1.581592377
1.581589495
1.581587649
1.581587085
1.581588329
1.581591012
1.581595281
1.581599119
1.581601036
1.581601454
1.581600569
1.581598442
1.58159418
1.581589317
1.581586913
1.58158584
1.58158665
1.581588815
1.581592716
1.581596645
1.581598439
1.581598905
1.581598622
1.581597365
1.58159604
1.581595414
1.581595774
1.581597009
1.581598663
1.58159984
1.581600494
1.581600643
1.5815998
1.581599248
1.581599103
1.581599452
1.581600335
1.581602378
1.581604502
1.581606067
1.58160671
1.581606739
1.581606267
1.58160458
1.581601873
1.581598949
1.581597083
1.581596643
1.581596634
1.581597345
1.581598776
1.581600806
1.581603171
1.581605524
1.581607465
1.581609047
1.581610261
1.58161098
1.581611594
1.58161196
1.581612015
1.581611753
1.58161123
1.581610646
1.581610666
1.581611154
1.581612003
1.581613535
1.581615992
1.581619166
1.58162184
1.581623126
1.581623809
1.581623447
1.581622301
1.581619862
1.581616514
1.581613498
1.581612152
1.581612114
1.581613051
1.581614216
1.581616078
1.581618711
1.581621703
1.58162425
1.581625754
1.581626772
1.581627444
1.581627935
1.581628126
1.581628109
1.58162784
1.581627505
1.581627254
1.581627056
1.581626737
1.581626291
1.581626127
1.581626301
1.581626963
1.581627771
1.581627672
1.581626128
1.581623332
1.581618881
1.581611714
1.581600833
1.581583654
1.581556702
1.581512926
1.58144014
1.581314778
1.581092968
1.580701223
1.580015403
1.578833927
1.576840476
1.573558574
1.568302318
1.560134701
1.547855189
1.53004695
1.505216956
1.472048032
1.429742274
1.378380082
1.319175027
1.254532936
1.187883825
1.123455479
1.066206148
1.021820616
0.9951063093
0.9851160832
0.9834317631
0.9833493003
0.9833483594
0.9833731492
0.9834531614
0.9836125735
0.9838576894
0.9841675135
0.9844915469
0.9847624601
0.9849309153
0.9850040851
0.9850282567
0.9850375277
0.9850443034
0.9850530491
0.9850662581
0.9850849622
0.985108304
0.9851334417
0.9851567062
0.9851749173
0.98518705
0.9851944041
0.9851990424
0.9852024088
0.9852052527
0.985207991
0.9852108835
0.9852139987
0.985217138
0.9852198441
0.9852216874
0.9852225336
0.985222676
0.9852225877
0.985222481
0.9852224513
0.9852224868
0.9852226001
0.9852228512
0.9852233331
0.9852241735
0.9852254739
0.9852272318
0.9852292544
0.9852311844
0.9852327312
0.9852340384
0.9852351287
0.9852357231
0.9852355719
0.9852347675
0.9852332036
0.9852312487
0.9852296293
0.9852288705
0.9852287566
0.9852287495
0.9852290172
0.9852298657
0.9852316567
0.9852345094
0.9852380707
0.9852413877
0.9852436421
0.9852442158
0.9852438522
0.9852431551
0.9852425205
0.9852415302
0.9852398644
0.985237697
0.985235231
0.9852328544
0.9852311343
0.9852303159
0.9852300918
0.9852300699
0.9852301743
0.9852304066
0.9852307986
0.985231338
0.9852319835
0.9852326894
0.9852334351
0.9852342347
0.9852351192
0.9852361182
0.9852372538
0.9852385054
0.985239697
0.9852405372
0.9852409389
0.9852410439
0.9852410393
0.9852406525
0.9852396999
0.985237921
0.9852352538
0.9852319845
0.985228973
0.9852272542
0.9852267344
0.9852267767
0.9852269829
0.9852277414
0.9852293576
0.9852321508
0.9852362391
0.9852412721
0.9852463929
0.9852504168
0.9852526886
0.9852536281
0.9852539398
0.9852540925
0.9852540995
0.985254013
0.9852539496
0.9852539253
0.9852539161
0.9852538755
0.985253927
0.9852541753
0.9852544291
0.98525475
0.9852552472
0.9852559637
0.9852567857
0.9852575824
0.9852582774
0.9852589227
0.9852595091
0.9852599572
0.9852602826
0.9852606493
0.9852609465
0.9852609385
0.985260812
0.9852606696
0.9852604561
0.9852598572
0.985258816
0.9852576716
0.9852559044
0.9852531391
0.9852497938
0.9852477073
0.9852467922
0.9852460786
0.9852442049
0.9852314484
0.9851402269
0.9845213826
0.9803255184
0.9521991878
0.782838491
0.3172188838
0.03370272366
0.0005251986388
7.852145934e-07
8.011182186e-11
4.875160459e-15
-2.698329374e-16
-2.637539986e-16
-2.941405415e-16
-4.477356628e-16
-3.683572038e-16
-3.033474561e-16
-4.263389055e-16
-3.51386976e-16
-1.641472972e-16
-1.308623358e-16
-2.77960952e-16
-1.988837421e-16
-3.315298958e-16
-5.189488016e-16
-3.696608374e-16
-4.556922301e-16
-7.893440266e-17
-1.280249034e-17
1.436065112e-16
2.960476361e-16
1.32483757e-16
3.798907811e-16
4.037038024e-16
1.662063086e-16
2.387757013e-16
2.964357045e-16
6.795549123e-17
1.657858509e-16
2.49588565e-16
1.551708727e-16
1.479318267e-16
5.346920796e-17
-3.659982427e-18
-4.460646151e-18
8.547382887e-17
5.479185065e-17
1.345974307e-16
-1.35187719e-16
-9.418098807e-17
5.696355026e-17
8.574616085e-17
9.16198363e-17
5.682356329e-17
2.10390609e-16
2.925285806e-16
2.678597427e-16
3.849039685e-16
4.253206791e-16
3.277209463e-16
3.694899701e-16
4.046809013e-16
4.900322963e-16
3.214907464e-16
2.130504077e-16
2.022055414e-16
1.004927549e-16
2.597557869e-16
9.315872133e-17
3.788508162e-17
-3.066372354e-17
-2.5632348e-16
-2.609563241e-16
-2.298538056e-16
-2.303914206e-16
-3.438729687e-16
-2.495250202e-16
-6.965840595e-17
5.519824816e-17
2.761631147e-16
4.297032692e-16
4.653034102e-16
5.882808585e-16
4.827634108e-16
4.425121516e-16
3.633638456e-16
3.791817615e-16
4.196070772e-16
3.180738617e-16
1.856438079e-16
3.221803928e-16
2.961407641e-16
2.980467093e-16
3.958575707e-16
2.113885158e-16
3.454658766e-16
2.56960394e-16
1.83219311e-16
1.473406586e-16
1.290288398e-16
1.686960154e-16
2.542359777e-17
3.087087877e-16
4.539603222e-16
4.806978669e-16
3.927646989e-16
7.909651595e-16
8.390444119e-16
8.093001627e-16
6.302072949e-16
7.714293573e-16
7.053067888e-16
7.306812364e-16
6.963997508e-16
8.24380009e-16
5.777523801e-16
8.52797041e-16
7.904527597e-16
8.265715621e-16
8.444943063e-16
6.890847235e-16
8.324785857e-16
7.487332819e-16
6.245252258e-16
5.168597538e-16
5.103029938e-16
3.588407407e-16
1.771066135e-16
3.261859191e-16
2.194467184e-16
1.301126148e-16
-7.436090926e-17
-9.513580951e-17
-1.579071618e-16
-8.247328907e-17
-4.112310237e-16
-4.693957278e-16
-4.613738358e-16
-5.668707871e-16
-6.615514035e-16
-5.514945155e-16
-8.942398351e-16
-1.055607032e-15
-1.198226331e-15
-1.288777162e-15
-1.403663341e-15
-1.188892808e-15
-1.19352517e-15
-7.67736531e-16
-9.039059398e-16
-8.78606463e-16
-7.648973491e-16
-4.868552421e-16
-1.403718497e-16
)
;

boundaryField
{
    sides
    {
        type            calculated;
        value           uniform 0;
    }
    empty
    {
        type            empty;
        value           nonuniform 0();
    }
}


// ************************************************************************* //
