/*--------------------------------*- C++ -*----------------------------------*\
| =========                 |                                                 |
| \\      /  F ield         | OpenFOAM: The Open Source CFD Toolbox           |
|  \\    /   O peration     | Version:  v1812                                 |
|   \\  /    A nd           | Web:      www.OpenFOAM.com                      |
|    \\/     M anipulation  |                                                 |
\*---------------------------------------------------------------------------*/
FoamFile
{
    version     2.0;
    format      ascii;
    class       volScalarField;
    location    "0.2";
    object      rho;
}
// * * * * * * * * * * * * * * * * * * * * * * * * * * * * * * * * * * * * * //

dimensions      [1 -3 0 0 0 0 0];


internalField   nonuniform List<scalar> 
1000
(
0.9999989024
0.9999989024
0.9999989024
0.9999989024
0.9999989024
0.9999989024
0.9999989024
0.9999989024
0.9999989024
0.9999989024
0.9999989024
0.9999989024
0.9999989024
0.9999989024
0.9999989024
0.9999989024
0.9999989024
0.9999989024
0.9999989024
0.9999989024
0.9999989024
0.9999989024
0.9999989024
0.9999989024
0.9999989024
0.9999989024
0.9999989024
0.9999989024
0.9999989024
0.9999989024
0.9999989024
0.9999989024
0.9999989024
0.9999989024
0.9999989024
0.9999989024
0.9999989024
0.9999989024
0.9999989024
0.9999989024
0.9999989024
0.9999989024
0.9999989024
0.9999989024
0.9999989024
0.9999989024
0.9999989024
0.9999989024
0.9999989024
0.9999989024
0.9999989024
0.9999989024
0.9999989024
0.9999989024
0.9999989024
0.9999989024
0.9999989024
0.9999989024
0.9999989024
0.9999989024
0.9999989024
0.9999989024
0.9999989024
0.9999989024
0.9999989024
0.9999989024
0.9999989024
0.9999989024
0.9999989024
0.9999989024
0.9999989024
0.9999989024
0.9999989024
0.9999989024
0.9999989024
0.9999989024
0.9999989024
0.9999989024
0.9999989024
0.9999989024
0.9999989024
0.9999989024
0.9999989024
0.9999989024
0.9999989024
0.9999989024
0.9999989024
0.9999989024
0.9999989024
0.9999989024
0.9999989024
0.9999989024
0.9999989024
0.9999989024
0.9999989024
0.9999989024
0.9999989024
0.9999989024
0.9999989024
0.9999989024
0.9999989024
0.9999989024
0.9999989024
0.9999989024
0.9999989024
0.9999989024
0.9999989024
0.9999989024
0.9999989024
0.9999989024
0.9999989024
0.9999989024
0.9999989024
0.9999989024
0.9999989024
0.9999989024
0.9999989024
0.9999989024
0.9999989024
0.9999989024
0.9999989024
0.9999989024
0.9999989024
0.9999989024
0.9999989024
0.9999989024
0.9999989024
0.9999989024
0.9999989024
0.9999989024
0.9999989024
0.9999989024
0.9999989024
0.9999989024
0.9999989024
0.9999989024
0.9999989024
0.9999989024
0.9999989024
0.9999989024
0.9999989024
0.9999989024
0.9999989024
0.9999989024
0.9999989024
0.9999989024
0.9999989024
0.9999989024
0.9999989024
0.9999989024
0.9999989024
0.9999989024
0.9999989024
0.9999989024
0.9999989024
0.9999989024
0.9999989024
0.9999989024
0.9999989024
0.9999989024
0.9999989024
0.9999989024
0.9999989024
0.9999989024
0.9999989024
0.9999989024
0.9999989024
0.9999989024
0.9999989024
0.9999989024
0.9999989024
0.9999989024
0.9999989024
0.9999989024
0.9999989024
0.9999989024
0.9999989024
0.9999989024
0.9999989024
0.9999989024
0.9999989024
0.9999989024
0.9999989024
0.9999989024
0.9999989024
0.9999989024
0.9999989024
0.9999989024
0.9999989024
0.9999989024
0.9999989024
0.9999989024
0.9999989024
0.9999989024
0.9999989024
0.9999989024
0.9999989024
0.9999989024
0.9999989024
0.9999989024
0.9999989024
0.9999989024
0.9999989024
0.9999989024
0.9999989024
0.9999989024
0.9999989024
0.9999989024
0.9999989024
0.9999989024
0.9999989024
0.9999989024
0.9999989024
0.9999989024
0.9999989024
0.9999989024
0.9999989024
0.9999989024
0.9999989024
0.9999989024
0.9999989024
0.9999989024
0.9999989024
0.9999989024
0.9999989024
0.9999989024
0.9999989024
0.9999989024
0.9999989024
0.9999989024
0.9999989024
0.9999989024
0.9999989024
0.9999989024
0.9999989024
0.9999989024
0.9999989024
0.9999989024
0.9999989024
0.9999989024
0.9999989024
0.9999989024
0.9999989024
0.9999989024
0.9999989024
0.9999989024
0.9999989024
0.9999989024
0.9999989024
0.9999989024
0.9999989024
0.9999989024
0.9999989024
0.9999989024
0.9999989024
0.9999989024
0.9999989024
0.999998886
0.9999974192
0.9999635238
0.9996971455
0.998770001
0.9969350843
0.9943689971
0.9913907466
0.9882258487
0.9849864574
0.9817189833
0.9784407223
0.9751577974
0.9718725136
0.9685860362
0.965299244
0.9620129494
0.9587279296
0.9554449148
0.9521645762
0.9488875209
0.9456142919
0.9423453724
0.9390811905
0.9358221253
0.9325685126
0.9293206497
0.9260788006
0.9228431995
0.9196140551
0.9163915531
0.9131758595
0.9099671224
0.9067654745
0.9035710347
0.9003839096
0.897204195
0.8940319769
0.8908673328
0.887710332
0.8845610373
0.8814195048
0.8782857852
0.8751599239
0.8720419617
0.8689319352
0.865829877
0.8627358164
0.8596497794
0.8565717891
0.8535018659
0.8504400277
0.8473862903
0.8443406672
0.8413031702
0.8382738092
0.8352525925
0.8322395268
0.8292346177
0.8262378691
0.8232492841
0.8202688643
0.8172966105
0.8143325224
0.8113765991
0.8084288383
0.8054892375
0.8025577931
0.7996345009
0.7967193561
0.7938123533
0.7909134865
0.788022749
0.785140134
0.7822656339
0.7793992408
0.7765409464
0.7736907419
0.7708486182
0.7680145658
0.7651885751
0.7623706358
0.7595607378
0.7567588702
0.7539650223
0.7511791828
0.7484013405
0.7456314837
0.7428696007
0.7401156794
0.7373697077
0.7346316732
0.7319015635
0.7291793659
0.7264650675
0.7237586554
0.7210601166
0.7183694378
0.7156866057
0.7130116068
0.7103444277
0.7076850546
0.7050334737
0.7023896714
0.6997536336
0.6971253463
0.6945047955
0.6918919669
0.6892868464
0.6866894196
0.6840996722
0.6815175897
0.6789431576
0.6763763613
0.6738171864
0.6712656181
0.6687216417
0.6661852424
0.6636564054
0.661135116
0.6586213592
0.65611512
0.6536163835
0.6511251348
0.6486413586
0.64616504
0.6436961639
0.641234715
0.6387806782
0.6363340382
0.6338947798
0.6314628878
0.6290383468
0.6266211414
0.6242112564
0.6218086762
0.6194133854
0.6170253687
0.6146446104
0.6122710951
0.6099048073
0.6075457313
0.6051938516
0.6028491526
0.6005116185
0.5981812337
0.5958579825
0.5935418492
0.5912328179
0.5889308728
0.5866359981
0.584348178
0.5820673964
0.5797936375
0.5775268851
0.5752671233
0.573014336
0.5707685069
0.5685296198
0.5662976584
0.5640726064
0.5618544473
0.5596431645
0.5574387414
0.5552411613
0.5530504074
0.5508664626
0.5486893098
0.5465189319
0.5443553115
0.5421984309
0.5400482724
0.5379048182
0.5357680501
0.5336379499
0.531514499
0.5293976786
0.5272874698
0.5251838532
0.5230868095
0.5209963187
0.5189123608
0.5168349156
0.5147639623
0.51269948
0.5106414475
0.5085898433
0.5065446457
0.5045058326
0.5024733819
0.500447271
0.4984274775
0.4964139788
0.4944067522
0.4924057754
0.4904110258
0.4884224817
0.4864401214
0.4844639239
0.4824938689
0.4805299367
0.4785721088
0.4766203672
0.4746746952
0.4727350769
0.4708014969
0.4688739409
0.4669523946
0.4650368436
0.4631272728
0.4612236658
0.4593260034
0.4574342628
0.455548415
0.4536684227
0.4517942367
0.4499257899
0.448062989
0.4462057017
0.4443537367
0.4425068094
0.4406644861
0.4388260977
0.4369906262
0.4351566314
0.4333225141
0.4314880739
0.4296602163
0.4278689083
0.4262024431
0.424843457
0.4240283497
0.4237498095
0.4237236828
0.4237706816
0.4240543815
0.4247879253
0.4255577647
0.4257356763
0.4257357159
0.4257404265
0.4257974785
0.4259488002
0.4261058389
0.4261446343
0.4261461079
0.4261420135
0.4261433666
0.4261572586
0.426184584
0.4262019274
0.426202856
0.4262060216
0.4262178539
0.4262353994
0.426244069
0.4262471347
0.4262504662
0.4262581799
0.4262665985
0.4262684086
0.4262691067
0.4262717795
0.4262775944
0.4262822793
0.4262845072
0.426286507
0.4262895636
0.4262933333
0.4262960699
0.426297081
0.4262981003
0.4262997276
0.4263013037
0.4263024552
0.426304005
0.4263060069
0.4263081869
0.4263100997
0.4263112052
0.4263113529
0.4263110925
0.4263104154
0.426310048
0.4263103848
0.4263115906
0.4263134748
0.4263156067
0.4263170596
0.4263174692
0.4263174515
0.4263170755
0.4263166122
0.4263165959
0.4263168842
0.4263175695
0.4263185188
0.4263194571
0.4263201343
0.4263203922
0.4263204158
0.4263203372
0.4263202264
0.4263202479
0.4263204349
0.4263207632
0.426321278
0.4263219178
0.4263223881
0.4263227817
0.4263229615
0.4263229115
0.4263224748
0.4263217342
0.4263212198
0.4263212255
0.4263214217
0.4263218096
0.4263222481
0.4263228053
0.426323163
0.4263232911
0.4263233433
0.4263233332
0.4263232528
0.4263232705
0.4263233772
0.4263235762
0.4263238136
0.4263240548
0.4263242919
0.4263248215
0.4263250336
0.4263250413
0.4263248806
0.4263248931
0.4263250399
0.4263256308
0.426326215
0.4263264929
0.4263266969
0.4263269501
0.4263270487
0.4263269684
0.4263267438
0.4263264118
0.4263261399
0.4263260704
0.4263261264
0.4263262384
0.4263264615
0.4263268106
0.42632725
0.426327667
0.4263279737
0.4263282713
0.426328543
0.4263287331
0.4263288453
0.426328943
0.4263290172
0.4263290768
0.4263291127
0.4263290834
0.4263290838
0.4263292236
0.4263294009
0.4263296347
0.4263299452
0.4263303675
0.4263308179
0.4263310848
0.4263312111
0.4263312747
0.4263312723
0.426331129
0.4263308259
0.4263305271
0.4263304836
0.426330447
0.4263305596
0.4263307585
0.4263309957
0.4263313573
0.426331872
0.426332401
0.4263325828
0.4263328506
0.4263331117
0.4263333007
0.4263334218
0.4263334917
0.426333503
0.4263335585
0.426333541
0.4263334906
0.4263333784
0.4263332013
0.4263330156
0.4263328632
0.4263328156
0.4263327882
0.4263324913
0.4263321789
0.4263316802
0.4263305181
0.4263290906
0.4263271794
0.4263234699
0.4263179469
0.4263090397
0.4262936666
0.4262673077
0.4262208362
0.426138521
0.4259937742
0.4257427748
0.4253158062
0.4246060837
0.4234567856
0.4216485143
0.4188918048
0.4148314716
0.4090716053
0.4012289995
0.3910150912
0.3783324722
0.3633598089
0.3465934202
0.3288305137
0.3111063242
0.2946487127
0.2808902617
0.2713002062
0.2665352844
0.2652163862
0.2650682505
0.265065244
0.2650687582
0.2650830611
0.2651154406
0.2651701549
0.2652453588
0.265331473
0.2654123185
0.2654713824
0.2655027094
0.2655147176
0.2655189618
0.2655212752
0.2655235819
0.2655267205
0.2655311449
0.2655368891
0.2655434756
0.2655500241
0.2655555807
0.2655595577
0.2655620162
0.2655634613
0.2655643989
0.2655651371
0.2655658347
0.2655665758
0.2655673908
0.2655682495
0.2655690611
0.2655697041
0.2655700934
0.2655702524
0.2655702887
0.2655702904
0.2655702915
0.2655703053
0.2655703289
0.2655703722
0.2655704487
0.2655705783
0.2655707837
0.2655710767
0.2655714431
0.2655718428
0.2655722231
0.265572564
0.2655728869
0.2655731601
0.2655733361
0.2655734045
0.2655733725
0.2655732293
0.265573052
0.2655729292
0.2655728933
0.2655728872
0.2655728823
0.2655729002
0.2655729801
0.2655731495
0.2655733945
0.2655736412
0.2655737799
0.2655737564
0.2655735913
0.2655733942
0.2655732437
0.2655731103
0.2655729214
0.2655726714
0.2655723952
0.2655721155
0.2655718828
0.2655717537
0.2655717077
0.265571704
0.2655717111
0.2655717334
0.2655717801
0.2655718555
0.2655719542
0.2655720715
0.265572205
0.2655723491
0.2655725001
0.2655726614
0.2655728374
0.2655730274
0.2655732161
0.2655733749
0.2655734895
0.2655735532
0.2655735853
0.2655735691
0.265573499
0.2655733677
0.2655731432
0.2655728194
0.2655724619
0.2655721968
0.2655720898
0.2655720627
0.2655720825
0.265572158
0.2655723217
0.2655725815
0.2655729758
0.2655735114
0.2655741109
0.2655746408
0.265575007
0.2655752079
0.2655753206
0.2655753486
0.2655753418
0.2655753478
0.2655753623
0.2655753541
0.2655753532
0.2655753792
0.265575429
0.2655754376
0.2655754318
0.2655754778
0.2655755708
0.2655756372
0.2655756772
0.2655757851
0.2655759414
0.2655760573
0.2655760595
0.265576101
0.2655762087
0.2655762959
0.2655762512
0.2655762073
0.2655762794
0.265576348
0.2655762565
0.2655760959
0.2655760658
0.2655760602
0.2655758201
0.2655753692
0.2655751377
0.2655750622
0.2655748937
0.2655745701
0.2655745588
0.2655741424
0.2655686559
0.2655318586
0.2652826804
0.26360462
0.2529130182
0.2067910571
0.1439629211
0.1260457395
0.1250112014
0.1249998871
0.1249998718
0.1249998718
0.1249998718
0.1249998718
0.1249998718
0.1249998718
0.1249998718
0.1249998718
0.1249998718
0.1249998718
0.1249998718
0.1249998718
0.1249998718
0.1249998718
0.1249998718
0.1249998718
0.1249998718
0.1249998718
0.1249998718
0.1249998718
0.1249998718
0.1249998718
0.1249998718
0.1249998718
0.1249998718
0.1249998718
0.1249998718
0.1249998718
0.1249998718
0.1249998718
0.1249998718
0.1249998718
0.1249998718
0.1249998718
0.1249998718
0.1249998718
0.1249998718
0.1249998718
0.1249998718
0.1249998718
0.1249998718
0.1249998718
0.1249998718
0.1249998718
0.1249998718
0.1249998718
0.1249998718
0.1249998718
0.1249998718
0.1249998718
0.1249998718
0.1249998718
0.1249998718
0.1249998718
0.1249998718
0.1249998718
0.1249998718
0.1249998718
0.1249998718
0.1249998718
0.1249998718
0.1249998718
0.1249998718
0.1249998718
0.1249998718
0.1249998718
0.1249998718
0.1249998718
0.1249998718
0.1249998718
0.1249998718
0.1249998718
0.1249998718
0.1249998718
0.1249998718
0.1249998718
0.1249998718
0.1249998718
0.1249998718
0.1249998718
0.1249998718
0.1249998718
0.1249998718
0.1249998718
0.1249998718
0.1249998718
0.1249998718
0.1249998718
0.1249998718
0.1249998718
0.1249998718
0.1249998718
0.1249998718
0.1249998718
0.1249998718
0.1249998718
0.1249998718
0.1249998718
0.1249998718
0.1249998718
0.1249998718
0.1249998718
0.1249998718
0.1249998718
0.1249998718
0.1249998718
0.1249998718
0.1249998718
0.1249998718
0.1249998718
0.1249998718
0.1249998718
0.1249998718
0.1249998718
0.1249998718
0.1249998718
0.1249998718
0.1249998718
0.1249998718
0.1249998718
0.1249998718
0.1249998718
0.1249998718
0.1249998718
0.1249998718
0.1249998718
0.1249998718
0.1249998718
0.1249998718
0.1249998718
0.1249998718
0.1249998718
0.1249998718
0.1249998718
0.1249998718
0.1249998718
0.1249998718
0.1249998718
0.1249998718
0.1249998718
0.1249998718
0.1249998718
0.1249998718
0.1249998718
0.1249998718
)
;

boundaryField
{
    sides
    {
        type            calculated;
        value           nonuniform List<scalar> 2(0.1249998718 0.9999989024);
    }
    empty
    {
        type            empty;
    }
}


// ************************************************************************* //
