/*--------------------------------*- C++ -*----------------------------------*\
| =========                 |                                                 |
| \\      /  F ield         | OpenFOAM: The Open Source CFD Toolbox           |
|  \\    /   O peration     | Version:  v1812                                 |
|   \\  /    A nd           | Web:      www.OpenFOAM.com                      |
|    \\/     M anipulation  |                                                 |
\*---------------------------------------------------------------------------*/
FoamFile
{
    version     2.0;
    format      ascii;
    class       volScalarField;
    location    "0.2";
    object      T;
}
// * * * * * * * * * * * * * * * * * * * * * * * * * * * * * * * * * * * * * //

dimensions      [0 0 0 1 0 0 0];


internalField   nonuniform List<scalar> 
1000
(
0.003487899
0.003487899
0.003487899
0.003487899
0.003487899
0.003487899
0.003487899
0.003487899
0.003487899
0.003487899
0.003487899
0.003487899
0.003487899
0.003487899
0.003487899
0.003487899
0.003487899
0.003487899
0.003487899
0.003487899
0.003487899
0.003487899
0.003487899
0.003487899
0.003487899
0.003487899
0.003487899
0.003487899
0.003487899
0.003487899
0.003487899
0.003487899
0.003487899
0.003487899
0.003487899
0.003487899
0.003487899
0.003487899
0.003487899
0.003487899
0.003487899
0.003487899
0.003487899
0.003487899
0.003487899
0.003487899
0.003487899
0.003487899
0.003487899
0.003487899
0.003487899
0.003487899
0.003487899
0.003487899
0.003487899
0.003487899
0.003487899
0.003487899
0.003487899
0.003487899
0.003487899
0.003487899
0.003487899
0.003487899
0.003487899
0.003487899
0.003487899
0.003487899
0.003487899
0.003487899
0.003487899
0.003487899
0.003487899
0.003487899
0.003487899
0.003487899
0.003487899
0.003487899
0.003487899
0.003487899
0.003487899
0.003487899
0.003487899
0.003487899
0.003487899
0.003487899
0.003487899
0.003487899
0.003487899
0.003487899
0.003487899
0.003487899
0.003487899
0.003487899
0.003487899
0.003487899
0.003487899
0.003487899
0.003487899
0.003487899
0.003487899
0.003487899
0.003487899
0.003487899
0.003487899
0.003487899
0.003487899
0.003487899
0.003487899
0.003487899
0.003487899
0.003487899
0.003487899
0.003487899
0.003487899
0.003487899
0.003487899
0.003487899
0.003487899
0.003487899
0.003487899
0.003487899
0.003487899
0.003487899
0.003487899
0.003487899
0.003487899
0.003487899
0.003487899
0.003487899
0.003487899
0.003487899
0.003487899
0.003487899
0.003487899
0.003487899
0.003487899
0.003487899
0.003487899
0.003487899
0.003487899
0.003487899
0.003487899
0.003487899
0.003487899
0.003487899
0.003487899
0.003487899
0.003487899
0.003487899
0.003487899
0.003487899
0.003487899
0.003487899
0.003487899
0.003487899
0.003487899
0.003487899
0.003487899
0.003487899
0.003487899
0.003487899
0.003487899
0.003487899
0.003487899
0.003487899
0.003487899
0.003487899
0.003487899
0.003487899
0.003487899
0.003487899
0.003487899
0.003487899
0.003487899
0.003487899
0.003487899
0.003487899
0.003487899
0.003487899
0.003487899
0.003487899
0.003487899
0.003487899
0.003487899
0.003487899
0.003487899
0.003487899
0.003487899
0.003487899
0.003487899
0.003487899
0.003487899
0.003487899
0.003487899
0.003487899
0.003487899
0.003487899
0.003487899
0.003487899
0.003487899
0.003487899
0.003487899
0.003487899
0.003487899
0.003487899
0.003487899
0.003487899
0.003487899
0.003487899
0.003487899
0.003487899
0.003487899
0.003487899
0.003487899
0.003487899
0.003487899
0.003487899
0.003487899
0.003487899
0.003487899
0.003487899
0.003487899
0.003487899
0.003487899
0.003487899
0.003487899
0.003487899
0.003487899
0.003487899
0.003487899
0.003487899
0.003487899
0.003487899
0.003487899
0.003487899
0.003487899
0.003487899
0.003487899
0.003487899
0.003487899
0.003487899
0.003487899
0.003487899
0.003487899
0.003487899
0.003487899
0.003487899
0.003487899
0.003487899
0.003487899
0.003487899
0.003487899
0.003487899
0.003487899
0.003487899
0.003487899
0.003487898977
0.003487896931
0.003487849642
0.003487477997
0.003486184067
0.003483620975
0.003480031413
0.003475857995
0.003471414603
0.003466857699
0.003462252144
0.003457622119
0.003452976164
0.003448317464
0.003443647605
0.003438967778
0.003434279091
0.003429582607
0.003424879333
0.003420170198
0.003415456047
0.003410737639
0.003406015653
0.003401290694
0.003396563302
0.003391833956
0.003387103084
0.003382371071
0.003377638258
0.003372904954
0.003368171436
0.003363437954
0.003358704734
0.003353971982
0.003349239884
0.003344508609
0.003339778314
0.003335049138
0.003330321214
0.003325594659
0.003320869585
0.003316146092
0.003311424274
0.003306704218
0.003301986005
0.003297269708
0.003292555398
0.003287843139
0.003283132991
0.003278425011
0.003273719252
0.003269015762
0.003264314588
0.003259615774
0.00325491936
0.003250225385
0.003245533885
0.003240844894
0.003236158444
0.003231474566
0.003226793288
0.003222114638
0.003217438642
0.003212765323
0.003208094706
0.003203426812
0.003198761663
0.003194099277
0.003189439676
0.003184782875
0.003180128893
0.003175477747
0.003170829452
0.003166184022
0.003161541473
0.003156901818
0.003152265071
0.003147631243
0.003143000348
0.003138372397
0.0031337474
0.003129125369
0.003124506314
0.003119890245
0.003115277172
0.003110667103
0.003106060048
0.003101456014
0.003096855011
0.003092257046
0.003087662126
0.00308307026
0.003078481454
0.003073895715
0.00306931305
0.003064733466
0.003060156968
0.003055583563
0.003051013256
0.003046446054
0.003041881961
0.003037320984
0.003032763126
0.003028208394
0.003023656793
0.003019108326
0.003014562999
0.003010020816
0.003005481781
0.003000945899
0.002996413174
0.002991883609
0.002987357209
0.002982833978
0.002978313919
0.002973797035
0.002969283331
0.002964772809
0.002960265473
0.002955761326
0.002951260371
0.002946762612
0.00294226805
0.002937776689
0.002933288532
0.002928803582
0.00292432184
0.00291984331
0.002915367993
0.002910895893
0.002906427011
0.002901961349
0.002897498911
0.002893039697
0.002888583709
0.00288413095
0.002879681421
0.002875235125
0.002870792061
0.002866352233
0.002861915641
0.002857482287
0.002853052172
0.002848625298
0.002844201664
0.002839781273
0.002835364126
0.002830950222
0.002826539564
0.00282213215
0.002817727983
0.002813327062
0.002808929387
0.002804534959
0.002800143778
0.002795755843
0.002791371154
0.002786989711
0.002782611514
0.002778236561
0.002773864851
0.002769496383
0.002765131155
0.002760769167
0.002756410416
0.002752054899
0.002747702615
0.002743353559
0.00273900773
0.002734665123
0.002730325734
0.00272598956
0.002721656594
0.002717326831
0.002713000266
0.002708676892
0.002704356701
0.002700039687
0.002695725841
0.002691415153
0.002687107615
0.002682803216
0.002678501944
0.002674203787
0.002669908734
0.00266561677
0.002661327882
0.002657042054
0.002652759271
0.002648479517
0.002644202774
0.002639929025
0.002635658253
0.00263139044
0.002627125567
0.002622863618
0.002618604573
0.002614348419
0.002610095137
0.002605844715
0.00260159714
0.002597352399
0.002593110485
0.00258887139
0.002584635107
0.002580401634
0.002576170968
0.002571943107
0.002567718048
0.002563495787
0.002559276318
0.002555059626
0.00255084569
0.002546634476
0.002542425927
0.002538219961
0.002534016455
0.002529815226
0.002525615998
0.002521418361
0.002517221687
0.002513025
0.002508826776
0.002504624675
0.002500415365
0.002496195117
0.002491963431
0.002487736335
0.002483583848
0.002479712383
0.00247655144
0.002474653826
0.00247400777
0.002473947145
0.002474057679
0.002474722935
0.002476437731
0.002478224706
0.002478636929
0.002478639514
0.002478652056
0.002478785282
0.002479136343
0.002479497303
0.002479583357
0.00247959225
0.002479583746
0.002479587076
0.002479618931
0.002479681739
0.002479721393
0.002479723106
0.002479730279
0.002479757791
0.002479798574
0.002479818893
0.002479825235
0.002479832326
0.002479849602
0.002479867877
0.002479871106
0.002479873246
0.002479880667
0.002479895451
0.002479908044
0.002479912518
0.00247991585
0.002479921587
0.002479929221
0.002479934886
0.002479936982
0.002479939248
0.002479942927
0.002479946393
0.002479948797
0.002479952213
0.0024799569
0.002479962185
0.002479966812
0.002479969246
0.002479969345
0.002479968085
0.002479965416
0.002479963634
0.002479963887
0.002479966303
0.002479970909
0.002479976194
0.00247997954
0.002479980153
0.002479979646
0.002479977818
0.002479975875
0.002479975449
0.0024799758
0.002479977306
0.002479979695
0.002479981827
0.00247998305
0.002479983234
0.002479982796
0.002479981732
0.002479980771
0.002479980482
0.002479980665
0.002479981297
0.00247998236
0.002479983602
0.002479984233
0.002479984425
0.002479984263
0.002479983419
0.002479981809
0.002479979659
0.002479978024
0.002479977902
0.002479978116
0.002479978632
0.002479979089
0.002479979835
0.002479980205
0.002479980061
0.002479979403
0.002479978634
0.002479977959
0.002479977623
0.002479977456
0.00247997719
0.002479977075
0.002479977144
0.002479976936
0.0024799775
0.002479977413
0.002479976969
0.002479975912
0.002479975286
0.002479975419
0.002479976425
0.002479976761
0.002479976741
0.002479976581
0.00247997612
0.002479975136
0.002479973779
0.002479972345
0.002479970768
0.00247996933
0.002479968449
0.002479968061
0.002479967891
0.00247996789
0.002479968086
0.00247996858
0.002479968578
0.002479968484
0.002479968323
0.002479967983
0.002479967447
0.002479966632
0.00247996569
0.002479964691
0.002479963629
0.002479962458
0.002479961177
0.002479959967
0.002479958975
0.002479958241
0.00247995754
0.002479956993
0.002479956903
0.002479956903
0.002479956708
0.002479956079
0.002479955182
0.002479954158
0.002479952629
0.002479950548
0.002479948269
0.002479946341
0.002479944635
0.002479943196
0.00247994211
0.002479941283
0.002479940954
0.002479940984
0.002479940852
0.002479940345
0.002479939617
0.002479938632
0.002479937565
0.002479936436
0.002479935512
0.002479934789
0.002479934799
0.002479934782
0.002479934925
0.002479935451
0.002479936477
0.002479938128
0.002479940346
0.002479943228
0.002479946409
0.002479949674
0.002479953466
0.002479957948
0.002479962722
0.002479970207
0.002479982095
0.002479999184
0.002480028444
0.002480078421
0.002480164734
0.002480317108
0.002480587586
0.002481067183
0.002481911131
0.002483375757
0.002485870586
0.002490027736
0.002496787904
0.002507497015
0.0025239997
0.002548705643
0.002584593733
0.002635114236
0.002703948453
0.002794590443
0.002909741335
0.003050493929
0.003215292903
0.003398470865
0.003588205295
0.003763953872
0.003897029271
0.003966735161
0.003986496437
0.003988741248
0.003988788551
0.003988736514
0.003988522883
0.003988037589
0.003987216942
0.003986088445
0.003984795699
0.003983581989
0.003982695466
0.003982224773
0.003982043225
0.003981977466
0.003981940537
0.003981903746
0.003981854808
0.003981787256
0.003981700697
0.003981601989
0.003981504104
0.003981421487
0.003981363028
0.003981327821
0.003981308137
0.003981296032
0.003981286528
0.003981277033
0.003981266326
0.003981254199
0.003981241327
0.003981229065
0.003981219154
0.003981212874
0.003981209897
0.003981208701
0.003981208179
0.003981207871
0.003981207619
0.003981207288
0.003981206769
0.003981205967
0.003981204778
0.003981203091
0.003981200828
0.00398119794
0.003981194374
0.003981190081
0.00398118518
0.003981180145
0.003981175407
0.003981171051
0.003981167141
0.003981163635
0.003981160427
0.003981157884
0.003981156413
0.003981156113
0.003981156276
0.003981157161
0.003981159169
0.003981162431
0.003981167104
0.003981173255
0.003981180479
0.003981187826
0.00398119446
0.00398119967
0.003981203272
0.003981205328
0.003981206117
0.003981206156
0.003981205545
0.003981204002
0.003981202159
0.003981200658
0.003981199817
0.003981199534
0.003981199425
0.003981199262
0.003981199022
0.00398119877
0.003981198482
0.003981198057
0.003981197426
0.003981196572
0.00398119552
0.003981194329
0.003981193135
0.003981192132
0.003981191383
0.003981190822
0.00398119033
0.003981189759
0.003981189097
0.00398118836
0.003981187406
0.003981186245
0.003981184805
0.003981182833
0.003981180312
0.003981177665
0.003981175601
0.003981174527
0.003981173919
0.003981173762
0.003981173873
0.003981174492
0.003981175791
0.003981177852
0.00398118067
0.003981183813
0.003981186474
0.003981188207
0.003981188903
0.003981188906
0.003981188642
0.003981187964
0.003981187438
0.003981187007
0.003981186508
0.003981186021
0.003981185747
0.003981185807
0.003981185579
0.003981185174
0.003981185337
0.003981185635
0.003981185771
0.003981185827
0.003981186299
0.003981187095
0.003981187648
0.003981187563
0.003981187749
0.00398118832
0.00398118883
0.003981188578
0.003981188378
0.003981188876
0.003981189676
0.003981189315
0.003981188625
0.003981188883
0.003981189115
0.003981187859
0.003981185366
0.003981183637
0.003981182491
0.00398118086
0.003981178018
0.003981176082
0.003981170943
0.0039811354
0.003980911179
0.003979410159
0.003969271953
0.003903655253
0.003589880653
0.002999089328
0.002800005778
0.002790420184
0.002790319137
0.002790319
0.002790319
0.002790319
0.002790319
0.002790319
0.002790319
0.002790319
0.002790319
0.002790319
0.002790319
0.002790319
0.002790319
0.002790319
0.002790319
0.002790319
0.002790319
0.002790319
0.002790319
0.002790319
0.002790319
0.002790319
0.002790319
0.002790319
0.002790319
0.002790319
0.002790319
0.002790319
0.002790319
0.002790319
0.002790319
0.002790319
0.002790319
0.002790319
0.002790319
0.002790319
0.002790319
0.002790319
0.002790319
0.002790319
0.002790319
0.002790319
0.002790319
0.002790319
0.002790319
0.002790319
0.002790319
0.002790319
0.002790319
0.002790319
0.002790319
0.002790319
0.002790319
0.002790319
0.002790319
0.002790319
0.002790319
0.002790319
0.002790319
0.002790319
0.002790319
0.002790319
0.002790319
0.002790319
0.002790319
0.002790319
0.002790319
0.002790319
0.002790319
0.002790319
0.002790319
0.002790319
0.002790319
0.002790319
0.002790319
0.002790319
0.002790319
0.002790319
0.002790319
0.002790319
0.002790319
0.002790319
0.002790319
0.002790319
0.002790319
0.002790319
0.002790319
0.002790319
0.002790319
0.002790319
0.002790319
0.002790319
0.002790319
0.002790319
0.002790319
0.002790319
0.002790319
0.002790319
0.002790319
0.002790319
0.002790319
0.002790319
0.002790319
0.002790319
0.002790319
0.002790319
0.002790319
0.002790319
0.002790319
0.002790319
0.002790319
0.002790319
0.002790319
0.002790319
0.002790319
0.002790319
0.002790319
0.002790319
0.002790319
0.002790319
0.002790319
0.002790319
0.002790319
0.002790319
0.002790319
0.002790319
0.002790319
0.002790319
0.002790319
0.002790319
0.002790319
0.002790319
0.002790319
0.002790319
0.002790319
0.002790319
0.002790319
0.002790319
0.002790319
0.002790319
0.002790319
0.002790319
0.002790319
0.002790319
0.002790319
0.002790319
)
;

boundaryField
{
    sides
    {
        type            zeroGradient;
    }
    empty
    {
        type            empty;
    }
}


// ************************************************************************* //
