/*--------------------------------*- C++ -*----------------------------------*\
| =========                 |                                                 |
| \\      /  F ield         | OpenFOAM: The Open Source CFD Toolbox           |
|  \\    /   O peration     | Version:  v1812                                 |
|   \\  /    A nd           | Web:      www.OpenFOAM.com                      |
|    \\/     M anipulation  |                                                 |
\*---------------------------------------------------------------------------*/
FoamFile
{
    version     2.0;
    format      ascii;
    class       volVectorField;
    location    "0.2";
    object      U;
}
// * * * * * * * * * * * * * * * * * * * * * * * * * * * * * * * * * * * * * //

dimensions      [0 1 -1 0 0 0 0];


internalField   nonuniform List<vector> 
1000
(
(1.973560794e-16 0 0)
(3.161385412e-16 0 0)
(7.9740783e-16 0 0)
(1.141928701e-15 0 0)
(1.346513747e-15 0 0)
(1.34346732e-15 0 0)
(1.200225098e-15 0 0)
(1.001810056e-15 0 0)
(6.403195564e-16 0 0)
(5.380828834e-16 0 0)
(4.153032707e-16 0 0)
(2.152047257e-16 0 0)
(4.459569406e-16 0 0)
(5.061126561e-16 0 0)
(4.214131787e-16 0 0)
(3.950622054e-16 0 0)
(2.255456548e-16 0 0)
(2.684333154e-16 0 0)
(3.379704155e-16 0 0)
(4.477813688e-16 0 0)
(4.825355069e-16 0 0)
(2.183687853e-16 0 0)
(7.032624697e-17 0 0)
(8.950808252e-17 0 0)
(1.689150405e-16 0 0)
(7.531854627e-16 0 0)
(1.485763322e-15 0 0)
(1.988759397e-15 0 0)
(2.235475928e-15 0 0)
(2.519323735e-15 0 0)
(2.872330726e-15 0 0)
(2.778659436e-15 0 0)
(2.678527576e-15 0 0)
(2.760964664e-15 0 0)
(2.617520752e-15 0 0)
(2.432254576e-15 0 0)
(2.451588769e-15 0 0)
(2.350145591e-15 0 0)
(2.134125472e-15 0 0)
(2.048622383e-15 0 0)
(1.871790738e-15 0 0)
(1.649113583e-15 0 0)
(1.834327754e-15 0 0)
(1.793189697e-15 0 0)
(1.591454818e-15 0 0)
(1.52742913e-15 0 0)
(1.525087465e-15 0 0)
(1.563385131e-15 0 0)
(1.532846601e-15 0 0)
(1.491418172e-15 0 0)
(1.264748802e-15 0 0)
(1.260093925e-15 0 0)
(1.073911772e-15 0 0)
(9.497228767e-16 0 0)
(7.767423974e-16 0 0)
(8.693260519e-16 0 0)
(3.991367561e-16 0 0)
(1.116074476e-16 0 0)
(-5.304905464e-17 0 0)
(-3.224325357e-16 0 0)
(-8.170082489e-16 0 0)
(-1.024996732e-15 0 0)
(-1.375597022e-15 0 0)
(-1.390572753e-15 0 0)
(-1.447005939e-15 0 0)
(-1.402059044e-15 0 0)
(-1.212137299e-15 0 0)
(-1.114805302e-15 0 0)
(-1.101750435e-15 0 0)
(-1.10616275e-15 0 0)
(-1.333095462e-15 0 0)
(-1.723588331e-15 0 0)
(-1.889408794e-15 0 0)
(-1.558416613e-15 0 0)
(-1.324137812e-15 0 0)
(-1.281526257e-15 0 0)
(-1.209595511e-15 0 0)
(-5.101298775e-16 0 0)
(-1.49082042e-16 0 0)
(-6.451275115e-17 0 0)
(3.193397882e-16 0 0)
(6.170872094e-16 0 0)
(6.998870654e-16 0 0)
(7.213190907e-16 0 0)
(1.286179429e-15 0 0)
(1.389313434e-15 0 0)
(8.559812807e-16 0 0)
(6.075388998e-16 0 0)
(4.550036577e-16 0 0)
(4.206056961e-16 0 0)
(1.572214415e-16 0 0)
(-1.329841021e-16 0 0)
(-1.329438918e-16 0 0)
(-2.073862996e-16 0 0)
(-1.127961019e-16 0 0)
(2.351494124e-16 0 0)
(5.130905806e-16 0 0)
(2.821838485e-16 0 0)
(1.926127492e-16 0 0)
(2.173827189e-16 0 0)
(1.324708126e-16 0 0)
(-1.680897509e-16 0 0)
(-5.771343611e-16 0 0)
(-7.500909432e-16 0 0)
(-1.165260514e-15 0 0)
(-1.376660203e-15 0 0)
(-1.123974418e-15 0 0)
(-8.674543745e-16 0 0)
(-6.980835688e-16 0 0)
(-5.273675782e-16 0 0)
(-6.810404727e-16 0 0)
(-9.820366533e-16 0 0)
(-8.823629463e-16 0 0)
(-9.380954717e-16 0 0)
(-7.368460391e-16 0 0)
(-8.505902287e-16 0 0)
(-1.107539649e-15 0 0)
(-1.632959286e-15 0 0)
(-1.924813284e-15 0 0)
(-2.19677397e-15 0 0)
(-2.296320178e-15 0 0)
(-2.311088008e-15 0 0)
(-2.282483902e-15 0 0)
(-1.99972398e-15 0 0)
(-1.461791784e-15 0 0)
(-7.456644459e-16 0 0)
(-7.662382422e-17 0 0)
(8.858505962e-16 0 0)
(1.852802918e-15 0 0)
(2.606333718e-15 0 0)
(2.775139956e-15 0 0)
(2.852430489e-15 0 0)
(3.233044718e-15 0 0)
(3.933361389e-15 0 0)
(3.552460035e-15 0 0)
(3.474806079e-15 0 0)
(3.571227482e-15 0 0)
(3.584831732e-15 0 0)
(3.739736447e-15 0 0)
(4.153523578e-15 0 0)
(3.851989315e-15 0 0)
(3.421095077e-15 0 0)
(3.417479362e-15 0 0)
(3.44446586e-15 0 0)
(3.205259326e-15 0 0)
(3.351144248e-15 0 0)
(2.752231191e-15 0 0)
(2.67780534e-15 0 0)
(2.764243373e-15 0 0)
(2.91054354e-15 0 0)
(3.190954231e-15 0 0)
(2.894782962e-15 0 0)
(2.858601075e-15 0 0)
(2.909619425e-15 0 0)
(2.791967446e-15 0 0)
(2.533774437e-15 0 0)
(2.144999564e-15 0 0)
(2.037961993e-15 0 0)
(2.125212998e-15 0 0)
(2.02994096e-15 0 0)
(1.892057996e-15 0 0)
(1.717153339e-15 0 0)
(1.867115347e-15 0 0)
(2.05719522e-15 0 0)
(2.255911113e-15 0 0)
(2.146587782e-15 0 0)
(1.876396603e-15 0 0)
(1.765459597e-15 0 0)
(1.902074104e-15 0 0)
(1.9432991e-15 0 0)
(1.79312039e-15 0 0)
(1.88820843e-15 0 0)
(2.074712862e-15 0 0)
(2.005117648e-15 0 0)
(1.929047907e-15 0 0)
(2.239185818e-15 0 0)
(2.57252482e-15 0 0)
(2.817122657e-15 0 0)
(2.973068051e-15 0 0)
(3.040350357e-15 0 0)
(3.377008143e-15 0 0)
(2.938571632e-15 0 0)
(2.276327751e-15 0 0)
(1.714697822e-15 0 0)
(1.502841573e-15 0 0)
(1.631108162e-15 0 0)
(1.539197998e-15 0 0)
(1.337358206e-15 0 0)
(1.375081974e-15 0 0)
(1.217855587e-15 0 0)
(9.440357891e-16 0 0)
(1.088530256e-15 0 0)
(8.9358364e-16 0 0)
(9.673466228e-16 0 0)
(7.765499521e-16 0 0)
(7.152736786e-16 0 0)
(2.434607552e-16 0 0)
(3.214183736e-16 0 0)
(3.751370558e-16 0 0)
(9.491580258e-17 0 0)
(-1.011205846e-16 0 0)
(-3.049245598e-16 0 0)
(-2.706210147e-16 0 0)
(-3.225477342e-16 0 0)
(-2.904041301e-16 0 0)
(-3.310501207e-17 0 0)
(-7.467643917e-17 0 0)
(7.93171111e-17 0 0)
(1.354622639e-16 0 0)
(-1.487830161e-16 0 0)
(-2.923914442e-16 0 0)
(-3.74650583e-16 0 0)
(-7.442284438e-16 0 0)
(-9.034059689e-16 0 0)
(-1.082581666e-15 0 0)
(-9.071846336e-16 0 0)
(-7.842086778e-16 0 0)
(-7.216973055e-16 0 0)
(-9.061271285e-16 0 0)
(-5.4359024e-16 0 0)
(-4.132272636e-16 0 0)
(-3.151922374e-16 0 0)
(-3.288909915e-16 0 0)
(-1.24469097e-17 0 0)
(2.557861362e-16 0 0)
(-6.389466016e-17 0 0)
(-6.377365144e-18 0 0)
(3.276519667e-18 0 0)
(-1.071288742e-16 0 0)
(-4.424720736e-16 0 0)
(-5.469992989e-16 0 0)
(-5.389692122e-16 0 0)
(-5.62798047e-16 0 0)
(-6.728765491e-16 0 0)
(-6.842269035e-16 0 0)
(-1.370690327e-15 0 0)
(-1.743362953e-15 0 0)
(-1.848191547e-15 0 0)
(-1.791914119e-15 0 0)
(-2.131521692e-15 0 0)
(-2.399255421e-15 0 0)
(-2.544161476e-15 0 0)
(-2.66349329e-15 0 0)
(-2.77705647e-15 0 0)
(-2.654995072e-15 0 0)
(-2.655848459e-15 0 0)
(-2.577724195e-15 0 0)
(-2.624950091e-15 0 0)
(-2.751738554e-15 0 0)
(-2.873561019e-15 0 0)
(-2.860552774e-15 0 0)
(-2.930815596e-15 0 0)
(-3.315146843e-15 0 0)
(-3.510460775e-15 0 0)
(-3.566482027e-15 0 0)
(1.197606455e-14 0 0)
(4.53238562e-11 0 0)
(2.005013757e-08 0 0)
(1.76512488e-06 0 0)
(4.154461501e-05 0 0)
(0.0003537652672 0 0)
(0.001445688312 0 0)
(0.003615533421 0 0)
(0.006658908742 0 0)
(0.0102012032 0 0)
(0.01397599635 0 0)
(0.01785022632 0 0)
(0.02176860374 0 0)
(0.02571049499 0 0)
(0.02966862673 0 0)
(0.03364030169 0 0)
(0.03762418857 0 0)
(0.04161929392 0 0)
(0.04562469519 0 0)
(0.04963950319 0 0)
(0.05366287622 0 0)
(0.05769403575 0 0)
(0.06173227383 0 0)
(0.06577695361 0 0)
(0.06982750571 0 0)
(0.07388342253 0 0)
(0.07794425199 0 0)
(0.08200959129 0 0)
(0.08607908102 0 0)
(0.09015240002 0 0)
(0.09422926059 0 0)
(0.09830940451 0 0)
(0.1023925994 0 0)
(0.1064786356 0 0)
(0.1105673236 0 0)
(0.1146584916 0 0)
(0.1187519836 0 0)
(0.1228476573 0 0)
(0.126945383 0 0)
(0.1310450421 0 0)
(0.1351465259 0 0)
(0.1392497344 0 0)
(0.1433545759 0 0)
(0.1474609655 0 0)
(0.151568825 0 0)
(0.1556780821 0 0)
(0.1597886697 0 0)
(0.1639005256 0 0)
(0.1680135918 0 0)
(0.1721278147 0 0)
(0.1762431438 0 0)
(0.1803595324 0 0)
(0.1844769367 0 0)
(0.1885953156 0 0)
(0.1927146308 0 0)
(0.1968348461 0 0)
(0.2009559277 0 0)
(0.2050778439 0 0)
(0.2092005645 0 0)
(0.2133240614 0 0)
(0.2174483079 0 0)
(0.2215732789 0 0)
(0.2256989507 0 0)
(0.2298253006 0 0)
(0.2339523076 0 0)
(0.2380799513 0 0)
(0.2422082127 0 0)
(0.2463370736 0 0)
(0.2504665168 0 0)
(0.254596526 0 0)
(0.2587270854 0 0)
(0.2628581804 0 0)
(0.2669897966 0 0)
(0.2711219208 0 0)
(0.27525454 0 0)
(0.2793876419 0 0)
(0.2835212149 0 0)
(0.2876552477 0 0)
(0.2917897296 0 0)
(0.2959246504 0 0)
(0.3000600003 0 0)
(0.3041957698 0 0)
(0.30833195 0 0)
(0.3124685321 0 0)
(0.316605508 0 0)
(0.3207428695 0 0)
(0.3248806092 0 0)
(0.3290187195 0 0)
(0.3331571935 0 0)
(0.3372960242 0 0)
(0.3414352053 0 0)
(0.3455747303 0 0)
(0.3497145931 0 0)
(0.353854788 0 0)
(0.3579953092 0 0)
(0.3621361512 0 0)
(0.3662773088 0 0)
(0.370418777 0 0)
(0.3745605507 0 0)
(0.3787026253 0 0)
(0.382844996 0 0)
(0.3869876586 0 0)
(0.3911306086 0 0)
(0.3952738419 0 0)
(0.3994173545 0 0)
(0.4035611425 0 0)
(0.407705202 0 0)
(0.4118495294 0 0)
(0.4159941212 0 0)
(0.4201389739 0 0)
(0.4242840842 0 0)
(0.4284294487 0 0)
(0.4325750645 0 0)
(0.4367209284 0 0)
(0.4408670374 0 0)
(0.4450133888 0 0)
(0.4491599798 0 0)
(0.4533068076 0 0)
(0.4574538696 0 0)
(0.4616011634 0 0)
(0.4657486864 0 0)
(0.4698964363 0 0)
(0.4740444109 0 0)
(0.4781926079 0 0)
(0.4823410251 0 0)
(0.4864896605 0 0)
(0.4906385122 0 0)
(0.4947875781 0 0)
(0.4989368565 0 0)
(0.5030863456 0 0)
(0.5072360436 0 0)
(0.5113859489 0 0)
(0.51553606 0 0)
(0.5196863754 0 0)
(0.5238368936 0 0)
(0.5279876133 0 0)
(0.5321385333 0 0)
(0.5362896522 0 0)
(0.540440969 0 0)
(0.5445924826 0 0)
(0.5487441921 0 0)
(0.5528960964 0 0)
(0.5570481948 0 0)
(0.5612004864 0 0)
(0.5653529707 0 0)
(0.569505647 0 0)
(0.5736585148 0 0)
(0.5778115736 0 0)
(0.5819648231 0 0)
(0.586118263 0 0)
(0.5902718931 0 0)
(0.5944257135 0 0)
(0.5985797241 0 0)
(0.602733925 0 0)
(0.6068883165 0 0)
(0.611042899 0 0)
(0.6151976731 0 0)
(0.6193526392 0 0)
(0.6235077983 0 0)
(0.6276631512 0 0)
(0.631818699 0 0)
(0.6359744432 0 0)
(0.640130385 0 0)
(0.6442865263 0 0)
(0.6484428689 0 0)
(0.652599415 0 0)
(0.6567561669 0 0)
(0.6609131275 0 0)
(0.6650702998 0 0)
(0.6692276869 0 0)
(0.6733852927 0 0)
(0.6775431212 0 0)
(0.6817011769 0 0)
(0.6858594646 0 0)
(0.6900179897 0 0)
(0.6941767581 0 0)
(0.6983357761 0 0)
(0.7024950507 0 0)
(0.7066545893 0 0)
(0.7108144 0 0)
(0.7149744917 0 0)
(0.7191348737 0 0)
(0.7232955561 0 0)
(0.7274565498 0 0)
(0.7316178664 0 0)
(0.7357795182 0 0)
(0.7399415184 0 0)
(0.7441038809 0 0)
(0.7482666204 0 0)
(0.7524297525 0 0)
(0.7565932934 0 0)
(0.7607572599 0 0)
(0.7649216697 0 0)
(0.7690865408 0 0)
(0.7732518916 0 0)
(0.7774177411 0 0)
(0.7815841078 0 0)
(0.7857510106 0 0)
(0.7899184677 0 0)
(0.7940864968 0 0)
(0.7982551145 0 0)
(0.8024243366 0 0)
(0.8065941771 0 0)
(0.8107646486 0 0)
(0.8149357618 0 0)
(0.8191075257 0 0)
(0.8232799474 0 0)
(0.8274530323 0 0)
(0.8316267848 0 0)
(0.8358012085 0 0)
(0.8399763075 0 0)
(0.8441520874 0 0)
(0.8483285571 0 0)
(0.8525057315 0 0)
(0.8566836342 0 0)
(0.8608623019 0 0)
(0.865041791 0 0)
(0.8692221855 0 0)
(0.8734036099 0 0)
(0.8775862502 0 0)
(0.8817703819 0 0)
(0.8859564184 0 0)
(0.8901449905 0 0)
(0.8943370766 0 0)
(0.898534207 0 0)
(0.9027387336 0 0)
(0.9069540128 0 0)
(0.9111838298 0 0)
(0.9154287876 0 0)
(0.9196731819 0 0)
(0.9238466278 0 0)
(0.9277447471 0 0)
(0.9309194707 0 0)
(0.9328540602 0 0)
(0.9334677701 0 0)
(0.9335576207 0 0)
(0.9334518478 0 0)
(0.9327857286 0 0)
(0.9310397476 0 0)
(0.9292425183 0 0)
(0.9288309876 0 0)
(0.9288326578 0 0)
(0.9288219217 0 0)
(0.9286855193 0 0)
(0.9283254683 0 0)
(0.9279567103 0 0)
(0.9278675029 0 0)
(0.9278710146 0 0)
(0.9278861183 0 0)
(0.9278843245 0 0)
(0.927852338 0 0)
(0.9277870479 0 0)
(0.9277413707 0 0)
(0.9277296283 0 0)
(0.9277179736 0 0)
(0.9276897255 0 0)
(0.9276505831 0 0)
(0.9276406971 0 0)
(0.9276417385 0 0)
(0.9276373757 0 0)
(0.9276185575 0 0)
(0.9275959406 0 0)
(0.9275846444 0 0)
(0.9275792944 0 0)
(0.9275709972 0 0)
(0.9275574805 0 0)
(0.9275481382 0 0)
(0.9275471412 0 0)
(0.9275451509 0 0)
(0.9275394596 0 0)
(0.9275307321 0 0)
(0.9275233977 0 0)
(0.9275187793 0 0)
(0.927514034 0 0)
(0.927508159 0 0)
(0.9275027893 0 0)
(0.9275007881 0 0)
(0.9275000911 0 0)
(0.9275000427 0 0)
(0.9274999138 0 0)
(0.9274989521 0 0)
(0.9274959366 0 0)
(0.9274906636 0 0)
(0.9274852878 0 0)
(0.9274802404 0 0)
(0.9274767922 0 0)
(0.9274754242 0 0)
(0.9274758453 0 0)
(0.9274782094 0 0)
(0.9274811041 0 0)
(0.9274822928 0 0)
(0.9274815464 0 0)
(0.9274795094 0 0)
(0.9274767464 0 0)
(0.9274737382 0 0)
(0.927471636 0 0)
(0.9274701052 0 0)
(0.9274696054 0 0)
(0.9274697585 0 0)
(0.9274700574 0 0)
(0.9274699544 0 0)
(0.9274690064 0 0)
(0.9274676029 0 0)
(0.927466179 0 0)
(0.9274649312 0 0)
(0.9274642594 0 0)
(0.9274641662 0 0)
(0.9274645838 0 0)
(0.9274655822 0 0)
(0.9274667992 0 0)
(0.9274672542 0 0)
(0.9274671142 0 0)
(0.927466493 0 0)
(0.9274656791 0 0)
(0.9274647312 0 0)
(0.9274635119 0 0)
(0.9274622684 0 0)
(0.9274616144 0 0)
(0.9274610328 0 0)
(0.9274611807 0 0)
(0.9274620918 0 0)
(0.9274633325 0 0)
(0.9274641979 0 0)
(0.9274644352 0 0)
(0.9274643786 0 0)
(0.9274638747 0 0)
(0.927463188 0 0)
(0.9274626508 0 0)
(0.9274623383 0 0)
(0.9274624314 0 0)
(0.9274627987 0 0)
(0.9274631738 0 0)
(0.9274631034 0 0)
(0.9274622469 0 0)
(0.927461532 0 0)
(0.9274609441 0 0)
(0.9274611124 0 0)
(0.9274613882 0 0)
(0.9274613427 0 0)
(0.9274606312 0 0)
(0.9274609302 0 0)
(0.9274615014 0 0)
(0.9274615386 0 0)
(0.9274612167 0 0)
(0.9274607938 0 0)
(0.9274603415 0 0)
(0.9274595151 0 0)
(0.9274585165 0 0)
(0.9274576278 0 0)
(0.9274571497 0 0)
(0.9274570083 0 0)
(0.9274569919 0 0)
(0.927457125 0 0)
(0.9274573964 0 0)
(0.9274577417 0 0)
(0.9274582468 0 0)
(0.9274588252 0 0)
(0.92745919 0 0)
(0.9274594473 0 0)
(0.9274595843 0 0)
(0.9274597126 0 0)
(0.927459786 0 0)
(0.927459756 0 0)
(0.9274595723 0 0)
(0.9274592302 0 0)
(0.9274589382 0 0)
(0.927458718 0 0)
(0.9274586544 0 0)
(0.9274586345 0 0)
(0.9274588156 0 0)
(0.9274593406 0 0)
(0.9274601256 0 0)
(0.9274609559 0 0)
(0.9274615047 0 0)
(0.9274617343 0 0)
(0.9274617094 0 0)
(0.9274612398 0 0)
(0.9274604715 0 0)
(0.927459399 0 0)
(0.9274580596 0 0)
(0.9274569296 0 0)
(0.9274566651 0 0)
(0.9274566811 0 0)
(0.9274568784 0 0)
(0.9274572896 0 0)
(0.9274578558 0 0)
(0.9274583831 0 0)
(0.927459009 0 0)
(0.9274597329 0 0)
(0.9274597754 0 0)
(0.9274597485 0 0)
(0.9274596035 0 0)
(0.9274595688 0 0)
(0.9274594736 0 0)
(0.9274593144 0 0)
(0.9274590225 0 0)
(0.927458899 0 0)
(0.9274588982 0 0)
(0.9274589665 0 0)
(0.9274591584 0 0)
(0.9274593619 0 0)
(0.9274597144 0 0)
(0.92746004 0 0)
(0.9274606303 0 0)
(0.9274614679 0 0)
(0.9274616206 0 0)
(0.9274613453 0 0)
(0.9274618266 0 0)
(0.9274615275 0 0)
(0.9274600894 0 0)
(0.9274602863 0 0)
(0.9274593916 0 0)
(0.9274580932 0 0)
(0.9274575591 0 0)
(0.9274571723 0 0)
(0.927457034 0 0)
(0.9274570376 0 0)
(0.9274572147 0 0)
(0.9274576387 0 0)
(0.9274583061 0 0)
(0.9274592028 0 0)
(0.9274606115 0 0)
(0.9274634102 0 0)
(0.9274693108 0 0)
(0.9274812899 0 0)
(0.9275043898 0 0)
(0.9275454569 0 0)
(0.9276114688 0 0)
(0.9277066057 0 0)
(0.927828395 0 0)
(0.9279625459 0 0)
(0.9280843126 0 0)
(0.9281363227 0 0)
(0.9281052065 0 0)
(0.9279479053 0 0)
(0.9276988074 0 0)
(0.9275114168 0 0)
(0.9274597193 0 0)
(0.9274581082 0 0)
(0.9274585749 0 0)
(0.927458719 0 0)
(0.9274589867 0 0)
(0.927459366 0 0)
(0.9274598031 0 0)
(0.9274602166 0 0)
(0.9274604245 0 0)
(0.9274604519 0 0)
(0.9274604258 0 0)
(0.9274602746 0 0)
(0.9274599665 0 0)
(0.9274594748 0 0)
(0.9274588764 0 0)
(0.9274583495 0 0)
(0.9274579459 0 0)
(0.9274577028 0 0)
(0.9274576331 0 0)
(0.9274576327 0 0)
(0.9274576579 0 0)
(0.9274577623 0 0)
(0.9274579929 0 0)
(0.9274583613 0 0)
(0.9274588305 0 0)
(0.9274593004 0 0)
(0.9274596597 0 0)
(0.9274598681 0 0)
(0.9274599397 0 0)
(0.9274599392 0 0)
(0.9274599079 0 0)
(0.9274598497 0 0)
(0.9274597616 0 0)
(0.9274596481 0 0)
(0.9274595214 0 0)
(0.9274593895 0 0)
(0.9274592757 0 0)
(0.9274592036 0 0)
(0.9274591722 0 0)
(0.9274591642 0 0)
(0.9274591811 0 0)
(0.9274592539 0 0)
(0.9274594197 0 0)
(0.9274597116 0 0)
(0.9274601417 0 0)
(0.9274606749 0 0)
(0.9274611892 0 0)
(0.9274615006 0 0)
(0.9274615829 0 0)
(0.9274615931 0 0)
(0.9274614732 0 0)
(0.9274611003 0 0)
(0.9274603435 0 0)
(0.9274592963 0 0)
(0.9274580904 0 0)
(0.9274569369 0 0)
(0.9274562155 0 0)
(0.9274560452 0 0)
(0.9274560623 0 0)
(0.9274561868 0 0)
(0.9274566278 0 0)
(0.9274575811 0 0)
(0.9274591888 0 0)
(0.9274614309 0 0)
(0.9274639542 0 0)
(0.9274661218 0 0)
(0.927467518 0 0)
(0.9274681168 0 0)
(0.9274681903 0 0)
(0.9274681094 0 0)
(0.9274678331 0 0)
(0.9274672337 0 0)
(0.9274662919 0 0)
(0.9274650466 0 0)
(0.9274636647 0 0)
(0.9274624756 0 0)
(0.9274617674 0 0)
(0.9274614877 0 0)
(0.927461448 0 0)
(0.927461473 0 0)
(0.9274615555 0 0)
(0.9274616843 0 0)
(0.9274618576 0 0)
(0.9274620749 0 0)
(0.9274623046 0 0)
(0.9274625184 0 0)
(0.9274627355 0 0)
(0.9274629957 0 0)
(0.9274633195 0 0)
(0.9274637099 0 0)
(0.9274641818 0 0)
(0.9274647098 0 0)
(0.927465143 0 0)
(0.9274653243 0 0)
(0.9274652996 0 0)
(0.9274652045 0 0)
(0.9274650997 0 0)
(0.9274647328 0 0)
(0.9274639072 0 0)
(0.9274625847 0 0)
(0.9274608539 0 0)
(0.9274590006 0 0)
(0.9274576139 0 0)
(0.9274570796 0 0)
(0.927457025 0 0)
(0.9274571118 0 0)
(0.9274572877 0 0)
(0.9274577891 0 0)
(0.9274589491 0 0)
(0.9274608469 0 0)
(0.9274633355 0 0)
(0.9274661458 0 0)
(0.9274687128 0 0)
(0.9274704213 0 0)
(0.927471071 0 0)
(0.927471242 0 0)
(0.9274712431 0 0)
(0.9274714016 0 0)
(0.9274713183 0 0)
(0.9274711513 0 0)
(0.9274711664 0 0)
(0.9274711472 0 0)
(0.92747107 0 0)
(0.9274708716 0 0)
(0.9274709613 0 0)
(0.9274713074 0 0)
(0.9274713917 0 0)
(0.927471431 0 0)
(0.9274717569 0 0)
(0.9274723871 0 0)
(0.9274728487 0 0)
(0.9274729018 0 0)
(0.9274732461 0 0)
(0.9274737552 0 0)
(0.9274741537 0 0)
(0.9274740265 0 0)
(0.9274740957 0 0)
(0.9274745024 0 0)
(0.9274748983 0 0)
(0.9274745401 0 0)
(0.9274739298 0 0)
(0.9274741996 0 0)
(0.9274743523 0 0)
(0.9274737735 0 0)
(0.927472339 0 0)
(0.9274720907 0 0)
(0.9274714873 0 0)
(0.9274693748 0 0)
(0.9274668793 0 0)
(0.9274662591 0 0)
(0.9274671667 0 0)
(0.9274659118 0 0)
(0.927460061 0 0)
(0.9274333633 0 0)
(0.92724373 0 0)
(0.9259556255 0 0)
(0.9173526962 0 0)
(0.8635740619 0 0)
(0.6186645843 0 0)
(0.16752422 0 0)
(0.008429982481 0 0)
(0.0001008581814 0 0)
(2.235718562e-07 0 0)
(3.223546437e-11 0 0)
(6.287983161e-16 0 0)
(-4.384862031e-16 0 0)
(-5.422871837e-16 0 0)
(-6.99848038e-16 0 0)
(-8.545168313e-16 0 0)
(-6.996401066e-16 0 0)
(-6.671266178e-16 0 0)
(-7.864089722e-16 0 0)
(-4.170631605e-16 0 0)
(-3.345722564e-16 0 0)
(-3.168297298e-16 0 0)
(-3.346359765e-16 0 0)
(-5.959161065e-16 0 0)
(-8.014976722e-16 0 0)
(-9.030106618e-16 0 0)
(-8.318076537e-16 0 0)
(-6.509156277e-16 0 0)
(-1.838716446e-16 0 0)
(1.215762794e-16 0 0)
(3.776886451e-16 0 0)
(4.426472716e-16 0 0)
(6.021822042e-16 0 0)
(7.601769906e-16 0 0)
(6.793981832e-16 0 0)
(5.339829476e-16 0 0)
(4.796787094e-16 0 0)
(3.198635548e-16 0 0)
(1.647910258e-16 0 0)
(2.900727263e-16 0 0)
(3.303220721e-16 0 0)
(3.84857493e-16 0 0)
(1.636986841e-16 0 0)
(8.705381505e-18 0 0)
(-2.280180803e-17 0 0)
(6.685987714e-17 0 0)
(8.889774575e-17 0 0)
(1.921375471e-16 0 0)
(-1.109769296e-16 0 0)
(-2.563562806e-16 0 0)
(7.973671577e-18 0 0)
(1.313573196e-16 0 0)
(1.96412336e-16 0 0)
(1.862507925e-16 0 0)
(1.297361814e-16 0 0)
(5.828508853e-16 0 0)
(6.547656889e-16 0 0)
(6.669635625e-16 0 0)
(7.432099168e-16 0 0)
(8.050867544e-16 0 0)
(7.635752667e-16 0 0)
(7.45683442e-16 0 0)
(8.485590566e-16 0 0)
(8.402356845e-16 0 0)
(5.487351989e-16 0 0)
(4.29686301e-16 0 0)
(3.591743972e-16 0 0)
(2.405998129e-16 0 0)
(2.961286855e-16 0 0)
(1.960280783e-16 0 0)
(-5.304563295e-17 0 0)
(-3.394222676e-16 0 0)
(-5.233606441e-16 0 0)
(-4.368899466e-16 0 0)
(-4.608886951e-16 0 0)
(-4.998147961e-16 0 0)
(-8.192630418e-16 0 0)
(-3.066157608e-16 0 0)
(1.452839851e-17 0 0)
(3.865773907e-16 0 0)
(7.82998388e-16 0 0)
(8.193700952e-16 0 0)
(1.072657194e-15 0 0)
(1.158993174e-15 0 0)
(1.01284808e-15 0 0)
(7.820640483e-16 0 0)
(8.335104252e-16 0 0)
(7.002933873e-16 0 0)
(7.924551727e-16 0 0)
(5.201132325e-16 0 0)
(6.737727565e-16 0 0)
(5.402250753e-16 0 0)
(5.987592662e-16 0 0)
(6.23857129e-16 0 0)
(6.679635096e-16 0 0)
(5.651803675e-16 0 0)
(5.312590222e-16 0 0)
(3.755425124e-16 0 0)
(3.926818255e-16 0 0)
(2.477791398e-16 0 0)
(2.927764915e-16 0 0)
(1.658101869e-16 0 0)
(2.760761906e-16 0 0)
(7.323336376e-16 0 0)
(8.576279552e-16 0 0)
(8.63693321e-16 0 0)
(1.3314326e-15 0 0)
(1.504911784e-15 0 0)
(1.604598045e-15 0 0)
(1.569153015e-15 0 0)
(1.54392547e-15 0 0)
(1.322558267e-15 0 0)
(1.519921353e-15 0 0)
(1.451427995e-15 0 0)
(1.491845488e-15 0 0)
(1.434822359e-15 0 0)
(1.523986893e-15 0 0)
(1.636204346e-15 0 0)
(1.659040201e-15 0 0)
(1.683598773e-15 0 0)
(1.553453833e-15 0 0)
(1.471086183e-15 0 0)
(1.683313551e-15 0 0)
(1.320614051e-15 0 0)
(1.087503986e-15 0 0)
(1.058885886e-15 0 0)
(8.267068652e-16 0 0)
(5.441500085e-16 0 0)
(6.376472297e-16 0 0)
(3.217645968e-16 0 0)
(5.248717709e-16 0 0)
(1.417699379e-17 0 0)
(-1.669157218e-16 0 0)
(-1.867186063e-16 0 0)
(-2.836863733e-16 0 0)
(-5.701828867e-16 0 0)
(-9.104788473e-16 0 0)
(-9.401046083e-16 0 0)
(-9.868017799e-16 0 0)
(-1.306826251e-15 0 0)
(-1.251265833e-15 0 0)
(-1.565725408e-15 0 0)
(-2.003532478e-15 0 0)
(-2.214942513e-15 0 0)
(-2.572586847e-15 0 0)
(-2.614554105e-15 0 0)
(-2.593076338e-15 0 0)
(-2.400281289e-15 0 0)
(-2.116443256e-15 0 0)
(-1.831826798e-15 0 0)
(-1.769217185e-15 0 0)
(-1.667480125e-15 0 0)
(-1.335972581e-15 0 0)
(-5.286646405e-16 0 0)
(-6.571255666e-17 0 0)
)
;

boundaryField
{
    sides
    {
        type            fixedValue;
        value           uniform (0 0 0);
    }
    empty
    {
        type            empty;
    }
}


// ************************************************************************* //
