/*--------------------------------*- C++ -*----------------------------------*\
| =========                 |                                                 |
| \\      /  F ield         | OpenFOAM: The Open Source CFD Toolbox           |
|  \\    /   O peration     | Version:  v1812                                 |
|   \\  /    A nd           | Web:      www.OpenFOAM.com                      |
|    \\/     M anipulation  |                                                 |
\*---------------------------------------------------------------------------*/
FoamFile
{
    version     2.0;
    format      ascii;
    class       volScalarField;
    location    "2";
    object      p;
}
// * * * * * * * * * * * * * * * * * * * * * * * * * * * * * * * * * * * * * //

dimensions      [1 -1 -2 0 0 0 0];


internalField   nonuniform List<scalar> 
1000
(
1.000015408
1.000015407
1.000015406
1.000015406
1.000015405
1.000015405
1.000015404
1.000015403
1.000015403
1.000015402
1.000015402
1.000015401
1.000015401
1.0000154
1.0000154
1.000015399
1.000015399
1.000015398
1.000015398
1.000015397
1.000015397
1.000015397
1.000015396
1.000015396
1.000015395
1.000015395
1.000015394
1.000015394
1.000015393
1.000015393
1.000015393
1.000015392
1.000015392
1.000015391
1.000015391
1.00001539
1.00001539
1.00001539
1.000015389
1.000015389
1.000015388
1.000015388
1.000015388
1.000015387
1.000015387
1.000015387
1.000015386
1.000015386
1.000015385
1.000015385
1.000015385
1.000015384
1.000015384
1.000015384
1.000015383
1.000015383
1.000015383
1.000015382
1.000015382
1.000015382
1.000015381
1.000015381
1.000015381
1.00001538
1.00001538
1.00001538
1.000015379
1.000015379
1.000015379
1.000015378
1.000015378
1.000015378
1.000015377
1.000015377
1.000015377
1.000015376
1.000015376
1.000015375
1.000015375
1.000015375
1.000015374
1.000015374
1.000015374
1.000015373
1.000015373
1.000015373
1.000015372
1.000015372
1.000015372
1.000015371
1.000015371
1.000015371
1.00001537
1.00001537
1.00001537
1.00001537
1.00001537
1.00001537
1.000015371
1.000015371
1.000015372
1.000015372
1.000015373
1.000015375
1.000015376
1.000015378
1.00001538
1.000015383
1.000015386
1.000015389
1.000015393
1.000015398
1.000015403
1.000015409
1.000015415
1.000015422
1.00001543
1.000015439
1.000015448
1.000015458
1.00001547
1.000015481
1.000015494
1.000015508
1.000015522
1.000015538
1.000015554
1.000015571
1.000015589
1.000015607
1.000015627
1.000015647
1.000015667
1.000015688
1.000015709
1.000015731
1.000015753
1.000015775
1.000015798
1.00001582
1.000015842
1.000015864
1.000015886
1.000015907
1.000015928
1.000015948
1.000015968
1.000015987
1.000016005
1.000016022
1.000016038
1.000016053
1.000016066
1.000016079
1.00001609
1.000016101
1.00001611
1.000016117
1.000016124
1.000016129
1.000016132
1.000016135
1.000016136
1.000016136
1.000016135
1.000016132
1.000016128
1.000016123
1.000016117
1.000016109
1.000016101
1.000016092
1.000016081
1.00001607
1.000016058
1.000016045
1.000016031
1.000016017
1.000016002
1.000015986
1.00001597
1.000015953
1.000015936
1.000015919
1.000015901
1.000015883
1.000015864
1.000015846
1.000015827
1.000015809
1.00001579
1.000015771
1.000015753
1.000015734
1.000015716
1.000015698
1.000015681
1.000015663
1.000015647
1.00001563
1.000015614
1.000015599
1.000015584
1.00001557
1.000015557
1.000015545
1.000015533
1.000015522
1.000015512
1.000015503
1.000015495
1.000015488
1.000015482
1.000015477
1.000015473
1.00001547
1.000015469
1.000015469
1.00001547
1.000015472
1.000015475
1.00001548
1.000015486
1.000015493
1.000015502
1.000015512
1.000015523
1.000015536
1.00001555
1.000015565
1.000015581
1.000015599
1.000015618
1.000015638
1.000015659
1.000015681
1.000015705
1.000015729
1.000015754
1.00001578
1.000015807
1.000015835
1.000015863
1.000015893
1.000015922
1.000015952
1.000015983
1.000016014
1.000016045
1.000016077
1.000016108
1.00001614
1.000016172
1.000016204
1.000016235
1.000016267
1.000016298
1.000016329
1.00001636
1.00001639
1.00001642
1.000016449
1.000016478
1.000016507
1.000016534
1.000016561
1.000016588
1.000016614
1.000016639
1.000016663
1.000016686
1.000016709
1.000016731
1.000016753
1.000016773
1.000016793
1.000016812
1.000016831
1.000016848
1.000016865
1.000016881
1.000016897
1.000016912
1.000016926
1.000016939
1.000016952
1.000016965
1.000016977
1.000016988
1.000016999
1.000017009
1.000017019
1.000017028
1.000017037
1.000017046
1.000017054
1.000017062
1.000017069
1.000017077
1.000017084
1.000017091
1.000017097
1.000017103
1.000017109
1.000017115
1.000017121
1.000017127
1.000017132
1.000017138
1.000017143
1.000017148
1.000017153
1.000017158
1.000017163
1.000017168
1.000017173
1.000017178
1.000017183
1.000017188
1.000017193
1.000017197
1.000017202
1.000017207
1.000017212
1.000017216
1.000017221
1.000017226
1.000017231
1.000017236
1.000017241
1.000017246
1.000017251
1.000017256
1.000017261
1.000017266
1.000017271
1.000017276
1.000017281
1.000017287
1.000017292
1.000017298
1.000017304
1.000017309
1.000017315
1.000017322
1.000017328
1.000017335
1.000017343
1.00001735
1.000017358
1.000017367
1.000017376
1.000017387
1.000017398
1.00001741
1.000017425
1.000017441
1.000017458
1.000017477
1.000017498
1.000017522
1.000017549
1.000017579
1.000017613
1.000017652
1.000017695
1.000017743
1.000017797
1.000017858
1.000017926
1.000018002
1.000018086
1.000018179
1.000018282
1.000018396
1.000018522
1.00001866
1.000018811
1.000018976
1.000019155
1.000019349
1.000019559
1.000019786
1.000020029
1.000020289
1.000020568
1.000020864
1.000021178
1.00002151
1.00002186
1.000022227
1.000022612
1.000023013
1.00002343
1.000023862
1.000024309
1.000024767
1.000025237
1.000025717
1.000026206
1.000026701
1.0000272
1.000027703
1.000028206
1.000028707
1.000029205
1.000029698
1.000030182
1.000030656
1.000031118
1.000031565
1.000031995
1.000032407
1.000032798
1.000033168
1.000033513
1.000033834
1.000034129
1.000034396
1.000034636
1.000034848
1.00003503
1.000035182
1.000035305
1.000035398
1.000035464
1.000035506
1.000035532
1.000035534
1.000035517
1.000035471
1.000035398
1.000035301
1.000035182
1.000035044
1.000034888
1.000034717
1.000034531
1.000034333
1.000034124
1.000033906
1.00003368
1.000033448
1.000033212
1.000032973
1.000032732
1.00003249
1.000032249
1.00003201
1.000031773
1.00003154
1.00003131
1.000031086
1.000030867
1.000030654
1.000030448
1.000030248
1.000030055
1.00002987
1.000029691
1.000029521
1.000029357
1.000029202
1.000029053
1.000028912
1.000028778
1.000028651
1.000028531
1.000028417
1.000028309
1.000028208
1.000028113
1.000028023
1.000027938
1.000027858
1.000027783
1.000027713
1.000027647
1.000027585
1.000027527
1.000027472
1.000027421
1.000027373
1.000027329
1.000027287
1.000027247
1.000027211
1.000027176
1.000027144
1.000027114
1.000027086
1.000027059
1.000027035
1.000027012
1.000026991
1.000026971
1.000026953
1.000026936
1.00002692
1.000026906
1.000026892
1.00002688
1.000026869
1.000026859
1.00002685
1.000026842
1.000026836
1.00002683
1.000026824
1.00002682
1.000026817
1.000026814
1.000026813
1.000026812
1.000026812
1.000026813
1.000026815
1.000026817
1.00002682
1.000026824
1.000026829
1.000026834
1.000026841
1.000026848
1.000026855
1.000026864
1.000026873
1.000026883
1.000026894
1.000026906
1.000026918
1.000026931
1.000026945
1.00002696
1.000026976
1.000026992
1.000027009
1.000027027
1.000027046
1.000027066
1.000027086
1.000027108
1.00002713
1.000027153
1.000027177
1.000027202
1.000027227
1.000027254
1.000027282
1.00002731
1.000027339
1.000027369
1.0000274
1.000027432
1.000027465
1.000027499
1.000027533
1.000027568
1.000027604
1.000027641
1.000027678
1.000027717
1.000027755
1.000027795
1.000027835
1.000027875
1.000027916
1.000027957
1.000027998
1.000028039
1.00002808
1.000028121
1.000028162
1.000028203
1.000028242
1.000028281
1.000028319
1.000028356
1.000028392
1.000028426
1.000028458
1.000028488
1.000028516
1.000028542
1.000028564
1.000028584
1.0000286
1.000028612
1.00002862
1.000028624
1.000028624
1.00002862
1.00002861
1.000028595
1.000028572
1.000028546
1.000028514
1.000028476
1.000028431
1.000028379
1.00002832
1.000028254
1.00002818
1.000028098
1.000028008
1.00002791
1.000027803
1.000027689
1.000027566
1.000027435
1.000027296
1.000027148
1.000026992
1.000026828
1.000026656
1.000026477
1.00002629
1.000026096
1.000025895
1.000025688
1.000025474
1.000025255
1.000025031
1.000024801
1.000024567
1.00002433
1.000024089
1.000023845
1.000023599
1.000023352
1.000023103
1.000022855
1.000022606
1.000022358
1.00002211
1.000021865
1.000021621
1.000021381
1.000021144
1.000020911
1.000020682
1.000020459
1.00002024
1.000020026
1.000019818
1.000019616
1.000019419
1.00001923
1.000019047
1.000018872
1.000018704
1.000018543
1.000018389
1.000018242
1.000018101
1.000017967
1.00001784
1.00001772
1.000017607
1.000017501
1.000017402
1.000017309
1.000017223
1.000017142
1.000017066
1.000016994
1.000016927
1.000016865
1.000016808
1.000016756
1.00001671
1.000016668
1.00001663
1.000016595
1.000016561
1.000016529
1.000016499
1.000016471
1.000016446
1.000016425
1.000016408
1.000016393
1.00001638
1.000016368
1.000016356
1.000016342
1.000016328
1.000016314
1.000016303
1.000016294
1.000016289
1.000016286
1.000016287
1.000016289
1.000016293
1.000016301
1.000016314
1.000016335
1.000016361
1.000016387
1.000016402
1.000016417
1.00001642
1.000016325
1.000016188
1.000015798
1.000015678
1.000016049
1.000016274
1.000016259
1.000016267
1.000016259
1.000016253
1.000016249
1.000016245
1.000016242
1.000016239
1.000016238
1.000016237
1.000016236
1.000016235
1.000016233
1.00001623
1.000016227
1.000016222
1.000016218
1.000016214
1.000016211
1.000016208
1.000016206
1.000016204
1.000016202
1.0000162
1.000016197
1.000016194
1.000016191
1.000016187
1.000016183
1.00001618
1.000016177
1.000016174
1.000016171
1.000016168
1.000016166
1.000016164
1.000016161
1.000016158
1.000016155
1.000016152
1.000016149
1.000016145
1.000016142
1.00001614
1.000016137
1.000016134
1.000016132
1.000016129
1.000016127
1.000016124
1.000016122
1.000016119
1.000016116
1.000016113
1.000016111
1.000016108
1.000016106
1.000016103
1.000016101
1.000016098
1.000016096
1.000016094
1.000016091
1.000016089
1.000016086
1.000016084
1.000016082
1.000016079
1.000016077
1.000016075
1.000016073
1.000016071
1.000016068
1.000016066
1.000016064
1.000016062
1.00001606
1.000016058
1.000016056
1.000016054
1.000016052
1.00001605
1.000016048
1.000016046
1.000016044
1.000016042
1.00001604
1.000016038
1.000016036
1.000016034
1.000016033
1.000016031
1.000016029
1.000016027
1.000016025
1.000016024
1.000016022
1.00001602
1.000016019
1.000016017
1.000016015
1.000016014
1.000016012
1.00001601
1.000016009
1.000016007
1.000016006
1.000016004
1.000016003
1.000016001
1.000016
1.000015998
1.000015997
1.000015995
1.000015994
1.000015993
1.000015991
1.00001599
1.000015988
1.000015987
1.000015986
1.000015984
1.000015983
1.000015982
1.000015981
1.000015979
1.000015978
1.000015977
1.000015976
1.000015975
1.000015973
1.000015972
1.000015971
1.00001597
1.000015969
1.000015968
1.000015967
1.000015966
1.000015965
1.000015964
1.000015963
1.000015962
1.000015961
1.00001596
1.000015959
1.000015958
1.000015957
1.000015956
1.000015956
1.000015955
1.000015954
1.000015953
1.000015952
1.000015952
1.000015951
1.00001595
1.000015949
1.000015949
1.000015948
1.000015947
1.000015947
1.000015946
1.000015945
1.000015945
1.000015944
1.000015944
1.000015943
1.000015943
1.000015942
1.000015942
1.000015941
1.000015941
1.00001594
1.00001594
1.00001594
1.000015939
1.000015939
1.000015939
1.000015938
1.000015938
1.000015938
1.000015937
1.000015937
1.000015937
1.000015937
1.000015937
1.000015937
1.000015936
1.000015936
1.000015936
1.000015936
1.000015937
1.000015937
1.000015937
1.000015937
1.000015938
1.000015938
1.000015939
1.000015939
1.00001594
1.000015942
1.000015943
1.000015944
1.000015946
1.000015948
1.000015951
1.000015953
1.000015957
1.00001596
1.000015964
1.000015969
1.000015974
1.00001598
1.000015986
1.000015994
1.000016002
1.00001601
1.00001602
1.00001603
1.000016041
1.000016054
1.000016067
1.000016082
1.000016098
1.000016114
1.000016132
1.000016152
1.000016172
1.000016194
1.000016216
1.000016241
1.000016266
1.000016292
1.00001632
1.000016349
1.000016379
1.00001641
1.000016442
1.000016475
1.000016509
1.000016543
1.000016579
1.000016614
1.000016651
1.000016688
1.000016725
1.000016763
1.0000168
1.000016838
1.000016875
1.000016912
1.000016949
1.000016985
1.000017021
1.000017056
1.00001709
1.000017123
1.000017155
1.000017186
1.000017215
1.000017244
1.000017271
1.000017296
1.000017321
1.000017344
1.000017366
1.000017385
1.000017404
1.000017421
1.000017436
1.00001745
1.000017463
1.000017474
1.000017485
1.000017493
1.000017501
1.000017508
1.000017513
1.000017518
1.000017521
1.000017524
1.000017525
1.000017526
1.000017527
1.000017527
1.000017526
1.000017525
1.000017523
1.000017521
1.000017519
1.000017515
)
;

boundaryField
{
    sides
    {
        type            zeroGradient;
    }
    empty
    {
        type            empty;
    }
}


// ************************************************************************* //
