/*--------------------------------*- C++ -*----------------------------------*\
| =========                 |                                                 |
| \\      /  F ield         | OpenFOAM: The Open Source CFD Toolbox           |
|  \\    /   O peration     | Version:  v1812                                 |
|   \\  /    A nd           | Web:      www.OpenFOAM.com                      |
|    \\/     M anipulation  |                                                 |
\*---------------------------------------------------------------------------*/
FoamFile
{
    version     2.0;
    format      ascii;
    class       surfaceScalarField;
    location    "2";
    object      phi;
}
// * * * * * * * * * * * * * * * * * * * * * * * * * * * * * * * * * * * * * //

dimensions      [1 0 -1 0 0 0 0];
oriented        oriented;


internalField   nonuniform List<scalar> 
999
(
0.559703726
0.5597037481
0.5597037702
0.5597037924
0.5597038145
0.5597038366
0.5597038587
0.5597038808
0.5597039029
0.559703925
0.5597039471
0.5597039692
0.5597039913
0.5597040134
0.5597040354
0.5597040574
0.5597040795
0.5597041015
0.5597041235
0.5597041456
0.5597041677
0.5597041898
0.5597042119
0.5597042341
0.5597042562
0.5597042783
0.5597043003
0.5597043223
0.5597043443
0.5597043663
0.5597043883
0.5597044102
0.5597044322
0.5597044542
0.5597044761
0.559704498
0.5597045199
0.5597045419
0.5597045638
0.5597045857
0.5597046076
0.5597046294
0.5597046513
0.5597046732
0.559704695
0.5597047169
0.5597047388
0.5597047607
0.5597047825
0.5597048044
0.5597048263
0.5597048479
0.5597048695
0.559704891
0.5597049124
0.5597049336
0.5597049546
0.5597049756
0.5597049964
0.5597050173
0.5597050383
0.5597050595
0.5597050808
0.5597051021
0.5597051235
0.5597051448
0.5597051663
0.5597051877
0.559705209
0.5597052303
0.5597052515
0.5597052727
0.5597052939
0.559705315
0.5597053362
0.5597053572
0.5597053783
0.5597053994
0.5597054204
0.5597054413
0.5597054623
0.5597054832
0.559705504
0.5597055248
0.5597055455
0.5597055662
0.5597055867
0.5597056072
0.5597056275
0.5597056477
0.5597056677
0.5597056876
0.5597057071
0.5597057264
0.5597057453
0.5597057638
0.5597057819
0.5597057995
0.5597058165
0.5597058328
0.5597058483
0.5597058629
0.5597058766
0.5597058892
0.5597059005
0.5597059105
0.559705919
0.5597059257
0.5597059307
0.5597059336
0.5597059347
0.5597059342
0.5597059305
0.5597059241
0.559705915
0.559705903
0.5597058881
0.5597058701
0.559705849
0.5597058245
0.5597057967
0.5597057655
0.5597057308
0.5597056926
0.5597056508
0.5597056055
0.5597055567
0.5597055046
0.5597054492
0.5597053907
0.5597053292
0.5597052649
0.559705198
0.5597051288
0.5597050575
0.5597049844
0.5597049097
0.5597048338
0.5597047569
0.5597046793
0.5597046012
0.559704523
0.5597044448
0.559704367
0.5597042897
0.5597042134
0.5597041382
0.5597040645
0.5597039924
0.5597039223
0.5597038544
0.559703789
0.5597037263
0.5597036663
0.5597036092
0.5597035548
0.5597035032
0.5597034543
0.559703408
0.5597033643
0.5597033233
0.5597032847
0.5597032484
0.5597032149
0.5597031838
0.5597031544
0.559703127
0.5597031014
0.5597030775
0.559703055
0.5597030338
0.5597030138
0.5597029948
0.5597029766
0.5597029592
0.5597029423
0.5597029258
0.5597029097
0.5597028938
0.559702878
0.5597028622
0.5597028464
0.5597028305
0.5597028145
0.5597027984
0.5597027821
0.5597027657
0.5597027491
0.5597027325
0.5597027159
0.5597026994
0.5597026831
0.559702667
0.5597026513
0.5597026362
0.5597026217
0.5597026081
0.5597025955
0.5597025841
0.559702574
0.5597025656
0.5597025591
0.5597025548
0.5597025529
0.5597025531
0.5597025552
0.5597025605
0.5597025689
0.5597025807
0.5597025959
0.5597026146
0.5597026371
0.5597026634
0.5597026936
0.559702728
0.5597027673
0.5597028118
0.5597028605
0.5597029135
0.5597029713
0.559703034
0.5597031018
0.559703175
0.5597032536
0.5597033375
0.5597034268
0.5597035215
0.5597036214
0.5597037264
0.5597038366
0.5597039518
0.5597040719
0.5597041968
0.5597043264
0.5597044606
0.5597045991
0.5597047417
0.5597048883
0.5597050386
0.5597051924
0.5597053494
0.5597055093
0.5597056719
0.5597058369
0.5597060041
0.559706173
0.5597063435
0.5597065152
0.5597066878
0.559706861
0.5597070346
0.5597072082
0.5597073816
0.5597075545
0.5597077265
0.5597078975
0.5597080672
0.5597082353
0.5597084016
0.559708566
0.5597087281
0.5597088878
0.559709045
0.5597091995
0.559709351
0.5597094996
0.559709645
0.5597097873
0.5597099262
0.5597100618
0.559710194
0.5597103227
0.559710448
0.5597105698
0.5597106881
0.559710803
0.5597109144
0.5597110225
0.5597111272
0.5597112287
0.559711327
0.5597114222
0.5597115143
0.5597116035
0.5597116898
0.5597117734
0.5597118544
0.5597119329
0.5597120089
0.5597120826
0.5597121541
0.5597122235
0.559712291
0.5597123566
0.5597124204
0.5597124825
0.5597125431
0.5597126023
0.5597126601
0.5597127167
0.559712772
0.5597128263
0.5597128796
0.559712932
0.5597129836
0.5597130344
0.5597130845
0.5597131339
0.5597131828
0.5597132311
0.559713279
0.5597133265
0.5597133736
0.5597134203
0.5597134668
0.559713513
0.559713559
0.5597136048
0.5597136505
0.559713696
0.5597137414
0.5597137866
0.5597138319
0.559713877
0.5597139222
0.5597139673
0.5597140123
0.5597140574
0.5597141025
0.5597141476
0.5597141927
0.5597142378
0.5597142829
0.559714328
0.5597143731
0.5597144181
0.5597144631
0.559714508
0.5597145528
0.5597145974
0.5597146418
0.5597146859
0.5597147295
0.5597147727
0.5597148152
0.5597148569
0.5597148977
0.5597149373
0.5597149756
0.5597150123
0.5597150471
0.5597150795
0.5597151088
0.5597151342
0.5597151547
0.5597151694
0.5597151779
0.5597151805
0.5597151795
0.5597151686
0.5597151478
0.5597151156
0.5597150708
0.5597150118
0.5597149368
0.5597148442
0.5597147319
0.5597145978
0.5597144397
0.5597142551
0.5597140416
0.5597137965
0.5597135171
0.5597132007
0.5597128446
0.5597124459
0.5597120019
0.55971151
0.5597109676
0.5597103722
0.5597097215
0.5597090133
0.5597082457
0.559707417
0.5597065258
0.559705571
0.559704552
0.5597034685
0.5597023208
0.5597011096
0.5596998361
0.5596985022
0.5596971102
0.5596956631
0.5596941642
0.5596926178
0.5596910282
0.5596894008
0.5596877411
0.559686055
0.5596843492
0.5596826305
0.5596809061
0.5596791833
0.55967747
0.559675774
0.5596741034
0.559672466
0.55967087
0.5596693231
0.5596678331
0.5596664073
0.5596650526
0.5596637753
0.559662581
0.5596614748
0.559660461
0.5596595432
0.5596587246
0.5596580081
0.5596573962
0.5596568909
0.5596564937
0.5596562043
0.5596560197
0.5596559297
0.5596559118
0.5596559698
0.559656096
0.5596563081
0.5596566241
0.5596570361
0.5596575306
0.5596580994
0.5596587354
0.5596594324
0.5596601841
0.5596609843
0.559661827
0.5596627061
0.5596636157
0.5596645503
0.5596655045
0.5596664731
0.5596674512
0.5596684343
0.5596694181
0.5596703988
0.5596713727
0.5596723365
0.5596732874
0.5596742228
0.5596751403
0.559676038
0.5596769142
0.5596777676
0.5596785971
0.5596794018
0.5596801812
0.5596809348
0.5596816625
0.5596823643
0.5596830405
0.5596836914
0.5596843174
0.5596849192
0.5596854973
0.5596860527
0.559686586
0.5596870982
0.5596875902
0.5596880629
0.5596885173
0.5596889542
0.5596893748
0.5596897797
0.5596901701
0.5596905467
0.5596909104
0.5596912619
0.5596916022
0.559691932
0.559692252
0.5596925628
0.5596928653
0.55969316
0.5596934475
0.5596937284
0.5596940031
0.5596942721
0.5596945358
0.5596947946
0.559695049
0.5596952993
0.5596955458
0.5596957888
0.5596960287
0.5596962657
0.5596965001
0.5596967321
0.5596969619
0.5596971898
0.5596974158
0.5596976403
0.5596978633
0.5596980851
0.5596983057
0.5596985253
0.5596987441
0.5596989622
0.5596991797
0.5596993967
0.5596996134
0.5596998298
0.5597000461
0.5597002622
0.5597004785
0.5597006949
0.5597009116
0.5597011286
0.559701346
0.5597015639
0.5597017825
0.5597020017
0.5597022217
0.5597024426
0.5597026645
0.5597028874
0.5597031113
0.5597033365
0.559703563
0.5597037908
0.55970402
0.5597042508
0.5597044831
0.5597047172
0.559704953
0.5597051906
0.5597054302
0.5597056717
0.5597059153
0.559706161
0.559706409
0.5597066592
0.5597069117
0.5597071665
0.5597074239
0.5597076836
0.5597079459
0.5597082107
0.5597084781
0.5597087481
0.5597090206
0.5597092957
0.5597095733
0.5597098534
0.5597101359
0.5597104208
0.5597107079
0.5597109971
0.5597112883
0.5597115813
0.559711876
0.5597121721
0.5597124693
0.5597127672
0.5597130656
0.559713364
0.559713662
0.5597139593
0.5597142553
0.5597145494
0.5597148411
0.5597151297
0.5597154145
0.5597156947
0.5597159694
0.5597162378
0.559716499
0.559716752
0.5597169959
0.5597172296
0.5597174521
0.5597176621
0.5597178585
0.5597180399
0.5597182053
0.5597183524
0.5597184783
0.559718585
0.5597186764
0.5597187476
0.5597187917
0.559718801
0.5597187943
0.559718763
0.5597187048
0.5597186174
0.5597184991
0.559718349
0.5597181662
0.5597179498
0.5597176991
0.5597174133
0.5597170916
0.5597167335
0.5597163384
0.5597159059
0.559715436
0.5597149288
0.5597143845
0.5597138037
0.559713187
0.5597125349
0.5597118484
0.5597111281
0.5597103751
0.5597095905
0.5597087756
0.5597079322
0.5597070622
0.5597061676
0.5597052506
0.5597043134
0.5597033581
0.5597023867
0.5597014012
0.5597004038
0.5596993969
0.559698383
0.5596973651
0.559696346
0.5596953286
0.5596943157
0.5596933095
0.5596923122
0.5596913256
0.5596903514
0.5596893916
0.5596884483
0.5596875237
0.5596866204
0.5596857406
0.5596848861
0.5596840583
0.5596832579
0.5596824852
0.5596817403
0.5596810235
0.5596803352
0.5596796765
0.5596790484
0.5596784523
0.5596778888
0.5596773579
0.5596768589
0.55967639
0.5596759494
0.5596755355
0.5596751471
0.5596747841
0.559674447
0.5596741365
0.5596738533
0.5596735971
0.5596733661
0.5596731567
0.5596729652
0.5596727875
0.5596726205
0.5596724642
0.5596723077
0.5596721389
0.5596719338
0.5596716411
0.559671159
0.5596702944
0.5596686917
0.5596657082
0.5596602038
0.5596501909
0.5596322679
0.5596007305
0.5595462165
0.5594537065
0.5592996812
0.5590482415
0.5586460799
0.5580163719
0.5570520044
0.5556091183
0.5535027153
0.5505069409
0.5463633878
0.5408007638
0.5335679711
0.5244795644
0.5134677709
0.5006304515
0.4862619624
0.4708565401
0.4550823865
0.4397381884
0.4257183056
0.414009699
0.405646472
0.4012413585
0.3999361958
0.3997865925
0.3997821485
0.3997821165
0.3997821232
0.3997821403
0.3997821651
0.3997822045
0.3997822494
0.3997822957
0.3997823359
0.3997823679
0.3997823958
0.3997824216
0.3997824444
0.399782464
0.3997824811
0.3997824972
0.3997825143
0.3997825332
0.3997825547
0.3997825785
0.399782604
0.3997826305
0.3997826567
0.399782682
0.3997827058
0.3997827282
0.3997827493
0.3997827699
0.3997827906
0.3997828121
0.3997828347
0.3997828585
0.3997828832
0.3997829083
0.3997829334
0.399782958
0.3997829818
0.3997830048
0.3997830271
0.3997830491
0.3997830711
0.3997830934
0.3997831162
0.3997831397
0.3997831636
0.3997831877
0.3997832118
0.3997832356
0.3997832589
0.3997832818
0.3997833042
0.3997833265
0.3997833487
0.399783371
0.3997833937
0.3997834166
0.3997834397
0.3997834629
0.3997834861
0.399783509
0.3997835318
0.3997835542
0.3997835764
0.3997835985
0.3997836205
0.3997836426
0.3997836648
0.3997836872
0.3997837097
0.3997837322
0.3997837548
0.3997837772
0.3997837995
0.3997838216
0.3997838435
0.3997838654
0.3997838872
0.3997839091
0.399783931
0.3997839529
0.3997839749
0.399783997
0.399784019
0.3997840409
0.3997840628
0.3997840846
0.3997841063
0.399784128
0.3997841496
0.3997841712
0.3997841929
0.3997842146
0.3997842363
0.399784258
0.3997842796
0.3997843013
0.3997843229
0.3997843444
0.3997843659
0.3997843874
0.3997844089
0.3997844303
0.3997844518
0.3997844732
0.3997844947
0.3997845162
0.3997845377
0.3997845592
0.3997845806
0.399784602
0.3997846234
0.3997846448
0.3997846662
0.3997846875
0.3997847089
0.3997847302
0.3997847516
0.399784773
0.3997847943
0.3997848157
0.399784837
0.3997848583
0.3997848797
0.3997849009
0.3997849222
0.3997849435
0.3997849648
0.399784986
0.3997850073
0.3997850286
0.3997850499
0.3997850712
0.3997850924
0.3997851137
0.399785135
0.3997851563
0.3997851775
0.3997851988
0.3997852201
0.3997852414
0.3997852627
0.399785284
0.3997853053
0.3997853266
0.3997853479
0.3997853692
0.3997853905
0.3997854118
0.3997854332
0.3997854545
0.3997854758
0.3997854972
0.3997855185
0.3997855399
0.3997855613
0.3997855827
0.3997856041
0.3997856255
0.3997856469
0.3997856683
0.3997856898
0.3997857112
0.3997857327
0.3997857542
0.3997857757
0.3997857973
0.3997858188
0.3997858404
0.399785862
0.3997858836
0.3997859052
0.3997859269
0.3997859486
0.3997859703
0.399785992
0.3997860138
0.3997860356
0.3997860574
0.3997860792
0.3997861011
0.399786123
0.3997861449
0.3997861668
0.3997861887
0.3997862107
0.3997862327
0.3997862547
0.3997862767
0.3997862987
0.3997863206
0.3997863426
0.3997863645
0.3997863863
0.399786408
0.3997864296
0.399786451
0.3997864722
0.3997864931
0.3997865137
0.3997865339
0.3997865536
0.3997865728
0.3997865914
0.3997866093
0.3997866264
0.3997866426
0.3997866577
0.3997866718
0.3997866846
0.3997866961
0.3997867061
0.3997867145
0.3997867211
0.3997867254
0.3997867276
0.399786728
0.3997867266
0.3997867224
0.3997867155
0.3997867059
0.3997866934
0.3997866779
0.3997866594
0.3997866377
0.3997866127
0.3997865845
0.399786553
0.3997865182
0.3997864801
0.3997864387
0.3997863941
0.3997863462
0.3997862952
0.3997862412
0.3997861843
0.3997861247
0.3997860627
0.3997859984
0.3997859321
0.399785864
0.3997857945
0.3997857239
0.3997856524
0.3997855805
0.3997855085
0.3997854368
0.3997853658
0.3997852959
0.3997852275
0.399785161
0.3997850969
0.3997850354
0.3997849771
0.3997849223
0.3997848715
0.3997848251
0.3997847833
0.3997847466
0.3997847152
0.3997846892
0.399784669
0.3997846547
0.3997846465
0.3997846446
0.3997846479
0.3997846595
0.3997846776
0.399784702
0.3997847326
0.3997847696
0.3997848128
0.3997848622
0.3997849177
0.3997849792
0.3997850465
0.3997851194
0.3997851976
0.3997852809
0.3997853688
0.3997854612
0.3997855577
0.3997856581
0.399785762
0.3997858688
0.399785978
0.3997860895
0.3997862033
0.3997863186
0.3997864352
0.3997865523
)
;

boundaryField
{
    sides
    {
        type            calculated;
        value           nonuniform List<scalar> 2(0.3997866702 -0.5597037039);
    }
    empty
    {
        type            empty;
        value           nonuniform 0();
    }
}


// ************************************************************************* //
