/*--------------------------------*- C++ -*----------------------------------*\
| =========                 |                                                 |
| \\      /  F ield         | OpenFOAM: The Open Source CFD Toolbox           |
|  \\    /   O peration     | Version:  v1812                                 |
|   \\  /    A nd           | Web:      www.OpenFOAM.com                      |
|    \\/     M anipulation  |                                                 |
\*---------------------------------------------------------------------------*/
FoamFile
{
    version     2.0;
    format      ascii;
    class       volScalarField;
    location    "2";
    object      rho;
}
// * * * * * * * * * * * * * * * * * * * * * * * * * * * * * * * * * * * * * //

dimensions      [1 -3 0 0 0 0 0];


internalField   nonuniform List<scalar> 
1000
(
1.39925926
1.399259259
1.399259258
1.399259258
1.399259257
1.399259257
1.399259256
1.399259256
1.399259255
1.399259255
1.399259254
1.399259254
1.399259253
1.399259253
1.399259252
1.399259252
1.399259251
1.399259251
1.39925925
1.39925925
1.399259249
1.399259249
1.399259249
1.399259249
1.399259248
1.399259248
1.399259248
1.399259248
1.399259247
1.399259247
1.399259247
1.399259246
1.399259246
1.399259246
1.399259245
1.399259245
1.399259245
1.399259244
1.399259244
1.399259244
1.399259244
1.399259243
1.399259243
1.399259243
1.399259243
1.399259243
1.399259243
1.399259243
1.399259243
1.399259243
1.399259243
1.399259243
1.399259242
1.399259242
1.399259241
1.39925924
1.399259238
1.399259237
1.399259235
1.399259233
1.399259231
1.39925923
1.399259229
1.399259228
1.399259228
1.399259228
1.399259227
1.399259227
1.399259227
1.399259227
1.399259227
1.399259226
1.399259226
1.399259226
1.399259225
1.399259225
1.399259225
1.399259224
1.399259224
1.399259224
1.399259223
1.399259223
1.399259223
1.399259222
1.399259222
1.399259222
1.399259221
1.399259221
1.399259221
1.39925922
1.39925922
1.39925922
1.39925922
1.399259219
1.399259219
1.399259219
1.399259219
1.39925922
1.39925922
1.39925922
1.399259221
1.399259222
1.399259223
1.399259224
1.399259226
1.399259228
1.39925923
1.399259233
1.399259236
1.399259239
1.399259243
1.399259248
1.399259253
1.399259259
1.399259265
1.399259272
1.39925928
1.399259289
1.399259299
1.399259309
1.39925932
1.399259332
1.399259345
1.399259359
1.399259373
1.399259389
1.399259405
1.399259422
1.39925944
1.399259459
1.399259478
1.399259498
1.399259519
1.39925954
1.399259562
1.399259585
1.399259607
1.399259631
1.399259654
1.399259678
1.399259701
1.399259724
1.399259747
1.399259768
1.399259789
1.399259809
1.399259828
1.399259846
1.399259862
1.399259878
1.399259892
1.399259906
1.399259919
1.399259931
1.399259942
1.399259952
1.399259961
1.399259969
1.399259976
1.399259981
1.399259985
1.399259987
1.399259989
1.399259988
1.399259987
1.399259984
1.39925998
1.399259975
1.399259969
1.399259962
1.399259953
1.399259944
1.399259934
1.399259922
1.39925991
1.399259897
1.399259883
1.399259869
1.399259854
1.399259838
1.399259822
1.399259806
1.399259788
1.399259771
1.399259753
1.399259735
1.399259717
1.399259698
1.39925968
1.399259661
1.399259642
1.399259624
1.399259605
1.399259587
1.399259569
1.399259551
1.399259533
1.399259516
1.399259499
1.399259483
1.399259467
1.399259451
1.399259437
1.399259423
1.39925941
1.399259397
1.399259385
1.399259374
1.399259364
1.399259355
1.399259347
1.39925934
1.399259334
1.399259329
1.399259325
1.399259322
1.399259321
1.399259321
1.399259322
1.399259324
1.399259327
1.399259332
1.399259338
1.399259345
1.399259354
1.399259364
1.399259375
1.399259388
1.399259402
1.399259417
1.399259433
1.399259451
1.39925947
1.39925949
1.399259511
1.399259533
1.399259556
1.39925958
1.399259606
1.399259632
1.399259659
1.399259686
1.399259715
1.399259744
1.399259773
1.399259804
1.399259834
1.399259865
1.399259896
1.399259928
1.39925996
1.399259991
1.399260023
1.399260055
1.399260086
1.399260118
1.399260149
1.39926018
1.399260211
1.399260241
1.399260271
1.3992603
1.399260329
1.399260358
1.399260385
1.399260412
1.399260439
1.399260464
1.39926049
1.399260514
1.399260537
1.39926056
1.399260582
1.399260604
1.399260624
1.399260644
1.399260663
1.399260682
1.399260699
1.399260716
1.399260732
1.399260748
1.399260763
1.399260777
1.399260791
1.399260804
1.399260816
1.399260828
1.399260839
1.39926085
1.39926086
1.39926087
1.399260879
1.399260888
1.399260897
1.399260905
1.399260913
1.399260921
1.399260928
1.399260935
1.399260942
1.399260948
1.399260955
1.399260961
1.399260967
1.399260972
1.399260978
1.399260984
1.399260989
1.399260994
1.399260999
1.399261005
1.39926101
1.399261015
1.39926102
1.399261024
1.399261029
1.399261034
1.399261039
1.399261044
1.399261049
1.399261053
1.399261058
1.399261063
1.399261068
1.399261072
1.399261077
1.399261082
1.399261087
1.399261092
1.399261097
1.399261102
1.399261107
1.399261112
1.399261117
1.399261122
1.399261127
1.399261132
1.399261138
1.399261143
1.399261149
1.399261155
1.399261161
1.399261167
1.399261173
1.399261179
1.399261186
1.399261194
1.399261201
1.399261209
1.399261218
1.399261228
1.399261238
1.399261249
1.399261262
1.399261276
1.399261292
1.399261309
1.399261328
1.399261349
1.399261373
1.3992614
1.399261431
1.399261465
1.399261503
1.399261546
1.399261595
1.399261649
1.39926171
1.399261778
1.399261854
1.399261938
1.399262031
1.399262135
1.399262249
1.399262375
1.399262513
1.399262664
1.399262829
1.399263009
1.399263203
1.399263413
1.39926364
1.399263884
1.399264144
1.399264423
1.399264719
1.399265033
1.399265366
1.399265716
1.399266083
1.399266468
1.399266869
1.399267287
1.399267719
1.399268165
1.399268624
1.399269094
1.399269574
1.399270062
1.399270556
1.399271056
1.399271558
1.399272061
1.399272562
1.399273059
1.399273551
1.399274035
1.399274509
1.39927497
1.399275416
1.399275846
1.399276257
1.399276648
1.399277017
1.399277362
1.399277682
1.399277976
1.399278243
1.399278482
1.399278693
1.399278874
1.399279026
1.399279148
1.399279241
1.399279306
1.399279348
1.399279373
1.399279375
1.399279357
1.399279311
1.399279237
1.39927914
1.399279021
1.399278882
1.399278726
1.399278554
1.399278368
1.39927817
1.399277961
1.399277743
1.399277517
1.399277286
1.39927705
1.39927681
1.39927657
1.399276328
1.399276087
1.399275848
1.399275611
1.399275378
1.399275149
1.399274925
1.399274706
1.399274493
1.399274287
1.399274088
1.399273895
1.39927371
1.399273532
1.399273361
1.399273198
1.399273043
1.399272895
1.399272754
1.39927262
1.399272493
1.399272373
1.399272259
1.399272152
1.399272051
1.399271955
1.399271866
1.399271781
1.399271701
1.399271627
1.399271556
1.399271491
1.399271429
1.399271371
1.399271316
1.399271265
1.399271218
1.399271173
1.399271131
1.399271092
1.399271055
1.399271021
1.399270988
1.399270958
1.39927093
1.399270904
1.399270879
1.399270857
1.399270835
1.399270816
1.399270797
1.39927078
1.399270765
1.39927075
1.399270737
1.399270725
1.399270714
1.399270704
1.399270695
1.399270687
1.39927068
1.399270674
1.399270669
1.399270665
1.399270662
1.399270659
1.399270658
1.399270657
1.399270657
1.399270658
1.39927066
1.399270662
1.399270665
1.399270669
1.399270674
1.399270679
1.399270686
1.399270693
1.3992707
1.399270709
1.399270718
1.399270728
1.399270739
1.399270751
1.399270763
1.399270776
1.39927079
1.399270805
1.399270821
1.399270837
1.399270854
1.399270872
1.399270891
1.39927091
1.399270931
1.399270952
1.399270974
1.399270998
1.399271021
1.399271046
1.399271072
1.399271099
1.399271126
1.399271154
1.399271184
1.399271214
1.399271245
1.399271277
1.399271309
1.399271343
1.399271377
1.399271412
1.399271448
1.399271485
1.399271523
1.399271561
1.399271599
1.399271639
1.399271679
1.399271719
1.39927176
1.399271801
1.399271842
1.399271883
1.399271924
1.399271965
1.399272006
1.399272046
1.399272086
1.399272125
1.399272163
1.3992722
1.399272236
1.39927227
1.399272302
1.399272332
1.39927236
1.399272386
1.399272408
1.399272428
1.399272444
1.399272456
1.399272465
1.399272469
1.399272468
1.399272464
1.399272455
1.39927244
1.399272417
1.399272391
1.399272359
1.399272321
1.399272277
1.399272225
1.399272166
1.3992721
1.399272026
1.399271945
1.399271855
1.399271757
1.399271651
1.399271537
1.399271415
1.399271284
1.399271145
1.399270997
1.399270842
1.399270678
1.399270506
1.399270327
1.39927014
1.399269947
1.399269746
1.399269539
1.399269326
1.399269107
1.399268883
1.399268654
1.39926842
1.399268183
1.399267942
1.399267698
1.399267453
1.399267206
1.399266957
1.399266709
1.39926646
1.399266212
1.399265965
1.399265719
1.399265476
1.399265235
1.399264999
1.399264766
1.399264537
1.399264314
1.399264095
1.399263881
1.399263673
1.399263471
1.399263274
1.399263085
1.399262902
1.399262727
1.399262559
1.399262398
1.399262244
1.399262096
1.399261956
1.399261821
1.399261694
1.399261574
1.39926146
1.399261354
1.399261255
1.399261163
1.399261076
1.399260995
1.399260919
1.399260849
1.399260782
1.399260718
1.399260656
1.399260592
1.399260525
1.39926044
1.399260308
1.399260078
1.399259651
1.399258836
1.399257271
1.399254279
1.399248624
1.399238083
1.399218747
1.399183868
1.399122045
1.399014415
1.398830461
1.39852195
1.398014525
1.397196539
1.395905089
1.393909847
1.390896419
1.386452648
1.38006331
1.371120734
1.358959799
1.342924263
1.322465844
1.297267455
1.267369691
1.233270156
1.195965365
1.156919142
1.117969304
1.081220695
1.048994124
1.023806111
1.007861254
1.001064587
0.9995864897
0.9994681104
0.9994655501
0.9994655236
0.9994655226
0.9994655433
0.999465583
0.9994656399
0.9994656989
0.9994657454
0.999465768
0.9994657722
0.9994657712
0.9994657689
0.9994657652
0.9994657605
0.9994657552
0.9994657506
0.9994657469
0.9994657439
0.9994657416
0.9994657401
0.999465739
0.9994657381
0.9994657369
0.9994657352
0.9994657332
0.9994657307
0.9994657281
0.9994657255
0.9994657229
0.9994657205
0.9994657184
0.9994657165
0.9994657147
0.999465713
0.9994657112
0.9994657092
0.9994657072
0.999465705
0.9994657028
0.9994657006
0.9994656984
0.9994656963
0.9994656944
0.9994656925
0.9994656908
0.9994656891
0.9994656873
0.9994656855
0.9994656836
0.9994656817
0.9994656797
0.9994656777
0.9994656757
0.9994656738
0.999465672
0.9994656703
0.9994656686
0.9994656669
0.9994656652
0.9994656635
0.9994656618
0.9994656601
0.9994656583
0.9994656565
0.9994656548
0.9994656531
0.9994656514
0.9994656498
0.9994656483
0.9994656468
0.9994656453
0.9994656438
0.9994656422
0.9994656407
0.9994656392
0.9994656376
0.9994656361
0.9994656346
0.9994656332
0.9994656317
0.9994656303
0.999465629
0.9994656276
0.9994656262
0.9994656249
0.9994656235
0.9994656221
0.9994656208
0.9994656195
0.9994656182
0.9994656169
0.9994656156
0.9994656143
0.9994656131
0.9994656119
0.9994656107
0.9994656094
0.9994656082
0.999465607
0.9994656058
0.9994656046
0.9994656035
0.9994656023
0.9994656012
0.9994656001
0.999465599
0.9994655979
0.9994655968
0.9994655957
0.9994655947
0.9994655936
0.9994655926
0.9994655916
0.9994655905
0.9994655895
0.9994655885
0.9994655876
0.9994655866
0.9994655857
0.9994655847
0.9994655838
0.9994655829
0.999465582
0.9994655811
0.9994655802
0.9994655793
0.9994655784
0.9994655776
0.9994655768
0.9994655759
0.9994655751
0.9994655743
0.9994655735
0.9994655728
0.999465572
0.9994655713
0.9994655705
0.9994655698
0.9994655691
0.9994655684
0.9994655677
0.999465567
0.9994655663
0.9994655657
0.999465565
0.9994655644
0.9994655638
0.9994655631
0.9994655625
0.999465562
0.9994655614
0.9994655608
0.9994655603
0.9994655598
0.9994655592
0.9994655587
0.9994655582
0.9994655577
0.9994655573
0.9994655568
0.9994655564
0.9994655559
0.9994655555
0.9994655551
0.9994655547
0.9994655543
0.999465554
0.9994655536
0.9994655533
0.999465553
0.9994655526
0.9994655523
0.9994655521
0.9994655518
0.9994655515
0.9994655513
0.999465551
0.9994655508
0.9994655506
0.9994655504
0.9994655502
0.9994655501
0.9994655499
0.9994655498
0.9994655497
0.9994655496
0.9994655495
0.9994655495
0.9994655495
0.9994655495
0.9994655496
0.9994655497
0.9994655498
0.99946555
0.9994655503
0.9994655507
0.9994655511
0.9994655517
0.9994655523
0.9994655531
0.9994655541
0.9994655552
0.9994655564
0.9994655579
0.9994655597
0.9994655616
0.9994655639
0.9994655665
0.9994655694
0.9994655727
0.9994655764
0.9994655805
0.9994655852
0.9994655904
0.9994655961
0.9994656022
0.999465609
0.9994656165
0.9994656246
0.9994656335
0.9994656432
0.9994656536
0.9994656648
0.9994656768
0.9994656897
0.9994657034
0.999465718
0.9994657334
0.9994657498
0.999465767
0.999465785
0.999465804
0.9994658237
0.9994658443
0.9994658657
0.9994658879
0.9994659107
0.9994659343
0.9994659584
0.9994659832
0.9994660084
0.9994660341
0.9994660601
0.9994660865
0.999466113
0.9994661398
0.9994661665
0.9994661933
0.99946622
0.9994662464
0.9994662726
0.9994662985
0.9994663239
0.9994663488
0.9994663731
0.9994663966
0.9994664195
0.9994664415
0.9994664626
0.9994664829
0.9994665022
0.9994665205
0.9994665379
0.9994665546
0.9994665697
0.9994665838
0.9994665968
0.9994666089
0.9994666199
0.99946663
0.9994666391
0.9994666472
0.9994666545
0.9994666608
0.9994666662
0.9994666709
0.9994666747
0.9994666778
0.9994666803
0.9994666822
0.9994666834
0.9994666841
0.9994666844
0.9994666843
0.9994666838
0.9994666829
0.9994666817
0.9994666803
0.9994666787
0.9994666756
)
;

boundaryField
{
    sides
    {
        type            calculated;
        value           nonuniform List<scalar> 2(0.9994666756 1.39925926);
    }
    empty
    {
        type            empty;
    }
}


// ************************************************************************* //
