/*--------------------------------*- C++ -*----------------------------------*\
| =========                 |                                                 |
| \\      /  F ield         | OpenFOAM: The Open Source CFD Toolbox           |
|  \\    /   O peration     | Version:  v1812                                 |
|   \\  /    A nd           | Web:      www.OpenFOAM.com                      |
|    \\/     M anipulation  |                                                 |
\*---------------------------------------------------------------------------*/
FoamFile
{
    version     2.0;
    format      ascii;
    class       volScalarField;
    location    "2";
    object      T;
}
// * * * * * * * * * * * * * * * * * * * * * * * * * * * * * * * * * * * * * //

dimensions      [0 0 0 1 0 0 0];


internalField   nonuniform List<scalar> 
1000
(
0.002492710974
0.002492710973
0.002492710973
0.002492710972
0.002492710972
0.002492710971
0.002492710971
0.00249271097
0.00249271097
0.00249271097
0.002492710969
0.002492710969
0.002492710968
0.002492710968
0.002492710968
0.002492710968
0.002492710967
0.002492710967
0.002492710967
0.002492710966
0.002492710966
0.002492710965
0.002492710964
0.002492710964
0.002492710963
0.002492710962
0.002492710961
0.002492710961
0.00249271096
0.00249271096
0.002492710959
0.002492710959
0.002492710959
0.002492710958
0.002492710958
0.002492710957
0.002492710957
0.002492710956
0.002492710956
0.002492710955
0.002492710955
0.002492710954
0.002492710954
0.002492710953
0.002492710952
0.002492710952
0.002492710951
0.00249271095
0.002492710949
0.002492710948
0.002492710947
0.002492710946
0.002492710946
0.002492710946
0.002492710947
0.002492710948
0.002492710949
0.002492710952
0.002492710954
0.002492710957
0.002492710959
0.00249271096
0.002492710961
0.002492710961
0.002492710961
0.002492710961
0.002492710961
0.00249271096
0.002492710959
0.002492710959
0.002492710959
0.002492710958
0.002492710958
0.002492710958
0.002492710958
0.002492710957
0.002492710957
0.002492710957
0.002492710957
0.002492710956
0.002492710956
0.002492710956
0.002492710955
0.002492710955
0.002492710955
0.002492710955
0.002492710954
0.002492710954
0.002492710954
0.002492710953
0.002492710953
0.002492710953
0.002492710953
0.002492710953
0.002492710952
0.002492710952
0.002492710952
0.002492710952
0.002492710952
0.002492710953
0.002492710953
0.002492710954
0.002492710954
0.002492710955
0.002492710956
0.002492710957
0.002492710959
0.002492710961
0.002492710963
0.002492710965
0.002492710968
0.002492710971
0.002492710974
0.002492710978
0.002492710983
0.002492710988
0.002492710993
0.002492710999
0.002492711006
0.002492711013
0.002492711021
0.002492711029
0.002492711038
0.002492711048
0.002492711058
0.002492711069
0.00249271108
0.002492711092
0.002492711104
0.002492711117
0.002492711131
0.002492711144
0.002492711158
0.002492711173
0.002492711187
0.002492711201
0.002492711216
0.00249271123
0.002492711244
0.002492711257
0.002492711271
0.002492711285
0.002492711299
0.002492711313
0.002492711328
0.002492711343
0.002492711358
0.002492711373
0.002492711389
0.002492711403
0.002492711417
0.00249271143
0.002492711442
0.002492711452
0.00249271146
0.002492711468
0.002492711474
0.002492711479
0.002492711483
0.002492711486
0.002492711489
0.00249271149
0.002492711491
0.002492711491
0.00249271149
0.002492711489
0.002492711486
0.002492711482
0.002492711478
0.002492711473
0.002492711467
0.00249271146
0.002492711453
0.002492711445
0.002492711436
0.002492711427
0.002492711417
0.002492711407
0.002492711396
0.002492711385
0.002492711374
0.002492711362
0.00249271135
0.002492711337
0.002492711324
0.002492711311
0.002492711298
0.002492711285
0.002492711272
0.002492711259
0.002492711245
0.002492711232
0.002492711219
0.002492711206
0.002492711193
0.00249271118
0.002492711168
0.002492711155
0.002492711143
0.002492711132
0.00249271112
0.002492711109
0.002492711099
0.002492711089
0.00249271108
0.002492711071
0.002492711062
0.002492711055
0.002492711048
0.002492711041
0.002492711035
0.002492711031
0.002492711026
0.002492711023
0.00249271102
0.002492711018
0.002492711017
0.002492711017
0.002492711018
0.00249271102
0.002492711022
0.002492711025
0.00249271103
0.002492711035
0.002492711041
0.002492711048
0.002492711056
0.002492711066
0.002492711075
0.002492711086
0.002492711098
0.002492711111
0.002492711124
0.002492711138
0.002492711154
0.002492711169
0.002492711186
0.002492711203
0.002492711222
0.00249271124
0.002492711259
0.002492711279
0.002492711299
0.00249271132
0.002492711341
0.002492711363
0.002492711385
0.002492711407
0.002492711429
0.002492711451
0.002492711474
0.002492711497
0.002492711519
0.002492711542
0.002492711564
0.002492711587
0.002492711609
0.002492711631
0.002492711653
0.002492711675
0.002492711696
0.002492711717
0.002492711737
0.002492711757
0.002492711777
0.002492711796
0.002492711815
0.002492711833
0.002492711851
0.002492711869
0.002492711885
0.002492711902
0.002492711917
0.002492711932
0.002492711947
0.002492711961
0.002492711975
0.002492711988
0.002492712
0.002492712012
0.002492712024
0.002492712035
0.002492712045
0.002492712055
0.002492712065
0.002492712074
0.002492712083
0.002492712091
0.002492712099
0.002492712107
0.002492712114
0.002492712121
0.002492712128
0.002492712134
0.002492712141
0.002492712146
0.002492712152
0.002492712157
0.002492712163
0.002492712167
0.002492712172
0.002492712177
0.002492712181
0.002492712186
0.00249271219
0.002492712194
0.002492712198
0.002492712202
0.002492712206
0.00249271221
0.002492712213
0.002492712217
0.002492712221
0.002492712224
0.002492712228
0.002492712231
0.002492712235
0.002492712238
0.002492712241
0.002492712245
0.002492712248
0.002492712252
0.002492712255
0.002492712259
0.002492712262
0.002492712265
0.002492712269
0.002492712272
0.002492712276
0.002492712279
0.002492712283
0.002492712286
0.00249271229
0.002492712293
0.002492712297
0.002492712301
0.002492712304
0.002492712308
0.002492712312
0.002492712316
0.00249271232
0.002492712324
0.002492712328
0.002492712332
0.002492712337
0.002492712342
0.002492712346
0.002492712352
0.002492712357
0.002492712363
0.002492712369
0.002492712376
0.002492712383
0.002492712391
0.0024927124
0.00249271241
0.002492712421
0.002492712434
0.002492712447
0.002492712462
0.002492712479
0.002492712498
0.002492712519
0.002492712543
0.002492712571
0.002492712601
0.002492712635
0.002492712674
0.002492712717
0.002492712765
0.002492712818
0.002492712878
0.002492712944
0.002492713017
0.002492713098
0.002492713187
0.002492713285
0.002492713392
0.002492713509
0.002492713636
0.002492713774
0.002492713923
0.002492714083
0.002492714256
0.002492714441
0.002492714638
0.002492714849
0.002492715072
0.002492715307
0.002492715556
0.002492715817
0.002492716091
0.002492716376
0.002492716672
0.00249271698
0.002492717297
0.002492717623
0.002492717958
0.002492718299
0.002492718647
0.002492718999
0.002492719355
0.002492719712
0.002492720071
0.002492720428
0.002492720783
0.002492721134
0.002492721479
0.002492721817
0.002492722147
0.002492722466
0.002492722773
0.002492723067
0.002492723347
0.00249272361
0.002492723857
0.002492724087
0.002492724298
0.002492724489
0.002492724661
0.002492724813
0.002492724944
0.002492725053
0.002492725142
0.002492725209
0.002492725257
0.002492725287
0.002492725307
0.002492725309
0.002492725298
0.002492725266
0.002492725215
0.002492725146
0.002492725063
0.002492724965
0.002492724854
0.002492724733
0.002492724601
0.00249272446
0.002492724311
0.002492724156
0.002492723996
0.002492723831
0.002492723663
0.002492723493
0.002492723321
0.002492723149
0.002492722977
0.002492722807
0.002492722638
0.002492722471
0.002492722308
0.002492722148
0.002492721992
0.00249272184
0.002492721693
0.00249272155
0.002492721413
0.00249272128
0.002492721153
0.002492721031
0.002492720915
0.002492720804
0.002492720698
0.002492720597
0.002492720501
0.002492720411
0.002492720325
0.002492720243
0.002492720167
0.002492720094
0.002492720026
0.002492719962
0.002492719901
0.002492719844
0.002492719791
0.002492719741
0.002492719694
0.002492719649
0.002492719608
0.002492719569
0.002492719532
0.002492719498
0.002492719466
0.002492719436
0.002492719408
0.002492719382
0.002492719357
0.002492719334
0.002492719313
0.002492719293
0.002492719274
0.002492719256
0.00249271924
0.002492719225
0.002492719211
0.002492719198
0.002492719186
0.002492719174
0.002492719164
0.002492719155
0.002492719146
0.002492719138
0.002492719131
0.002492719125
0.002492719119
0.002492719114
0.00249271911
0.002492719106
0.002492719103
0.002492719101
0.002492719099
0.002492719098
0.002492719097
0.002492719097
0.002492719098
0.002492719099
0.002492719101
0.002492719103
0.002492719106
0.002492719109
0.002492719113
0.002492719118
0.002492719123
0.002492719128
0.002492719134
0.002492719141
0.002492719148
0.002492719156
0.002492719164
0.002492719173
0.002492719183
0.002492719193
0.002492719203
0.002492719214
0.002492719226
0.002492719238
0.002492719251
0.002492719264
0.002492719279
0.002492719293
0.002492719308
0.002492719324
0.002492719341
0.002492719358
0.002492719375
0.002492719394
0.002492719413
0.002492719432
0.002492719452
0.002492719473
0.002492719495
0.002492719517
0.00249271954
0.002492719563
0.002492719587
0.002492719612
0.002492719637
0.002492719662
0.002492719689
0.002492719715
0.002492719743
0.00249271977
0.002492719798
0.002492719827
0.002492719855
0.002492719884
0.002492719913
0.002492719943
0.002492719972
0.002492720001
0.002492720031
0.00249272006
0.002492720088
0.002492720117
0.002492720144
0.002492720171
0.002492720198
0.002492720223
0.002492720247
0.00249272027
0.002492720291
0.002492720311
0.002492720329
0.002492720345
0.002492720359
0.00249272037
0.002492720379
0.002492720385
0.002492720387
0.002492720387
0.002492720384
0.002492720377
0.002492720365
0.002492720349
0.00249272033
0.002492720307
0.002492720279
0.002492720247
0.00249272021
0.002492720168
0.00249272012
0.002492720067
0.002492720008
0.002492719944
0.002492719874
0.002492719798
0.002492719716
0.002492719628
0.002492719534
0.002492719435
0.002492719329
0.002492719218
0.002492719101
0.002492718978
0.00249271885
0.002492718716
0.002492718577
0.002492718434
0.002492718286
0.002492718134
0.002492717978
0.002492717818
0.002492717654
0.002492717487
0.002492717318
0.002492717146
0.002492716972
0.002492716797
0.002492716621
0.002492716444
0.002492716267
0.00249271609
0.002492715913
0.002492715737
0.002492715562
0.002492715388
0.002492715217
0.002492715049
0.002492714883
0.00249271472
0.002492714561
0.002492714405
0.002492714253
0.002492714105
0.002492713961
0.002492713822
0.002492713687
0.002492713557
0.002492713433
0.002492713313
0.002492713199
0.00249271309
0.002492712986
0.002492712886
0.002492712791
0.0024927127
0.002492712615
0.002492712535
0.00249271246
0.00249271239
0.002492712324
0.002492712263
0.002492712206
0.002492712151
0.002492712097
0.002492712049
0.002492712008
0.002492711977
0.002492711961
0.002492711966
0.002492712012
0.002492712153
0.002492712476
0.002492713153
0.002492714525
0.002492717238
0.002492722497
0.00249273251
0.002492751235
0.00249278564
0.002492847743
0.002492957863
0.002493149623
0.002493477457
0.002494027477
0.002494932677
0.002496393297
0.002498702857
0.002502279478
0.002507700744
0.002515738263
0.002527385484
0.002543869332
0.002566633689
0.002597281265
0.002637460991
0.002688691628
0.002752119024
0.00282821433
0.002916432602
0.003014862758
0.003119900009
0.003225939097
0.003325044015
0.003406846505
0.003460744066
0.003484241873
0.003489394834
0.003489808074
0.003489817042
0.003489817107
0.003489817088
0.003489817004
0.003489816849
0.003489816641
0.003489816426
0.003489816258
0.003489816175
0.003489816157
0.003489816157
0.003489816158
0.003489816162
0.003489816166
0.00348981617
0.003489816172
0.003489816171
0.00348981617
0.003489816168
0.003489816165
0.003489816161
0.003489816158
0.003489816154
0.003489816151
0.003489816148
0.003489816145
0.003489816141
0.003489816138
0.003489816134
0.003489816131
0.003489816128
0.003489816126
0.003489816123
0.003489816121
0.003489816118
0.003489816115
0.003489816113
0.003489816109
0.003489816106
0.003489816103
0.003489816099
0.003489816096
0.003489816093
0.00348981609
0.003489816088
0.003489816085
0.003489816083
0.00348981608
0.003489816077
0.003489816075
0.003489816072
0.003489816069
0.003489816066
0.003489816064
0.003489816061
0.003489816059
0.003489816056
0.003489816054
0.003489816051
0.003489816049
0.003489816047
0.003489816044
0.003489816042
0.00348981604
0.003489816037
0.003489816035
0.003489816033
0.00348981603
0.003489816028
0.003489816026
0.003489816024
0.003489816022
0.00348981602
0.003489816018
0.003489816015
0.003489816013
0.003489816011
0.003489816009
0.003489816007
0.003489816005
0.003489816003
0.003489816001
0.003489815999
0.003489815997
0.003489815995
0.003489815993
0.003489815992
0.00348981599
0.003489815988
0.003489815986
0.003489815984
0.003489815982
0.003489815981
0.003489815979
0.003489815977
0.003489815975
0.003489815974
0.003489815972
0.00348981597
0.003489815969
0.003489815967
0.003489815966
0.003489815964
0.003489815962
0.003489815961
0.003489815959
0.003489815958
0.003489815956
0.003489815955
0.003489815953
0.003489815952
0.00348981595
0.003489815949
0.003489815947
0.003489815946
0.003489815945
0.003489815943
0.003489815942
0.003489815941
0.003489815939
0.003489815938
0.003489815937
0.003489815935
0.003489815934
0.003489815933
0.003489815932
0.003489815931
0.003489815929
0.003489815928
0.003489815927
0.003489815926
0.003489815925
0.003489815924
0.003489815923
0.003489815922
0.00348981592
0.003489815919
0.003489815918
0.003489815917
0.003489815916
0.003489815916
0.003489815915
0.003489815914
0.003489815913
0.003489815912
0.003489815911
0.00348981591
0.003489815909
0.003489815908
0.003489815908
0.003489815907
0.003489815906
0.003489815905
0.003489815905
0.003489815904
0.003489815903
0.003489815902
0.003489815902
0.003489815901
0.0034898159
0.0034898159
0.003489815899
0.003489815899
0.003489815898
0.003489815897
0.003489815897
0.003489815896
0.003489815896
0.003489815895
0.003489815895
0.003489815895
0.003489815894
0.003489815894
0.003489815893
0.003489815893
0.003489815893
0.003489815892
0.003489815892
0.003489815892
0.003489815891
0.003489815891
0.003489815891
0.003489815891
0.003489815891
0.00348981589
0.00348981589
0.00348981589
0.00348981589
0.00348981589
0.00348981589
0.00348981589
0.00348981589
0.003489815891
0.003489815891
0.003489815891
0.003489815892
0.003489815892
0.003489815893
0.003489815894
0.003489815895
0.003489815897
0.003489815898
0.0034898159
0.003489815902
0.003489815904
0.003489815907
0.00348981591
0.003489815914
0.003489815918
0.003489815922
0.003489815927
0.003489815933
0.003489815939
0.003489815947
0.003489815955
0.003489815963
0.003489815973
0.003489815983
0.003489815994
0.003489816007
0.00348981602
0.003489816034
0.00348981605
0.003489816067
0.003489816085
0.003489816104
0.003489816124
0.003489816145
0.003489816168
0.003489816192
0.003489816217
0.003489816244
0.003489816271
0.0034898163
0.00348981633
0.00348981636
0.003489816392
0.003489816425
0.003489816459
0.003489816493
0.003489816529
0.003489816564
0.003489816601
0.003489816638
0.003489816675
0.003489816712
0.00348981675
0.003489816787
0.003489816824
0.003489816861
0.003489816898
0.003489816934
0.00348981697
0.003489817005
0.003489817039
0.003489817072
0.003489817104
0.003489817135
0.003489817164
0.003489817193
0.00348981722
0.003489817246
0.00348981727
0.003489817294
0.003489817315
0.003489817335
0.003489817353
0.00348981737
0.003489817386
0.0034898174
0.003489817413
0.003489817424
0.003489817435
0.003489817444
0.003489817451
0.003489817458
0.003489817463
0.003489817468
0.003489817472
0.003489817474
0.003489817476
0.003489817477
0.003489817478
0.003489817478
0.003489817477
0.003489817476
0.003489817474
0.003489817472
0.003489817471
0.003489817466
)
;

boundaryField
{
    sides
    {
        type            zeroGradient;
    }
    empty
    {
        type            empty;
    }
}


// ************************************************************************* //
