/*--------------------------------*- C++ -*----------------------------------*\
| =========                 |                                                 |
| \\      /  F ield         | OpenFOAM: The Open Source CFD Toolbox           |
|  \\    /   O peration     | Version:  v1812                                 |
|   \\  /    A nd           | Web:      www.OpenFOAM.com                      |
|    \\/     M anipulation  |                                                 |
\*---------------------------------------------------------------------------*/
FoamFile
{
    version     2.0;
    format      ascii;
    class       volVectorField;
    location    "2";
    object      U;
}
// * * * * * * * * * * * * * * * * * * * * * * * * * * * * * * * * * * * * * //

dimensions      [0 1 -1 0 0 0 0];


internalField   nonuniform List<vector> 
1000
(
(0.1000000017 0 0)
(0.100000006 0 0)
(0.10000001 0 0)
(0.100000014 0 0)
(0.100000018 0 0)
(0.1000000219 0 0)
(0.1000000259 0 0)
(0.1000000299 0 0)
(0.1000000339 0 0)
(0.1000000379 0 0)
(0.1000000419 0 0)
(0.1000000459 0 0)
(0.1000000498 0 0)
(0.1000000538 0 0)
(0.1000000578 0 0)
(0.1000000618 0 0)
(0.1000000658 0 0)
(0.1000000697 0 0)
(0.1000000737 0 0)
(0.1000000777 0 0)
(0.1000000816 0 0)
(0.1000000856 0 0)
(0.1000000896 0 0)
(0.1000000935 0 0)
(0.1000000975 0 0)
(0.1000001015 0 0)
(0.1000001054 0 0)
(0.1000001094 0 0)
(0.1000001133 0 0)
(0.1000001173 0 0)
(0.1000001213 0 0)
(0.1000001252 0 0)
(0.1000001291 0 0)
(0.1000001331 0 0)
(0.100000137 0 0)
(0.100000141 0 0)
(0.1000001449 0 0)
(0.1000001489 0 0)
(0.1000001528 0 0)
(0.1000001567 0 0)
(0.1000001607 0 0)
(0.1000001646 0 0)
(0.1000001685 0 0)
(0.1000001724 0 0)
(0.1000001763 0 0)
(0.1000001803 0 0)
(0.1000001842 0 0)
(0.1000001881 0 0)
(0.100000192 0 0)
(0.1000001959 0 0)
(0.1000001998 0 0)
(0.1000002037 0 0)
(0.1000002076 0 0)
(0.1000002115 0 0)
(0.1000002153 0 0)
(0.1000002192 0 0)
(0.1000002231 0 0)
(0.100000227 0 0)
(0.1000002309 0 0)
(0.1000002347 0 0)
(0.1000002386 0 0)
(0.1000002424 0 0)
(0.1000002463 0 0)
(0.1000002502 0 0)
(0.100000254 0 0)
(0.1000002578 0 0)
(0.1000002617 0 0)
(0.1000002655 0 0)
(0.1000002693 0 0)
(0.1000002732 0 0)
(0.100000277 0 0)
(0.1000002808 0 0)
(0.1000002846 0 0)
(0.1000002884 0 0)
(0.1000002922 0 0)
(0.100000296 0 0)
(0.1000002998 0 0)
(0.1000003036 0 0)
(0.1000003074 0 0)
(0.1000003111 0 0)
(0.1000003149 0 0)
(0.1000003187 0 0)
(0.1000003224 0 0)
(0.1000003262 0 0)
(0.1000003299 0 0)
(0.1000003336 0 0)
(0.1000003373 0 0)
(0.100000341 0 0)
(0.1000003447 0 0)
(0.1000003483 0 0)
(0.1000003519 0 0)
(0.1000003555 0 0)
(0.100000359 0 0)
(0.1000003625 0 0)
(0.1000003659 0 0)
(0.1000003693 0 0)
(0.1000003725 0 0)
(0.1000003757 0 0)
(0.1000003788 0 0)
(0.1000003817 0 0)
(0.1000003845 0 0)
(0.1000003871 0 0)
(0.1000003896 0 0)
(0.1000003919 0 0)
(0.1000003939 0 0)
(0.1000003956 0 0)
(0.1000003971 0 0)
(0.1000003983 0 0)
(0.1000003991 0 0)
(0.1000003996 0 0)
(0.1000003997 0 0)
(0.1000003994 0 0)
(0.1000003987 0 0)
(0.1000003973 0 0)
(0.1000003955 0 0)
(0.1000003931 0 0)
(0.1000003901 0 0)
(0.1000003866 0 0)
(0.1000003824 0 0)
(0.1000003776 0 0)
(0.1000003721 0 0)
(0.100000366 0 0)
(0.1000003592 0 0)
(0.1000003517 0 0)
(0.1000003435 0 0)
(0.1000003346 0 0)
(0.100000325 0 0)
(0.1000003148 0 0)
(0.1000003039 0 0)
(0.1000002924 0 0)
(0.1000002803 0 0)
(0.1000002676 0 0)
(0.1000002544 0 0)
(0.1000002407 0 0)
(0.1000002266 0 0)
(0.1000002121 0 0)
(0.1000001973 0 0)
(0.1000001822 0 0)
(0.1000001668 0 0)
(0.1000001513 0 0)
(0.1000001358 0 0)
(0.1000001202 0 0)
(0.1000001046 0 0)
(0.1000000891 0 0)
(0.1000000737 0 0)
(0.1000000586 0 0)
(0.1000000437 0 0)
(0.1000000291 0 0)
(0.1000000149 0 0)
(0.1000000011 0 0)
(0.09999998777 0 0)
(0.09999997489 0 0)
(0.09999996252 0 0)
(0.0999999507 0 0)
(0.09999993944 0 0)
(0.09999992875 0 0)
(0.09999991864 0 0)
(0.0999999091 0 0)
(0.09999990013 0 0)
(0.09999989173 0 0)
(0.09999988389 0 0)
(0.09999987663 0 0)
(0.09999986992 0 0)
(0.09999986339 0 0)
(0.09999985778 0 0)
(0.09999985263 0 0)
(0.09999984785 0 0)
(0.09999984349 0 0)
(0.09999983952 0 0)
(0.0999998359 0 0)
(0.0999998326 0 0)
(0.09999982959 0 0)
(0.09999982684 0 0)
(0.09999982433 0 0)
(0.09999982201 0 0)
(0.09999981987 0 0)
(0.09999981787 0 0)
(0.09999981599 0 0)
(0.0999998142 0 0)
(0.09999981249 0 0)
(0.09999981083 0 0)
(0.0999998092 0 0)
(0.09999980759 0 0)
(0.09999980599 0 0)
(0.09999980439 0 0)
(0.09999980279 0 0)
(0.09999980117 0 0)
(0.09999979955 0 0)
(0.09999979792 0 0)
(0.09999979629 0 0)
(0.09999979466 0 0)
(0.09999979306 0 0)
(0.09999979149 0 0)
(0.09999978996 0 0)
(0.09999978851 0 0)
(0.09999978715 0 0)
(0.0999997859 0 0)
(0.09999978479 0 0)
(0.09999978385 0 0)
(0.0999997831 0 0)
(0.09999978258 0 0)
(0.09999978235 0 0)
(0.09999978243 0 0)
(0.09999978287 0 0)
(0.09999978364 0 0)
(0.09999978475 0 0)
(0.09999978627 0 0)
(0.09999978828 0 0)
(0.0999997908 0 0)
(0.09999979385 0 0)
(0.09999979745 0 0)
(0.09999980163 0 0)
(0.09999980641 0 0)
(0.09999981181 0 0)
(0.09999981784 0 0)
(0.09999982455 0 0)
(0.09999983214 0 0)
(0.09999984072 0 0)
(0.09999984966 0 0)
(0.09999985941 0 0)
(0.09999986991 0 0)
(0.09999988124 0 0)
(0.09999989341 0 0)
(0.09999990644 0 0)
(0.09999992034 0 0)
(0.0999999351 0 0)
(0.09999995073 0 0)
(0.0999999672 0 0)
(0.09999998452 0 0)
(0.1000000027 0 0)
(0.1000000216 0 0)
(0.1000000414 0 0)
(0.1000000619 0 0)
(0.1000000832 0 0)
(0.1000001053 0 0)
(0.1000001281 0 0)
(0.1000001515 0 0)
(0.1000001756 0 0)
(0.1000002003 0 0)
(0.1000002256 0 0)
(0.1000002515 0 0)
(0.1000002778 0 0)
(0.1000003046 0 0)
(0.1000003318 0 0)
(0.1000003593 0 0)
(0.1000003872 0 0)
(0.1000004153 0 0)
(0.1000004437 0 0)
(0.1000004722 0 0)
(0.1000005009 0 0)
(0.1000005296 0 0)
(0.1000005583 0 0)
(0.100000587 0 0)
(0.1000006157 0 0)
(0.1000006443 0 0)
(0.1000006727 0 0)
(0.1000007008 0 0)
(0.1000007288 0 0)
(0.1000007565 0 0)
(0.1000007839 0 0)
(0.1000008109 0 0)
(0.1000008376 0 0)
(0.1000008638 0 0)
(0.1000008896 0 0)
(0.100000915 0 0)
(0.1000009399 0 0)
(0.1000009642 0 0)
(0.1000009881 0 0)
(0.1000010114 0 0)
(0.1000010342 0 0)
(0.1000010564 0 0)
(0.1000010781 0 0)
(0.1000010992 0 0)
(0.1000011198 0 0)
(0.1000011397 0 0)
(0.1000011592 0 0)
(0.100001178 0 0)
(0.1000011963 0 0)
(0.1000012141 0 0)
(0.1000012313 0 0)
(0.100001248 0 0)
(0.1000012641 0 0)
(0.1000012798 0 0)
(0.100001295 0 0)
(0.1000013097 0 0)
(0.100001324 0 0)
(0.1000013378 0 0)
(0.1000013512 0 0)
(0.1000013642 0 0)
(0.1000013768 0 0)
(0.100001389 0 0)
(0.1000014009 0 0)
(0.1000014124 0 0)
(0.1000014237 0 0)
(0.1000014346 0 0)
(0.1000014453 0 0)
(0.1000014557 0 0)
(0.1000014659 0 0)
(0.1000014758 0 0)
(0.1000014855 0 0)
(0.100001495 0 0)
(0.1000015043 0 0)
(0.1000015135 0 0)
(0.1000015225 0 0)
(0.1000015314 0 0)
(0.1000015401 0 0)
(0.1000015487 0 0)
(0.1000015572 0 0)
(0.1000015656 0 0)
(0.1000015739 0 0)
(0.1000015821 0 0)
(0.1000015903 0 0)
(0.1000015984 0 0)
(0.1000016064 0 0)
(0.1000016144 0 0)
(0.1000016223 0 0)
(0.1000016302 0 0)
(0.1000016381 0 0)
(0.1000016459 0 0)
(0.1000016537 0 0)
(0.1000016615 0 0)
(0.1000016692 0 0)
(0.100001677 0 0)
(0.1000016847 0 0)
(0.1000016924 0 0)
(0.1000017001 0 0)
(0.1000017078 0 0)
(0.1000017156 0 0)
(0.1000017233 0 0)
(0.100001731 0 0)
(0.1000017387 0 0)
(0.1000017464 0 0)
(0.1000017541 0 0)
(0.1000017618 0 0)
(0.1000017695 0 0)
(0.1000017771 0 0)
(0.1000017848 0 0)
(0.1000017925 0 0)
(0.1000018001 0 0)
(0.1000018077 0 0)
(0.1000018153 0 0)
(0.1000018227 0 0)
(0.1000018302 0 0)
(0.1000018375 0 0)
(0.1000018447 0 0)
(0.1000018517 0 0)
(0.1000018586 0 0)
(0.1000018653 0 0)
(0.1000018717 0 0)
(0.1000018778 0 0)
(0.1000018836 0 0)
(0.1000018889 0 0)
(0.1000018937 0 0)
(0.1000018977 0 0)
(0.100001901 0 0)
(0.1000019031 0 0)
(0.1000019041 0 0)
(0.1000019038 0 0)
(0.1000019026 0 0)
(0.1000018999 0 0)
(0.1000018954 0 0)
(0.1000018888 0 0)
(0.1000018797 0 0)
(0.100001868 0 0)
(0.1000018533 0 0)
(0.1000018352 0 0)
(0.1000018135 0 0)
(0.1000017876 0 0)
(0.1000017571 0 0)
(0.1000017217 0 0)
(0.1000016807 0 0)
(0.1000016337 0 0)
(0.1000015802 0 0)
(0.1000015196 0 0)
(0.1000014513 0 0)
(0.1000013749 0 0)
(0.1000012898 0 0)
(0.1000011954 0 0)
(0.1000010912 0 0)
(0.1000009767 0 0)
(0.1000008515 0 0)
(0.1000007151 0 0)
(0.1000005671 0 0)
(0.1000004071 0 0)
(0.1000002348 0 0)
(0.10000005 0 0)
(0.09999985248 0 0)
(0.09999964221 0 0)
(0.09999941915 0 0)
(0.09999918341 0 0)
(0.09999893518 0 0)
(0.09999867476 0 0)
(0.09999840257 0 0)
(0.09999811913 0 0)
(0.09999782508 0 0)
(0.09999752117 0 0)
(0.09999720825 0 0)
(0.09999688728 0 0)
(0.09999655933 0 0)
(0.09999622556 0 0)
(0.09999588722 0 0)
(0.09999554562 0 0)
(0.09999520216 0 0)
(0.09999485829 0 0)
(0.09999451553 0 0)
(0.09999417541 0 0)
(0.09999383952 0 0)
(0.09999350943 0 0)
(0.09999318675 0 0)
(0.09999287304 0 0)
(0.09999256985 0 0)
(0.09999227867 0 0)
(0.0999920009 0 0)
(0.09999173786 0 0)
(0.09999149074 0 0)
(0.0999912606 0 0)
(0.09999104836 0 0)
(0.09999085482 0 0)
(0.09999068067 0 0)
(0.09999052649 0 0)
(0.09999039282 0 0)
(0.09999028012 0 0)
(0.09999018872 0 0)
(0.09999011872 0 0)
(0.0999900697 0 0)
(0.09999004041 0 0)
(0.09999002765 0 0)
(0.0999900305 0 0)
(0.09999004461 0 0)
(0.09999007506 0 0)
(0.09999012607 0 0)
(0.09999019697 0 0)
(0.09999028514 0 0)
(0.09999038876 0 0)
(0.09999050634 0 0)
(0.09999063662 0 0)
(0.09999077834 0 0)
(0.09999093029 0 0)
(0.09999109125 0 0)
(0.09999126001 0 0)
(0.09999143541 0 0)
(0.0999916163 0 0)
(0.09999180158 0 0)
(0.09999199022 0 0)
(0.09999218122 0 0)
(0.09999237364 0 0)
(0.09999256661 0 0)
(0.09999275932 0 0)
(0.09999295103 0 0)
(0.09999314105 0 0)
(0.09999332878 0 0)
(0.09999351365 0 0)
(0.0999936952 0 0)
(0.09999387298 0 0)
(0.09999404666 0 0)
(0.09999421591 0 0)
(0.09999438051 0 0)
(0.09999454025 0 0)
(0.099994695 0 0)
(0.09999484466 0 0)
(0.09999498917 0 0)
(0.09999512853 0 0)
(0.09999526275 0 0)
(0.09999539189 0 0)
(0.09999551603 0 0)
(0.09999563527 0 0)
(0.09999574975 0 0)
(0.09999585959 0 0)
(0.09999596497 0 0)
(0.09999606604 0 0)
(0.09999616298 0 0)
(0.09999625598 0 0)
(0.09999634522 0 0)
(0.09999643088 0 0)
(0.09999651317 0 0)
(0.09999659225 0 0)
(0.09999666832 0 0)
(0.09999674154 0 0)
(0.09999681209 0 0)
(0.09999688013 0 0)
(0.09999694583 0 0)
(0.09999700933 0 0)
(0.09999707078 0 0)
(0.09999713034 0 0)
(0.09999718812 0 0)
(0.09999724427 0 0)
(0.09999729891 0 0)
(0.09999735214 0 0)
(0.09999740407 0 0)
(0.09999745479 0 0)
(0.09999750439 0 0)
(0.09999755295 0 0)
(0.09999760054 0 0)
(0.09999764725 0 0)
(0.09999769315 0 0)
(0.09999773829 0 0)
(0.09999778274 0 0)
(0.09999782655 0 0)
(0.09999786978 0 0)
(0.09999791247 0 0)
(0.09999795467 0 0)
(0.09999799642 0 0)
(0.09999803775 0 0)
(0.09999807871 0 0)
(0.09999811932 0 0)
(0.09999815961 0 0)
(0.09999819963 0 0)
(0.09999823938 0 0)
(0.09999827891 0 0)
(0.09999831823 0 0)
(0.09999835737 0 0)
(0.09999839635 0 0)
(0.09999843521 0 0)
(0.09999847385 0 0)
(0.09999851279 0 0)
(0.09999855123 0 0)
(0.09999858976 0 0)
(0.09999862822 0 0)
(0.09999866668 0 0)
(0.09999870513 0 0)
(0.09999874359 0 0)
(0.09999878209 0 0)
(0.09999882064 0 0)
(0.09999885924 0 0)
(0.09999889793 0 0)
(0.09999893671 0 0)
(0.09999897559 0 0)
(0.0999990146 0 0)
(0.09999905374 0 0)
(0.09999909303 0 0)
(0.09999913249 0 0)
(0.09999917213 0 0)
(0.09999921196 0 0)
(0.099999252 0 0)
(0.09999929226 0 0)
(0.09999933276 0 0)
(0.09999937351 0 0)
(0.09999941452 0 0)
(0.0999994558 0 0)
(0.09999949737 0 0)
(0.09999953925 0 0)
(0.09999958144 0 0)
(0.09999962395 0 0)
(0.0999996668 0 0)
(0.09999971 0 0)
(0.09999975355 0 0)
(0.09999979747 0 0)
(0.09999984176 0 0)
(0.09999988644 0 0)
(0.09999993149 0 0)
(0.09999997695 0 0)
(0.1000000228 0 0)
(0.100000069 0 0)
(0.1000001157 0 0)
(0.1000001627 0 0)
(0.1000002102 0 0)
(0.100000258 0 0)
(0.1000003061 0 0)
(0.1000003547 0 0)
(0.1000004035 0 0)
(0.1000004527 0 0)
(0.1000005022 0 0)
(0.1000005519 0 0)
(0.1000006018 0 0)
(0.100000652 0 0)
(0.1000007023 0 0)
(0.1000007526 0 0)
(0.100000803 0 0)
(0.1000008534 0 0)
(0.1000009036 0 0)
(0.1000009537 0 0)
(0.1000010034 0 0)
(0.1000010529 0 0)
(0.1000011018 0 0)
(0.1000011502 0 0)
(0.1000011979 0 0)
(0.1000012447 0 0)
(0.1000012906 0 0)
(0.1000013354 0 0)
(0.1000013789 0 0)
(0.100001421 0 0)
(0.1000014615 0 0)
(0.1000015003 0 0)
(0.1000015371 0 0)
(0.1000015718 0 0)
(0.1000016042 0 0)
(0.100001634 0 0)
(0.1000016611 0 0)
(0.1000016851 0 0)
(0.1000017055 0 0)
(0.1000017225 0 0)
(0.1000017374 0 0)
(0.1000017484 0 0)
(0.1000017545 0 0)
(0.1000017566 0 0)
(0.1000017547 0 0)
(0.1000017491 0 0)
(0.1000017388 0 0)
(0.1000017236 0 0)
(0.1000017033 0 0)
(0.1000016778 0 0)
(0.1000016468 0 0)
(0.1000016104 0 0)
(0.1000015683 0 0)
(0.1000015204 0 0)
(0.1000014667 0 0)
(0.100001407 0 0)
(0.1000013412 0 0)
(0.1000012694 0 0)
(0.1000011914 0 0)
(0.1000011075 0 0)
(0.1000010175 0 0)
(0.1000009216 0 0)
(0.10000082 0 0)
(0.1000007126 0 0)
(0.1000005998 0 0)
(0.1000004815 0 0)
(0.100000358 0 0)
(0.1000002295 0 0)
(0.1000000961 0 0)
(0.09999995828 0 0)
(0.09999981628 0 0)
(0.09999967047 0 0)
(0.09999952121 0 0)
(0.09999936884 0 0)
(0.09999921369 0 0)
(0.09999905609 0 0)
(0.09999889637 0 0)
(0.09999873487 0 0)
(0.09999857202 0 0)
(0.09999840825 0 0)
(0.09999824404 0 0)
(0.09999807989 0 0)
(0.09999791625 0 0)
(0.09999775354 0 0)
(0.09999759211 0 0)
(0.09999743227 0 0)
(0.09999727429 0 0)
(0.09999711845 0 0)
(0.09999696509 0 0)
(0.09999681455 0 0)
(0.09999666725 0 0)
(0.09999652358 0 0)
(0.09999638391 0 0)
(0.09999624849 0 0)
(0.0999961175 0 0)
(0.099995991 0 0)
(0.09999586899 0 0)
(0.09999575148 0 0)
(0.09999563851 0 0)
(0.09999553019 0 0)
(0.09999542674 0 0)
(0.09999532838 0 0)
(0.09999523531 0 0)
(0.09999514759 0 0)
(0.09999506516 0 0)
(0.0999949878 0 0)
(0.09999491518 0 0)
(0.09999484696 0 0)
(0.09999478289 0 0)
(0.09999472286 0 0)
(0.09999466692 0 0)
(0.09999461525 0 0)
(0.09999456799 0 0)
(0.0999945252 0 0)
(0.0999944867 0 0)
(0.09999445212 0 0)
(0.09999442089 0 0)
(0.09999439242 0 0)
(0.09999436623 0 0)
(0.09999434209 0 0)
(0.09999432007 0 0)
(0.09999430043 0 0)
(0.09999428353 0 0)
(0.09999426962 0 0)
(0.09999425861 0 0)
(0.09999425006 0 0)
(0.09999424322 0 0)
(0.09999423727 0 0)
(0.09999423157 0 0)
(0.09999422591 0 0)
(0.09999422054 0 0)
(0.09999421598 0 0)
(0.09999421294 0 0)
(0.0999942121 0 0)
(0.09999421385 0 0)
(0.09999421861 0 0)
(0.09999422736 0 0)
(0.09999424341 0 0)
(0.0999942759 0 0)
(0.09999434441 0 0)
(0.09999448738 0 0)
(0.09999477521 0 0)
(0.09999531769 0 0)
(0.09999628261 0 0)
(0.09999788349 0 0)
(0.1000003492 0 0)
(0.1000038495 0 0)
(0.1000083821 0 0)
(0.100013649 0 0)
(0.1000189693 0 0)
(0.1000233355 0 0)
(0.1000255236 0 0)
(0.1000244942 0 0)
(0.100019777 0 0)
(0.1000118581 0 0)
(0.1000040116 0 0)
(0.09999973767 0 0)
(0.09999898761 0 0)
(0.09999896628 0 0)
(0.09999897057 0 0)
(0.09999897758 0 0)
(0.09999898121 0 0)
(0.09999898265 0 0)
(0.09999898783 0 0)
(0.09999899221 0 0)
(0.099998998 0 0)
(0.09999900416 0 0)
(0.09999901083 0 0)
(0.0999990177 0 0)
(0.09999902452 0 0)
(0.09999903084 0 0)
(0.09999903649 0 0)
(0.09999904153 0 0)
(0.0999990462 0 0)
(0.09999905082 0 0)
(0.09999905572 0 0)
(0.09999906109 0 0)
(0.09999906698 0 0)
(0.09999907333 0 0)
(0.09999907995 0 0)
(0.09999908663 0 0)
(0.09999909318 0 0)
(0.09999909948 0 0)
(0.09999910545 0 0)
(0.09999911112 0 0)
(0.0999991166 0 0)
(0.09999912203 0 0)
(0.09999912757 0 0)
(0.09999913333 0 0)
(0.09999913936 0 0)
(0.09999914562 0 0)
(0.09999915203 0 0)
(0.09999915849 0 0)
(0.09999916487 0 0)
(0.09999917111 0 0)
(0.09999917716 0 0)
(0.09999918304 0 0)
(0.0999991888 0 0)
(0.09999919452 0 0)
(0.09999920028 0 0)
(0.09999920614 0 0)
(0.09999921213 0 0)
(0.09999921824 0 0)
(0.09999922443 0 0)
(0.09999923063 0 0)
(0.09999923679 0 0)
(0.09999924286 0 0)
(0.09999924882 0 0)
(0.09999925469 0 0)
(0.09999926047 0 0)
(0.09999926623 0 0)
(0.099999272 0 0)
(0.09999927782 0 0)
(0.0999992837 0 0)
(0.09999928963 0 0)
(0.09999929559 0 0)
(0.09999930156 0 0)
(0.0999993075 0 0)
(0.09999931338 0 0)
(0.0999993192 0 0)
(0.09999932496 0 0)
(0.09999933067 0 0)
(0.09999933636 0 0)
(0.09999934205 0 0)
(0.09999934776 0 0)
(0.09999935351 0 0)
(0.09999935928 0 0)
(0.09999936507 0 0)
(0.09999937086 0 0)
(0.09999937663 0 0)
(0.09999938238 0 0)
(0.09999938808 0 0)
(0.09999939374 0 0)
(0.09999939938 0 0)
(0.099999405 0 0)
(0.09999941061 0 0)
(0.09999941623 0 0)
(0.09999942186 0 0)
(0.0999994275 0 0)
(0.09999943315 0 0)
(0.0999994388 0 0)
(0.09999944444 0 0)
(0.09999945006 0 0)
(0.09999945565 0 0)
(0.09999946123 0 0)
(0.09999946679 0 0)
(0.09999947234 0 0)
(0.09999947788 0 0)
(0.09999948342 0 0)
(0.09999948897 0 0)
(0.09999949452 0 0)
(0.09999950008 0 0)
(0.09999950563 0 0)
(0.09999951117 0 0)
(0.0999995167 0 0)
(0.09999952222 0 0)
(0.09999952772 0 0)
(0.09999953322 0 0)
(0.09999953871 0 0)
(0.09999954419 0 0)
(0.09999954967 0 0)
(0.09999955516 0 0)
(0.09999956065 0 0)
(0.09999956613 0 0)
(0.09999957162 0 0)
(0.0999995771 0 0)
(0.09999958257 0 0)
(0.09999958804 0 0)
(0.0999995935 0 0)
(0.09999959895 0 0)
(0.0999996044 0 0)
(0.09999960984 0 0)
(0.09999961529 0 0)
(0.09999962073 0 0)
(0.09999962618 0 0)
(0.09999963162 0 0)
(0.09999963706 0 0)
(0.0999996425 0 0)
(0.09999964793 0 0)
(0.09999965336 0 0)
(0.09999965878 0 0)
(0.0999996642 0 0)
(0.09999966961 0 0)
(0.09999967502 0 0)
(0.09999968043 0 0)
(0.09999968584 0 0)
(0.09999969125 0 0)
(0.09999969665 0 0)
(0.09999970206 0 0)
(0.09999970746 0 0)
(0.09999971287 0 0)
(0.09999971827 0 0)
(0.09999972366 0 0)
(0.09999972906 0 0)
(0.09999973446 0 0)
(0.09999973985 0 0)
(0.09999974525 0 0)
(0.09999975065 0 0)
(0.09999975605 0 0)
(0.09999976144 0 0)
(0.09999976684 0 0)
(0.09999977224 0 0)
(0.09999977763 0 0)
(0.09999978303 0 0)
(0.09999978842 0 0)
(0.09999979381 0 0)
(0.0999997992 0 0)
(0.0999998046 0 0)
(0.09999980999 0 0)
(0.09999981539 0 0)
(0.09999982078 0 0)
(0.09999982618 0 0)
(0.09999983158 0 0)
(0.09999983698 0 0)
(0.09999984238 0 0)
(0.09999984779 0 0)
(0.09999985319 0 0)
(0.0999998586 0 0)
(0.09999986401 0 0)
(0.09999986942 0 0)
(0.09999987483 0 0)
(0.09999988025 0 0)
(0.09999988567 0 0)
(0.09999989109 0 0)
(0.09999989652 0 0)
(0.09999990195 0 0)
(0.09999990739 0 0)
(0.09999991282 0 0)
(0.09999991827 0 0)
(0.09999992372 0 0)
(0.09999992917 0 0)
(0.09999993462 0 0)
(0.09999994009 0 0)
(0.09999994555 0 0)
(0.09999995102 0 0)
(0.0999999565 0 0)
(0.09999996198 0 0)
(0.09999996746 0 0)
(0.09999997295 0 0)
(0.09999997844 0 0)
(0.09999998394 0 0)
(0.09999998944 0 0)
(0.09999999494 0 0)
(0.1000000005 0 0)
(0.100000006 0 0)
(0.1000000115 0 0)
(0.100000017 0 0)
(0.1000000225 0 0)
(0.100000028 0 0)
(0.1000000334 0 0)
(0.1000000389 0 0)
(0.1000000443 0 0)
(0.1000000497 0 0)
(0.1000000551 0 0)
(0.1000000604 0 0)
(0.1000000656 0 0)
(0.1000000707 0 0)
(0.1000000758 0 0)
(0.1000000807 0 0)
(0.1000000855 0 0)
(0.1000000901 0 0)
(0.1000000945 0 0)
(0.1000000987 0 0)
(0.1000001027 0 0)
(0.1000001064 0 0)
(0.1000001099 0 0)
(0.100000113 0 0)
(0.1000001157 0 0)
(0.1000001181 0 0)
(0.10000012 0 0)
(0.1000001215 0 0)
(0.1000001224 0 0)
(0.1000001227 0 0)
(0.1000001224 0 0)
(0.1000001217 0 0)
(0.1000001203 0 0)
(0.1000001181 0 0)
(0.1000001153 0 0)
(0.1000001116 0 0)
(0.1000001072 0 0)
(0.1000001019 0 0)
(0.1000000957 0 0)
(0.1000000887 0 0)
(0.1000000807 0 0)
(0.1000000719 0 0)
(0.1000000622 0 0)
(0.1000000515 0 0)
(0.1000000399 0 0)
(0.1000000274 0 0)
(0.100000014 0 0)
(0.09999999978 0 0)
(0.09999998467 0 0)
(0.09999996874 0 0)
(0.09999995204 0 0)
(0.09999993462 0 0)
(0.09999991653 0 0)
(0.09999989784 0 0)
(0.09999987862 0 0)
(0.09999985894 0 0)
(0.09999983888 0 0)
(0.09999981854 0 0)
(0.099999798 0 0)
(0.09999977736 0 0)
(0.09999975673 0 0)
(0.09999973621 0 0)
(0.09999971592 0 0)
(0.09999969594 0 0)
(0.09999967641 0 0)
(0.09999965743 0 0)
(0.09999963909 0 0)
(0.09999962153 0 0)
(0.09999960484 0 0)
(0.09999958914 0 0)
(0.09999957455 0 0)
(0.09999956116 0 0)
(0.09999954907 0 0)
(0.09999953834 0 0)
(0.09999952905 0 0)
(0.09999952125 0 0)
(0.099999515 0 0)
(0.09999951034 0 0)
(0.09999950729 0 0)
(0.0999995057 0 0)
(0.09999950626 0 0)
(0.09999950853 0 0)
(0.09999951254 0 0)
(0.09999951819 0 0)
(0.09999952554 0 0)
(0.09999953457 0 0)
(0.09999954524 0 0)
(0.09999955755 0 0)
(0.09999957145 0 0)
(0.09999958693 0 0)
(0.09999960392 0 0)
(0.09999962235 0 0)
(0.09999964216 0 0)
(0.09999966327 0 0)
(0.09999968558 0 0)
(0.09999970903 0 0)
(0.09999973353 0 0)
(0.09999975901 0 0)
(0.09999978532 0 0)
(0.09999981227 0 0)
(0.09999983993 0 0)
(0.0999998682 0 0)
(0.09999989699 0 0)
(0.09999992609 0 0)
(0.09999995552 0 0)
(0.09999998327 0 0)
)
;

boundaryField
{
    sides
    {
        type            fixedValue;
        value           uniform (0.1 0 0);
    }
    empty
    {
        type            empty;
    }
}


// ************************************************************************* //
