/*--------------------------------*- C++ -*----------------------------------*\
| =========                 |                                                 |
| \\      /  F ield         | OpenFOAM: The Open Source CFD Toolbox           |
|  \\    /   O peration     | Version:  v1812                                 |
|   \\  /    A nd           | Web:      www.OpenFOAM.com                      |
|    \\/     M anipulation  |                                                 |
\*---------------------------------------------------------------------------*/
FoamFile
{
    version     2.0;
    format      ascii;
    class       volScalarField;
    location    "0.1";
    object      p;
}
// * * * * * * * * * * * * * * * * * * * * * * * * * * * * * * * * * * * * * //

dimensions      [1 -1 -2 0 0 0 0];


internalField   nonuniform List<scalar> 
20400
(
108458
108451
108461
108453
108446
108445
108435
108427
108418
108407
108400
108395
108386
108381
108379
108379
108389
108405
108411
108396
108465
108515
108577
108615
108658
108707
108783
108860
108883
108915
108942
108968
108993
109013
109024
109033
109042
109047
109052
109055
109056
109057
109057
109056
109054
109053
109052
109050
109048
109045
109043
109040
109037
109035
109033
109030
109028
109025
109022
109020
109017
109015
109012
109010
109007
109005
109002
109000
108997
108995
108993
108990
108988
108985
108983
108980
108978
108976
108973
108971
108969
108966
108964
108962
108960
108958
108957
108955
108953
108952
108950
108949
108947
108946
108945
108944
108943
108942
108941
108940
108940
108939
108939
108938
108938
108938
108937
108937
108937
108937
108936
108936
108936
108936
108935
108935
108935
108934
108933
108933
108932
108931
108929
108928
108926
108924
108922
108919
108917
108914
108911
108908
108905
108901
108897
108893
108889
108885
108880
108875
108871
108866
108860
108855
108850
108844
108838
108832
108826
108820
108814
108808
108801
108795
108788
108782
108775
108769
108762
108755
108749
108742
108736
108730
108723
108717
108711
108705
108699
108694
108688
108682
108677
108672
108666
108661
108656
108651
108647
108642
108637
108633
108629
108624
108620
108616
108613
108609
108606
108602
108599
108596
108593
108590
108587
108585
108582
108580
108577
108575
108573
108571
108569
108567
108565
108563
108561
108559
108557
108555
108553
108551
108549
108547
108545
108543
108541
108539
108537
108535
108533
108531
108530
108528
108527
108525
108524
108523
108521
108520
108519
108519
108518
108517
108517
108516
108516
108516
108516
108517
108517
108518
108519
108521
108523
108525
108527
108530
108533
108537
108541
108545
108550
108556
108562
108568
108575
108582
108590
108598
108606
108615
108624
108634
108644
108654
108665
108676
108687
108698
108710
108722
108734
108746
108759
108772
108785
108798
108811
108825
108839
108852
108866
108881
108895
108909
108923
108937
108952
108966
108980
108994
109008
109022
109035
109049
109062
109074
109086
109097
109107
109116
109122
109126
109128
109125
109115
109099
109074
109037
108989
108926
108847
108753
108641
108511
108364
108198
108016
107816
107601
107372
107128
106873
106608
106333
106052
105764
105472
105177
104881
104585
104291
103999
103713
103431
103157
102891
102634
102388
102152
101929
101718
101520
101336
101167
101012
100872
100746
100634
100535
100449
100377
100318
100269
100229
100197
100173
100156
100147
100143
100143
100149
100158
100169
100181
100194
100209
100225
100244
100265
100290
100318
100352
100391
100436
100487
100545
100610
100681
100759
100842
100930
101022
101116
101213
101310
101407
101502
101594
101684
101769
101849
101924
101993
102056
102114
102165
102211
102252
102287
102318
102346
102370
102392
102410
102427
102441
102454
102465
102474
102481
102486
102490
102492
102491
102489
102484
102476
102465
102451
102434
102414
102392
102367
102340
102311
102279
102247
102214
102179
102145
102110
102075
102040
102006
101972
101939
101906
101874
101841
101809
101776
101744
101710
101676
101641
101605
101568
101531
101493
101454
101415
101376
101338
101300
101263
101228
101195
101164
101136
101110
101087
101067
101050
101036
101026
101018
101014
101013
101014
101017
101022
101029
101038
101048
101059
101071
101084
101098
101112
101126
101140
101155
101169
101184
101198
101212
101226
101239
101252
101264
101275
101285
101294
101303
101310
101315
101320
101317
108480
108461
108478
108474
108471
108472
108465
108461
108456
108447
108439
108430
108416
108405
108397
108389
108387
108388
108415
108474
108511
108562
108616
108643
108677
108716
108757
108770
108816
108884
108905
108924
108947
108973
108996
109016
109030
109037
109043
109047
109049
109050
109051
109051
109050
109050
109050
109049
109047
109045
109043
109040
109038
109035
109033
109030
109027
109025
109022
109019
109016
109014
109012
109009
109007
109004
109002
109000
108997
108995
108993
108990
108988
108985
108983
108980
108978
108975
108973
108971
108968
108966
108964
108962
108960
108958
108956
108955
108953
108951
108950
108948
108947
108946
108944
108943
108942
108942
108941
108940
108940
108939
108939
108938
108938
108937
108937
108937
108937
108936
108936
108936
108936
108936
108935
108935
108935
108934
108933
108933
108932
108930
108929
108928
108926
108924
108922
108919
108917
108914
108911
108908
108905
108901
108897
108893
108889
108885
108880
108876
108871
108866
108861
108855
108850
108844
108839
108833
108827
108821
108814
108808
108802
108795
108789
108782
108776
108769
108763
108756
108750
108743
108737
108731
108724
108718
108712
108706
108700
108695
108689
108684
108678
108673
108668
108663
108658
108653
108648
108643
108639
108635
108630
108626
108622
108618
108615
108611
108608
108604
108601
108598
108595
108592
108590
108587
108584
108582
108580
108578
108575
108573
108571
108569
108567
108565
108564
108562
108560
108558
108556
108554
108552
108550
108548
108546
108544
108542
108540
108538
108536
108535
108533
108531
108530
108528
108527
108526
108524
108523
108522
108521
108521
108520
108519
108519
108519
108519
108519
108519
108520
108521
108522
108523
108525
108527
108529
108532
108535
108538
108543
108547
108552
108557
108563
108569
108576
108583
108591
108599
108607
108616
108625
108635
108645
108655
108665
108676
108687
108699
108710
108722
108734
108747
108759
108772
108785
108798
108811
108825
108839
108852
108866
108880
108894
108909
108923
108937
108951
108965
108979
108993
109007
109021
109034
109048
109061
109073
109085
109096
109106
109114
109121
109125
109126
109123
109114
109098
109072
109036
108987
108925
108846
108751
108639
108510
108362
108196
108014
107814
107599
107369
107125
106870
106605
106330
106048
105760
105467
105172
104876
104579
104284
103993
103705
103424
103149
102882
102625
102378
102142
101918
101707
101509
101325
101156
101001
100861
100736
100625
100527
100442
100371
100313
100265
100226
100194
100171
100156
100147
100144
100145
100150
100159
100170
100182
100196
100211
100227
100246
100267
100291
100320
100354
100393
100438
100489
100548
100613
100685
100762
100846
100934
101026
101121
101218
101315
101412
101507
101600
101689
101774
101854
101928
101997
102060
102118
102169
102215
102255
102291
102322
102349
102373
102395
102414
102430
102445
102457
102468
102477
102484
102490
102493
102495
102494
102492
102487
102479
102467
102453
102436
102416
102394
102368
102341
102311
102280
102247
102213
102178
102143
102108
102073
102038
102004
101970
101937
101903
101871
101838
101806
101773
101740
101707
101672
101637
101601
101565
101527
101489
101451
101412
101373
101335
101297
101261
101226
101192
101162
101133
101108
101085
101066
101049
101036
101026
101019
101014
101013
101015
101018
101024
101031
101039
101050
101061
101074
101087
101101
101115
101129
101144
101158
101173
101187
101202
101216
101229
101242
101255
101267
101278
101288
101297
101305
101312
101317
101321
101317
108464
108453
108462
108454
108447
108446
108435
108426
108417
108405
108394
108384
108368
108356
108349
108344
108351
108365
108383
108410
108457
108500
108541
108574
108621
108671
108715
108769
108790
108846
108885
108920
108951
108979
109000
109019
109035
109045
109050
109053
109054
109055
109054
109053
109051
109049
109047
109046
109043
109041
109039
109037
109035
109033
109031
109029
109026
109024
109022
109020
109017
109015
109013
109010
109007
109005
109002
109000
108997
108994
108992
108989
108987
108985
108982
108980
108978
108975
108973
108971
108968
108966
108964
108962
108960
108959
108957
108955
108953
108952
108950
108949
108947
108946
108945
108944
108943
108942
108941
108941
108940
108939
108939
108939
108938
108938
108938
108937
108937
108937
108937
108936
108936
108936
108936
108935
108935
108934
108934
108933
108932
108931
108930
108928
108926
108924
108922
108920
108917
108915
108912
108909
108905
108902
108898
108894
108890
108885
108881
108876
108872
108867
108862
108856
108851
108845
108840
108834
108828
108822
108816
108809
108803
108797
108790
108784
108777
108771
108764
108758
108751
108745
108739
108732
108726
108720
108714
108708
108703
108697
108691
108686
108681
108675
108670
108665
108660
108656
108651
108646
108642
108638
108633
108629
108625
108622
108618
108614
108611
108608
108605
108602
108599
108596
108593
108591
108588
108586
108584
108582
108580
108577
108576
108574
108572
108570
108568
108566
108564
108562
108560
108558
108556
108554
108552
108550
108549
108547
108545
108543
108541
108539
108537
108536
108534
108533
108531
108530
108529
108527
108526
108525
108525
108524
108523
108523
108522
108522
108522
108522
108523
108523
108524
108526
108527
108529
108531
108534
108537
108540
108544
108548
108553
108559
108564
108570
108577
108584
108592
108599
108608
108616
108625
108635
108645
108655
108665
108676
108687
108698
108710
108722
108734
108746
108759
108771
108784
108797
108811
108824
108838
108852
108865
108879
108893
108908
108922
108936
108950
108964
108978
108992
109006
109019
109033
109046
109059
109071
109083
109094
109104
109112
109119
109123
109124
109121
109112
109096
109071
109035
108986
108923
108845
108750
108638
108508
108360
108194
108011
107811
107595
107365
107121
106865
106599
106324
106041
105753
105460
105164
104867
104570
104275
103983
103695
103413
103138
102871
102613
102366
102129
101905
101694
101497
101313
101144
100990
100850
100725
100615
100518
100434
100364
100306
100259
100222
100190
100168
100153
100146
100143
100145
100151
100160
100172
100185
100199
100214
100231
100250
100271
100296
100325
100359
100398
100443
100495
100554
100619
100691
100769
100853
100941
101033
101128
101225
101322
101418
101513
101605
101694
101779
101859
101933
102002
102065
102122
102174
102219
102260
102295
102326
102354
102378
102399
102418
102435
102450
102462
102473
102481
102489
102494
102497
102498
102498
102495
102490
102481
102470
102455
102438
102417
102394
102368
102340
102310
102278
102245
102211
102176
102140
102104
102069
102034
101999
101965
101931
101897
101864
101832
101799
101766
101733
101699
101665
101630
101594
101558
101520
101483
101444
101406
101367
101329
101292
101256
101221
101189
101158
101130
101105
101083
101063
101047
101033
101024
101017
101013
101011
101013
101017
101022
101029
101038
101049
101061
101073
101087
101101
101115
101130
101144
101159
101174
101189
101204
101218
101232
101245
101258
101270
101281
101291
101300
101308
101315
101318
101323
101319
108476
108469
108478
108470
108463
108461
108449
108437
108424
108407
108392
108379
108359
108344
108335
108330
108334
108344
108359
108376
108421
108463
108508
108550
108609
108671
108732
108797
108827
108868
108911
108950
108981
109003
109017
109031
109043
109050
109055
109058
109059
109060
109059
109057
109055
109053
109052
109050
109048
109045
109042
109040
109037
109034
109031
109028
109025
109022
109020
109017
109015
109012
109010
109008
109006
109004
109002
109000
108997
108995
108993
108990
108988
108986
108983
108980
108978
108975
108973
108971
108968
108966
108964
108962
108960
108958
108957
108955
108953
108952
108950
108949
108947
108946
108945
108944
108943
108942
108941
108941
108940
108940
108939
108939
108938
108938
108938
108938
108937
108937
108937
108937
108937
108936
108936
108936
108935
108935
108934
108933
108933
108931
108930
108929
108927
108925
108923
108921
108918
108915
108913
108909
108906
108903
108899
108895
108891
108887
108882
108878
108873
108868
108863
108858
108852
108847
108841
108835
108829
108824
108817
108811
108805
108799
108792
108786
108779
108773
108767
108760
108754
108748
108741
108735
108729
108723
108717
108712
108706
108700
108695
108689
108684
108679
108674
108669
108664
108660
108655
108651
108646
108642
108638
108634
108630
108627
108623
108620
108616
108613
108610
108607
108605
108602
108599
108597
108595
108592
108590
108588
108586
108584
108582
108580
108578
108577
108575
108573
108571
108569
108567
108565
108564
108562
108560
108558
108556
108554
108552
108550
108548
108546
108544
108543
108541
108539
108538
108536
108535
108534
108533
108531
108530
108530
108529
108528
108528
108527
108527
108527
108527
108528
108529
108530
108531
108533
108535
108537
108540
108543
108547
108551
108556
108561
108566
108572
108579
108586
108593
108601
108609
108617
108626
108636
108645
108655
108666
108676
108687
108699
108710
108722
108734
108746
108758
108771
108784
108797
108810
108824
108837
108851
108865
108879
108893
108907
108921
108935
108949
108963
108976
108990
109004
109017
109031
109044
109056
109069
109080
109091
109101
109109
109115
109119
109121
109118
109109
109093
109067
109031
108982
108919
108841
108746
108634
108503
108355
108189
108005
107805
107589
107358
107114
106858
106592
106316
106033
105745
105451
105155
104858
104561
104265
103972
103684
103402
103126
102859
102602
102354
102118
101894
101683
101486
101303
101134
100980
100841
100716
100606
100509
100426
100357
100299
100253
100215
100184
100162
100148
100141
100139
100141
100147
100158
100170
100184
100198
100214
100232
100252
100274
100300
100329
100364
100404
100450
100503
100562
100628
100700
100778
100862
100950
101042
101137
101233
101330
101426
101521
101613
101702
101786
101866
101940
102009
102072
102129
102181
102226
102267
102303
102334
102362
102386
102408
102426
102444
102458
102470
102481
102490
102497
102502
102505
102506
102505
102502
102497
102488
102475
102460
102442
102421
102398
102371
102343
102312
102279
102245
102210
102174
102137
102101
102064
102028
101993
101958
101924
101890
101856
101823
101790
101757
101723
101690
101655
101620
101584
101548
101511
101474
101436
101398
101360
101323
101286
101251
101216
101184
101154
101127
101102
101081
101062
101047
101034
101025
101018
101015
101014
101016
101020
101026
101034
101043
101055
101067
101080
101094
101108
101123
101138
101153
101168
101183
101198
101212
101226
101240
101253
101265
101276
101286
101296
101304
101311
101317
101320
101323
101319
108475
108468
108478
108470
108462
108461
108449
108435
108422
108403
108383
108367
108342
108322
108307
108300
108297
108304
108313
108328
108364
108407
108469
108519
108584
108651
108715
108780
108830
108872
108915
108952
108983
109007
109022
109034
109045
109050
109055
109057
109058
109059
109058
109056
109054
109052
109052
109050
109048
109045
109043
109041
109038
109035
109033
109030
109027
109025
109022
109020
109017
109015
109012
109009
109006
109004
109001
108999
108996
108993
108991
108989
108986
108984
108982
108980
108977
108975
108973
108970
108968
108966
108964
108962
108960
108959
108957
108955
108954
108952
108951
108949
108948
108947
108945
108944
108943
108943
108942
108941
108941
108940
108940
108939
108939
108939
108938
108938
108938
108938
108938
108937
108937
108937
108937
108937
108936
108936
108935
108934
108933
108932
108931
108930
108928
108926
108924
108922
108919
108917
108914
108911
108907
108904
108900
108896
108892
108888
108884
108879
108874
108869
108864
108859
108854
108849
108843
108837
108832
108826
108820
108813
108807
108801
108795
108788
108782
108776
108770
108763
108757
108751
108745
108739
108733
108727
108721
108715
108710
108704
108699
108694
108689
108684
108679
108674
108670
108665
108661
108656
108652
108648
108644
108641
108637
108633
108630
108627
108624
108620
108618
108615
108612
108610
108607
108605
108603
108600
108598
108596
108595
108593
108591
108589
108587
108586
108584
108582
108580
108578
108577
108575
108573
108571
108569
108567
108565
108563
108561
108559
108557
108556
108554
108552
108550
108549
108547
108546
108544
108543
108541
108540
108539
108538
108537
108536
108535
108535
108534
108534
108534
108534
108535
108536
108537
108538
108540
108542
108545
108548
108551
108555
108559
108564
108569
108575
108581
108588
108595
108602
108610
108619
108627
108636
108646
108656
108666
108676
108687
108698
108710
108721
108733
108745
108758
108770
108783
108796
108809
108822
108836
108849
108863
108877
108890
108904
108918
108932
108946
108960
108974
108987
109001
109014
109027
109040
109052
109064
109076
109087
109096
109104
109111
109115
109116
109113
109104
109088
109063
109026
108978
108915
108836
108741
108629
108498
108350
108183
107999
107799
107582
107350
107106
106849
106582
106306
106022
105733
105439
105142
104844
104547
104251
103959
103670
103388
103113
102846
102589
102342
102106
101882
101672
101475
101292
101123
100970
100831
100707
100597
100501
100419
100350
100293
100246
100210
100178
100157
100144
100137
100136
100139
100147
100159
100172
100186
100202
100219
100238
100259
100282
100309
100340
100375
100416
100463
100516
100576
100642
100714
100792
100876
100964
101056
101150
101246
101342
101438
101532
101623
101711
101795
101875
101949
102017
102080
102137
102189
102235
102275
102311
102342
102370
102394
102416
102435
102453
102467
102479
102490
102499
102506
102510
102513
102514
102513
102509
102503
102493
102480
102464
102445
102424
102399
102372
102342
102310
102276
102241
102205
102169
102131
102094
102057
102020
101984
101948
101912
101878
101844
101810
101776
101742
101709
101675
101640
101605
101570
101533
101497
101460
101423
101385
101348
101312
101276
101241
101207
101176
101147
101120
101096
101074
101056
101040
101028
101019
101013
101011
101011
101013
101018
101024
101032
101042
101054
101067
101081
101095
101110
101126
101141
101157
101172
101188
101203
101218
101232
101246
101259
101271
101282
101292
101301
101309
101315
101321
101322
101326
101321
108477
108471
108480
108473
108464
108463
108452
108438
108424
108404
108382
108363
108333
108307
108287
108284
108264
108273
108282
108302
108340
108374
108456
108503
108568
108635
108699
108761
108815
108859
108901
108938
108969
108994
109010
109024
109035
109040
109045
109047
109047
109049
109049
109049
109048
109049
109049
109048
109046
109043
109042
109039
109037
109034
109032
109029
109027
109025
109022
109019
109017
109014
109012
109009
109007
109005
109002
109000
108998
108995
108993
108990
108988
108985
108983
108980
108978
108975
108973
108970
108968
108966
108964
108962
108960
108958
108957
108955
108953
108952
108950
108949
108948
108947
108945
108944
108944
108943
108942
108941
108941
108940
108940
108940
108939
108939
108939
108939
108938
108938
108938
108938
108938
108938
108937
108937
108937
108936
108936
108935
108934
108933
108932
108931
108929
108927
108925
108923
108920
108918
108915
108912
108909
108905
108902
108898
108894
108890
108886
108881
108876
108872
108867
108862
108857
108851
108846
108840
108834
108829
108823
108817
108811
108804
108798
108792
108786
108780
108774
108767
108761
108755
108749
108743
108738
108732
108726
108721
108715
108710
108705
108700
108695
108690
108686
108681
108676
108672
108668
108664
108660
108656
108652
108649
108645
108642
108639
108635
108632
108630
108627
108624
108622
108619
108617
108615
108613
108611
108609
108607
108605
108603
108602
108600
108598
108597
108595
108593
108592
108590
108588
108586
108585
108583
108581
108579
108577
108575
108573
108571
108569
108567
108565
108563
108562
108560
108558
108556
108555
108553
108551
108550
108548
108547
108546
108545
108544
108543
108542
108542
108541
108541
108541
108542
108543
108544
108545
108547
108549
108552
108555
108559
108563
108567
108572
108578
108584
108590
108597
108604
108612
108620
108629
108637
108647
108656
108666
108677
108687
108698
108710
108721
108733
108745
108757
108769
108782
108795
108808
108821
108834
108848
108861
108875
108889
108902
108916
108930
108943
108957
108970
108984
108997
109010
109023
109036
109048
109060
109071
109082
109091
109099
109105
109109
109111
109108
109098
109082
109057
109020
108971
108908
108829
108734
108621
108490
108341
108174
107990
107788
107571
107339
107094
106837
106569
106293
106009
105719
105426
105129
104831
104533
104236
103943
103655
103372
103096
102829
102571
102324
102089
101865
101655
101458
101276
101108
100954
100816
100692
100583
100489
100407
100339
100282
100236
100200
100170
100149
100136
100131
100130
100134
100143
100156
100170
100186
100203
100221
100241
100264
100289
100317
100349
100386
100428
100476
100530
100591
100657
100730
100809
100892
100980
101071
101165
101261
101356
101451
101545
101636
101723
101807
101886
101959
102028
102090
102147
102199
102245
102286
102322
102354
102382
102407
102429
102449
102466
102481
102493
102504
102513
102519
102524
102527
102527
102525
102521
102514
102503
102489
102472
102452
102430
102404
102375
102344
102311
102276
102240
102202
102164
102125
102087
102048
102010
101973
101936
101900
101864
101829
101794
101760
101725
101691
101656
101622
101587
101551
101515
101479
101443
101406
101370
101334
101298
101264
101231
101201
101171
101143
101116
101093
101072
101055
101040
101029
101021
101016
101014
101015
101017
101022
101029
101037
101047
101059
101072
101086
101101
101116
101132
101148
101164
101180
101195
101210
101225
101239
101253
101266
101278
101288
101298
101306
101314
101319
101324
101325
101327
101321
108482
108476
108484
108476
108464
108462
108448
108431
108413
108388
108359
108334
108296
108258
108244
108211
108204
108190
108207
108224
108272
108326
108378
108446
108515
108587
108660
108727
108789
108841
108887
108926
108959
108985
109003
109018
109031
109036
109041
109044
109044
109046
109046
109045
109043
109042
109042
109041
109040
109038
109038
109036
109034
109033
109031
109028
109026
109024
109021
109018
109016
109013
109011
109008
109006
109004
109001
108999
108997
108994
108992
108990
108987
108985
108982
108980
108977
108975
108973
108970
108968
108966
108964
108963
108961
108959
108957
108956
108954
108953
108951
108950
108949
108947
108946
108945
108944
108944
108943
108942
108942
108941
108941
108941
108940
108940
108940
108940
108940
108939
108939
108939
108939
108939
108939
108938
108938
108938
108937
108937
108936
108935
108933
108932
108931
108929
108927
108925
108922
108920
108917
108914
108911
108907
108904
108900
108896
108892
108888
108884
108879
108874
108869
108864
108859
108854
108849
108843
108838
108832
108826
108820
108814
108808
108802
108796
108790
108784
108778
108772
108766
108760
108754
108749
108743
108737
108732
108727
108722
108716
108712
108707
108702
108697
108693
108689
108684
108680
108676
108672
108669
108665
108661
108658
108655
108652
108649
108646
108643
108640
108638
108635
108633
108631
108629
108627
108625
108623
108621
108620
108618
108616
108615
108613
108612
108610
108609
108607
108605
108604
108602
108600
108598
108597
108595
108593
108591
108589
108587
108585
108583
108581
108579
108577
108575
108573
108571
108569
108567
108565
108564
108562
108560
108559
108557
108556
108555
108554
108553
108552
108551
108551
108551
108551
108551
108552
108553
108555
108557
108559
108562
108565
108569
108573
108577
108582
108588
108594
108601
108607
108615
108623
108631
108639
108648
108658
108667
108678
108688
108699
108710
108721
108732
108744
108756
108768
108781
108793
108806
108819
108832
108845
108859
108872
108886
108899
108913
108926
108940
108953
108966
108979
108992
109005
109018
109030
109042
109054
109065
109075
109084
109092
109098
109102
109103
109100
109091
109074
109048
109012
108962
108899
108820
108724
108611
108480
108331
108163
107979
107777
107560
107328
107083
106825
106557
106279
105994
105703
105408
105110
104812
104513
104217
103924
103635
103353
103077
102810
102553
102306
102070
101847
101637
101441
101259
101091
100938
100801
100678
100569
100475
100395
100327
100271
100226
100190
100160
100140
100128
100124
100124
100129
100139
100153
100168
100186
100204
100225
100246
100271
100297
100327
100361
100400
100443
100492
100547
100608
100676
100749
100827
100911
100998
101089
101183
101277
101372
101467
101560
101650
101737
101820
101898
101972
102040
102102
102160
102211
102258
102299
102336
102368
102397
102422
102445
102465
102482
102498
102510
102521
102529
102536
102540
102542
102542
102540
102535
102526
102515
102500
102482
102460
102436
102409
102379
102347
102312
102276
102238
102199
102159
102119
102079
102039
101999
101960
101922
101884
101847
101811
101775
101740
101705
101670
101635
101600
101565
101530
101494
101459
101423
101387
101352
101317
101283
101249
101217
101186
101158
101131
101107
101085
101066
101050
101037
101027
101020
101015
101014
101015
101018
101023
101030
101039
101049
101062
101075
101090
101105
101121
101137
101154
101170
101186
101202
101217
101232
101247
101260
101273
101284
101295
101304
101312
101318
101323
101327
101327
101328
101322
108487
108482
108489
108482
108469
108465
108450
108429
108408
108379
108344
108315
108270
108225
108192
108180
108140
108147
108149
108195
108218
108270
108346
108403
108471
108548
108622
108693
108760
108819
108870
108912
108947
108974
108992
109007
109019
109025
109032
109037
109040
109045
109045
109044
109043
109041
109041
109040
109038
109035
109035
109034
109032
109030
109028
109026
109023
109021
109019
109016
109014
109012
109009
109007
109005
109003
109001
108998
108996
108994
108991
108989
108986
108984
108982
108979
108977
108975
108972
108970
108968
108966
108964
108962
108960
108959
108957
108956
108954
108953
108951
108950
108949
108948
108946
108946
108945
108944
108943
108943
108942
108942
108941
108941
108941
108941
108940
108940
108940
108940
108940
108940
108940
108940
108940
108939
108939
108939
108938
108938
108937
108936
108935
108933
108932
108930
108928
108926
108924
108922
108919
108916
108913
108910
108906
108903
108899
108895
108891
108886
108882
108877
108873
108868
108863
108857
108852
108847
108841
108836
108830
108824
108819
108813
108807
108801
108795
108789
108783
108778
108772
108766
108760
108755
108749
108744
108739
108734
108729
108724
108719
108715
108710
108706
108702
108697
108693
108690
108686
108682
108679
108675
108672
108669
108666
108663
108661
108658
108655
108653
108651
108649
108646
108644
108643
108641
108639
108637
108636
108634
108633
108631
108630
108629
108627
108626
108624
108623
108621
108620
108618
108616
108615
108613
108611
108609
108607
108605
108603
108601
108599
108597
108595
108593
108591
108589
108587
108584
108582
108580
108578
108577
108575
108573
108571
108569
108568
108567
108565
108564
108563
108563
108562
108562
108562
108562
108563
108564
108566
108568
108570
108573
108576
108580
108584
108589
108594
108599
108606
108612
108619
108627
108634
108643
108651
108660
108670
108679
108689
108700
108710
108721
108733
108744
108756
108768
108780
108792
108805
108818
108831
108844
108857
108870
108883
108897
108910
108923
108936
108949
108962
108975
108988
109001
109013
109025
109037
109048
109059
109069
109078
109085
109091
109094
109095
109092
109082
109066
109039
109002
108952
108888
108809
108713
108599
108468
108318
108150
107965
107762
107544
107311
107064
106806
106537
106260
105975
105684
105389
105091
104792
104494
104197
103903
103614
103331
103056
102788
102531
102284
102049
101826
101616
101420
101239
101072
100920
100783
100660
100553
100460
100380
100313
100258
100213
100178
100149
100130
100119
100115
100116
100122
100134
100149
100166
100185
100206
100228
100252
100278
100307
100339
100374
100415
100460
100510
100566
100629
100696
100770
100849
100932
101019
101110
101203
101297
101391
101484
101576
101666
101752
101834
101912
101986
102054
102117
102174
102226
102273
102314
102352
102385
102414
102440
102463
102483
102501
102517
102529
102540
102549
102555
102559
102560
102559
102556
102551
102541
102528
102512
102492
102470
102444
102415
102383
102349
102313
102275
102235
102195
102153
102111
102069
102027
101986
101945
101905
101866
101828
101790
101753
101717
101681
101646
101610
101575
101540
101505
101470
101435
101400
101365
101331
101297
101264
101233
101202
101173
101146
101121
101098
101078
101061
101046
101034
101025
101019
101015
101014
101016
101020
101025
101033
101042
101054
101067
101081
101096
101111
101128
101144
101161
101178
101194
101211
101226
101242
101256
101269
101281
101293
101302
101311
101318
101324
101328
101331
101329
101329
101323
108496
108492
108494
108487
108472
108465
108449
108424
108399
108365
108324
108293
108239
108183
108155
108104
108100
108075
108109
108119
108169
108221
108279
108364
108442
108506
108587
108662
108731
108794
108850
108897
108937
108967
108987
109004
109016
109022
109028
109031
109031
109034
109036
109037
109039
109039
109039
109038
109035
109032
109032
109030
109028
109026
109025
109023
109021
109020
109017
109015
109013
109011
109009
109006
109004
109002
108999
108997
108995
108993
108990
108988
108986
108983
108981
108978
108976
108974
108972
108969
108967
108965
108964
108962
108960
108959
108957
108955
108954
108953
108951
108950
108949
108948
108947
108946
108945
108944
108944
108943
108943
108942
108942
108942
108941
108941
108941
108941
108941
108941
108941
108941
108941
108941
108941
108940
108940
108940
108939
108939
108938
108937
108936
108935
108933
108932
108930
108928
108926
108923
108921
108918
108915
108912
108908
108905
108901
108897
108893
108889
108885
108880
108876
108871
108866
108861
108856
108851
108845
108840
108834
108829
108823
108817
108812
108806
108800
108795
108789
108783
108778
108772
108767