/*--------------------------------*- C++ -*----------------------------------*\
| =========                 |                                                 |
| \\      /  F ield         | OpenFOAM: The Open Source CFD Toolbox           |
|  \\    /   O peration     | Version:  v1812                                 |
|   \\  /    A nd           | Web:      www.OpenFOAM.com                      |
|    \\/     M anipulation  |                                                 |
\*---------------------------------------------------------------------------*/
FoamFile
{
    version     2.0;
    format      ascii;
    class       surfaceScalarField;
    location    "0.1";
    object      phi;
}
// * * * * * * * * * * * * * * * * * * * * * * * * * * * * * * * * * * * * * //

dimensions      [1 0 -1 0 0 0 0];
oriented        oriented;


internalField   nonuniform List<scalar> 
40240
(
0.000409777
-0.000443504
0.000352508
2.40508e-05
0.000453573
-0.000135217
0.000488795
-7.0688e-05
0.000314402
0.0001388
-1.46312e-05
0.000294138
-0.000637445
0.000589447
-0.0016908
0.00102089
-0.00323041
0.00150763
-0.00532365
0.002061
-0.00787256
0.00251625
-0.0107852
0.00288115
-0.014105
0.00329153
-0.0176864
0.00355487
-0.0212718
0.00356067
-0.0246076
0.00330876
-0.0273043
0.00266466
-0.0293854
0.00205262
-0.0309996
0.00159239
-0.0318488
0.000799085
-0.0328846
0.00101052
-0.032636
-0.000282227
-0.0321981
-0.000450915
-0.0303606
-0.00185899
-0.0276079
-0.00277942
-0.0245234
-0.00312573
-0.0214843
-0.00310906
-0.0185829
-0.0030866
-0.0146851
-0.00388588
-0.0110272
-0.00359254
-0.00763508
-0.00337151
-0.00449077
-0.00318018
-0.00153056
-0.00300314
0.00109689
-0.00266504
0.00326639
-0.00221761
0.00510176
-0.00189217
0.00672977
-0.00168595
0.00807673
-0.00140349
0.00916362
-0.00114444
0.0100466
-0.000943558
0.010765
-0.000782085
0.0113553
-0.000655693
0.0118286
-0.000539296
0.0121895
-0.00042714
0.0124675
-0.000344574
0.012698
-0.000297623
0.012887
-0.000257586
0.013009
-0.000192963
0.0130545
-0.000118829
0.0130596
-8.07853e-05
0.0130607
-7.87023e-05
0.0130605
-7.96928e-05
0.0130468
-6.74744e-05
0.0130216
-5.7544e-05
0.0129929
-5.5582e-05
0.0129647
-5.78079e-05
0.0129373
-5.97636e-05
0.0129087
-5.97525e-05
0.0128729
-5.39267e-05
0.012827
-4.5041e-05
0.0127802
-4.5065e-05
0.0127379
-5.07619e-05
0.0126996
-5.58461e-05
0.0126621
-5.77445e-05
0.0126241
-5.82965e-05
0.0125869
-6.00287e-05
0.0125516
-6.26883e-05
0.0125185
-6.59443e-05
0.0124887
-6.99847e-05
0.0124614
-7.3408e-05
0.0124352
-7.5683e-05
0.0124102
-7.77929e-05
0.0123865
-8.0067e-05
0.0123643
-8.25278e-05
0.0123436
-8.4963e-05
0.0123244
-8.73261e-05
0.0123066
-8.97164e-05
0.0122902
-9.20797e-05
0.0122752
-9.42225e-05
0.0122617
-9.60942e-05
0.0122499
-9.80016e-05
0.0122397
-9.98174e-05
0.0122312
-0.000101582
0.0122242
-0.000103195
0.0122184
-0.000104692
0.012214
-0.000106109
0.0122107
-0.000107474
0.0122086
-0.000108771
0.0122075
-0.00010995
0.0122076
-0.000110913
0.0122086
-0.00011206
0.012211
-0.000113139
0.0122146
-0.000114132
0.0122195
-0.000115075
0.0122256
-0.000115998
0.0122331
-0.000116929
0.0122419
-0.00011784
0.0122519
-0.000118731
0.0122631
-0.000119612
0.0122754
-0.000120491
0.0122886
-0.000121364
0.0123027
-0.000122226
0.0123176
-0.00012308
0.0123333
-0.000123928
0.0123497
-0.00012477
0.0123668
-0.000125593
0.0123846
-0.000126404
0.012403
-0.000127216
0.0124221
-0.000128024
0.0124418
-0.000128819
0.0124621
-0.000129598
0.0124827
-0.000130346
0.0125036
-0.000131107
0.0125247
-0.000131967
0.012546
-0.000132833
0.0125671
-0.000133675
0.012588
-0.000134506
0.0126085
-0.000135343
0.0126285
-0.000136188
0.0126477
-0.000137038
0.0126662
-0.00013789
0.0126839
-0.000138745
0.0127006
-0.000139617
0.0127164
-0.000140515
0.0127312
-0.000141406
0.0127449
-0.000142292
0.0127575
-0.000143147
0.0127691
-0.000143967
0.0127794
-0.000144767
0.0127886
-0.000145529
0.0127966
-0.000146277
0.0128035
-0.000147007
0.0128093
-0.00014773
0.0128141
-0.000148444
0.0128179
-0.00014914
0.0128207
-0.000149811
0.0128224
-0.000150474
0.0128232
-0.000151178
0.0128232
-0.000151709
0.0128224
-0.000152176
0.0128204
-0.000152673
0.0128176
-0.000153155
0.012814
-0.000153619
0.0128095
-0.000154064
0.0128043
-0.000154484
0.0127982
-0.00015487
0.0127915
-0.000155221
0.012784
-0.000155576
0.012776
-0.000155861
0.0127674
-0.000156097
0.0127583
-0.000156386
0.0127489
-0.000156551
0.0127391
-0.000156683
0.012729
-0.000156729
0.0127187
-0.00015674
0.0127083
-0.000156741
0.012698
-0.000156701
0.0126879
-0.000156598
0.012678
-0.000156455
0.0126685
-0.000156278
0.0126595
-0.000156071
0.012651
-0.000155759
0.012643
-0.000155367
0.0126357
-0.000154942
0.0126292
-0.000154494
0.0126235
-0.000153997
0.0126186
-0.000153425
0.0126145
-0.000152791
0.0126113
-0.000152095
0.0126089
-0.000151338
0.0126074
-0.000150485
0.0126068
-0.00014951
0.012607
-0.000148461
0.0126079
-0.000147378
0.0126096
-0.000146235
0.0126122
-0.000145012
0.0126155
-0.000143691
0.0126197
-0.00014228
0.0126247
-0.000140777
0.0126305
-0.000139164
0.0126371
-0.000137465
0.0126446
-0.000135673
0.0126528
-0.000133768
0.0126618
-0.000131658
0.0126715
-0.000129489
0.0126821
-0.00012743
0.0126934
-0.000125056
0.0127054
-0.000122603
0.0127181
-0.000120059
0.0127315
-0.00011744
0.0127455
-0.00011471
0.0127601
-0.000111885
0.0127753
-0.000108956
0.0127909
-0.000105934
0.0128069
-0.00010281
0.0128234
-9.95831e-05
0.0128401
-9.6257e-05
0.012857
-9.28377e-05
0.012874
-8.92135e-05
0.012891
-8.56115e-05
0.0129081
-8.19637e-05
0.0129249
-7.80577e-05
0.0129415
-7.41679e-05
0.0129578
-7.01927e-05
0.0129735
-6.61216e-05
0.0129886
-6.19563e-05
0.0130031
-5.76929e-05
0.0130168
-5.33352e-05
0.0130296
-4.88794e-05
0.0130415
-4.43238e-05
0.0130524
-3.96676e-05
0.0130623
-3.49083e-05
0.0130712
-3.00501e-05
0.0130791
-2.51029e-05
0.0130859
-2.00459e-05
0.0130918
-1.493e-05
0.0130964
-9.75963e-06
0.0131005
-4.45223e-06
0.0131038
4.90086e-07
0.0131058
5.74136e-06
0.0131072
1.11138e-05
0.0131078
1.64968e-05
0.0131077
2.18968e-05
0.0131069
2.73002e-05
0.0131055
3.2711e-05
0.0131034
3.81219e-05
0.0131008
4.3499e-05
0.0130976
4.88452e-05
0.0130938
5.41322e-05
0.0130896
5.93624e-05
0.013085
6.45474e-05
0.0130799
6.96503e-05
0.0130744
7.46927e-05
0.0130686
7.96493e-05
0.0130626
8.45035e-05
0.0130566
8.92715e-05
0.0130503
9.39617e-05
0.0130439
9.86003e-05
0.0130378
0.00010312
0.0130322
0.000107537
0.0130269
0.000111851
0.0130223
0.000116045
0.0130185
0.000120118
0.0130158
0.000124065
0.0130145
0.000127942
0.0130145
0.000131621
0.013016
0.000135117
0.0130195
0.000138472
0.0130252
0.000141674
0.0130331
0.000144706
0.0130434
0.000147542
0.013056
0.000150209
0.013071
0.000152733
0.0130885
0.000155123
0.0131086
0.000157385
0.0131312
0.000159519
0.0131564
0.000161508
0.0131843
0.000163335
0.0132148
0.000164996
0.0132479
0.000166477
0.0132835
0.000167728
0.0133216
0.000168728
0.0133621
0.000169473
0.0134048
0.000170123
0.0134497
0.000170834
0.0134968
0.000171438
0.013546
0.000171945
0.0135972
0.000172366
0.0136504
0.000172689
0.0137056
0.000172899
0.0137627
0.000172991
0.0138217
0.000172956
0.0138825
0.000172796
0.013945
0.000172534
0.0140093
0.000172178
0.0140754
0.000171762
0.0141431
0.000171295
0.0142124
0.000170779
0.0142833
0.000170229
0.0143557
0.000169657
0.0144295
0.000168936
0.0145046
0.000168119
0.014581
0.000167221
0.0146584
0.00016624
0.0147368
0.00016517
0.0148159
0.000164023
0.0148957
0.000162795
0.0149759
0.000161473
0.0150563
0.000160048
0.0151367
0.000158514
0.0152169
0.000156861
0.0152966
0.000155082
0.0153757
0.000153167
0.0154539
0.00015111
0.0155312
0.000148894
0.0156079
0.000146498
0.0156842
0.000143905
0.0157609
0.000141096
0.0158393
0.000138033
0.0159207
0.000134686
0.0160074
0.000131019
0.0161022
0.000127012
0.0162087
0.000122641
0.0163304
0.000117827
0.0164724
0.000112608
0.0166461
0.000106297
0.0168631
9.95219e-05
0.0171342
9.28444e-05
0.0174719
8.48302e-05
0.0178885
7.70731e-05
0.0183954
6.90286e-05
0.0190016
6.1015e-05
0.0197149
5.30773e-05
0.0205408
4.5347e-05
0.0214829
3.79827e-05
0.0225421
3.1136e-05
0.023717
2.49587e-05
0.0250039
1.96387e-05
0.0263969
1.52935e-05
0.0278888
1.20346e-05
0.0294704
9.41396e-06
0.0311318
8.13706e-06
0.0328622
7.80347e-06
0.0346505
8.48692e-06
0.0364849
1.02241e-05
0.0383538
1.28803e-05
0.0402457
1.64357e-05
0.0421486
2.07051e-05
0.0440513
2.58124e-05
0.045943
3.09857e-05
0.0478134
3.62929e-05
0.049653
4.12709e-05
0.0514519
4.63932e-05
0.053201
5.15441e-05
0.0548915
5.65818e-05
0.056515
6.16207e-05
0.0580639
6.64306e-05
0.0595309
7.11279e-05
0.0609091
7.59909e-05
0.0621938
7.95594e-05
0.0633797
8.31691e-05
0.0644611
8.78772e-05
0.0654357
9.06147e-05
0.0663003
9.31846e-05
0.067051
9.68551e-05
0.0676872
9.895e-05
0.0682084
0.000100864
0.0686152
0.000103431
0.0689098
0.000106554
0.0690974
0.000108903
0.0691844
0.000108977
0.0691789
0.000103561
0.0690676
9.80925e-05
0.0688637
0.000102054
0.0685787
0.000111506
0.068229
0.000112317
0.0678194
0.000111386
0.0673555
0.000104738
0.0668434
9.70157e-05
0.0662829
9.70273e-05
0.0656837
0.000101618
0.0650521
0.000103844
0.0643916
0.00010405
0.0637162
0.000102995
0.0630316
0.000102
0.0623408
0.000101517
0.0616447
0.000101124
0.060944
0.000101186
0.0602376
0.000101841
0.0595251
0.000100625
0.0588046
9.79654e-05
0.0580723
9.53244e-05
0.0573235
9.32091e-05
0.0565544
9.10842e-05
0.0557615
8.91145e-05
0.054942
8.75075e-05
0.0540947
8.57092e-05
0.0532192
8.42052e-05
0.0523169
8.28887e-05
0.0513907
8.12863e-05
0.050444
8.07414e-05
0.049481
8.12795e-05
0.0485072
8.29122e-05
0.0475286
8.57839e-05
0.046552
8.99433e-05
0.0455846
9.51091e-05
0.0446339
0.000100912
0.0437071
0.000107362
0.0428111
0.000114449
0.0419526
0.000121746
0.0411369
0.000129551
0.040368
0.000138653
0.0396506
0.00014704
0.0389898
0.000153368
0.0383874
0.000159815
0.0378408
0.000169626
0.0373478
0.000181487
0.0369089
0.000191636
0.0365248
0.000199134
0.0361933
0.000205563
0.0359113
0.000211256
0.0356763
0.000214905
0.0354853
0.000216912
0.0353339
0.000219277
0.0352174
0.000223086
0.0351315
0.000228684
0.035078
0.000230404
0.0350638
0.000224299
0.035072
0.000225461
0.0351128
0.000225503
0.0351809
0.000222785
0.0352771
0.000218368
0.0354031
0.000213154
0.0355613
0.00020742
0.0357501
0.000201481
0.0359665
0.000195357
0.036213
0.000189056
0.0364941
0.000182652
0.0368105
0.000176405
0.0371597
0.000170501
0.0375399
0.000165543
0.0379506
0.000160097
0.0383886
0.000156791
0.0388533
0.0001525
0.0393402
0.00015064
0.039845
0.0001509
0.0403655
0.000150383
0.0408981
0.000150606
0.0414393
0.000151026
0.0419854
0.000152003
0.0425321
0.000154124
0.0430751
0.000157206
0.0436105
0.000161283
0.0441347
0.000166157
0.0446447
0.000171622
0.0451383
0.000177722
0.045614
0.000184362
0.0460708
0.000191581
0.0465077
0.00019923
0.0469236
0.000207255
0.0473183
0.000214953
0.0476921
0.000221937
0.0480456
0.000227853
0.0483793
0.000232926
0.0486933
0.000237441
0.0489872
0.000241302
0.0492611
0.000243905
0.0495145
0.000245042
0.0497465
0.000244877
0.0499554
0.000243635
0.0501392
0.000241129
0.0502959
0.000237058
0.050425
0.000229555
0.0505246
0.000219813
0.0505905
0.000210005
0.0506177
0.00020056
0.0506152
0.000180854
0.0505765
0.000158353
0.0504857
0.00015049
0.0503473
0.000135376
0.0501645
0.00011427
0.0499369
9.21845e-05
0.0496636
7.02979e-05
0.0493448
4.68563e-05
0.0489783
2.49765e-05
0.0485658
8.17072e-07
0.0481104
-2.43178e-05
0.0476141
-4.97492e-05
0.047077
-7.49437e-05
0.0465018
-9.96172e-05
0.0458948
-0.000123162
0.0452604
-0.000145429
0.0446005
-0.000165574
0.0439159
-0.000183941
0.0432092
-0.000200752
0.0424853
-0.000215528
0.0417504
-0.000228943
0.041009
-0.000240532
0.0402649
-0.000250215
0.0395233
-0.000259006
0.038788
-0.000264645
0.0380625
-0.000267133
0.0373505
-0.000267205
0.0366553
-0.000265131
0.0359802
-0.00026074
0.0353289
-0.000254289
0.0347054
-0.000245991
0.0341135
-0.000235812
0.033556
-0.000223697
0.0330356
-0.000209714
0.0325543
-0.000193729
0.0321143
-0.000176162
0.0317176
-0.000157083
0.0313655
-0.000135895
0.0310599
-0.000113777
0.0308002
-8.85126e-05
0.0305899
-6.53465e-05
0.0304215
-2.72528e-05
0.0302873
1.70414e-05
1.79001e-06
-0.000356975
-0.000116007
-0.000888428
0.000526336
-0.00181347
0.000759056
-0.00314753
0.00123076
-0.0048763
0.00183465
-0.00688249
0.00226749
-0.00931004
0.00298478
-0.0122148
0.00389425
-0.0156331
0.00489456
-0.0196386
0.00603432
-0.0241535
0.00699851
-0.0289899
0.00768571
-0.0339814
0.00825354
-0.038786
0.00833107
-0.0430802
0.00782846
-0.0466509
0.00685284
-0.0493359
0.0053205
-0.0509287
0.00362292
-0.0511009
0.0017419
-0.0505175
0.000176389
-0.0484761
-0.00105926
-0.04496
-0.00382587
-0.0400076
-0.00542137
-0.0354012
-0.00648572
-0.0309473
-0.00725272
-0.0263114
-0.00777899
-0.0217316
-0.00773544
-0.0181393
-0.00671544
-0.0147626
-0.00737011
-0.0109026
-0.00758469
-0.00713572
-0.00724969
-0.00342667
-0.00694769
0.000444832
-0.00691698
0.00457921
-0.00684991
0.00884016
-0.00653487
0.0129605
-0.00606774
0.0166029
-0.00538179
0.0196023
-0.00445635
0.0220497
-0.00364813
0.0240293
-0.00298296
0.0256169
-0.00243224
0.0269106
-0.00201331
0.0279733
-0.00166688
0.0288445
-0.0013636
0.0295676
-0.00113341
0.0301922
-0.000989216
0.0307447
-0.000878849
0.0312151
-0.000734523
0.031593
-0.0005706
0.0318935
-0.000457513
0.0321379
-0.000400959
0.0323337
-0.00035516
0.0324852
-0.000299823
0.0326006
-0.00025514
0.0326892
-0.000227825
0.0327536
-0.000206613
0.0327953
-0.000187405
0.0328181
-0.000169679
0.0328216
-0.000146004
0.0328188
-0.000131918
0.0328069
-0.000123798
0.0327928
-0.000128376
0.0327796
-0.00013557
0.0327658
-0.00013798
0.0327503
-0.000137983
0.032734
-0.000140039
0.0327183
-0.000144223
0.0327036
-0.000149421
0.0326906
-0.000156187
0.032679
-0.00016221
0.032668
-0.000165977
0.0326571
-0.000169176
0.0326462
-0.000172533
0.0326357
-0.000176216
0.0326255
-0.000179956
0.0326159
-0.000183766
0.0326074
-0.000187936
0.0326002
-0.00019227
0.0325944
-0.000196445
0.0325901
-0.000200314
0.0325874
-0.000204045
0.0325865
-0.000207573
0.032587
-0.000210903
0.032589
-0.000214127
0.0325925
-0.000217203
0.0325972
-0.000220132
0.0326033
-0.000222931
0.0326105
-0.000225611
0.0326189
-0.000228057
0.0326286
-0.000230314
0.0326393
-0.000232565
0.0326512
-0.000234692
0.0326644
-0.000236738
0.0326789
-0.000238685
0.0326947
-0.000240615
0.0327119
-0.000242519
0.0327305
-0.000244375
0.0327503
-0.000246199
0.0327714
-0.000248002
0.0327935
-0.00024979
0.0328167
-0.000251559
0.0328408
-0.000253303
0.0328657
-0.000255024
0.0328914
-0.000256715
0.0329177
-0.000258399
0.0329448
-0.000260041
0.0329725
-0.000261653
0.0330008
-0.000263253
0.0330297
-0.000264836
0.0330592
-0.000266392
0.0330892
-0.000267934
0.0331196
-0.000269446
0.0331502
-0.000270976
0.033181
-0.000272578
0.0332117
-0.000274181
0.0332423
-0.000275769
0.0332725
-0.000277354
0.0333023
-0.000278952
0.0333314
-0.000280563
0.0333597
-0.00028219
0.0333872
-0.000283828
0.0334138
-0.000285471
0.0334394
-0.000287126
0.033464
-0.000288792
0.0334874
-0.000290444
0.0335095
-0.000292058
0.0335306
-0.000293663
0.0335504
-0.000295222
0.0335691
-0.000296792
0.0335866
-0.000298282
0.0336029
-0.000299743
0.0336181
-0.000301154
0.0336321
-0.000302496
0.033645
-0.000303819
0.0336569
-0.000305128
0.0336677
-0.000306421
0.0336776
-0.000307712
0.0336865
-0.000308989
0.0336945
-0.000310065
0.0337015
-0.000311044
0.0337076
-0.00031205
0.0337129
-0.000313041
0.0337173
-0.000313984
0.033721
-0.000314896
0.0337239
-0.000315772
0.0337262
-0.000316591
0.0337277
-0.000317338
0.0337286
-0.000318101
0.033729
-0.000318816
0.0337289
-0.00031932
0.0337284
-0.000319854
0.0337276
-0.000320351
0.0337265
-0.000320608
0.0337253
-0.000320862
0.0337242
-0.000321057
0.033723
-0.000321162
0.0337221
-0.000321165
0.0337214
-0.000321103
0.0337211
-0.000320905
0.0337212
-0.000320548
0.033722
-0.000320304
0.0337234
-0.000319816
0.0337255
-0.000319192
0.0337284
-0.000318521
0.0337322
-0.000317737
0.033737
-0.00031685
0.0337426
-0.000315829
0.0337492
-0.000314697
0.0337567
-0.000313423
0.0337652
-0.000311991
0.0337747
-0.000310368
0.0337851
-0.000308567
0.0337965
-0.000306625
0.0338087
-0.000304544
0.0338218
-0.000302308
0.0338357
-0.000299892
0.0338505
-0.00029729
0.0338661
-0.000294503
0.0338826
-0.000291526
0.0338999
-0.000288337
0.0339181
-0.000284969
0.0339372
-0.000281397
0.033957
-0.000277559
0.0339777
-0.000273512
0.0339992
-0.000269318
0.0340214
-0.000264893
0.0340443
-0.000260187
0.0340679
-0.000255286
0.0340922
-0.000250199
0.0341171
-0.000244958
0.0341427
-0.000239496
0.0341688
-0.000233828
0.0341953
-0.000227948
0.0342223
-0.000221876
0.0342497
-0.000215588
0.0342773
-0.000209081
0.0343052
-0.000202369
0.0343332
-0.000195439
0.0343614
-0.000188376
0.0343897
-0.000181237
0.0344177
-0.000173617
0.0344454
-0.000165889
0.0344729
-0.000158057
0.0344999
-0.000150042
0.0345264
-0.000141845
0.0345522
-0.000133461
0.0345772
-0.000124887
0.0346014
-0.000116135
0.0346246
-0.000107198
0.0346469
-9.80755e-05
0.0346682
-8.87713e-05
0.0346884
-7.92869e-05
0.0347076
-6.96213e-05
0.0347258
-5.97878e-05
0.0347429
-4.98201e-05
0.0347589
-3.96998e-05
0.0347743
-2.93939e-05
0.0347885
-1.89521e-05
0.0348015
-9.5482e-06
0.0348141
1.40198e-06
0.0348258
1.20116e-05
0.0348368
2.26665e-05
0.0348471
3.33322e-05
0.0348568
4.39956e-05
0.0348659
5.46347e-05
0.0348745
6.52482e-05
0.0348826
7.5792e-05
0.0348903
8.62464e-05
0.0348976
9.65892e-05
0.0349046
0.000106788
0.0349113
0.000116862
0.0349178
0.000126798
0.0349242
0.000136555
0.0349305
0.000146167
0.0349369
0.000155627
0.0349433
0.000164888
0.0349499
0.000174018
0.0349566
0.000182981
0.0349637
0.00019177
0.0349715
0.000200392
0.03498
0.000208779
0.0349894
0.000216942
0.0349998
0.000224871
0.0350115
0.000232554
0.0350247
0.000239947
0.0350395
0.000247054
0.0350563
0.000253835
0.0350752
0.000260345
0.0350964
0.00026656
0.0351201
0.00027242
0.0351465
0.000277916
0.0351755
0.000283087
0.0352071
0.000287976
0.0352415
0.000292615
0.0352786
0.000297004
0.0353184
0.000301135
0.035361
0.000304994
0.0354065
0.000308532
0.0354547
0.000311736
0.0355057
0.000314608
0.0355593
0.000317052
0.0356155
0.000319
0.0356741
0.000320358
0.035735
0.000321509
0.0357982
0.000322808
0.0358636
0.000323863
0.0359311
0.00032474
0.0360006
0.000325496
0.036072
0.000326115
0.0361454
0.000326551
0.0362206
0.000326801
0.0362975
0.000326883
0.0363763
0.000326827
0.0364566
0.000326634
0.0365387
0.000326121
0.0366223
0.000325493
0.0367075
0.000324749
0.0367941
0.000323899
0.0368822
0.000322963
0.0369715
0.000321935
0.0370621
0.000320657
0.0371537
0.000319213
0.0372463
0.000317616
0.0373398
0.000315859
0.0374339
0.000313942
0.0375286
0.000311885
0.0376236
0.000309682
0.0377186
0.000307302
0.0378136
0.000304725
0.0379082
0.000301945
0.0380023
0.000298936
0.0380955
0.000295676
0.0381877
0.00029215
0.0382787
0.000288345
0.0383684
0.000284237
0.038457
0.000279782
0.0385449
0.000274957
0.0386327
0.000269735
0.0387216
0.000264065
0.0388131
0.000257897
0.0389093
0.000251154
0.039013
0.000243798
0.0391276
0.000235777
0.0392569
0.000226939
0.0394053
0.000217449
0.0395843
0.000205993
0.0398055
0.000193759
0.0400795
0.000181718
0.0404188
0.000167008
0.0408359
0.000152636
0.0413422
0.000137467
0.0419473
0.000122037
0.042659
0.000106324
0.0434837
9.0484e-05
0.0444255
7.47067e-05
0.0454864
5.92223e-05
0.0466657
4.42204e-05
0.0479607
2.9894e-05
0.0493665
1.63171e-05
0.0508764
3.4845e-06
0.0524829
-8.26754e-06
0.0541767
-1.91588e-05
0.0559483
-2.78259e-05
0.057787
-3.62813e-05
0.0596819
-4.3606e-05
0.061622
-4.99585e-05
0.063596
-5.52628e-05
0.0655931
-5.93906e-05
0.0676025
-6.25923e-05
0.0696138
-6.56095e-05
0.071617
-6.8603e-05
0.0736022
-7.18469e-05
0.0755597
-7.47817e-05
0.0774802
-7.74707e-05
0.0793547
-8.00356e-05
0.0811747
-8.25013e-05
0.0829323
-8.50121e-05
0.0846202
-8.76093e-05
0.0862313
-8.98495e-05
0.0877599
-9.36262e-05
0.0892
-9.69963e-05
0.0905468
-9.9063e-05
0.0917963
-0.00010333
0.0929445
-0.000107221
0.0939882
-0.000109658
0.0949254
-0.000113798
0.0957549
-0.000117507
0.0964777
-0.000120295
0.0970969
-0.000122715
0.0976163
-0.000125901
0.0980378
-0.00013066
0.0983574
-0.000135874
0.0985769
-0.000142407
0.098709
-0.000143061
0.098773
-0.000139294
0.0987797
-0.000143497
0.0987357
-0.000153575
0.0986261
-0.000157811
0.0984568
-0.000160633
0.0982397
-0.000158686
0.097989
-0.000154827
0.0977039
-0.000149488
0.0973834
-0.000141758
0.0970431
-0.000136942
0.0966894
-0.000132661
0.0963259
-0.000128021
0.0959526
-0.000123218
0.095569
-0.000117828
0.0951742
-0.000111006
0.0947664
-0.000106662
0.094343
-0.000104456
0.0938998
-0.000102153
0.0934331
-9.9429e-05
0.0929391
-9.69619e-05
0.0924151
-9.46311e-05
0.0918585
-9.17672e-05
0.0912676
-8.85894e-05
0.0906417
-8.4366e-05
0.0899816
-7.9288e-05
0.0892897
-7.40668e-05
0.0885697
-6.73467e-05
0.0878263
-5.87194e-05
0.0870651
-4.8251e-05
0.0862927
-3.57174e-05
0.0855159
-2.08936e-05
0.0847416
-3.81991e-06
0.0839766
1.55142e-05
0.0832278
3.6572e-05
0.0825015
5.93041e-05
0.0818042
8.28638e-05
0.0811411
0.000107116
0.080517
0.000133385
0.0799355
0.000159241
0.0793994
0.000183337
0.0789104
0.00020759
0.0784694
0.000235106
0.0780769
0.000263857
0.0777336
0.000289155
0.0774391
0.000309901
0.0771919
0.00032814
0.0769884
0.00034515
0.0768237
0.00036051
0.0766937
0.000373737
0.076596
0.000385535
0.07653
0.00039684
0.076496
0.000406219
0.0764937
0.000406711
0.0765167
0.000412622
0.0765664
0.000412834
0.0766446
0.000412607
0.0767494
0.000408699
0.0768804
0.000402359
0.0770396
0.000394018
0.0772295
0.00038425
0.0774482
0.000373929
0.0776932
0.000363238
0.0779667
0.000352094
0.0782739
0.000340723
0.0786153
0.000329596
0.0789889
0.0003187
0.0793929
0.000309333
0.0798272
0.000298792
0.0802884
0.000292567
0.0807757
0.000284687
0.0812874
0.000278609
0.0818225
0.000273419
0.0823763
0.000269497
0.0829428
0.000269214
0.0835181
0.000270154
0.0840979
0.000272401
0.0846788
0.000276061
0.0852575
0.000280824
0.0858308
0.000286991
0.0863952
0.000294601
0.0869479
0.000303378
0.0874864
0.000313329
0.0880088
0.000324268
0.0885139
0.000336057
0.0890012
0.000348434
0.0894697
0.000361515
0.0899191
0.000374398
0.0903495
0.000385881
0.0907616
0.000395501
0.0911553
0.000403782
0.0915306
0.00041117
0.0918871
0.000417456
0.0922242
0.000421623
0.0925416
0.000423018
0.0928382
0.000421674
0.093113
0.000417721
0.0933643
0.000410901
0.0935891
0.000401864
0.0937845
0.000388418
0.0939482
0.000370929
0.0940799
0.000349501
0.0941768
0.000327034
0.0942298
0.000299607
0.0942351
0.000269494
0.0942118
0.000229233
0.0941477
0.000193412
0.0940336
0.000157125
0.0938706
0.000116893
0.0936605
7.34104e-05
0.0934027
2.87983e-05
0.0930995
-1.83314e-05
0.0927516
-6.61065e-05
0.0923591
-0.000113891
0.0919239
-0.000162658
0.0914469
-0.000211833
0.0909318
-0.000259954
0.0903843
-0.000305394
0.0898079
-0.000347116
0.0892033
-0.000385063
0.0885724
-0.000419775
0.0879172
-0.000450973
0.0872425
-0.000478221
0.0865544
-0.000502151
0.0858574
-0.00052189
0.0851546
-0.000536989
0.0844512
-0.000550364
0.0837514
-0.000558381
0.083059
-0.000560726
0.0823779
-0.000558669
0.0817113
-0.000551957
0.0810626
-0.000540836
0.0804354
-0.000525609
0.0798337
-0.000506642
0.079261
-0.000483962
0.0787208
-0.000457717
0.0782152
-0.000427407
0.0777465
-0.000393197
0.0773169
-0.000355899
0.0769288
-0.000315881
0.0765838
-0.000272111
0.0762851
-0.000227714
0.0760335
-0.000178555
0.0758306
-0.000130383
0.0756792
-6.45382e-05
0.075564
2.27584e-05
9.83772e-06
-0.000618015
0.000469904
-0.00180661
0.00168423
-0.00347732
0.00239723
-0.00569017
0.00340979
-0.00849815
0.0046091
-0.0116836
0.00541976
-0.0153552
0.00662412
-0.0195253
0.00803265
-0.0240913
0.00942908
-0.0289916
0.0109026
-0.0340536
0.0120281
-0.0390779
0.012678
-0.0439447
0.0130897
-0.0483263
0.0126822
-0.0519012
0.0113742
-0.0544202
0.00934232
-0.0557777
0.00664464
-0.0559877
0.00379494
-0.0550678
0.000786571
-0.0532549
-0.00168057
-0.0507385
-0.00361674
-0.047802
-0.00681427
-0.0440392
-0.009227
-0.0401217
-0.0104452
-0.0359278
-0.0114884
-0.0312538
-0.0124892
-0.0261382
-0.0128824
-0.020595
-0.0123001
-0.0151419
-0.0128722
-0.00938229
-0.0134244
-0.00370709
-0.0129828
0.00157126
-0.0122726
0.00650056
-0.0118967
0.0111122
-0.0115133
0.0153715
-0.0108441
0.019339
-0.0100828
0.0230083
-0.00909993
0.0263212
-0.00782105
0.0292518
-0.00663504
0.0317829
-0.00557385
0.0339531
-0.00466473
0.0358284
-0.00395258
0.0374242
-0.00332733
0.0387528
-0.0027574
0.0398629
-0.00230899
0.040816
-0.00200868
0.0416432
-0.00177365
0.0423391
-0.00149931
0.0429002
-0.00120248
0.0433538
-0.000983888
0.0437385
-0.000860482
0.0440735
-0.000767148
0.0443684
-0.000673486
0.0446316
-0.000598749
0.0448654
-0.000543585
0.0450692
-0.000494607
0.0452471
-0.000451085
0.0454003
-0.000409857
0.0455275
-0.000361339
0.0456318
-0.000325532
0.0457234
-0.00030574
0.045808
-0.000304447
0.0458835
-0.000303803
0.0459455
-0.000293807
0.0459925
-0.000279715
0.0460277
-0.00027078
0.0460529
-0.000265598
0.0460703
-0.000264132
0.0460836
-0.000267752
0.0460954
-0.000272991
0.0461059
-0.000276357
0.0461155
-0.00027943
0.0461246
-0.00028319
0.0461334
-0.000287598
0.0461419
-0.000291998
0.0461497
-0.000296114
0.046157
-0.000300507
0.0461639
-0.000305142
0.0461707
-0.000309764
0.0461775
-0.000314278
0.0461844
-0.000318447
0.0461918
-0.00032243
0.0461997
-0.000326454
0.0462083
-0.000330398
0.0462173
-0.000334191
0.0462269
-0.000337847
0.0462371
-0.000341394
0.0462478
-0.000344825
0.0462591
-0.000348038
0.0462711
-0.000351032
0.0462837
-0.000353898
0.046297
-0.000356688
0.0463112
-0.000359406
0.0463263
-0.00036201
0.0463425
-0.0003646
0.0463597
-0.000367179
0.0463781
-0.000369728
0.0463975
-0.000372255
0.0464179
-0.000374766
0.0464392
-0.000377262
0.0464614
-0.000379741
0.0464844
-0.000382208
0.0465081
-0.000384648
0.0465324
-0.000387026
0.0465573
-0.000389414
0.0465828
-0.000391752
0.0466088
-0.000394049
0.0466353
-0.000396336
0.0466624
-0.000398601
0.0466899
-0.000400832
0.0467177
-0.000403048
0.0467459
-0.000405235
0.0467743
-0.000407436
0.0468027
-0.000409705
0.0468311
-0.000411972
0.0468592
-0.000414224
0.0468868
-0.000416473
0.0469139
-0.00041873
0.0469403
-0.000421006
0.0469658
-0.0004233
0.0469904
-0.000425614
0.047014
-0.00042794
0.0470365
-0.000430276
0.0470579
-0.000432618
0.0470781
-0.000434952
0.0470971
-0.000437247
0.0471148
-0.000439517
0.0471313
-0.000441708
0.0471466
-0.000443905
0.0471606
-0.000445993
0.0471734
-0.000448046
0.047185
-0.000450039
0.0471955
-0.000451943
0.0472047
-0.000453812
0.0472128
-0.000455641
0.0472198
-0.000457445
0.0472258
-0.00045921
0.0472306
-0.000460919
0.0472346
-0.000462513
0.0472375
-0.000463993
0.0472395
-0.000465438
0.0472406
-0.000466888
0.0472407
-0.000468301
0.0472402
-0.00046963
0.0472389
-0.000470865
0.0472368
-0.00047204
0.0472339
-0.000473122
0.0472303
-0.000474193
0.0472262
-0.000475222
0.0472215
-0.000475957
0.0472163
-0.000476731
0.0472109
-0.000477448
0.0472051
-0.000477893
0.0471993
-0.000478299
0.0471934
-0.000478616
0.0471875
-0.000478785
0.0471818
-0.000478798
0.0471764
-0.000478682
0.0471713
-0.00047841
0.0471667
-0.000477955
0.0471626
-0.000477498
0.0471591
-0.000476831
0.0471564
-0.000476013
0.0471544
-0.000475053
0.0471534
-0.000473916
0.0471532
-0.000472594
0.0471538
-0.000471113
0.0471554
-0.000469478
0.047158
-0.000467629
0.0471615
-0.000465564
0.047166
-0.000463234
0.0471715
-0.000460651
0.0471778
-0.000457833
0.047185
-0.000454771
0.0471931
-0.000451458
0.047202
-0.000447879
0.0472117
-0.000444023
0.0472223
-0.000439885
0.0472338
-0.000435458
0.047246
-0.000430713
0.0472591
-0.000425688
0.047273
-0.000420299
0.0472876
-0.000414587
0.0473031
-0.000408563
0.0473194
-0.000402305
0.0473363
-0.000395646
0.047354
-0.000388599
0.0473724
-0.000381294
0.0473916
-0.000373751
0.0474113
-0.000365865
0.0474315
-0.0003576
0.0474522
-0.000349076
0.0474733
-0.000340273
0.0474949
-0.000331181
0.0475167
-0.000321765
0.0475388
-0.00031202
0.0475611
-0.000301977
0.0475836
-0.000291653
0.047606
-0.000281009
0.0476284
-0.000270241
0.0476506
-0.000258939
0.0476726
-0.000247408
0.0476942
-0.000235642
0.0477153
-0.000223553
0.0477357
-0.00021117
0.0477555
-0.000198488
0.0477744
-0.000185512
0.0477924
-0.000172267
0.0478094
-0.00015875
0.0478254
-0.000144976
0.0478403
-0.000130967
0.0478542
-0.000116731
0.0478669
-0.000102276
0.0478785
-8.76293e-05
0.047889
-7.27973e-05
0.0478984
-5.77933e-05
0.0479068
-4.26536e-05
0.047914
-2.73938e-05
0.0479205
-1.18063e-05
0.0479261
3.82787e-06
0.0479308
1.96211e-05
0.0479347
3.54518e-05
0.0479379
5.13009e-05
0.0479404
6.71414e-05
0.0479422
8.29408e-05
0.0479434
9.86602e-05
0.047944
0.000114275
0.047944
0.000129742
0.0479437
0.000145023
0.0479429
0.000160117
0.0479418
0.000174988
0.0479404
0.000189655
0.0479388
0.000204107
0.047937
0.000218302
0.0479352
0.000232249
0.0479336
0.000245971
0.0479321
0.000259417
0.0479307
0.000272726
0.0479295
0.000285744
0.047929
0.000298445
0.0479293
0.000310965
0.0479304
0.000323134
0.0479325
0.000334936
0.0479357
0.000346365
0.0479404
0.00035741
0.0479466
0.000368025
0.0479547
0.000378207
0.0479647
0.00038797
0.047977
0.000397317
0.0479918
0.000406179
0.0480091
0.000414522
0.0480292
0.000422366
0.048052
0.000429772
0.0480775
0.000436773
0.0481056
0.000443379
0.0481365
0.000449578
0.0481702
0.000455308
0.0482065
0.000460503
0.0482456
0.000465158
0.0482873
0.000469263
0.0483315
0.000472799
0.0483783
0.000475786
0.0484275
0.00047826
0.0484791
0.000480507
0.048533
0.000482701
0.0485892
0.000484544
0.0486474
0.000486028
0.0487078
0.000487109
0.04877
0.000488112
0.0488342
0.00048888
0.0489001
0.000489391
0.0489678
0.000489677
0.0490373
0.000489829
0.0491083
0.000489777
0.049181
0.000489137
0.0492552
0.000488325
0.0493308
0.000487319
0.0494079
0.00048611
0.0494863
0.000484704
0.0495659
0.000483116
0.0496467
0.00048131
0.0497285
0.000479279
0.0498111
0.000477029
0.0498946
0.000474547
0.0499787
0.000471829
0.0500632
0.000468902
0.0501479
0.000465758
0.0502327
0.000462357
0.0503173
0.000458667
0.0504015
0.000454679
0.050485
0.000450364
0.0505675
0.000445686
0.050649
0.00044061
0.0507291
0.000435118
0.0508078
0.000429184
0.0508852
0.00042276
0.0509618
0.000415812
0.0510381
0.000408315
0.0511152
0.000400231
0.0511947
0.000391514
0.0512786
0.000382063
0.0513695
0.000371828
0.051471
0.000360763