/*--------------------------------*- C++ -*----------------------------------*\
| =========                 |                                                 |
| \\      /  F ield         | OpenFOAM: The Open Source CFD Toolbox           |
|  \\    /   O peration     | Version:  v1812                                 |
|   \\  /    A nd           | Web:      www.OpenFOAM.com                      |
|    \\/     M anipulation  |                                                 |
\*---------------------------------------------------------------------------*/
FoamFile
{
    version     2.0;
    format      ascii;
    class       volScalarField;
    location    "0.1";
    object      rho;
}
// * * * * * * * * * * * * * * * * * * * * * * * * * * * * * * * * * * * * * //

dimensions      [1 -3 0 0 0 0 0];


internalField   nonuniform List<scalar> 
20400
(
1.26567
1.26559
1.26568
1.26558
1.26551
1.26548
1.26535
1.26525
1.26513
1.26498
1.26487
1.26478
1.26466
1.26458
1.26454
1.26451
1.26458
1.26472
1.26478
1.26465
1.26527
1.26572
1.26629
1.26663
1.26702
1.26747
1.26812
1.26879
1.269
1.26926
1.26948
1.26969
1.26988
1.27002
1.27008
1.27013
1.27018
1.27019
1.27019
1.27018
1.27017
1.27015
1.27012
1.27009
1.27005
1.27002
1.26999
1.26996
1.26992
1.26988
1.26984
1.2698
1.26977
1.26973
1.2697
1.26967
1.26964
1.26961
1.26958
1.26955
1.26952
1.26949
1.26947
1.26944
1.26941
1.26939
1.26936
1.26934
1.26931
1.26929
1.26926
1.26924
1.26921
1.26919
1.26916
1.26914
1.26912
1.26909
1.26907
1.26904
1.26902
1.269
1.26898
1.26896
1.26895
1.26893
1.26892
1.2689
1.26889
1.26888
1.26887
1.26886
1.26885
1.26884
1.26883
1.26883
1.26882
1.26882
1.26882
1.26882
1.26881
1.26881
1.26881
1.26881
1.26881
1.26882
1.26882
1.26882
1.26882
1.26883
1.26883
1.26883
1.26884
1.26884
1.26884
1.26885
1.26885
1.26885
1.26885
1.26885
1.26885
1.26884
1.26884
1.26883
1.26882
1.26881
1.26879
1.26878
1.26876
1.26874
1.26871
1.26869
1.26866
1.26863
1.2686
1.26856
1.26852
1.26849
1.26845
1.2684
1.26836
1.26832
1.26827
1.26822
1.26818
1.26813
1.26808
1.26803
1.26798
1.26793
1.26787
1.26782
1.26777
1.26771
1.26766
1.2676
1.26755
1.26749
1.26744
1.26738
1.26732
1.26727
1.26721
1.26716
1.2671
1.26705
1.267
1.26694
1.26689
1.26684
1.2668
1.26675
1.2667
1.26666
1.26661
1.26657
1.26653
1.26649
1.26645
1.26641
1.26638
1.26634
1.2663
1.26627
1.26624
1.2662
1.26617
1.26614
1.26611
1.26608
1.26606
1.26603
1.266
1.26598
1.26596
1.26594
1.26592
1.2659
1.26588
1.26586
1.26584
1.26583
1.26581
1.2658
1.26578
1.26577
1.26575
1.26574
1.26572
1.26571
1.26569
1.26568
1.26566
1.26565
1.26563
1.26561
1.2656
1.26558
1.26556
1.26555
1.26553
1.26552
1.2655
1.26549
1.26548
1.26546
1.26545
1.26544
1.26543
1.26543
1.26542
1.26541
1.26541
1.2654
1.2654
1.2654
1.2654
1.2654
1.2654
1.2654
1.26541
1.26541
1.26542
1.26543
1.26545
1.26546
1.26548
1.26551
1.26553
1.26556
1.2656
1.26563
1.26567
1.26572
1.26577
1.26582
1.26587
1.26593
1.266
1.26606
1.26614
1.26621
1.26629
1.26636
1.26645
1.26653
1.26662
1.26671
1.2668
1.2669
1.26699
1.26709
1.26719
1.2673
1.2674
1.26751
1.26761
1.26772
1.26783
1.26795
1.26806
1.26818
1.26829
1.26841
1.26853
1.26864
1.26876
1.26888
1.269
1.26912
1.26924
1.26935
1.26947
1.26958
1.2697
1.26981
1.26992
1.27002
1.27012
1.27022
1.2703
1.27037
1.27042
1.27046
1.27046
1.27044
1.27036
1.27022
1.27
1.26969
1.26928
1.26875
1.26809
1.26729
1.26635
1.26526
1.26402
1.26263
1.2611
1.25942
1.25762
1.25569
1.25365
1.25151
1.24928
1.24698
1.24461
1.24219
1.23973
1.23725
1.23476
1.23227
1.22978
1.22733
1.2249
1.22253
1.22021
1.21795
1.21578
1.21369
1.21169
1.20979
1.20799
1.20631
1.20475
1.2033
1.20198
1.20078
1.1997
1.19874
1.19789
1.19715
1.19653
1.19602
1.19559
1.19524
1.19496
1.19474
1.19459
1.19449
1.19445
1.19444
1.19447
1.19454
1.19462
1.19471
1.19481
1.19492
1.19504
1.19519
1.19535
1.19555
1.19578
1.19606
1.19638
1.19675
1.19718
1.19767
1.19821
1.19881
1.19946
1.20016
1.20089
1.20166
1.20246
1.20327
1.20408
1.20489
1.20569
1.20647
1.20721
1.20792
1.20859
1.20922
1.20979
1.21032
1.21079
1.21122
1.2116
1.21193
1.21223
1.21248
1.21271
1.21291
1.21308
1.21324
1.21337
1.21349
1.21359
1.21368
1.21375
1.2138
1.21385
1.21387
1.21388
1.21387
1.21385
1.2138
1.21373
1.21363
1.21351
1.21336
1.21319
1.21299
1.21277
1.21254
1.21228
1.21201
1.21173
1.21144
1.21114
1.21084
1.21054
1.21024
1.20994
1.20964
1.20935
1.20905
1.20877
1.20848
1.2082
1.20792
1.20763
1.20734
1.20705
1.20675
1.20645
1.20613
1.20581
1.20549
1.20516
1.20483
1.20449
1.20416
1.20383
1.20352
1.2032
1.20291
1.20263
1.20237
1.20213
1.20192
1.20173
1.20157
1.20143
1.20132
1.20123
1.20118
1.20115
1.20114
1.20115
1.20118
1.20123
1.20128
1.20135
1.20144
1.20153
1.20163
1.20173
1.20184
1.20195
1.20206
1.20217
1.20228
1.20238
1.20249
1.20259
1.2027
1.20279
1.20288
1.20297
1.20305
1.20312
1.20318
1.20324
1.20328
1.20332
1.20334
1.20335
1.20325
1.26591
1.26572
1.26587
1.26581
1.26577
1.26575
1.26566
1.26559
1.26551
1.26539
1.26529
1.2652
1.26507
1.26499
1.26495
1.26491
1.26493
1.26498
1.26526
1.26577
1.26609
1.26653
1.26695
1.26715
1.2674
1.26769
1.268
1.26809
1.26844
1.26901
1.26918
1.26934
1.26954
1.26976
1.26995
1.27011
1.27022
1.27026
1.27029
1.2703
1.2703
1.27028
1.27027
1.27025
1.27022
1.2702
1.27018
1.27016
1.27013
1.27009
1.27006
1.27003
1.26999
1.26996
1.26992
1.26989
1.26985
1.26982
1.26978
1.26975
1.26972
1.26969
1.26966
1.26963
1.26961
1.26958
1.26956
1.26953
1.2695
1.26948
1.26945
1.26943
1.26941
1.26938
1.26936
1.26933
1.26931
1.26928
1.26926
1.26924
1.26921
1.26919
1.26917
1.26915
1.26913
1.26912
1.2691
1.26908
1.26907
1.26905
1.26904
1.26903
1.26902
1.26901
1.269
1.26899
1.26899
1.26898
1.26898
1.26898
1.26898
1.26898
1.26898
1.26898
1.26898
1.26898
1.26898
1.26899
1.26899
1.26899
1.26899
1.269
1.269
1.269
1.269
1.26901
1.26901
1.26901
1.26901
1.26901
1.26901
1.269
1.269
1.26899
1.26898
1.26897
1.26896
1.26895
1.26893
1.26891
1.26889
1.26887
1.26884
1.26882
1.26879
1.26875
1.26872
1.26868
1.26865
1.26861
1.26856
1.26852
1.26848
1.26843
1.26838
1.26833
1.26828
1.26823
1.26818
1.26813
1.26807
1.26802
1.26796
1.26791
1.26786
1.2678
1.26775
1.26769
1.26764
1.26758
1.26753
1.26747
1.26742
1.26737
1.26731
1.26726
1.26721
1.26716
1.26711
1.26706
1.26701
1.26696
1.26691
1.26687
1.26682
1.26678
1.26674
1.2667
1.26666
1.26662
1.26658
1.26655
1.26651
1.26648
1.26645
1.26642
1.26639
1.26636
1.26633
1.2663
1.26627
1.26625
1.26622
1.2662
1.26618
1.26616
1.26614
1.26612
1.2661
1.26608
1.26606
1.26605
1.26603
1.26601
1.266
1.26599
1.26597
1.26596
1.26594
1.26593
1.26591
1.2659
1.26589
1.26587
1.26586
1.26584
1.26583
1.26581
1.2658
1.26578
1.26577
1.26575
1.26574
1.26572
1.26571
1.2657
1.26569
1.26568
1.26567
1.26566
1.26565
1.26564
1.26564
1.26563
1.26563
1.26563
1.26563
1.26563
1.26563
1.26563
1.26564
1.26565
1.26566
1.26567
1.26568
1.2657
1.26572
1.26574
1.26577
1.2658
1.26583
1.26587
1.26591
1.26595
1.266
1.26605
1.26611
1.26617
1.26623
1.2663
1.26637
1.26644
1.26652
1.2666
1.26668
1.26676
1.26685
1.26694
1.26703
1.26713
1.26723
1.26732
1.26743
1.26753
1.26763
1.26774
1.26785
1.26796
1.26807
1.26818
1.26829
1.26841
1.26853
1.26864
1.26876
1.26888
1.269
1.26911
1.26923
1.26935
1.26947
1.26959
1.2697
1.26982
1.26993
1.27004
1.27015
1.27025
1.27035
1.27045
1.27053
1.2706
1.27065
1.27069
1.2707
1.27067
1.27059
1.27045
1.27023
1.26993
1.26951
1.26898
1.26832
1.26753
1.26658
1.26549
1.26425
1.26287
1.26133
1.25966
1.25786
1.25593
1.25389
1.25175
1.24952
1.24722
1.24486
1.24244
1.23999
1.23751
1.23502
1.23253
1.23005
1.2276
1.22518
1.22281
1.2205
1.21825
1.21608
1.214
1.21201
1.21012
1.20834
1.20668
1.20513
1.2037
1.2024
1.20122
1.20016
1.19923
1.19841
1.1977
1.1971
1.19661
1.19621
1.19589
1.19562
1.19543
1.1953
1.19523
1.19521
1.19522
1.19526
1.19534
1.19543
1.19553
1.19565
1.19577
1.19591
1.19607
1.19625
1.19646
1.1967
1.19698
1.19732
1.1977
1.19814
1.19864
1.19919
1.1998
1.20046
1.20117
1.20192
1.2027
1.20351
1.20432
1.20514
1.20596
1.20676
1.20754
1.20829
1.209
1.20967
1.21029
1.21087
1.21139
1.21187
1.2123
1.21267
1.21301
1.2133
1.21356
1.21378
1.21398
1.21415
1.2143
1.21443
1.21455
1.21465
1.21474
1.2148
1.21486
1.2149
1.21493
1.21493
1.21492
1.2149
1.21485
1.21478
1.21468
1.21455
1.2144
1.21423
1.21403
1.21381
1.21357
1.21332
1.21305
1.21277
1.21248
1.21218
1.21188
1.21158
1.21128
1.21098
1.21068
1.21039
1.21011
1.20982
1.20954
1.20926
1.20899
1.20871
1.20842
1.20814
1.20785
1.20755
1.20724
1.20693
1.20661
1.20628
1.20596
1.20563
1.2053
1.20498
1.20466
1.20435
1.20406
1.20377
1.20352
1.20328
1.20307
1.20288
1.20272
1.20258
1.20247
1.20239
1.20233
1.2023
1.20229
1.2023
1.20234
1.20238
1.20244
1.20252
1.2026
1.2027
1.2028
1.20291
1.20303
1.20314
1.20326
1.20338
1.20349
1.20361
1.20372
1.20384
1.20395
1.20405
1.20415
1.20425
1.20434
1.20442
1.20449
1.20456
1.20461
1.20466
1.20468
1.20472
1.20459
1.26571
1.26561
1.26569
1.26559
1.26552
1.26549
1.26537
1.26527
1.26517
1.26505
1.26497
1.26489
1.26479
1.26474
1.26475
1.26481
1.265
1.26524
1.2655
1.26581
1.26629
1.26672
1.26705
1.26722
1.26749
1.26778
1.26803
1.26838
1.26848
1.26891
1.26921
1.26948
1.26974
1.26997
1.27014
1.27029
1.27043
1.2705
1.27054
1.27055
1.27055
1.27054
1.27052
1.27049
1.27045
1.27042
1.2704
1.27037
1.27033
1.2703
1.27027
1.27024
1.27021
1.27019
1.27016
1.27013
1.2701
1.27007
1.27005
1.27002
1.26999
1.26996
1.26993
1.2699
1.26987
1.26984
1.26981
1.26978
1.26975
1.26973
1.2697
1.26968
1.26965
1.26963
1.2696
1.26958
1.26956
1.26954
1.26951
1.26949
1.26947
1.26945
1.26943
1.26941
1.26939
1.26937
1.26935
1.26933
1.26932
1.2693
1.26929
1.26927
1.26926
1.26925
1.26924
1.26923
1.26922
1.26921
1.26921
1.26921
1.2692
1.2692
1.2692
1.26921
1.26921
1.26921
1.26921
1.26921
1.26922
1.26922
1.26922
1.26922
1.26923
1.26923
1.26923
1.26923
1.26923
1.26923
1.26923
1.26923
1.26923
1.26923
1.26922
1.26921
1.26921
1.2692
1.26919
1.26917
1.26916
1.26914
1.26912
1.2691
1.26908
1.26905
1.26903
1.269
1.26897
1.26893
1.2689
1.26886
1.26882
1.26878
1.26874
1.26869
1.26865
1.2686
1.26855
1.2685
1.26844
1.26839
1.26834
1.26828
1.26823
1.26817
1.26812
1.26806
1.268
1.26795
1.2679
1.26784
1.26779
1.26773
1.26768
1.26763
1.26758
1.26753
1.26748
1.26743
1.26738
1.26733
1.26728
1.26723
1.26719
1.26714
1.2671
1.26705
1.26701
1.26697
1.26693
1.26689
1.26685
1.26682
1.26678
1.26675
1.26672
1.26669
1.26666
1.26663
1.2666
1.26658
1.26655
1.26653
1.2665
1.26648
1.26646
1.26644
1.26642
1.2664
1.26638
1.26636
1.26634
1.26633
1.26631
1.26629
1.26628
1.26626
1.26625
1.26624
1.26622
1.26621
1.26619
1.26618
1.26617
1.26615
1.26614
1.26612
1.26611
1.26609
1.26608
1.26607
1.26605
1.26604
1.26603
1.26601
1.266
1.26599
1.26598
1.26596
1.26595
1.26594
1.26593
1.26593
1.26592
1.26591
1.26591
1.26591
1.2659
1.2659
1.2659
1.26591
1.26591
1.26592
1.26593
1.26594
1.26595
1.26597
1.26599
1.26601
1.26604
1.26607
1.2661
1.26613
1.26617
1.26622
1.26626
1.26631
1.26637
1.26643
1.26649
1.26655
1.26662
1.2667
1.26677
1.26685
1.26693
1.26702
1.2671
1.26719
1.26729
1.26738
1.26748
1.26758
1.26768
1.26778
1.26788
1.26799
1.2681
1.26821
1.26832
1.26843
1.26855
1.26866
1.26878
1.26889
1.26901
1.26913
1.26924
1.26936
1.26948
1.2696
1.26971
1.26983
1.26995
1.27006
1.27017
1.27028
1.27039
1.2705
1.2706
1.27069
1.27077
1.27084
1.27089
1.27093
1.27094
1.27091
1.27083
1.27069
1.27048
1.27017
1.26976
1.26923
1.26857
1.26777
1.26683
1.26573
1.26449
1.2631
1.26156
1.25989
1.25808
1.25615
1.25411
1.25196
1.24973
1.24742
1.24505
1.24263
1.24017
1.23769
1.23519
1.2327
1.23021
1.22775
1.22533
1.22296
1.22064
1.21839
1.21622
1.21413
1.21214
1.21025
1.20847
1.2068
1.20525
1.20382
1.20252
1.20135
1.20029
1.19936
1.19855
1.19785
1.19726
1.19678
1.19639
1.19607
1.19581
1.19562
1.19551
1.19545
1.19543
1.19545
1.1955
1.19559
1.19569
1.1958
1.19592
1.19605
1.19619
1.19636
1.19654
1.19675
1.197
1.1973
1.19763
1.19802
1.19847
1.19897
1.19953
1.20015
1.20081
1.20153
1.20228
1.20306
1.20387
1.20469
1.20552
1.20633
1.20714
1.20792
1.20867
1.20938
1.21006
1.21068
1.21126
1.21179
1.21227
1.2127
1.21308
1.21342
1.21372
1.21398
1.2142
1.21441
1.21458
1.21474
1.21488
1.215
1.2151
1.21519
1.21526
1.21532
1.21536
1.21539
1.2154
1.21539
1.21537
1.21532
1.21524
1.21514
1.21502
1.21487
1.21469
1.21449
1.21427
1.21403
1.21378
1.21351
1.21323
1.21294
1.21264
1.21234
1.21204
1.21173
1.21144
1.21114
1.21085
1.21057
1.21028
1.21
1.20973
1.20945
1.20917
1.20889
1.20861
1.20832
1.20802
1.20772
1.20741
1.2071
1.20678
1.20646
1.20614
1.20581
1.2055
1.20519
1.20488
1.2046
1.20432
1.20407
1.20384
1.20363
1.20344
1.20328
1.20315
1.20304
1.20296
1.20291
1.20288
1.20287
1.20289
1.20292
1.20297
1.20304
1.20311
1.20321
1.20331
1.20342
1.20353
1.20365
1.20377
1.2039
1.20402
1.20415
1.20427
1.20439
1.20451
1.20463
1.20474
1.20485
1.20495
1.20505
1.20513
1.20521
1.20528
1.20534
1.2054
1.20541
1.20546
1.20533
1.26583
1.26576
1.26585
1.26575
1.26567
1.26565
1.26552
1.26541
1.2653
1.26517
1.26507
1.26501
1.26495
1.26501
1.26526
1.26571
1.26639
1.26721
1.26803
1.26881
1.26971
1.27046
1.27103
1.271
1.27097
1.27084
1.2706
1.27039
1.26996
1.26979
1.26981
1.26995
1.27012
1.27027
1.27037
1.27047
1.27057
1.27061
1.27065
1.27067
1.27068
1.27067
1.27066
1.27064
1.27061
1.2706
1.27058
1.27056
1.27053
1.27049
1.27046
1.27043
1.2704
1.27036
1.27033
1.27029
1.27026
1.27023
1.2702
1.27017
1.27014
1.27012
1.27009
1.27007
1.27005
1.27002
1.27
1.26997
1.26995
1.26992
1.2699
1.26987
1.26984
1.26982
1.26979
1.26977
1.26975
1.26972
1.2697
1.26968
1.26966
1.26963
1.26961
1.26959
1.26957
1.26955
1.26954
1.26952
1.2695
1.26948
1.26947
1.26945
1.26944
1.26943
1.26942
1.2694
1.2694
1.26939
1.26938
1.26938
1.26937
1.26937
1.26937
1.26937
1.26937
1.26938
1.26938
1.26938
1.26938
1.26939
1.26939
1.26939
1.26939
1.2694
1.2694
1.2694
1.2694
1.2694
1.2694
1.2694
1.26939
1.26939
1.26938
1.26938
1.26937
1.26936
1.26935
1.26933
1.26932
1.2693
1.26929
1.26927
1.26925
1.26922
1.2692
1.26917
1.26914
1.26911
1.26908
1.26904
1.269
1.26896
1.26892
1.26888
1.26883
1.26879
1.26874
1.26869
1.26864
1.26858
1.26853
1.26847
1.26842
1.26836
1.26831
1.26825
1.26819
1.26814
1.26808
1.26803
1.26798
1.26792
1.26787
1.26782
1.26777
1.26772
1.26767
1.26762
1.26758
1.26753
1.26748
1.26743
1.26739
1.26734
1.2673
1.26725
1.26721
1.26717
1.26713
1.26709
1.26705
1.26702
1.26698
1.26695
1.26692
1.26689
1.26686
1.26683
1.26681
1.26678
1.26676
1.26673
1.26671
1.26669
1.26667
1.26665
1.26663
1.26661
1.26659
1.26657
1.26655
1.26654
1.26652
1.2665
1.26649
1.26647
1.26646
1.26645
1.26643
1.26642
1.2664
1.26639
1.26638
1.26636
1.26635
1.26633
1.26632
1.26631
1.26629
1.26628
1.26626
1.26625
1.26623
1.26622
1.26621
1.2662
1.26618
1.26617
1.26616
1.26615
1.26614
1.26613
1.26612
1.26611
1.2661
1.2661
1.2661
1.26609
1.26609
1.26609
1.2661
1.2661
1.26611
1.26612
1.26613
1.26615
1.26616
1.26618
1.26621
1.26624
1.26627
1.2663
1.26634
1.26638
1.26643
1.26648
1.26653
1.26659
1.26665
1.26671
1.26678
1.26685
1.26692
1.267
1.26708
1.26716
1.26725
1.26734
1.26743
1.26752
1.26762
1.26772
1.26782
1.26792
1.26802
1.26813
1.26823
1.26834
1.26845
1.26856
1.26868
1.26879
1.26891
1.26902
1.26914
1.26925
1.26937
1.26949
1.2696
1.26972
1.26983
1.26995
1.27006
1.27018
1.27029
1.2704
1.2705
1.2706
1.2707
1.27079
1.27087
1.27094
1.27099
1.27103
1.27104
1.27101
1.27093
1.27079
1.27058
1.27027
1.26985
1.26932
1.26866
1.26786
1.26691
1.26582
1.26457
1.26318
1.26164
1.25996
1.25815
1.25621
1.25417
1.25202
1.24978
1.24747
1.2451
1.24268
1.24022
1.23773
1.23523
1.23273
1.23024
1.22778
1.22535
1.22297
1.22065
1.2184
1.21623
1.21414
1.21215
1.21026
1.20848
1.20682
1.20527
1.20384
1.20254
1.20137
1.20032
1.19939
1.19858
1.19788
1.1973
1.19681
1.19643
1.19611
1.19585
1.19567
1.19556
1.1955
1.19548
1.1955
1.19556
1.19565
1.19576
1.19588
1.196
1.19614
1.19629
1.19646
1.19665
1.19687
1.19713
1.19743
1.19777
1.19817
1.19862
1.19913
1.19969
1.20031
1.20097
1.20169
1.20244
1.20322
1.20403
1.20485
1.20567
1.20649
1.20729
1.20807
1.20881
1.20953
1.2102
1.21082
1.2114
1.21193
1.21241
1.21284
1.21322
1.21356
1.21386
1.21412
1.21435
1.21455
1.21473
1.21489
1.21503
1.21515
1.21525
1.21534
1.21541
1.21547
1.21551
1.21554
1.21554
1.21553
1.21551
1.21546
1.21538
1.21527
1.21514
1.21499
1.21481
1.21461
1.21438
1.21414
1.21388
1.2136
1.21331
1.21301
1.2127
1.21239
1.21209
1.21178
1.21147
1.21117
1.21088
1.21059
1.2103
1.21002
1.20974
1.20946
1.20918
1.2089
1.20861
1.20832
1.20803
1.20773
1.20742
1.20711
1.2068
1.20648
1.20616
1.20584
1.20553
1.20523
1.20493
1.20465
1.20438
1.20413
1.2039
1.2037
1.20352
1.20337
1.20324
1.20314
1.20306
1.20302
1.20299
1.20299
1.20301
1.20305
1.2031
1.20317
1.20326
1.20336
1.20346
1.20358
1.2037
1.20382
1.20394
1.20407
1.2042
1.20432
1.20445
1.20457
1.20469
1.20481
1.20492
1.20502
1.20512
1.20521
1.20529
1.20537
1.20543
1.20549
1.20553
1.20555
1.20559
1.20546
1.26581
1.26575
1.26584
1.26575
1.26568
1.26566
1.26554
1.26543
1.26532
1.2652
1.26514
1.26521
1.2654
1.26597
1.26708
1.26881
1.27098
1.27326
1.27521
1.27677
1.27811
1.27924
1.28019
1.28029
1.28008
1.27953
1.27856
1.2772
1.2755
1.27373
1.27223
1.27124
1.27073
1.27054
1.2705
1.27056
1.27063
1.27065
1.27067
1.27068
1.27068
1.27069
1.27068
1.27065
1.27064
1.27062
1.27061
1.2706
1.27057
1.27055
1.27053
1.2705
1.27047
1.27045
1.27042
1.27039
1.27037
1.27034
1.27031
1.27028
1.27026
1.27023
1.2702
1.27017
1.27014
1.27011
1.27008
1.27005
1.27003
1.27
1.26997
1.26995
1.26992
1.2699
1.26988
1.26985
1.26983
1.26981
1.26979
1.26977
1.26975
1.26973
1.26971
1.26969
1.26967
1.26965
1.26963
1.26962
1.2696
1.26958
1.26957
1.26955
1.26954
1.26952
1.26951
1.2695
1.26949
1.26948
1.26947
1.26947
1.26946
1.26946
1.26946
1.26946
1.26946
1.26946
1.26946
1.26947
1.26947
1.26947
1.26948
1.26948
1.26948
1.26948
1.26948
1.26948
1.26948
1.26948
1.26948
1.26948
1.26948
1.26947
1.26947
1.26946
1.26945
1.26944
1.26943
1.26942
1.2694
1.26939
1.26937
1.26935
1.26933
1.26931
1.26928
1.26926
1.26923
1.2692
1.26917
1.26913
1.26909
1.26906
1.26901
1.26897
1.26893
1.26888
1.26883
1.26878
1.26873
1.26868
1.26863
1.26857
1.26852
1.26846
1.2684
1.26835
1.26829
1.26824
1.26818
1.26813
1.26807
1.26802
1.26797
1.26792
1.26787
1.26782
1.26778
1.26773
1.26768
1.26764
1.26759
1.26755
1.2675
1.26746
1.26741
1.26737
1.26733
1.26729
1.26725
1.26721
1.26717
1.26714
1.2671
1.26707
1.26704
1.26701
1.26698
1.26695
1.26693
1.26691
1.26688
1.26686
1.26684
1.26682
1.2668
1.26678
1.26676
1.26674
1.26672
1.26671
1.26669
1.26667
1.26666
1.26664
1.26663
1.26661
1.2666
1.26658
1.26657
1.26655
1.26654
1.26653
1.26651
1.2665
1.26648
1.26647
1.26646
1.26644
1.26643
1.26641
1.2664
1.26639
1.26637
1.26636
1.26634
1.26633
1.26632
1.2663
1.26629
1.26628
1.26627
1.26626
1.26625
1.26624
1.26623
1.26622
1.26621
1.26621
1.26621
1.26621
1.26621
1.26621
1.26621
1.26622
1.26623
1.26624
1.26626
1.26628
1.2663
1.26633
1.26635
1.26639
1.26642
1.26646
1.2665
1.26655
1.2666
1.26665
1.26671
1.26677
1.26684
1.2669
1.26698
1.26705
1.26713
1.26721
1.2673
1.26738
1.26747
1.26757
1.26766
1.26776
1.26786
1.26796
1.26806
1.26816
1.26827
1.26838
1.26849
1.2686
1.26871
1.26882
1.26893
1.26905
1.26916
1.26928
1.26939
1.26951
1.26962
1.26974
1.26985
1.26996
1.27008
1.27019
1.2703
1.2704
1.27051
1.27061
1.27071
1.27079
1.27087
1.27094
1.27099
1.27103
1.27103
1.27101
1.27093
1.27079
1.27057
1.27027
1.26985
1.26932
1.26866
1.26785
1.26691
1.26581
1.26456
1.26317
1.26162
1.25994
1.25812
1.25618
1.25413
1.25197
1.24973
1.24742
1.24504
1.24261
1.24014
1.23765
1.23514
1.23264
1.23015
1.22769
1.22527
1.22289
1.22057
1.21832
1.21615
1.21406
1.21207
1.21019
1.20841
1.20675
1.2052
1.20378
1.20248
1.20131
1.20026
1.19934
1.19853
1.19784
1.19726
1.19678
1.1964
1.19609
1.19583
1.19565
1.19554
1.19549
1.19548
1.19551
1.19558
1.19568
1.1958
1.19592
1.19605
1.1962
1.19636
1.19654
1.19674
1.19697
1.19723
1.19754
1.19789
1.19829
1.19875
1.19926
1.19982
1.20044
1.20111
1.20182
1.20257
1.20335
1.20416
1.20497
1.20579
1.2066
1.20739
1.20816
1.20891
1.20962
1.21028
1.21091
1.21148
1.21201
1.21249
1.21292
1.2133
1.21364
1.21394
1.2142
1.21443
1.21463
1.21481
1.21497
1.21512
1.21524
1.21534
1.21542
1.2155
1.21555
1.21559
1.21561
1.21561
1.2156
1.21557
1.21551
1.21543
1.21532
1.21518
1.21502
1.21483
1.21462
1.21439
1.21413
1.21386
1.21358
1.21328
1.21297
1.21266
1.21234
1.21203
1.21171
1.2114
1.21109
1.21079
1.21049
1.2102
1.20991
1.20962
1.20934
1.20905
1.20877
1.20848
1.20819
1.2079
1.2076
1.20729
1.20699
1.20668
1.20636
1.20605
1.20574
1.20543
1.20513
1.20484
1.20457
1.2043
1.20406
1.20384
1.20364
1.20346
1.2033
1.20318
1.20308
1.20301
1.20296
1.20295
1.20295
1.20298
1.20302
1.20308
1.20315
1.20324
1.20334
1.20345
1.20357
1.20369
1.20382
1.20395
1.20409
1.20422
1.20435
1.20448
1.20461
1.20473
1.20485
1.20496
1.20507
1.20516
1.20525
1.20533
1.20541
1.20547
1.20552
1.20556
1.20556
1.2056
1.20547
1.26582
1.26577
1.26587
1.26578
1.2657
1.2657
1.26559
1.26548
1.26538
1.26532
1.26545
1.26597
1.26699
1.26887
1.27168
1.27514
1.27832
1.28103
1.28284
1.2841
1.2852
1.28604
1.28717
1.28775
1.28811
1.2882
1.28783
1.28686
1.28511
1.28253
1.27937
1.27622
1.2736
1.27183
1.27093
1.27065
1.27062
1.27061
1.27062
1.27062
1.2706
1.2706
1.2706
1.27059
1.27059
1.27059
1.2706
1.27059
1.27056
1.27054
1.27052
1.2705
1.27048
1.27046
1.27043
1.27041
1.27038
1.27036
1.27033
1.27031
1.27028
1.27026
1.27023
1.2702
1.27018
1.27015
1.27013
1.2701
1.27007
1.27005
1.27002
1.27
1.26997
1.26994
1.26992
1.26989
1.26987
1.26984
1.26982
1.2698
1.26978
1.26976
1.26974
1.26972
1.2697
1.26968
1.26967
1.26965
1.26963
1.26961
1.2696
1.26958
1.26957
1.26956
1.26954
1.26953
1.26952
1.26951
1.2695
1.2695
1.26949
1.26949
1.26949
1.26949
1.26949
1.26949
1.26949
1.2695
1.2695
1.2695
1.26951
1.26951
1.26951
1.26951
1.26952
1.26952
1.26952
1.26952
1.26952
1.26951
1.26951
1.26951
1.2695
1.26949
1.26948
1.26948
1.26946
1.26945
1.26944
1.26942
1.2694
1.26939
1.26937
1.26934
1.26932
1.26929
1.26927
1.26924
1.26921
1.26917
1.26914
1.2691
1.26906
1.26902
1.26897
1.26893
1.26888
1.26883
1.26878
1.26873
1.26868
1.26862
1.26857
1.26851
1.26846
1.2684
1.26835
1.26829
1.26824
1.26819
1.26813
1.26808
1.26803
1.26798
1.26793
1.26789
1.26784
1.26779
1.26775
1.2677
1.26766
1.26762
1.26757
1.26753
1.26749
1.26745
1.2674
1.26737
1.26733
1.26729
1.26725
1.26722
1.26719
1.26715
1.26713
1.2671
1.26707
1.26704
1.26702
1.267
1.26698
1.26696
1.26693
1.26692
1.2669
1.26688
1.26686
1.26684
1.26683
1.26681
1.26679
1.26678
1.26676
1.26675
1.26673
1.26672
1.26671
1.26669
1.26668
1.26667
1.26665
1.26664
1.26663
1.26661
1.2666
1.26658
1.26657
1.26656
1.26654
1.26653
1.26651
1.2665
1.26648
1.26647
1.26645
1.26644
1.26642
1.26641
1.26639
1.26638
1.26636
1.26635
1.26634
1.26633
1.26631
1.26631
1.2663
1.26629
1.26628
1.26628
1.26628
1.26628
1.26628
1.26629
1.26629
1.2663
1.26632
1.26633
1.26635
1.26637
1.2664
1.26643
1.26646
1.2665
1.26654
1.26658
1.26663
1.26668
1.26674
1.2668
1.26686
1.26693
1.267
1.26707
1.26715
1.26723
1.26731
1.2674
1.26748
1.26758
1.26767
1.26776
1.26786
1.26796
1.26806
1.26816
1.26827
1.26838
1.26848
1.26859
1.2687
1.26881
1.26893
1.26904
1.26915
1.26927
1.26938
1.26949
1.26961
1.26972
1.26983
1.26994
1.27005
1.27016
1.27027
1.27038
1.27048
1.27058
1.27067
1.27076
1.27084
1.2709
1.27095
1.27098
1.27099
1.27097
1.27089
1.27075
1.27053
1.27022
1.2698
1.26926
1.2686
1.2678
1.26685
1.26575
1.26449
1.26309
1.26154
1.25986
1.25803
1.25609
1.25403
1.25188
1.24963
1.24731
1.24493
1.2425
1.24003
1.23754
1.23503
1.23253
1.23003
1.22757
1.22513
1.22275
1.22043
1.21818
1.216
1.21392
1.21193
1.21004
1.20827
1.2066
1.20506
1.20365
1.20235
1.20119
1.20014
1.19922
1.19843
1.19774
1.19717
1.19669
1.19631
1.196
1.19575
1.19558
1.19548
1.19543
1.19543
1.19547
1.19555
1.19566
1.19578
1.19591
1.19606
1.19621
1.19639
1.19658
1.19679
1.19704
1.19731
1.19763
1.19799
1.1984
1.19887
1.19938
1.19995
1.20058
1.20125
1.20196
1.20271
1.20349
1.20428
1.20509
1.2059
1.20671
1.2075
1.20827
1.20901
1.20971
1.21037
1.21099
1.21157
1.21209
1.21257
1.213
1.21339
1.21373
1.21403
1.2143
1.21453
1.21474
1.21492
1.21508
1.21523
1.21535
1.21545
1.21554
1.21561
1.21567
1.2157
1.21572
1.21572
1.2157
1.21567
1.2156
1.21551
1.21539
1.21524
1.21507
1.21488
1.21465
1.21441
1.21415
1.21387
1.21357
1.21326
1.21294
1.21262
1.21229
1.21196
1.21164
1.21131
1.211
1.21069
1.21038
1.21008
1.20978
1.20949
1.2092
1.20891
1.20861
1.20832
1.20803
1.20774
1.20744
1.20713
1.20683
1.20652
1.20622
1.20591
1.20561
1.20531
1.20503
1.20475
1.2045
1.20425
1.20402
1.2038
1.2036
1.20343
1.20329
1.20317
1.20308
1.20302
1.20298
1.20297
1.20298
1.203
1.20305
1.20311
1.20318
1.20327
1.20337
1.20349
1.20361
1.20374
1.20387
1.204
1.20413
1.20427
1.2044
1.20453
1.20466
1.20478
1.2049
1.20501
1.20511
1.20521
1.2053
1.20537
1.20544
1.2055
1.20554
1.20557
1.20557
1.2056
1.20547
1.26584
1.26581
1.26591
1.26582
1.26572
1.2657
1.26557
1.26543
1.26534
1.26542
1.26599
1.26747
1.26995
1.27343
1.27743
1.28061
1.28283
1.28387
1.28467
1.28525
1.28613
1.28706
1.28801
1.28902
1.28994
1.29088
1.29157
1.29189
1.29165
1.29053
1.28826
1.28485
1.28065
1.27641
1.27318
1.27147
1.27085
1.27069
1.27067
1.27066
1.27063
1.27061
1.27059
1.27056
1.27054
1.27053
1.27053
1.27052
1.27051
1.27049
1.27049
1.27048
1.27046
1.27044
1.27042
1.2704
1.27037
1.27035
1.27033
1.2703
1.27028
1.27025
1.27022
1.2702
1.27017
1.27015
1.27012
1.2701
1.27008
1.27005
1.27002
1.27
1.26997
1.26995
1.26992
1.2699
1.26987
1.26985
1.26983
1.26981
1.26979
1.26977
1.26975
1.26973
1.26971
1.2697
1.26968
1.26966
1.26965
1.26963
1.26961
1.2696
1.26958
1.26957
1.26956
1.26955
1.26954
1.26953
1.26952
1.26952
1.26951
1.26951
1.26951
1.2695
1.26951
1.26951
1.26951
1.26951
1.26952
1.26952
1.26952
1.26953
1.26953
1.26953
1.26953
1.26953
1.26954
1.26953
1.26953
1.26953
1.26953
1.26952
1.26952
1.26951
1.2695
1.26949
1.26948
1.26947
1.26946
1.26944
1.26943
1.26941
1.26939
1.26937
1.26934
1.26932
1.26929
1.26926
1.26923
1.2692
1.26916
1.26912
1.26909
1.26904
1.269
1.26896
1.26891
1.26886
1.26881
1.26876
1.26871
1.26866
1.2686
1.26855
1.2685
1.26844
1.26839
1.26833
1.26828
1.26823
1.26818
1.26813
1.26808
1.26803
1.26798
1.26794
1.26789
1.26785
1.2678
1.26776
1.26772
1.26768
1.26763
1.26759
1.26755
1.26751
1.26747
1.26744
1.2674
1.26736
1.26733
1.2673
1.26727
1.26724
1.26721
1.26718
1.26716
1.26713
1.26711
1.26709
1.26707
1.26705
1.26703
1.26702
1.267
1.26698
1.26696
1.26695
1.26693
1.26692
1.2669
1.26689
1.26687
1.26686
1.26685
1.26683
1.26682
1.26681
1.2668
1.26678
1.26677
1.26676
1.26674
1.26673
1.26672
1.2667
1.26669
1.26667
1.26666
1.26664
1.26663
1.26661
1.26659
1.26658
1.26656
1.26655
1.26653
1.26651
1.2665
1.26648
1.26647
1.26645
1.26644
1.26643
1.26641
1.2664
1.26639
1.26638
1.26637
1.26637
1.26636
1.26636
1.26636
1.26636
1.26637
1.26637
1.26638
1.2664
1.26641
1.26643
1.26645
1.26648
1.26651
1.26654
1.26658
1.26662
1.26667
1.26672
1.26677
1.26682
1.26688
1.26695
1.26702
1.26709
1.26716
1.26724
1.26732
1.2674
1.26749
1.26758
1.26767
1.26776
1.26786
1.26795
1.26805
1.26816
1.26826
1.26836
1.26847
1.26858
1.26869
1.2688
1.26891
1.26902
1.26913
1.26924
1.26935
1.26946
1.26958
1.26969
1.2698
1.26991
1.27001
1.27012
1.27023
1.27033
1.27043
1.27053
1.27062
1.2707
1.27078
1.27085
1.27089
1.27092
1.27093
1.2709
1.27082
1.27068
1.27046
1.27015
1.26973
1.26919
1.26852
1.26772
1.26676
1.26566
1.26441
1.263
1.26145
1.25976
1.25794
1.256
1.25394
1.25178
1.24953
1.2472
1.24481
1.24236
1.23988
1.23738
1.23487
1.23236
1.22987
1.2274
1.22497
1.22259
1.22027
1.21801
1.21584
1.21376
1.21177
1.20988
1.20811
1.20645
1.20492
1.2035
1.20221
1.20105
1.20001
1.1991
1.19831
1.19763
1.19706
1.19659
1.19621
1.19591
1.19566
1.1955
1.1954
1.19537
1.19537
1.19542
1.19551
1.19563
1.19576
1.19591
1.19607
1.19624
1.19643
1.19663
1.19686
1.19712
1.19741
1.19774
1.19812
1.19854
1.19901
1.19953
1.20011
1.20073
1.2014
1.20211
1.20286
1.20364
1.20443
1.20523
1.20604
1.20684
1.20762
1.20838
1.20912
1.20982
1.21048
1.2111
1.21167
1.2122
1.21267
1.21311
1.2135
1.21384
1.21415
1.21442
1.21466
1.21487
1.21505
1.21522
1.21536
1.21549
1.21559
1.21568
1.21575
1.2158
1.21584
1.21585
1.21585
1.21582
1.21578
1.21571
1.21561
1.21548
1.21532
1.21514
1.21493
1.2147
1.21444
1.21417
1.21387
1.21356
1.21324
1.21291
1.21257
1.21223
1.21189
1.21155
1.21122
1.21089
1.21056
1.21024
1.20993
1.20962
1.20932
1.20902
1.20873
1.20843
1.20814
1.20785
1.20755
1.20725
1.20695
1.20666
1.20635
1.20606
1.20576
1.20547
1.20518
1.2049
1.20463
1.20438
1.20414
1.20392
1.20372
1.20354
1.20338
1.20325
1.20314
1.20306
1.203
1.20297
1.20296
1.20297
1.20301
1.20305
1.20311
1.20319
1.20329
1.20339
1.20351
1.20363
1.20377
1.2039
1.20404
1.20418
1.20431
1.20445
1.20458
1.20471
1.20484
1.20496
1.20507
1.20517
1.20526
1.20535
1.20542
1.20548
1.20553
1.20557
1.2056
1.20558
1.2056
1.20547
1.26587
1.26586
1.26595
1.26587
1.26576
1.26573
1.26559
1.26543
1.2654
1.26578
1.26716
1.27004
1.27402
1.27813
1.28098
1.2822
1.28214
1.28218
1.28168
1.28189
1.28253
1.28385
1.28571
1.28751
1.28918
1.2906
1.29172
1.29262
1.29335
1.29366
1.29325
1.29169
1.28856
1.28387
1.27859
1.27432
1.27186
1.27091
1.2707
1.27068
1.27067
1.27066
1.27062
1.27058
1.27055
1.27053
1.27052
1.2705
1.27049
1.27047
1.27046
1.27045
1.27043
1.27041
1.27039
1.27037
1.27035
1.27033
1.27031
1.27028
1.27026
1.27023
1.27021
1.27019
1.27016
1.27014
1.27012
1.27009
1.27007
1.27004
1.27002
1.26999
1.26997
1.26994
1.26992
1.26989
1.26987
1.26985
1.26982
1.2698
1.26978
1.26976
1.26975
1.26973
1.26971
1.26969
1.26968
1.26966
1.26965
1.26963
1.26961
1.2696
1.26959
1.26957
1.26956
1.26955
1.26954
1.26953
1.26953
1.26952
1.26952
1.26951
1.26951
1.26951
1.26951
1.26951
1.26952
1.26952
1.26952
1.26953
1.26953
1.26954
1.26954
1.26954
1.26954
1.26954
1.26955
1.26954
1.26954
1.26954
1.26954
1.26954
1.26953
1.26952
1.26952
1.26951
1.2695
1.26949
1.26947
1.26946
1.26944
1.26942
1.2694
1.26938
1.26936
1.26934
1.26931
1.26928
1.26925
1.26922
1.26919
1.26915
1.26911
1.26907
1.26903
1.26899
1.26894
1.26889
1.26885
1.2688
1.26875
1.26869
1.26864
1.26859
1.26853
1.26848
1.26843
1.26838
1.26832
1.26827
1.26822
1.26817
1.26813
1.26808
1.26804
1.26799
1.26795
1.2679
1.26786
1.26782
1.26778
1.26774
1.2677
1.26766
1.26762
1.26759
1.26755
1.26751
1.26748
1.26745
1.26741
1.26738
1.26736
1.26733
1.2673
1.26728
1.26726
1.26723
1.26721
1.26719
1.26718
1.26716
1.26714
1.26713
1.26711
1.2671
1.26708
1.26707