/*--------------------------------*- C++ -*----------------------------------*\
| =========                 |                                                 |
| \\      /  F ield         | OpenFOAM: The Open Source CFD Toolbox           |
|  \\    /   O peration     | Version:  v1812                                 |
|   \\  /    A nd           | Web:      www.OpenFOAM.com                      |
|    \\/     M anipulation  |                                                 |
\*---------------------------------------------------------------------------*/
FoamFile
{
    version     2.0;
    format      ascii;
    class       volScalarField;
    location    "0.1";
    object      T;
}
// * * * * * * * * * * * * * * * * * * * * * * * * * * * * * * * * * * * * * //

dimensions      [0 0 0 1 0 0 0];


internalField   nonuniform List<scalar> 
20400
(
298.887
298.886
298.891
298.892
298.891
298.894
298.896
298.9
298.904
298.908
298.914
298.92
298.924
298.929
298.935
298.942
298.951
298.964
298.968
298.955
299
299.03
299.069
299.092
299.116
299.147
299.2
299.255
299.27
299.297
299.318
299.34
299.364
299.385
299.401
299.415
299.429
299.441
299.452
299.462
299.47
299.477
299.483
299.488
299.492
299.496
299.5
299.503
299.506
299.508
299.509
299.511
299.512
299.513
299.514
299.515
299.515
299.516
299.516
299.515
299.515
299.515
299.514
299.514
299.513
299.513
299.512
299.511
299.51
299.51
299.509
299.508
299.507
299.506
299.505
299.504
299.503
299.502
299.501
299.5
299.499
299.498
299.497
299.496
299.494
299.493
299.491
299.49
299.488
299.486
299.485
299.483
299.481
299.479
299.478
299.476
299.475
299.473
299.472
299.47
299.469
299.468
299.466
299.465
299.464
299.463
299.461
299.46
299.459
299.457
299.456
299.455
299.453
299.452
299.45
299.449
299.447
299.445
299.443
299.441
299.439
299.437
299.434
299.432
299.43
299.427
299.425
299.422
299.419
299.417
299.414
299.411
299.409
299.406
299.403
299.401
299.398
299.395
299.392
299.389
299.386
299.382
299.379
299.375
299.372
299.368
299.363
299.359
299.355
299.35
299.345
299.34
299.335
299.33
299.325
299.32
299.315
299.31
299.305
299.301
299.296
299.291
299.287
299.282
299.278
299.274
299.269
299.265
299.261
299.257
299.253
299.249
299.244
299.24
299.236
299.232
299.228
299.224
299.22
299.216
299.212
299.209
299.205
299.202
299.199
299.196
299.193
299.19
299.188
299.185
299.183
299.18
299.178
299.176
299.174
299.171
299.169
299.167
299.165
299.163
299.161
299.159
299.157
299.155
299.153
299.151
299.149
299.147
299.145
299.143
299.141
299.139
299.138
299.136
299.134
299.132
299.131
299.129
299.128
299.126
299.125
299.124
299.122
299.121
299.12
299.119
299.118
299.117
299.116
299.115
299.114
299.113
299.112
299.112
299.111
299.111
299.11
299.11
299.11
299.111
299.111
299.112
299.113
299.114
299.116
299.118
299.12
299.122
299.125
299.128
299.132
299.135
299.139
299.144
299.149
299.154
299.159
299.165
299.171
299.177
299.184
299.191
299.198
299.206
299.214
299.222
299.231
299.239
299.248
299.257
299.266
299.276
299.285
299.295
299.305
299.316
299.326
299.336
299.347
299.358
299.369
299.38
299.391
299.402
299.413
299.424
299.435
299.446
299.458
299.469
299.48
299.491
299.501
299.512
299.523
299.533
299.543
299.553
299.562
299.571
299.579
299.586
299.591
299.594
299.596
299.594
299.587
299.576
299.557
299.53
299.493
299.446
299.387
299.314
299.229
299.129
299.015
298.887
298.746
298.59
298.422
298.242
298.051
297.85
297.64
297.423
297.199
296.97
296.736
296.5
296.263
296.025
295.788
295.552
295.32
295.092
294.869
294.653
294.444
294.242
294.05
293.867
293.694
293.532
293.382
293.243
293.116
293.001
292.898
292.807
292.727
292.657
292.599
292.552
292.514
292.483
292.459
292.442
292.431
292.426
292.426
292.43
292.437
292.448
292.461
292.474
292.489
292.505
292.522
292.54
292.561
292.584
292.611
292.642
292.677
292.717
292.762
292.812
292.868
292.93
292.996
293.067
293.142
293.221
293.302
293.384
293.467
293.549
293.63
293.709
293.786
293.859
293.927
293.992
294.051
294.106
294.156
294.201
294.241
294.276
294.307
294.335
294.359
294.38
294.4
294.416
294.431
294.444
294.456
294.466
294.474
294.481
294.487
294.491
294.493
294.494
294.493
294.49
294.485
294.477
294.467
294.455
294.44
294.423
294.404
294.383
294.361
294.337
294.312
294.286
294.259
294.232
294.206
294.179
294.152
294.126
294.1
294.075
294.05
294.025
294.001
293.977
293.952
293.928
293.902
293.876
293.849
293.822
293.793
293.764
293.733
293.702
293.671
293.639
293.608
293.577
293.546
293.516
293.488
293.462
293.437
293.415
293.394
293.376
293.361
293.348
293.338
293.33
293.325
293.323
293.324
293.326
293.33
293.336
293.343
293.352
293.363
293.374
293.387
293.4
293.413
293.428
293.443
293.458
293.474
293.49
293.506
293.522
293.538
293.554
293.57
293.585
293.6
293.614
293.628
293.641
293.653
293.664
293.674
293.689
298.89
298.881
298.891
298.897
298.897
298.903
298.908
298.914
298.919
298.921
298.921
298.919
298.911
298.901
298.889
298.874
298.862
298.856
298.864
298.904
298.934
298.969
299.017
299.046
299.081
299.119
299.158
299.174
299.216
299.269
299.287
299.302
299.318
299.337
299.354
299.371
299.385
299.395
299.405
299.413
299.42
299.426
299.432
299.436
299.44
299.444
299.447
299.451
299.453
299.455
299.457
299.459
299.461
299.462
299.464
299.464
299.465
299.466
299.466
299.466
299.466
299.466
299.466
299.466
299.466
299.466
299.465
299.465
299.464
299.464
299.463
299.462
299.461
299.46
299.459
299.458
299.457
299.456
299.455
299.454
299.453
299.452
299.451
299.45
299.45
299.449
299.448
299.447
299.445
299.444
299.443
299.442
299.44
299.439
299.438
299.437
299.435
299.434
299.432
299.431
299.43
299.428
299.427
299.426
299.424
299.423
299.422
299.421
299.419
299.418
299.417
299.416
299.415
299.413
299.412
299.41
299.409
299.407
299.405
299.403
299.401
299.399
299.396
299.393
299.391
299.388
299.385
299.382
299.379
299.375
299.372
299.369
299.365
299.362
299.359
299.355
299.352
299.349
299.345
299.342
299.338
299.335
299.331
299.328
299.324
299.32
299.316
299.312
299.308
299.304
299.299
299.295
299.29
299.285
299.28
299.275
299.27
299.265
299.26
299.255
299.25
299.245
299.24
299.235
299.231
299.226
299.222
299.218
299.214
299.21
299.206
299.202
299.198
299.194
299.19
299.187
299.183
299.179
299.175
299.172
299.168
299.164
299.161
299.157
299.154
299.151
299.148
299.145
299.142
299.139
299.137
299.134
299.132
299.13
299.128
299.126
299.124
299.122
299.12
299.118
299.116
299.114
299.113
299.111
299.109
299.107
299.105
299.103
299.101
299.099
299.097
299.095
299.093
299.091
299.089
299.087
299.085
299.083
299.082
299.08
299.078
299.077
299.076
299.074
299.073
299.072
299.071
299.07
299.069
299.068
299.067
299.066
299.065
299.065
299.064
299.064
299.063
299.063
299.063
299.063
299.063
299.063
299.064
299.065
299.066
299.068
299.069
299.072
299.074
299.077
299.081
299.084
299.088
299.093
299.097
299.102
299.108
299.113
299.119
299.126
299.132
299.139
299.146
299.154
299.162
299.169
299.178
299.186
299.195
299.204
299.213
299.222
299.231
299.241
299.251
299.261
299.271
299.281
299.292
299.303
299.313
299.324
299.335
299.346
299.357
299.368
299.379
299.39
299.401
299.412
299.423
299.434
299.445
299.455
299.466
299.476
299.486
299.495
299.505
299.513
299.521
299.527
299.533
299.536
299.537
299.535
299.529
299.517
299.498
299.471
299.435
299.387
299.328
299.255
299.169
299.069
298.955
298.827
298.684
298.528
298.359
298.178
297.986
297.784
297.574
297.355
297.129
296.899
296.664
296.426
296.186
295.945
295.706
295.468
295.233
295.001
294.775
294.555
294.342
294.137
293.941
293.754
293.577
293.411
293.257
293.114
292.983
292.864
292.757
292.662
292.578
292.505
292.444
292.393
292.352
292.318
292.29
292.269
292.255
292.247
292.244
292.244
292.248
292.256
292.265
292.276
292.287
292.3
292.314
292.33
292.348
292.368
292.392
292.42
292.453
292.49
292.533
292.582
292.636
292.696
292.761
292.83
292.904
292.981
293.061
293.142
293.224
293.305
293.385
293.464
293.539
293.611
293.679
293.743
293.802
293.856
293.906
293.95
293.99
294.026
294.057
294.085
294.109
294.131
294.15
294.167
294.182
294.197
294.208
294.218
294.227
294.234
294.24
294.244
294.247
294.248
294.247
294.244
294.239
294.231
294.221
294.208
294.193
294.176
294.156
294.135
294.112
294.087
294.061
294.034
294.006
293.978
293.95
293.922
293.894
293.866
293.839
293.812
293.785
293.759
293.733
293.707
293.68
293.654
293.627
293.599
293.571
293.542
293.512
293.481
293.45
293.418
293.385
293.353
293.321
293.289
293.258
293.229
293.201
293.175
293.15
293.129
293.109
293.092
293.078
293.066
293.056
293.049
293.045
293.043
293.044
293.047
293.051
293.057
293.064
293.073
293.083
293.094
293.106
293.118
293.131
293.144
293.157
293.171
293.185
293.199
293.213
293.227
293.241
293.255
293.268
293.28
293.292
293.303
293.314
293.324
293.333
293.341
293.345
293.365
298.893
298.887
298.892
298.893
298.892
298.894
298.895
298.893
298.891
298.885
298.876
298.865
298.846
298.825
298.802
298.774
298.749
298.73
298.72
298.721
298.739
298.754
298.789
298.839
298.904
298.972
299.035
299.103
299.135
299.189
299.227
299.258
299.283
299.305
299.322
299.337
299.35
299.359
299.366
299.371
299.375
299.378
299.382
299.384
299.387
299.389
299.391
299.393
299.395
299.396
299.398
299.399
299.4
299.401
299.402
299.403
299.403
299.404
299.405
299.405
299.405
299.406
299.406
299.406
299.406
299.406
299.406
299.405
299.405
299.404
299.403
299.402
299.402
299.401
299.4
299.399
299.397
299.396
299.395
299.394
299.393
299.392
299.392
299.391
299.39
299.39
299.389
299.388
299.388
299.387
299.386
299.385
299.385
299.384
299.383
299.382
299.382
299.381
299.38
299.379
299.377
299.376
299.375
299.373
299.372
299.37
299.369
299.368
299.367
299.365
299.364
299.363
299.362
299.361
299.36
299.359
299.357
299.356
299.354
299.352
299.35
299.348
299.345
299.343
299.34
299.337
299.334
299.33
299.327
299.323
299.319
299.315
299.311
299.307
299.303
299.299
299.295
299.292
299.288
299.284
299.28
299.276
299.272
299.268
299.264
299.26
299.256
299.252
299.248
299.244
299.24
299.236
299.232
299.227
299.223
299.218
299.213
299.208
299.203
299.198
299.193
299.188
299.183
299.178
299.173
299.169
299.164
299.16
299.155
299.151
299.147
299.143
299.14
299.136
299.133
299.129
299.126
299.123
299.119
299.116
299.113
299.109
299.106
299.103
299.099
299.096
299.093
299.09
299.087
299.084
299.081
299.079
299.076
299.074
299.072
299.07
299.068
299.066
299.065
299.063
299.061
299.06
299.058
299.056
299.055
299.053
299.051
299.049
299.047
299.045
299.043
299.041
299.039
299.037
299.035
299.033
299.031
299.029
299.027
299.025
299.023
299.022
299.02
299.019
299.017
299.016
299.015
299.014
299.013
299.012
299.011
299.01
299.01
299.009
299.008
299.008
299.007
299.007
299.007
299.007
299.007
299.007
299.007
299.008
299.009
299.01
299.011
299.013
299.016
299.018
299.022
299.025
299.029
299.033
299.038
299.043
299.048
299.054
299.06
299.066
299.073
299.079
299.086
299.094
299.101
299.109
299.117
299.126
299.134
299.143
299.152
299.161
299.171
299.18
299.19
299.2
299.21
299.22
299.231
299.241
299.252
299.263
299.274
299.285
299.296
299.307
299.318
299.329
299.34
299.351
299.362
299.373
299.383
299.394
299.404
299.414
299.424
299.433
299.442
299.451
299.459
299.465
299.47
299.474
299.475
299.473
299.467
299.455
299.437
299.41
299.373
299.326
299.266
299.194
299.108
299.008
298.893
298.765
298.622
298.466
298.297
298.116
297.923
297.721
297.51
297.291
297.065
296.834
296.599
296.36
296.12
295.88
295.64
295.402
295.167
294.935
294.709
294.489
294.276
294.071
293.875
293.688
293.512
293.346
293.192
293.049
292.918
292.8
292.694
292.599
292.516
292.444
292.383
292.333
292.292
292.259
292.232
292.211
292.198
292.19
292.187
292.187
292.191
292.199
292.208
292.218
292.23
292.242
292.256
292.271
292.288
292.308
292.332
292.359
292.391
292.428
292.471
292.519
292.572
292.631
292.695
292.764
292.837
292.913
292.991
293.071
293.152
293.232
293.311
293.388
293.462
293.533
293.6
293.663
293.721
293.774
293.822
293.865
293.904
293.939
293.969
293.995
294.019
294.04
294.058
294.074
294.089
294.101
294.112
294.121
294.129
294.135
294.14
294.144
294.145
294.145
294.144
294.14
294.134
294.125
294.113
294.099
294.083
294.064
294.044
294.021
293.996
293.97
293.943
293.915
293.886
293.857
293.828
293.798
293.769
293.741
293.712
293.684
293.656
293.629
293.602
293.575
293.547
293.52
293.492
293.463
293.434
293.404
293.373
293.342
293.31
293.277
293.244
293.211
293.179
293.147
293.115
293.085
293.057
293.03
293.007
292.984
292.964
292.947
292.932
292.92
292.91
292.903
292.899
292.897
292.897
292.899
292.903
292.908
292.915
292.923
292.933
292.943
292.954
292.965
292.977
292.99
293.002
293.015
293.028
293.041
293.054
293.067
293.08
293.092
293.104
293.116
293.126
293.136
293.145
293.153
293.161
293.166
293.169
293.187
298.898
298.895
298.899
298.9
298.898
298.899
298.896
298.889
298.88
298.865
298.846
298.822
298.783
298.727
298.644
298.524
298.373
298.207
298.054
297.922
297.833
297.773
297.761
297.883
298.054
298.255
298.477
298.707
298.888
299.04
299.156
299.23
299.273
299.298
299.314
299.327
299.339
299.347
299.353
299.356
299.358
299.36
299.36
299.36
299.36
299.36
299.361
299.362
299.362
299.362
299.362
299.362
299.362
299.362
299.362
299.362
299.361
299.361
299.361
299.361
299.361
299.361
299.361
299.361
299.361
299.361
299.361
299.361
299.361
299.36
299.36
299.359
299.358
299.358
299.356
299.355
299.354
299.353
299.352
299.35
299.349
299.348
299.347
299.347
299.346
299.345
299.345
299.344
299.344
299.343
299.343
299.342
299.342
299.342
299.341
299.341
299.34
299.34
299.34
299.339
299.338
299.337
299.336
299.335
299.333
299.332
299.33
299.329
299.328
299.326
299.325
299.324
299.323
299.322
299.321
299.32
299.319
299.318
299.316
299.315
299.313
299.311
299.308
299.306
299.303
299.3
299.297
299.294
299.29
299.286
299.283
299.279
299.274
299.27
299.266
299.262
299.257
299.253
299.249
299.244
299.24
299.236
299.232
299.228
299.224
299.22
299.216
299.212
299.208
299.204
299.2
299.196
299.192
299.188
299.184
299.179
299.175
299.17
299.166
299.161
299.156
299.151
299.146
299.141
299.136
299.132
299.127
299.122
299.118
299.114
299.11
299.106
299.103
299.099
299.096
299.093
299.09
299.087
299.084
299.081
299.078
299.075
299.072
299.069
299.066
299.063
299.06
299.057
299.054
299.051
299.048
299.046
299.043
299.041
299.039
299.037
299.035
299.034
299.032
299.031
299.029
299.028
299.026
299.025
299.024
299.022
299.02
299.019
299.017
299.015
299.013
299.011
299.009
299.007
299.005
299.003
299.001
298.999
298.997
298.995
298.993
298.992
298.99
298.988
298.987
298.986
298.984
298.983
298.982
298.981
298.98
298.98
298.979
298.978
298.978
298.977
298.977
298.976
298.976
298.976
298.976
298.976
298.976
298.977
298.977
298.979
298.98
298.982
298.984
298.986
298.989
298.993
298.996
299.001
299.005
299.01
299.016
299.021
299.027
299.033
299.04
299.047
299.054
299.061
299.069
299.077
299.085
299.093
299.102
299.11
299.119
299.129
299.138
299.148
299.157
299.167
299.177
299.188
299.198
299.209
299.219
299.23
299.241
299.252
299.263
299.274
299.285
299.296
299.307
299.318
299.329
299.34
299.35
299.361
299.371
299.381
299.391
299.401
299.41
299.418
299.426
299.432
299.437
299.441
299.442
299.44
299.434
299.423
299.404
299.377
299.341
299.293
299.234
299.161
299.075
298.975
298.861
298.732
298.589
298.432
298.263
298.082
297.889
297.687
297.476
297.256
297.031
296.799
296.564
296.326
296.085
295.845
295.604
295.366
295.131
294.899
294.673
294.453
294.24
294.035
293.839
293.653
293.477
293.311
293.157
293.015
292.885
292.767
292.661
292.567
292.484
292.413
292.353
292.303
292.262
292.23
292.203
292.183
292.17
292.163
292.16
292.161
292.166
292.175
292.185
292.196
292.208
292.221
292.235
292.251
292.27
292.29
292.315
292.343
292.376
292.413
292.456
292.504
292.558
292.618
292.682
292.751
292.824
292.9
292.978
293.058
293.138
293.219
293.298
293.374
293.448
293.519
293.586
293.649
293.707
293.76
293.808
293.852
293.891
293.925
293.956
293.982
294.006
294.027
294.045
294.062
294.077
294.089
294.1
294.109
294.117
294.123
294.128
294.131
294.132
294.132
294.13
294.126
294.119
294.109
294.098
294.083
294.066
294.047
294.026
294.003
293.978
293.951
293.923
293.894
293.865
293.835
293.805
293.775
293.745
293.715
293.686
293.658
293.63
293.602
293.574
293.546
293.519
293.491
293.462
293.433
293.404
293.374
293.343
293.312
293.28
293.248
293.215
293.183
293.151
293.119
293.088
293.059
293.031
293.004
292.981
292.959
292.94
292.924
292.91
292.898
292.889
292.882
292.878
292.876
292.877
292.879
292.883
292.888
292.895
292.904
292.914
292.924
292.936
292.948
292.96
292.972
292.985
292.998
293.011
293.023
293.036
293.048
293.06
293.072
293.083
293.094
293.104
293.113
293.121
293.128
293.134
293.139
293.14
293.158
298.9
298.896
298.899
298.899
298.896
298.895
298.89
298.88
298.867
298.844
298.805
298.743
298.628
298.439
298.139
297.711
297.196
296.683
296.252
295.932
295.721
295.578
295.525
295.638
295.864
296.172
296.574
297.066
297.597
298.127
298.596
298.933
299.138
299.246
299.295
299.318
299.332
299.34
299.347
299.351
299.353
299.354
299.354
299.353
299.352
299.352
299.352
299.351
299.351
299.35
299.349
299.348
299.347
299.346
299.345
299.344
299.344
299.343
299.343
299.342
299.341
299.341
299.34
299.34
299.34
299.339
299.339
299.338
299.338
299.337
299.337
299.336
299.335
299.335
299.334
299.333
299.332
299.331
299.33
299.328
299.327
299.326
299.325
299.325
299.324
299.323
299.323
299.323
299.322
299.322
299.321
299.321
299.321
299.32
299.32
299.32
299.32
299.32
299.319
299.319
299.319
299.318
299.317
299.316
299.315
299.313
299.312
299.31
299.309
299.308
299.307
299.306
299.305
299.304
299.303
299.302
299.301
299.3
299.298
299.297
299.295
299.293
299.291
299.289
299.286
299.283
299.28
299.277
299.274
299.27
299.266
299.262
299.258
299.254
299.249
299.245
299.241
299.236
299.232
299.227
299.223
299.219
299.215
299.211
299.206
299.202
299.198
299.194
299.19
299.187
299.183
299.179
299.175
299.171
299.167
299.163
299.159
299.155
299.15
299.146
299.141
299.136
299.131
299.127
299.122
299.117
299.113
299.108
299.104
299.1
299.096
299.092
299.089
299.086
299.083
299.08
299.077
299.074
299.071
299.069
299.066
299.063
299.061
299.058
299.055
299.052
299.049
299.047
299.044
299.041
299.039
299.036
299.034
299.032
299.03
299.028
299.026
299.025
299.023
299.022
299.021
299.019
299.018
299.017
299.016
299.014
299.013
299.011
299.01
299.008
299.006
299.004
299.002
299
298.999
298.997
298.995
298.993
298.991
298.989
298.987
298.985
298.984
298.982
298.981
298.979
298.978
298.977
298.976
298.975
298.974
298.973
298.972
298.971
298.971
298.97
298.97
298.969
298.969
298.968
298.968
298.968
298.968
298.969
298.969
298.97
298.972
298.973
298.975
298.977
298.98
298.983
298.987
298.991
298.995
299
299.005
299.011
299.017
299.023
299.029
299.036
299.043
299.05
299.058
299.066
299.074
299.082
299.09
299.099
299.108
299.117
299.127
299.136
299.146
299.156
299.166
299.176
299.187
299.197
299.208
299.219
299.229
299.24
299.251
299.262
299.273
299.284
299.295
299.306
299.317
299.328
299.338
299.349
299.359
299.369
299.379
299.388
299.397
299.405
299.413
299.42
299.425
299.428
299.43
299.428
299.422
299.41
299.392
299.365
299.328
299.281
299.222
299.149
299.063
298.963
298.848
298.719
298.576
298.42
298.25
298.068
297.875
297.672
297.46
297.241
297.014
296.782
296.547
296.308
296.067
295.827
295.586
295.348
295.113
294.882
294.656
294.436
294.223
294.019
293.823
293.637
293.461
293.296
293.142
293.001
292.871
292.753
292.647
292.554
292.472
292.401
292.342
292.292
292.252
292.22
292.193
292.174
292.161
292.155
292.153
292.155
292.161
292.171
292.181
292.193
292.206
292.22
292.236
292.253
292.272
292.294
292.319
292.348
292.382
292.42
292.464
292.512
292.567
292.626
292.69
292.759
292.832
292.908
292.986
293.066
293.146
293.226
293.304
293.38
293.454
293.524
293.591
293.653
293.711
293.764
293.813
293.856
293.895
293.93
293.96
293.987
294.011
294.032
294.051
294.067
294.082
294.095
294.105
294.115
294.122
294.129
294.133
294.136
294.137
294.137
294.135
294.13
294.123
294.113
294.1
294.085
294.068
294.048
294.026
294.002
293.976
293.949
293.92
293.891
293.861
293.83
293.799
293.769
293.738
293.708
293.678
293.649
293.62
293.592
293.563
293.535
293.507
293.479
293.451
293.422
293.392
293.362
293.332
293.301
293.27
293.238
293.206
293.174
293.143
293.112
293.082
293.053
293.025
293
292.977
292.955
292.936
292.919
292.906
292.894
292.886
292.88
292.876
292.875
292.876
292.879
292.883
292.889
292.897
292.906
292.916
292.927
292.939
292.951
292.964
292.977
292.99
293.003
293.017
293.03
293.043
293.055
293.067
293.079
293.09
293.101
293.11
293.119
293.127
293.134
293.14
293.143
293.144
293.161
298.904
298.898
298.899
298.899
298.894
298.893
298.887
298.877
298.861
298.819
298.726
298.551
298.229
297.717
297.004
296.19
295.399
294.798
294.405
294.17
294.024
293.925
293.888
293.884
293.975
294.135
294.395
294.785
295.333
296.047
296.892
297.727
298.423
298.907
299.163
299.267
299.306
299.321
299.33
299.338
299.342
299.347
299.349
299.349
299.349
299.349
299.349
299.348
299.347
299.346
299.345
299.344
299.343
299.342
299.341
299.34
299.339
299.338
299.337
299.336
299.335
299.334
299.333
299.333
299.332
299.332
299.331
299.331
299.331
299.33
299.33
299.329
299.328
299.328
299.327
299.326
299.324
299.323
299.322
299.321
299.32
299.318
299.318
299.317
299.316
299.315
299.315
299.314
299.314
299.314
299.314
299.313
299.313
299.313
299.313
299.312
299.312
299.312
299.312
299.312
299.312
299.311
299.31
299.309
299.308
299.307
299.306
299.304
299.303
299.302
299.301
299.3
299.299
299.298
299.297
299.296
299.295
299.294
299.293
299.291
299.29
299.288
299.286
299.284
299.281
299.278
299.275
299.272
299.269
299.265
299.262
299.258
299.254
299.249
299.245
299.241
299.236
299.232
299.228
299.223
299.219
299.215
299.211
299.207
299.203
299.199
299.195
299.191
299.187
299.183
299.179
299.175
299.172
299.168
299.164
299.16
299.156
299.152
299.148
299.144
299.139
299.135
299.13
299.125
299.121
299.116
299.112
299.108
299.103
299.099
299.096
299.092
299.089
299.086
299.083
299.08
299.077
299.075
299.072
299.07
299.067
299.065
299.062
299.06
299.057
299.055
299.052
299.049
299.047
299.044
299.042
299.04
299.037
299.035
299.034
299.032
299.03
299.029
299.028
299.026
299.025
299.024
299.023
299.022
299.021
299.019
299.018
299.017
299.015
299.014
299.012
299.01
299.008
299.007
299.005
299.003
299.001
298.999
298.997
298.995
298.993
298.991
298.99
298.988
298.986
298.985
298.983
298.982
298.981
298.98
298.979
298.978
298.977
298.976
298.975
298.974
298.973
298.973
298.972
298.972
298.971
298.971
298.971
298.971
298.972
298.972
298.973
298.975
298.976
298.978
298.981
298.984
298.987
298.991
298.995
299
299.005
299.01
299.016
299.022
299.028
299.035
299.042
299.049
299.056
299.064
299.072
299.08
299.089
299.097
299.106
299.115
299.125
299.134
299.144
299.154
299.164
299.174
299.184
299.194
299.205
299.216
299.226
299.237
299.248
299.259
299.27
299.281
299.292
299.303
299.313
299.324
299.334
299.345
299.355
299.364
299.374
299.383
299.392
299.4
299.408
299.414
299.419
299.423
299.424
299.422
299.416
299.405
299.386
299.359
299.322
299.275
299.215
299.142
299.056
298.956
298.841
298.711
298.568
298.411
298.241
298.058
297.865
297.662
297.45
297.229
297.003
296.771
296.536
296.297
296.056
295.815
295.574
295.335
295.099
294.868
294.642
294.422
294.209
294.004
293.808
293.622
293.447
293.282
293.129
292.987
292.858
292.741
292.636
292.543
292.462
292.392
292.333
292.284
292.244
292.212
292.186
292.167
292.156
292.15
292.149
292.152
292.159
292.169
292.18
292.193
292.207
292.223
292.239
292.258
292.278
292.301
292.328
292.358
292.392
292.432
292.476
292.525
292.58
292.64
292.704
292.773
292.846
292.921
292.999
293.078
293.158
293.237
293.315
293.391
293.464
293.534
293.6
293.662
293.72
293.773
293.821
293.865
293.904
293.939
293.97
293.997
294.021
294.043
294.062
294.079
294.094
294.107
294.117
294.127
294.135
294.141
294.145
294.148
294.149
294.148
294.145
294.14
294.132
294.121
294.108
294.092
294.074
294.053
294.03
294.005
293.978
293.95
293.92
293.889
293.858
293.826
293.795
293.763
293.732
293.701
293.67
293.64
293.611
293.581
293.552
293.523
293.495
293.466
293.437
293.408
293.378
293.348
293.318
293.288
293.257
293.226
293.195
293.164
293.133
293.104
293.076
293.049
293.023
292.998
292.975
292.954
292.936
292.92
292.907
292.897
292.889
292.884
292.881
292.881
292.882
292.885
292.89
292.896
292.904
292.913
292.923
292.935
292.947
292.959
292.972
292.985
292.999
293.012
293.025
293.038
293.051
293.064
293.076
293.088
293.099
293.109
293.118
293.126
293.134
293.14
293.145
293.148
293.148
293.163
298.91
298.902
298.901
298.9
298.892
298.889
298.882
298.868
298.84
298.752
298.536
298.12
297.434
296.516
295.549
294.726
294.197
293.922
293.784
293.696
293.627
293.561
293.485
293.439
293.415
293.397
293.436
293.545
293.767
294.163
294.806
295.694
296.754
297.812
298.616
299.059
299.239
299.292
299.31
299.32
299.328
299.338
299.344
299.346
299.346
299.346
299.346
299.345
299.344
299.343
299.343
299.342
299.341
299.341
299.34
299.339
299.338
299.337
299.336
299.335
299.334
299.333
299.332
299.331
299.331
299.33
299.329
299.329
299.328
299.328
299.327
299.327
299.326
299.325
299.324
299.323
299.322
299.321
299.32
299.319
299.318
299.317
299.316
299.315
299.315
299.314
299.313
299.313
299.313
299.312
299.312
299.312
299.312
299.311
299.311
299.311
299.311
299.311
299.311
299.311
299.31
299.31
299.309
299.308
299.307
299.306
299.305
299.304
299.302
299.301
299.3
299.299
299.298
299.297
299.296
299.295
299.294
299.293
299.292
299.291
299.289
299.288
299.286
299.283
299.281
299.278
299.275
299.272
299.269
299.266
299.262
299.258
299.254
299.25
299.246
299.241
299.237
299.233
299.228
299.224
299.22
299.216
299.212
299.208
299.204
299.2
299.196
299.192
299.188
299.184
299.181
299.177
299.173
299.17
299.166
299.162
299.159
299.155
299.15
299.146
299.142
299.138
299.133
299.129
299.124
299.12
299.116
299.111
299.107
299.104
299.1
299.097
299.093
299.09
299.088
299.085
299.083
299.08
299.078
299.076
299.074
299.071
299.069
299.067
299.064
299.062
299.059
299.057
299.055
299.052
299.05
299.048
299.046
299.044
299.042
299.041
299.039
299.038
299.037
299.036
299.035
299.034
299.033
299.032
299.031
299.03
299.028
299.027
299.026
299.024
299.022
299.021
299.019
299.017
299.015
299.013
299.011
299.009
299.007
299.005
299.003
299.002
299
298.998
298.996
298.995
298.993
298.992
298.99
298.989
298.988
298.987
298.986
298.985
298.984
298.983
298.982
298.981
298.98
298.979
298.979
298.978
298.978
298.978
298.978
298.978
298.979
298.98
298.982
298.983
298.986
298.988
298.991
298.995
298.999
299.003
299.008
299.013
299.019
299.024
299.03
299.037
299.043
299.05
299.057
299.065
299.073
299.081
299.089
299.097
299.106
299.115
299.124
299.133
299.143
299.153
299.162
299.172
299.183
299.193
299.203
299.214
299.224
299.235
299.246
299.257
299.267
299.278
299.289
299.299
299.31
299.32
299.331
299.341
299.35
299.36
299.37
299.379
299.387
299.395
299.403
299.409
299.414
299.417
299.418
299.417
299.41
299.398
299.38
299.352
299.315
299.268
299.208
299.135
299.048
298.948
298.833
298.703
298.559
298.402
298.232
298.05
297.856
297.652
297.439
297.219
296.991
296.758
296.521
296.282
296.041
295.799
295.559
295.32
295.084
294.853
294.626
294.406
294.194
293.989
293.794
293.608
293.432
293.268
293.115
292.974
292.845
292.728
292.624
292.532
292.451
292.382
292.323
292.275
292.236
292.204
292.179
292.16
292.15
292.145
292.144
292.148
292.156
292.167
292.18
292.194
292.209
292.226
292.244
292.264
292.286
292.311
292.338
292.37
292.405
292.446
292.491
292.541
292.596
292.656
292.721
292.789
292.862
292.937
293.014
293.093
293.172
293.25
293.328
293.403
293.476
293.545
293.611
293.673
293.73
293.783
293.832
293.876
293.915
293.95
293.981
294.009
294.034
294.055
294.075
294.092
294.107
294.121
294.131
294.141
294.149
294.155
294.159
294.161
294.161
294.16
294.157
294.151
294.142
294.13
294.116
294.099
294.08
294.058
294.034
294.008
293.98
293.95
293.919
293.888
293.855
293.822
293.789
293.756
293.723
293.69
293.659
293.627
293.597
293.566
293.537
293.507
293.478
293.449
293.42
293.39
293.361
293.331
293.301
293.271
293.241
293.21
293.18
293.15
293.121
293.092
293.064
293.037
293.012
292.989
292.967
292.948
292.932
292.917
292.906
292.896
292.889
292.884
292.882
292.882
292.883
292.887
292.891
292.898
292.906
292.916
292.927
292.939
292.951
292.964
292.977
292.991
293.005
293.018
293.032
293.045
293.058
293.071
293.083
293.094
293.105
293.115
293.124
293.132
293.138
293.144
293.148
293.15
293.149
293.164
298.918
298.909
298.904
298.903
298.894
298.89
298.883
298.864
298.813
298.643
298.22
297.464
296.412
295.335
294.591
294.274
294.18
294.189
294.312
294.386
294.304
294.142
293.923
293.668
293.471
293.356
293.3
293.288
293.302
293.39
293.621
294.092
294.9
296.052
297.321
298.359
298.971
299.209
299.277
299.298
299.308
299.321
299.332
299.339
299.342
299.344
299.345
299.345
299.344
299.342
299.341
299.34
299.34
299.339
299.339
299.338
299.337
299.336
299.335
299.334
299.333
299.332
299.332
299.331
299.33
299.329
299.329
299.328
299.327
299.327
299.326
299.326
299.325
299.324
299.324
299.323
299.322
299.321
299.32
299.319
299.318
299.317
299.316
299.315
299.314
299.314
299.313
299.313
299.312
299.312
299.312
299.312
299.311
299.311
299.311
299.311
299.311
299.311
299.311
299.31
299.31
299.31
299.309
299.308
299.307
299.306
299.305
299.304
299.303
299.301
299.3
299.299
299.298
299.298
299.297
299.296
299.295
299.294
299.293
299.292
299.29
299.288
299.286
299.284
299.282
299.279
299.277
299.274
299.27
299.267
299.263
299.26
299.256
299.252
299.248
299.243
299.239
299.235
299.231
299.226
299.222
299.218
299.214
299.21
299.206
299.202
299.198
299.195
299.191
299.187
299.184
299.18
299.177
299.173
299.17
299.166
299.162
299.159
299.155
299.151
299.146
299.142
299.138
299.134
299.129
299.125
299.121
299.117
299.113
299.11
299.106
299.103
299.1
299.097
299.095
299.092
299.09
299.088
299.086
299.084
299.082
299.08
299.078
299.075
299.073
299.071
299.069
299.067
299.064
299.062
299.06
299.058
299.057
299.055
299.053
299.052
299.051
299.05