/*--------------------------------*- C++ -*----------------------------------*\
| =========                 |                                                 |
| \\      /  F ield         | OpenFOAM: The Open Source CFD Toolbox           |
|  \\    /   O peration     | Version:  v1812                                 |
|   \\  /    A nd           | Web:      www.OpenFOAM.com                      |
|    \\/     M anipulation  |                                                 |
\*---------------------------------------------------------------------------*/
FoamFile
{
    version     2.0;
    format      ascii;
    class       volVectorField;
    location    "0.1";
    object      U;
}
// * * * * * * * * * * * * * * * * * * * * * * * * * * * * * * * * * * * * * //

dimensions      [0 1 -1 0 0 0 0];


internalField   nonuniform List<vector> 
20400
(
(0.12462 -0.133674 0)
(0.118671 0.00786269 0)
(0.125324 -0.040141 0)
(0.159325 -0.0195724 0)
(0.133447 0.0469036 0)
(0.0430754 0.0963602 0)
(-0.0982343 0.177167 0)
(-0.365265 0.278945 0)
(-0.775538 0.369756 0)
(-1.35155 0.437531 0)
(-2.0885 0.449247 0)
(-2.95067 0.446742 0)
(-3.93463 0.479956 0)
(-5.02788 0.5085 0)
(-6.16126 0.511512 0)
(-7.25294 0.483526 0)
(-8.21868 0.404621 0)
(-8.96334 0.222147 0)
(-9.55244 -0.0314471 0)
(-9.90514 -0.433681 0)
(-10.3477 0.322518 0)
(-10.4523 1.16934 0)
(-10.2494 1.8689 0)
(-9.90707 1.39829 0)
(-9.15588 0.908575 0)
(-8.22727 0.508981 0)
(-7.20019 0.0770251 0)
(-6.38283 -0.931365 0)
(-5.21794 -0.848688 0)
(-4.04987 -0.651931 0)
(-2.9368 -0.669626 0)
(-1.91145 -0.704991 0)
(-0.945645 -0.652686 0)
(-0.0579094 -0.452152 0)
(0.685096 -0.181286 0)
(1.31069 0.0004067 0)
(1.86453 0.00585939 0)
(2.3317 -0.0623078 0)
(2.71494 -0.0891911 0)
(3.02567 -0.0709639 0)
(3.27698 -0.0351225 0)
(3.48315 -0.0022916 0)
(3.65015 0.0216675 0)
(3.78228 0.0343411 0)
(3.88277 0.0353952 0)
(3.96292 0.0256495 0)
(4.0287 0.00771517 0)
(4.07805 -0.00498717 0)
(4.10519 -0.00702393 0)
(4.11338 -0.00781714 0)
(4.11423 -0.0110494 0)
(4.11432 -0.0164932 0)
(4.11221 -0.0159294 0)
(4.10607 -0.0139224 0)
(4.09765 -0.0125546 0)
(4.08882 -0.0109559 0)
(4.08018 -0.0093986 0)
(4.07143 -0.0078332 0)
(4.06159 -0.00450805 0)
(4.04884 -0.00040674 0)
(4.03404 7.80011e-05 0)
(4.02013 -0.000969725 0)
(4.00759 -0.00204793 0)
(3.99577 -0.0029666 0)
(3.98393 -0.003998 0)
(3.97215 -0.0054424 0)
(3.96081 -0.00706641 0)
(3.95009 -0.00863674 0)
(3.94028 -0.0103012 0)
(3.93138 -0.0114732 0)
(3.92302 -0.0120723 0)
(3.91503 -0.0124771 0)
(3.90741 -0.0126932 0)
(3.90025 -0.012807 0)
(3.89357 -0.0128973 0)
(3.88736 -0.0130074 0)
(3.8816 -0.0131755 0)
(3.87628 -0.0133763 0)
(3.87139 -0.0136013 0)
(3.86698 -0.0138467 0)
(3.86306 -0.0141361 0)
(3.85966 -0.0144177 0)
(3.85678 -0.0147247 0)
(3.85438 -0.0150095 0)
(3.85242 -0.0152782 0)
(3.85086 -0.0155365 0)
(3.84969 -0.0157813 0)
(3.84889 -0.0160244 0)
(3.84839 -0.0162729 0)
(3.84826 -0.0164156 0)
(3.84848 -0.0166233 0)
(3.84908 -0.0168104 0)
(3.85004 -0.0169779 0)
(3.8514 -0.0171356 0)
(3.85316 -0.0172338 0)
(3.85533 -0.0174064 0)
(3.85791 -0.0175459 0)
(3.86089 -0.0176668 0)
(3.86423 -0.0177801 0)
(3.86793 -0.0178882 0)
(3.87195 -0.0179913 0)
(3.87627 -0.0180877 0)
(3.88084 -0.0181804 0)
(3.88567 -0.0182703 0)
(3.89072 -0.0183574 0)
(3.896 -0.0184362 0)
(3.90149 -0.0185108 0)
(3.90719 -0.0185848 0)
(3.91311 -0.0186562 0)
(3.91921 -0.0187256 0)
(3.9255 -0.018788 0)
(3.93193 -0.0188401 0)
(3.93846 -0.018819 0)
(3.94507 -0.0189507 0)
(3.95174 -0.0190387 0)
(3.95842 -0.0191042 0)
(3.96504 -0.0191626 0)
(3.97156 -0.0192229 0)
(3.97793 -0.0192861 0)
(3.98411 -0.0193464 0)
(3.99007 -0.0194083 0)
(3.99578 -0.0194663 0)
(4.00122 -0.0195282 0)
(4.00638 -0.0196001 0)
(4.01122 -0.0195934 0)
(4.01575 -0.0197207 0)
(4.01995 -0.0197077 0)
(4.02381 -0.0198157 0)
(4.02732 -0.0197853 0)
(4.03047 -0.0198736 0)
(4.03325 -0.0199217 0)
(4.03568 -0.0199563 0)
(4.03778 -0.0199893 0)
(4.03954 -0.0200089 0)
(4.04099 -0.0200341 0)
(4.04213 -0.0200432 0)
(4.04298 -0.0200622 0)
(4.0435 -0.0199577 0)
(4.04377 -0.0200167 0)
(4.04375 -0.0200296 0)
(4.04344 -0.0200085 0)
(4.04283 -0.0199835 0)
(4.04196 -0.0199535 0)
(4.04084 -0.0199134 0)
(4.03946 -0.0198677 0)
(4.03784 -0.0198129 0)
(4.03598 -0.0197449 0)
(4.03389 -0.0196997 0)
(4.03162 -0.0194899 0)
(4.02915 -0.0194949 0)
(4.02653 -0.0194425 0)
(4.02378 -0.0192044 0)
(4.02091 -0.0191913 0)
(4.01794 -0.0190597 0)
(4.0149 -0.0189155 0)
(4.01182 -0.0187611 0)
(4.00873 -0.018596 0)
(4.00569 -0.0184173 0)
(4.00271 -0.0182227 0)
(3.99983 -0.0180177 0)
(3.99708 -0.017808 0)
(3.9945 -0.0173929 0)
(3.99206 -0.017287 0)
(3.98983 -0.0170425 0)
(3.98782 -0.0167747 0)
(3.98606 -0.0164798 0)
(3.98455 -0.0161677 0)
(3.9833 -0.0158511 0)
(3.9823 -0.0155092 0)
(3.98156 -0.0151491 0)
(3.98107 -0.0147722 0)
(3.98087 -0.0143756 0)
(3.98095 -0.0139641 0)
(3.98129 -0.0135407 0)
(3.98186 -0.0130965 0)
(3.98268 -0.0126426 0)
(3.98374 -0.0121717 0)
(3.98506 -0.0116852 0)
(3.98664 -0.0111834 0)
(3.98846 -0.0106555 0)
(3.99054 -0.0101171 0)
(3.99288 -0.00958766 0)
(3.99546 -0.00900705 0)
(3.99831 -0.00840983 0)
(4.00131 -0.00750306 0)
(4.00466 -0.00718204 0)
(4.00822 -0.00657184 0)
(4.012 -0.00593557 0)
(4.016 -0.00526954 0)
(4.02021 -0.0046187 0)
(4.02463 -0.00394314 0)
(4.02924 -0.00324781 0)
(4.03402 -0.00255451 0)
(4.03895 -0.00185098 0)
(4.04403 -0.00113974 0)
(4.04922 -0.000417641 0)
(4.05452 0.000314364 0)
(4.0599 0.00105189 0)
(4.06534 0.00182205 0)
(4.07073 0.00304257 0)
(4.07622 0.00337256 0)
(4.08161 0.00412869 0)
(4.08694 0.00489546 0)
(4.09218 0.00566865 0)
(4.09728 0.00644882 0)
(4.10221 0.00723486 0)
(4.10693 0.00802586 0)
(4.11142 0.00881982 0)
(4.11565 0.00962005 0)
(4.11961 0.0104236 0)
(4.12326 0.011232 0)
(4.12661 0.0120458 0)
(4.12963 0.0128611 0)
(4.13233 0.0136739 0)
(4.1347 0.0144828 0)
(4.13676 0.015293 0)
(4.13854 0.0161021 0)
(4.13994 0.0169044 0)
(4.14115 0.0185228 0)
(4.14203 0.0193388 0)
(4.14265 0.0201488 0)
(4.14301 0.0209461 0)
(4.14315 0.0217287 0)
(4.14305 0.0224965 0)
(4.14273 0.0232525 0)
(4.1422 0.0239928 0)
(4.14148 0.0247161 0)
(4.14059 0.0254234 0)
(4.13952 0.0261091 0)
(4.13829 0.0267761 0)
(4.13691 0.0274256 0)
(4.13538 0.0280522 0)
(4.13373 0.0286648 0)
(4.13197 0.0292542 0)
(4.13011 0.0298197 0)
(4.12818 0.0303674 0)
(4.12625 0.0308985 0)
(4.12434 0.031415 0)
(4.12232 0.0319026 0)
(4.12046 0.0323649 0)
(4.1187 0.0328028 0)
(4.11712 0.0332191 0)
(4.11576 0.0336097 0)
(4.1147 0.0339688 0)
(4.11401 0.0342968 0)
(4.11371 0.034586 0)
(4.1139 0.0348415 0)
(4.11465 0.0350698 0)
(4.11602 0.0352655 0)
(4.11807 0.0354304 0)
(4.12083 0.0355597 0)
(4.12433 0.035658 0)
(4.12857 0.0357245 0)
(4.13356 0.0357591 0)
(4.13933 0.0357567 0)
(4.1459 0.0357193 0)
(4.15327 0.035651 0)
(4.16147 0.0355484 0)
(4.17049 0.0354154 0)
(4.18032 0.0352636 0)
(4.19095 0.0351022 0)
(4.20235 0.0349345 0)
(4.21449 0.0347764 0)
(4.22735 0.0346181 0)
(4.24091 0.034425 0)
(4.25516 0.0341939 0)
(4.27007 0.0339232 0)
(4.28562 0.0336099 0)
(4.30181 0.0332541 0)
(4.3186 0.0328516 0)
(4.336 0.0324056 0)
(4.35398 0.0319072 0)
(4.37253 0.0313751 0)
(4.39165 0.030805 0)
(4.4113 0.0301994 0)
(4.4315 0.029556 0)
(4.45221 0.0288813 0)
(4.47344 0.0281702 0)
(4.49517 0.0274241 0)
(4.51738 0.0266526 0)
(4.54003 0.0258612 0)
(4.56311 0.0250466 0)
(4.58658 0.0242142 0)
(4.6104 0.0233716 0)
(4.63454 0.0224992 0)
(4.65895 0.0216115 0)
(4.68357 0.0207055 0)
(4.70835 0.0197856 0)
(4.73322 0.0188471 0)
(4.75813 0.0178872 0)
(4.78299 0.01691 0)
(4.80774 0.0159161 0)
(4.83231 0.0148974 0)
(4.85665 0.0138673 0)
(4.88073 0.0128114 0)
(4.90457 0.0117418 0)
(4.92825 0.0106487 0)
(4.95197 0.00954606 0)
(4.97602 0.00841909 0)
(5.00086 0.00726654 0)
(5.02707 0.00609465 0)
(5.05546 0.00489194 0)
(5.08709 0.00366564 0)
(5.12313 0.00239262 0)
(5.16367 0.00108828 0)
(5.21233 -0.000305069 0)
(5.27486 -0.0017552 0)
(5.35233 -0.00324594 0)
(5.44911 -0.00485548 0)
(5.56928 -0.0064804 0)
(5.7166 -0.00818215 0)
(5.89447 -0.00989032 0)
(6.10563 -0.0115916 0)
(6.35237 -0.0132205 0)
(6.63633 -0.0147389 0)
(6.9584 -0.0160703 0)
(7.31873 -0.0170745 0)
(7.71674 -0.0177087 0)
(8.15115 -0.0177964 0)
(8.62011 -0.0172248 0)
(9.12127 -0.0159313 0)
(9.65183 -0.0135654 0)
(10.2087 -0.0101044 0)
(10.7885 -0.00530966 0)
(11.3877 0.00109808 0)
(12.0028 0.00924149 0)
(12.63 0.0198107 0)
(13.2656 0.0325892 0)
(13.9058 0.0482224 0)
(14.5471 0.0664297 0)
(15.1858 0.087172 0)
(15.8187 0.110974 0)
(16.4424 0.137014 0)
(17.0535 0.165523 0)
(17.6489 0.196132 0)
(18.2253 0.228548 0)
(18.7799 0.261952 0)
(19.3099 0.296118 0)
(19.8126 0.328784 0)
(20.2854 0.363565 0)
(20.7267 0.394374 0)
(21.1341 0.419941 0)
(21.5057 0.446592 0)
(21.8406 0.466373 0)
(22.1372 0.477926 0)
(22.3943 0.487856 0)
(22.6116 0.489042 0)
(22.789 0.482139 0)
(22.927 0.467371 0)
(23.027 0.444352 0)
(23.0923 0.41372 0)
(23.1231 0.370844 0)
(23.113 0.315621 0)
(23.0672 0.252789 0)
(22.994 0.180361 0)
(22.8935 0.113381 0)
(22.7709 0.0583269 0)
(22.6275 0.0101668 0)
(22.467 -0.045832 0)
(22.2895 -0.108446 0)
(22.0956 -0.172241 0)
(21.8928 -0.231139 0)
(21.6752 -0.285135 0)
(21.4497 -0.333625 0)
(21.2203 -0.375521 0)
(20.9884 -0.409737 0)
(20.7542 -0.432998 0)
(20.5184 -0.446014 0)
(20.2806 -0.446965 0)
(20.0406 -0.436855 0)
(19.798 -0.415945 0)
(19.5517 -0.386035 0)
(19.3003 -0.347926 0)
(19.0421 -0.303669 0)
(18.7761 -0.253098 0)
(18.5009 -0.199703 0)
(18.2158 -0.145152 0)
(17.921 -0.0898889 0)
(17.616 -0.0375032 0)
(17.3023 0.0135454 0)
(16.9807 0.0601172 0)
(16.6526 0.09948 0)
(16.3197 0.131168 0)
(15.9843 0.155618 0)
(15.6485 0.172327 0)
(15.3148 0.181551 0)
(14.9857 0.184526 0)
(14.664 0.182575 0)
(14.3519 0.176775 0)
(14.0518 0.168751 0)
(13.7658 0.15793 0)
(13.4953 0.14746 0)
(13.2418 0.136758 0)
(13.007 0.123915 0)
(12.792 0.110089 0)
(12.5966 0.0995464 0)
(12.4199 0.0930932 0)
(12.2616 0.0882842 0)
(12.1218 0.0836474 0)
(12.0004 0.0800475 0)
(11.8962 0.0777826 0)
(11.8084 0.076936 0)
(11.7359 0.0758538 0)
(11.6776 0.0742671 0)
(11.6318 0.0730968 0)
(11.5971 0.0727559 0)
(11.5729 0.0732361 0)
(11.5598 0.0722561 0)
(11.5578 0.0714772 0)
(11.5661 0.0715998 0)
(11.5832 0.0712373 0)
(11.6097 0.0705593 0)
(11.646 0.0695148 0)
(11.6926 0.0681973 0)
(11.7498 0.0667801 0)
(11.8158 0.0650427 0)
(11.8922 0.0629842 0)
(11.9796 0.0606471 0)
(12.0789 0.0580306 0)
(12.1897 0.0551657 0)
(12.3112 0.0522162 0)
(12.4431 0.0487697 0)
(12.5848 0.0455434 0)
(12.7356 0.0413228 0)
(12.8949 0.0366389 0)
(13.061 0.0337857 0)
(13.2328 0.0313436 0)
(13.4096 0.029336 0)
(13.5899 0.0270387 0)
(13.7727 0.0239121 0)
(13.9565 0.0210319 0)
(14.14 0.0184783 0)
(14.3218 0.0162164 0)
(14.5005 0.0141638 0)
(14.675 0.0123008 0)
(14.8446 0.0106372 0)
(15.0085 0.0091411 0)
(15.1664 0.00768539 0)
(15.3179 0.00646683 0)
(15.4626 0.00537598 0)
(15.6005 0.00443693 0)
(15.7314 0.00332805 0)
(15.8555 0.00227022 0)
(15.9731 0.00141032 0)
(16.0843 0.000734832 0)
(16.189 0.000480323 0)
(16.2872 0.000206882 0)
(16.3788 0.000151414 0)
(16.4637 0.000117743 0)
(16.5412 0.000499082 0)
(16.6109 0.000897035 0)
(16.672 0.0014782 0)
(16.724 0.00161567 0)
(16.7665 0.00176815 0)
(16.7986 0.00223327 0)
(16.819 0.00306718 0)
(16.8278 0.00305411 0)
(16.8245 0.00298271 0)
(16.8066 0.00595103 0)
(16.772 0.00602211 0)
(16.722 0.00616314 0)
(16.6567 0.00634725 0)
(16.576 0.00604591 0)
(16.4797 0.00549659 0)
(16.3675 0.00482579 0)
(16.2392 0.00357427 0)
(16.0958 0.00172665 0)
(15.9379 9.54316e-05 0)
(15.7662 -0.00208947 0)
(15.5817 -0.00460836 0)
(15.3851 -0.00709755 0)
(15.1779 -0.00958507 0)
(14.9617 -0.0121246 0)
(14.7371 -0.0141714 0)
(14.5047 -0.0169995 0)
(14.2655 -0.019388 0)
(14.0215 -0.021814 0)
(13.7746 -0.0234077 0)
(13.5262 -0.0257746 0)
(13.2777 -0.0278981 0)
(13.0308 -0.0293296 0)
(12.7865 -0.0302773 0)
(12.5462 -0.0301845 0)
(12.311 -0.0306267 0)
(12.0819 -0.0304247 0)
(11.8602 -0.0298516 0)
(11.6472 -0.0289674 0)
(11.4441 -0.0278155 0)
(11.2521 -0.0258106 0)
(11.072 -0.0241083 0)
(10.9047 -0.0217586 0)
(10.7508 -0.0190243 0)
(10.6111 -0.015967 0)
(10.4861 -0.0122929 0)
(10.3763 -0.00840093 0)
(10.2819 -0.00422838 0)
(10.2039 0.000620316 0)
(10.1405 0.00569286 0)
(10.0944 0.0147404 0)
(10.0539 0.00569627 0)
(-0.111433 -0.0937526 0)
(-0.187489 0.0437758 0)
(-0.42934 0.0209544 0)
(-0.78411 0.0577005 0)
(-1.27029 0.13679 0)
(-1.86397 0.190158 0)
(-2.55926 0.310672 0)
(-3.40191 0.491345 0)
(-4.40047 0.707572 0)
(-5.56956 0.965812 0)
(-6.91931 1.18201 0)
(-8.39952 1.33258 0)
(-9.95273 1.4669 0)
(-11.5058 1.5214 0)
(-12.945 1.46603 0)
(-14.195 1.31037 0)
(-15.1728 1.00975 0)
(-15.8415 0.780986 0)
(-16.1453 0.658736 0)
(-16.0935 0.519966 0)
(-15.6 0.381468 0)
(-14.8164 -0.344207 0)
(-13.3891 -0.842976 0)
(-11.9027 -1.41708 0)
(-10.4789 -1.74349 0)
(-9.0466 -1.88019 0)
(-7.56462 -1.82375 0)
(-6.26938 -1.63315 0)
(-5.18686 -1.73367 0)
(-4.03728 -1.72268 0)
(-2.83826 -1.68851 0)
(-1.66505 -1.68836 0)
(-0.471832 -1.70263 0)
(0.790966 -1.64205 0)
(2.11432 -1.47273 0)
(3.43573 -1.24716 0)
(4.66143 -0.992369 0)
(5.70019 -0.72769 0)
(6.55651 -0.55266 0)
(7.25501 -0.453963 0)
(7.81645 -0.391985 0)
(8.27022 -0.347412 0)
(8.64185 -0.302076 0)
(8.94611 -0.251668 0)
(9.19696 -0.209166 0)
(9.40925 -0.176472 0)
(9.59494 -0.141513 0)
(9.75647 -0.09842 0)
(9.88951 -0.0578148 0)
(9.99678 -0.037195 0)
(10.0831 -0.0339239 0)
(10.1528 -0.0304286 0)
(10.2078 -0.0239569 0)
(10.2501 -0.0202393 0)
(10.2824 -0.0204067 0)
(10.3069 -0.0231986 0)
(10.3238 -0.0255246 0)
(10.3343 -0.0268631 0)
(10.339 -0.0264097 0)
(10.3393 -0.0250753 0)
(10.3369 -0.0256915 0)
(10.3332 -0.028118 0)
(10.3292 -0.0300955 0)
(10.3251 -0.0303641 0)
(10.3207 -0.0298136 0)
(10.3159 -0.0295861 0)
(10.311 -0.0296987 0)
(10.3064 -0.0301215 0)
(10.3023 -0.030833 0)
(10.2986 -0.0317336 0)
(10.2953 -0.0325146 0)
(10.292 -0.0333786 0)
(10.2888 -0.0344807 0)
(10.2856 -0.0357687 0)
(10.2826 -0.0370772 0)
(10.2796 -0.0383566 0)
(10.277 -0.0396293 0)
(10.2747 -0.0408686 0)
(10.2728 -0.0419869 0)
(10.2714 -0.0429674 0)
(10.2705 -0.0438378 0)
(10.27 -0.0446822 0)
(10.2701 -0.0454388 0)
(10.2707 -0.0461269 0)
(10.2718 -0.0467618 0)
(10.2732 -0.0473547 0)
(10.2751 -0.0479223 0)
(10.2773 -0.048456 0)
(10.2799 -0.0488823 0)
(10.2829 -0.04933 0)
(10.2862 -0.0498055 0)
(10.2898 -0.0502363 0)
(10.2939 -0.0506491 0)
(10.2983 -0.0510423 0)
(10.3032 -0.05147 0)
(10.3084 -0.0518492 0)
(10.3141 -0.0522403 0)
(10.3202 -0.0526329 0)
(10.3267 -0.0530256 0)
(10.3335 -0.053419 0)
(10.3406 -0.0538114 0)
(10.3481 -0.0542004 0)
(10.3558 -0.0545853 0)
(10.3638 -0.0549673 0)
(10.372 -0.0553457 0)
(10.3804 -0.0557182 0)
(10.389 -0.0560869 0)
(10.3978 -0.0564559 0)
(10.4068 -0.0568244 0)
(10.416 -0.0571876 0)
(10.4253 -0.0575472 0)
(10.4348 -0.0578959 0)
(10.4444 -0.0583039 0)
(10.4541 -0.0586591 0)
(10.4638 -0.0590458 0)
(10.4734 -0.059434 0)
(10.483 -0.0598203 0)
(10.4924 -0.0602072 0)
(10.5017 -0.0605958 0)
(10.5107 -0.0609893 0)
(10.5196 -0.0613826 0)
(10.5281 -0.0617805 0)
(10.5364 -0.0621847 0)
(10.5443 -0.0625954 0)
(10.552 -0.0630577 0)
(10.5592 -0.0634208 0)
(10.5661 -0.0638679 0)
(10.5727 -0.0642103 0)
(10.5789 -0.0646394 0)
(10.5848 -0.0649596 0)
(10.5903 -0.0652965 0)
(10.5954 -0.065636 0)
(10.6002 -0.0659788 0)
(10.6047 -0.0663287 0)
(10.6089 -0.0666639 0)
(10.6127 -0.0670172 0)
(10.6163 -0.0673618 0)
(10.6195 -0.0678145 0)
(10.6225 -0.0680556 0)
(10.6252 -0.0682947 0)
(10.6276 -0.0685765 0)
(10.6298 -0.0688548 0)
(10.6317 -0.069122 0)
(10.6334 -0.0693875 0)
(10.6348 -0.0696436 0)
(10.636 -0.0698864 0)
(10.637 -0.070119 0)
(10.6379 -0.0703379 0)
(10.6385 -0.0706329 0)
(10.639 -0.0707551 0)
(10.6393 -0.0709412 0)
(10.6396 -0.0711929 0)
(10.6398 -0.0712643 0)
(10.6398 -0.071372 0)
(10.6399 -0.0714701 0)
(10.64 -0.0715703 0)
(10.6402 -0.0716531 0)
(10.6404 -0.0717142 0)
(10.6407 -0.0717665 0)
(10.6411 -0.0717925 0)
(10.6417 -0.0718174 0)
(10.6425 -0.0719239 0)
(10.6435 -0.0717726 0)
(10.6447 -0.0716961 0)
(10.6463 -0.0716238 0)
(10.648 -0.0715442 0)
(10.6501 -0.0714354 0)
(10.6525 -0.0712933 0)
(10.6551 -0.0711339 0)
(10.6581 -0.0709494 0)
(10.6613 -0.0707202 0)
(10.6649 -0.0704413 0)
(10.6687 -0.0701404 0)
(10.6728 -0.0698233 0)
(10.6772 -0.0694835 0)
(10.6818 -0.069104 0)
(10.6867 -0.0686818 0)
(10.6918 -0.0682199 0)
(10.6972 -0.0677181 0)
(10.7029 -0.0671738 0)
(10.7088 -0.0665888 0)
(10.715 -0.0659449 0)
(10.7214 -0.0652762 0)
(10.7281 -0.0645086 0)
(10.7351 -0.0639249 0)
(10.7422 -0.062984 0)
(10.7496 -0.0620762 0)
(10.7572 -0.0611441 0)
(10.765 -0.0601842 0)
(10.773 -0.0591705 0)
(10.7812 -0.0581161 0)
(10.7896 -0.057023 0)
(10.7981 -0.0558724 0)
(10.8068 -0.0546774 0)
(10.8155 -0.0534322 0)
(10.8244 -0.0521382 0)
(10.8334 -0.0507963 0)
(10.8424 -0.0494075 0)
(10.8514 -0.0479366 0)
(10.8605 -0.0467878 0)
(10.8695 -0.0449889 0)
(10.8785 -0.0433527 0)
(10.8873 -0.041734 0)
(10.8961 -0.0400741 0)
(10.9046 -0.0383681 0)
(10.913 -0.0366165 0)
(10.9212 -0.0348168 0)
(10.9291 -0.0329707 0)
(10.9367 -0.0310791 0)
(10.944 -0.0291392 0)
(10.951 -0.027152 0)
(10.9577 -0.0251172 0)
(10.964 -0.0230331 0)
(10.9701 -0.0209011 0)
(10.9758 -0.0187242 0)
(10.9812 -0.0165082 0)
(10.9862 -0.0142537 0)
(10.991 -0.0119535 0)
(10.9955 -0.0104542 0)
(10.9997 -0.00818604 0)
(11.0036 -0.00585723 0)
(11.0073 -0.00350599 0)
(11.0108 -0.0011433 0)
(11.0141 0.00122716 0)
(11.0172 0.00360414 0)
(11.0201 0.00598708 0)
(11.0228 0.00836245 0)
(11.0254 0.0107282 0)
(11.0278 0.0130754 0)
(11.0302 0.0154012 0)
(11.0324 0.0177116 0)
(11.0346 0.0199956 0)
(11.0366 0.0222506 0)
(11.0387 0.0244749 0)
(11.0407 0.0266603 0)
(11.0427 0.0288121 0)
(11.0448 0.0309355 0)
(11.0469 0.0330292 0)
(11.0491 0.0350915 0)
(11.0514 0.0371126 0)
(11.054 0.0390918 0)
(11.0567 0.0410253 0)
(11.0597 0.0429128 0)
(11.0631 0.0447553 0)
(11.0669 0.0465547 0)
(11.0712 0.0482969 0)
(11.076 0.049949 0)
(11.0815 0.0515555 0)
(11.0876 0.053104 0)
(11.0944 0.0545731 0)
(11.1021 0.055965 0)
(11.1105 0.0572901 0)
(11.1197 0.0585636 0)
(11.1298 0.0597873 0)
(11.1406 0.0609694 0)
(11.1523 0.0621089 0)
(11.1649 0.0631936 0)
(11.1782 0.0642212 0)
(11.1925 0.0651926 0)
(11.2076 0.0660953 0)
(11.2235 0.066913 0)
(11.2401 0.067635 0)
(11.2576 0.068245 0)
(11.2757 0.0687236 0)
(11.2946 0.0691068 0)
(11.3142 0.0694482 0)
(11.3343 0.0697549 0)
(11.3552 0.070029 0)
(11.3766 0.0702679 0)
(11.3986 0.0704726 0)
(11.4212 0.0706409 0)
(11.4443 0.0707776 0)
(11.4679 0.0708818 0)
(11.4921 0.070961 0)
(11.5168 0.071035 0)
(11.542 0.0711078 0)
(11.5676 0.0711793 0)
(11.5937 0.0712508 0)
(11.6203 0.0713253 0)
(11.6472 0.0713998 0)
(11.6745 0.0714713 0)
(11.7022 0.0715081 0)
(11.7302 0.0715045 0)
(11.7584 0.0714565 0)
(11.7869 0.0713747 0)
(11.8156 0.0712557 0)
(11.8444 0.0711003 0)
(11.8732 0.0708998 0)
(11.902 0.0706522 0)
(11.9308 0.0703572 0)
(11.9594 0.0700068 0)
(11.9878 0.0695965 0)
(12.0159 0.069128 0)
(12.0437 0.0685901 0)
(12.0711 0.0679823 0)
(12.0981 0.0672886 0)
(12.1249 0.0665073 0)
(12.1516 0.0656211 0)
(12.1785 0.0646211 0)
(12.206 0.0634938 0)
(12.2349 0.0622187 0)
(12.2657 0.0607926 0)
(12.2997 0.0591995 0)
(12.338 0.0574172 0)
(12.3808 0.0554635 0)
(12.4313 0.0530376 0)
(12.4958 0.0503949 0)
(12.5752 0.0477931 0)
(12.6739 0.0445892 0)
(12.7961 0.0414673 0)
(12.9457 0.0382062 0)
(13.1263 0.0349207 0)
(13.3408 0.0316275 0)
(13.5916 0.0283591 0)
(13.8807 0.0251833 0)
(14.2091 0.0221482 0)
(14.5775 0.0192777 0)
(14.9854 0.0166526 0)
(15.4318 0.0142256 0)
(15.9153 0.011983 0)
(16.4337 0.00979039 0)
(16.9844 0.00776912 0)
(17.5649 0.00584751 0)
(18.1717 0.00394464 0)
(18.8017 0.00198033 0)
(19.4514 -0.000143935 0)
(20.1173 -0.00271309 0)
(20.7957 -0.00565697 0)
(21.483 -0.00916494 0)
(22.1759 -0.0134224 0)
(22.8707 -0.0183353 0)
(23.5641 -0.0242778 0)
(24.2527 -0.0306882 0)
(24.9329 -0.0376973 0)
(25.6016 -0.0452475 0)
(26.2555 -0.0531436 0)
(26.8915 -0.0612464 0)
(27.5067 -0.0694001 0)
(28.0983 -0.0768046 0)
(28.6638 -0.0852409 0)
(29.2007 -0.0922493 0)
(29.7068 -0.0970114 0)
(30.1803 -0.102851 0)
(30.6194 -0.106598 0)
(31.0225 -0.107342 0)
(31.3884 -0.108289 0)
(31.7163 -0.106743 0)
(32.0059 -0.10259 0)
(32.2577 -0.0960129 0)
(32.4727 -0.0874064 0)
(32.6519 -0.0774088 0)
(32.7953 -0.0656173 0)
(32.9024 -0.0515147 0)
(32.9759 -0.0314248 0)
(33.0197 -0.0057808 0)
(33.0417 0.014087 0)
(33.0418 0.0295363 0)
(33.019 0.0414367 0)
(32.9752 0.054768 0)
(32.9125 0.073673 0)
(32.8352 0.0957232 0)
(32.7478 0.114439 0)
(32.6445 0.12999 0)
(32.5312 0.143922 0)
(32.4123 0.156361 0)
(32.2895 0.167126 0)
(32.163 0.174896 0)
(32.033 0.179958 0)
(31.8991 0.181699 0)
(31.7607 0.179241 0)
(31.617 0.172782 0)
(31.4667 0.163441 0)
(31.3083 0.151628 0)
(31.1404 0.13769 0)
(30.9617 0.121589 0)
(30.7714 0.104481 0)
(30.5686 0.0866437 0)
(30.353 0.0683946 0)
(30.1245 0.0508758 0)
(29.8838 0.0333473 0)
(29.6321 0.0174804 0)
(29.371 0.00423882 0)
(29.1023 -0.00613226 0)
(28.8284 -0.013662 0)
(28.5517 -0.0180865 0)
(28.2747 -0.0195522 0)
(28 -0.0185827 0)
(27.7299 -0.0155701 0)
(27.467 -0.0108456 0)
(27.2135 -0.00514514 0)
(26.9715 0.00188505 0)
(26.7427 0.00950306 0)
(26.5285 0.0169871 0)
(26.3301 0.0244658 0)
(26.1483 0.032541 0)
(25.9834 0.0410574 0)
(25.8356 0.0490189 0)
(25.7051 0.0555819 0)
(25.5919 0.0608769 0)
(25.4955 0.0653074 0)
(25.4151 0.0689025 0)
(25.349 0.0708807 0)
(25.2958 0.072155 0)
(25.2542 0.0738682 0)
(25.2236 0.0761281 0)
(25.2039 0.0786193 0)
(25.1946 0.079248 0)
(25.1962 0.0776754 0)
(25.2062 0.077552 0)
(25.2256 0.0777971 0)
(25.2543 0.0765847 0)
(25.2921 0.0747831 0)
(25.339 0.072785 0)
(25.396 0.0706332 0)
(25.4632 0.0684057 0)
(25.5389 0.0662361 0)
(25.6247 0.0641245 0)
(25.7213 0.0620937 0)
(25.8298 0.060243 0)
(25.9498 0.0586263 0)
(26.0806 0.0574952 0)
(26.2218 0.0563702 0)
(26.3732 0.0562014 0)
(26.5337 0.0560816 0)
(26.703 0.0573729 0)
(26.8808 0.0585021 0)
(27.0659 0.058782 0)
(27.2567 0.0590099 0)
(27.4513 0.0593431 0)
(27.6485 0.0608388 0)
(27.8468 0.0627347 0)
(28.0451 0.0649125 0)
(28.2422 0.0674441 0)
(28.4371 0.0702905 0)
(28.6286 0.0733667 0)
(28.8158 0.0766746 0)
(28.998 0.0801491 0)
(29.1747 0.0838521 0)
(29.3456 0.0876326 0)
(29.5105 0.0915303 0)
(29.6691 0.0952078 0)
(29.8215 0.0986534 0)
(29.9678 0.101607 0)
(30.1082 0.10412 0)
(30.2426 0.106333 0)
(30.3711 0.108117 0)
(30.4935 0.109353 0)
(30.6096 0.10986 0)
(30.7193 0.109786 0)
(30.8221 0.109087 0)
(30.9176 0.107838 0)
(31.005 0.105839 0)
(31.0831 0.102433 0)
(31.1512 0.097964 0)
(31.2084 0.0933142 0)
(31.2547 0.0886639 0)
(31.2883 0.080133 0)
(31.3063 0.0699365 0)
(31.3102 0.0649722 0)
(31.3017 0.0580422 0)
(31.2779 0.0484821 0)
(31.2373 0.0386094 0)
(31.1801 0.0291536 0)
(31.1066 0.0189123 0)
(31.0168 0.00950282 0)
(30.9113 -0.00102451 0)
(30.7901 -0.0119109 0)
(30.6537 -0.0229897 0)
(30.5028 -0.0336312 0)
(30.3387 -0.0438428 0)
(30.1619 -0.0535809 0)
(29.974 -0.0625883 0)
(29.7762 -0.0706894 0)
(29.5692 -0.078187 0)
(29.3536 -0.0846775 0)
(29.1302 -0.0904051 0)
(28.9011 -0.095515 0)
(28.6683 -0.100177 0)
(28.433 -0.103656 0)
(28.1966 -0.106833 0)
(27.9606 -0.109126 0)
(27.7264 -0.110314 0)
(27.4955 -0.110794 0)
(27.2689 -0.110048 0)
(27.0477 -0.108447 0)
(26.8331 -0.106009 0)
(26.6264 -0.102805 0)
(26.4289 -0.0987928 0)
(26.2417 -0.0942044 0)
(26.0658 -0.0885565 0)
(25.902 -0.0821983 0)
(25.7509 -0.0752261 0)
(25.6134 -0.0676375 0)
(25.4901 -0.0592842 0)
(25.3818 -0.0505912 0)
(25.2894 -0.0401608 0)
(25.213 -0.0317934 0)
(25.1527 -0.0147795 0)
(25.1132 0.00218646 0)
(25.0749 -0.00163909 0)
(-0.0996973 0.0593241 0)
(-0.35776 0.349894 0)
(-0.842394 0.49477 0)
(-1.44265 0.725286 0)
(-2.23917 0.987792 0)
(-3.19944 1.15827 0)
(-4.27261 1.43494 0)
(-5.51243 1.76903 0)
(-6.89502 2.12025 0)
(-8.38634 2.51019 0)
(-9.96409 2.83011 0)
(-11.5607 3.04038 0)
(-13.1241 3.19646 0)
(-14.5986 3.15174 0)
(-15.8669 2.88953 0)
(-16.8535 2.46978 0)
(-17.485 1.8935 0)
(-17.7692 1.26439 0)
(-17.6157 0.477857 0)
(-17.1765 -0.263377 0)
(-16.3825 -0.850349 0)
(-15.6369 -1.79343 0)
(-14.5167 -2.3675 0)
(-13.278 -2.61547 0)
(-12.0035 -2.83194 0)
(-10.6034 -3.06332 0)
(-9.0559 -3.1254 0)
(-7.35739 -2.94795 0)
(-5.62625 -3.17902 0)
(-3.86753 -3.34096 0)
(-2.05485 -3.1786 0)
(-0.335433 -2.94723 0)
(1.27079 -2.84426 0)
(2.77554 -2.7742 0)
(4.17196 -2.64109 0)
(5.46756 -2.47358 0)
(6.67546 -2.21915 0)
(7.76784 -1.85226 0)
(8.74882 -1.50404 0)
(9.60787 -1.20257 0)
(10.3453 -0.955746 0)
(10.9832 -0.774624 0)
(11.5308 -0.633122 0)
(11.9915 -0.516126 0)
(12.375 -0.429961 0)
(12.7003 -0.37946 0)
(12.9818 -0.347304 0)
(13.2228 -0.30332 0)
(13.4203 -0.248538 0)
(13.5797 -0.207142 0)
(13.7122 -0.182947 0)
(13.8262 -0.162857 0)
(13.9254 -0.139199 0)
(14.0134 -0.118886 0)
(14.0923 -0.104739 0)
(14.1615 -0.0906914 0)
(14.2218 -0.0783553 0)
(14.2745 -0.0685714 0)
(14.3188 -0.0572383 0)
(14.3556 -0.0500225 0)
(14.3866 -0.0451438 0)
(14.4148 -0.0458104 0)
(14.4404 -0.0482958 0)
(14.4624 -0.0496148 0)
(14.48 -0.0503081 0)
(14.4932 -0.0518657 0)
(14.5031 -0.0543931 0)
(14.5102 -0.0571074 0)
(14.5152 -0.0604023 0)
(14.5194 -0.0632995 0)
(14.5233 -0.065074 0)
(14.5268 -0.0663407 0)
(14.53 -0.0673818 0)
(14.5331 -0.0683458 0)
(14.5361 -0.0692538 0)
(14.5389 -0.0701931 0)
(14.5416 -0.071342 0)
(14.544 -0.0726359 0)
(14.5464 -0.073962 0)
(14.5488 -0.0752766 0)
(14.5512 -0.0765076 0)
(14.5537 -0.0776669 0)
(14.5564 -0.0788168 0)
(14.5592 -0.0799629 0)
(14.5622 -0.0810722 0)
(14.5654 -0.0821375 0)
(14.5687 -0.0831615 0)
(14.5722 -0.0841532 0)
(14.5759 -0.0850906 0)
(14.5797 -0.0859417 0)
(14.5838 -0.0867672 0)
(14.588 -0.0875635 0)
(14.5925 -0.0883455 0)
(14.5972 -0.08911 0)
(14.6023 -0.0898404 0)
(14.6077 -0.0905821 0)
(14.6133 -0.0912912 0)
(14.6194 -0.0919804 0)
(14.6257 -0.092657 0)
(14.6323 -0.0933237 0)
(14.6392 -0.0939804 0)
(14.6463 -0.0946248 0)
(14.6537 -0.0952574 0)
(14.6612 -0.0958769 0)
(14.669 -0.0964929 0)
(14.6769 -0.097091 0)
(14.685 -0.0976755 0)
(14.6932 -0.0982535 0)
(14.7016 -0.0988229 0)
(14.7102 -0.0993815 0)
(14.7189 -0.0999351 0)
(14.7277 -0.100481 0)
(14.7366 -0.101 0)
(14.7455 -0.101586 0)
(14.7544 -0.102155 0)
(14.7633 -0.102714 0)
(14.7721 -0.103273 0)
(14.7807 -0.103835 0)
(14.7891 -0.104405 0)
(14.7973 -0.104979 0)
(14.8052 -0.105559 0)
(14.8129 -0.106139 0)
(14.8202 -0.106719 0)
(14.8272 -0.107297 0)
(14.8338 -0.107835 0)
(14.8401 -0.108415 0)
(14.846 -0.108944 0)
(14.8516 -0.109512 0)
(14.8568 -0.110031 0)
(14.8616 -0.110569 0)
(14.866 -0.111081 0)
(14.8701 -0.111566 0)
(14.8739 -0.112014 0)
(14.8772 -0.112446 0)
(14.8803 -0.112882 0)
(14.883 -0.113324 0)
(14.8854 -0.113763 0)
(14.8875 -0.114145 0)
(14.8893 -0.114557 0)
(14.8908 -0.114899 0)
(14.8921 -0.115226 0)
(14.8931 -0.115554 0)
(14.8938 -0.115877 0)
(14.8943 -0.116183 0)
(14.8945 -0.116468 0)
(14.8945 -0.116732 0)
(14.8943 -0.116968 0)
(14.8939 -0.117217 0)
(14.8933 -0.117409 0)
(14.8925 -0.117573 0)
(14.8916 -0.11773 0)
(14.8906 -0.11783 0)
(14.8894 -0.117915 0)
(14.8883 -0.117979 0)
(14.8871 -0.118016 0)
(14.8859 -0.118005 0)
(14.8847 -0.117956 0)
(14.8836 -0.11788 0)
(14.8826 -0.11774 0)
(14.8817 -0.117556 0)
(14.8809 -0.117412 0)
(14.8803 -0.11711 0)
(14.88 -0.116869 0)
(14.8798 -0.116577 0)
(14.8799 -0.116229 0)
(14.8803 -0.115825 0)
(14.881 -0.115368 0)
(14.882 -0.114884 0)
(14.8832 -0.114338 0)
(14.8847 -0.113729 0)
(14.8866 -0.113052 0)
(14.8887 -0.112313 0)
(14.8911 -0.111512 0)
(14.8938 -0.110656 0)
(14.8967 -0.109738 0)
(14.8999 -0.108756 0)
(14.9034 -0.107705 0)
(14.9071 -0.106586 0)
(14.911 -0.105396 0)
(14.9152 -0.104126 0)
(14.9197 -0.102792 0)
(14.9244 -0.101392 0)
(14.9293 -0.099873 0)
(14.9344 -0.0983062 0)
(14.9398 -0.0965736 0)
(14.9454 -0.0949177 0)
(14.9512 -0.0931097 0)
(14.9572 -0.0912202 0)
(14.9635 -0.0892538 0)
(14.9699 -0.0872446 0)
(14.9765 -0.0851488 0)
(14.9833 -0.0829734 0)
(14.9902 -0.0807275 0)
(14.9972 -0.0784142 0)
(15.0043 -0.0760245 0)
(15.0115 -0.0735555 0)
(15.0188 -0.0710143 0)
(15.026 -0.0683959 0)
(15.0334 -0.0657528 0)
(15.0406 -0.0629168 0)
(15.0479 -0.0601861 0)
(15.0551 -0.0573213 0)
(15.0622 -0.0544008 0)
(15.0691 -0.0514145 0)
(15.0759 -0.0483655 0)
(15.0824 -0.0452495 0)
(15.0887 -0.0420654 0)
(15.0947 -0.0388177 0)
(15.1004 -0.0355018 0)
(15.1057 -0.0321176 0)
(15.1108 -0.0286674 0)
(15.1155 -0.0251519 0)
(15.1199 -0.021573 0)
(15.1239 -0.0179396 0)
(15.1275 -0.0142574 0)
(15.1309 -0.0105288 0)
(15.1338 -0.00675798 0)
(15.1365 -0.00295523 0)
(15.1388 0.000877541 0)
(15.1409 0.00497526 0)
(15.1427 0.00888264 0)
(15.1442 0.0127893 0)
(15.1455 0.0166972 0)
(15.1466 0.0205977 0)
(15.1474 0.0244813 0)
(15.148 0.0283481 0)
(15.1484 0.0321812 0)
(15.1486 0.035975 0)
(15.1487 0.0397197 0)
(15.1487 0.0434053 0)
(15.1484 0.047035 0)
(15.1482 0.0506053 0)
(15.1478 0.054107 0)
(15.1473 0.0575507 0)
(15.1468 0.0609332 0)
(15.1463 0.0642456 0)
(15.1457 0.0674909 0)
(15.1453 0.0706863 0)
(15.145 0.0738089 0)
(15.1446 0.0768546 0)
(15.1445 0.0798204 0)
(15.1446 0.0826994 0)
(15.145 0.0854874 0)
(15.1457 0.0881766 0)
(15.1468 0.0907574 0)
(15.1483 0.0932212 0)
(15.1503 0.0955774 0)
(15.1529 0.0978206 0)
(15.1562 0.0999508 0)
(15.1601 0.101954 0)
(15.1648 0.103825 0)
(15.1703 0.105579 0)
(15.1766 0.107228 0)
(15.1837 0.108785 0)
(15.1916 0.110245 0)
(15.2004 0.111605 0)
(15.2099 0.112866 0)
(15.2202 0.114002 0)
(15.2314 0.115009 0)
(15.2434 0.1159 0)
(15.2561 0.116645 0)
(15.2696 0.117243 0)
(15.2839 0.117681 0)
(15.2988 0.117975 0)
(15.3145 0.118199 0)
(15.3308 0.118362 0)
(15.3479 0.118484 0)
(15.3655 0.118584 0)
(15.3837 0.118638 0)
(15.4025 0.118631 0)
(15.4219 0.118567 0)
(15.4418 0.118445 0)
(15.4622 0.118281 0)
(15.4831 0.118075 0)
(15.5045 0.117829 0)
(15.5263 0.117508 0)
(15.5486 0.117119 0)
(15.5714 0.116666 0)
(15.5945 0.116157 0)
(15.6181 0.115599 0)
(15.642 0.11497 0)
(15.6662 0.114284 0)
(15.6907 0.113542 0)
(15.7154 0.112744 0)
(15.7404 0.111887 0)
(15.7655 0.110981 0)
(15.7907 0.110024 0)
(15.8159 0.109005 0)
(15.8411 0.107918 0)
(15.8663 0.106759 0)
(15.8912 0.105521 0)
(15.9159 0.104196 0)
(15.9403 0.102777 0)
(15.9643 0.101262 0)
(15.9879 0.0996416 0)
(16.0111 0.0979017 0)
(16.034 0.0960332 0)
(16.0568 0.0940316 0)
(16.0797 0.0918784 0)
(16.1032 0.0895557 0)
(16.1279 0.087039 0)
(16.1547 0.0843146 0)
(16.1844 0.081365 0)
(16.2184 0.0781291 0)
(16.2567 0.0746773 0)
(16.3025 0.0705507 0)
(16.3622 0.0661672 0)
(16.4366 0.0618651 0)
(16.53 0.0566051 0)
(16.6467 0.0514738 0)
(16.7906 0.0460416 0)