/*--------------------------------*- C++ -*----------------------------------*\
| =========                 |                                                 |
| \\      /  F ield         | OpenFOAM: The Open Source CFD Toolbox           |
|  \\    /   O peration     | Version:  v1812                                 |
|   \\  /    A nd           | Web:      www.OpenFOAM.com                      |
|    \\/     M anipulation  |                                                 |
\*---------------------------------------------------------------------------*/
FoamFile
{
    version     2.0;
    format      ascii;
    class       volScalarField;
    location    "0.9";
    object      p;
}
// * * * * * * * * * * * * * * * * * * * * * * * * * * * * * * * * * * * * * //

dimensions      [1 -1 -2 0 0 0 0];


internalField   nonuniform List<scalar> 
20400
(
100565
100562
100565
100565
100561
100564
100561
100562
100558
100559
100553
100554
100548
100548
100542
100542
100535
100535
100529
100530
100525
100526
100521
100523
100517
100520
100516
100519
100516
100518
100515
100517
100513
100515
100511
100512
100506
100508
100503
100505
100502
100504
100501
100503
100501
100503
100502
100504
100504
100505
100508
100511
100513
100518
100522
100527
100535
100541
100548
100553
100558
100565
100572
100580
100581
100586
100587
100590
100589
100590
100586
100584
100578
100572
100566
100557
100547
100532
100521
100517
100497
100482
100469
100455
100436
100423
100401
100388
100365
100351
100329
100318
100292
100283
100257
100253
100233
100226
100216
100208
100209
100210
100201
100208
100207
100213
100225
100230
100243
100258
100261
100269
100268
100274
100273
100265
100275
100272
100277
100271
100267
100258
100252
100251
100236
100237
100227
100222
100209
100204
100192
100181
100173
100162
100155
100146
100140
100133
100127
100121
100117
100112
100106
100101
100099
100095
100095
100092
100090
100091
100092
100091
100094
100099
100098
100095
100102
100107
100115
100120
100128
100134
100140
100147
100154
100162
100171
100182
100195
100208
100221
100235
100251
100266
100282
100298
100315
100331
100346
100361
100377
100392
100406
100421
100437
100454
100471
100488
100505
100523
100542
100556
100570
100593
100609
100626
100638
100653
100671
100684
100697
100714
100727
100737
100749
100759
100766
100778
100789
100797
100804
100813
100815
100824
100830
100830
100833
100840
100843
100848
100849
100847
100848
100851
100851
100845
100840
100846
100843
100837
100830
100829
100826
100821
100814
100807
100804
100796
100792
100785
100782
100775
100772
100769
100765
100761
100757
100753
100748
100745
100740
100736
100731
100727
100723
100719
100714
100710
100704
100699
100692
100686
100680
100674
100669
100662
100655
100650
100644
100637
100632
100626
100622
100617
100614
100611
100610
100607
100607
100606
100606
100605
100607
100608
100607
100611
100611
100615
100616
100622
100626
100634
100638
100644
100652
100661
100673
100679
100686
100696
100711
100718
100724
100735
100748
100755
100765
100774
100783
100794
100801
100811
100822
100831
100841
100851
100861
100872
100881
100892
100901
100911
100920
100930
100939
100949
100958
100967
100977
100985
100994
101002
101011
101020
101029
101036
101045
101051
101059
101065
101073
101079
101086
101092
101098
101103
101108
101112
101117
101120
101123
101124
101126
101126
101127
101128
101129
101130
101131
101132
101132
101133
101133
101133
101132
101132
101130
101129
101127
101125
101123
101120
101118
101115
101113
101110
101107
101105
101102
101099
101096
101092
101089
101086
101082
101079
101075
101072
101069
101065
101062
101059
101056
101053
101050
101047
101045
101042
101040
101038
101036
101034
101033
101032
101031
101030
101029
101029
101029
101029
101030
101031
101032
101034
101035
101037
101040
101044
101047
101051
101055
101060
101064
101069
101074
101079
101085
101090
101096
101102
101108
101115
101122
101129
101136
101144
101151
101159
101166
101173
101180
101187
101193
101200
101207
101214
101222
101229
101236
101243
101250
101256
101263
101269
101275
101280
101286
101291
101296
101301
101307
101312
101318
101322
101327
101331
101335
101339
101342
101345
101348
101350
101352
101354
101355
101356
101357
101356
101357
101356
101356
101356
101355
101355
101355
101354
101353
101352
101351
101350
101348
101346
101343
101341
101339
101336
101333
101331
101328
101327
100565
100567
100564
100563
100565
100561
100563
100558
100562
100555
100560
100549
100554
100541
100548
100535
100541
100530
100535
100526
100529
100520
100526
100516
100524
100515
100521
100515
100520
100514
100519
100513
100518
100512
100517
100507
100511
100504
100509
100502
100505
100502
100505
100501
100503
100501
100502
100501
100504
100506
100509
100512
100514
100517
100521
100528
100529
100541
100543
100552
100559
100564
100573
100575
100580
100581
100587
100586
100591
100585
100588
100579
100578
100568
100562
100556
100543
100536
100523
100514
100500
100482
100474
100452
100442
100417
100412
100382
100376
100348
100342
100315
100304
100282
100272
100248
100242
100225
100213
100207
100203
100209
100202
100203
100207
100215
100221
100227
100248
100249
100247
100255
100253
100261
100258
100247
100253
100262
100262
100253
100254
100245
100241
100241
100242
100216
100216
100206
100205
100200
100192
100184
100174
100166
100155
100149
100139
100134
100126
100122
100116
100113
100106
100105
100095
100098
100091
100094
100088
100093
100090
100093
100095
100100
100099
100099
100106
100113
100119
100126
100131
100140
100144
100153
100161
100169
100179
100190
100200
100210
100226
100240
100254
100268
100282
100297
100312
100325
100340
100353
100368
100383
100397
100411
100427
100443
100461
100478
100496
100518
100537
100551
100568
100584
100603
100621
100635
100651
100668
100682
100695
100715
100727
100732
100752
100757
100771
100775
100794
100790
100809
100811
100819
100822
100832
100836
100836
100848
100854
100858
100858
100855
100854
100855
100853
100853
100853
100846
100844
100842
100836
100831
100825
100822
100811
100807
100803
100798
100789
100786
100781
100776
100772
100767
100764
100758
100759
100753
100750
100744
100741
100736
100732
100727
100723
100719
100715
100710
100705
100698
100692
100686
100680
100674
100669
100664
100656
100651
100644
100639
100632
100628
100622
100619
100615
100613
100610
100609
100608
100607
100606
100606
100606
100607
100607
100609
100612
100613
100617
100621
100627
100633
100639
100643
100650
100659
100666
100672
100684
100694
100700
100709
100720
100732
100742
100748
100761
100768
100780
100788
100800
100807
100818
100828
100839
100849
100860
100871
100882
100891
100902
100912
100922
100931
100941
100950
100960
100969
100978
100988
100995
101004
101012
101021
101030
101038
101046
101054
101061
101068
101075
101082
101088
101095
101100
101106
101110
101115
101118
101121
101123
101125
101126
101127
101128
101129
101130
101131
101132
101133
101134
101133
101134
101133
101133
101131
101130
101128
101127
101125
101122
101120
101118
101115
101113
101109
101107
101104
101101
101098
101095
101091
101088
101084
101081
101077
101074
101070
101067
101064
101060
101057
101054
101052
101049
101046
101043
101041
101039
101036
101034
101033
101031
101030
101030
101029
101028
101028
101028
101028
101029
101030
101031
101033
101035
101037
101040
101043
101047
101050
101055
101059
101064
101069
101074
101079
101084
101090
101096
101102
101108
101115
101122
101129
101136
101144
101151
101158
101166
101173
101180
101186
101193
101200
101207
101214
101221
101229
101236
101243
101250
101256
101263
101269
101275
101280
101286
101291
101296
101301
101307
101312
101317
101322
101327
101331
101335
101339
101342
101346
101348
101350
101352
101354
101355
101356
101356
101356
101356
101356
101356
101356
101355
101355
101354
101354
101353
101352
101351
101349
101347
101345
101342
101340
101337
101335
101332
101330
101327
101326
100568
100566
100568
100564
100563
100565
100560
100563
100556
100560
100550
100557
100543
100553
100537
100546
100531
100539
100526
100531
100523
100528
100518
100526
100516
100524
100516
100521
100516
100521
100515
100519
100513
100518
100509
100513
100504
100511
100502
100508
100501
100504
100500
100502
100498
100501
100499
100502
100502
100504
100506
100509
100513
100517
100524
100527
100537
100538
100548
100554
100559
100565
100569
100579
100580
100587
100586
100591
100587
100593
100586
100586
100577
100573
100565
100557
100546
100535
100524
100513
100497
100489
100466
100463
100435
100431
100401
100396
100367
100355
100329
100324
100291
100287
100260
100252
100228
100219
100212
100203
100206
100191
100192
100190
100193
100195
100206
100220
100235
100261
100248
100271
100259
100278
100260
100265
100256
100271
100272
100266
100260
100255
100243
100246
100232
100232
100217
100218
100199
100197
100182
100181
100170
100164
100155
100148
100141
100133
100129
100121
100118
100109
100111
100096
100102
100096
100094
100091
100091
100091
100092
100092
100096
100100
100100
100103
100104
100104
100119
100117
100129
100133
100141
100145
100154
100162
100169
100183
100194
100209
100221
100235
100250
100266
100281
100297
100313
100330
100344
100361
100373
100392
100403
100421
100435
100454
100468
100487
100505
100526
100542
100557
100570
100590
100602
100624
100635
100651
100670
100681
100698
100717
100723
100742
100740
100773
100753
100793
100776
100805
100797
100822
100809
100835
100826
100834
100825
100842
100843
100846
100850
100856
100852
100848
100852
100851
100844
100840
100844
100840
100838
100832
100830
100823
100819
100815
100808
100801
100793
100788
100783
100776
100773
100771
100762
100765
100752
100757
100743
100746
100733
100735
100726
100725
100719
100717
100712
100707
100702
100699
100694
100690
100683
100677
100671
100664
100659
100651
100647
100638
100634
100627
100624
100618
100616
100612
100610
100607
100606
100605
100605
100605
100605
100605
100606
100606
100608
100610
100611
100615
100621
100626
100630
100642
100646
100659
100667
100676
100684
100698
100707
100714
100722
100737
100745
100754
100763
100773
100782
100791
100801
100811
100821
100831
100841
100851
100861
100872
100881
100893
100901
100912
100920
100930
100939
100949
100958
100967
100977
100985
100994
101002
101012
101021
101030
101037
101046
101053
101059
101066
101073
101080
101087
101093
101099
101103
101108
101112
101116
101119
101122
101123
101125
101126
101127
101128
101129
101130
101132
101133
101133
101134
101132
101134
101132
101133
101130
101130
101127
101127
101123
101121
101118
101116
101113
101111
101108
101105
101102
101099
101096
101093
101089
101086
101082
101079
101075
101072
101068
101065
101062
101059
101056
101053
101050
101048
101044
101042
101039
101038
101036
101034
101033
101031
101030
101030
101029
101029
101029
101029
101030
101030
101032
101033
101035
101038
101040
101044
101047
101051
101055
101060
101064
101069
101074
101079
101084
101090
101096
101102
101108
101115
101122
101129
101136
101144
101151
101159
101166
101173
101180
101186
101193
101200
101207
101214
101222
101229
101236
101243
101250
101257
101263
101269
101275
101280
101285
101291
101296
101302
101307
101312
101318
101323
101327
101331
101335
101339
101342
101345
101348
101350
101352
101354
101355
101356
101357
101357
101357
101357
101357
101356
101356
101355
101355
101354
101353
101352
101351
101350
101348
101346
101344
101341
101339
101336
101333
101331
101328
101326
100568
100568
100567
100567
100565
100565
100563
100559
100562
100555
100558
100546
100554
100538
100549
100533
100541
100528
100534
100524
100527
100518
100525
100516
100523
100515
100521
100515
100521
100515
100521
100514
100520
100512
100517
100509
100513
100505
100509
100499
100504
100499
100500
100499
100498
100499
100497
100499
100502
100503
100509
100509
100513
100516
100520
100528
100532
100537
100544
100544
100562
100560
100578
100574
100584
100582
100590
100587
100592
100587
100589
100582
100580
100571
100564
100554
100547
100540
100530
100519
100508
100491
100481
100460
100454
100427
100422
100394
100385
100358
100343
100317
100302
100273
100269
100230
100237
100205
100207
100201
100191
100188
100198
100181
100195
100192
100205
100208
100231
100250
100254
100258
100262
100267
100268
100250
100256
100254
100270
100258
100264
100248
100244
100244
100232
100229
100218
100208
100199
100193
100184
100177
100169
100163
100153
100148
100139
100135
100125
100124
100112
100115
100102
100103
100098
100102
100087
100098
100084
100094
100088
100096
100094
100101
100103
100107
100106
100110
100114
100126
100125
100140
100136
100148
100154
100163
100172
100184
100196
100209
100222
100238
100251
100265
100280
100295
100311
100325
100343
100356
100370
100385
100403
100418
100434
100445
100470
100487
100505
100527
100543
100554
100570
100586
100605
100622
100635
100652
100669
100683
100700
100704
100730
100730
100765
100745
100790
100765
100807
100779
100819
100804
100825
100820
100846
100820
100837
100831
100851
100848
100852
100855
100859
100853
100847
100851
100851
100843
100836
100845
100840
100830
100823
100822
100816
100805
100802
100799
100787
100787
100777
100776
100769
100766
100766
100752
100763
100743
100756
100737
100743
100729
100734
100722
100725
100715
100715
100707
100704
100699
100696
100690
100685
100678
100673
100667
100659
100655
100647
100642
100635
100631
100625
100621
100616
100614
100610
100609
100607
100606
100605
100605
100605
100604
100607
100605
100613
100609
100616
100616
100625
100633
100634
100636
100650
100658
100663
100672
100689
100695
100698
100713
100724
100731
100746
100752
100764
100771
100782
100791
100802
100811
100822
100830
100842
100850
100862
100871
100884
100890
100904
100910
100922
100930
100940
100949
100958
100968
100978
100987
100994
101003
101012
101022
101031
101038
101046
101052
101058
101065
101072
101080
101087
101094
101099
101105
101108
101113
101115
101119
101121
101123
101125
101127
101127
101129
101130
101132
101132
101133
101134
101132
101135
101131
101135
101130
101132
101128
101129
101124
101125
101120
101119
101114
101114
101109
101109
101104
101102
101098
101096
101091
101089
101085
101082
101078
101075
101071
101068
101064
101061
101058
101055
101052
101050
101046
101045
101041
101039
101037
101035
101033
101032
101031
101030
101029
101029
101028
101028
101029
101029
101030
101032
101034
101035
101037
101040
101043
101047
101050
101055
101059
101064
101068
101073
101078
101084
101090
101096
101102
101108
101114
101122
101129
101137
101143
101151
101158
101166
101172
101179
101186
101193
101200
101207
101214
101221
101229
101236
101243
101250
101256
101263
101268
101275
101280
101286
101290
101296
101301
101307
101312
101318
101322
101327
101331
101336
101339
101342
101345
101348
101349
101351
101353
101355
101356
101357
101357
101357
101357
101357
101356
101356
101355
101354
101354
101353
101352
101351
101349
101348
101346
101343
101341
101338
101336
101333
101330
101328
101326
100566
100566
100566
100567
100565
100564
100565
100559
100559
100558
100551
100556
100544
100550
100538
100543
100532
100536
100527
100529
100523
100526
100518
100525
100516
100524
100517
100522
100518
100521
100517
100520
100516
100518
100514
100515
100512
100510
100505
100503
100503
100499
100500
100495
100502
100493
100499
100497
100498
100501
100503
100505
100510
100514
100520
100526
100532
100541
100536
100555
100549
100570
100565
100584
100577
100591
100586
100596
100590
100594
100590
100587
100582
100575
100568
100557
100551
100544
100533
100520
100510
100495
100482
100466
100450
100433
100414
100396
100375
100356
100333
100322
100289
100287
100244
100253
100204
100213
100195
100185
100177
100182
100174
100191
100179
100183
100197
100203
100226
100250
100258
100260
100264
100274
100262
100252
100251
100255
100271
100265
100257
100254
100238
100244
100232
100228
100216
100209
100196
100193
100179
100174
100163
100158
100150
100144
100138
100131
100128
100117
100120
100104
100112
100091
100110
100089
100098
100085
100092
100088
100095
100087
100097
100099
100103
100106
100111
100110
100127
100109
100132
100134
100140
100142
100154
100159
100170
100181
100193
100207
100223
100235
100250
100264
100280
100294
100309
100327
100340
100360
100366
100390
100404
100424
100428
100449
100467
100485
100507
100534
100545
100555
100567
100596
100600
100625
100636
100654
100669
100685
100701
100711
100725
100746
100738
100774
100745
100801
100771
100813
100791
100826
100800
100845
100824
100847
100810
100852
100830
100854
100847
100857
100860
100854
100845
100843
100853
100843
100840
100840
100843
100834
100824
100819
100817
100811
100805
100795
100789
100781
100779
100769
100769
100764
100759
100763
100747
100761
100738
100752
100735
100739
100725
100732
100717
100726
100711
100714
100703
100701
100693
100689
100682
100677
100671
100665
100660
100652
100647
100640
100635
100628
100625
100619
100616
100611
100610
100606
100605
100604
100603
100603
100602
100605
100601
100608
100606
100613
100610
100620
100620
100625
100636
100638
100645
100651
100660
100676
100685
100692
100700
100720
100720
100733
100747
100755
100764
100774
100785
100792
100804
100812
100823
100832
100841
100852
100861
100873
100881
100894
100900
100915
100918
100932
100938
100949
100956
100969
100977
100986
100993
101002
101013
101023
101028
101039
101047
101051
101056
101062
101071
101079
101087
101093
101099
101103
101109
101110
101115
101118
101120
101122
101125
101126
101128
101128
101130
101131
101133
101133
101133
101135
101132
101136
101131
101134
101129
101131
101127
101128
101122
101124
101117
101117
101111
101114
101106
101107
101101
101099
101094
101094
101088
101087
101081
101079
101074
101072
101068
101065
101062
101058
101056
101052
101049
101048
101044
101042
101039
101037
101035
101033
101032
101031
101030
101029
101029
101028
101028
101029
101029
101030
101032
101034
101035
101037
101040
101043
101046
101051
101055
101059
101063
101068
101073
101079
101084
101090
101095
101102
101108
101115
101121
101129
101136
101144
101150
101159
101165
101172
101179
101185
101192
101199
101207
101214
101222
101229
101236
101244
101250
101257
101262
101269
101274
101280
101285
101291
101295
101302
101306
101313
101317
101323
101327
101332
101335
101339
101343
101345
101348
101349
101351
101353
101355
101356
101357
101358
101358
101357
101357
101357
101356
101355
101355
101354
101353
101352
101351
101350
101348
101346
101344
101341
101339
101336
101333
101330
101328
101326
100566
100569
100566
100565
100567
100565
100563
100561
100559
100555
100556
100548
100552
100545
100543
100537
100536
100531
100530
100526
100524
100522
100523
100518
100522
100517
100522
100519
100521
100519
100520
100519
100517
100516
100513
100514
100506
100510
100500
100503
100495
100500
100489
100500
100487
100499
100488
100494
100495
100499
100499
100508
100506
100513
100517
100523
100541
100529
100551
100541
100572
100552
100590
100566
100591
100583
100597
100586
100601
100590
100594
100588
100585
100579
100571
100565
100554
100545
100534
100525
100513
100500
100485
100471
100454
100438
100418
100397
100381
100355
100339
100312
100298
100262
100260
100213
100222
100192
100185
100168
100177
100156
100175
100152
100190
100175
100190
100196
100206
100256
100255
100253
100266
100267
100268
100243
100249
100246
100270
100260
100262
100247
100240
100235
100231
100222
100215
100206
100196
100190
100180
100171
100163
100154
100148
100142
100134
100132
100119
100124
100103
100120
100093
100108
100087
100104
100086
100098
100077
100098
100075
100102
100089
100106
100098
100106
100105
100115
100116
100128
100126
100138
100133
100146
100149
100167
100169
100183
100193
100210
100221
100236
100250
100263
100278
100292
100309
100322
100339
100352
100370
100384
100394
100409
100452
100452
100460
100478
100511
100527
100551
100546
100575
100580
100613
100622
100638
100654
100670
100684
100702
100714
100731
100733
100753
100748
100771
100761
100801
100778
100824
100792
100830
100816
100849
100817
100853
100807
100861
100834
100856
100854
100864
100847
100840
100847
100842
100846
100846
100841
100837
100836
100823
100817
100812
100811
100802
100796
100780
100783
100771
100771
100765
100763
100761
100755
100758
100745
100754
100737
100746
100729
100737
100717
100733
100712
100725
100708
100710
100699
100697
100689
100686
100677
100673
100666
100660
100654
100647
100641
100635
100630
100624
100620
100615
100612
100608
100607
100604
100603
100603
100601
100602
100599
100603
100601
100609
100607
100612
100613
100621
100623
100633
100638
100643
100650
100662
100674
100684
100689
100700
100716
100721
100736
100745
100754
100764
100774
100785
100793
100804
100813
100823
100830
100843
100850
100862
100871
100883
100890
100904
100910
100925
100927
100941
100947
100958
100968
100978
100986
100995
101002
101016
101022
101031
101038
101047
101052
101055
101061
101071
101080
101087
101093
101098
101105
101107
101112
101114
101117
101119
101122
101123
101128
101127
101130
101129
101131
101132
101134
101134
101133
101135
101132
101135
101131
101133
101128
101130
101126
101126
101119
101121
101114
101115
101107
101111
101103
101103
101097
101098
101090
101092
101084
101083
101077
101076
101069
101070
101062
101063
101058
101056
101052
101049
101046
101044
101041
101039
101037
101035
101033
101032
101031
101030
101029
101029
101028
101028
101029
101029
101030
101032
101034
101035
101037
101040
101043
101047
101050
101054
101059
101063
101067
101073
101078
101084
101089
101096
101101
101108
101114
101122
101129
101137
101143
101152
101157
101165
101171
101178
101185
101192
101199
101206
101214
101221
101229
101237
101244
101251
101257
101262
101268
101275
101279
101286
101290
101296
101300
101308
101312
101318
101322
101328
101331
101336
101339
101343
101346
101347
101348
101351
101353
101355
101357
101357
101358
101358
101357
101358
101357
101356
101355
101355
101354
101353
101352
101351
101350
101348
101347
101344
101342
101338
101337
101333
101331
101328
101326
100570
100564
100570
100565
100564
100564
100562
100561
100557
100559
100552
100551
100546
100543
100540
100537
100535
100532
100529
100527
100525
100522
100521
100521
100519
100521
100520
100520
100521
100518
100522
100515
100520
100512
100516
100508
100514
100499
100502
100494
100500
100486
100495
100483
100497
100480
100493
100489
100492
100492
100499
100499
100505
100511
100512
100523
100531
100536
100545
100553
100539
100585
100555
100593
100578
100601
100582
100608
100588
100604
100590
100594
100587
100583
100575
100568
100561
100551
100541
100529
100518
100503
100489
100472
100458
100436
100418
100398
100375
100358
100332
100318
100281
100273
100236
100228
100196
100191
100168
100166
100136
100154
100140
100178
100159
100163
100177
100185
100210
100240
100255
100259
100260
100267
100258
100245
100241
100250
100261
100270
100245
100250
100235
100237
100223
100220
100212
100204
100196
100186
100178
100167
100161
100150
100145
100135
100134
100122
100126
100106
100122
100093
100113
100084
100108
100078
100102
100079
100091
100070
100094
100079
100105
100091
100102
100096
100117
100115
100126
100115
100141
100132
100136
100143
100148
100163
100168
100177
100202
100206
100223
100234
100248
100262
100278
100291
100307
100321
100337
100353
100366
100387
100394
100433
100426
100450
100464
100486
100508
100535
100529
100561
100555
100603
100598
100628
100636
100654
100669
100683
100697
100717
100720
100742
100738
100762
100755
100791
100767
100810
100782
100831
100786
100845
100811
100842
100810
100859
100825
100859
100839
100868
100854
100850
100842
100845
100839
100846
100842
100853
100836
100830
100827
100812
100811
100806
100807
100781
100785
100780
100773
100764
100766
100759
100758
100753
100753
100754
100739
100753
100733
100742
100726
100735
100712
100734
100707
100723
100704
100706
100693
100693
100682
100681
100670
100667
100660
100655
100648
100641
100636
100629
100625
100618
100615
100610
100609
100604
100603
100601
100599
100601
100596
100599
100598
100601
100603
100612
100603
100623
100612
100627
100629
100637
100641
100648
100658
100671
100682
100693
100695
100718
100722
100737
100749
100755
100765
100775
100785
100795
100805
100813
100823
100834
100841
100853
100862
100872
100880
100893
100900
100915
100919
100933
100935
100950
100951
100972
100974
100989
100989
101007
101015
101025
101027
101042
101046
101050
101054
101058
101070
101081
101086
101093
101098
101103
101108
101110
101113
101117
101118
101119
101124
101126
101128
101127
101132
101129
101134
101132
101134
101134
101134
101135
101133
101133
101131
101131
101128
101130
101124
101124
101117
101118
101110
101114
101104
101109
101099
101102
101092
101097
101086
101089
101079
101081
101072
101074
101064
101069
101058
101062
101057
101051
101049
101047
101044
101041
101040
101037
101035
101033
101032
101031
101029
101029
101029
101028
101028
101028
101030
101029
101033
101034
101034
101036
101040
101043
101046
101050
101055
101059
101062
101068
101072
101079
101083
101090
101095
101102
101107
101115
101121
101130
101136
101144
101150
101158
101164
101172
101178
101185
101192
101199
101207
101214
101221
101229
101236
101244
101251
101257
101262
101269
101274
101280
101285
101291
101295
101302
101307
101313
101317
101323
101327
101331
101335
101340
101343
101346
101346
101348
101351
101353
101355
101356
101357
101359
101359
101357
101357
101358
101357
101356
101354
101354
101353
101352
101351
101350
101349
101347
101345
101341
101340
101336
101334
101330
101328
101326
100566
100570
100564
100567
100564
100562
100560
100557
100558
100552
100552
100547
100546
100541
100539
100535
100531
100532
100520
100528
100518
100522
100519
100519
100518
100521
100518
100522
100518
100521
100517
100524
100511
100518
100509
100517
100500
100510
100493
100500
100486
100493
100481
100495
100475
100492
100480
100486
100486
100489
100492
100502
100501
100507
100506
100523
100535
100533
100543
100540
100567
100551
100593
100565
100602
100578
100611
100584
100617
100589
100608
100590
100594
100585
100581
100573
100565
100555
100545
100535
100522
100510
100492
100478
100456
100443
100419
100400
100383
100363
100336
100310
100286
100263
100237
100199
100205
100151
100175
100122
100154
100131
100136
100150
100171
100139
100186
100179
100198
100236
100269
100230
100271
100249
100261
100238
100244
100251
100267
100237
100249
100237
100243
100224
100221
100212
100208
100200
100190
100183
100173
100164
100156
100147
100140
100134
100126
100124
100108
100121
100094
100114
100084
100109
100080
100098
100077
100090
100082
100082
100056
100110
100073
100112
100082
100109
100102
100132
100105
100123
100140
100150
100125
100129
100159
100169
100164
100186
100197
100214
100223
100234
100250
100261
100277
100289
100309
100316
100338
100349
100370
100381
100408
100413
100428
100444
100473
100480
100512
100514
100549
100534
100587
100576
100617
100618
100638
100651
100668
100679
100699
100705
100726
100728
100747
100748
100771
100763
100802
100775
100821
100785
100832
100793
100844
100829
100826
100802
100879
100823
100857
100852
100865
100834
100840
100839
100850
100837
100855
100838
100833
100831
100817
100804
100817
100806
100797
100782
100768
100784
100768
100765
100762
100757
100753
100753
100751
100749
100750
100738
100748
100732
100741
100721
100735
100708
100733
100703
100719
100698
100704
100687
100691
100676
100677
100665
100663
100654
100649
100642
100636
100630
100624
100620
100614
100611
100606
100604
100602
100598
100600
100596
100598
100595
100598
100597
100599
100602
100616
100615
100617
100615
100629
100632
100636
100648
100658
100669
100680
100693
100697
100717
100725
100734
100750
100748
100767
100774
100786
100795
100805
100814
100824
100833
100844
100853
100863
100871
100883
100892
100903
100909
100925
100926
100943
100944
100959
100962
100982
100980
100999
101002
101022
101016
101030
101038
101048
101051
101050
101055
101077
101077
101087
101090
101098
101102
101110
101109
101114
101117
101116
101118
101124
101128
101126
101130
101129
101134
101129
101136
101131
101137
101133
101135
101134
101133
101133
101130
101131
101128
101127
101120
101121
101115
101115
101107
101112
101099
101109
101094
101101
101088
101094
101081
101087
101074
101079
101066
101073
101059
101065
101056
101058
101052
101049
101047
101043
101042
101037
101039
101035
101033
101032
101031
101030
101029
101028
101028
101028
101028
101029
101030
101032
101033
101034
101036
101040
101043
101046
101050
101055
101058
101063
101067
101073
101078
101084
101089
101096
101101
101108
101114
101122
101129
101137
101143
101152
101157
101165
101170
101178
101184
101192
101199
101206
101213
101221
101228
101237
101244
101252
101256
101263
101268
101274
101279
101285
101290
101296
101300
101308
101312
101318
101322
101328
101332
101335
101339
101344
101344
101346
101348
101351
101352
101355
101357
101357
101359
101359
101358
101358
101358
101357
101355
101354
101354
101353
101352
101351
101350
101349
101347
101344
101343
101339
101337
101333
101331
101328
101326
100568
100563
100567
100563
100563
100561
100559
100556
100553
100552
100546
100547
100540
100540
100535
100529
100532
100517
100530
100514
100523
100518
100518
100517
100519
100517
100522
100517
100522
100517
100524
100512
100523
100509
100518
100504
100515
100494
100502
100485
100494
100481
100489
100472
100488
100473
100481
100479
100483
100480
100492
100494
100503
100500
100515
100516
100524
100531
100547
100547
100544
100584
100565
100591
100580
100605
100584
100619
100584
100627
100592
100611
100591
100598
100583
100581
100567
100561
100552
100540
100529
100514
100499
100483
100460
100447
100413
100408
100379
100357
100330
100303
100276
100260
100240
100199
100184
100173
100134
100158
100101
100145
100123
100132
100154
100171
100160
100174
100200
100256
100218
100252
100242
100265
100238
100242
100234
100257
100245
100251
100235
100240
100220
100229
100208
100210
100202
100190
100191
100173
100168
100154
100152
100140
100137
100126
100123
100111
100117
100093
100113
100083
100107
100075
100100
100074
100089
100072
100089
100067
100082
100060
100109
100072
100110
100086
100120
100110
100128
100118
100146
100138
100119