/*--------------------------------*- C++ -*----------------------------------*\
| =========                 |                                                 |
| \\      /  F ield         | OpenFOAM: The Open Source CFD Toolbox           |
|  \\    /   O peration     | Version:  v1812                                 |
|   \\  /    A nd           | Web:      www.OpenFOAM.com                      |
|    \\/     M anipulation  |                                                 |
\*---------------------------------------------------------------------------*/
FoamFile
{
    version     2.0;
    format      ascii;
    class       surfaceScalarField;
    location    "0.9";
    object      phi;
}
// * * * * * * * * * * * * * * * * * * * * * * * * * * * * * * * * * * * * * //

dimensions      [1 0 -1 0 0 0 0];
oriented        oriented;


internalField   nonuniform List<scalar> 
40240
(
-0.00040805
-7.78919e-05
-0.000546043
-0.000348254
-0.000926472
-9.97646e-05
-0.00125471
-0.000154243
-0.00173206
-1.40819e-06
-0.00210707
-9.86931e-05
-0.00263518
5.68312e-05
-0.0030336
-6.76361e-05
-0.0035989
0.00010321
-0.0040604
3.6694e-06
-0.00464476
0.000131909
-0.00511686
2.55751e-05
-0.00574176
0.000184485
-0.00624523
6.97499e-05
-0.00689766
0.000224417
-0.00740934
8.91713e-05
-0.00806817
0.000241251
-0.00859814
0.000115792
-0.00924184
0.000232851
-0.00977888
0.00012922
-0.0103759
0.000191324
-0.01088
0.000101933
-0.0114997
0.000221222
-0.0120053
0.000109969
-0.0126437
0.000246547
-0.0131538
0.000117728
-0.013795
0.000247361
-0.0143363
0.000150875
-0.0149919
0.000270446
-0.015569
0.000199476
-0.0162801
0.000337067
-0.0169265
0.000277496
-0.0177079
0.00042536
-0.018411
0.000352868
-0.0192783
0.000522225
-0.0200689
0.000455901
-0.0209905
0.000593684
-0.0218418
0.000527629
-0.0227911
0.000640112
-0.0236724
0.000566016
-0.0246506
0.000671456
-0.02554
0.000597192
-0.0264144
0.000581088
-0.027208
0.000509846
-0.0278575
0.000369531
-0.0283838
0.000253744
-0.0286492
-1.58464e-06
-0.0288426
-6.57113e-05
-0.0288491
-0.000243411
-0.0288174
-0.00027666
-0.0287149
-0.000342023
-0.0285281
-0.000420085
-0.0281872
-0.000569275
-0.0278961
-0.000508914
-0.0275491
-0.000562289
-0.0272873
-0.000472147
-0.0270204
-0.000457253
-0.0267233
-0.000486874
-0.0262777
-0.000616199
-0.0257934
-0.000653215
-0.0252817
-0.000669265
-0.0247348
-0.000697438
-0.0242037
-0.000680987
-0.0235544
-0.0007883
-0.0230068
-0.000675818
-0.0223583
-0.0007758
-0.021758
-0.000721998
-0.021096
-0.000778702
-0.0205413
-0.000664533
-0.0199624
-0.000700314
-0.0195256
-0.000535319
-0.0190847
-0.00054443
-0.0187848
-0.000383544
-0.0184706
-0.00039673
-0.0181916
-0.000357266
-0.0177434
-0.000523178
-0.0174028
-0.000415495
-0.0169921
-0.000485123
-0.0167093
-0.000355664
-0.0165449
-0.000232125
-0.0165544
-5.22716e-05
-0.0165062
-0.000108724
-0.0168279
0.000259353
-0.01709
0.000206821
-0.0177591
0.000628152
-0.018373
0.000567007
-0.019464
0.0010503
-0.0204805
0.000975825
-0.0220621
0.00154647
-0.0235061
0.00141522
-0.0253511
0.00182672
-0.0270225
0.00164093
-0.0291419
0.00210452
-0.031094
0.00194035
-0.0331881
0.00208738
-0.0352977
0.0021
-0.0372145
0.00190242
-0.0388742
0.00164787
-0.0398549
0.000975284
-0.0403903
0.000530679
-0.040334
-6.32639e-05
-0.03993
-0.000413346
-0.0390218
-0.000892764
-0.0381955
-0.000840524
-0.0372648
-0.000933913
-0.0363326
-0.000908641
-0.0348745
-0.00146929
-0.0331964
-0.00166389
-0.031007
-0.00218588
-0.0289506
-0.00205241
-0.0272433
-0.00170181
-0.0253295
-0.00191126
-0.0238788
-0.00144517
-0.0221763
-0.00169442
-0.0209793
-0.00118699
-0.0196742
-0.00129815
-0.0179777
-0.00169466
-0.015847
-0.0021322
-0.0137575
-0.00209173
-0.0116649
-0.0020935
-0.00995114
-0.00171746
-0.0082557
-0.00169808
-0.00677411
-0.00148375
-0.005294
-0.00148317
-0.00409523
-0.00120131
-0.0026717
-0.00142093
-0.00150272
-0.00116339
-0.000559124
-0.000946046
0.000189772
-0.000751941
0.000671587
-0.000485098
0.00111406
-0.000445291
0.00132825
-0.000213373
0.00155391
-0.000229029
0.00171081
-0.000161877
0.00185615
-0.000151266
0.00199031
-0.000140555
0.00205771
-7.36051e-05
0.00210784
-5.90195e-05
0.00211002
-1.39466e-05
0.00210683
-1.3872e-05
0.00207417
1.43808e-05
0.00205206
4.24306e-06
0.00194561
8.96317e-05
0.00181848
0.000105232
0.0017067
8.51632e-05
0.00160197
7.52232e-05
0.00143932
0.000129511
0.00118515
0.000217913
0.000966494
0.000181109
0.000802613
0.000123824
0.000674752
8.47796e-05
0.000427932
0.000200936
0.000309415
7.10449e-05
0.000227481
3.34403e-05
0.000230601
-4.84984e-05
5.17987e-05
0.000130614
-0.000127044
0.000128768
-0.000480294
0.00030643
-0.000862686
0.000334112
-0.00122901
0.000318135
-0.00151519
0.000240422
-0.00181285
0.000251962
-0.00216359
0.000303426
-0.00253269
0.000317636
-0.00292498
0.000336007
-0.00332946
0.000346903
-0.00380569
0.000415676
-0.00423131
0.000363588
-0.00467684
0.000383539
-0.0050059
0.000264863
-0.00531741
0.000240047
-0.00555423
0.000161712
-0.00577657
0.000146398
-0.00593596
7.8324e-05
-0.00604241
2.40065e-05
-0.00609486
-3.15406e-05
-0.00607554
-0.000104808
-0.00595774
-0.000202892
-0.00575597
-0.000284387
-0.00543463
-0.00040173
-0.00507235
-0.000438752
-0.00461732
-0.000526717
-0.00422266
-0.000463488
-0.00382133
-0.000470511
-0.00336416
-0.000526926
-0.00282619
-0.00061109
-0.00229096
-0.000608654
-0.00178991
-0.000576999
-0.00125033
-0.000612974
-0.000729547
-0.000594282
-0.000312415
-0.000485891
-0.000147014
-0.000237528
-2.4155e-05
-0.000191649
0.000105629
-0.000196418
0.000282298
-0.000246239
0.000470684
-0.00025649
0.000637162
-0.000233018
0.000797168
-0.00022481
0.000985431
-0.000248274
0.00111834
-0.000187244
0.00115996
-8.9824e-05
0.0012454
-0.00013066
0.00129032
-8.58187e-05
0.00129649
-3.62107e-05
0.00130005
-3.72268e-05
0.00125351
1.66665e-05
0.00116296
5.34788e-05
0.00109124
4.99851e-05
0.000993414
7.63374e-05
0.000856784
0.00011309
0.000714937
0.000115669
0.000593702
9.30724e-05
0.000318083
0.000249887
0.000196255
9.51077e-05
7.04935e-05
0.000102828
-6.32265e-05
0.000102911
-0.000593801
0.000500901
-0.00127637
0.000649236
-0.00197813
0.000667799
-0.00255033
0.000539019
-0.0031547
0.000572529
-0.00383096
0.000649411
-0.00432292
0.000472391
-0.00497269
0.000624469
-0.0055917
0.000595039
-0.00641479
0.000801388
-0.00712033
0.000690214
-0.00766754
0.000533681
-0.00811476
0.000440464
-0.0086169
0.000495504
-0.00900663
0.000386872
-0.0092128
0.000204889
-0.00942819
0.000212466
-0.0097932
0.000368044
-0.0102368
0.00044748
-0.0107717
0.000539423
-0.0111399
0.000368225
-0.0115598
0.000425159
-0.0120502
0.000499736
-0.0125634
0.000522206
-0.0130044
0.00045065
-0.0134141
0.000418159
-0.0137265
0.000321197
-0.0138935
0.000176258
-0.0139885
0.000105446
-0.014011
3.34305e-05
-0.0140043
5.48492e-06
-0.0139335
-6.02202e-05
-0.013853
-6.5284e-05
-0.0136914
-0.000143443
-0.0135373
-0.00013707
-0.0132994
-0.000215231
-0.0130774
-0.000199546
-0.0128155
-0.000234695
-0.0125814
-0.000205801
-0.0123738
-0.000178347
-0.0121945
-0.000151547
-0.0120289
-0.000135024
-0.0118673
-0.000131496
-0.0117382
-9.93164e-05
-0.0116108
-9.79588e-05
-0.0114884
-9.40672e-05
-0.0113637
-9.71944e-05
-0.011295
-4.21609e-05
-0.0112818
1.40736e-05
-0.0112976
4.14222e-05
-0.0113084
3.64077e-05
-0.0114325
0.00015127
-0.0115377
0.000133076
-0.0117153
0.000206801
-0.0118889
0.000203958
-0.0121318
0.000274753
-0.01237
0.000274314
-0.0126604
0.000327602
-0.0129445
0.000323927
-0.0132431
0.000341208
-0.0135507
0.000349041
-0.0138227
0.000315747
-0.0140921
0.00030619
-0.0142784
0.000221908
-0.0144116
0.000163329
-0.0144633
7.92929e-05
-0.0144418
2.33037e-06
-0.0143346
-8.67478e-05
-0.0141034
-0.000210934
-0.0137633
-0.000321314
-0.013311
-0.00043152
-0.0129109
-0.000381458
-0.0125712
-0.000313753
-0.0122324
-0.000316281
-0.0118913
-0.00032027
-0.011439
-0.000431118
-0.0110941
-0.000323424
-0.0108093
-0.00026567
-0.0104709
-0.000321104
-0.010045
-0.000412601
-0.00942817
-0.000604615
-0.00879294
-0.000620101
-0.00821938
-0.000563769
-0.00761307
-0.000603135
-0.00690166
-0.000706929
-0.00616897
-0.000728438
-0.00559725
-0.000569163
-0.00499013
-0.000606127
-0.00442393
-0.000568945
-0.00386286
-0.000566255
-0.00341521
-0.000454353
-0.00293567
-0.000487022
-0.00256202
-0.000382627
-0.00217385
-0.000397857
-0.00189543
-0.000287763
-0.00158498
-0.000321702
-0.00132276
-0.000275799
-0.00112926
-0.000209323
-0.000984414
-0.000163264
-0.000892686
-0.000114477
-0.000841379
-7.82945e-05
-0.000825331
-4.80414e-05
-0.000838901
-2.21142e-05
-0.000878791
1.28642e-06
-0.000944956
2.55915e-05
-0.00103978
5.27026e-05
-0.00116533
8.18987e-05
-0.00131128
0.000100509
-0.00147226
0.000114111
-0.00163933
0.00011831
-0.00180616
0.000116016
-0.00197589
0.000116556
-0.00210967
7.85756e-05
-0.00224026
7.38621e-05
-0.00236703
6.87862e-05
-0.00251102
8.3971e-05
-0.00260904
3.68435e-05
-0.00268706
1.47307e-05
-0.00277658
2.56594e-05
-0.00290256
6.14137e-05
-0.00296794
3.79223e-06
-0.00307579
4.75264e-05
-0.00318928
5.54037e-05
-0.00333186
8.61333e-05
-0.00345449
6.4614e-05
-0.00358697
7.07746e-05
-0.00371288
5.82579e-05
-0.0038359
4.88166e-05
-0.00395926
4.41269e-05
-0.0040885
4.63854e-05
-0.00421223
4.10444e-05
-0.00432207
2.97137e-05
-0.00440825
1.12171e-05
-0.00447607
-9.70369e-07
-0.00452596
-1.24821e-05
-0.00457124
-1.07394e-05
-0.00461689
-5.52452e-06
-0.00467787
1.21682e-05
-0.00474592
2.09345e-05
-0.00481024
1.79387e-05
-0.00486144
5.03026e-06
-0.00490389
-2.55353e-06
-0.00493965
-7.94343e-06
-0.00497734
-4.51753e-06
-0.0050209
3.0909e-06
-0.00506273
2.77328e-06
-0.00510409
3.31721e-06
-0.00513368
-7.14825e-06
-0.005165
-3.43208e-06
-0.00518249
-1.55594e-05
-0.00520458
-9.35247e-06
-0.00521437
-1.98364e-05
-0.00522774
-1.37947e-05
-0.00523056
-2.2477e-05
-0.0052378
-1.52505e-05
-0.00523838
-1.77491e-05
-0.0052401
-1.26763e-05
-0.00523659
-1.44623e-05
-0.00523304
-1.0594e-05
-0.00522048
-1.53986e-05
-0.00520914
-1.06741e-05
-0.00518526
-1.978e-05
-0.00516126
-1.7265e-05
-0.00513073
-1.97012e-05
-0.00509883
-1.84996e-05
-0.00506132
-2.14121e-05
-0.00501928
-2.38839e-05
-0.00497577
-2.27267e-05
-0.0049323
-2.02991e-05
-0.00489105
-1.56402e-05
-0.00484867
-1.47488e-05
-0.0048033
-1.52275e-05
-0.00474713
-2.3074e-05
-0.00468491
-2.65478e-05
-0.00461859
-2.78071e-05
-0.00454631
-3.10118e-05
-0.0044778
-2.46995e-05
-0.00441204
-1.94348e-05
-0.00434227
-2.10274e-05
-0.00426889
-2.24474e-05
-0.00419653
-1.90868e-05
-0.00412646
-1.47539e-05
-0.00405914
-1.00208e-05
-0.00398493
-1.53838e-05
-0.00390962
-1.54557e-05
-0.00383245
-1.6394e-05
-0.00375124
-2.00986e-05
-0.00367221
-1.78009e-05
-0.00359682
-1.41435e-05
-0.00352788
-7.61585e-06
-0.00346347
-3.12553e-06
-0.00340181
-3.30132e-07
-0.00333659
-4.05896e-06
-0.00326973
-6.25896e-06
-0.00320251
-7.36886e-06
-0.00313831
-5.70921e-06
-0.00307229
-9.20792e-06
-0.00301006
-7.28194e-06
-0.0029593
2.24151e-06
-0.00291874
1.0254e-05
-0.00287443
4.57744e-06
-0.00282865
1.00346e-06
-0.00278386
3.29187e-07
-0.00273834
-1.89636e-06
-0.00268853
-7.30228e-06
-0.00264047
-6.43167e-06
-0.00260141
1.71187e-06
-0.00256886
7.20548e-06
-0.00253469
4.08909e-06
-0.00250164
3.13372e-06
-0.00246888
8.06359e-07
-0.0024363
-2.34567e-06
-0.00240754
-2.39814e-06
-0.00238651
1.06744e-06
-0.00237089
2.3224e-06
-0.00235871
7.52847e-07
-0.00234998
5.45477e-08
-0.00234349
-2.0528e-06
-0.00233978
-2.11156e-06
-0.00233666
-3.86644e-06
-0.0023348
-3.85448e-06
-0.00233301
-4.89713e-06
-0.00233307
-4.75574e-06
-0.00233486
-3.82553e-06
-0.00233997
-2.49733e-06
-0.00234858
-1.24331e-06
-0.00236015
-1.53862e-06
-0.00237539
-1.88409e-06
-0.00239244
-4.44459e-06
-0.00241299
-5.06568e-06
-0.0024363
-6.75028e-06
-0.00246213
-7.82033e-06
-0.0024869
-1.26984e-05
-0.0025147
-1.28443e-05
-0.00254736
-1.05541e-05
-0.0025833
-8.9807e-06
-0.00262105
-8.38451e-06
-0.0026547
-1.32378e-05
-0.00269183
-1.08383e-05
-0.00273728
-3.51426e-06
-0.00278587
-2.01045e-06
-0.00283734
-1.44363e-06
-0.00289183
-1.16574e-06
-0.00294522
-5.33115e-06
-0.00299146
-1.50751e-05
-0.00302742
-2.76053e-05
-0.00306216
-3.00999e-05
-0.00310634
-2.13833e-05
-0.00316214
-1.01602e-05
-0.00321811
-1.01628e-05
-0.00327921
-5.54752e-06
-0.00334471
-1.33981e-06
-0.00341269
1.38216e-06
-0.0034833
5.01824e-06
-0.00355342
6.40631e-06
-0.00362122
5.97282e-06
-0.00367635
-5.44489e-06
-0.00372237
-1.45222e-05
-0.00376826
-1.51707e-05
-0.00381319
-1.76691e-05
-0.0038586
-1.79807e-05
-0.00391259
-9.82358e-06
-0.00396526
-1.08756e-05
-0.00401098
-1.67143e-05
-0.00405022
-2.07731e-05
-0.00409132
-1.58578e-05
-0.00413347
-1.16707e-05
-0.00417333
-1.08999e-05
-0.00421099
-9.34733e-06
-0.00424793
-6.36997e-06
-0.00428268
-5.98083e-06
-0.00431446
-6.97525e-06
-0.00434255
-8.93528e-06
-0.00436635
-1.18427e-05
-0.00438569
-1.47684e-05
-0.00439839
-1.93924e-05
-0.00440467
-2.34679e-05
-0.00440743
-2.40699e-05
-0.00440389
-2.66989e-05
-0.00439519
-2.86895e-05
-0.004378
-3.34233e-05
-0.00435263
-3.67924e-05
-0.00432552
-3.20978e-05
-2.99475e-05
-0.000517321
-4.52142e-05
-0.00143063
7.65168e-05
-0.00199534
-1.21929e-05
-0.00303195
0.000404836
-0.00392661
0.000409426
-0.00497523
0.000475323
-0.00586477
0.000477481
-0.00701905
0.000617434
-0.00791438
0.000535596
-0.00911757
0.000748752
-0.0100161
0.000577804
-0.0112237
0.000786498
-0.0121469
0.000667193
-0.0133731
0.000861391
-0.0142671
0.000690968
-0.0154456
0.0008444
-0.0163309
0.000709904
-0.0174708
0.00083998
-0.018344
0.000695013
-0.019415
0.000792493
-0.0202901
0.000661367
-0.0213528
0.000762474
-0.022207
0.000674136
-0.023277
0.000787125
-0.0241075
0.000681524
-0.0251634
0.000787133
-0.0260264
0.000716409
-0.0270982
0.000828854
-0.0280205
0.000807794
-0.0291241
0.000923272
-0.030082
0.000919834
-0.0312336
0.001065
-0.0322405
0.00107038
-0.0334298
0.00119828
-0.0344323
0.00118565
-0.035659
0.00133935
-0.0366855
0.00128042
-0.0378845
0.00140728
-0.0389197
0.00135961
-0.0400257
0.00136247
-0.0409704
0.00131897
-0.0419775
0.00129126
-0.0428547
0.00117735
-0.043591
0.000956112
-0.0443161
0.000810492
-0.0447582
0.000429902
-0.0452434
0.000215355
-0.0454269
-0.000138953
-0.0455813
-0.000342181
-0.0455837
-0.000517992
-0.0454841
-0.000679829
-0.0452605
-0.000880445
-0.0450417
-0.00101464
-0.0445411
-0.00123925
-0.0440927
-0.00122473
-0.0435665
-0.00120255
-0.0429682
-0.00125221
-0.0423244
-0.00131083
-0.0415746
-0.00153489
-0.0407188
-0.00168949
-0.0397269
-0.00181879
-0.0388451
-0.0017312
-0.0377545
-0.00191786
-0.036857
-0.00182255
-0.0358145
-0.00185634
-0.0349716
-0.00174808
-0.0339598
-0.0018585
-0.0331271
-0.00172776
-0.0321541
-0.0017602
-0.0314487
-0.00151509
-0.0305783
-0.0015109
-0.0300219
-0.00119336
-0.0293283
-0.00116364
-0.0289433
-0.000871845
-0.0284934
-0.000882828
-0.0283381
-0.000756861
-0.0280827
-0.000746412
-0.0280363
-0.000604811
-0.0279984
-0.000465192
-0.0283108
8.35131e-06
-0.0285342
0.000111365
-0.0292142
0.000507744
-0.0297138
0.000698229
-0.0308226
0.00124637
-0.031598
0.00136896
-0.0330997
0.00202626
-0.0342636
0.0021773
-0.0361933
0.0028646
-0.0376641
0.00298369
-0.039831
0.00355161
-0.0415191
0.00349364
-0.0436328
0.00374372
-0.0453359
0.00377289
-0.0472002
0.00381217
-0.0487532
0.00362711
-0.0501236
0.00342554
-0.0513837
0.00317597
-0.0519881
0.0022408
-0.0526384
0.00162334
-0.0527726
0.00066143
-0.0528263
-1.58515e-05
-0.0522591
-0.00098275
-0.0517094
-0.00144868
-0.0502779
-0.00224629
-0.0489007
-0.00232244
-0.0471371
-0.00264808
-0.0453326
-0.00326803
-0.0430416
-0.00391905
-0.0402976
-0.00490605
-0.0376968
-0.00466383
-0.0347731
-0.00461499
-0.032305
-0.00437057
-0.0299491
-0.0037986
-0.0277598
-0.00387618
-0.025754
-0.00318251
-0.0240766
-0.00296956
-0.022126
-0.0036403
-0.0198387
-0.00442063
-0.0168869
-0.00504125
-0.014555
-0.00442675
-0.0120237
-0.00425334
-0.0101142
-0.00361227
-0.00798999
-0.00360919
-0.00595238
-0.0035229
-0.00372863
-0.00342437
-0.00227564
-0.00287441
-0.00115354
-0.00228598
0.000120253
-0.00222105
0.00112
-0.00176213
0.00224911
-0.00162552
0.00305552
-0.00125533
0.00388846
-0.00105298
0.00450823
-0.000852383
0.00505186
-0.000713038
0.00549315
-0.000598688
0.00580325
-0.000458846
0.00607595
-0.000353696
0.00617583
-0.000168814
0.00628466
-0.000131378
0.00628354
-2.98032e-05
0.00625217
2.3759e-05
0.00609685
0.000144291
0.00593098
0.000244342
0.00564025
0.00036494
0.00540384
0.000294636
0.00508337
0.000363103
0.0046638
0.000518504
0.00423553
0.000610533
0.00360501
0.000774758
0.00308677
0.000601316
0.00252821
0.000600127
0.00214313
0.000539572
0.00162354
0.000541238
0.00136453
0.00024413
0.00107142
0.000194886
0.000775469
0.000375568
0.00024718
0.000606865
-0.000209471
0.000717089
-0.000654565
0.000728271
-0.00103257
0.000647416
-0.00138955
0.000550153
-0.0016777
0.000493412
-0.00208152
0.000662716
-0.0024626
0.000654444
-0.00288464
0.000698311
-0.00331552
0.000721176
-0.00376157
0.000802684
-0.00423328
0.000774044
-0.00459223
0.000685427
-0.00501771
0.000628762
-0.00527913
0.000436688
-0.00553509
0.00035231
-0.00573841
0.000267038
-0.00589173
0.000154663
-0.00601473
6.49123e-05
-0.00606531
-6.48615e-05
-0.00603912
-0.000214791
-0.00593646
-0.00038821
-0.00571009
-0.000591556
-0.00541903
-0.000772069
-0.00500366
-0.000929482
-0.00457291
-0.00102913
-0.00414944
-0.00095533
-0.0037016
-0.000990073
-0.00320089
-0.00110005
-0.00263433
-0.00125164
-0.00202258
-0.00129713
-0.00146473
-0.00120551
-0.000802091
-0.00133972
-0.00019576
-0.00126615
0.000273918
-0.00102291
0.000665431
-0.000699681
0.000989101
-0.000583848
0.00157116
-0.000847173
0.00213717
-0.000878011
0.00281058
-0.0009986
0.0032914
-0.000781443
0.00377233
-0.000771199
0.00429268
-0.000829796
0.00458856
-0.000536629
0.00493815
-0.000485781
0.00501262
-0.000246807
0.00510469
-0.000220032
0.00516498
-0.00011637
0.00509967
4.82349e-06
0.0049505
0.000123097
0.0047477
0.000204394
0.00460066
0.000171435
0.00422761
0.000430674
0.00384012
0.000478834
0.00339084
0.000545906
0.00280571
0.00064275
0.00223811
0.000789562
0.00165058
0.000654397
0.0012547
0.000477561
0.000560897
0.000770116
-0.000180187
0.00121702
-0.00101741
0.00145352
-0.00178741
0.00140481
-0.00250228
0.00122234
-0.00303865
0.00107643
-0.00400367
0.00158631
-0.00526536
0.00169985
-0.00608658
0.00142136
-0.00695778
0.00144462
-0.00789694
0.00173563
-0.00885812
0.00163871
-0.00960817
0.00127952
-0.0101938
0.00102082
-0.0108846
0.00118347
-0.0117012
0.00120151
-0.0123289
0.000832025
-0.0130228
0.0009099
-0.0135851
0.000927708
-0.0143322
0.00119605
-0.0149585
0.0011722
-0.0155795
0.00100141
-0.016107
0.000951712
-0.0166365
0.00103418
-0.0170733
0.000971432
-0.0174009
0.000781823
-0.0177049
0.000734321
-0.0178625
0.000487383
-0.018016
0.000339079
-0.0180503
0.000148777
-0.0180794
7.22643e-05
-0.0180217
-4.03631e-05
-0.0179828
-8.38307e-05
-0.01782
-0.000207409
-0.0177224
-0.000231499
-0.0175225
-0.000316192
-0.0173997
-0.000315387
-0.0171706
-0.000401573
-0.0169892
-0.000395071
-0.0167502
-0.000416849
-0.0165306
-0.000367976
-0.0163493
-0.000308281
-0.0161709
-0.000270179
-0.0160702
-0.000202533
-0.0159947
-0.0001442
-0.0159752
-8.79126e-05
-0.0159765
-6.45237e-05
-0.0160625
1.67295e-05
-0.0161417
6.37118e-05
-0.0163147
0.000213465
-0.0164459
0.00019912
-0.0166699
0.000287027
-0.0168165
0.000324847
-0.0170752
0.000419304
-0.0172646
0.000424471
-0.0175423
0.000513272
-0.0177447
0.000509783
-0.0180166
0.000582526
-0.0182222
0.000571128
-0.0184645
0.00060221
-0.018661
0.000578234
-0.0188296
0.000560876
-0.0190008
0.000528296
-0.0190789
0.000423701
-0.0191793
0.000357423
-0.0192261
0.00024092
-0.0192332
0.000114509
-0.0192031
-3.34853e-06
-0.0190743
-0.000194539
-0.0189496
-0.000314786
-0.0186327
-0.000620645
-0.0183209
-0.000725174
-0.0178464
-0.000825725
-0.0173323
-0.000814974
-0.0167737
-0.000858025
-0.0161235
-0.000942438
-0.0154446
-0.00109245
-0.0147529
-0.000991365
-0.014133
-0.000866573
-0.0134117
-0.00102185
-0.0126723
-0.00113981
-0.0118098
-0.00145787
-0.0110813
-0.00133952
-0.0103764
-0.00126042
-0.00957015
-0.00139752
-0.00861126
-0.00166015
-0.00774073
-0.00159236
-0.00705245
-0.00125398
-0.00632429
-0.00133432
-0.00538665
-0.00150916
-0.00473259
-0.00122439
-0.00394843
-0.00124534
-0.00342289
-0.00101992
-0.00275376
-0.00106057
-0.0022966
-0.000863869
-0.00178615
-0.000810652
-0.00148885
-0.000630812
-0.00123748
-0.000541374
-0.00104074
-0.000422126
-0.000887138
-0.000335446
-0.000785165
-0.000239061
-0.000720352
-0.000169675
-0.000701227
-9.93335e-05
-0.000714103
-4.50465e-05
-0.000755898
4.45571e-06
-0.000829259
5.83151e-05
-0.000923214
0.000105084
-0.00106211
0.000177666
-0.00120787
0.00020082
-0.00138004
0.000239397
-0.00155077
0.000239826
-0.00175172
0.000266532
-0.00189744
0.000209748
-0.00205251
0.000178997
-0.00218697
0.000151265
-0.00234026
0.000163613
-0.00247264
0.000155945
-0.00259031
9.2455e-05
-0.00267363
3.46389e-05
-0.00278042
6.83596e-05
-0.00288381
0.000102547
-0.00303885
9.6397e-05
-0.00314415
9.34528e-05
-0.00330753
0.000160179
-0.0034405
0.000163297
-0.00358129
0.000148794
-0.00371718
0.000144825
-0.00385504
0.000128258
-0.00399084
0.000110539
-0.00412938
0.000103473
-0.00427233
0.000106564
-0.00439321
8.00458e-05
-0.00452213
7.87122e-05
-0.00463038
4.5816e-05
-0.00473431
3.45935e-05
-0.0048214
1.1708e-05
-0.0048982
8.60578e-06
-0.00496603
9.54892e-06
-0.00503216
2.72238e-05
-0.00510909
4.75968e-05
-0.00517739
3.70943e-05
-0.00525184
3.02719e-05
-0.00531171
1.02621e-05
-0.00537081
6.07299e-06
-0.00542404
6.03659e-06
-0.00547444
1.25033e-05
-0.00552648
1.44141e-05
-0.0055696
7.89725e-06
-0.00560873
-4.79734e-06
-0.00564168
-5.18322e-06
-0.00567081
-1.98127e-05
-0.00569218
-1.93748e-05
-0.00571049
-3.10186e-05
-0.00572154
-2.96995e-05
-0.00572948
-3.89425e-05
-0.00573393
-3.40191e-05
-0.00573732
-3.17457e-05
-0.00573532
-2.89744e-05
-0.00573384
-2.68451e-05
-0.0057259
-2.57766e-05
-0.00571402
-2.99697e-05
-0.00569284
-3.1011e-05
-0.00566987
-3.81549e-05
-0.00564052
-3.94108e-05
-0.00560827
-4.08665e-05
-0.00557007
-4.37389e-05
-0.00552994
-4.56645e-05
-0.00548474
-5.12157e-05
-0.00543837
-4.8459e-05
-0.00538944
-4.55145e-05
-0.00534007
-3.9366e-05
-0.00528712
-4.01957e-05
-0.00523226
-3.98655e-05
-0.0051684
-5.44206e-05
-0.00510089
-5.87647e-05
-0.00502674
-6.35801e-05
-0.00495058
-6.58073e-05
-0.00487372
-5.77819e-05
-0.0047985
-4.84688e-05
-0.00472329
-4.76713e-05
-0.00464342
-5.15472e-05
-0.00456851
-4.10066e-05
-0.0044873
-4.09995e-05
-0.00440958
-3.06233e-05
-0.00432303
-4.34197e-05
-0.00423931
-3.93736e-05
-0.00415229
-4.28941e-05
-0.00406676
-4.4621e-05
-0.00398133
-4.19501e-05
-0.00390084
-3.37053e-05
-0.00382321
-2.39768e-05
-0.00374891
-1.6276e-05
-0.00367488
-1.32906e-05
-0.00360109
-1.68962e-05
-0.00352541
-2.15526e-05
-0.0034521
-2.08201e-05
-0.00338041
-1.91991e-05
-0.00330874
-2.39669e-05
-0.00324132
-1.94242e-05
-0.00318073
-5.31881e-06
-0.00312657
6.94679e-06
-0.00307265
-4.87188e-07
-0.00301797
-6.90884e-06
-0.00296561
-6.98543e-06
-0.0029134
-1.07756e-05
-0.00286019
-1.79079e-05
-0.00280989
-1.55228e-05
-0.00276356
-4.13764e-06
-0.00272211
5.19355e-06
-0.00268092
9.06782e-07
-0.00264127
-6.45272e-07
-0.00260314
-4.11071e-06
-0.0025675
-7.94006e-06
-0.00253482
-8.8311e-06
-0.00251009
-1.82207e-06
-0.00248974
-8.77015e-07
-0.00247484
-1.42048e-06
-0.00246252
-4.00605e-06
-0.00245491
-5.14004e-06
-0.00244865
-6.72438e-06
-0.00244499
-7.77886e-06
-0.00244218
-8.44929e-06
-0.00244108
-8.7948e-06
-0.00244059
-9.33689e-06
-0.0024431
-6.7243e-06
-0.00244923
-4.09e-06
-0.00245904
-1.9975e-06
-0.00247347
-5.33316e-07
-0.00248928
-3.57467e-06
-0.00250946
-5.56269e-06
-0.00253051
-9.33354e-06
-0.00255753
-9.38108e-06
-0.00258608
-1.2819e-05
-0.00261785
-1.80641e-05
-0.00265161
-1.93086e-05
-0.00268939
-1.53991e-05
-0.00273001
-1.26885e-05
-0.0027723
-1.15312e-05
-0.00281483
-1.74452e-05
-0.00285847
-1.49185e-05
-0.00290785
-3.31944e-06
-0.00296019
-5.41987e-07
-0.00301582
8.38571e-07
-0.00307258
-4.93274e-07
-0.00313138
-5.63664e-06
-0.00318471
-2.3314e-05
-0.00323689
-3.89057e-05
-0.00328707
-4.44265e-05
-0.00334154
-3.195e-05
-0.00340333
-1.37282e-05
-0.00346622
-1.31054e-05
-0.00353409
-3.92664e-06
-0.00360633
3.92899e-06
-0.00368116
9.33172e-06
-0.00375622
1.44129e-05
-0.00382862
1.50344e-05
-0.0039
1.55373e-05
-0.00396173
-4.87788e-06
-0.00401866
-1.82348e-05
-0.00407492
-2.0126e-05
-0.00412991
-2.53113e-05
-0.00418559
-2.54309e-05
-0.00424427
-1.47287e-05
-0.00430168
-1.63361e-05
-0.00435456
-2.54631e-05
-0.00440222
-3.28535e-05
-0.0044485
-2.65011e-05
-0.00449576
-1.84482e-05
-0.00453882
-1.89023e-05
-0.00457873
-1.68486e-05
-0.00461624
-1.25662e-05
-0.00464935
-1.38082e-05
-0.00468125
-1.38541e-05
-0.00470676
-2.02671e-05
-0.00472999
-2.40298e-05
-0.00474775
-3.07954e-05
-0.00475939
-3.94608e-05
-0.00476601
-4.64068e-05
-0.00476808
-4.85667e-05
-0.00476533
-5.20906e-05
-0.00475824
-5.57195e-05
-0.00474758
-5.98588e-05
-0.00473416
-6.12117e-05
-0.00471639
-5.45693e-05
-4.92274e-05
-0.000840078
0.000309227
-0.00165539
0.000405246
-0.00309437
0.000944913
-0.00406331
0.000890902
-0.00544274
0.0013079
-0.00662652
0.0011918
-0.00801706
0.00139569
-0.00927028
0.00140885
-0.0107537
0.00155362
-0.0119163
0.00145307
-0.0133892
0.00159546
-0.0145586
0.0015097
-0.0159815
0.00164839
-0.0170933
0.00153962
-0.0184249
0.00159419
-0.0194934
0.00149205
-0.0207519
0.00154782
-0.021778
0.00145315
-0.022971
0.00147476
-0.0239773
0.00138832
-0.025149
0.00142708
-0.0261461
0.00135286
-0.0273194
0.00145141
-0.0282826
0.00133767
-0.0294259
0.00144591
-0.0303797
0.00133972
-0.0315372
0.00148289
-0.0325482
0.00145191
-0.0337348
0.00160397
-0.0347408
0.00155473
-0.0359479
0.00175057
-0.0369749
0.0017225
-0.0382034
0.00193935
-0.0392318
0.00188862
-0.0404162
0.0020071
-0.0414087
0.00199698
-0.0425112
0.00204521
-0.0435067
0.00207404
-0.0444872
0.00205326
-0.045408
0.00195753
-0.0462476
0.00184996
-0.0470679
0.00181804
-0.0477248
0.00153006
-0.048377
0.00132904
-0.0488047
0.000955276
-0.0493335
0.000686651
-0.0496615
0.000276545
-0.0499903
-6.81822e-05
-0.0501639
-0.000420806
-0.0501967
-0.000732624
-0.0501914
-0.000925586
-0.0500117
-0.00129454
-0.0497591
-0.00149786
-0.0494078
-0.00181666
-0.0489085
-0.00193777
-0.0482303
-0.00210013
-0.0475746
-0.00209602
-0.0465949
-0.00247302
-0.0459071
-0.0023965
-0.0447934
-0.00296934
-0.0439116
-0.00285911
-0.0425725
-0.00322159
-0.0415368
-0.00308944
-0.0402863
-0.00322019
-0.039406
-0.00286918
-0.0382642
-0.00302228
-0.0373494
-0.00288774
-0.0362916
-0.00291245
-0.0354415
-0.0027208
-0.0344739
-0.00260172
-0.0337477
-0.00233072
-0.0328806
-0.00216099
-0.0323549
-0.00178442
-0.0316723
-0.00163391
-0.0314511
-0.00120051
-0.0311588
-0.00111605
-0.0312461
-0.000736598
-0.0313048
-0.000623491
-0.0318019
-4.18484e-05
-0.0320711
0.000203887
-0.0329819
0.000950498
-0.033522
0.000993234
-0.0347522
0.00187087
-0.0355994
0.00203859
-0.0371467
0.00287976
-0.0382563
0.00309095
-0.0400562
0.00392154
-0.0413628
0.00414549
-0.0433069
0.00484325
-0.0446553
0.00492177
-0.0464447
0.00528017
-0.047818
0.00505402
-0.0494457
0.00539904
-0.0506711
0.00499924
-0.051895
0.00481401
-0.0528505
0.0043937
-0.0534337
0.00374221
-0.0539979
0.00280702
-0.0541992
0.00182215
-0.0543236
0.000787331
-0.0542023
-0.000143067
-0.0541016
-0.00109561
-0.0532186
-0.00235528
-0.052389
-0.00310479
-0.0505776
-0.00415172
-0.0488042
-0.00444343
-0.0464412
-0.00560602
-0.0440068
-0.00631203
-0.0412103
-0.00767205
-0.0375012
-0.00837978
-0.0346742
-0.00743413
-0.0316688
-0.00737102
-0.0295381
-0.00590894
-0.0269208
-0.0064978
-0.0250398
-0.00504763
-0.023037
-0.00496871
-0.0207746
-0.00589907
-0.0181388
-0.00705813
-0.0154855
-0.00769273
-0.0129019
-0.00701187
-0.0105976
-0.00655904
-0.00854999
-0.00566176
-0.00665332
-0.00550771
-0.00440156
-0.00577717
-0.00277376
-0.00505127
-0.00102957
-0.00462328
0.000361478
-0.00368014
0.00187905
-0.00373828
0.00314549
-0.00303842
0.00457177
-0.00305668
0.00572113
-0.00240477
0.00688807
-0.00224481
0.00779983
-0.00177437
0.00867793
-0.00160155
0.00928865
-0.00121663
0.00987998
-0.0010579
0.0101626
-0.000647465
0.0105129
-0.000530232
0.0105973
-0.000227715
0.0107092
-0.000157844
0.0105976
0.000115249
0.0104492
0.000270891
0.0101326
0.000542725
0.00990154
0.000571148
0.00952634
0.00063476
0.00910927
0.00075363
0.00844749
0.00115145
0.00786546
0.00115725
0.00705251
0.00155077
0.00626193
0.00135265
0.00540103
0.00141727
0.00457953
0.00130981
0.0039666
0.00110294
0.00328765
0.000874373
0.00274028
0.000689887
0.00222592
0.000834053
0.00162324
0.00115112
0.00104772
0.00124743
0.000514102
0.00122536
-4.27082e-05
0.00114176
-0.000515802
0.000984184
-0.000893019
0.000818358
-0.00130832
0.0010441
-0.00179475
0.00108928
-0.00224864
0.00111473
-0.00270592
0.00111531
-0.00322806
0.00126709
-0.00365044
0.00113794
-0.00411505
0.00108134
-0.00444031
0.00089315
-0.00477754
0.000706118
-0.00503637
0.0005288
-0.00523255
0.000395905
-0.00542816
0.000268032
-0.00551604
7.70514e-05
-0.00555751
-0.000107717
-0.00550131
-0.0003561
-0.00535548
-0.000615187
-0.00511115
-0.000915921
-0.00471478
-0.00124591
-0.00429611
-0.00142329
-0.00375866
-0.001639
-0.00327082
-0.00151907
-0.00274104
-0.00160071
-0.00206051
-0.00185583
-0.00125415
-0.00213121
-0.0004779
-0.00214332
0.000270403
-0.00202219
0.000900995
-0.00202814
0.00181562
-0.00224969
0.00252098
-0.00179698
0.00299736
-0.0012474
0.00383389
-0.00149274
0.00475097
-0.00183849
0.00568063
-0.00188102
0.00658791
-0.00197338
0.0073525
-0.00161408
0.00820367
-0.00169817
0.00881134
-0.00149908
0.00936629
-0.00114888
0.00973022
-0.000899228
0.00991768
-0.00046928
0.0100296
-0.000384734
0.0101022
-0.000204896
0.0100524
3.11972e-05
0.00984911
0.000285069
0.00963825
0.000363121
0.00922966
0.000549462
0.00887436
0.00074114
0.00805197
0.00127586
0.00741978
0.00114842
0.00651899
0.0015183
0.00552507
0.0017568
0.00459385
0.00156357
0.00354219
0.00149784
0.0026791
0.00161349
0.00158767
0.00228956
0.000537024
0.00248474
-0.000645991
0.0025667
-0.00163746
0.00218179
-0.0024373
0.00184299
-0.00318267
0.00229055
-0.00432001
0.0028158
-0.00551052
0.00258966
-0.00649694
0.00241313
-0.00726958
0.00247754
-0.00844419
0.00279408
-0.00946334
0.00228497
-0.0102083
0.00175939
-0.0108734
0.00183978
-0.0118058
0.00212924
-0.0129459
0.00196566
-0.0136865
0.00166339
-0.0143193
0.00156336
-0.0150793