/*--------------------------------*- C++ -*----------------------------------*\
| =========                 |                                                 |
| \\      /  F ield         | OpenFOAM: The Open Source CFD Toolbox           |
|  \\    /   O peration     | Version:  v1812                                 |
|   \\  /    A nd           | Web:      www.OpenFOAM.com                      |
|    \\/     M anipulation  |                                                 |
\*---------------------------------------------------------------------------*/
FoamFile
{
    version     2.0;
    format      ascii;
    class       volScalarField;
    location    "0.9";
    object      rho;
}
// * * * * * * * * * * * * * * * * * * * * * * * * * * * * * * * * * * * * * //

dimensions      [1 -3 0 0 0 0 0];


internalField   nonuniform List<scalar> 
20400
(
1.20604
1.206
1.20604
1.20601
1.20595
1.20597
1.20585
1.20574
1.20546
1.20514
1.20462
1.20409
1.20336
1.20266
1.20178
1.20099
1.20011
1.19937
1.1986
1.198
1.19739
1.1969
1.19638
1.19602
1.19567
1.1955
1.19535
1.19533
1.19529
1.19532
1.19532
1.19535
1.19532
1.19538
1.1954
1.19545
1.19545
1.19548
1.19552
1.19561
1.19567
1.19567
1.19572
1.19581
1.19587
1.19594
1.19598
1.19602
1.19602
1.19602
1.19595
1.19584
1.19568
1.1956
1.19538
1.1952
1.19495
1.1947
1.19442
1.19423
1.19401
1.19388
1.19378
1.19371
1.19351
1.19338
1.19321
1.19317
1.19309
1.19309
1.19305
1.19303
1.19298
1.19295
1.19293
1.19289
1.19291
1.19292
1.19305
1.19324
1.19331
1.19347
1.19366
1.19384
1.19396
1.19412
1.1942
1.19428
1.19432
1.19438
1.19439
1.19445
1.19428
1.19429
1.19399
1.19409
1.19407
1.19427
1.19444
1.19462
1.19491
1.19523
1.19538
1.19579
1.19576
1.19595
1.19617
1.1963
1.1964
1.19664
1.19656
1.1966
1.19658
1.19669
1.19674
1.19676
1.19702
1.19706
1.19716
1.19713
1.19707
1.19698
1.19689
1.19689
1.19668
1.19678
1.19667
1.19661
1.19635
1.19621
1.19594
1.19569
1.19551
1.19532
1.19522
1.19509
1.19502
1.19492
1.19486
1.1948
1.19475
1.19468
1.19461
1.19454
1.19452
1.19443
1.19435
1.19422
1.19414
1.19411
1.19409
1.19404
1.19404
1.19405
1.19397
1.19381
1.19371
1.19361
1.19354
1.19343
1.19333
1.19321
1.19306
1.19295
1.19286
1.19277
1.19266
1.19256
1.19245
1.19233
1.19219
1.19209
1.19198
1.19189
1.19182
1.19176
1.19173
1.1917
1.19166
1.19161
1.19154
1.19146
1.19135
1.19129
1.19122
1.19117
1.1911
1.19107
1.19106
1.19109
1.19117
1.19123
1.19136
1.19163
1.19183
1.19202
1.19215
1.19234
1.19264
1.19293
1.19335
1.19389
1.19449
1.19513
1.19588
1.19663
1.19736
1.19814
1.19885
1.19948
1.20002
1.20051
1.20088
1.20132
1.20167
1.20185
1.20211
1.20238
1.20263
1.20287
1.20301
1.20305
1.20314
1.20329
1.20343
1.20348
1.20353
1.20373
1.20375
1.2038
1.2038
1.20395
1.20403
1.20401
1.20394
1.2039
1.20389
1.2038
1.20374
1.20363
1.20351
1.20325
1.203
1.2027
1.20237
1.202
1.20164
1.2013
1.20096
1.20067
1.20038
1.20013
1.1999
1.19969
1.19951
1.19934
1.1992
1.1991
1.19898
1.19889
1.19879
1.19873
1.19864
1.19858
1.19854
1.19846
1.1984
1.19835
1.19829
1.19824
1.19822
1.19818
1.19818
1.19815
1.19816
1.19813
1.19814
1.19811
1.19811
1.19812
1.19814
1.19816
1.19821
1.19825
1.19826
1.19832
1.19831
1.19837
1.19836
1.19839
1.19841
1.19852
1.1985
1.19851
1.19861
1.19869
1.19877
1.19875
1.19877
1.19881
1.19892
1.19892
1.19893
1.19905
1.19919
1.19929
1.19942
1.19957
1.19973
1.19994
1.20008
1.2003
1.20053
1.20074
1.20096
1.20117
1.20137
1.20157
1.20175
1.20194
1.20211
1.20226
1.2024
1.20254
1.20266
1.20277
1.20287
1.20297
1.20308
1.20318
1.20328
1.20337
1.20348
1.20357
1.20365
1.20372
1.20383
1.2039
1.20398
1.20404
1.20413
1.2042
1.20427
1.20434
1.20441
1.20446
1.20452
1.20457
1.2046
1.20461
1.2046
1.20457
1.20452
1.20445
1.20438
1.20429
1.20421
1.20413
1.20405
1.20396
1.20387
1.20379
1.20371
1.20363
1.20355
1.20348
1.2034
1.20333
1.20326
1.20319
1.20311
1.20304
1.20298
1.20291
1.20284
1.20278
1.2027
1.20264
1.20257
1.2025
1.20244
1.20238
1.20232
1.20226
1.20221
1.20216
1.20212
1.20207
1.20204
1.202
1.20197
1.20195
1.20192
1.2019
1.20188
1.20186
1.20184
1.20182
1.2018
1.20179
1.20177
1.20175
1.20174
1.20172
1.20171
1.2017
1.20169
1.20168
1.20168
1.20169
1.20169
1.2017
1.20171
1.20172
1.20173
1.20175
1.20177
1.2018
1.20183
1.20186
1.20189
1.20193
1.20196
1.202
1.20204
1.20209
1.20213
1.20218
1.20223
1.20228
1.20233
1.20238
1.20244
1.2025
1.20256
1.20262
1.20268
1.20273
1.20279
1.20285
1.2029
1.20295
1.20301
1.20306
1.20312
1.20318
1.20323
1.20329
1.20335
1.20341
1.20347
1.20352
1.20357
1.20362
1.20367
1.20371
1.20375
1.20379
1.20382
1.20386
1.2039
1.20395
1.20399
1.20402
1.20405
1.20408
1.2041
1.20413
1.20415
1.20416
1.20418
1.20419
1.20421
1.20422
1.20422
1.20422
1.20422
1.20421
1.2042
1.20419
1.20417
1.20415
1.20414
1.20413
1.20412
1.20412
1.20412
1.20412
1.20413
1.20415
1.20417
1.20418
1.2042
1.20421
1.20423
1.20425
1.20427
1.20429
1.20429
1.20428
1.20603
1.20606
1.20601
1.20597
1.20601
1.20593
1.20589
1.20568
1.20552
1.20509
1.20471
1.20401
1.20344
1.20257
1.20186
1.20092
1.20018
1.19932
1.19867
1.19796
1.19744
1.19685
1.19645
1.196
1.19576
1.19553
1.19544
1.19537
1.1954
1.19539
1.19544
1.19541
1.19544
1.19546
1.19554
1.19555
1.19561
1.19555
1.19564
1.19575
1.19581
1.1958
1.19584
1.19597
1.196
1.19609
1.19611
1.19614
1.19618
1.19617
1.19612
1.196
1.1959
1.19567
1.19561
1.19531
1.19515
1.19476
1.19455
1.19418
1.19415
1.19385
1.19389
1.19364
1.19359
1.19332
1.19329
1.1931
1.19317
1.19305
1.19312
1.19299
1.19303
1.19292
1.19292
1.19291
1.19288
1.19301
1.19309
1.19327
1.19338
1.19353
1.19374
1.19388
1.19408
1.19413
1.19436
1.19431
1.1945
1.19443
1.19459
1.19449
1.19447
1.19436
1.19423
1.19418
1.19427
1.19444
1.19453
1.19475
1.19502
1.19532
1.19564
1.19578
1.19606
1.19614
1.19646
1.19654
1.19688
1.19682
1.19678
1.19669
1.19673
1.19676
1.19685
1.19673
1.19702
1.19714
1.19713
1.19698
1.19703
1.19689
1.19686
1.19688
1.19691
1.19653
1.19656
1.19638
1.19641
1.19626
1.19602
1.19584
1.1956
1.19547
1.19529
1.19524
1.19509
1.19504
1.19492
1.19489
1.19482
1.19478
1.19468
1.19466
1.19453
1.1945
1.19435
1.19428
1.19415
1.19414
1.19409
1.19409
1.19408
1.19406
1.19401
1.19385
1.19383
1.19371
1.19367
1.19352
1.19346
1.1933
1.19317
1.19303
1.19299
1.19287
1.19279
1.19267
1.19256
1.19238
1.19232
1.19215
1.19207
1.19192
1.19183
1.19175
1.1917
1.19161
1.19158
1.19149
1.19141
1.1913
1.19119
1.19107
1.19103
1.19095
1.1909
1.19088
1.19087
1.19104
1.19107
1.19114
1.19131
1.19151
1.19171
1.19191
1.19206
1.19227
1.19252
1.19286
1.19321
1.19383
1.19434
1.19498
1.19573
1.19654
1.19727
1.19804
1.19876
1.19937
1.19997
1.20041
1.20078
1.20126
1.20158
1.20195
1.20215
1.20252
1.20277
1.20303
1.20316
1.20321
1.20318
1.20326
1.20339
1.20355
1.20366
1.2036
1.2037
1.20382
1.20383
1.20387
1.20393
1.204
1.20388
1.20388
1.20387
1.20381
1.2037
1.20365
1.20352
1.2033
1.20304
1.20273
1.2024
1.20204
1.20168
1.20133
1.20098
1.20069
1.20039
1.20015
1.1999
1.1997
1.1995
1.19937
1.19921
1.19911
1.19901
1.1989
1.1988
1.19873
1.19866
1.19859
1.19854
1.19848
1.1984
1.19837
1.1983
1.19827
1.19823
1.19822
1.19819
1.19819
1.19817
1.19817
1.19815
1.19814
1.19813
1.19814
1.19815
1.19818
1.19822
1.19826
1.19828
1.1983
1.19835
1.19834
1.19841
1.19842
1.19849
1.19851
1.19857
1.19856
1.19866
1.19872
1.19874
1.19869
1.1988
1.19885
1.19882
1.19883
1.19892
1.19903
1.19913
1.19917
1.19935
1.19946
1.19966
1.19982
1.20006
1.20022
1.20044
1.20066
1.20088
1.20111
1.20131
1.20153
1.20171
1.20191
1.20208
1.20225
1.2024
1.20253
1.20266
1.20277
1.20289
1.203
1.2031
1.20322
1.2033
1.20341
1.20349
1.20359
1.20367
1.20375
1.20381
1.20392
1.20399
1.20407
1.20414
1.20423
1.20429
1.20438
1.20443
1.20449
1.20455
1.20459
1.20462
1.20464
1.20463
1.2046
1.20456
1.2045
1.20443
1.20435
1.20427
1.20418
1.2041
1.20401
1.20392
1.20383
1.20375
1.20367
1.20358
1.20351
1.20343
1.20336
1.20328
1.20321
1.20313
1.20307
1.20299
1.20293
1.20286
1.20279
1.20271
1.20265
1.20257
1.20251
1.20244
1.20238
1.20231
1.20226
1.20221
1.20216
1.20211
1.20207
1.20203
1.20199
1.20196
1.20193
1.20191
1.20189
1.20187
1.20185
1.20183
1.20181
1.20179
1.20177
1.20176
1.20174
1.20173
1.20171
1.2017
1.20169
1.20168
1.20168
1.20168
1.20168
1.20168
1.20169
1.2017
1.20171
1.20173
1.20175
1.20177
1.2018
1.20183
1.20186
1.20189
1.20192
1.20196
1.202
1.20204
1.20209
1.20213
1.20218
1.20223
1.20228
1.20233
1.20239
1.20244
1.2025
1.20256
1.20262
1.20267
1.20273
1.20279
1.20285
1.2029
1.20295
1.20301
1.20306
1.20312
1.20318
1.20323
1.20329
1.20335
1.20341
1.20347
1.20352
1.20357
1.20362
1.20367
1.20371
1.20375
1.20379
1.20383
1.20387
1.2039
1.20394
1.20398
1.20402
1.20405
1.20408
1.20411
1.20413
1.20415
1.20417
1.20419
1.2042
1.20421
1.20422
1.20422
1.20422
1.20421
1.20421
1.2042
1.20419
1.20417
1.20415
1.20414
1.20413
1.20412
1.20412
1.20412
1.20412
1.20413
1.20414
1.20416
1.20417
1.20419
1.2042
1.20421
1.20423
1.20426
1.20428
1.20428
1.20427
1.20606
1.20602
1.20601
1.20593
1.20593
1.20597
1.20585
1.20575
1.20544
1.20516
1.20459
1.2041
1.20331
1.20259
1.20172
1.2009
1.20006
1.19932
1.19859
1.198
1.1974
1.19696
1.19648
1.19614
1.19585
1.19567
1.19557
1.19557
1.19553
1.1956
1.19557
1.19562
1.19558
1.19565
1.19572
1.19576
1.19576
1.19574
1.19584
1.19593
1.19602
1.19601
1.19611
1.19614
1.19628
1.19633
1.19639
1.19644
1.19643
1.19646
1.19639
1.19634
1.19613
1.1961
1.19582
1.19589
1.19546
1.19536
1.19469
1.19466
1.19413
1.19413
1.19375
1.19387
1.19349
1.19343
1.19318
1.19326
1.1931
1.1932
1.19308
1.19313
1.193
1.19303
1.19293
1.19294
1.19296
1.193
1.19311
1.19326
1.1934
1.19363
1.19369
1.19404
1.19405
1.19433
1.1943
1.1945
1.19443
1.19448
1.19443
1.19448
1.19428
1.19432
1.19414
1.19421
1.19442
1.19454
1.1948
1.19503
1.19523
1.19554
1.19572
1.19594
1.19599
1.19616
1.19639
1.19678
1.19683
1.19728
1.19701
1.19741
1.19714
1.19751
1.19713
1.19737
1.19727
1.19764
1.19757
1.19751
1.1974
1.19736
1.19721
1.19727
1.19706
1.19702
1.19681
1.19683
1.19658
1.19653
1.19628
1.19614
1.19594
1.19579
1.19572
1.19558
1.19551
1.19533
1.1953
1.19519
1.19517
1.19504
1.19502
1.19483
1.19476
1.19468
1.19452
1.19447
1.19427
1.19423
1.19415
1.1942
1.19418
1.19419
1.19403
1.19406
1.19386
1.19381
1.19367
1.19362
1.19345
1.19342
1.19315
1.19305
1.19285
1.19282
1.19267
1.19262
1.19249
1.19246
1.19227
1.19221
1.19201
1.19197
1.19182
1.19178
1.1917
1.19171
1.19161
1.19161
1.19146
1.19142
1.1912
1.19113
1.191
1.19094
1.19087
1.19075
1.19096
1.19097
1.19104
1.19109
1.19127
1.19144
1.19154
1.1917
1.19184
1.19202
1.19234
1.19252
1.19307
1.19343
1.194
1.1944
1.19528
1.19596
1.19689
1.19756
1.19837
1.19895
1.19972
1.20005
1.20046
1.20084
1.2015
1.20167
1.20203
1.20242
1.20267
1.20284
1.2031
1.20327
1.20319
1.20312
1.20333
1.20355
1.20356
1.20349
1.20372
1.20381
1.20387
1.20379
1.20386
1.20392
1.20394
1.20394
1.20386
1.2038
1.20372
1.20366
1.20355
1.20337
1.20319
1.20293
1.20265
1.20225
1.20189
1.2014
1.2011
1.20071
1.20048
1.20016
1.19996
1.19969
1.19958
1.19935
1.19927
1.19909
1.19902
1.19893
1.19887
1.19879
1.19871
1.19863
1.19856
1.19848
1.19844
1.19834
1.19833
1.19825
1.19825
1.1982
1.19821
1.19817
1.19818
1.19815
1.19815
1.19812
1.19813
1.19814
1.19817
1.1982
1.19823
1.19827
1.19829
1.1983
1.19832
1.19836
1.19837
1.19842
1.19846
1.19848
1.19848
1.19865
1.19861
1.19875
1.19869
1.19872
1.19877
1.19892
1.19886
1.19885
1.19891
1.1991
1.19914
1.19921
1.19929
1.19943
1.19957
1.19975
1.19994
1.20013
1.20036
1.20053
1.20078
1.20095
1.20119
1.20136
1.2016
1.20177
1.20199
1.20214
1.2023
1.20244
1.20258
1.20269
1.20282
1.20294
1.20307
1.20316
1.20327
1.20335
1.20348
1.20358
1.20366
1.20373
1.20382
1.20389
1.20395
1.20403
1.20412
1.2042
1.20428
1.20435
1.20442
1.20445
1.20453
1.20456
1.20462
1.20464
1.20466
1.20466
1.20464
1.2046
1.20453
1.20448
1.20438
1.20432
1.20422
1.20415
1.20406
1.20395
1.20389
1.20378
1.20372
1.20362
1.20356
1.20347
1.20341
1.20332
1.20325
1.20316
1.20311
1.20302
1.20297
1.20287
1.20281
1.20271
1.20266
1.20257
1.20252
1.20243
1.20238
1.20231
1.20227
1.20221
1.20216
1.20211
1.20207
1.20202
1.20199
1.20196
1.20194
1.20192
1.20189
1.20188
1.20184
1.20184
1.20181
1.2018
1.20178
1.20176
1.20175
1.20174
1.20172
1.20171
1.2017
1.20169
1.20169
1.2017
1.2017
1.20171
1.20172
1.20173
1.20174
1.20176
1.20178
1.20181
1.20184
1.20187
1.20191
1.20193
1.20197
1.20201
1.20205
1.20209
1.20214
1.20219
1.20224
1.20228
1.20234
1.20239
1.20245
1.20251
1.20257
1.20262
1.20269
1.20274
1.2028
1.20285
1.20291
1.20297
1.20301
1.20308
1.20312
1.20319
1.20324
1.20331
1.20336
1.20343
1.20348
1.20353
1.20358
1.20363
1.20368
1.20372
1.20376
1.2038
1.20384
1.20387
1.20392
1.20396
1.204
1.20403
1.20406
1.2041
1.20412
1.20414
1.20416
1.20418
1.20419
1.2042
1.20422
1.20423
1.20424
1.20424
1.20423
1.20422
1.20422
1.20421
1.2042
1.20418
1.20415
1.20414
1.20414
1.20413
1.20413
1.20413
1.20415
1.20416
1.20417
1.20419
1.2042
1.20422
1.20423
1.20425
1.20428
1.2043
1.2043
1.20428
1.20604
1.20603
1.20597
1.20593
1.20586
1.20589
1.20579
1.20565
1.2055
1.20512
1.20465
1.20397
1.20319
1.20239
1.20147
1.2007
1.19987
1.1992
1.19852
1.19795
1.19746
1.19699
1.1966
1.19626
1.19599
1.19585
1.19578
1.19572
1.19578
1.19579
1.19583
1.19584
1.19586
1.19592
1.19598
1.19599
1.19604
1.19605
1.19614
1.19622
1.19628
1.19631
1.19644
1.19654
1.19667
1.19674
1.19682
1.19686
1.19693
1.19692
1.19698
1.19687
1.19681
1.19658
1.19658
1.19634
1.19636
1.19582
1.19561
1.19481
1.19473
1.19414
1.19415
1.19373
1.19372
1.1934
1.19338
1.19317
1.19322
1.19312
1.19316
1.19307
1.19307
1.19296
1.19296
1.19291
1.19297
1.19307
1.19317
1.19331
1.19347
1.19359
1.19382
1.19393
1.19422
1.19423
1.19448
1.19444
1.19457
1.1945
1.19447
1.1944
1.19429
1.19417
1.19433
1.19439
1.19472
1.19481
1.19521
1.19522
1.19558
1.19557
1.19599
1.19571
1.19603
1.19591
1.19626
1.19637
1.19691
1.19701
1.19745
1.19748
1.19779
1.19777
1.19784
1.19761
1.19797
1.19789
1.19818
1.19799
1.19814
1.19795
1.19798
1.19796
1.19777
1.19772
1.19757
1.19747
1.19734
1.19728
1.19709
1.19699
1.19677
1.19669
1.19655
1.1965
1.19624
1.19618
1.19598
1.19598
1.19583
1.19574
1.19559
1.19537
1.19529
1.19506
1.19493
1.19483
1.19466
1.19443
1.19436
1.19434
1.19439
1.1943
1.1943
1.19416
1.19418
1.19401
1.19398
1.19372
1.19368
1.19354
1.19344
1.19309
1.193
1.19278
1.19273
1.19261
1.19257
1.19245
1.19242
1.19225
1.19219
1.19195
1.19189
1.19175
1.19172
1.19162
1.19165
1.19152
1.19144
1.1913
1.1912
1.19103
1.19091
1.19069
1.19057
1.19072
1.19062
1.19085
1.19079
1.19088
1.19106
1.19119
1.1911
1.19126
1.19136
1.19161
1.19175
1.19212
1.19237
1.19281
1.19311
1.19363
1.19409
1.19514
1.19576
1.19682
1.19732
1.19821
1.19887
1.19958
1.19972
1.20027
1.20058
1.20139
1.20158
1.20225
1.2026
1.20289
1.20301
1.20321
1.2033
1.20319
1.20316
1.20351
1.20368
1.20356
1.20356
1.20389
1.20394
1.20378
1.20369
1.20386
1.20394
1.20381
1.20375
1.20377
1.20366
1.2037
1.20357
1.20357
1.20338
1.20327
1.20295
1.20273
1.20222
1.20191
1.20132
1.20109
1.20068
1.20049
1.20011
1.19994
1.19965
1.19955
1.19933
1.19922
1.19908
1.19901
1.19892
1.19885
1.19876
1.19867
1.19859
1.19852
1.19843
1.19839
1.1983
1.19829
1.19823
1.19824
1.1982
1.19821
1.19817
1.19819
1.19814
1.19817
1.19815
1.19818
1.1982
1.19823
1.19825
1.19823
1.1983
1.19826
1.19838
1.19833
1.19842
1.19841
1.19853
1.19855
1.1985
1.19854
1.19869
1.19863
1.19856
1.19863
1.19886
1.1988
1.19869
1.1988
1.19896
1.19898
1.1991
1.19909
1.19922
1.19928
1.19942
1.19955
1.19971
1.19991
1.20007
1.20027
1.20043
1.20067
1.20083
1.20108
1.20125
1.20152
1.2017
1.20194
1.20209
1.20226
1.2024
1.20254
1.20266
1.20282
1.20295
1.20308
1.20317
1.2033
1.2034
1.20353
1.20363
1.2037
1.20378
1.20384
1.2039
1.20399
1.20408
1.20418
1.20426
1.20435
1.2044
1.20448
1.20451
1.20459
1.20461
1.20469
1.20475
1.20479
1.20482
1.20482
1.20479
1.20472
1.2047
1.2046
1.20455
1.20446
1.20436
1.20429
1.20416
1.20411
1.20399
1.20393
1.20382
1.20377
1.20367
1.2036
1.20348
1.20341
1.20332
1.20326
1.20318
1.20311
1.20297
1.2029
1.2028
1.20274
1.20265
1.20259
1.20248
1.20243
1.20236
1.20231
1.20224
1.20219
1.20211
1.20207
1.20202
1.20199
1.20196
1.20194
1.20192
1.20188
1.20188
1.20184
1.20183
1.20181
1.2018
1.20178
1.20177
1.20175
1.20174
1.20173
1.20172
1.20171
1.20171
1.20171
1.20171
1.20172
1.20173
1.20175
1.20175
1.20177
1.2018
1.20183
1.20185
1.20189
1.20192
1.20196
1.20198
1.20203
1.20206
1.20212
1.20215
1.20221
1.20225
1.20231
1.20235
1.20242
1.20246
1.20254
1.20258
1.20266
1.2027
1.20276
1.20281
1.20287
1.20293
1.20298
1.20305
1.20308
1.20316
1.2032
1.20327
1.20332
1.20339
1.20345
1.2035
1.20356
1.2036
1.20366
1.2037
1.20374
1.20378
1.20382
1.20385
1.20391
1.20393
1.20399
1.20402
1.20406
1.20409
1.20412
1.20415
1.20417
1.20419
1.20421
1.20422
1.20423
1.20425
1.20426
1.20427
1.20427
1.20426
1.20426
1.20425
1.20424
1.20423
1.20421
1.20418
1.20417
1.20416
1.20416
1.20415
1.20416
1.20415
1.20417
1.20419
1.2042
1.20422
1.20422
1.20425
1.20425
1.20428
1.2043
1.20431
1.2043
1.206
1.20598
1.20594
1.20594
1.20586
1.20579
1.20578
1.20549
1.20547
1.20502
1.20456
1.2037
1.203
1.20199
1.20129
1.20045
1.19974
1.19903
1.19844
1.1979
1.19742
1.19701
1.19672
1.1964
1.19622
1.1961
1.19603
1.19607
1.19606
1.19609
1.19612
1.19621
1.19621
1.19628
1.19628
1.19638
1.19635
1.19649
1.19651
1.19661
1.19661
1.1968
1.19687
1.19709
1.19717
1.19735
1.19743
1.19753
1.19755
1.1976
1.19761
1.19756
1.19754
1.19739
1.1973
1.19726
1.1972
1.19691
1.19632
1.19582
1.19533
1.19476
1.19444
1.19413
1.19387
1.19377
1.19353
1.19339
1.19325
1.19324
1.19319
1.19316
1.19313
1.19305
1.19303
1.19297
1.19304
1.19312
1.19321
1.19328
1.19344
1.19359
1.19379
1.19395
1.19413
1.19423
1.19437
1.1944
1.19451
1.19447
1.19452
1.19451
1.19442
1.19452
1.19469
1.19489
1.19496
1.19534
1.19527
1.19554
1.19543
1.19586
1.19557
1.19595
1.1957
1.19593
1.19602
1.19642
1.19668
1.19745
1.19782
1.19844
1.19849
1.19878
1.19853
1.19873
1.19881
1.199
1.19916
1.19916
1.19924
1.19931
1.19918
1.19922
1.1991
1.19906
1.19898
1.19889
1.19875
1.19866
1.19852
1.19836
1.19824
1.19805
1.19805
1.19783
1.19773
1.19739
1.19737
1.19718
1.19701
1.19682
1.1966
1.19638
1.1961
1.19585
1.19558
1.19553
1.19519
1.19511
1.19473
1.19467
1.19453
1.19461
1.19444
1.19448
1.19442
1.19445
1.19427
1.19396
1.19372
1.19377
1.19355
1.19348
1.19303
1.19298
1.1927
1.19272
1.19254
1.19254
1.19241
1.1924
1.19221
1.19215
1.1919
1.19185
1.19169
1.19175
1.19161
1.19163
1.19137
1.19137
1.19121
1.19114
1.19075
1.19045
1.19053
1.19039
1.19066
1.19052
1.19055
1.19063
1.1908
1.19066
1.19054
1.19047
1.19064
1.19079
1.19105
1.1912
1.19163
1.19178
1.19225
1.19242
1.19289
1.19342
1.19442
1.19528
1.19604
1.19671
1.19777
1.19849
1.19907
1.19917
1.19969
1.20003
1.20101
1.20148
1.20231
1.20262
1.20278
1.20286
1.20315
1.20318
1.20316
1.20319
1.20363
1.20363
1.20355
1.20367
1.20389
1.20385
1.20369
1.2037
1.20389
1.20391
1.20381
1.20369
1.20369
1.20366
1.20371
1.20363
1.20367
1.20357
1.20349
1.20321
1.20299
1.20243
1.20211
1.20152
1.20128
1.20088
1.20064
1.20022
1.20005
1.19974
1.19961
1.19939
1.19925
1.19912
1.19902
1.19889
1.1988
1.19871
1.19861
1.19855
1.19849
1.1984
1.19835
1.19828
1.19827
1.19823
1.19823
1.1982
1.1982
1.19816
1.19817
1.19813
1.19817
1.19817
1.1982
1.19823
1.19821
1.19827
1.19821
1.19833
1.19828
1.19839
1.19834
1.19848
1.19842
1.19841
1.19852
1.19858
1.19856
1.19847
1.19852
1.19875
1.19877
1.19869
1.1987
1.19896
1.19891
1.199
1.19907
1.1991
1.19914
1.1992
1.1993
1.19935
1.19949
1.19959
1.19976
1.19985
1.20003
1.20016
1.20039
1.20055
1.20081
1.20098
1.2013
1.20148
1.20172
1.2019
1.20208
1.20221
1.20238
1.20254
1.20271
1.20282
1.20299
1.20311
1.20327
1.20339
1.20346
1.2036
1.20369
1.20372
1.2038
1.20387
1.20401
1.2041
1.20423
1.2043
1.2044
1.20444
1.20454
1.20454
1.20464
1.20473
1.20483
1.20494
1.20502
1.20509
1.20511
1.20513
1.20508
1.20509
1.20499
1.20495
1.20487
1.20476
1.20471
1.20458
1.20453
1.20441
1.20435
1.20425
1.20419
1.20407
1.20398
1.20384
1.20377
1.20369
1.20362
1.20348
1.20339
1.20322
1.20314
1.20304
1.20297
1.20285
1.20277
1.20265
1.20258
1.2025
1.20244
1.20235
1.20228
1.20217
1.20212
1.20206
1.20203
1.20199
1.20197
1.20196
1.2019
1.2019
1.20187
1.20186
1.20183
1.20182
1.2018
1.20179
1.20178
1.20177
1.20175
1.20175
1.20175
1.20174
1.20175
1.20175
1.20177
1.20178
1.20179
1.2018
1.20183
1.20186
1.20189
1.20191
1.20196
1.20198
1.20203
1.20205
1.2021
1.20214
1.2022
1.20223
1.20229
1.20233
1.2024
1.20245
1.20252
1.20256
1.20264
1.20269
1.20275
1.20278
1.20285
1.2029
1.20297
1.20302
1.20307
1.20314
1.20318
1.20325
1.2033
1.20337
1.20343
1.20349
1.20355
1.20359
1.20365
1.20369
1.20375
1.20377
1.20383
1.20386
1.20391
1.20393
1.20399
1.20402
1.20407
1.20409
1.20414
1.20416
1.2042
1.20422
1.20424
1.20425
1.20427
1.20428
1.2043
1.20431
1.20432
1.20432
1.20433
1.20432
1.20432
1.2043
1.20429
1.20426
1.20424
1.20422
1.20421
1.20421
1.20421
1.20419
1.20421
1.2042
1.20421
1.20424
1.20424
1.20426
1.20426
1.20428
1.2043
1.20433
1.20433
1.20432
1.20597
1.20602
1.20594
1.20592
1.20591
1.20582
1.20568
1.20561
1.2052
1.20497
1.20412
1.20359
1.20265
1.20192
1.20112
1.20039
1.19966
1.199
1.1984
1.19788
1.19743
1.1971
1.19681
1.19662
1.19647
1.19638
1.19645
1.19642
1.19651
1.19649
1.19662
1.19664
1.19683
1.19681
1.19692
1.19689
1.19702
1.19712
1.19723
1.19717
1.1973
1.1974
1.19757
1.19772
1.19792
1.19809
1.19822
1.1983
1.19836
1.19845
1.1984
1.19856
1.19837
1.1984
1.19823
1.19839
1.19819
1.19802
1.19753
1.19736
1.19633
1.19601
1.19517
1.19485
1.19448
1.19438
1.19401
1.19378
1.19352
1.19339
1.19335
1.19328
1.19324
1.19322
1.19312
1.19314
1.19307
1.19317
1.19321
1.19338
1.1935
1.19369
1.19385
1.19405
1.19418
1.19436
1.1944
1.19451
1.19455
1.19462
1.19464
1.19468
1.19461
1.19483
1.19505
1.19524
1.19542
1.19537
1.19559
1.19537
1.19572
1.19534
1.19575
1.19534
1.19602
1.19565
1.19624
1.19618
1.19681
1.19778
1.19894
1.19926
1.19982
1.19972
1.19994
1.19988
1.20026
1.20027
1.20048
1.20072
1.20092
1.20103
1.20095
1.20089
1.20085
1.20101
1.20092
1.20085
1.20069
1.20067
1.20044
1.20039
1.20017
1.20013
1.19992
1.19986
1.1995
1.19944
1.19913
1.19885
1.1986
1.19835
1.19805
1.19769
1.19746
1.19696
1.19676
1.19642
1.19623
1.19592
1.19563
1.19511
1.19501
1.19483
1.19491
1.19474
1.19473
1.19477
1.19469
1.19427
1.19406
1.19376
1.19378
1.19364
1.19359
1.19315
1.19313
1.19283
1.19275
1.19256
1.19255
1.19241
1.1924
1.19217
1.19214
1.19188
1.19193
1.19171
1.19171
1.19153
1.19147
1.19129
1.1911
1.19092
1.19086
1.19048
1.1902
1.1904
1.19025
1.19026
1.19019
1.19036
1.19021
1.19004
1.18952
1.18962
1.18963
1.18985
1.19001
1.19029
1.19045
1.19084
1.19101
1.19133
1.1915
1.19208
1.19253
1.19369
1.19439
1.1952
1.19589
1.19701
1.1977
1.19852
1.19836
1.19893
1.1994
1.20069
1.20131
1.20204
1.2023
1.2023
1.20249
1.20293
1.20292
1.20304
1.20309
1.20349
1.20356
1.20346
1.2035
1.20376
1.2037
1.20359
1.20366
1.20384
1.20379
1.20371
1.20354
1.20367
1.20364
1.20376
1.2038
1.20388
1.20387
1.2038
1.20362
1.20342
1.2028
1.20251
1.20192
1.20166
1.20123
1.20098
1.20047
1.20027
1.19994
1.19976
1.19951
1.19937
1.19919
1.19908
1.19894
1.19882
1.19875
1.19864
1.19857
1.19849
1.19841
1.19835
1.19831
1.19828
1.19827
1.19826
1.19823
1.19822
1.19816
1.19819
1.19817
1.19819
1.19823
1.1982
1.19825
1.19821
1.19827
1.19824
1.19837
1.19831
1.19843
1.19838
1.19846
1.19842
1.19858
1.19856
1.19848
1.1985
1.19866
1.19876
1.1987
1.19867
1.19883
1.199
1.19897
1.19904
1.19905
1.1991
1.19911
1.19915
1.19915
1.19921
1.19923
1.19932
1.19941
1.19948
1.19952
1.19964
1.19978
1.19998
1.20015
1.20039
1.20058
1.20091
1.20111
1.20137
1.20154
1.20176
1.2019
1.20213
1.20224
1.20247
1.20263
1.20281
1.20298
1.20311
1.20323
1.20336
1.20346
1.20356
1.2036
1.20373
1.20385
1.20402
1.2041
1.20426
1.20432
1.20445
1.20447
1.20457
1.20464
1.20477
1.20491
1.20505
1.20522
1.20533
1.20548
1.20552
1.20562
1.20561
1.20562
1.20557
1.20553
1.20547
1.20538
1.20534
1.20524
1.20518
1.20507
1.205
1.20491
1.20484
1.20468
1.20458
1.20446
1.20438
1.20427
1.20417
1.20396
1.20383
1.20366
1.20356
1.20344
1.20335
1.20317
1.20308
1.20293
1.20285
1.20275
1.20266
1.20252
1.20242
1.20227
1.20221
1.20215
1.2021
1.20207
1.20202
1.20202
1.20197
1.20196
1.20192
1.2019
1.20187
1.20186
1.20185
1.20183
1.20182
1.20182
1.20181
1.2018
1.2018
1.20179
1.20181
1.20181
1.20184
1.20184
1.20185
1.20188
1.20191
1.20194
1.20197
1.202
1.20205
1.20207
1.20211
1.20215
1.2022
1.20224
1.2023
1.20233
1.20239
1.20244
1.20251
1.20256
1.20263
1.20268
1.20275
1.2028
1.20286
1.20289
1.20296
1.20301
1.20307
1.20314
1.20318
1.20326
1.2033
1.20337
1.20342
1.20349
1.20355
1.20361
1.20367
1.2037
1.20376
1.20379
1.20384
1.20388
1.20394
1.20396
1.204
1.20403
1.20409
1.20411
1.20416
1.2042
1.20424
1.20427
1.20429
1.20431
1.20433
1.20433
1.20434
1.20437
1.20438
1.20438
1.2044
1.20439
1.20441
1.2044
1.20439
1.20436
1.20434
1.20431
1.2043
1.20429
1.20429
1.20427
1.20427
1.20425
1.20426
1.20426
1.20426
1.20429
1.20427
1.2043
1.2043
1.20433
1.20435
1.20436
1.20435
1.206
1.20592
1.206
1.2059
1.20587
1.20581
1.2057
1.20546
1.20518
1.20454
1.20406
1.20327
1.20264
1.20187
1.20114
1.20039
1.19965
1.19905
1.19839
1.198
1.19754
1.19732
1.1971
1.19702
1.19694
1.19699
1.19697
1.19709
1.19711
1.19721
1.19718
1.19737
1.19746
1.19762
1.19764
1.19771
1.19778
1.19802
1.19807
1.198
1.19815
1.19826
1.19832
1.19849
1.19872
1.19894
1.1991
1.19917
1.19931
1.19931
1.19947
1.19934
1.19948
1.19934
1.19953
1.19931
1.19934
1.19904
1.19934
1.19874
1.19843
1.19717
1.19685
1.19597
1.19588
1.19531
1.19513
1.19456
1.1943
1.19388
1.19372
1.19362
1.19351
1.19344
1.19337
1.19328
1.1933
1.19326
1.19337
1.19341
1.1936
1.19372
1.19391
1.19401
1.19424
1.19425
1.19445
1.19449
1.19458
1.19456
1.19462
1.19473
1.19478
1.19502
1.19523
1.1955
1.19548
1.19569
1.19542
1.1956
1.19512
1.19554
1.19515
1.19581
1.19542
1.19593
1.19596
1.19646
1.19731
1.19867
1.19981
1.2006
1.20112
1.20122
1.20144
1.20157
1.20183
1.20181
1.20229
1.20252
1.20292
1.20301
1.20289
1.20281
1.20307
1.20308
1.20324
1.20304
1.203
1.20282
1.20278
1.20252
1.20254
1.20227
1.20225
1.20192
1.2019
1.20152
1.2012
1.20097
1.20044
1.20014
1.19976
1.19946
1.19898
1.19866
1.19809
1.19782
1.19736
1.19725
1.19672
1.19635
1.19555
1.19543
1.19523
1.19525
1.19522
1.19525
1.19494
1.19469
1.19435
1.19403
1.19375
1.19397
1.19367
1.19376
1.19333
1.1932
1.19298
1.19274
1.19255
1.1925
1.19235
1.19232
1.19218
1.19217
1.19197
1.19193
1.19176
1.19163
1.19147
1.19136
1.19108
1.19105
1.19056
1.19039
1.19043
1.19
1.18995
1.18976
1.18992
1.18976
1.18961
1.1888
1.18868
1.18849
1.18866
1.18877
1.18901
1.18913
1.18944
1.18961
1.18994
1.19018
1.19053
1.19076
1.19147
1.192
1.19303
1.19353
1.1944
1.19494
1.19611
1.197
1.19767
1.19745
1.19816
1.19888
1.20044
1.20085
1.20123
1.20139
1.20174
1.20196
1.20261
1.20243
1.20268
1.20284
1.2031
1.20321
1.20317
1.20323
1.20351
1.20333
1.20344
1.20352
1.20377
1.20346
1.20355
1.20356
1.20363
1.20368
1.20389
1.204
1.20416
1.20419
1.20423
1.20413
1.20391
1.20332
1.20303
1.20251
1.20226
1.20177
1.20147
1.20084
1.20059
1.20022
1.20001
1.19972
1.19955
1.19933
1.19918
1.19906
1.19888
1.1988
1.19869
1.19861
1.19851
1.19844
1.19838
1.19834
1.19832
1.1983
1.19828
1.19823
1.19823
1.19818
1.1982
1.19822
1.19819
1.19825
1.19819
1.19827
1.19821
1.19831
1.19832
1.19848
1.19833
1.19859
1.19841
1.19866
1.1986
1.1986
1.19856
1.19868
1.19877
1.19874
1.1988
1.19897
1.19901
1.19916
1.19912
1.19909
1.19922
1.19914
1.19917
1.1991
1.19912
1.19909
1.19916
1.1991
1.1992
1.19912
1.19919
1.19915
1.19926
1.19937
1.19952
1.19964
1.19986
1.20006
1.20041
1.20058
1.20087
1.20105
1.20122
1.20147
1.20167
1.20188
1.20209
1.20231
1.20254
1.20266
1.2028
1.20298
1.20315
1.20317
1.20336
1.20341
1.20367
1.2038
1.20398
1.20406
1.20425
1.2043
1.20447
1.2045
1.20464
1.20477
1.20492
1.2051
1.2053
1.20555
1.20567
1.20593
1.20602
1.20618
1.20621
1.20628
1.20627
1.20626
1.20623
1.20622
1.20617
1.2061
1.20606
1.20596
1.20591
1.20581
1.20572
1.20555
1.20545
1.20533
1.20523
1.20506
1.20492
1.20464
1.2045
1.20431
1.20421
1.20402
1.20389
1.20366
1.20353
1.20337
1.20327
1.20311
1.203
1.20277
1.20264
1.20247
1.20239
1.20229
1.20223
1.20222
1.20215
1.20213
1.20208
1.20204
1.20198
1.20195
1.20194
1.20192
1.20191
1.20191
1.2019
1.20189
1.20188
1.20188
1.2019
1.20187
1.2019
1.20191
1.20191
1.20192
1.20196
1.20198
1.20201
1.20204
1.20208
1.20211
1.20215
1.20218
1.20223
1.20226
1.20231
1.20236
1.20242
1.20245
1.20252
1.20256
1.20264
1.2027
1.20277
1.20282
1.20289
1.20292
1.20298
1.20301
1.20308
1.20314
1.2032
1.20327
1.20332
1.20338
1.20344
1.2035
1.20357
1.20362
1.2037
1.20374
1.20379
1.20383
1.20387
1.20391
1.20397
1.20402
1.20406
1.20408
1.20412
1.20415
1.20421
1.20425
1.20429
1.20432
1.20436
1.20439
1.20441
1.20442
1.20442
1.20443
1.20446
1.20447
1.20448
1.20448
1.2045
1.20451
1.20451
1.20448
1.20447
1.20445
1.20443
1.20441
1.20439
1.20438
1.20438
1.20436
1.20435
1.20434
1.20433
1.20433
1.20432
1.20434
1.20433
1.20436
1.20437
1.2044
1.20441
1.20439
1.20592
1.20599
1.20589
1.20595
1.20586
1.20578
1.20559
1.20535
1.20491
1.20446
1.20383
1.20323
1.20256
1.20184
1.20115
1.20035
1.19985
1.19907
1.1987
1.19811
1.19794
1.19767
1.19762
1.19757
1.19759
1.19761
1.1977
1.19777
1.1979
1.19792
1.19793
1.19806
1.19833
1.19839
1.19853
1.19851
1.19878
1.19889
1.19902
1.19897
1.19903
1.19916
1.19909
1.1993
1.19959
1.1998
1.19992
1.20011
1.20011
1.2003
1.20025
1.20041
1.20031
1.20052
1.20028
1.20055
1.20037
1.2005
1.20056
1.20057
1.19978
1.19953
1.19838
1.1982
1.19738
1.19713
1.1965
1.19628
1.19548
1.19514
1.19457
1.19432
1.1941
1.19396
1.19377
1.19366
1.19354
1.19354
1.19347
1.1936
1.19362
1.1938
1.19389
1.19409
1.19407
1.19433
1.1943
1.19453
1.19458
1.19475
1.19468
1.19478
1.1948
1.1951
1.1952
1.19535
1.19574
1.1952
1.1957
1.19498
1.19546
1.19508
1.19525
1.19534
1.19592
1.19556
1.19669
1.19717
1.19816
1.19985
1.20089
1.20185
1.2024
1.20276
1.20295
1.20332
1.20335
1.20369
1.20394
1.2045
1.2047
1.20493
1.20475
1.205
1.20502
1.20537
1.20522
1.20526
1.20505
1.20507
1.20487
1.20479
1.20464
1.20458
1.20432
1.20427
1.20393
1.20365
1.20337
1.20281
1.20253
1.20198
1.20167
1.20117
1.20083
1.20027
1.19992
1.19931
1.19914
1.19857
1.19825
1.19757
1.19692
1.19619
1.19587
1.1958
1.19592
1.1958
1.19542
1.19478
1.19494
1.19441
1.19406
1.19375
1.19421
1.1939
1.19363
1.1934
1.19318
1.19283
1.1927
1.19246
1.19245
1.19229
1.19231
1.19218
1.19223
1.19194
1.19187
1.19169
1.19154
1.19135
1.19122
1.19082
1.19048
1.19048
1.19
1.18957
1.18926
1.18939
1.18926
1.18917
1.18819
1.18798
1.1875