/*--------------------------------*- C++ -*----------------------------------*\
| =========                 |                                                 |
| \\      /  F ield         | OpenFOAM: The Open Source CFD Toolbox           |
|  \\    /   O peration     | Version:  v1812                                 |
|   \\  /    A nd           | Web:      www.OpenFOAM.com                      |
|    \\/     M anipulation  |                                                 |
\*---------------------------------------------------------------------------*/
FoamFile
{
    version     2.0;
    format      ascii;
    class       volScalarField;
    location    "0.9";
    object      T;
}
// * * * * * * * * * * * * * * * * * * * * * * * * * * * * * * * * * * * * * //

dimensions      [0 0 0 1 0 0 0];


internalField   nonuniform List<scalar> 
20400
(
290.837
290.838
290.837
290.841
290.847
290.851
290.87
290.9
290.956
291.036
291.145
291.277
291.434
291.607
291.798
291.991
292.186
292.367
292.536
292.687
292.822
292.944
293.056
293.149
293.221
293.271
293.296
293.307
293.308
293.306
293.299
293.296
293.294
293.286
293.265
293.257
293.24
293.24
293.216
293.197
293.176
293.179
293.16
293.145
293.121
293.113
293.1
293.094
293.093
293.1
293.124
293.159
293.205
293.239
293.302
293.363
293.449
293.526
293.616
293.679
293.747
293.798
293.845
293.884
293.937
293.983
294.027
294.047
294.064
294.065
294.065
294.062
294.058
294.048
294.034
294.019
293.984
293.94
293.875
293.815
293.74
293.658
293.573
293.487
293.402
293.323
293.242
293.181
293.108
293.051
292.985
292.938
292.901
292.874
292.873
292.836
292.782
292.715
292.644
292.576
292.508
292.429
292.366
292.29
292.292
292.263
292.246
292.228
292.24
292.227
292.254
292.266
292.27
292.259
292.245
292.218
292.182
292.165
292.154
292.143
292.147
292.145
292.147
292.144
292.151
292.133
292.128
292.128
292.154
292.174
292.206
292.234
292.254
292.269
292.273
292.278
292.279
292.281
292.28
292.278
292.276
292.277
292.278
292.281
292.28
292.291
292.31
292.332
292.346
292.357
292.365
292.375
292.383
292.395
292.413
292.444
292.488
292.525
292.569
292.609
292.655
292.703
292.758
292.804
292.848
292.895
292.949
293.006
293.069
293.134
293.208
293.276
293.347
293.414
293.478
293.539
293.596
293.65
293.705
293.762
293.825
293.89
293.957
294.017
294.08
294.142
294.208
294.266
294.32
294.365
294.4
294.424
294.435
294.433
294.434
294.435
294.438
294.435
294.415
294.38
294.315
294.231
294.121
293.992
293.844
293.689
293.53
293.375
293.231
293.101
292.991
292.899
292.812
292.73
292.661
292.619
292.564
292.518
292.467
292.424
292.393
292.378
292.355
292.331
292.296
292.267
292.241
292.21
292.194
292.165
292.146
292.106
292.079
292.068
292.065
292.056
292.048
292.048
292.049
292.057
292.076
292.118
292.172
292.235
292.305
292.382
292.458
292.529
292.598
292.659
292.715
292.766
292.808
292.847
292.879
292.908
292.928
292.941
292.953
292.959
292.964
292.964
292.965
292.963
292.961
292.958
292.954
292.951
292.945
292.938
292.929
292.92
292.91
292.902
292.893
292.889
292.885
292.885
292.883
292.88
292.874
292.867
292.859
292.852
292.849
292.844
292.846
292.842
292.849
292.857
292.866
292.863
292.878
292.893
292.893
292.901
292.913
292.935
292.953
292.974
292.99
293.009
293.023
293.027
293.028
293.026
293.024
293.012
293
292.98
292.967
292.943
292.917
292.892
292.869
292.847
292.827
292.809
292.792
292.777
292.764
292.755
292.747
292.743
292.741
292.741
292.742
292.744
292.744
292.745
292.746
292.748
292.749
292.752
292.757
292.762
292.761
292.763
292.764
292.768
292.77
292.772
292.773
292.774
292.775
292.776
292.776
292.778
292.781
292.788
292.798
292.811
292.826
292.844
292.865
292.887
292.911
292.934
292.958
292.982
293.004
293.026
293.045
293.064
293.081
293.098
293.112
293.126
293.138
293.15
293.161
293.171
293.18
293.189
293.197
293.206
293.216
293.224
293.233
293.24
293.246
293.252
293.257
293.26
293.263
293.265
293.266
293.266
293.265
293.264
293.262
293.26
293.257
293.254
293.251
293.248
293.245
293.242
293.24
293.238
293.236
293.235
293.235
293.235
293.235
293.236
293.236
293.236
293.237
293.237
293.238
293.239
293.24
293.242
293.244
293.247
293.249
293.252
293.255
293.258
293.262
293.267
293.271
293.275
293.28
293.284
293.289
293.294
293.299
293.304
293.31
293.316
293.322
293.329
293.335
293.342
293.35
293.357
293.364
293.371
293.378
293.384
293.391
293.398
293.404
293.411
293.418
293.424
293.431
293.437
293.443
293.449
293.455
293.461
293.467
293.472
293.478
293.484
293.49
293.496
293.501
293.507
293.513
293.519
293.524
293.53
293.535
293.54
293.545
293.549
293.553
293.556
293.559
293.562
293.565
293.567
293.569
293.572
293.574
293.576
293.579
293.582
293.585
293.586
293.587
293.586
293.584
293.58
293.574
293.566
293.557
293.547
293.536
293.526
293.514
293.502
293.489
293.477
293.469
293.468
290.839
290.837
290.843
290.847
290.844
290.852
290.866
290.902
290.954
291.037
291.143
291.28
291.434
291.606
291.799
291.99
292.187
292.364
292.536
292.685
292.82
292.939
293.055
293.134
293.217
293.248
293.287
293.287
293.293
293.28
293.283
293.271
293.279
293.254
293.25
293.219
293.218
293.211
293.205
293.154
293.15
293.142
293.14
293.096
293.098
293.068
293.068
293.057
293.057
293.064
293.083
293.124
293.154
293.221
293.243
293.337
293.381
293.514
293.568
293.686
293.715
293.805
293.82
293.886
293.912
293.982
294.009
294.051
294.049
294.061
294.053
294.058
294.046
294.045
294.028
294.011
293.981
293.927
293.871
293.801
293.732
293.643
293.565
293.47
293.391
293.304
293.232
293.158
293.095
293.03
292.974
292.919
292.892
292.855
292.855
292.799
292.762
292.666
292.612
292.54
292.46
292.406
292.306
292.277
292.22
292.223
292.162
292.158
292.139
292.156
292.162
292.206
292.189
292.206
292.175
292.172
292.118
292.114
292.118
292.128
292.12
292.126
292.123
292.12
292.113
292.131
292.123
292.137
292.128
292.15
292.185
292.207
292.237
292.243
292.255
292.251
292.259
292.256
292.26
292.257
292.256
292.258
292.262
292.261
292.268
292.283
292.299
292.325
292.339
292.355
292.36
292.369
292.376
292.395
292.407
292.444
292.47
292.521
292.549
292.605
292.634
292.699
292.742
292.804
292.837
292.891
292.939
292.999
293.058
293.131
293.191
293.274
293.336
293.413
293.475
293.539
293.596
293.654
293.707
293.768
293.829
293.902
293.968
294.041
294.097
294.163
294.231
294.282
294.339
294.364
294.409
294.433
294.441
294.44
294.445
294.449
294.454
294.447
294.437
294.39
294.343
294.248
294.159
294.017
293.889
293.706
293.567
293.389
293.268
293.11
293.017
292.916
292.847
292.742
292.689
292.611
292.564
292.508
292.464
292.413
292.381
292.361
292.365
292.35
292.311
292.272
292.247
292.24
292.21
292.176
292.157
292.13
292.098
292.075
292.071
292.06
292.05
292.049
292.051
292.054
292.071
292.108
292.161
292.221
292.294
292.363
292.455
292.523
292.599
292.652
292.716
292.761
292.81
292.842
292.88
292.901
292.928
292.938
292.949
292.955
292.961
292.962
292.963
292.962
292.959
292.957
292.953
292.95
292.944
292.937
292.928
292.919
292.908
292.901
292.892
292.887
292.883
292.882
292.881
292.875
292.871
292.862
292.854
292.847
292.843
292.843
292.84
292.843
292.841
292.849
292.85
292.86
292.864
292.878
292.875
292.887
292.902
292.929
292.938
292.957
292.982
293.006
293.016
293.022
293.026
293.033
293.027
293.024
293.006
292.993
292.968
292.95
292.927
292.902
292.881
292.856
292.839
292.817
292.803
292.783
292.772
292.759
292.752
292.747
292.744
292.744
292.743
292.743
292.743
292.743
292.745
292.745
292.749
292.751
292.756
292.761
292.766
292.766
292.768
292.77
292.772
292.772
292.774
292.774
292.775
292.776
292.776
292.777
292.78
292.785
292.794
292.805
292.819
292.837
292.856
292.879
292.901
292.926
292.949
292.972
292.996
293.016
293.039
293.055
293.076
293.089
293.106
293.117
293.133
293.142
293.156
293.164
293.175
293.182
293.193
293.2
293.212
293.22
293.23
293.236
293.244
293.248
293.255
293.258
293.261
293.262
293.264
293.264
293.264
293.263
293.261
293.259
293.256
293.253
293.25
293.247
293.244
293.242
293.239
293.237
293.236
293.235
293.234
293.234
293.234
293.235
293.236
293.236
293.236
293.237
293.237
293.238
293.24
293.242
293.244
293.246
293.249
293.251
293.254
293.258
293.262
293.266
293.271
293.275
293.28
293.284
293.289
293.293
293.299
293.304
293.31
293.315
293.322
293.328
293.336
293.342
293.35
293.357
293.364
293.371
293.377
293.384
293.391
293.398
293.404
293.411
293.417
293.424
293.43
293.437
293.443
293.449
293.455
293.46
293.466
293.472
293.478
293.483
293.49
293.495
293.501
293.506
293.513
293.518
293.524
293.529
293.534
293.539
293.544
293.548
293.552
293.555
293.558
293.561
293.564
293.566
293.569
293.571
293.573
293.575
293.578
293.581
293.584
293.586
293.586
293.585
293.583
293.579
293.573
293.565
293.556
293.546
293.536
293.526
293.514
293.502
293.488
293.477
293.469
293.467
290.838
290.844
290.851
290.862
290.857
290.853
290.868
290.899
290.955
291.034
291.144
291.28
291.433
291.636
291.8
292.027
292.186
292.39
292.532
292.688
292.812
292.935
293.021
293.128
293.171
293.238
293.24
293.256
293.248
293.245
293.239
293.235
293.229
293.226
293.182
293.186
293.16
293.183
293.133
293.128
293.084
293.099
293.061
293.058
293.014
293.01
292.992
292.986
292.986
292.987
293.009
293.03
293.094
293.112
293.202
293.194
293.329
293.357
293.551
293.574
293.721
293.739
293.842
293.841
293.938
293.972
294.032
294.028
294.056
294.048
294.056
294.045
294.051
294.033
294.032
294.005
293.971
293.926
293.868
293.8
293.721
293.637
293.556
293.462
293.378
293.296
293.217
293.152
293.084
293.037
292.975
292.945
292.901
292.88
292.844
292.802
292.681
292.626
292.543
292.458
292.42
292.3
292.258
292.199
292.196
292.159
292.137
292.082
292.114
292.078
292.106
292.074
292.106
292.071
292.11
292.066
292.066
292.019
292.041
292.038
292.049
292.043
292.044
292.038
292.048
292.058
292.067
292.064
292.07
292.074
292.093
292.124
292.139
292.159
292.151
292.164
292.163
292.179
292.176
292.18
292.177
292.181
292.195
292.197
292.229
292.233
292.265
292.27
292.321
292.328
292.35
292.339
292.356
292.362
292.404
292.407
292.457
292.47
292.546
292.553
292.63
292.65
292.737
292.776
292.849
292.882
292.939
292.99
293.056
293.108
293.189
293.245
293.339
293.394
293.475
293.533
293.597
293.646
293.71
293.762
293.833
293.9
293.986
294.055
294.127
294.197
294.256
294.341
294.343
294.404
294.433
294.464
294.458
294.472
294.484
294.507
294.507
294.509
294.484
294.473
294.386
294.354
294.231
294.188
293.967
293.894
293.606
293.561
293.312
293.252
293.043
293.035
292.897
292.88
292.693
292.677
292.561
292.516
292.459
292.424
292.373
292.348
292.356
292.363
292.323
292.267
292.245
292.248
292.205
292.172
292.149
292.153
292.129
292.097
292.081
292.068
292.068
292.06
292.057
292.058
292.068
292.094
292.127
292.187
292.228
292.335
292.381
292.519
292.547
292.651
292.671
292.755
292.778
292.84
292.852
292.9
292.905
292.935
292.937
292.95
292.952
292.958
292.959
292.96
292.96
292.96
292.955
292.954
292.945
292.941
292.929
292.921
292.909
292.902
292.892
292.888
292.882
292.881
292.876
292.872
292.863
292.856
292.848
292.84
292.838
292.835
292.835
292.831
292.833
292.832
292.838
292.847
292.86
292.855
292.875
292.879
292.917
292.935
292.947
292.949
292.99
293.015
293.022
293.017
293.034
293.043
293.047
293.042
293.036
293.019
293.001
292.983
292.958
292.944
292.912
292.902
292.87
292.862
292.829
292.82
292.792
292.785
292.77
292.767
292.76
292.76
292.754
292.753
292.75
292.75
292.751
292.752
292.751
292.753
292.758
292.763
292.766
292.768
292.771
292.772
292.772
292.773
292.773
292.774
292.775
292.777
292.776
292.777
292.775
292.779
292.781
292.786
292.795
292.807
292.829
292.843
292.872
292.889
292.917
292.938
292.959
292.988
293
293.032
293.038
293.066
293.071
293.095
293.099
293.123
293.128
293.146
293.149
293.163
293.167
293.185
293.191
293.208
293.211
293.224
293.226
293.239
293.241
293.249
293.249
293.254
293.254
293.258
293.258
293.259
293.258
293.256
293.254
293.25
293.249
293.243
293.243
293.238
293.238
293.234
293.233
293.232
293.232
293.232
293.232
293.233
293.234
293.234
293.234
293.234
293.235
293.236
293.237
293.24
293.242
293.245
293.247
293.249
293.252
293.256
293.259
293.265
293.268
293.274
293.277
293.283
293.286
293.293
293.296
293.304
293.307
293.315
293.318
293.328
293.332
293.342
293.347
293.357
293.361
293.369
293.375
293.381
293.389
293.394
293.404
293.407
293.417
293.421
293.429
293.434
293.44
293.447
293.451
293.458
293.462
293.47
293.475
293.482
293.486
293.494
293.497
293.505
293.508
293.516
293.521
293.526
293.531
293.536
293.541
293.545
293.549
293.552
293.554
293.557
293.56
293.563
293.565
293.568
293.57
293.573
293.575
293.579
293.582
293.583
293.583
293.582
293.58
293.577
293.57
293.564
293.555
293.544
293.536
293.523
293.513
293.5
293.488
293.475
293.467
293.465
290.843
290.847
290.861
290.87
290.878
290.871
290.89
290.913
290.957
291.029
291.152
291.281
291.495
291.639
291.896
292.036
292.264
292.389
292.57
292.682
292.81
292.899
293.015
293.071
293.158
293.169
293.204
293.2
293.203
293.183
293.19
293.167
293.179
293.142
293.145
293.116
293.117
293.09
293.082
293.033
293.032
293.008
292.983
292.952
292.918
292.903
292.878
292.873
292.865
292.873
292.872
292.903
292.927
292.991
293.004
293.088
293.092
293.24
293.311
293.508
293.581
293.722
293.77
293.86
293.892
293.966
293.996
294.037
294.04
294.051
294.046
294.05
294.041
294.041
294.022
294.006
293.97
293.926
293.873
293.804
293.733
293.654
293.567
293.477
293.391
293.309
293.234
293.16
293.103
293.042
293.005
292.946
292.927
292.874
292.824
292.694
292.632
292.52
292.426
292.406
292.292
292.282
292.209
292.23
292.193
292.21
292.165
292.146
292.082
292.113
292.016
292.022
291.957
291.977
291.962
291.966
291.895
291.909
291.886
291.897
291.877
291.877
291.859
291.866
291.874
291.877
291.883
291.88
291.883
291.882
291.9
291.904
291.937
291.937
291.943
291.94
291.976
291.979
291.999
291.996
292
292.028
292.029
292.084
292.09
292.155
292.144
292.202
292.204
292.29
292.289
292.315
292.298
292.341
292.348
292.391
292.383
292.438
292.456
292.554
292.561
292.641
292.655
292.775
292.815
292.894
292.932
292.996
293.041
293.109
293.155
293.244
293.295
293.396
293.455
293.534
293.586
293.653
293.698
293.769
293.829
293.909
293.985
294.071
294.147
294.232
294.337
294.35
294.426
294.434
294.496
294.508
294.51
294.522
294.601
294.612
294.627
294.615
294.628
294.578
294.566
294.468
294.47
294.341
294.333
294.014
293.994
293.661
293.66
293.36
293.315
293.097
293.124
292.974
292.977
292.701
292.705
292.524
292.499
292.42
292.402
292.36
292.351
292.36
292.348
292.276
292.235
292.241
292.223
292.169
292.142
292.15
292.15
292.108
292.071
292.073
292.075
292.064
292.054
292.045
292.047
292.044
292.071
292.087
292.166
292.18
292.334
292.353
292.532
292.535
292.653
292.659
292.764
292.771
292.85
292.846
292.901
292.904
292.931
292.93
292.943
292.945
292.953
292.955
292.957
292.957
292.959
292.954
292.952
292.942
292.935
292.921
292.913
292.9
292.895
292.886
292.885
292.876
292.875
292.863
292.856
292.848
292.843
292.844
292.838
292.84
292.834
292.836
292.832
292.837
292.832
292.853
292.867
292.863
292.866
292.905
292.937
292.946
292.937
292.97
293.009
293.023
293.017
293.031
293.046
293.067
293.069
293.075
293.074
293.066
293.058
293.036
293.03
293.004
293
292.965
292.961
292.925
292.921
292.874
292.87
292.829
292.829
292.808
292.807
292.795
292.794
292.782
292.78
292.773
292.775
292.769
292.768
292.768
292.77
292.773
292.777
292.779
292.78
292.779
292.779
292.777
292.778
292.776
292.777
292.776
292.777
292.774
292.775
292.766
292.758
292.754
292.752
292.757
292.764
292.787
292.794
292.826
292.839
292.864
292.891
292.902
292.943
292.943
292.983
292.982
293.016
293.015
293.044
293.045
293.08
293.081
293.1
293.1
293.121
293.122
293.155
293.16
293.177
293.18
293.195
293.198
293.217
293.217
293.227
293.226
293.234
293.235
293.246
293.246
293.249
293.247
293.246
293.244
293.239
293.241
293.235
293.235
293.231
293.229
293.227
293.227
293.226
293.226
293.226
293.228
293.228
293.229
293.229
293.23
293.231
293.232
293.233
293.235
293.238
293.241
293.242
293.244
293.247
293.249
293.255
293.257
293.265
293.267
293.274
293.275
293.284
293.285
293.295
293.296
293.305
293.306
293.317
293.318
293.33
293.332
293.346
293.348
293.36
293.363
293.369
293.376
293.38
293.392
293.392
293.406
293.407
293.419
293.421
293.429
293.435
293.44
293.448
293.449
293.459
293.462
293.471
293.473
293.484
293.484
293.495
293.495
293.506
293.508
293.516
293.519
293.525
293.53
293.535
293.539
293.542
293.545
293.546
293.549
293.552
293.554
293.559
293.561
293.564
293.564
293.567
293.571
293.575
293.576
293.576
293.575
293.574
293.569
293.568
293.559
293.551
293.543
293.53
293.522
293.509
293.499
293.484
293.473
293.464
293.462
290.849
290.854
290.862
290.868
290.879
290.893
290.898
290.951
290.956
291.062
291.153
291.376
291.512
291.772
291.908
292.127
292.268
292.452
292.569
292.708
292.807
292.917
292.965
293.062
293.082
293.133
293.131
293.136
293.127
293.127
293.109
293.096
293.083
293.071
293.058
293.039
293.038
292.995
292.978
292.948
292.946
292.888
292.877
292.808
292.806
292.737
292.734
292.706
292.702
292.698
292.702
292.72
292.74
292.789
292.828
292.853
292.889
292.987
293.115
293.293
293.395
293.596
293.661
293.795
293.837
293.902
293.946
294.008
294.027
294.041
294.041
294.04
294.033
294.03
294.015
293.999
293.964
293.926
293.87
293.816
293.744
293.668
293.577
293.493
293.4
293.325
293.237
293.177
293.089
293.045
292.963
292.934
292.858
292.831
292.663
292.641
292.48
292.412
292.379
292.282
292.285
292.195
292.242
292.199
292.226
292.18
292.199
292.119
292.123
292.006
291.94
291.793
291.794
291.752
291.776
291.7
291.678
291.643
291.652
291.632
291.59
291.562
291.55
291.557
291.553
291.55
291.534
291.537
291.531
291.544
291.537
291.564
291.561
291.589
291.568
291.605
291.611
291.671
291.67
291.683
291.733
291.733
291.81
291.804
291.927
291.927
292.019
291.994
292.098
292.102
292.218
292.21
292.271
292.259
292.312
292.31
292.34
292.329
292.422
292.445
292.572
292.567
292.638
292.662
292.806
292.833
292.933
292.963
293.041
293.084
293.159
293.196
293.289
293.345
293.453
293.506
293.588
293.627
293.701
293.754
293.834
293.905
293.985
294.063
294.17
294.305
294.339
294.426
294.423
294.536
294.561
294.573
294.563
294.683
294.726
294.816
294.806
294.819
294.802
294.811
294.751
294.744
294.669
294.689
294.547
294.523
294.194
294.144
293.867
293.827
293.503
293.429
293.209
293.318
293.127
293.113
292.765
292.771
292.508
292.5
292.442
292.451
292.389
292.367
292.344
292.331
292.251
292.225
292.236
292.206
292.16
292.145
292.155
292.138
292.085
292.064
292.071
292.07
292.054
292.038
292.019
292.009
292
292.011
292.016
292.095
292.1
292.276
292.29
292.472
292.482
292.592
292.609
292.732
292.729
292.832
292.821
292.883
292.885
292.911
292.911
292.931
292.935
292.941
292.946
292.946
292.946
292.945
292.943
292.936
292.927
292.916
292.905
292.895
292.886
292.883
292.876
292.875
292.865
292.859
292.849
292.842
292.844
292.838
292.842
292.834
292.84
292.831
292.836
292.828
292.846
292.861
292.869
292.858
292.884
292.922
292.938
292.928
292.95
292.991
293.011
293.005
293.016
293.032
293.056
293.073
293.088
293.103
293.109
293.121
293.118
293.118
293.107
293.113
293.097
293.095
293.065
293.061
293.02
293.016
292.958
292.956
292.905
292.905
292.877
292.877
292.856
292.854
292.836
292.836
292.816
292.812
292.805
292.806
292.803
292.801
292.802
292.805
292.801
292.8
292.793
292.794
292.786
292.786
292.778
292.781
292.775
292.776
292.767
292.754
292.735
292.713
292.702
292.688
292.689
292.685
292.702
292.704
292.732
292.744
292.763
292.796
292.798
292.84
292.839
292.878
292.879
292.909
292.91
292.945
292.947
292.985
292.984
293.005
293.002
293.044
293.046
293.088
293.092
293.111
293.114
293.142
293.144
293.17
293.17
293.184
293.183
293.201
293.203
293.225
293.225
293.232
293.231
293.229
293.228
293.224
293.227
293.222
293.222
293.217
293.218
293.217
293.217
293.217
293.218
293.218
293.219
293.219
293.22
293.221
293.222
293.225
293.224
293.227
293.23
293.233
293.233
293.236
293.237
293.244
293.244
293.252
293.253
293.262
293.262
293.27
293.27
293.281
293.282
293.292
293.291
293.301
293.302
293.315
293.315
293.327
293.328
293.345
293.346
293.357
293.36
293.364
293.373
293.376
293.389
293.39
293.403
293.404
293.414
293.419
293.424
293.432
293.433
293.444
293.444
293.456
293.457
293.467
293.467
293.48
293.479
293.491
293.492
293.502
293.503
293.509
293.512
293.519
293.523
293.528
293.531
293.532
293.534
293.537
293.539
293.544
293.545
293.548
293.548
293.552
293.553
293.56
293.563
293.564
293.564
293.564
293.561
293.561
293.555
293.553
293.546
293.535
293.529
293.515
293.509
293.493
293.483
293.467
293.459
293.457
290.858
290.854
290.862
290.866
290.874
290.889
290.918
290.929
291.021
291.065
291.273
291.38
291.617
291.775
291.962
292.125
292.299
292.446
292.589
292.703
292.81
292.883
292.958
292.987
293.039
293.045
293.041
293.042
293.025
293.024
292.994
292.988
292.935
292.935
292.903
292.912
292.856
292.844
292.788
292.81
292.755
292.745
292.672
292.667
292.579
292.574
292.51
292.508
292.497
292.486
292.497
292.484
292.527
292.539
292.593
292.571
292.673
292.677
292.862
292.874
293.217
293.239
293.555
293.564
293.726
293.73
293.859
293.882
293.99
293.991
294.015
294.015
294.014
294.004
294.003
293.979
293.965
293.915
293.875
293.805
293.739
293.655
293.574
293.48
293.402
293.308
293.241
293.153
293.097
293.003
292.953
292.863
292.838
292.682
292.62
292.438
292.42
292.345
292.271
292.273
292.216
292.246
292.201
292.236
292.179
292.226
292.127
292.158
292.033
291.941
291.657
291.574
291.475
291.501
291.452
291.396
291.32
291.306
291.325
291.239
291.195
291.126
291.126
291.124
291.123
291.059
291.059
291.051
291.059
291.048
291.075
291.062
291.093
291.076
291.11
291.105
291.169
291.177
291.215
291.297
291.297
291.408
291.403
291.534
291.528
291.699
291.695
291.814
291.797
291.936
291.937
292.143
292.131
292.223
292.183
292.247
292.247
292.265
292.288
292.426
292.471
292.579
292.56
292.633
292.655
292.814
292.825
292.942
292.99
293.084
293.122
293.199
293.242
293.336
293.386
293.494
293.529
293.622
293.671
293.754
293.823
293.907
293.984
294.072
294.211
294.306
294.4
294.402
294.537
294.581
294.666
294.613
294.732
294.791
295.016
295.016
295.063
295.054
295.062
295.033
295.047
294.984
294.993
294.918
294.938
294.778
294.732
294.419
294.361
294.094
294.061
293.69
293.632
293.391
293.527
293.294
293.285
292.835
292.841
292.584
292.586
292.58
292.562
292.408
292.39
292.38
292.354
292.267
292.25
292.259
292.238
292.172
292.151
292.157
292.127
292.08
292.066
292.069
292.062
292.04
292.013
291.985
291.956
291.932
291.927
291.928
291.982
291.989
292.167
292.187
292.359
292.372
292.5
292.504
292.675
292.662
292.781
292.777
292.84
292.845
292.883
292.884
292.91
292.915
292.92
292.927
292.927
292.928
292.927
292.925
292.915
292.908
292.894
292.886
292.878
292.872
292.872
292.865
292.861
292.851
292.842
292.843
292.835
292.838
292.832
292.835
292.827
292.833
292.82
292.836
292.839
292.855
292.842
292.863
292.899
292.915
292.908
292.92
292.964
292.985
292.98
292.982
293.007
293.032
293.056
293.069
293.097
293.115
293.147
293.155
293.183
293.186
293.193
293.199
293.225
293.217
293.217
293.195
293.19
293.15
293.144
293.08
293.075
293.019
293.018
292.98
292.979
292.954
292.955
292.92
292.909
292.883
292.882
292.869
292.868
292.855
292.857
292.846
292.848
292.83
292.829
292.815
292.816
292.796
292.795
292.781
292.786
292.774
292.765
292.743
292.715
292.687
292.65
292.638
292.598
292.597
292.569
292.576
292.577
292.598
292.607
292.618
292.645
292.646
292.679
292.681
292.713
292.717
292.744
292.75
292.789
292.794
292.827
292.827
292.857
292.859
292.921
292.929
292.972
292.975
293.008
293.008
293.057
293.058
293.092
293.091
293.115
293.115
293.152
293.155
293.192
293.193
293.203
293.203
293.202
293.205
293.201
293.202
293.2
293.203
293.202
293.203
293.204
293.203
293.203
293.203
293.203
293.204
293.206
293.207
293.21
293.21
293.214
293.214
293.217
293.219
293.222
293.222
293.226
293.228
293.235
293.235
293.242
293.244
293.253
293.253
293.262
293.263
293.274
293.274
293.283
293.282
293.295
293.295
293.307
293.307
293.32
293.322
293.338
293.34
293.348
293.353
293.354
293.365
293.368
293.381
293.383
293.393
293.399
293.404
293.412
293.413
293.423
293.424
293.436
293.436
293.446
293.445
293.457
293.458
293.472
293.473
293.482
293.483
293.489
293.49
293.496
293.5
293.508
293.51
293.514
293.514
293.517
293.519
293.524
293.524
293.528
293.527
293.529
293.53
293.537
293.539
293.544
293.546
293.546
293.544
293.545
293.543
293.543
293.539
293.535
293.529
293.515
293.513
293.496
293.492
293.471
293.462
293.451
293.448
290.86
290.864
290.861
290.868
290.874
290.889
290.909
290.964
291.019
291.181
291.276
291.466
291.604
291.78
291.952
292.126
292.298
292.437
292.59
292.677
292.783
292.829
292.878
292.9
292.912
292.906
292.909
292.878
292.878
292.846
292.865
292.796
292.791
292.726
292.734
292.692
292.694
292.591
292.589
292.58
292.563
292.495
292.506
292.429
292.416
292.312
292.309
292.281
292.257
292.257
292.237
292.269
292.254
292.304
292.26
292.346
292.362
292.45
292.402
292.572
292.607
293.05
293.039
293.365
293.344
293.553
293.539
293.758
293.761
293.912
293.912
293.948
293.953
293.957
293.954
293.956
293.93
293.911
293.855
293.81
293.729
293.658
293.57
293.495
293.398
293.332
293.229
293.159
293.074
293.024
292.936
292.869
292.748
292.666
292.506
292.418
292.328
292.264
292.263
292.212
292.242
292.191
292.247
292.196
292.236
292.122
292.158
292.059
291.922
291.678
291.445
291.265
291.14
291.137
291.058
290.99
290.914
290.947
290.861
290.833
290.663
290.655
290.641
290.666
290.562
290.55
290.489
290.516
290.501
290.515
290.501
290.533
290.511
290.543
290.536
290.586
290.588
290.644
290.733
290.732
290.905
290.893
291.045
291.032
291.221
291.21
291.418
291.418
291.563
291.53
291.729
291.776
292.046
292.035
292.115
292.092
292.164
292.15
292.257
292.286
292.444
292.497
292.577
292.544
292.633
292.653
292.773
292.83
292.959
293.028
293.127
293.171
293.248
293.295
293.378
293.418
293.514
293.566
293.656
293.733
293.809
293.899
293.987
294.11
294.212
294.321
294.355
294.525
294.6
294.727
294.671
294.803
294.823
295.167
295.18
295.316
295.299
295.323
295.306
295.317
295.283
295.298
295.226
295.229
295.133
295.145
294.951
294.925
294.598
294.599
294.304
294.313
293.895
293.85
293.587
293.728
293.46
293.43
292.951
292.948
292.796
292.843
292.716
292.651
292.467
292.522
292.445
292.425
292.351
292.356
292.313
292.285
292.206
292.206
292.179
292.142
292.086
292.087
292.075
292.06
292.021
291.981
291.937
291.892
291.85
291.829
291.817
291.843
291.854
292.037
292.05
292.205
292.216
292.364
292.371
292.585
292.57
292.704
292.702
292.778
292.783
292.837
292.842
292.868
292.88
292.89
292.895
292.901
292.903
292.902
292.901
292.889
292.884
292.872
292.866
292.863
292.858
292.858
292.85
292.841
292.841
292.831
292.833
292.822
292.831
292.816
292.82
292.807
292.818
292.811
292.822
292.806
292.827
292.852
292.873
292.864
292.871
292.915
292.934
292.925
292.92
292.948
292.971
293.022
293.025
293.063
293.085
293.131
293.156
293.191
293.203
293.242
293.245
293.296
293.301
293.345
293.346
293.348
293.332
293.343
293.309
293.302
293.229
293.227
293.163
293.163
293.126
293.125
293.08
293.075
293.022
293.021
292.987
292.987
292.958
292.958
292.928
292.935
292.901
292.903
292.872
292.874
292.841
292.842
292.812
292.815
292.789
292.786
292.761
292.74
292.707
292.667
292.632
292.578
292.554
292.486
292.479
292.433
292.438
292.42
292.425
292.428
292.436
292.441
292.446
292.465
292.467
292.492
292.495
292.527
292.53
292.572
292.575
292.609
292.609
292.662
292.667
292.749
292.754
292.809
292.805
292.865
292.864
292.931
292.934
292.977
292.977
293.02
293.017
293.088
293.088
293.142
293.144
293.154
293.163
293.16
293.165
293.163
293.173
293.173
293.182
293.183
293.184
293.184
293.183
293.183
293.182
293.184
293.186
293.189
293.188
293.193
293.195
293.198
293.197
293.2
293.202
293.207
293.207
293.213
293.215
293.221
293.221
293.229
293.231
293.242
293.242
293.25
293.25
293.261
293.261
293.271
293.271
293.283
293.283
293.296
293.295
293.311
293.311
293.327
293.328
293.335
293.34
293.344
293.353
293.359
293.365
293.374
293.378
293.388
293.389
293.397
293.398
293.411
293.413
293.421
293.421
293.427
293.429
293.446
293.449
293.458
293.458
293.465
293.466
293.472
293.472
293.479
293.481
293.489
293.489
293.493
293.494
293.499
293.5
293.504
293.503
293.504
293.503
293.507
293.508
293.516
293.518
293.52
293.52
293.52
293.519
293.52
293.52
293.521
293.518
293.513
293.51
293.495
293.494
293.474
293.467
293.448
293.441
293.437
290.867
290.863
290.87
290.864
290.875
290.89
290.93
290.981
291.091
291.182
291.333
291.464
291.622
291.784
291.945
292.126
292.238
292.432
292.486
292.655
292.668
292.744
292.747
292.76
292.751
292.754
292.724
292.721
292.675
292.678
292.664
292.654
292.552
292.555
292.498
292.522
292.409
292.409
292.327
292.363
292.306
292.294
292.278
292.267
292.138
292.135
292.073
292.044
292.043
292.008
292.028
292.017
292.038
292.006
292.06
292.045
292.123
292.087
292.102
292.088
292.359
292.372
292.779
292.738
293.047
293.038
293.29
293.265
293.558
293.559
293.756
293.765
293.828
293.839
293.874
293.876
293.882
293.854
293.842
293.78
293.736
293.657
293.585
293.495
293.432
293.331
293.269
293.156
293.094
292.997
292.932
292.832
292.759
292.618
292.516
292.37
292.292
292.264
292.215
292.235
292.211
292.237
292.21
292.229
292.148
292.142
292.005
291.868
291.683
291.382
291.225
290.877
290.866
290.713
290.702
290.546
290.555
290.493
290.482
290.26
290.246
290.155
290.215
290.1
290.086
289.977
290.001
289.968
289.989
289.964
289.985
289.978
289.989
289.978
290.02
290.015
290.074
290.136
290.158
290.33
290.32
290.511
290.499
290.691
290.688
290.876
290.899
291.087
291.105
291.243
291.244
291.568
291.62
291.91
291.9
291.999
291.948
292.064
292.078
292.286
292.297
292.455
292.467
292.556
292.533
292.637
292.688
292.808
292.895
293.03
293.089
293.181
293.227
293.3
293.342
293.411
293.454
293.549
293.627
293.708
293.805
293.884
293.996
294.109
294.237
294.283
294.487
294.614
294.784
294.757
294.892
294.87
295.27