/*--------------------------------*- C++ -*----------------------------------*\
| =========                 |                                                 |
| \\      /  F ield         | OpenFOAM: The Open Source CFD Toolbox           |
|  \\    /   O peration     | Version:  v1812                                 |
|   \\  /    A nd           | Web:      www.OpenFOAM.com                      |
|    \\/     M anipulation  |                                                 |
\*---------------------------------------------------------------------------*/
FoamFile
{
    version     2.0;
    format      ascii;
    class       volVectorField;
    location    "0.9";
    object      U;
}
// * * * * * * * * * * * * * * * * * * * * * * * * * * * * * * * * * * * * * //

dimensions      [0 1 -1 0 0 0 0];


internalField   nonuniform List<vector> 
20400
(
(-0.0529781 -0.0421105 0)
(-0.172457 -0.114775 0)
(-0.184325 -0.0858534 0)
(-0.41962 -0.0599187 0)
(-0.42691 -0.116443 0)
(-0.705297 -0.0122705 0)
(-0.712907 -0.0633785 0)
(-1.02465 0.0159935 0)
(-1.01091 -0.0765683 0)
(-1.3677 -0.0123925 0)
(-1.35788 -0.110867 0)
(-1.71721 0.000674741 0)
(-1.71605 -0.100288 0)
(-2.09128 0.0117724 0)
(-2.09951 -0.0948436 0)
(-2.48388 0.0142117 0)
(-2.48788 -0.0967957 0)
(-2.88178 0.000763503 0)
(-2.88453 -0.103659 0)
(-3.27372 -0.00938508 0)
(-3.27869 -0.0918687 0)
(-3.64332 0.0176381 0)
(-3.65706 -0.0808492 0)
(-4.01897 0.0255173 0)
(-4.0383 -0.08076 0)
(-4.40546 0.0269614 0)
(-4.41777 -0.07044 0)
(-4.79877 0.0267589 0)
(-4.81037 -0.0616328 0)
(-5.20686 0.0293297 0)
(-5.22509 -0.0555202 0)
(-5.65989 0.0220661 0)
(-5.68331 -0.0691833 0)
(-6.15281 0.0220462 0)
(-6.18127 -0.074457 0)
(-6.70658 0.0207914 0)
(-6.73655 -0.0665996 0)
(-7.29347 0.0369554 0)
(-7.32982 -0.0479437 0)
(-7.90267 0.080677 0)
(-7.93805 0.0183075 0)
(-8.5303 0.0968493 0)
(-8.55747 0.0435567 0)
(-9.09106 0.0787673 0)
(-9.11438 0.0338407 0)
(-9.4893 0.0266548 0)
(-9.49811 0.00665025 0)
(-9.64571 -0.00486164 0)
(-9.64771 -0.0185506 0)
(-9.64664 -0.0254925 0)
(-9.62428 -0.0331261 0)
(-9.56895 -0.0275219 0)
(-9.51656 -0.0105274 0)
(-9.35118 0.0214429 0)
(-9.33177 0.0228035 0)
(-9.12528 0.052884 0)
(-9.14097 0.0796021 0)
(-8.95466 -0.000269462 0)
(-8.94844 0.0175012 0)
(-8.64586 -0.0540073 0)
(-8.64581 -0.103309 0)
(-8.29302 -0.0892024 0)
(-8.28911 -0.152228 0)
(-7.9078 -0.103758 0)
(-7.89328 -0.149879 0)
(-7.51255 -0.0837131 0)
(-7.48956 -0.15257 0)
(-7.09004 -0.0963644 0)
(-7.07064 -0.140988 0)
(-6.70831 -0.0597825 0)
(-6.69004 -0.103924 0)
(-6.40593 -0.0148807 0)
(-6.39838 -0.0382963 0)
(-6.19633 0.0507649 0)
(-6.18091 0.0296043 0)
(-5.99461 -0.0617726 0)
(-5.89847 -0.0711234 0)
(-5.78184 -0.137086 0)
(-5.63105 -0.120037 0)
(-5.5845 -0.112017 0)
(-5.54469 -0.114055 0)
(-5.54442 -0.114543 0)
(-5.52404 -0.120876 0)
(-5.73922 -0.0252143 0)
(-5.73398 -0.0913256 0)
(-6.14847 0.0301338 0)
(-6.19008 -0.0941764 0)
(-6.84262 0.0784197 0)
(-6.91039 -0.0621735 0)
(-7.84537 0.103869 0)
(-7.93724 -0.0613169 0)
(-9.02459 0.135008 0)
(-9.16281 -0.0313046 0)
(-10.3495 0.177022 0)
(-10.5818 0.0363385 0)
(-11.6869 0.275414 0)
(-12.0235 0.134535 0)
(-12.8479 0.206735 0)
(-13.1459 0.115086 0)
(-13.4621 0.0218577 0)
(-13.527 -0.0188203 0)
(-13.4165 -0.0919816 0)
(-13.3335 -0.156786 0)
(-12.7837 -0.191582 0)
(-12.7847 -0.197741 0)
(-12.1427 -0.0451274 0)
(-12.1308 -0.167183 0)
(-11.1418 -0.01252 0)
(-11.0495 -0.0385091 0)
(-9.72644 0.426263 0)
(-9.66002 0.355975 0)
(-8.52424 0.491679 0)
(-8.41923 0.416055 0)
(-7.49423 0.515165 0)
(-7.33426 0.451142 0)
(-6.67268 0.315342 0)
(-6.40672 0.317813 0)
(-5.52519 0.336366 0)
(-5.04385 0.305242 0)
(-4.16063 0.365487 0)
(-3.66749 0.194369 0)
(-2.99581 0.22298 0)
(-2.55204 0.104872 0)
(-1.9926 0.0140022 0)
(-1.61772 -0.095112 0)
(-1.11432 -0.417952 0)
(-0.714727 -0.352164 0)
(-0.323996 -0.26025 0)
(-0.11344 -0.15241 0)
(0.185347 -0.0724035 0)
(0.235971 0.0158131 0)
(0.46531 0.0281419 0)
(0.429362 0.0711902 0)
(0.598584 0.00714938 0)
(0.553676 0.037407 0)
(0.680498 -0.00395514 0)
(0.657355 0.0117842 0)
(0.712119 -0.00540437 0)
(0.704066 0.000927969 0)
(0.704061 -0.000849874 0)
(0.71212 0.00319378 0)
(0.673932 -0.000399518 0)
(0.700664 0.00943957 0)
(0.594247 -0.00931386 0)
(0.630055 0.016266 0)
(0.497332 -0.0240596 0)
(0.575505 0.0060533 0)
(0.372923 0.00365086 0)
(0.420944 0.0249267 0)
(0.228263 -0.0419871 0)
(0.313352 -0.00253371 0)
(0.133984 0.00906736 0)
(0.155772 0.0190604 0)
(0.067153 -0.0211381 0)
(0.0849881 -0.0121348 0)
(0.0347532 0.0110223 0)
(0.00319339 0.0391255 0)
(-0.110335 0.0980166 0)
(-0.216677 0.102227 0)
(-0.359153 0.0986197 0)
(-0.456169 0.0774741 0)
(-0.560021 0.0809045 0)
(-0.667506 0.0912086 0)
(-0.783346 0.104077 0)
(-0.919773 0.0937308 0)
(-1.04235 0.119248 0)
(-1.20158 0.119904 0)
(-1.34553 0.124354 0)
(-1.49366 0.108781 0)
(-1.6261 0.0453127 0)
(-1.7319 0.0610685 0)
(-1.8246 0.0539334 0)
(-1.90091 0.0374524 0)
(-1.96636 0.0262585 0)
(-2.01097 0.00792297 0)
(-2.04063 -0.0121014 0)
(-2.04706 -0.0339199 0)
(-2.02139 -0.0575793 0)
(-1.96611 -0.0933416 0)
(-1.88155 -0.114594 0)
(-1.76067 -0.147607 0)
(-1.63233 -0.155077 0)
(-1.47809 -0.158903 0)
(-1.35247 -0.136644 0)
(-1.20738 -0.169301 0)
(-1.03821 -0.177744 0)
(-0.863547 -0.198854 0)
(-0.679159 -0.175071 0)
(-0.520107 -0.201046 0)
(-0.326205 -0.199309 0)
(-0.17456 -0.159755 0)
(-0.0715111 -0.0836994 0)
(-0.0447926 -0.056834 0)
(0.0299497 -0.0630114 0)
(0.0301288 -0.0541118 0)
(0.169621 -0.0505301 0)
(0.13552 -0.0351599 0)
(0.292419 -0.0484068 0)
(0.259196 -0.0328273 0)
(0.395129 -0.028711 0)
(0.358565 -0.0122888 0)
(0.425393 -0.0256616 0)
(0.412812 -0.0187227 0)
(0.447367 -0.00729069 0)
(0.428573 -0.0142605 0)
(0.44443 -0.00150514 0)
(0.387196 -0.00769783 0)
(0.404849 0.0181113 0)
(0.318889 -0.011701 0)
(0.351778 0.0186901 0)
(0.211981 -0.0331499 0)
(0.282363 0.000723774 0)
(0.104774 0.0124018 0)
(0.1294 0.0292875 0)
(0.015833 -0.0169873 0)
(0.0275721 0.0326394 0)
(-0.112642 0.136196 0)
(-0.304466 0.185015 0)
(-0.545191 0.204005 0)
(-0.751593 0.150738 0)
(-0.945563 0.18714 0)
(-1.17148 0.16977 0)
(-1.36291 -0.122743 0)
(-1.51175 -0.148453 0)
(-1.79286 -0.110368 0)
(-1.94723 -0.130794 0)
(-2.29688 -0.13058 0)
(-2.39769 -0.109152 0)
(-2.66787 -0.0219227 0)
(-2.71757 -0.0804846 0)
(-2.9841 -0.0806115 0)
(-2.98306 -0.0770502 0)
(-3.13337 0.0277832 0)
(-3.13471 -0.00082176 0)
(-3.39013 0.0824959 0)
(-3.4199 0.0687607 0)
(-3.70374 0.10403 0)
(-3.71399 0.0627331 0)
(-3.98868 0.116756 0)
(-4.03313 0.0944468 0)
(-4.3088 0.104627 0)
(-4.35738 0.0752231 0)
(-4.54693 0.070778 0)
(-4.58161 0.0638121 0)
(-4.65101 0.0229158 0)
(-4.6607 0.00515546 0)
(-4.66609 -0.0343248 0)
(-4.65838 -0.0470586 0)
(-4.62232 -0.0692541 0)
(-4.59999 -0.0618991 0)
(-4.5242 -0.0828665 0)
(-4.49433 -0.074589 0)
(-4.37408 -0.0866212 0)
(-4.34579 -0.0744812 0)
(-4.20695 -0.0776302 0)
(-4.18712 -0.0668127 0)
(-4.07349 -0.0694319 0)
(-4.05621 -0.0434175 0)
(-3.97132 -0.0215671 0)
(-3.94441 0.0107882 0)
(-3.89622 0.0370143 0)
(-3.8531 0.0448081 0)
(-3.82023 0.037148 0)
(-3.77443 0.0323807 0)
(-3.76792 0.030085 0)
(-3.76654 0.0277683 0)
(-3.77465 0.0264763 0)
(-3.77548 0.0233489 0)
(-3.8522 0.0343535 0)
(-3.85542 0.0135093 0)
(-3.96727 0.0304139 0)
(-3.97722 0.0128047 0)
(-4.12391 0.0373629 0)
(-4.14518 0.0190025 0)
(-4.30892 0.0432148 0)
(-4.34406 0.0237297 0)
(-4.50124 0.0427196 0)
(-4.55346 0.0270418 0)
(-4.67559 0.0338854 0)
(-4.7301 0.0229014 0)
(-4.79319 0.00879312 0)
(-4.82116 -0.00257024 0)
(-4.82784 -0.0139006 0)
(-4.79587 -0.0259686 0)
(-4.77076 -0.0501047 0)
(-4.61763 -0.0806548 0)
(-4.57488 -0.100745 0)
(-4.3201 -0.0675182 0)
(-4.30942 -0.0825256 0)
(-4.08317 -0.0370672 0)
(-4.09407 -0.0778608 0)
(-3.82738 -0.0490587 0)
(-3.82342 -0.0538601 0)
(-3.59465 0.0302719 0)
(-3.61387 -0.0110125 0)
(-3.36196 0.0744376 0)
(-3.32141 0.0572742 0)
(-2.96558 0.0595842 0)
(-2.89946 0.0136713 0)
(-2.57569 0.137223 0)
(-2.47856 0.113546 0)
(-2.12378 0.11579 0)
(-2.00787 0.0666685 0)
(-1.72219 0.145862 0)
(-1.60255 0.104792 0)
(-1.35194 0.139063 0)
(-1.22925 0.0798761 0)
(-1.0447 0.0803386 0)
(-0.923741 0.0373007 0)
(-0.777754 0.0042382 0)
(-0.686512 -0.053321 0)
(-0.576779 -0.109839 0)
(-0.484016 -0.0947967 0)
(-0.40789 -0.073388 0)
(-0.351556 -0.0577237 0)
(-0.311999 -0.0406673 0)
(-0.288261 -0.0278031 0)
(-0.275439 -0.0173418 0)
(-0.275051 -0.00864142 0)
(-0.285388 -0.000656453 0)
(-0.303102 0.00803395 0)
(-0.32946 0.0169797 0)
(-0.367048 0.0270416 0)
(-0.41057 0.0340836 0)
(-0.464085 0.0372136 0)
(-0.516114 0.040256 0)
(-0.574946 0.0361829 0)
(-0.627656 0.0282725 0)
(-0.680811 0.0242983 0)
(-0.722327 0.0122273 0)
(-0.766115 0.0217725 0)
(-0.81051 0.0153843 0)
(-0.851843 0.0112106 0)
(-0.879928 0.000551421 0)
(-0.90796 0.010113 0)
(-0.944924 0.00887138 0)
(-0.976608 -0.0221166 0)
(-1.0008 -0.0399491 0)
(-1.04294 -0.0328487 0)
(-1.0819 -0.0486737 0)
(-1.12877 -0.03535 0)
(-1.16825 -0.0491374 0)
(-1.21366 -0.0385041 0)
(-1.25268 -0.0469044 0)
(-1.29526 -0.0444173 0)
(-1.33553 -0.0512627 0)
(-1.37849 -0.0522699 0)
(-1.41692 -0.0548476 0)
(-1.44976 -0.0575104 0)
(-1.47538 -0.0562531 0)
(-1.49483 -0.0517163 0)
(-1.5105 -0.0461752 0)
(-1.52518 -0.0410895 0)
(-1.54348 -0.0416261 0)
(-1.56497 -0.037371 0)
(-1.58729 -0.0378921 0)
(-1.60673 -0.0321126 0)
(-1.62182 -0.0265722 0)
(-1.63519 -0.0233311 0)
(-1.647 -0.0184265 0)
(-1.66117 -0.0188131 0)
(-1.67479 -0.0127929 0)
(-1.68951 -0.0143472 0)
(-1.70124 -0.00641262 0)
(-1.71199 -0.00627326 0)
(-1.71963 0.00114264 0)
(-1.72661 0.00214227 0)
(-1.73176 0.00795112 0)
(-1.73598 0.00911861 0)
(-1.73852 0.0138418 0)
(-1.74032 0.0147064 0)
(-1.7419 0.0184462 0)
(-1.74214 0.0198902 0)
(-1.74202 0.0222281 0)
(-1.74089 0.0223492 0)
(-1.73822 0.0250455 0)
(-1.73461 0.0257581 0)
(-1.72872 0.0298894 0)
(-1.72081 0.0299827 0)
(-1.71178 0.0336549 0)
(-1.70143 0.0324106 0)
(-1.69015 0.0361977 0)
(-1.67684 0.0348846 0)
(-1.66275 0.037635 0)
(-1.64832 0.0358059 0)
(-1.63439 0.0376736 0)
(-1.62042 0.0359564 0)
(-1.60598 0.0389256 0)
(-1.58894 0.0395582 0)
(-1.56935 0.0422811 0)
(-1.54802 0.0427323 0)
(-1.52493 0.0432957 0)
(-1.50151 0.041184 0)
(-1.47932 0.0393466 0)
(-1.45681 0.0384196 0)
(-1.43301 0.0361712 0)
(-1.40866 0.0362764 0)
(-1.38498 0.0350268 0)
(-1.36228 0.0368691 0)
(-1.33871 0.0371117 0)
(-1.31378 0.0381811 0)
(-1.28851 0.0360645 0)
(-1.26207 0.0354624 0)
(-1.23552 0.0320148 0)
(-1.20979 0.0303335 0)
(-1.18581 0.0273291 0)
(-1.16365 0.0260523 0)
(-1.14278 0.0252183 0)
(-1.12148 0.0265143 0)
(-1.09942 0.0258866 0)
(-1.07713 0.0255858 0)
(-1.05524 0.0235319 0)
(-1.03369 0.0219576 0)
(-1.01225 0.0195918 0)
(-0.993335 0.017136 0)
(-0.978132 0.0152014 0)
(-0.964179 0.0172827 0)
(-0.949058 0.0185924 0)
(-0.933945 0.0193918 0)
(-0.918984 0.0198218 0)
(-0.903146 0.0188934 0)
(-0.886688 0.0177841 0)
(-0.872137 0.0150866 0)
(-0.860275 0.0137245 0)
(-0.849178 0.0137929 0)
(-0.837927 0.0147101 0)
(-0.826968 0.0144005 0)
(-0.816073 0.0149577 0)
(-0.805794 0.0135739 0)
(-0.797444 0.0131098 0)
(-0.791379 0.0117027 0)
(-0.78672 0.0121811 0)
(-0.783151 0.0111009 0)
(-0.780619 0.0114627 0)
(-0.778862 0.0101925 0)
(-0.777679 0.0101041 0)
(-0.776875 0.0092431 0)
(-0.776153 0.00922834 0)
(-0.775819 0.00886357 0)
(-0.776032 0.00866039 0)
(-0.777319 0.00823786 0)
(-0.779474 0.00729791 0)
(-0.78288 0.00759368 0)
(-0.787209 0.00634981 0)
(-0.792606 0.00731121 0)
(-0.798817 0.00604943 0)
(-0.80598 0.00751807 0)
(-0.81425 0.00692723 0)
(-0.822541 0.00822137 0)
(-0.831192 0.00708142 0)
(-0.841207 0.0067946 0)
(-0.852577 0.00567704 0)
(-0.864883 0.00561624 0)
(-0.876693 0.00588599 0)
(-0.888311 0.00347773 0)
(-0.90203 0.00163775 0)
(-0.917684 0.000269918 0)
(-0.934256 0.000434281 0)
(-0.951839 0.00132435 0)
(-0.96966 0.00471116 0)
(-0.986402 0.00710739 0)
(-0.999843 0.0109548 0)
(-1.01163 0.00897571 0)
(-1.02443 0.00485115 0)
(-1.04119 0.00108594 0)
(-1.05987 -0.00172546 0)
(-1.07907 -0.00673155 0)
(-1.10026 -0.00779952 0)
(-1.12235 -0.0108198 0)
(-1.14527 -0.0132992 0)
(-1.16864 -0.0134572 0)
(-1.19168 -0.0131946 0)
(-1.21214 -0.0103516 0)
(-1.22865 -0.00665746 0)
(-1.24406 -0.00407763 0)
(-1.25901 -0.001176 0)
(-1.27374 0.000572085 0)
(-1.29045 0.00218709 0)
(-1.30853 0.00258254 0)
(-1.32488 0.00603069 0)
(-1.33907 0.00741457 0)
(-1.35236 0.00758647 0)
(-1.36629 0.00664044 0)
(-1.37985 0.00769558 0)
(-1.39257 0.00788227 0)
(-1.40489 0.00951435 0)
(-1.41687 0.0112071 0)
(-1.42781 0.0140199 0)
(-1.43786 0.0160359 0)
(-1.44641 0.019802 0)
(-1.45356 0.0232267 0)
(-1.45907 0.0260134 0)
(-1.46205 0.0288112 0)
(-1.46381 0.0296438 0)
(-1.46357 0.0305448 0)
(-1.46118 0.0306041 0)
(-1.45632 0.0297351 0)
(-1.44987 0.0265355 0)
(-1.44011 0.0237664 0)
(-1.43025 0.0237989 0)
(-0.118751 -0.0239976 0)
(-0.222551 -0.0959529 0)
(-0.662101 -0.0168626 0)
(-0.666871 -0.0523688 0)
(-1.32603 0.0652617 0)
(-1.30237 -0.0624621 0)
(-1.9815 0.0687938 0)
(-1.94104 -0.0721142 0)
(-2.6847 0.106853 0)
(-2.6099 -0.00864357 0)
(-3.40757 0.142995 0)
(-3.30426 -0.0131737 0)
(-4.11118 0.164703 0)
(-4.02869 0.00164739 0)
(-4.82712 0.178632 0)
(-4.73255 0.0129769 0)
(-5.52031 0.183485 0)
(-5.41962 0.0421639 0)
(-6.2017 0.1772 0)
(-6.08416 0.0602851 0)
(-6.85004 0.14603 0)
(-6.75146 0.0228678 0)
(-7.48457 0.160116 0)
(-7.40969 0.0261014 0)
(-8.12773 0.171722 0)
(-8.03631 0.0389923 0)
(-8.77816 0.161484 0)
(-8.67334 0.0536671 0)
(-9.42131 0.167755 0)
(-9.34708 0.0800918 0)
(-10.099 0.195297 0)
(-10.0499 0.121799 0)
(-10.8111 0.241849 0)
(-10.7745 0.160441 0)
(-11.5439 0.289784 0)
(-11.5131 0.208286 0)
(-12.296 0.312611 0)
(-12.2844 0.22861 0)
(-13.0116 0.323012 0)
(-13.0197 0.238622 0)
(-13.7104 0.304644 0)
(-13.7146 0.24223 0)
(-14.3268 0.251565 0)
(-14.3112 0.212387 0)
(-14.8138 0.160703 0)
(-14.8015 0.10985 0)
(-15.1232 0.00556835 0)
(-15.1301 -0.0252023 0)
(-15.2349 -0.0861312 0)
(-15.2471 -0.100694 0)
(-15.2304 -0.123417 0)
(-15.184 -0.162002 0)
(-15.0973 -0.222355 0)
(-15.0582 -0.224988 0)
(-14.7741 -0.230174 0)
(-14.7675 -0.213405 0)
(-14.3971 -0.218184 0)
(-14.3955 -0.20478 0)
(-13.9472 -0.26518 0)
(-13.9508 -0.271591 0)
(-13.3418 -0.236274 0)
(-13.3441 -0.277417 0)
(-12.6809 -0.228772 0)
(-12.6717 -0.319822 0)
(-12.0289 -0.234328 0)
(-12.0205 -0.320156 0)
(-11.4102 -0.255005 0)
(-11.4 -0.318614 0)
(-10.8063 -0.230807 0)
(-10.7976 -0.294892 0)
(-10.2757 -0.188724 0)
(-10.273 -0.238681 0)
(-9.84688 -0.145675 0)
(-9.84934 -0.193702 0)
(-9.5538 -0.170618 0)
(-9.55141 -0.205255 0)
(-9.44514 -0.171388 0)
(-9.39814 -0.151919 0)
(-9.41831 -0.111576 0)
(-9.35276 -0.0615237 0)
(-9.61408 0.026171 0)
(-9.53804 0.000812314 0)
(-10.0106 0.175987 0)
(-9.95451 0.105459 0)
(-10.6413 0.340966 0)
(-10.6174 0.24602 0)
(-11.5294 0.541534 0)
(-11.5409 0.423114 0)
(-12.6625 0.741742 0)
(-12.69 0.625315 0)
(-13.9344 0.84951 0)
(-13.9558 0.697823 0)
(-15.1901 0.926759 0)
(-15.2204 0.803533 0)
(-16.3262 0.882682 0)
(-16.3716 0.819359 0)
(-17.1824 0.75299 0)
(-17.2375 0.629886 0)
(-17.5861 0.356832 0)
(-17.652 0.208478 0)
(-17.6772 -0.0212442 0)
(-17.6668 -0.13573 0)
(-17.3174 -0.292502 0)
(-17.2866 -0.289855 0)
(-16.3592 -0.291529 0)
(-16.3408 -0.3075 0)
(-15.1648 -0.519421 0)
(-15.1543 -0.579466 0)
(-13.5368 -0.848346 0)
(-13.4146 -0.799908 0)
(-11.7426 -0.814787 0)
(-11.5104 -0.774113 0)
(-10.1175 -0.718181 0)
(-9.88707 -0.695291 0)
(-8.70794 -0.614457 0)
(-8.55059 -0.534464 0)
(-7.46987 -0.843138 0)
(-7.28446 -0.842516 0)
(-5.86907 -1.17054 0)
(-5.46228 -0.947084 0)
(-4.25318 -0.988605 0)
(-3.84444 -0.784208 0)
(-2.89578 -0.898874 0)
(-2.45384 -0.747514 0)
(-1.53599 -0.957884 0)
(-1.10722 -0.624653 0)
(-0.504225 -0.617773 0)
(-0.322489 -0.46616 0)
(0.330528 -0.482487 0)
(0.400323 -0.323327 0)
(1.0362 -0.324504 0)
(1.01493 -0.171142 0)
(1.57157 -0.203934 0)
(1.45145 -0.0998687 0)
(1.91092 -0.12799 0)
(1.7821 -0.0723729 0)
(2.0745 -0.0603353 0)
(2.00664 -0.0189866 0)
(2.10893 -0.0130258 0)
(2.11 0.00159918 0)
(2.08514 0.00611318 0)
(2.10968 0.0156528 0)
(1.94448 0.0539992 0)
(2.02897 0.102414 0)
(1.70394 0.0271155 0)
(1.93029 0.0858418 0)
(1.44291 0.0719564 0)
(1.69342 0.15684 0)
(1.11476 0.102023 0)
(1.31841 0.147983 0)
(0.737067 0.0670568 0)
(0.966463 0.148352 0)
(0.464035 0.0380957 0)
(0.636152 0.0635105 0)
(0.278504 -0.0135391 0)
(0.422947 0.106151 0)
(0.091953 0.112215 0)
(0.0711673 0.190986 0)
(-0.212481 0.158227 0)
(-0.226658 0.196012 0)
(-0.463682 0.111386 0)
(-0.472671 0.149473 0)
(-0.678752 0.136463 0)
(-0.718374 0.184253 0)
(-0.942645 0.15185 0)
(-1.00326 0.193745 0)
(-1.22434 0.185255 0)
(-1.3026 0.206169 0)
(-1.51556 0.16003 0)
(-1.57723 0.195966 0)
(-1.76248 0.103113 0)
(-1.79319 0.109673 0)
(-1.9152 0.0651057 0)
(-1.94207 0.0534084 0)
(-2.00969 0.0173172 0)
(-2.03036 -0.0138866 0)
(-2.03168 -0.0671031 0)
(-2.03426 -0.0858857 0)
(-1.93283 -0.171736 0)
(-1.91243 -0.17001 0)
(-1.70505 -0.253139 0)
(-1.66056 -0.233096 0)
(-1.41782 -0.264296 0)
(-1.3851 -0.205179 0)
(-1.09106 -0.305994 0)
(-1.069 -0.265674 0)
(-0.697646 -0.352776 0)
(-0.671412 -0.270761 0)
(-0.288764 -0.362926 0)
(-0.238106 -0.325531 0)
(0.0778953 -0.261694 0)
(0.092527 -0.163849 0)
(0.333963 -0.135745 0)
(0.328452 -0.151591 0)
(0.725409 -0.196664 0)
(0.716227 -0.193872 0)
(1.1617 -0.171447 0)
(1.04897 -0.135536 0)
(1.49108 -0.179057 0)
(1.3971 -0.127049 0)
(1.67138 -0.0776962 0)
(1.66469 -0.0684074 0)
(1.70619 -0.0569687 0)
(1.71752 -0.0489483 0)
(1.77294 -0.0148745 0)
(1.64855 -0.005461 0)
(1.67705 0.0609316 0)
(1.50667 -0.0123641 0)
(1.61338 0.0877021 0)
(1.21404 0.0247827 0)
(1.40853 0.151039 0)
(0.844655 0.064246 0)
(1.03542 0.203184 0)
(0.474232 0.0198555 0)
(0.641271 0.116681 0)
(0.188093 0.112631 0)
(0.173268 0.314046 0)
(-0.310406 0.298272 0)
(-0.374757 0.377444 0)
(-0.798022 0.222981 0)
(-0.868107 0.292691 0)
(-1.2221 0.274571 0)
(-1.4467 0.473108 0)
(-1.98561 0.259427 0)
(-2.06675 0.319386 0)
(-2.56671 0.328597 0)
(-2.67189 0.377878 0)
(-3.18062 0.18941 0)
(-3.18905 0.1799 0)
(-3.60576 0.190449 0)
(-3.645 0.185619 0)
(-4.09315 0.0756973 0)
(-4.10705 0.0718997 0)
(-4.52761 0.14058 0)
(-4.54137 0.153102 0)
(-4.96005 0.190958 0)
(-4.98031 0.123087 0)
(-5.35613 0.153133 0)
(-5.36852 0.169189 0)
(-5.67408 0.187604 0)
(-5.68511 0.157094 0)
(-5.88166 0.151371 0)
(-5.89173 0.112137 0)
(-5.98609 0.0547222 0)
(-5.99481 0.0381599 0)
(-6.02298 0.00635666 0)
(-6.01693 0.0171269 0)
(-5.99442 -0.0152721 0)
(-5.97506 -0.00942097 0)
(-5.91234 -0.0456705 0)
(-5.89403 -0.0352748 0)
(-5.803 -0.0706322 0)
(-5.79522 -0.0612092 0)
(-5.66622 -0.0770491 0)
(-5.66376 -0.0672254 0)
(-5.51571 -0.0549295 0)
(-5.51524 -0.0446799 0)
(-5.39486 -0.0432743 0)
(-5.39108 -0.0422642 0)
(-5.33842 -0.0410822 0)
(-5.33531 -0.0441112 0)
(-5.33026 -0.047264 0)
(-5.33529 -0.0455884 0)
(-5.38723 -0.0227476 0)
(-5.3854 -0.000165487 0)
(-5.49781 0.0159778 0)
(-5.4928 0.00889571 0)
(-5.62404 0.0605584 0)
(-5.61729 0.0463627 0)
(-5.77065 0.0870848 0)
(-5.76963 0.0781774 0)
(-5.93057 0.115432 0)
(-5.92963 0.105692 0)
(-6.08984 0.134916 0)
(-6.08615 0.12433 0)
(-6.23538 0.137986 0)
(-6.2304 0.133024 0)
(-6.34255 0.125366 0)
(-6.34696 0.116318 0)
(-6.39649 0.0860031 0)
(-6.41023 0.0628729 0)
(-6.42506 0.033599 0)
(-6.41304 0.00483965 0)
(-6.4053 -0.0281745 0)
(-6.32769 -0.0711716 0)
(-6.32286 -0.111466 0)
(-6.11883 -0.144389 0)
(-6.1164 -0.138866 0)
(-5.79124 -0.10178 0)
(-5.79217 -0.110593 0)
(-5.39338 -0.103173 0)
(-5.3788 -0.152612 0)
(-4.9346 -0.107195 0)
(-4.93181 -0.0980585 0)
(-4.48477 -0.117079 0)
(-4.47028 -0.153876 0)
(-3.97421 -0.276284 0)
(-3.92784 -0.242893 0)
(-3.47474 -0.234824 0)
(-3.44382 -0.228014 0)
(-2.91756 -0.367078 0)
(-2.8274 -0.300457 0)
(-2.37554 -0.272586 0)
(-2.32732 -0.251877 0)
(-1.85589 -0.336676 0)
(-1.75643 -0.257679 0)
(-1.37681 -0.292206 0)
(-1.27652 -0.22642 0)
(-0.981608 -0.272799 0)
(-0.872698 -0.201743 0)
(-0.649678 -0.222283 0)
(-0.561567 -0.166417 0)
(-0.439806 -0.142917 0)
(-0.391186 -0.117043 0)
(-0.309784 -0.0897914 0)
(-0.284464 -0.0710343 0)
(-0.244216 -0.0433248 0)
(-0.235848 -0.032153 0)
(-0.231309 -0.0119827 0)
(-0.245086 -0.00176488 0)
(-0.258523 0.0147734 0)
(-0.297004 0.0265116 0)
(-0.316965 0.0453213 0)
(-0.390909 0.0535629 0)
(-0.409219 0.0633038 0)
(-0.507823 0.0637554 0)
(-0.521487 0.0708934 0)
(-0.632213 0.048311 0)
(-0.634151 0.0505972 0)
(-0.727563 0.0326171 0)
(-0.73565 0.0438568 0)
(-0.818537 0.0345472 0)
(-0.830948 0.0275281 0)
(-0.883928 0.00803846 0)
(-0.898641 0.0191701 0)
(-0.949987 0.0252543 0)
(-0.974759 0.0305849 0)
(-1.03703 0.022931 0)
(-1.05746 0.0382744 0)
(-1.13584 0.0386444 0)
(-1.15317 0.0365449 0)
(-1.2257 0.0336943 0)
(-1.24834 0.0319287 0)
(-1.3116 0.0254622 0)
(-1.34296 0.0249439 0)
(-1.39936 0.0245775 0)
(-1.43695 0.0210153 0)
(-1.48086 0.0177408 0)
(-1.52016 0.00987616 0)
(-1.55367 0.00531287 0)
(-1.58813 -0.000278079 0)
(-1.61225 -9.74204e-05 0)
(-1.63964 0.00154225 0)
(-1.65883 0.00843201 0)
(-1.6848 0.0121688 0)
(-1.70795 0.0118895 0)
(-1.73183 0.00693567 0)
(-1.75527 0.00393102 0)
(-1.77291 0.00137955 0)
(-1.79492 0.00219251 0)
(-1.80823 0.00516533 0)
(-1.82914 0.0032985 0)
(-1.84327 0.00512072 0)
(-1.85889 -0.00123737 0)
(-1.8715 0.00140614 0)
(-1.88001 -0.00516645 0)
(-1.8894 -0.00222913 0)
(-1.89527 -0.00743138 0)
(-1.90086 -0.00464877 0)
(-1.90373 -0.00905296 0)
(-1.9064 -0.00545685 0)
(-1.90757 -0.00728363 0)
(-1.9077 -0.00473492 0)
(-1.90743 -0.00615547 0)
(-1.90594 -0.00389801 0)
(-1.9025 -0.00699208 0)
(-1.89747 -0.00510685 0)
(-1.88965 -0.00942463 0)
(-1.88177 -0.00844276 0)
(-1.87074 -0.0100134 0)
(-1.86012 -0.00944136 0)
(-1.84616 -0.0111296 0)
(-1.83312 -0.0118262 0)
(-1.81674 -0.011785 0)
(-1.80193 -0.0106108 0)
(-1.78467 -0.00903451 0)
(-1.7689 -0.00877427 0)
(-1.74959 -0.00922123 0)
(-1.7312 -0.0124726 0)
(-1.70795 -0.0143863 0)
(-1.68589 -0.0148262 0)
(-1.65939 -0.0162758 0)
(-1.63541 -0.0134664 0)
(-1.60886 -0.0111292 0)
(-1.58492 -0.0114024 0)
(-1.5585 -0.0116555 0)
(-1.53273 -0.0102272 0)
(-1.50753 -0.00869791 0)
(-1.47993 -0.00710914 0)
(-1.45422 -0.00933388 0)
(-1.42386 -0.0094944 0)
(-1.39778 -0.00959563 0)
(-1.36665 -0.0109689 0)
(-1.34068 -0.00962811 0)
(-1.31066 -0.00799881 0)
(-1.28682 -0.00516462 0)
(-1.25909 -0.00332157 0)
(-1.23701 -0.0021155 0)
(-1.20942 -0.00367551 0)
(-1.18743 -0.00441556 0)
(-1.15982 -0.00483248 0)
(-1.13846 -0.00401983 0)
(-1.11207 -0.00536981 0)
(-1.09111 -0.00434786 0)
(-1.06774 -0.000397959 0)
(-1.05068 0.00288557 0)
(-1.03064 0.000568788 0)
(-1.01466 -0.000867965 0)
(-0.994617 -0.00114086 0)
(-0.979432 -0.00207792 0)
(-0.959811 -0.00409443 0)
(-0.94439 -0.00368236 0)
(-0.926521 -5.94886e-05 0)
(-0.913596 0.00194776 0)
(-0.898208 0.000976759 0)
(-0.886282 0.000365389 0)
(-0.871815 -0.00014374 0)
(-0.861005 -0.00161376 0)
(-0.848141 -0.00116239 0)
(-0.839783 -8.66625e-06 0)
(-0.831285 0.00067047 0)
(-0.826081 4.05667e-05 0)
(-0.821106 9.11538e-05 0)
(-0.817879 -0.000906592 0)
(-0.815693 -0.000725467 0)
(-0.813766 -0.00170317 0)
(-0.812732 -0.00141299 0)
(-0.81204 -0.00207863 0)
(-0.811673 -0.00184603 0)
(-0.811779 -0.00181253 0)
(-0.813742 -0.00116268 0)
(-0.815735 -0.000441901 0)
(-0.820343 -0.000630942 0)
(-0.82498 -0.000517942 0)
(-0.83089 -0.00164473 0)
(-0.838093 -0.00156599 0)
(-0.845206 -0.00245841 0)
(-0.85562 -0.0027459 0)
(-0.864101 -0.00488804 0)
(-0.87662 -0.00495103 0)
(-0.88661 -0.00408786 0)
(-0.901574 -0.00344571 0)
(-0.913379 -0.0029996 0)
(-0.929389 -0.00511204 0)
(-0.941719 -0.00380394 0)
(-0.959071 -0.00110287 0)
(-0.973888 -0.000150104 0)
(-0.994063 -0.000246132 0)
(-1.01031 0.000253748 0)
(-1.03198 -0.00185415 0)
(-1.04841 -0.00552335 0)
(-1.06759 -0.0109018 0)
(-1.08294 -0.0120006 0)
(-1.10199 -0.00848429 0)
(-1.11921 -0.00384133 0)
(-1.14226 -0.00361137 0)
(-1.16145 -0.00132121 0)
(-1.18727 0.000636412 0)
(-1.20905 0.00194677 0)
(-1.23659 0.0034608 0)
(-1.25832 0.00381789 0)
(-1.28507 0.00321896 0)
(-1.3045 -0.00142883 0)
(-1.32645 -0.00541129 0)
(-1.34306 -0.00583078 0)
(-1.3637 -0.00680844 0)
(-1.37995 -0.00695455 0)
(-1.40091 -0.00356551 0)
(-1.41869 -0.00397506 0)
(-1.43851 -0.00649191 0)
(-1.45388 -0.00832056 0)
(-1.47076 -0.00638151 0)
(-1.48526 -0.00487872 0)
(-1.50123 -0.00466138 0)
(-1.51389 -0.00422569 0)
(-1.52749 -0.00311289 0)
(-1.53873 -0.00313729 0)
(-1.54963 -0.00361087 0)
(-1.5594 -0.00445852 0)
(-1.56699 -0.00594204 0)
(-1.57442 -0.00743046 0)
(-1.57891 -0.00947962 0)
(-1.58218 -0.0113082 0)
(-1.58368 -0.0117278 0)
(-1.58354 -0.01303 0)
(-1.58169 -0.0137754 0)
(-1.57804 -0.0154548 0)
(-1.57442 -0.0162162 0)
(-1.56849 -0.0142274 0)
(-1.56217 -0.0133176 0)
(-0.0823 0.0395586 0)
(-0.473933 0.112111 0)
(-0.629241 0.107127 0)
(-1.3325 0.245962 0)
(-1.36367 0.195388 0)
(-2.21037 0.291554 0)
(-2.21383 0.22856 0)
(-3.08298 0.370724 0)
(-3.10291 0.208817 0)
(-4.00252 0.391371 0)
(-3.95931 0.188098 0)
(-4.88933 0.420321 0)
(-4.8435 0.215799 0)
(-5.74623 0.435398 0)
(-5.68214 0.217248 0)
(-6.5616 0.41203 0)
(-6.4771 0.22816 0)
(-7.33415 0.388091 0)
(-7.23774 0.236542 0)
(-8.06735 0.360577 0)
(-7.98163 0.24427 0)
(-8.78534 0.372762 0)
(-8.73145 0.252688 0)
(-9.5062 0.384015 0)
(-9.44752 0.257627 0)
(-10.2201 0.369371 0)
(-10.1447 0.278772 0)
(-10.9226 0.378201 0)
(-10.8797 0.315485 0)
(-11.6442 0.40824 0)
(-11.6265 0.355777 0)
(-12.3818 0.451731 0)
(-12.3853 0.404618 0)
(-13.1238 0.494108 0)
(-13.121 0.442315 0)
(-13.8677 0.535164 0)
(-13.8489 0.467243 0)
(-14.5537 0.558377 0)
(-14.5451 0.507953 0)
(-15.1749 0.529292 0)
(-15.1878 0.490446 0)
(-15.7234 0.487202 0)
(-15.7384 0.445432 0)
(-16.1557 0.342629 0)
(-16.1718 0.304567 0)
(-16.4685 0.149851 0)
(-16.5162 0.0911862 0)
(-16.6802 -0.044949 0)
(-16.7381 -0.12789 0)
(-16.7906 -0.192281 0)
(-16.7871 -0.263652 0)
(-16.7698 -0.327868 0)
(-16.6967 -0.383755 0)
(-16.5862 -0.439638 0)
(-16.5307 -0.461629 0)
(-16.207 -0.41881 0)
(-16.1589 -0.459949 0)
(-15.6873 -0.459115 0)
(-15.6546 -0.565241 0)
(-15.0879 -0.603863 0)
(-15.0447 -0.709588 0)
(-14.3547 -0.648972 0)
(-14.2827 -0.776762 0)
(-13.5673 -0.673058 0)
(-13.525 -0.734913 0)
(-12.8736 -0.662621 0)
(-12.8318 -0.733386 0)
(-12.2092 -0.642799 0)
(-12.1799 -0.691741 0)
(-11.5831 -0.556931 0)
(-11.5738 -0.58866 0)
(-11.0511 -0.431949 0)
(-11.0393 -0.450363 0)
(-10.6339 -0.302322 0)
(-10.6256 -0.322561 0)
(-10.45 -0.263548 0)
(-10.4582 -0.257717 0)
(-10.4998 -0.218924 0)
(-10.5017 -0.171022 0)
(-10.774 0.0145412 0)
(-10.7673 0.0338849 0)
(-11.2843 0.22989 0)
(-11.2745 0.232977 0)
(-11.9772 0.534827 0)
(-11.9967 0.487539 0)
(-12.8571 0.839838 0)
(-12.8897 0.782632 0)
(-13.8965 1.14501 0)
(-13.9158 1.08388 0)
(-14.9886 1.34364 0)
(-15.0113 1.26632 0)
(-16.0645 1.37504 0)
(-16.086 1.35504 0)
(-17.0089 1.35602 0)
(-17.0408 1.2882 0)
(-17.6874 1.20572 0)
(-17.7421 1.11753 0)
(-18.057 0.768401 0)
(-18.0898 0.565756 0)
(-18.2061 0.232895 0)
(-18.1497 -0.000288241 0)
(-18.1237 -0.341612 0)
(-18.0736 -0.529589 0)
(-17.5572 -0.871138 0)
(-17.4677 -0.888723 0)
(-16.3923 -1.3605 0)
(-16.2333 -1.2035 0)
(-14.825 -2.09693 0)
(-14.5978 -1.85324 0)
(-12.8303 -2.59652 0)
(-12.3243 -1.88146 0)
(-10.8573 -2.33599 0)
(-10.4759 -1.51029 0)
(-9.17682 -2.07297 0)
(-8.92489 -1.31348 0)
(-7.7745 -1.58624 0)
(-7.70305 -1.41616 0)
(-6.09779 -2.29365 0)
(-5.9571 -2.06088 0)
(-4.39553 -2.16747 0)
(-4.22869 -1.8008 0)
(-2.92296 -1.7558 0)
(-2.84548 -1.50021 0)
(-1.55868 -1.74204 0)
(-1.43413 -1.40299 0)
(-0.433688 -1.40469 0)
(-0.339909 -1.00791 0)
(0.56459 -1.12954 0)
(0.611754 -0.785578 0)
(1.50448 -0.864421 0)
(1.49061 -0.582252 0)
(2.3327 -0.576879 0)
(2.2428 -0.38777 0)
(2.98048 -0.389632 0)
(2.82638 -0.259209 0)
(3.37685 -0.241057 0)
(3.24064 -0.152617 0)
(3.52879 -0.103226 0)
(3.51914 -0.0484315 0)
(3.55731 -0.0226903 0)
(3.60884 0.0322797 0)
(3.4453 0.0750727 0)
(3.55921 0.145288 0)
(3.15569 0.113938 0)
(3.47636 0.202451 0)
(2.87689 0.167128 0)
(3.20549 0.301517 0)
(2.44261 0.268409 0)
(2.78372 0.4512 0)
(1.93677 0.271775 0)
(2.24688 0.376565 0)
(1.37778 0.231024 0)
(1.68933 0.367011 0)
(0.972078 0.13565 0)
(1.18908 0.179682 0)
(0.659949 0.196585 0)
(0.787827 0.350444 0)
(0.304249 0.333214 0)
(0.394383 0.420791 0)
(-0.0622919 0.281451 0)
(0.0227939 0.350076 0)
(-0.373279 0.220162 0)
(-0.253347 0.371849 0)
(-0.62001 0.297118 0)
(-0.596716 0.364005 0)
(-0.90556 0.320774 0)
(-0.924141 0.406351 0)
(-1.22551 0.336504 0)
(-1.2359 0.360227 0)
(-1.50559 0.26324 0)
(-1.49358 0.251822 0)
(-1.70418 0.158806 0)
(-1.69393 0.156797 0)
(-1.82545 0.0752246 0)
(-1.83231 0.0413523 0)
(-1.86542 -0.0409405 0)
(-1.87855 -0.0952693 0)
(-1.79785 -0.216854 0)
(-1.81894 -0.257958 0)
(-1.59058 -0.417184 0)
(-1.60028 -0.40575 0)
(-1.25055 -0.52891 0)
(-1.30459 -0.433384 0)
(-0.865583 -0.521329 0)
(-0.993621 -0.476325 0)
(-0.364599 -0.670487 0)
(-0.497175 -0.590065 0)
(0.154102 -0.64433 0)
(-0.00546177 -0.586228 0)
(0.601384 -0.637429 0)
(0.613272 -0.509104 0)
(1.02589 -0.351696 0)
(0.980925 -0.320064 0)
(1.61435 -0.490744 0)
(1.55504 -0.460819 0)
(2.28249 -0.535903 0)
(2.11958 -0.397569 0)
(2.82732 -0.435534 0)
(2.70068 -0.402731 0)
(3.20487 -0.279256 0)
(3.12546 -0.250948 0)
(3.43049 -0.130657 0)
(3.2585 -0.105432 0)
(3.51225 -0.061006 0)
(3.37487 -0.0227756 0)
(3.44993 0.0567256 0)
(3.24016 -0.00925482 0)
(3.35135 0.117409 0)
(2.89485 0.132859 0)
(3.12337 0.318737 0)
(2.36844 0.171252 0)
(2.68575 0.386931 0)
(1.70937 0.308482 0)
(2.0768 0.465716 0)
(1.10675 0.192691 0)
(1.28102 0.436619 0)
(0.532571 0.526445 0)
(0.584393 0.792723 0)
(-0.219491 0.587602 0)
(-0.214447 0.687693 0)
(-0.861681 0.443928 0)
(-0.732517 0.768748 0)
(-1.41356 0.657399 0)
(-1.45516 0.792127 0)
(-2.16823 0.584241 0)
(-2.13179 0.821598 0)
(-2.75213 0.623157 0)
(-2.84543 0.725934 0)
(-3.38031 0.379551 0)
(-3.41855 0.597797 0)
(-3.86438 0.461004 0)
(-4.00388 0.57913 0)
(-4.52745 0.367139 0)
(-4.57824 0.419464 0)
(-4.95859 0.468973 0)
(-5.05012 0.522199 0)
(-5.42262 0.379747 0)
(-5.47902 0.394976 0)
(-5.77741 0.379911 0)
(-5.8115 0.363003 0)
(-5.99169 0.277906 0)
(-6.01923 0.262778 0)
(-6.09388 0.173303 0)
(-6.11462 0.132542 0)
(-6.16459 0.0601098 0)
(-6.16807 0.0429655 0)
(-6.17798 -0.0113368 0)
(-6.14878 -0.0146221 0)
(-6.11863 -0.0707041 0)
(-6.08664 -0.0724022 0)
(-6.02914 -0.115623 0)
(-5.99333 -0.107159 0)
(-5.92765 -0.146395 0)
(-5.89451 -0.134576 0)
(-5.7997 -0.146396 0)
(-5.76314 -0.131684 0)
(-5.66634 -0.110125 0)
(-5.62644 -0.0994892 0)