/*--------------------------------*- C++ -*----------------------------------*\
| =========                 |                                                 |
| \\      /  F ield         | OpenFOAM: The Open Source CFD Toolbox           |
|  \\    /   O peration     | Version:  v1812                                 |
|   \\  /    A nd           | Web:      www.OpenFOAM.com                      |
|    \\/     M anipulation  |                                                 |
\*---------------------------------------------------------------------------*/
FoamFile
{
    version     2.0;
    format      ascii;
    class       volScalarField;
    location    "0.05";
    object      p;
}
// * * * * * * * * * * * * * * * * * * * * * * * * * * * * * * * * * * * * * //

dimensions      [1 -1 -2 0 0 0 0];


internalField   nonuniform List<scalar> 
100
(
300548
299779
299400
299188
298907
298617
298321
298008
297681
297337
296977
296598
296199
295780
295338
294872
294381
293861
293311
292728
292111
291455
290757
290014
289222
288375
287469
286498
285455
284333
283121
281812
280392
278849
277167
275326
273305
271076
268607
265859
262779
259305
255351
250803
245500
239199
231505
221689
208188
187247
147916
118940
102920
92357.8
84369.3
77741.3
72043.7
67086.4
62853.6
59065.3
55647.1
52561.5
49836.6
47332.9
45022.9
42899
40987.5
39205.3
37538.3
35990
34572.5
33242.9
31975.1
30871.9
29268.7
29622
66763.3
142952
158570
159896
160976
161935
162708
163462
164402
165421
166356
167413
168597
169609
170432
171131
171680
172164
172605
172914
173136
173361
173758
173699
)
;

boundaryField
{
    inlet
    {
        type            fixedValue;
        value           uniform 300000;
    }
    outlet
    {
        type            fixedValue;
        value           uniform 175000;
    }
    upperWall
    {
        type            zeroGradient;
    }
    lowerWall
    {
        type            zeroGradient;
    }
    frontAndBack
    {
        type            empty;
    }
}


// ************************************************************************* //
