/*--------------------------------*- C++ -*----------------------------------*\
| =========                 |                                                 |
| \\      /  F ield         | OpenFOAM: The Open Source CFD Toolbox           |
|  \\    /   O peration     | Version:  v1812                                 |
|   \\  /    A nd           | Web:      www.OpenFOAM.com                      |
|    \\/     M anipulation  |                                                 |
\*---------------------------------------------------------------------------*/
FoamFile
{
    version     2.0;
    format      ascii;
    class       volScalarField;
    location    "0.05";
    object      rho;
}
// * * * * * * * * * * * * * * * * * * * * * * * * * * * * * * * * * * * * * //

dimensions      [1 -3 0 0 0 0 0];


internalField   nonuniform List<scalar> 
100
(
2.11025
2.10548
2.10333
2.10234
2.10092
2.09946
2.09798
2.09641
2.09477
2.09305
2.09123
2.08933
2.08733
2.08522
2.08299
2.08065
2.07817
2.07555
2.07277
2.06983
2.06671
2.06339
2.05986
2.0561
2.05208
2.04779
2.04319
2.03825
2.03295
2.02723
2.02105
2.01437
2.00711
1.99921
1.99058
1.98113
1.97072
1.95923
1.94646
1.93221
1.91619
1.89805
1.87733
1.85337
1.82528
1.79166
1.75025
1.6968
1.62213
1.50473
1.27127
1.08909
0.981782
0.909087
0.852053
0.803411
0.760907
0.723519
0.690369
0.660222
0.632787
0.607748
0.584904
0.563643
0.543933
0.525621
0.508678
0.492692
0.47769
0.463605
0.450445
0.437948
0.425993
0.415393
0.399942
0.403339
0.638228
1.07425
1.16286
1.16898
1.17528
1.1807
1.18387
1.1874
1.19278
1.19828
1.20265
1.20818
1.21465
1.21969
1.22383
1.22759
1.23026
1.23262
1.23494
1.23652
1.23767
1.23879
1.24074
1.23884
)
;

boundaryField
{
    inlet
    {
        type            calculated;
        value           uniform 2.10641;
    }
    outlet
    {
        type            calculated;
        value           uniform 1.24812;
    }
    upperWall
    {
        type            calculated;
        value           nonuniform List<scalar> 
100
(
2.11025
2.10548
2.10333
2.10234
2.10092
2.09946
2.09798
2.09641
2.09477
2.09305
2.09123
2.08933
2.08733
2.08522
2.08299
2.08065
2.07817
2.07555
2.07277
2.06983
2.06671
2.06339
2.05986
2.0561
2.05208
2.04779
2.04319
2.03825
2.03295
2.02723
2.02105
2.01437
2.00711
1.99921
1.99058
1.98113
1.97072
1.95923
1.94646
1.93221
1.91619
1.89805
1.87733
1.85337
1.82528
1.79166
1.75025
1.6968
1.62213
1.50473
1.27127
1.08909
0.981782
0.909087
0.852053
0.803411
0.760907
0.723519
0.690369
0.660222
0.632787
0.607748
0.584904
0.563643
0.543933
0.525621
0.508678
0.492692
0.47769
0.463605
0.450445
0.437948
0.425993
0.415393
0.399942
0.403339
0.638228
1.07425
1.16286
1.16898
1.17528
1.1807
1.18387
1.1874
1.19278
1.19828
1.20265
1.20818
1.21465
1.21969
1.22383
1.22759
1.23026
1.23262
1.23494
1.23652
1.23767
1.23879
1.24074
1.23884
)
;
    }
    lowerWall
    {
        type            calculated;
        value           nonuniform List<scalar> 
100
(
2.11025
2.10548
2.10333
2.10234
2.10092
2.09946
2.09798
2.09641
2.09477
2.09305
2.09123
2.08933
2.08733
2.08522
2.08299
2.08065
2.07817
2.07555
2.07277
2.06983
2.06671
2.06339
2.05986
2.0561
2.05208
2.04779
2.04319
2.03825
2.03295
2.02723
2.02105
2.01437
2.00711
1.99921
1.99058
1.98113
1.97072
1.95923
1.94646
1.93221
1.91619
1.89805
1.87733
1.85337
1.82528
1.79166
1.75025
1.6968
1.62213
1.50473
1.27127
1.08909
0.981782
0.909087
0.852053
0.803411
0.760907
0.723519
0.690369
0.660222
0.632787
0.607748
0.584904
0.563643
0.543933
0.525621
0.508678
0.492692
0.47769
0.463605
0.450445
0.437948
0.425993
0.415393
0.399942
0.403339
0.638228
1.07425
1.16286
1.16898
1.17528
1.1807
1.18387
1.1874
1.19278
1.19828
1.20265
1.20818
1.21465
1.21969
1.22383
1.22759
1.23026
1.23262
1.23494
1.23652
1.23767
1.23879
1.24074
1.23884
)
;
    }
    frontAndBack
    {
        type            empty;
    }
}


// ************************************************************************* //
