/*--------------------------------*- C++ -*----------------------------------*\
| =========                 |                                                 |
| \\      /  F ield         | OpenFOAM: The Open Source CFD Toolbox           |
|  \\    /   O peration     | Version:  v1812                                 |
|   \\  /    A nd           | Web:      www.OpenFOAM.com                      |
|    \\/     M anipulation  |                                                 |
\*---------------------------------------------------------------------------*/
FoamFile
{
    version     2.0;
    format      ascii;
    class       volScalarField;
    location    "0.05";
    object      T;
}
// * * * * * * * * * * * * * * * * * * * * * * * * * * * * * * * * * * * * * //

dimensions      [0 0 0 1 0 0 0];


internalField   nonuniform List<scalar> 
100
(
496.072
495.924
495.8
495.683
495.552
495.416
495.274
495.125
494.969
494.806
494.634
494.453
494.262
494.062
493.851
493.628
493.392
493.143
492.879
492.599
492.302
491.986
491.65
491.291
490.908
490.498
490.058
489.585
489.076
488.526
487.931
487.286
486.585
485.819
484.981
484.059
483.042
481.914
480.658
479.248
477.657
475.846
473.763
471.34
468.475
465.015
460.707
455.069
447.028
433.431
405.266
380.388
365.13
353.86
344.891
337.037
329.783
322.96
317.112
311.607
306.301
301.237
296.776
292.498
288.305
284.275
280.655
277.161
273.711
270.394
267.333
264.387
261.441
258.862
254.9
255.804
364.356
463.498
474.961
476.426
477.074
477.71
478.706
479.493
480.078
480.835
481.796
482.637
483.463
484.354
485.057
485.557
486.059
486.492
486.821
487.072
487.243
487.437
487.784
488.367
)
;

boundaryField
{
    inlet
    {
        type            totalTemperature;
        gamma           1.4;
        T0              uniform 500;
        value           uniform 496.07;
    }
    outlet
    {
        type            zeroGradient;
    }
    upperWall
    {
        type            zeroGradient;
    }
    lowerWall
    {
        type            zeroGradient;
    }
    frontAndBack
    {
        type            empty;
    }
}


// ************************************************************************* //
