/*--------------------------------*- C++ -*----------------------------------*\
| =========                 |                                                 |
| \\      /  F ield         | OpenFOAM: The Open Source CFD Toolbox           |
|  \\    /   O peration     | Version:  v1812                                 |
|   \\  /    A nd           | Web:      www.OpenFOAM.com                      |
|    \\/     M anipulation  |                                                 |
\*---------------------------------------------------------------------------*/
FoamFile
{
    version     2.0;
    format      ascii;
    class       volVectorField;
    location    "0.05";
    object      U;
}
// * * * * * * * * * * * * * * * * * * * * * * * * * * * * * * * * * * * * * //

dimensions      [0 1 -1 0 0 0 0];


internalField   nonuniform List<vector> 
100
(
(88.8747 0.00011957 0)
(90.5345 0.00011957 2.18825e-15)
(91.8987 0.00011957 0)
(93.1748 0.00011957 -2.37548e-15)
(94.5751 0.00011957 0)
(96.0061 0.00011957 -2.43848e-15)
(97.4745 0.00011957 0)
(98.9937 0.00011957 -2.50807e-15)
(100.562 0.000119569 -2.54518e-15)
(102.182 0.000119568 -2.58314e-15)
(103.857 0.000119571 0)
(105.59 0.000119569 -2.66251e-15)
(107.383 0.000119569 0)
(109.241 0.000119571 0)
(111.166 0.000119571 -2.79099e-15)
(113.163 0.000119566 0)
(115.236 0.000119575 -5.76724e-15)
(117.389 0.000119565 0)
(119.628 0.000119566 -2.98246e-15)
(121.958 0.000119575 -3.0344e-15)
(124.385 0.000119569 -3.08813e-15)
(126.915 0.000119588 0)
(129.556 0.000119513 -3.20134e-15)
(132.315 0.000119505 0)
(135.201 0.000119899 -3.32287e-15)
(138.224 0.000119568 0)
(141.394 0.000118392 0)
(144.722 0.000120509 0)
(148.223 0.000122169 -3.59459e-15)
(151.91 0.000115084 0)
(155.801 0.000117251 -3.7469e-15)
(159.915 0.000131285 0)
(164.273 0.000112484 0)
(168.899 0.00010652 0)
(173.824 0.00014634 -4.09065e-15)
(179.08 0.000106166 -4.18574e-15)
(184.706 9.68582e-05 0)
(190.75 0.000172406 0)
(197.267 7.36189e-05 0)
(204.328 0.000117252 0)
(212.017 0.000187757 0)
(220.443 -3.16506e-05 0)
(229.748 0.000334187 0)
(240.123 0.000552843 0)
(251.837 -0.00217786 5.22949e-15)
(265.293 -0.00345425 0)
(281.154 0.0308892 -5.48606e-15)
(300.644 0.00830557 0)
(326.443 -0.324178 0)
(365.965 0.391077 0)
(436.38 2.36433 0)
(490.118 -4.4237 0)
(520.863 -2.64545 0)
(541.789 3.13197 4.41412e-15)
(558.188 2.98894 0)
(572.308 1.38715 3.87199e-15)
(584.922 -0.00516051 0)
(596.327 -2.76832 0)
(606.214 -2.13485 0)
(615.341 -0.459632 0)
(623.907 0.193496 0)
(631.909 2.11507 0)
(639.032 1.58538 0)
(645.784 0.365548 0)
(652.251 0.012992 2.5496e-15)
(658.367 -1.59044 0)
(663.887 -1.2054 2.37611e-15)
(669.213 -0.525863 0)
(674.37 -0.262177 2.20082e-15)
(679.254 1.11758 0)
(683.751 0.880048 0)
(688.106 0.70347 0)
(692.436 0.444697 1.94205e-15)
(696.102 -0.598452 0)
(701.876 -0.64943 1.50938e-15)
(700.457 -0.490724 0)
(522.456 2.37446 2.15055e-15)
(263.855 -14.5166 0)
(231.412 11.2379 -3.24614e-15)
(222.633 9.41238 0)
(216.024 3.78308 5.82976e-15)
(210.937 -3.61586 0)
(205.064 -7.26781 2.83866e-15)
(199.752 -6.13226 2.7675e-15)
(195.672 -1.89233 -2.71931e-15)
(192.097 2.89021 2.70165e-15)
(188.079 4.45649 0)
(184.695 2.87111 0)
(181.944 -0.328843 2.57218e-15)
(178.924 -2.54901 0)
(175.973 -2.16683 2.50588e-15)
(173.324 -0.183031 2.46818e-15)
(170.148 1.45337 2.44259e-15)
(166.679 1.2733 0)
(163.346 -0.0463034 2.3852e-15)
(160.153 -0.902188 2.36262e-15)
(157.453 -0.465705 2.32928e-15)
(155.252 0.399985 0)
(153.382 0.140339 -2.19035e-15)
(150.148 0.0594266 0)
)
;

boundaryField
{
    inlet
    {
        type            zeroGradient;
    }
    outlet
    {
        type            zeroGradient;
    }
    upperWall
    {
        type            slip;
    }
    lowerWall
    {
        type            slip;
    }
    frontAndBack
    {
        type            empty;
    }
}


// ************************************************************************* //
