/*--------------------------------*- C++ -*----------------------------------*\
| =========                 |                                                 |
| \\      /  F ield         | OpenFOAM: The Open Source CFD Toolbox           |
|  \\    /   O peration     | Version:  v1812                                 |
|   \\  /    A nd           | Web:      www.OpenFOAM.com                      |
|    \\/     M anipulation  |                                                 |
\*---------------------------------------------------------------------------*/
FoamFile
{
    version     2.0;
    format      ascii;
    class       volScalarField;
    location    "0.3";
    object      p;
}
// * * * * * * * * * * * * * * * * * * * * * * * * * * * * * * * * * * * * * //

dimensions      [1 -1 -2 0 0 0 0];


internalField   nonuniform List<scalar> 
20400
(
100244
100245
100245
100244
100242
100238
100234
100227
100221
100213
100207
100202
100199
100197
100196
100196
100197
100198
100199
100199
100199
100198
100196
100192
100185
100177
100166
100154
100139
100121
100101
100078
100055
100033
100012
99994.1
99980.6
99969.8
99963.7
99963.1
99967.2
99976.3
99990.3
100010
100034
100064
100098
100135
100174
100216
100258
100301
100343
100386
100426
100466
100503
100539
100571
100601
100628
100651
100671
100687
100700
100710
100717
100720
100723
100722
100720
100716
100712
100709
100696
100688
100680
100672
100665
100658
100651
100644
100637
100631
100626
100620
100615
100610
100606
100601
100595
100587
100585
100583
100580
100577
100574
100572
100569
100567
100564
100562
100560
100558
100557
100555
100554
100553
100553
100552
100552
100552
100551
100552
100552
100552
100552
100553
100554
100555
100555
100556
100558
100559
100560
100562
100563
100565
100567
100568
100570
100572
100575
100577
100579
100582
100584
100587
100590
100593
100596
100599
100602
100605
100608
100612
100615
100619
100622
100626
100630
100634
100638
100641
100645
100649
100653
100658
100662
100666
100670
100674
100678
100682
100686
100691
100695
100699
100703
100707
100711
100715
100719
100724
100728
100731
100735
100739
100743
100747
100751
100754
100758
100762
100765
100769
100772
100775
100779
100782
100785
100788
100791
100794
100797
100800
100803
100806
100808
100811
100814
100816
100819
100821
100824
100826
100828
100831
100833
100835
100837
100839
100841
100843
100845
100847
100849
100851
100853
100855
100857
100858
100860
100862
100864
100866
100867
100869
100871
100873
100874
100876
100878
100880
100882
100883
100885
100887
100889
100891
100893
100895
100897
100899
100900
100902
100904
100907
100909
100911
100913
100915
100917
100919
100921
100923
100926
100928
100930
100932
100935
100937
100939
100942
100944
100946
100949
100951
100953
100956
100958
100960
100963
100965
100968
100970
100972
100975
100977
100979
100982
100984
100986
100989
100991
100993
100995
100998
101000
101002
101004
101006
101009
101011
101013
101015
101017
101019
101021
101023
101025
101027
101029
101030
101032
101034
101036
101038
101039
101041
101043
101045
101046
101048
101050
101051
101053
101054
101056
101057
101059
101060
101062
101063
101065
101066
101068
101069
101070
101072
101073
101075
101076
101077
101079
101080
101082
101083
101084
101086
101087
101088
101090
101091
101093
101094
101095
101097
101098
101100
101101
101102
101104
101105
101107
101108
101110
101111
101113
101114
101116
101117
101119
101120
101122
101123
101125
101127
101128
101130
101131
101133
101135
101136
101138
101139
101141
101143
101144
101146
101148
101149
101151
101153
101154
101156
101157
101159
101161
101162
101164
101166
101167
101169
101170
101172
101174
101175
101177
101178
101180
101182
101183
101185
101186
101188
101189
101191
101192
101194
101195
101197
101198
101200
101201
101202
101204
101205
101207
101208
101209
101211
101212
101214
101215
101216
101218
101219
101220
101221
101223
101224
101225
101227
101228
101229
101230
101232
101233
101234
101235
101237
101238
101239
101240
101242
101243
101244
101245
101246
101248
101249
101250
101251
101253
101254
101255
101256
101258
101259
101260
101261
101263
101264
101265
101266
101268
101269
101270
101272
101273
101274
101276
101277
101278
101279
101281
101282
101284
101285
101286
101288
101289
101292
101295
101296
101298
101299
101301
101303
101306
101309
101311
101314
101317
101320
101320
101324
101322
101328
100245
100245
100245
100244
100241
100237
100232
100226
100219
100213
100207
100201
100198
100196
100196
100196
100197
100198
100199
100200
100201
100200
100198
100193
100188
100180
100170
100158
100143
100125
100104
100080
100056
100033
100010
99990
99972.3
99956.9
99950.3
99950.7
99956.8
99968.8
99987.9
100014
100043
100077
100113
100150
100188
100226
100264
100301
100339
100376
100414
100450
100484
100517
100548
100577
100603
100626
100646
100663
100676
100687
100694
100699
100702
100703
100702
100699
100695
100687
100689
100685
100679
100672
100665
100658
100650
100643
100637
100631
100625
100620
100615
100610
100606
100602
100599
100600
100595
100591
100588
100584
100581
100578
100575
100572
100569
100566
100564
100562
100560
100558
100556
100555
100554
100553
100552
100552
100551
100551
100551
100552
100552
100552
100553
100554
100555
100556
100557
100558
100559
100561
100562
100564
100566
100568
100570
100572
100574
100576
100579
100581
100584
100587
100589
100592
100595
100598
100601
100605
100608
100611
100615
100619
100622
100626
100630
100633
100637
100641
100645
100649
100653
100657
100661
100665
100670
100674
100678
100682
100686
100690
100695
100699
100703
100707
100711
100715
100719
100723
100727
100731
100735
100739
100743
100747
100750
100754
100758
100761
100765
100768
100772
100775
100778
100782
100785
100788
100791
100794
100797
100800
100803
100806
100808
100811
100814
100816
100819
100821
100823
100826
100828
100830
100832
100835
100837
100839
100841
100843
100845
100847
100849
100851
100853
100854
100856
100858
100860
100862
100864
100865
100867
100869
100871
100872
100874
100876
100878
100880
100881
100883
100885
100887
100889
100891
100893
100894
100896
100898
100900
100902
100904
100906
100908
100910
100913
100915
100917
100919
100921
100923
100926
100928
100930
100932
100935
100937
100939
100941
100944
100946
100948
100951
100953
100956
100958
100960
100963
100965
100967
100970
100972
100974
100977
100979
100981
100984
100986
100988
100991
100993
100995
100997
101000
101002
101004
101006
101008
101010
101013
101015
101017
101019
101021
101023
101025
101027
101028
101030
101032
101034
101036
101038
101039
101041
101043
101044
101046
101048
101049
101051
101053
101054
101056
101057
101059
101060
101062
101063
101065
101066
101067
101069
101070
101072
101073
101074
101076
101077
101079
101080
101081
101083
101084
101086
101087
101088
101090
101091
101092
101094
101095
101097
101098
101099
101101
101102
101104
101105
101107
101108
101110
101111
101113
101114
101116
101117
101119
101120
101122
101123
101125
101126
101128
101130
101131
101133
101134
101136
101138
101139
101141
101143
101144
101146
101148
101149
101151
101153
101154
101156
101158
101159
101161
101162
101164
101166
101167
101169
101171
101172
101174
101175
101177
101178
101180
101182
101183
101185
101186
101188
101189
101191
101192
101194
101195
101197
101198
101200
101201
101203
101204
101205
101207
101208
101210
101211
101212
101214
101215
101216
101218
101219
101220
101222
101223
101224
101225
101227
101228
101229
101230
101232
101233
101234
101235
101237
101238
101239
101240
101242
101243
101244
101245
101247
101248
101249
101250
101252
101253
101254
101255
101257
101258
101259
101260
101262
101263
101264
101265
101267
101268
101269
101271
101272
101273
101275
101276
101278
101279
101281
101282
101284
101285
101287
101288
101290
101292
101294
101297
101295
101296
101297
101299
101301
101302
101304
101306
101309
101310
101314
101314
101319
101317
101325
100245
100246
100245
100243
100240
100236
100229
100222
100214
100207
100202
100197
100195
100193
100194
100195
100197
100198
100200
100201
100202
100202
100200
100197
100191
100183
100173
100160
100144
100124
100100
100072
100043
100013
99986.5
99964.2
99949.8
99943.1
99939.2
99937.6
99939.9
99947.8
99961.9
99982.6
100008
100038
100072
100110
100151
100195
100239
100284
100329
100372
100413
100453
100491
100527
100561
100591
100619
100644
100665
100682
100697
100707
100715
100720
100722
100722
100720
100716
100711
100704
100696
100687
100679
100672
100664
100657
100650
100643
100637
100631
100625
100620
100615
100610
100605
100601
100597
100593
100588
100584
100581
100577
100574
100572
100569
100566
100564
100562
100560
100558
100556
100555
100554
100553
100552
100552
100552
100551
100551
100551
100552
100552
100552
100553
100554
100555
100555
100557
100558
100559
100560
100562
100563
100565
100567
100568
100570
100572
100575
100577
100579
100582
100584
100587
100590
100593
100596
100599
100602
100605
100608
100612
100615
100619
100623
100626
100630
100634
100638
100641
100645
100649
100653
100658
100662
100666
100670
100674
100678
100682
100686
100691
100695
100699
100703
100707
100711
100715
100719
100724
100728
100731
100735
100739
100743
100747
100751
100754
100758
100762
100765
100769
100772
100775
100779
100782
100785
100788
100791
100794
100797
100800
100803
100806
100808
100811
100814
100816
100819
100821
100824
100826
100828
100831
100833
100835
100837
100839
100841
100843
100845
100847
100849
100851
100853
100855
100856
100858
100860
100862
100864
100866
100867
100869
100871
100873
100874
100876
100878
100880
100882
100883
100885
100887
100889
100891
100893
100895
100897
100899
100901
100902
100904
100907
100909
100911
100913
100915
100917
100919
100921
100923
100926
100928
100930
100932
100935
100937
100939
100942
100944
100946
100949
100951
100953
100956
100958
100960
100963
100965
100968
100970
100972
100975
100977
100979
100982
100984
100986
100989
100991
100993
100995
100998
101000
101002
101004
101006
101009
101011
101013
101015
101017
101019
101021
101023
101025
101027
101029
101030
101032
101034
101036
101038
101039
101041
101043
101045
101046
101048
101050
101051
101053
101054
101056
101057
101059
101060
101062
101063
101065
101066
101068
101069
101070
101072
101073
101075
101076
101077
101079
101080
101082
101083
101084
101086
101087
101088
101090
101091
101093
101094
101095
101097
101098
101100
101101
101102
101104
101105
101107
101108
101110
101111
101113
101114
101116
101117
101119
101120
101122
101123
101125
101127
101128
101130
101131
101133
101135
101136
101138
101139
101141
101143
101144
101146
101147
101149
101151
101152
101154
101156
101157
101159
101161
101162
101164
101166
101167
101169
101170
101172
101174
101175
101177
101178
101180
101182
101183
101185
101186
101188
101189
101191
101192
101194
101195
101197
101198
101200
101201
101202
101204
101205
101207
101208
101209
101211
101212
101214
101215
101216
101218
101219
101220
101221
101223
101224
101225
101227
101228
101229
101230
101232
101233
101234
101235
101237
101238
101239
101240
101242
101243
101244
101245
101246
101248
101249
101250
101251
101253
101254
101255
101256
101258
101259
101260
101261
101263
101264
101265
101266
101268
101269
101270
101271
101273
101274
101275
101277
101278
101279
101281
101282
101283
101284
101286
101287
101288
101289
101290
101294
101297
101299
101301
101304
101306
101308
101311
101314
101316
101319
101320
101323
101321
101327
100246
100246
100245
100243
100239
100234
100227
100220
100212
100204
100198
100193
100191
100191
100192
100194
100197
100200
100203
100205
100206
100206
100204
100200
100195
100187
100175
100159
100138
100113
100082
100050
100020
99992.9
99968.1
99946.1
99927.4
99907.8
99896.2
99898.1
99908.5
99925.5
99947.9
99975.8
100007
100043
100081
100120
100160
100201
100242
100282
100323
100362
100401
100438
100475
100509
100542
100572
100600
100624
100646
100664
100678
100690
100698
100703
100706
100708
100707
100704
100701
100696
100691
100684
100678
100670
100663
100656
100648
100642
100635
100629
100624
100618
100614
100609
100605
100601
100597
100594
100591
100588
100584
100581
100578
100575
100573
100570
100567
100565
100562
100560
100558
100557
100555
100554
100553
100552
100552
100551
100551
100551
100551
100552
100552
100553
100553
100554
100555
100556
100557
100558
100560
100561
100563
100564
100566
100568
100570
100572
100574
100576
100579
100581
100584
100587
100589
100592
100595
100598
100602
100605
100608
100612
100615
100619
100622
100626
100630
100633
100637
100641
100645
100649
100653
100657
100661
100665
100670
100674
100678
100682
100686
100690
100695
100699
100703
100707
100711
100715
100719
100723
100727
100731
100735
100739
100743
100747
100750
100754
100758
100761
100765
100768
100772
100775
100778
100782
100785
100788
100791
100794
100797
100800
100803
100806
100808
100811
100814
100816
100819
100821
100823
100826
100828
100830
100832
100835
100837
100839
100841
100843
100845
100847
100849
100851
100853
100854
100856
100858
100860
100862
100864
100865
100867
100869
100871
100872
100874
100876
100878
100880
100881
100883
100885
100887
100889
100891
100893
100894
100896
100898
100900
100902
100904
100906
100908
100910
100913
100915
100917
100919
100921
100923
100926
100928
100930
100932
100935
100937
100939
100941
100944
100946
100948
100951
100953
100956
100958
100960
100963
100965
100967
100970
100972
100974
100977
100979
100982
100984
100986
100988
100991
100993
100995
100997
101000
101002
101004
101006
101008
101010
101013
101015
101017
101019
101021
101023
101025
101027
101028
101030
101032
101034
101036
101038
101039
101041
101043
101044
101046
101048
101049
101051
101053
101054
101056
101057
101059
101060
101062
101063
101065
101066
101067
101069
101070
101072
101073
101074
101076
101077
101079
101080
101081
101083
101084
101086
101087
101088
101090
101091
101092
101094
101095
101097
101098
101099
101101
101102
101104
101105
101107
101108
101110
101111
101113
101114
101116
101117
101119
101120
101122
101123
101125
101126
101128
101130
101131
101133
101134
101136
101138
101139
101141
101143
101144
101146
101147
101149
101151
101152
101154
101156
101157
101159
101161
101162
101164
101166
101167
101169
101171
101172
101174
101175
101177
101178
101180
101182
101183
101185
101186
101188
101189
101191
101192
101194
101195
101197
101198
101200
101201
101203
101204
101205
101207
101208
101209
101211
101212
101214
101215
101216
101218
101219
101220
101222
101223
101224
101225
101227
101228
101229
101230
101232
101233
101234
101235
101237
101238
101239
101240
101242
101243
101244
101245
101247
101248
101249
101250
101251
101253
101254
101255
101256
101258
101259
101260
101262
101263
101264
101265
101267
101268
101269
101271
101272
101273
101275
101276
101278
101279
101280
101282
101283
101285
101286
101288
101289
101291
101292
101292
101294
101296
101297
101299
101300
101302
101304
101306
101309
101311
101314
101316
101319
101320
101324
100247
100247
100246
100243
100238
100231
100223
100214
100205
100196
100189
100184
100181
100181
100183
100187
100192
100197
100201
100205
100207
100208
100207
100203
100195
100184
100167
100145
100118
100087
100056
100023
99989.2
99956
99925.3
99900.7
99883.9
99873.1
99867
99867.2
99874.2
99888.8
99910.1
99937.7
99970.4
100008
100048
100091
100135
100180
100224
100269
100313
100355
100395
100434
100471
100506
100539
100570
100598
100623
100645
100663
100678
100690
100699
100704
100707
100708
100707
100704
100700
100695
100689
100682
100675
100668
100661
100653
100646
100640
100634
100628
100622
100617
100612
100608
100604
100600
100596
100593
100589
100586
100583
100580
100577
100574
100571
100568
100566
100563
100561
100559
100558
100556
100555
100554
100553
100552
100552
100552
100552
100552
100552
100552
100552
100553
100554
100554
100555
100556
100557
100559
100560
100561
100563
100565
100566
100568
100570
100572
100574
100577
100579
100582
100584
100587
100590
100593
100596
100599
100602
100605
100608
100612
100615
100619
100622
100626
100630
100634
100637
100641
100645
100649
100653
100657
100661
100666
100670
100674
100678
100682
100686
100691
100695
100699
100703
100707
100711
100715
100719
100723
100727
100731
100735
100739
100743
100747
100751
100754
100758
100761
100765
100768
100772
100775
100779
100782
100785
100788
100791
100794
100797
100800
100803
100806
100808
100811
100814
100816
100819
100821
100823
100826
100828
100830
100833
100835
100837
100839
100841
100843
100845
100847
100849
100851
100853
100855
100856
100858
100860
100862
100864
100865
100867
100869
100871
100873
100874
100876
100878
100880
100881
100883
100885
100887
100889
100891
100893
100895
100896
100898
100900
100902
100904
100906
100908
100911
100913
100915
100917
100919
100921
100923
100926
100928
100930
100932
100935
100937
100939
100942
100944
100946
100949
100951
100953
100956
100958
100960
100963
100965
100967
100970
100972
100975
100977
100979
100982
100984
100986
100989
100991
100993
100995
100998
101000
101002
101004
101006
101008
101011
101013
101015
101017
101019
101021
101023
101025
101027
101029
101030
101032
101034
101036
101038
101039
101041
101043
101045
101046
101048
101049
101051
101053
101054
101056
101057
101059
101060
101062
101063
101065
101066
101068
101069
101070
101072
101073
101075
101076
101077
101079
101080
101081
101083
101084
101086
101087
101088
101090
101091
101093
101094
101095
101097
101098
101100
101101
101102
101104
101105
101107
101108
101110
101111
101113
101114
101116
101117
101119
101120
101122
101123
101125
101127
101128
101130
101131
101133
101135
101136
101138
101139
101141
101143
101144
101146
101148
101149
101151
101152
101154
101156
101157
101159
101161
101162
101164
101166
101167
101169
101170
101172
101174
101175
101177
101178
101180
101182
101183
101185
101186
101188
101189
101191
101192
101194
101195
101197
101198
101200
101201
101202
101204
101205
101207
101208
101209
101211
101212
101214
101215
101216
101218
101219
101220
101221
101223
101224
101225
101227
101228
101229
101230
101232
101233
101234
101235
101237
101238
101239
101240
101242
101243
101244
101245
101246
101248
101249
101250
101251
101253
101254
101255
101256
101258
101259
101260
101261
101263
101264
101265
101266
101268
101269
101270
101272
101273
101274
101276
101277
101278
101280
101281
101283
101284
101285
101287
101288
101290
101291
101293
101295
101296
101298
101300
101302
101304
101306
101308
101311
101313
101316
101318
101321
101322
101324
100249
100249
100247
100243
100238
100230
100221
100211
100201
100192
100184
100178
100175
100176
100179
100183
100189
100196
100202
100206
100209
100210
100209
100202
100191
100176
100152
100125
100094
100061
100025
99988.1
99953.1
99920.9
99891.5
99866.3
99846.1
99832
99828.4
99834.4
99846.7
99866.7
99893.4
99925.4
99961.7
100001
100043
100086
100129
100173
100216
100258
100300
100340
100379
100417
100454
100488
100522
100553
100581
100607
100629
100649
100664
100677
100686
100692
100696
100698
100698
100696
100693
100689
100683
100677
100671
100664
100657
100650
100643
100637
100631
100625
100620
100615
100610
100606
100602
100599
100595
100592
100589
100586
100583
100580
100577
100574
100572
100569
100567
100564
100562
100560
100558
100557
100556
100554
100554
100553
100552
100552
100552
100552
100552
100552
100553
100553
100554
100555
100555
100556
100557
100559
100560
100561
100563
100565
100566
100568
100570
100572
100574
100577
100579
100581
100584
100587
100590
100592
100595
100598
100602
100605
100608
100612
100615
100619
100622
100626
100630
100633
100637
100641
100645
100649
100653
100657
100661
100666
100670
100674
100678
100682
100686
100690
100695
100699
100703
100707
100711
100715
100719
100723
100727
100731
100735
100739
100743
100747
100750
100754
100758
100761
100765
100768
100772
100775
100779
100782
100785
100788
100791
100794
100797
100800
100803
100806
100808
100811
100814
100816
100819
100821
100823
100826
100828
100830
100833
100835
100837
100839
100841
100843
100845
100847
100849
100851
100853
100854
100856
100858
100860
100862
100864
100865
100867
100869
100871
100872
100874
100876
100878
100880
100881
100883
100885
100887
100889
100891
100893
100894
100896
100898
100900
100902
100904
100906
100908
100910
100913
100915
100917
100919
100921
100923
100926
100928
100930
100932
100935
100937
100939
100941
100944
100946
100948
100951
100953
100956
100958
100960
100963
100965
100967
100970
100972
100974
100977
100979
100982
100984
100986
100988
100991
100993
100995
100998
101000
101002
101004
101006
101008
101011
101013
101015
101017
101019
101021
101023
101025
101027
101028
101030
101032
101034
101036
101038
101039
101041
101043
101044
101046
101048
101049
101051
101053
101054
101056
101057
101059
101060
101062
101063
101065
101066
101067
101069
101070
101072
101073
101075
101076
101077
101079
101080
101081
101083
101084
101086
101087
101088
101090
101091
101092
101094
101095
101097
101098
101099
101101
101102
101104
101105
101107
101108
101110
101111
101113
101114
101116
101117
101119
101120
101122
101123
101125
101127
101128
101130
101131
101133
101134
101136
101138
101139
101141
101143
101144
101146
101148
101149
101151
101152
101154
101156
101157
101159
101161
101162
101164
101166
101167
101169
101170
101172
101174
101175
101177
101178
101180
101182
101183
101185
101186
101188
101189
101191
101192
101194
101195
101197
101198
101200
101201
101202
101204
101205
101207
101208
101209
101211
101212
101214
101215
101216
101218
101219
101220
101221
101223
101224
101225
101227
101228
101229
101230
101232
101233
101234
101235
101237
101238
101239
101240
101242
101243
101244
101245
101247
101248
101249
101250
101251
101253
101254
101255
101256
101258
101259
101260
101261
101263
101264
101265
101267
101268
101269
101271
101272
101273
101275
101276
101277
101279
101280
101281
101283
101284
101286
101287
101289
101290
101292
101293
101295
101296
101298
101300
101301
101303
101305
101307
101310
101312
101315
101317
101319
101321
101324
100252
100252
100249
100245
100239
100229
100219
100208
100197
100186
100177
100170
100166
100167
100170
100175
100182
100190
100197
100202
100206
100208
100204
100195
100180
100159
100133
100102
100068
100030
99991.8
99953.2
99915.5
99880.5
99850.1
99826.2
99808.7
99797.2
99794.8
99800.8
99813.8
99834.6
99862.5
99896.3
99934.9
99977.1
100021
100067
100113
100159
100204
100248
100291
100332
100372
100411
100447
100482
100515
100545
100574
100600
100622
100641
100657
100670
100679
100686
100690
100692
100692
100690
100687
100683
100678
100672
100665
100659
100652
100646
100639
100633
100627
100622
100617
100612
100608
100604
100600
100597
100594
100591
100588
100585
100582
100579
100576
100574
100571
100569
100567
100565
100562
100561
100559
100557
100556
100555
100554
100553
100553
100552
100552
100552
100552
100553
100553
100553
100554
100555
100556
100557
100558
100559
100560
100562
100563
100565
100566
100568
100570
100572
100574
100577
100579
100582
100584
100587
100590
100592
100595
100599
100602
100605
100608
100612
100615
100619
100622
100626
100630
100634
100637
100641
100645
100649
100653
100657
100661
100666
100670
100674
100678
100682
100686
100690
100695
100699
100703
100707
100711
100715
100719
100723
100727
100731
100735
100739
100743
100747
100750
100754
100758
100761
100765
100768
100772
100775
100779
100782
100785
100788
100791
100794
100797
100800
100803
100806
100808
100811
100814
100816
100819
100821
100823
100826
100828
100830
100833
100835
100837
100839
100841
100843
100845
100847
100849
100851
100853
100854
100856
100858
100860
100862
100864
100865
100867
100869
100871
100872
100874
100876
100878
100880
100881
100883
100885
100887
100889
100891
100893
100894
100896
100898
100900
100902
100904
100906
100908
100910
100913
100915
100917
100919
100921
100923
100926
100928
100930
100932
100935
100937
100939
100941
100944
100946
100948
100951
100953
100956
100958
100960
100963
100965
100967
100970
100972
100975
100977
100979
100982
100984
100986
100988
100991
100993
100995
100998
101000
101002
101004
101006
101008
101011
101013
101015
101017
101019
101021
101023
101025
101027
101029
101030
101032
101034
101036
101038
101039
101041
101043
101045
101046
101048
101049
101051
101053
101054
101056
101057
101059
101060
101062
101063
101065
101066
101068
101069
101070
101072
101073
101075
101076
101077
101079
101080
101081
101083
101084
101086
101087
101088
101090
101091
101092
101094
101095
101097
101098
101099
101101
101102
101104
101105
101107
101108
101110
101111
101113
101114
101116
101117
101119
101120
101122
101123
101125
101127
101128
101130
101131
101133
101135
101136
101138
101139
101141
101143
101144
101146
101148
101149
101151
101152
101154
101156
101157
101159
101161
101162
101164
101166
101167
101169
101170
101172
101174
101175
101177
101178
101180
101182
101183
101185
101186
101188
101189
101191
101192
101194
101195
101197
101198
101200
101201
101202
101204
101205
101207
101208
101209
101211
101212
101214
101215
101216
101218
101219
101220
101221
101223
101224
101225
101227
101228
101229
101230
101232
101233
101234
101235
101237
101238
101239
101240
101242
101243
101244
101245
101247
101248
101249
101250
101251
101253
101254
101255
101256
101258
101259
101260
101261
101263
101264
101265
101267
101268
101269
101271
101272
101273
101275
101276
101277
101279
101280
101281
101283
101284
101286
101287
101289
101290
101292
101293
101295
101297
101298
101300
101302
101304
101306
101308
101311
101313
101315
101318
101320
101322
101323
100257
100255
100253
100248
100240
100231
100220
100208
100195
100184
100174
100167
100163
100163
100166
100172
100180
100188
100195
100201
100204
100204
100198
100185
100167
100142
100112
100078
100041
100001
99960.2
99920.2
99882.3
99847.6
99817.4
99793.7
99776.2
99766.2
99766
99774
99790.1
99813.8
99844.9
99881.3
99922.1
99965.8
100011
100057
100103
100149
100193
100236
100279
100319
100359
100397
100433
100467
100499
100530
100558
100583
100606
100625
100641
100654
100664
100671
100676
100678
100679
100679
100677
100673
100669
100664
100658
100652
100646
100640
100634
100628
100623
100618
100613
100609
100605
100601
100598
100595
100592
100589
100586
100584
100581
100579
100576
100574
100571
100569
100567
100565
100563
100561
100560
100558
100557
100556
100555
100554
100553
100553
100553
100553
100553
100553
100553
100554
100554
100555
100556
100557
100558
100559
100560
100562
100563
100565
100566
100568
100570
100572
100574
100577
100579
100582
100584
100587
100590
100592
100595
100598
100602
100605
100608
100612
100615
100619
100622
100626
100630
100633
100637
100641
100645
100649
100653
100657
100661
100666
100670
100674
100678
100682
100686
100690
100695
100699
100703
100707
100711
100715
100719
100723
100727
100731
100735
100739
100743
100747
100750
100754
100758
100761
100765
100768
100772
100775
100779
100782
100785
100788
100791
100794
100797
100800
100803
100806
100808
100811
100814
100816
100819
100821
100823
100826
100828
100830
100832
100835
100837
100839
100841
100843
100845
100847
100849
100851
100853
100854
100856
100858
100860
100862
100863
100865
100867
100869
100871
100872
100874
100876
100878
100880
100881
100883
100885
100887
100889
100891
100893
100894
100896
100898
100900
100902
100904
100906
100908
100910
100913
100915
100917
100919
100921
100923
100925
100928
100930
100932
100935
100937
100939
100941
100944
100946
100948
100951
100953
100956
100958
100960
100963
100965
100967
100970
100972
100974
100977
100979
100982
100984
100986
100988
100991
100993
100995
100998
101000
101002
101004
101006
101008
101011
101013
101015
101017
101019
101021
101023
101025
101027
101028
101030
101032
101034
101036
101038
101039
101041
101043
101044
101046
101048
101049
101051
101053
101054
101056
101057
101059
101060
101062
101063
101065
101066
101067
101069
101070
101072
101073
101075
101076
101077
101079
101080
101081
101083
101084
101086
101087
101088
101090
101091
101092
101094
101095
101097
101098
101099
101101
101102
101104
101105
101107
101108
101110
101111
101113
101114
101116
101117
101119
101120
101122
101123
101125
101127
101128
101130
101131
101133
101134
101136
101138
101139
101141
101143
101144
101146
101148
101149
101151
101152
101154
101156
101157
101159
101161
101162
101164
101166
101167
101169
101170
101172
101174
101175
101177
101178
101180
101182
101183
101185
101186
101188
101189
101191
101192
101194
101195
101197
101198
101200
101201
101202
101204
101205
101207
101208
101209
101211
101212
101214
101215
101216
101218
101219
101220
101221
101223
101224
101225
101227
101228
101229
101230
101232
101233
101234
101235
101237
101238
101239
101240
101242
101243
101244
101245
101247
101248
101249
101250
101251
101253
101254
101255
101256
101258
101259
101260
101262
101263
101264
101265
101267
101268
101269
101271
101272
101273
101275
101276
101277
101279
101280
101282
101283
101285
101286
101287
101289
101291
101292
101294
101295
101297
101299
101300
101302
101304
101306
101308
101311
101313
101315
101317
101319
101322
101323
100262
100261
100257
100252
100244
100234
100222
100210
100196
100183
100172
100164
100159
100159
100162
100167
100174
100182
100189
100195
100199
100198
100189
100176
100155
100127
100095
100057
100017
99975.4
99933.1
99891.7
99853.1
99818.3
99788.5
99765.6
99748.6
99739.1
99739.1
99747.4
99764.4
99789.3
99821.9
99860.3
99903.2
99948.9
99996.2
100044
100091
100138
100183
100228
100271
100312
100351
100389
100425
100459
100491
100520
100547
100572
100594
100613
100629
100641
100651
100658
100663
100666
100667
100667
100665
100663
100659
100654
100649
100644
100639
100633
100628
100623
100618
100613
100609
100605
100602
100599
100596
100593
100590
100588
100585
100583
100580
100578
100576
100573
100571
100569
100567
100565
100563
100562
100560
100559
100558
100556
100556
100555
100554
100554
100554
100553
100553
100554
100554
100554
100555
100555
100556
100557
100558
100559
100560
100562
100563
100565
100567
100568
100570
100572
100574
100577
100579
100582
100584
100587
100590
100592
100595
100598
100602
100605
100608
100612
100615
100619