/*--------------------------------*- C++ -*----------------------------------*\
| =========                 |                                                 |
| \\      /  F ield         | OpenFOAM: The Open Source CFD Toolbox           |
|  \\    /   O peration     | Version:  v1812                                 |
|   \\  /    A nd           | Web:      www.OpenFOAM.com                      |
|    \\/     M anipulation  |                                                 |
\*---------------------------------------------------------------------------*/
FoamFile
{
    version     2.0;
    format      ascii;
    class       surfaceScalarField;
    location    "0.3";
    object      phi;
}
// * * * * * * * * * * * * * * * * * * * * * * * * * * * * * * * * * * * * * //

dimensions      [1 0 -1 0 0 0 0];
oriented        oriented;


internalField   nonuniform List<scalar> 
40240
(
-0.000490713
-7.37587e-05
-0.000500825
-0.000554201
-5.26749e-05
-0.00101212
0.000927639
-0.00154393
0.00227248
-0.00190784
0.00369511
-0.00198454
0.00494301
-0.0018082
0.00584229
-0.00145783
0.00617191
-0.000885704
0.00604459
-0.000426147
0.00531943
0.00017485
0.0040913
0.000681167
0.00257255
0.000975185
0.000914726
0.00111879
-0.000687743
0.00106882
-0.00219946
0.00098144
-0.00354831
0.000823198
-0.00458301
0.000513217
-0.00524319
0.000142779
-0.00549553
-0.000260714
-0.00545342
-0.000552486
-0.00512317
-0.00083775
-0.00459016
-0.0010356
-0.00399989
-0.00108671
-0.0037472
-0.000746148
-0.00371395
-0.000522057
-0.00393976
-0.00025653
-0.00446233
4.68275e-05
-0.00534532
0.000414159
-0.00657061
0.000763412
-0.00833779
0.00131239
-0.0108654
0.00207968
-0.0142328
0.00292632
-0.0184126
0.00374592
-0.0232743
0.00443443
-0.0285646
0.00487067
-0.0339788
0.00500133
-0.0393233
0.00493693
-0.0443765
0.0046538
-0.049005
0.00423653
-0.0530981
0.0037068
-0.0565827
0.00310474
-0.0594519
0.00249565
-0.0616043
0.00178507
-0.0631791
0.00121397
-0.0640753
0.000541275
-0.0644361
1.25543e-05
-0.0643006
-0.000477211
-0.0636391
-0.000996285
-0.0626371
-0.00133041
-0.061273
-0.00168582
-0.059622
-0.00196639
-0.0577637
-0.00216715
-0.0556234
-0.00244284
-0.0532825
-0.00263715
-0.0507962
-0.0027763
-0.0481515
-0.00292879
-0.0453757
-0.00305387
-0.0424971
-0.00315092
-0.0395495
-0.00321394
-0.0365733
-0.00323687
-0.0336109
-0.00321726
-0.030706
-0.00315391
-0.0279007
-0.00304873
-0.0252301
-0.00290816
-0.0227342
-0.00272787
-0.0204352
-0.00252569
-0.0183483
-0.00230686
-0.0164783
-0.0020856
-0.0148433
-0.00184719
-0.0134387
-0.00160924
-0.0122464
-0.00139019
-0.0112847
-0.00115061
-0.0104407
-0.00102529
-0.010325
-0.000294829
-0.0101251
-0.000378391
-0.00992996
-0.000369088
-0.0098159
-0.00028447
-0.00979567
-0.000186081
-0.00985037
-0.000106536
-0.00998025
-2.65828e-05
-0.0101549
2.2789e-05
-0.0103712
6.91295e-05
-0.0106138
9.98976e-05
-0.0108764
0.000124471
-0.0111486
0.000138569
-0.011425
0.000147267
-0.0117004
0.000150555
-0.011959
0.000138835
-0.0121759
0.000102375
-0.0122816
-6.94845e-06
-0.0126077
0.00022254
-0.0129005
0.000187523
-0.0131725
0.000170399
-0.0134328
0.000161841
-0.0136804
0.00015201
-0.0139131
0.000140352
-0.0141359
0.000133312
-0.0143459
0.000123342
-0.0145447
0.000114763
-0.0147291
0.000102956
-0.0148987
9.05493e-05
-0.0150511
7.56893e-05
-0.0151851
5.93851e-05
-0.0152992
4.16348e-05
-0.0153929
2.32878e-05
-0.0154659
4.36257e-06
-0.0155184
-1.42191e-05
-0.0155515
-3.19091e-05
-0.0155658
-4.89422e-05
-0.0155631
-6.44398e-05
-0.0155475
-7.60024e-05
-0.0155222
-8.43037e-05
-0.0154855
-9.43372e-05
-0.0154401
-0.000101746
-0.0153888
-0.000106419
-0.0153335
-0.000109354
-0.0152736
-0.000112858
-0.0152112
-0.000114311
-0.0151473
-0.000114937
-0.0150825
-0.000114848
-0.0150175
-0.000114262
-0.0149527
-0.000113231
-0.0148886
-0.000111835
-0.0148254
-0.000110178
-0.0147634
-0.000108378
-0.0147027
-0.000106422
-0.0146435
-0.000104383
-0.0145858
-0.000102323
-0.0145296
-0.000100291
-0.014475
-9.82616e-05
-0.0144219
-9.62649e-05
-0.0143703
-9.43528e-05
-0.0143201
-9.25024e-05
-0.0142713
-9.07032e-05
-0.014224
-8.89685e-05
-0.0141779
-8.73098e-05
-0.0141331
-8.57428e-05
-0.0140895
-8.42358e-05
-0.014047
-8.27898e-05
-0.0140056
-8.14155e-05
-0.0139652
-8.01059e-05
-0.0139258
-7.8864e-05
-0.0138873
-7.7678e-05
-0.0138496
-7.65467e-05
-0.0138128
-7.54706e-05
-0.0137767
-7.4426e-05
-0.0137414
-7.34255e-05
-0.0137067
-7.24838e-05
-0.0136727
-7.15756e-05
-0.0136393
-7.0704e-05
-0.0136064
-6.98736e-05
-0.013574
-6.90719e-05
-0.0135421
-6.83016e-05
-0.0135107
-6.75664e-05
-0.0134796
-6.68538e-05
-0.0134489
-6.61684e-05
-0.0134185
-6.55206e-05
-0.0133885
-6.48875e-05
-0.0133586
-6.42713e-05
-0.013329
-6.368e-05
-0.0132997
-6.31094e-05
-0.0132704
-6.25534e-05
-0.0132414
-6.20145e-05
-0.0132124
-6.14939e-05
-0.0131835
-6.09836e-05
-0.0131547
-6.04868e-05
-0.013126
-6.0006e-05
-0.0130972
-5.95316e-05
-0.0130685
-5.90712e-05
-0.0130398
-5.86234e-05
-0.013011
-5.8194e-05
-0.0129821
-5.7711e-05
-0.0129532
-5.73665e-05
-0.0129242
-5.68812e-05
-0.0128951
-5.65069e-05
-0.0128659
-5.60982e-05
-0.0128366
-5.56921e-05
-0.0128071
-5.52995e-05
-0.0127774
-5.49078e-05
-0.0127477
-5.45285e-05
-0.0127177
-5.41489e-05
-0.0126876
-5.37691e-05
-0.0126573
-5.33976e-05
-0.0126268
-5.30275e-05
-0.0125962
-5.26582e-05
-0.0125653
-5.2295e-05
-0.0125343
-5.19347e-05
-0.0125032
-5.15736e-05
-0.0124718
-5.12145e-05
-0.0124402
-5.0858e-05
-0.0124085
-5.05053e-05
-0.0123767
-5.01508e-05
-0.0123446
-4.98012e-05
-0.0123124
-4.94516e-05
-0.0122801
-4.91028e-05
-0.0122476
-4.87506e-05
-0.012215
-4.84042e-05
-0.0121823
-4.80559e-05
-0.0121495
-4.77096e-05
-0.0121166
-4.73647e-05
-0.0120836
-4.70224e-05
-0.0120506
-4.6679e-05
-0.0120174
-4.63351e-05
-0.0119843
-4.59948e-05
-0.0119511
-4.56545e-05
-0.011918
-4.53161e-05
-0.0118848
-4.49779e-05
-0.0118516
-4.46444e-05
-0.0118185
-4.43064e-05
-0.0117855
-4.39721e-05
-0.0117525
-4.36371e-05
-0.0117196
-4.33063e-05
-0.0116868
-4.29737e-05
-0.0116541
-4.2646e-05
-0.0116215
-4.2317e-05
-0.0115892
-4.19907e-05
-0.0115569
-4.16618e-05
-0.0115249
-4.13389e-05
-0.0114931
-4.10172e-05
-0.0114615
-4.06985e-05
-0.0114301
-4.03806e-05
-0.0113989
-4.00674e-05
-0.011368
-3.97523e-05
-0.0113374
-3.94407e-05
-0.0113071
-3.91328e-05
-0.0112771
-3.8829e-05
-0.0112474
-3.85257e-05
-0.011218
-3.82237e-05
-0.0111889
-3.79215e-05
-0.0111602
-3.76245e-05
-0.0111319
-3.73312e-05
-0.0111039
-3.70403e-05
-0.0110763
-3.67556e-05
-0.011049
-3.64703e-05
-0.0110222
-3.61824e-05
-0.0109957
-3.58994e-05
-0.0109697
-3.56228e-05
-0.010944
-3.5347e-05
-0.0109188
-3.50777e-05
-0.0108939
-3.48143e-05
-0.0108695
-3.455e-05
-0.0108455
-3.4287e-05
-0.0108219
-3.40297e-05
-0.0107987
-3.37756e-05
-0.0107759
-3.35235e-05
-0.0107535
-3.32765e-05
-0.0107315
-3.30323e-05
-0.0107099
-3.27896e-05
-0.0106887
-3.25495e-05
-0.010668
-3.23135e-05
-0.0106476
-3.2081e-05
-0.0106275
-3.18518e-05
-0.0106079
-3.16263e-05
-0.0105886
-3.14038e-05
-0.0105697
-3.11837e-05
-0.0105511
-3.09667e-05
-0.0105329
-3.07536e-05
-0.010515
-3.05426e-05
-0.0104974
-3.03345e-05
-0.0104801
-3.013e-05
-0.0104632
-2.99271e-05
-0.0104465
-2.97265e-05
-0.0104301
-2.95286e-05
-0.0104139
-2.9333e-05
-0.010398
-2.91391e-05
-0.0103824
-2.89481e-05
-0.010367
-2.87598e-05
-0.0103517
-2.85741e-05
-0.0103367
-2.83905e-05
-0.0103219
-2.82096e-05
-0.0103073
-2.80312e-05
-0.0102928
-2.78537e-05
-0.0102785
-2.76779e-05
-0.0102644
-2.75039e-05
-0.0102503
-2.73313e-05
-0.0102364
-2.71596e-05
-0.0102226
-2.69889e-05
-0.0102089
-2.68194e-05
-0.0101952
-2.66504e-05
-0.0101817
-2.64823e-05
-0.0101682
-2.63145e-05
-0.0101548
-2.61475e-05
-0.0101414
-2.59812e-05
-0.010128
-2.58155e-05
-0.0101147
-2.56519e-05
-0.0101014
-2.54904e-05
-0.0100881
-2.53306e-05
-0.0100748
-2.51719e-05
-0.0100615
-2.50133e-05
-0.0100482
-2.4855e-05
-0.0100349
-2.46971e-05
-0.0100216
-2.45395e-05
-0.0100082
-2.43815e-05
-0.00999478
-2.42234e-05
-0.00998134
-2.40647e-05
-0.00996786
-2.39056e-05
-0.00995435
-2.37475e-05
-0.00994079
-2.35911e-05
-0.00992719
-2.34357e-05
-0.00991354
-2.328e-05
-0.00989984
-2.31243e-05
-0.00988609
-2.29674e-05
-0.0098723
-2.28096e-05
-0.00985847
-2.26519e-05
-0.00984459
-2.24944e-05
-0.00983067
-2.23371e-05
-0.00981671
-2.21804e-05
-0.00980272
-2.20228e-05
-0.00978869
-2.18643e-05
-0.00977463
-2.17051e-05
-0.00976055
-2.15457e-05
-0.00974644
-2.13866e-05
-0.00973232
-2.12276e-05
-0.00971819
-2.10688e-05
-0.00970405
-2.09095e-05
-0.00968992
-2.07493e-05
-0.00967579
-2.05886e-05
-0.00966166
-2.04286e-05
-0.00964756
-2.02696e-05
-0.00963348
-2.01116e-05
-0.00961942
-1.99549e-05
-0.00960539
-1.97991e-05
-0.00959141
-1.96431e-05
-0.00957747
-1.94871e-05
-0.00956358
-1.93318e-05
-0.00954974
-1.91775e-05
-0.00953597
-1.90254e-05
-0.00952227
-1.88757e-05
-0.00950864
-1.87273e-05
-0.00949508
-1.85793e-05
-0.00948161
-1.84293e-05
-0.00946824
-1.8277e-05
-0.00945497
-1.81233e-05
-0.0094418
-1.79695e-05
-0.00942876
-1.78185e-05
-0.00941582
-1.76708e-05
-0.00940301
-1.75246e-05
-0.00939032
-1.73794e-05
-0.00937776
-1.72339e-05
-0.00936533
-1.70869e-05
-0.00935305
-1.69387e-05
-0.00934092
-1.67905e-05
-0.00932893
-1.6644e-05
-0.0093171
-1.64997e-05
-0.00930541
-1.63585e-05
-0.00929389
-1.62205e-05
-0.00928251
-1.60852e-05
-0.00927129
-1.59518e-05
-0.00926022
-1.58194e-05
-0.00924931
-1.56872e-05
-0.00923856
-1.55548e-05
-0.00922797
-1.54217e-05
-0.00921755
-1.52876e-05
-0.00920729
-1.51529e-05
-0.0091972
-1.50192e-05
-0.00918727
-1.48886e-05
-0.00917751
-1.4763e-05
-0.00916789
-1.46423e-05
-0.00915843
-1.4525e-05
-0.00914911
-1.441e-05
-0.00913994
-1.42957e-05
-0.00913091
-1.41813e-05
-0.00912203
-1.40665e-05
-0.00911329
-1.39516e-05
-0.00910469
-1.3836e-05
-0.00909623
-1.37204e-05
-0.0090879
-1.36055e-05
-0.00907971
-1.34917e-05
-0.00907164
-1.33792e-05
-0.0090637
-1.32683e-05
-0.00905589
-1.31586e-05
-0.00904819
-1.30493e-05
-0.0090406
-1.29406e-05
-0.00903314
-1.28306e-05
-0.00902579
-1.27146e-05
-0.00901859
-1.25856e-05
-0.00901158
-1.24199e-05
-0.00900487
-1.21775e-05
-0.00899851
-1.19773e-05
-0.00899115
-1.31759e-05
-0.00898393
-1.28945e-05
-0.00897716
-1.19592e-05
-0.00897021
-1.18117e-05
-0.00896322
-1.17551e-05
-0.00895672
-1.12733e-05
-0.00895022
-1.12096e-05
-0.00894358
-1.12655e-05
-0.00893692
-1.12557e-05
-0.00893059
-1.09731e-05
-0.00892428
-1.09799e-05
-0.0089179
-1.10478e-05
-0.00891171
-1.08526e-05
-0.00890553
-1.0832e-05
-0.00889931
-1.08554e-05
-0.00889322
-1.06817e-05
-0.00888715
-1.06269e-05
-0.00888103
-1.06148e-05
-0.00887502
-1.04619e-05
-0.00886903
-1.03798e-05
-0.00886302
-1.03287e-05
-0.00885697
-1.03111e-05
-0.00885101
-1.01467e-05
-0.00884506
-1.00538e-05
-0.00883909
-1.00041e-05
-0.00883319
-9.86234e-06
-0.0088273
-9.76222e-06
-0.00882142
-9.69355e-06
-0.00881548
-9.65844e-06
-0.00880962
-9.51324e-06
-0.00880378
-9.42238e-06
-0.00879791
-9.36383e-06
-0.0087921
-9.2321e-06
-0.00878632
-9.13009e-06
-0.00878053
-9.06101e-06
-0.00877472
-9.01706e-06
-0.00876896
-8.88737e-06
-0.00876324
-8.77805e-06
-0.00875752
-8.70837e-06
-0.00875179
-8.65924e-06
-0.00874611
-8.53795e-06
-0.00874047
-8.43301e-06
-0.00873486
-8.34775e-06
-0.00872924
-8.29011e-06
-0.00872362
-8.23572e-06
-0.00871806
-8.10917e-06
-0.00871256
-8.00142e-06
-0.00870707
-7.93612e-06
-0.00870158
-7.87853e-06
-0.00869617
-7.75886e-06
-0.0086908
-7.66475e-06
-0.00868548
-7.5785e-06
-0.00868016
-7.53149e-06
-0.00867485
-7.47597e-06
-0.00866962
-7.36446e-06
-0.00866443
-7.28308e-06
-0.00865928
-7.20763e-06
-0.00865415
-7.16336e-06
-0.00864904
-7.11226e-06
-0.00864399
-7.01852e-06
-0.00863899
-6.94143e-06
-0.00863403
-6.88353e-06
-0.00862909
-6.83064e-06
-0.00862416
-6.80363e-06
-0.00861924
-6.77284e-06
-0.00861439
-6.68949e-06
-0.00860957
-6.63889e-06
-0.00860477
-6.60323e-06
-0.00859997
-6.58803e-06
-0.00859517
-6.57664e-06
-0.00859036
-6.5726e-06
-0.00858554
-6.58256e-06
-0.00858066
-6.62336e-06
-0.00857573
-6.66166e-06
-0.00857081
-6.64604e-06
-0.00856585
-6.68574e-06
-0.00856084
-6.71845e-06
-0.00855575
-6.78897e-06
-0.00855057
-6.88048e-06
-0.00854528
-6.98146e-06
-0.00853986
-7.09975e-06
-0.00853429
-7.24094e-06
-0.00852852
-7.4279e-06
-0.00852252
-7.65949e-06
-0.00851638
-7.79096e-06
-0.00851002
-8.00591e-06
-0.00850332
-8.34389e-06
-0.00849633
-8.62182e-06
-0.00848892
-9.03572e-06
-0.00848124
-9.30869e-06
-0.00847313
-9.72764e-06
-0.00846464
-1.01054e-05
-0.00845571
-1.05433e-05
-0.0084463
-1.1018e-05
-0.00843664
-1.1245e-05
-0.00842667
-1.15616e-05
-0.00841626
-1.19855e-05
-0.00840557
-1.22614e-05
-0.00839431
-1.2796e-05
-0.00838227
-1.3542e-05
-0.00836884
-1.49124e-05
-0.00835122
-1.94466e-05
-0.00833334
-2.04704e-05
-0.00830442
-3.29362e-05
-0.00825729
-5.37841e-05
-0.00824859
-1.45871e-05
-0.00826699
1.32048e-05
-0.008311
3.90529e-05
-0.00837599
6.04065e-05
-0.00843718
5.73265e-05
-0.00845191
1.18314e-05
-0.00836847
-8.53392e-05
-0.00813532
-0.000234213
-0.00771031
-0.00042546
-0.00709093
-0.000619418
-0.00635741
-0.00073334
-0.00551443
-0.000842645
-0.0047695
-0.000744665
-0.0040779
-0.00069155
-0.000613241
-0.000430548
-0.000208292
-0.000104415
-0.0014452
0.00128913
-0.00297032
0.00332816
-0.00414757
0.00569074
-0.00483484
0.00804168
-0.00489908
0.0102043
-0.00453299
0.0120108
-0.00382482
0.013426
-0.00285896
0.0142303
-0.0017854
0.0143086
-0.000455223
0.0136036
0.000837554
0.011993
0.00204106
0.0097212
0.00285044
0.00699378
0.00326072
0.00418845
0.00325576
0.00159286
0.00289261
-0.000583004
0.00216741
-0.00216925
0.00121163
-0.00311813
0.000174447
-0.00352243
-0.00066001
-0.00383994
-0.00103049
-0.00425325
-0.00113089
-0.0048893
-0.00095523
-0.00602724
-0.00010913
-0.00809092
0.00104723
-0.0112059
0.00237231
-0.0155663
0.00392985
-0.0211868
0.00556535
-0.028094
0.007209
-0.0361136
0.008878
-0.0448967
0.0104157
-0.0539618
0.0115513
-0.0628646
0.0122153
-0.0712404
0.0123832
-0.0788862
0.0120976
-0.0856361
0.0113388
-0.0911838
0.0100784
-0.0954423
0.00851304
-0.0986385
0.00704083
-0.10083
0.00551272
-0.102068
0.00396405
-0.10241
0.00246614
-0.102013
0.0010251
-0.100822
-0.000332511
-0.0992568
-0.00137074
-0.0971295
-0.00245434
-0.0947523
-0.00318636
-0.0921527
-0.00392052
-0.0893674
-0.00443322
-0.086417
-0.00494663
-0.0832963
-0.00539063
-0.0799765
-0.00578391
-0.0764828
-0.00622667
-0.0727935
-0.00660997
-0.0689738
-0.00687377
-0.0650306
-0.00714407
-0.0609704
-0.00738008
-0.0568217
-0.00756041
-0.0526194
-0.00767165
-0.0484093
-0.00769734
-0.044241
-0.00763091
-0.040165
-0.00747011
-0.0362278
-0.00722095
-0.0324728
-0.00689275
-0.0289309
-0.00649352
-0.0256371
-0.00603803
-0.0226231
-0.00553539
-0.0199158
-0.00500182
-0.017497
-0.004472
-0.0153737
-0.00393409
-0.0135552
-0.00340209
-0.0120355
-0.0028618
-0.0107644
-0.00248221
-0.00926271
-0.00197206
-0.00828007
-0.00153132
-0.00767278
-0.00114301
-0.00730797
-0.000811435
-0.00712558
-0.000525956
-0.00709433
-0.000290535
-0.00718578
-8.31396e-05
-0.00738728
8.07297e-05
-0.0076794
0.000221913
-0.00805432
0.000339494
-0.00849663
0.000435356
-0.00899559
0.000509901
-0.00954249
0.000570241
-0.0101323
0.000620075
-0.0107697
0.000659224
-0.0114733
0.000691333
-0.0123087
0.000716502
-0.0129807
0.000782485
-0.0136441
0.000747545
-0.014298
0.00072346
-0.0149557
0.000722086
-0.0155985
0.000700263
-0.0162254
0.000675492
-0.016829
0.000647807
-0.017405
0.000612929
-0.0179479
0.000573753
-0.0184547
0.00052831
-0.0189221
0.000478775
-0.0193482
0.000424931
-0.0197317
0.000368278
-0.0200724
0.000309704
-0.0203702
0.000250538
-0.0206265
0.000191993
-0.0208431
0.000135453
-0.0210219
8.18823e-05
-0.0211663
3.19821e-05
-0.0212796
-1.29719e-05
-0.021365
-5.0958e-05
-0.0214259
-8.2338e-05
-0.0214675
-0.000110457
-0.0214941
-0.000131469
-0.0215084
-0.00014731
-0.0215125
-0.000159262
-0.0215098
-0.000168432
-0.0215009
-0.00017514
-0.0214877
-0.000179039
-0.0214714
-0.000181175
-0.0214532
-0.000181673
-0.0214338
-0.000181005
-0.0214139
-0.000179268
-0.0213942
-0.000176812
-0.021375
-0.000173867
-0.0213566
-0.000170481
-0.0213392
-0.000166841
-0.0213229
-0.000163085
-0.0213079
-0.000159281
-0.0212942
-0.000155483
-0.0212818
-0.000151705
-0.0212707
-0.00014805
-0.0212609
-0.000144524
-0.0212524
-0.000141088
-0.021245
-0.000137791
-0.0212388
-0.000134655
-0.0212336
-0.000131676
-0.0212295
-0.000128847
-0.0212263
-0.00012614
-0.021224
-0.000123584
-0.0212225
-0.000121174
-0.0212217
-0.000118895
-0.0212217
-0.000116733
-0.0212223
-0.000114699
-0.0212234
-0.000112777
-0.0212251
-0.000110964
-0.0212272
-0.000109246
-0.0212297
-0.000107613
-0.0212326
-0.000106046
-0.0212359
-0.000104574
-0.0212394
-0.000103175
-0.0212431
-0.000101849
-0.0212471
-0.000100599
-0.0212511
-9.94122e-05
-0.0212553
-9.82844e-05
-0.0212595
-9.72205e-05
-0.0212638
-9.62142e-05
-0.021268
-9.52444e-05
-0.0212722
-9.43202e-05
-0.0212763
-9.34462e-05
-0.0212804
-9.26091e-05
-0.0212842
-9.18064e-05
-0.0212879
-9.10416e-05
-0.0212914
-9.03077e-05
-0.0212947
-8.96008e-05
-0.0212977
-8.89247e-05
-0.0213005
-8.82761e-05
-0.021303
-8.76478e-05
-0.0213051
-8.7047e-05
-0.0213069
-8.64682e-05
-0.0213084
-8.58852e-05
-0.0213093
-8.53756e-05
-0.0213101
-8.47781e-05
-0.0213104
-8.43224e-05
-0.0213103
-8.3781e-05
-0.0213097
-8.3292e-05
-0.0213087
-8.28166e-05
-0.0213072
-8.23427e-05
-0.0213052
-8.18895e-05
-0.0213028
-8.14411e-05
-0.0212999
-8.09954e-05
-0.0212965
-8.05589e-05
-0.0212926
-8.01333e-05
-0.0212882
-7.97087e-05
-0.0212833
-7.9294e-05
-0.0212779
-7.88808e-05
-0.021272
-7.84788e-05
-0.0212656
-7.80687e-05
-0.0212587
-7.76718e-05
-0.0212514
-7.72718e-05
-0.0212435
-7.68846e-05
-0.0212352
-7.64893e-05
-0.0212263
-7.61068e-05
-0.021217
-7.57166e-05
-0.0212073
-7.53322e-05
-0.0211971
-7.49407e-05
-0.0211864
-7.45595e-05
-0.0211754
-7.41739e-05
-0.0211639
-7.37917e-05
-0.021152
-7.34108e-05
-0.0211397
-7.30305e-05
-0.0211271
-7.26503e-05
-0.0211141
-7.22669e-05
-0.0211007
-7.18911e-05
-0.0210871
-7.15105e-05
-0.0210731
-7.11356e-05
-0.0210588
-7.0755e-05
-0.0210442
-7.03826e-05
-0.0210294
-6.99986e-05
-0.0210144
-6.96231e-05
-0.0209991
-6.92408e-05
-0.0209836
-6.88668e-05
-0.020968
-6.84844e-05
-0.0209522
-6.81104e-05
-0.0209362
-6.77283e-05
-0.0209202
-6.73519e-05
-0.020904
-6.6967e-05
-0.0208877
-6.65922e-05
-0.0208714
-6.62132e-05
-0.020855
-6.58398e-05
-0.0208386
-6.54619e-05
-0.0208222
-6.50909e-05
-0.0208058
-6.47121e-05
-0.0207894
-6.4339e-05
-0.0207731
-6.39655e-05
-0.0207568
-6.35965e-05
-0.0207406
-6.3224e-05
-0.0207245
-6.28523e-05
-0.0207085
-6.24773e-05
-0.0206926
-6.21065e-05
-0.0206769
-6.17384e-05
-0.0206613
-6.13702e-05
-0.0206458
-6.10078e-05
-0.0206306
-6.06412e-05
-0.0206155
-6.02715e-05
-0.0206006
-5.99046e-05
-0.020586
-5.95448e-05
-0.0205715
-5.91839e-05
-0.0205573
-5.88299e-05
-0.0205433
-5.84808e-05
-0.0205295
-5.81284e-05
-0.0205159
-5.77769e-05
-0.0205026
-5.74295e-05
-0.0204896
-5.70851e-05
-0.0204768
-5.67405e-05
-0.0204643
-5.64016e-05
-0.020452
-5.60635e-05
-0.0204399
-5.57262e-05
-0.0204281
-5.53911e-05
-0.0204166
-5.50596e-05
-0.0204053
-5.47317e-05
-0.0203943
-5.44061e-05
-0.0203835
-5.40848e-05
-0.020373
-5.37652e-05
-0.0203627
-5.34485e-05
-0.0203526
-5.31343e-05
-0.0203427
-5.28244e-05
-0.0203331
-5.25158e-05
-0.0203236
-5.22102e-05
-0.0203144
-5.19084e-05
-0.0203054
-5.16074e-05
-0.0202965
-5.13092e-05
-0.0202878
-5.10135e-05
-0.0202793
-5.07206e-05
-0.020271
-5.04292e-05
-0.0202628
-5.01417e-05
-0.0202547
-4.98575e-05
-0.0202468
-4.95763e-05
-0.020239
-4.92979e-05
-0.0202313
-4.90224e-05
-0.0202236
-4.87501e-05
-0.0202161
-4.84785e-05
-0.0202086
-4.8209e-05
-0.0202012
-4.79415e-05
-0.0201939
-4.76753e-05
-0.0201865
-4.74103e-05
-0.0201793
-4.71463e-05
-0.020172
-4.68839e-05
-0.0201647
-4.66224e-05
-0.0201575
-4.6362e-05
-0.0201502
-4.61027e-05
-0.0201429
-4.58447e-05
-0.0201356
-4.55887e-05
-0.0201283
-4.53343e-05
-0.0201209
-4.50836e-05
-0.0201134
-4.48364e-05
-0.0201059
-4.4592e-05
-0.0200983
-4.43494e-05
-0.0200906
-4.41071e-05
-0.0200828
-4.38656e-05
-0.020075
-4.36246e-05
-0.020067
-4.33844e-05
-0.020059
-4.31437e-05
-0.0200508
-4.29033e-05
-0.0200425
-4.26623e-05
-0.0200342
-4.24218e-05
-0.0200257
-4.21831e-05
-0.020017
-4.19469e-05
-0.0200083
-4.17123e-05
-0.0199994
-4.14771e-05
-0.0199904
-4.12419e-05
-0.0199813
-4.10047e-05
-0.0199721
-4.07666e-05
-0.0199627
-4.05283e-05
-0.0199532
-4.02906e-05
-0.0199436
-4.00529e-05
-0.0199339
-3.98157e-05
-0.0199241
-3.9577e-05
-0.0199141
-3.93369e-05
-0.0199041
-3.90959e-05
-0.019894
-3.88545e-05
-0.0198837
-3.86136e-05
-0.0198734
-3.83725e-05
-0.019863
-3.81319e-05
-0.0198524
-3.78905e-05
-0.0198419
-3.7648e-05
-0.0198312
-3.74053e-05
-0.0198205
-3.71639e-05
-0.0198097
-3.6924e-05
-0.0197988
-3.66858e-05
-0.0197879
-3.64493e-05
-0.019777
-3.6214e-05
-0.019766
-3.59781e-05
-0.019755
-3.57422e-05
-0.019744
-3.55072e-05
-0.0197329
-3.52734e-05
-0.0197219
-3.5042e-05
-0.0197108
-3.48128e-05
-0.0196997
-3.4584e-05
-0.0196887
-3.43538e-05
-0.0196777
-3.41194e-05
-0.0196667
-3.38807e-05
-0.0196557
-3.36392e-05
-0.0196448
-3.33974e-05
-0.0196339
-3.31591e-05
-0.0196231
-3.29243e-05
-0.0196123
-3.26907e-05
-0.0196016
-3.24571e-05
-0.019591
-3.22218e-05
-0.0195805
-3.19836e-05
-0.01957
-3.17434e-05
-0.0195597
-3.15031e-05
-0.0195494
-3.12652e-05
-0.0195393
-3.10305e-05
-0.0195292
-3.08e-05
-0.0195192
-3.05737e-05
-0.0195094
-3.03504e-05
-0.0194996
-3.0129e-05
-0.01949
-2.99079e-05
-0.0194805
-2.96857e-05
-0.0194711
-2.94624e-05
-0.0194618
-2.92372e-05
-0.0194526
-2.90103e-05
-0.0194436
-2.8783e-05
-0.0194347
-2.8558e-05
-0.0194259
-2.83381e-05
-0.0194172
-2.81256e-05
-0.0194087
-2.79201e-05
-0.0194002
-2.77186e-05
-0.0193919
-2.75193e-05
-0.0193837
-2.73198e-05
-0.0193756
-2.71188e-05
-0.0193677
-2.69159e-05
-0.0193598
-2.67116e-05
-0.0193521
-2.65056e-05
-0.0193444
-2.62989e-05
-0.0193369
-2.60927e-05
-0.0193295
-2.58877e-05
-0.0193222
-2.56845e-05
-0.019315
-2.54834e-05
-0.019308
-2.52837e-05
-0.019301
-2.50845e-05
-0.0192941
-2.48858e-05
-0.0192873
-2.46843e-05
-0.0192806
-2.44744e-05
-0.019274
-2.4246e-05
-0.0192676
-2.39255e-05
-0.0192614
-2.34172e-05
-0.0192567
-2.20145e-05
-0.0192493
-2.63416e-05
-0.0192432
-2.47163e-05
-0.0192365
-2.3719e-05
-0.0192301
-2.29947e-05
-0.0192241
-2.25024e-05
-0.0192178
-2.22167e-05
-0.0192114
-2.22029e-05
-0.0192055
-2.16976e-05
-0.0191997
-2.15894e-05
-0.0191937
-2.14763e-05
-0.0191877
-2.14525e-05
-0.0191819
-2.12598e-05
-0.019176
-2.11521e-05
-0.01917
-2.11048e-05
-0.0191643
-2.09175e-05
-0.0191585
-2.07744e-05
-0.0191526
-2.07034e-05
-0.0191468
-2.0529e-05
-0.0191411
-2.03284e-05
-0.0191352
-2.02695e-05
-0.0191295
-2.00466e-05
-0.0191238
-1.9895e-05
-0.0191181
-1.97007e-05
-0.0191123
-1.96212e-05
-0.0191065
-1.94318e-05
-0.0191008
-1.9213e-05
-0.019095
-1.91212e-05
-0.0190892
-1.892e-05
-0.0190835
-1.87564e-05
-0.0190778
-1.85652e-05
-0.0190719
-1.84809e-05
-0.0190662
-1.82989e-05
-0.0190604
-1.80924e-05
-0.0190545
-1.79971e-05
-0.0190487
-1.78212e-05
-0.0190429
-1.76568e-05
-0.0190371
-1.7464e-05
-0.0190313
-1.73829e-05
-0.0190254
-1.72067e-05
-0.0190196
-1.7052e-05
-0.0190138
-1.68821e-05
-0.0190079
-1.67831e-05
-0.019002
-1.66078e-05
-0.0189962
-1.64654e-05
-0.0189904
-1.63142e-05
-0.0189845
-1.61475e-05
-0.0189786
-1.60623e-05
-0.0189728
-1.59145e-05
-0.0189669
-1.57602e-05
-0.0189611
-1.5619e-05
-0.0189552
-1.55225e-05
-0.0189492
-1.53849e-05
-0.0189434
-1.52773e-05
-0.0189375
-1.51756e-05
-0.0189316
-1.50617e-05
-0.0189256
-1.49831e-05
-0.0189197
-1.48731e-05
-0.0189137
-1.47844e-05
-0.0189077
-1.47402e-05
-0.0189017
-1.46794e-05
-0.0188956
-1.46407e-05
-0.0188894
-1.45752e-05
-0.0188833
-1.45352e-05
-0.018877
-1.45344e-05
-0.0188707
-1.45859e-05
-0.0188643
-1.46151e-05
-0.0188577
-1.46739e-05
-0.018851
-1.47528e-05
-0.0188441
-1.4855e-05
-0.0188371
-1.50132e-05
-0.0188299
-1.51958e-05
-0.0188224
-1.54441e-05
-0.0188147
-1.57195e-05
-0.0188066
-1.60671e-05
-0.0187982
-1.64929e-05
-0.0187893
-1.69372e-05
-0.0187799
-1.7445e-05
-0.0187699
-1.80704e-05
-0.0187593
-1.87673e-05
-0.018748
-1.95879e-05
-0.0187359
-2.05081e-05
-0.0187229
-2.15607e-05
-0.0187089
-2.27202e-05
-0.0186938
-2.4068e-05
-0.0186773
-2.55287e-05
-0.0186593
-2.72969e-05
-0.0186393
-2.95618e-05
-0.0186173
-3.18629e-05
-0.018593
-3.45443e-05
-0.0185662
-3.74018e-05
-0.0185363
-4.08182e-05
-0.0185031
-4.45098e-05
-0.0184661
-4.87675e-05
-0.0184246
-5.3701e-05
-0.0183786
-5.84236e-05
-0.0183272
-6.41843e-05
-0.0182691
-7.12452e-05
-0.0182031
-7.93619e-05
-0.0181286
-8.85084e-05
-0.0180423
-0.00010097
-0.0179432
-0.000115195
-0.0178305
-0.000133925
-0.0176877
-0.000165077
-0.0175391
-0.000185978
-0.0173796
-0.000226477
-0.0172873
-0.000113626
-0.0171249
-0.00015395
-0.0169206
-0.000169264
-0.0166685
-0.000195165
-0.0163467
-0.000267164
-0.0159267
-0.000410168
-0.0153797
-0.000633641
-0.0146812
-0.000933534
-0.0138408
-0.0012661
-0.0128363
-0.00162386
-0.011728
-0.00184115
-0.0104954
-0.00207455
-0.00932576
-0.00191341
-0.00817609
-0.00184037
-0.0013406
-0.000162067
-0.000611828
0.000622094
-0.00279527
0.00233201
-0.00524661
0.00459525
-0.00697789
0.00714204
-0.00794898
0.00970462
-0.00802854
0.0121265
-0.00752055
0.0142345
-0.00649639
0.0159003
-0.00508582
0.0169051
-0.00334767
0.0173083
-0.00141243
0.0171612
0.000434385
0.0164901
0.00216652
0.0150451
0.00375453
0.0128279
0.00494163
0.0101923
0.00535978
0.00742167
0.00513664
0.00475063
0.0043167
0.00234767
0.00309757
0.000279579
0.00172977
-0.00141894
0.000528207
-0.00266939
-0.000291278
-0.0042399
-7.09288e-05
-0.00712495
0.00141959
-0.0112936
0.00355437
-0.016804
0.00606113
-0.0238803
0.00896222
-0.0324698
0.0120422
-0.0423141
0.0149398
-0.0528425
0.0172749
-0.0633614
0.0189412
-0.0732622
0.0198677
-0.0821246
0.0199724
-0.08961
0.0192669
-0.0955858
0.0179332
-0.100092
0.0161881
-0.103178
0.0140167
-0.105197
0.0116985
-0.106607
0.00953539
-0.107547
0.00760145
-0.107973
0.00556699
-0.107782
0.00341185
-0.106972
0.00130571
-0.105638
-0.000650631
-0.103904
-0.00239911
-0.101819
-0.00377932
-0.0994543
-0.00513567
-0.096708
-0.00624101
-0.0936653
-0.00726362
-0.0903163
-0.00807458
-0.086771
-0.00877605
-0.0830401
-0.00939733
-0.0791025
-0.0099888
-0.0750809
-0.0105072
-0.0709788
-0.0109623
-0.0667148
-0.0113791
-0.0623359
-0.0117552
-0.0578698
-0.012072
-0.053337
-0.0123118
-0.0487695
-0.0124519
-0.0442023
-0.0124724
-0.0396795
-0.012358
-0.0352465
-0.0121051
-0.0309509
-0.0117174
-0.0268427
-0.0112016
-0.0229599
-0.0105773
-0.0193357
-0.00986329
-0.0159979
-0.00907298
-0.0129595
-0.00823859
-0.0102586
-0.00736904
-0.00789217
-0.00649364
-0.00585641
-0.00562518
-0.00413393
-0.00476997
-0.00283016
-0.00396991
-0.00176736
-0.0032117
-0.000896594
-0.00257279
-0.000200265
-0.00200431
0.000331058
-0.00150203
0.000709697
-0.00105862
0.000948127
-0.000677855
0.00108284
-0.000361716
0.0011122
-8.75408e-05
0.00104829
0.000151479
0.000895542
0.000362141
0.000659995
0.000544794
0.000343598
0.000703903
-5.28499e-05
0.000847778
-0.000530066
0.000981643
-0.00108746
0.00110394
-0.00172059
0.00121464
-0.00241961
0.00130947
-0.00313537
0.00139564
-0.00393935
0.00145072
-0.00479713
0.00148148
-0.00567246
0.00150087
-0.00655818
0.00149207
-0.00744083
0.00146656
-0.00829794
0.00141581
-0.00911785
0.00134606
-0.00988982
0.00126129
-0.0106074
0.0011637
-0.0112642
0.00105574
-0.0118577
0.00094066
-0.012386
0.000821024
-0.0128501
0.000700336
-0.0132528
0.000581711
-0.0135974
0.000467011
-0.0138894
0.000359796
-0.0141347
0.000261281
-0.0143389
0.000172063
-0.0145082
9.39296e-05
-0.0146464
2.62367e-05
-0.0147573
-3.10181e-05
-0.0148495
-7.63853e-05
-0.0149254
-0.000112367
-0.0149863
-0.000141876
-0.0150356
-0.000164346
-0.0150762
-0.000181035
-0.0151105
-0.000193044
-0.0151399
-0.000200827
-0.015166
-0.000205385
-0.0151899
-0.000207214
-0.0152125
-0.000207049
-0.0152345
-0.000205145
-0.0152564
-0.000202036
-0.0152787
-0.000198056
-0.0153017
-0.000193408
-0.0153254
-0.000188398
-0.0153501
-0.000183157
-0.0153758
-0.000177788
-0.0154026
-0.000172417
-0.0154305
-0.000167083
-0.0154594
-0.000161905
-0.0154895
-0.000156907
-0.0155206
-0.000152057
-0.0155526
-0.000147436
-0.0155856
-0.000143036
-0.0156194
-0.000138838
-0.0156541
-0.000134863
-0.0156895
-0.00013108
-0.0157256
-0.000127529
-0.0157624
-0.000124195
-0.0157997
-0.000121032
-0.0158376
-0.00011807
-0.015876
-0.000115299
-0.0159148
-0.00011266
-0.0159539
-0.00011019
-0.0159934
-0.000107869
-0.0160333
-0.000105664
-0.0160733
-0.000103583
-0.0161135
-0.000101644
-0.0161539
-9.9801e-05
-0.0161944
-9.80804e-05
-0.0162349
-9.64775e-05
-0.0162755
-9.49604e-05
-0.016316
-9.35463e-05
-0.0163565
-9.22266e-05
-0.0163969
-9.09726e-05
-0.0164371
-8.97782e-05
-0.0164772
-8.86694e-05
-0.0165171
-8.76326e-05
-0.0165567
-8.66421e-05
-0.0165961
-8.571e-05
-0.0166352
-8.48355e-05
-0.016674
-8.39996e-05
-0.0167125
-8.32135e-05
-0.0167506
-8.24754e-05
-0.0167883
-8.17724e-05
-0.0168255
-8.11095e-05
-0.0168624
-8.04837e-05
-0.0168988
-7.98779e-05
-0.0169347
-7.92922e-05
-0.0169701
-7.8747e-05
-0.017005
-7.82267e-05
-0.0170394
-7.77248e-05
-0.0170732
-7.72498e-05
-0.0171065
-7.67858e-05
-0.0171392
-7.63419e-05
-0.0171713
-7.5922e-05
-0.0172028
-7.55162e-05
-0.0172338
-7.51164e-05
-0.0172641
-7.47318e-05
-0.0172938
-7.43538e-05
-0.0173229
-7.40042e-05
-0.0173514
-7.36445e-05
-0.0173792
-7.33108e-05
-0.0174064
-7.29705e-05
-0.017433
-7.26466e-05
-0.0174589
-7.23102e-05
-0.0174843
-7.2002e-05
-0.017509
-7.16864e-05
-0.0175331
-7.13921e-05
-0.0175566
-7.10852e-05
-0.0175794
-7.07967e-05
-0.0176017
-7.04915e-05
-0.0176234
-7.01986e-05
-0.0176445
-6.98982e-05
-0.017665
-6.96135e-05
-0.017685
-6.93222e-05
-0.0177044
-6.90359e-05
-0.0177232
-6.87507e-05
-0.0177416
-6.84624e-05
-0.0177594
-6.81784e-05
-0.0177768
-6.789e-05
-0.0177937
-6.76144e-05
-0.0178101
-6.733e-05
-0.017826
-6.70534e-05
-0.0178415
-6.67662e-05
-0.0178566
-6.64882e-05
-0.0178713
-6.61956e-05
-0.0178857
-6.5915e-05
-0.0178997
-6.56252e-05
-0.0179133
-6.53452e-05
-0.0179266
-6.50527e-05
-0.0179396
-6.47688e-05
-0.0179523
-6.44729e-05
-0.0179648
-6.41838e-05
-0.017977
-6.38851e-05
-0.017989
-6.35982e-05
-0.0180008
-6.33035e-05
-0.0180124
-6.30144e-05
-0.0180238
-6.27175e-05
-0.0180351
-6.24276e-05
-0.0180462
-6.21268e-05
-0.0180572
-6.18323e-05
-0.0180681
-6.15334e-05
-0.018079
-6.12373e-05
-0.0180897
-6.09342e-05
-0.0181005
-6.06333e-05
-0.0181111
-6.03283e-05
-0.0181218
-6.0024e-05