/*--------------------------------*- C++ -*----------------------------------*\
| =========                 |                                                 |
| \\      /  F ield         | OpenFOAM: The Open Source CFD Toolbox           |
|  \\    /   O peration     | Version:  v1812                                 |
|   \\  /    A nd           | Web:      www.OpenFOAM.com                      |
|    \\/     M anipulation  |                                                 |
\*---------------------------------------------------------------------------*/
FoamFile
{
    version     2.0;
    format      ascii;
    class       volScalarField;
    location    "0.3";
    object      rho;
}
// * * * * * * * * * * * * * * * * * * * * * * * * * * * * * * * * * * * * * //

dimensions      [1 -3 0 0 0 0 0];


internalField   nonuniform List<scalar> 
20400
(
1.19667
1.19673
1.19682
1.19694
1.19705
1.19717
1.19725
1.19728
1.19728
1.19719
1.19711
1.19698
1.19684
1.19668
1.19654
1.19644
1.19642
1.19652
1.19679
1.19728
1.19804
1.19911
1.20054
1.20224
1.20407
1.20584
1.20734
1.20846
1.2092
1.20964
1.20985
1.20992
1.20991
1.20984
1.20975
1.20965
1.20956
1.20949
1.20945
1.20947
1.20952
1.20963
1.20979
1.21003
1.21033
1.21069
1.2111
1.21155
1.21201
1.21248
1.21296
1.21344
1.21391
1.21438
1.21483
1.21525
1.21565
1.21601
1.21634
1.21662
1.21684
1.21702
1.21713
1.21717
1.21713
1.21701
1.21681
1.21652
1.21617
1.21573
1.21522
1.21463
1.21398
1.21329
1.21246
1.21164
1.21078
1.20989
1.20898
1.20807
1.20715
1.20625
1.20537
1.20452
1.20372
1.20296
1.20225
1.2016
1.20101
1.20048
1.20001
1.19957
1.19925
1.19897
1.19872
1.19852
1.19836
1.19822
1.19811
1.19801
1.19793
1.19787
1.19781
1.19777
1.19773
1.1977
1.19767
1.19765
1.19763
1.19762
1.19761
1.1976
1.19759
1.19759
1.19759
1.19758
1.19758
1.19759
1.19759
1.19759
1.1976
1.1976
1.19761
1.19762
1.19763
1.19764
1.19765
1.19766
1.19768
1.19769
1.19771
1.19772
1.19774
1.19776
1.19778
1.1978
1.19782
1.19785
1.19787
1.19789
1.19792
1.19795
1.19797
1.198
1.19803
1.19806
1.19809
1.19812
1.19815
1.19818
1.19822
1.19825
1.19828
1.19832
1.19835
1.19839
1.19842
1.19846
1.19849
1.19853
1.19856
1.1986
1.19864
1.19867
1.19871
1.19874
1.19878
1.19881
1.19885
1.19888
1.19892
1.19895
1.19899
1.19902
1.19905
1.19909
1.19912
1.19915
1.19918
1.19921
1.19924
1.19927
1.1993
1.19933
1.19936
1.19939
1.19942
1.19944
1.19947
1.19949
1.19952
1.19954
1.19957
1.19959
1.19961
1.19963
1.19966
1.19968
1.1997
1.19972
1.19973
1.19975
1.19977
1.19979
1.19981
1.19982
1.19984
1.19986
1.19987
1.19989
1.1999
1.19991
1.19993
1.19994
1.19996
1.19997
1.19998
1.2
1.20001
1.20002
1.20003
1.20005
1.20006
1.20007
1.20008
1.20009
1.20011
1.20012
1.20013
1.20014
1.20015
1.20017
1.20018
1.20019
1.2002
1.20022
1.20023
1.20024
1.20026
1.20027
1.20028
1.2003
1.20031
1.20032
1.20034
1.20035
1.20037
1.20038
1.2004
1.20041
1.20043
1.20044
1.20046
1.20047
1.20049
1.20051
1.20052
1.20054
1.20056
1.20057
1.20059
1.20061
1.20063
1.20064
1.20066
1.20068
1.2007
1.20071
1.20073
1.20075
1.20077
1.20079
1.2008
1.20082
1.20084
1.20086
1.20088
1.20089
1.20091
1.20093
1.20095
1.20096
1.20098
1.201
1.20101
1.20103
1.20105
1.20106
1.20108
1.2011
1.20111
1.20113
1.20114
1.20116
1.20118
1.20119
1.20121
1.20122
1.20123
1.20125
1.20126
1.20128
1.20129
1.2013
1.20132
1.20133
1.20134
1.20135
1.20136
1.20138
1.20139
1.2014
1.20141
1.20142
1.20143
1.20144
1.20145
1.20146
1.20147
1.20148
1.20149
1.2015
1.20151
1.20152
1.20153
1.20154
1.20155
1.20156
1.20157
1.20158
1.20159
1.2016
1.2016
1.20161
1.20162
1.20163
1.20164
1.20165
1.20166
1.20167
1.20167
1.20168
1.20169
1.2017
1.20171
1.20172
1.20173
1.20174
1.20174
1.20175
1.20176
1.20177
1.20178
1.20179
1.2018
1.20181
1.20182
1.20183
1.20184
1.20185
1.20186
1.20187
1.20188
1.20189
1.2019
1.20191
1.20192
1.20193
1.20194
1.20195
1.20196
1.20197
1.20198
1.20199
1.202
1.20201
1.20202
1.20203
1.20204
1.20205
1.20207
1.20208
1.20209
1.2021
1.20211
1.20212
1.20213
1.20214
1.20215
1.20216
1.20217
1.20218
1.20219
1.2022
1.20221
1.20222
1.20223
1.20224
1.20225
1.20226
1.20227
1.20228
1.20229
1.2023
1.20231
1.20232
1.20233
1.20234
1.20235
1.20236
1.20236
1.20237
1.20238
1.20239
1.2024
1.20241
1.20242
1.20242
1.20243
1.20244
1.20245
1.20246
1.20246
1.20247
1.20248
1.20249
1.20249
1.2025
1.20251
1.20251
1.20252
1.20253
1.20254
1.20254
1.20255
1.20256
1.20256
1.20257
1.20258
1.20258
1.20259
1.2026
1.2026
1.20261
1.20262
1.20262
1.20263
1.20263
1.20264
1.20265
1.20265
1.20266
1.20267
1.20268
1.20268
1.20269
1.2027
1.2027
1.20271
1.20272
1.20273
1.20273
1.20274
1.20275
1.20276
1.20277
1.20277
1.20278
1.20279
1.2028
1.20281
1.20282
1.20283
1.20284
1.20285
1.20286
1.20287
1.20289
1.2029
1.20292
1.20295
1.20299
1.20305
1.20315
1.20331
1.20352
1.20383
1.20421
1.20466
1.20512
1.20555
1.20591
1.20618
1.20638
1.2065
1.20657
1.20657
1.20654
1.20641
1.20641
1.19675
1.19686
1.19704
1.1973
1.19758
1.19786
1.19809
1.19824
1.19827
1.19818
1.19804
1.19782
1.19756
1.19729
1.19703
1.19679
1.19662
1.19658
1.19669
1.197
1.19762
1.19867
1.20025
1.20228
1.20455
1.20666
1.20831
1.20938
1.21
1.2103
1.21042
1.21045
1.21043
1.21039
1.21035
1.21032
1.21029
1.21029
1.21037
1.2105
1.21067
1.21088
1.21115
1.21143
1.21172
1.21202
1.21232
1.21264
1.21295
1.21328
1.21361
1.21395
1.21431
1.21469
1.21508
1.21547
1.21587
1.21628
1.21668
1.21706
1.21743
1.21776
1.21805
1.21829
1.21848
1.21862
1.21871
1.21872
1.21864
1.21847
1.21822
1.21786
1.21742
1.21689
1.21638
1.21575
1.21505
1.21428
1.21346
1.2126
1.21169
1.21075
1.20978
1.20879
1.20781
1.20683
1.20587
1.20494
1.20406
1.20323
1.20247
1.20181
1.20118
1.20062
1.20015
1.19974
1.1994
1.19911
1.19887
1.19868
1.19852
1.19838
1.19827
1.19818
1.1981
1.19804
1.19799
1.19794
1.19791
1.19788
1.19785
1.19784
1.19782
1.19781
1.1978
1.1978
1.1978
1.1978
1.1978
1.1978
1.1978
1.19781
1.19782
1.19782
1.19783
1.19784
1.19785
1.19786
1.19788
1.19789
1.1979
1.19792
1.19794
1.19796
1.19797
1.19799
1.19802
1.19804
1.19806
1.19809
1.19811
1.19814
1.19816
1.19819
1.19822
1.19825
1.19828
1.19831
1.19834
1.19837
1.1984
1.19844
1.19847
1.1985
1.19854
1.19857
1.19861
1.19864
1.19868
1.19871
1.19875
1.19878
1.19882
1.19886
1.19889
1.19893
1.19896
1.199
1.19903
1.19907
1.1991
1.19914
1.19917
1.19921
1.19924
1.19927
1.19931
1.19934
1.19937
1.1994
1.19944
1.19947
1.1995
1.19953
1.19955
1.19958
1.19961
1.19964
1.19966
1.19969
1.19972
1.19974
1.19977
1.19979
1.19981
1.19983
1.19986
1.19988
1.1999
1.19992
1.19994
1.19996
1.19998
1.19999
1.20001
1.20003
1.20005
1.20006
1.20008
1.20009
1.20011
1.20012
1.20014
1.20015
1.20017
1.20018
1.20019
1.20021
1.20022
1.20023
1.20024
1.20026
1.20027
1.20028
1.20029
1.20031
1.20032
1.20033
1.20034
1.20035
1.20037
1.20038
1.20039
1.2004
1.20041
1.20043
1.20044
1.20045
1.20047
1.20048
1.20049
1.20051
1.20052
1.20053
1.20055
1.20056
1.20058
1.20059
1.20061
1.20062
1.20064
1.20065
1.20067
1.20068
1.2007
1.20072
1.20073
1.20075
1.20077
1.20078
1.2008
1.20082
1.20083
1.20085
1.20087
1.20089
1.2009
1.20092
1.20094
1.20096
1.20098
1.20099
1.20101
1.20103
1.20105
1.20107
1.20108
1.2011
1.20112
1.20114
1.20116
1.20117
1.20119
1.20121
1.20123
1.20124
1.20126
1.20128
1.20129
1.20131
1.20133
1.20134
1.20136
1.20137
1.20139
1.2014
1.20142
1.20143
1.20145
1.20146
1.20148
1.20149
1.2015
1.20152
1.20153
1.20154
1.20156
1.20157
1.20158
1.20159
1.20161
1.20162
1.20163
1.20164
1.20165
1.20166
1.20167
1.20168
1.20169
1.2017
1.20171
1.20172
1.20173
1.20174
1.20175
1.20176
1.20177
1.20178
1.20179
1.2018
1.20181
1.20182
1.20183
1.20184
1.20185
1.20185
1.20186
1.20187
1.20188
1.20189
1.2019
1.20191
1.20192
1.20193
1.20193
1.20194
1.20195
1.20196
1.20197
1.20198
1.20199
1.202
1.20201
1.20202
1.20203
1.20204
1.20205
1.20206
1.20207
1.20208
1.20209
1.2021
1.20211
1.20212
1.20213
1.20214
1.20215
1.20216
1.20217
1.20218
1.20219
1.2022
1.20221
1.20222
1.20224
1.20225
1.20226
1.20227
1.20228
1.20229
1.2023
1.20231
1.20233
1.20234
1.20235
1.20236
1.20237
1.20238
1.20239
1.2024
1.20241
1.20242
1.20243
1.20245
1.20246
1.20247
1.20248
1.20249
1.2025
1.20251
1.20252
1.20253
1.20254
1.20255
1.20256
1.20257
1.20258
1.20259
1.2026
1.20261
1.20262
1.20263
1.20264
1.20264
1.20265
1.20266
1.20267
1.20268
1.20269
1.2027
1.20271
1.20271
1.20272
1.20273
1.20274
1.20275
1.20275
1.20276
1.20277
1.20278
1.20279
1.20279
1.2028
1.20281
1.20282
1.20282
1.20283
1.20284
1.20284
1.20285
1.20286
1.20287
1.20287
1.20288
1.20289
1.2029
1.2029
1.20291
1.20292
1.20292
1.20293
1.20294
1.20295
1.20295
1.20296
1.20297
1.20298
1.20299
1.20299
1.203
1.20301
1.20302
1.20303
1.20304
1.20305
1.20305
1.20306
1.20307
1.20308
1.20309
1.2031
1.20311
1.20313
1.20314
1.20315
1.20316
1.20318
1.2032
1.20322
1.20325
1.20329
1.20334
1.20343
1.20357
1.20376
1.20399
1.20428
1.20463
1.20498
1.20532
1.20561
1.20586
1.20606
1.20623
1.20636
1.20648
1.20652
1.20657
1.2065
1.20653
1.19692
1.19713
1.19752
1.19806
1.19867
1.19926
1.19974
1.20003
1.20007
1.19993
1.19969
1.19934
1.1989
1.19842
1.19795
1.19751
1.19713
1.19687
1.19681
1.19699
1.19752
1.1987
1.20067
1.20332
1.2061
1.20826
1.20964
1.21039
1.21079
1.21098
1.21106
1.21108
1.21104
1.21097
1.21089
1.21079
1.2107
1.21064
1.21053
1.2104
1.21028
1.21015
1.21001
1.20989
1.2098
1.20976
1.20976
1.20982
1.20992
1.21007
1.21024
1.21044
1.21069
1.21096
1.21128
1.21165
1.21207
1.21258
1.21322
1.21391
1.21468
1.2155
1.21633
1.21715
1.21791
1.21859
1.21915
1.2196
1.21994
1.22017
1.22032
1.22038
1.22039
1.22028
1.22008
1.21979
1.21944
1.21903
1.21855
1.218
1.21738
1.21669
1.21591
1.21506
1.21413
1.21315
1.2121
1.211
1.20987
1.20872
1.20757
1.20644
1.20536
1.20435
1.20342
1.20259
1.20185
1.20121
1.20066
1.2002
1.19981
1.19949
1.19921
1.19899
1.1988
1.19864
1.19851
1.19841
1.19832
1.19825
1.19819
1.19814
1.1981
1.19808
1.19806
1.19804
1.19803
1.19802
1.19802
1.19802
1.19802
1.19802
1.19803
1.19804
1.19804
1.19805
1.19806
1.19807
1.19808
1.19809
1.19811
1.19812
1.19814
1.19815
1.19817
1.19819
1.19821
1.19823
1.19825
1.19828
1.1983
1.19832
1.19835
1.19838
1.1984
1.19843
1.19846
1.19849
1.19852
1.19855
1.19858
1.19862
1.19865
1.19868
1.19872
1.19875
1.19879
1.19882
1.19886
1.19889
1.19893
1.19896
1.199
1.19904
1.19907
1.19911
1.19915
1.19918
1.19922
1.19926
1.19929
1.19933
1.19936
1.1994
1.19943
1.19947
1.1995
1.19954
1.19957
1.1996
1.19963
1.19967
1.1997
1.19973
1.19976
1.19979
1.19982
1.19985
1.19988
1.19991
1.19993
1.19996
1.19999
1.20001
1.20004
1.20006
1.20008
1.20011
1.20013
1.20015
1.20017
1.20019
1.20021
1.20023
1.20025
1.20027
1.20029
1.20031
1.20032
1.20034
1.20036
1.20037
1.20039
1.2004
1.20042
1.20043
1.20045
1.20046
1.20048
1.20049
1.2005
1.20052
1.20053
1.20054
1.20056
1.20057
1.20058
1.20059
1.20061
1.20062
1.20063
1.20064
1.20066
1.20067
1.20068
1.2007
1.20071
1.20072
1.20074
1.20075
1.20076
1.20078
1.20079
1.2008
1.20082
1.20083
1.20085
1.20086
1.20088
1.20089
1.20091
1.20092
1.20094
1.20096
1.20097
1.20099
1.20101
1.20102
1.20104
1.20106
1.20107
1.20109
1.20111
1.20113
1.20115
1.20116
1.20118
1.2012
1.20122
1.20124
1.20125
1.20127
1.20129
1.20131
1.20133
1.20135
1.20137
1.20138
1.2014
1.20142
1.20144
1.20146
1.20148
1.20149
1.20151
1.20153
1.20155
1.20156
1.20158
1.2016
1.20162
1.20163
1.20165
1.20167
1.20168
1.2017
1.20171
1.20173
1.20174
1.20176
1.20177
1.20179
1.2018
1.20182
1.20183
1.20185
1.20186
1.20187
1.20188
1.2019
1.20191
1.20192
1.20194
1.20195
1.20196
1.20197
1.20198
1.20199
1.202
1.20202
1.20203
1.20204
1.20205
1.20206
1.20207
1.20208
1.20209
1.2021
1.20211
1.20212
1.20213
1.20214
1.20215
1.20216
1.20217
1.20218
1.20219
1.2022
1.20221
1.20222
1.20222
1.20223
1.20224
1.20225
1.20226
1.20227
1.20228
1.20229
1.2023
1.20231
1.20232
1.20233
1.20234
1.20235
1.20236
1.20237
1.20238
1.20239
1.20241
1.20242
1.20243
1.20244
1.20245
1.20246
1.20247
1.20248
1.20249
1.2025
1.20251
1.20253
1.20254
1.20255
1.20256
1.20257
1.20258
1.2026
1.20261
1.20262
1.20263
1.20264
1.20265
1.20266
1.20268
1.20269
1.2027
1.20271
1.20272
1.20274
1.20275
1.20276
1.20277
1.20278
1.20279
1.20281
1.20282
1.20283
1.20284
1.20285
1.20286
1.20287
1.20289
1.2029
1.20291
1.20292
1.20293
1.20294
1.20295
1.20296
1.20297
1.20298
1.20299
1.203
1.20301
1.20302
1.20303
1.20304
1.20305
1.20306
1.20307
1.20308
1.20309
1.2031
1.20311
1.20312
1.20313
1.20314
1.20315
1.20315
1.20316
1.20317
1.20318
1.20319
1.2032
1.20321
1.20321
1.20322
1.20323
1.20324
1.20325
1.20326
1.20327
1.20327
1.20328
1.20329
1.2033
1.20331
1.20331
1.20332
1.20333
1.20334
1.20335
1.20336
1.20336
1.20337
1.20338
1.20339
1.2034
1.20341
1.20342
1.20343
1.20343
1.20344
1.20345
1.20346
1.20347
1.20348
1.20349
1.2035
1.20351
1.20352
1.20353
1.20354
1.20356
1.20357
1.20358
1.20359
1.20361
1.20362
1.20364
1.20367
1.2037
1.20374
1.2038
1.20389
1.20402
1.20421
1.20442
1.20465
1.20488
1.2051
1.2053
1.20549
1.20566
1.20584
1.20602
1.20623
1.2064
1.20656
1.20659
1.20663
1.19717
1.19754
1.19822
1.19913
1.20014
1.20106
1.20174
1.20206
1.20203
1.20184
1.20149
1.20099
1.2004
1.19975
1.19906
1.1984
1.19779
1.19733
1.19713
1.19728
1.19792
1.19956
1.20235
1.20558
1.20821
1.20989
1.21076
1.2112
1.2114
1.21149
1.21147
1.2114
1.21126
1.21107
1.21082
1.21056
1.21021
1.20977
1.20934
1.20893
1.20855
1.20821
1.20793
1.20772
1.20756
1.20744
1.20735
1.20727
1.20718
1.20708
1.20696
1.20682
1.20666
1.20648
1.20629
1.20612
1.20599
1.20594
1.20604
1.20629
1.20681
1.20755
1.2085
1.2097
1.21108
1.2126
1.21418
1.21575
1.21721
1.21849
1.2195
1.22024
1.22072
1.22103
1.22123
1.22134
1.22139
1.22136
1.22128
1.22113
1.22091
1.22063
1.22027
1.21983
1.2193
1.21867
1.21793
1.21709
1.21614
1.21509
1.21394
1.21273
1.21146
1.21017
1.2089
1.20765
1.20648
1.20539
1.20439
1.2035
1.20272
1.20203
1.20144
1.20093
1.20049
1.20012
1.19979
1.19951
1.19927
1.19907
1.19889
1.19875
1.19863
1.19853
1.19846
1.1984
1.19835
1.19832
1.19829
1.19828
1.19827
1.19826
1.19826
1.19826
1.19827
1.19827
1.19828
1.19829
1.1983
1.19831
1.19832
1.19834
1.19835
1.19837
1.19838
1.1984
1.19842
1.19844
1.19846
1.19848
1.1985
1.19852
1.19855
1.19857
1.1986
1.19862
1.19865
1.19868
1.19871
1.19874
1.19877
1.1988
1.19883
1.19886
1.1989
1.19893
1.19896
1.199
1.19903
1.19907
1.1991
1.19914
1.19918
1.19921
1.19925
1.19928
1.19932
1.19936
1.19939
1.19943
1.19947
1.1995
1.19954
1.19957
1.19961
1.19965
1.19968
1.19972
1.19975
1.19978
1.19982
1.19985
1.19988
1.19992
1.19995
1.19998
1.20001
1.20004
1.20007
1.2001
1.20013
1.20016
1.20019
1.20021
1.20024
1.20027
1.20029
1.20032
1.20034
1.20036
1.20039
1.20041
1.20043
1.20045
1.20048
1.2005
1.20052
1.20054
1.20056
1.20057
1.20059
1.20061
1.20063
1.20064
1.20066
1.20068
1.20069
1.20071
1.20072
1.20074
1.20075
1.20077
1.20078
1.2008
1.20081
1.20082
1.20084
1.20085
1.20086
1.20088
1.20089
1.2009
1.20092
1.20093
1.20094
1.20096
1.20097
1.20098
1.201
1.20101
1.20103
1.20104
1.20105
1.20107
1.20108
1.2011
1.20111
1.20113
1.20114
1.20116
1.20117
1.20119
1.20121
1.20122
1.20124
1.20125
1.20127
1.20129
1.20131
1.20132
1.20134
1.20136
1.20138
1.20139
1.20141
1.20143
1.20145
1.20147
1.20149
1.2015
1.20152
1.20154
1.20156
1.20158
1.2016
1.20162
1.20164
1.20166
1.20168
1.20169
1.20171
1.20173
1.20175
1.20177
1.20179
1.20181
1.20182
1.20184
1.20186
1.20188
1.2019
1.20191
1.20193
1.20195
1.20197
1.20198
1.202
1.20202
1.20203
1.20205
1.20206
1.20208
1.20209
1.20211
1.20212
1.20214
1.20215
1.20217
1.20218
1.20219
1.20221
1.20222
1.20223
1.20225
1.20226
1.20227
1.20228
1.2023
1.20231
1.20232
1.20233
1.20234
1.20236
1.20237
1.20238
1.20239
1.2024
1.20241
1.20242
1.20243
1.20244
1.20245
1.20246
1.20247
1.20248
1.2025
1.20251
1.20252
1.20253
1.20254
1.20255
1.20256
1.20257
1.20258
1.20259
1.2026
1.20261
1.20262
1.20263
1.20264
1.20265
1.20266
1.20267
1.20268
1.2027
1.20271
1.20272
1.20273
1.20274
1.20275
1.20276
1.20277
1.20279
1.2028
1.20281
1.20282
1.20283
1.20284
1.20286
1.20287
1.20288
1.20289
1.2029
1.20292
1.20293
1.20294
1.20295
1.20297
1.20298
1.20299
1.203
1.20302
1.20303
1.20304
1.20306
1.20307
1.20308
1.20309
1.20311
1.20312
1.20313
1.20314
1.20316
1.20317
1.20318
1.20319
1.20321
1.20322
1.20323
1.20324
1.20325
1.20327
1.20328
1.20329
1.2033
1.20331
1.20333
1.20334
1.20335
1.20336
1.20337
1.20338
1.20339
1.2034
1.20341
1.20343
1.20344
1.20345
1.20346
1.20347
1.20348
1.20349
1.2035
1.20351
1.20352
1.20353
1.20354
1.20355
1.20356
1.20357
1.20358
1.20359
1.2036
1.20361
1.20361
1.20362
1.20363
1.20364
1.20365
1.20366
1.20367
1.20368
1.20369
1.2037
1.20371
1.20372
1.20373
1.20373
1.20374
1.20375
1.20376
1.20377
1.20378
1.20379
1.2038
1.20381
1.20382
1.20383
1.20384
1.20385
1.20386
1.20387
1.20388
1.20389
1.2039
1.20391
1.20393
1.20394
1.20395
1.20396
1.20397
1.20398
1.204
1.20401
1.20402
1.20404
1.20405
1.20407
1.20408
1.2041
1.20413
1.20415
1.20419
1.20423
1.20428
1.20436
1.20445
1.20456
1.20468
1.2048
1.20492
1.20504
1.20515
1.20528
1.20542
1.20561
1.20583
1.2061
1.20631
1.20644
1.1975
1.19805
1.19906
1.20038
1.20176
1.20288
1.20353
1.20367
1.20349
1.20313
1.20262
1.20201
1.20133
1.20059
1.19982
1.19903
1.19828
1.1977
1.19748
1.19774
1.19884
1.20137
1.20487
1.20798
1.20994
1.21094
1.21141
1.2116
1.21164
1.2116
1.21149
1.21128
1.21097
1.2106
1.21021
1.2097
1.20917
1.20862
1.20806
1.20755
1.20711
1.20679
1.20657
1.20642
1.20634
1.20631
1.2063
1.20629
1.20627
1.2062
1.20609
1.20593
1.20568
1.20536
1.20495
1.20445
1.20388
1.20323
1.20251
1.20187
1.20141
1.20118
1.2012
1.20159
1.2024
1.20365
1.20529
1.20727
1.20952
1.21192
1.2143
1.21647
1.21828
1.21967
1.22064
1.22126
1.22163
1.22186
1.22201
1.2221
1.22215
1.22216
1.22212
1.22204
1.22189
1.22167
1.22136
1.22096
1.22045
1.21982
1.21907
1.21819
1.21718
1.21606
1.21486
1.21358
1.21226
1.21095
1.20966
1.20842
1.20726
1.20619
1.20521
1.20433
1.20354
1.20284
1.20221
1.20164
1.20114
1.2007
1.20031
1.19996
1.19967
1.19941
1.1992
1.19903
1.19889
1.19878
1.1987
1.19863
1.19859
1.19856
1.19854
1.19853
1.19852
1.19852
1.19853
1.19853
1.19854
1.19855
1.19856
1.19857
1.19858
1.1986
1.19861
1.19863
1.19864
1.19866
1.19868
1.1987
1.19872
1.19874
1.19876
1.19879
1.19881
1.19883
1.19886
1.19889
1.19891
1.19894
1.19897
1.199
1.19903
1.19906
1.19909
1.19912
1.19916
1.19919
1.19922
1.19926
1.19929
1.19933
1.19936
1.1994
1.19943
1.19947
1.1995
1.19954
1.19958
1.19961
1.19965
1.19968
1.19972
1.19976
1.19979
1.19983
1.19986
1.1999
1.19993
1.19997
1.2
1.20003
1.20007
1.2001
1.20013
1.20017
1.2002
1.20023
1.20026
1.20029
1.20032
1.20035
1.20038
1.20041
1.20044
1.20046
1.20049
1.20052
1.20054
1.20057
1.20059
1.20062
1.20064
1.20067
1.20069
1.20071
1.20073
1.20075
1.20077
1.2008
1.20082
1.20083
1.20085
1.20087
1.20089
1.20091
1.20093
1.20094
1.20096
1.20098
1.20099
1.20101
1.20102
1.20104
1.20105
1.20107
1.20108
1.2011
1.20111
1.20113
1.20114
1.20116
1.20117
1.20118
1.2012
1.20121
1.20123
1.20124
1.20125
1.20127
1.20128
1.2013
1.20131
1.20133
1.20134
1.20136
1.20137
1.20139
1.2014
1.20142
1.20143
1.20145
1.20146
1.20148
1.2015
1.20151
1.20153
1.20155
1.20156
1.20158
1.2016
1.20162
1.20164
1.20165
1.20167
1.20169
1.20171
1.20173
1.20175
1.20176
1.20178
1.2018
1.20182
1.20184
1.20186
1.20188
1.2019
1.20192
1.20194
1.20195
1.20197
1.20199
1.20201
1.20203
1.20205
1.20207
1.20209
1.20211
1.20212
1.20214
1.20216
1.20218
1.2022
1.20221
1.20223
1.20225
1.20227
1.20228
1.2023
1.20232
1.20233
1.20235
1.20237
1.20238
1.2024
1.20241
1.20243
1.20244
1.20246
1.20247
1.20248
1.2025
1.20251
1.20253
1.20254
1.20255
1.20257
1.20258
1.20259
1.2026
1.20262
1.20263
1.20264
1.20265
1.20267
1.20268
1.20269
1.2027
1.20271
1.20272
1.20273
1.20275
1.20276
1.20277
1.20278
1.20279
1.2028
1.20281
1.20282
1.20283
1.20284
1.20285
1.20287
1.20288
1.20289
1.2029
1.20291
1.20292
1.20293
1.20294
1.20295
1.20297
1.20298
1.20299
1.203
1.20301
1.20302
1.20304
1.20305
1.20306
1.20307
1.20308
1.2031
1.20311
1.20312
1.20313
1.20314
1.20316
1.20317
1.20318
1.20319
1.20321
1.20322
1.20323
1.20324
1.20326
1.20327
1.20328
1.2033
1.20331
1.20332
1.20334
1.20335
1.20336
1.20338
1.20339
1.2034
1.20341
1.20343
1.20344
1.20345
1.20347
1.20348
1.20349
1.20351
1.20352
1.20353
1.20354
1.20356
1.20357
1.20358
1.2036
1.20361
1.20362
1.20363
1.20364
1.20366
1.20367
1.20368
1.20369
1.2037
1.20372
1.20373
1.20374
1.20375
1.20376
1.20377
1.20379
1.2038
1.20381
1.20382
1.20383
1.20384
1.20385
1.20386
1.20387
1.20388
1.20389
1.2039
1.20391
1.20392
1.20393
1.20394
1.20395
1.20396
1.20397
1.20398
1.20399
1.204
1.20401
1.20402
1.20403
1.20404
1.20405
1.20406
1.20407
1.20408
1.20409
1.2041
1.20411
1.20412
1.20413
1.20414
1.20415
1.20416
1.20417
1.20418
1.20419
1.2042
1.20421
1.20422
1.20423
1.20425
1.20426
1.20427
1.20428
1.20429
1.20431
1.20432
1.20433
1.20434
1.20435
1.20437
1.20438
1.20439
1.2044
1.20442
1.20443
1.20445
1.20446
1.20448
1.2045
1.20452
1.20455
1.20458
1.20462
1.20466
1.20471
1.20477
1.20483
1.2049
1.20497
1.20504
1.20513
1.20522
1.20533
1.20545
1.20565
1.2059
1.20615
1.19787
1.19863
1.20001
1.20175
1.20338
1.20448
1.20493
1.2048
1.20444
1.20384
1.20311
1.20235
1.20159
1.20085
1.20009
1.1993
1.19855
1.19803
1.19795
1.19857
1.20053
1.20395
1.20747
1.20981
1.21098
1.21148
1.21163
1.21165
1.21158
1.21142
1.21117
1.21085
1.21049
1.21011
1.20961
1.20897
1.20833
1.20771
1.20717
1.20675
1.20642
1.20621
1.20609
1.20607
1.20612
1.20621
1.20632
1.20643
1.20655
1.20664
1.20665
1.20657
1.20636
1.20601
1.2055
1.20482
1.20398
1.203
1.20195
1.20083
1.19968
1.19855
1.19757
1.19686
1.19654
1.19668
1.19742
1.19866
1.20043
1.20274
1.20553
1.20866
1.21186
1.21485
1.21736
1.21927
1.22057
1.22139
1.22188
1.22217
1.22235
1.22249
1.22259
1.22267
1.22272
1.22273
1.2227
1.22261
1.22246
1.22222
1.22189
1.22145
1.2209
1.22022
1.21942
1.21849
1.21745
1.21631
1.2151
1.21385
1.21258
1.21133
1.21011
1.20894
1.20784
1.20681
1.20585
1.20495
1.20413
1.20336
1.20266
1.20203
1.20145
1.20095
1.2005
1.20012
1.1998
1.19953
1.19932
1.19915
1.19902
1.19892
1.19886
1.19881
1.19878
1.19876
1.19876
1.19875
1.19876
1.19876
1.19877
1.19878
1.19879
1.1988
1.19882
1.19883
1.19885
1.19886
1.19888
1.1989
1.19892
1.19893
1.19896
1.19898
1.199
1.19902
1.19905
1.19907
1.1991
1.19912
1.19915
1.19918
1.19921
1.19924
1.19927
1.1993
1.19933
1.19936
1.19939
1.19942
1.19946
1.19949
1.19952
1.19956
1.19959
1.19963
1.19966
1.1997
1.19973
1.19977
1.1998
1.19984
1.19988
1.19991
1.19995
1.19998
1.20002
1.20005
1.20009
1.20012
1.20015
1.20019
1.20022
1.20026
1.20029
1.20032
1.20035
1.20039
1.20042
1.20045
1.20048
1.20051
1.20054
1.20057
1.2006
1.20062
1.20065
1.20068
1.20071
1.20073
1.20076
1.20079
1.20081
1.20084
1.20086
1.20088
1.20091
1.20093
1.20095
1.20097
1.201
1.20102
1.20104
1.20106
1.20108
1.2011
1.20112
1.20114
1.20115
1.20117
1.20119
1.20121
1.20122
1.20124
1.20126
1.20127
1.20129
1.2013
1.20132
1.20134
1.20135
1.20137
1.20138
1.2014
1.20141
1.20143
1.20144
1.20146
1.20147
1.20148
1.2015
1.20151
1.20153
1.20154
1.20156
1.20157
1.20159
1.20161
1.20162
1.20164
1.20165
1.20167
1.20168
1.2017
1.20172
1.20173
1.20175
1.20177
1.20179
1.2018
1.20182
1.20184
1.20186
1.20187
1.20189
1.20191
1.20193
1.20195
1.20196
1.20198
1.202
1.20202
1.20204
1.20206
1.20208
1.2021
1.20212
1.20214
1.20215
1.20217
1.20219
1.20221
1.20223
1.20225
1.20227
1.20229
1.20231
1.20233
1.20234
1.20236
1.20238
1.2024
1.20242
1.20244
1.20245
1.20247
1.20249
1.20251
1.20252
1.20254
1.20256
1.20257
1.20259
1.20261
1.20262
1.20264
1.20265
1.20267
1.20268
1.2027
1.20271
1.20273
1.20274
1.20276
1.20277
1.20278
1.2028
1.20281
1.20282
1.20284
1.20285
1.20286
1.20288
1.20289
1.2029
1.20291
1.20293
1.20294
1.20295
1.20296
1.20297
1.20298
1.203
1.20301
1.20302
1.20303
1.20304
1.20305
1.20307
1.20308
1.20309
1.2031
1.20311
1.20312
1.20313
1.20315
1.20316
1.20317
1.20318
1.20319
1.2032
1.20321
1.20323
1.20324
1.20325
1.20326
1.20327
1.20329
1.2033
1.20331
1.20332
1.20334
1.20335
1.20336
1.20337
1.20339
1.2034
1.20341
1.20343
1.20344
1.20345
1.20346
1.20347
1.20349
1.2035
1.20351
1.20353
1.20354
1.20355
1.20357
1.20358
1.20359
1.20361
1.20362
1.20363
1.20365
1.20366
1.20368
1.20369
1.2037
1.20372
1.20373
1.20374
1.20376
1.20377
1.20378
1.2038
1.20381
1.20382
1.20384
1.20385
1.20386
1.20387
1.20389
1.2039
1.20391
1.20392
1.20394
1.20395
1.20396
1.20397
1.20399
1.204
1.20401
1.20402
1.20403
1.20405
1.20406
1.20407
1.20408
1.20409
1.2041
1.20411
1.20413
1.20414
1.20415
1.20416
1.20417
1.20418
1.20419
1.2042
1.20421
1.20422
1.20423
1.20424
1.20425
1.20426
1.20427
1.20429
1.2043
1.20431
1.20432
1.20433
1.20434
1.20435
1.20436
1.20437
1.20438
1.20439
1.2044
1.20441
1.20442
1.20443
1.20444
1.20445
1.20446
1.20447
1.20448
1.20449
1.2045
1.20451
1.20452
1.20454
1.20455
1.20456
1.20457
1.20458
1.2046
1.20461
1.20462
1.20464
1.20465
1.20466
1.20467
1.20469
1.2047
1.20471
1.20472
1.20474
1.20475
1.20476
1.20478
1.2048
1.20481
1.20483
1.20486
1.20488
1.20491
1.20495
1.20498
1.20502
1.20506
1.2051
1.20515
1.20519
1.20525
1.20531
1.20542
1.20561
1.20587
1.19826
1.19926
1.20106
1.20316
1.20485
1.20574
1.20593
1.20563
1.20502
1.20419
1.20325
1.2023
1.20143
1.20066
1.19993
1.19925
1.19866
1.19836
1.19863
1.19998
1.20293
1.20662
1.2094
1.21084
1.2114
1.21153
1.21152
1.21142
1.21126
1.21102
1.21073
1.21039
1.20999
1.20957
1.20898
1.20829
1.2076
1.2069
1.20627
1.20573
1.20529
1.20501
1.20491
1.20496
1.20514
1.20541
1.20574
1.20608
1.20638
1.20663
1.2068
1.20685
1.20678
1.20654
1.20611
1.20547
1.20461
1.20355
1.2023
1.20093
1.19943
1.19784
1.1963
1.19492
1.19379
1.19303
1.19279
1.1931
1.1939
1.19525
1.19726
1.19995
1.20327
1.20703
1.21089
1.21445
1.21738
1.21954
1.22094
1.22177
1.22222
1.22248
1.22264
1.22277
1.22288
1.22298
1.22306
1.22311
1.22312
1.22309
1.22302
1.22287
1.22265
1.22235
1.22195
1.22145
1.22083
1.2201
1.21925
1.21829
1.21724
1.21612
1.21494
1.21374
1.21252
1.21132
1.21015
1.209
1.20789
1.20683
1.20583
1.20487
1.20399
1.20317
1.20242
1.20176
1.20118
1.20068
1.20026
1.19991
1.19963
1.19942
1.19926
1.19914
1.19905
1.199
1.19896
1.19894
1.19894
1.19893
1.19894
1.19895
1.19895
1.19897
1.19898
1.19899
1.199
1.19902
1.19904
1.19905
1.19907
1.19909
1.19911
1.19913
1.19915
1.19917
1.19919
1.19922
1.19924
1.19927
1.19929
1.19932
1.19935
1.19938
1.1994
1.19943
1.19946
1.19949
1.19952
1.19955
1.19959
1.19962
1.19965
1.19968
1.19972
1.19975
1.19979
1.19982
1.19986
1.19989
1.19992
1.19996
1.19999
1.20003
1.20006
1.2001
1.20013
1.20017
1.2002
1.20024
1.20027
1.2003
1.20034
1.20037
1.2004
1.20044
1.20047
1.2005
1.20053
1.20056
1.20059
1.20062
1.20065
1.20068
1.20071
1.20074
1.20077
1.2008
1.20082
1.20085
1.20088
1.2009
1.20093
1.20096
1.20098
1.20101
1.20103
1.20105
1.20108
1.2011
1.20112
1.20115
1.20117
1.20119
1.20121
1.20123
1.20125
1.20127
1.20129
1.20131
1.20133
1.20135
1.20137
1.20138
1.2014
1.20142
1.20144
1.20145
1.20147
1.20149
1.2015
1.20152
1.20153
1.20155
1.20156
1.20158
1.2016
1.20161
1.20163
1.20164
1.20166
1.20167
1.20169
1.2017
1.20172
1.20174
1.20175
1.20177
1.20178
1.2018
1.20181
1.20183
1.20185
1.20186
1.20188
1.2019
1.20191
1.20193
1.20195
1.20197
1.20198
1.202
1.20202
1.20204
1.20205
1.20207
1.20209
1.20211
1.20213
1.20215
1.20216
1.20218
1.2022
1.20222
1.20224
1.20226
1.20228
1.2023
1.20232
1.20233
1.20235
1.20237
1.20239
1.20241
1.20243
1.20245
1.20247
1.20249
1.2025
1.20252
1.20254
1.20256
1.20258
1.2026
1.20261
1.20263
1.20265
1.20267
1.20268
1.2027
1.20272
1.20274
1.20275
1.20277
1.20279
1.2028
1.20282
1.20283
1.20285
1.20286
1.20288
1.20289
1.20291
1.20292
1.20294
1.20295
1.20296
1.20298
1.20299
1.20301
1.20302
1.20303
1.20305
1.20306
1.20307
1.20308
1.2031
1.20311
1.20312
1.20313
1.20315
1.20316
1.20317
1.20318
1.20319
1.20321
1.20322
1.20323
1.20324
1.20325
1.20326
1.20328
1.20329
1.2033
1.20331
1.20332
1.20333
1.20335
1.20336
1.20337
1.20338
1.20339
1.20341
1.20342
1.20343
1.20344
1.20345
1.20347
1.20348
1.20349
1.2035
1.20352
1.20353
1.20354
1.20356
1.20357
1.20358
1.2036
1.20361
1.20362
1.20363
1.20365
1.20366
1.20367
1.20368
1.2037
1.20371
1.20372
1.20374
1.20375
1.20377
1.20378
1.20379
1.20381
1.20382
1.20383
1.20385
1.20386
1.20388
1.20389
1.2039
1.20392
1.20393
1.20394
1.20396
1.20397
1.20398
1.204
1.20401
1.20402
1.20404
1.20405
1.20406
1.20408
1.20409
1.2041
1.20411
1.20413
1.20414
1.20415
1.20416
1.20418
1.20419
1.2042
1.20421
1.20423
1.20424
1.20425
1.20426
1.20427
1.20428
1.2043
1.20431
1.20432
1.20433
1.20434
1.20435
1.20436
1.20438
1.20439
1.2044
1.20441
1.20442
1.20443
1.20444
1.20445
1.20446
1.20447
1.20448
1.20449
1.2045
1.20451
1.20452
1.20453
1.20454
1.20456
1.20457
1.20458
1.20459
1.2046
1.20461
1.20462
1.20463
1.20464
1.20465
1.20466
1.20467
1.20468
1.20469
1.2047
1.20471
1.20472
1.20474
1.20475
1.20476
1.20477
1.20479
1.2048
1.20481
1.20483
1.20484
1.20485
1.20486
1.20488
1.20489
1.2049
1.20491
1.20492
1.20494
1.20495
1.20496
1.20498
1.20499
1.205
1.20502
1.20504
1.20506
1.20508
1.20511
1.20513
1.20516
1.20519
1.20522
1.20525
1.20528
1.20531
1.20534
1.20538
1.20551
1.20573
1.19865
1.19993
1.20218
1.20451
1.20608
1.20673
1.20676
1.20635
1.20563
1.20469
1.20361
1.20249
1.20147
1.20064
1.19994
1.19938
1.19904
1.19909
1.19998
1.20223
1.20566
1.20876
1.21054
1.21122
1.21139
1.21134
1.21124
1.21107
1.21086
1.2106
1.21029
1.20994
1.20952
1.20906
1.20834
1.20748
1.20653
1.20556
1.20465
1.20389
1.20336
1.2031
1.20309
1.20328
1.20362
1.20405
1.20452
1.20499
1.20544
1.20583
1.20612
1.20627
1.20625
1.20603
1.20557
1.20489
1.20397
1.20283
1.20147
1.19994
1.19829
1.19656
1.1949
1.19336
1.19199
1.19083
1.19002
1.18972
1.18991
1.19047
1.19154
1.19326
1.19575
1.19905
1.20303
1.20739
1.21169
1.21546
1.2184
1.22042
1.22164
1.22229
1.22263
1.22282
1.22294
1.22304
1.22314
1.22323
1.2233
1.22335
1.22337
1.22335
1.2233
1.2232
1.22304
1.22283
1.22253
1.22215
1.22168
1.2211
1.22041
1.21961
1.2187
1.21769
1.21661
1.21546
1.21427
1.21304
1.2118
1.21056
1.20933
1.20813
1.20697
1.20586
1.20482
1.20386
1.20299
1.20221
1.20154
1.20096
1.20048
1.20009
1.19978
1.19955
1.19937
1.19925
1.19917
1.19911
1.19908
1.19907
1.19906
1.19906
1.19907
1.19908
1.19909
1.1991
1.19912
1.19913
1.19914
1.19916
1.19918
1.19919
1.19921
1.19923
1.19925
1.19927
1.1993
1.19932
1.19934
1.19937
1.19939
1.19942
1.19944
1.19947
1.1995
1.19953
1.19956
1.19958
1.19961
1.19964
1.19968
1.19971
1.19974
1.19977
1.1998
1.19984
1.19987
1.1999
1.19994
1.19997
1.2
1.20004
1.20007
1.20011
1.20014
1.20018
1.20021
1.20024
1.20028
1.20031
1.20034
1.20038
1.20041
1.20044
1.20048
1.20051
1.20054
1.20057
1.2006
1.20063
1.20066
1.20069
1.20072