/*--------------------------------*- C++ -*----------------------------------*\
| =========                 |                                                 |
| \\      /  F ield         | OpenFOAM: The Open Source CFD Toolbox           |
|  \\    /   O peration     | Version:  v1812                                 |
|   \\  /    A nd           | Web:      www.OpenFOAM.com                      |
|    \\/     M anipulation  |                                                 |
\*---------------------------------------------------------------------------*/
FoamFile
{
    version     2.0;
    format      ascii;
    class       volScalarField;
    location    "0.3";
    object      T;
}
// * * * * * * * * * * * * * * * * * * * * * * * * * * * * * * * * * * * * * //

dimensions      [0 0 0 1 0 0 0];


internalField   nonuniform List<scalar> 
20400
(
292.178
292.166
292.144
292.113
292.077
292.04
292.006
291.978
291.962
291.959
291.964
291.98
292.005
292.037
292.071
292.096
292.104
292.081
292.017
291.899
291.715
291.45
291.099
290.674
290.212
289.763
289.372
289.068
288.846
288.691
288.582
288.5
288.436
288.387
288.35
288.323
288.304
288.291
288.282
288.277
288.275
288.277
288.278
288.278
288.277
288.276
288.275
288.276
288.28
288.287
288.294
288.303
288.313
288.323
288.335
288.347
288.361
288.376
288.393
288.412
288.433
288.459
288.49
288.527
288.573
288.629
288.697
288.776
288.867
288.969
289.085
289.214
289.357
289.513
289.672
289.846
290.029
290.22
290.416
290.616
290.816
291.014
291.208
291.395
291.573
291.742
291.899
292.043
292.173
292.288
292.387
292.468
292.543
292.605
292.655
292.696
292.728
292.754
292.774
292.79
292.802
292.812
292.82
292.826
292.831
292.834
292.837
292.84
292.842
292.844
292.845
292.847
292.848
292.849
292.851
292.852
292.853
292.854
292.856
292.857
292.859
292.86
292.862
292.863
292.865
292.866
292.868
292.87
292.871
292.873
292.875
292.877
292.879
292.881
292.883
292.885
292.888
292.89
292.892
292.894
292.897
292.899
292.902
292.904
292.907
292.91
292.913
292.915
292.918
292.921
292.924
292.927
292.93
292.933
292.936
292.939
292.942
292.946
292.949
292.952
292.956
292.959
292.962
292.966
292.969
292.972
292.976
292.979
292.983
292.986
292.99
292.993
292.997
293
293.004
293.007
293.011
293.014
293.018
293.021
293.024
293.028
293.031
293.035
293.038
293.041
293.045
293.048
293.051
293.054
293.058
293.061
293.064
293.067
293.07
293.073
293.076
293.079
293.082
293.085
293.088
293.091
293.094
293.096
293.099
293.102
293.105
293.107
293.11
293.112
293.115
293.118
293.12
293.123
293.125
293.127
293.13
293.132
293.135
293.137
293.139
293.142
293.144
293.146
293.148
293.151
293.153
293.155
293.157
293.16
293.162
293.164
293.166
293.168
293.171
293.173
293.175
293.177
293.179
293.182
293.184
293.186
293.188
293.191
293.193
293.195
293.197
293.2
293.202
293.204
293.206
293.209
293.211
293.213
293.216
293.218
293.221
293.223
293.225
293.228
293.23
293.233
293.235
293.238
293.24
293.242
293.245
293.247
293.25
293.252
293.255
293.257
293.26
293.262
293.265
293.267
293.27
293.272
293.275
293.277
293.28
293.282
293.285
293.287
293.29
293.292
293.295
293.297
293.3
293.302
293.305
293.307
293.309
293.312
293.314
293.317
293.319
293.321
293.324
293.326
293.328
293.33
293.333
293.335
293.337
293.339
293.341
293.344
293.346
293.348
293.35
293.352
293.354
293.356
293.358
293.36
293.362
293.364
293.366
293.368
293.37
293.372
293.374
293.376
293.378
293.38
293.382
293.384
293.386
293.388
293.389
293.391
293.393
293.395
293.397
293.399
293.401
293.403
293.404
293.406
293.408
293.41
293.412
293.414
293.416
293.418
293.419
293.421
293.423
293.425
293.427
293.429
293.431
293.433
293.435
293.437
293.439
293.441
293.443
293.445
293.447
293.449
293.451
293.453
293.455
293.457
293.459
293.461
293.463
293.465
293.467
293.469
293.472
293.474
293.476
293.478
293.48
293.482
293.484
293.487
293.489
293.491
293.493
293.495
293.497
293.499
293.502
293.504
293.506
293.508
293.51
293.512
293.515
293.517
293.519
293.521
293.523
293.526
293.528
293.53
293.532
293.534
293.536
293.539
293.541
293.543
293.545
293.547
293.549
293.551
293.554
293.556
293.558
293.56
293.562
293.564
293.566
293.568
293.57
293.572
293.575
293.577
293.579
293.581
293.583
293.585
293.587
293.589
293.591
293.593
293.595
293.597
293.599
293.601
293.603
293.605
293.607
293.609
293.611
293.613
293.615
293.617
293.619
293.621
293.623
293.625
293.627
293.629
293.631
293.633
293.635
293.637
293.639
293.641
293.642
293.644
293.646
293.648
293.65
293.651
293.653
293.655
293.657
293.659
293.66
293.662
293.664
293.666
293.667
293.669
293.671
293.672
293.674
293.675
293.676
293.677
293.678
293.679
293.679
293.678
293.675
293.67
293.659
293.641
293.611
293.563
293.494
293.404
293.301
293.195
293.098
293.019
292.961
292.921
292.899
292.891
292.892
292.91
292.934
292.952
292.16
292.135
292.088
292.023
291.946
291.868
291.796
291.742
291.716
291.718
291.736
291.774
291.826
291.888
291.951
292.009
292.052
292.066
292.042
291.969
291.821
291.563
291.174
290.666
290.104
289.575
289.151
288.858
288.67
288.545
288.455
288.381
288.316
288.256
288.202
288.152
288.106
288.062
288.024
287.994
287.971
287.956
287.948
287.957
287.972
287.996
288.027
288.061
288.094
288.126
288.156
288.182
288.205
288.224
288.238
288.248
288.252
288.251
288.245
288.236
288.224
288.212
288.201
288.192
288.185
288.182
288.182
288.195
288.221
288.264
288.322
288.398
288.49
288.594
288.721
288.857
289.008
289.17
289.345
289.53
289.726
289.932
290.146
290.364
290.584
290.804
291.02
291.231
291.433
291.623
291.799
291.962
292.102
292.225
292.331
292.419
292.493
292.554
292.603
292.642
292.674
292.699
292.719
292.735
292.748
292.758
292.766
292.773
292.778
292.783
292.786
292.789
292.792
292.794
292.796
292.798
292.799
292.801
292.803
292.805
292.806
292.808
292.81
292.811
292.813
292.815
292.817
292.819
292.821
292.823
292.825
292.827
292.83
292.832
292.834
292.837
292.839
292.842
292.844
292.847
292.849
292.852
292.855
292.857
292.86
292.863
292.866
292.869
292.872
292.875
292.878
292.881
292.884
292.887
292.89
292.893
292.897
292.9
292.903
292.906
292.91
292.913
292.916
292.92
292.923
292.927
292.93
292.933
292.937
292.94
292.943
292.947
292.95
292.954
292.957
292.96
292.964
292.967
292.97
292.974
292.977
292.98
292.983
292.987
292.99
292.993
292.996
292.999
293.002
293.006
293.009
293.012
293.015
293.018
293.02
293.023
293.026
293.029
293.032
293.035
293.037
293.04
293.043
293.046
293.048
293.051
293.053
293.056
293.058
293.061
293.063
293.066
293.068
293.071
293.073
293.076
293.078
293.08
293.083
293.085
293.087
293.089
293.092
293.094
293.096
293.099
293.101
293.103
293.105
293.107
293.11
293.112
293.114
293.116
293.119
293.121
293.123
293.125
293.127
293.13
293.132
293.134
293.136
293.139
293.141
293.143
293.146
293.148
293.15
293.153
293.155
293.157
293.16
293.162
293.164
293.167
293.169
293.172
293.174
293.176
293.179
293.181
293.184
293.186
293.189
293.191
293.194
293.196
293.199
293.201
293.203
293.206
293.208
293.211
293.213
293.216
293.218
293.221
293.223
293.226
293.228
293.231
293.233
293.236
293.238
293.24
293.243
293.245
293.248
293.25
293.252
293.255
293.257
293.259
293.262
293.264
293.266
293.269
293.271
293.273
293.275
293.278
293.28
293.282
293.284
293.286
293.288
293.29
293.292
293.294
293.297
293.299
293.301
293.303
293.305
293.307
293.309
293.31
293.312
293.314
293.316
293.318
293.32
293.322
293.324
293.326
293.327
293.329
293.331
293.333
293.335
293.337
293.338
293.34
293.342
293.344
293.346
293.347
293.349
293.351
293.353
293.355
293.357
293.358
293.36
293.362
293.364
293.366
293.368
293.369
293.371
293.373
293.375
293.377
293.379
293.381
293.383
293.385
293.387
293.388
293.39
293.392
293.394
293.396
293.398
293.4
293.402
293.404
293.406
293.408
293.41
293.412
293.414
293.416
293.418
293.42
293.422
293.424
293.426
293.428
293.431
293.433
293.435
293.437
293.439
293.441
293.443
293.445
293.447
293.449
293.451
293.453
293.455
293.457
293.46
293.462
293.464
293.466
293.468
293.47
293.472
293.474
293.476
293.478
293.48
293.482
293.484
293.486
293.488
293.49
293.492
293.494
293.496
293.498
293.5
293.502
293.504
293.506
293.508
293.51
293.512
293.514
293.516
293.518
293.519
293.521
293.523
293.525
293.527
293.529
293.531
293.533
293.535
293.536
293.538
293.54
293.542
293.544
293.546
293.547
293.549
293.551
293.553
293.555
293.557
293.558
293.56
293.562
293.564
293.566
293.567
293.569
293.571
293.573
293.574
293.576
293.578
293.579
293.581
293.583
293.584
293.586
293.588
293.589
293.591
293.593
293.594
293.596
293.597
293.599
293.6
293.601
293.603
293.604
293.605
293.606
293.606
293.606
293.606
293.603
293.599
293.59
293.573
293.547
293.507
293.449
293.378
293.298
293.216
293.139
293.073
293.018
292.975
292.94
292.913
292.895
292.887
292.887
292.901
292.915
292.121
292.069
291.972
291.836
291.679
291.522
291.387
291.296
291.264
291.276
291.318
291.393
291.491
291.603
291.719
291.83
291.928
291.995
292.014
291.974
291.846
291.562
291.077
290.425
289.741
289.198
288.84
288.623
288.484
288.38
288.291
288.208
288.131
288.062
288.006
287.966
287.945
287.939
287.955
287.981
288.016
288.071
288.143
288.231
288.326
288.423
288.519
288.615
288.71
288.801
288.888
288.968
289.039
289.098
289.142
289.167
289.176
289.158
289.104
289.028
288.922
288.799
288.662
288.519
288.378
288.248
288.137
288.044
287.971
287.916
287.877
287.848
287.833
287.839
287.864
287.906
287.967
288.043
288.135
288.244
288.37
288.514
288.68
288.866
289.07
289.29
289.525
289.774
290.033
290.298
290.562
290.821
291.068
291.301
291.515
291.708
291.878
292.025
292.15
292.255
292.343
292.416
292.476
292.526
292.568
292.602
292.63
292.654
292.674
292.69
292.703
292.714
292.723
292.73
292.736
292.74
292.744
292.748
292.75
292.753
292.755
292.757
292.76
292.762
292.764
292.766
292.768
292.77
292.773
292.775
292.777
292.78
292.782
292.785
292.788
292.79
292.793
292.796
292.798
292.801
292.804
292.807
292.81
292.813
292.816
292.819
292.822
292.825
292.828
292.831
292.834
292.838
292.841
292.844
292.847
292.85
292.854
292.857
292.86
292.863
292.866
292.87
292.873
292.876
292.879
292.883
292.886
292.889
292.892
292.895
292.899
292.902
292.905
292.908
292.911
292.914
292.917
292.92
292.923
292.926
292.929
292.932
292.935
292.938
292.94
292.943
292.946
292.949
292.951
292.954
292.956
292.959
292.962
292.964
292.967
292.969
292.972
292.974
292.976
292.979
292.981
292.983
292.986
292.988
292.99
292.992
292.995
292.997
292.999
293.001
293.003
293.005
293.008
293.01
293.012
293.014
293.016
293.018
293.02
293.022
293.024
293.026
293.028
293.031
293.033
293.035
293.037
293.039
293.041
293.043
293.045
293.047
293.049
293.052
293.054
293.056
293.058
293.06
293.062
293.064
293.067
293.069
293.071
293.073
293.075
293.078
293.08
293.082
293.084
293.087
293.089
293.091
293.094
293.096
293.098
293.101
293.103
293.105
293.108
293.11
293.112
293.115
293.117
293.119
293.122
293.124
293.127
293.129
293.131
293.134
293.136
293.138
293.141
293.143
293.146
293.148
293.15
293.153
293.155
293.157
293.16
293.162
293.164
293.166
293.169
293.171
293.173
293.175
293.178
293.18
293.182
293.184
293.186
293.189
293.191
293.193
293.195
293.197
293.199
293.201
293.203
293.205
293.207
293.209
293.211
293.213
293.215
293.217
293.219
293.221
293.222
293.224
293.226
293.228
293.23
293.232
293.233
293.235
293.237
293.239
293.24
293.242
293.244
293.245
293.247
293.249
293.251
293.252
293.254
293.256
293.257
293.259
293.261
293.262
293.264
293.265
293.267
293.269
293.27
293.272
293.274
293.275
293.277
293.279
293.28
293.282
293.284
293.285
293.287
293.289
293.29
293.292
293.294
293.296
293.297
293.299
293.301
293.303
293.304
293.306
293.308
293.31
293.312
293.313
293.315
293.317
293.319
293.321
293.322
293.324
293.326
293.328
293.33
293.332
293.333
293.335
293.337
293.339
293.341
293.343
293.345
293.346
293.348
293.35
293.352
293.354
293.356
293.358
293.36
293.362
293.363
293.365
293.367
293.369
293.371
293.373
293.375
293.376
293.378
293.38
293.382
293.384
293.386
293.387
293.389
293.391
293.393
293.395
293.396
293.398
293.4
293.402
293.404
293.405
293.407
293.409
293.411
293.412
293.414
293.416
293.417
293.419
293.421
293.422
293.424
293.426
293.427
293.429
293.431
293.432
293.434
293.436
293.437
293.439
293.441
293.442
293.444
293.445
293.447
293.449
293.45
293.452
293.453
293.455
293.457
293.458
293.46
293.461
293.463
293.464
293.466
293.467
293.469
293.47
293.472
293.473
293.475
293.476
293.478
293.479
293.48
293.482
293.483
293.484
293.486
293.487
293.488
293.49
293.491
293.492
293.493
293.494
293.495
293.496
293.497
293.497
293.497
293.497
293.497
293.495
293.491
293.484
293.472
293.453
293.425
293.391
293.347
293.298
293.248
293.201
293.159
293.121
293.085
293.05
293.012
292.971
292.931
292.901
292.89
292.897
292.061
291.971
291.804
291.576
291.32
291.08
290.896
290.796
290.78
290.806
290.873
290.979
291.116
291.275
291.443
291.611
291.767
291.889
291.946
291.917
291.763
291.363
290.68
289.893
289.244
288.823
288.58
288.43
288.32
288.226
288.141
288.067
288.013
287.98
287.968
287.968
287.998
288.045
288.115
288.216
288.337
288.467
288.6
288.73
288.859
288.99
289.122
289.256
289.393
289.535
289.681
289.832
289.987
290.144
290.301
290.451
290.588
290.699
290.77
290.798
290.751
290.644
290.476
290.241
289.952
289.622
289.268
288.911
288.572
288.274
288.031
287.851
287.726
287.639
287.579
287.535
287.503
287.488
287.488
287.502
287.533
287.579
287.645
287.732
287.842
287.976
288.135
288.322
288.535
288.774
289.036
289.317
289.609
289.908
290.205
290.495
290.769
291.024
291.256
291.463
291.646
291.804
291.941
292.059
292.16
292.248
292.323
292.388
292.443
292.491
292.532
292.566
292.595
292.618
292.637
292.653
292.665
292.675
292.683
292.689
292.694
292.698
292.701
292.704
292.707
292.71
292.712
292.715
292.718
292.721
292.723
292.726
292.729
292.732
292.735
292.738
292.742
292.745
292.748
292.751
292.755
292.758
292.761
292.765
292.768
292.771
292.775
292.778
292.782
292.785
292.789
292.792
292.796
292.799
292.803
292.806
292.809
292.813
292.816
292.82
292.823
292.826
292.83
292.833
292.836
292.839
292.843
292.846
292.849
292.852
292.855
292.858
292.861
292.864
292.867
292.87
292.873
292.875
292.878
292.881
292.884
292.886
292.889
292.891
292.894
292.896
292.899
292.901
292.903
292.905
292.908
292.91
292.912
292.914
292.916
292.918
292.92
292.922
292.924
292.926
292.928
292.93
292.931
292.933
292.935
292.937
292.939
292.94
292.942
292.944
292.946
292.947
292.949
292.951
292.952
292.954
292.956
292.958
292.959
292.961
292.963
292.965
292.967
292.968
292.97
292.972
292.974
292.976
292.978
292.98
292.982
292.984
292.985
292.987
292.989
292.991
292.994
292.996
292.998
293
293.002
293.004
293.006
293.008
293.01
293.013
293.015
293.017
293.019
293.022
293.024
293.026
293.028
293.031
293.033
293.035
293.038
293.04
293.042
293.045
293.047
293.049
293.051
293.054
293.056
293.058
293.061
293.063
293.065
293.068
293.07
293.072
293.075
293.077
293.079
293.081
293.084
293.086
293.088
293.09
293.092
293.095
293.097
293.099
293.101
293.103
293.105
293.107
293.109
293.111
293.113
293.115
293.117
293.119
293.121
293.123
293.125
293.127
293.129
293.13
293.132
293.134
293.136
293.138
293.139
293.141
293.143
293.145
293.146
293.148
293.15
293.151
293.153
293.154
293.156
293.158
293.159
293.161
293.162
293.164
293.165
293.167
293.168
293.17
293.171
293.173
293.174
293.176
293.177
293.179
293.18
293.182
293.183
293.185
293.186
293.187
293.189
293.19
293.192
293.193
293.195
293.196
293.198
293.199
293.201
293.202
293.204
293.205
293.207
293.208
293.21
293.211
293.213
293.214
293.216
293.218
293.219
293.221
293.222
293.224
293.225
293.227
293.229
293.23
293.232
293.234
293.235
293.237
293.239
293.24
293.242
293.244
293.245
293.247
293.249
293.25
293.252
293.254
293.255
293.257
293.259
293.261
293.262
293.264
293.266
293.267
293.269
293.271
293.272
293.274
293.276
293.277
293.279
293.281
293.282
293.284
293.286
293.287
293.289
293.291
293.292
293.294
293.296
293.297
293.299
293.3
293.302
293.303
293.305
293.307
293.308
293.31
293.311
293.313
293.314
293.316
293.317
293.319
293.32
293.322
293.323
293.325
293.326
293.328
293.329
293.331
293.332
293.333
293.335
293.336
293.338
293.339
293.34
293.342
293.343
293.345
293.346
293.347
293.349
293.35
293.352
293.353
293.354
293.356
293.357
293.358
293.36
293.361
293.362
293.364
293.365
293.366
293.368
293.369
293.37
293.371
293.373
293.374
293.375
293.376
293.377
293.379
293.38
293.381
293.382
293.383
293.384
293.385
293.386
293.387
293.388
293.389
293.39
293.391
293.392
293.393
293.393
293.394
293.394
293.393
293.392
293.39
293.386
293.379
293.368
293.353
293.335
293.314
293.29
293.265
293.24
293.218
293.195
293.171
293.143
293.106
293.059
293.003
292.956
292.934
291.984
291.85
291.601
291.27
290.923
290.633
290.452
290.392
290.408
290.469
290.572
290.705
290.862
291.039
291.233
291.436
291.633
291.789
291.857
291.804
291.542
290.932
290.083
289.324
288.834
288.561
288.403
288.294
288.203
288.125
288.063
288.018
287.994
287.986
287.991
288.04
288.118
288.219
288.334
288.458
288.582
288.701
288.816
288.93
289.045
289.16
289.28
289.405
289.539
289.683
289.839
290.008
290.192
290.392
290.609
290.841
291.087
291.346
291.615
291.86
292.054
292.182
292.241
292.198
292.045
291.777
291.404
290.943
290.411
289.838
289.268
288.744
288.302
287.959
287.713
287.547
287.439
287.365
287.309
287.266
287.234
287.214
287.205
287.207
287.226
287.264
287.323
287.405
287.514
287.651
287.818
288.017
288.244
288.499
288.777
289.072
289.376
289.683
289.984
290.273
290.545
290.796
291.025
291.232
291.419
291.585
291.734
291.868
291.987
292.093
292.187
292.27
292.342
292.404
292.456
292.499
292.534
292.563
292.585
292.603
292.616
292.626
292.634
292.64
292.645
292.65
292.653
292.657
292.66
292.663
292.666
292.669
292.673
292.676
292.68
292.683
292.687
292.69
292.694
292.698
292.701
292.705
292.709
292.713
292.716
292.72
292.724
292.728
292.732
292.736
292.74
292.744
292.748
292.751
292.755
292.759
292.763
292.767
292.77
292.774
292.778
292.781
292.785
292.788
292.792
292.795
292.798
292.802
292.805
292.808
292.811
292.814
292.817
292.82
292.823
292.826
292.829
292.832
292.834
292.837
292.839
292.842
292.844
292.847
292.849
292.851
292.853
292.855
292.857
292.859
292.861
292.863
292.865
292.867
292.869
292.87
292.872
292.873
292.875
292.876
292.878
292.879
292.881
292.882
292.883
292.885
292.886
292.887
292.889
292.89
292.891
292.893
292.894
292.895
292.897
292.898
292.899
292.901
292.902
292.903
292.905
292.906
292.908
292.909
292.911
292.912
292.914
292.916
292.917
292.919
292.921
292.922
292.924
292.926
292.928
292.93
292.931
292.933
292.935
292.937
292.939
292.941
292.943
292.945
292.948
292.95
292.952
292.954
292.956
292.959
292.961
292.963
292.965
292.968
292.97
292.972
292.975
292.977
292.979
292.982
292.984
292.986
292.989
292.991
292.993
292.996
292.998
293
293.002
293.005
293.007
293.009
293.012
293.014
293.016
293.018
293.02
293.023
293.025
293.027
293.029
293.031
293.033
293.035
293.037
293.039
293.041
293.043
293.045
293.047
293.049
293.051
293.053
293.055
293.056
293.058
293.06
293.062
293.063
293.065
293.067
293.068
293.07
293.071
293.073
293.075
293.076
293.078
293.079
293.081
293.082
293.084
293.085
293.087
293.088
293.089
293.091
293.092
293.094
293.095
293.096
293.098
293.099
293.1
293.102
293.103
293.104
293.106
293.107
293.108
293.109
293.111
293.112
293.113
293.115
293.116
293.117
293.119
293.12
293.121
293.123
293.124
293.125
293.127
293.128
293.129
293.131
293.132
293.133
293.135
293.136
293.138
293.139
293.141
293.142
293.143
293.145
293.146
293.148
293.149
293.151
293.152
293.153
293.155
293.156
293.158
293.16
293.161
293.163
293.164
293.166
293.168
293.169
293.171
293.172
293.174
293.176
293.177
293.179
293.18
293.182
293.183
293.185
293.186
293.188
293.189
293.191
293.193
293.194
293.196
293.197
293.199
293.2
293.202
293.203
293.205
293.206
293.208
293.209
293.211
293.212
293.214
293.215
293.217
293.218
293.22
293.221
293.222
293.224
293.225
293.227
293.228
293.229
293.231
293.232
293.234
293.235
293.236
293.238
293.239
293.24
293.242
293.243
293.244
293.245
293.247
293.248
293.249
293.25
293.252
293.253
293.254
293.255
293.257
293.258
293.259
293.26
293.262
293.263
293.264
293.265
293.266
293.268
293.269
293.27
293.271
293.272
293.274
293.275
293.276
293.277
293.278
293.279
293.281
293.282
293.283
293.284
293.285
293.286
293.287
293.288
293.289
293.29
293.291
293.292
293.293
293.293
293.294
293.295
293.296
293.297
293.298
293.299
293.299
293.3
293.301
293.302
293.303
293.303
293.304
293.304
293.303
293.302
293.3
293.297
293.293
293.287
293.28
293.272
293.262
293.252
293.241
293.229
293.215
293.2
293.182
293.156
293.116
293.058
293.005
291.9
291.715
291.372
290.939
290.53
290.243
290.111
290.112
290.17
290.287
290.439
290.606
290.78
290.963
291.157
291.362
291.562
291.707
291.743
291.605
291.139
290.313
289.463
288.883
288.572
288.409
288.306
288.223
288.152
288.092
288.048
288.02
288.005
288.002
288.035
288.115
288.209
288.317
288.435
288.553
288.668
288.777
288.882
288.98
289.073
289.165
289.258
289.355
289.454
289.559
289.681
289.823
289.992
290.192
290.428
290.702
291.011
291.348
291.699
292.063
292.426
292.775
293.08
293.31
293.435
293.436
293.283
292.997
292.577
292.021
291.344
290.586
289.809
289.083
288.47
288.003
287.677
287.464
287.329
287.242
287.179
287.128
287.086
287.051
287.024
287.008
287.003
287.011
287.036
287.082
287.151
287.244
287.365
287.515
287.696
287.907
288.145
288.406
288.686
288.977
289.272
289.565
289.851
290.125
290.384
290.628
290.856
291.068
291.266
291.448
291.616
291.769
291.908
292.032
292.14
292.234
292.314
292.38
292.434
292.477
292.511
292.537
292.557
292.572
292.583
292.591
292.598
292.603
292.607
292.611
292.615
292.618
292.622
292.626
292.629
292.633
292.637
292.641
292.645
292.649
292.653
292.657
292.661
292.666
292.67
292.674
292.678
292.682
292.687
292.691
292.695
292.7
292.704
292.708
292.712
292.717
292.721
292.725
292.729
292.733
292.737
292.741
292.744
292.748
292.752
292.756
292.759
292.763
292.766
292.769
292.773
292.776
292.779
292.782
292.785
292.788
292.791
292.794
292.796
292.799
292.801
292.804
292.806
292.809
292.811
292.813
292.815
292.817
292.819
292.821
292.823
292.824
292.826
292.828
292.829
292.831
292.832
292.833
292.835
292.836
292.837
292.838
292.839
292.84
292.841
292.842
292.843
292.844
292.845
292.846
292.847
292.848
292.849
292.85
292.851
292.852
292.853
292.854
292.855
292.856
292.857
292.858
292.859
292.86
292.861
292.862
292.864
292.865
292.866
292.868
292.869
292.871
292.872
292.874
292.876
292.877
292.879
292.881
292.882
292.884
292.886
292.888
292.89
292.892
292.894
292.896
292.898
292.9
292.902
292.905
292.907
292.909
292.911
292.914
292.916
292.918
292.921
292.923
292.925
292.928
292.93
292.932
292.935
292.937
292.939
292.942
292.944
292.946
292.949
292.951
292.953
292.956
292.958
292.96
292.962
292.965
292.967
292.969
292.971
292.973
292.975
292.978
292.98
292.982
292.984
292.986
292.988
292.989
292.991
292.993
292.995
292.997
292.999
293
293.002
293.004
293.005
293.007
293.009
293.01
293.012
293.013
293.015
293.016
293.018
293.019
293.021
293.022
293.024
293.025
293.026
293.028
293.029
293.03
293.032
293.033
293.034
293.035
293.037
293.038
293.039
293.04
293.041
293.043
293.044
293.045
293.046
293.047
293.049
293.05
293.051
293.052
293.053
293.055
293.056
293.057
293.058
293.059
293.061
293.062
293.063
293.064
293.065
293.067
293.068
293.069
293.07
293.072
293.073
293.074
293.076
293.077
293.078
293.08
293.081
293.082
293.084
293.085
293.086
293.088
293.089
293.09
293.092
293.093
293.094
293.096
293.097
293.099
293.1
293.102
293.103
293.105
293.107
293.108
293.11
293.111
293.113
293.114
293.116
293.117
293.119
293.12
293.122
293.123
293.125
293.126
293.127
293.129
293.13
293.132
293.133
293.135
293.136
293.138
293.139
293.141
293.142
293.143
293.145
293.146
293.148
293.149
293.15
293.152
293.153
293.154
293.156
293.157
293.158
293.16
293.161
293.162
293.164
293.165
293.166
293.168
293.169
293.17
293.171
293.172
293.174
293.175
293.176
293.177
293.178
293.18
293.181
293.182
293.183
293.184
293.185
293.187
293.188
293.189
293.19
293.191
293.192
293.193
293.195
293.196
293.197
293.198
293.199
293.2
293.201
293.202
293.203
293.204
293.205
293.207
293.208
293.209
293.21
293.211
293.212
293.213
293.214
293.215
293.216
293.217
293.218
293.219
293.22
293.221
293.222
293.222
293.223
293.224
293.224
293.225
293.226
293.227
293.227
293.228
293.229
293.23
293.231
293.232
293.233
293.234
293.235
293.235
293.236
293.235
293.235
293.233
293.232
293.23
293.227
293.224
293.22
293.216
293.211
293.207
293.202
293.196
293.187
293.168
293.128
293.07
291.814
291.57
291.124
290.603
290.178
289.938
289.863
289.904
290.017
290.185
290.385
290.593
290.794
290.983
291.167
291.35
291.513
291.607
291.561
291.252
290.548
289.663
288.986
288.618
288.443
288.347
288.277
288.211
288.15
288.099
288.057
288.027
288.013
288.013
288.065
288.162
288.277
288.41
288.554
288.701
288.843
288.97
289.077
289.162
289.23
289.286
289.336
289.387
289.447
289.521
289.611
289.724
289.866
290.044
290.262
290.527
290.84
291.198
291.594
292.018
292.466
292.928
293.37
293.765
294.09
294.314
294.4
294.345
294.159
293.831
293.34
292.678
291.86
290.938
289.996
289.129
288.414
287.886
287.536
287.323
287.197
287.12
287.064
287.019
286.979
286.942
286.911
286.888
286.875
286.873
286.881
286.906
286.949
287.012
287.097
287.208
287.345
287.51
287.704
287.923
288.165
288.425
288.698
288.979
289.263
289.546
289.824
290.095
290.358
290.611
290.853
291.081
291.296
291.494
291.674
291.836
291.979
292.102
292.206
292.292
292.362
292.417
292.46
292.493
292.517
292.534
292.547
292.557
292.564
292.569
292.574
292.578
292.582
292.586
292.59
292.594
292.598
292.603
292.607
292.611
292.615
292.62
292.624
292.629
292.633
292.638
292.642
292.647
292.651
292.656
292.66
292.665
292.67
292.674
292.679
292.683
292.688
292.692
292.697
292.701
292.705
292.709
292.713
292.717
292.721
292.725
292.729
292.733
292.736
292.74
292.743
292.747
292.75
292.753
292.756
292.759
292.762
292.765
292.768
292.771
292.773
292.776
292.778
292.781
292.783
292.785
292.787
292.789
292.791
292.793
292.795
292.797
292.798
292.8
292.801
292.803
292.804
292.805
292.806
292.807
292.808
292.809
292.81
292.811
292.812
292.812
292.813
292.814
292.815
292.815
292.816
292.816
292.817
292.818
292.818
292.819
292.82
292.82
292.821
292.822
292.823
292.823
292.824
292.825
292.826
292.827
292.828
292.829
292.83
292.831
292.833
292.834
292.835
292.836
292.838
292.839
292.841
292.843
292.844
292.846
292.848
292.849
292.851
292.853
292.855
292.857
292.859
292.861
292.863
292.865
292.867
292.87
292.872
292.874
292.876
292.879
292.881
292.883
292.886
292.888
292.89
292.893
292.895
292.897
292.9
292.902
292.905
292.907
292.909
292.912
292.914
292.916
292.919
292.921
292.923
292.925
292.928
292.93
292.932
292.934
292.936
292.938
292.941
292.943
292.945
292.947
292.949
292.95
292.952
292.954
292.956
292.958
292.96
292.961
292.963
292.965
292.966
292.968
292.969
292.971
292.972
292.974
292.975
292.977
292.978
292.979
292.981
292.982
292.983
292.985
292.986
292.988
292.989
292.99
292.991
292.992
292.994
292.995
292.996
292.997
292.998
292.999
293
293.001
293.002
293.004
293.005
293.006
293.007
293.008
293.009
293.01
293.011
293.012
293.013
293.015
293.016
293.017
293.018
293.019
293.02
293.021
293.022
293.024
293.025
293.026
293.027
293.028
293.03
293.031
293.032
293.033
293.035
293.036
293.037
293.038
293.04
293.041
293.042
293.044
293.045
293.046
293.048
293.049
293.05
293.052
293.053
293.054
293.056
293.057
293.058
293.06
293.062
293.063
293.065
293.067
293.068
293.07
293.071
293.072
293.074
293.075
293.076
293.078
293.079
293.081
293.082
293.084
293.085
293.087
293.088
293.089
293.091
293.092
293.094
293.095
293.096
293.098
293.099
293.1
293.102
293.103
293.104
293.106
293.107
293.108
293.11
293.111
293.112
293.113
293.115
293.116
293.117
293.118
293.12
293.121
293.122
293.123
293.124
293.126
293.127
293.128
293.129
293.13
293.131
293.132
293.133
293.135
293.136
293.137
293.138
293.139
293.14
293.141
293.142
293.143
293.144
293.145
293.147
293.148
293.149
293.15
293.151
293.152
293.153
293.154
293.155
293.156
293.157
293.158
293.159
293.16
293.161
293.162
293.163
293.164
293.165
293.166
293.167
293.168
293.169
293.17
293.171
293.172
293.173
293.173
293.174
293.175
293.175
293.176
293.176
293.177
293.178
293.179
293.18
293.181
293.183
293.184
293.185
293.186
293.187
293.188
293.189
293.19
293.19
293.19
293.19
293.19
293.189
293.188
293.187
293.186
293.186
293.185
293.184
293.184
293.184
293.179
293.155
293.106
291.731
291.417
290.865
290.288
289.888
289.704
289.666
289.73
289.866
290.058
290.29
290.539
290.775
290.978
291.156
291.309
291.413
291.424
291.23
290.702
289.884
289.139
288.699
288.498
288.406
288.346
288.284
288.226
288.169
288.115
288.071
288.041
288.03
288.04
288.124
288.262
288.437
288.641
288.858
289.064
289.239
289.37
289.461
289.521
289.558
289.581
289.6
289.619
289.645
289.684
289.743
289.83
289.956
290.129
290.352
290.626
290.952
291.329
291.752
292.213
292.696
293.193
293.668
294.103
294.488
294.811
295.041
295.135
295.102
294.972
294.709
294.283
293.664
292.847
291.865
290.795
289.749
288.832
288.118
287.624
287.32
287.149
287.055
286.997
286.954
286.918
286.885
286.854
286.828
286.807
286.794
286.79
286.794
286.809
286.839
286.883
286.944
287.026
287.131
287.261
287.418
287.601
287.81
288.042
288.294
288.562
288.842
289.131
289.424
289.718
290.011
290.298
290.577
290.843
291.095
291.328
291.54
291.729
291.895
292.038
292.157
292.255
292.332
292.393
292.439
292.473
292.498
292.516
292.528
292.538
292.544
292.55
292.555
292.559
292.563
292.567
292.571
292.576
292.58
292.585
292.589
292.594
292.599
292.603
292.608
292.613
292.617
292.622
292.627
292.632
292.636
292.641
292.646
292.651
292.656
292.66
292.665
292.67
292.674
292.679
292.684
292.688
292.692
292.697
292.701
292.705
292.709
292.713
292.717
292.72
292.724
292.727
292.731
292.734
292.737
292.741
292.744
292.747
292.75
292.752
292.755
292.758
292.76
292.763
292.765
292.767
292.77
292.772
292.774
292.776
292.777
292.779