/*--------------------------------*- C++ -*----------------------------------*\
| =========                 |                                                 |
| \\      /  F ield         | OpenFOAM: The Open Source CFD Toolbox           |
|  \\    /   O peration     | Version:  v1812                                 |
|   \\  /    A nd           | Web:      www.OpenFOAM.com                      |
|    \\/     M anipulation  |                                                 |
\*---------------------------------------------------------------------------*/
FoamFile
{
    version     2.0;
    format      ascii;
    class       volVectorField;
    location    "0.3";
    object      U;
}
// * * * * * * * * * * * * * * * * * * * * * * * * * * * * * * * * * * * * * //

dimensions      [0 1 -1 0 0 0 0];


internalField   nonuniform List<vector> 
20400
(
(-0.085684 -0.00278761 0)
(-0.187137 -0.0898588 0)
(-0.0915164 -0.158292 0)
(0.129937 -0.20667 0)
(0.552251 -0.213349 0)
(0.980762 -0.197352 0)
(1.45904 -0.165247 0)
(1.78298 -0.13713 0)
(2.02658 -0.0981037 0)
(2.05647 -0.0653452 0)
(1.88702 -0.0392175 0)
(1.58236 -0.00162079 0)
(1.09814 0.0386123 0)
(0.593891 0.07552 0)
(0.0218694 0.125505 0)
(-0.467214 0.137734 0)
(-0.969956 0.127063 0)
(-1.35703 0.0746444 0)
(-1.64421 -0.000861246 0)
(-1.80189 -0.0863385 0)
(-1.83681 -0.135055 0)
(-1.76704 -0.166045 0)
(-1.6148 -0.168736 0)
(-1.43966 -0.222088 0)
(-1.27471 -0.231207 0)
(-1.23223 -0.268978 0)
(-1.26729 -0.253005 0)
(-1.39097 -0.247067 0)
(-1.62438 -0.242179 0)
(-1.97322 -0.212904 0)
(-2.45991 -0.144158 0)
(-3.17157 -0.0550436 0)
(-4.14616 0.0276746 0)
(-5.39497 0.0995492 0)
(-6.88904 0.151116 0)
(-8.57518 0.181984 0)
(-10.338 0.266898 0)
(-12.1241 0.329245 0)
(-13.8496 0.224887 0)
(-15.4353 0.0711005 0)
(-16.8823 -0.0911727 0)
(-18.1331 -0.212655 0)
(-19.1813 -0.342114 0)
(-20.0084 -0.468071 0)
(-20.6155 -0.520583 0)
(-21.0332 -0.492851 0)
(-21.2542 -0.376225 0)
(-21.2957 -0.169469 0)
(-21.1203 0.0582166 0)
(-20.8402 0.285198 0)
(-20.4398 0.515163 0)
(-19.9262 0.712598 0)
(-19.3425 0.879736 0)
(-18.6798 1.07717 0)
(-17.9295 1.21916 0)
(-17.1299 1.29422 0)
(-16.2799 1.34477 0)
(-15.3829 1.36732 0)
(-14.449 1.36632 0)
(-13.4878 1.34769 0)
(-12.5114 1.31586 0)
(-11.5336 1.27411 0)
(-10.5685 1.22474 0)
(-9.62887 1.16819 0)
(-8.73122 1.10482 0)
(-7.87966 1.03613 0)
(-7.09478 0.956787 0)
(-6.37686 0.87805 0)
(-5.72046 0.781565 0)
(-5.15713 0.678288 0)
(-4.64583 0.556392 0)
(-4.23718 0.426069 0)
(-3.8624 0.304685 0)
(-3.58939 0.107908 0)
(-3.41391 -0.0706582 0)
(-3.38785 -0.108296 0)
(-3.30472 -0.0997632 0)
(-3.26445 -0.0756677 0)
(-3.23872 -0.0500878 0)
(-3.24763 -0.0296766 0)
(-3.28668 -0.0112908 0)
(-3.33709 0.000423567 0)
(-3.40656 0.0121755 0)
(-3.48385 0.0203455 0)
(-3.57097 0.0272355 0)
(-3.66167 0.0316636 0)
(-3.75555 0.0350001 0)
(-3.84838 0.0372084 0)
(-3.94105 0.0364101 0)
(-4.02176 0.0306539 0)
(-4.07846 0.00601713 0)
(-4.15054 -0.0565409 0)
(-4.25529 -0.126844 0)
(-4.34804 -0.176981 0)
(-4.43808 -0.210596 0)
(-4.52401 -0.234151 0)
(-4.6047 -0.25235 0)
(-4.68185 -0.259243 0)
(-4.75424 -0.26074 0)
(-4.82342 -0.254334 0)
(-4.88746 -0.24372 0)
(-4.94714 -0.228266 0)
(-5.00103 -0.210287 0)
(-5.04927 -0.189566 0)
(-5.09084 -0.167455 0)
(-5.12576 -0.144531 0)
(-5.15394 -0.121649 0)
(-5.17501 -0.099366 0)
(-5.1896 -0.0782213 0)
(-5.19799 -0.0586025 0)
(-5.1999 -0.0410821 0)
(-5.19658 -0.0266702 0)
(-5.18925 -0.0157648 0)
(-5.1789 -0.00543465 0)
(-5.16478 0.0021982 0)
(-5.14863 0.00840503 0)
(-5.13075 0.0130889 0)
(-5.11154 0.0167518 0)
(-5.09102 0.0197408 0)
(-5.06994 0.0217806 0)
(-5.0484 0.0232937 0)
(-5.02671 0.02417 0)
(-5.005 0.0247196 0)
(-4.98343 0.0248714 0)
(-4.96214 0.0247684 0)
(-4.94119 0.024501 0)
(-4.92065 0.0240563 0)
(-4.90058 0.0234914 0)
(-4.88099 0.0228781 0)
(-4.86192 0.0222021 0)
(-4.84334 0.0215395 0)
(-4.82529 0.020836 0)
(-4.80773 0.0201528 0)
(-4.79066 0.0195016 0)
(-4.77406 0.0188512 0)
(-4.75793 0.0182276 0)
(-4.74224 0.0176427 0)
(-4.72698 0.0170865 0)
(-4.71212 0.0165771 0)
(-4.69764 0.0160848 0)
(-4.68354 0.0156296 0)
(-4.66978 0.0152102 0)
(-4.65635 0.014817 0)
(-4.64323 0.0144502 0)
(-4.63041 0.0141156 0)
(-4.61786 0.0138024 0)
(-4.60557 0.0135131 0)
(-4.59354 0.0132513 0)
(-4.58174 0.0130078 0)
(-4.57015 0.0127835 0)
(-4.55877 0.0125828 0)
(-4.54757 0.0123972 0)
(-4.53656 0.0122283 0)
(-4.52571 0.0120791 0)
(-4.515 0.0119417 0)
(-4.50444 0.0118177 0)
(-4.494 0.0117103 0)
(-4.48368 0.0116117 0)
(-4.47345 0.0115232 0)
(-4.46332 0.0114458 0)
(-4.45328 0.011379 0)
(-4.4433 0.0113188 0)
(-4.43339 0.0112661 0)
(-4.42353 0.0112227 0)
(-4.41372 0.0111842 0)
(-4.40394 0.0111513 0)
(-4.39419 0.0111262 0)
(-4.38446 0.0111036 0)
(-4.37474 0.0110866 0)
(-4.36503 0.0110766 0)
(-4.35531 0.0110682 0)
(-4.34558 0.0110621 0)
(-4.33585 0.0110677 0)
(-4.32609 0.0110658 0)
(-4.31631 0.0110701 0)
(-4.30651 0.0110797 0)
(-4.29666 0.0110871 0)
(-4.28678 0.0110994 0)
(-4.27685 0.0111151 0)
(-4.26689 0.0111326 0)
(-4.25687 0.01115 0)
(-4.2468 0.0111736 0)
(-4.23667 0.0111916 0)
(-4.2265 0.0112214 0)
(-4.21627 0.0112403 0)
(-4.20598 0.0112734 0)
(-4.19563 0.0112962 0)
(-4.18523 0.0113306 0)
(-4.17476 0.0113551 0)
(-4.16425 0.0113914 0)
(-4.15367 0.0114182 0)
(-4.14304 0.011456 0)
(-4.13236 0.0114838 0)
(-4.12162 0.0115239 0)
(-4.11084 0.0115528 0)
(-4.1 0.0115913 0)
(-4.08913 0.011623 0)
(-4.07821 0.0116613 0)
(-4.06725 0.0116953 0)
(-4.05626 0.0117324 0)
(-4.04524 0.0117699 0)
(-4.03419 0.0118045 0)
(-4.02312 0.0118434 0)
(-4.01204 0.011877 0)
(-4.00094 0.0119178 0)
(-3.98983 0.0119501 0)
(-3.97871 0.0119907 0)
(-3.9676 0.0120229 0)
(-3.95649 0.0120622 0)
(-3.9454 0.0120925 0)
(-3.93432 0.0121314 0)
(-3.92326 0.0121609 0)
(-3.91224 0.0121978 0)
(-3.90124 0.0122266 0)
(-3.89028 0.0122618 0)
(-3.87937 0.0122883 0)
(-3.8685 0.0123214 0)
(-3.85769 0.0123464 0)
(-3.84695 0.0123778 0)
(-3.83626 0.0124013 0)
(-3.82565 0.0124305 0)
(-3.81511 0.0124524 0)
(-3.80465 0.0124785 0)
(-3.79427 0.0124972 0)
(-3.78399 0.0125206 0)
(-3.7738 0.0125377 0)
(-3.7637 0.0125571 0)
(-3.75371 0.0125716 0)
(-3.74382 0.0125868 0)
(-3.73405 0.0125981 0)
(-3.72438 0.0126085 0)
(-3.71484 0.0126183 0)
(-3.70541 0.0126248 0)
(-3.69611 0.0126309 0)
(-3.68692 0.0126331 0)
(-3.67787 0.0126355 0)
(-3.66895 0.0126333 0)
(-3.66016 0.0126323 0)
(-3.65151 0.0126284 0)
(-3.64298 0.0126237 0)
(-3.6346 0.0126167 0)
(-3.62634 0.0126076 0)
(-3.61823 0.0125974 0)
(-3.61025 0.0125837 0)
(-3.60241 0.0125699 0)
(-3.5947 0.0125531 0)
(-3.58713 0.0125361 0)
(-3.57969 0.0125156 0)
(-3.57239 0.0124946 0)
(-3.56522 0.0124717 0)
(-3.55819 0.0124469 0)
(-3.55128 0.0124215 0)
(-3.5445 0.0123939 0)
(-3.53784 0.0123661 0)
(-3.53131 0.0123357 0)
(-3.5249 0.0123053 0)
(-3.5186 0.0122725 0)
(-3.51242 0.0122394 0)
(-3.50635 0.0122045 0)
(-3.50039 0.0121686 0)
(-3.49453 0.012132 0)
(-3.48878 0.0120935 0)
(-3.48312 0.0120549 0)
(-3.47756 0.0120146 0)
(-3.47208 0.0119742 0)
(-3.46669 0.0119325 0)
(-3.46139 0.0118908 0)
(-3.45616 0.0118484 0)
(-3.45101 0.0118053 0)
(-3.44593 0.011762 0)
(-3.44091 0.0117177 0)
(-3.43596 0.0116733 0)
(-3.43106 0.0116279 0)
(-3.42622 0.0115821 0)
(-3.42142 0.0115359 0)
(-3.41667 0.0114888 0)
(-3.41196 0.0114417 0)
(-3.4073 0.0113938 0)
(-3.40266 0.0113459 0)
(-3.39806 0.0112977 0)
(-3.39348 0.0112495 0)
(-3.38893 0.0112015 0)
(-3.38439 0.0111536 0)
(-3.37988 0.0111066 0)
(-3.37538 0.0110599 0)
(-3.37089 0.0110143 0)
(-3.36641 0.0109692 0)
(-3.36194 0.0109245 0)
(-3.35747 0.0108802 0)
(-3.35299 0.0108359 0)
(-3.34852 0.0107921 0)
(-3.34404 0.0107482 0)
(-3.33956 0.0107049 0)
(-3.33506 0.0106614 0)
(-3.33056 0.0106185 0)
(-3.32605 0.0105759 0)
(-3.32153 0.010534 0)
(-3.317 0.0104929 0)
(-3.31245 0.0104521 0)
(-3.30789 0.0104119 0)
(-3.30331 0.0103715 0)
(-3.29872 0.0103316 0)
(-3.29412 0.0102913 0)
(-3.2895 0.0102516 0)
(-3.28486 0.0102119 0)
(-3.28021 0.0101728 0)
(-3.27555 0.0101337 0)
(-3.27088 0.010095 0)
(-3.26619 0.0100561 0)
(-3.26149 0.0100174 0)
(-3.25678 0.00997899 0)
(-3.25207 0.00994088 0)
(-3.24735 0.00990324 0)
(-3.24262 0.00986575 0)
(-3.23789 0.00982875 0)
(-3.23315 0.00979183 0)
(-3.22842 0.00975544 0)
(-3.22368 0.00971962 0)
(-3.21895 0.00968451 0)
(-3.21423 0.00965009 0)
(-3.20951 0.00961624 0)
(-3.2048 0.00958277 0)
(-3.2001 0.00954953 0)
(-3.19541 0.00951637 0)
(-3.19074 0.00948355 0)
(-3.18608 0.00945091 0)
(-3.18144 0.00941849 0)
(-3.17682 0.00938608 0)
(-3.17222 0.00935327 0)
(-3.16765 0.00931954 0)
(-3.1631 0.00928463 0)
(-3.15858 0.00924833 0)
(-3.15409 0.00921119 0)
(-3.14963 0.00917347 0)
(-3.14521 0.00913573 0)
(-3.14082 0.00909809 0)
(-3.13648 0.00906018 0)
(-3.13217 0.00902161 0)
(-3.1279 0.0089822 0)
(-3.12368 0.00894173 0)
(-3.1195 0.00890052 0)
(-3.11536 0.0088589 0)
(-3.11128 0.00881739 0)
(-3.10724 0.00877621 0)
(-3.10325 0.00873541 0)
(-3.09931 0.008695 0)
(-3.09543 0.00865457 0)
(-3.09159 0.00861383 0)
(-3.08781 0.00857239 0)
(-3.08408 0.00853006 0)
(-3.0804 0.00848663 0)
(-3.07677 0.00844227 0)
(-3.07319 0.00839714 0)
(-3.06967 0.00835171 0)
(-3.06621 0.00830658 0)
(-3.0628 0.00826228 0)
(-3.05944 0.00821906 0)
(-3.05614 0.00817665 0)
(-3.05289 0.00813456 0)
(-3.04969 0.008092 0)
(-3.04654 0.00804857 0)
(-3.04344 0.00800379 0)
(-3.04039 0.00795769 0)
(-3.03738 0.00791022 0)
(-3.03442 0.00786167 0)
(-3.03151 0.00781211 0)
(-3.02865 0.00776199 0)
(-3.02583 0.00771146 0)
(-3.02305 0.00766076 0)
(-3.02032 0.00760992 0)
(-3.01763 0.00755902 0)
(-3.01499 0.00750796 0)
(-3.01238 0.00745687 0)
(-3.00981 0.00740576 0)
(-3.00728 0.0073547 0)
(-3.00479 0.00730413 0)
(-3.00234 0.00725503 0)
(-2.99994 0.0072105 0)
(-2.99763 0.00717427 0)
(-2.99546 0.00712902 0)
(-2.99313 0.00687814 0)
(-2.99066 0.00682475 0)
(-2.98832 0.00657521 0)
(-2.986 0.00647944 0)
(-2.98366 0.00639243 0)
(-2.98138 0.00614668 0)
(-2.97921 0.0060201 0)
(-2.977 0.00590061 0)
(-2.97475 0.00581329 0)
(-2.97256 0.00557508 0)
(-2.97045 0.00541607 0)
(-2.9683 0.00529323 0)
(-2.96618 0.00506749 0)
(-2.96412 0.00491344 0)
(-2.96201 0.00479487 0)
(-2.95994 0.00459333 0)
(-2.9579 0.00445169 0)
(-2.95584 0.00434696 0)
(-2.9538 0.00417267 0)
(-2.95178 0.00405354 0)
(-2.94976 0.00393578 0)
(-2.94773 0.00387016 0)
(-2.9457 0.00372012 0)
(-2.94371 0.00360616 0)
(-2.9417 0.00352176 0)
(-2.9397 0.00337887 0)
(-2.93772 0.00327724 0)
(-2.93574 0.00317606 0)
(-2.93375 0.00312135 0)
(-2.93176 0.00299649 0)
(-2.9298 0.00290022 0)
(-2.92782 0.00282754 0)
(-2.92586 0.00270547 0)
(-2.92391 0.00261711 0)
(-2.92197 0.0025307 0)
(-2.92002 0.00248805 0)
(-2.91807 0.00238101 0)
(-2.91614 0.00230503 0)
(-2.91422 0.00222675 0)
(-2.9123 0.00218898 0)
(-2.91038 0.00209477 0)
(-2.90848 0.00201944 0)
(-2.90659 0.00195283 0)
(-2.90471 0.00189924 0)
(-2.90281 0.00186759 0)
(-2.90094 0.00177927 0)
(-2.89908 0.00171198 0)
(-2.89724 0.00164389 0)
(-2.89539 0.00161018 0)
(-2.89356 0.00152182 0)
(-2.89175 0.00145581 0)
(-2.88995 0.00139212 0)
(-2.88817 0.00134388 0)
(-2.88638 0.00131262 0)
(-2.88462 0.00123071 0)
(-2.88287 0.00117147 0)
(-2.88113 0.00110663 0)
(-2.87941 0.00106286 0)
(-2.87769 0.00101902 0)
(-2.87598 0.000941032 0)
(-2.87429 0.000872179 0)
(-2.87262 0.000800206 0)
(-2.87096 0.000743273 0)
(-2.86931 0.00068143 0)
(-2.86765 0.00063508 0)
(-2.86601 0.000530831 0)
(-2.86439 0.000452161 0)
(-2.86277 0.000350662 0)
(-2.86116 0.000269469 0)
(-2.85954 0.000172056 0)
(-2.85793 7.38614e-05 0)
(-2.85631 -3.01066e-05 0)
(-2.85469 -0.000150221 0)
(-2.85303 -0.000268912 0)
(-2.85138 -0.000470171 0)
(-2.84972 -0.000645829 0)
(-2.84804 -0.000867637 0)
(-2.84635 -0.00106978 0)
(-2.84462 -0.00129182 0)
(-2.84287 -0.00150943 0)
(-2.84107 -0.00174252 0)
(-2.83922 -0.00196625 0)
(-2.83732 -0.00220719 0)
(-2.83534 -0.00242979 0)
(-2.8333 -0.00275066 0)
(-2.83122 -0.00306779 0)
(-2.82902 -0.00327867 0)
(-2.82672 -0.00357136 0)
(-2.82432 -0.00371091 0)
(-2.82177 -0.00397462 0)
(-2.81914 -0.00397195 0)
(-2.81633 -0.0039029 0)
(-2.81343 -0.00353871 0)
(-2.81033 -0.00279291 0)
(-2.80711 -0.00186642 0)
(-2.80378 -0.000328101 0)
(-2.80035 0.00211793 0)
(-2.79676 0.00553838 0)
(-2.79307 0.0100814 0)
(-2.78912 0.016645 0)
(-2.78493 0.0250542 0)
(-2.77952 0.0366856 0)
(-2.77415 0.0524152 0)
(-2.76585 0.0710889 0)
(-2.75126 0.0980383 0)
(-2.74072 0.124809 0)
(-2.74213 0.150272 0)
(-2.75195 0.181029 0)
(-2.77129 0.222271 0)
(-2.79129 0.275575 0)
(-2.8093 0.337643 0)
(-2.79691 0.401757 0)
(-2.74867 0.458567 0)
(-2.61508 0.476548 0)
(-2.47875 0.482984 0)
(-2.1948 0.450109 0)
(-2.02054 0.408874 0)
(-1.64627 0.350309 0)
(-1.54757 0.294963 0)
(-1.17848 0.193071 0)
(-0.127072 -0.0354228 0)
(-0.166395 -0.336169 0)
(0.187401 -0.678926 0)
(0.742393 -0.943201 0)
(1.52204 -1.05507 0)
(2.28509 -1.01792 0)
(3.06148 -0.871791 0)
(3.70979 -0.666282 0)
(4.25579 -0.38489 0)
(4.63781 -0.169755 0)
(4.82563 0.115801 0)
(4.70367 0.370655 0)
(4.27283 0.563541 0)
(3.64013 0.724402 0)
(2.78498 0.853615 0)
(1.87189 0.829671 0)
(0.956413 0.712922 0)
(0.163403 0.502791 0)
(-0.476803 0.241599 0)
(-0.900963 -0.0609515 0)
(-1.12333 -0.324236 0)
(-1.2049 -0.490759 0)
(-1.36418 -0.514801 0)
(-1.51611 -0.37256 0)
(-1.80169 -0.255889 0)
(-2.33959 -0.0630654 0)
(-3.18761 0.143717 0)
(-4.42838 0.402991 0)
(-6.06827 0.719251 0)
(-8.14307 0.951301 0)
(-10.6063 1.2398 0)
(-13.384 1.61334 0)
(-16.3327 1.99649 0)
(-19.3021 2.32015 0)
(-22.1588 2.54188 0)
(-24.8063 2.60657 0)
(-27.1781 2.4589 0)
(-29.2334 2.23551 0)
(-30.8467 2.04585 0)
(-32.06 1.84988 0)
(-32.9571 1.62756 0)
(-33.5289 1.37573 0)
(-33.8149 1.13601 0)
(-33.8101 0.885536 0)
(-33.4567 0.693398 0)
(-33.0418 0.435295 0)
(-32.3941 0.220552 0)
(-31.6491 -0.00315711 0)
(-30.8217 -0.244293 0)
(-29.9224 -0.425629 0)
(-28.97 -0.616262 0)
(-27.9626 -0.778154 0)
(-26.8908 -0.886685 0)
(-25.7635 -1.04217 0)
(-24.572 -1.16703 0)
(-23.3268 -1.25522 0)
(-22.0436 -1.34355 0)
(-20.7197 -1.41827 0)
(-19.3636 -1.479 0)
(-17.9849 -1.52384 0)
(-16.5975 -1.55044 0)
(-15.2165 -1.5573 0)
(-13.8591 -1.54343 0)
(-12.5407 -1.5089 0)
(-11.2749 -1.45445 0)
(-10.0785 -1.37995 0)
(-8.9524 -1.29114 0)
(-7.91789 -1.18611 0)
(-6.9827 -1.07304 0)
(-6.13608 -0.956817 0)
(-5.40143 -0.83655 0)
(-4.74716 -0.722996 0)
(-4.19391 -0.596254 0)
(-3.77459 -0.534206 0)
(-3.2885 -0.489705 0)
(-2.87927 -0.39284 0)
(-2.62061 -0.302009 0)
(-2.46412 -0.216677 0)
(-2.37249 -0.136626 0)
(-2.33437 -0.0716086 0)
(-2.34791 -0.000387277 0)
(-2.40423 0.0465654 0)
(-2.48912 0.0850533 0)
(-2.6028 0.114001 0)
(-2.74043 0.136998 0)
(-2.89892 0.153575 0)
(-3.07461 0.166429 0)
(-3.26575 0.176542 0)
(-3.47207 0.182442 0)
(-3.69493 0.18233 0)
(-3.95676 0.171807 0)
(-4.21782 0.146987 0)
(-4.43242 0.123273 0)
(-4.65041 0.111853 0)
(-4.87764 0.10964 0)
(-5.09231 0.105284 0)
(-5.30715 0.101024 0)
(-5.51295 0.0977483 0)
(-5.71111 0.0929975 0)
(-5.89865 0.0880209 0)
(-6.07463 0.0814093 0)
(-6.23791 0.0739954 0)
(-6.3876 0.0652961 0)
(-6.52325 0.0557136 0)
(-6.64461 0.045331 0)
(-6.75149 0.034538 0)
(-6.84441 0.0235079 0)
(-6.92349 0.0126248 0)
(-6.98983 0.00218079 0)
(-7.04388 -0.00774459 0)
(-7.08702 -0.0168489 0)
(-7.12037 -0.0240908 0)
(-7.14501 -0.0292336 0)
(-7.16209 -0.0350757 0)
(-7.17329 -0.0393759 0)
(-7.18033 -0.0424195 0)
(-7.18376 -0.0445875 0)
(-7.18397 -0.0465626 0)
(-7.18159 -0.0478112 0)
(-7.17796 -0.0485099 0)
(-7.17295 -0.0488342 0)
(-7.16718 -0.0488413 0)
(-7.16084 -0.0486016 0)
(-7.15426 -0.0481395 0)
(-7.14761 -0.0475224 0)
(-7.14105 -0.0468074 0)
(-7.1347 -0.0459972 0)
(-7.12865 -0.04513 0)
(-7.12295 -0.044239 0)
(-7.11765 -0.0433459 0)
(-7.11277 -0.0424499 0)
(-7.10831 -0.0415599 0)
(-7.1043 -0.040703 0)
(-7.1007 -0.0398731 0)
(-7.09752 -0.0390635 0)
(-7.09474 -0.0382835 0)
(-7.09235 -0.0375381 0)
(-7.09031 -0.0368331 0)
(-7.08863 -0.0361582 0)
(-7.08726 -0.0355112 0)
(-7.08619 -0.0348981 0)
(-7.0854 -0.0343159 0)
(-7.08487 -0.033766 0)
(-7.08457 -0.0332412 0)
(-7.08449 -0.0327441 0)
(-7.0846 -0.0322748 0)
(-7.08489 -0.0318253 0)
(-7.08534 -0.0313967 0)
(-7.08594 -0.0309922 0)
(-7.08667 -0.0306023 0)
(-7.08751 -0.0302323 0)
(-7.08845 -0.0298817 0)
(-7.08946 -0.029546 0)
(-7.09055 -0.0292267 0)
(-7.09168 -0.0289239 0)
(-7.09285 -0.0286328 0)
(-7.09405 -0.0283558 0)
(-7.09525 -0.0280953 0)
(-7.09646 -0.0278428 0)
(-7.09766 -0.0275994 0)
(-7.09884 -0.027368 0)
(-7.09998 -0.0271462 0)
(-7.10109 -0.026932 0)
(-7.10214 -0.0267264 0)
(-7.10313 -0.0265292 0)
(-7.10405 -0.0263375 0)
(-7.10489 -0.0261527 0)
(-7.10564 -0.0259751 0)
(-7.1063 -0.0258013 0)
(-7.10686 -0.0256344 0)
(-7.10731 -0.0254741 0)
(-7.10764 -0.025316 0)
(-7.10786 -0.0251604 0)
(-7.10797 -0.0250136 0)
(-7.10791 -0.0248668 0)
(-7.10775 -0.0247236 0)
(-7.10744 -0.0245838 0)
(-7.10697 -0.0244464 0)
(-7.10636 -0.0243111 0)
(-7.1056 -0.0241794 0)
(-7.10468 -0.0240511 0)
(-7.10361 -0.0239227 0)
(-7.10238 -0.0237959 0)
(-7.10099 -0.0236719 0)
(-7.09943 -0.0235485 0)
(-7.09772 -0.0234265 0)
(-7.09584 -0.0233061 0)
(-7.0938 -0.023188 0)
(-7.09159 -0.0230686 0)
(-7.08922 -0.0229513 0)
(-7.0867 -0.0228339 0)
(-7.08401 -0.0227193 0)
(-7.08116 -0.0226028 0)
(-7.07816 -0.0224896 0)
(-7.075 -0.0223749 0)
(-7.07169 -0.0222615 0)
(-7.06824 -0.022146 0)
(-7.06463 -0.0220333 0)
(-7.0609 -0.0219193 0)
(-7.05702 -0.0218063 0)
(-7.05301 -0.0216936 0)
(-7.04887 -0.0215816 0)
(-7.04461 -0.0214693 0)
(-7.04022 -0.0213561 0)
(-7.03573 -0.0212449 0)
(-7.03112 -0.0211326 0)
(-7.02641 -0.0210217 0)
(-7.02161 -0.0209097 0)
(-7.01671 -0.0208 0)
(-7.01173 -0.0206872 0)
(-7.00666 -0.0205766 0)
(-7.00152 -0.0204643 0)
(-6.99632 -0.0203544 0)
(-6.99105 -0.0202423 0)
(-6.98573 -0.0201327 0)
(-6.98036 -0.020021 0)
(-6.97494 -0.0199109 0)
(-6.96949 -0.0197984 0)
(-6.96401 -0.0196889 0)
(-6.95851 -0.0195784 0)
(-6.95299 -0.0194695 0)
(-6.94745 -0.0193595 0)
(-6.94191 -0.0192517 0)
(-6.93637 -0.0191416 0)
(-6.93084 -0.0190332 0)
(-6.92532 -0.018925 0)
(-6.91982 -0.0188183 0)
(-6.91433 -0.0187108 0)
(-6.90888 -0.0186034 0)
(-6.90346 -0.018495 0)
(-6.89808 -0.0183881 0)
(-6.89274 -0.0182823 0)
(-6.88745 -0.0181765 0)
(-6.88221 -0.0180727 0)
(-6.87702 -0.0179677 0)
(-6.8719 -0.0178613 0)
(-6.86684 -0.0177559 0)
(-6.86184 -0.0176528 0)
(-6.85692 -0.0175494 0)
(-6.85206 -0.0174481 0)
(-6.84728 -0.0173484 0)
(-6.84257 -0.0172477 0)
(-6.83794 -0.0171471 0)
(-6.83339 -0.0170479 0)
(-6.82892 -0.0169496 0)
(-6.82454 -0.0168514 0)
(-6.82023 -0.0167548 0)
(-6.81601 -0.0166586 0)
(-6.81188 -0.0165625 0)
(-6.80782 -0.016467 0)
(-6.80385 -0.0163726 0)
(-6.79997 -0.0162792 0)
(-6.79616 -0.0161866 0)
(-6.79244 -0.0160952 0)
(-6.78879 -0.0160044 0)
(-6.78522 -0.0159143 0)
(-6.78173 -0.015825 0)
(-6.77832 -0.0157369 0)
(-6.77498 -0.0156492 0)
(-6.7717 -0.0155624 0)
(-6.7685 -0.0154767 0)
(-6.76536 -0.0153912 0)
(-6.76228 -0.0153065 0)
(-6.75927 -0.0152225 0)
(-6.75631 -0.0151392 0)
(-6.7534 -0.0150563 0)
(-6.75054 -0.0149745 0)
(-6.74773 -0.0148936 0)
(-6.74497 -0.0148135 0)
(-6.74224 -0.0147342 0)
(-6.73955 -0.0146557 0)
(-6.7369 -0.0145782 0)
(-6.73427 -0.0145007 0)
(-6.73167 -0.0144238 0)
(-6.72909 -0.0143475 0)
(-6.72653 -0.0142715 0)
(-6.72399 -0.0141958 0)
(-6.72146 -0.0141203 0)
(-6.71894 -0.0140452 0)
(-6.71642 -0.0139703 0)
(-6.7139 -0.0138956 0)
(-6.71139 -0.0138212 0)
(-6.70887 -0.013747 0)
(-6.70634 -0.0136733 0)
(-6.7038 -0.0136 0)
(-6.70125 -0.0135277 0)
(-6.69868 -0.0134564 0)
(-6.69609 -0.0133858 0)
(-6.69348 -0.0133158 0)
(-6.69085 -0.0132458 0)
(-6.68819 -0.013176 0)
(-6.6855 -0.0131063 0)
(-6.68278 -0.0130368 0)
(-6.68003 -0.012967 0)
(-6.67724 -0.0128973 0)
(-6.67442 -0.0128274 0)
(-6.67156 -0.0127575 0)
(-6.66867 -0.012688 0)
(-6.66574 -0.0126194 0)
(-6.66277 -0.0125512 0)
(-6.65976 -0.0124827 0)
(-6.65671 -0.0124143 0)
(-6.65362 -0.0123452 0)
(-6.65049 -0.0122758 0)
(-6.64732 -0.0122064 0)
(-6.64411 -0.0121371 0)
(-6.64086 -0.0120678 0)
(-6.63758 -0.0119986 0)
(-6.63426 -0.011929 0)
(-6.6309 -0.011859 0)
(-6.62751 -0.0117886 0)
(-6.62409 -0.0117181 0)
(-6.62063 -0.0116477 0)
(-6.61714 -0.0115773 0)
(-6.61362 -0.011507 0)
(-6.61008 -0.0114363 0)
(-6.60651 -0.0113653 0)
(-6.60291 -0.0112942 0)
(-6.5993 -0.0112234 0)
(-6.59566 -0.011153 0)
(-6.592 -0.0110831 0)
(-6.58833 -0.0110138 0)
(-6.58464 -0.0109447 0)
(-6.58094 -0.0108755 0)
(-6.57723 -0.0108062 0)
(-6.57351 -0.0107372 0)
(-6.56978 -0.0106685 0)
(-6.56605 -0.0106005 0)
(-6.56232 -0.0105333 0)
(-6.55858 -0.0104663 0)
(-6.55485 -0.0103989 0)
(-6.55113 -0.0103302 0)
(-6.54741 -0.0102602 0)
(-6.54371 -0.0101893 0)
(-6.54002 -0.0101183 0)
(-6.53635 -0.0100483 0)
(-6.53269 -0.00997943 0)
(-6.52905 -0.00991091 0)
(-6.52543 -0.00984244 0)
(-6.52184 -0.00977342 0)
(-6.51827 -0.00970347 0)
(-6.51473 -0.0096328 0)
(-6.51122 -0.00956206 0)
(-6.50774 -0.00949199 0)
(-6.50429 -0.00942286 0)
(-6.50088 -0.009355 0)
(-6.4975 -0.00928842 0)
(-6.49415 -0.00922273 0)
(-6.49084 -0.00915762 0)
(-6.48756 -0.00909256 0)
(-6.48432 -0.00902718 0)
(-6.48112 -0.00896141 0)
(-6.47796 -0.00889504 0)
(-6.47484 -0.00882807 0)
(-6.47176 -0.00876088 0)
(-6.46873 -0.00869428 0)
(-6.46573 -0.00862923 0)
(-6.46277 -0.0085664 0)
(-6.45985 -0.0085057 0)
(-6.45697 -0.00844623 0)
(-6.45413 -0.00838741 0)
(-6.45133 -0.00832852 0)
(-6.44856 -0.00826915 0)
(-6.44584 -0.00820917 0)
(-6.44315 -0.00814875 0)
(-6.4405 -0.00808777 0)
(-6.43789 -0.00802653 0)
(-6.43531 -0.00796543 0)
(-6.43278 -0.00790469 0)
(-6.43027 -0.00784443 0)
(-6.42781 -0.00778482 0)
(-6.42537 -0.00772562 0)
(-6.42297 -0.00766661 0)
(-6.42061 -0.00760785 0)
(-6.41827 -0.00754866 0)
(-6.41597 -0.00748754 0)
(-6.4137 -0.0074223 0)
(-6.41146 -0.00734116 0)
(-6.4093 -0.00722536 0)
(-6.40752 -0.00698471 0)
(-6.40535 -0.00638391 0)
(-6.40306 -0.00614677 0)
(-6.40092 -0.00578964 0)
(-6.39856 -0.00558009 0)
(-6.39655 -0.00548819 0)
(-6.39443 -0.00531623 0)
(-6.39223 -0.00521344 0)
(-6.39015 -0.00512817 0)
(-6.38814 -0.00512137 0)
(-6.38613 -0.00503211 0)
(-6.38402 -0.00498383 0)
(-6.38204 -0.00497869 0)
(-6.38004 -0.00490954 0)
(-6.37799 -0.00487051 0)
(-6.37601 -0.00486399 0)
(-6.37403 -0.00479952 0)
(-6.37201 -0.0047565 0)
(-6.37004 -0.00474665 0)
(-6.36807 -0.00468145 0)
(-6.36608 -0.0046294 0)
(-6.36409 -0.00459173 0)
(-6.36214 -0.00458285 0)
(-6.3602 -0.00451075 0)
(-6.35821 -0.00446082 0)
(-6.35625 -0.00443648 0)
(-6.35429 -0.00436625 0)
(-6.35232 -0.00430732 0)
(-6.35033 -0.00426539 0)
(-6.34837 -0.00424593 0)
(-6.34643 -0.00417494 0)
(-6.34445 -0.00412525 0)
(-6.34247 -0.00409513 0)
(-6.3405 -0.0040245 0)
(-6.33852 -0.00396608 0)
(-6.33653 -0.00392482 0)
(-6.33455 -0.00390181 0)
(-6.33259 -0.00383199 0)
(-6.3306 -0.00377425 0)
(-6.3286 -0.00373381 0)
(-6.32662 -0.00370852 0)
(-6.32464 -0.00364433 0)
(-6.32265 -0.00358508 0)
(-6.32065 -0.0035372 0)
(-6.31866 -0.00350302 0)
(-6.31668 -0.00347615 0)
(-6.3147 -0.0034085 0)
(-6.31271 -0.00335039 0)
(-6.3107 -0.00331069 0)
(-6.30872 -0.00327992 0)
(-6.30673 -0.0032113 0)
(-6.30473 -0.00315554 0)
(-6.30273 -0.00310346 0)
(-6.30073 -0.00307082 0)
(-6.29874 -0.00303831 0)
(-6.29674 -0.00297071 0)
(-6.29472 -0.002918 0)
(-6.2927 -0.00286676 0)
(-6.29068 -0.00283231 0)
(-6.28866 -0.00279401 0)
(-6.28662 -0.00272915 0)
(-6.28456 -0.00266936 0)
(-6.28249 -0.00261623 0)
(-6.28041 -0.0025656 0)
(-6.27831 -0.00252391 0)
(-6.27619 -0.00248269 0)
(-6.27403 -0.00240305 0)
(-6.27182 -0.00233825 0)
(-6.26957 -0.00226973 0)
(-6.26728 -0.00220922 0)
(-6.26494 -0.00214124 0)
(-6.26253 -0.00207222 0)
(-6.26005 -0.00200353 0)
(-6.25748 -0.00193991 0)
(-6.25483 -0.00187023 0)
(-6.25203 -0.00174885 0)
(-6.2491 -0.00164771 0)
(-6.24602 -0.00152049 0)
(-6.24276 -0.00140227 0)
(-6.2393 -0.00127463 0)
(-6.23563 -0.00113894 0)
(-6.23169 -0.000989655 0)
(-6.22747 -0.000833888 0)
(-6.22293 -0.000669754 0)
(-6.21804 -0.000502569 0)
(-6.21274 -0.000242258 0)
(-6.20696 1.13859e-05 0)
(-6.20061 0.000210364 0)
(-6.19355 0.000495652 0)
(-6.18585 0.000720707 0)
(-6.17725 0.00108852 0)
(-6.16782 0.00138529 0)
(-6.15723 0.00174104 0)
(-6.14555 0.0020881 0)
(-6.13241 0.00241082 0)
(-6.11779 0.00293246 0)
(-6.10157 0.00338213 0)
(-6.08321 0.00374126 0)
(-6.06261 0.00406173 0)
(-6.03891 0.00424714 0)
(-6.01245 0.00401565 0)
(-5.98109 0.00348177 0)
(-5.94482 0.00129993 0)
(-5.90618 -0.00240463 0)
(-5.85143 -0.00734723 0)
(-5.79894 -0.0195936 0)
(-5.76028 -0.0321801 0)
(-5.71448 -0.0367627 0)
(-5.65224 -0.0357622 0)
(-5.57538 -0.0375446 0)
(-5.47678 -0.0514861 0)
(-5.35513 -0.0842226 0)
(-5.18929 -0.138558 0)
(-4.99148 -0.213723 0)
(-4.72024 -0.300449 0)
(-4.44345 -0.388032 0)
(-4.04531 -0.437411 0)
(-3.73043 -0.477375 0)
(-3.22614 -0.426997 0)
(-2.99611 -0.384548 0)
(-2.50452 -0.319865 0)
(-0.083527 -0.149363 0)
(-0.00250331 -0.699928 0)
(0.46268 -1.35917 0)
(1.11456 -1.83602 0)
(1.95891 -2.12419 0)
(2.80603 -2.14981 0)
(3.65691 -2.00162 0)
(4.40699 -1.68839 0)
(5.05473 -1.27007 0)
(5.50822 -0.763752 0)
(5.74686 -0.219461 0)
(5.79095 0.262947 0)
(5.66391 0.702297 0)
(5.2962 1.00659 0)
(4.65485 1.18051 0)
(3.84466 1.22217 0)
(2.93313 1.1272 0)
(2.02448 0.880459 0)
(1.17723 0.524959 0)
(0.443343 0.141803 0)
(-0.183058 -0.152578 0)
(-0.701643 -0.252955 0)
(-1.13522 -0.169208 0)
(-1.87983 0.143237 0)
(-3.06668 0.553693 0)
(-4.6386 1.15486 0)
(-6.71852 1.85503 0)
(-9.29695 2.59299 0)
(-12.3477 3.22504 0)
(-15.7084 3.89329 0)
(-19.1863 4.44019 0)
(-22.5569 4.78557 0)
(-25.6595 4.88388 0)
(-28.3661 4.80062 0)
(-30.5886 4.59704 0)
(-32.3346 4.31784 0)
(-33.6116 3.97169 0)
(-34.4585 3.52191 0)
(-35.0188 2.96291 0)
(-35.4148 2.42538 0)
(-35.6578 1.86736 0)
(-35.712 1.30544 0)
(-35.5319 0.754672 0)
(-35.1689 0.208523 0)
(-34.6669 -0.322847 0)
(-34.0099 -0.721957 0)
(-33.2907 -1.14933 0)
(-32.4299 -1.50363 0)
(-31.4777 -1.86874 0)
(-30.411 -2.17842 0)
(-29.2657 -2.47121 0)
(-28.062 -2.74016 0)
(-26.7878 -3.00472 0)
(-25.4633 -3.23359 0)
(-24.1198 -3.42277 0)
(-22.73 -3.56803 0)
(-21.2947 -3.69815 0)
(-19.827 -3.80184 0)
(-18.3331 -3.87464 0)
(-16.8232 -3.91302 0)
(-15.308 -3.9129 0)
(-13.8017 -3.87299 0)
(-12.3193 -3.79352 0)
(-10.8762 -3.6764 0)
(-9.48915 -3.52475 0)
(-8.17062 -3.34296 0)
(-6.93814 -3.13027 0)
(-5.78767 -2.89733 0)
(-4.74611 -2.6418 0)
(-3.80034 -2.37296 0)
(-2.97451 -2.0886 0)
(-2.24763 -1.79751 0)
(-1.62986 -1.50326 0)
(-1.13209 -1.1988 0)
(-0.758074 -0.897484 0)
(-0.436139 -0.675695 0)
(-0.179142 -0.499142 0)
(0.0227474 -0.352038 0)
(0.173625 -0.233208 0)
(0.274273 -0.134492 0)
(0.337825 -0.0657858 0)
(0.369034 -0.000550393 0)
(0.362596 0.0588584 0)
(0.324149 0.112813 0)
(0.258494 0.158651 0)
(0.166511 0.197501 0)
(0.0485358 0.231557 0)
(-0.0959484 0.262725 0)
(-0.267363 0.292268 0)
(-0.464095 0.323758 0)
(-0.686772 0.355878 0)
(-0.921097 0.400944 0)
(-1.17253 0.441148 0)
(-1.45013 0.465062 0)
(-1.74121 0.479308 0)
(-2.03325 0.479145 0)
(-2.32998 0.473828 0)
(-2.62065 0.461249 0)
(-2.90115 0.44217 0)
(-3.16768 0.416996 0)
(-3.4169 0.387001 0)
(-3.64718 0.352758 0)
(-3.85638 0.315626 0)
(-4.04444 0.276397 0)
(-4.21053 0.236464 0)
(-4.35575 0.196605 0)
(-4.48099 0.157818 0)
(-4.58748 0.12107 0)
(-4.67757 0.0867273 0)
(-4.75277 0.0552703 0)
(-4.81531 0.0279876 0)
(-4.86727 0.00330902 0)
(-4.90823 -0.0206237 0)
(-4.94199 -0.0389959 0)
(-4.97056 -0.0520532 0)
(-4.99338 -0.0624594 0)
(-5.01185 -0.0703956 0)
(-5.02683 -0.0761372 0)
(-5.03939 -0.080374 0)
(-5.05002 -0.0829853 0)
(-5.05931 -0.084489 0)
(-5.06766 -0.0849438 0)
(-5.0754 -0.0847139 0)
(-5.08283 -0.0838562 0)
(-5.09013 -0.082586 0)
(-5.09748 -0.0810349 0)
(-5.10499 -0.0792225 0)
(-5.11273 -0.0772701 0)
(-5.12076 -0.0752581 0)
(-5.12911 -0.0731867 0)
(-5.13782 -0.0711419 0)
(-5.14688 -0.0690985 0)
(-5.15631 -0.0671076 0)
(-5.16609 -0.0652028 0)
(-5.17622 -0.0633416 0)
(-5.18668 -0.061563 0)
(-5.19744 -0.0598861 0)
(-5.2085 -0.0582789 0)
(-5.21984 -0.0567732 0)
(-5.23144 -0.0553321 0)
(-5.24328 -0.053978 0)
(-5.25534 -0.0527189 0)
(-5.26759 -0.0515178 0)
(-5.28004 -0.0503941 0)
(-5.29264 -0.0493533 0)
(-5.30539 -0.0483563 0)
(-5.31827 -0.0474235 0)
(-5.33127 -0.0465539 0)
(-5.34437 -0.0457228 0)
(-5.35756 -0.0449368 0)
(-5.37081 -0.0442088 0)
(-5.38412 -0.0435108 0)
(-5.39747 -0.0428563 0)
(-5.41083 -0.0422499 0)
(-5.42421 -0.0416708 0)
(-5.43759 -0.0411303 0)
(-5.45094 -0.0406295 0)
(-5.46427 -0.0401486 0)
(-5.47755 -0.0396867 0)
(-5.49079 -0.0392565 0)
(-5.50397 -0.0388547 0)
(-5.51707 -0.0384676 0)
(-5.53009 -0.038101 0)
(-5.54301 -0.0377575 0)
(-5.55584 -0.0374258 0)
(-5.56856 -0.0371117 0)
(-5.58115 -0.0368173 0)
(-5.59362 -0.036534 0)
(-5.60595 -0.0362661 0)
(-5.61814 -0.0360136 0)
(-5.63019 -0.0357661 0)
(-5.64207 -0.035522 0)
(-5.6538 -0.0352993 0)
(-5.66536 -0.0350744 0)
(-5.67675 -0.0348597 0)
(-5.68796 -0.0346551 0)
(-5.69899 -0.0344536 0)
(-5.70983 -0.0342601 0)
(-5.72048 -0.0340758 0)
(-5.73093 -0.0338974 0)
(-5.74118 -0.0337187 0)
(-5.75124 -0.0335473 0)
(-5.7611 -0.0333744 0)
(-5.77075 -0.033218 0)
(-5.78019 -0.033052 0)
(-5.78943 -0.0329022 0)
(-5.79847 -0.0327445 0)
(-5.80729 -0.0325977 0)
(-5.81591 -0.0324401 0)
(-5.82433 -0.0322987 0)
(-5.83254 -0.0321494 0)
(-5.84054 -0.0320133 0)
(-5.84834 -0.0318677 0)
(-5.85594 -0.0317336 0)
(-5.86334 -0.0315885 0)
(-5.87055 -0.0314515 0)
(-5.87756 -0.0313085 0)
(-5.88439 -0.0311738 0)
(-5.89102 -0.0310359 0)
(-5.89748 -0.0309 0)
(-5.90375 -0.0307654 0)
(-5.90985 -0.0306278 0)
(-5.91579 -0.0304939 0)
(-5.92155 -0.0303556 0)
(-5.92716 -0.0302252 0)
(-5.93261 -0.0300886 0)
(-5.93791 -0.0299585 0)
(-5.94307 -0.0298208 0)
(-5.94808 -0.0296898 0)
(-5.95297 -0.0295499 0)
(-5.95773 -0.0294175 0)
(-5.96236 -0.0292785 0)
(-5.96689 -0.0291465 0)
(-5.9713 -0.0290068 0)
(-5.97561 -0.028873 0)
(-5.97982 -0.0287318 0)
(-5.98395 -0.0285957 0)
(-5.98799 -0.0284533 0)
(-5.99195 -0.0283179 0)
(-5.99585 -0.0281775 0)
(-5.99967 -0.0280416 0)
(-6.00344 -0.0279005 0)
(-6.00715 -0.0277643 0)
(-6.01082 -0.0276221 0)
(-6.01445 -0.0274842 0)
(-6.01804 -0.0273431 0)
(-6.0216 -0.0272046 0)
(-6.02513 -0.0270621 0)
(-6.02865 -0.0269211 0)
(-6.03215 -0.0267781 0)
(-6.03565 -0.0266354 0)
(-6.03913 -0.0264929 0)
(-6.04262 -0.026349 0)
(-6.04612 -0.026207 0)
(-6.04962 -0.0260615 0)
(-6.05314 -0.0259172 0)
(-6.05667 -0.0257728 0)
(-6.06021 -0.0256305 0)
(-6.06379 -0.0254867 0)
(-6.06738 -0.025346 0)
(-6.071 -0.0252059 0)
(-6.07465 -0.0250636 0)
(-6.07834 -0.0249228 0)
(-6.08205 -0.0247822 0)
(-6.0858 -0.0246421 0)
(-6.08959 -0.0245006 0)
(-6.09341 -0.0243616 0)
(-6.09727 -0.0242214 0)
(-6.10117 -0.0240817 0)