/*--------------------------------*- C++ -*----------------------------------*\
| =========                 |                                                 |
| \\      /  F ield         | OpenFOAM: The Open Source CFD Toolbox           |
|  \\    /   O peration     | Version:  v1812                                 |
|   \\  /    A nd           | Web:      www.OpenFOAM.com                      |
|    \\/     M anipulation  |                                                 |
\*---------------------------------------------------------------------------*/
FoamFile
{
    version     2.0;
    format      ascii;
    class       surfaceScalarField;
    location    "0.0035";
    object      phi;
}
// * * * * * * * * * * * * * * * * * * * * * * * * * * * * * * * * * * * * * //

dimensions      [1 0 -1 0 0 0 0];
oriented        oriented;


internalField   nonuniform List<scalar> 
16762
(
0.0423011
2.57422e-17
0.0423011
1.55196e-18
0.0423011
-1.18803e-17
0.0423011
-1.12115e-17
0.0423011
-3.52128e-17
0.0423011
-1.21374e-17
0.0423011
-1.7774e-17
0.0423011
-2.63649e-17
0.0423011
-2.55241e-17
0.0423011
-2.97827e-17
0.0423011
-2.90839e-17
0.0423011
-2.08389e-17
0.0423011
-3.10215e-17
0.0423011
-1.98805e-17
0.0423011
9.70569e-18
0.0423011
2.10462e-17
0.0423011
2.55156e-17
0.0423011
5.24331e-17
0.0423011
6.91992e-17
0.0423011
7.62925e-17
0.0423011
8.29979e-17
0.0423011
7.78572e-17
0.0423011
9.2397e-17
0.0423011
5.95386e-17
0.0423011
7.71409e-17
0.0423011
8.51319e-17
0.0423011
7.82526e-17
0.0423011
1.00564e-16
0.0423011
9.26019e-17
0.0423011
8.93184e-17
0.0423011
9.676e-17
0.0423011
1.72913e-16
0.0423011
1.98599e-14
0.0423011
4.96301e-13
0.0423011
8.6547e-11
0.0423011
2.49857e-09
0.0423007
4.16112e-07
1.379e-05
0.0422868
0.0423011
-4.11599e-19
0.0423011
-1.99315e-17
0.0423011
-7.12704e-18
0.0423011
7.46459e-18
0.0423011
-5.4326e-18
0.0423011
-1.19989e-17
0.0423011
-1.57946e-17
0.0423011
-1.43994e-17
0.0423011
-3.32761e-17
0.0423011
-3.90661e-17
0.0423011
-2.68319e-17
0.0423011
-3.56277e-17
0.0423011
-3.44812e-17
0.0423011
-4.80484e-17
0.0423011
-3.51738e-17
0.0423011
-8.54266e-18
0.0423011
1.31432e-18
0.0423011
1.19699e-18
0.0423011
-1.86442e-17
0.0423011
3.75687e-17
0.0423011
6.87956e-17
0.0423011
6.28517e-17
0.0423011
6.21138e-17
0.0423011
9.99808e-17
0.0423011
6.53987e-17
0.0423011
5.36826e-17
0.0423011
8.22069e-17
0.0423011
8.42493e-17
0.0423011
9.42287e-17
0.0423011
8.67244e-17
0.0423011
8.01426e-17
0.0423011
2.20391e-16
0.0423011
7.53632e-15
0.0423011
4.99466e-13
0.0423011
2.1151e-11
0.0423011
1.5285e-09
0.0423015
4.77867e-08
3.45709e-06
0.0423119
0.0423011
-2.19637e-18
0.0423011
-1.94477e-18
0.0423011
1.5097e-17
0.0423011
-4.55948e-18
0.0423011
-5.46117e-18
0.0423011
-1.49397e-17
0.0423011
-3.20729e-17
0.0423011
-1.82041e-17
0.0423011
-1.68625e-17
0.0423011
-1.41735e-17
0.0423011
-3.29916e-17
0.0423011
-3.11939e-17
0.0423011
-2.73496e-17
0.0423011
-3.2096e-17
0.0423011
-2.46321e-17
0.0423011
-2.85709e-17
0.0423011
-2.97467e-17
0.0423011
-2.29311e-17
0.0423011
-1.73247e-17
0.0423011
-3.76041e-18
0.0423011
5.43368e-18
0.0423011
1.69489e-17
0.0423011
3.22659e-17
0.0423011
2.15872e-17
0.0423011
2.58174e-17
0.0423011
3.74608e-17
0.0423011
5.02674e-17
0.0423011
5.64506e-17
0.0423011
6.98344e-17
0.0423011
9.09998e-17
0.0423011
6.64988e-17
0.0423011
1.04151e-16
0.0423011
9.64843e-16
0.0423011
1.08771e-13
0.0423011
1.67103e-12
0.0423011
2.14957e-10
0.0423012
2.11198e-09
3.4871e-07
0.0423043
0.0423011
5.93302e-18
0.0423011
-9.80872e-18
0.0423011
-2.01605e-17
0.0423011
-1.7251e-17
0.0423011
-3.63102e-18
0.0423011
-2.51436e-17
0.0423011
-2.13338e-17
0.0423011
-4.75263e-17
0.0423011
-1.52648e-17
0.0423011
-2.13054e-17
0.0423011
-2.48176e-17
0.0423011
-4.02234e-17
0.0423011
-2.38155e-17
0.0423011
-1.1828e-17
0.0423011
-2.85938e-17
0.0423011
-4.60688e-18
0.0423011
-2.31701e-17
0.0423011
-4.75502e-17
0.0423011
-3.777e-17
0.0423011
-3.95854e-17
0.0423011
-3.042e-17
0.0423011
-2.1757e-17
0.0423011
-2.71931e-17
0.0423011
-4.46686e-19
0.0423011
6.3351e-18
0.0423011
1.75387e-17
0.0423011
2.60817e-17
0.0423011
3.3089e-17
0.0423011
5.15341e-17
0.0423011
6.16868e-17
0.0423011
5.62481e-17
0.0423011
6.85306e-17
0.0423011
8.56076e-17
0.0423011
1.04753e-14
0.0423011
3.72461e-14
0.0423011
1.46923e-11
0.0423011
3.90836e-11
2.03571e-08
0.0423015
0.0423011
-1.56236e-17
0.0423011
-4.11749e-18
0.0423011
-7.73868e-18
0.0423011
-1.2509e-17
0.0423011
-1.16302e-17
0.0423011
1.54453e-18
0.0423011
-1.08436e-17
0.0423011
-1.46375e-18
0.0423011
-7.79355e-18
0.0423011
-2.36354e-17
0.0423011
-2.04024e-17
0.0423011
-2.69327e-17
0.0423011
-2.3593e-17
0.0423011
-5.27798e-17
0.0423011
-4.81449e-17
0.0423011
-3.45506e-17
0.0423011
-3.72628e-17
0.0423011
-3.56853e-17
0.0423011
-3.89228e-17
0.0423011
-3.57744e-17
0.0423011
-2.71605e-17
0.0423011
-6.92861e-18
0.0423011
-2.34949e-17
0.0423011
-2.90876e-17
0.0423011
-1.05432e-17
0.0423011
1.33533e-17
0.0423011
1.68368e-17
0.0423011
1.63777e-17
0.0423011
3.11906e-17
0.0423011
3.30533e-17
0.0423011
5.46912e-17
0.0423011
8.30731e-17
0.0423011
5.10562e-17
0.0423011
4.81653e-16
0.0423011
3.57654e-17
0.0423011
5.9052e-13
0.0423011
6.55405e-13
8.03392e-10
0.0423011
0.0423011
1.43922e-20
0.0423011
-5.05e-18
0.0423011
-1.05054e-17
0.0423011
5.47392e-18
0.0423011
-3.30636e-17
0.0423011
-9.22584e-18
0.0423011
-5.53159e-18
0.0423011
3.37331e-17
0.0423011
-1.65896e-18
0.0423011
2.06375e-17
0.0423011
3.7006e-18
0.0423011
1.49787e-18
0.0423011
-3.80785e-17
0.0423011
-3.43289e-17
0.0423011
-2.51526e-17
0.0423011
-4.67321e-17
0.0423011
-5.78935e-17
0.0423011
-4.45114e-17
0.0423011
-4.8606e-17
0.0423011
-4.69791e-17
0.0423011
-2.50562e-17
0.0423011
-3.59281e-17
0.0423011
-2.99476e-17
0.0423011
-1.79705e-17
0.0423011
-2.5612e-17
0.0423011
-1.7705e-17
0.0423011
-1.15349e-17
0.0423011
1.45837e-17
0.0423011
6.9996e-18
0.0423011
1.16379e-17
0.0423011
2.09021e-17
0.0423011
4.25457e-17
0.0423011
2.41294e-17
0.0423011
3.77361e-17
0.0423011
-4.9038e-17
0.0423011
1.69271e-14
0.0423011
1.61817e-14
2.43492e-11
0.0423011
0.0423011
-1.51364e-17
0.0423011
-9.88598e-18
0.0423011
-1.48753e-17
0.0423011
-1.25026e-17
0.0423011
-7.09926e-18
0.0423011
-1.44796e-17
0.0423011
2.42879e-18
0.0423011
-9.97266e-18
0.0423011
-5.71687e-18
0.0423011
-2.07091e-17
0.0423011
-3.31861e-18
0.0423011
-1.51982e-17
0.0423011
-2.94012e-17
0.0423011
-3.66461e-17
0.0423011
-4.31816e-17
0.0423011
-3.73086e-17
0.0423011
-1.77398e-17
0.0423011
-3.58897e-17
0.0423011
-3.13502e-17
0.0423011
-2.25537e-17
0.0423011
-2.17317e-17
0.0423011
-1.89453e-17
0.0423011
4.79993e-20
0.0423011
-2.15078e-17
0.0423011
-3.83533e-17
0.0423011
-2.93146e-17
0.0423011
-1.80438e-17
0.0423011
-1.25169e-17
0.0423011
-4.3887e-17
0.0423011
-6.15546e-18
0.0423011
3.76073e-18
0.0423011
2.82718e-18
0.0423011
3.84973e-18
0.0423011
1.52056e-17
0.0423011
-3.51467e-17
0.0423011
3.18073e-16
0.0423011
3.9671e-16
6.2625e-13
0.0423011
0.0423011
2.27018e-18
0.0423011
1.10275e-17
0.0423011
6.30101e-18
0.0423011
-4.90118e-19
0.0423011
-9.35147e-18
0.0423011
-1.90101e-17
0.0423011
-7.46026e-18
0.0423011
6.76322e-18
0.0423011
1.14746e-17
0.0423011
-1.86602e-18
0.0423011
1.12207e-17
0.0423011
2.19183e-17
0.0423011
1.80432e-17
0.0423011
3.26865e-18
0.0423011
3.30128e-18
0.0423011
-6.86786e-18
0.0423011
1.22367e-17
0.0423011
-1.69158e-17
0.0423011
-6.15234e-17
0.0423011
-6.38127e-18
0.0423011
-1.31594e-17
0.0423011
-2.48256e-17
0.0423011
-4.33177e-17
0.0423011
-6.04919e-17
0.0423011
-1.82731e-17
0.0423011
-2.84155e-17
0.0423011
-1.73808e-17
0.0423011
-3.04677e-17
0.0423011
-1.94379e-17
0.0423011
-1.39116e-17
0.0423011
-5.16265e-18
0.0423011
1.16061e-17
0.0423011
1.39513e-18
0.0423011
-1.41598e-18
0.0423011
-4.58149e-17
0.0423011
-5.8588e-18
0.0423011
-3.28295e-17
1.42977e-14
0.0423011
0.0423011
4.17434e-18
0.0423011
-5.57596e-18
0.0423011
-3.6312e-18
0.0423011
-1.01956e-17
0.0423011
-1.14717e-17
0.0423011
4.74862e-19
0.0423011
3.78757e-18
0.0423011
-5.17672e-18
0.0423011
2.06853e-17
0.0423011
6.95831e-18
0.0423011
-1.38762e-17
0.0423011
-1.3605e-17
0.0423011
-6.11734e-18
0.0423011
-8.89586e-18
0.0423011
-1.87495e-18
0.0423011
1.72678e-19
0.0423011
-2.12322e-18
0.0423011
8.74829e-18
0.0423011
1.83818e-17
0.0423011
-8.14379e-18
0.0423011
-1.0882e-17
0.0423011
-6.48489e-19
0.0423011
7.20303e-18
0.0423011
-1.18299e-18
0.0423011
-7.08117e-18
0.0423011
-8.87971e-18
0.0423011
-4.00935e-17
0.0423011
-3.4291e-17
0.0423011
-1.1909e-17
0.0423011
-3.36787e-17
0.0423011
-3.0759e-17
0.0423011
-4.60327e-17
0.0423011
-3.06423e-17
0.0423011
-2.89561e-18
0.0423011
-1.00552e-17
0.0423011
-2.49854e-17
0.0423011
-2.61354e-17
1.90748e-16
0.0423011
0.0423011
-4.90916e-18
0.0423011
4.6785e-18
0.0423011
1.45094e-17
0.0423011
7.3931e-18
0.0423011
7.18015e-18
0.0423011
1.43471e-17
0.0423011
1.41317e-17
0.0423011
-1.18783e-18
0.0423011
5.52278e-18
0.0423011
1.46633e-17
0.0423011
-1.4172e-18
0.0423011
1.80369e-18
0.0423011
-6.2496e-18
0.0423011
-1.63059e-17
0.0423011
-1.18455e-17
0.0423011
-8.76804e-18
0.0423011
-5.44195e-18
0.0423011
1.98925e-17
0.0423011
3.52873e-17
0.0423011
3.24717e-17
0.0423011
1.61214e-17
0.0423011
1.30035e-17
0.0423011
4.72608e-18
0.0423011
2.75678e-17
0.0423011
1.31023e-17
0.0423011
-8.41668e-18
0.0423011
-2.43499e-18
0.0423011
8.02021e-18
0.0423011
-2.54699e-17
0.0423011
-1.59134e-17
0.0423011
-2.96763e-17
0.0423011
-2.37721e-17
0.0423011
-2.26006e-17
0.0423011
-4.21398e-17
0.0423011
-8.72759e-18
0.0423011
-3.19098e-17
0.0423011
-3.27504e-17
-3.27706e-17
0.0423011
0.0423011
3.90807e-18
0.0423011
1.24037e-17
0.0423011
-9.24266e-18
0.0423011
9.28869e-18
0.0423011
3.21789e-17
0.0423011
1.43098e-17
0.0423011
-1.57577e-19
0.0423011
1.06588e-17
0.0423011
7.6089e-18
0.0423011
1.21881e-17
0.0423011
1.10349e-17
0.0423011
3.77289e-17
0.0423011
1.08608e-17
0.0423011
1.60403e-17
0.0423011
-1.71673e-17
0.0423011
-1.93942e-17
0.0423011
-2.34845e-17
0.0423011
-8.18046e-18
0.0423011
9.81006e-18
0.0423011
7.5567e-18
0.0423011
1.4652e-17
0.0423011
1.56137e-17
0.0423011
1.31606e-17
0.0423011
9.43306e-18
0.0423011
-2.32116e-18
0.0423011
-9.03306e-19
0.0423011
2.85594e-18
0.0423011
-1.24364e-17
0.0423011
-1.22975e-17
0.0423011
-3.28056e-17
0.0423011
-3.99915e-17
0.0423011
-2.1233e-17
0.0423011
-3.49178e-17
0.0423011
-3.58428e-17
0.0423011
-7.58077e-17
0.0423011
-4.23611e-17
0.0423011
-3.76877e-17
-3.5486e-17
0.0423011
0.0423011
-5.90247e-18
0.0423011
5.23021e-18
0.0423011
-4.89569e-18
0.0423011
1.64915e-19
0.0423011
1.45518e-17
0.0423011
6.88694e-18
0.0423011
1.69061e-17
0.0423011
1.06995e-17
0.0423011
9.4175e-18
0.0423011
1.85484e-18
0.0423011
-1.0505e-17
0.0423011
-3.87217e-18
0.0423011
2.84047e-18
0.0423011
-5.86471e-18
0.0423011
-2.53203e-18
0.0423011
8.76147e-18
0.0423011
1.31377e-17
0.0423011
7.25692e-18
0.0423011
1.76487e-18
0.0423011
5.19541e-18
0.0423011
5.94082e-18
0.0423011
1.80689e-17
0.0423011
8.0387e-18
0.0423011
7.76779e-18
0.0423011
-1.52742e-17
0.0423011
-1.72502e-18
0.0423011
1.46801e-19
0.0423011
1.62546e-17
0.0423011
-1.48767e-18
0.0423011
-9.8803e-18
0.0423011
-7.31027e-18
0.0423011
-1.98725e-17
0.0423011
-2.18137e-17
0.0423011
-2.68961e-17
0.0423011
-3.26269e-17
0.0423011
-9.71795e-18
0.0423011
-6.27718e-18
-1.18617e-17
0.0423011
0.0423011
5.3745e-18
0.0423011
-8.43485e-18
0.0423011
3.81358e-18
0.0423011
-8.91304e-18
0.0423011
2.78658e-17
0.0423011
9.61946e-18
0.0423011
1.52718e-17
0.0423011
-1.24494e-17
0.0423011
-2.43819e-17
0.0423011
-6.1635e-18
0.0423011
-7.22764e-18
0.0423011
-1.1985e-17
0.0423011
-1.2005e-17
0.0423011
-1.27162e-17
0.0423011
1.14889e-17
0.0423011
2.14029e-18
0.0423011
-1.58477e-17
0.0423011
-2.66123e-18
0.0423011
1.69936e-17
0.0423011
8.83297e-18
0.0423011
1.78164e-20
0.0423011
4.96855e-18
0.0423011
1.44297e-17
0.0423011
3.54569e-17
0.0423011
3.78087e-17
0.0423011
2.49727e-17
0.0423011
2.19752e-17
0.0423011
-1.7873e-17
0.0423011
2.4916e-18
0.0423011
-9.74802e-18
0.0423011
-3.92718e-17
0.0423011
-4.12381e-17
0.0423011
-2.35625e-17
0.0423011
-1.91878e-17
0.0423011
-7.40656e-18
0.0423011
-2.3801e-17
0.0423011
-1.78318e-17
-2.38106e-17
0.0423011
0.0423011
-7.94793e-18
0.0423011
-2.44689e-17
0.0423011
-1.64753e-17
0.0423011
1.70157e-18
0.0423011
-1.82664e-17
0.0423011
-1.95737e-17
0.0423011
-2.96195e-17
0.0423011
-3.45757e-17
0.0423011
-5.17208e-18
0.0423011
-1.119e-17
0.0423011
5.39462e-18
0.0423011
1.30368e-17
0.0423011
2.25308e-17
0.0423011
1.05732e-17
0.0423011
1.16917e-17
0.0423011
1.64136e-18
0.0423011
5.43657e-18
0.0423011
2.35328e-18
0.0423011
-5.33299e-18
0.0423011
3.61706e-18
0.0423011
-1.87432e-17
0.0423011
-4.9034e-18
0.0423011
1.17662e-17
0.0423011
1.37869e-17
0.0423011
2.07263e-17
0.0423011
1.08244e-17
0.0423011
5.30259e-17
0.0423011
8.68886e-18
0.0423011
3.77018e-18
0.0423011
-2.13228e-17
0.0423011
-3.19774e-17
0.0423011
-2.13269e-17
0.0423011
-4.51374e-17
0.0423011
-1.92657e-17
0.0423011
-9.58151e-19
0.0423011
-7.7761e-18
0.0423011
-6.72294e-18
-6.01675e-18
0.0423011
0.0423011
1.49561e-17
0.0423011
4.62491e-18
0.0423011
1.15369e-17
0.0423011
3.94124e-19
0.0423011
-2.49097e-17
0.0423011
-1.6382e-17
0.0423011
-3.16555e-17
0.0423011
1.43284e-17
0.0423011
7.43483e-18
0.0423011
4.85728e-18
0.0423011
2.86628e-18
0.0423011
3.00842e-17
0.0423011
1.02414e-17
0.0423011
1.00227e-17
0.0423011
1.48098e-18
0.0423011
1.98487e-17
0.0423011
4.3263e-18
0.0423011
-1.11486e-17
0.0423011
-3.36615e-17
0.0423011
-1.28974e-17
0.0423011
9.36314e-18
0.0423011
-2.8715e-18
0.0423011
1.3842e-18
0.0423011
-4.2786e-18
0.0423011
1.25627e-18
0.0423011
-2.268e-17
0.0423011
-1.81178e-17
0.0423011
-3.43677e-18
0.0423011
-2.32201e-17
0.0423011
-5.30118e-18
0.0423011
4.27338e-18
0.0423011
-8.53577e-18
0.0423011
-1.795e-17
0.0423011
-1.25931e-17
0.0423011
-1.71262e-17
0.0423011
-1.22804e-18
0.0423011
-2.01258e-17
-1.45126e-17
0.0423011
0.0423011
4.01774e-19
0.0423011
1.05679e-17
0.0423011
1.3171e-17
0.0423011
9.53921e-18
0.0423011
1.08705e-17
0.0423011
-8.02429e-18
0.0423011
2.39845e-19
0.0423011
-1.9644e-17
0.0423011
-8.56931e-18
0.0423011
2.16594e-19
0.0423011
1.29958e-17
0.0423011
-1.08187e-17
0.0423011
-1.62658e-18
0.0423011
1.39765e-17
0.0423011
1.28887e-17
0.0423011
1.10398e-17
0.0423011
1.75681e-17
0.0423011
1.72876e-17
0.0423011
1.65069e-17
0.0423011
-8.03885e-18
0.0423011
-1.67959e-17
0.0423011
1.00858e-18
0.0423011
-5.58365e-18
0.0423011
-7.76081e-18
0.0423011
-1.8642e-17
0.0423011
2.02406e-17
0.0423011
-2.10471e-18
0.0423011
-1.44415e-17
0.0423011
1.83139e-18
0.0423011
-1.56198e-20
0.0423011
1.60008e-17
0.0423011
-8.95387e-18
0.0423011
-4.99953e-18
0.0423011
-2.01454e-17
0.0423011
-3.21754e-17
0.0423011
-2.97554e-17
0.0423011
-1.7566e-17
-8.98859e-18
0.0423011
0.0423011
-4.60001e-18
0.0423011
-1.26423e-17
0.0423011
9.29176e-18
0.0423011
3.03863e-18
0.0423011
9.57471e-18
0.0423011
1.47828e-17
0.0423011
2.21748e-17
0.0423011
1.5507e-17
0.0423011
-2.30085e-17
0.0423011
-1.16877e-17
0.0423011
-9.01662e-18
0.0423011
2.85767e-17
0.0423011
2.85752e-17
0.0423011
2.39634e-17
0.0423011
2.39138e-17
0.0423011
1.4804e-17
0.0423011
1.53433e-17
0.0423011
2.12243e-17
0.0423011
1.27413e-17
0.0423011
6.19166e-18
0.0423011
1.05169e-17
0.0423011
1.42465e-17
0.0423011
-2.30305e-17
0.0423011
-2.28402e-17
0.0423011
-1.55904e-17
0.0423011
-1.4985e-17
0.0423011
-7.99403e-18
0.0423011
-7.1806e-19
0.0423011
-1.06185e-17
0.0423011
-7.0019e-18
0.0423011
-1.66264e-17
0.0423011
-1.91448e-17
0.0423011
-4.07627e-17
0.0423011
-3.76343e-17
0.0423011
-4.84836e-17
0.0423011
-3.96445e-17
0.0423011
-2.89871e-17
-1.29754e-17
0.0423011
0.0423011
1.39213e-17
0.0423011
2.80748e-17
0.0423011
-9.88373e-18
0.0423011
-2.90095e-19
0.0423011
1.07381e-17
0.0423011
1.10544e-17
0.0423011
2.35502e-17
0.0423011
2.74615e-17
0.0423011
2.03421e-17
0.0423011
1.28488e-17
0.0423011
2.3643e-17
0.0423011
9.97354e-18
0.0423011
6.56602e-18
0.0423011
-3.8011e-18
0.0423011
-3.43959e-18
0.0423011
2.6851e-17
0.0423011
1.10988e-17
0.0423011
1.02002e-17
0.0423011
-8.87377e-18
0.0423011
2.83066e-17
0.0423011
5.3571e-18
0.0423011
-1.43199e-17
0.0423011
-7.29459e-18
0.0423011
-9.98357e-18
0.0423011
6.33906e-19
0.0423011
1.14119e-17
0.0423011
1.81769e-17
0.0423011
4.40218e-18
0.0423011
2.57181e-17
0.0423011
2.56516e-17
0.0423011
-3.55827e-18
0.0423011
-4.48369e-18
0.0423011
7.52188e-18
0.0423011
-1.30295e-17
0.0423011
-1.73932e-17
0.0423011
-1.42506e-17
0.0423011
-2.02812e-17
8.2164e-18
0.0423011
0.0423011
-7.54497e-18
0.0423011
4.38233e-18
0.0423011
-2.12888e-18
0.0423011
3.61972e-18
0.0423011
1.53106e-17
0.0423011
3.77331e-18
0.0423011
1.45769e-17
0.0423011
-4.93878e-18
0.0423011
2.83647e-17
0.0423011
3.25171e-17
0.0423011
3.39942e-17
0.0423011
3.08122e-18
0.0423011
1.98624e-18
0.0423011
1.82378e-17
0.0423011
9.01602e-18
0.0423011
1.17132e-17
0.0423011
-8.86219e-19
0.0423011
-1.47703e-18
0.0423011
-1.66469e-17
0.0423011
-3.21488e-17
0.0423011
-3.71309e-17
0.0423011
-2.43839e-18
0.0423011
-1.91148e-17
0.0423011
-1.53126e-17
0.0423011
-3.0144e-17
0.0423011
-2.00987e-17
0.0423011
1.00509e-17
0.0423011
6.84669e-18
0.0423011
3.20502e-18
0.0423011
-2.66098e-18
0.0423011
-1.3737e-17
0.0423011
6.94977e-18
0.0423011
-2.76877e-17
0.0423011
9.678e-20
0.0423011
1.22833e-17
0.0423011
1.01491e-17
0.0423011
2.52174e-18
-4.77446e-18
0.0423011
0.0423011
-1.21568e-17
0.0423011
-5.45216e-18
0.0423011
6.56027e-19
0.0423011
-5.94957e-18
0.0423011
-8.57116e-18
0.0423011
-1.07808e-17
0.0423011
-2.90638e-18
0.0423011
1.50875e-17
0.0423011
-3.6341e-18
0.0423011
2.79524e-18
0.0423011
-1.54407e-17
0.0423011
3.45301e-17
0.0423011
1.31239e-17
0.0423011
1.14774e-17
0.0423011
2.51484e-17
0.0423011
5.32098e-18
0.0423011
2.20582e-17
0.0423011
2.22867e-17
0.0423011
3.36181e-17
0.0423011
9.38357e-18
0.0423011
-1.02181e-18
0.0423011
-1.31392e-17
0.0423011
-1.51642e-17
0.0423011
-3.3256e-18
0.0423011
-9.46219e-18
0.0423011
-7.10955e-18
0.0423011
-3.14334e-17
0.0423011
-4.31833e-19
0.0423011
-1.33229e-17
0.0423011
-1.21177e-17
0.0423011
1.14879e-17
0.0423011
2.99719e-17
0.0423011
2.77931e-17
0.0423011
2.06939e-17
0.0423011
1.94187e-17
0.0423011
-4.21061e-19
0.0423011
2.00001e-18
8.45833e-19
0.0423011
0.0423011
1.40566e-18
0.0423011
-4.74831e-18
0.0423011
-3.72507e-17
0.0423011
-1.27808e-17
0.0423011
-1.44246e-17
0.0423011
-1.51929e-17
0.0423011
-2.22601e-17
0.0423011
-1.62273e-17
0.0423011
-3.87573e-18
0.0423011
2.8632e-18
0.0423011
2.86839e-18
0.0423011
-6.41247e-18
0.0423011
8.21156e-18
0.0423011
9.16342e-18
0.0423011
6.27884e-18
0.0423011
3.9948e-17
0.0423011
4.36118e-17
0.0423011
2.77545e-17
0.0423011
2.3139e-18
0.0423011
1.48265e-17
0.0423011
2.37766e-17
0.0423011
2.00478e-17
0.0423011
1.59416e-17
0.0423011
1.72994e-17
0.0423011
2.58471e-18
0.0423011
-1.08482e-17
0.0423011
-1.69695e-17
0.0423011
-4.06656e-17
0.0423011
-3.03983e-17
0.0423011
-6.44447e-18
0.0423011
1.85358e-17
0.0423011
8.07561e-18
0.0423011
1.64544e-17
0.0423011
2.28431e-17
0.0423011
-2.07169e-17
0.0423011
1.65889e-17
0.0423011
1.18319e-17
-3.6268e-18
0.0423011
0.0423011
2.50989e-18
0.0423011
-9.36478e-19
0.0423011
2.98081e-18
0.0423011
-1.69068e-17
0.0423011
-1.921e-17
0.0423011
-3.16288e-17
0.0423011
-2.44411e-17
0.0423011
-1.90991e-17
0.0423011
-5.59035e-18
0.0423011
-1.35475e-18
0.0423011
4.51023e-18
0.0423011
3.91596e-18
0.0423011
7.29596e-18
0.0423011
1.09024e-17
0.0423011
7.75186e-18
0.0423011
-1.74542e-17
0.0423011
6.86063e-19
0.0423011
-7.34179e-20
0.0423011
2.07604e-17
0.0423011
4.83102e-17
0.0423011
2.66367e-17
0.0423011
1.00546e-17
0.0423011
3.0847e-17
0.0423011
-1.5744e-18
0.0423011
6.94956e-18
0.0423011
-1.74807e-17
0.0423011
-1.56777e-17
0.0423011
-6.3179e-18
0.0423011
-2.29182e-18
0.0423011
4.13294e-17
0.0423011
9.12015e-18
0.0423011
2.45264e-17
0.0423011
2.81977e-17
0.0423011
1.64824e-17
0.0423011
3.6741e-17
0.0423011
2.00506e-17
0.0423011
8.48489e-18
4.98663e-18
0.0423011
0.0423011
4.12824e-19
0.0423011
2.07598e-18
0.0423011
-3.93667e-18
0.0423011
1.01898e-17
0.0423011
1.1003e-17
0.0423011
1.31754e-17
0.0423011
-1.22862e-17
0.0423011
-1.89673e-17
0.0423011
1.29717e-17
0.0423011
-4.07007e-18
0.0423011
8.86189e-18
0.0423011
2.2753e-17
0.0423011
2.07402e-18
0.0423011
2.97545e-17
0.0423011
-1.53205e-17
0.0423011
-1.57468e-17
0.0423011
-7.0657e-19
0.0423011
1.08553e-17
0.0423011
2.6854e-17
0.0423011
2.21914e-17
0.0423011
3.27517e-17
0.0423011
1.78673e-17
0.0423011
9.4154e-18
0.0423011
6.05664e-18
0.0423011
1.2812e-17
0.0423011
1.84557e-17
0.0423011
2.23103e-17
0.0423011
1.49883e-17
0.0423011
4.11924e-17
0.0423011
6.4532e-17
0.0423011
6.87664e-17
0.0423011
4.09577e-17
0.0423011
3.6973e-17
0.0423011
2.44399e-17
0.0423011
1.87694e-17
0.0423011
1.33641e-17
0.0423011
4.61184e-18
-1.17595e-18
0.0423011
0.0423011
1.03173e-17
0.0423011
-2.31774e-17
0.0423011
-3.27331e-18
0.0423011
-4.76959e-18
0.0423011
2.0941e-18
0.0423011
-1.17639e-17
0.0423011
-4.0759e-19
0.0423011
-1.1646e-17
0.0423011
-1.3383e-17
0.0423011
-1.41757e-17
0.0423011
-1.80025e-17
0.0423011
-3.13254e-17
0.0423011
-2.47579e-17
0.0423011
-3.12955e-17
0.0423011
-1.34899e-18
0.0423011
1.69405e-17
0.0423011
4.4397e-17
0.0423011
4.69317e-17
0.0423011
2.3185e-17
0.0423011
4.74891e-17
0.0423011
5.00175e-17
0.0423011
2.82076e-17
0.0423011
1.04087e-17
0.0423011
1.29042e-17
0.0423011
1.14084e-17
0.0423011
1.59535e-17
0.0423011
3.07411e-17
0.0423011
3.36055e-17
0.0423011
1.48384e-17
0.0423011
2.25121e-17
0.0423011
1.02831e-17
0.0423011
2.38642e-17
0.0423011
1.85207e-17
0.0423011
1.36652e-17
0.0423011
1.36406e-17
0.0423011
1.98832e-17
0.0423011
2.116e-17
6.14137e-18
0.0423011
0.0423011
1.7899e-18
0.0423011
2.04368e-18
0.0423011
7.28369e-18
0.0423011
7.34048e-18
0.0423011
1.20834e-17
0.0423011
-1.80954e-18
0.0423011
-2.72801e-17
0.0423011
1.89407e-17
0.0423011
9.85355e-18
0.0423011
-1.6107e-17
0.0423011
-2.00688e-18
0.0423011
-2.92792e-17
0.0423011
4.22564e-18
0.0423011
1.23832e-17
0.0423011
2.39227e-17
0.0423011
1.03274e-17
0.0423011
4.59613e-18
0.0423011
2.59216e-17
0.0423011
1.79191e-17
0.0423011
1.71758e-17
0.0423011
1.96544e-18
0.0423011
1.16182e-17
0.0423011
1.43263e-17
0.0423011
2.82608e-19
0.0423011
-8.49019e-18
0.0423011
1.4588e-17
0.0423011
2.02065e-17
0.0423011
1.98094e-17
0.0423011
5.50588e-17
0.0423011
2.44033e-17
0.0423011
2.88213e-17
0.0423011
8.60028e-18
0.0423011
2.21017e-17
0.0423011
3.17544e-19
0.0423011
-7.57694e-20
0.0423011
1.45038e-17
0.0423011
1.32433e-17
7.38889e-18
0.0423011
0.0423011
-2.41793e-19
0.0423011
3.8054e-18
0.0423011
-2.22336e-18
0.0423011
-5.09891e-18
0.0423011
-3.05542e-17
0.0423011
1.07896e-17
0.0423011
2.26594e-17
0.0423011
5.12662e-18
0.0423011
-1.06086e-17
0.0423011
-4.51543e-19
0.0423011
6.22332e-19
0.0423011
5.5766e-18
0.0423011
-5.73837e-18
0.0423011
-3.43254e-18
0.0423011
6.51308e-18
0.0423011
-9.63155e-18
0.0423011
1.17251e-17
0.0423011
2.41485e-19
0.0423011
1.2824e-17
0.0423011
-1.62643e-18
0.0423011
-3.52698e-18
0.0423011
1.03299e-17
0.0423011
3.44511e-18
0.0423011
1.95861e-17
0.0423011
2.6285e-17
0.0423011
1.13525e-17
0.0423011
-4.69633e-19
0.0423011
1.25768e-17
0.0423011
3.26519e-18
0.0423011
3.68949e-18
0.0423011
1.65894e-17
0.0423011
3.57068e-17
0.0423011
-2.45377e-19
0.0423011
1.15676e-17
0.0423011
1.43403e-17
0.0423011
-9.94068e-19
0.0423011
5.48081e-18
-1.32809e-17
0.0423011
0.0423011
-3.99542e-18
0.0423011
-9.65173e-18
0.0423011
-1.28462e-17
0.0423011
-4.0042e-18
0.0423011
1.61192e-17
0.0423011
8.06634e-18
0.0423011
4.55307e-18
0.0423011
7.72075e-18
0.0423011
-1.023e-17
0.0423011
-3.65587e-18
0.0423011
-7.15531e-19
0.0423011
-1.1229e-17
0.0423011
1.95349e-17
0.0423011
2.09748e-17
0.0423011
-1.62677e-18
0.0423011
1.45211e-17
0.0423011
-3.93769e-18
0.0423011
-5.57688e-18
0.0423011
-2.86562e-18
0.0423011
-4.59573e-18
0.0423011
1.18266e-18
0.0423011
-7.94894e-18
0.0423011
4.30265e-17
0.0423011
2.89963e-17
0.0423011
1.735e-17
0.0423011
2.20616e-17
0.0423011
5.52125e-17
0.0423011
9.27224e-18
0.0423011
8.19082e-18
0.0423011
-2.4498e-17
0.0423011
-2.03604e-17
0.0423011
2.17839e-20
0.0423011
7.46331e-18
0.0423011
2.11174e-17
0.0423011
1.22159e-17
0.0423011
1.63364e-17
0.0423011
3.89192e-18
6.65588e-18
0.0423011
0.0423011
4.62631e-19
0.0423011
-1.14426e-17
0.0423011
5.6662e-18
0.0423011
-5.08452e-18
0.0423011
-1.38079e-17
0.0423011
5.54654e-18
0.0423011
3.13381e-17
0.0423011
2.8657e-17
0.0423011
1.79143e-17
0.0423011
2.55407e-17
0.0423011
2.88647e-18
0.0423011
5.86886e-18
0.0423011
5.69875e-18
0.0423011
1.11751e-17
0.0423011
-7.76825e-18
0.0423011
-2.35688e-17
0.0423011
-2.26089e-18
0.0423011
3.32191e-18
0.0423011
3.10498e-18
0.0423011
-2.15129e-17
0.0423011
1.00052e-17
0.0423011
-6.91901e-19
0.0423011
9.70517e-18
0.0423011
-4.48118e-18
0.0423011
1.14663e-17
0.0423011
1.73005e-17
0.0423011
1.45686e-17
0.0423011
-1.69454e-18
0.0423011
-1.02692e-17
0.0423011
7.75795e-18
0.0423011
3.9295e-18
0.0423011
-2.3075e-18
0.0423011
6.34588e-18
0.0423011
5.16997e-18
0.0423011
1.99509e-17
0.0423011
-1.68446e-18
0.0423011
1.2906e-17
8.49509e-18
0.0423011
0.0423011
9.73714e-18
0.0423011
1.31446e-17
0.0423011
8.54549e-18
0.0423011
2.0428e-17
0.0423011
1.8035e-17
0.0423011
-3.96238e-19
0.0423011
2.02541e-18
0.0423011
6.52444e-18
0.0423011
1.92143e-17
0.0423011
-1.6293e-18
0.0423011
6.96839e-18
0.0423011
1.98113e-17
0.0423011
8.03797e-18
0.0423011
-5.09434e-18
0.0423011
-1.23199e-17
0.0423011
-2.44973e-18
0.0423011
-1.29092e-17
0.0423011
-1.78146e-17
0.0423011
-1.22922e-17
0.0423011
-1.21587e-17
0.0423011
-2.93072e-17
0.0423011
2.21808e-18
0.0423011
1.70491e-17
0.0423011
1.94711e-17
0.0423011
2.02894e-18
0.0423011
1.69986e-17
0.0423011
5.47096e-18
0.0423011
1.37425e-17
0.0423011
2.18607e-18
0.0423011
8.21711e-18
0.0423011
-3.87639e-18
0.0423011
-1.00417e-17
0.0423011
9.91294e-18
0.0423011
5.0924e-18
0.0423011
-8.45861e-18
0.0423011
-1.56723e-17
0.0423011
4.58736e-18
5.49441e-17
0.0423011
0.0423011
-1.5214e-18
0.0423011
6.50913e-18
0.0423011
9.97946e-18
0.0423011
4.73992e-18
0.0423011
-9.49088e-19
0.0423011
6.06027e-18
0.0423011
2.92421e-18
0.0423011
2.65364e-17
0.0423011
1.13283e-17
0.0423011
2.83831e-17
0.0423011
7.04797e-18
0.0423011
2.03949e-17
0.0423011
7.98549e-18
0.0423011
6.65649e-18
0.0423011
7.71919e-18
0.0423011
3.93354e-18
0.0423011
-1.1627e-17
0.0423011
-2.88502e-17
0.0423011
-1.93302e-17
0.0423011
-1.14041e-18
0.0423011
-1.57457e-17
0.0423011
-1.8263e-17
0.0423011
-6.67441e-18
0.0423011
-2.23361e-18
0.0423011
2.32022e-17
0.0423011
1.80342e-17
0.0423011
-4.48773e-19
0.0423011
1.73887e-17
0.0423011
1.95157e-17
0.0423011
6.98652e-18
0.0423011
1.68348e-17
0.0423011
1.35207e-17
0.0423011
2.81691e-17
0.0423011
4.85845e-18
0.0423011
5.87177e-18
0.0423011
2.69961e-17
0.0423011
-6.75849e-18
2.97427e-18
0.0423011
0.0423011
1.1035e-17
0.0423011
-3.25455e-18
0.0423011
8.51495e-18
0.0423011
-5.64073e-18
0.0423011
2.36471e-17
0.0423011
1.48016e-17
0.0423011
7.16542e-18
0.0423011
3.46518e-18
0.0423011
1.20664e-17
0.0423011
6.2521e-18
0.0423011
1.97602e-17
0.0423011
9.57436e-18
0.0423011
4.01924e-17
0.0423011
1.64152e-17
0.0423011
1.90407e-17
0.0423011
7.48156e-18
0.0423011
-1.31029e-17
0.0423011
-7.67322e-18
0.0423011
-3.04157e-17
0.0423011
-2.04321e-17
0.0423011
-4.58483e-18
0.0423011
-5.54112e-18
0.0423011
-2.88207e-17
0.0423011
1.56264e-17
0.0423011
5.04043e-18
0.0423011
6.28394e-18
0.0423011
6.30872e-18
0.0423011
-2.2567e-17
0.0423011
8.13249e-18
0.0423011
1.39347e-17
0.0423011
1.39837e-17
0.0423011
4.37633e-17
0.0423011
-8.938e-18
0.0423011
-6.2444e-18
0.0423011
2.2226e-17
0.0423011
2.42485e-17
0.0423011
9.10701e-18
2.27422e-18
0.0423011
0.0423011
-1.97064e-18
0.0423011
6.30678e-18
0.0423011
-2.62544e-17
0.0423011
-5.46997e-18
0.0423011
5.8637e-18
0.0423011
3.09783e-17
0.0423011
-7.18642e-19
0.0423011
7.44565e-18
0.0423011
1.0096e-17
0.0423011
-9.55113e-18
0.0423011
6.22369e-18
0.0423011
1.32702e-17
0.0423011
-1.92168e-18
0.0423011
-6.23583e-18
0.0423011
-1.00511e-17
0.0423011
-5.31642e-18
0.0423011
2.68686e-18
0.0423011
6.84667e-18
0.0423011
1.11347e-17
0.0423011
7.66271e-18
0.0423011
2.10625e-18
0.0423011
3.87451e-19
0.0423011
-1.6873e-18
0.0423011
-4.61563e-18
0.0423011
-5.90928e-18
0.0423011
4.76914e-18
0.0423011
1.76754e-17
0.0423011
2.15569e-17
0.0423011
2.76173e-17
0.0423011
4.98265e-17
0.0423011
2.39556e-17
0.0423011
1.05339e-17
0.0423011
3.47159e-17
0.0423011
1.12868e-17
0.0423011
-2.53616e-18
0.0423011
-6.73019e-18
0.0423011
1.54773e-17
5.96845e-18
0.0423011
0.0423011
-1.2411e-17
0.0423011
-1.50074e-17
0.0423011
8.50818e-18
0.0423011
8.91945e-18
0.0423011
6.30804e-18
0.0423011
-4.63734e-18
0.0423011
4.85645e-18
0.0423011
5.98958e-19
0.0423011
1.02301e-17
0.0423011
3.96601e-18
0.0423011
7.04488e-18
0.0423011
1.19367e-17
0.0423011
3.62583e-18
0.0423011
-1.57376e-17
0.0423011
-1.46884e-17
0.0423011
-8.66577e-18
0.0423011
1.55606e-17
0.0423011
9.62902e-18
0.0423011
1.54951e-17
0.0423011
2.97231e-17
0.0423011
2.26261e-17
0.0423011
-1.9246e-18
0.0423011
2.38303e-18
0.0423011
-6.9332e-18
0.0423011
-1.72704e-17
0.0423011
-3.25602e-18
0.0423011
5.98443e-18
0.0423011
3.63752e-18
0.0423011
1.05159e-17
0.0423011
8.13671e-18
0.0423011
7.92526e-19
0.0423011
1.51373e-17
0.0423011
5.54243e-18
0.0423011
1.65049e-17
0.0423011
4.41305e-18
0.0423011
-1.3035e-17
0.0423011
-4.17395e-18
6.34312e-18
0.0423011
0.0423011
7.70481e-18
0.0423011
1.44515e-17
0.0423011
9.85144e-18
0.0423011
9.95576e-18
0.0423011
-2.62849e-18
0.0423011
-1.88536e-17
0.0423011
-1.23062e-18
0.0423011
1.5377e-17
0.0423011
5.35496e-18
0.0423011
1.29852e-17
0.0423011
-2.00654e-17
0.0423011
3.06257e-19
0.0423011
-4.79932e-18
0.0423011
2.63522e-18
0.0423011
5.94029e-18
0.0423011
1.83935e-17
0.0423011
2.01061e-17
0.0423011
1.96845e-17
0.0423011
1.96023e-17
0.0423011
2.43888e-17
0.0423011
1.43404e-17
0.0423011
9.349e-18
0.0423011
5.89005e-18
0.0423011
-7.24665e-18
0.0423011
-9.83674e-19
0.0423011
-6.89336e-18
0.0423011
5.76576e-18
0.0423011
3.2133e-17
0.0423011
1.44316e-17
0.0423011
4.58176e-17
0.0423011
2.48529e-17
0.0423011
1.24233e-17
0.0423011
-5.80791e-18
0.0423011
1.22909e-17
0.0423011
2.44801e-17
0.0423011
9.216e-18
0.0423011
6.31262e-18
2.69943e-17
0.0423011
0.0423011
-2.29412e-19
0.0423011
1.1482e-17
0.0423011
-1.28536e-18
0.0423011
-2.82061e-18
0.0423011
7.8044e-19
0.0423011
1.99181e-17
0.0423011
7.47575e-18
0.0423011
1.23439e-17
0.0423011
-1.98416e-18
0.0423011
9.43198e-18
0.0423011
1.17829e-17
0.0423011
2.42103e-18