/*--------------------------------*- C++ -*----------------------------------*\
| =========                 |                                                 |
| \\      /  F ield         | OpenFOAM: The Open Source CFD Toolbox           |
|  \\    /   O peration     | Version:  v1812                                 |
|   \\  /    A nd           | Web:      www.OpenFOAM.com                      |
|    \\/     M anipulation  |                                                 |
\*---------------------------------------------------------------------------*/
FoamFile
{
    version     2.0;
    format      ascii;
    class       volVectorField;
    location    "0.0035";
    object      U;
}
// * * * * * * * * * * * * * * * * * * * * * * * * * * * * * * * * * * * * * //

dimensions      [0 1 -1 0 0 0 0];


internalField   nonuniform List<vector> 
8475
(
(851.84 1.4998e-13 0)
(851.84 -4.37398e-14 0)
(851.84 -1.5189e-13 0)
(851.84 -1.6686e-13 0)
(851.84 -1.59409e-13 0)
(851.84 1.49294e-13 0)
(851.84 -1.61278e-13 0)
(851.84 -2.7575e-13 0)
(851.84 -2.90146e-13 0)
(851.84 -5.1742e-13 0)
(851.84 -6.04988e-13 0)
(851.84 -4.2708e-13 0)
(851.84 -4.53072e-13 0)
(851.84 -4.30283e-13 0)
(851.84 -4.32275e-13 0)
(851.84 -2.05083e-14 0)
(851.84 6.67334e-13 0)
(851.84 1.19129e-12 0)
(851.84 1.70169e-12 0)
(851.84 2.03078e-12 0)
(851.84 2.33794e-12 0)
(851.84 2.54893e-12 0)
(851.84 2.99299e-12 0)
(851.84 2.83664e-12 0)
(851.84 3.03102e-12 0)
(851.84 2.76493e-12 0)
(851.84 3.07645e-12 0)
(851.84 3.38066e-12 0)
(851.84 3.58506e-12 0)
(851.84 3.41007e-12 0)
(851.84 3.35941e-12 0)
(851.84 7.03012e-13 0)
(851.84 2.50696e-10 0)
(851.84 -1.05245e-08 0)
(851.84 1.09507e-06 0)
(851.84 -5.09915e-05 0)
(851.832 0.00557086 0)
(851.353 -0.272896 0)
(851.84 4.81412e-14 0)
(851.84 -8.1816e-14 0)
(851.84 -9.99419e-14 0)
(851.84 -5.4248e-14 0)
(851.84 -1.93297e-13 0)
(851.84 -3.50937e-13 0)
(851.84 -2.55254e-13 0)
(851.84 -2.00347e-13 0)
(851.84 -5.61627e-13 0)
(851.84 -7.29925e-13 0)
(851.84 -5.43947e-13 0)
(851.84 -5.47579e-13 0)
(851.84 -5.75419e-13 0)
(851.84 -6.88004e-13 0)
(851.84 -3.94081e-13 0)
(851.84 1.54699e-13 0)
(851.84 1.56925e-13 0)
(851.84 4.08849e-13 0)
(851.84 8.43162e-13 0)
(851.84 9.80101e-13 0)
(851.84 1.05174e-12 0)
(851.84 1.31744e-12 0)
(851.84 1.37578e-12 0)
(851.84 1.57646e-12 0)
(851.84 1.47396e-12 0)
(851.84 1.41122e-12 0)
(851.84 1.52266e-12 0)
(851.84 1.72175e-12 0)
(851.84 1.81575e-12 0)
(851.84 1.62256e-12 0)
(851.84 1.62431e-12 0)
(851.84 4.40718e-12 0)
(851.84 1.53583e-10 0)
(851.84 1.14571e-08 0)
(851.84 4.82812e-07 0)
(851.84 4.84878e-05 0)
(851.837 0.00131768 0)
(851.722 0.195988 0)
(851.84 5.42546e-14 0)
(851.84 -9.95654e-15 0)
(851.84 7.06848e-14 0)
(851.84 2.14717e-14 0)
(851.84 -5.77359e-14 0)
(851.84 -2.46022e-13 0)
(851.84 -4.31039e-13 0)
(851.84 -3.59744e-13 0)
(851.84 -4.33406e-13 0)
(851.84 -5.75744e-13 0)
(851.84 -6.63444e-13 0)
(851.84 -6.3518e-13 0)
(851.84 -7.01431e-13 0)
(851.84 -6.19806e-13 0)
(851.84 -6.37563e-13 0)
(851.84 -4.94015e-13 0)
(851.84 -4.52273e-13 0)
(851.84 -3.69052e-13 0)
(851.84 -4.71556e-13 0)
(851.84 -9.21591e-14 0)
(851.84 9.62863e-14 0)
(851.84 6.55542e-13 0)
(851.84 1.07818e-12 0)
(851.84 1.13587e-12 0)
(851.84 9.7442e-13 0)
(851.84 1.01868e-12 0)
(851.84 1.37155e-12 0)
(851.84 1.59045e-12 0)
(851.84 1.69806e-12 0)
(851.84 1.86997e-12 0)
(851.84 1.44498e-12 0)
(851.84 2.43686e-12 0)
(851.84 4.91627e-11 0)
(851.84 5.17761e-09 0)
(851.84 9.85208e-08 0)
(851.84 1.44925e-05 0)
(851.84 0.000172933 0)
(851.823 0.0320621 0)
(851.84 -2.02928e-14 0)
(851.84 -7.58826e-15 0)
(851.84 -6.46558e-14 0)
(851.84 -1.94947e-13 0)
(851.84 -1.61698e-13 0)
(851.84 -2.59212e-13 0)
(851.84 -5.44398e-13 0)
(851.84 -6.9854e-13 0)
(851.84 -2.24121e-13 0)
(851.84 -1.70344e-13 0)
(851.84 -3.02615e-13 0)
(851.84 -8.26542e-13 0)
(851.84 -6.33684e-13 0)
(851.84 -6.09202e-13 0)
(851.84 -5.03176e-13 0)
(851.84 -6.01178e-13 0)
(851.84 -6.88475e-13 0)
(851.84 -8.67697e-13 0)
(851.84 -6.64831e-13 0)
(851.84 -7.59976e-13 0)
(851.84 -1.16178e-13 0)
(851.84 -2.35377e-13 0)
(851.84 -5.44353e-13 0)
(851.84 -6.45284e-14 0)
(851.84 6.42268e-14 0)
(851.84 4.54927e-13 0)
(851.84 6.72602e-13 0)
(851.84 6.51084e-13 0)
(851.84 1.35112e-12 0)
(851.84 1.53648e-12 0)
(851.84 1.22174e-12 0)
(851.84 1.36126e-12 0)
(851.84 4.70314e-13 0)
(851.84 1.08921e-09 0)
(851.84 8.9069e-10 0)
(851.84 2.00125e-06 0)
(851.84 1.4524e-06 0)
(851.839 0.00312148 0)
(851.84 -9.30287e-14 0)
(851.84 -1.23185e-13 0)
(851.84 -2.65577e-13 0)
(851.84 -4.0257e-13 0)
(851.84 -3.14117e-13 0)
(851.84 -2.18251e-13 0)
(851.84 -2.65185e-13 0)
(851.84 -5.27451e-13 0)
(851.84 -5.81205e-13 0)
(851.84 -6.45819e-13 0)
(851.84 -6.51728e-13 0)
(851.84 -7.83158e-13 0)
(851.84 -4.59942e-13 0)
(851.84 -5.30096e-13 0)
(851.84 -6.70832e-13 0)
(851.84 -5.88584e-13 0)
(851.84 -6.50135e-13 0)
(851.84 -8.34326e-13 0)
(851.84 -8.35993e-13 0)
(851.84 -8.25809e-13 0)
(851.84 -6.43094e-13 0)
(851.84 -5.42748e-13 0)
(851.84 -4.52956e-13 0)
(851.84 -2.34975e-13 0)
(851.84 6.82388e-14 0)
(851.84 2.61047e-13 0)
(851.84 4.50874e-13 0)
(851.84 4.18672e-13 0)
(851.84 5.90232e-13 0)
(851.84 6.37523e-13 0)
(851.84 9.09971e-13 0)
(851.84 1.58433e-12 0)
(851.84 1.83573e-12 0)
(851.84 9.68797e-11 0)
(851.84 -1.33324e-10 0)
(851.84 1.26018e-07 0)
(851.84 -6.83382e-08 0)
(851.84 0.000175347 0)
(851.84 -3.22313e-14 0)
(851.84 -7.67708e-14 0)
(851.84 -7.95317e-14 0)
(851.84 -1.91687e-14 0)
(851.84 -2.50397e-13 0)
(851.84 -1.98242e-13 0)
(851.84 -6.49208e-14 0)
(851.84 2.38677e-13 0)
(851.84 1.73173e-14 0)
(851.84 6.04223e-14 0)
(851.84 -5.50552e-14 0)
(851.84 -1.9854e-13 0)
(851.84 -3.74286e-13 0)
(851.84 -5.68851e-13 0)
(851.84 -7.66306e-13 0)
(851.84 -7.91582e-13 0)
(851.84 -9.0486e-13 0)
(851.84 -8.32716e-13 0)
(851.84 -8.01081e-13 0)
(851.84 -7.87065e-13 0)
(851.84 -7.10748e-13 0)
(851.84 -6.62608e-13 0)
(851.84 -5.49455e-13 0)
(851.84 -4.19304e-13 0)
(851.84 -4.15046e-13 0)
(851.84 1.1341e-13 0)
(851.84 -3.42904e-14 0)
(851.84 2.42712e-13 0)
(851.84 6.59213e-13 0)
(851.84 6.9139e-13 0)
(851.84 7.72434e-13 0)
(851.84 1.21307e-12 0)
(851.84 1.06084e-12 0)
(851.84 3.03264e-12 0)
(851.84 -1.1436e-11 0)
(851.84 5.10666e-09 0)
(851.84 -4.01574e-09 0)
(851.84 7.08335e-06 0)
(851.84 -1.32455e-13 0)
(851.84 -1.92617e-13 0)
(851.84 -2.92685e-13 0)
(851.84 -1.07004e-13 0)
(851.84 -1.65538e-13 0)
(851.84 -1.82778e-13 0)
(851.84 -7.98366e-14 0)
(851.84 -7.69386e-14 0)
(851.84 -6.97853e-14 0)
(851.84 6.45649e-14 0)
(851.84 1.06789e-16 0)
(851.84 1.00685e-13 0)
(851.84 -1.05835e-12 0)
(851.84 -1.01192e-12 0)
(851.84 -6.40714e-13 0)
(851.84 -8.37861e-13 0)
(851.84 -6.96266e-13 0)
(851.84 -8.36891e-13 0)
(851.84 -7.4233e-13 0)
(851.84 -6.92001e-13 0)
(851.84 -5.63072e-13 0)
(851.84 -5.38461e-13 0)
(851.84 -4.60851e-13 0)
(851.84 -6.39787e-13 0)
(851.84 -5.86845e-13 0)
(851.84 -4.05937e-13 0)
(851.84 -3.24493e-13 0)
(851.84 -1.70128e-13 0)
(851.84 -4.09692e-13 0)
(851.84 1.28372e-13 0)
(851.84 3.71857e-13 0)
(851.84 2.35063e-13 0)
(851.84 2.15225e-13 0)
(851.84 7.55369e-13 0)
(851.84 -8.16066e-13 0)
(851.84 1.511e-10 0)
(851.84 -4.95695e-11 0)
(851.84 2.22933e-07 0)
(851.84 9.0085e-14 0)
(851.84 6.8258e-14 0)
(851.84 1.64073e-14 0)
(851.84 -2.38913e-14 0)
(851.84 -3.16013e-14 0)
(851.84 -2.18085e-13 0)
(851.84 -2.03862e-13 0)
(851.84 1.20148e-13 0)
(851.84 1.92084e-13 0)
(851.84 -1.1879e-13 0)
(851.84 6.80317e-14 0)
(851.84 5.47168e-13 0)
(851.84 5.33127e-13 0)
(851.84 7.9788e-14 0)
(851.84 -1.13311e-13 0)
(851.84 -1.38535e-13 0)
(851.84 -2.67432e-14 0)
(851.84 -5.36239e-13 0)
(851.84 -7.66762e-13 0)
(851.84 -1.85184e-13 0)
(851.84 -3.06163e-13 0)
(851.84 -4.34607e-13 0)
(851.84 -4.1456e-13 0)
(851.84 -5.4032e-13 0)
(851.84 -6.35491e-13 0)
(851.84 -7.30978e-13 0)
(851.84 -3.18773e-13 0)
(851.84 -4.16078e-13 0)
(851.84 -3.21835e-13 0)
(851.84 -2.71459e-13 0)
(851.84 -9.90719e-14 0)
(851.84 7.75055e-14 0)
(851.84 1.75979e-13 0)
(851.84 2.28193e-13 0)
(851.84 -7.65368e-13 0)
(851.84 2.92462e-12 0)
(851.84 -2.79462e-12 0)
(851.84 5.90695e-09 0)
(851.84 2.99711e-14 0)
(851.84 -6.1512e-14 0)
(851.84 -4.57946e-14 0)
(851.84 -1.521e-13 0)
(851.84 -2.3746e-13 0)
(851.84 -2.93068e-13 0)
(851.84 -5.97868e-14 0)
(851.84 -2.98079e-14 0)
(851.84 3.16886e-13 0)
(851.84 1.31554e-13 0)
(851.84 -1.34149e-15 0)
(851.84 -9.43063e-14 0)
(851.84 -5.4796e-14 0)
(851.84 -3.64747e-14 0)
(851.84 -7.72508e-14 0)
(851.84 -1.45758e-13 0)
(851.84 -3.90998e-14 0)
(851.84 1.43667e-13 0)
(851.84 -2.56873e-13 0)
(851.84 -1.70075e-13 0)
(851.84 -6.73812e-15 0)
(851.84 6.00977e-14 0)
(851.84 -9.50981e-15 0)
(851.84 -3.4271e-13 0)
(851.84 -2.62367e-13 0)
(851.84 -4.54961e-13 0)
(851.84 -6.9839e-13 0)
(851.84 -6.12812e-13 0)
(851.84 -4.40573e-13 0)
(851.84 -7.72643e-13 0)
(851.84 -6.16438e-13 0)
(851.84 -6.34216e-13 0)
(851.84 -4.06514e-13 0)
(851.84 -1.18053e-13 0)
(851.84 -1.90058e-13 0)
(851.84 -2.68488e-13 0)
(851.84 -7.54551e-13 0)
(851.84 1.37778e-10 0)
(851.84 -2.18851e-14 0)
(851.84 1.27587e-13 0)
(851.84 1.73934e-13 0)
(851.84 8.60441e-14 0)
(851.84 -6.72026e-15 0)
(851.84 2.80666e-13 0)
(851.84 2.72983e-13 0)
(851.84 -6.49494e-14 0)
(851.84 1.10922e-13 0)
(851.84 1.58541e-13 0)
(851.84 -3.33086e-14 0)
(851.84 -4.44864e-13 0)
(851.84 -3.12809e-13 0)
(851.84 -3.24594e-13 0)
(851.84 -4.49318e-15 0)
(851.84 -1.60473e-13 0)
(851.84 2.56436e-14 0)
(851.84 1.6382e-13 0)
(851.84 5.74061e-13 0)
(851.84 3.36405e-13 0)
(851.84 1.56638e-13 0)
(851.84 1.19488e-13 0)
(851.84 1.34629e-13 0)
(851.84 2.31461e-13 0)
(851.84 9.20825e-14 0)
(851.84 -1.43653e-13 0)
(851.84 -2.63013e-13 0)
(851.84 -3.56905e-13 0)
(851.84 -6.73611e-13 0)
(851.84 -5.53447e-13 0)
(851.84 -6.42571e-13 0)
(851.84 -6.69569e-13 0)
(851.84 -6.69819e-13 0)
(851.84 -4.76476e-13 0)
(851.84 -2.40647e-13 0)
(851.84 -4.98118e-13 0)
(851.84 -5.61723e-13 0)
(851.84 2.91386e-13 0)
(851.84 -1.67393e-14 0)
(851.84 1.66895e-14 0)
(851.84 3.09022e-14 0)
(851.84 2.06827e-13 0)
(851.84 2.88591e-13 0)
(851.84 2.6273e-13 0)
(851.84 3.50771e-14 0)
(851.84 9.48708e-14 0)
(851.84 2.52075e-13 0)
(851.84 3.7801e-13 0)
(851.84 2.78867e-13 0)
(851.84 5.60102e-13 0)
(851.84 1.17991e-13 0)
(851.84 -2.79676e-14 0)
(851.84 -2.7988e-13 0)
(851.84 -1.98797e-13 0)
(851.84 -1.78158e-13 0)
(851.84 1.27963e-15 0)
(851.84 2.93369e-13 0)
(851.84 2.13613e-13 0)
(851.84 4.31571e-13 0)
(851.84 3.36923e-13 0)
(851.84 3.9835e-13 0)
(851.84 1.5635e-13 0)
(851.84 1.0184e-13 0)
(851.84 -3.58669e-14 0)
(851.84 1.54696e-13 0)
(851.84 -1.83196e-13 0)
(851.84 -3.10108e-13 0)
(851.84 -3.61491e-13 0)
(851.84 -6.19417e-13 0)
(851.84 -4.67855e-13 0)
(851.84 -6.46767e-13 0)
(851.84 -8.02925e-13 0)
(851.84 -7.76402e-13 0)
(851.84 -7.44812e-13 0)
(851.84 -7.72791e-13 0)
(851.84 -9.67513e-13 0)
(851.84 -1.07518e-15 0)
(851.84 2.19124e-13 0)
(851.84 -1.46593e-13 0)
(851.84 6.95299e-14 0)
(851.84 3.17173e-13 0)
(851.84 2.94787e-13 0)
(851.84 3.4722e-13 0)
(851.84 2.63e-13 0)
(851.84 1.15718e-13 0)
(851.84 1.87417e-13 0)
(851.84 -1.15571e-14 0)
(851.84 -2.5297e-14 0)
(851.84 3.5783e-14 0)
(851.84 -1.16141e-13 0)
(851.84 -2.41263e-13 0)
(851.84 -1.04049e-13 0)
(851.84 -1.36554e-13 0)
(851.84 -5.54748e-14 0)
(851.84 6.05967e-14 0)
(851.84 4.12953e-14 0)
(851.84 8.60309e-14 0)
(851.84 2.76441e-13 0)
(851.84 1.04134e-13 0)
(851.84 2.18605e-13 0)
(851.84 -5.88178e-14 0)
(851.84 1.32154e-14 0)
(851.84 1.05506e-13 0)
(851.84 8.45143e-14 0)
(851.84 -6.95011e-14 0)
(851.84 -4.13054e-13 0)
(851.84 -2.81728e-13 0)
(851.84 -4.24829e-13 0)
(851.84 -5.50697e-13 0)
(851.84 -6.49535e-13 0)
(851.84 -1.11192e-12 0)
(851.84 -5.39994e-13 0)
(851.84 -5.09529e-13 0)
(851.84 -4.97901e-13 0)
(851.84 6.59727e-15 0)
(851.84 1.8122e-15 0)
(851.84 2.62619e-14 0)
(851.84 -1.05905e-13 0)
(851.84 4.10659e-13 0)
(851.84 3.80014e-13 0)
(851.84 3.4334e-13 0)
(851.84 -3.06369e-14 0)
(851.84 -6.16403e-14 0)
(851.84 -1.91231e-13 0)
(851.84 -1.58275e-13 0)
(851.84 -3.03279e-13 0)
(851.84 -1.24796e-13 0)
(851.84 -1.80806e-14 0)
(851.84 5.39206e-14 0)
(851.84 1.24204e-13 0)
(851.84 -8.19989e-14 0)
(851.84 1.34316e-14 0)
(851.84 1.01297e-13 0)
(851.84 1.81975e-13 0)
(851.84 1.44579e-13 0)
(851.84 1.36762e-13 0)
(851.84 2.96181e-13 0)
(851.84 4.67233e-13 0)
(851.84 5.78636e-13 0)
(851.84 4.8532e-13 0)
(851.84 -9.59277e-15 0)
(851.84 -7.57682e-14 0)
(851.84 -9.78851e-14 0)
(851.84 -2.94795e-13 0)
(851.84 -5.71611e-13 0)
(851.84 -5.64217e-13 0)
(851.84 -4.1724e-13 0)
(851.84 -4.64777e-13 0)
(851.84 -2.53919e-13 0)
(851.84 -3.09965e-13 0)
(851.84 -1.7841e-13 0)
(851.84 -2.3886e-13 0)
(851.84 -2.1087e-14 0)
(851.84 -2.46607e-13 0)
(851.84 -1.03781e-13 0)
(851.84 -1.37696e-13 0)
(851.84 -2.01419e-13 0)
(851.84 -1.52564e-13 0)
(851.84 -3.27532e-13 0)
(851.84 -3.83989e-13 0)
(851.84 -3.0994e-13 0)
(851.84 -4.18169e-13 0)
(851.84 -1.46042e-13 0)
(851.84 3.15023e-14 0)
(851.84 1.5674e-13 0)
(851.84 6.69478e-14 0)
(851.84 2.37715e-13 0)
(851.84 4.07251e-15 0)
(851.84 -4.45765e-14 0)
(851.84 4.63305e-14 0)
(851.84 -1.01348e-15 0)
(851.84 1.05438e-13 0)
(851.84 -4.14367e-14 0)
(851.84 8.02421e-14 0)
(851.84 2.81337e-13 0)
(851.84 4.13109e-13 0)
(851.84 4.24353e-13 0)
(851.84 3.52656e-13 0)
(851.84 6.02827e-13 0)
(851.84 5.59431e-14 0)
(851.84 1.75337e-13 0)
(851.84 -1.4971e-13 0)
(851.84 -5.92555e-13 0)
(851.84 -4.39258e-13 0)
(851.84 -6.05814e-13 0)
(851.84 -3.48671e-13 0)
(851.84 -8.13561e-14 0)
(851.84 -2.41402e-13 0)
(851.84 -2.92292e-13 0)
(851.84 -3.71968e-13 0)
(851.84 2.00456e-14 0)
(851.84 -2.98315e-14 0)
(851.84 3.43817e-14 0)
(851.84 -2.62364e-14 0)
(851.84 -3.41497e-13 0)
(851.84 -5.29234e-13 0)
(851.84 -4.89594e-13 0)
(851.84 -2.83712e-13 0)
(851.84 1.08412e-13 0)
(851.84 1.78782e-13 0)
(851.84 1.90119e-13 0)
(851.84 4.65259e-13 0)
(851.84 3.73747e-13 0)
(851.84 3.05076e-13 0)
(851.84 3.10688e-13 0)
(851.84 3.21826e-13 0)
(851.84 2.17763e-13 0)
(851.84 -3.72396e-14 0)
(851.84 -1.94206e-13 0)
(851.84 -1.3946e-13 0)
(851.84 -1.88434e-14 0)
(851.84 -2.58426e-13 0)
(851.84 -9.21957e-14 0)
(851.84 -9.63037e-16 0)
(851.84 1.57199e-13 0)
(851.84 -9.41129e-14 0)
(851.84 -1.98977e-13 0)
(851.84 2.05685e-14 0)
(851.84 -2.09931e-13 0)
(851.84 -3.36806e-13 0)
(851.84 -2.61939e-13 0)
(851.84 -4.96796e-13 0)
(851.84 -5.69449e-13 0)
(851.84 -4.47714e-13 0)
(851.84 -3.31619e-13 0)
(851.84 -2.32717e-13 0)
(851.84 -4.41384e-13 0)
(851.84 -4.45947e-13 0)
(851.84 8.58021e-15 0)
(851.84 1.97113e-13 0)
(851.84 3.57956e-13 0)
(851.84 9.00207e-14 0)
(851.84 -2.52998e-13 0)
(851.84 -2.98727e-13 0)
(851.84 -5.44471e-13 0)
(851.84 -1.809e-13 0)
(851.84 -1.54695e-13 0)
(851.84 1.62526e-13 0)
(851.84 1.61783e-13 0)
(851.84 4.15371e-14 0)
(851.84 6.22605e-14 0)
(851.84 3.44309e-13 0)
(851.84 1.94006e-13 0)
(851.84 3.15989e-13 0)
(851.84 2.15388e-13 0)
(851.84 1.15858e-13 0)
(851.84 -2.38849e-13 0)
(851.84 -3.3932e-13 0)
(851.84 -2.74383e-13 0)
(851.84 1.11371e-13 0)
(851.84 -8.12115e-14 0)
(851.84 -1.18694e-13 0)
(851.84 -5.74939e-14 0)
(851.84 1.82593e-14 0)
(851.84 -1.20772e-13 0)
(851.84 -1.47209e-13 0)
(851.84 -5.34371e-14 0)
(851.84 1.88505e-14 0)
(851.84 1.00902e-13 0)
(851.84 -5.27016e-14 0)
(851.84 -2.30822e-13 0)
(851.84 -1.99209e-13 0)
(851.84 -5.03535e-13 0)
(851.84 -3.31503e-13 0)
(851.84 -2.14438e-13 0)
(851.84 -1.84105e-13 0)
(851.84 -5.31092e-14 0)
(851.84 -3.89574e-14 0)
(851.84 1.50192e-13 0)
(851.84 9.16941e-14 0)
(851.84 3.83111e-13 0)
(851.84 2.84913e-13 0)
(851.84 3.85891e-13 0)
(851.84 8.5789e-14 0)
(851.84 -1.50276e-13 0)
(851.84 -2.80867e-13 0)
(851.84 5.82645e-14 0)
(851.84 2.52882e-14 0)
(851.84 1.81058e-13 0)
(851.84 3.06842e-13 0)
(851.84 4.16838e-13 0)
(851.84 3.38374e-13 0)
(851.84 4.91659e-13 0)
(851.84 4.35101e-13 0)
(851.84 5.24523e-13 0)
(851.84 1.33763e-13 0)
(851.84 7.30943e-14 0)
(851.84 -1.16343e-13 0)
(851.84 -1.0785e-13 0)
(851.84 -3.28501e-13 0)
(851.84 -2.92847e-13 0)
(851.84 -1.74491e-13 0)
(851.84 -2.30224e-13 0)
(851.84 -2.34044e-13 0)
(851.84 -3.23195e-13 0)
(851.84 1.1193e-14 0)
(851.84 -1.01003e-13 0)
(851.84 -2.61364e-13 0)
(851.84 -4.80075e-13 0)
(851.84 -6.14679e-13 0)
(851.84 -8.18592e-13 0)
(851.84 -6.75434e-13 0)
(851.84 -5.04867e-13 0)
(851.84 -3.48955e-13 0)
(851.84 2.33434e-14 0)
(851.84 1.48344e-13 0)
(851.84 1.53661e-13 0)
(851.84 1.07786e-13 0)
(851.84 1.02528e-13 0)
(851.84 2.52619e-13 0)
(851.84 5.04458e-13 0)
(851.84 6.30129e-13 0)
(851.84 9.86723e-14 0)
(851.84 -1.39198e-13 0)
(851.84 -1.84519e-13 0)
(851.84 3.8494e-14 0)
(851.84 -3.52593e-14 0)
(851.84 -3.36082e-14 0)
(851.84 9.77467e-15 0)
(851.84 3.05195e-13 0)
(851.84 2.20713e-13 0)
(851.84 2.90916e-13 0)
(851.84 9.43e-14 0)
(851.84 1.69704e-13 0)
(851.84 4.83173e-14 0)
(851.84 -7.36941e-14 0)
(851.84 -2.31283e-13 0)
(851.84 -2.85899e-13 0)
(851.84 -1.80385e-13 0)
(851.84 -9.48958e-14 0)
(851.84 2.94227e-14 0)
(851.84 -1.75347e-14 0)
(851.84 1.82464e-13 0)
(851.84 2.18249e-13 0)
(851.84 -1.49599e-13 0)
(851.84 -1.73301e-13 0)
(851.84 -2.80191e-13 0)
(851.84 -4.52063e-13 0)
(851.84 -4.97797e-13 0)
(851.84 -6.05865e-13 0)
(851.84 -6.16624e-13 0)
(851.84 -2.86107e-13 0)
(851.84 -1.5911e-14 0)
(851.84 2.19944e-13 0)
(851.84 -1.51139e-13 0)
(851.84 7.70839e-14 0)
(851.84 1.84757e-13 0)
(851.84 3.90585e-13 0)
(851.84 5.43515e-13 0)
(851.84 3.83837e-13 0)
(851.84 4.70287e-13 0)
(851.84 4.46131e-13 0)
(851.84 4.73817e-13 0)
(851.84 2.62567e-13 0)
(851.84 8.91841e-14 0)
(851.84 2.35021e-14 0)
(851.84 6.3319e-14 0)
(851.84 9.5927e-14 0)
(851.84 -2.89288e-14 0)
(851.84 -2.77398e-14 0)
(851.84 -2.13872e-13 0)
(851.84 -1.46785e-13 0)
(851.84 -2.3878e-13 0)
(851.84 -3.15644e-13 0)
(851.84 -4.36066e-13 0)
(851.84 -3.07475e-13 0)
(851.84 -4.22547e-13 0)
(851.84 -1.74119e-13 0)
(851.84 3.17744e-13 0)
(851.84 3.15096e-13 0)
(851.84 2.61493e-13 0)
(851.84 1.05848e-13 0)
(851.84 -3.74436e-14 0)
(851.84 -3.99615e-14 0)
(851.84 -9.75648e-14 0)
(851.84 -5.01598e-14 0)
(851.84 -4.29511e-15 0)
(851.84 8.11722e-14 0)
(851.84 1.38346e-13 0)
(851.84 8.82228e-14 0)
(851.84 -3.50513e-14 0)
(851.84 -1.16327e-13 0)
(851.84 -4.37658e-14 0)
(851.84 -9.84326e-14 0)
(851.84 -7.5022e-14 0)
(851.84 -6.99699e-14 0)
(851.84 -6.54294e-14 0)
(851.84 -6.01934e-14 0)
(851.84 -5.18602e-14 0)
(851.84 1.73692e-13 0)
(851.84 7.41776e-14 0)
(851.84 3.07479e-13 0)
(851.84 2.98931e-13 0)
(851.84 3.45636e-13 0)
(851.84 3.37278e-13 0)
(851.84 3.48583e-13 0)
(851.84 2.50333e-13 0)
(851.84 2.38193e-13 0)
(851.84 3.25322e-13 0)
(851.84 1.48542e-13 0)
(851.84 -1.70185e-13 0)
(851.84 -1.53116e-13 0)
(851.84 -3.51739e-13 0)
(851.84 -2.60074e-13 0)
(851.84 -3.1709e-13 0)
(851.84 -3.94403e-13 0)
(851.84 -2.99374e-13 0)
(851.84 -1.61584e-13 0)
(851.84 -2.17484e-13 0)
(851.84 -1.48758e-13 0)
(851.84 9.99339e-14 0)
(851.84 3.37372e-13 0)
(851.84 1.78519e-13 0)
(851.84 2.22842e-13 0)
(851.84 5.08412e-13 0)
(851.84 1.97022e-13 0)
(851.84 8.25301e-14 0)
(851.84 1.85036e-14 0)
(851.84 -6.43369e-14 0)
(851.84 -1.23935e-13 0)
(851.84 -1.76837e-13 0)
(851.84 -1.87663e-13 0)
(851.84 -1.81297e-13 0)
(851.84 -3.39427e-13 0)
(851.84 -4.04979e-13 0)
(851.84 -2.19492e-13 0)
(851.84 -6.19211e-14 0)
(851.84 -1.38076e-14 0)
(851.84 7.7288e-14 0)
(851.84 -2.13723e-14 0)
(851.84 2.88059e-13 0)
(851.84 3.85509e-13 0)
(851.84 2.65107e-13 0)
(851.84 5.17047e-13 0)
(851.84 6.51732e-13 0)
(851.84 6.11321e-13 0)
(851.84 3.25273e-13 0)
(851.84 2.76336e-13 0)
(851.84 3.90875e-13 0)
(851.84 2.81051e-13 0)
(851.84 2.58502e-13 0)
(851.84 2.70331e-13 0)
(851.84 -1.33222e-14 0)
(851.84 -3.04458e-14 0)
(851.84 -4.52661e-13 0)
(851.84 -5.01257e-13 0)
(851.84 -4.16197e-13 0)
(851.84 -5.62249e-13 0)
(851.84 5.0226e-13 0)
(851.84 1.99707e-13 0)
(851.84 3.82497e-13 0)
(851.84 4.25598e-13 0)
(851.84 7.83668e-14 0)
(851.84 2.75576e-14 0)
(851.84 1.37677e-13 0)
(851.84 -1.15236e-13 0)
(851.84 -2.07881e-14 0)
(851.84 -3.38284e-14 0)
(851.84 -1.02925e-13 0)
(851.84 -2.40238e-13 0)
(851.84 -2.70214e-13 0)
(851.84 -4.6069e-13 0)
(851.84 -4.62361e-13 0)
(851.84 -4.28536e-13 0)
(851.84 -9.5313e-14 0)
(851.84 2.26726e-14 0)
(851.84 1.70141e-14 0)
(851.84 1.01171e-13 0)
(851.84 1.10565e-13 0)
(851.84 7.48291e-14 0)
(851.84 7.57084e-14 0)
(851.84 -7.16988e-15 0)
(851.84 1.12034e-13 0)
(851.84 1.9655e-13 0)
(851.84 3.11932e-13 0)
(851.84 5.35218e-13 0)
(851.84 5.50992e-13 0)
(851.84 3.77093e-13 0)
(851.84 4.29948e-13 0)
(851.84 1.44569e-13 0)
(851.84 8.63661e-14 0)
(851.84 -3.63176e-13 0)
(851.84 -3.08809e-13 0)
(851.84 -3.66627e-13 0)
(851.84 -2.40766e-13 0)
(851.84 4.10567e-13 0)
(851.84 2.11435e-13 0)
(851.84 2.92353e-13 0)
(851.84 4.4852e-13 0)
(851.84 4.74665e-13 0)
(851.84 5.62105e-13 0)
(851.84 4.57306e-13 0)
(851.84 2.66898e-13 0)
(851.84 2.70112e-13 0)
(851.84 -8.87564e-14 0)
(851.84 1.09941e-13 0)
(851.84 -2.5206e-14 0)
(851.84 -2.23041e-13 0)
(851.84 -2.51755e-13 0)
(851.84 -1.26589e-13 0)
(851.84 -3.37262e-13 0)
(851.84 -4.82233e-13 0)
(851.84 -1.00655e-13 0)
(851.84 -6.27823e-14 0)
(851.84 1.14314e-13 0)
(851.84 2.29666e-13 0)
(851.84 2.1035e-13 0)
(851.84 3.17343e-13 0)
(851.84 -1.6629e-13 0)
(851.84 -3.31025e-13 0)
(851.84 -3.52173e-14 0)
(851.84 5.4693e-14 0)
(851.84 4.07644e-13 0)
(851.84 5.39286e-13 0)
(851.84 6.10239e-13 0)
(851.84 3.4725e-13 0)
(851.84 2.16609e-13 0)
(851.84 -1.78919e-15 0)
(851.84 8.61693e-14 0)
(851.84 1.74248e-13 0)
(851.84 3.4499e-13 0)
(851.84 5.58856e-13 0)
(851.84 7.93525e-13 0)
(851.84 9.40062e-13 0)
(851.84 8.12423e-13 0)
(851.84 7.20385e-13 0)
(851.84 5.29277e-13 0)
(851.84 3.60881e-13 0)
(851.84 3.06579e-13 0)
(851.84 8.92059e-14 0)
(851.84 -1.31913e-14 0)
(851.84 2.61018e-14 0)
(851.84 9.21752e-14 0)
(851.84 -1.92052e-13 0)
(851.84 -8.10914e-14 0)
(851.84 -5.49895e-14 0)
(851.84 2.89684e-14 0)
(851.84 -3.72608e-14 0)
(851.84 -8.92435e-14 0)
(851.84 -8.81042e-14 0)
(851.84 -1.14235e-13 0)
(851.84 -1.06704e-13 0)
(851.84 -1.20823e-13 0)
(851.84 -1.86152e-13 0)
(851.84 -2.31922e-13 0)
(851.84 -1.65843e-13 0)
(851.84 -7.92124e-14 0)
(851.84 1.43955e-13 0)
(851.84 4.37544e-13 0)
(851.84 7.32886e-13 0)
(851.84 5.43496e-13 0)
(851.84 7.31516e-13 0)
(851.84 7.76697e-13 0)
(851.84 3.98058e-13 0)
(851.84 2.16245e-13 0)
(851.84 2.95025e-13 0)
(851.84 4.49219e-13 0)
(851.84 3.77156e-13 0)
(851.84 5.01545e-13 0)
(851.84 3.83522e-13 0)
(851.84 3.72288e-13 0)
(851.84 -1.80692e-13 0)
(851.84 2.4574e-13 0)
(851.84 4.74518e-13 0)
(851.84 4.61766e-13 0)
(851.84 4.03814e-13 0)
(851.84 3.31634e-13 0)
(851.84 4.66484e-13 0)
(851.84 5.10547e-13 0)
(851.84 -1.04767e-14 0)
(851.84 4.91908e-14 0)
(851.84 -2.48438e-14 0)
(851.84 8.22176e-14 0)
(851.84 1.13019e-13 0)
(851.84 1.2609e-13 0)
(851.84 -1.36334e-13 0)
(851.84 -1.59186e-13 0)
(851.84 -4.33346e-14 0)
(851.84 -1.34144e-13 0)
(851.84 -3.44014e-13 0)
(851.84 -3.35832e-13 0)
(851.84 -6.56675e-13 0)
(851.84 -3.50434e-13 0)
(851.84 -1.63484e-13 0)
(851.84 6.13888e-14 0)
(851.84 5.57983e-13 0)
(851.84 6.65815e-13 0)
(851.84 5.3295e-13 0)
(851.84 5.2658e-13 0)
(851.84 4.60951e-13 0)
(851.84 1.95897e-13 0)
(851.84 2.45396e-13 0)
(851.84 2.31345e-13 0)
(851.84 2.33498e-13 0)
(851.84 -1.01315e-13 0)
(851.84 2.34823e-13 0)
(851.84 4.66529e-13 0)
(851.84 5.27318e-13 0)
(851.84 9.45303e-13 0)
(851.84 7.58368e-13 0)
(851.84 6.53911e-13 0)
(851.84 4.14876e-13 0)
(851.84 4.65979e-13 0)
(851.84 1.28747e-13 0)
(851.84 2.78841e-13 0)
(851.84 3.49646e-13 0)
(851.84 2.49784e-13 0)
(851.84 2.58513e-13 0)
(851.84 2.43182e-14 0)
(851.84 6.76662e-14 0)
(851.84 1.95902e-13 0)
(851.84 9.67579e-14 0)
(851.84 -3.00398e-14 0)
(851.84 1.63984e-13 0)
(851.84 2.52422e-13 0)
(851.84 2.35398e-13 0)
(851.84 1.46986e-13 0)
(851.84 4.13187e-15 0)
(851.84 1.24816e-14 0)
(851.84 3.51611e-14 0)
(851.84 4.54654e-15 0)
(851.84 8.34625e-14 0)
(851.84 1.64484e-13 0)
(851.84 -5.04479e-14 0)
(851.84 -7.99255e-14 0)
(851.84 -9.40168e-14 0)
(851.84 3.65749e-14 0)
(851.84 6.68547e-14 0)
(851.84 7.25202e-14 0)
(851.84 2.3925e-13 0)
(851.84 3.08474e-13 0)
(851.84 2.47977e-13 0)
(851.84 4.8096e-13 0)
(851.84 4.62152e-13 0)
(851.84 5.12914e-14 0)
(851.84 1.66109e-13 0)
(851.84 4.06089e-14 0)
(851.84 9.46488e-14 0)
(851.84 4.61571e-13 0)
(851.84 4.69881e-13 0)
(851.84 2.348e-13 0)
(851.84 2.3971e-13 0)
(851.84 1.94144e-13 0)
(851.84 1.92508e-13 0)
(851.84 1.63754e-13 0)
(851.84 1.12858e-14 0)
(851.84 -3.36475e-14 0)
(851.84 -8.50856e-14 0)
(851.84 -2.58841e-13 0)
(851.84 -1.00567e-13 0)
(851.84 -2.45567e-14 0)
(851.84 1.41781e-13 0)
(851.84 4.12715e-13 0)
(851.84 1.43608e-13 0)
(851.84 -1.25612e-13 0)
(851.84 -1.71066e-13 0)
(851.84 1.62168e-14 0)
(851.84 -3.90137e-14 0)
(851.84 2.93719e-13 0)
(851.84 3.5177e-13 0)
(851.84 2.3566e-13 0)
(851.84 1.75621e-13 0)
(851.84 8.43529e-14 0)
(851.84 2.97684e-14 0)
(851.84 6.09983e-14 0)
(851.84 -1.03603e-13 0)
(851.84 -7.71445e-14 0)
(851.84 7.13357e-14 0)
(851.84 4.6577e-13 0)
(851.84 4.62877e-13 0)
(851.84 5.8235e-13 0)
(851.84 4.22397e-13 0)
(851.84 6.59563e-13 0)
(851.84 6.27684e-13 0)
(851.84 1.50802e-13 0)
(851.84 8.75162e-14 0)
(851.84 4.34939e-14 0)
(851.84 1.81707e-13 0)
(851.84 2.98361e-13 0)
(851.84 5.50184e-13 0)
(851.84 3.76003e-13 0)
(851.84 1.13022e-13 0)
(851.84 4.74298e-14 0)
(851.84 9.52247e-15 0)
(851.84 -5.84407e-14 0)
(851.84 -1.91779e-13 0)
(851.84 -1.65969e-13 0)
(851.84 -1.844e-13 0)
(851.84 8.1464e-15 0)
(851.84 1.04417e-13 0)
(851.84 2.17352e-13 0)
(851.84 3.3983e-13 0)
(851.84 3.07984e-13 0)
(851.84 1.6211e-13 0)
(851.84 -8.57725e-14 0)
(851.84 7.57937e-14 0)
(851.84 -5.50887e-14 0)
(851.84 1.87075e-13 0)
(851.84 -1.90011e-13 0)
(851.84 -1.96697e-13 0)
(851.84 -1.98191e-13 0)
(851.84 -2.19058e-13 0)
(851.84 -8.88722e-14 0)
(851.84 -9.07848e-14 0)
(851.84 1.43045e-13 0)
(851.84 2.64218e-13 0)
(851.84 3.06631e-13 0)
(851.84 2.98529e-13 0)
(851.84 2.66802e-13 0)
(851.84 4.19633e-13 0)
(851.84 4.64056e-13 0)
(851.84 -3.99879e-14 0)
(851.84 -2.07144e-13 0)
(851.84 -2.85832e-13 0)
(851.84 -2.86328e-13 0)
(851.84 -1.95574e-13 0)
(851.84 -9.52379e-14 0)
(851.84 2.5703e-14 0)
(851.84 1.36983e-13 0)
(851.84 9.33649e-14 0)
(851.84 8.32026e-14 0)
(851.84 2.29455e-13 0)
(851.84 1.0147e-13 0)
(851.84 7.16985e-14 0)
(851.84 1.58238e-13 0)
(851.84 3.96599e-13 0)
(851.84 2.63053e-13 0)
(851.84 6.33309e-14 0)
(851.84 1.36372e-13 0)
(851.84 1.28094e-13 0)
(851.84 2.72501e-13 0)
(851.84 1.8456e-13 0)
(851.84 1.08188e-13 0)
(851.84 1.92518e-13 0)
(851.84 3.07951e-13 0)
(851.84 2.45806e-13 0)
(851.84 1.6919e-15 0)
(851.84 -1.12985e-13 0)
(851.84 -3.51911e-14 0)
(851.84 9.19237e-15 0)
(851.84 8.94887e-14 0)
(851.84 -2.69858e-13 0)
(851.84 -2.98188e-13 0)
(851.84 -1.58818e-14 0)
(851.84 1.76924e-13 0)
(851.84 2.63907e-13 0)
(851.84 1.91082e-13 0)
(851.84 2.94649e-13 0)
(851.84 1.98995e-13 0)
(851.84 1.11549e-13 0)
(851.84 1.74886e-13 0)
(851.84 1.60699e-13 0)
(851.84 6.43841e-14 0)
(851.84 -1.63776e-13 0)
(851.84 5.16671e-14 0)
(851.84 1.13438e-13 0)
(851.84 7.10938e-14 0)
(851.84 -6.31533e-14 0)
(851.84 9.18062e-14 0)
(851.84 5.52054e-13 0)
(851.84 1.39636e-14 0)
(851.84 2.79493e-13 0)
(851.84 2.8892e-13 0)
(851.84 1.42174e-13 0)
(851.84 -1.20656e-14 0)
(851.84 -6.58218e-14 0)
(851.84 -2.40206e-14 0)
(851.84 1.49516e-13 0)
(851.84 1.9595e-13 0)
(851.84 2.29691e-13 0)
(851.84 1.59863e-13 0)
(851.84 4.41788e-13 0)
(851.84 1.57266e-13 0)
(851.84 -1.51879e-14 0)
(851.84 8.49278e-14 0)
(851.84 -1.26333e-13 0)
(851.84 -2.81786e-13 0)
(851.84 -3.13676e-13 0)
(851.84 -4.29514e-13 0)
(851.84 -3.68577e-13 0)
(851.84 -4.42211e-13 0)
(851.84 -2.82007e-13 0)
(851.84 -1.13335e-13 0)
(851.84 -3.68046e-14 0)
(851.84 2.68702e-13 0)
(851.84 3.53874e-13 0)
(851.84 8.59944e-14 0)
(851.84 2.89623e-13 0)
(851.84 3.43336e-13 0)
(851.84 2.5491e-13 0)
(851.84 2.74548e-13 0)
(851.84 2.70988e-13 0)
(851.84 4.60197e-13 0)
(851.84 1.54704e-13 0)
(851.84 -1.87806e-13 0)
(851.84 1.42444e-13 0)
(851.84 1.53169e-14 0)
(851.84 1.77552e-13 0)
(851.84 5.3766e-14 0)
(851.84 4.17585e-14 0)
(851.84 1.64717e-13 0)
(851.84 -3.77746e-15 0)
(851.84 3.70951e-13 0)
(851.84 2.23344e-13 0)
(851.84 1.47441e-13 0)
(851.84 2.13623e-13 0)
(851.84 2.79589e-13 0)
(851.84 3.98202e-13 0)
(851.84 4.57097e-13 0)
(851.84 2.90999e-13 0)
(851.84 4.44154e-13 0)
(851.84 4.67942e-13 0)
(851.84 3.36593e-13 0)
(851.84 2.95729e-13 0)
(851.84 -3.10082e-13 0)
(851.84 -5.42723e-13 0)
(851.84 -4.27329e-13 0)
(851.84 -4.79888e-13 0)
(851.84 -2.01317e-13 0)
(851.84 -2.35391e-13 0)
(851.84 -2.5277e-13 0)
(851.84 3.5187e-14 0)
(851.84 1.35529e-13 0)
(851.84 2.87081e-13 0)
(851.84 1.894e-13 0)
(851.84 -1.40894e-13 0)
(851.84 8.90088e-14 0)
(851.84 1.39355e-13 0)
(851.84 2.83065e-13 0)
(851.84 4.07086e-13 0)
(851.84 2.00207e-13 0)
(851.84 1.15871e-13 0)
(851.84 1.87859e-13 0)
(851.84 4.30618e-13 0)
(851.84 1.86275e-13 0)
(851.84 -1.06287e-14 0)
(851.84 8.90256e-14 0)
(851.84 -1.37299e-14 0)
(851.84 -1.11393e-13 0)
(851.84 -1.89272e-13 0)
(851.84 -7.91772e-14 0)
(851.84 4.26665e-13 0)
(851.84 1.85474e-13 0)
(851.84 2.32286e-13 0)
(851.84 2.22926e-13 0)
(851.84 4.48074e-15 0)
(851.84 5.30641e-14 0)
(851.84 1.7807e-13 0)
(851.84 2.29097e-13 0)
(851.84 -9.22857e-14 0)
(851.84 -5.98755e-14 0)
(851.84 -7.90499e-14 0)
(851.84 -1.61195e-14 0)
(851.84 7.82145e-14 0)
(851.84 1.4111e-13 0)
(851.84 8.41761e-14 0)
(851.84 8.44472e-15 0)
(851.84 -8.89138e-14 0)
(851.84 -2.67596e-13 0)
(851.84 -1.61617e-13 0)
(851.84 1.41943e-13 0)
(851.84 1.34498e-13 0)
(851.84 2.35311e-13 0)
(851.84 3.43873e-13 0)
(851.84 2.55705e-13 0)
(851.84 5.72941e-13 0)
(851.84 3.25164e-13 0)
(851.84 2.0774e-13 0)
(851.84 3.40402e-13 0)
(851.84 2.03125e-13 0)
(851.84 1.02355e-13 0)
(851.84 6.52416e-14 0)
(851.84 2.0162e-13 0)
(851.84 2.21389e-13 0)
(851.84 -5.21052e-14 0)
(851.84 -7.36167e-14 0)
(851.84 -3.39027e-14 0)
(851.84 1.90552e-13 0)
(851.84 2.48434e-13 0)
(851.84 1.14501e-13 0)
(851.84 1.15528e-13 0)
(851.84 1.10668e-13 0)
(851.84 1.51568e-13 0)
(851.84 1.87131e-13 0)
(851.84 2.10298e-13 0)
(851.84 3.30854e-13 0)
(851.84 1.42552e-13 0)
(851.84 -2.05115e-13 0)
(851.84 -2.8357e-13 0)
(851.84 -8.57758e-14 0)
(851.84 1.99115e-13 0)
(851.84 3.13231e-13 0)
(851.84 2.66592e-13 0)
(851.84 3.7788e-13 0)
(851.84 4.5791e-13 0)
(851.84 2.31192e-13 0)
(851.84 1.5331e-13 0)
(851.84 -3.73104e-14 0)
(851.84 -1.36233e-13 0)
(851.84 -1.19569e-13 0)
(851.84 2.66296e-13 0)
(851.84 7.83643e-14 0)
(851.84 3.1716e-13 0)
(851.84 2.1496e-13 0)
(851.84 2.48753e-13 0)