/*--------------------------------*- C++ -*----------------------------------*\
| =========                 |                                                 |
| \\      /  F ield         | OpenFOAM: The Open Source CFD Toolbox           |
|  \\    /   O peration     | Version:  v1812                                 |
|   \\  /    A nd           | Web:      www.OpenFOAM.com                      |
|    \\/     M anipulation  |                                                 |
\*---------------------------------------------------------------------------*/
FoamFile
{
    version     2.0;
    format      ascii;
    class       volScalarField;
    location    "1.3";
    object      p;
}
// * * * * * * * * * * * * * * * * * * * * * * * * * * * * * * * * * * * * * //

dimensions      [1 -1 -2 0 0 0 0];


internalField   nonuniform List<scalar> 
20400
(
105343
105344
105344
105344
105344
105344
105345
105345
105345
105345
105346
105347
105348
105349
105351
105353
105356
105358
105360
105363
105365
105366
105368
105368
105367
105365
105362
105359
105354
105351
105344
105340
105335
105331
105327
105323
105319
105316
105313
105309
105305
105300
105291
105282
105266
105253
105241
105222
105203
105180
105155
105127
105101
105076
105056
105041
105030
105025
105027
105036
105052
105074
105101
105136
105175
105218
105263
105310
105356
105402
105446
105487
105525
105560
105590
105617
105640
105659
105675
105687
105696
105703
105706
105710
105712
105713
105712
105709
105706
105702
105697
105691
105686
105680
105674
105668
105662
105656
105650
105645
105640
105635
105630
105626
105622
105618
105615
105611
105609
105606
105603
105601
105600
105598
105596
105593
105589
105582
105574
105558
105541
105520
105496
105476
105448
105423
105396
105371
105352
105338
105332
105333
105347
105359
105382
105404
105423
105446
105469
105490
105512
105528
105542
105550
105555
105557
105555
105551
105544
105536
105526
105517
105504
105493
105480
105468
105456
105443
105431
105419
105408
105396
105385
105374
105364
105354
105344
105336
105327
105320
105312
105305
105298
105291
105283
105275
105267
105257
105247
105237
105225
105213
105201
105187
105173
105156
105138
105118
105098
105076
105059
105038
105019
104999
104982
104965
104952
104940
104931
104923
104918
104914
104911
104912
104913
104915
104919
104923
104928
104932
104937
104942
104947
104952
104956
104959
104961
104961
104961
104959
104956
104951
104946
104939
104932
104924
104915
104905
104894
104884
104872
104861
104849
104837
104824
104811
104798
104785
104772
104759
104746
104733
104720
104707
104694
104681
104667
104654
104640
104627
104613
104599
104585
104570
104556
104542
104527
104512
104497
104481
104466
104450
104434
104417
104401
104384
104367
104349
104331
104313
104294
104274
104254
104233
104213
104192
104172
104154
104134
104120
104104
104088
104074
104060
104047
104036
104026
104018
104009
104003
103997
103992
103987
103983
103979
103975
103971
103967
103962
103957
103952
103946
103939
103931
103923
103914
103905
103894
103883
103871
103859
103846
103833
103819
103804
103790
103775
103759
103744
103728
103713
103697
103681
103664
103648
103632
103616
103600
103584
103568
103552
103535
103519
103502
103485
103467
103450
103431
103413
103394
103375
103356
103336
103315
103295
103273
103251
103229
103207
103186
103164
103144
103124
103106
103089
103073
103058
103044
103033
103021
103011
103001
102993
102984
102976
102968
102961
102953
102945
102936
102928
102919
102910
102900
102890
102880
102870
102859
102848
102837
102826
102814
102803
102791
102779
102767
102755
102743
102731
102718
102705
102692
102679
102666
102652
102639
102625
102611
102597
102582
102568
102553
102539
102524
102509
102494
102479
102463
102448
102432
102416
102399
102383
102366
102349
102332
102315
102298
102282
102265
102248
102231
102215
102199
102183
102167
102151
102135
102120
102104
102089
102074
102059
102044
102030
102015
102001
101987
101974
101960
101947
101935
101922
101910
101899
101888
101877
101867
101857
101848
101839
101831
101822
101814
101807
101799
101792
101784
101777
101770
101762
101755
101747
101739
101731
101723
101714
101705
101696
101686
101676
101666
101656
101645
101634
101623
101611
101600
101588
101576
101564
101551
101539
101526
101514
101501
101489
101476
101464
101451
101439
101426
101414
101402
101390
101377
101366
101353
101343
101329
105343
105343
105344
105344
105344
105344
105344
105344
105345
105345
105346
105347
105348
105350
105352
105354
105356
105359
105361
105364
105366
105367
105368
105368
105367
105365
105362
105358
105353
105349
105344
105339
105334
105331
105327
105324
105321
105318
105314
105310
105305
105298
105291
105285
105276
105266
105244
105227
105203
105179
105151
105123
105094
105067
105041
105024
105013
105011
105016
105028
105049
105075
105108
105144
105181
105219
105259
105300
105342
105383
105422
105461
105498
105532
105563
105592
105617
105638
105657
105673
105686
105697
105706
105710
105711
105711
105710
105707
105704
105700
105695
105690
105684
105678
105673
105667
105661
105655
105650
105644
105639
105635
105630
105626
105622
105618
105615
105611
105609
105606
105603
105601
105600
105598
105596
105594
105590
105583
105575
105563
105549
105530
105507
105474
105445
105412
105387
105363
105347
105336
105330
105329
105336
105345
105365
105385
105416
105444
105470
105493
105512
105527
105540
105548
105553
105555
105554
105549
105543
105535
105526
105516
105504
105493
105480
105468
105455
105444
105432
105420
105408
105397
105386
105375
105364
105354
105344
105336
105327
105319
105312
105305
105298
105291
105284
105276
105267
105258
105248
105237
105226
105214
105201
105187
105173
105157
105142
105125
105106
105087
105060
105036
105014
104994
104977
104963
104951
104941
104932
104924
104918
104913
104909
104908
104908
104910
104913
104917
104922
104929
104936
104942
104948
104952
104956
104959
104960
104961
104960
104958
104955
104951
104945
104939
104931
104923
104914
104905
104894
104884
104872
104861
104849
104837
104824
104811
104798
104786
104773
104759
104746
104733
104720
104707
104694
104681
104667
104654
104640
104627
104613
104599
104585
104570
104556
104542
104527
104512
104497
104482
104467
104451
104435
104418
104401
104383
104365
104347
104328
104310
104291
104273
104254
104236
104217
104199
104180
104161
104143
104121
104103
104086
104070
104056
104044
104033
104024
104015
104008
104001
103995
103990
103985
103981
103977
103973
103969
103965
103961
103956
103951
103945
103938
103931
103922
103914
103904
103894
103883
103871
103859
103846
103832
103818
103804
103789
103774
103759
103744
103728
103712
103696
103680
103664
103648
103632
103616
103600
103584
103568
103551
103535
103519
103502
103485
103468
103450
103432
103414
103394
103375
103354
103334
103313
103291
103270
103249
103228
103207
103186
103165
103145
103125
103107
103089
103073
103058
103044
103032
103021
103010
103001
102992
102984
102976
102968
102960
102952
102944
102936
102927
102919
102909
102900
102890
102880
102869
102859
102848
102837
102826
102814
102803
102791
102779
102767
102755
102743
102730
102718
102705
102692
102679
102666
102652
102639
102625
102611
102597
102582
102568
102554
102539
102524
102509
102494
102479
102464
102448
102432
102416
102400
102383
102366
102349
102333
102315
102298
102281
102264
102247
102231
102214
102197
102181
102165
102149
102133
102118
102102
102087
102072
102058
102043
102029
102015
102001
101987
101973
101960
101947
101935
101922
101910
101899
101888
101877
101867
101857
101848
101839
101830
101822
101814
101806
101799
101791
101784
101777
101769
101762
101754
101747
101739
101731
101722
101714
101705
101696
101686
101676
101666
101656
101645
101634
101623
101611
101600
101588
101576
101564
101551
101539
101526
101514
101501
101489
101476
101464
101451
101439
101426
101414
101402
101390
101377
101366
101353
101343
101329
105343
105343
105343
105344
105344
105344
105344
105344
105344
105344
105345
105346
105347
105348
105350
105352
105354
105356
105359
105361
105363
105365
105366
105366
105365
105364
105361
105358
105353
105349
105344
105339
105334
105329
105326
105323
105320
105317
105315
105312
105308
105304
105297
105286
105272
105259
105244
105225
105200
105172
105138
105102
105068
105041
105025
105013
105005
104999
105001
105009
105024
105046
105075
105109
105150
105195
105245
105295
105344
105392
105438
105482
105521
105556
105588
105615
105638
105657
105673
105685
105694
105700
105704
105706
105708
105709
105708
105705
105702
105698
105693
105688
105682
105676
105671
105665
105659
105654
105648
105643
105638
105634
105629
105625
105621
105618
105614
105611
105608
105606
105604
105602
105600
105598
105597
105594
105591
105586
105578
105566
105549
105526
105499
105470
105439
105408
105379
105352
105334
105318
105311
105315
105326
105341
105361
105383
105409
105434
105459
105483
105504
105522
105535
105544
105550
105551
105550
105546
105540
105532
105523
105513
105502
105490
105478
105466
105454
105442
105430
105418
105407
105396
105385
105374
105364
105354
105344
105336
105327
105319
105312
105305
105299
105291
105284
105276
105267
105258
105248
105237
105226
105214
105202
105189
105175
105160
105142
105122
105100
105077
105055
105033
105012
104993
104976
104961
104946
104934
104924
104917
104912
104909
104908
104907
104908
104911
104914
104918
104923
104928
104934
104939
104945
104950
104954
104957
104959
104960
104959
104957
104954
104950
104945
104938
104931
104923
104914
104904
104894
104883
104872
104860
104848
104836
104824
104811
104798
104785
104772
104759
104746
104733
104720
104707
104694
104681
104668
104654
104641
104627
104613
104599
104585
104570
104556
104541
104527
104512
104497
104481
104465
104449
104433
104417
104401
104385
104368
104351
104334
104315
104296
104276
104256
104235
104214
104193
104173
104153
104134
104117
104101
104086
104072
104059
104046
104034
104024
104014
104006
104000
103994
103989
103984
103980
103976
103973
103969
103965
103960
103956
103950
103944
103937
103930
103922
103913
103903
103893
103882
103870
103858
103845
103832
103818
103804
103789
103774
103759
103744
103728
103712
103696
103680
103664
103648
103632
103616
103600
103584
103567
103551
103535
103519
103502
103485
103468
103450
103431
103413
103394
103376
103357
103337
103317
103297
103275
103253
103230
103208
103185
103163
103142
103122
103104
103086
103070
103056
103042
103030
103019
103009
102999
102991
102982
102975
102967
102959
102952
102944
102936
102927
102918
102909
102900
102890
102879
102869
102858
102847
102836
102825
102814
102802
102790
102779
102767
102755
102742
102730
102718
102705
102692
102679
102666
102652
102639
102625
102611
102597
102582
102568
102554
102539
102524
102509
102494
102479
102464
102448
102432
102416
102400
102383
102366
102349
102333
102316
102299
102282
102265
102248
102232
102215
102199
102183
102167
102151
102136
102120
102105
102089
102074
102059
102045
102030
102015
102001
101987
101974
101960
101947
101934
101922
101910
101899
101887
101877
101867
101857
101847
101838
101830
101821
101813
101806
101798
101791
101783
101776
101769
101761
101754
101746
101738
101730
101722
101714
101705
101695
101686
101676
101666
101656
101645
101634
101623
101611
101600
101588
101576
101564
101551
101539
101526
101514
101501
101489
101476
101464
101451
101439
101426
101414
101402
101390
101377
101366
101353
101342
101329
105343
105343
105343
105343
105343
105343
105343
105343
105343
105343
105344
105345
105346
105348
105350
105352
105355
105357
105360
105363
105365
105366
105367
105367
105366
105363
105359
105354
105349
105343
105338
105334
105331
105329
105325
105324
105322
105321
105319
105316
105311
105304
105297
105289
105278
105261
105237
105209
105175
105137
105101
105069
105039
105013
104987
104965
104953
104956
104967
104985
105009
105038
105071
105108
105148
105192
105237
105282
105329
105375
105420
105461
105500
105536
105568
105596
105620
105641
105658
105672
105683
105692
105699
105703
105704
105704
105703
105700
105697
105693
105689
105684
105678
105673
105667
105662
105656
105651
105646
105641
105636
105632
105628
105624
105620
105617
105614
105611
105608
105605
105603
105602
105600
105599
105598
105596
105593
105588
105580
105567
105548
105524
105494
105459
105425
105390
105360
105334
105315
105301
105293
105293
105301
105316
105337
105365
105393
105424
105451
105476
105498
105515
105529
105538
105544
105546
105545
105541
105535
105528
105518
105508
105497
105486
105474
105462
105450
105438
105427
105415
105403
105392
105382
105372
105362
105352
105343
105335
105327
105320
105313
105306
105299
105293
105285
105277
105269
105259
105250
105239
105228
105216
105203
105189
105174
105158
105140
105120
105097
105073
105048
105024
105002
104982
104965
104951
104940
104930
104922
104914
104908
104904
104901
104899
104900
104902
104906
104911
104917
104924
104931
104937
104943
104949
104953
104956
104958
104959
104958
104956
104953
104949
104944
104937
104930
104922
104913
104903
104893
104882
104871
104860
104848
104836
104823
104811
104798
104785
104772
104759
104746
104733
104720
104707
104694
104681
104668
104655
104641
104627
104613
104599
104585
104571
104557
104542
104528
104513
104498
104483
104468
104452
104436
104419
104402
104385
104367
104348
104330
104311
104292
104273
104253
104233
104213
104193
104173
104153
104134
104114
104096
104079
104064
104050
104037
104026
104017
104009
104002
103996
103990
103986
103981
103977
103974
103970
103967
103963
103959
103954
103949
103943
103936
103929
103921
103912
103903
103892
103881
103870
103858
103845
103831
103818
103803
103789
103774
103759
103743
103728
103712
103696
103680
103664
103648
103632
103616
103600
103584
103568
103552
103536
103519
103503
103486
103468
103451
103433
103415
103396
103376
103356
103335
103314
103292
103270
103248
103226
103204
103182
103161
103141
103121
103102
103084
103068
103053
103040
103027
103017
103007
102997
102989
102981
102973
102966
102959
102951
102943
102935
102927
102918
102909
102899
102889
102879
102868
102858
102847
102836
102824
102813
102801
102790
102778
102766
102754
102742
102730
102717
102705
102692
102679
102666
102652
102639
102625
102611
102597
102583
102568
102554
102539
102525
102510
102495
102480
102464
102449
102433
102417
102400
102384
102367
102350
102333
102316
102299
102282
102264
102247
102231
102214
102197
102181
102165
102149
102133
102118
102103
102088
102073
102058
102043
102029
102014
102000
101986
101973
101959
101946
101933
101921
101909
101898
101886
101876
101866
101856
101846
101837
101829
101821
101813
101805
101797
101790
101783
101776
101768
101761
101754
101746
101738
101730
101722
101714
101705
101696
101686
101676
101666
101656
101645
101634
101623
101612
101600
101588
101576
101564
101552
101539
101527
101514
101501
101489
101476
101464
101451
101439
101426
101414
101402
101390
101377
101366
101353
101342
101329
105343
105343
105343
105343
105342
105342
105342
105342
105342
105342
105342
105343
105344
105346
105347
105350
105353
105356
105359
105361
105364
105366
105367
105367
105366
105363
105359
105354
105349
105343
105338
105333
105328
105324
105322
105321
105320
105320
105319
105317
105313
105308
105300
105287
105270
105247
105218
105181
105142
105103
105064
105026
104991
104964
104945
104933
104926
104926
104935
104951
104973
105002
105037
105077
105122
105171
105222
105273
105324
105373
105420
105464
105504
105540
105572
105600
105623
105642
105658
105671
105681
105688
105692
105695
105697
105698
105697
105694
105691
105688
105683
105678
105673
105668
105663
105657
105652
105647
105642
105638
105633
105629
105625
105622
105618
105615
105612
105610
105607
105605
105603
105601
105600
105599
105598
105596
105594
105589
105579
105564
105541
105513
105479
105443
105407
105371
105339
105310
105289
105274
105269
105272
105282
105299
105321
105348
105376
105406
105435
105461
105485
105504
105518
105529
105535
105538
105537
105534
105528
105521
105512
105502
105491
105479
105468
105456
105443
105432
105420
105409
105398
105387
105377
105367
105358
105349
105341
105334
105326
105319
105313
105307
105300
105293
105286
105279
105270
105261
105250
105240
105228
105216
105203
105188
105173
105155
105135
105112
105087
105062
105037
105014
104994
104976
104960
104946
104934
104923
104915
104908
104903
104899
104897
104896
104897
104899
104903
104908
104914
104920
104927
104933
104940
104946
104950
104954
104956
104957
104957
104955
104952
104948
104942
104936
104929
104920
104912
104902
104892
104881
104870
104858
104846
104834
104822
104809
104797
104784
104771
104758
104745
104732
104719
104706
104694
104681
104668
104655
104641
104628
104614
104600
104586
104571
104557
104542
104528
104513
104498
104482
104467
104451
104434
104418
104402
104385
104368
104350
104331
104312
104292
104272
104251
104230
104209
104188
104167
104146
104127
104110
104093
104077
104063
104049
104037
104026
104016
104007
104000
103993
103988
103983
103979
103976
103972
103969
103965
103962
103957
103953
103948
103942
103935
103928
103920
103911
103902
103892
103881
103869
103857
103844
103831
103817
103802
103788
103773
103758
103743
103727
103712
103696
103680
103664
103648
103632
103616
103600
103584
103568
103552
103536
103520
103503
103486
103469
103451
103433
103415
103396
103376
103356
103336
103315
103293
103270
103247
103224
103201
103178
103156
103135
103115
103096
103079
103063
103048
103035
103024
103013
103003
102995
102987
102979
102972
102965
102957
102950
102942
102934
102926
102917
102908
102899
102889
102878
102868
102857
102846
102835
102823
102812
102800
102789
102777
102765
102753
102741
102729
102716
102704
102691
102678
102665
102652
102638
102625
102611
102597
102583
102569
102554
102540
102525
102510
102495
102480
102465
102449
102433
102417
102400
102384
102367
102350
102333
102316
102299
102281
102264
102248
102231
102214
102198
102182
102166
102150
102134
102119
102103
102088
102073
102058
102043
102029
102014
102000
101986
101972
101959
101946
101933
101920
101908
101897
101885
101875
101864
101855
101845
101836
101828
101819
101812
101804
101796
101789
101782
101775
101768
101760
101753
101746
101738
101730
101722
101714
101705
101696
101686
101677
101667
101656
101646
101635
101623
101612
101600
101588
101576
101564
101552
101539
101527
101514
101501
101489
101476
101463
101451
101438
101426
101414
101401
101389
101377
101366
101353
101342
101329
105342
105342
105342
105342
105342
105341
105341
105340
105340
105340
105341
105341
105343
105344
105346
105349
105352
105355
105358
105361
105364
105365
105367
105367
105365
105362
105357
105351
105344
105337
105331
105326
105323
105321
105320
105320
105320
105320
105320
105318
105315
105308
105298
105282
105259
105226
105187
105146
105104
105059
105017
104980
104946
104918
104898
104886
104884
104893
104906
104927
104954
104987
105024
105065
105109
105156
105206
105257
105308
105358
105406
105450
105491
105528
105560
105588
105611
105631
105647
105661
105671
105679
105684
105688
105689
105689
105688
105686
105683
105680
105675
105671
105666
105661
105656
105651
105647
105642
105638
105634
105630
105626
105622
105619
105616
105613
105610
105608
105606
105604
105602
105600
105599
105598
105596
105594
105591
105585
105575
105558
105533
105502
105465
105426
105386
105348
105315
105286
105264
105249
105241
105243
105252
105270
105294
105324
105356
105389
105420
105447
105472
105491
105507
105518
105524
105528
105527
105524
105519
105512
105503
105493
105483
105471
105460
105447
105435
105424
105412
105401
105390
105380
105370
105360
105351
105343
105336
105330
105323
105318
105312
105307
105301
105295
105288
105280
105272
105262
105252
105241
105229
105216
105202
105187
105170
105151
105129
105104
105078
105051
105025
105001
104980
104963
104949
104937
104927
104917
104909
104902
104896
104891
104888
104886
104887
104889
104894
104899
104906
104914
104922
104930
104937
104943
104948
104952
104954
104955
104955
104953
104950
104946
104940
104934
104927
104919
104910
104900
104890
104879
104868
104856
104845
104832
104820
104808
104795
104782
104769
104757
104744
104731
104718
104705
104693
104680
104667
104654
104641
104628
104614
104600
104586
104571
104557
104543
104528
104514
104499
104484
104468
104453
104436
104420
104403
104385
104367
104348
104329
104310
104289
104269
104248
104227
104205
104184
104163
104143
104123
104104
104086
104069
104055
104041
104029
104019
104010
104002
103995
103989
103984
103980
103976
103972
103969
103966
103963
103959
103955
103951
103946
103940
103934
103926
103919
103910
103900
103890
103879
103868
103855
103842
103829
103815
103801
103787
103772
103757
103742
103726
103711
103695
103679
103663
103648
103632
103616
103600
103584
103568
103552
103536
103520
103504
103487
103470
103453
103435
103416
103396
103376
103356
103334
103312
103290
103266
103243
103220
103196
103174
103152
103131
103111
103092
103075
103059
103045
103032
103020
103010
103001
102992
102985
102977
102970
102963
102956
102949
102942
102934
102925
102917
102907
102898
102888
102878
102867
102856
102845
102834
102822
102811
102799
102787
102776
102764
102752
102740
102728
102715
102703
102690
102678
102664
102651
102638
102624
102611
102597
102583
102568
102554
102540
102525
102510
102495
102480
102465
102449
102433
102417
102401
102384
102367
102350
102332
102315
102298
102280
102263
102246
102229
102212
102196
102179
102163
102148
102132
102117
102101
102086
102071
102057
102042
102027
102013
101999
101985
101971
101957
101944
101931
101919
101907
101895
101884
101873
101863
101853
101844
101835
101827
101818
101810
101803
101795
101788
101781
101774
101767
101760
101753
101745
101738
101730
101722
101713
101705
101696
101686
101677
101667
101656
101646
101635
101624
101612
101601
101589
101577
101564
101552
101539
101527
101514
101501
101489
101476
101463
101451
101438
101426
101413
101401
101389
101377
101365
101353
101342
101329
105342
105342
105342
105342
105341
105340
105340
105339
105339
105338
105338
105339
105340
105341
105343
105345
105348
105351
105355
105358
105361
105363
105365
105365
105364
105361
105357
105351
105344
105337
105330
105325
105321
105318
105317
105317
105318
105319
105319
105317
105313
105304
105290
105268
105236
105197
105154
105108
105061
105014
104970
104931
104898
104873
104858
104848
104849
104857
104871
104893
104921
104954
104993
105037
105085
105136
105190
105245
105300
105352
105401
105447
105488
105525
105556
105584
105607
105626
105641
105653
105662
105669
105673
105676
105678
105678
105678
105676
105673
105670
105666
105662
105658
105653
105649
105644
105640
105636
105632
105628
105625
105622
105619
105616
105613
105610
105608
105606
105604
105602
105600
105598
105597
105595
105594
105591
105587
105580
105568
105549
105520
105486
105446
105405
105364
105325
105290
105259
105237
105222
105215
105217
105227
105246
105269
105299
105332
105367
105400
105429
105455
105476
105493
105504
105511
105515
105516
105513
105508
105501
105493
105483
105473
105461
105450
105438
105426
105414
105402
105391
105380
105369
105360
105351
105343
105336
105329
105323
105318
105313
105309
105304
105299
105294
105288
105281
105272
105263
105253
105241
105229
105215
105201
105185
105166
105145
105121
105094
105066
105039
105014
104991
104972
104956
104943
104931
104921
104911
104903
104896
104890
104885
104882
104880
104881
104883
104888
104893
104900
104908
104916
104924
104932
104939
104944
104949
104951
104953
104952
104951
104948
104943
104938
104932
104924
104916
104907
104898
104887
104877
104866
104854
104842
104830
104818
104805
104793
104780
104767
104754
104742
104729
104716
104703
104691
104678
104665
104653
104640
104627
104613
104599
104585
104571
104557
104542
104528
104513
104499
104483
104468
104452
104436
104420
104403
104385
104367
104348
104329
104308
104287
104266
104244
104222
104200
104178
104157
104137
104117
104099
104082
104067
104052
104039
104027
104017
104007
103999
103992
103986
103981
103977
103973
103970
103967
103964
103961
103957
103953
103949
103944
103938
103932
103925
103917
103908
103898
103888
103877
103866
103853
103841
103827
103813
103799
103785
103770
103755
103740
103724
103709
103694
103678
103662
103647
103631
103615
103599
103584
103568
103552
103536
103520
103504
103488
103471
103453
103435
103416
103397
103376
103355
103334
103311
103288
103264
103240
103216
103192
103168
103145
103124
103104
103086
103069
103053
103040
103027
103016
103006
102998
102990
102982
102975
102968
102962
102955
102948
102941
102933
102924
102916
102907
102897
102887
102877
102866
102855
102844
102832
102821
102809
102797
102786
102774
102762
102750
102738
102726
102714
102702
102689
102676
102663
102650
102637
102623
102610
102596
102582
102568
102553
102539
102524
102510
102495
102480
102465
102449
102433
102417
102400
102383
102366
102349
102332
102314
102297
102280
102262
102245
102228
102212
102195
102179
102163
102147
102132
102116
102101
102086
102071
102056
102041
102027
102012
101998
101984
101970
101957
101943
101930
101918
101906
101894
101883
101872
101862
101852
101842
101834
101825
101817
101809
101802
101794
101787
101780
101773
101766
101759
101752
101745
101737
101729
101721
101713
101704
101696
101686
101677
101667
101656
101646
101635
101624
101612
101601
101589
101576
101564
101552
101539
101526
101514
101501
101488
101476
101463
101450
101438
101425
101413
101401
101389
101376
101365
101352
101342
101329
105342
105342
105342
105341
105341
105340
105339
105338
105337
105336
105336
105336
105337
105338
105340
105342
105345
105348
105351
105355
105358
105360
105362
105363
105362
105360
105356
105350
105343
105336
105329
105323
105319
105317
105317
105318
105318
105319
105318
105316
105310
105300
105280
105251
105214
105170
105123
105072
105021
104971
104926
104888
104856
104833
104819
104813
104817
104827
104846
104870
104900
104934
104974
105018
105066
105117
105172
105227
105283
105336
105387
105433
105475
105511
105543
105570
105593
105612
105627
105639
105649
105656
105661
105664
105666
105666
105665
105663
105661
105658
105655
105651
105647
105644
105640
105636
105632
105629
105625
105622
105619
105617
105614
105612
105609
105607
105605
105603
105601
105600
105598
105596
105594
105592
105590
105587
105582
105573
105559
105538
105507
105471
105430
105387
105344
105304
105268
105237
105214
105198
105190
105192
105202
105221
105246
105277
105312
105348
105382
105413
105439
105461
105478
105490
105497
105502
105503
105500
105496
105489
105481
105471
105461
105450
105438
105426
105414
105402
105390
105379
105368
105358
105348
105340
105332
105325
105319
105314
105310
105306
105303
105300
105296
105291
105286
105279
105272
105263
105252
105240
105228
105214
105198
105181
105161
105139
105113
105084
105056
105027
105002
104979
104961
104946
104934
104923
104913
104904
104896
104888
104881
104875
104871
104869
104870
104872
104877
104883
104891
104900
104910
104919
104927
104935
104941
104945
104948
104950
104949
104948
104945
104940
104935
104929
104921
104913
104904
104895
104884
104874
104863
104851
104839
104827
104815
104802
104789
104777
104764
104751
104739
104726
104713
104701
104688
104676
104663
104650
104638
104625
104612
104598
104584
104570
104556
104542
104528
104513
104499
104484
104469
104453
104437
104420
104403
104385
104366
104347
104326
104306
104284
104262
104240
104218
104196
104174
104152
104132
104112
104094
104076
104061
104046
104033
104022
104012
104003
103995
103989
103983
103978
103974
103970
103967
103964
103961
103958
103954
103951
103946
103941
103936
103929
103922
103914
103905
103896
103886
103875
103863
103851
103838
103824
103811
103796
103782
103767
103752
103737
103722
103707
103691
103676
103660
103645
103629
103614
103598
103583
103567
103552
103536
103520
103504
103488
103471
103454
103436
103417
103397
103376
103354
103332
103308
103284
103260
103235
103211
103187
103163
103141
103120
103100
103082
103065
103050
103036
103024
103013
103004
102995
102987
102980
102973
102967
102960
102954
102947
102939
102932
102924
102915
102906
102896
102886
102875
102865
102854
102842
102831
102819
102807
102796
102784
102772
102760
102748
102736
102724
102712
102700
102687
102675
102662
102649
102635
102622
102608
102594
102581
102567
102552
102538
102523
102509
102494
102479
102464
102448
102432
102416
102399
102383
102365
102348
102330
102313
102295
102278
102260
102243
102226
102209
102193
102177
102161
102145
102130
102114
102099
102084
102070
102055
102040
102026
102011
101997
101983
101969
101956
101942
101929
101917
101905
101893
101882
101871
101860
101851
101841
101832
101824
101816
101808
101800
101793
101786
101779
101772
101765
101758
101751
101744
101736
101729
101721
101713
101704
101695
101686
101676
101666
101656
101646
101635
101623
101612
101600
101588
101576
101564
101551
101539
101526
101513
101501
101488
101475
101463
101450
101438
101425
101413
101400
101389
101376
101365
101352
101342
101328
105342
105342
105342
105341
105340
105339
105338
105336
105335
105334
105334
105333
105333
105334
105335
105337
105339
105342
105345
105348
105351
105354
105357
105359
105359
105359
105356
105352
105347
105341
105334
105329
105325
105322
105321
105321
105321
105320
105319
105315
105308
105292
105268
105235
105191
105144
105091
105036
104982
104932
104887
104849
104818
104798
104784
104779
104785
104796
104815
104840
104871
104906
104947
104993
105044
105098
105156
105214
105272
105327
105378
105425
105466
105503
105534
105560
105582
105600
105615
105626
105635
105641
105646
105648
105650
105651
105650
105649
105647
105645
105642
105639
105635
105632
105629
105626
105623
105620
105617
105615
105613
105611
105609
105607
105605
105603
105602
105600
105598
105597
105595
105593
105591
105589
105586
105582
105576
105566
105550
105528
105495
105456
105414
105370
105326
105285
105248
105216
105193
105177
105169
105171
105181
105199
105224
105255
105290
105327
105364
105396
105423
105445
105463
105475
105483
105487
105488
105486
105482
105475
105468
105458
105448
105437
105425
105413
105401
105389
105377
105365
105354
105344
105335