/*--------------------------------*- C++ -*----------------------------------*\
| =========                 |                                                 |
| \\      /  F ield         | OpenFOAM: The Open Source CFD Toolbox           |
|  \\    /   O peration     | Version:  v1812                                 |
|   \\  /    A nd           | Web:      www.OpenFOAM.com                      |
|    \\/     M anipulation  |                                                 |
\*---------------------------------------------------------------------------*/
FoamFile
{
    version     2.0;
    format      ascii;
    class       surfaceScalarField;
    location    "1.3";
    object      phi;
}
// * * * * * * * * * * * * * * * * * * * * * * * * * * * * * * * * * * * * * //

dimensions      [1 0 -1 0 0 0 0];
oriented        oriented;


internalField   nonuniform List<scalar> 
40240
(
-3.65231e-05
2.28843e-05
-1.47546e-05
-3.53971e-05
0.00014458
-0.000172958
0.000392656
-0.000261681
0.000699861
-0.000320803
0.00100339
-0.000317116
0.00127572
-0.000285895
0.00149681
-0.000234649
0.00166387
-0.000180597
0.00178156
-0.000131201
0.00186202
-9.39572e-05
0.00192382
-7.52815e-05
0.00198816
-7.78104e-05
0.00207255
-9.78666e-05
0.00218951
-0.000130454
0.00236985
-0.000193873
0.00263952
-0.000283259
0.00301616
-0.000390299
0.00351558
-0.000513219
0.00414717
-0.0006455
0.004911
-0.000777943
0.00579781
-0.000901122
0.00678203
-0.00099874
0.00782172
-0.00105449
0.00886722
-0.00106059
0.00985223
-0.00100041
0.0107276
-0.000891007
0.0113967
-0.000684946
0.011863
-0.000482454
0.0119833
-0.000136699
0.0119005
6.60804e-05
0.0114969
0.000386958
0.0109126
0.000567463
0.0102085
0.000687068
0.0094731
0.000718213
0.00881727
0.000638446
0.00828711
0.000512685
0.00806978
0.000199667
0.00809859
-4.63837e-05
0.00847569
-0.000394755
0.00914639
-0.000688159
0.0100007
-0.000871597
0.0108104
-0.000827159
0.0110017
-0.000207922
0.0105986
0.000384191
0.00957834
0.00100384
0.00900802
0.000552283
0.007506
0.00148447
0.00502548
0.00246369
0.00189298
0.0031176
-0.00178926
0.00366941
-0.0063181
0.00451883
-0.011479
0.00515295
-0.0169733
0.00548867
-0.0223515
0.00537412
-0.027397
0.00504324
-0.031957
0.0045582
-0.0358754
0.0039183
-0.0391691
0.0032953
-0.0417399
0.00257336
-0.0435741
0.00183866
-0.0448811
0.00131226
-0.0455608
0.00068577
-0.0456767
0.000123189
-0.0451451
-0.000524537
-0.0441259
-0.00101154
-0.0427041
-0.00141431
-0.0408479
-0.00184884
-0.0386268
-0.00221416
-0.0362131
-0.00240693
-0.0335874
-0.00261952
-0.0308341
-0.0027474
-0.0279902
-0.00283835
-0.0250993
-0.0028856
-0.0221936
-0.00290065
-0.0193029
-0.00288592
-0.0164467
-0.00285101
-0.0136468
-0.00279464
-0.0109033
-0.00273778
-0.00825292
-0.00264429
-0.00574796
-0.00249843
-0.00359502
-0.00214618
-0.00192766
-0.00166082
-0.000168412
-0.0017522
0.00181002
-0.00197114
0.00371891
-0.00190143
0.00546515
-0.00173893
0.00704872
-0.00157703
0.00845846
-0.00140408
0.00969875
-0.00123596
0.0107695
-0.00106781
0.0116781
-0.000907269
0.0124297
-0.000752382
0.0130346
-0.000607745
0.0135006
-0.00047067
0.0138404
-0.000346389
0.0140651
-0.000232822
0.0141919
-0.000136381
0.014208
-2.64314e-05
0.0141799
1.73377e-05
0.0140893
7.98166e-05
0.0139581
0.000120592
0.0137704
0.000177583
0.0135583
0.00020287
0.0133412
0.000208738
0.0131178
0.000215951
0.0128995
0.0002118
0.0127072
0.000186613
0.0125513
0.00015146
0.0124865
6.10875e-05
0.0125028
-1.85315e-05
0.0126522
-0.000151044
0.0129489
-0.000297147
0.013425
-0.000475219
0.0140494
-0.000622594
0.0147436
-0.000691032
0.0154172
-0.000669848
0.0159204
-0.000498742
0.0160686
-0.000145903
0.0155502
0.000520979
0.0140612
0.00148776
0.0117091
0.00234976
0.00878474
0.00292015
0.00619567
0.00258443
0.00314811
0.00304335
-0.000108881
0.00325633
-0.00369622
0.00358292
-0.00718681
0.00348489
-0.0101834
0.0029931
-0.0123977
0.0022121
-0.0138483
0.00145387
-0.0143357
0.000483774
-0.0140318
-0.000292614
-0.0127451
-0.00127782
-0.011006
-0.00172934
-0.00905172
-0.00194157
-0.0069288
-0.00211118
-0.00428148
-0.00263741
-0.00142766
-0.0028443
0.00167384
-0.00309257
0.00495493
-0.00327389
0.00811452
-0.00315395
0.0110379
-0.00291908
0.0136763
-0.00263557
0.0159835
-0.002305
0.0179404
-0.00195576
0.0195439
-0.00160298
0.0207723
-0.00122811
0.0216538
-0.000881257
0.0222286
-0.000574745
0.0225245
-0.000295282
0.0225849
-6.01238e-05
0.0224426
0.000144107
0.0220428
0.00040126
0.0214591
0.000586568
0.0207804
0.000682224
0.020015
0.000770015
0.0191942
0.000826446
0.0183422
0.000858704
0.0174917
0.000858213
0.01666
0.00084018
0.0158596
0.000809774
0.0151093
0.00076042
0.0144288
0.000691406
0.0138376
0.000602882
0.0133465
0.000503561
0.0129744
0.000385208
0.0127205
0.000268086
0.0126028
0.000132375
0.0125946
2.42421e-05
0.0126991
-8.82054e-05
0.0128935
-0.000176859
0.0131476
-0.000236223
0.0134245
-0.000258458
0.0137095
-0.000266221
0.0139854
-0.000256973
0.0142452
-0.000240976
0.0144794
-0.000215601
0.0146654
-0.000167966
0.0147939
-0.000111023
0.014839
-2.73618e-05
0.0148224
3.32191e-05
0.0147116
0.000127499
0.0145088
0.000218877
0.0141744
0.000350211
0.0135873
0.000602756
0.0125903
0.00101261
0.0111272
0.00147951
0.00928019
0.00186319
0.00733769
0.00195933
0.00567122
0.00168385
0.00373151
0.00195913
0.00180552
0.00194587
6.28082e-05
0.00176455
-0.00153335
0.00161831
-0.00292796
0.00141843
-0.00404627
0.00114335
-0.00494621
0.000926326
-0.00563835
0.000720145
-0.00613814
0.000528686
-0.00649462
0.000387271
-0.00668707
0.000223684
-0.00671953
6.58837e-05
-0.00658688
-9.81997e-05
-0.00628285
-0.000268556
-0.00580329
-0.000443011
-0.005114
-0.000651741
-0.00428549
-0.000790196
-0.00358216
-0.000664525
-0.00290842
-0.000634174
-0.00195316
-0.000915369
-0.000898794
-0.0010139
0.000223137
-0.00108151
0.00148444
-0.00122025
0.0028018
-0.00127618
0.00410381
-0.00126067
0.00537127
-0.00122614
0.00659912
-0.00118653
0.00777224
-0.00113187
0.00888189
-0.00106851
0.00991536
-0.000992413
0.0108699
-0.000913659
0.0117391
-0.000828434
0.0125221
-0.000742497
0.0132168
-0.000654565
0.0138245
-0.000567791
0.0143462
-0.000482112
0.0147852
-0.000400155
0.0151447
-0.000321293
0.0154292
-0.00024708
0.0156418
-0.000175867
0.0157875
-0.00010986
0.0158691
-4.66401e-05
0.0158952
8.27268e-06
0.0158796
4.89828e-05
0.0158321
8.04641e-05
0.0157534
0.000111172
0.0156517
0.000134224
0.0155406
0.000144042
0.0154285
0.000145819
0.0153248
0.00013883
0.0152379
0.000123643
0.015172
0.000104757
0.0151284
8.42859e-05
0.0151024
6.83308e-05
0.0150941
5.30944e-05
0.0150935
4.74202e-05
0.0151022
3.9948e-05
0.0151161
3.61235e-05
0.015138
2.92823e-05
0.0151684
2.1445e-05
0.0152234
-2.69245e-06
0.0153048
-2.89849e-05
0.0154271
-6.99218e-05
0.0155745
-9.51648e-05
0.0157482
-0.000121841
0.0159337
-0.000133869
0.0161141
-0.000128958
0.0162722
-0.000106803
0.0163896
-6.62064e-05
0.0164651
-2.42521e-05
0.0164904
2.59669e-05
0.0164779
6.38154e-05
0.0164214
0.000107795
0.0163221
0.000150641
0.0161804
0.000193159
0.0159844
0.000247501
0.0157203
0.000315516
0.0153729
0.000398819
0.0149243
0.000499813
0.0143572
0.000618091
0.0136609
0.000747098
0.0128392
0.00087232
0.0119047
0.000985
0.0108677
0.00108744
0.00975765
0.00116012
0.00860155
0.00120703
0.00744161
0.00121094
0.0063207
0.0011721
0.00556093
0.000811424
0.0046788
0.000934515
0.00376769
0.000963771
0.00291953
0.000901908
0.00217189
0.000801851
0.00153091
0.000696137
0.0010132
0.000573327
0.000636208
0.000433442
0.000389952
0.000303145
0.000313271
0.000134173
0.000377154
-6.03164e-06
0.000591329
-0.0001556
0.000815335
-0.000165661
0.0012181
-0.000343756
0.00175618
-0.000479225
0.00237581
-0.000560485
0.00308606
-0.000651137
0.00386414
-0.000718981
0.00470344
-0.00078032
0.00558583
-0.000823584
0.00649864
-0.000854234
0.00742673
-0.0008698
0.00835778
-0.000873066
0.00927959
-0.000864165
0.0101818
-0.000844846
0.0110549
-0.000816086
0.0118909
-0.000779224
0.0126826
-0.000735321
0.0134244
-0.000685545
0.0141116
-0.00063112
0.0147411
-0.000573471
0.0153111
-0.000514088
0.0158217
-0.00045469
0.0162745
-0.000396714
0.0166723
-0.000341535
0.0170186
-0.000289835
0.0173181
-0.000242672
0.017575
-0.000199759
0.0177952
-0.000162738
0.0179828
-0.00012974
0.0181446
-0.000103628
0.0182863
-8.30468e-05
0.0184057
-6.04523e-05
0.0185186
-5.35085e-05
0.0186319
-5.37058e-05
0.0187534
-6.15445e-05
0.0188894
-7.58701e-05
0.0190457
-9.58818e-05
0.0192284
-0.000122069
0.0194371
-0.000148009
0.0196748
-0.000176916
0.0199331
-0.000197411
0.0201932
-0.000199415
0.0204395
-0.000185718
0.0206558
-0.000155981
0.0208139
-9.79619e-05
0.0209081
-3.43264e-05
0.0209274
4.02567e-05
0.0208989
8.76184e-05
0.020801
0.000156573
0.0206324
0.000226717
0.0203954
0.000294843
0.0200808
0.000372024
0.0196751
0.000462544
0.0191657
0.000565752
0.0185432
0.000678267
0.0178049
0.000793451
0.0169572
0.000902466
0.0160163
0.000995166
0.0150082
0.00106227
0.0139641
0.00109824
0.0129025
0.00111559
0.0118637
0.00109301
0.0109014
0.0010166
0.0100536
0.000902447
0.00934109
0.000767385
0.00875382
0.000642529
0.00827691
0.00053237
0.00791653
0.000416091
0.0076945
0.000278076
0.00761927
0.000130824
0.00764216
3.38424e-05
0.00779593
-9.76718e-05
0.00804806
-0.000196136
0.00839098
-0.000286916
0.00880461
-0.000357911
0.00927485
-0.000414719
0.00978696
-0.000456916
0.0103274
-0.00048558
0.0108842
-0.000502341
0.0114471
-0.000508789
0.012008
-0.000507223
0.0125609
-0.000499751
0.0131022
-0.000488479
0.0136296
-0.000475008
0.014142
-0.000460477
0.0146391
-0.000445643
0.0151213
-0.000431073
0.0155891
-0.000417212
0.0160437
-0.000404346
0.016486
-0.000392499
0.0169166
-0.000381315
0.0173357
-0.000370216
0.0177425
-0.00035844
0.0181356
-0.000345304
0.0185132
-0.000330284
0.0188729
-0.000312891
0.019212
-0.000292851
0.0195278
-0.000270054
0.019818
-0.000244884
0.0200807
-0.000217833
0.0203156
-0.000190444
0.0205228
-0.000163051
0.0207048
-0.000137974
0.0208615
-0.000113098
0.0209975
-9.24835e-05
0.0211143
-7.34796e-05
0.0212134
-5.57054e-05
0.021305
-4.84147e-05
0.0213927
-4.46267e-05
0.0214761
-4.06456e-05
0.02156
-4.1649e-05
0.0216415
-3.94965e-05
0.0217197
-3.64804e-05
0.0217913
-3.03935e-05
0.0218526
-2.05076e-05
0.0218995
-6.56725e-06
0.0219284
1.08757e-05
0.0219332
3.42788e-05
0.0219177
5.40808e-05
0.0218691
8.64145e-05
0.0217895
0.000116716
0.0216786
0.000147382
0.0215383
0.000176163
0.0213717
0.000201989
0.0211821
0.000224377
0.0209737
0.00024262
0.0207502
0.000257273
0.0205159
0.000267589
0.0202737
0.000275024
0.0200266
0.00027949
0.019777
0.000281688
0.0195262
0.00028243
0.019275
0.000282459
0.0190234
0.000282535
0.0187704
0.000283643
0.0185143
0.000286313
0.0182535
0.000290602
0.0179857
0.00029731
0.0177078
0.00030692
0.0174186
0.000317906
0.0171182
0.0003287
0.0168071
0.000338977
0.0164858
0.000348744
0.0161555
0.000357272
0.0158181
0.000364036
0.0154754
0.000368834
0.01513
0.000371129
0.0147858
0.000369609
0.014447
0.000363707
0.0141167
0.000354788
0.0137955
0.000345272
0.0134897
0.000329487
0.0132082
0.000304841
0.0129569
0.00027426
0.0127411
0.000238464
0.0125651
0.000198257
0.0124335
0.000153567
0.0123498
0.000105263
0.0123174
5.34417e-05
0.0123224
1.61528e-05
0.0123803
-3.74273e-05
0.0124843
-8.38364e-05
0.0126356
-0.000131399
0.0128303
-0.000175251
0.013066
-0.000216523
0.0133391
-0.000254301
0.0136454
-0.000287949
0.0139806
-0.000317112
0.0143396
-0.000341336
0.0147171
-0.000360308
0.0151077
-0.00037379
0.0155059
-0.000381775
0.0159063
-0.000384418
0.0163038
-0.000381918
0.0166936
-0.000374615
0.0170713
-0.000363048
0.0174336
-0.000348007
0.017777
-0.000329623
0.0180987
-0.000308297
0.0183963
-0.00028478
0.0186683
-0.000259606
0.0189134
-0.000233137
0.0191306
-0.000205684
0.019319
-0.000177485
0.0194784
-0.00014885
0.0196093
-0.000120829
0.0197127
-9.37392e-05
0.0197888
-6.67928e-05
0.0198376
-3.99175e-05
0.019863
-1.68025e-05
0.0198636
7.38863e-06
0.019852
1.92699e-05
0.0198204
3.85132e-05
0.0197719
5.51198e-05
0.0197098
6.82347e-05
0.0196356
8.00795e-05
0.0195532
8.79503e-05
0.0194611
9.72649e-05
0.0193648
0.000101368
0.019263
0.000106732
0.0191613
0.000106609
0.0190561
0.000110142
0.0189521
0.00010913
0.0188444
0.000112792
0.0187377
0.00011184
0.0186244
0.000118264
0.0185232
0.00010558
0.0184148
0.000111747
0.0183559
6.08554e-05
4.43192e-05
6.63657e-07
8.56828e-06
0.000222928
-0.000271311
0.000675879
-0.000639565
0.00127865
-0.000878098
0.0019534
-0.00100921
0.00263227
-0.00100963
0.00327397
-0.000941243
0.00384887
-0.00082318
0.00434695
-0.000692285
0.00476467
-0.000562498
0.00511377
-0.000456629
0.00541145
-0.000386498
0.00568607
-0.000365977
0.00597948
-0.000404815
0.00634603
-0.000510565
0.00680859
-0.000670025
0.00739066
-0.000878992
0.00812415
-0.00113751
0.00903194
-0.00143488
0.0101281
-0.00175559
0.0114162
-0.00208031
0.0128832
-0.00238244
0.0145084
-0.0026385
0.0162523
-0.00281326
0.0180707
-0.0028941
0.0198635
-0.0028086
0.0215348
-0.00257784
0.0230212
-0.00218719
0.0241757
-0.001653
0.0249841
-0.000961338
0.0252137
-0.000179853
0.0250749
0.000509078
0.0244585
0.00116716
0.023519
0.00160962
0.0223232
0.00189703
0.0210175
0.00192686
0.0197885
0.0017243
0.0187463
0.00122423
0.018105
0.000576986
0.0177592
-6.70504e-05
0.0174167
-0.000363961
0.0166852
-0.000158264
0.0154499
0.000390689
0.0142775
0.000947241
0.012729
0.00191464
0.00997606
0.00373668
0.00465635
0.00585203
-0.00212478
0.00824497
-0.0101646
0.0104859
-0.0194562
0.0123936
-0.029433
0.0136337
-0.039069
0.0141432
-0.0478349
0.0139087
-0.0555168
0.013161
-0.0617977
0.0116469
-0.0665566
0.00979463
-0.0699253
0.00791962
-0.0722253
0.00621211
-0.0735116
0.00457594
-0.0738911
0.00294799
-0.073538
0.00148172
-0.0722793
5.04438e-05
-0.0704595
-0.00113716
-0.0682011
-0.00213828
-0.06575
-0.00297899
-0.0630599
-0.00370511
-0.0601085
-0.00436947
-0.0568756
-0.00508577
-0.0534161
-0.00567829
-0.0498131
-0.00601522
-0.0460875
-0.00635108
-0.0422228
-0.00661884
-0.0382643
-0.00680423
-0.0342539
-0.00690334
-0.0302277
-0.00693405
-0.0262203
-0.00690021
-0.0222642
-0.00681347
-0.0183848
-0.00667958
-0.0146018
-0.00652541
-0.0109039
-0.00634543
-0.00723827
-0.0061659
-0.00345446
-0.00592985
0.000547666
-0.00566144
0.00426254
-0.00546337
0.00746916
-0.00517185
0.0104336
-0.00485762
0.0132423
-0.00453702
0.0158873
-0.00420931
0.018365
-0.00386716
0.0206624
-0.0035174
0.0227742
-0.00316264
0.0246976
-0.00281298
0.0264305
-0.00246765
0.0279718
-0.0021318
0.0293212
-0.00180399
0.0304781
-0.00148874
0.0314487
-0.00119096
0.0322314
-0.000908804
0.0328431
-0.000630788
0.0332695
-0.000404115
0.0335591
-0.000206769
0.0336629
1.60018e-05
0.0336566
0.000178785
0.0335559
0.000295824
0.0333707
0.000384353
0.0331056
0.000470128
0.0327844
0.000520914
0.0324216
0.00053655
0.0320486
0.000511763
0.0316756
0.000422245
0.0313375
0.000309437
0.0310448
0.000133705
0.0308289
-8.60936e-05
0.0306621
-0.000310431
0.030502
-0.00046327
0.0302252
-0.000412387
0.0295919
-3.22038e-05
0.0282566
0.000843468
0.0259991
0.0021186
0.02285
0.00367663
0.0189831
0.00535729
0.0144573
0.00687565
0.00930911
0.0080651
0.00315077
0.00873837
-0.00275959
0.00894689
-0.00799564
0.00848388
-0.0120685
0.00765174
-0.015004
0.00641859
-0.0167855
0.00477492
-0.0177875
0.00321445
-0.0180234
0.00169225
-0.0176524
0.000116936
-0.0164681
-0.00146987
-0.0146223
-0.00311125
-0.0118272
-0.0045143
-0.00814149
-0.00561222
-0.00359441
-0.00664335
0.00117739
-0.00739162
0.00618524
-0.00783631
0.0111492
-0.00804289
0.0159281
-0.00804064
0.0206149
-0.0078311
0.0251661
-0.00746325
0.029486
-0.00695092
0.0335247
-0.00634119
0.0372157
-0.00564648
0.040541
-0.00492951
0.0434565
-0.00414577
0.0459435
-0.00337105
0.0479978
-0.00263236
0.0496126
-0.00191344
0.0507231
-0.00117456
0.0512108
-0.000346912
0.0512621
0.000346431
0.050973
0.000873393
0.0502565
0.00139723
0.0491032
0.00192285
0.047595
0.00233543
0.0457979
0.0026576
0.0437696
0.00288965
0.041589
0.00302519
0.0393516
0.00305279
0.0371576
0.00296127
0.0350956
0.00276154
0.0332366
0.00247109
0.0316335
0.002117
0.0303169
0.00171319
0.0293047
0.00129273
0.02859
0.000860353
0.0281622
0.000466472
0.027982
0.000107202
0.0279678
-0.000145985
0.0280554
-0.000306637
0.0282046
-0.000389515
0.0283548
-0.000397434
0.0284787
-0.000361314
0.0285599
-0.000302143
0.0285855
-0.000221313
0.0285473
-0.000110561
0.0283871
6.73169e-05
0.0280433
0.000333699
0.0273871
0.000706128
0.0262996
0.00123088
0.0246995
0.00183395
0.0226026
0.00246161
0.020088
0.00313192
0.0172212
0.00389491
0.0140752
0.00464133
0.0106469
0.00530874
0.00683052
0.00579284
0.00256086
0.00597182
-0.00119775
0.00573585
-0.00433105
0.00509874
-0.00685294
0.00430682
-0.00867917
0.00346679
-0.00984951
0.00261265
-0.0104885
0.00180739
-0.0108158
0.00128039
-0.0109681
0.000900018
-0.0109951
0.000584464
-0.0108619
0.000284352
-0.0105384
-6.81822e-05
-0.0100261
-0.000413095
-0.00932515
-0.000764432
-0.00846439
-0.00109282
-0.0074421
-0.00142763
-0.00629848
-0.001756
-0.0049632
-0.00208481
-0.00318004
-0.00240552
-0.00107809
-0.0026932
0.00101512
-0.00296442
0.00319636
-0.0031503
0.00544999
-0.00328954
0.00765903
-0.0033834
0.00983583
-0.00340678
0.0120228
-0.0034012
0.0141767
-0.00333357
0.0162893
-0.00325268
0.018333
-0.00312911
0.0202896
-0.00297888
0.0221455
-0.0028022
0.0238906
-0.00261279
0.0255154
-0.0024075
0.0270133
-0.00219491
0.0283785
-0.00197441
0.0296064
-0.00175077
0.0306941
-0.00152512
0.0316395
-0.0013013
0.0324417
-0.00107987
0.0330993
-0.000861701
0.0336119
-0.000646334
0.0339756
-0.000432024
0.034199
-0.000229002
0.0342786
-3.13964e-05
0.034261
0.000104645
0.0341277
0.000250777
0.0339
0.000374637
0.0335911
0.000477703
0.0332183
0.000550627
0.032804
0.000593129
0.0323681
0.000607308
0.0319284
0.00059612
0.0315019
0.000564627
0.0311043
0.000516688
0.0307463
0.00046365
0.0304262
0.000413395
0.0301355
0.000379844
0.0298635
0.000356379
0.0296095
0.000337405
0.0293789
0.000309948
0.029191
0.000261524
0.0290596
0.000182484
0.0290143
7.12248e-05
0.029022
-2.2143e-05
0.0291034
-0.000121053
0.0292527
-0.000215843
0.0294477
-0.000274133
0.0296484
-0.000275455
0.0298257
-0.000230543
0.0299691
-0.000156728
0.0300331
-3.53755e-05
0.0300154
9.5715e-05
0.0298336
0.000297934
0.0294545
0.000538587
0.0288597
0.000797164
0.028036
0.00106861
0.0270038
0.00133141
0.0257809
0.00159017
0.0243833
0.00184824
0.022832
0.00210299
0.0211598
0.00234234
0.0194061
0.00255291
0.0175806
0.00275005
0.0156866
0.00293109
0.013787
0.00303893
0.011917
0.00308224
0.0100902
0.00308533
0.00830534
0.00304796
0.00655596
0.00297392
0.00460922
0.00281111
0.00296895
0.00262811
0.00161478
0.00237194
0.000484946
0.00208649
-0.0003583
0.00170056
-0.000905414
0.00129956
-0.00113084
0.000855386
-0.00116754
0.000527593
-0.00106242
0.000256482
-0.000777328
-9.15342e-05
-0.000305166
-0.000418123
0.000325092
-0.000725257
0.00130256
-0.00108171
0.00239893
-0.00137884
0.00361142
-0.0016302
0.00496202
-0.00184941
0.00641113
-0.00203848
0.00794761
-0.00219359
0.00954984
-0.00232068
0.0112008
-0.00241269
0.012882
-0.00247382
0.0145769
-0.00250322
0.0162697
-0.00250457
0.0179455
-0.00247902
0.0195904
-0.00242935
0.0211916
-0.00235743
0.0227371
-0.0022655
0.0242158
-0.00215546
0.0256174
-0.00202931
0.0269324
-0.00188913
0.0281528
-0.00173747
0.0292714
-0.00157721
0.0302835
-0.00141178
0.0311859
-0.00124462
0.0319778
-0.00107927
0.0326602
-0.000918347
0.0332369
-0.000765597
0.033713
-0.000621948
0.0340968
-0.00049224
0.0343959
-0.000374175
0.03462
-0.000272345
0.0347849
-0.000191818
0.0349001
-0.000118831
0.0349903
-8.64779e-05
0.035065
-7.04431e-05
0.0351382
-7.62571e-05
0.0352256
-0.000104076
0.035343
-0.00015379
0.0355091
-0.000228083
0.0357371
-0.000315611
0.0360238
-0.000402971
0.0363537
-0.000466372
0.0367028
-0.000487496
0.0370344
-0.000456324
0.0373025
-0.00036333
0.0374878
-0.000222804
0.0375572
-4.31479e-05
0.0375278
0.000129314
0.0373029
0.000371934
0.0368505
0.000667441
0.0361489
0.000986091
0.0351834
0.00131755
0.0339742
0.00163768
0.032545
0.00194776
0.0309238
0.00224235
0.0291491
0.00250796
0.0272776
0.0027196
0.0253696
0.00286491
0.023472
0.00294717
0.021619
0.0029694
0.019836
0.00293537
0.0181743
0.00283145
0.0166585
0.00266308
0.0152911
0.00243832
0.014072
0.002176
0.0130266
0.00186744
0.0122306
0.00149339
0.0117243
0.00109383
0.0115013
0.000694435
0.0114913
0.000344004
0.0116673
1.05636e-05
0.0120505
-0.000293297
0.0126012
-0.000592379
0.0133043
-0.000843395
0.0141308
-0.00105759
0.0150579
-0.00122938
0.0160619
-0.00136342
0.0171225
-0.00146246
0.018221
-0.00152927
0.0193409
-0.00156794
0.0204686
-0.00158253
0.0215931
-0.00157811
0.0227061
-0.00155955
0.023802
-0.00153163
0.0248777
-0.00149828
0.0259318
-0.00146241
0.026964
-0.00142599
0.0279748
-0.00139031
0.028965
-0.00135618
0.0299357
-0.00132393
0.0308873
-0.00129333
0.0318199
-0.0012633
0.0327321
-0.00123212
0.0336213
-0.0011976
0.0344832
-0.00115746
0.0353121
-0.00110987
0.0361012
-0.00105312
0.0368427
-0.000986022
0.0375283
-0.000908027
0.0381502
-0.000819764
0.0387014
-0.00072273
0.0391768
-0.000620555
0.0395735
-0.000515545
0.0398924
-0.000413386
0.0401346
-0.000312598
0.0403042
-0.000219809
0.0404166
-0.00014386
0.0404732
-7.06864e-05
0.0404971
-3.09294e-05
0.0404925
1.40312e-06
0.0404728
2.0632e-05
0.0404333
3.8916e-05
0.0403841
5.0421e-05
0.0403259
6.24794e-05
0.0402579
7.82263e-05
0.0401757
0.000102307
0.0400728
0.000136583
0.0399401
0.00018338
0.0397716
0.000242069
0.0395533
0.000311099
0.039285
0.00039273
0.038961
0.000477923
0.0385814
0.000563406
0.038149
0.000644381
0.0376694
0.000716771
0.0371491
0.000779156
0.0365961
0.000829581
0.0360182
0.000868511
0.0354248
0.00089385
0.0348244
0.000907735
0.0342232
0.000912642
0.0336254
0.000910987
0.0330334
0.000905472
0.0324482
0.000898411
0.0318692
0.00089192
0.0312948
0.000888092
0.0307228
0.000887967
0.0301512
0.000891692
0.0295773
0.000900335
0.0289988
0.00091414
0.0284145
0.000930703
0.0278233
0.000948111
0.0272246
0.000965488
0.0266193
0.000981514
0.0260088
0.000994939
0.0253938
0.0010058
0.0247777
0.00101143
0.0241664
0.00100845
0.0235689
0.000992751
0.022997
0.000960812
0.0224644
0.000912305
0.021981
0.000853094
0.0215555
0.000779024
0.021195
0.000689055
0.0209081
0.000584386
0.0207008
0.000468805
0.0205778
0.000343711
0.0205408
0.00021276
0.0205754
9.22835e-05
0.0206913
-4.11949e-05
0.0208998
-0.000171538
0.0211882
-0.000305616
0.0215567
-0.00043249
0.0219982
-0.000553558
0.0225082
-0.000666387
0.02308
-0.000769963
0.0237066
-0.000863055
0.0243803
-0.000944285
0.0250931
-0.001013
0.0258367
-0.00106849
0.0266024
-0.00111009
0.0273813
-0.00113725
0.0281645
-0.00114997
0.0289434
-0.00114871
0.0297099
-0.00113422
0.0304564
-0.00110741
0.0311758
-0.00106904
0.0318604
-0.0010197
0.0325048
-0.000961485
0.0331051
-0.000896437
0.0336579
-0.000825866
0.0341605
-0.00075085
0.0346105
-0.00067221
0.0350061
-0.000590835
0.0353468
-0.000508112
0.0356333
-0.000425774
0.035866
-0.000344291
0.0360449
-0.000263798
0.03617
-0.000183552
0.0362446
-0.000106382
0.0362696
-3.3796e-05
0.0362603
2.42345e-05
0.0362121
7.47311e-05
0.0361313
0.000125848
0.0360209
0.000171563
0.0358857
0.000209067
0.0357288
0.000242274
0.0355573
0.000264455
0.0353743
0.000284969
0.0351868
0.000293369
0.0349925
0.000305449
0.0347999
0.000303579
0.0346044
0.000309987
0.0344157
0.000302377
0.0342242
0.000309011
0.0340407
0.000300177
0.0338517
0.000312305
0.0336781
0.000283832
0.0335266
0.000267047
0.033415
0.000174782
0.000108231
8.16459e-05
-8.67582e-05
0.000455155
-0.000658523
0.00106827
-0.00126641
0.00184442
-0.00166801
0.00267963
-0.00185821
0.00351154
-0.00185533
0.00429382
-0.00173734
0.00500048
-0.00154363
0.00562379
-0.00132939
0.00616625
-0.00111871
0.00663829
-0.000942386
0.00705718
-0.000819059
0.00744992
-0.000772367
0.00785779
-0.000826289
0.0083002
-0.000966573
0.00880977
-0.00119322
0.00942673
-0.00150961
0.0101937
-0.00191821
0.011143
-0.00239793
0.0122996
-0.00292609
0.0136757
-0.00347054
0.0152726
-0.00399356
0.0170682
-0.00444862
0.0190244
-0.00478415
0.0210698
-0.00495443
0.0231501
-0.0049042
0.0251755
-0.00461883
0.0270493
-0.00407686
0.0286902
-0.00330996
0.0300416
-0.00232907
0.0310497
-0.00120457
0.0314954
4.65896e-05
0.0313493
0.00129618
0.0306176
0.00232436
0.0294589
0.00303879
0.0280015
0.00336708
0.0263379
0.00337055
0.0245648
0.00297977
0.0227907
0.00233319
0.021121
0.00158441
0.019676
0.00106262
0.018275
0.00122406
0.0162008
0.00244542
0.0122879
0.00483983
0.00614222
0.00803846
-0.00188709
0.011743
-0.0116378
0.0155802
-0.0225561
0.0191434
-0.0338776
0.02179
-0.0447022
0.0232019
-0.0543555
0.02327
-0.0622586
0.0220293
-0.0681652
0.0197979
-0.0720375
0.0170161
-0.0744234
0.0140169
-0.0760558
0.0114125
-0.0770339
0.0088826
-0.0775331
0.00669616
-0.0774844
0.00451282
-0.0768658
0.0023149
-0.0756961
0.000298392
-0.0740572
-0.00160202
-0.0720151
-0.00319236
-0.06954
-0.00462626
-0.0666248
-0.00590734
-0.0632421
-0.00710149
-0.0594214
-0.00820467
-0.0553741
-0.00914818
-0.051197
-0.00987101
-0.0467904
-0.0104381
-0.0422837
-0.0108745
-0.0377434
-0.0111763
-0.0332008
-0.0113643
-0.0286897
-0.0114324
-0.0242339
-0.0114081
-0.0198523
-0.0113001
-0.0155589
-0.0111251
-0.0113617
-0.0108945
-0.00729231
-0.0106121
-0.00336984
-0.0102844
0.000368336
-0.00992013
0.00394429
-0.00952136
0.00734971
-0.00908109
0.0105314
-0.00865733
0.0136584
-0.00830896
0.0167152
-0.00792158
0.019634
-0.00746017
0.0224045
-0.00698064
0.0250121
-0.00647082
0.0274571
-0.00595413
0.0297405
-0.00543364
0.0318644
-0.00492026
0.0338326
-0.00441466
0.0356467
-0.0039203
0.0373089
-0.00343683
0.0388191
-0.00296631
0.0401769
-0.00251374
0.0413792
-0.00207472
0.0424293
-0.00164446
0.043319
-0.00125898
0.0440402
-0.00089644
0.0446093
-0.000526343
0.0450322
-0.000223747
0.045315
2.60411e-05
0.0454443
0.000261975
0.0454424
0.000475712
0.0453382
0.000621997
0.0451105
0.000753221
0.0447677
0.00083757
0.0442954
0.000873531
0.0437074
0.000874271
0.0429997
0.000818269
0.0421627
0.000730569
0.0411674
0.000670545
0.0399446
0.000752616
0.038365
0.00116552
0.0362542
0.00208008
0.0334393
0.00366602
0.029636
0.00593225
0.0246473
0.00867471
0.0187242
0.0112843
0.0123088
0.0132912
0.00601306
0.0143582
0.000312806
0.0144337
-0.00458908
0.0138419
-0.00869753
0.0125848
-0.0119469
0.0108954
-0.0143572
0.00882489
-0.0161508
0.00656735
-0.0170773
0.00414177
-0.0168642
0.00148501
-0.0156277
-0.00110972
-0.0135099
-0.00357542
-0.0107444
-0.0058605
-0.00730726
-0.00793317
-0.00328247
-0.00961633
0.00112442
-0.0110282
0.00579752
-0.0120409
0.0107565
-0.0127712
0.0159
-0.0131625
0.0211176
-0.0132355
0.0263035
-0.0129956
0.0313459
-0.0124852
0.036154
-0.0117424
0.0406969
-0.0108718
0.0449302
-0.00987167
0.0488498
-0.00884474
0.0524411
-0.00773574
0.0557027
-0.00663298
0.0586287
-0.00556064
0.0611886
-0.00447773
0.0633396
-0.00333177
0.0651405
-0.00215495
0.0665757
-0.00109664
0.0674863
-4.5043e-05
0.0678212
0.00105486
0.0676679
0.00206858
0.0670193
0.00297755
0.0658485
0.0038229
0.064164
0.0045702
0.0620311
0.00515538
0.0595131
0.00556968
0.0566925
0.00578255
0.0536875
0.00576884
0.0506356
0.0055272
0.0476763
0.00508214
0.0449343
0.00446244
0.0425135
0.0037222
0.040472
0.00291185
0.0388634
0.00208646
0.0376822
0.00130123
0.0368716
0.000678991
0.0363441
0.000236053
0.0359812
-9.99856e-06
0.0356851
-8.31737e-05
0.0353873
-4.38702e-05
0.0350463
5.96891e-05
0.0346374
0.000208741
0.03412
0.00042743
0.0334374
0.000768648
0.0325164
0.00127194
0.0312862
0.00195317
0.029699
0.00283395
0.0276369
0.00391052
0.024932
0.00517979
0.0214212
0.00665588
0.017108
0.00822147
0.0121633
0.0096008
0.00702991
0.0104578
0.00229994
0.01054
-0.00159124
0.00988033
-0.00450853
0.00867123
-0.00658992
0.00719926
-0.00796601
0.00570316
-0.00887784
0.00440021
-0.00958341
0.00334115
-0.0101867
0.00243513
-0.0104657
0.00158556
-0.0104031
0.000865731
-0.0100488
0.000260209
-0.00945609
-0.000276164
-0.00870874
-0.000781889
-0.00781177
-0.00127468
-0.00676459
-0.00177444
-0.00552717
-0.00229119
-0.00408855
-0.0028251
-0.00244474
-0.00335681
-0.000614696
-0.00386981
0.00134094
-0.00431447
0.00343155
-0.00473521
0.0056163
-0.0050989
0.00792191
-0.00540389
0.0103226
-0.00563687
0.0127794
-0.00578588
0.0152687
-0.00584087
0.0177722
-0.00584881
0.0202382
-0.00574327
0.0226553
-0.00561314
0.0249994
-0.00541638
0.0272607
-0.00518353
0.029426
-0.00491101
0.0314868
-0.00461741
0.0334344
-0.00429927
0.035262
-0.00396699
0.0369632
-0.00362051
0.0385323
-0.00326525
0.0399643
-0.00290299
0.0412541
-0.00253756
0.0423974
-0.0021701
0.043389
-0.00180081
0.0442241
-0.00142961
0.0449003
-0.00105704
0.0454127
-0.000691099
0.0457674
-0.000336975
0.0459172
2.36133e-06
0.0459016
0.000311684
0.0457373
0.000582845
0.0454248
0.000833501
0.044976
0.00104102
0.0443978
0.00121036
0.0437068
0.00133464
0.0429312
0.00140599
0.0421047
0.00142377
0.0412586
0.00139411
0.0404162
0.00133704
0.0395891
0.00127268
0.0387917
0.00121248
0.0380354
0.00115226
0.0373285
0.00108633
0.036672
0.00101168
0.0360717
0.000911189
0.0355416
0.000765806
0.0350946
0.00057451
0.034758
0.000372924
0.0345383
0.000158096
0.0344154
-3.31094e-05
0.0343641
-0.000163589
0.0343417
-0.000194575
0.0343024
-0.000134127
0.0341896
1.19378e-05
0.0339606
0.000248419
0.0335698
0.000540229
0.0330239
0.000897178
0.0323238
0.00129177
0.0314602
0.00171384
0.0304189
0.00216307
0.0291817
0.00262179
0.0277379
0.00308707
0.0260844
0.00355457
0.0242255
0.00401451
0.0221636
0.00445655
0.0199016
0.00486674
0.0174832
0.00522021
0.0150012
0.00546476
0.0125075
0.00558444
0.010058
0.00558366
0.00773848
0.00545745
0.00563515
0.00520422
0.00382828
0.0048345
0.00234985
0.00434366
0.00119008
0.0038427
0.000318856
0.00329876
-0.000277791
0.00273948
-0.000691821
0.00217158
-0.000946404
0.00161202
-0.0010533
0.00102108
-0.000898444
0.000432878
-0.000395485
-0.000186445
0.000316549
-0.000742792
0.00124299
-0.0012832
0.00238951
-0.00180945
0.00363565
-0.00226494
0.00503541
-0.00271469
0.00656982
-0.00309982
0.00821075
-0.00342488
0.00994548
-0.00370727
0.011756
-0.00393768
0.0136245
-0.00412249
0.0155346
-0.0042558
0.0174697
-0.00434179
0.0194145
-0.00438099
0.0213545
-0.00437771
0.0232762
-0.00433418
0.0251668
-0.00425386
0.0270144
-0.00413937
0.0288076
-0.0039937
0.0305359
-0.00381947
0.0321893
-0.00361922
0.0337583
-0.00339553
0.0352337
-0.00315127
0.0366069
-0.00288971
0.0378697