/*--------------------------------*- C++ -*----------------------------------*\
| =========                 |                                                 |
| \\      /  F ield         | OpenFOAM: The Open Source CFD Toolbox           |
|  \\    /   O peration     | Version:  v1812                                 |
|   \\  /    A nd           | Web:      www.OpenFOAM.com                      |
|    \\/     M anipulation  |                                                 |
\*---------------------------------------------------------------------------*/
FoamFile
{
    version     2.0;
    format      ascii;
    class       volScalarField;
    location    "1.3";
    object      T;
}
// * * * * * * * * * * * * * * * * * * * * * * * * * * * * * * * * * * * * * //

dimensions      [0 0 0 1 0 0 0];


internalField   nonuniform List<scalar> 
20400
(
294.212
294.216
294.222
294.229
294.235
294.241
294.245
294.247
294.248
294.249
294.248
294.247
294.245
294.242
294.239
294.236
294.233
294.23
294.227
294.224
294.222
294.22
294.218
294.217
294.215
294.214
294.212
294.211
294.211
294.211
294.212
294.215
294.219
294.226
294.236
294.252
294.272
294.297
294.324
294.349
294.369
294.383
294.391
294.398
294.411
294.443
294.52
294.653
294.842
295.055
295.253
295.409
295.526
295.612
295.677
295.726
295.766
295.798
295.827
295.856
295.887
295.92
295.956
295.993
296.035
296.075
296.115
296.153
296.189
296.223
296.253
296.278
296.299
296.315
296.326
296.331
296.331
296.324
296.31
296.29
296.261
296.227
296.196
296.176
296.155
296.125
296.093
296.063
296.04
296.024
296.019
296.023
296.04
296.07
296.111
296.162
296.22
296.282
296.344
296.401
296.452
296.495
296.532
296.561
296.586
296.606
296.625
296.644
296.661
296.675
296.684
296.686
296.682
296.666
296.636
296.59
296.529
296.454
296.373
296.287
296.207
296.131
296.063
296.005
295.951
295.904
295.86
295.819
295.785
295.757
295.732
295.716
295.707
295.699
295.702
295.707
295.712
295.722
295.738
295.755
295.778
295.803
295.831
295.859
295.888
295.918
295.947
295.976
296.005
296.034
296.062
296.089
296.113
296.137
296.157
296.174
296.187
296.196
296.201
296.203
296.204
296.203
296.201
296.198
296.194
296.189
296.182
296.173
296.161
296.145
296.126
296.102
296.075
296.043
296.011
295.978
295.948
295.924
295.908
295.901
295.901
295.906
295.918
295.938
295.965
295.992
296.015
296.028
296.032
296.028
296.024
296.014
296.005
295.997
295.989
295.981
295.974
295.968
295.963
295.959
295.956
295.954
295.951
295.95
295.949
295.948
295.948
295.947
295.947
295.944
295.942
295.938
295.933
295.926
295.918
295.908
295.896
295.884
295.87
295.856
295.842
295.828
295.816
295.805
295.797
295.793
295.793
295.8
295.815
295.838
295.871
295.914
295.967
296.029
296.1
296.177
296.26
296.345
296.428
296.503
296.567
296.615
296.644
296.652
296.646
296.62
296.572
296.507
296.428
296.339
296.245
296.148
296.054
295.962
295.876
295.795
295.72
295.651
295.586
295.525
295.467
295.412
295.358
295.307
295.259
295.213
295.168
295.125
295.085
295.046
295.009
294.974
294.941
294.91
294.881
294.856
294.832
294.813
294.794
294.781
294.768
294.758
294.749
294.741
294.736
294.733
294.73
294.73
294.729
294.732
294.735
294.741
294.747
294.754
294.76
294.768
294.776
294.786
294.796
294.808
294.82
294.834
294.848
294.863
294.879
294.895
294.912
294.929
294.946
294.962
294.978
294.993
295.007
295.02
295.03
295.038
295.044
295.046
295.047
295.045
295.04
295.031
295.019
295.004
294.986
294.965
294.942
294.917
294.89
294.861
294.831
294.801
294.77
294.739
294.707
294.675
294.643
294.611
294.581
294.552
294.525
294.499
294.475
294.453
294.432
294.413
294.396
294.38
294.365
294.351
294.339
294.329
294.321
294.314
294.309
294.305
294.304
294.303
294.303
294.305
294.307
294.311
294.317
294.323
294.33
294.337
294.345
294.353
294.361
294.369
294.378
294.386
294.395
294.403
294.412
294.42
294.428
294.436
294.444
294.452
294.46
294.469
294.478
294.487
294.497
294.506
294.516
294.526
294.535
294.543
294.549
294.554
294.557
294.558
294.557
294.553
294.545
294.535
294.523
294.509
294.494
294.479
294.462
294.445
294.428
294.41
294.393
294.376
294.359
294.344
294.329
294.316
294.302
294.29
294.278
294.266
294.255
294.243
294.232
294.222
294.211
294.2
294.189
294.179
294.168
294.157
294.146
294.134
294.123
294.111
294.1
294.088
294.076
294.064
294.053
294.041
294.03
294.02
294.01
294.002
293.994
293.987
293.981
293.976
293.972
293.968
293.965
293.963
293.962
293.963
293.964
293.966
293.969
293.973
293.977
293.981
293.986
293.991
293.996
294.001
294.006
294.011
294.015
294.019
294.022
294.025
294.027
294.028
294.028
294.028
294.027
294.026
294.024
294.021
294.018
294.014
294.01
294.004
293.997
293.988
293.979
293.97
293.961
293.953
293.944
293.935
293.924
293.912
293.897
293.879
293.857
293.83
293.798
293.76
293.717
293.672
293.628
293.601
293.604
293.614
294.226
294.231
294.239
294.246
294.253
294.258
294.261
294.262
294.262
294.261
294.259
294.257
294.255
294.252
294.248
294.245
294.242
294.238
294.235
294.231
294.228
294.224
294.221
294.217
294.213
294.208
294.204
294.2
294.196
294.193
294.191
294.192
294.194
294.199
294.206
294.218
294.233
294.253
294.277
294.304
294.33
294.354
294.376
294.403
294.448
294.536
294.688
294.91
295.159
295.383
295.542
295.646
295.719
295.773
295.814
295.849
295.88
295.914
295.948
295.986
296.032
296.081
296.135
296.193
296.253
296.315
296.381
296.449
296.519
296.589
296.66
296.73
296.801
296.868
296.931
296.988
297.038
297.079
297.112
297.133
297.142
297.136
297.122
297.106
297.077
297.028
296.962
296.884
296.796
296.701
296.602
296.503
296.407
296.316
296.234
296.163
296.106
296.063
296.035
296.022
296.023
296.037
296.072
296.122
296.179
296.241
296.306
296.374
296.442
296.507
296.564
296.61
296.639
296.65
296.647
296.626
296.58
296.503
296.402
296.293
296.195
296.11
296.036
295.967
295.909
295.854
295.807
295.762
295.724
295.691
295.664
295.641
295.625
295.606
295.594
295.578
295.57
295.557
295.542
295.527
295.513
295.503
295.5
295.502
295.511
295.526
295.546
295.57
295.598
295.628
295.661
295.699
295.74
295.784
295.828
295.872
295.914
295.953
295.99
296.022
296.051
296.075
296.095
296.111
296.124
296.133
296.139
296.141
296.141
296.138
296.132
296.12
296.102
296.078
296.049
296.015
295.978
295.942
295.912
295.893
295.886
295.887
295.895
295.913
295.943
295.979
296.011
296.035
296.045
296.05
296.046
296.043
296.042
296.046
296.052
296.061
296.073
296.086
296.103
296.119
296.137
296.155
296.173
296.19
296.208
296.224
296.24
296.253
296.263
296.275
296.282
296.284
296.283
296.278
296.268
296.253
296.234
296.212
296.187
296.16
296.13
296.099
296.067
296.034
296.001
295.969
295.939
295.912
295.889
295.872
295.862
295.86
295.864
295.877
295.903
295.941
295.991
296.051
296.119
296.194
296.273
296.35
296.423
296.484
296.528
296.547
296.545
296.529
296.49
296.428
296.347
296.254
296.153
296.048
295.943
295.843
295.749
295.664
295.586
295.515
295.45
295.39
295.333
295.279
295.229
295.18
295.132
295.087
295.044
295.003
294.964
294.928
294.895
294.864
294.837
294.812
294.792
294.772
294.756
294.74
294.728
294.718
294.709
294.703
294.698
294.695
294.694
294.694
294.695
294.698
294.7
294.704
294.707
294.711
294.714
294.716
294.718
294.721
294.723
294.725
294.727
294.729
294.731
294.734
294.738
294.744
294.751
294.76
294.772
294.786
294.802
294.82
294.84
294.861
294.882
294.903
294.923
294.942
294.957
294.969
294.976
294.977
294.976
294.971
294.961
294.947
294.929
294.908
294.884
294.857
294.827
294.794
294.761
294.727
294.694
294.66
294.625
294.591
294.558
294.529
294.501
294.474
294.45
294.428
294.409
294.392
294.377
294.365
294.355
294.345
294.338
294.332
294.327
294.323
294.321
294.32
294.321
294.322
294.323
294.327
294.331
294.335
294.341
294.347
294.354
294.361
294.369
294.376
294.384
294.392
294.399
294.406
294.413
294.42
294.426
294.431
294.436
294.44
294.443
294.445
294.446
294.446
294.446
294.445
294.444
294.443
294.442
294.441
294.441
294.441
294.443
294.446
294.45
294.455
294.46
294.462
294.463
294.463
294.459
294.451
294.441
294.431
294.419
294.404
294.387
294.368
294.349
294.329
294.309
294.29
294.273
294.256
294.241
294.226
294.213
294.2
294.187
294.175
294.163
294.151
294.14
294.128
294.117
294.105
294.094
294.082
294.069
294.057
294.045
294.032
294.019
294.006
293.992
293.979
293.965
293.951
293.938
293.925
293.913
293.901
293.889
293.879
293.869
293.861
293.852
293.845
293.838
293.833
293.829
293.827
293.827
293.827
293.829
293.832
293.836
293.841
293.847
293.854
293.861
293.869
293.877
293.885
293.893
293.9
293.907
293.913
293.919
293.923
293.927
293.93
293.932
293.933
293.933
293.933
293.932
293.93
293.928
293.925
293.92
293.914
293.906
293.897
293.889
293.881
293.874
293.866
293.857
293.847
293.836
293.822
293.806
293.785
293.761
293.732
293.698
293.659
293.616
293.584
293.583
293.591
294.252
294.259
294.269
294.277
294.282
294.284
294.284
294.282
294.279
294.276
294.273
294.269
294.265
294.261
294.257
294.253
294.248
294.244
294.24
294.235
294.231
294.226
294.221
294.216
294.21
294.205
294.199
294.193
294.188
294.183
294.18
294.178
294.179
294.181
294.186
294.193
294.205
294.221
294.242
294.27
294.303
294.342
294.391
294.463
294.586
294.787
295.053
295.322
295.539
295.679
295.756
295.789
295.802
295.807
295.812
295.821
295.832
295.842
295.854
295.866
295.882
295.901
295.934
295.98
296.038
296.107
296.188
296.279
296.378
296.485
296.596
296.709
296.823
296.937
297.05
297.161
297.269
297.372
297.469
297.56
297.643
297.728
297.804
297.868
297.917
297.942
297.944
297.93
297.888
297.82
297.729
297.617
297.483
297.328
297.155
296.967
296.771
296.571
296.374
296.189
296.024
295.887
295.784
295.723
295.701
295.705
295.734
295.802
295.905
296.031
296.17
296.311
296.442
296.545
296.601
296.61
296.594
296.534
296.427
296.295
296.172
296.071
295.986
295.916
295.862
295.82
295.789
295.763
295.742
295.725
295.714
295.711
295.708
295.697
295.678
295.65
295.613
295.568
295.518
295.463
295.405
295.344
295.278
295.212
295.159
295.12
295.095
295.083
295.082
295.088
295.104
295.134
295.176
295.226
295.284
295.348
295.416
295.489
295.563
295.637
295.708
295.776
295.838
295.894
295.942
295.984
296.019
296.048
296.072
296.091
296.103
296.107
296.106
296.098
296.081
296.052
296.014
295.971
295.93
295.901
295.89
295.89
295.897
295.918
295.952
295.993
296.031
296.057
296.07
296.076
296.082
296.094
296.113
296.142
296.18
296.224
296.273
296.324
296.379
296.436
296.495
296.555
296.615
296.674
296.731
296.785
296.837
296.884
296.926
296.962
296.988
297.004
297.01
297.008
296.998
296.979
296.951
296.915
296.872
296.823
296.77
296.712
296.65
296.586
296.52
296.452
296.383
296.315
296.248
296.182
296.12
296.06
296.005
295.958
295.92
295.897
295.888
295.889
295.898
295.923
295.968
296.028
296.101
296.183
296.268
296.348
296.41
296.442
296.443
296.429
296.387
296.318
296.223
296.111
295.99
295.866
295.747
295.636
295.536
295.448
295.372
295.306
295.248
295.197
295.149
295.104
295.06
295.018
294.977
294.937
294.9
294.864
294.83
294.8
294.772
294.748
294.729
294.714
294.702
294.693
294.689
294.688
294.691
294.696
294.703
294.712
294.721
294.731
294.743
294.754
294.766
294.776
294.784
294.789
294.792
294.792
294.79
294.785
294.777
294.767
294.754
294.74
294.725
294.709
294.693
294.678
294.663
294.651
294.64
294.633
294.628
294.627
294.63
294.641
294.66
294.685
294.716
294.751
294.788
294.824
294.858
294.885
294.904
294.914
294.918
294.917
294.911
294.899
294.881
294.857
294.828
294.794
294.757
294.718
294.679
294.64
294.602
294.566
294.533
294.504
294.478
294.455
294.436
294.419
294.405
294.393
294.383
294.375
294.369
294.364
294.361
294.36
294.36
294.361
294.363
294.366
294.37
294.374
294.379
294.384
294.39
294.397
294.404
294.411
294.419
294.428
294.437
294.446
294.457
294.467
294.478
294.49
294.501
294.513
294.524
294.534
294.543
294.551
294.556
294.559
294.56
294.558
294.552
294.542
294.529
294.513
294.493
294.472
294.45
294.429
294.409
294.392
294.379
294.371
294.367
294.366
294.367
294.369
294.371
294.373
294.373
294.373
294.371
294.364
294.352
294.336
294.316
294.294
294.27
294.247
294.225
294.203
294.183
294.164
294.147
294.131
294.115
294.1
294.086
294.072
294.058
294.044
294.03
294.016
294.002
293.988
293.973
293.957
293.941
293.925
293.908
293.89
293.872
293.853
293.833
293.813
293.793
293.773
293.753
293.734
293.715
293.696
293.679
293.662
293.646
293.631
293.617
293.605
293.595
293.587
293.582
293.58
293.579
293.58
293.584
293.589
293.597
293.608
293.62
293.633
293.648
293.664
293.681
293.698
293.714
293.73
293.746
293.76
293.773
293.784
293.794
293.803
293.81
293.815
293.819
293.822
293.824
293.824
293.823
293.82
293.815
293.808
293.801
293.795
293.788
293.781
293.774
293.765
293.755
293.744
293.731
293.715
293.696
293.674
293.648
293.618
293.584
293.558
293.56
293.575
294.286
294.294
294.303
294.308
294.308
294.304
294.298
294.292
294.286
294.281
294.275
294.27
294.266
294.261
294.256
294.252
294.247
294.242
294.238
294.233
294.227
294.222
294.217
294.211
294.205
294.199
294.193
294.187
294.182
294.178
294.176
294.175
294.175
294.177
294.18
294.187
294.197
294.211
294.232
294.262
294.304
294.365
294.462
294.62
294.858
295.151
295.42
295.607
295.702
295.732
295.739
295.733
295.689
295.632
295.556
295.464
295.375
295.296
295.233
295.189
295.173
295.182
295.216
295.267
295.335
295.42
295.52
295.635
295.763
295.9
296.045
296.195
296.35
296.508
296.667
296.828
296.989
297.149
297.309
297.467
297.62
297.76
297.888
298.007
298.117
298.216
298.304
298.377
298.43
298.459
298.463
298.449
298.404
298.324
298.211
298.066
297.885
297.67
297.423
297.15
296.858
296.557
296.262
295.987
295.75
295.573
295.474
295.448
295.462
295.523
295.648
295.831
296.055
296.283
296.467
296.561
296.57
296.536
296.435
296.285
296.139
296.025
295.943
295.89
295.862
295.843
295.845
295.863
295.9
295.944
295.986
296.019
296.038
296.042
296.026
295.991
295.936
295.86
295.764
295.651
295.524
295.392
295.262
295.138
295.015
294.902
294.805
294.725
294.661
294.617
294.597
294.598
294.609
294.635
294.678
294.738
294.811
294.896
294.989
295.091
295.199
295.309
295.417
295.52
295.618
295.706
295.786
295.857
295.919
295.974
296.021
296.059
296.083
296.092
296.09
296.077
296.048
296.004
295.958
295.923
295.909
295.909
295.919
295.943
295.981
296.023
296.06
296.084
296.097
296.11
296.129
296.16
296.206
296.269
296.346
296.436
296.537
296.645
296.758
296.873
296.988
297.103
297.215
297.323
297.427
297.524
297.614
297.696
297.77
297.833
297.885
297.923
297.948
297.96
297.959
297.949
297.925
297.887
297.838
297.778
297.708
297.628
297.541
297.448
297.348
297.245
297.137
297.027
296.915
296.802
296.689
296.576
296.465
296.357
296.253
296.157
296.071
295.998
295.94
295.9
295.881
295.881
295.892
295.928
295.99
296.074
296.169
296.258
296.321
296.344
296.339
296.31
296.246
296.147
296.023
295.883
295.74
295.601
295.474
295.365
295.275
295.203
295.145
295.096
295.053
295.011
294.971
294.932
294.893
294.855
294.82
294.786
294.755
294.729
294.708
294.694
294.687
294.687
294.694
294.702
294.714
294.732
294.757
294.786
294.82
294.858
294.897
294.936
294.973
295.009
295.041
295.07
295.094
295.113
295.126
295.132
295.134
295.13
295.12
295.104
295.082
295.053
295.019
294.979
294.935
294.887
294.837
294.784
294.732
294.682
294.636
294.597
294.564
294.54
294.525
294.52
294.522
294.534
294.563
294.606
294.657
294.71
294.76
294.803
294.838
294.862
294.873
294.873
294.869
294.856
294.832
294.801
294.763
294.72
294.675
294.631
294.59
294.553
294.521
294.494
294.471
294.451
294.435
294.422
294.411
294.403
294.398
294.397
294.397
294.399
294.404
294.411
294.418
294.425
294.432
294.439
294.445
294.451
294.457
294.461
294.466
294.47
294.475
294.48
294.486
294.493
294.501
294.51
294.521
294.534
294.548
294.565
294.584
294.604
294.626
294.65
294.674
294.699
294.723
294.746
294.766
294.78
294.789
294.791
294.788
294.776
294.754
294.723
294.683
294.636
294.584
294.528
294.473
294.422
294.379
294.344
294.32
294.305
294.298
294.297
294.299
294.303
294.308
294.309
294.308
294.301
294.288
294.269
294.244
294.217
294.189
294.161
294.134
294.109
294.085
294.063
294.042
294.023
294.004
293.985
293.967
293.949
293.931
293.912
293.894
293.875
293.855
293.834
293.813
293.79
293.767
293.742
293.717
293.691
293.663
293.635
293.607
293.578
293.549
293.52
293.491
293.462
293.435
293.408
293.382
293.358
293.336
293.316
293.298
293.283
293.271
293.261
293.255
293.252
293.252
293.254
293.26
293.27
293.283
293.3
293.32
293.343
293.369
293.397
293.427
293.457
293.488
293.518
293.546
293.573
293.597
293.619
293.639
293.655
293.669
293.68
293.689
293.695
293.699
293.7
293.699
293.697
293.692
293.687
293.682
293.676
293.669
293.661
293.652
293.642
293.631
293.618
293.604
293.587
293.568
293.547
293.523
293.505
293.511
293.531
294.32
294.327
294.33
294.326
294.318
294.307
294.296
294.285
294.276
294.268
294.262
294.256
294.251
294.247
294.242
294.238
294.233
294.229
294.224
294.22
294.215
294.209
294.203
294.196
294.188
294.181
294.175
294.171
294.169
294.17
294.172
294.174
294.177
294.18
294.185
294.191
294.2
294.215
294.237
294.272
294.331
294.435
294.611
294.876
295.186
295.453
295.613
295.675
295.687
295.671
295.598
295.485
295.337
295.18
295.025
294.889
294.784
294.713
294.676
294.664
294.684
294.726
294.788
294.87
294.972
295.093
295.229
295.372
295.522
295.679
295.842
296.008
296.177
296.345
296.512
296.681
296.85
297.018
297.184
297.349
297.51
297.667
297.819
297.965
298.105
298.238
298.363
298.476
298.576
298.665
298.741
298.798
298.827
298.828
298.811
298.764
298.68
298.557
298.391
298.179
297.918
297.611
297.262
296.883
296.49
296.109
295.774
295.523
295.387
295.358
295.383
295.483
295.682
295.963
296.257
296.464
296.535
296.519
296.431
296.27
296.104
295.986
295.918
295.893
295.892
295.922
295.983
296.063
296.152
296.231
296.295
296.341
296.37
296.381
296.373
296.344
296.289
296.206
296.093
295.951
295.783
295.595
295.394
295.189
294.991
294.805
294.639
294.493
294.37
294.269
294.191
294.139
294.117
294.119
294.133
294.166
294.218
294.289
294.379
294.484
294.602
294.732
294.872
295.015
295.158
295.297
295.428
295.55
295.662
295.764
295.857
295.939
296.009
296.058
296.081
296.082
296.07
296.037
295.991
295.951
295.935
295.936
295.95
295.979
296.018
296.056
296.085
296.105
296.121
296.14
296.171
296.22
296.291
296.388
296.511
296.656
296.817
296.986
297.158
297.329
297.495
297.652
297.799
297.933
298.055
298.164
298.262
298.347
298.423
298.491
298.552
298.606
298.653
298.692
298.723
298.744
298.753
298.75
298.735
298.702
298.654
298.591
298.513
298.42
298.315
298.2
298.074
297.941
297.8
297.654
297.502
297.346
297.187
297.027
296.866
296.707
296.551
296.401
296.261
296.137
296.034
295.952
295.897
295.87
295.871
295.889
295.94
296.021
296.115
296.195
296.236
296.237
296.215
296.154
296.051
295.915
295.759
295.596
295.44
295.301
295.188
295.102
295.037
294.988
294.948
294.911
294.876
294.841
294.806
294.773
294.742
294.714
294.692
294.677
294.67
294.673
294.683
294.699
294.724
294.759
294.803
294.856
294.915
294.98
295.046
295.113
295.176
295.235
295.29
295.341
295.387
295.429
295.465
295.495
295.518
295.535
295.545
295.549
295.547
295.539
295.523
295.5
295.47
295.432
295.386
295.333
295.271
295.202
295.126
295.044
294.957
294.868
294.778
294.69
294.609
294.539
294.485
294.451
294.438
294.439
294.452
294.487
294.542
294.606
294.674
294.735
294.786
294.819
294.833
294.834
294.827
294.808
294.775
294.733
294.684
294.634
294.587
294.547
294.515
294.489
294.468
294.452
294.44
294.431
294.427
294.426
294.428
294.434
294.443
294.455
294.468
294.481
294.494
294.505
294.515
294.522
294.528
294.531
294.532
294.532
294.531
294.529
294.527
294.525
294.524
294.524
294.525
294.53
294.538
294.549
294.562
294.579
294.6
294.624
294.652
294.684
294.719
294.758
294.799
294.843
294.89
294.937
294.983
295.025
295.058
295.078
295.083
295.079
295.06
295.023
294.968
294.898
294.814
294.721
294.624
294.53
294.445
294.374
294.32
294.281
294.258
294.248
294.247
294.248
294.25
294.25
294.247
294.238
294.22
294.194
294.163
294.129
294.095
294.061
294.029
293.999
293.97
293.943
293.918
293.893
293.87
293.847
293.824
293.802
293.778
293.754
293.73
293.704
293.676
293.648
293.618
293.586
293.554
293.52
293.485
293.449
293.412
293.375
293.338
293.302
293.265
293.23
293.196
293.163
293.132
293.103
293.076
293.051
293.029
293.009
292.991
292.976
292.963
292.953
292.945
292.94
292.938
292.939
292.942
292.951
292.965
292.983
293.006
293.034
293.067
293.105
293.145
293.189
293.233
293.278
293.322
293.363
293.402
293.436
293.466
293.492
293.513
293.53
293.542
293.55
293.555
293.556
293.556
293.554
293.55
293.545
293.538
293.53
293.522
293.512
293.501
293.49
293.477
293.464
293.449
293.434
293.418
293.407
293.414
293.434
294.35
294.351
294.344
294.33
294.311
294.291
294.275
294.262
294.252
294.245
294.24
294.235
294.231
294.227
294.224
294.22
294.216
294.213
294.208
294.202
294.195
294.184
294.172
294.159
294.146
294.139
294.135
294.137
294.142
294.149
294.158
294.168
294.177
294.186
294.193
294.202
294.212
294.227
294.252
294.299
294.393
294.566
294.841
295.166
295.439
295.59
295.639
295.648
295.588
295.465
295.287
295.081
294.881
294.714
294.592
294.51
294.469
294.453
294.453
294.489
294.535
294.6
294.684
294.792
294.923
295.078
295.254
295.45
295.657
295.868
296.078
296.282
296.48
296.669
296.85
297.022
297.184
297.338
297.486
297.628
297.766
297.9
298.031
298.156
298.277
298.391
298.499
298.602
298.7
298.792
298.879
298.958
299.025
299.073
299.093
299.091
299.075
299.034
298.96
298.846
298.685
298.469
298.193
297.852
297.451
297
296.527
296.074
295.704
295.477
295.404
295.421
295.516
295.736
296.051
296.342
296.486
296.489
296.42
296.257
296.078
295.96
295.912
295.911
295.949
296.035
296.149
296.264
296.368
296.448
296.505
296.544
296.565
296.574
296.57
296.552
296.511
296.442
296.336
296.191
296.005
295.782
295.532
295.267
295.001
294.747
294.515
294.309
294.135
293.992
293.878
293.791
293.73
293.7
293.699
293.708
293.733
293.776
293.839
293.923
294.026
294.148
294.287
294.443
294.612
294.787
294.962
295.134
295.298
295.454
295.6
295.735
295.859
295.964
296.038
296.073
296.075
296.062
296.025
295.984
295.963
295.964
295.979
296.012
296.05
296.083
296.106
296.124
296.141
296.163
296.199
296.259
296.35
296.479
296.647
296.847
297.067
297.292
297.511
297.716
297.901
298.062
298.199
298.31
298.402
298.476
298.538
298.597
298.653
298.708
298.763
298.819
298.876
298.934
298.991
299.047
299.102
299.154
299.198
299.229
299.243
299.243
299.226
299.184
299.121
299.04
298.941
298.825
298.693
298.548
298.39
298.222
298.043
297.855
297.66
297.46
297.254
297.047
296.842
296.641
296.45
296.274
296.122
296.001
295.917
295.871
295.862
295.875
295.92
295.995
296.074
296.123
296.131
296.113
296.055
295.951
295.809
295.64
295.464
295.297
295.152
295.038
294.956
294.897
294.855
294.82
294.788
294.757
294.727
294.699
294.675
294.658
294.65
294.65
294.66
294.679
294.707
294.747
294.8
294.865
294.937
295.016
295.096
295.176
295.252
295.324
295.39
295.45
295.505
295.554
295.599
295.64
295.677
295.709
295.737
295.761
295.779
295.792
295.798
295.798
295.794
295.785
295.77
295.749
295.721
295.686
295.642
295.59
295.528
295.457
295.375
295.283
295.182
295.072
294.956
294.837
294.718
294.606
294.506
294.429
294.384
294.372
294.378
294.404
294.457
294.53
294.611
294.687
294.747
294.783
294.796
294.794
294.781
294.751
294.706
294.653
294.6
294.555
294.519
294.492
294.473
294.46
294.452
294.45
294.451
294.457
294.468
294.484
294.502
294.522
294.542
294.56
294.576
294.589
294.598
294.602
294.603
294.602
294.597
294.59
294.58
294.57
294.559
294.548
294.538
294.531
294.525
294.522
294.522
294.524
294.529
294.539
294.553
294.573
294.599
294.631
294.671
294.718
294.771
294.831
294.895
294.963
295.033
295.105
295.178
295.25
295.314
295.361
295.383
295.384
295.372
295.336
295.274
295.186
295.076
294.948
294.809
294.67
294.541
294.431
294.344
294.281
294.238
294.213
294.202
294.198
294.196
294.193
294.185
294.169
294.144
294.111
294.073
294.033
293.992
293.953
293.915
293.879
293.844
293.812
293.782
293.753
293.724
293.697
293.669
293.64
293.611
293.581
293.549
293.515
293.481
293.444
293.406
293.367
293.327
293.286
293.245
293.205
293.165
293.126
293.088
293.052
293.019
292.988
292.959
292.933
292.91
292.889
292.869
292.852
292.835
292.82
292.805
292.79
292.776
292.763
292.75
292.739
292.729
292.721
292.717
292.716
292.718
292.726
292.742
292.765
292.795
292.832
292.875
292.925
292.979
293.036
293.093
293.148
293.2
293.247
293.288
293.322
293.35
293.371
293.386
293.396
293.401
293.402
293.402
293.399
293.393
293.385
293.375
293.364
293.352
293.339
293.325
293.312
293.298
293.284
293.269
293.26
293.266
293.283
294.37
294.363
294.345
294.318
294.29
294.267
294.251
294.241
294.233
294.228
294.223
294.219
294.215
294.212
294.208
294.205
294.201
294.195
294.186
294.172
294.153
294.13
294.108
294.09
294.08
294.08
294.086
294.098
294.113
294.13
294.148
294.165
294.18
294.193
294.204
294.215
294.227
294.244
294.278
294.351
294.5
294.762
295.097
295.388
295.551
295.604
295.612
295.535
295.376
295.158
294.925
294.723
294.579
294.487
294.438
294.414
294.407
294.414
294.439
294.48
294.544
294.643
294.783
294.968
295.197
295.463
295.753
296.053
296.35
296.638
296.907
297.152
297.373
297.571
297.748
297.906
298.048
298.175
298.291
298.396
298.493
298.583
298.667
298.745
298.818
298.884
298.944
298.999
299.048
299.094
299.137
299.179
299.221
299.26
299.289
299.299
299.297
299.285
299.257
299.204
299.12
298.994
298.816
298.572
298.253
297.853
297.377
296.849
296.321
295.875
295.599
295.515
295.54
295.662
295.916
296.225
296.424
296.456
296.403
296.25
296.064
295.945
295.91
295.927
295.999
296.12
296.257
296.38
296.477
296.546
296.589
296.615
296.631
296.639
296.638
296.63
296.606
296.558
296.473
296.341
296.154
295.912
295.625
295.309
294.988
294.673
294.383
294.129
293.919
293.753
293.627
293.535
293.469
293.427
293.409
293.408
293.414
293.43
293.462
293.509
293.575
293.663
293.773
293.906
294.062
294.241
294.436
294.64
294.847
295.053
295.252
295.443
295.625
295.792
295.932
296.028
296.069
296.071
296.054
296.019
295.991
295.989
296.001
296.034
296.073
296.103
296.123
296.138
296.152
296.172
296.207
296.27
296.375
296.531
296.739
296.988
297.257
297.523
297.766
297.972
298.138
298.263
298.353
298.421
298.471
298.504
298.524
298.534
298.545
298.561
298.59
298.633
298.696
298.777
298.871
298.973
299.076
299.173
299.262
299.342
299.411
299.469
299.516
299.549
299.559
299.551
299.519
299.458
299.375
299.271
299.147
299.005
298.845
298.668
298.476
298.269
298.049
297.817
297.575
297.328
297.077
296.829
296.59
296.369
296.175
296.022
295.919
295.864
295.852
295.864
295.905
295.966
296.013
296.024
296.009
295.956
295.856
295.712
295.536
295.35
295.175
295.028
294.914
294.834
294.78
294.742
294.711
294.685
294.661
294.641
294.628
294.624
294.627
294.64
294.664
294.7
294.749
294.812
294.885
294.965
295.049
295.132
295.213
295.288
295.355
295.416
295.47
295.52
295.566
295.609
295.649
295.686
295.721
295.753
295.782
295.807
295.829
295.847
295.859
295.864
295.865
295.862
295.856
295.846
295.831
295.812
295.787
295.758
295.723
295.68
295.627
295.565
295.492
295.407
295.308
295.196
295.073
294.94
294.802
294.663
294.533
294.426
294.355
294.327
294.33
294.352
294.405
294.484
294.574
294.658
294.721
294.753
294.759
294.751
294.726
294.682
294.627
294.574
294.53
294.5
294.482
294.473
294.472
294.475
294.483
294.498
294.519
294.543
294.568
294.594
294.617
294.637
294.653
294.663
294.667
294.668
294.665
294.657
294.645
294.631
294.614
294.596
294.578
294.56
294.543
294.527
294.512
294.499
294.489
294.483
294.482
294.484
294.489
294.498
294.514
294.538
294.569
294.61
294.662
294.723
294.796
294.878
294.969
295.068
295.172
295.276
295.379
295.478
295.567
295.633
295.667
295.671
295.659
295.622
295.551
295.448
295.314
295.154
294.978
294.798
294.629
294.482
294.363
294.278
294.22
294.183
294.161
294.15
294.141
294.132
294.117
294.094
294.062
294.024
293.981
293.936
293.891
293.846
293.803
293.763
293.724
293.687
293.651
293.617
293.584
293.551
293.519
293.486
293.452
293.416
293.379
293.34
293.3
293.258
293.217
293.175
293.133
293.093
293.055
293.019
292.986
292.956
292.929
292.906
292.886
292.868
292.853
292.839
292.826
292.813
292.801
292.788
292.775
292.76
292.745
292.728
292.71
292.691
292.672
292.652
292.633
292.614
292.595
292.577
292.565
292.558
292.558
292.564
292.58
292.608
292.646
292.694
292.749
292.811
292.876
292.941
293.004
293.062
293.113
293.156
293.19
293.216
293.234
293.245
293.25
293.25
293.249
293.243
293.234
293.222
293.207
293.192
293.175
293.159
293.142
293.124
293.106
293.092
293.095
293.106
294.38
294.365
294.335
294.299
294.27
294.25
294.239
294.232
294.227
294.222
294.217
294.212
294.208
294.203
294.198
294.192
294.182
294.166
294.141
294.109
294.075
294.045
294.025
294.015
294.017
294.03
294.05
294.075
294.101
294.126
294.149
294.171
294.19
294.206
294.219
294.231
294.246
294.271
294.323
294.437
294.663
294.99
295.307
295.505
295.574
295.585
295.517
295.344
295.109
294.871
294.682
294.565
294.504
294.473
294.455
294.451
294.458
294.476
294.505
294.561
294.657
294.809
295.03
295.32
295.668
296.054
296.455
296.85
297.218
297.55
297.841
298.092
298.306
298.489
298.644
298.777
298.89
298.987
299.071
299.143
299.206
299.261
299.309
299.35
299.386
299.415
299.439
299.458
299.472
299.481
299.488
299.493
299.497
299.501
299.501
299.498
299.491
299.477
299.455
299.421
299.37
299.295
299.184
299.024
298.8
298.493
298.091
297.593
297.025
296.452
295.98
295.713
295.653
295.699
295.863
296.132
296.357
296.422
296.385
296.251
296.067
295.939
295.906
295.925
295.996
296.119
296.257
296.379
296.474
296.541
296.583
296.607
296.625
296.637
296.643
296.641
296.627
296.592
296.528
296.414
296.233
295.98
295.665
295.309
294.929
294.555
294.22
293.937
293.717
293.557
293.449
293.377
293.331
293.302
293.286
293.279
293.278
293.279
293.285
293.299
293.325
293.367
293.428
293.51
293.617
293.755
293.927
294.128
294.351
294.587
294.829
295.071
295.309
295.537
295.747
295.918
296.027
296.069
296.068
296.05
296.021
296.01
296.017
296.045
296.083
296.113
296.133
296.145
296.154
296.17
296.201
296.262
296.371
296.544
296.783