/*--------------------------------*- C++ -*----------------------------------*\
| =========                 |                                                 |
| \\      /  F ield         | OpenFOAM: The Open Source CFD Toolbox           |
|  \\    /   O peration     | Version:  v1812                                 |
|   \\  /    A nd           | Web:      www.OpenFOAM.com                      |
|    \\/     M anipulation  |                                                 |
\*---------------------------------------------------------------------------*/
FoamFile
{
    version     2.0;
    format      ascii;
    class       volVectorField;
    location    "1.3";
    object      U;
}
// * * * * * * * * * * * * * * * * * * * * * * * * * * * * * * * * * * * * * //

dimensions      [0 1 -1 0 0 0 0];


internalField   nonuniform List<vector> 
20400
(
(-0.0100847 0.00642067 0)
(-0.0130691 -0.00438543 0)
(0.023591 -0.0179385 0)
(0.0837153 -0.0219042 0)
(0.177433 -0.0227692 0)
(0.271659 -0.02055 0)
(0.366306 -0.018139 0)
(0.443494 -0.0158857 0)
(0.506946 -0.0135509 0)
(0.551743 -0.0115935 0)
(0.584083 -0.010335 0)
(0.606359 -0.0101997 0)
(0.626584 -0.0118156 0)
(0.650539 -0.0195298 0)
(0.68223 -0.0338345 0)
(0.729464 -0.0468876 0)
(0.801915 -0.0599513 0)
(0.90545 -0.0706825 0)
(1.04575 -0.0789687 0)
(1.22655 -0.0839905 0)
(1.45108 -0.0853139 0)
(1.71283 -0.0837316 0)
(2.01699 -0.0779462 0)
(2.33514 -0.0698193 0)
(2.67318 -0.0625807 0)
(2.99713 -0.0455745 0)
(3.29261 -0.0209696 0)
(3.54749 0.0178679 0)
(3.71343 0.0468263 0)
(3.82812 0.082371 0)
(3.83631 0.0547061 0)
(3.73758 0.0705169 0)
(3.5928 0.0473181 0)
(3.37922 0.0271616 0)
(3.15562 0.00216934 0)
(2.9277 -0.02824 0)
(2.74699 -0.0367998 0)
(2.6152 -0.0596819 0)
(2.58155 -0.0341453 0)
(2.6621 -0.0326654 0)
(2.8147 -0.0333527 0)
(3.08543 -0.0340886 0)
(3.33196 -0.169087 0)
(3.55879 -0.388429 0)
(3.50365 -0.576742 0)
(3.1406 -0.414869 0)
(3.01589 0.0305173 0)
(2.6913 0.279029 0)
(2.01056 0.496355 0)
(1.11051 0.587484 0)
(0.0144474 0.547376 0)
(-1.29368 0.448654 0)
(-2.87538 0.398459 0)
(-4.5806 0.420045 0)
(-6.36224 0.445407 0)
(-8.01968 0.345599 0)
(-9.59859 0.171467 0)
(-10.9512 -0.0277773 0)
(-12.1161 -0.159204 0)
(-13.0658 -0.259932 0)
(-13.7821 -0.304627 0)
(-14.2761 -0.332504 0)
(-14.627 -0.290463 0)
(-14.7792 -0.10498 0)
(-14.6818 0.147107 0)
(-14.4192 0.400097 0)
(-14.003 0.600243 0)
(-13.4918 0.905945 0)
(-12.8104 1.13405 0)
(-12.0656 1.27385 0)
(-11.2455 1.36562 0)
(-10.3755 1.40445 0)
(-9.47074 1.39397 0)
(-8.54449 1.34286 0)
(-7.6098 1.25666 0)
(-6.6742 1.14079 0)
(-5.74999 0.997196 0)
(-4.83556 0.829658 0)
(-3.94952 0.632306 0)
(-3.07287 0.413323 0)
(-2.25808 0.165209 0)
(-1.48693 -0.0788561 0)
(-0.891384 -0.313958 0)
(-0.34582 -0.336103 0)
(0.262974 -0.275443 0)
(0.893029 -0.204425 0)
(1.4716 -0.146209 0)
(2.01245 -0.108633 0)
(2.48816 -0.0823702 0)
(2.91734 -0.0641811 0)
(3.2862 -0.0504665 0)
(3.60568 -0.0394248 0)
(3.87205 -0.0299269 0)
(4.09069 -0.0216154 0)
(4.26386 -0.0140415 0)
(4.3936 -0.00769484 0)
(4.48637 -0.00201255 0)
(4.54197 0.00273019 0)
(4.57027 0.00773966 0)
(4.56871 0.00685768 0)
(4.54696 0.00843441 0)
(4.51478 0.00914413 0)
(4.46366 0.0130689 0)
(4.39878 0.014231 0)
(4.33182 0.0128291 0)
(4.25991 0.0110854 0)
(4.19163 0.00733375 0)
(4.12217 0.00259818 0)
(4.07231 -0.0031107 0)
(4.02951 -0.0133936 0)
(4.02278 -0.0170436 0)
(4.05392 -0.0322331 0)
(4.12209 -0.0514219 0)
(4.24937 -0.0735856 0)
(4.42377 -0.0942904 0)
(4.63763 -0.112819 0)
(4.85521 -0.133454 0)
(5.04186 -0.165698 0)
(5.16208 -0.232578 0)
(5.10944 -0.313823 0)
(4.74999 -0.352354 0)
(4.15069 -0.188308 0)
(3.28432 0.14184 0)
(2.41098 0.52058 0)
(1.52027 0.563074 0)
(0.473773 0.49639 0)
(-0.583558 0.309176 0)
(-1.77407 0.222218 0)
(-2.77546 0.20798 0)
(-3.65451 0.232081 0)
(-4.21206 0.275466 0)
(-4.5474 0.309528 0)
(-4.60831 0.348035 0)
(-4.26414 0.226308 0)
(-3.83541 0.050704 0)
(-3.21648 -0.278469 0)
(-2.59011 -0.459309 0)
(-1.79781 -0.520093 0)
(-0.916775 -0.514597 0)
(0.0326911 -0.429978 0)
(1.06984 -0.330375 0)
(2.09708 -0.262927 0)
(3.08662 -0.206508 0)
(3.96417 -0.161907 0)
(4.77906 -0.124456 0)
(5.44518 -0.0930992 0)
(6.03054 -0.0644087 0)
(6.47993 -0.0384508 0)
(6.82383 -0.0179368 0)
(7.05821 -0.00211586 0)
(7.19709 0.0105954 0)
(7.26362 0.019635 0)
(7.25197 0.0241453 0)
(7.15735 0.0343836 0)
(7.00245 0.043129 0)
(6.80118 0.042801 0)
(6.56984 0.0376819 0)
(6.31579 0.0266366 0)
(6.04672 0.0195477 0)
(5.77322 0.0160424 0)
(5.50293 0.0147088 0)
(5.24091 0.014304 0)
(4.99078 0.0147076 0)
(4.76179 0.0158548 0)
(4.55537 0.0165503 0)
(4.38402 0.0169659 0)
(4.24173 0.0137408 0)
(4.14485 0.010907 0)
(4.08156 0.00235184 0)
(4.05987 -0.00046344 0)
(4.07837 -0.00774704 0)
(4.12579 -0.0153097 0)
(4.19992 -0.0207497 0)
(4.28344 -0.0202902 0)
(4.37512 -0.0190133 0)
(4.46439 -0.0166864 0)
(4.5513 -0.0141514 0)
(4.62985 -0.0103824 0)
(4.69966 -0.00466258 0)
(4.74767 -7.65113e-05 0)
(4.78061 0.0080521 0)
(4.78573 0.00928596 0)
(4.76011 0.00280478 0)
(4.71395 -0.0327566 0)
(4.62746 -0.0978373 0)
(4.49137 -0.19678 0)
(4.22744 -0.299348 0)
(3.82996 -0.280503 0)
(3.293 -0.140687 0)
(2.67433 0.156202 0)
(2.11015 0.367324 0)
(1.52723 0.42614 0)
(0.890984 0.416695 0)
(0.297523 0.36515 0)
(-0.231743 0.255777 0)
(-0.724694 0.164975 0)
(-1.12601 0.147853 0)
(-1.45731 0.153232 0)
(-1.71085 0.195763 0)
(-1.90984 0.249015 0)
(-2.04218 0.305544 0)
(-2.13595 0.355971 0)
(-2.18101 0.407489 0)
(-2.15094 0.439728 0)
(-2.08364 0.436697 0)
(-1.94738 0.404116 0)
(-1.77473 0.319413 0)
(-1.50734 0.208428 0)
(-1.26889 -0.00267968 0)
(-1.06226 -0.132411 0)
(-0.789282 -0.194798 0)
(-0.457778 -0.200876 0)
(-0.110495 -0.204318 0)
(0.274208 -0.157334 0)
(0.694356 -0.130712 0)
(1.11677 -0.109812 0)
(1.53232 -0.0932201 0)
(1.93482 -0.0801364 0)
(2.32206 -0.0692083 0)
(2.69214 -0.0608246 0)
(3.03777 -0.0528131 0)
(3.35969 -0.0463175 0)
(3.65414 -0.0400984 0)
(3.92152 -0.0346243 0)
(4.16046 -0.0294244 0)
(4.37135 -0.0247142 0)
(4.55422 -0.0203006 0)
(4.71022 -0.0163439 0)
(4.83969 -0.0126292 0)
(4.94538 -0.00932064 0)
(5.02568 -0.00621501 0)
(5.08668 -0.00375815 0)
(5.12264 -0.0018508 0)
(5.14471 -0.00136653 0)
(5.14793 0.000993565 0)
(5.13689 0.000740725 0)
(5.12096 -0.000875537 0)
(5.09223 -0.00103717 0)
(5.06055 -0.00130793 0)
(5.02606 -0.00092227 0)
(4.99278 -4.67672e-05 0)
(4.96315 0.00115905 0)
(4.93957 0.00157855 0)
(4.92229 0.000622703 0)
(4.91204 -0.000777735 0)
(4.90616 -0.0022832 0)
(4.90435 -0.00200976 0)
(4.90587 -0.00185973 0)
(4.90838 -0.000992005 0)
(4.91395 -0.000733478 0)
(4.92086 -0.000562884 0)
(4.93427 -0.0014498 0)
(4.95495 -0.00187218 0)
(4.98756 -0.00533599 0)
(5.03067 -0.00585477 0)
(5.08154 -0.00506993 0)
(5.13994 -0.00352868 0)
(5.19807 2.16504e-05 0)
(5.25384 0.0041974 0)
(5.29765 0.0130618 0)
(5.3315 0.0262378 0)
(5.34843 0.0554138 0)
(5.3492 0.0844498 0)
(5.33868 0.117764 0)
(5.31209 0.147631 0)
(5.27173 0.166833 0)
(5.21516 0.166535 0)
(5.14029 0.141261 0)
(5.04192 0.0885269 0)
(4.91443 0.01101 0)
(4.75142 -0.0837252 0)
(4.54723 -0.181416 0)
(4.30166 -0.264151 0)
(4.01452 -0.322748 0)
(3.69636 -0.336995 0)
(3.34388 -0.30812 0)
(2.97698 -0.220208 0)
(2.60827 -0.101505 0)
(2.22438 0.0511016 0)
(1.92982 0.200764 0)
(1.6723 0.244023 0)
(1.36695 0.252282 0)
(1.08789 0.232515 0)
(0.824069 0.196497 0)
(0.603163 0.154899 0)
(0.413536 0.115159 0)
(0.266304 0.0911913 0)
(0.173036 0.0835726 0)
(0.107583 0.0858145 0)
(0.103485 0.0813605 0)
(0.168208 0.0626492 0)
(0.224368 0.00944588 0)
(0.327746 0.00283457 0)
(0.486998 -0.00952128 0)
(0.66964 -0.00789996 0)
(0.889396 -0.0112685 0)
(1.12888 -0.012609 0)
(1.39357 -0.0148021 0)
(1.67257 -0.01633 0)
(1.9653 -0.0177439 0)
(2.26446 -0.0188641 0)
(2.56732 -0.0198227 0)
(2.86887 -0.0205324 0)
(3.16603 -0.0209913 0)
(3.45527 -0.0211307 0)
(3.73389 -0.0209107 0)
(3.99937 -0.0202891 0)
(4.24964 -0.0192661 0)
(4.483 -0.0178764 0)
(4.69815 -0.0161893 0)
(4.89431 -0.0142916 0)
(5.07121 -0.0122748 0)
(5.22903 -0.0102295 0)
(5.36861 -0.00821264 0)
(5.49071 -0.00628462 0)
(5.59703 -0.00447877 0)
(5.68851 -0.00275321 0)
(5.76728 -0.00114383 0)
(5.83473 0.000459153 0)
(5.89222 0.00198607 0)
(5.94297 0.00303205 0)
(5.98619 0.00191939 0)
(6.02455 0.00164178 0)
(6.06221 0.0014209 0)
(6.101 0.00105841 0)
(6.14366 -0.000115944 0)
(6.19168 -0.0016838 0)
(6.24758 -0.00320833 0)
(6.31183 -0.00380532 0)
(6.38482 -0.00139165 0)
(6.46647 0.00270567 0)
(6.55149 0.00705548 0)
(6.63411 0.0135819 0)
(6.71065 0.0206654 0)
(6.77207 0.0281591 0)
(6.81546 0.0378384 0)
(6.83703 0.0615616 0)
(6.83471 0.0797972 0)
(6.81328 0.10217 0)
(6.76912 0.126274 0)
(6.70304 0.143747 0)
(6.61295 0.14677 0)
(6.4956 0.130492 0)
(6.34705 0.0929689 0)
(6.16339 0.0362338 0)
(5.94249 -0.0340206 0)
(5.68454 -0.106519 0)
(5.393 -0.169603 0)
(5.07435 -0.211966 0)
(4.73932 -0.228919 0)
(4.39559 -0.220385 0)
(4.05183 -0.188344 0)
(3.725 -0.135076 0)
(3.4292 -0.0765757 0)
(3.17568 -0.0229842 0)
(2.96189 0.0104732 0)
(2.79168 0.0219639 0)
(2.6493 0.0249976 0)
(2.56095 0.0234366 0)
(2.50439 0.0209698 0)
(2.4964 0.0202912 0)
(2.53275 0.017064 0)
(2.59476 0.0147414 0)
(2.6952 0.0118532 0)
(2.81794 0.00904701 0)
(2.96359 0.00611046 0)
(3.12476 0.00321277 0)
(3.29764 0.000491934 0)
(3.47794 -0.00196823 0)
(3.66189 -0.00407151 0)
(3.84662 -0.00578988 0)
(4.02974 -0.00711199 0)
(4.20971 -0.00806946 0)
(4.38553 -0.00870234 0)
(4.55668 -0.00906155 0)
(4.72292 -0.00920603 0)
(4.88425 -0.0092006 0)
(5.04082 -0.00910607 0)
(5.19292 -0.00896627 0)
(5.34086 -0.00880109 0)
(5.48493 -0.00860597 0)
(5.62524 -0.00836174 0)
(5.76168 -0.00805782 0)
(5.89393 -0.00768689 0)
(6.02143 -0.00725081 0)
(6.14348 -0.00673194 0)
(6.25927 -0.00612383 0)
(6.36786 -0.00541146 0)
(6.4685 -0.00461666 0)
(6.5603 -0.00373133 0)
(6.64322 -0.00278978 0)
(6.71673 -0.0017779 0)
(6.78181 -0.000915259 0)
(6.83841 -0.000310675 0)
(6.8873 -0.000261298 0)
(6.93008 -0.000894786 0)
(6.96612 -0.00106604 0)
(6.99815 -0.00136069 0)
(7.02845 -0.000914378 0)
(7.05718 -0.000152274 0)
(7.08535 -0.000157923 0)
(7.11325 -6.76289e-05 0)
(7.14012 -0.000263744 0)
(7.16547 -0.000741388 0)
(7.18778 -0.00142617 0)
(7.20673 -0.00218348 0)
(7.21882 -0.00274946 0)
(7.22659 -0.00306384 0)
(7.22552 -0.00401016 0)
(7.21402 -0.00300052 0)
(7.19475 -0.00168996 0)
(7.16388 0.00066762 0)
(7.12339 0.00412046 0)
(7.07366 0.00886097 0)
(7.01579 0.0146816 0)
(6.95108 0.0212654 0)
(6.88072 0.0277688 0)
(6.8061 0.0335689 0)
(6.72837 0.0384284 0)
(6.6485 0.0416216 0)
(6.56738 0.0428053 0)
(6.48561 0.0417224 0)
(6.40355 0.0381559 0)
(6.32133 0.0320525 0)
(6.2388 0.0233131 0)
(6.15548 0.0123846 0)
(6.07087 -0.000133423 0)
(5.98436 -0.0138835 0)
(5.89498 -0.0276619 0)
(5.80197 -0.0401768 0)
(5.70517 -0.0501855 0)
(5.60474 -0.0570664 0)
(5.50081 -0.0597778 0)
(5.39369 -0.0583955 0)
(5.28389 -0.0533973 0)
(5.17206 -0.0463916 0)
(5.05888 -0.0379477 0)
(4.94536 -0.0297035 0)
(4.83295 -0.0222199 0)
(4.72277 -0.0167089 0)
(4.6158 -0.0146249 0)
(4.51218 -0.0124138 0)
(4.41575 -0.00946836 0)
(4.32796 -0.0061272 0)
(4.25091 -0.00281604 0)
(4.18741 0.000427171 0)
(4.13524 0.00303766 0)
(4.10255 0.00390507 0)
(4.08066 0.00408103 0)
(4.07655 0.00443108 0)
(4.0898 0.00304545 0)
(4.11552 0.001623 0)
(4.15895 -0.000108267 0)
(4.21617 -0.00183549 0)
(4.28791 -0.0035936 0)
(4.37252 -0.00531308 0)
(4.46884 -0.00697427 0)
(4.5755 -0.008547 0)
(4.69087 -0.00996423 0)
(4.8133 -0.0111819 0)
(4.94099 -0.0121686 0)
(5.07213 -0.0129091 0)
(5.20491 -0.0133943 0)
(5.33761 -0.0136066 0)
(5.46857 -0.013512 0)
(5.59627 -0.0130646 0)
(5.71944 -0.0122532 0)
(5.83696 -0.0112296 0)
(5.94776 -0.0100912 0)
(6.05099 -0.00891155 0)
(6.14603 -0.00772185 0)
(6.23236 -0.00655882 0)
(6.30962 -0.0054904 0)
(6.37752 -0.00458075 0)
(6.43584 -0.00394353 0)
(6.48463 -0.00314425 0)
(6.52404 -0.00237953 0)
(6.55457 -0.00171888 0)
(6.57584 -0.00121041 0)
(6.58861 -0.000995354 0)
(6.59417 0.00130298 0)
(6.59275 0.00145825 0)
(6.58562 0.00237489 0)
(6.57313 0.00295318 0)
(6.55551 0.0034845 0)
(6.53326 0.00397271 0)
(6.50811 0.00395526 0)
(6.47936 0.00362073 0)
(6.44895 0.00305509 0)
(6.41587 0.00343435 0)
(6.38321 0.00321486 0)
(6.34778 0.00370828 0)
(6.31513 0.00352539 0)
(6.2767 0.003875 0)
(6.24647 0.00375137 0)
(6.20161 0.00385688 0)
(6.17904 0.00343864 0)
(6.12723 0.00596988 0)
(6.12277 0.00041364 0)
(6.05767 0.00159023 0)
(-0.00472516 0.0078729 0)
(0.027781 -0.0465559 0)
(0.142857 -0.121546 0)
(0.310565 -0.161517 0)
(0.51967 -0.178655 0)
(0.733868 -0.16638 0)
(0.947465 -0.143514 0)
(1.14054 -0.114326 0)
(1.31348 -0.0860196 0)
(1.45933 -0.0610901 0)
(1.58254 -0.0421775 0)
(1.6859 -0.0322732 0)
(1.77796 -0.0319786 0)
(1.86785 -0.0365538 0)
(1.97367 -0.0418851 0)
(2.10734 -0.0658311 0)
(2.27349 -0.102841 0)
(2.48431 -0.150111 0)
(2.74655 -0.205469 0)
(3.06743 -0.26569 0)
(3.44941 -0.326402 0)
(3.8894 -0.382681 0)
(4.38775 -0.428398 0)
(4.92215 -0.455699 0)
(5.4953 -0.458918 0)
(6.07458 -0.438032 0)
(6.62863 -0.399123 0)
(7.13447 -0.325345 0)
(7.56325 -0.24694 0)
(7.8731 -0.111891 0)
(8.0677 0.00185684 0)
(8.08147 0.143958 0)
(7.9404 0.253849 0)
(7.68565 0.3345 0)
(7.34342 0.372753 0)
(6.94128 0.358357 0)
(6.53016 0.300046 0)
(6.17118 0.149483 0)
(5.88585 0.00100763 0)
(5.74236 -0.171882 0)
(5.65014 -0.298081 0)
(5.48224 -0.36961 0)
(5.12445 -0.302365 0)
(4.74985 -0.00265284 0)
(4.34301 0.296496 0)
(3.68165 0.759457 0)
(2.37566 1.23856 0)
(0.380692 1.69779 0)
(-1.95847 2.1337 0)
(-4.76195 2.54023 0)
(-7.87483 2.85392 0)
(-11.0545 3.03831 0)
(-14.0225 3.05594 0)
(-16.678 2.8876 0)
(-18.9601 2.51876 0)
(-20.7237 2.22853 0)
(-22.0794 1.95173 0)
(-22.9598 1.67712 0)
(-23.5798 1.40629 0)
(-23.8708 1.10455 0)
(-23.8823 0.807824 0)
(-23.5543 0.606692 0)
(-23.0741 0.384363 0)
(-22.3913 0.15258 0)
(-21.6383 -0.138934 0)
(-20.8037 -0.381721 0)
(-19.887 -0.573068 0)
(-18.8892 -0.804393 0)
(-17.8037 -1.02152 0)
(-16.659 -1.15123 0)
(-15.4761 -1.28223 0)
(-14.2491 -1.37462 0)
(-12.9844 -1.44551 0)
(-11.6979 -1.49321 0)
(-10.4004 -1.52414 0)
(-9.10367 -1.54051 0)
(-7.81889 -1.54646 0)
(-6.55408 -1.54245 0)
(-5.31834 -1.53594 0)
(-4.11071 -1.51751 0)
(-2.92368 -1.50427 0)
(-1.72902 -1.46795 0)
(-0.476401 -1.43653 0)
(0.792064 -1.40844 0)
(1.89571 -1.24539 0)
(2.87857 -1.07665 0)
(3.81379 -0.936376 0)
(4.691 -0.818469 0)
(5.51401 -0.710533 0)
(6.28249 -0.612633 0)
(6.98907 -0.521529 0)
(7.63695 -0.438612 0)
(8.22249 -0.361815 0)
(8.74701 -0.292025 0)
(9.2098 -0.227181 0)
(9.61082 -0.168782 0)
(9.95145 -0.115626 0)
(10.2326 -0.0702393 0)
(10.455 -0.0180643 0)
(10.624 0.00500893 0)
(10.7362 0.036218 0)
(10.8074 0.0575084 0)
(10.8237 0.0853611 0)
(10.8055 0.0983445 0)
(10.7612 0.103462 0)
(10.6914 0.10931 0)
(10.5997 0.110589 0)
(10.4923 0.101117 0)
(10.3756 0.0854732 0)
(10.2588 0.0438889 0)
(10.1445 0.00128429 0)
(10.0453 -0.0602419 0)
(9.96107 -0.12594 0)
(9.90663 -0.203715 0)
(9.85595 -0.263357 0)
(9.78251 -0.280928 0)
(9.63523 -0.255217 0)
(9.31822 -0.158053 0)
(8.7306 0.0203647 0)
(7.85589 0.349778 0)
(6.73977 0.841837 0)
(5.37788 1.29398 0)
(3.84565 1.65119 0)
(2.01832 1.94592 0)
(0.0530012 2.02192 0)
(-1.73379 1.97513 0)
(-3.23797 1.76282 0)
(-4.37333 1.47301 0)
(-5.14106 1.13793 0)
(-5.58421 0.792099 0)
(-5.83104 0.503133 0)
(-5.76891 0.156277 0)
(-5.51992 -0.131597 0)
(-5.00823 -0.555512 0)
(-4.27128 -0.906706 0)
(-3.23084 -1.27055 0)
(-1.87753 -1.57936 0)
(-0.400879 -1.82666 0)
(1.1871 -1.90074 0)
(2.78729 -1.85982 0)
(4.35293 -1.72809 0)
(5.86282 -1.55578 0)
(7.355 -1.38798 0)
(8.7703 -1.22529 0)
(10.1222 -1.05599 0)
(11.3543 -0.889634 0)
(12.4854 -0.728464 0)
(13.4873 -0.561945 0)
(14.3584 -0.408442 0)
(15.0895 -0.272876 0)
(15.6807 -0.146583 0)
(16.1273 -0.039347 0)
(16.3989 0.0602557 0)
(16.4996 0.186248 0)
(16.4554 0.277192 0)
(16.2859 0.332865 0)
(15.9873 0.389406 0)
(15.5619 0.436302 0)
(15.0341 0.468288 0)
(14.4218 0.477748 0)
(13.7467 0.474206 0)
(13.0376 0.461174 0)
(12.3256 0.434765 0)
(11.6421 0.393482 0)
(11.0113 0.339798 0)
(10.4553 0.278269 0)
(9.98496 0.20961 0)
(9.61072 0.141733 0)
(9.33282 0.0699191 0)
(9.14737 0.0124324 0)
(9.04846 -0.0430909 0)
(9.01437 -0.084139 0)
(9.02992 -0.1077 0)
(9.07179 -0.118064 0)
(9.12005 -0.121098 0)
(9.16366 -0.116339 0)
(9.19664 -0.108647 0)
(9.21688 -0.0958713 0)
(9.21505 -0.0758399 0)
(9.18078 -0.0489201 0)
(9.10035 -0.0135733 0)
(8.93991 0.0133577 0)
(8.65952 0.0540474 0)
(8.22694 0.101632 0)
(7.63078 0.176216 0)
(6.88449 0.315337 0)
(6.02398 0.553111 0)
(5.0523 0.812521 0)
(3.99342 1.0489 0)
(2.84221 1.22064 0)
(1.5153 1.29261 0)
(0.209852 1.23787 0)
(-0.895767 1.05819 0)
(-1.8062 0.873102 0)
(-2.51738 0.717455 0)
(-3.00247 0.583535 0)
(-3.29647 0.444234 0)
(-3.45456 0.348184 0)
(-3.52997 0.257929 0)
(-3.5671 0.169273 0)
(-3.54731 0.101588 0)
(-3.46715 0.0327271 0)
(-3.33266 -0.0351935 0)
(-3.13481 -0.111667 0)
(-2.87944 -0.187583 0)
(-2.57577 -0.267474 0)
(-2.22091 -0.357115 0)
(-1.82631 -0.447309 0)
(-1.33029 -0.555455 0)
(-0.68033 -0.631092 0)
(-0.011615 -0.733116 0)
(0.680342 -0.770129 0)
(1.39894 -0.784006 0)
(2.12575 -0.76486 0)
(2.82966 -0.730738 0)
(3.5381 -0.686234 0)
(4.24084 -0.646006 0)
(4.92953 -0.611571 0)
(5.60203 -0.573668 0)
(6.24918 -0.534071 0)
(6.86533 -0.491184 0)
(7.44777 -0.448631 0)
(7.9923 -0.404606 0)
(8.49719 -0.36128 0)
(8.95989 -0.317869 0)
(9.37915 -0.275538 0)
(9.75347 -0.234095 0)
(10.0825 -0.194594 0)
(10.3651 -0.156637 0)
(10.6023 -0.120872 0)
(10.7915 -0.0864091 0)
(10.9363 -0.0541413 0)
(11.0307 -0.022868 0)
(11.0863 0.00534119 0)
(11.0976 0.0255016 0)
(11.0723 0.0415385 0)
(11.0176 0.0595817 0)
(10.9339 0.0716966 0)
(10.8273 0.0772507 0)
(10.7037 0.0779026 0)
(10.57 0.0735762 0)
(10.4321 0.0645379 0)
(10.2953 0.0536298 0)
(10.1649 0.0430016 0)
(10.0448 0.0351764 0)
(9.93674 0.0282367 0)
(9.83886 0.0250778 0)
(9.7485 0.0211078 0)
(9.6627 0.018373 0)
(9.58377 0.0146527 0)
(9.51329 0.0105417 0)
(9.4608 -0.000593632 0)
(9.42594 -0.0129491 0)
(9.41808 -0.0303497 0)
(9.43329 -0.0411918 0)
(9.46874 -0.0531181 0)
(9.52424 -0.0582339 0)
(9.58611 -0.0562252 0)
(9.64818 -0.0457478 0)
(9.69541 -0.0289985 0)
(9.73435 -0.0119898 0)
(9.74049 0.000802391 0)
(9.7041 0.00771598 0)
(9.61362 0.0145126 0)
(9.45536 0.0205684 0)
(9.22565 0.0271117 0)
(8.92434 0.0442019 0)
(8.55908 0.0736312 0)
(8.1345 0.117126 0)
(7.65676 0.175335 0)
(7.13387 0.246839 0)
(6.57889 0.32726 0)
(5.99947 0.405053 0)
(5.39771 0.482359 0)
(4.77971 0.551264 0)
(4.17101 0.599277 0)
(3.57133 0.623108 0)
(2.97939 0.61947 0)
(2.42139 0.601256 0)
(1.81171 0.585627 0)
(1.22448 0.532 0)
(0.743841 0.450667 0)
(0.344753 0.383587 0)
(0.0167972 0.326898 0)
(-0.204125 0.287101 0)
(-0.342476 0.237884 0)
(-0.38532 0.177517 0)
(-0.368641 0.102998 0)
(-0.312874 -0.00269088 0)
(-0.171811 -0.0942999 0)
(-0.0075656 -0.173701 0)
(0.262757 -0.257331 0)
(0.606152 -0.289754 0)
(0.973507 -0.332411 0)
(1.39454 -0.364413 0)
(1.84804 -0.394978 0)
(2.33391 -0.416804 0)
(2.84422 -0.434662 0)
(3.37306 -0.444938 0)
(3.91513 -0.449735 0)
(4.46413 -0.448361 0)
(5.01532 -0.442069 0)
(5.56336 -0.431068 0)
(6.10385 -0.416174 0)
(6.63231 -0.397841 0)
(7.14481 -0.376646 0)
(7.63757 -0.353029 0)
(8.10715 -0.327447 0)
(8.55036 -0.300365 0)
(8.96433 -0.272329 0)
(9.34659 -0.243905 0)
(9.69522 -0.215775 0)
(10.0088 -0.188502 0)
(10.2868 -0.162643 0)
(10.5291 -0.13845 0)
(10.7366 -0.116378 0)
(10.9103 -0.0963092 0)
(11.0528 -0.0789828 0)
(11.1665 -0.0636573 0)
(11.2537 -0.0515208 0)
(11.3195 -0.0422461 0)
(11.3666 -0.0304244 0)
(11.4017 -0.0267209 0)
(11.4305 -0.0265744 0)
(11.4559 -0.0299918 0)
(11.4832 -0.0360599 0)
(11.5176 -0.0443888 0)
(11.5646 -0.0555801 0)
(11.6299 -0.0667587 0)
(11.7148 -0.0803408 0)
(11.816 -0.0914358 0)
(11.9277 -0.0932666 0)
(12.039 -0.0887194 0)
(12.1399 -0.0767757 0)
(12.2117 -0.0530288 0)
(12.2608 -0.0247461 0)
(12.2665 0.000613356 0)
(12.2205 0.016948 0)
(12.1114 0.0390174 0)
(11.9237 0.059454 0)
(11.6525 0.0787358 0)
(11.2982 0.104429 0)
(10.8685 0.140807 0)
(10.3718 0.1887 0)
(9.81817 0.246914 0)
(9.22348 0.312039 0)
(8.6071 0.377056 0)
(7.9863 0.432759 0)
(7.37479 0.470944 0)
(6.78099 0.486143 0)
(6.2179 0.486684 0)
(5.69896 0.466649 0)
(5.22887 0.422933 0)
(4.80602 0.36655 0)
(4.43869 0.306764 0)
(4.13235 0.255304 0)
(3.92338 0.213192 0)
(3.79479 0.168232 0)
(3.75275 0.112963 0)
(3.78788 0.0521346 0)
(3.88374 0.00923891 0)
(4.03914 -0.0499737 0)
(4.24409 -0.0963883 0)
(4.49645 -0.139181 0)
(4.78395 -0.173019 0)
(5.10127 -0.199717 0)
(5.44028 -0.219211 0)
(5.79484 -0.232009 0)
(6.15926 -0.239018 0)
(6.52851 -0.241117 0)
(6.89862 -0.239489 0)
(7.26638 -0.235204 0)
(7.62958 -0.229287 0)
(7.98674 -0.222501 0)
(8.33713 -0.215373 0)
(8.68045 -0.208238 0)
(9.01676 -0.201332 0)
(9.34626 -0.19484 0)
(9.66924 -0.188871 0)
(9.98595 -0.183426 0)
(10.2965 -0.17833 0)
(10.6006 -0.173319 0)
(10.8976 -0.168028 0)
(11.1865 -0.16213 0)
(11.4654 -0.155361 0)
(11.7326 -0.147486 0)
(11.9854 -0.138362 0)
(12.2213 -0.127929 0)
(12.4377 -0.116349 0)
(12.632 -0.103848 0)
(12.8025 -0.0911529 0)
(12.9475 -0.0784327 0)
(13.0671 -0.0667021 0)
(13.1615 -0.0549838 0)
(13.231 -0.0449442 0)
(13.2793 -0.0356445 0)
(13.3094 -0.0263731 0)
(13.3236 -0.0228556 0)
(13.3291 -0.0204858 0)
(13.3268 -0.0195058 0)
(13.317 -0.0197096 0)
(13.3048 -0.01873 0)
(13.2882 -0.0171129 0)
(13.2687 -0.0139197 0)
(13.2452 -0.00887446 0)
(13.2159 -0.00204195 0)
(13.1782 0.00643749 0)
(13.1298 0.0169627 0)
(13.0672 0.0268533 0)
(12.9881 0.0407675 0)
(12.8919 0.0539812 0)
(12.7772 0.0667331 0)
(12.6448 0.0781443 0)
(12.4959 0.0876088 0)
(12.3325 0.0948955 0)
(12.1571 0.0998219 0)
(11.9721 0.102838 0)
(11.7804 0.104228 0)
(11.5851 0.10436 0)
(11.3883 0.103627 0)
(11.192 0.102467 0)
(10.9971 0.101305 0)
(10.8043 0.100518 0)
(10.6135 0.100458 0)
(10.4244 0.10159 0)
(10.2364 0.104064 0)
(10.0488 0.107806 0)
(9.8608 0.113095 0)
(9.67162 0.119864 0)
(9.48064 0.127159 0)
(9.28751 0.133987 0)
(9.09192 0.140042 0)
(8.89391 0.145117 0)
(8.69397 0.149056 0)
(8.49235 0.151694 0)
(8.28972 0.153352 0)
(8.08766 0.153912 0)
(7.88861 0.153137 0)
(7.69607 0.150812 0)
(7.51403 0.147564 0)
(7.347 0.144757 0)
(7.1971 0.139143 0)
(7.06804 0.129436 0)
(6.96136 0.116977 0)
(6.87963 0.101987 0)
(6.82591 0.0849348 0)
(6.79543 0.0651214 0)
(6.79631 0.0449047 0)
(6.8249 0.0225259 0)
(6.87987 0.00602955 0)
(6.96307 -0.01734 0)
(7.07213 -0.0379433 0)
(7.20698 -0.059095 0)
(7.36504 -0.0788404 0)
(7.54476 -0.0975071 0)
(7.74384 -0.114685 0)
(7.9598 -0.130018 0)
(8.1901 -0.143312 0)
(8.43201 -0.154347 0)
(8.68275 -0.16297 0)
(8.93941 -0.16907 0)
(9.19903 -0.17264 0)
(9.45871 -0.173754 0)
(9.71566 -0.172507 0)
(9.96729 -0.169078 0)
(10.2112 -0.163736 0)
(10.4449 -0.156955 0)
(10.6662 -0.148816 0)
(10.8736 -0.139344 0)
(11.0659 -0.128859 0)
(11.242 -0.1176 0)
(11.4011 -0.10573 0)
(11.5425 -0.093372 0)
(11.6658 -0.0806263 0)
(11.771 -0.0675105 0)
(11.8584 -0.0547325 0)
(11.9278 -0.0424267 0)
(11.98 -0.0300905 0)
(12.014 -0.0179324 0)
(12.0333 -0.00708585 0)
(12.0367 0.00295743 0)
(12.0269 0.00857722 0)
(12.0066 0.0169749 0)
(11.976 0.0244627 0)
(11.9364 0.0302931 0)
(11.889 0.03549 0)
(11.8356 0.0390459 0)
(11.7776 0.0435378 0)
(11.7174 0.0457213 0)
(11.6546 0.048035 0)
(11.5915 0.048056 0)
(11.527 0.0494458 0)
(11.4648 0.0490346 0)
(11.3999 0.0506175 0)
(11.3411 0.0501832 0)
(11.2737 0.0533314 0)
(11.2235 0.04756 0)
(11.154 0.0494617 0)
(11.1356 0.0279979 0)
(11.0578 0.01918 0)
(0.00624431 -0.0129755 0)
(0.0752962 -0.148035 0)
(0.234862 -0.303315 0)
(0.462331 -0.402835 0)
(0.724694 -0.450083 0)
(0.992296 -0.442474 0)
(1.25211 -0.403086 0)
(1.48949 -0.343542 0)
(1.70252 -0.281172 0)
(1.88825 -0.222804 0)
(2.05076 -0.17791 0)
(2.19342 -0.148708 0)
(2.32381 -0.140572 0)
(2.45257 -0.155788 0)
(2.58929 -0.199183 0)
(2.74057 -0.258478 0)
(2.92051 -0.336786 0)
(3.14134 -0.435281 0)
(3.41545 -0.551752 0)
(3.75196 -0.680385 0)
(4.15782 -0.812925 0)
(4.63184 -0.937489 0)
(5.17928 -1.04246 0)
(5.77482 -1.11472 0)
(6.42138 -1.14886 0)
(7.08032 -1.10805 0)
(7.74079 -1.00556 0)
(8.36876 -0.844946 0)
(8.93098 -0.626491 0)
(9.41719 -0.362922 0)
(9.78496 -0.0657482 0)
(10.0522 0.18054 0)
(10.1073 0.41627 0)
(9.93981 0.578222 0)
(9.62509 0.701982 0)
(9.20171 0.72686 0)
(8.69957 0.66359 0)
(8.14948 0.500957 0)
(7.58648 0.263403 0)
(7.04373 0.0391612 0)
(6.52529 -0.0401796 0)
(6.05934 0.112654 0)
(5.54461 0.487847 0)
(4.60871 1.11608 0)
(2.96694 1.83175 0)
(0.693159 2.57358 0)
(-2.1659 3.29874 0)
(-5.49981 4.13168 0)
(-9.0757 4.9123 0)
(-12.6645 5.41084 0)
(-15.9732 5.55834 0)
(-18.8295 5.38747 0)
(-21.0606 5.02463 0)
(-22.6926 4.58453 0)
(-23.6919 4.00855 0)
(-24.3372 3.34708 0)
(-24.7659 2.68851 0)
(-25.013 2.08692 0)
(-25.0898 1.5145 0)
(-24.9728 0.951092 0)
(-24.6774 0.43146 0)
(-24.2019 -0.10404 0)
(-23.6073 -0.583049 0)
(-22.864 -1.04386 0)
(-21.9904 -1.48169 0)
(-20.9692 -1.91814 0)
(-19.8047 -2.36696 0)
(-18.5232 -2.75389 0)
(-17.1989 -3.03279 0)
(-15.8098 -3.2261 0)
(-14.3673 -3.39249 0)
(-12.9095 -3.51362 0)
(-11.443 -3.58424 0)
(-9.9833 -3.60875 0)
(-8.53703 -3.59602 0)
(-7.11208 -3.54986 0)
(-5.71348 -3.47519 0)
(-4.34408 -3.37683 0)
(-3.01013 -3.26093 0)
(-1.72006 -3.13734 0)
(-0.481175 -2.98873 0)
(0.698366 -2.8036 0)
(1.82594 -2.51994 0)
(2.88669 -2.28882 0)
(3.90641 -2.2036 0)
(4.90994 -2.12379 0)
(5.87482 -2.00979 0)
(6.79614 -1.87509 0)
(7.66263 -1.72472 0)
(8.47866 -1.56696 0)
(9.23916 -1.40592 0)
(9.94822 -1.24706 0)
(10.6045 -1.09152 0)
(11.2098 -0.941537 0)
(11.7644 -0.797465 0)
(12.2686 -0.660501 0)
(12.7235 -0.533108 0)
(13.1273 -0.412753 0)
(13.4819 -0.300431 0)
(13.7851 -0.200437 0)
(14.0404 -0.119542 0)
(14.2374 -0.0223077 0)
(14.3948 0.0429375 0)
(14.5048 0.0940611 0)
(14.575 0.134851 0)
(14.5983 0.174831 0)
(14.5793 0.199244 0)
(14.5262 0.213343 0)
(14.4396 0.211583 0)
(14.3154 0.19094 0)
(14.1509 0.160293 0)
(13.9501 0.106773 0)
(13.7085 0.0326003 0)
(13.4191 -0.0387205 0)
(13.0634 -0.0846693 0)
(12.6089 -0.0525329 0)
(12.0071 0.122277 0)
(11.2143 0.518457 0)
(10.1652 1.14841 0)
(8.75567 1.94611 0)
(6.99938 2.7127 0)
(5.00555 3.3153 0)
(2.9517 3.66749 0)
(1.01186 3.6973 0)
(-0.691027 3.60391 0)
(-2.14869 3.33948 0)
(-3.33531 3.0209 0)
(-4.28127 2.5727 0)
(-4.92711 2.00981 0)
(-5.46763 1.33238 0)
(-5.54531 0.464481 0)
(-5.30109 -0.392216 0)
(-4.73306 -1.16684 0)
(-3.93423 -1.78444 0)
(-2.92382 -2.24969 0)
(-1.70839 -2.52808 0)
(-0.34575 -2.76985 0)
(1.10852 -2.95672 0)
(2.6587 -3.13318 0)
(4.27859 -3.25206 0)
(5.94517 -3.29908 0)
(7.60991 -3.25425 0)
(9.25608 -3.11406 0)
(10.8258 -2.89503 0)
(12.3311 -2.63507 0)
(13.7283 -2.33718 0)
(15.0368 -2.03535 0)
(16.2391 -1.71336 0)
(17.3392 -1.39988 0)
(18.3326 -1.10346 0)
(19.2184 -0.820018 0)
(19.9824 -0.52258 0)
(20.6086 -0.187748 0)
(21.1408 0.0756486 0)
(21.5353 0.28466 0)
(21.7631 0.509934 0)
(21.8021 0.742679 0)
(21.6617 0.93272 0)
(21.3668 1.09446 0)
(20.9102 1.23256 0)
(20.3012 1.33412 0)
(19.5589 1.38497 0)
(18.7049 1.3771 0)
(17.7716 1.31472 0)
(16.8003 1.2023 0)
(15.8356 1.05006 0)
(14.9198 0.865744 0)
(14.0906 0.665285 0)
(13.3742 0.459022 0)
(12.7864 0.264731 0)
(12.3409 0.0947694 0)
(12.0196 -0.0204088 0)
(11.8061 -0.0944267 0)
(11.6632 -0.131426 0)
(11.5565 -0.133333 0)
(11.4608 -0.117829 0)
(11.3571 -0.0931349 0)
(11.2351 -0.0621947 0)
(11.0851 -0.0209279 0)
(10.8917 0.0458116 0)
(10.634 0.1476 0)
(10.2865 0.299286 0)
(9.8351 0.523919 0)
(9.25152 0.81439 0)
(8.48741 1.15811 0)
(7.48927 1.56782 0)
(6.23098 2.00852 0)
(4.73893 2.39674 0)
(3.10398 2.6336 0)
(1.50309 2.65734 0)
(0.104239 2.50036 0)
(-0.998172 2.23581 0)
(-1.80769 1.92096 0)
(-2.36992 1.58631 0)
(-2.73263 1.28394 0)
(-2.98644 1.03103 0)
(-3.20907 0.811212 0)
(-3.37367 0.566178 0)
(-3.40556 0.33158 0)
(-3.33177 0.113465 0)
(-3.16926 -0.0956333 0)
(-2.94969 -0.29517 0)
(-2.68567 -0.480321 0)
(-2.36445 -0.647505 0)
(-1.9985 -0.79907 0)
(-1.56037 -0.941119 0)
(-1.06431 -1.06392 0)
(-0.496525 -1.16505 0)
(0.117592 -1.19556 0)
(0.774292 -1.22123 0)
(1.46936 -1.24203 0)
(2.1957 -1.30286 0)
(2.96067 -1.35586 0)
(3.74942 -1.40457 0)
(4.54993 -1.42745 0)
(5.36191 -1.44031 0)
(6.16689 -1.41502 0)
(6.95854 -1.37971 0)
(7.72818 -1.32479 0)
(8.47521 -1.25887 0)
(9.19099 -1.18274 0)
(9.87518 -1.10163 0)
(10.5231 -1.01488 0)
(11.1335 -0.925581 0)
(11.7035 -0.833731 0)
(12.2317 -0.740928 0)
(12.7161 -0.647666 0)
(13.1553 -0.555065 0)
(13.5477 -0.463405 0)
(13.8921 -0.372538 0)
(14.1867 -0.282411 0)
(14.4303 -0.191606 0)
(14.6227 -0.105312 0)
(14.7605 -0.0202626 0)
(14.8515 0.0394149 0)
(14.8761 0.107207 0)
(14.8425 0.16149 0)
(14.7632 0.210232 0)
(14.6406 0.247614 0)
(14.4769 0.27165 0)
(14.2747 0.283627 0)
(14.0416 0.284768 0)
(13.7869 0.275737 0)
(13.5211 0.256855 0)
(13.2529 0.232443 0)
(12.9873 0.20748 0)
(12.7277 0.189195 0)
(12.4783 0.177041 0)
(12.2425 0.167003 0)
(12.022 0.152822 0)
(11.8174 0.128049 0)
(11.6322 0.091684 0)
(11.4722 0.041472 0)
(11.3406 0.0031669 0)
(11.2469 -0.0394919 0)
(11.1894 -0.0785187 0)
(11.1595 -0.102295 0)
(11.1433 -0.103468 0)
(11.1337 -0.0882876 0)
(11.1071 -0.0632511 0)
(11.0516 -0.0218783 0)
(10.9478 0.0258984 0)
(10.7956 0.103492 0)
(10.5942 0.199432 0)
(10.3405 0.308248 0)
(10.0326 0.431549 0)
(9.66301 0.557445 0)
(9.22833 0.687646 0)
(8.72634 0.822959 0)
(8.15715 0.961176 0)
(7.5224 1.09651 0)
(6.82227 1.22352 0)
(6.0633 1.3485 0)
(5.26858 1.45075 0)
(4.46279 1.49333 0)
(3.66006 1.49271 0)
(2.88744 1.45693 0)
(2.16837 1.39523 0)
(1.53263 1.30391 0)
(1.00026 1.16616 0)
(0.573315 1.03873 0)
(0.238089 0.918781 0)
(-0.0010924 0.790315 0)
(-0.168318 0.633044 0)
(-0.273182 0.470746 0)
(-0.340624 0.301224 0)
(-0.343659 0.133283 0)
(-0.222249 -0.0447948 0)
(-0.0153585 -0.199074 0)
(0.245124 -0.346957 0)
(0.589224 -0.495964 0)
(0.980263 -0.594949 0)
(1.40571 -0.729842 0)
(1.8866 -0.827443 0)
(2.40176 -0.911607 0)
(2.95156 -0.980923 0)
(3.52782 -1.03698 0)
(4.1264 -1.08052 0)
(4.74075 -1.10987 0)
(5.3662 -1.12628 0)
(5.99707 -1.12984 0)
(6.62888 -1.12198 0)
(7.25686 -1.10332 0)
(7.87693 -1.07501 0)
(8.48499 -1.0379 0)
(9.07733 -0.992983 0)
(9.65041 -0.9411 0)
(10.2009 -0.883104 0)
(10.7257 -0.819875 0)
(11.2219 -0.752424 0)
(11.6864 -0.681895 0)
(12.1167 -0.609661 0)
(12.5099 -0.536989 0)
(12.8639 -0.465243 0)
(13.1759 -0.39544 0)
(13.4444 -0.329023 0)
(13.6672 -0.266349 0)
(13.8436 -0.209351 0)
(13.9739 -0.157029 0)
(14.0572 -0.111342 0)
(14.1021 -0.0746872 0)