/*--------------------------------*- C++ -*----------------------------------*\
| =========                 |                                                 |
| \\      /  F ield         | OpenFOAM: The Open Source CFD Toolbox           |
|  \\    /   O peration     | Version:  v1812                                 |
|   \\  /    A nd           | Web:      www.OpenFOAM.com                      |
|    \\/     M anipulation  |                                                 |
\*---------------------------------------------------------------------------*/
FoamFile
{
    version     2.0;
    format      ascii;
    class       volScalarField;
    location    "1.1";
    object      p;
}
// * * * * * * * * * * * * * * * * * * * * * * * * * * * * * * * * * * * * * //

dimensions      [1 -1 -2 0 0 0 0];


internalField   nonuniform List<scalar> 
20400
(
97443.3
97442.1
97441.5
97439.8
97438.1
97435.6
97432.7
97429.3
97425.5
97421.3
97416.8
97412
97407
97401.9
97396.7
97391.4
97386.1
97380.9
97375.7
97370.6
97365.6
97360.8
97356
97351.3
97346.8
97342.5
97338.1
97334.3
97330.7
97326.9
97323.4
97319.9
97316.7
97313.6
97310.8
97308.2
97305.7
97303.6
97301.4
97299.6
97297.9
97296.3
97295
97293.9
97293
97292.3
97291.8
97291.6
97291.5
97291.4
97291.5
97291.6
97291.8
97292.2
97292.6
97293.2
97293.7
97294.2
97294.3
97293.6
97293.5
97293.1
97292.8
97292.4
97290.5
97290.9
97287
97287.7
97282.6
97283
97277.5
97277
97271.8
97270.2
97265.3
97262.9
97258.8
97256.4
97253.3
97251
97249.7
97250.3
97250.7
97255.3
97260.8
97269.4
97279.2
97292.1
97304.6
97324.4
97345.7
97364.1
97387.1
97412.6
97440.8
97470.8
97500.6
97531.1
97560.3
97590.2
97617.9
97645.8
97671.1
97695.6
97717.8
97738.2
97757.6
97776.1
97791.8
97809.4
97826.6
97840.5
97857.5
97867.7
97878.1
97888.7
97897.1
97905.3
97912
97918.3
97924
97928.8
97933.6
97936.9
97940.6
97943
97945.1
97947.5
97948.3
97950
97950.1
97949.4
97949
97947.1
97945.9
97942.5
97940.1
97935.6
97931.8
97926.3
97921.4
97914.5
97908.9
97901.2
97894.9
97886.5
97880.6
97872.6
97867.9
97861.9
97858.2
97855.6
97853.5
97854.8
97856.6
97861.1
97866.3
97874.7
97883.3
97893
97904
97913.5
97923.7
97933.9
97942.6
97951
97959.2
97963.3
97969.1
97972.4
97976
97977.6
97979.5
97979.1
97979.9
97978.5
97978.3
97976.7
97974.3
97971.2
97968.1
97963.6
97960
97954.8
97949.5
97944.3
97938.3
97933
97925.9
97921.3
97914.4
97910.4
97903.2
97898.6
97892.2
97886.8
97880.1
97875
97867.3
97861.7
97853.5
97850.2
97842.7
97839.1
97831
97827.1
97819.4
97815.5
97808.3
97804.8
97798.3
97794.8
97789.1
97785.7
97781.1
97778.2
97774.8
97772.7
97770.3
97768.7
97766.8
97765.5
97764.1
97763.2
97762.4
97761.9
97761.3
97760.9
97760.3
97759.8
97759.6
97759.2
97759.2
97759.3
97759.8
97760.3
97761.3
97762.1
97763.6
97764.9
97767
97769.1
97771.8
97774.3
97777.4
97780.3
97784.1
97787.2
97791.3
97795.5
97800.1
97803.8
97808.5
97813
97817.6
97822.3
97827.7
97832.8
97838.7
97844.2
97850
97854.7
97860.6
97866.8
97872.6
97879.4
97885.6
97891.7
97898.6
97905.3
97912.4
97919.2
97927.1
97934.3
97943
97950.8
97959.9
97968.9
97979
97988.8
98000.2
98011.5
98024.3
98037.1
98051.1
98065.3
98080.5
98096
98112.4
98128.9
98146.2
98163.5
98181.6
98199.8
98218.1
98236.6
98255.9
98274.7
98293.8
98312.8
98332.1
98351.5
98371
98390.4
98410.2
98429.8
98449.7
98469.3
98489.3
98509
98529
98548.8
98569.2
98589.8
98610.9
98632.3
98654.2
98676.7
98699.8
98723.4
98747.5
98772.1
98797.3
98822.3
98848.4
98874.5
98901.3
98927.8
98955.2
98982.4
99009.8
99037.2
99064.7
99091.7
99119
99145.9
99172.8
99199.1
99225.4
99251.4
99277.2
99302.3
99327.4
99351.9
99376.6
99400.6
99425
99448.5
99472.6
99495.6
99519.5
99542.4
99566
99588.7
99611.9
99633.9
99656.6
99678.6
99700.9
99722.7
99744.7
99766.1
99787.7
99808.3
99829.8
99850.2
99871.1
99890.9
99911.2
99930
99949.6
99968.3
99987.4
100006
100024
100042
100061
100078
100096
100113
100130
100148
100165
100182
100198
100215
100231
100248
100264
100280
100297
100313
100329
100345
100362
100378
100394
100410
100426
100442
100458
100474
100489
100505
100520
100536
100551
100566
100582
100596
100612
100626
100641
100655
100670
100684
100698
100712
100726
100739
100753
100766
100780
100793
100807
100819
100832
100844
100856
100868
100880
100892
100903
100915
100926
100936
100947
100957
100967
100976
100986
100995
101004
101012
101021
101029
101037
101045
101052
101061
101068
101075
101082
101089
101096
101102
101109
101115
101121
101127
101133
101139
101144
101149
101155
101160
101165
101170
101175
101181
101186
101191
101196
101200
101205
101210
101215
101220
101224
101229
101234
101239
101243
101248
101253
101257
101262
101267
101272
101276
101281
101285
101290
101295
101299
101304
101308
101313
101318
101323
97444.3
97443.1
97442.6
97440.8
97439.3
97436.7
97433.8
97430.4
97426.5
97422.3
97417.7
97412.9
97407.9
97402.7
97397.4
97392
97386.6
97381.3
97376.1
97371
97366
97361.1
97356.3
97351.6
97346.9
97342.4
97338.1
97334.3
97330.6
97327.1
97323.5
97320.2
97317
97313.8
97311
97308
97305.7
97303.1
97301
97299
97297.4
97295.8
97294.6
97293.5
97292.8
97292.2
97291.8
97291.6
97291.5
97291.5
97291.6
97291.8
97292.1
97292.5
97292.9
97293.5
97293.8
97294.8
97294.2
97294.3
97294.2
97293.5
97293.9
97292.6
97292.4
97290
97290.7
97285.8
97288.2
97281
97284
97275.8
97277.8
97270.7
97270.4
97264.9
97262.7
97258.5
97256.8
97253.4
97252.1
97251.3
97251.5
97254.9
97258.9
97265.4
97273
97285.1
97301.4
97323.4
97348.3
97369.8
97393.4
97418.2
97440.7
97464.8
97492.6
97518.1
97547.8
97573.8
97604.1
97628.8
97658.3
97681.6
97707.9
97729.4
97744.2
97762.4
97774.4
97795
97809.2
97834.7
97848
97864.4
97875.8
97885.9
97895.5
97903.6
97910.8
97917.7
97922.8
97928.6
97932.5
97937
97939.8
97942.9
97945
97946.8
97948.6
97949.6
97949.7
97949.6
97948.1
97948
97944.6
97943.3
97939
97936.3
97930.6
97926.9
97919.9
97915.2
97907
97901.6
97892.6
97887
97877.7
97872
97865.3
97860.9
97856.9
97853.9
97854.3
97852.9
97856.6
97859.6
97866.1
97871.8
97880
97888.9
97900.4
97911.2
97920
97932.1
97940
97949.9
97957.5
97963.7
97965.8
97973.4
97973.7
97978.3
97977.4
97980.2
97977.8
97979.7
97977.2
97976.7
97973.7
97970.8
97967.8
97964
97959.1
97955.1
97949.7
97944
97939.1
97932
97928
97919
97916.6
97909.5
97905
97898.4
97893.3
97886.3
97881.9
97874.2
97870.7
97857.9
97860
97845.6
97847.8
97835.5
97834.6
97824
97822.9
97812.6
97811.3
97802.7
97800.3
97793.2
97790.8
97784.7
97782.4
97777.4
97775.8
97772.5
97771.1
97768.6
97767.4
97765.5
97764.6
97763.3
97762.8
97762
97761.6
97761.1
97760.4
97760.1
97759.7
97759.4
97759.1
97759.6
97759.6
97760.5
97760.9
97762.1
97763
97764.6
97766.3
97768.8
97771
97774.3
97776.3
97780
97783
97786.8
97790.6
97795
97799
97803.7
97807.7
97812.6
97816.7
97822
97826.7
97833.5
97837.4
97845.5
97848.8
97855.4
97860.9
97866.6
97873.1
97879.5
97886.2
97892.3
97899.1
97906.2
97912.8
97920.8
97927.2
97936.2
97943.5
97952.6
97960.4
97970.9
97979.5
97991
98000.8
98013.6
98024.9
98039.1
98051.7
98067
98081
98097.5
98112.9
98130.3
98146.7
98164.6
98182.3
98200.4
98219
98238.1
98256.7
98276.1
98294.8
98314.2
98333
98353
98372.2
98392
98411.2
98431.5
98450.7
98471
98490.4
98510.8
98530.2
98550.7
98570.6
98591.6
98612.2
98633.7
98655.4
98677.6
98700.8
98723.9
98748.1
98772.7
98797.1
98822.9
98847.9
98874.6
98900.6
98927.8
98954.1
98981.8
99008.8
99036.5
99063.6
99091
99117.9
99145.4
99171.6
99198.4
99224.4
99250.8
99275.8
99301.8
99326.1
99351.6
99375.3
99400.4
99423.7
99448.4
99470.9
99495.8
99518
99542.3
99564.4
99588.5
99610
99634.3
99654.8
99678.5
99699.5
99722.4
99743.5
99766
99785.9
99808.4
99828.4
99850.2
99869.7
99891.2
99909.5
99930.8
99948.5
99968.5
99986.6
100006
100023
100043
100060
100079
100095
100113
100131
100147
100165
100182
100198
100215
100232
100248
100264
100280
100297
100313
100329
100345
100362
100378
100394
100410
100426
100442
100458
100473
100489
100505
100520
100536
100551
100566
100582
100596
100611
100626
100641
100655
100670
100684
100698
100712
100726
100739
100752
100767
100779
100794
100806
100819
100831
100844
100856
100868
100880
100892
100903
100915
100925
100936
100946
100957
100966
100976
100985
100995
101003
101013
101020
101029
101037
101045
101053
101060
101068
101075
101082
101089
101096
101102
101109
101115
101121
101127
101133
101138
101144
101149
101154
101160
101165
101170
101175
101181
101185
101191
101195
101200
101205
101210
101215
101219
101224
101229
101234
101239
101243
101248
101253
101257
101262
101267
101271
101276
101281
101285
101290
101294
101299
101304
101308
101313
101318
101323
97444.7
97443.4
97442.9
97441
97439.6
97436.9
97434.1
97430.6
97426.8
97422.6
97418.1
97413.2
97408.2
97402.9
97397.6
97392.2
97386.8
97381.5
97376.2
97371
97365.8
97360.9
97356
97351.3
97346.7
97342.4
97338.3
97334.4
97330.7
97326.9
97323.4
97319.8
97316.7
97313.8
97311
97308.5
97306
97303.8
97301.7
97299.8
97298.2
97296.6
97295.4
97294.3
97293.5
97292.7
97292.1
97291.7
97291.5
97291.5
97291.6
97292
97292.4
97292.9
97293.3
97294
97294.3
97295.2
97294.7
97294.7
97294.9
97295.1
97294.6
97295.6
97292.9
97294.8
97290.2
97292.3
97286.3
97288.2
97281.5
97282.4
97275.6
97274.8
97268.9
97266.6
97261.7
97258.9
97255.4
97252.2
97251.3
97249.1
97251.2
97254.2
97258.8
97265.8
97275.3
97288.9
97301.2
97314.3
97330.2
97350.6
97376.7
97400.2
97431.1
97458.1
97492.1
97518.3
97549.8
97578.1
97606.1
97635.1
97658.6
97687.6
97708.2
97729.3
97751.6
97770.2
97794.1
97805.1
97824.6
97833.4
97851.4
97862.2
97875.8
97886.1
97895.8
97903.4
97911.6
97916.7
97923.9
97927.5
97934
97935.4
97941.1
97942.5
97945
97947.7
97948.4
97950
97950.2
97948.9
97949.6
97946.3
97946.9
97941.8
97940.4
97934.9
97931.9
97925.5
97921.4
97913.3
97907.9
97899.8
97894.1
97885
97879.2
97871.8
97866.8
97860.3
97856.5
97854.8
97850
97852.1
97853.9
97859.1
97861.7
97871.2
97877.7
97888.4
97897.9
97908.7
97919.2
97931
97938.5
97948.2
97957.8
97960.6
97968.4
97970.8
97976.8
97974.5
97979.6
97977.6
97978.9
97978.6
97977.7
97975.9
97973.6
97971.5
97966.9
97963.1
97959.5
97954.2
97949.6
97944.5
97937.6
97933.3
97925.6
97922.8
97914.7
97911.6
97903.4
97900.1
97892.2
97888.7
97881.1
97876.8
97866.4
97868.7
97849.2
97857.2
97839.6
97844.2
97828.5
97831.5
97816.2
97820.6
97805.5
97808.5
97796
97797.8
97787.1
97788.5
97778.8
97780.5
97773.1
97774.6
97769.5
97770.2
97766.3
97766.8
97763.8
97764.4
97762.3
97762.7
97761.2
97761.4
97760.5
97760.2
97759.9
97759.3
97759.6
97759.2
97760.1
97759.9
97761.3
97761.2
97763.1
97763.7
97766.2
97767.8
97771.3
97772.7
97776.5
97778.5
97783.3
97785.8
97790.9
97794.5
97798.8
97802.2
97808.2
97811.6
97817.4
97820.7
97828
97830.4
97841
97841.9
97852.4
97853.5
97861.2
97867.2
97872.8
97880
97886.1
97893.1
97899.7
97905.9
97913.8
97920.2
97929
97935.5
97945
97951.6
97962.4
97969.8
97981.6
97989.1
98003
98011.7
98027
98037
98053.5
98065.1
98082.5
98095.8
98114.1
98128.8
98147.7
98163.8
98182.6
98199.7
98219.3
98238.3
98257.5
98275.7
98295.6
98314
98333.8
98352.9
98372.8
98391.5
98412
98430.9
98451.4
98470.3
98491.1
98510.1
98530.9
98549.8
98571.1
98590.7
98612.4
98633
98654.9
98677.1
98699.8
98723.2
98747.2
98771.5
98796.8
98821
98847.7
98872.7
98900.4
98926.1
98954.3
98980.7
99008.6
99035.6
99063.3
99090.4
99118
99143.9
99172
99197.4
99224.6
99250.1
99276.3
99300.6
99326.4
99350.1
99376.1
99399
99424.5
99446.5
99472.2
99492.9
99518.7
99540.4
99565.7
99586.6
99611.7
99631
99656.2
99676.3
99699.9
99720.5
99744.3
99764.2
99786.9
99806.3
99828.9
99848.3
99870.7
99888.7
99911.8
99927.8
99950
99967.2
99987.3
100005
100024
100041
100061
100076
100096
100113
100130
100148
100164
100181
100198
100215
100231
100248
100263
100280
100296
100313
100328
100346
100361
100378
100393
100410
100425
100442
100457
100474
100489
100505
100520
100536
100551
100566
100581
100596
100611
100626
100641
100655
100670
100684
100698
100712
100726
100739
100753
100765
100781
100793
100806
100818
100831
100844
100856
100868
100880
100891
100903
100914
100925
100936
100947
100956
100967
100976
100986
100994
101004
101012
101021
101028
101037
101045
101052
101061
101068
101075
101081
101089
101095
101102
101108
101115
101120
101127
101132
101139
101144
101149
101155
101160
101165
101170
101175
101180
101186
101190
101196
101200
101205
101210
101215
101219
101224
101229
101234
101239
101243
101248
101253
101258
101262
101267
101271
101276
101281
101285
101290
101294
101299
101304
101308
101313
101318
101323
97446
97444.7
97444.2
97442.3
97440.8
97438
97434.9
97431.4
97427.4
97423.1
97418.4
97413.6
97408.4
97403.2
97397.7
97392.3
97386.8
97381.3
97376
97370.8
97365.7
97360.7
97355.8
97351.1
97346.5
97342.2
97338.1
97334
97330.5
97326.7
97323.7
97320.2
97317.5
97314.1
97311.6
97308.4
97306.1
97303.5
97301.2
97299.2
97297.3
97295.9
97294.6
97293.9
97293.2
97292.8
97292.5
97292.5
97292.4
97292.6
97293
97293.4
97293.9
97294.4
97294.9
97295.4
97295.4
97295.9
97296.4
97297.2
97297.1
97297.3
97297.3
97297
97297.1
97295.5
97295.6
97292.8
97292.5
97288.6
97287.6
97282.9
97281.1
97275.7
97272.8
97268
97263.1
97260.9
97254.9
97252.3
97248.3
97245.4
97246.4
97246.9
97251.4
97256.1
97264
97275.2
97291.1
97310.3
97330.1
97355.6
97369.4
97402.2
97423.5
97455.8
97480.7
97513.7
97541.3
97573.4
97601.7
97630.3
97658.7
97681
97709.5
97729.8
97749.3
97774.2
97785.2
97808.4
97820.9
97837
97848.7
97864.4
97874
97887.1
97893.8
97905.1
97908.9
97918.8
97920.9
97929.9
97930.5
97938.2
97938.9
97943.4
97945.4
97947.2
97948.8
97949.9
97949.8
97950.5
97947.9
97949.4
97943.9
97945.1
97938.3
97937.4
97930.4
97927.3
97919.7
97915.2
97907.3
97901.4
97892.8
97886.3
97877.9
97871.4
97863.7
97859
97855.5
97848.6
97848.9
97848.4
97851.4
97850.2
97862.7
97862.4
97874.6
97879.6
97896.5
97903.5
97915.2
97927.7
97936.7
97945.8
97954.9
97959.5
97965.4
97969.5
97972.7
97976.8
97975
97978.2
97976.7
97978.2
97976.2
97974.5
97972.2
97969.3
97965.8
97962
97957.8
97953.3
97948.5
97943.2
97937.4
97930.5
97927.1
97917.7
97917.3
97907.4
97905.9
97896.4
97894.2
97886.6
97881.4
97875
97871.2
97857.1
97864.8
97843.9
97851.9
97834.7
97838.7
97822.6
97827
97808.8
97816.8
97799.7
97804.9
97790.2
97794.8
97780.7
97786.4
97772.5
97779.4
97769.8
97773.4
97767
97769.3
97764.4
97767
97762.4
97764.9
97761.3
97763.2
97760.5
97761.3
97760.2
97760.2
97760
97759.1
97760
97759.3
97760.9
97759.6
97762.3
97761.2
97764.3
97764.6
97768
97769.5
97773.6
97774.1
97779
97780.8
97786.3
97789.1
97794.5
97798.1
97802.2
97806.1
97812.5
97815.3
97821.7
97825
97835.6
97832.6
97849.7
97845.1
97858.9
97860.4
97866.7
97873.7
97879.7
97887.4
97893.1
97900.1
97907.1
97913.6
97921.8
97928
97937.8
97944.1
97954.5
97960.9
97972.9
97979.2
97993.1
97999.9
98016.2
98023.5
98041.3
98049.8
98069.5
98079.1
98099.9
98111.2
98132.3
98145.2
98166.2
98181.2
98201.3
98218.6
98239.6
98258.4
98277.8
98295.7
98316
98334
98354.6
98372.9
98393.4
98411.7
98432.5
98451
98471.9
98490.7
98512.1
98530.1
98551.5
98570.2
98591.9
98611.4
98633.8
98654.4
98676.6
98699.8
98722.8
98746.4
98771.3
98794.7
98822
98845.3
98873.5
98898.4
98926.9
98952.9
98980.4
99007.1
99035.6
99062.2
99090.4
99117.6
99145.1
99170.6
99198.2
99224
99250.3
99274.9
99301.1
99325.1
99350.8
99374
99400.3
99423.3
99447.8
99469.1
99496
99516.5
99541.8
99562.2
99588.1
99608
99634.2
99653.2
99678
99697.7
99721
99741.2
99765.5
99785
99808.1
99827
99850
99867
99890.8
99907.7
99931.3
99947
99968.4
99985.6
100006
100023
100043
100058
100079
100094
100112
100130
100147
100164
100181
100198
100214
100231
100247
100264
100279
100297
100311
100330
100344
100362
100377
100394
100409
100426
100441
100457
100473
100489
100504
100520
100535
100551
100566
100581
100596
100611
100626
100641
100655
100670
100684
100698
100712
100725
100739
100752
100766
100779
100794
100806
100818
100831
100844
100856
100868
100880
100892
100903
100914
100925
100936
100946
100957
100966
100976
100985
100995
101003
101012
101020
101029
101036
101044
101053
101059
101069
101075
101082
101088
101096
101101
101109
101114
101121
101126
101133
101137
101144
101149
101154
101160
101165
101170
101175
101181
101185
101191
101195
101200
101204
101210
101214
101219
101224
101229
101234
101238
101243
101248
101253
101257
101262
101267
101271
101276
101281
101285
101290
101294
101299
101304
101308
101313
101318
101323
97447.4
97446.1
97445.5
97443.5
97442
97439
97435.9
97432.1
97428.1
97423.6
97418.9
97413.9
97408.7
97403.3
97397.9
97392.3
97386.8
97381.2
97375.7
97370.3
97365
97360
97355
97350.4
97346.1
97342.1
97338.1
97334.5
97330.4
97327
97323.1
97319.9
97316.4
97313.9
97310.7
97308.8
97305.8
97304.3
97301.7
97300.3
97298.5
97296.9
97295.9
97294.5
97294.1
97293.1
97292.8
97292.5
97292.2
97292.3
97292.5
97293
97293.5
97294.1
97294.8
97295.4
97296.2
97296.4
97298.8
97298.6
97299.7
97299
97300.4
97299.1
97299.9
97298.1
97297.9
97295.6
97294.4
97291.2
97289
97284.8
97281.9
97275.7
97273.1
97264.4
97263.3
97254.7
97252.9
97245
97240.9
97240
97237
97241.4
97242.5
97249.2
97257.6
97268.4
97282.1
97297.7
97317.3
97334.6
97368.2
97386.2
97422.1
97446.5
97479.8
97508
97541.1
97569.7
97601.1
97627.6
97657.3
97683.3
97706.5
97730.9
97755.5
97772.9
97793.9
97806.2
97825.1
97836
97850.9
97863.2
97875.6
97885.6
97896.9
97902.2
97913
97914.7
97924.9
97925.6
97934.3
97934.9
97940.9
97942.1
97945.5
97947
97948.9
97949.4
97950.7
97949.5
97950.4
97946.3
97948.6
97941.2
97943.2
97934.7
97933.8
97925.7
97922.5
97914.4
97909.4
97901.7
97894.5
97886.1
97878.5
97870.8
97864.5
97859.3
97848.2
97848
97843.8
97844.5
97842.5
97852.6
97846.8
97865
97864.9
97880.7
97887.2
97905
97910.3
97925.9
97931.6
97945.6
97951.5
97956.3
97963.7
97966.6
97971.7
97972
97975.5
97974
97976.7
97974.2
97974.1
97973.1
97970.4
97967.7
97962.8
97960.2
97955.7
97951
97946.7
97939.9
97934.8
97929.4
97923.4
97918.9
97910.6
97909.7
97898.3
97899.2
97890.2
97886.5
97877.2
97875.5
97866.2
97864.1
97849.2
97857.4
97838.7
97845.7
97828
97833.2
97815.8
97821.9
97804.4
97810.4
97793.5
97800.4
97783.9
97790.8
97772.8
97784.4
97768.9
97776.7
97767.9
97771.2
97764.2
97769.5
97761.7
97767.9
97760.5
97765.7
97759.8
97763.6
97760
97761.5
97760
97760
97760.2
97759.2
97760.8
97759.2
97761.8
97759.5
97763.5
97761.8
97766.5
97765.5
97771.7
97770.2
97776.6
97777
97783.6
97784
97789.5
97793.2
97798.6
97800.6
97806.8
97811.5
97816.5
97820.5
97827.6
97828
97843.7
97836.5
97856.3
97850.2
97864
97866.6
97873.5
97880.7
97886.1
97893.4
97899.5
97906.5
97913.8
97920.7
97929
97935.5
97945.7
97951.6
97963.4
97969.7
97982.4
97988.4
98003.8
98011
98029.4
98033.9
98056.9
98061.4
98085.2
98093.5
98116.9
98125.8
98150.1
98161
98184.7
98197.9
98221.4
98237.8
98260.4
98277
98298.2
98314.5
98335.7
98353.3
98374.4
98392.2
98412.6
98430.7
98452.5
98470.3
98491.9
98510.2
98531
98549.8
98571
98589.5
98612.1
98631.9
98653.5
98676.3
98698.2
98721.5
98745.9
98768.8
98795.9
98818.2
98847.1
98870.4
98899.4
98924.9
98953.3
98980.2
99006.8
99034.7
99063
99089.9
99118.3
99144.8
99172.3
99198.4
99224.4
99250.1
99276.2
99300.4
99326.2
99350
99375.7
99399.3
99424.4
99445.9
99472.1
99492.8
99518.8
99539.8
99564.2
99585.8
99610.4
99629.6
99656.4
99675.3
99699.4
99719.2
99743
99762.5
99786
99805.2
99828.9
99846.7
99869.1
99887.5
99911.3
99926.5
99950
99965.7
99987.2
100004
100024
100040
100061
100075
100096
100112
100129
100147
100163
100180
100197
100214
100230
100247
100262
100280
100294
100313
100327
100346
100360
100379
100392
100410
100424
100442
100456
100473
100488
100504
100519
100535
100550
100566
100580
100596
100610
100626
100640
100655
100669
100684
100698
100712
100725
100739
100753
100766
100780
100793
100806
100818
100831
100843
100856
100868
100880
100891
100903
100914
100925
100935
100946
100956
100966
100976
100986
100994
101004
101012
101021
101028
101037
101044
101051
101062
101067
101075
101081
101089
101095
101102
101108
101115
101120
101127
101132
101139
101143
101149
101155
101159
101165
101169
101175
101179
101186
101189
101196
101199
101205
101209
101215
101219
101224
101229
101234
101238
101243
101248
101252
101257
101262
101267
101271
101276
101280
101285
101290
101294
101299
101304
101308
101313
101318
101323
97449.3
97448
97447.5
97445.4
97443.8
97440.7
97437.4
97433.6
97429.3
97424.6
97419.6
97414.4
97408.9
97403.4
97397.7
97392.1
97386.5
97381
97375.6
97370.1
97364.9
97359.8
97354.8
97350.3
97345.9
97341.5
97337.5
97333.8
97329.9
97326.9
97323.1
97320.5
97317
97314.3
97311.6
97308.9
97306.7
97303.5
97302.3
97299.4
97298.6
97296.7
97295.3
97294.7
97292.9
97293.1
97292
97292.5
97292.2
97292.7
97293.2
97293.9
97294.5
97295.3
97296.1
97297
97297.8
97299.2
97299.9
97301.5
97301.6
97302.8
97302
97303.3
97301.9
97302.1
97300
97299.1
97296.1
97293.9
97289.7
97286.6
97279.8
97278.3
97268.4
97267.7
97256.9
97252.9
97247.2
97240
97239.8
97230.1
97235
97228.9
97234.9
97238.2
97245.7
97256.7
97269.1
97289.4
97302.5
97331.9
97352.3
97384.7
97407.2
97443
97467.5
97504
97534
97565.9
97595.2
97626.6
97653.3
97681.2
97706.5
97730.3
97750
97774.8
97786.6
97808.8
97819.8
97835.2
97849.7
97863.2
97873
97884.6
97892.7
97903.3
97907.4
97916.7
97920.2
97927
97930.1
97936.1
97938.2
97942.5
97943.9
97946.8
97947.8
97949.5
97949.7
97950.6
97948.6
97949.8
97944.2
97947
97937.8
97940.5
97930.2
97929.7
97920
97916.6
97909.3
97901.5
97894.2
97885.3
97877.4
97868.6
97863.1
97848.5
97847.8
97840.4
97838.7
97836.2
97841.2
97834.7
97853.8
97846.4
97867.1
97866.3
97890.2
97890.3
97913.5
97916.5
97929.6
97937.3
97949.3
97951.9
97958.1
97963.8
97966.4
97969.7
97971.4
97973.6
97972.1
97972.5
97970.3
97968.5
97967.2
97962.6
97960.9
97956.2
97951.8
97947.6
97941.7
97936.7
97931.2
97926.2
97920.2
97915
97909.1
97902.1
97898.9
97890.1
97889.8
97879.2
97878.1
97869.5
97865
97854.6
97857.5
97843.7
97848.3
97831.6
97838
97820.8
97826.5
97808.7
97815.6
97798.5
97805
97787.8
97794.3
97778
97786.2
97766.8
97782.9
97767.3
97774.8
97764.8
97769.8
97762.2
97770.4
97759.6
97769.5
97758.8
97767.1
97758.6
97764.1
97759.7
97761.8
97760.3
97760.2
97760.9
97759.5
97761.7
97759.1
97763.2
97759.8
97765.5
97762.3
97769.7
97766.3
97774.7
97771.7
97781.6
97778.5
97788
97786.7
97794.2
97796
97803
97803.6
97813.3
97815.4
97821.4
97824.9
97834
97830.8
97851.9
97840.4
97862.3
97857.6
97868.8
97872.8
97879.9
97885.7
97892.2
97898.9
97905.9
97912.9
97920.4
97927.8
97935.9
97943.3
97953.2
97960
97972.2
97978.6
97992.6
97999.5
98016.6
98020.8
98042.3
98047.3
98071.2
98075.7
98102.3
98107
98136.1
98140.5
98168.8
98177.5
98204.6
98214.5
98242.5
98257.4
98280.6
98296.4
98316.9
98333.5
98355.9
98372.5
98394
98411.3
98432.7
98450.5
98472.1
98490.3
98511.2
98529.3
98551.3
98568.8
98590.6
98610
98630.8
98653.2
98674.1
98697.3
98720.7
98743.8
98769.7
98791.7
98821
98843.1
98872.1
98897.3
98925.7
98951.7
98980.7
99008.7
99035.9
99063
99090.7
99118.6
99145.6
99172.9
99199.6
99224.5
99250.4
99276.2
99301.7
99325.6
99350.9
99374.6
99399.8
99423.5
99448.5
99469.8
99495.9
99516.9
99541.8
99561.7
99586.8
99607.4
99633
99653.4
99678
99696.1
99720.6
99740.1
99763.6
99783.8
99806.7
99826
99848.6
99866.9
99889.8
99905.7
99929.6
99945.5
99967.8
99983.9
100005
100021
100042
100057
100077
100094
100111
100129
100146
100163
100180
100197
100213
100230
100246
100264
100278
100296
100309
100330
100342
100363
100375
100394
100408
100426
100440
100457
100472
100488
100503
100520
100535
100551
100565
100581
100595
100611
100625
100641
100655
100670
100683
100698
100711
100725
100739
100753
100766
100779
100793
100805
100819
100831
100844
100855
100868
100879
100892
100903
100914
100925
100936
100946
100956
100966
100976
100985
100995
101003
101012
101020
101029
101036
101043
101053
101060
101069
101074
101082
101088
101096
101101
101109
101114
101121
101126
101133
101137
101144
101149
101154
101160
101164
101170
101174
101180
101184
101191
101194
101200
101204
101210
101214
101219
101224
101229
101234
101238
101243
101247
101253
101257
101262
101266
101271
101276
101280
101285
101290
101294
101299
101304
101308
101313
101318
101323
97451.9
97450.6
97450
97447.7
97446.1
97442.9
97439.4
97435.4
97431.1
97426.2
97421.1
97415.6
97410.1
97404.2
97398.4
97392.5
97386.6
97380.9
97375.2
97369.8
97364.4
97359.1
97354.1
97349.4
97345.2
97341.4
97337.5
97333.5
97330.3
97325.9
97323.8
97319.5
97317.4
97314
97311.8
97308.7
97307
97304.2
97301.7
97300.9
97297.5
97297.5
97295.2
97294.4
97293.8
97292.3
97292.8
97292
97292.9
97292.9
97294
97294.4
97295.5
97296.2
97297.7
97298.8
97300.6
97301.7
97302.2
97303.3
97304.6
97305.1
97305.6
97305.7
97305.5
97304.5
97303.5
97301.4
97299.3
97295.8
97293.1
97286.7
97284.7
97274.4
97273.2
97261.3
97256
97249.2
97242.3
97237.8
97223.4
97229.2
97216.2
97223.1
97222.5
97228.2
97235.6
97243.3
97258
97269.6
97298.5
97310.8
97343.3
97368.8
97403.5
97432.7
97465.2
97496.5
97530.9
97561.7
97594.4
97621.6
97652.6
97678.1
97705.2
97727.1
97753.8
97765.3
97791.7
97800.4
97821.3
97833.3
97849
97859.2
97871.5
97882.1
97892.1
97899.1
97907.9
97912.7
97919.8
97924.6
97929.1
97934.2
97937.5
97940.3
97943.4
97945.4
97947.4
97948.2
97949.4
97949.1
97949.7
97946.8
97948.2
97941.4
97944.4
97933.5
97937.1
97924.1
97925.1
97914.4
97908.4
97901.8
97892.7
97884.5
97874.8
97869.7
97853.3
97852.3
97841.2
97837.2
97833.4
97833.3
97829.4
97842.1
97832.9
97856.5
97850.8
97873.8
97875.1
97898.5
97894.6
97922.7
97916.7
97938.1
97942.1
97949.2
97953.8
97959.7
97962.3
97964
97968
97967.7
97968.7
97967.7
97966.5
97965.7
97961.4
97960.3
97955.4
97952.1
97948.5
97942.5
97938.2
97932.3
97927.6
97921.4
97916.4
97909.8
97904.9
97898.1
97891.9
97888.8
97881.5
97878.8
97868.8
97868
97857
97857.2
97846.4
97848
97836.7
97841.1
97823.7
97829.3
97813.6
97818.4
97802.3
97808.2
97790.4
97802.1
97780.8
97788.1
97772.8
97783.6
97765.5
97778.1
97765.5
97772.1
97762.7
97770
97760.1
97772.2
97757.6
97771.4
97757.2
97768.2
97758.1
97764.5
97759.7
97762.2
97760.9
97760.8
97761.7
97760.2
97762.9
97759.6
97765.1
97760.7
97768.3
97763.4
97773.2
97767.8
97778.8
97774.2
97785.7
97782.2
97790.8
97791.8
97797.5
97800.8
97806.9
97809.9
97816.2
97820
97826.6
97828.6
97841.4
97834.5
97856.4
97848.1
97864.4
97864.8
97873.7
97878.3
97884.7
97891.2
97897.9
97904.7
97912.1
97919.3
97926.9
97934.7
97942.7
97950.8
97960.4
97968.4
97980.4
97988.1
98002.9
98010.2
98026.9
98033.8
98056.6
98060.5
98085.5
98091.4
98119
98121.9
98154.1
98156.5
98188.2
98192
98227.2
98231.9
98264.5
98275.1
98299.8
98314.2
98336.1
98353.2
98374.5
98392.3
98412.9
98430.7
98452.3
98470.2
98491.9
98509
98531.1
98548.5
98569.7
98588.5
98609.5
98630.3
98650.4
98673.9
98695.6
98719.2
98743.1
98766.9
98794.1
98815.8
98846.9
98869.3
98897.8
98924.9
98952.9
98980.1
99008.5
99036.5
99063.4
99091.6
99119.3
99146.6
99173.2
99199.3
99225.2
99251.9
99276.3
99302.1
99326.3
99351.4
99375.8
99399.2
99424
99447.1
99472.1
99492.9
99519.4
99538.6
99564.1
99584.6
99609.9
99629.4
99655.4
99674.8
99698.5
99718.2
99743
99760.7
99784.5
99804.1
99825.4
99845.9
99868.3
99886.2
99908.7
99924.9
99947.9
99964.1
99985.6
100001
100023
100039
100059
100075
100093
100111
100128
100146
100162
100179
100196
100213
100229
100246
100261
100280
100293
100313
100325
100346
100358
100379
100391
100410
100424
100442
100456
100473
100487
100504
100519
100535
100550
100566
100580
100597
100610
100626
100640
100655
100669
100684
100697
100712
100725
100739
100753
100766
100780
100792
100806
100818
100832
100843
100857
100867
100880
100891
100903
100913
100925
100935
100946
100956
100966
100976
100986
100994
101004
101012
101021
101028
101036
101045
101051
101062
101067
101075
101081
101089
101094
101102
101107
101115
101120
101127
101132
101138
101143
101149
101154
101159
101165
101169
101175
101179
101186
101189
101196
101199
101205
101208
101215
101219
101224
101229
101234
101238
101243
101248
101252
101257
101261
101267
101271
101276
101280
101285
101289
101294
101299
101304
101308
101313
101318
101323
97454.7
97453.2
97452.6
97450.1
97448.5
97445.1
97441.3
97437.2
97432.6
97427.6
97422.2
97416.7
97410.8
97404.9
97398.8
97392.8
97386.8
97380.9
97375.1
97369.4
97363.8
97358.8
97353.9
97349.4
97345
97340.8
97336.9
97333.5
97329.2
97327.1
97322.8
97321
97316.8
97315.1
97311.7
97309.5
97306.6
97304.7
97302.2
97300.2
97299.6
97295.6
97296.5
97293.9
97293.7
97293.1
97292.7
97293.3
97292.8
97294.2
97294.1
97295.7
97296.3
97298.1
97299.1
97301.6
97302.6
97304.4
97305
97306.7
97307.8
97308.9
97309.3
97309.4
97309.3
97308.5
97307
97305.3
97302.2
97299.1
97293.4
97290.4
97281.2
97278.5
97267.4
97261.8
97253.5
97245.9
97239.9
97225.8
97228.1
97210.8
97214.2
97209.3
97211.9
97215.4
97220.6
97232.1
97241
97265.2
97276
97309
97328.4
97362.6
97388.6
97424.6
97456.5
97491.8
97522.4
97557.9
97587.5
97619.8
97647.2
97676.2
97699.9
97725.9
97742.2
97771.7
97776.4
97806.8
97811.6
97831.2
97843.8
97857.6
97869.8
97880.4
97889.6
97897.7
97905.1
97910.8
97917.8
97921.5
97928
97931.6
97935.8
97938.3
97941.3
97943.3
97945.7
97946.5
97947.8
97948.4
97947.5
97947.8
97944.2
97945.3
97937.6
97940.6
97927.5
97931.5
97917.9
97917.1
97907.7
97900.3
97891.9
97881.4
97876.1
97859.5
97856.7
97844.6
97838.9
97833.4
97830
97826.8
97831.2
97827.3
97844
97837.8
97861.3
97857.2
97882.6
97878.9
97910
97900
97927.1
97921.9
97940.7
97942.2
97950.4
97953.4
97956.1
97961
97961.3
97963.7
97962.8
97963.4
97962.5
97959.4
97957.7
97953.8
97950.7
97947.3
97941.7
97938.1
97932.8
97927.6
97922.1
97915.9
97910.1
97904.2
97898
97892.6
97886.3
97881.8
97875.3
97869.4
97865.7
97857.4
97855.6
97845.5
97846.3
97836.3
97837.5
97827.7
97827.8
97816.3
97820.1
97806.6
97814.8
97791.9
97802.4
97784.6
97790.5
97779.9
97785.5
97768.6
97782
97766
97776.3
97761.5
97771.4
97761.9
97771.4
97759.1
97774.4
97756.5
97773
97756.3
97769.3
97758.5
97765.3
97760.1
97763
97761.9
97761.8
97762.5
97761.3
97764.2
97761
97767.1
97762.3
97771.6
97765.3
97777
97769.9
97783
97776.5
97789.1
97786
97794.9
97795.6
97801.6
97804.8
97811
97814
97820.8
97824.1
97832.4
97831.5
97847.5
97840.6
97859.1
97855.7
97867.6
97870.2
97877.8
97883
97890.2
97896.4
97903.5
97910.6
97918.2
97925.4
97933.2
97941.6
97949.8
97958.9
97968.1
97977.6
97989.6
97998.7
98013.4
98021.3
98039.3
98047.8
98070.9
98074.6
98101.4
98105.7
98136.4
98139.4
98171.4
98172.3
98210.5
98206
98249.4
98250.9
98283.9
98294.1
98317.6
98332.3
98355.8
98371.7
98394.9
98411.2
98432.9
98450.1
98472.3
98489.4
98511.3
98528.3
98550.1
98567.4
98588.5
98608.4
98627.8
98651.9
98670.9
98694.8
98717.2
98741.4
98766.5
98790.3