/*--------------------------------*- C++ -*----------------------------------*\
| =========                 |                                                 |
| \\      /  F ield         | OpenFOAM: The Open Source CFD Toolbox           |
|  \\    /   O peration     | Version:  v1812                                 |
|   \\  /    A nd           | Web:      www.OpenFOAM.com                      |
|    \\/     M anipulation  |                                                 |
\*---------------------------------------------------------------------------*/
FoamFile
{
    version     2.0;
    format      ascii;
    class       surfaceScalarField;
    location    "1.1";
    object      phi;
}
// * * * * * * * * * * * * * * * * * * * * * * * * * * * * * * * * * * * * * //

dimensions      [1 0 -1 0 0 0 0];
oriented        oriented;


internalField   nonuniform List<scalar> 
40240
(
3.70527e-06
2.70343e-05
-4.47708e-05
7.89326e-05
-0.000129178
0.000114788
-0.000254716
0.000155735
-0.000396883
0.00017194
-0.000563969
0.000196536
-0.000749488
0.000214479
-0.000951529
0.000230456
-0.00117063
0.000246854
-0.00140328
0.000259642
-0.00165045
0.000273331
-0.0019079
0.000282754
-0.00217516
0.000291655
-0.00244825
0.000296379
-0.00272514
0.000298817
-0.00300229
0.000297425
-0.00327717
0.000293529
-0.00354695
0.000287078
-0.00380824
0.000277599
-0.00406001
0.000267209
-0.0042981
0.000252686
-0.00451948
0.00023525
-0.00471624
0.000210217
-0.00488107
0.000177949
-0.00500604
0.000137605
-0.00508469
9.06034e-05
-0.00512154
4.79182e-05
-0.00512045
9.4928e-06
-0.00509379
-1.69718e-05
-0.0050303
-5.44183e-05
-0.00494684
-7.48275e-05
-0.00484983
-8.88903e-05
-0.00475527
-8.71734e-05
-0.00466323
-8.52995e-05
-0.00457851
-7.82793e-05
-0.0045068
-6.56116e-05
-0.00442019
-8.10623e-05
-0.00433034
-8.49301e-05
-0.00421647
-0.000109363
-0.00408873
-0.000123711
-0.00394035
-0.000144692
-0.00378379
-0.000153292
-0.00361936
-0.000161537
-0.00345548
-0.000161341
-0.00328953
-0.000163716
-0.00312248
-0.000164991
-0.00294792
-0.000172476
-0.00276242
-0.000183334
-0.00256602
-0.000194034
-0.00236396
-0.000199549
-0.00216012
-0.000201206
-0.00196076
-0.000196873
-0.00177078
-0.000187783
-0.00159478
-0.000174078
-0.00143743
-0.000155558
-0.00129063
-0.000145019
-0.00116201
-0.000126655
-0.00103724
-0.000123088
-0.000956864
-7.83558e-05
-0.000902501
-5.20717e-05
-0.000895774
-5.23664e-06
-0.000906099
1.31181e-05
-0.00101685
0.000113085
-0.00113525
0.000121868
-0.00137941
0.000245237
-0.00161654
0.000241331
-0.00198624
0.000374063
-0.00236859
0.000387524
-0.00287288
0.00051003
-0.00343517
0.000568327
-0.0040929
0.000665061
-0.00486595
0.000780852
-0.00572125
0.00086493
-0.0067126
0.00100242
-0.00779206
0.00109129
-0.00903245
0.00125123
-0.0103643
0.00134695
-0.0118476
0.00149885
-0.0134187
0.00158863
-0.015116
0.00171589
-0.0168783
0.0017831
-0.0186827
0.00182773
-0.0205363
0.00188023
-0.0223147
0.00180638
-0.0239733
0.00168961
-0.0254129
0.00147417
-0.0265449
0.00116961
-0.0272605
0.00075493
-0.0276019
0.000381904
-0.0275957
3.91203e-05
-0.0272632
-0.000289245
-0.0266534
-0.000565052
-0.0259634
-0.000642489
-0.0251094
-0.000802171
-0.0241411
-0.000914047
-0.0229882
-0.00109595
-0.0216424
-0.00128686
-0.020169
-0.00141388
-0.0185174
-0.00159107
-0.0168341
-0.00162116
-0.0150117
-0.00175812
-0.013194
-0.00175164
-0.011326
-0.00179987
-0.00951179
-0.00174424
-0.00777658
-0.00166197
-0.00610154
-0.00159991
-0.0045145
-0.00151248
-0.0031362
-0.00129955
-0.0018721
-0.00118205
-0.000859357
-0.000928922
-0.000234461
-0.000534174
0.000456632
-0.000600597
0.000882596
-0.000337064
0.00144116
-0.000459074
0.00194485
-0.000414278
0.0024275
-0.000383091
0.00287611
-0.000348041
0.00329147
-0.000313555
0.00369362
-0.000291323
0.00404188
-0.000245629
0.00439186
-0.000235156
0.00469495
-0.000194026
0.00499957
-0.000194575
0.00524982
-0.000139164
0.00548981
-0.000130033
0.00565944
-6.27855e-05
0.00582817
-5.927e-05
0.00592019
1.19265e-05
0.0060096
1.49614e-05
0.00604859
6.18378e-05
0.00605468
9.09641e-05
0.0060375
0.000112895
0.00596004
0.000171279
0.00586023
0.00019189
0.00570352
0.000248264
0.00552033
0.000272124
0.00531622
0.000293478
0.00507414
0.000327732
0.00483777
0.000322037
0.0045641
0.000355948
0.00430299
0.000341886
0.00399598
0.000385555
0.00371224
0.000361213
0.00338062
0.00040564
0.00308024
0.000372335
0.00272705
0.000420935
0.00240064
0.000390693
0.00203606
0.000428868
0.0017099
0.000385061
0.00137243
0.000393371
0.00113962
0.000287479
0.000889466
0.000303023
0.000775336
0.000166235
0.000661394
0.000163747
0.000635021
7.6855e-05
0.000638904
4.5602e-05
0.000750712
-6.59759e-05
0.000913042
-0.000112159
0.00122987
-0.000273885
0.00160034
-0.000312571
0.00219864
-0.000541392
0.00282047
-0.000578677
0.00360935
-0.000732901
0.0043951
-0.000737217
0.00530315
-0.000865224
0.00616252
-0.000826869
0.00713638
-0.000931841
0.00799903
-0.00084288
0.00889522
-0.00085939
0.00970088
-0.000785699
0.0105588
-0.000830703
0.0113491
-0.000767928
0.0121283
-0.000761881
0.012874
-0.000730765
0.0135665
-0.00068172
0.0142246
-0.000649769
0.0147885
-0.000560664
0.0153256
-0.000520653
0.0157134
-0.000379576
0.0160787
-0.000344673
0.0162653
-0.000173157
0.0164203
-0.000138336
0.0164331
4.32066e-07
0.0164112
3.07062e-05
0.0162863
0.000130155
0.0160733
0.000213076
0.0158129
0.00025499
0.0154505
0.000352177
0.0150696
0.000365038
0.0145813
0.000467971
0.0141015
0.000452535
0.0135419
0.000531224
0.0129413
0.000564959
0.0123288
0.000582059
0.0116794
0.000615623
0.011048
0.000594731
0.0103536
0.000647384
0.00972178
0.000582641
0.00900383
0.000661802
0.00843363
0.000511681
0.00778527
0.000586445
0.00728793
0.000437407
0.00673331
0.000494793
0.00627398
0.00040326
0.00576314
0.00045618
0.00537096
0.000338395
0.00493394
0.000384983
0.00460907
0.000272771
0.00424519
0.000311722
0.00396529
0.000230641
0.00365423
0.000262362
0.00342506
0.000182909
0.00317032
0.000209282
0.00298387
0.000142854
0.00277621
0.000165227
0.00263277
0.000104942
0.00248515
0.000111222
0.00239301
5.70194e-05
0.00230124
6.09912e-05
0.00223858
3.34051e-05
0.00217011
4.21957e-05
0.00211981
2.61459e-05
0.00206619
3.24393e-05
0.00202911
1.85336e-05
0.00199117
2.25708e-05
0.00196723
1.18237e-05
0.00194482
1.28033e-05
0.00193471
2.72727e-06
0.00192575
5.20263e-06
0.0019247
6.87612e-07
0.00192705
1.22879e-06
0.00193763
-4.20443e-06
0.00195041
-4.64077e-06
0.00197888
-1.72778e-05
0.00201085
-1.85634e-05
0.00206327
-3.54602e-05
0.00212046
-3.76898e-05
0.00220048
-5.6522e-05
0.00228641
-6.03442e-05
0.00239798
-8.10934e-05
0.00251942
-9.21179e-05
0.00266719
-0.000115514
0.0028233
-0.000123346
0.0030055
-0.000146444
0.00319292
-0.000148478
0.00340958
-0.000174171
0.00363371
-0.000181102
0.00387689
-0.000197775
0.00412053
-0.000195151
0.00439056
-0.000215337
0.00466322
-0.000219574
0.00493985
-0.000220937
0.00521914
-0.000219437
0.00549098
-0.000213441
0.00575968
-0.000204317
0.00598224
-0.000159831
0.00621287
-0.000164806
0.00639392
-0.000114685
0.00659402
-0.000127969
0.00676353
-9.41126e-05
0.00693548
-9.07514e-05
0.0070752
-5.38367e-05
0.00722186
-5.25229e-05
0.00730716
9.00953e-06
0.00738037
2.53447e-05
0.00740061
8.15255e-05
0.00741081
9.4037e-05
0.00738442
0.000132991
0.00732708
0.000166154
0.00724736
0.000190692
0.00713134
0.000229491
0.00700714
0.000240949
0.00684167
0.000286006
0.00667253
0.000293531
0.00649157
0.000309071
0.00629001
0.000332635
0.00609423
0.000329014
0.00588244
0.000346296
0.0056888
0.000329362
0.0054792
0.000345952
0.00530118
0.000314643
0.00511197
0.000325307
0.00496312
0.000284988
0.00480575
0.000293648
0.00468937
0.0002534
0.00456693
0.000260037
0.00447852
0.00022712
0.00438492
0.000232196
0.00431747
0.000206617
0.00424631
0.000210147
0.00419701
0.000188823
0.00414996
0.000188241
0.00412407
0.000168454
0.00409416
0.000173017
0.00409297
0.000144483
0.00408623
0.000149639
0.00403818
0.000191599
0.00398438
0.000199513
0.00392122
0.000209952
0.00385024
0.000219421
0.00377364
0.000226395
0.00369128
0.000233598
0.00359854
0.000245454
0.00349408
0.000259487
0.00339221
0.000257255
0.00328285
0.000264776
0.00317794
0.000260938
0.00306343
0.000271745
0.00295811
0.000262576
0.00284402
0.000272789
0.00273447
0.000268578
0.00261679
0.000278607
0.00251264
0.000266186
0.00240592
0.000269676
0.00231658
0.000254473
0.00222618
0.000257325
0.00216311
0.000232726
0.0021006
0.000233637
0.00206658
0.00020873
0.00203429
0.000207777
0.00202336
0.000189463
0.00202511
0.00017805
0.00203565
0.000171145
0.00207343
0.000145857
0.00212059
0.000136042
0.00219254
0.0001138
0.00227012
0.000109037
0.00236837
8.97719e-05
0.0024735
8.41509e-05
0.00259201
7.20307e-05
0.00271532
6.77005e-05
0.00285393
5.45763e-05
0.0029971
5.12612e-05
0.00314277
5.02368e-05
0.00329425
4.539e-05
0.00344259
4.77886e-05
0.0035978
4.15364e-05
0.0037487
4.58189e-05
0.0039089
3.79249e-05
0.00406675
4.26329e-05
0.00423277
3.36377e-05
0.00439826
3.50074e-05
0.00457192
2.70514e-05
0.00474075
3.09597e-05
0.00492216
1.91437e-05
0.00510258
2.04995e-05
0.00529593
8.77319e-06
0.00548216
1.64848e-05
0.0056819
3.87371e-06
0.00588545
1.79839e-06
0.00610288
-1.21085e-05
0.00632161
-1.38422e-05
0.0065571
-3.03956e-05
0.006784
-2.2153e-05
0.0070322
-4.12959e-05
0.0072635
-2.75115e-05
0.00750987
-3.57154e-05
0.00774159
-2.90639e-05
0.00798625
-3.77871e-05
0.0082202
-3.24402e-05
0.00847442
-5.03956e-05
0.00871785
-3.99988e-05
0.00896661
-4.80144e-05
0.00920703
-4.02558e-05
0.00945444
-4.87931e-05
0.00968182
-3.04163e-05
0.00991761
-4.22719e-05
0.0101179
-6.70067e-06
0.0103264
-2.01509e-05
0.0104983
1.8683e-05
0.0106738
1.20236e-05
0.0108176
4.46335e-05
0.0109613
4.22846e-05
0.0110652
8.02528e-05
0.011165
8.12111e-05
0.0112359
0.000110156
0.0113137
0.000101177
0.0113586
0.000132105
0.0114034
0.000130925
0.0114272
0.000150593
0.0114565
0.000144041
0.0114691
0.000158667
0.0114775
0.00016076
0.0114818
0.000162666
0.0114792
0.000167443
0.0114714
0.000170477
0.0114616
0.000170248
0.0114479
0.000172032
0.0114347
0.000170146
0.0114258
0.000164419
0.0114131
0.000166671
0.0114009
0.000163247
0.0113845
0.000164949
0.0113739
0.000156678
0.011362
0.000155746
0.0113522
0.000150422
0.0113373
0.000153046
0.0113312
0.000142254
0.0113204
0.000145346
0.0113213
0.000130429
0.0113192
0.000131834
0.0113212
0.000124579
0.0113201
0.000125768
0.0113286
0.000114241
0.0113384
0.000111126
0.0113502
0.000107427
0.0113653
0.000102151
0.0113827
9.78452e-05
0.0114007
9.47478e-05
0.0114159
9.54734e-05
0.0114389
8.55814e-05
0.0114617
8.33964e-05
0.0114904
7.53248e-05
0.0115208
7.15329e-05
0.0115552
6.56008e-05
0.0115905
6.28616e-05
0.0116294
5.76947e-05
0.0116693
5.51008e-05
0.0117121
5.02271e-05
0.0117609
4.44075e-05
0.0118022
4.86159e-05
0.0118606
3.08473e-05
0.0119011
4.5907e-05
0.0119611
2.38436e-05
0.0120153
3.20557e-05
0.0120731
2.69628e-05
0.0121312
2.60555e-05
0.0121887
2.45515e-05
0.0122481
2.11548e-05
0.0123037
2.39161e-05
0.0123651
1.8349e-05
0.0124213
2.14569e-05
0.0124826
1.63346e-05
0.0125371
2.09473e-05
0.0125974
1.46491e-05
0.0126501
2.13883e-05
0.0127089
1.41974e-05
0.0127608
2.01884e-05
0.0128186
1.36608e-05
0.0128685
2.06671e-05
0.012924
1.45798e-05
0.0129718
2.12632e-05
0.0130233
1.69193e-05
0.0130684
2.31287e-05
0.0131166
1.87546e-05
0.0131585
2.5063e-05
0.0132058
1.85967e-05
0.0132416
2.8914e-05
0.0132939
1.39079e-05
0.0133213
3.57195e-05
0.0133679
1.52137e-05
0.0134082
2.3022e-05
0.0134452
2.49259e-05
0.0134837
2.32951e-05
0.0135181
2.74324e-05
0.0135554
2.31882e-05
0.0135867
2.93515e-05
0.0136223
2.43442e-05
0.0136514
3.03882e-05
0.0136851
2.53929e-05
0.0137129
3.083e-05
0.0137457
2.57089e-05
0.0137697
3.36397e-05
0.0138052
2.26634e-05
0.0138249
3.67255e-05
0.0138565
2.32341e-05
0.013882
2.95965e-05
0.0139067
2.94257e-05
0.0139314
2.84964e-05
0.0139533
3.06266e-05
0.0139775
2.68225e-05
0.0139975
3.03291e-05
0.0140205
2.61749e-05
0.0140392
2.95891e-05
0.0140606
2.57421e-05
0.0140774
2.9134e-05
0.0140978
2.47217e-05
0.0141112
2.9947e-05
0.0141313
2.20767e-05
0.0141427
2.8346e-05
0.0141597
2.08848e-05
0.0141741
2.31355e-05
0.0141873
2.2066e-05
0.0141991
2.14009e-05
0.0142089
2.12482e-05
0.0142188
1.92431e-05
0.0142254
2.0384e-05
0.0142344
1.62048e-05
0.014238
1.94777e-05
0.0142433
1.59089e-05
0.0142481
1.46637e-05
0.0142504
1.50734e-05
0.0142526
1.33388e-05
0.0142543
1.20711e-05
0.014255
1.12977e-05
0.0142548
1.03402e-05
0.0142537
9.22529e-06
0.014252
7.46252e-06
0.0142485
6.80526e-06
7.45061e-06
-4.109e-05
9.88614e-05
-0.000194797
0.000263052
-0.000438184
0.000388395
-0.000771435
0.000518911
-0.00115904
0.000589007
-0.00159617
0.000662821
-0.00206133
0.000708327
-0.00255132
0.000748579
-0.00305517
0.000778211
-0.00357276
0.000803932
-0.00409213
0.000818625
-0.0046121
0.000827761
-0.00512082
0.000824516
-0.00561653
0.000815142
-0.00609045
0.000794438
-0.00654038
0.00076747
-0.00696159
0.000733193
-0.00735129
0.000693906
-0.00770806
0.000650498
-0.00802991
0.000604558
-0.00831999
0.000557446
-0.00857115
0.000500449
-0.00878192
0.000434608
-0.00894428
0.000353583
-0.0090564
0.000262438
-0.00912053
0.000166741
-0.00913999
7.85967e-05
-0.00912444
4.49892e-06
-0.00906609
-6.55046e-05
-0.00898726
-0.000123949
-0.00886925
-0.000184023
-0.00874064
-0.000209279
-0.00859102
-0.00022919
-0.00842981
-0.000239762
-0.00826701
-0.00023459
-0.00808652
-0.000240148
-0.00790767
-0.000254613
-0.00770018
-0.000287591
-0.0074877
-0.000317495
-0.00724602
-0.000361358
-0.00698943
-0.000397648
-0.00671112
-0.000428276
-0.00641708
-0.000452655
-0.00610741
-0.000468392
-0.00578771
-0.000481082
-0.00545677
-0.000493737
-0.00512163
-0.00050549
-0.00477772
-0.000524989
-0.0044309
-0.000538404
-0.00408157
-0.000546314
-0.00373758
-0.000542621
-0.00340122
-0.000530827
-0.00308184
-0.000505035
-0.00278494
-0.000468973
-0.00252139
-0.000417126
-0.00230188
-0.000362539
-0.00212745
-0.000298967
-0.00201792
-0.000230717
-0.00194691
-0.000147652
-0.00197594
-1.95669e-05
-0.00202218
4.00214e-05
-0.00224047
0.000237492
-0.00245658
0.000329927
-0.00292613
0.000594854
-0.0033712
0.000693028
-0.00406868
0.00093809
-0.00479714
0.00111011
-0.00571158
0.00130651
-0.00675427
0.00155901
-0.00790165
0.00172211
-0.00925417
0.00202464
-0.0106518
0.00218732
-0.0122784
0.00250092
-0.0139226
0.00265851
-0.015768
0.00294696
-0.0176351
0.0031239
-0.0196181
0.00335357
-0.0215994
0.00349795
-0.0235935
0.00360034
-0.0255379
0.00367872
-0.0273715
0.00363825
-0.0290577
0.00353725
-0.030543
0.00339178
-0.0317578
0.00304765
-0.0327406
0.00270332
-0.033452
0.00221941
-0.0339368
0.00169128
-0.0342352
0.00109321
-0.0343364
0.000525388
-0.0342696
1.55852e-05
-0.0339319
-0.000583437
-0.0334061
-0.00104685
-0.0325168
-0.00148598
-0.0314259
-0.00184451
-0.0301396
-0.00214671
-0.0286351
-0.00254218
-0.0269166
-0.00294629
-0.0249861
-0.00328567
-0.0229093
-0.00360694
-0.0206799
-0.00378986
-0.0183548
-0.00401821
-0.0159421
-0.00409934
-0.0134696
-0.00420526
-0.0109622
-0.00418248
-0.00849673
-0.00405541
-0.00623682
-0.00378589
-0.00435923
-0.00332196
-0.00282355
-0.00276295
-0.00146141
-0.00246564
-0.000289095
-0.00201682
0.00122505
-0.00196184
0.00250946
-0.00179354
0.00412653
-0.00185462
0.00545974
-0.00170773
0.00674962
-0.00159811
0.00796943
-0.00151476
0.00905905
-0.00133762
0.0100939
-0.0012403
0.0109889
-0.00108062
0.0118587
-0.00100382
0.0126062
-0.000869964
0.0133515
-0.000830667
0.0139637
-0.000698254
0.0145634
-0.000623602
0.0150211
-0.00047967
0.0154729
-0.000402535
0.0157428
-0.000225918
0.0160364
-0.0001721
0.0161604
-4.46828e-06
0.0162552
6.95573e-05
0.0162585
0.000185132
0.0161628
0.000305279
0.0160135
0.000414682
0.0157061
0.000592619
0.0153616
0.000683151
0.0148987
0.000828643
0.0143572
0.000917371
0.0137689
0.00100444
0.0130986
0.00107502
0.0124337
0.00110785
0.0116696
0.00118354
0.0109304
0.00120618
0.0100928
0.001271
0.00930404
0.00126927
0.00842692
0.00131722
0.00759213
0.00131971
0.00669557
0.0013552
0.00587152
0.00130469
0.00503939
0.00127922
0.0043466
0.00114378
0.00367397
0.00101109
0.00331001
0.000729051
0.00289396
0.000627625
0.00277699
0.000331507
0.00273621
0.000167202
0.00295975
-0.000132173
0.0033021
-0.000357003
0.00404382
-0.000820735
0.00491757
-0.00108026
0.0061968
-0.00156205
0.00759738
-0.0018793
0.00933397
-0.00226241
0.0110933
-0.00244356
0.0131313
-0.00271488
0.0150042
-0.00270556
0.0171162
-0.00287042
0.0190012
-0.00281263
0.0209763
-0.00275606
0.0227616
-0.00264807
0.0245657
-0.00257521
0.0262752
-0.00250755
0.0279564
-0.00243371
0.0295714
-0.00234762
0.0310902
-0.0022396
0.03256
-0.00213478
0.0338849
-0.00197001
0.0351736
-0.00183626
0.0362149
-0.00155588
0.0372404
-0.00137827
0.0379446
-0.00104253
0.0386742
-0.000881168
0.0390185
-0.000480019
0.0393696
-0.000333767
0.0394559
-4.48379e-05
0.0394437
0.000147276
0.0392776
0.000378529
0.0389065
0.000621876
0.0384838
0.000764196
0.0378034
0.00102975
0.0371134
0.00113722
0.0362081
0.00133454
0.0352287
0.00147426
0.034135
0.00164482
0.0328969
0.00176788
0.0316171
0.00185753
0.0302277
0.00195537
0.0288345
0.00198961
0.0273194
0.00206462
0.025895
0.00201985
0.024312
0.00203768
0.0229855
0.00185497
0.0215584
0.00180199
0.0202933
0.00170435
0.0189461
0.00169226
0.0177874
0.0015601
0.0165414
0.00153434
0.0155334
0.00134052
0.0144524
0.00130063
0.0135712
0.00114327
0.0126294
0.00111634
0.0118897
0.000957065
0.0110963
0.000927801
0.0104913
0.00076932
0.00985217
0.000737833
0.00938178
0.000595413
0.00889296
0.000556335
0.00854985
0.000414002
0.00821734
0.000358536
0.00798561
0.000260256
0.00775844
0.000232938
0.00759318
0.000179734
0.00742944
0.000168004
0.00731028
0.000128918
0.00719218
0.000118363
0.00711301
8.70482e-05
0.00703341
7.81833e-05
0.00698339
5.33962e-05
0.0069392
4.0393e-05
0.00692841
1.30797e-05
0.00692296
6.19771e-06
0.00694072
-1.35578e-05
0.00696763
-2.44167e-05
0.00703364
-6.1573e-05
0.00710462
-8.00915e-05
0.00723127
-0.000130025
0.00736668
-0.000155145
0.00756283
-0.000212828
0.00777442
-0.000245495
0.00805114
-0.000309818
0.00834434
-0.000347183
0.00871065
-0.000427421
0.00909097
-0.000465953
0.0095458
-0.000546712
0.0100092
-0.000572498
0.0105432
-0.000642562
0.0110861
-0.000676695
0.0116989
-0.000753366
0.0123088
-0.000757001
0.0129532
-0.000794897
0.0136132
-0.000830537
0.0143036
-0.000850574
0.0149835
-0.000840956
0.0156767
-0.000855228
0.0163667
-0.000839327
0.0169895
-0.000764871
0.0176164
-0.000722153
0.0181255
-0.000607245
0.018663
-0.000586699
0.0191069
-0.0005021
0.0195914
-0.000504544
0.0200034
-0.000425091
0.0204343
-0.000394357
0.0207571
-0.000285888
0.021084
-0.000220784
0.0212653
-5.91067e-05
0.0214349
1.44196e-05
0.0214847
0.000148009
0.0214964
0.000227656
0.0214309
0.000340084
0.0212873
0.000444759
0.0211185
0.000510979
0.0208402
0.000635283
0.0205582
0.00068767
0.0201997
0.000775939
0.0198132
0.000823018
0.0193935
0.00088338
0.018937
0.00091761
0.0184943
0.000924074
0.0180066
0.000952127
0.0175644
0.000924472
0.0170885
0.000927641
0.0166878
0.000861422
0.0162591
0.000850393
0.0159203
0.000768682
0.0155605
0.000750701
0.0152912
0.000667258
0.0150014
0.000655105
0.0147878
0.000585482
0.0145536
0.000579276
0.0143782
0.00052509
0.014195
0.000512199
0.0140621
0.000461469
0.0139278
0.000446689
0.0138467
0.000398104
0.0137749
0.000359829
0.0137069
0.000360508
0.0135945
0.000448086
0.0134208
0.000516565
0.0132301
0.000547575
0.0130137
0.000583508
0.012781
0.000610846
0.0125353
0.000629628
0.0122682
0.00066746
0.0119818
0.000700334
0.0116722
0.000723061
0.0113721
0.000720536
0.0110477
0.000742879
0.010743
0.000732903
0.0104174
0.000746154
0.0101148
0.000733118
0.00979004
0.000753936
0.0094951
0.000734287
0.00918587
0.000737439
0.00892639
0.000692365
0.00866079
0.000683112
0.00846635
0.000616979
0.00826791
0.000599615
0.00815495
0.000520837
0.00804592
0.000488424
0.00799952
0.000429988
0.00798661
0.000380824
0.00801185
0.00033287
0.00809373
0.000272962
0.00820181
0.000218825
0.00837652
0.000147038
0.00857912
9.52385e-05
0.00883603
3.90436e-05
0.00911076
3.28248e-06
0.0094331
-4.79193e-05
0.00976255
-6.6897e-05
0.0101254
-0.000102557
0.010499
-0.000128043
0.010893
-0.00014634
0.0112968
-0.000156318
0.0116925
-0.000153705
0.0121016
-0.000163596
0.0125055
-0.000166382
0.0129209
-0.000166974
0.0133216
-0.000165164
0.0137363
-0.000175211
0.0141486
-0.000176071
0.0145692
-0.000185868
0.014989
-0.000189411
0.0154221
-0.000201964
0.015858
-0.00021542
0.0163103
-0.000230104
0.0167611
-0.000239715
0.0172303
-0.000250089
0.0176998
-0.000262016
0.0181906
-0.000284025
0.0186989
-0.0003152
0.0192313
-0.00034056
0.0197609
-0.000353683
0.0203149
-0.000370874
0.0208552
-0.000376795
0.0214197
-0.000381742
0.0219559
-0.000375632
0.0225267
-0.000385068
0.0230627
-0.000369566
0.0236247
-0.000387634
0.0241699
-0.000394029
0.0247433
-0.000412345
0.0252944
-0.000396645
0.0258634
-0.000410185
0.0263999
-0.000383043
0.0269565
-0.000393251
0.0274416
-0.000331098
0.0279539
-0.000325134
0.0283847
-0.000261994
0.0288435
-0.000248998
0.0292194
-0.000177029
0.0296201
-0.000166257
0.0299303
-7.60673e-05
0.0302375
-4.58155e-05
0.0304669
3.64185e-05
0.0307034
5.29697e-05
0.0308553
0.000128668
0.0310139
0.000149757
0.0311261
0.000194966
0.0312588
0.000193738
0.0313034
0.000272945
0.0313659
0.000268167
0.0313974
0.000298854
0.0314066
0.000320743
0.0314091
0.00033003
0.0313991
0.000343511
0.0313709
0.00035944
0.0313407
0.000361328
0.0313025
0.000365481
0.0312548
0.000367449
0.0312145
0.00036088
0.0311603
0.000368636
0.0311164
0.000357196
0.0310604
0.000359567
0.0310208
0.000338979
0.0309681
0.000344144
0.0309281
0.000331203
0.0308757
0.000329889
0.0308439
0.000313587
0.0307995
0.000305932
0.0307697
0.000292524
0.0307323
0.000288388
0.0307195
0.000263313
0.0306955
0.000260546
0.030698
0.000229026
0.030701
0.000223872
0.0307085
0.000211893
0.030714
0.000207715
0.030722
0.000199604
0.0307401
0.000188364
0.0307653
0.000169084
0.0307995
0.000155796
0.0308409
0.000138443
0.030886
0.000128545
0.030937
0.000115237
0.0309946
0.000103949
0.0310547
9.39655e-05
0.0311245
8.1065e-05
0.0312006
6.94617e-05
0.0312769
5.93571e-05
0.0313822
3.6783e-05
0.0314546
4.80958e-05
0.0315762
8.47385e-06
0.0316614
2.56509e-05
0.0317721
4.77272e-06
0.031888
-1.00986e-06
0.0319994
-1.62464e-06
0.032118
-1.27299e-05
0.0322329
-1.18818e-05
0.0323606
-2.28083e-05
0.0324754
-1.79077e-05
0.0326028
-2.65762e-05
0.0327156
-2.15908e-05
0.0328438
-2.89033e-05
0.0329559
-2.21568e-05
0.0330806
-2.8559e-05
0.0331907
-2.19593e-05
0.0333124
-2.91102e-05
0.0334186
-2.04141e-05
0.0335376
-2.6534e-05
0.033642
-1.87307e-05
0.0337549
-2.20278e-05
0.0338511
-9.58072e-06
0.0339583
-1.54402e-05
0.0340478
-1.35127e-06
0.034144
-5.04049e-06
0.034226
2.33975e-06
0.034334
-9.7107e-06
0.0343909
2.28793e-05
0.0345024
-1.32958e-05
0.034568
1.31457e-05
0.0346449
7.50128e-06
0.0347279
5.5923e-06
0.0347963
1.61168e-05
0.0348756
9.95095e-06
0.0349403
2.05182e-05
0.0350135
1.62937e-05
0.035073
2.53067e-05
0.0351422
2.05208e-05
0.0351979
2.89538e-05
0.0352644
2.34756e-05
0.0353148
3.3009e-05
0.0353858
2.1786e-05
0.0354249
4.12457e-05
0.0354972
2.06713e-05
0.0355378
3.83957e-05
0.0355889
3.17773e-05
0.0356418
3.14351e-05
0.0356861
3.74514e-05
0.0357365
3.24821e-05
0.0357772
3.77939e-05
0.035825
3.26856e-05
0.0358624
3.81515e-05
0.0359071
3.31032e-05
0.0359419
3.81435e-05
0.0359843
3.31994e-05
0.036013
4.01783e-05
0.0360563
3.10664e-05
0.0360787
4.13558e-05
0.0361167
2.91816e-05
0.0361418
3.5135e-05
0.0361691
3.18018e-05
0.0361954
3.08781e-05
0.0362166
3.2837e-05
0.0362391
3.00211e-05
0.0362567
3.11915e-05
0.0362773
2.75676e-05
0.0362867
3.21635e-05
0.036303
2.57677e-05
0.0363116
2.91343e-05
0.0363183
2.74345e-05
0.036326
2.50494e-05
0.0363304
2.46214e-05
0.0363335
2.28379e-05
0.0363352
2.16497e-05
0.0363351
2.06516e-05
0.0363334
1.92568e-05
0.0363303
1.64396e-05
0.0363253
1.52629e-05
1.54367e-05
-7.66123e-05
0.000205859
-0.000332294
0.000548822
-0.000721783
0.000807855
-0.00122239
0.00104923
-0.00179699
0.00119285
-0.00242987
0.00132469
-0.00309579
0.00140269
-0.00377593
0.00145666
-0.00445902
0.00148849
-0.00513016
0.00150156
-0.00578414
0.00149816
-0.00640816
0.00147658
-0.00699959
0.00143977
-0.00754932
0.0013877
-0.00805657
0.00132317
-0.00851659
0.00124749
-0.00893007
0.00116516
-0.00929593
0.00107704
-0.00961526
0.000986262
-0.00988976
0.000894714
-0.0101206
0.000803195
-0.0103096
0.000703595
-0.0104545
0.000593304
-0.0105571
0.000469499
-0.0106194
0.000337615
-0.0106474
0.000206979
-0.0106442
8.66952e-05
-0.0106093
-1.97362e-05
-0.010551
-0.000113932
-0.0104672
-0.000198432
-0.0103663
-0.000276025
-0.0102354
-0.000331758
-0.0100781
-0.000378909
-0.0099062
-0.000404629
-0.00969541
-0.00043884
-0.00948138
-0.000447889
-0.0092358
-0.000494505
-0.00898455
-0.000533727
-0.0087121
-0.000585268
-0.00842727
-0.000642113
-0.00812335
-0.00069782
-0.00780221
-0.000746102
-0.0074574
-0.000794553
-0.00709156
-0.000831702
-0.00670171
-0.000868735
-0.00629924
-0.000894225
-0.00588819
-0.000914605
-0.00547631
-0.000934764
-0.0050663
-0.0009462
-0.00466309
-0.000947312
-0.00426804
-0.000935698
-0.00388789
-0.000909119
-0.0035278
-0.000863211
-0.00319826
-0.000796413
-0.0029127
-0.000700399
-0.00268329
-0.000589484
-0.00253474
-0.000445239
-0.00245389
-0.000310008
-0.00248279
-0.000117083
-0.00254325
4.34075e-05
-0.002799
0.000297686
-0.00306144
0.000501987
-0.00356127
0.000832493
-0.00409252
0.00112976
-0.00484513
0.00145178
-0.00570715
0.00180424
-0.00672397
0.00213174
-0.00791873
0.00250637
-0.00920669
0.00285283
-0.0107013
0.0032229
-0.0122456
0.00357639
-0.0139805
0.00393039
-0.0157379
0.00426837
-0.0176452
0.00457567
-0.0195489
0.00486568
-0.0215215
0.00510273
-0.0234472
0.00529551
-0.0253431
0.00540959
-0.0271242
0.00539922
-0.0288133
0.0053873
-0.0302992
0.00514561
-0.0316385
0.00490062
-0.0326793
0.00445927
-0.033519
0.00391862
-0.0341081
0.00332481
-0.0345216
0.0026671
-0.0347533
0.00195993
-0.0348816
0.00126139
-0.0349048
0.000589963
-0.0347697
-7.79001e-05
-0.0345643
-0.000743265
-0.0340127
-0.00155756
-0.033202
-0.00222832
-0.0319353
-0.00306559
-0.0303337
-0.00369236
-0.0285275
-0.00428147
-0.0265237
-0.00489369
-0.0243816
-0.00536648
-0.0220895
-0.00583731
-0.0197047
-0.00611149
-0.0172161
-0.00644099
-0.0147048
-0.00654724
-0.0121316
-0.00671324
-0.00964018
-0.00660757
-0.00722358
-0.00640341
-0.00508336
-0.00585619
-0.0032248
-0.00511086
-0.00129068
-0.00461507
0.00031265
-0.0039946
0.0022986
-0.00392163
0.00420405
-0.00378285
0.00643099
-0.00393377
0.0084904
-0.00382962
0.0104829
-0.00359878
0.0123006
-0.00333822
0.0139179
-0.00302567
0.0154614
-0.00279137
0.0167804
-0.00246154
0.018077
-0.00226346
0.0191456
-0.00197838
0.0202262
-0.0018248
0.0211016
-0.00160996
0.021965
-0.00143968
0.022654
-0.00121134
0.0233366
-0.00103364
0.0237803
-0.00074372
0.0242648
-0.000593925
0.0245193
-0.000318081
0.0247564
-0.000133271
0.0248389
9.14672e-05
0.0248194
0.000306265
0.024706
0.000516927
0.0244218
0.000795031
0.0240978
0.00101059
0.0235426
0.00133208
0.0229392
0.00151906
0.0221745
0.00177675
0.0213079
0.0019494
0.0203774
0.00210055
0.0193161
0.00224478
0.0182539
0.00232951
0.017075
0.00245656
0.0159251
0.00249925
0.0146811
0.00258023
0.0134835
0.00259167
0.012215
0.00265062
0.0110192
0.0026141
0.00981866
0.00256751
0.00874992
0.00240029
0.00775875
0.00220349
0.00702442
0.00177645
0.00635974
0.00146517
0.00607825
0.000957953
0.00591075
0.000548675
0.00612216
6.46465e-06
0.00648394
-0.000438271
0.00739759
-0.00123877
0.0084888
-0.00183763
0.0100471
-0.00265432
0.0118944
-0.00331629
0.0140097
-0.00396186
0.016296
-0.00449928
0.0187992
-0.00487406
0.0212929
-0.00517509
0.0239057
-0.00525355
0.0263557
-0.00531108
0.0289697
-0.00531179
0.0312952
-0.00513213
0.0336214
-0.00492591
0.035852
-0.00479644
0.0379934
-0.0046391
0.0400687
-0.00448301
0.0420539
-0.0043196
0.0439863
-0.00414628
0.045778
-0.00392836
0.0475216
-0.00369204
0.0490384
-0.0033578
0.0505419
-0.00303203
0.051728
-0.00258568
0.0529751
-0.00225198
0.0537744
-0.0016699
0.0546757
-0.00136111
0.0551771
-0.000821824
0.055625
-0.000482446
0.0558249
-4.64793e-05
0.0558683
0.000333474
0.0557656
0.000720768
0.0554315
0.00108862
0.0550079
0.00143989
0.0542765
0.00185101
0.0534975
0.00209062
0.0524647
0.00247945
0.0513382
0.00273758
0.0500076
0.00307192
0.0485264
0.00329558
0.0469794
0.00349432
0.0451982
0.0036949
0.0434258
0.00380365
0.041514
0.00388297
0.0396083
0.00389471
0.0376515
0.00374385
0.035763
0.00363328
0.0338617
0.00355129
0.0320432
0.0034506
0.0301862
0.00337714
0.0284869
0.00316711
0.0267824
0.00300235
0.0252722
0.00276248
0.0237394
0.00261875
0.0224291
0.00238231
0.0210954
0.00223982
0.0199828
0.00199163
0.0188758
0.00182981
0.0179944
0.00156848
0.0171347
0.00142047
0.0164797
0.00116992
0.0158398
0.00102083
0.0153572
0.000805613
0.0149103
0.000680256
0.0145757
0.000537956
0.0142599
0.000470902
0.0140384
0.000362437
0.0138291
0.000318689
0.0136798
0.000247354
0.0135359
0.00021461
0.0134401
0.000162308
0.0133498
0.000132982
0.0132994
8.23065e-05
0.0132557
5.44941e-05
0.0132593
2.90596e-06
0.013281
-3.13126e-05
0.0133516
-8.8619e-05
0.0134321
-0.000133706
0.013585
-0.000221114
0.0137492
-0.000282293
0.0139973
-0.00038234
0.0142633
-0.000462459
0.0146245
-0.000578983
0.0150074
-0.000673406
0.0154936
-0.000798863
0.0160033
-0.000909752
0.016603
-0.00103353
0.0172284
-0.00114031
0.0179404
-0.00124869
0.018665
-0.00132281
0.019488
-0.00146142
0.020323
-0.00153499
0.0211855
-0.00158666
0.0220786
-0.0016293
0.023023
-0.0017189
0.0239362
-0.00173406
0.0249151
-0.00174809
0.0258718
-0.00173609
0.0268028
-0.0017193
0.0277291
-0.00161881
0.0285384
-0.00146838
0.0293514
-0.00134817
0.0300249
-0.00119419
0.0307484
-0.00115848
0.0313825
-0.00106792
0.0320531
-0.00101315
0.0326247
-0.000885194
0.0332196
-0.000789436
0.0336274
-0.000542867
0.0340544
-0.000379165
0.0342855
-0.000115831
0.0345136
2.41059e-05
0.0345825
0.00026418
0.034594
0.000435434
0.0345247
0.000623209
0.034351
0.000795862
0.034145
0.000954718
0.0338032
0.00114632
0.0334492
0.00125075
0.0330005
0.00139735
0.0325092
0.00150255
0.0319856
0.00157412
0.0314057
0.00163707
0.0308369
0.00165508
0.0302163
0.0016837
0.0296529
0.00162357
0.0290428
0.00160977
0.02853
0.00149732
0.0279687
0.00146869
0.0275287
0.00132972
0.0270454
0.00128923
0.026676
0.00116637