/*--------------------------------*- C++ -*----------------------------------*\
| =========                 |                                                 |
| \\      /  F ield         | OpenFOAM: The Open Source CFD Toolbox           |
|  \\    /   O peration     | Version:  v1812                                 |
|   \\  /    A nd           | Web:      www.OpenFOAM.com                      |
|    \\/     M anipulation  |                                                 |
\*---------------------------------------------------------------------------*/
FoamFile
{
    version     2.0;
    format      ascii;
    class       volScalarField;
    location    "1.1";
    object      rho;
}
// * * * * * * * * * * * * * * * * * * * * * * * * * * * * * * * * * * * * * //

dimensions      [1 -3 0 0 0 0 0];


internalField   nonuniform List<scalar> 
20400
(
1.17739
1.17736
1.1773
1.17715
1.17689
1.1765
1.17598
1.17535
1.17465
1.17393
1.17323
1.17258
1.17202
1.17155
1.17117
1.17089
1.17068
1.17054
1.17044
1.17036
1.1703
1.17024
1.1702
1.17017
1.17016
1.17015
1.17015
1.17016
1.17016
1.17015
1.17013
1.17009
1.17006
1.17002
1.16997
1.16991
1.16983
1.16973
1.16961
1.16948
1.16934
1.1692
1.16905
1.1689
1.16875
1.1686
1.16845
1.16832
1.16819
1.16807
1.16796
1.16786
1.16776
1.16766
1.16757
1.16747
1.16737
1.16726
1.16715
1.16703
1.16691
1.16676
1.16661
1.16646
1.16629
1.16616
1.16596
1.16582
1.16559
1.16543
1.16517
1.165
1.16474
1.16456
1.16433
1.16417
1.164
1.16388
1.16376
1.16366
1.16358
1.16354
1.16351
1.16353
1.16358
1.16367
1.16377
1.16391
1.16405
1.16427
1.16451
1.16472
1.16501
1.16531
1.16563
1.16595
1.16625
1.16654
1.1668
1.16706
1.16729
1.16754
1.16778
1.16803
1.16828
1.16852
1.16878
1.16904
1.16935
1.16968
1.17007
1.17037
1.1708
1.17112
1.17146
1.17188
1.17233
1.17284
1.17336
1.17392
1.17449
1.17508
1.17565
1.17623
1.17679
1.17733
1.17783
1.17832
1.17873
1.1791
1.17938
1.17958
1.1797
1.17975
1.17978
1.17975
1.17973
1.17966
1.1796
1.17949
1.17936
1.17919
1.17902
1.1788
1.17859
1.17832
1.17807
1.17775
1.17746
1.17709
1.17673
1.17635
1.17595
1.17557
1.1752
1.17493
1.17474
1.17466
1.17464
1.17468
1.17477
1.17484
1.17493
1.17503
1.17513
1.1752
1.17529
1.17527
1.17532
1.17531
1.17536
1.17535
1.17538
1.17535
1.17538
1.17535
1.17539
1.17546
1.17566
1.17593
1.17632
1.17672
1.17717
1.1776
1.17801
1.17838
1.17867
1.17891
1.17905
1.17915
1.17914
1.17914
1.17904
1.179
1.17891
1.17881
1.17863
1.17834
1.17791
1.17741
1.17687
1.17639
1.1759
1.1755
1.17508
1.17471
1.1743
1.17393
1.17352
1.17315
1.17276
1.17241
1.17205
1.17172
1.17141
1.17113
1.17086
1.17063
1.17039
1.17017
1.16996
1.16977
1.16959
1.16945
1.16932
1.16921
1.16912
1.16904
1.16897
1.16891
1.16887
1.16883
1.16881
1.1688
1.1688
1.1688
1.1688
1.1688
1.16881
1.16881
1.16881
1.1688
1.16879
1.16876
1.16873
1.1687
1.16867
1.16864
1.16863
1.16864
1.16863
1.16861
1.16858
1.16851
1.16841
1.16827
1.16812
1.16798
1.16789
1.16786
1.16789
1.16794
1.16802
1.16813
1.16826
1.16847
1.16872
1.16903
1.16938
1.16976
1.17015
1.17054
1.17097
1.17141
1.1719
1.17238
1.17289
1.17338
1.17386
1.17431
1.17474
1.17514
1.17551
1.17585
1.17617
1.17647
1.17675
1.17701
1.17725
1.17748
1.1777
1.17791
1.17813
1.17833
1.17851
1.17867
1.17881
1.17896
1.17912
1.17929
1.17948
1.17968
1.17987
1.18005
1.18024
1.18041
1.18059
1.18076
1.18094
1.18111
1.18129
1.18147
1.18165
1.18182
1.18198
1.18214
1.18231
1.18249
1.18268
1.18288
1.1831
1.18333
1.18358
1.18383
1.18408
1.18433
1.18457
1.18481
1.18505
1.18529
1.18552
1.18577
1.186
1.18623
1.18644
1.18664
1.18685
1.18706
1.18726
1.18747
1.18767
1.18786
1.18805
1.18823
1.18841
1.18859
1.18876
1.18892
1.18908
1.18925
1.18943
1.18961
1.18978
1.18994
1.19009
1.19023
1.19037
1.19052
1.19068
1.19084
1.19101
1.19117
1.19132
1.19148
1.19164
1.1918
1.19195
1.19208
1.19219
1.1923
1.19243
1.19257
1.19271
1.19285
1.19299
1.19312
1.19325
1.19337
1.19351
1.19366
1.19381
1.19397
1.19413
1.1943
1.19447
1.19466
1.19484
1.19504
1.19524
1.19545
1.19566
1.19588
1.1961
1.19631
1.19651
1.19671
1.1969
1.19709
1.19727
1.19745
1.19763
1.19781
1.19798
1.19815
1.19831
1.19848
1.19865
1.19881
1.19897
1.19912
1.19927
1.19942
1.19956
1.1997
1.19983
1.19996
1.20008
1.20021
1.20032
1.20044
1.20055
1.20065
1.20076
1.20086
1.20096
1.20105
1.20114
1.20123
1.20132
1.2014
1.20149
1.20157
1.20164
1.20172
1.20179
1.20185
1.20191
1.20197
1.20202
1.20206
1.2021
1.20213
1.20216
1.20218
1.2022
1.20221
1.20221
1.2022
1.20218
1.20217
1.20215
1.20213
1.2021
1.20208
1.20206
1.20205
1.20204
1.20203
1.20202
1.20202
1.20202
1.20203
1.20203
1.20204
1.20205
1.20206
1.20208
1.20209
1.20211
1.20213
1.20215
1.20218
1.2022
1.20223
1.20226
1.20229
1.20232
1.20236
1.20239
1.20244
1.20247
1.20251
1.20256
1.2026
1.20264
1.20269
1.20273
1.20277
1.20282
1.20287
1.20291
1.20295
1.203
1.20304
1.20309
1.20313
1.20317
1.20322
1.20328
1.20334
1.17739
1.17736
1.1773
1.17715
1.1769
1.1765
1.17598
1.17535
1.17465
1.17392
1.17322
1.17258
1.17202
1.17155
1.17118
1.17089
1.17069
1.17054
1.17044
1.17037
1.17031
1.17025
1.17021
1.17018
1.17016
1.17016
1.17016
1.17017
1.17016
1.17016
1.17013
1.1701
1.17007
1.17002
1.16998
1.16991
1.16984
1.16973
1.16961
1.16948
1.16934
1.16919
1.16905
1.1689
1.16875
1.1686
1.16846
1.16832
1.1682
1.16808
1.16797
1.16786
1.16776
1.16767
1.16757
1.16747
1.16737
1.16727
1.16715
1.16704
1.16691
1.16676
1.16663
1.16646
1.16632
1.16614
1.16601
1.16579
1.16567
1.1654
1.16528
1.16498
1.16483
1.16455
1.1644
1.16418
1.16406
1.16392
1.16383
1.16373
1.16365
1.1636
1.16356
1.16358
1.1636
1.16366
1.16373
1.16385
1.16403
1.16427
1.16456
1.16481
1.1651
1.16541
1.16567
1.16593
1.16621
1.16646
1.1667
1.1669
1.16715
1.16735
1.16764
1.16786
1.16815
1.16839
1.16856
1.16883
1.169
1.16941
1.16969
1.17022
1.17054
1.17094
1.17131
1.17166
1.17216
1.17261
1.17318
1.1737
1.17431
1.17486
1.17548
1.17603
1.17663
1.17717
1.17772
1.17819
1.17865
1.17902
1.17932
1.17954
1.17967
1.17976
1.17976
1.17976
1.17972
1.17968
1.17959
1.1795
1.17935
1.17921
1.17901
1.17882
1.17859
1.17836
1.17806
1.17778
1.17745
1.17711
1.17676
1.17635
1.17601
1.17556
1.17522
1.17491
1.17474
1.17461
1.17454
1.17456
1.17461
1.17473
1.17477
1.17495
1.17499
1.17513
1.17515
1.17527
1.1752
1.17532
1.17527
1.17536
1.1753
1.17538
1.17531
1.17539
1.17532
1.17547
1.17557
1.17593
1.17624
1.17672
1.17711
1.17759
1.178
1.17837
1.17868
1.17891
1.17909
1.17914
1.17919
1.17916
1.17908
1.17903
1.17893
1.17886
1.17871
1.17848
1.17803
1.17755
1.177
1.17649
1.17604
1.17561
1.17523
1.17483
1.17444
1.17403
1.17364
1.17326
1.17288
1.17253
1.17217
1.17183
1.17151
1.17123
1.17096
1.17072
1.17048
1.17026
1.17004
1.16985
1.16967
1.16951
1.16938
1.16927
1.16917
1.16909
1.16901
1.16896
1.16891
1.16888
1.16886
1.16885
1.16884
1.16885
1.16885
1.16886
1.16886
1.16886
1.16887
1.16886
1.16886
1.16884
1.16882
1.16878
1.16876
1.16872
1.16874
1.16872
1.16875
1.16872
1.16871
1.16863
1.16858
1.16842
1.16832
1.16814
1.16805
1.16799
1.16799
1.16803
1.16812
1.16819
1.16835
1.16852
1.16878
1.16907
1.16942
1.16978
1.17015
1.17054
1.17093
1.17137
1.17184
1.17231
1.17282
1.1733
1.17379
1.17424
1.17469
1.17508
1.17547
1.1758
1.17614
1.17643
1.17672
1.17698
1.17724
1.17747
1.1777
1.17792
1.17813
1.17833
1.17852
1.17869
1.17883
1.17898
1.17913
1.17931
1.1795
1.1797
1.17989
1.18008
1.18026
1.18045
1.18063
1.1808
1.18098
1.18116
1.18134
1.18152
1.1817
1.18187
1.18203
1.18219
1.18236
1.18252
1.18272
1.18291
1.18313
1.18336
1.1836
1.18385
1.18409
1.18435
1.18459
1.18483
1.18507
1.1853
1.18554
1.18578
1.18603
1.18625
1.18647
1.18667
1.18689
1.18709
1.18731
1.18751
1.18772
1.18791
1.18811
1.18829
1.18848
1.18865
1.18884
1.18898
1.18915
1.18931
1.1895
1.18967
1.18987
1.19001
1.19018
1.1903
1.19046
1.19059
1.19077
1.19092
1.19112
1.19126
1.19143
1.19156
1.19175
1.1919
1.19208
1.19219
1.19232
1.19241
1.19256
1.19268
1.19285
1.19297
1.19313
1.19324
1.19339
1.1935
1.19364
1.19377
1.19394
1.19408
1.19425
1.19442
1.19458
1.19476
1.19494
1.19513
1.19533
1.19553
1.19574
1.19596
1.19617
1.19638
1.19658
1.19678
1.19697
1.19715
1.19733
1.19752
1.1977
1.19788
1.19804
1.19821
1.19837
1.19854
1.1987
1.19886
1.19902
1.19917
1.19933
1.19947
1.19961
1.19975
1.19989
1.20002
1.20014
1.20027
1.20038
1.2005
1.2006
1.20073
1.20081
1.20093
1.20102
1.20111
1.20121
1.20129
1.20139
1.20147
1.20156
1.20164
1.20172
1.20179
1.20187
1.20193
1.202
1.20205
1.20211
1.20216
1.20221
1.20224
1.20228
1.2023
1.20233
1.20234
1.20235
1.20234
1.20235
1.20231
1.20232
1.20229
1.20226
1.20225
1.20223
1.20221
1.2022
1.20219
1.20218
1.20218
1.20217
1.20218
1.20218
1.20219
1.20219
1.20221
1.20222
1.20223
1.20225
1.20227
1.20229
1.20231
1.20234
1.20236
1.20239
1.20242
1.20246
1.20248
1.20253
1.20256
1.2026
1.20264
1.20267
1.20272
1.20276
1.2028
1.20284
1.20289
1.20293
1.20298
1.20302
1.20306
1.20311
1.20315
1.20319
1.20324
1.20328
1.20333
1.20339
1.20345
1.17737
1.17734
1.17728
1.17713
1.17687
1.17647
1.17594
1.1753
1.1746
1.17387
1.17317
1.17253
1.17198
1.17152
1.17116
1.17089
1.17069
1.17055
1.17045
1.17038
1.17031
1.17026
1.17021
1.17018
1.17017
1.17017
1.17018
1.17018
1.17018
1.17017
1.17015
1.17011
1.17007
1.17004
1.16999
1.16993
1.16985
1.16975
1.16963
1.1695
1.16936
1.16921
1.16906
1.16891
1.16876
1.16861
1.16847
1.16833
1.1682
1.16808
1.16797
1.16787
1.16777
1.16767
1.16757
1.16748
1.16737
1.16728
1.16716
1.16704
1.16691
1.16678
1.16663
1.1665
1.16631
1.16621
1.16599
1.16588
1.16564
1.1655
1.16523
1.16507
1.16479
1.16461
1.16437
1.1642
1.16404
1.16393
1.16384
1.16375
1.16371
1.16363
1.16364
1.16362
1.16366
1.16371
1.16379
1.16391
1.16403
1.16416
1.16433
1.16457
1.16487
1.16515
1.16554
1.16582
1.16624
1.16647
1.16677
1.16697
1.16719
1.16744
1.16763
1.16792
1.16811
1.16832
1.16858
1.16877
1.16912
1.16928
1.16964
1.16985
1.17018
1.17053
1.17082
1.17125
1.17154
1.17209
1.17249
1.17311
1.17359
1.17425
1.17479
1.17544
1.17601
1.17666
1.17719
1.1778
1.17827
1.17874
1.1791
1.17937
1.17958
1.17968
1.17975
1.17973
1.17972
1.17966
1.17959
1.1795
1.17936
1.1792
1.17903
1.17886
1.17865
1.17842
1.17814
1.17787
1.17754
1.17724
1.17683
1.1765
1.17598
1.17564
1.17523
1.17497
1.17468
1.17454
1.17439
1.17426
1.17429
1.17429
1.17447
1.17454
1.17468
1.17472
1.17492
1.17488
1.17502
1.17499
1.17512
1.17503
1.17516
1.17506
1.1752
1.17507
1.1752
1.17512
1.17536
1.17551
1.17602
1.17633
1.17689
1.17728
1.17776
1.17815
1.17848
1.17875
1.17895
1.17907
1.17915
1.17913
1.1791
1.17901
1.17898
1.17885
1.17883
1.17861
1.17841
1.1778
1.17737
1.17674
1.17642
1.17596
1.17569
1.17522
1.17487
1.17437
1.17403
1.17362
1.17332
1.17291
1.1726
1.1722
1.17189
1.17154
1.17129
1.17102
1.17081
1.17056
1.17036
1.17013
1.16994
1.16975
1.1696
1.16946
1.16936
1.16926
1.16919
1.16913
1.16908
1.16904
1.16903
1.16902
1.16903
1.16903
1.16905
1.16906
1.16908
1.1691
1.1691
1.16912
1.16911
1.16913
1.16911
1.16912
1.16907
1.16908
1.16906
1.16913
1.16912
1.16915
1.16911
1.16914
1.16905
1.16904
1.16885
1.16876
1.16855
1.16846
1.16836
1.16835
1.16838
1.1685
1.16857
1.16877
1.16892
1.1692
1.16949
1.16982
1.17016
1.17048
1.17083
1.17122
1.17161
1.17208
1.17252
1.17304
1.17348
1.17398
1.17439
1.17485
1.1752
1.1756
1.17591
1.17626
1.17654
1.17686
1.17711
1.17739
1.17763
1.17787
1.17809
1.17831
1.17851
1.17869
1.17884
1.17898
1.17914
1.17931
1.1795
1.17971
1.17991
1.18011
1.18028
1.18049
1.18068
1.18088
1.18104
1.18125
1.18142
1.18163
1.18179
1.18198
1.18213
1.18231
1.18244
1.18263
1.18279
1.18299
1.18318
1.18341
1.18366
1.18391
1.18415
1.1844
1.18464
1.18489
1.18512
1.18537
1.18558
1.18587
1.18611
1.18638
1.18655
1.18679
1.18697
1.18724
1.18743
1.18769
1.18786
1.18811
1.18827
1.18851
1.18866
1.1889
1.18904
1.18926
1.18935
1.18954
1.18967
1.18993
1.19009
1.19033
1.19041
1.19059
1.19066
1.19088
1.19099
1.19124
1.19137
1.1916
1.19169
1.19189
1.19201
1.19226
1.1924
1.1926
1.19264
1.19278
1.19284
1.19304
1.19315
1.19335
1.19346
1.19364
1.19372
1.19386
1.19395
1.19413
1.19421
1.1944
1.19454
1.1947
1.19485
1.19501
1.19518
1.19535
1.19553
1.19571
1.19591
1.19612
1.19632
1.19651
1.19671
1.1969
1.19709
1.19727
1.19744
1.19762
1.19781
1.19798
1.19815
1.19829
1.19845
1.1986
1.19876
1.19892
1.19908
1.19923
1.19939
1.19953
1.19968
1.19981
1.19995
1.20008
1.20021
1.20033
1.20045
1.20056
1.20069
1.20077
1.2009
1.20099
1.2011
1.2012
1.20128
1.20139
1.20147
1.20157
1.20164
1.20174
1.20181
1.2019
1.20197
1.20206
1.20211
1.2022
1.20225
1.20233
1.20238
1.20244
1.20247
1.20254
1.20258
1.20263
1.20265
1.20268
1.20265
1.20269
1.20268
1.20267
1.20267
1.20264
1.20264
1.20261
1.2026
1.20257
1.20257
1.20255
1.20256
1.20254
1.20255
1.20253
1.20256
1.20255
1.20257
1.20258
1.20259
1.20261
1.20261
1.20264
1.20265
1.20268
1.20269
1.20272
1.20274
1.20278
1.20279
1.20283
1.20286
1.20289
1.20293
1.20296
1.203
1.20303
1.20308
1.20311
1.20316
1.20319
1.20323
1.20327
1.20331
1.20335
1.2034
1.20343
1.20348
1.20353
1.20358
1.20364
1.17734
1.17731
1.17725
1.17709
1.17682
1.17641
1.17587
1.17522
1.17451
1.17378
1.17309
1.17247
1.17193
1.17149
1.17114
1.17087
1.17068
1.17055
1.17045
1.17038
1.17032
1.17026
1.17022
1.17019
1.17018
1.17018
1.17019
1.17019
1.17019
1.17018
1.17016
1.17013
1.1701
1.17005
1.17001
1.16994
1.16987
1.16976
1.16964
1.1695
1.16937
1.16922
1.16907
1.16892
1.16877
1.16863
1.16848
1.16835
1.16822
1.1681
1.16799
1.16789
1.16779
1.16769
1.1676
1.1675
1.16739
1.16729
1.16718
1.16707
1.16693
1.1668
1.16665
1.16651
1.16636
1.1662
1.16605
1.16587
1.1657
1.16549
1.1653
1.16507
1.16486
1.16462
1.16441
1.16421
1.16404
1.16395
1.16382
1.16381
1.1637
1.16368
1.16364
1.16363
1.16364
1.16365
1.16369
1.16378
1.16391
1.1641
1.1643
1.16463
1.16471
1.16518
1.16538
1.16581
1.16603
1.16644
1.16662
1.16693
1.16711
1.16738
1.16764
1.16781
1.16811
1.16829
1.16846
1.16874
1.1688
1.16909
1.16927
1.16942
1.16966
1.1699
1.17026
1.17042
1.17079
1.17102
1.17152
1.17187
1.17246
1.17293
1.17358
1.17414
1.17487
1.17547
1.17622
1.17682
1.17748
1.17803
1.17852
1.17893
1.17922
1.17947
1.17958
1.17966
1.17965
1.17964
1.17957
1.17946
1.17935
1.17918
1.17908
1.17888
1.17873
1.17847
1.17826
1.17795
1.17769
1.17731
1.17703
1.17647
1.17615
1.17566
1.17534
1.17491
1.17474
1.17441
1.17412
1.17388
1.17361
1.17361
1.17368
1.17384
1.1739
1.17404
1.17408
1.17428
1.17422
1.17444
1.17433
1.1745
1.17436
1.17453
1.17444
1.17454
1.17443
1.17459
1.1745
1.1749
1.17511
1.17572
1.17608
1.17663
1.17705
1.17751
1.17788
1.17821
1.1785
1.17869
1.17885
1.17898
1.17901
1.17901
1.17892
1.17889
1.17877
1.17878
1.17855
1.17837
1.17765
1.17734
1.17684
1.17663
1.17624
1.17601
1.17547
1.17517
1.1746
1.17439
1.17399
1.17379
1.17333
1.17306
1.17257
1.17227
1.1719
1.1717
1.17144
1.17126
1.17098
1.17078
1.1705
1.1703
1.17008
1.16993
1.16978
1.16968
1.16958
1.16952
1.16945
1.16943
1.16941
1.16942
1.16941
1.16944
1.16946
1.1695
1.16955
1.16959
1.16962
1.16965
1.16968
1.16972
1.16976
1.16976
1.16979
1.16977
1.16984
1.16987
1.16995
1.16993
1.17
1.16997
1.17009
1.17001
1.17003
1.16976
1.16966
1.16936
1.16922
1.16902
1.16901
1.16905
1.16915
1.16916
1.16933
1.16946
1.16969
1.16993
1.17018
1.17046
1.1707
1.17099
1.17132
1.17164
1.17209
1.17247
1.17299
1.17337
1.1739
1.17426
1.17475
1.17506
1.1755
1.17579
1.17619
1.17648
1.17685
1.17712
1.17744
1.17771
1.17798
1.17822
1.17845
1.17866
1.17885
1.17897
1.17913
1.17931
1.17952
1.17971
1.17993
1.18012
1.18032
1.18051
1.18075
1.18094
1.18115
1.18134
1.18156
1.18175
1.18197
1.18213
1.18234
1.18247
1.18266
1.18278
1.18297
1.18311
1.18331
1.18354
1.18378
1.18403
1.18427
1.18449
1.18475
1.18495
1.18521
1.18541
1.18568
1.18592
1.18625
1.18648
1.18676
1.1869
1.18718
1.18738
1.1877
1.18787
1.18815
1.18833
1.18861
1.18878
1.18903
1.1892
1.18948
1.18961
1.18983
1.18988
1.1901
1.19024
1.19056
1.19072
1.19096
1.19097
1.19118
1.19127
1.19152
1.19165
1.19192
1.19204
1.19228
1.19236
1.19258
1.19272
1.19302
1.19314
1.19334
1.1933
1.19347
1.19354
1.19376
1.19388
1.1941
1.19419
1.19437
1.19441
1.19458
1.1946
1.1948
1.19488
1.19504
1.19516
1.19529
1.19542
1.19556
1.1957
1.19584
1.19599
1.19616
1.19635
1.19651
1.19668
1.19684
1.19703
1.19722
1.1974
1.19754
1.19771
1.1979
1.19807
1.19821
1.19837
1.19849
1.19864
1.19878
1.19894
1.19909
1.19926
1.19941
1.19955
1.19969
1.19984
1.19997
1.20011
1.20023
1.20036
1.20047
1.2006
1.2007
1.20082
1.20091
1.20103
1.20113
1.20121
1.20132
1.20141
1.20152
1.2016
1.2017
1.20178
1.20187
1.20194
1.20204
1.20211
1.20221
1.20227
1.20238
1.20245
1.20255
1.20261
1.20269
1.20275
1.20287
1.20293
1.20301
1.20304
1.20312
1.20312
1.20319
1.20322
1.20322
1.20324
1.20322
1.20322
1.20319
1.20319
1.20316
1.20316
1.20313
1.20313
1.2031
1.20311
1.20308
1.2031
1.2031
1.20309
1.20311
1.2031
1.20312
1.20312
1.20314
1.20313
1.20315
1.20315
1.20318
1.20317
1.2032
1.20321
1.20323
1.20325
1.20327
1.2033
1.20332
1.20335
1.20337
1.20341
1.20343
1.20347
1.20349
1.20353
1.20356
1.20359
1.20363
1.20366
1.2037
1.20374
1.20379
1.20385
1.17728
1.17725
1.17718
1.17701
1.17674
1.17631
1.17576
1.1751
1.17439
1.17367
1.17299
1.17239
1.17187
1.17145
1.17112
1.17086
1.17068
1.17055
1.17045
1.17038
1.17032
1.17026
1.17022
1.1702
1.17019
1.17019
1.1702
1.17021
1.17021
1.1702
1.17016
1.17013
1.17009
1.17006
1.17
1.16996
1.16987
1.16979
1.16966
1.16955
1.1694
1.16926
1.16912
1.16897
1.16882
1.16866
1.16852
1.16837
1.16824
1.16811
1.168
1.1679
1.1678
1.1677
1.1676
1.1675
1.16741
1.1673
1.16721
1.16708
1.16697
1.16681
1.16669
1.16652
1.1664
1.16622
1.16609
1.1659
1.16574
1.16553
1.16534
1.1651
1.16489
1.16462
1.16442
1.16415
1.16406
1.16386
1.16387
1.16372
1.16369
1.16367
1.16361
1.16366
1.16361
1.16365
1.16369
1.16374
1.16385
1.16396
1.16423
1.16437
1.16486
1.16499
1.16549
1.1657
1.16615
1.16637
1.16674
1.16687
1.1672
1.16734
1.1677
1.1679
1.16808
1.16832
1.16855
1.1687
1.16882
1.16892
1.169
1.16911
1.16924
1.16949
1.16965
1.16981
1.16988
1.17009
1.17026
1.17062
1.17088
1.17138
1.1718
1.17248
1.17304
1.17384
1.17453
1.17534
1.17607
1.17681
1.17746
1.17804
1.17854
1.17891
1.17922
1.17939
1.17951
1.17951
1.17949
1.17941
1.17927
1.17921
1.17905
1.17895
1.17873
1.17856
1.17826
1.17808
1.17773
1.1775
1.17696
1.17669
1.17616
1.17583
1.17535
1.17512
1.17464
1.17437
1.17391
1.17333
1.17302
1.17269
1.17274
1.17269
1.17288
1.1729
1.17305
1.173
1.17322
1.17315
1.17336
1.17324
1.17337
1.17324
1.17343
1.17328
1.17344
1.17328
1.17355
1.17363
1.17418
1.17451
1.17507
1.17547
1.17599
1.17641
1.17689
1.1773
1.17769
1.17799
1.17826
1.17852
1.17871
1.17883
1.17888
1.1788
1.1788
1.17872
1.17873
1.17848
1.17828
1.1777
1.1775
1.17718
1.17704
1.17666
1.17649
1.17591
1.17566
1.1752
1.17509
1.17477
1.17459
1.17412
1.17381
1.17325
1.17298
1.17263
1.17251
1.17226
1.1721
1.17177
1.17153
1.17119
1.17096
1.1707
1.17054
1.17036
1.17027
1.17015
1.1701
1.17006
1.17006
1.17005
1.17007
1.1701
1.17014
1.17022
1.17029
1.17038
1.17043
1.1705
1.17056
1.17068
1.17077
1.17081
1.17086
1.17096
1.171
1.17108
1.17112
1.17124
1.17127
1.17136
1.17139
1.17152
1.17147
1.17144
1.1711
1.17094
1.17045
1.17025
1.17001
1.17005
1.16991
1.16999
1.16992
1.17001
1.17006
1.17017
1.1703
1.17047
1.17065
1.1708
1.17099
1.17121
1.17147
1.17186
1.17217
1.17266
1.173
1.17354
1.17388
1.17435
1.17469
1.17513
1.17544
1.17593
1.17622
1.17666
1.17696
1.17736
1.17768
1.178
1.17828
1.17854
1.17875
1.17892
1.17907
1.1793
1.1795
1.17971
1.1799
1.18013
1.18032
1.18053
1.18074
1.18098
1.1812
1.18143
1.18163
1.18188
1.18208
1.18231
1.1825
1.18272
1.18283
1.18304
1.18313
1.18331
1.18349
1.1837
1.18394
1.18418
1.1844
1.18465
1.18481
1.18504
1.18521
1.18547
1.18568
1.186
1.18625
1.18661
1.18683
1.18711
1.18729
1.18762
1.18784
1.18815
1.18835
1.18865
1.18886
1.18917
1.18936
1.18965
1.18984
1.19015
1.1903
1.1905
1.19058
1.19084
1.19104
1.19136
1.1915
1.19168
1.19173
1.19197
1.19211
1.19239
1.19252
1.19278
1.19289
1.19314
1.19327
1.19352
1.19366
1.19397
1.19406
1.19421
1.19418
1.19438
1.19448
1.19471
1.19482
1.19505
1.19513
1.19529
1.19527
1.19546
1.19546
1.19561
1.19569
1.19579
1.1959
1.19598
1.19608
1.19617
1.19628
1.19637
1.19651
1.19662
1.19678
1.19686
1.19701
1.19715
1.19734
1.1975
1.19764
1.19777
1.19795
1.19809
1.19825
1.19838
1.19852
1.19863
1.19878
1.19893
1.1991
1.19925
1.19939
1.19953
1.19968
1.19982
1.19997
1.2001
1.20023
1.20035
1.20047
1.20058
1.2007
1.2008
1.20092
1.20102
1.20112
1.20122
1.20131
1.20142
1.20151
1.20162
1.2017
1.20179
1.20187
1.20196
1.20204
1.20214
1.20222
1.20232
1.2024
1.20252
1.20261
1.20272
1.20281
1.20293
1.20304
1.20318
1.20328
1.20341
1.20347
1.20362
1.2037
1.20378
1.20386
1.20389
1.20393
1.20392
1.20395
1.20392
1.20393
1.20389
1.2039
1.20386
1.20387
1.20381
1.20383
1.2038
1.2038
1.2038
1.20378
1.20378
1.20376
1.20377
1.20375
1.20375
1.20373
1.20374
1.20371
1.20372
1.2037
1.20371
1.20371
1.2037
1.20371
1.2037
1.20372
1.20372
1.20373
1.20374
1.20376
1.20376
1.20378
1.2038
1.20382
1.20384
1.20387
1.20389
1.20391
1.20394
1.20398
1.20404
1.17721
1.17718
1.17711
1.17693
1.17665
1.17621
1.17564
1.17498
1.17427
1.17357
1.17291
1.17232
1.17183
1.17142
1.1711
1.17086
1.17068
1.17055
1.17046
1.17039
1.17033
1.17028
1.17023
1.17022
1.17021
1.17021
1.17021
1.17022
1.1702
1.1702
1.17016
1.17014
1.17009
1.17006
1.17002
1.16996
1.1699
1.16978
1.16971
1.16955
1.16946
1.1693
1.16917
1.16904
1.16887
1.16873
1.16856
1.16843
1.16828
1.16816
1.16804
1.16794
1.16783
1.16774
1.16763
1.16754
1.16743
1.16734
1.16723
1.16712
1.16698
1.16686
1.16671
1.16658
1.16642
1.16628
1.16611
1.16596
1.16576
1.16558
1.16535
1.16515
1.16486
1.16467
1.16434
1.16423
1.16395
1.16394
1.16381
1.16373
1.16376
1.16363
1.16371
1.1636
1.16365
1.16364
1.16367
1.16376
1.16383
1.1641
1.16417
1.16464
1.1648
1.16525
1.16544
1.16592
1.16614
1.1666
1.16681
1.16711
1.16729
1.1676
1.16782
1.16808
1.16831
1.16846
1.16869
1.16877
1.16882
1.16883
1.16889
1.16894
1.16915
1.16925
1.1694
1.16937
1.16938
1.16933
1.16941
1.16943
1.16959
1.16972
1.17013
1.17048
1.17111
1.17171
1.17251
1.1733
1.17416
1.17501
1.17585
1.17664
1.17735
1.17797
1.17846
1.17887
1.17911
1.17927
1.1793
1.17928
1.17925
1.17914
1.1791
1.1789
1.17876
1.17849
1.17833
1.17799
1.17781
1.1773
1.17711
1.17663
1.17629
1.17586
1.17557
1.17506
1.17483
1.17424
1.17372
1.17309
1.17237
1.17204
1.17157
1.1715
1.17157
1.17167
1.17156
1.17168
1.17168
1.1718
1.17175
1.17193
1.17181
1.17193
1.17179
1.17197
1.17182
1.17204
1.17211
1.17257
1.17287
1.17338
1.17374
1.17425
1.17469
1.17521
1.17569
1.1762
1.17663
1.17709
1.17745
1.17783
1.17816
1.17842
1.17863
1.1787
1.17874
1.17874
1.17866
1.17868
1.17846
1.17828
1.1779
1.1779
1.17759
1.17752
1.17714
1.177
1.17653
1.17634
1.17605
1.17604
1.17577
1.17557
1.1751
1.17475
1.17418
1.17399
1.17375
1.17366
1.17343
1.17326
1.17285
1.17256
1.17214
1.17188
1.17158
1.17141
1.17121
1.17112
1.17101
1.17097
1.17095
1.17096
1.17097
1.17101
1.17107
1.17115
1.17127
1.17137
1.1715
1.17158
1.17175
1.17187
1.17206
1.17215
1.17231
1.17242
1.17255
1.17257
1.17272
1.17279
1.17294
1.17295
1.17311
1.17315
1.17329
1.17318
1.17314
1.17263
1.17234
1.17174
1.1716
1.17119
1.17119
1.17095
1.1709
1.17077
1.17069
1.17061
1.17058
1.17059
1.17067
1.17073
1.17078
1.17087
1.17098
1.17117
1.17146
1.17171
1.17215
1.17247
1.17293
1.17327
1.17378
1.17409
1.17458
1.17493
1.17544
1.17581
1.1763
1.17665
1.17717
1.17752
1.17793
1.17827
1.17857
1.17879
1.17899
1.17923
1.17945
1.17965
1.1799
1.1801
1.18032
1.18051
1.18075
1.18098
1.18122
1.18145
1.18169
1.18191
1.18216
1.18238
1.18265
1.18283
1.18307
1.18316
1.18336
1.18349
1.18367
1.18388
1.18408
1.18433
1.18456
1.18473
1.18493
1.18504
1.18525
1.18543
1.18574
1.18598
1.18633
1.18658
1.18691
1.18713
1.18744
1.18765
1.18802
1.18824
1.18857
1.18879
1.18914
1.18937
1.18969
1.18993
1.19024
1.19051
1.19085
1.19104
1.19127
1.1914
1.19173
1.19191
1.19224
1.19233
1.19254
1.19265
1.19296
1.19313
1.19338
1.1935
1.19379
1.19392
1.1942
1.19434
1.19461
1.19474
1.19505
1.1951
1.19525
1.19525
1.19548
1.19559
1.19581
1.19592
1.19614
1.19618
1.19636
1.19628
1.19643
1.19644
1.19653
1.19659
1.19663
1.19668
1.19672
1.19677
1.19682
1.19689
1.19693
1.19703
1.19706
1.19717
1.19719
1.19731
1.19741
1.19758
1.1977
1.19782
1.19794
1.19811
1.19825
1.19839
1.1985
1.19863
1.19876
1.19893
1.19907
1.19921
1.19932
1.19947
1.19961
1.19977
1.19991
1.20007
1.20019
1.20031
1.20043
1.20055
1.20066
1.20077
1.20088
1.20098
1.20109
1.20118
1.20129
1.20137
1.20149
1.20157
1.20168
1.20176
1.20186
1.20194
1.20204
1.20211
1.20222
1.2023
1.20242
1.20252
1.20264
1.20274
1.20287
1.20298
1.20314
1.20328
1.20346
1.20358
1.2038
1.20393
1.20412
1.20428
1.20439
1.20452
1.2046
1.20468
1.20471
1.20475
1.20474
1.20477
1.20474
1.20475
1.2047
1.20471
1.20465
1.20466
1.20464
1.20461
1.20461
1.20457
1.20457
1.20453
1.20453
1.20448
1.20447
1.20442
1.20441
1.20435
1.20434
1.2043
1.20427
1.20425
1.20422
1.2042
1.20417
1.20416
1.20414
1.20413
1.20411
1.20411
1.2041
1.2041
1.2041
1.2041
1.20411
1.20411
1.20412
1.20413
1.20416
1.20421
1.17715
1.17711
1.17704
1.17686
1.17656
1.17611
1.17554
1.17488
1.17419
1.1735
1.17286
1.17229
1.17181
1.17142
1.17111
1.17087
1.17069
1.17057
1.17048
1.17041
1.17035
1.17029
1.17026
1.17023
1.17023
1.17023
1.17024
1.17022
1.17023
1.17018
1.17018
1.17012
1.1701
1.17005
1.17003
1.16996
1.16992
1.16983
1.16971
1.16964
1.16947
1.16941
1.16925
1.16914
1.16899
1.16882
1.16868
1.1685
1.16838
1.16823
1.16812
1.16799
1.1679
1.16778
1.1677
1.16759
1.1675
1.16739
1.16727
1.16715
1.16703
1.16689
1.16676
1.16662
1.16648
1.16632
1.16617
1.16599
1.16582
1.16561
1.16542
1.16513
1.16495
1.1646
1.16444
1.16411
1.16403
1.16395
1.16386
1.16382
1.16364
1.16375
1.16357
1.16367
1.16363
1.16369
1.16378
1.16387
1.16412
1.16417
1.16465
1.16473
1.1652
1.16545
1.16591
1.16621
1.1666
1.16692
1.16732
1.16759
1.16785
1.1681
1.16834
1.16863
1.1688
1.16906
1.16911
1.16918
1.16901
1.16895
1.16888
1.16901
1.16909
1.16928
1.16926
1.16931
1.16916
1.1691
1.16892
1.16884
1.16868
1.16869
1.16869
1.16891
1.1692
1.16971
1.1703
1.17106
1.1719
1.17281
1.17376
1.17472
1.17565
1.1765
1.17726
1.17789
1.1784
1.17874
1.17896
1.17907
1.17912
1.17911
1.17897
1.17894
1.17871
1.17856
1.17825
1.17809
1.17763
1.17744
1.17699
1.17668
1.1763
1.17598
1.17554
1.17529
1.17471
1.17438
1.17364
1.17293
1.17218
1.17132
1.17084
1.17037
1.17038
1.17018
1.17019
1.17018
1.1703
1.1702
1.17036
1.17029
1.17041
1.17027
1.1704
1.1703
1.1705
1.17062
1.17103
1.17136
1.17183
1.17219
1.17268
1.17309
1.17361
1.17411
1.17465
1.17516
1.17569
1.17615
1.17665
1.17706
1.1775
1.1779
1.17822
1.17846
1.17858
1.17866
1.17865
1.17867
1.17869
1.17855
1.1785
1.17827
1.17829
1.17802
1.17802
1.17767
1.17761
1.17728
1.17722
1.17701
1.17703
1.17675
1.17661
1.17611
1.17579
1.17534
1.17525
1.1751
1.17505
1.17479
1.17459
1.17409
1.17376
1.17327
1.173
1.17266
1.1725
1.17229
1.17221
1.1721
1.17207
1.17206
1.17208
1.1721
1.17217
1.17226
1.17239
1.17255
1.17267
1.17287
1.17301
1.17328
1.17342
1.1737
1.17385
1.17409
1.17419
1.17434
1.17439
1.17458
1.17462
1.1748
1.17484
1.17502
1.17506
1.17515
1.17493
1.17474
1.17404
1.17374
1.1731
1.17286
1.17245
1.17231
1.17202
1.17181
1.17153
1.17128
1.17105
1.17089
1.17079
1.17075
1.17071
1.17066
1.17064
1.17068
1.1708
1.17096
1.17117
1.17153
1.17179
1.17224
1.17257
1.17306
1.17336
1.17391
1.17427
1.17483
1.17523
1.17581
1.17621
1.17681
1.17732
1.17782
1.17821
1.17858
1.17882
1.17911
1.17934
1.17957
1.17982
1.18005
1.18028
1.18051
1.18073
1.18098
1.18121
1.18145
1.18169
1.18193
1.18216
1.18242
1.18264
1.18292
1.18309
1.18336
1.18346
1.18366
1.18382
1.18402
1.18424
1.18443
1.18464
1.18483
1.18493
1.18508
1.1852
1.18546
1.1857
1.18604
1.18629
1.18664
1.18686
1.18718
1.1874
1.18775
1.188
1.18836
1.1886
1.18894
1.1892
1.18953
1.18978
1.19013
1.19039
1.19084
1.19118
1.19158
1.1918
1.1921
1.1923
1.19262
1.19281
1.1931
1.19326
1.1935
1.19374
1.194
1.19418
1.19445
1.19461
1.19491
1.19505
1.19537
1.19552
1.19578
1.19591
1.1962
1.19623
1.19639
1.19643
1.1967
1.19681
1.19703
1.19712
1.19735
1.19731
1.19743
1.19737
1.19745
1.19746
1.19747
1.19749
1.19749
1.19749
1.19748
1.19748
1.19747
1.1975
1.19747
1.19752
1.19747
1.19753
1.19749
1.19756
1.19761
1.19775
1.19784
1.19797
1.1981
1.19825
1.19837
1.19851
1.19862
1.19877
1.19889
1.19904
1.19911
1.19922
1.19933
1.1995
1.19965
1.19983
1.19996
1.2001
1.20021
1.20033
1.20044
1.20055
1.20066
1.20077
1.20087
1.20097
1.20107
1.20116
1.20128
1.20136
1.20148
1.20156
1.20168
1.20177
1.20188
1.20195
1.20207
1.20215
1.20227
1.20238
1.20251
1.20261
1.20274
1.20285
1.20301
1.20315
1.20334
1.20349
1.20372
1.20389
1.20415
1.20437
1.20457
1.20481
1.20499
1.20518
1.20531
1.20543
1.20551
1.20558
1.20561
1.20565
1.20564
1.20566
1.20561
1.20563
1.20558
1.20558
1.20556
1.20552
1.20551
1.20546
1.20545
1.20538
1.20536
1.20529
1.20526
1.20518
1.20514
1.20506
1.20502
1.20495
1.20488
1.20483
1.20477
1.20472
1.20466
1.20462
1.20456
1.20453
1.20448
1.20445
1.20442
1.2044
1.20438
1.20436
1.20435
1.20433
1.20432
1.20433
1.20437
1.17711
1.17707
1.177
1.17681
1.17651
1.17605
1.17548
1.17482
1.17413
1.17346
1.17283
1.17229
1.17181
1.17143
1.17112
1.17089
1.17072
1.1706
1.17052
1.17045
1.17038
1.17033
1.1703
1.17029
1.17028
1.17028
1.17026
1.17027
1.17023
1.17023
1.17018
1.17017
1.17011
1.17009
1.17004
1.17002
1.16994
1.16989
1.16979
1.16968
1.16962
1.16945
1.16944
1.16926
1.16916
1.16897
1.16881
1.16867
1.1685
1.16838
1.16822
1.16812
1.16798
1.1679
1.16778
1.1677
1.16757
1.16748
1.16734
1.16723
1.16709
1.16697
1.16683
1.16669
1.16654
1.1664
1.16622
1.16606
1.16586
1.16567
1.16541
1.16521
1.16487
1.16469
1.16435
1.16421
1.16411
1.16401
1.16394
1.16377
1.16384
1.1636
1.16369
1.16362
1.16367
1.16376
1.16386
1.16417
1.16434
1.16486
1.16491
1.16546
1.16567
1.16613
1.16647
1.16691
1.16729
1.16769
1.16807
1.16841
1.16876
1.16899
1.16932
1.16953
1.16988
1.16998
1.17017
1.16992
1.16975
1.16941
1.16929
1.16921
1.1694
1.16935
1.16946
1.16926
1.16923
1.16899
1.16886
1.16857
1.16839
1.16807
1.16791
1.16778
1.16784
1.16799
1.16837
1.16888
1.16961
1.17044
1.1714
1.17243
1.1735
1.17454
1.17554
1.17644
1.17722
1.17785
1.17829
1.17862
1.17884
1.17891
1.17894
1.17879
1.17871
1.17844
1.17833
1.1779
1.17773
1.17731
1.177
1.17665
1.17631
1.17594
1.17563
1.17515
1.17487
1.17423
1.17374
1.17285
1.17195
1.17107
1.17008
1.16968
1.16907
1.169
1.16885
1.16898
1.16888
1.16896
1.16891
1.16903
1.1689
1.16904
1.16894
1.16914
1.16927
1.16967
1.17003
1.17051
1.17092
1.17141
1.17183
1.17235
1.17285
1.17338
1.17393
1.17445
1.17499
1.17549
1.17597
1.17645