/*--------------------------------*- C++ -*----------------------------------*\
| =========                 |                                                 |
| \\      /  F ield         | OpenFOAM: The Open Source CFD Toolbox           |
|  \\    /   O peration     | Version:  v1812                                 |
|   \\  /    A nd           | Web:      www.OpenFOAM.com                      |
|    \\/     M anipulation  |                                                 |
\*---------------------------------------------------------------------------*/
FoamFile
{
    version     2.0;
    format      ascii;
    class       volScalarField;
    location    "1.1";
    object      T;
}
// * * * * * * * * * * * * * * * * * * * * * * * * * * * * * * * * * * * * * //

dimensions      [0 0 0 1 0 0 0];


internalField   nonuniform List<scalar> 
20400
(
288.666
288.67
288.683
288.715
288.773
288.861
288.98
289.124
289.285
289.451
289.611
289.756
289.881
289.982
290.059
290.114
290.15
290.17
290.179
290.182
290.183
290.182
290.179
290.172
290.162
290.15
290.137
290.125
290.114
290.106
290.1
290.098
290.098
290.099
290.102
290.109
290.121
290.139
290.162
290.189
290.218
290.25
290.283
290.317
290.352
290.387
290.421
290.454
290.485
290.514
290.542
290.568
290.594
290.619
290.644
290.67
290.697
290.725
290.752
290.782
290.812
290.845
290.883
290.919
290.956
290.991
291.029
291.065
291.107
291.147
291.195
291.237
291.287
291.328
291.371
291.404
291.434
291.456
291.477
291.494
291.51
291.523
291.532
291.539
291.545
291.548
291.552
291.556
291.559
291.563
291.565
291.568
291.565
291.567
291.571
291.579
291.595
291.613
291.636
291.661
291.685
291.706
291.722
291.731
291.735
291.737
291.73
291.721
291.689
291.659
291.614
291.58
291.525
291.476
291.422
291.348
291.262
291.159
291.05
290.929
290.805
290.675
290.546
290.415
290.287
290.16
290.043
289.931
289.832
289.746
289.678
289.627
289.595
289.577
289.567
289.564
289.563
289.565
289.57
289.581
289.596
289.618
289.643
289.674
289.708
289.749
289.795
289.848
289.907
289.979
290.057
290.142
290.236
290.333
290.431
290.511
290.573
290.617
290.647
290.667
290.678
290.689
290.695
290.703
290.702
290.71
290.713
290.73
290.735
290.746
290.745
290.752
290.75
290.756
290.752
290.754
290.744
290.723
290.667
290.59
290.484
290.373
290.251
290.129
290.011
289.907
289.817
289.742
289.687
289.648
289.63
289.62
289.621
289.619
289.622
289.629
289.653
289.71
289.793
289.9
290.009
290.118
290.215
290.304
290.384
290.464
290.542
290.623
290.704
290.784
290.862
290.938
291.011
291.081
291.146
291.206
291.262
291.315
291.366
291.416
291.463
291.507
291.546
291.581
291.61
291.636
291.657
291.676
291.691
291.704
291.714
291.722
291.726
291.73
291.732
291.734
291.736
291.738
291.741
291.745
291.751
291.759
291.77
291.784
291.801
291.819
291.837
291.853
291.867
291.879
291.893
291.91
291.933
291.962
292.003
292.049
292.104
292.153
292.195
292.219
292.23
292.231
292.229
292.22
292.203
292.172
292.127
292.067
292
291.926
291.85
291.772
291.688
291.601
291.506
291.408
291.31
291.214
291.124
291.042
290.969
290.905
290.851
290.804
290.767
290.736
290.712
290.694
290.682
290.674
290.671
290.67
290.671
290.675
290.684
290.701
290.722
290.742
290.758
290.771
290.782
290.791
290.802
290.814
290.827
290.841
290.857
290.872
290.888
290.902
290.917
290.932
290.949
290.968
290.99
291.013
291.037
291.059
291.081
291.1
291.117
291.132
291.146
291.159
291.173
291.189
291.208
291.228
291.249
291.271
291.294
291.315
291.338
291.363
291.391
291.419
291.447
291.474
291.5
291.526
291.553
291.579
291.607
291.634
291.662
291.69
291.72
291.749
291.779
291.806
291.831
291.855
291.882
291.909
291.941
291.972
292.003
292.031
292.058
292.081
292.105
292.128
292.153
292.176
292.199
292.22
292.245
292.271
292.302
292.33
292.355
292.377
292.397
292.417
292.438
292.458
292.48
292.5
292.518
292.533
292.547
292.557
292.567
292.575
292.581
292.586
292.588
292.588
292.587
292.583
292.577
292.571
292.565
292.561
292.559
292.559
292.559
292.561
292.562
292.564
292.566
292.569
292.573
292.577
292.581
292.585
292.589
292.594
292.6
292.606
292.613
292.62
292.628
292.637
292.647
292.657
292.667
292.678
292.689
292.7
292.712
292.726
292.74
292.755
292.769
292.783
292.797
292.812
292.826
292.84
292.854
292.868
292.883
292.897
292.912
292.927
292.943
292.958
292.975
292.992
293.01
293.029
293.048
293.067
293.088
293.11
293.133
293.157
293.184
293.211
293.238
293.264
293.29
293.315
293.338
293.361
293.383
293.403
293.422
293.44
293.456
293.472
293.486
293.501
293.513
293.526
293.537
293.548
293.558
293.568
293.577
293.586
293.594
293.602
293.608
293.615
293.62
293.626
293.631
293.635
293.64
293.643
293.647
293.65
293.653
293.656
293.658
293.661
293.663
293.666
293.668
293.671
293.673
293.676
293.679
293.682
293.684
293.686
293.686
293.686
288.668
288.671
288.685
288.717
288.775
288.864
288.983
289.128
289.29
289.456
289.616
289.76
289.884
289.984
290.06
290.115
290.15
290.169
290.178
290.181
290.182
290.181
290.178
290.171
290.161
290.149
290.136
290.123
290.112
290.104
290.099
290.096
290.096
290.097
290.1
290.107
290.12
290.138
290.161
290.188
290.217
290.249
290.282
290.316
290.351
290.386
290.42
290.453
290.484
290.514
290.542
290.568
290.594
290.619
290.644
290.67
290.697
290.724
290.753
290.781
290.812
290.847
290.882
290.92
290.955
290.992
291.026
291.067
291.103
291.15
291.19
291.24
291.283
291.332
291.367
291.406
291.43
291.453
291.469
291.485
291.5
291.511
291.521
291.528
291.534
291.539
291.545
291.55
291.555
291.559
291.562
291.564
291.56
291.557
291.561
291.567
291.581
291.595
291.624
291.65
291.678
291.702
291.719
291.734
291.739
291.742
291.745
291.731
291.724
291.683
291.657
291.6
291.56
291.511
291.451
291.395
291.299
291.212
291.091
290.984
290.847
290.728
290.587
290.463
290.323
290.2
290.071
289.961
289.852
289.764
289.69
289.635
289.599
289.578
289.567
289.564
289.562
289.564
289.569
289.58
289.595
289.617
289.641
289.671
289.702
289.742
289.788
289.84
289.9
289.972
290.047
290.139
290.224
290.331
290.424
290.51
290.573
290.622
290.663
290.684
290.706
290.709
290.725
290.715
290.73
290.724
290.741
290.73
290.755
290.746
290.761
290.752
290.764
290.752
290.763
290.749
290.758
290.72
290.686
290.588
290.503
290.374
290.263
290.133
290.016
289.907
289.816
289.74
289.684
289.643
289.626
289.611
289.618
289.61
289.619
289.615
289.64
289.675
289.774
289.854
289.996
290.08
290.197
290.266
290.358
290.424
290.519
290.59
290.681
290.751
290.836
290.904
290.986
291.05
291.124
291.18
291.242
291.291
291.346
291.393
291.444
291.487
291.53
291.564
291.597
291.622
291.645
291.664
291.68
291.693
291.704
291.711
291.715
291.718
291.72
291.722
291.722
291.724
291.725
291.73
291.734
291.743
291.75
291.765
291.777
291.798
291.811
291.832
291.84
291.856
291.86
291.884
291.896
291.931
291.957
292.011
292.052
292.115
292.151
292.191
292.201
292.21
292.204
292.203
292.182
292.158
292.114
292.061
291.993
291.923
291.851
291.777
291.699
291.617
291.522
291.431
291.329
291.24
291.143
291.066
290.985
290.926
290.864
290.823
290.778
290.75
290.72
290.704
290.687
290.68
290.673
290.673
290.672
290.676
290.684
290.7
290.721
290.741
290.757
290.771
290.78
290.79
290.799
290.812
290.823
290.838
290.85
290.868
290.88
290.897
290.908
290.925
290.94
290.961
290.981
291.007
291.028
291.053
291.073
291.095
291.111
291.128
291.142
291.155
291.169
291.186
291.202
291.223
291.242
291.267
291.286
291.309
291.327
291.355
291.379
291.412
291.435
291.465
291.485
291.515
291.535
291.567
291.587
291.62
291.641
291.674
291.697
291.733
291.757
291.793
291.81
291.84
291.856
291.891
291.914
291.955
291.976
292.015
292.03
292.061
292.074
292.106
292.122
292.156
292.167
292.195
292.207
292.244
292.265
292.305
292.321
292.35
292.362
292.387
292.401
292.428
292.443
292.471
292.485
292.506
292.515
292.529
292.538
292.547
292.555
292.56
292.564
292.565
292.565
292.562
292.559
292.552
292.548
292.543
292.542
292.541
292.543
292.543
292.547
292.547
292.55
292.551
292.558
292.561
292.567
292.571
292.576
292.581
292.587
292.593
292.6
292.607
292.615
292.623
292.633
292.642
292.653
292.663
292.674
292.684
292.698
292.709
292.726
292.738
292.752
292.767
292.78
292.796
292.807
292.824
292.835
292.852
292.862
292.879
292.891
292.908
292.92
292.938
292.95
292.969
292.983
293.003
293.018
293.039
293.055
293.077
293.096
293.122
293.144
293.174
293.198
293.222
293.249
293.273
293.299
293.32
293.344
293.363
293.384
293.4
293.419
293.433
293.45
293.463
293.478
293.489
293.501
293.513
293.522
293.534
293.542
293.553
293.56
293.569
293.575
293.583
293.588
293.595
293.599
293.605
293.609
293.613
293.617
293.62
293.624
293.627
293.63
293.633
293.636
293.638
293.641
293.644
293.646
293.649
293.652
293.655
293.658
293.659
293.66
293.659
288.674
288.677
288.691
288.723
288.783
288.873
288.994
289.141
289.303
289.47
289.628
289.772
289.893
289.991
290.065
290.117
290.15
290.169
290.177
290.18
290.181
290.18
290.176
290.169
290.158
290.146
290.132
290.12
290.108
290.101
290.095
290.094
290.093
290.094
290.098
290.104
290.118
290.135
290.159
290.185
290.216
290.247
290.28
290.315
290.35
290.385
290.419
290.452
290.483
290.513
290.541
290.568
290.594
290.619
290.644
290.67
290.697
290.724
290.753
290.782
290.814
290.847
290.884
290.919
290.958
290.99
291.03
291.064
291.107
291.146
291.193
291.237
291.287
291.329
291.371
291.406
291.433
291.451
291.462
291.475
291.484
291.498
291.502
291.514
291.518
291.528
291.535
291.545
291.553
291.561
291.564
291.567
291.568
291.569
291.564
291.575
291.571
291.592
291.613
291.647
291.674
291.699
291.722
291.736
291.75
291.761
291.763
291.77
291.755
291.748
291.714
291.689
291.66
291.606
291.574
291.497
291.454
291.34
291.266
291.127
291.028
290.876
290.761
290.606
290.48
290.324
290.2
290.058
289.946
289.834
289.747
289.677
289.627
289.594
289.578
289.566
289.566
289.563
289.571
289.576
289.597
289.613
289.638
289.656
289.692
289.721
289.772
289.816
289.884
289.939
290.028
290.105
290.218
290.308
290.416
290.495
290.573
290.637
290.692
290.758
290.778
290.809
290.796
290.815
290.801
290.82
290.799
290.817
290.805
290.821
290.808
290.823
290.806
290.825
290.794
290.824
290.79
290.803
290.737
290.693
290.555
290.467
290.318
290.206
290.074
289.963
289.862
289.782
289.711
289.674
289.628
289.626
289.607
289.619
289.605
289.626
289.607
289.649
289.667
289.824
289.873
290.052
290.079
290.205
290.226
290.352
290.391
290.529
290.567
290.679
290.715
290.821
290.867
290.971
291.019
291.111
291.151
291.223
291.26
291.323
291.362
291.422
291.46
291.509
291.539
291.575
291.596
291.621
291.635
291.651
291.661
291.669
291.673
291.675
291.676
291.675
291.674
291.67
291.671
291.669
291.675
291.676
291.688
291.687
291.705
291.708
291.736
291.739
291.759
291.752
291.768
291.77
291.799
291.801
291.842
291.853
291.923
291.953
292.035
292.063
292.118
292.123
292.14
292.127
292.127
292.099
292.079
292.029
291.976
291.914
291.852
291.79
291.729
291.653
291.583
291.485
291.408
291.3
291.228
291.125
291.066
290.978
290.936
290.867
290.84
290.786
290.769
290.731
290.722
290.697
290.693
290.682
290.682
290.68
290.687
290.699
290.72
290.739
290.758
290.77
290.781
290.786
290.797
290.804
290.82
290.824
290.839
290.847
290.868
290.873
290.891
290.897
290.919
290.93
290.958
290.975
291.005
291.025
291.054
291.074
291.096
291.111
291.125
291.136
291.154
291.166
291.19
291.202
291.23
291.247
291.276
291.284
291.308
291.321
291.359
291.376
291.416
291.424
291.458
291.467
291.504
291.514
291.549
291.56
291.601
291.609
291.648
291.66
291.712
291.726
291.771
291.771
291.806
291.809
291.862
291.874
291.931
291.936
291.978
291.978
292.016
292.016
292.062
292.069
292.106
292.1
292.133
292.136
292.193
292.206
292.255
292.258
292.288
292.291
292.321
292.326
292.365
292.376
292.412
292.417
292.445
292.451
292.466
292.477
292.488
292.498
292.505
292.512
292.514
292.518
292.515
292.514
292.51
292.512
292.511
292.511
292.51
292.516
292.518
292.523
292.521
292.526
292.53
292.541
292.546
292.555
292.56
292.568
292.572
292.578
292.583
292.591
292.599
292.608
292.616
292.626
292.635
292.646
292.656
292.669
292.678
292.694
292.706
292.72
292.734
292.744
292.761
292.772
292.789
292.797
292.815
292.824
292.842
292.85
292.868
292.875
292.894
292.899
292.918
292.924
292.943
292.951
292.971
292.978
292.996
293.004
293.026
293.039
293.067
293.084
293.107
293.13
293.149
293.178
293.197
293.226
293.244
293.27
293.286
293.311
293.324
293.346
293.357
293.378
293.39
293.405
293.417
293.427
293.442
293.45
293.465
293.472
293.485
293.491
293.503
293.508
293.519
293.523
293.533
293.538
293.545
293.551
293.555
293.561
293.565
293.571
293.573
293.579
293.581
293.586
293.589
293.592
293.596
293.599
293.603
293.607
293.61
293.612
293.612
293.612
288.686
288.689
288.704
288.737
288.798
288.891
289.015
289.164
289.327
289.493
289.65
289.789
289.907
290.001
290.071
290.12
290.152
290.169
290.176
290.179
290.179
290.178
290.174
290.166
290.156
290.143
290.129
290.116
290.105
290.097
290.092
290.091
290.09
290.091
290.094
290.101
290.113
290.133
290.154
290.183
290.211
290.244
290.276
290.31
290.346
290.381
290.416
290.449
290.481
290.511
290.54
290.566
290.592
290.618
290.644
290.67
290.696
290.724
290.752
290.782
290.815
290.849
290.886
290.921
290.959
290.994
291.031
291.067
291.108
291.149
291.193
291.239
291.285
291.33
291.373
291.408
291.437
291.452
291.465
291.462
291.477
291.475
291.487
291.491
291.502
291.513
291.526
291.538
291.553
291.562
291.572
291.567
291.587
291.568
291.581
291.57
291.589
291.585
291.623
291.642
291.681
291.699
291.72
291.743
291.755
291.77
291.785
291.79
291.807
291.805
291.796
291.806
291.782
291.769
291.708
291.708
291.636
291.611
291.499
291.44
291.299
291.211
291.05
290.934
290.756
290.621
290.442
290.299
290.14
290.009
289.887
289.789
289.709
289.654
289.611
289.594
289.576
289.577
289.573
289.59
289.596
289.623
289.626
289.656
289.668
289.713
289.739
289.797
289.837
289.917
289.976
290.094
290.173
290.292
290.381
290.483
290.562
290.643
290.751
290.825
290.941
290.963
290.98
290.977
290.991
290.983
291
290.963
290.996
290.953
290.99
290.961
290.991
290.956
290.975
290.955
290.977
290.932
290.947
290.84
290.776
290.614
290.513
290.365
290.246
290.117
290.008
289.906
289.826
289.75
289.71
289.65
289.637
289.609
289.626
289.61
289.624
289.604
289.647
289.649
289.851
289.866
290.013
290.012
290.121
290.129
290.275
290.297
290.46
290.461
290.575
290.581
290.709
290.734
290.872
290.906
291.019
291.04
291.116
291.14
291.216
291.251
291.328
291.364
291.427
291.453
291.497
291.514
291.542
291.554
291.57
291.576
291.578
291.579
291.577
291.576
291.565
291.563
291.549
291.549
291.541
291.544
291.542
291.544
291.534
291.549
291.548
291.569
291.559
291.569
291.56
291.576
291.569
291.596
291.576
291.615
291.62
291.717
291.735
291.861
291.88
291.971
291.98
291.988
291.985
291.999
291.98
291.964
291.927
291.89
291.845
291.801
291.758
291.717
291.654
291.603
291.511
291.452
291.343
291.288
291.178
291.137
291.037
291.013
290.929
290.915
290.845
290.835
290.778
290.774
290.732
290.729
290.705
290.706
290.701
290.711
290.72
290.748
290.76
290.778
290.778
290.792
290.793
290.807
290.81
290.824
290.822
290.836
290.838
290.856
290.854
290.872
290.872
290.897
290.902
290.936
290.951
290.988
291.008
291.041
291.061
291.08
291.09
291.109
291.117
291.147
291.156
291.191
291.205
291.236
291.248
291.274
291.27
291.297
291.308
291.354
291.361
291.393
291.39
291.424
291.428
291.462
291.462
291.497
291.503
291.538
291.538
291.577
291.587
291.652
291.659
291.698
291.68
291.716
291.716
291.79
291.794
291.846
291.842
291.877
291.87
291.913
291.912
291.96
291.961
291.993
291.969
292.01
292.011
292.09
292.094
292.14
292.135
292.164
292.16
292.196
292.197
292.25
292.252
292.299
292.303
292.332
292.344
292.362
292.38
292.396
292.412
292.424
292.44
292.445
292.457
292.453
292.466
292.467
292.48
292.477
292.479
292.481
292.496
292.498
292.5
292.501
292.516
292.521
292.537
292.545
292.557
292.562
292.568
292.571
292.579
292.586
292.595
292.602
292.611
292.619
292.63
292.639
292.651
292.661
292.674
292.686
292.701
292.713
292.724
292.74
292.75
292.766
292.775
292.791
292.799
292.817
292.825
292.842
292.848
292.864
292.868
292.883
292.884
292.898
292.899
292.913
292.917
292.928
292.923
292.933
292.935
292.952
292.956
292.975
292.984
292.994
293.016
293.029
293.057
293.072
293.102
293.117
293.146
293.16
293.188
293.199
293.226
293.236
293.26
293.272
293.285
293.302
293.312
293.331
293.338
293.357
293.364
293.382
293.388
293.405
293.41
293.426
293.433
293.445
293.454
293.462
293.472
293.478
293.487
293.492
293.502
293.506
293.514
293.519
293.525
293.531
293.536
293.541
293.546
293.551
293.556
293.56
293.561
293.561
288.705
288.709
288.723
288.758
288.822
288.917
289.044
289.195
289.358
289.522
289.675
289.81
289.922
290.011
290.077
290.123
290.152
290.168
290.175
290.177
290.177
290.175
290.171
290.163
290.152
290.139
290.125
290.113
290.101
290.094
290.09
290.089
290.09
290.089
290.093
290.098
290.112
290.126
290.152
290.174
290.206
290.235
290.268
290.302
290.336
290.373
290.407
290.443
290.475
290.507
290.535
290.564
290.59
290.616
290.642
290.668
290.695
290.723
290.751
290.783
290.815
290.852
290.885
290.924
290.958
290.997
291.029
291.069
291.105
291.149
291.189
291.236
291.28
291.33
291.37
291.413
291.431
291.455
291.449
291.462
291.459
291.461
291.466
291.466
291.481
291.493
291.508
291.527
291.541
291.559
291.551
291.568
291.546
291.568
291.551
291.569
291.556
291.587
291.593
291.647
291.656
291.7
291.701
291.727
291.754
291.764
291.78
291.796
291.827
291.84
291.877
291.881
291.893
291.868
291.865
291.855
291.872
291.835
291.823
291.74
291.706
291.582
291.504
291.338
291.215
291.021
290.861
290.663
290.488
290.309
290.151
290.005
289.885
289.781
289.711
289.648
289.625
289.6
289.603
289.598
289.622
289.613
289.638
289.639
289.672
289.69
289.74
289.761
289.828
289.871
289.972
290.036
290.154
290.239
290.351
290.437
290.541
290.66
290.775
290.965
291.061
291.196
291.198
291.259
291.228
291.265
291.246
291.272
291.239
291.264
291.229
291.258
291.236
291.264
291.225
291.255
291.215
291.253
291.178
291.148
290.997
290.909
290.756
290.644
290.502
290.377
290.244
290.128
290.014
289.928
289.835
289.769
289.69
289.661
289.624
289.632
289.604
289.618
289.588
289.644
289.649
289.815
289.809
289.91
289.89
290
289.99
290.152
290.161
290.294
290.271
290.369
290.366
290.501
290.525
290.699
290.72
290.83
290.833
290.905
290.922
291.021
291.057
291.161
291.196
291.276
291.299
291.353
291.366
291.399
291.409
291.419
291.419
291.418
291.417
291.406
291.403
291.377
291.372
291.345
291.345
291.324
291.329
291.295
291.29
291.282
291.289
291.265
291.272
291.263
291.27
291.246
291.257
291.248
291.256
291.234
291.269
291.278
291.408
291.427
291.607
291.641
291.741
291.737
291.794
291.796
291.829
291.827
291.833
291.828
291.817
291.795
291.775
291.757
291.741
291.702
291.673
291.595
291.556
291.452
291.413
291.3
291.271
291.168
291.15
291.056
291.049
290.953
290.95
290.868
290.867
290.798
290.791
290.75
290.751
290.735
290.749
290.758
290.782
290.774
290.789
290.788
290.803
290.799
290.814
290.816
290.828
290.82
290.832
290.828
290.84
290.834
290.848
290.845
290.865
290.87
290.906
290.922
290.965
290.989
291.017
291.033
291.053
291.06
291.09
291.099
291.144
291.162
291.205
291.22
291.246
291.249
291.271
291.264
291.293
291.301
291.338
291.334
291.357
291.355
291.383
291.381
291.404
291.399
291.428
291.426
291.452
291.438
291.48
291.492
291.547
291.545
291.568
291.553
291.592
291.602
291.67
291.665
291.701
291.691
291.729
291.722
291.765
291.761
291.797
291.789
291.819
291.798
291.846
291.851
291.928
291.927
291.963
291.957
291.988
291.979
292.021
292.022
292.088
292.089
292.139
292.153
292.182
292.206
292.231
292.259
292.282
292.31
292.328
292.356
292.362
292.392
292.394
292.429
292.433
292.453
292.445
292.46
292.467
292.486
292.485
292.498
292.502
292.518
292.529
292.547
292.555
292.565
292.565
292.574
292.58
292.592
292.597
292.607
292.611
292.622
292.63
292.641
292.651
292.663
292.674
292.688
292.701
292.713
292.728
292.737
292.754
292.762
292.778
292.786
292.802
292.81
292.827
292.835
292.85
292.855
292.868
292.871
292.88
292.878
292.885
292.884
292.889
292.885
292.883
292.871
292.872
292.862
292.867
292.861
292.858
292.859
292.859
292.873
292.88
292.904
292.913
292.942
292.953
292.984
292.995
293.025
293.036
293.066
293.078
293.1
293.116
293.129
293.151
293.161
293.185
293.194
293.218
293.226
293.25
293.258
293.281
293.29
293.312
293.323
293.338
293.353
293.364
293.38
293.389
293.404
293.412
293.426
293.434
293.446
293.454
293.464
293.472
293.48
293.488
293.496
293.504
293.51
293.514
293.514
288.729
288.732
288.748
288.784
288.85
288.948
289.077
289.228
289.39
289.55
289.698
289.827
289.934
290.018
290.08
290.124
290.151
290.166
290.172
290.174
290.173
290.172
290.167
290.158
290.148
290.134
290.122
290.109
290.101
290.092
290.091
290.089
290.09
290.09
290.092
290.099
290.107
290.126
290.142
290.171
290.193
290.226
290.252
290.285
290.32
290.356
290.394
290.429
290.465
290.496
290.528
290.556
290.585
290.61
290.638
290.664
290.692
290.719
290.751
290.781
290.816
290.85
290.887
290.921
290.959
290.993
291.03
291.065
291.104
291.142
291.187
291.23
291.282
291.324
291.376
291.403
291.439
291.43
291.446
291.444
291.437
291.441
291.435
291.444
291.448
291.462
291.477
291.488
291.508
291.501
291.521
291.492
291.513
291.498
291.517
291.505
291.524
291.517
291.554
291.574
291.616
291.634
291.658
291.677
291.695
291.728
291.729
291.783
291.805
291.87
291.889
291.921
291.912
291.928
291.92
291.962
291.982
292.027
292.02
292.042
292.013
292
291.908
291.837
291.688
291.551
291.357
291.169
290.957
290.752
290.545
290.354
290.173
290.023
289.885
289.794
289.707
289.675
289.638
289.641
289.622
289.638
289.626
289.652
289.664
289.704
289.719
289.777
289.806
289.888
289.933
290.03
290.107
290.207
290.292
290.4
290.514
290.637
290.827
290.981
291.23
291.312
291.498
291.525
291.549
291.546
291.609
291.586
291.604
291.592
291.612
291.576
291.611
291.59
291.618
291.575
291.607
291.546
291.525
291.397
291.318
291.177
291.074
290.935
290.81
290.667
290.531
290.39
290.265
290.136
290.03
289.916
289.825
289.735
289.682
289.634
289.621
289.597
289.603
289.568
289.63
289.633
289.739
289.691
289.786
289.751
289.861
289.845
289.981
289.976
290.068
290.018
290.106
290.105
290.247
290.276
290.464
290.465
290.545
290.537
290.611
290.629
290.757
290.797
290.93
290.961
291.062
291.079
291.144
291.152
291.187
291.193
291.198
291.196
291.191
291.186
291.164
291.157
291.115
291.109
291.067
291.069
291.016
291.012
290.957
290.963
290.914
290.915
290.879
290.896
290.865
290.868
290.833
290.859
290.825
290.834
290.808
290.862
290.864
291.051
291.091
291.305
291.327
291.461
291.473
291.555
291.582
291.636
291.674
291.717
291.745
291.763
291.767
291.775
291.786
291.793
291.785
291.774
291.722
291.7
291.611
291.583
291.48
291.46
291.349
291.342
291.233
291.226
291.113
291.108
291.001
290.998
290.895
290.89
290.816
290.816
290.785
290.802
290.798
290.8
290.795
290.81
290.799
290.813
290.809
290.825
290.819
290.827
290.821
290.826
290.82
290.83
290.822
290.832
290.823
290.84
290.846
290.886
290.905
290.943
290.966
290.991
291.005
291.032
291.039
291.083
291.11
291.166
291.191
291.232
291.238
291.259
291.253
291.272
291.272
291.298
291.303
291.33
291.313
291.334
291.329
291.35
291.334
291.353
291.342
291.359
291.353
291.359
291.338
291.369
291.374
291.414
291.393
291.421
291.402
291.454
291.462
291.506
291.484
291.515
291.51
291.55
291.539
291.574
291.561
291.594
291.581
291.615
291.587
291.644
291.653
291.72
291.711
291.746
291.738
291.772
291.761
291.813
291.815
291.885
291.902
291.948
291.977
292.011
292.05
292.085
292.125
292.158
292.199
292.222
292.267
292.28
292.334
292.344
292.397
292.403
292.435
292.433
292.457
292.467
292.489
292.489
292.505
292.515
292.534
292.545
292.56
292.562
292.574
292.579
292.6
292.604
292.616
292.616
292.625
292.628
292.64
292.649
292.662
292.672
292.685
292.697
292.709
292.724
292.733
292.75
292.758
292.776
292.781
292.799
292.804
292.822
292.826
292.844
292.848
292.863
292.866
292.876
292.874
292.879
292.877
292.88
292.875
292.873
292.855
292.848
292.825
292.816
292.793
292.78
292.761
292.736
292.73
292.717
292.721
292.718
292.732
292.737
292.76
292.767
292.795
292.805
292.836
292.846
292.877
292.891
292.91
292.932
292.946
292.972
292.983
293.012
293.023
293.053
293.065
293.096
293.108
293.139
293.155
293.18
293.199
293.218
293.241
293.257
293.279
293.294
293.315
293.329
293.349
293.362
293.378
293.391
293.404
293.417
293.429
293.441
293.453
293.463
293.47
293.472
288.751
288.755
288.771
288.809
288.877
288.977
289.107
289.258
289.417
289.573
289.715
289.839
289.94
290.021
290.081
290.123
290.149
290.162
290.167
290.168
290.168
290.166
290.16
290.151
290.139
290.128
290.114
290.107
290.095
290.094
290.089
290.091
290.089
290.091
290.09
290.097
290.103
290.117
290.138
290.155
290.185
290.2
290.233
290.258
290.294
290.332
290.369
290.409
290.443
290.48
290.51
290.544
290.57
290.601
290.627
290.657
290.683
290.716
290.746
290.78
290.813
290.849
290.883
290.92
290.954
290.991
291.026
291.064
291.099
291.142
291.182
291.234
291.274
291.33
291.366
291.412
291.419
291.416
291.419
291.416
291.417
291.407
291.413
291.409
291.416
291.419
291.418
291.421
291.401
291.423
291.391
291.406
291.386
291.4
291.388
291.402
291.4
291.414
291.419
291.442
291.474
291.495
291.526
291.531
291.57
291.568
291.637
291.653
291.775
291.815
291.895
291.897
291.925
291.909
291.949
291.97
292.037
292.072
292.145
292.179
292.238
292.25
292.264
292.223
292.162
292.044
291.906
291.721
291.519
291.294
291.061
290.823
290.596
290.377
290.192
290.017
289.9
289.786
289.743
289.676
289.668
289.637
289.654
289.642
289.672
289.686
289.731
289.758
289.822
289.865
289.943
290.007
290.09
290.169
290.265
290.365
290.48
290.633
290.799
291.044
291.234
291.516
291.625
291.827
291.805
291.92
291.929
291.951
291.937
291.977
291.947
291.968
291.95
291.986
291.954
291.977
291.923
291.891
291.776
291.691
291.56
291.459
291.327
291.207
291.066
290.925
290.777
290.632
290.488
290.353
290.216
290.095
289.967
289.86
289.76
289.692
289.634
289.612
289.581
289.576
289.54
289.58
289.557
289.627
289.571
289.653
289.607
289.708
289.676
289.773
289.736
289.823
289.753
289.844
289.833
289.99
290.015
290.164
290.148
290.204
290.189
290.274
290.295
290.454
290.492
290.654
290.679
290.797
290.806
290.877
290.883
290.917
290.921
290.924
290.921
290.911
290.902
290.87
290.855
290.802
290.794
290.729
290.724
290.641
290.639
290.555
290.553
290.483
290.486
290.451
290.454
290.418
290.426
290.391
290.4
290.366
290.375
290.358
290.452
290.479
290.717
290.767
290.973
291.034
291.162
291.211
291.301
291.373
291.463
291.545
291.624
291.686
291.734
291.766
291.801
291.836
291.871
291.886
291.892
291.875
291.865
291.797
291.783
291.691
291.676
291.568
291.566
291.447
291.44
291.308
291.305
291.168
291.164
291.027
291.006
290.895
290.896
290.837
290.849
290.82
290.828
290.822
290.824
290.82
290.825
290.819
290.829
290.821
290.828
290.819
290.825
290.818
290.824
290.816
290.823
290.816
290.832
290.838
290.875
290.897
290.928
290.949
290.975
290.992
291.032
291.05
291.11
291.153
291.206
291.221
291.248
291.246
291.262
291.261
291.287
291.289
291.315
291.303
291.319
291.31
291.323
291.314
291.322
291.315
291.324
291.307
291.316
291.275
291.265
291.228
291.251
291.235
291.261
291.243
291.27
291.255
291.291
291.291
291.302
291.294
291.324
291.309
291.34
291.324
291.351
291.334
291.364
291.351
291.386
291.362
291.422
291.43
291.483
291.463
291.499
291.493
291.529
291.519
291.581
291.605
291.669
291.702
291.748
291.794
291.838
291.888
291.936
291.988
292.03
292.085
292.116
292.182
292.206
292.282
292.3
292.372
292.387
292.434
292.437
292.468
292.477
292.496
292.501
292.52
292.53
292.55
292.555
292.574
292.578
292.609
292.621
292.641
292.639
292.647
292.645
292.655
292.66
292.675
292.685
292.699
292.711
292.724
292.737
292.749
292.765
292.773
292.791
292.796
292.816
292.819
292.837
292.837
292.853
292.854
292.871
292.871
292.883
292.882
292.884
292.882
292.885
292.878
292.879
292.864
292.855
292.832
292.817
292.787
292.766
292.733
292.694
292.667
292.625
292.607
292.575
292.567
292.552
292.556
292.553
292.566
292.57
292.593
292.6
292.629
292.64
292.667
292.684
292.7
292.727
292.74
292.772
292.785
292.819
292.834
292.87
292.887
292.925
292.945
292.981
293.006
293.035
293.065
293.089
293.12
293.143
293.174
293.195
293.224
293.245
293.271
293.291
293.313
293.331
293.349
293.367
293.384
293.402
293.418
293.429
293.433
288.768
288.772
288.789
288.828
288.898
288.999
289.13
289.278
289.434
289.586
289.724
289.843
289.943
290.021
290.079
290.119
290.142
290.153
290.157
290.158
290.158
290.154
290.148
290.138
290.128
290.114
290.107
290.094
290.092
290.084
290.086
290.083
290.085
290.083
290.086
290.086
290.097
290.104
290.121
290.142
290.155
290.185
290.189
290.226
290.251
290.296
290.335
290.372
290.413
290.446
290.486
290.515
290.551
290.577
290.612
290.638
290.672
290.701
290.738
290.77
290.808
290.841
290.878
290.913
290.95
290.984
291.023
291.057
291.099
291.136
291.185
291.225
291.282
291.321
291.372
291.391
291.391
291.391
291.392
291.393
291.382
291.389
291.378
291.381
291.375
291.364
291.354
291.311
291.295
291.237
291.258
291.22
291.225
291.212
291.205
291.204
291.202
291.209
291.206
291.226
291.228
291.265
291.267
291.3
291.285
291.336
291.337
291.487
291.545
291.719
291.765
291.844
291.833
291.887
291.896
291.975
292.01
292.096
292.151
292.241
292.305
292.398
292.456
292.499
292.497
292.468
292.381
292.258
292.084
291.88
291.643
291.39
291.122
290.863
290.606
290.386
290.172
290.025
289.877
289.808
289.715
289.694
289.66
289.674
289.669
289.704
289.715
289.773
289.808
289.874
289.934
290.005
290.076
290.16
290.249
290.355
290.474
290.615
290.805
291.014
291.314
291.52
291.859
291.93
292.163
292.166
292.26
292.231
292.28
292.27
292.291
292.274
292.307
292.28
292.302
292.255
292.218
292.109
292.016
291.884
291.771
291.641
291.518
291.379
291.238
291.091
290.94
290.791
290.642
290.499
290.363
290.229
290.106
289.979
289.871
289.766
289.695
289.632
289.592