/*--------------------------------*- C++ -*----------------------------------*\
| =========                 |                                                 |
| \\      /  F ield         | OpenFOAM: The Open Source CFD Toolbox           |
|  \\    /   O peration     | Version:  v1812                                 |
|   \\  /    A nd           | Web:      www.OpenFOAM.com                      |
|    \\/     M anipulation  |                                                 |
\*---------------------------------------------------------------------------*/
FoamFile
{
    version     2.0;
    format      ascii;
    class       volVectorField;
    location    "1.1";
    object      U;
}
// * * * * * * * * * * * * * * * * * * * * * * * * * * * * * * * * * * * * * //

dimensions      [0 1 -1 0 0 0 0];


internalField   nonuniform List<vector> 
20400
(
(0.00168185 0.00456868 0)
(-0.00699462 0.0118327 0)
(-0.03096 0.013631 0)
(-0.066812 0.0140764 0)
(-0.112329 0.0112198 0)
(-0.165346 0.0120919 0)
(-0.224886 0.013068 0)
(-0.291833 0.0131717 0)
(-0.362418 0.013259 0)
(-0.440927 0.0124975 0)
(-0.520874 0.0133489 0)
(-0.609195 0.0140754 0)
(-0.696398 0.0162208 0)
(-0.791466 0.0180846 0)
(-0.882906 0.020222 0)
(-0.980351 0.0221884 0)
(-1.07217 0.0233366 0)
(-1.16748 0.0243783 0)
(-1.25617 0.0229865 0)
(-1.34541 0.0210201 0)
(-1.42776 0.0196209 0)
(-1.50711 0.0188133 0)
(-1.57791 0.0166328 0)
(-1.64007 0.0151229 0)
(-1.68951 0.0136095 0)
(-1.72442 0.0106836 0)
(-1.74464 0.00736194 0)
(-1.75107 0.00509445 0)
(-1.74523 0.00269814 0)
(-1.7325 -0.00223735 0)
(-1.7017 -0.00594171 0)
(-1.67928 -0.00824923 0)
(-1.63619 -0.00133282 0)
(-1.61573 0.00727972 0)
(-1.57461 0.0160248 0)
(-1.55761 0.0264639 0)
(-1.52288 0.0233113 0)
(-1.49895 0.0267746 0)
(-1.45968 0.0194899 0)
(-1.422 0.0149047 0)
(-1.37224 0.00765045 0)
(-1.32229 0.000181263 0)
(-1.2658 -0.00670082 0)
(-1.21129 -0.0137437 0)
(-1.15373 -0.0191564 0)
(-1.09801 -0.0227287 0)
(-1.03885 -0.0240682 0)
(-0.977968 -0.024044 0)
(-0.912128 -0.0233151 0)
(-0.84424 -0.0211824 0)
(-0.774534 -0.0189845 0)
(-0.705612 -0.0149168 0)
(-0.639084 -0.0118226 0)
(-0.576178 -0.00755377 0)
(-0.519346 -0.00552253 0)
(-0.467583 -0.00298626 0)
(-0.419645 -0.00508087 0)
(-0.378747 -0.00898352 0)
(-0.339459 -0.0034794 0)
(-0.322554 -0.00473794 0)
(-0.303982 -0.00242217 0)
(-0.311622 -0.00236729 0)
(-0.310812 -0.00378874 0)
(-0.389782 0.00329903 0)
(-0.397048 -0.0141057 0)
(-0.553398 0.0191029 0)
(-0.576639 -0.0217646 0)
(-0.799102 0.0320114 0)
(-0.854371 -0.0227012 0)
(-1.14144 0.0444679 0)
(-1.24971 -0.0200808 0)
(-1.59419 0.0540562 0)
(-1.7808 -0.00903091 0)
(-2.17789 0.063534 0)
(-2.46405 0.0080885 0)
(-2.91756 0.0693642 0)
(-3.31555 0.0326357 0)
(-3.8317 0.0785285 0)
(-4.33234 0.0809791 0)
(-4.91247 0.125011 0)
(-5.49376 0.153432 0)
(-6.1175 0.202127 0)
(-6.73285 0.225599 0)
(-7.36983 0.254368 0)
(-7.95113 0.273802 0)
(-8.48959 0.266599 0)
(-8.93051 0.211974 0)
(-9.25156 0.103623 0)
(-9.4314 -0.0102356 0)
(-9.49068 -0.0741291 0)
(-9.42211 -0.13297 0)
(-9.27597 -0.191599 0)
(-8.99819 -0.165016 0)
(-8.80347 -0.0550026 0)
(-8.41115 0.135956 0)
(-8.13362 0.234221 0)
(-7.61207 0.401157 0)
(-7.20896 0.432597 0)
(-6.59644 0.481894 0)
(-6.08371 0.458852 0)
(-5.43776 0.435615 0)
(-4.84255 0.371746 0)
(-4.1933 0.294065 0)
(-3.56954 0.196648 0)
(-2.95271 0.063206 0)
(-2.38271 -0.118746 0)
(-1.81057 -0.279438 0)
(-1.31916 -0.420624 0)
(-0.844009 -0.375634 0)
(-0.478142 -0.316578 0)
(-0.156435 -0.187743 0)
(-0.0279153 -0.123564 0)
(0.288173 -0.0357858 0)
(0.303733 -0.0222281 0)
(0.6663 -0.040924 0)
(0.669 -0.00338607 0)
(0.984461 -0.0153272 0)
(0.98362 -0.0126788 0)
(1.25988 -0.00345885 0)
(1.26103 -0.0140491 0)
(1.49472 0.00668164 0)
(1.49781 -0.00591128 0)
(1.69897 0.00983052 0)
(1.70213 -0.00286274 0)
(1.86723 0.0104221 0)
(1.86579 0.00831264 0)
(1.98027 0.00614904 0)
(1.98349 0.0142334 0)
(2.03747 0.00831231 0)
(2.04528 0.0122562 0)
(2.05507 0.0143372 0)
(2.04952 0.0142964 0)
(2.04548 0.0182964 0)
(1.9916 0.00738433 0)
(1.98455 0.0216083 0)
(1.87721 0.00355164 0)
(1.86995 0.0229702 0)
(1.72712 0.000490018 0)
(1.71719 0.0254368 0)
(1.55617 -0.00585504 0)
(1.54348 0.0239299 0)
(1.3659 -0.0130061 0)
(1.35129 0.0195819 0)
(1.15859 -0.0224516 0)
(1.14281 0.0148046 0)
(0.937709 -0.0310173 0)
(0.92076 0.0109742 0)
(0.701517 -0.0287031 0)
(0.687815 0.00967582 0)
(0.470664 -0.00637818 0)
(0.463976 0.00889052 0)
(0.30697 0.0210597 0)
(0.293304 0.0149595 0)
(0.234783 0.0234971 0)
(0.218315 0.0158724 0)
(0.21825 0.0144893 0)
(0.21243 0.00779518 0)
(0.308195 -0.00370558 0)
(0.310515 -0.0200973 0)
(0.539347 -0.0155751 0)
(0.554234 -0.0307986 0)
(0.948346 -0.0532733 0)
(0.973662 -0.012382 0)
(1.48251 -0.066362 0)
(1.51104 -0.0110605 0)
(2.08905 -0.0651868 0)
(2.11554 -0.00778196 0)
(2.71888 -0.0688278 0)
(2.73599 0.00193856 0)
(3.30201 -0.0631226 0)
(3.31066 -0.00598682 0)
(3.86596 -0.0502882 0)
(3.86652 -0.011443 0)
(4.38609 -0.0491805 0)
(4.38528 -0.00983483 0)
(4.84597 -0.0335953 0)
(4.84119 -0.0211539 0)
(5.22557 -0.0161031 0)
(5.21398 -0.0192733 0)
(5.47902 -1.781e-05 0)
(5.46882 0.00233652 0)
(5.58721 -0.000679185 0)
(5.5806 0.00353998 0)
(5.5839 0.00354577 0)
(5.54703 0.0141656 0)
(5.50334 0.0243842 0)
(5.39675 0.0137296 0)
(5.33421 0.0378333 0)
(5.14455 0.0106079 0)
(5.08691 0.0492125 0)
(4.80687 0.00305989 0)
(4.77151 0.0390128 0)
(4.40784 0.00499111 0)
(4.38361 0.0434123 0)
(3.97434 0.00839967 0)
(3.95751 0.0403615 0)
(3.52433 -0.00352702 0)
(3.50333 0.0425865 0)
(3.07494 -0.0113937 0)
(3.04295 0.050202 0)
(2.66931 -0.0371891 0)
(2.63231 0.0417326 0)
(2.30989 -0.0340549 0)
(2.28101 0.0341307 0)
(1.97803 -0.0256313 0)
(1.95506 0.0299437 0)
(1.69431 -0.0285736 0)
(1.67429 0.0244861 0)
(1.45816 -0.0273304 0)
(1.44166 0.0177011 0)
(1.25545 -0.0198987 0)
(1.24298 0.0146024 0)
(1.08881 -0.0151902 0)
(1.07897 0.0118025 0)
(0.953759 -0.00975068 0)
(0.945624 0.00933242 0)
(0.852631 -0.00547127 0)
(0.847563 0.00618937 0)
(0.788379 -0.00560825 0)
(0.785536 0.00427047 0)
(0.74336 -0.00294313 0)
(0.741154 0.00366728 0)
(0.707683 -0.00091222 0)
(0.706109 0.00351969 0)
(0.68187 0.000330237 0)
(0.68081 0.00325604 0)
(0.665525 0.000658011 0)
(0.665291 0.00148027 0)
(0.658916 0.00298788 0)
(0.658564 0.00277805 0)
(0.658974 0.00294137 0)
(0.658982 0.00247616 0)
(0.667308 0.00437535 0)
(0.667676 0.00214809 0)
(0.687896 0.00539266 0)
(0.687933 0.00186204 0)
(0.725551 0.00543967 0)
(0.724998 0.000281867 0)
(0.782518 0.00501777 0)
(0.781283 -0.00129989 0)
(0.861722 0.0037264 0)
(0.861605 -0.00441393 0)
(0.965389 0.0049901 0)
(0.965906 -0.00659786 0)
(1.09234 0.00609342 0)
(1.09162 -0.00687117 0)
(1.24417 0.0052888 0)
(1.24176 -0.00774663 0)
(1.4132 0.00407204 0)
(1.40889 -0.00675851 0)
(1.59841 0.00199093 0)
(1.59336 -0.00920799 0)
(1.78945 0.00537763 0)
(1.78427 -0.00478135 0)
(1.97432 0.0119397 0)
(1.96891 0.00135934 0)
(2.12607 0.0178714 0)
(2.12639 -2.45813e-06 0)
(2.25387 0.0210666 0)
(2.2587 0.00226518 0)
(2.37449 0.0244362 0)
(2.37308 0.0141404 0)
(2.4759 0.0144421 0)
(2.47249 0.0194923 0)
(2.5304 0.0201971 0)
(2.52725 0.0231941 0)
(2.53949 0.0243986 0)
(2.53065 0.0279813 0)
(2.52134 0.0303913 0)
(2.48616 0.0299448 0)
(2.46955 0.0380217 0)
(2.40292 0.0274713 0)
(2.38755 0.0408891 0)
(2.28575 0.0272608 0)
(2.27542 0.0442752 0)
(2.1525 0.0303819 0)
(2.14324 0.048191 0)
(2.01088 0.0298728 0)
(2.00252 0.0488603 0)
(1.87151 0.0301783 0)
(1.86388 0.0481703 0)
(1.7442 0.0304789 0)
(1.73815 0.0463628 0)
(1.63794 0.030439 0)
(1.63331 0.0437548 0)
(1.55521 0.0302531 0)
(1.55148 0.0414314 0)
(1.4924 0.0300863 0)
(1.48928 0.0393351 0)
(1.44421 0.030406 0)
(1.44193 0.0371118 0)
(1.40884 0.0306303 0)
(1.41009 0.032375 0)
(1.38888 0.0321582 0)
(1.38974 0.0323259 0)
(1.38673 0.0327411 0)
(1.38587 0.0354741 0)
(1.35261 0.0321497 0)
(1.35191 0.0392342 0)
(1.30701 0.0325921 0)
(1.30624 0.041661 0)
(1.25232 0.0329993 0)
(1.25197 0.0420683 0)
(1.18577 0.0355214 0)
(1.1845 0.0463392 0)
(1.11322 0.034495 0)
(1.11242 0.046355 0)
(1.03896 0.0362774 0)
(1.03797 0.048543 0)
(0.964321 0.0377027 0)
(0.963295 0.0488424 0)
(0.887073 0.0403947 0)
(0.885904 0.0503236 0)
(0.813921 0.0412907 0)
(0.814681 0.0468517 0)
(0.752577 0.0466223 0)
(0.753288 0.046041 0)
(0.710315 0.0474219 0)
(0.710142 0.0457441 0)
(0.687713 0.0449848 0)
(0.687274 0.0435957 0)
(0.681926 0.0420164 0)
(0.687869 0.0418722 0)
(0.686965 0.0386491 0)
(0.715906 0.038952 0)
(0.715727 0.0336957 0)
(0.766068 0.0392507 0)
(0.765413 0.030792 0)
(0.835207 0.034272 0)
(0.832993 0.0271748 0)
(0.91725 0.0344467 0)
(0.91483 0.0262275 0)
(1.01179 0.0340612 0)
(1.00884 0.0263418 0)
(1.11082 0.03364 0)
(1.10936 0.023231 0)
(1.21257 0.0346122 0)
(1.21111 0.0240291 0)
(1.31654 0.0324704 0)
(1.31672 0.0227633 0)
(1.42415 0.0346588 0)
(1.42595 0.0225331 0)
(1.5375 0.0340149 0)
(1.5393 0.0211618 0)
(1.65474 0.034957 0)
(1.657 0.0210401 0)
(1.77956 0.0342729 0)
(1.78217 0.0205116 0)
(1.90868 0.0371104 0)
(1.91205 0.0194313 0)
(2.0499 0.0336726 0)
(2.05284 0.01745 0)
(2.20165 0.0338843 0)
(2.2049 0.0174204 0)
(2.35949 0.035686 0)
(2.36463 0.0144834 0)
(2.52009 0.0361857 0)
(2.52561 0.0173672 0)
(2.67927 0.0347791 0)
(2.68555 0.0162616 0)
(2.84127 0.0326912 0)
(2.84981 0.0160215 0)
(3.00568 0.037234 0)
(3.01421 0.0171047 0)
(3.1694 0.0330851 0)
(3.17695 0.0169527 0)
(3.32371 0.0340602 0)
(3.3312 0.0178176 0)
(3.45923 0.0382465 0)
(3.46718 0.0174831 0)
(3.57741 0.0359469 0)
(3.5826 0.0221698 0)
(3.67412 0.03466 0)
(3.67753 0.0250587 0)
(3.74223 0.0373188 0)
(3.74447 0.0272272 0)
(3.79012 0.0348015 0)
(3.7926 0.0257259 0)
(3.82175 0.0362326 0)
(3.82235 0.0341128 0)
(3.83601 0.0291935 0)
(3.84048 0.0315599 0)
(3.84276 0.0306136 0)
(3.84499 0.0303566 0)
(3.84443 0.0307637 0)
(3.84231 0.0308155 0)
(3.83787 0.0292867 0)
(3.83608 0.0308918 0)
(3.82721 0.0279448 0)
(3.82714 0.0295737 0)
(3.81827 0.0265595 0)
(3.81821 0.0290936 0)
(3.8076 0.0259469 0)
(3.80728 0.0280617 0)
(3.79802 0.0243208 0)
(3.79869 0.0258441 0)
(3.78857 0.02341 0)
(3.78909 0.0251876 0)
(3.78202 0.0219475 0)
(3.78194 0.0222656 0)
(3.78083 0.0222574 0)
(3.78035 0.02246 0)
(3.77966 0.0223256 0)
(3.78099 0.0226897 0)
(3.78162 0.0222159 0)
(3.78776 0.0218797 0)
(3.78824 0.0188752 0)
(3.7972 0.0184615 0)
(3.79869 0.0166342 0)
(3.80748 0.0183036 0)
(3.8091 0.0168767 0)
(3.82114 0.0180505 0)
(3.82345 0.0159967 0)
(3.83958 0.0163467 0)
(3.84223 0.0142356 0)
(3.86213 0.0154181 0)
(3.86452 0.0138152 0)
(3.88771 0.0159618 0)
(3.89014 0.013663 0)
(3.91698 0.0160697 0)
(3.92161 0.0141594 0)
(3.94478 0.0141567 0)
(3.95822 0.0164753 0)
(3.96931 0.0108586 0)
(3.99805 0.017109 0)
(4.00327 0.0111727 0)
(4.038 0.0161851 0)
(4.04067 0.0114594 0)
(4.07691 0.0158705 0)
(4.07881 0.0109057 0)
(4.115 0.0162174 0)
(4.11748 0.0107516 0)
(4.15346 0.0159302 0)
(4.15593 0.0106445 0)
(4.19114 0.0158144 0)
(4.19379 0.0106511 0)
(4.22766 0.0166155 0)
(4.23058 0.0110516 0)
(4.2637 0.016374 0)
(4.2666 0.0107212 0)
(4.29864 0.0158513 0)
(4.30142 0.0105828 0)
(4.33181 0.0157238 0)
(4.33441 0.0111998 0)
(4.36266 0.0163964 0)
(4.36518 0.0116962 0)
(4.39236 0.0160587 0)
(4.3958 0.0114836 0)
(4.41809 0.0134552 0)
(4.42824 0.0151512 0)
(4.43578 0.0100039 0)
(4.45932 0.0150949 0)
(4.46212 0.0115014 0)
(4.48583 0.0142035 0)
(4.48755 0.0110859 0)
(4.50965 0.0141547 0)
(4.51158 0.010661 0)
(4.53177 0.0139983 0)
(4.53389 0.0105075 0)
(4.55266 0.0137826 0)
(4.55499 0.0104145 0)
(4.5727 0.0136494 0)
(4.57608 0.0108259 0)
(4.58951 0.0122245 0)
(4.59775 0.0123709 0)
(4.60237 0.0100429 0)
(4.61827 0.0124424 0)
(4.61967 0.0103057 0)
(4.63519 0.0117738 0)
(4.63604 0.00995902 0)
(4.65005 0.0119 0)
(4.65129 0.0096429 0)
(4.66397 0.0117994 0)
(4.66547 0.00954536 0)
(4.67705 0.0117142 0)
(4.67873 0.0095976 0)
(4.68892 0.011465 0)
(4.69152 0.00970951 0)
(4.6977 0.0104881 0)
(4.70353 0.0097764 0)
(4.70511 0.00931434 0)
(4.71456 0.00939512 0)
(4.71486 0.00903326 0)
(4.72281 0.00887728 0)
(4.72281 0.00856468 0)
(4.72894 0.00845456 0)
(4.7293 0.00794877 0)
(4.7329 0.00797125 0)
(4.73442 0.00824597 0)
(4.73514 0.0074756 0)
(4.73744 0.00737673 0)
(4.73812 0.00735107 0)
(4.73856 0.00678868 0)
(4.73917 0.0066129 0)
(4.73934 0.00652909 0)
(4.7392 0.00634463 0)
(4.73883 0.00619544 0)
(4.73819 0.00579535 0)
(4.73709 0.00568087 0)
(4.73689 0.00572019 0)
(-0.0015165 0.0210229 0)
(-0.0375765 0.0557806 0)
(-0.108718 0.0791739 0)
(-0.206131 0.103434 0)
(-0.330276 0.111838 0)
(-0.469762 0.122973 0)
(-0.624646 0.129694 0)
(-0.785866 0.136951 0)
(-0.957638 0.143926 0)
(-1.1291 0.149949 0)
(-1.30994 0.154403 0)
(-1.48347 0.157056 0)
(-1.66427 0.157768 0)
(-1.83132 0.156913 0)
(-2.00254 0.154249 0)
(-2.15579 0.150013 0)
(-2.30953 0.144957 0)
(-2.44398 0.139123 0)
(-2.57521 0.133607 0)
(-2.6882 0.127754 0)
(-2.79509 0.119586 0)
(-2.88601 0.109753 0)
(-2.96613 0.0972853 0)
(-3.02984 0.0810972 0)
(-3.07758 0.0613566 0)
(-3.1079 0.0393151 0)
(-3.12379 0.0203545 0)
(-3.12378 0.00320604 0)
(-3.11169 -0.00877963 0)
(-3.08246 -0.0236644 0)
(-3.05945 -0.0325988 0)
(-3.00127 -0.0373724 0)
(-2.97313 -0.0395144 0)
(-2.89876 -0.0428619 0)
(-2.86396 -0.0421058 0)
(-2.78699 -0.0426173 0)
(-2.74123 -0.046828 0)
(-2.66363 -0.0525168 0)
(-2.60086 -0.0600403 0)
(-2.51738 -0.066315 0)
(-2.43676 -0.0729261 0)
(-2.34225 -0.0743508 0)
(-2.24733 -0.0752644 0)
(-2.14193 -0.0721415 0)
(-2.03669 -0.0707369 0)
(-1.92361 -0.0693206 0)
(-1.81147 -0.0719061 0)
(-1.69416 -0.076851 0)
(-1.57707 -0.0818299 0)
(-1.4572 -0.0852262 0)
(-1.339 -0.0868629 0)
(-1.22256 -0.0866579 0)
(-1.11003 -0.0836297 0)
(-1.00524 -0.0791532 0)
(-0.908543 -0.0712925 0)
(-0.826187 -0.0678351 0)
(-0.75972 -0.0593921 0)
(-0.706757 -0.0554358 0)
(-0.682891 -0.0390191 0)
(-0.661378 -0.0232741 0)
(-0.69554 -0.000598848 0)
(-0.694864 0.00830118 0)
(-0.842872 0.0690708 0)
(-0.849777 0.0738594 0)
(-1.15468 0.155436 0)
(-1.1711 0.130312 0)
(-1.63516 0.240667 0)
(-1.68371 0.202362 0)
(-2.27533 0.323372 0)
(-2.40249 0.29278 0)
(-3.07415 0.406877 0)
(-3.32637 0.398716 0)
(-4.03814 0.495164 0)
(-4.43662 0.504128 0)
(-5.16825 0.585445 0)
(-5.69717 0.61222 0)
(-6.437 0.677716 0)
(-7.0596 0.71145 0)
(-7.78514 0.744607 0)
(-8.43086 0.770345 0)
(-9.10561 0.772141 0)
(-9.68837 0.760507 0)
(-10.2535 0.758903 0)
(-10.7021 0.706374 0)
(-11.0939 0.637851 0)
(-11.3792 0.538924 0)
(-11.5947 0.414457 0)
(-11.7177 0.262287 0)
(-11.7994 0.141946 0)
(-11.7949 0.0267105 0)
(-11.7353 -0.0813358 0)
(-11.5507 -0.171241 0)
(-11.3475 -0.20437 0)
(-10.9309 -0.282709 0)
(-10.6173 -0.34904 0)
(-10.024 -0.476997 0)
(-9.59394 -0.552345 0)
(-8.8342 -0.701975 0)
(-8.27567 -0.734308 0)
(-7.40978 -0.860709 0)
(-6.74267 -0.868062 0)
(-5.82825 -0.975999 0)
(-5.07584 -0.955042 0)
(-4.1556 -1.02913 0)
(-3.35512 -0.964043 0)
(-2.49726 -0.963637 0)
(-1.83127 -0.81982 0)
(-1.19275 -0.738584 0)
(-0.780246 -0.590541 0)
(-0.229838 -0.532149 0)
(0.0115512 -0.389215 0)
(0.793638 -0.435768 0)
(0.897741 -0.335058 0)
(1.85926 -0.355527 0)
(1.86822 -0.293817 0)
(2.73262 -0.29324 0)
(2.72412 -0.25374 0)
(3.45528 -0.219378 0)
(3.44181 -0.214393 0)
(4.05019 -0.164825 0)
(4.04016 -0.179886 0)
(4.54877 -0.134406 0)
(4.54682 -0.150844 0)
(4.95757 -0.0975166 0)
(4.95259 -0.104122 0)
(5.26074 -0.0570361 0)
(5.25857 -0.0486635 0)
(5.44196 -0.0154485 0)
(5.45072 -0.00017337 0)
(5.51359 0.0227308 0)
(5.51671 0.0408282 0)
(5.512 0.0578619 0)
(5.43604 0.0873516 0)
(5.4244 0.117296 0)
(5.21473 0.132487 0)
(5.20631 0.17039 0)
(4.87769 0.163502 0)
(4.86328 0.206758 0)
(4.4545 0.180639 0)
(4.43559 0.229396 0)
(3.97468 0.194672 0)
(3.94921 0.255035 0)
(3.44404 0.212881 0)
(3.41373 0.275984 0)
(2.88122 0.226427 0)
(2.85091 0.297962 0)
(2.28953 0.246107 0)
(2.26947 0.304969 0)
(1.71651 0.255558 0)
(1.71131 0.277897 0)
(1.24338 0.20742 0)
(1.24248 0.196102 0)
(0.991433 0.130444 0)
(0.966474 0.0968156 0)
(0.935302 0.0462786 0)
(0.921802 0.00909149 0)
(1.12028 -0.0696847 0)
(1.12389 -0.114883 0)
(1.65939 -0.210196 0)
(1.68959 -0.266528 0)
(2.55491 -0.385317 0)
(2.62033 -0.389123 0)
(3.74238 -0.509396 0)
(3.83111 -0.459906 0)
(5.07974 -0.55852 0)
(5.14431 -0.496772 0)
(6.46476 -0.576682 0)
(6.48496 -0.477652 0)
(7.77197 -0.529036 0)
(7.75637 -0.432135 0)
(8.97451 -0.49227 0)
(8.9398 -0.423196 0)
(10.1006 -0.440086 0)
(10.0527 -0.39075 0)
(11.1173 -0.391201 0)
(11.0693 -0.348095 0)
(12.0054 -0.311312 0)
(11.9585 -0.289573 0)
(12.701 -0.20731 0)
(12.6656 -0.198532 0)
(13.16 -0.105209 0)
(13.1551 -0.0787689 0)
(13.3761 -0.00778601 0)
(13.3835 0.0161998 0)
(13.4096 0.0656591 0)
(13.3527 0.105231 0)
(13.3046 0.143413 0)
(13.0841 0.177546 0)
(13.0352 0.219191 0)
(12.6037 0.238192 0)
(12.5815 0.280937 0)
(11.9588 0.29946 0)
(11.9416 0.347489 0)
(11.1778 0.335429 0)
(11.1413 0.378941 0)
(10.2767 0.357201 0)
(10.2353 0.422146 0)
(9.29073 0.360914 0)
(9.24312 0.454155 0)
(8.28194 0.306962 0)
(8.21821 0.451559 0)
(7.35389 0.258872 0)
(7.29576 0.389994 0)
(6.4667 0.244294 0)
(6.41808 0.357776 0)
(5.6498 0.208492 0)
(5.60422 0.316587 0)
(4.93999 0.167895 0)
(4.8983 0.266886 0)
(4.32494 0.14947 0)
(4.28978 0.224086 0)
(3.80203 0.121985 0)
(3.77039 0.18216 0)
(3.37798 0.0973743 0)
(3.35017 0.144786 0)
(3.04867 0.0725733 0)
(3.02718 0.099595 0)
(2.81477 0.0420548 0)
(2.80157 0.0616578 0)
(2.65642 0.0266036 0)
(2.64777 0.0435526 0)
(2.54319 0.0211741 0)
(2.5378 0.0327624 0)
(2.46164 0.0149705 0)
(2.45842 0.0223564 0)
(2.40746 0.00913584 0)
(2.4051 0.0139999 0)
(2.37393 0.00415231 0)
(2.37385 0.00372481 0)
(2.36823 0.00129731 0)
(2.36835 0.000196364 0)
(2.38368 -0.00217749 0)
(2.38394 -0.00683319 0)
(2.4316 -0.0114438 0)
(2.43115 -0.0189515 0)
(2.52134 -0.0252284 0)
(2.51938 -0.0343926 0)
(2.6609 -0.0396253 0)
(2.65784 -0.0513053 0)
(2.85626 -0.0565565 0)
(2.85278 -0.0733094 0)
(3.11225 -0.0764854 0)
(3.10883 -0.0967382 0)
(3.42921 -0.0942702 0)
(3.42002 -0.114632 0)
(3.80026 -0.112676 0)
(3.787 -0.134781 0)
(4.22252 -0.127245 0)
(4.20157 -0.138916 0)
(4.66809 -0.138261 0)
(4.64839 -0.150524 0)
(5.14168 -0.134862 0)
(5.11504 -0.149219 0)
(5.61727 -0.130871 0)
(5.58909 -0.140264 0)
(6.04101 -0.0990854 0)
(6.02215 -0.116123 0)
(6.39053 -0.0633424 0)
(6.38904 -0.0989376 0)
(6.70727 -0.0518107 0)
(6.70585 -0.0816285 0)
(7.00539 -0.0402762 0)
(6.99185 -0.0406391 0)
(7.22727 -0.00937408 0)
(7.21977 0.00532111 0)
(7.34056 0.0353227 0)
(7.33776 0.0452813 0)
(7.36244 0.0649633 0)
(7.33783 0.0842551 0)
(7.32034 0.103314 0)
(7.22936 0.116883 0)
(7.20961 0.140072 0)
(7.03026 0.150496 0)
(7.01971 0.174105 0)
(6.76828 0.164734 0)
(6.75949 0.197284 0)
(6.46521 0.175324 0)
(6.45541 0.209213 0)
(6.14384 0.176899 0)
(6.13199 0.211873 0)
(5.8263 0.167743 0)
(5.81484 0.199696 0)
(5.53959 0.150511 0)
(5.5289 0.179322 0)
(5.29808 0.132158 0)
(5.28882 0.156608 0)
(5.10517 0.116747 0)
(5.09665 0.137883 0)
(4.95054 0.105151 0)
(4.9426 0.12271 0)
(4.82473 0.0953864 0)
(4.82009 0.106347 0)
(4.72873 0.087682 0)
(4.72757 0.0916979 0)
(4.67072 0.0709407 0)
(4.67955 0.0775951 0)
(4.61374 0.100803 0)
(4.61363 0.114197 0)
(4.48808 0.110261 0)
(4.4894 0.127633 0)
(4.33388 0.120096 0)
(4.33757 0.13837 0)
(4.15799 0.135904 0)
(4.16122 0.155431 0)
(3.95542 0.139753 0)
(3.95895 0.161783 0)
(3.74176 0.143547 0)
(3.74527 0.166049 0)
(3.52761 0.142929 0)
(3.5308 0.166544 0)
(3.31487 0.148408 0)
(3.3165 0.169833 0)
(3.10793 0.14646 0)
(3.11161 0.163051 0)
(2.92708 0.143673 0)
(2.93338 0.146593 0)
(2.79518 0.130824 0)
(2.79602 0.126477 0)
(2.72015 0.111391 0)
(2.7193 0.107751 0)
(2.69365 0.0965657 0)
(2.70837 0.0884481 0)
(2.70629 0.0800344 0)
(2.76968 0.067894 0)
(2.76829 0.0545038 0)
(2.89663 0.0467945 0)
(2.89326 0.0322734 0)
(3.07815 0.0311445 0)
(3.07048 0.0189771 0)
(3.29937 0.0212701 0)
(3.28764 0.00694757 0)
(3.54801 0.00958357 0)
(3.53444 -0.00349413 0)
(3.81431 0.00663309 0)
(3.80227 -0.00683163 0)
(4.08327 0.00944305 0)
(4.07317 -0.00991539 0)
(4.3577 0.00746256 0)
(4.34914 -0.00787957 0)
(4.62793 0.00714408 0)
(4.62431 -0.0135233 0)
(4.90753 0.00317325 0)
(4.90208 -0.0163292 0)
(5.19253 0.00157773 0)
(5.18788 -0.0218909 0)
(5.48987 -0.00415435 0)
(5.48516 -0.0268956 0)
(5.7967 -0.00607507 0)
(5.7927 -0.0347717 0)
(6.11833 -0.0140038 0)
(6.11405 -0.0399318 0)
(6.46659 -0.0224994 0)
(6.46185 -0.0509593 0)
(6.82808 -0.0271415 0)
(6.82467 -0.0595423 0)
(7.19694 -0.0255306 0)
(7.19536 -0.0546707 0)
(7.56408 -0.0307491 0)
(7.56973 -0.0522249 0)
(7.92949 -0.0313352 0)
(7.93769 -0.0562714 0)
(8.30045 -0.0344981 0)
(8.31114 -0.0594608 0)
(8.6741 -0.0349848 0)
(8.68485 -0.053886 0)
(9.03946 -0.0271804 0)
(9.04829 -0.0482719 0)
(9.37046 -0.0117964 0)
(9.38183 -0.0391588 0)
(9.66661 0.00628275 0)
(9.67906 -0.0156664 0)
(9.92619 0.0162771 0)
(9.93737 0.00558528 0)
(10.1336 0.0369065 0)
(10.1395 0.0278255 0)
(10.2879 0.0542287 0)
(10.2926 0.0421255 0)
(10.3913 0.0717363 0)
(10.3933 0.0584607 0)
(10.4714 0.0712319 0)
(10.4769 0.0769948 0)
(10.4968 0.0777958 0)
(10.5128 0.0826169 0)
(10.5161 0.0837676 0)
(10.517 0.0856511 0)
(10.5137 0.0871215 0)
(10.5093 0.0893654 0)
(10.4906 0.0863158 0)
(10.4891 0.0897059 0)
(10.4579 0.0832505 0)
(10.4571 0.0878559 0)
(10.4228 0.0821773 0)
(10.4217 0.0870231 0)
(10.3853 0.0788038 0)
(10.385 0.0827514 0)
(10.3503 0.0776814 0)
(10.3499 0.0818116 0)
(10.316 0.0728479 0)
(10.3158 0.0776111 0)
(10.2869 0.0683529 0)
(10.2885 0.0691817 0)
(10.2595 0.0645815 0)
(10.2635 0.065586 0)
(10.2459 0.0573472 0)
(10.2469 0.0554209 0)
(10.2452 0.0538898 0)
(10.2461 0.0528371 0)
(10.2465 0.0514808 0)
(10.2481 0.0505807 0)
(10.2476 0.0493665 0)
(10.26 0.0447265 0)
(10.2598 0.0422968 0)
(10.2826 0.039167 0)
(10.2829 0.0367898 0)
(10.3123 0.0348837 0)
(10.3129 0.0325458 0)
(10.3496 0.0302824 0)
(10.3499 0.0273754 0)
(10.3962 0.0258627 0)
(10.3979 0.0223695 0)
(10.4503 0.0214199 0)
(10.464 0.0191301 0)
(10.4922 0.0160907 0)
(10.5397 0.0163263 0)
(10.5449 0.0115579 0)
(10.6187 0.0141162 0)
(10.6188 0.010481 0)
(10.6943 0.0126864 0)
(10.693 0.00784812 0)
(10.7726 0.0123702 0)
(10.7728 0.0061179 0)
(10.8513 0.0117415 0)
(10.8525 0.00571698 0)
(10.9295 0.0114412 0)
(10.9322 0.00499876 0)
(11.0065 0.0120404 0)
(11.01 0.00418777 0)
(11.0824 0.0117152 0)
(11.086 0.00427662 0)
(11.1562 0.0128593 0)
(11.1603 0.00560123 0)
(11.2281 0.0140485 0)
(11.2316 0.00787901 0)
(11.2954 0.0152981 0)
(11.2985 0.0083737 0)
(11.3576 0.0168579 0)
(11.3599 0.00935076 0)
(11.419 0.0184281 0)
(11.4289 0.013772 0)
(11.4549 0.015995 0)
(11.4973 0.0161136 0)
(11.4999 0.0137486 0)
(11.5542 0.0177619 0)
(11.5549 0.0146008 0)
(11.602 0.0195054 0)
(11.6045 0.0140001 0)
(11.6482 0.020932 0)
(11.6505 0.0145524 0)
(11.6912 0.0214029 0)
(11.6934 0.0149844 0)
(11.732 0.0214377 0)
(11.7348 0.0155206 0)
(11.7699 0.0216332 0)
(11.7789 0.0168657 0)
(11.7947 0.0201737 0)
(11.8225 0.0179831 0)
(11.8238 0.018467 0)
(11.8586 0.019877 0)
(11.8586 0.018326 0)
(11.8887 0.0208525 0)
(11.8898 0.0168939 0)
(11.9174 0.0208887 0)
(11.9189 0.0163431 0)
(11.9441 0.020407 0)
(11.9458 0.0159805 0)
(11.969 0.0197699 0)
(11.9717 0.0159438 0)
(11.9898 0.0194256 0)
(11.9972 0.016061 0)
(12.0035 0.0178203 0)
(12.0204 0.0153415 0)
(12.0211 0.0163475 0)
(12.0383 0.0153687 0)
(12.0383 0.0155541 0)
(12.0516 0.0153802 0)
(12.052 0.0144414 0)
(12.063 0.0150644 0)
(12.0645 0.0136489 0)
(12.0681 0.0139771 0)
(12.0734 0.0131921 0)
(12.0741 0.0128694 0)
(12.0768 0.0123927 0)
(12.0783 0.0122558 0)
(12.0789 0.0116524 0)
(12.0793 0.0112246 0)
(12.0791 0.0108398 0)
(12.0782 0.0103402 0)
(12.0772 0.00955601 0)
(12.075 0.0094479 0)
(12.0741 0.00978312 0)
(-0.000326752 0.0516568 0)
(-0.0621125 0.137892 0)
(-0.178751 0.201627 0)
(-0.329553 0.262614 0)
(-0.514744 0.295143 0)
(-0.720332 0.325942 0)
(-0.941242 0.3419 0)
(-1.17201 0.353952 0)
(-1.40303 0.361114 0)
(-1.63658 0.366643 0)
(-1.86052 0.36826 0)
(-2.08243 0.367425 0)
(-2.28721 0.361984 0)
(-2.4865 0.353664 0)
(-2.66409 0.341173 0)
(-2.83341 0.326124 0)
(-2.97975 0.308307 0)
(-3.11607 0.288337 0)
(-3.23075 0.266483 0)
(-3.3343 0.243939 0)
(-3.41951 0.222153 0)
(-3.49257 0.196901 0)
(-3.54978 0.168738 0)
(-3.59299 0.135805 0)
(-3.62172 0.0999558 0)
(-3.63661 0.0635198 0)
(-3.64178 0.0301734 0)
(-3.63504 0.00132161 0)
(-3.61634 -0.0262946 0)
(-3.59629 -0.0493318 0)
(-3.55751 -0.0737128 0)
(-3.52857 -0.0852269 0)
(-3.46466 -0.0939882 0)
(-3.42396 -0.0962876 0)
(-3.34339 -0.0955344 0)
(-3.28408 -0.0945575 0)
(-3.19578 -0.102439 0)
(-3.1183 -0.112167 0)
(-3.02444 -0.125117 0)
(-2.93231 -0.1417 0)
(-2.83023 -0.157119 0)
(-2.72491 -0.171026 0)
(-2.61018 -0.183102 0)
(-2.49019 -0.193309 0)
(-2.35985 -0.201777 0)
(-2.22569 -0.210853 0)
(-2.0857 -0.218074 0)
(-1.94585 -0.227032 0)
(-1.80488 -0.232926 0)
(-1.66598 -0.236611 0)
(-1.52916 -0.235795 0)
(-1.39657 -0.231216 0)
(-1.27011 -0.220662 0)
(-1.15111 -0.204504 0)
(-1.04706 -0.180671 0)
(-0.956384 -0.152263 0)
(-0.893001 -0.120917 0)
(-0.849141 -0.0895665 0)
(-0.835245 -0.0553938 0)
(-0.866531 -0.000410448 0)
(-0.878684 0.0222382 0)
(-1.04274 0.12443 0)
(-1.06193 0.146887 0)
(-1.38801 0.297092 0)
(-1.43661 0.307387 0)
(-1.91555 0.472969 0)
(-2.02904 0.489977 0)
(-2.62812 0.643832 0)
(-2.84223 0.683724 0)
(-3.52231 0.816972 0)
(-3.86193 0.879648 0)
(-4.58485 0.993118 0)
(-5.05134 1.07122 0)
(-5.78828 1.15916 0)
(-6.35648 1.23892 0)
(-7.08358 1.30924 0)
(-7.71044 1.37715 0)
(-8.39465 1.41883 0)
(-9.00902 1.44316 0)
(-9.61947 1.44664 0)
(-10.1568 1.42447 0)
(-10.653 1.35596 0)
(-11.0575 1.28596 0)
(-11.3879 1.1282 0)
(-11.6323 0.993838 0)
(-11.8089 0.80084 0)
(-11.9184 0.60755 0)
(-11.9641 0.39379 0)
(-12.0106 0.184717 0)
(-11.9786 -0.00915187 0)
(-11.9135 -0.244962 0)
(-11.8253 -0.427774 0)
(-11.5047 -0.689601 0)
(-11.2899 -0.789832 0)
(-10.58 -1.13737 0)
(-10.2507 -1.12616 0)
(-9.2921 -1.54035 0)
(-8.9129 -1.45777 0)
(-7.78578 -1.81631 0)
(-7.35446 -1.69068 0)
(-6.1369 -1.9726 0)
(-5.64202 -1.83465 0)
(-4.42739 -2.02008 0)
(-3.86333 -1.87797 0)
(-2.76048 -1.90438 0)
(-2.20795 -1.71831 0)
(-1.31744 -1.54696 0)
(-0.916165 -1.33767 0)
(-0.0163794 -1.20813 0)
(0.20579 -1.04773 0)
(1.35942 -1.07825 0)
(1.48915 -0.945862 0)
(2.87792 -1.0373 0)
(2.92702 -0.896922 0)
(4.2102 -0.862892 0)
(4.21178 -0.773552 0)
(5.2978 -0.70002 0)
(5.28549 -0.643088 0)
(6.17998 -0.55264 0)
(6.17239 -0.528813 0)
(6.90057 -0.436037 0)
(6.89921 -0.435765 0)
(7.49092 -0.340527 0)
(7.48726 -0.332787 0)
(7.94443 -0.237083 0)
(7.94037 -0.215522 0)
(8.24118 -0.123886 0)
(8.26065 -0.0965654 0)
(8.39034 -0.018507 0)
(8.41862 0.0198259 0)
(8.43616 0.0764082 0)
(8.393 0.134224 0)
(8.36534 0.188809 0)
(8.18359 0.261755 0)
(8.15959 0.322302 0)
(7.78945 0.371246 0)
(7.77346 0.439967 0)
(7.23632 0.457371 0)
(7.21613 0.525014 0)
(6.56853 0.510915 0)
(6.53326 0.583746 0)
(5.8177 0.553239 0)
(5.77176 0.62538 0)
(5.00885 0.592535 0)
(4.95676 0.653415 0)
(4.17471 0.608135 0)
(4.11948 0.673964 0)
(3.3562 0.604929 0)
(3.31057 0.631761 0)
(2.64222 0.537482 0)
(2.61651 0.508871 0)
(2.16248 0.354217 0)
(2.13031 0.307065 0)
(2.01178 0.154715 0)
(1.99402 0.0595247 0)
(2.2046 -0.111581 0)
(2.19511 -0.226035 0)
(2.88191 -0.504656 0)
(2.89011 -0.597048 0)
(4.01393 -0.877018 0)
(4.0835 -0.965914 0)
(5.49524 -1.19172 0)
(5.61145 -1.18799 0)
(7.19745 -1.38011 0)
(7.30911 -1.2879 0)
(8.95287 -1.40576 0)
(9.02429 -1.30561 0)
(10.6644 -1.33053 0)
(10.6761 -1.21074 0)
(12.2292 -1.23025 0)
(12.2152 -1.13598 0)
(13.675 -1.14615 0)
(13.6461 -1.06982 0)
(15.0069 -1.04571 0)
(14.9796 -0.972786 0)
(16.2042 -0.911533 0)
(16.187 -0.84833 0)
(17.2309 -0.717274 0)
(17.2164 -0.652183 0)
(18.0426 -0.497019 0)
(18.0564 -0.434044 0)
(18.5616 -0.254582 0)
(18.6367 -0.186669 0)
(18.8563 -0.0562078 0)
(18.9301 0.0282997 0)
(18.9804 0.132331 0)
(18.9452 0.242665 0)
(18.9105 0.313914 0)
(18.6837 0.43085 0)
(18.643 0.504594 0)
(18.1668 0.576833 0)
(18.139 0.659085 0)
(17.4245 0.730346 0)
(17.408 0.809301 0)
(16.4688 0.852387 0)
(16.4485 0.9174 0)
(15.3552 0.925398 0)
(15.3009 1.00095 0)
(14.0849 0.966569 0)
(14.0086 1.07499 0)
(12.7961 0.86204 0)
(12.7051 0.986178 0)
(11.5245 0.805276 0)
(11.4392 0.929768 0)
(10.2806 0.746694 0)
(10.2004 0.865659 0)
(9.12893 0.63424 0)
(9.05353 0.75818 0)
(8.10389 0.546062 0)
(8.03549 0.650861 0)
(7.20679 0.464393 0)
(7.14429 0.549868 0)
(6.45251 0.374875 0)
(6.39853 0.443437 0)
(5.8597 0.285556 0)
(5.81819 0.340423 0)
(5.41763 0.203872 0)
(5.38952 0.229628 0)
(5.09721 0.13399 0)
(5.08118 0.154052 0)
(4.87518 0.0948963 0)
(4.86455 0.111805 0)
(4.72906 0.0672388 0)
(4.72221 0.08019 0)
(4.63002 0.0469035 0)
(4.6252 0.0547757 0)
(4.56627 0.0295687 0)
(4.56394 0.0306705 0)
(4.53435 0.012363 0)
(4.53389 0.00747377 0)
(4.54129 -0.00415971 0)
(4.54449 -0.0119332 0)
(4.5944 -0.0301502 0)
(4.59538 -0.0431669 0)
(4.70486 -0.0670137 0)
(4.70336 -0.0831864 0)
(4.88331 -0.110562 0)
(4.88067 -0.13302 0)
(5.13799 -0.162295 0)
(5.13436 -0.18618 0)
(5.47588 -0.22251 0)
(5.47042 -0.247233 0)
(5.89683 -0.278718 0)
(5.88674 -0.302687 0)
(6.39404 -0.324877 0)
(6.37364 -0.349723 0)
(6.96216 -0.377185 0)
(6.94073 -0.383984 0)
(7.55809 -0.398207 0)
(7.55526 -0.414114 0)
(8.19926 -0.42074 0)
(8.17813 -0.422532 0)
(8.86616 -0.41999 0)
(8.83009 -0.414449 0)
(9.505 -0.365546 0)
(9.46921 -0.356544 0)
(10.0536 -0.281119 0)
(10.0381 -0.304301 0)
(10.5265 -0.218435 0)
(10.5354 -0.272055 0)
(10.9727 -0.184198 0)
(10.9779 -0.215099 0)
(11.38 -0.146417 0)
(11.3738 -0.120269 0)
(11.6664 -0.0434293 0)
(11.6644 -0.00818757 0)
(11.8086 0.0547352 0)
(11.8183 0.0938686 0)
(11.8417 0.146697 0)
(11.8169 0.195651 0)
(11.7954 0.230706 0)
(11.6792 0.281708 0)
(11.6619 0.312496 0)
(11.4292 0.34483 0)
(11.4214 0.38016 0)
(11.1006 0.395928 0)
(11.0922 0.432855 0)
(10.7181 0.414469 0)
(10.7048 0.455926 0)
(10.3086 0.411788 0)
(10.2924 0.451496 0)
(9.90206 0.382853 0)
(9.88732 0.419415 0)
(9.52969 0.340347 0)
(9.51674 0.372201 0)
(9.20907 0.294459 0)
(9.19673 0.325099 0)
(8.9398 0.257683 0)
(8.92675 0.287348 0)
(8.70739 0.231785 0)
(8.69438 0.255204 0)
(8.5054 0.206348 0)
(8.49795 0.216906 0)
(8.34559 0.177917 0)
(8.3468 0.175346 0)
(8.21601 0.170793 0)
(8.22356 0.20724 0)
(8.05837 0.238506 0)
(8.05989 0.265246 0)
(7.81734 0.272044 0)
(7.82325 0.297211 0)
(7.54214 0.295319 0)
(7.55257 0.319718 0)
(7.2431 0.329216 0)
(7.25316 0.355173 0)
(6.90823 0.342223 0)
(6.92173 0.365946 0)
(6.56471 0.345717 0)
(6.57841 0.368853 0)
(6.23248 0.344865 0)
(6.24399 0.370501 0)
(5.91122 0.343065 0)
(5.92242 0.362282 0)