/*--------------------------------*- C++ -*----------------------------------*\
| =========                 |                                                 |
| \\      /  F ield         | OpenFOAM: The Open Source CFD Toolbox           |
|  \\    /   O peration     | Version:  v1812                                 |
|   \\  /    A nd           | Web:      www.OpenFOAM.com                      |
|    \\/     M anipulation  |                                                 |
\*---------------------------------------------------------------------------*/
FoamFile
{
    version     2.0;
    format      ascii;
    class       volScalarField;
    location    "1";
    object      p;
}
// * * * * * * * * * * * * * * * * * * * * * * * * * * * * * * * * * * * * * //

dimensions      [1 -1 -2 0 0 0 0];


internalField   nonuniform List<scalar> 
20400
(
106250
106253
106254
106255
106257
106259
106262
106265
106268
106272
106276
106279
106284
106288
106292
106297
106302
106306
106311
106315
106320
106324
106328
106332
106335
106338
106340
106342
106344
106343
106342
106340
106338
106333
106327
106319
106311
106301
106290
106278
106263
106250
106228
106210
106194
106175
106157
106138
106118
106096
106071
106046
106021
105994
105970
105954
105934
105912
105893
105872
105853
105838
105826
105814
105809
105798
105799
105800
105805
105812
105822
105835
105847
105864
105878
105894
105913
105931
105951
105970
105988
106004
106019
106033
106045
106055
106064
106071
106076
106082
106090
106089
106090
106090
106088
106087
106085
106081
106079
106078
106078
106078
106079
106082
106086
106092
106103
106111
106121
106132
106143
106154
106172
106177
106189
106204
106220
106236
106253
106268
106284
106299
106316
106332
106347
106362
106377
106393
106410
106422
106433
106440
106450
106458
106466
106472
106479
106484
106491
106500
106509
106512
106517
106521
106521
106524
106526
106527
106528
106531
106532
106534
106534
106534
106535
106530
106528
106524
106521
106517
106512
106506
106500
106494
106487
106477
106469
106461
106448
106438
106427
106419
106411
106399
106389
106378
106365
106356
106340
106321
106309
106299
106282
106262
106239
106221
106195
106178
106149
106131
106104
106080
106061
106039
106015
105993
105978
105960
105943
105928
105915
105902
105892
105883
105881
105878
105880
105881
105884
105885
105891
105896
105901
105906
105912
105918
105923
105928
105923
105926
105929
105929
105929
105927
105925
105926
105931
105930
105925
105924
105920
105919
105916
105912
105910
105906
105905
105905
105900
105896
105892
105890
105887
105883
105878
105874
105869
105862
105856
105849
105842
105835
105827
105820
105812
105805
105799
105792
105786
105779
105773
105767
105759
105751
105742
105732
105723
105714
105708
105699
105691
105683
105677
105666
105653
105641
105630
105618
105605
105591
105575
105561
105541
105525
105503
105484
105464
105443
105420
105397
105373
105349
105323
105295
105268
105241
105213
105182
105158
105131
105087
105053
105023
105000
104962
104921
104874
104840
104804
104765
104730
104694
104647
104603
104560
104519
104476
104435
104389
104349
104308
104268
104225
104174
104135
104092
104048
104004
103961
103914
103870
103825
103783
103717
103676
103628
103586
103540
103496
103453
103410
103368
103327
103285
103244
103204
103163
103124
103084
103045
103006
102968
102931
102894
102857
102821
102785
102751
102717
102683
102650
102618
102587
102557
102527
102497
102468
102440
102413
102387
102362
102337
102313
102292
102269
102252
102230
102214
102190
102171
102154
102143
102124
102115
102096
102083
102072
102065
102052
102041
102034
102030
102016
102009
102007
102007
101996
101988
101991
101991
101991
101988
101986
101983
101991
101989
101989
101997
102002
102004
102008
102015
102023
102025
102032
102031
102043
102053
102057
102065
102065
102076
102087
102095
102108
102108
102119
102111
102125
102136
102139
102148
102152
102159
102163
102170
102177
102185
102190
102193
102194
102197
102198
102201
102202
102206
102210
102212
102206
102203
102205
102204
102204
102198
102192
102193
102179
102173
102169
102165
102157
102148
102132
102125
102116
102104
102086
102077
102064
102050
102030
102021
101991
101983
101962
101949
101924
101903
101884
101861
101847
101816
101796
101765
101745
101723
101699
101678
101643
101622
101586
101566
101542
101511
101485
101452
101427
101402
101371
101348
106243
106242
106243
106243
106245
106247
106250
106253
106256
106260
106264
106268
106272
106276
106281
106285
106290
106294
106298
106302
106306
106310
106313
106316
106319
106321
106322
106321
106323
106326
106324
106315
106309
106310
106308
106300
106290
106284
106277
106267
106257
106245
106233
106211
106209
106192
106180
106164
106147
106128
106108
106088
106069
106051
106016
105992
105966
105938
105915
105889
105868
105852
105840
105828
105822
105809
105804
105803
105804
105810
105821
105834
105846
105863
105880
105898
105917
105936
105955
105973
105990
106006
106021
106034
106046
106056
106066
106074
106080
106086
106091
106092
106094
106096
106096
106096
106095
106094
106092
106092
106089
106089
106088
106089
106090
106091
106093
106099
106104
106109
106117
106124
106141
106157
106166
106178
106192
106206
106220
106239
106258
106277
106297
106316
106334
106352
106369
106387
106403
106420
106431
106439
106451
106461
106471
106480
106489
106499
106508
106513
106514
106509
106511
106515
106516
106521
106524
106526
106528
106529
106530
106531
106531
106531
106532
106530
106530
106525
106521
106516
106511
106503
106497
106490
106483
106472
106467
106462
106456
106444
106424
106409
106403
106395
106390
106378
106365
106359
106343
106318
106301
106281
106266
106249
106232
106210
106167
106161
106154
106138
106118
106099
106086
106070
106053
106030
106003
105982
105964
105947
105931
105915
105905
105893
105884
105881
105872
105874
105874
105870
105869
105870
105872
105875
105878
105881
105887
105901
105906
105910
105916
105921
105925
105927
105928
105927
105927
105926
105922
105925
105921
105921
105918
105918
105916
105913
105914
105903
105906
105900
105893
105887
105883
105878
105873
105868
105864
105859
105854
105850
105845
105840
105835
105830
105823
105817
105810
105801
105789
105778
105768
105762
105754
105747
105741
105739
105732
105726
105717
105707
105696
105685
105684
105672
105665
105656
105645
105633
105621
105608
105597
105588
105562
105534
105515
105495
105473
105449
105423
105397
105369
105341
105312
105283
105253
105225
105201
105176
105158
105140
105081
105052
105020
104988
104965
104924
104885
104852
104799
104757
104724
104693
104643
104599
104554
104515
104475
104437
104398
104362
104298
104258
104213
104173
104125
104081
104034
103990
103945
103899
103855
103811
103769
103723
103689
103631
103587
103542
103499
103457
103415
103374
103332
103291
103251
103211
103171
103132
103094
103055
103018
102980
102943
102905
102869
102833
102798
102763
102729
102695
102663
102631
102599
102568
102538
102508
102480
102451
102424
102398
102372
102347
102323
102302
102279
102251
102230
102218
102198
102181
102172
102134
102106
102097
102093
102095
102077
102043
102043
102053
102025
102012
102015
102024
101997
101989
101992
101998
102007
101984
101967
101980
101995
101996
101986
101994
102004
102015
102003
102013
102025
102011
102005
102014
102034
102052
102054
102035
102044
102065
102082
102095
102097
102078
102093
102097
102120
102136
102132
102120
102129
102148
102160
102174
102185
102194
102164
102166
102178
102188
102185
102198
102204
102216
102223
102210
102190
102200
102203
102221
102219
102198
102187
102188
102193
102195
102196
102196
102176
102148
102143
102149
102153
102129
102098
102105
102107
102081
102046
102039
102029
102025
102013
101999
101954
101930
101922
101920
101894
101851
101832
101807
101801
101779
101763
101728
101685
101663
101635
101629
101604
101578
101523
101498
101486
101469
101440
101383
101360
101335
106247
106250
106251
106252
106254
106255
106257
106260
106263
106267
106270
106274
106278
106282
106286
106290
106295
106299
106303
106307
106311
106316
106320
106323
106326
106329
106332
106334
106334
106332
106333
106335
106332
106324
106319
106315
106309
106301
106292
106281
106268
106255
106237
106220
106208
106189
106170
106152
106133
106112
106089
106066
106043
106018
105995
105978
105956
105931
105910
105887
105865
105845
105827
105812
105801
105789
105799
105794
105794
105797
105798
105809
105815
105827
105841
105856
105872
105889
105907
105924
105941
105957
105973
105987
105999
106010
106020
106027
106036
106049
106034
106041
106043
106046
106048
106050
106051
106053
106055
106055
106057
106058
106060
106063
106065
106069
106081
106094
106099
106107
106116
106129
106144
106152
106168
106186
106205
106225
106247
106268
106287
106305
106322
106339
106355
106370
106385
106400
106412
106413
106423
106432
106442
106451
106460
106468
106478
106487
106497
106506
106509
106513
106517
106522
106525
106526
106527
106528
106529
106532
106534
106537
106539
106542
106541
106528
106525
106522
106520
106516
106511
106505
106501
106499
106497
106488
106471
106456
106444
106428
106418
106404
106399
106395
106390
106379
106363
106348
106338
106325
106304
106279
106262
106253
106237
106218
106191
106185
106168
106152
106126
106102
106085
106061
106031
106011
105994
105972
105957
105937
105923
105907
105896
105882
105877
105871
105872
105873
105875
105877
105881
105886
105891
105896
105902
105908
105913
105918
105921
105924
105929
105932
105934
105939
105940
105938
105936
105938
105936
105916
105912
105913
105916
105908
105906
105903
105901
105908
105898
105893
105891
105888
105884
105881
105877
105873
105870
105865
105862
105858
105854
105851
105846
105842
105837
105831
105822
105812
105802
105793
105782
105773
105763
105753
105745
105736
105727
105718
105709
105701
105688
105681
105667
105653
105641
105627
105616
105604
105591
105581
105572
105565
105549
105534
105517
105500
105482
105462
105443
105421
105397
105371
105343
105315
105285
105255
105222
105191
105163
105141
105087
105051
105020
104989
104944
104929
104881
104848
104803
104759
104724
104681
104659
104609
104565
104521
104477
104433
104386
104343
104302
104267
104216
104166
104122
104079
104035
103991
103947
103903
103859
103817
103755
103748
103697
103651
103602
103550
103508
103466
103424
103381
103339
103298
103257
103216
103176
103136
103096
103057
103019
102980
102942
102905
102868
102831
102796
102761
102726
102693
102660
102627
102596
102565
102534
102504
102475
102447
102419
102392
102366
102341
102317
102295
102275
102259
102241
102207
102186
102168
102154
102140
102133
102111
102098
102082
102071
102069
102053
102041
102031
102029
102017
102009
102003
102004
101997
101988
101990
101989
101992
101988
101986
101983
101991
101989
101987
101995
102002
102002
102004
102014
102026
102027
102028
102028
102044
102057
102059
102064
102064
102072
102085
102093
102110
102111
102112
102111
102127
102140
102142
102147
102148
102157
102161
102173
102179
102185
102196
102198
102200
102194
102194
102199
102203
102206
102213
102215
102207
102197
102202
102205
102210
102203
102195
102183
102177
102172
102171
102168
102160
102146
102126
102127
102123
102103
102081
102078
102070
102055
102034
102012
101989
101982
101965
101954
101925
101896
101883
101865
101853
101824
101791
101763
101744
101724
101698
101683
101649
101615
101581
101567
101548
101519
101483
101446
101427
101407
101377
101353
106244
106246
106248
106249
106251
106253
106255
106259
106262
106266
106269
106274
106278
106282
106287
106291
106296
106300
106305
106310
106314
106318
106323
106327
106330
106332
106335
106337
106338
106338
106338
106337
106336
106331
106326
106318
106308
106301
106293
106283
106270
106259
106242
106230
106213
106195
106178
106157
106135
106113
106088
106063
106038
106012
105984
105963
105938
105912
105893
105870
105856
105837
105820
105807
105795
105786
105779
105774
105771
105772
105777
105788
105797
105813
105830
105849
105870
105892
105914
105937
105959
105981
106001
106020
106036
106050
106062
106072
106078
106088
106090
106087
106089
106090
106090
106089
106088
106086
106083
106079
106079
106078
106078
106079
106082
106086
106094
106100
106109
106122
106135
106148
106165
106175
106184
106191
106202
106217
106236
106255
106274
106294
106314
106333
106352
106369
106385
106403
106424
106432
106438
106446
106456
106465
106473
106481
106489
106496
106500
106502
106505
106510
106515
106517
106521
106523
106526
106528
106528
106530
106531
106531
106532
106533
106532
106528
106527
106522
106520
106518
106513
106502
106490
106482
106477
106468
106457
106449
106442
106424
106420
106425
106418
106403
106389
106384
106370
106347
106331
106326
106312
106293
106269
106265
106248
106237
106213
106193
106166
106150
106127
106093
106068
106046
106020
105997
105975
105957
105938
105925
105913
105901
105886
105877
105873
105867
105864
105867
105869
105875
105882
105890
105898
105905
105911
105917
105924
105935
105936
105930
105931
105930
105931
105936
105937
105936
105935
105933
105931
105918
105915
105912
105915
105909
105906
105904
105904
105909
105899
105897
105894
105892
105888
105884
105880
105876
105872
105867
105862
105857
105852
105846
105840
105833
105826
105819
105811
105803
105796
105788
105778
105770
105761
105752
105743
105733
105722
105713
105703
105696
105689
105682
105674
105662
105652
105640
105628
105614
105600
105585
105568
105548
105530
105511
105487
105466
105445
105426
105406
105386
105365
105342
105318
105292
105266
105239
105210
105178
105148
105131
105091
105054
105023
104991
104960
104921
104876
104837
104813
104766
104727
104690
104641
104603
104564
104519
104476
104432
104388
104327
104316
104282
104232
104183
104141
104096
104041
103996
103950
103901
103853
103805
103758
103707
103664
103618
103578
103541
103497
103453
103409
103367
103325
103283
103242
103201
103160
103120
103080
103041
103002
102964
102925
102888
102851
102815
102779
102745
102710
102677
102644
102612
102580
102550
102520
102490
102461
102433
102406
102380
102354
102329
102305
102284
102265
102251
102231
102203
102179
102157
102142
102149
102134
102116
102095
102075
102069
102067
102058
102037
102034
102032
102015
102006
102009
102007
101994
101985
101983
101993
101989
101990
101983
101983
101991
101988
101985
101989
102003
102001
102001
102016
102026
102033
102028
102028
102038
102057
102064
102063
102063
102070
102078
102103
102107
102114
102107
102114
102124
102140
102147
102147
102144
102155
102159
102162
102187
102193
102195
102196
102197
102199
102192
102196
102197
102206
102217
102217
102209
102200
102195
102205
102209
102205
102194
102182
102178
102169
102169
102172
102164
102144
102127
102126
102122
102103
102081
102074
102071
102056
102033
102009
101993
101974
101972
101951
101927
101900
101877
101871
101846
101823
101792
101764
101742
101722
101704
101677
101651
101615
101587
101562
101545
101521
101484
101446
101423
101405
101380
101349
106242
106242
106244
106246
106248
106250
106253
106256
106260
106263
106267
106271
106276
106280
106285
106289
106294
106299
106304
106308
106313
106318
106322
106327
106330
106333
106336
106339
106340
106341
106340
106338
106338
106334
106329
106322
106311
106303
106294
106283
106269
106256
106238
106224
106208
106194
106178
106158
106137
106113
106085
106058
106028
106000
105970
105947
105919
105891
105873
105846
105828
105811
105791
105779
105768
105759
105761
105758
105763
105772
105781
105796
105808
105824
105845
105864
105883
105901
105918
105936
105952
105969
105984
105999
106014
106030
106044
106057
106067
106077
106088
106090
106093
106094
106093
106092
106089
106084
106080
106076
106072
106070
106069
106071
106075
106081
106090
106099
106109
106122
106135
106151
106169
106180
106195
106210
106224
106238
106252
106266
106281
106296
106312
106326
106341
106352
106361
106372
106397
106414
106428
106437
106448
106458
106467
106475
106483
106490
106501
106506
106509
106514
106520
106523
106524
106521
106522
106525
106528
106530
106532
106532
106532
106532
106531
106527
106525
106519
106515
106512
106508
106502
106496
106489
106484
106476
106470
106463
106459
106455
106425
106409
106410
106400
106382
106372
106370
106358
106335
106329
106323
106310
106285
106257
106239
106230
106215
106186
106153
106132
106114
106089
106069
106044
106015
105992
105971
105948
105933
105915
105894
105883
105885
105875
105863
105865
105863
105860
105860
105863
105867
105878
105888
105897
105905
105913
105920
105933
105936
105932
105934
105935
105936
105936
105932
105931
105932
105931
105925
105932
105926
105925
105920
105919
105916
105913
105910
105907
105906
105900
105897
105893
105890
105885
105881
105876
105871
105865
105859
105853
105847
105841
105834
105827
105820
105812
105804
105796
105789
105782
105773
105764
105755
105747
105738
105728
105718
105708
105698
105687
105677
105668
105661
105655
105647
105640
105632
105623
105613
105602
105588
105572
105556
105541
105519
105498
105476
105452
105427
105400
105373
105347
105321
105294
105267
105239
105210
105180
105150
105122
105079
105046
105014
104985
104948
104919
104879
104846
104805
104760
104724
104681
104647
104617
104574
104532
104489
104444
104403
104349
104298
104256
104213
104169
104124
104076
104032
103989
103942
103895
103848
103805
103758
103715
103673
103631
103592
103556
103510
103467
103424
103381
103340
103299
103258
103217
103177
103137
103097
103058
103019
102981
102942
102905
102868
102832
102796
102761
102727
102693
102660
102628
102596
102565
102535
102505
102476
102448
102420
102393
102367
102342
102318
102296
102273
102248
102230
102216
102195
102175
102155
102137
102125
102106
102095
102089
102071
102059
102048
102045
102029
102021
102015
102016
102002
101996
101995
101995
101993
101987
101985
101985
101990
101991
101988
101992
101997
102001
102001
102008
102013
102014
102018
102019
102035
102041
102045
102048
102050
102067
102074
102080
102085
102092
102100
102102
102118
102124
102128
102132
102132
102151
102158
102164
102167
102173
102177
102184
102185
102188
102185
102204
102205
102205
102207
102204
102208
102202
102208
102208
102208
102201
102201
102191
102196
102195
102187
102180
102169
102163
102149
102149
102140
102127
102110
102105
102094
102077
102062
102042
102033
102022
102001
101984
101962
101940
101926
101906
101888
101861
101841
101812
101802
101772
101752
101720
101696
101668
101642
101625
101593
101567
101537
101505
101485
101460
101428
101398
101364
101340
106237
106237
106239
106241
106243
106246
106248
106252
106255
106259
106263
106267
106272
106276
106281
106286
106291
106296
106301
106306
106311
106316
106321
106325
106329
106332
106336
106339
106341
106343
106343
106341
106338
106336
106331
106325
106317
106308
106301
106289
106273
106260
106242
106226
106207
106188
106169
106147
106124
106099
106071
106044
106013
105984
105951
105925
105895
105870
105844
105819
105801
105780
105776
105760
105759
105752
105739
105740
105744
105755
105764
105784
105799
105820
105848
105875
105904
105931
105957
105982
106003
106023
106040
106054
106066
106074
106080
106086
106090
106096
106101
106099
106101
106101
106101
106099
106097
106094
106090
106086
106083
106081
106082
106082
106083
106086
106093
106099
106107
106118
106127
106136
106146
106152
106168
106188
106206
106226
106245
106263
106282
106300
106318
106333
106348
106364
106377
106388
106399
106411
106422
106431
106440
106449
106457
106465
106473
106479
106487
106499
106505
106510
106516
106521
106525
106526
106528
106529
106526
106528
106529
106530
106531
106531
106530
106527
106525
106521
106517
106512
106508
106500
106494
106489
106485
106475
106466
106450
106440
106424
106418
106404
106401
106402
106396
106384
106382
106376
106358
106327
106312
106303
106285
106254
106229
106220
106209
106187
106163
106144
106122
106094
106072
106038
106006
105981
105956
105936
105922
105910
105891
105879
105876
105868
105871
105879
105870
105874
105879
105885
105891
105891
105892
105896
105901
105907
105913
105923
105930
105929
105933
105936
105938
105938
105937
105937
105937
105936
105936
105928
105927
105920
105920
105917
105914
105910
105907
105906
105902
105898
105894
105891
105890
105886
105881
105875
105869
105862
105856
105850
105843
105836
105829
105822
105814
105807
105799
105792
105785
105779
105771
105763
105755
105746
105737
105728
105721
105712
105705
105697
105690
105681
105670
105657
105637
105621
105608
105596
105584
105571
105560
105547
105535
105522
105504
105487
105468
105448
105427
105402
105378
105352
105326
105299
105271
105243
105214
105183
105152
105122
105083
105050
105017
104984
104948
104913
104876
104842
104804
104763
104725
104686
104646
104605
104564
104524
104482
104434
104391
104345
104302
104260
104217
104171
104127
104082
104044
104006
103961
103911
103863
103819
103772
103722
103672
103624
103580
103538
103495
103452
103410
103369
103327
103285
103244
103203
103163
103123
103084
103044
103006
102968
102930
102893
102857
102821
102786
102751
102717
102683
102650
102617
102586
102555
102525
102496
102467
102439
102412
102386
102360
102336
102312
102290
102268
102248
102229
102210
102191
102170
102152
102140
102125
102108
102096
102084
102069
102060
102054
102041
102031
102024
102017
102010
102004
102001
101997
101990
101988
101989
101986
101987
101985
101985
101988
101990
101990
101994
102001
102004
102008
102014
102019
102028
102030
102034
102042
102050
102059
102064
102068
102075
102084
102095
102101
102109
102112
102119
102127
102135
102143
102148
102151
102159
102166
102169
102179
102185
102189
102194
102196
102196
102198
102201
102203
102203
102211
102211
102208
102205
102203
102202
102204
102200
102194
102186
102182
102176
102168
102167
102157
102146
102134
102126
102116
102104
102089
102076
102065
102051
102033
102014
101999
101980
101965
101947
101926
101904
101882
101865
101843
101820
101794
101768
101746
101722
101702
101673
101648
101617
101592
101565
101539
101514
101483
101452
101425
101399
101373
101344
106232
106231
106234
106236
106238
106240
106243
106247
106251
106254
106258
106262
106267
106271
106276
106282
106287
106292
106297
106303
106308
106313
106317
106323
106327
106331
106335
106338
106340
106343
106344
106343
106341
106339
106336
106330
106322
106316
106308
106297
106282
106269
106250
106233
106213
106191
106169
106145
106119
106093
106063
106035
106002
105973
105938
105910
105882
105852
105826
105807
105779
105769
105757
105754
105768
105747
105747
105757
105756
105766
105775
105790
105802
105815
105826
105842
105863
105888
105914
105940
105966
105990
106012
106032
106049
106064
106076
106086
106093
106100
106106
106106
106106
106104
106101
106097
106093
106087
106082
106077
106074
106073
106074
106076
106083
106088
106095
106105
106116
106128
106139
106152
106165
106172
106182
106192
106204
106218
106232
106247
106262
106278
106294
106309
106323
106341
106362
106379
106394
106407
106420
106429
106439
106448
106457
106464
106472
106482
106489
106496
106501
106505
106509
106511
106517
106523
106527
106529
106529
106530
106530
106530
106529
106525
106524
106521
106519
106515
106511
106507
106502
106496
106490
106483
106479
106468
106458
106449
106438
106429
106425
106425
106418
106417
106415
106398
106370
106356
106345
106322
106299
106287
106280
106263
106240
106228
106211
106194
106169
106146
106116
106088
106055
106022
105986
105975
105950
105933
105920
105898
105887
105876
105865
105854
105856
105848
105863
105864
105872
105885
105897
105902
105907
105914
105920
105925
105926
105931
105934
105934
105937
105939
105940
105941
105940
105941
105940
105935
105930
105928
105920
105918
105916
105916
105913
105910
105910
105908
105906
105904
105902
105898
105895
105888
105880
105874
105869
105862
105856
105849
105843
105836
105829
105822
105814
105807
105798
105791
105783
105775
105767
105757
105748
105740
105732
105723
105718
105711
105706
105700
105695
105688
105680
105674
105662
105650
105639
105625
105610
105593
105576
105558
105541
105524
105504
105483
105461
105438
105416
105395
105371
105347
105321
105295
105268
105239
105210
105180
105150
105119
105082
105050
105017
104985
104950
104916
104878
104843
104804
104762
104723
104685
104645
104606
104566
104525
104484
104440
104397
104355
104313
104272
104228
104180
104130
104083
104036
103992
103945
103898
103849
103811
103764
103717
103670
103622
103582
103543
103501
103462
103420
103377
103335
103294
103253
103212
103171
103131
103092
103052
103013
102975
102937
102900
102863
102827
102791
102757
102723
102689
102657
102624
102593
102562
102531
102501
102472
102444
102417
102390
102365
102340
102316
102294
102272
102249
102231
102212
102192
102174
102156
102139
102122
102107
102096
102085
102070
102060
102049
102041
102031
102023
102016
102010
102004
101999
101997
101992
101990
101988
101986
101986
101987
101988
101988
101991
101993
101998
102001
102005
102010
102014
102019
102025
102031
102038
102044
102049
102056
102064
102071
102078
102085
102092
102100
102107
102114
102121
102127
102134
102140
102149
102154
102162
102167
102172
102178
102183
102187
102191
102194
102199
102201
102203
102205
102204
102209
102207
102208
102206
102206
102202
102202
102197
102196
102188
102184
102179
102169
102165
102155
102147
102136
102127
102115
102105
102092
102077
102064
102048
102034
102016
101999
101982
101965
101944
101926
101905
101884
101863
101841
101819
101797
101771
101749
101722
101699
101673
101647
101620
101593
101566
101538
101510
101484
101456
101426
101398
101368
101342
106225
106223
106227
106229
106231
106235
106238
106241
106245
106249
106253
106258
106263
106266
106272
106277
106281
106286
106292
106298
106303
106309
106314
106320
106326
106329
106333
106336
106339
106344
106344
106343
106343
106342
106338
106334
106328
106320
106315
106302
106287
106276
106256
106238
106217
106194
106171
106144
106118
106089
106057
106027
105993
105960
105927
105894
105859
105835
105812
105777
105767
105737
105737
105732
105721
105742
105731
105738
105756
105764
105778
105799
105823
105847
105867
105886
105906
105926
105947
105968
105989
106009
106028
106043
106054
106064
106074
106081
106087
106093
106097
106098
106101
106101
106101
106100
106099
106095
106092
106088
106083
106080
106077
106076
106071
106073
106081
106084
106093
106104
106115
106128
106145
106160
106175
106188
106203
106219
106236
106252
106268
106284
106300
106314
106328
106342
106356
106368
106381
106394
106406
106417
106429
106439
106449
106458
106467
106477
106487
106494
106499
106504
106510
106514
106517
106518
106520
106524
106527
106528
106529
106530
106530
106527
106525
106521
106518
106513
106508
106501
106497
106491
106485
106478
106471
106463
106455
106444
106438
106433
106427
106425
106412
106391
106381
106370
106354
106339
106333
106326
106314
106299
106291
106279
106254
106226
106200
106179
106154
106121
106093
106072
106053
106009
105992
105963
105945
105931
105911
105891
105876
105867
105853
105856
105851
105851
105851
105858
105857
105860
105874
105883
105894
105904
105914
105924
105927
105932
105938
105939
105942
105941
105943
105941
105938
105936
105932
105926
105927
105923
105920
105913
105915
105917
105919
105916
105914
105913
105908
105900
105896
105891
105886
105879
105875
105870
105866
105860
105855
105848
105841
105833
105825
105818
105811
105803
105795
105788
105780
105774
105766
105758
105752
105744
105736
105728
105720
105712
105705
105693
105674
105661
105652
105648
105641
105633
105624
105616
105606
105594
105579
105562
105545
105528
105508
105488
105467
105445
105423
105399
105374
105349
105322
105295
105267
105239
105209
105179
105147
105116
105081
105048
105014
104980
104946
104912
104876
104841
104803
104761
104722
104683
104644
104604
104563
104523
104482
104440
104397
104351
104305
104260
104215
104169
104125
104082
104037
103994
103948
103902
103862
103821
103775
103732
103682
103632
103585
103540
103493
103450
103409
103371
103329
103287
103246
103206
103166
103127
103087
103048
103010
102972
102934
102897
102861
102825
102790
102754
102719
102684
102651
102620
102589
102558
102529
102499
102471
102443
102416
102389
102363
102338
102314
102292
102270
102248
102229
102210
102191
102172
102155
102138
102122
102107
102095
102084
102070
102059
102051
102041
102031
102023
102016
102010
102004
101999
101996
101991
101989
101988
101986
101986
101986
101986
101988
101990
101992
101996
102000
102005
102009
102014
102019
102025
102031
102037
102043
102050
102057
102064
102070
102077
102084
102093
102100
102107
102114
102120
102127
102134
102141
102148
102154
102161
102166
102172
102178
102183
102188
102192
102195
102197
102201
102203
102205
102204
102208
102208
102208
102207
102205
102202
102201
102198
102194
102189
102184
102178
102169
102165
102156
102147
102137
102127
102115
102105
102091
102077
102064
102049
102034
102016
101999
101982
101965
101945
101926
101905
101884
101863
101842
101819
101796
101771
101748
101722
101700
101673
101647
101619
101593
101565
101538
101511
101483
101454
101426
101398
101370
101342
106218
106214
106219
106221
106223
106227
106230
106233
106237
106241
106247
106251
106256
106260
106266
106272
106277
106282
106288
106293
106299
106304
106310
106316
106322
106326
106330
106335
106341
106344
106347
106346
106347
106345
106341
106339
106331
106322
106316
106303
106287
106276
106257
106238
106217
106193
106168
106140
106110
106080
106045
106014
105977
105943
105904
105871
105847
105813
105786
105773
105735
105732
105715
105716
105714
105701
105703
105716
105694
105722
105726
105732
105754
105776
105806
105837
105867
105896
105924
105952
105979
106004
106030
106052
106070
106082
106091
106098
106103
106106
106110
106110
106109
106103
106094
106089
106086
106083
106080
106078
106075
106077
106078
106078
106089
106091
106091
106104
106110
106119
106128
106138
106148
106158
106168
106178
106190
106204
106220
106236
106253
106270
106286
106302
106318
106334
106350
106364
106378
106391
106403
106414
106426
106435
106445
106455
106463
106472
106480
106487
106494
106499
106507
106512
106516
106519
106521
106523
106524
106523
106521
106521
106522
106522
106520
106517
106513
106509
106506
106499
106493
106488
106480