/*--------------------------------*- C++ -*----------------------------------*\
| =========                 |                                                 |
| \\      /  F ield         | OpenFOAM: The Open Source CFD Toolbox           |
|  \\    /   O peration     | Version:  v1812                                 |
|   \\  /    A nd           | Web:      www.OpenFOAM.com                      |
|    \\/     M anipulation  |                                                 |
\*---------------------------------------------------------------------------*/
FoamFile
{
    version     2.0;
    format      ascii;
    class       surfaceScalarField;
    location    "1";
    object      phi;
}
// * * * * * * * * * * * * * * * * * * * * * * * * * * * * * * * * * * * * * //

dimensions      [1 0 -1 0 0 0 0];
oriented        oriented;


internalField   nonuniform List<scalar> 
40240
(
-3.39956e-05
-9.7108e-06
6.55987e-06
-8.32016e-05
9.96561e-05
-0.000136523
0.000192846
-0.000137329
0.000276239
-0.000128141
0.000338784
-0.000108611
0.000386101
-9.51022e-05
0.000428416
-9.17001e-05
0.000467374
-8.97452e-05
0.000503902
-8.89994e-05
0.000530888
-8.1336e-05
0.000547319
-7.25786e-05
0.000564195
-7.48775e-05
0.000587372
-8.32121e-05
0.000616826
-9.11535e-05
0.00066347
-0.000110912
0.000732747
-0.000135872
0.000819355
-0.000155263
0.00092863
-0.000179744
0.00105861
-0.000202236
0.0012088
-0.00022436
0.0013833
-0.000250763
0.00158929
-0.000284236
0.00182926
-0.000319888
0.0020942
-0.000346307
0.0023858
-0.000375123
0.00271577
-0.00041666
0.0030743
-0.000446597
0.0034697
-0.000480144
0.00388145
-0.000494994
0.00430072
-0.000510552
0.00471489
-0.000519696
0.00513817
-0.000525617
0.0055555
-0.000500605
0.00598373
-0.000510621
0.00639524
-0.000507478
0.00678193
-0.000489157
0.00714636
-0.000460987
0.00748731
-0.000435197
0.00782879
-0.000433844
0.00808191
-0.000345076
0.008191
-0.000204152
0.00812436
-2.75925e-05
0.00805989
-3.08864e-05
0.00776028
0.000206698
0.00724322
0.000427015
0.00675827
0.000396426
0.00633017
0.000341379
0.00590947
0.000335428
0.00537521
0.000450228
0.00458067
0.000711619
0.00340771
0.0010908
0.00183105
0.00149657
-6.55133e-05
0.00181462
-0.00214216
0.00200272
-0.00410499
0.00189052
-0.00603941
0.0018641
-0.00804714
0.00193892
-0.0101012
0.00198563
-0.0122768
0.00210833
-0.0145374
0.00219348
-0.016758
0.00215538
-0.0188753
0.00205493
-0.0208749
0.00193848
-0.0226857
0.0017528
-0.0243815
0.00164078
-0.0257655
0.00133304
-0.026841
0.00102674
-0.0275946
0.000707041
-0.0280548
0.000416539
-0.0282453
0.000149707
-0.0282449
-3.8372e-05
-0.0280695
-0.000209551
-0.0275552
-0.000546079
-0.0267632
-0.000820652
-0.0257744
-0.00101426
-0.024601
-0.00119608
-0.0232655
-0.00135562
-0.0217906
-0.00149196
-0.0202121
-0.00159267
-0.0185739
-0.00164968
-0.0169152
-0.00166739
-0.0152747
-0.00164658
-0.0136841
-0.00159411
-0.0121766
-0.00150855
-0.0107899
-0.00138531
-0.00956211
-0.00122452
-0.00851562
-0.00104122
-0.00762186
-0.000886973
-0.00670796
-0.00090659
-0.00569707
-0.00100036
-0.00482326
-0.000861352
-0.00409109
-0.000717388
-0.00352365
-0.00055141
-0.00314722
-0.000359359
-0.00296297
-0.000166247
-0.00294785
4.27603e-06
-0.00304928
0.00012114
-0.0033084
0.000279139
-0.0036919
0.000403968
-0.00414621
0.000475495
-0.00461304
0.000491694
-0.0050325
0.000445217
-0.00535256
0.000345815
-0.00557431
0.000247396
-0.00565353
0.000104577
-0.00565539
2.94142e-05
-0.00558808
-4.06392e-05
-0.00555685
-3.46129e-06
-0.00532955
-0.000200395
-0.00493929
-0.000365372
-0.00452478
-0.000389398
-0.00427752
-0.000223082
-0.00400818
-0.00024334
-0.00355626
-0.000427473
-0.00293508
-0.000596839
-0.00215996
-0.000752238
-0.00130058
-0.00083807
-0.000392862
-0.0008849
0.000518442
-0.000894825
0.00145896
-0.000924071
0.00246374
-0.0009889
0.00353509
-0.00105678
0.0046607
-0.00111222
0.00582642
-0.00115349
0.00701722
-0.00117976
0.00820916
-0.00118216
0.00933249
-0.00111653
0.0100627
-0.000720056
0.0109414
-0.000870034
0.0117467
-0.000799056
0.0124353
-0.000684273
0.0129424
-0.000503895
0.0132818
-0.000337109
0.0134715
-0.000187892
0.0135479
-7.56133e-05
0.0135577
-9.3572e-06
0.0135745
-1.66617e-05
0.0136828
-0.00010732
0.0139582
-0.00027653
0.0143205
-0.000364826
0.0145645
-0.000247396
0.0147045
-0.000143019
0.0147249
-2.61158e-05
0.0147041
1.20165e-05
0.014626
6.87803e-05
0.014511
0.00010465
0.0144053
9.34691e-05
0.0143563
3.50552e-05
0.0143491
-9.00717e-06
0.0143824
-5.13993e-05
0.0144047
-4.25612e-05
0.0144793
-9.58727e-05
0.0145776
-0.000120057
0.0146502
-9.39458e-05
0.0146227
1.35571e-06
0.0144653
0.000134366
0.014204
0.000238294
0.0139114
0.000268182
0.013629
0.000256959
0.0133615
0.000240372
0.013084
0.000248647
0.0128103
0.000243481
0.0125373
0.000240178
0.0122425
0.000258986
0.011927
0.000275799
0.011576
0.000310691
0.0112497
0.000282237
0.010923
0.000280112
0.0106185
0.000258074
0.0104424
0.000127167
0.0104399
-4.60066e-05
0.0104833
-9.76835e-05
0.0105604
-0.000130264
0.0106944
-0.000190605
0.0107501
-0.000113724
0.0107777
-8.27584e-05
0.0108585
-0.000136059
0.0108697
-6.86251e-05
0.0107474
6.55032e-05
0.0107476
-5.23337e-05
0.0109027
-0.00021142
0.0110088
-0.000163062
0.0109992
-5.12072e-05
0.0108024
0.00013852
0.0105505
0.000191915
0.0104327
6.20483e-05
0.010059
0.000315074
0.00928276
0.000720639
0.00811466
0.00111093
0.00675224
0.00130528
0.00539266
0.00130364
0.00425164
0.00108552
0.00317663
0.00101874
0.00204705
0.0010788
0.000861383
0.00113459
-0.00032785
0.00114085
-0.00157384
0.001201
-0.00284453
0.0012253
-0.00402721
0.0011364
-0.00507281
0.00100073
-0.00599883
0.000884167
-0.00676291
0.000725012
-0.00732097
0.000523647
-0.00761336
0.000257937
-0.00768427
4.10413e-05
-0.00759757
-0.000113848
-0.00735123
-0.000271087
-0.00700152
-0.000372931
-0.00659248
-0.00042756
-0.00606573
-0.000543639
-0.00538527
-0.000694721
-0.00459606
-0.000801375
-0.00369321
-0.000912794
-0.00265544
-0.00104584
-0.00153568
-0.00112639
-0.000504481
-0.00103672
0.000192697
-0.000698271
0.000533643
-0.000337012
0.00102232
-0.000486779
0.00173879
-0.000712566
0.00257635
-0.000831435
0.00335122
-0.000765377
0.00392755
-0.00056454
0.00436145
-0.00041837
0.00478479
-0.000403475
0.00514939
-0.000343309
0.0052589
-8.34857e-05
0.0055458
-0.000257084
0.0059207
-0.000339949
0.00631529
-0.000355659
0.00654208
-0.000184124
0.00659655
-8.03092e-06
0.00672773
-8.03092e-05
0.00698586
-0.000203718
0.00724408
-0.000200759
0.00746342
-0.000159974
0.00769685
-0.000171475
0.00783228
-6.93543e-05
0.00788076
2.09652e-05
0.00789375
6.16818e-05
0.00795282
1.96484e-05
0.00803822
-4.63922e-06
0.00810584
1.59727e-05
0.00813339
5.81488e-05
0.00814238
8.09138e-05
0.00814937
8.4926e-05
0.00812897
0.000116519
0.00802649
0.000201445
0.0078292
0.000299565
0.00755396
0.000380517
0.00722045
0.00044184
0.00683731
0.000494552
0.00641545
0.000536234
0.00599192
0.000540439
0.0056303
0.000481783
0.00534263
0.000410311
0.0050805
0.000389826
0.00484003
0.000368951
0.00465719
0.000317578
0.00441158
0.000379191
0.00412725
0.000422327
0.00380833
0.000454703
0.00346652
0.000482583
0.00310965
0.00049795
0.00279081
0.000459096
0.00259578
0.000341762
0.00253323
0.000210587
0.00254224
0.000140697
0.00262838
6.31772e-05
0.00275117
3.16713e-05
0.00280041
0.000107672
0.00290643
5.51269e-05
0.00322684
-0.000161457
0.00357427
-0.000189299
0.00393546
-0.00020114
0.0043809
-0.000285083
0.00495726
-0.000415577
0.00566683
-0.000548063
0.00638241
-0.00055379
0.00686059
-0.000312983
0.00699456
3.16061e-05
0.00732086
-0.000163683
0.00777458
-0.000289529
0.00834423
-0.000406608
0.00889433
-0.00038757
0.00941329
-0.0003575
0.009911
-0.000337532
0.0103999
-0.00032983
0.0108917
-0.000333223
0.0113878
-0.000337372
0.0118766
-0.000330019
0.0123453
-0.000309915
0.0127954
-0.000291414
0.0132265
-0.000272883
0.0136557
-0.000273238
0.0141366
-0.000326024
0.0147327
-0.000442423
0.0153088
-0.000423088
0.0155228
-5.8347e-05
0.0159366
-0.000259531
0.0164394
-0.000348274
0.0169056
-0.000314558
0.0171107
-5.13252e-05
0.0178262
-0.000570805
0.0181624
-0.00018676
0.0181494
0.000163765
0.0181574
0.000141377
0.0185179
-0.000211735
0.0188961
-0.000229118
0.019135
-8.75029e-05
0.0197012
-0.000419569
0.0198322
1.44165e-05
0.0197996
0.00017935
0.0197908
0.000154395
0.0198012
0.000135481
0.0198742
7.28617e-05
0.0199568
6.14482e-05
0.0200312
7.18596e-05
0.0201442
3.1697e-05
0.0202223
6.08848e-05
0.020266
9.49027e-05
0.0202884
0.000114204
0.0202068
0.000236624
0.0202083
0.000138077
0.0202386
0.000109512
0.0203046
7.43698e-05
0.0203955
4.80736e-05
0.0204293
0.000104407
0.0205772
-9.10617e-06
0.0208802
-0.000163354
0.0212993
-0.000280296
0.0214733
-3.5234e-05
0.0207928
0.00082069
0.0201793
0.000754623
0.0199705
0.000350646
0.0199019
0.000209481
0.0198067
0.000237799
0.0197104
0.000238726
0.0196639
0.000189635
0.0196623
0.000145171
0.0197123
9.40671e-05
0.0198188
3.8204e-05
0.0199602
4.21256e-06
0.020119
-1.27266e-05
0.0202842
-1.84437e-05
0.0204492
-1.74435e-05
0.0206097
-1.19087e-05
0.0207647
-5.23349e-06
0.0209161
-1.58336e-06
0.0210617
1.20368e-05
0.021206
6.46447e-06
0.0213586
1.55928e-05
0.0215096
-1.46095e-07
0.0216612
-1.94416e-06
0.0218151
-3.66275e-06
0.0219704
-4.79423e-06
0.022126
-5.30451e-06
0.0222819
-5.53061e-06
0.0224388
-6.58944e-06
0.0225972
-8.1046e-06
0.022756
-8.20967e-06
0.0229133
-6.65104e-06
0.0230644
-3.27107e-07
0.0232096
5.79626e-06
0.023352
8.6203e-06
0.0234882
1.42393e-05
0.023621
1.69758e-05
0.0237512
1.82911e-05
0.0238797
1.8753e-05
0.0240063
1.95349e-05
0.0241257
2.53091e-05
0.0242297
3.90437e-05
0.0242965
7.46794e-05
0.0243265
0.000109426
0.024368
9.97974e-05
0.0244403
6.99987e-05
0.0245148
5.37441e-05
0.0246352
1.80652e-05
0.0248263
-5.51336e-05
0.0250223
-5.91007e-05
0.0252333
-9.03007e-05
0.0253812
-2.71095e-05
0.025452
5.13147e-05
0.0253885
0.000186672
0.0253683
0.000138822
0.0253699
0.000116957
0.0254216
6.64588e-05
0.0254858
4.64738e-05
0.0254708
0.000124164
0.0255417
3.57443e-05
0.0256274
2.18487e-05
0.0255449
0.000179522
0.0255078
0.000135168
0.0256454
-3.9207e-05
0.0257485
-2.33539e-06
0.0255995
0.00024411
0.0255014
0.000187585
0.0253425
0.000245549
0.0254585
-3.47189e-05
0.0255169
2.07526e-05
0.0255659
1.94909e-05
0.0255498
8.59114e-05
0.0254549
0.000158255
0.0255077
1.28596e-05
0.0254104
0.000158994
0.0253434
0.000124167
0.0252376
0.000160212
0.0252642
2.85283e-05
0.0252236
9.17389e-05
0.0251872
8.45415e-05
0.0251921
4.21819e-05
0.0252408
-3.58165e-06
0.025315
-3.32375e-05
0.025208
0.000146329
0.025118
0.000121461
0.0250247
0.000120996
0.0250654
-1.56133e-05
0.0251608
-7.64075e-05
0.0250264
0.000150172
0.0249123
0.000117093
0.0246929
0.0002297
0.0246816
1.29456e-05
0.0248195
-0.000132799
0.0248888
-6.7767e-05
0.024893
4.38132e-06
0.0247665
0.00012843
0.0246196
0.000129298
0.0244999
0.000107542
0.0245371
-4.51459e-05
0.0245991
-7.33843e-05
0.0244752
0.000107441
0.0244188
3.49482e-05
0.0242184
0.000180126
0.0238613
0.000336712
0.0236719
0.000167643
0.0238074
-0.000163559
0.0240503
-0.000269317
0.0241693
-0.000157132
0.0241856
-5.45154e-05
0.0241347
1.09282e-05
0.023961
0.000134861
0.023894
2.298e-05
0.0236078
0.000241979
0.0233336
0.000233276
0.0233457
-5.65599e-05
0.023508
-0.000207407
0.023548
-9.58968e-05
0.0234415
5.38833e-05
0.0233645
2.24415e-05
0.0232126
0.000100987
0.0231997
-3.85482e-05
0.0233125
-0.000163763
0.0233042
-4.8922e-05
0.0231948
4.99301e-05
0.023111
2.37193e-05
0.0229192
0.00013918
0.0226553
0.000207877
0.0226106
-1.34692e-05
0.0227171
-0.00016197
0.0227321
-7.77703e-05
0.0226809
-4.25287e-06
0.0225991
2.02196e-05
0.0224984
4.23924e-05
0.0224881
-5.08137e-05
0.0224486
-1.93242e-05
0.0223713
1.54157e-05
0.0223148
-3.89577e-06
0.0223797
-0.000124765
0.0223852
-6.86102e-05
0.0222662
6.12572e-05
0.0221996
1.70916e-05
0.0220633
7.79652e-05
0.0219501
6.0533e-05
0.0219567
-6.05947e-05
0.0220077
-0.000105095
0.0219706
-1.43477e-05
0.0219217
-2.33036e-05
0.0218531
2.6447e-05
0.0218626
-5.73639e-05
0.0219303
-0.000113679
0.021927
-4.07807e-05
0.0218059
8.01709e-05
0.0217018
5.96154e-05
0.0215622
0.000109773
0.0216211
-8.98206e-05
0.0217568
-0.000162956
0.0218332
-0.000107554
0.0217847
2.10573e-05
0.0217479
1.31907e-05
0.0216578
6.8793e-05
0.0216199
1.96625e-05
0.0216792
-7.52442e-05
0.0217852
-0.000121903
0.021825
-5.11618e-05
0.021792
2.27853e-05
0.021796
-1.02331e-05
0.0218596
-6.76462e-05
0.0219949
-0.000138766
-6.36258e-05
0.000158464
-0.000212394
0.00025367
-0.000222271
0.000353442
-0.000281595
0.000476077
-0.000305171
0.000624451
-0.000322029
0.000772368
-0.000303115
0.000907743
-0.000278308
0.00103047
-0.000265176
0.00114332
-0.000256489
0.00125061
-0.000251863
0.00135149
-0.000239063
0.00144747
-0.000226704
0.00154418
-0.000232366
0.00164343
-0.000247216
0.00175981
-0.000277211
0.0018954
-0.000313671
0.00205065
-0.000357871
0.0022213
-0.000394386
0.00241189
-0.000442681
0.00263099
-0.00049586
0.00288665
-0.000554263
0.00318508
-0.0006234
0.00352842
-0.000705565
0.00391518
-0.000790283
0.00433729
-0.000851741
0.00478779
-0.000901217
0.00526225
-0.000963541
0.00573255
-0.00100634
0.00620005
-0.00106287
0.00667811
-0.00107719
0.0071782
-0.00105886
0.00760123
-0.000964095
0.00792739
-0.000953204
0.0082286
-0.000959973
0.00853922
-0.000945215
0.00879796
-0.000837927
0.00901792
-0.000785569
0.00925784
-0.000796555
0.00947404
-0.000755357
0.0095541
-0.000614955
0.00958035
-0.000468066
0.00953431
-0.000252835
0.00936633
4.54921e-05
0.00848725
0.000756927
0.00746209
0.00113953
0.00622593
0.00157391
0.00480506
0.00172828
0.00326089
0.00179751
0.00160099
0.00190842
-0.000208881
0.0021745
-0.00221829
0.00263697
-0.004456
0.00324576
-0.00695463
0.00391485
-0.00982102
0.0046002
-0.0134601
0.00555591
-0.0176908
0.00604055
-0.0221245
0.00621955
-0.0265248
0.00626219
-0.0306644
0.00604944
-0.034507
0.0058771
-0.0379163
0.00553023
-0.040761
0.00493076
-0.0430696
0.00429685
-0.0449395
0.00374331
-0.0464654
0.00321687
-0.0477686
0.00288617
-0.0488621
0.00237097
-0.049648
0.00176037
-0.0500765
0.00108565
-0.0501181
0.000411892
-0.0498571
-0.000155156
-0.0490639
-0.000872949
-0.0479
-0.00141133
-0.0464044
-0.00207694
-0.0446494
-0.00260839
-0.0427136
-0.00297967
-0.0406209
-0.00331568
-0.0384076
-0.00359278
-0.0361178
-0.00380268
-0.0337967
-0.00393171
-0.0314834
-0.00397777
-0.0292105
-0.00395197
-0.0270042
-0.0038615
-0.0248798
-0.00372393
-0.0228494
-0.00354126
-0.0209249
-0.00330931
-0.0191193
-0.00302709
-0.0174451
-0.00270986
-0.0159245
-0.00239971
-0.0145493
-0.00227205
-0.0133653
-0.00217226
-0.012353
-0.00185965
-0.011461
-0.0015931
-0.0106913
-0.00130301
-0.0100555
-0.000975238
-0.00955351
-0.000646988
-0.00918105
-0.000346372
-0.00895053
-8.57676e-05
-0.00881531
0.000167621
-0.00870933
0.000312781
-0.00862558
0.000420226
-0.00853503
0.000429688
-0.00840836
0.00035082
-0.00822203
0.000192466
-0.00798296
4.08289e-05
-0.0077188
-0.0001275
-0.00737271
-0.000284022
-0.00686005
-0.000521053
-0.0062642
-0.00056704
-0.00569529
-0.00073786
-0.00517948
-0.000846874
-0.00473511
-0.000801532
-0.00429907
-0.00062809
-0.00336169
-0.00114825
-0.00209243
-0.00166503
-0.000671737
-0.0019854
0.000843107
-0.00223589
0.00243194
-0.00239729
0.00412016
-0.00254325
0.00606239
-0.00280212
0.00824255
-0.00307348
0.0105203
-0.00323677
0.012808
-0.00331638
0.015056
-0.00333431
0.0172391
-0.00331337
0.0193467
-0.00326696
0.0213772
-0.00319506
0.0233269
-0.00305302
0.0252292
-0.00261109
0.0268205
-0.00245008
0.0281743
-0.00214853
0.0293703
-0.00188041
0.0304364
-0.00157287
0.0314148
-0.0013211
0.0323376
-0.00111778
0.0332603
-0.00100554
0.0342711
-0.00102612
0.0353924
-0.00114273
0.0364373
-0.00115784
0.037073
-0.000921642
0.037179
-0.000478409
0.0370729
-0.000149485
0.0367857
0.000137867
0.0365196
0.000233047
0.0363901
0.000135955
0.0364143
3.80752e-05
0.0365359
-2.43665e-05
0.0367012
-8.13536e-05
0.0368662
-0.000141483
0.0370235
-0.000180383
0.0371766
-0.000220952
0.0373283
-0.000214011
0.0374323
-0.00022178
0.0375101
-0.000222145
0.0375774
-0.00018498
0.0375629
-1.23287e-05
0.0375091
0.000160334
0.0373576
0.000361764
0.0370277
0.000569557
0.0365101
0.00074606
0.0358112
0.000909947
0.0349134
0.00111517
0.0339441
0.00118136
0.0329914
0.00115959
0.0320243
0.00118978
0.0310329
0.00123009
0.0301951
0.00111031
0.0294772
0.000959308
0.0288144
0.000898301
0.027927
0.001094
0.0266973
0.00130462
0.02572
0.000877094
0.0252378
0.000333114
0.0251911
-0.000137857
0.0252448
-0.000303768
0.0252437
-0.000174731
0.0252168
-0.000115379
0.0252983
-0.000278094
0.0253047
-0.000139656
0.024887
0.000421949
0.0238517
0.000922324
0.0223877
0.00119352
0.0208797
0.00128673
0.0194813
0.00128768
0.0180654
0.00149615
0.0162913
0.00190179
0.0137415
0.00255575
0.0116177
0.00238438
0.0100917
0.0021899
0.00872631
0.00241751
0.00724147
0.00273205
0.00570108
0.00278801
0.00426226
0.00246744
0.00289953
0.0023276
0.00150816
0.00241774
-0.000126685
0.00271938
-0.00202452
0.00298619
-0.00384555
0.00297058
-0.00535912
0.00268768
-0.0065543
0.00228064
-0.00753267
0.00193082
-0.00832759
0.00163181
-0.00887805
0.00123162
-0.00923562
0.000845081
-0.00931141
0.000297539
-0.00922959
-7.02387e-05
-0.00912069
-0.000250319
-0.00867963
-0.00073498
-0.00796158
-0.00111455
-0.0071996
-0.00121451
-0.00644795
-0.00131723
-0.00563892
-0.00152194
-0.00474108
-0.00171455
-0.00374069
-0.00192567
-0.0026496
-0.00214684
-0.00148977
-0.00229369
-0.000182586
-0.00234904
0.00136724
-0.00225046
0.00294777
-0.00191642
0.00449543
-0.00203499
0.00597832
-0.00219218
0.00738336
-0.00223015
0.00869793
-0.00207054
0.00987597
-0.00173059
0.0108395
-0.00136718
0.0114883
-0.00103415
0.0117676
-0.000600916
0.011848
-0.00013851
0.0118788
-0.000258494
0.0121492
-0.000577029
0.0124976
-0.000665779
0.0128858
-0.000528658
0.0132663
-0.000343653
0.0136682
-0.000428622
0.0140839
-0.00056393
0.0144898
-0.000548743
0.014768
-0.000379111
0.014763
-9.75091e-05
0.014934
-0.00017199
0.0150538
-2.53152e-05
0.0150457
0.000144574
0.0149046
0.000240278
0.0146318
0.000349859
0.0142832
0.000449056
0.0138823
0.000546288
0.0134561
0.000598014
0.0130305
0.00060451
0.0126118
0.000633122
0.0122054
0.000709117
0.0117991
0.00081048
0.0113793
0.000907934
0.0109365
0.000995308
0.0104607
0.00108392
0.0099466
0.0011667
0.00938987
0.00121609
0.00879502
0.00119837
0.00815099
0.00117886
0.00738063
0.00128648
0.0064651
0.00141496
0.00554583
0.0013722
0.00480347
0.00125859
0.00429357
0.00107242
0.00393386
0.000961001
0.00368369
0.000876447
0.00357184
0.000763882
0.00357669
0.000621649
0.00357584
0.000496262
0.00355788
0.000383746
0.00356067
0.000293497
0.0035513
0.000237856
0.00345653
0.000283583
0.00338386
0.000342702
0.00352557
7.29613e-05
0.003806
-0.000279281
0.00423606
-0.000456802
0.00476437
-0.00056698
0.0053499
-0.000708275
0.00597731
-0.000880287
0.00665588
-0.0010629
0.00747534
-0.00120886
0.0086398
-0.00131429
0.0102423
-0.00140509
0.0116553
-0.00140647
0.0126565
-0.00112418
0.0135677
-0.00115285
0.0144953
-0.00115137
0.0154444
-0.00114435
0.0163886
-0.00112147
0.0172987
-0.00108112
0.0181775
-0.00105381
0.0190252
-0.00102647
0.0198397
-0.000985241
0.0206135
-0.000923664
0.0213497
-0.000867023
0.0220859
-0.000847727
0.0229366
-0.000963333
0.0240551
-0.00128625
0.0254057
-0.00163813
0.0265821
-0.00144464
0.0270314
-0.0003538
0.0274585
-0.000534356
0.0279506
-0.000686763
0.0285998
-0.000810555
0.0293224
-0.000630352
0.0296612
-0.000788115
0.0304523
-0.000825499
0.031097
-0.000334804
0.0318016
-0.000418183
0.0319141
-0.000182117
0.0319674
-0.000137689
0.0322107
-0.000183382
0.0324267
-0.000491799
0.0326712
-8.81199e-05
0.0326877
0.000305377
0.0326686
0.000317225
0.0326757
0.000274879
0.0329092
-1.27597e-05
0.0334971
-0.000379558
0.0342341
-0.000518419
0.0345748
-0.000165731
0.0343439
0.000426704
0.0338782
0.000701216
0.0336471
0.000489384
0.0336239
0.000402866
0.033437
0.000463163
0.0330245
0.000662287
0.032592
0.000647483
0.0322455
0.000534636
0.0319412
0.00054806
0.0315833
0.000489061
0.0311614
0.000399326
0.0307229
0.000299137
0.0303573
0.000469966
0.0305434
0.000774131
0.0306742
0.000763322
0.0306178
0.000547867
0.0304959
0.000472171
0.0303758
0.000500255
0.0303107
0.000445709
0.0303113
0.000332272
0.0304175
0.000182387
0.0306268
2.85878e-05
0.0308978
-8.86256e-05
0.031196
-0.000149133
0.031501
-0.000172272
0.0318044
-0.000175782
0.0321031
-0.000169586
0.0323959
-0.000157635
0.0326845
-0.000146374
0.0329741
-0.000141798
0.0332726
-0.000139824
0.0335821
-0.000153629
0.0338955
-0.000155157
0.0342129
-0.000168132
0.0345302
-0.000170335
0.0348481
-0.0001723
0.0351683
-0.000175933
0.0354916
-0.000179542
0.0358171
-0.000182061
0.0361437
-0.000184268
0.03647
-0.000185484
0.0367929
-0.00018208
0.0371086
-0.00017327
0.0374163
-0.000158736
0.0377156
-0.000144148
0.0380059
-0.000132285
0.0382894
-0.000120079
0.0385663
-0.000111457
0.0388378
-0.000105717
0.0391075
-0.000104479
0.0393861
-0.000113692
0.0396908
-0.000135611
0.0400416
-0.000170225
0.0404525
-0.000197675
0.0407137
-1.57946e-05
0.0407271
0.000230747
0.0407332
0.000211501
0.0411176
-0.000202826
0.0418055
-0.000532695
0.0426276
-0.000739841
0.0432256
-0.000518695
0.0431799
7.5048e-05
0.0426009
0.000668647
0.0423086
0.000461169
0.0424372
0.000185334
0.0428716
-0.000174606
0.0431107
-1.50488e-05
0.0429102
0.000380822
0.0427878
0.000282996
0.0430403
-1.40903e-05
0.0429665
0.000212612
0.0428374
0.000256029
0.0429908
0.000128791
0.0432184
7.42404e-06
0.0429665
0.000303842
0.0428187
0.000239649
0.0429433
0.000213909
0.0434345
-0.000218488
0.0439208
-0.000148989
0.0437679
0.00019767
0.043523
0.000349422
0.0433704
0.000252229
0.0435106
2.08036e-05
0.0437168
9.43988e-06
0.0436245
0.000165228
0.043687
0.000160296
0.0440678
-0.000200436
0.0444177
-0.000132385
0.0443911
0.000104253
0.0445247
6.29424e-06
0.0447262
-7.0235e-05
0.0446588
0.000146274
0.0441992
0.000490304
0.0438328
0.00037241
0.0440002
1.35443e-05
0.044385
-0.000229972
0.0446419
-0.000116211
0.0442243
0.000423393
0.0438495
0.000318964
0.0439124
0.000105583
0.0444573
-0.000419604
0.0451202
-0.000428949
0.0453251
-0.000197027
0.0448175
0.000370583
0.0441062
0.000638903
0.0436814
0.000436155
0.0438898
-7.92431e-05
0.044172
-0.000153292
0.0442658
-1.06465e-05
0.043759
0.000450438
0.0433178
0.000352629
0.0433225
8.61744e-05
0.0435718
-0.000231411
0.0442721
-0.000539302
0.0452379
-0.000650067
0.0457552
-0.000382315
0.0454231
0.000130995
0.0444299
0.000694248
0.0435409
0.000699784
0.0429172
0.000532994
0.0426001
0.00029009
0.0426863
8.85407e-06
0.043063
-0.000389896
0.043806
-0.000535645
0.0445206
-0.00052338
0.0445217
-0.000116478
0.0438084
0.000463291
0.0431641
0.00049341
0.0430199
0.000149468
0.0433218
-0.000330282
0.0437202
-0.00034839
0.0435811
4.34778e-05
0.0428431
0.000526892
0.0422987
0.000438641
0.0422187
7.44502e-05
0.0424129
-0.000231687
0.0430022
-0.000496823
0.0436442
-0.000492482
0.0436882
-0.00012691
0.0430634
0.000409202
0.0425316
0.000389136
0.0425654
-9.18237e-05
0.0427611
-0.000235277
0.0427897
-5.36669e-05
0.0425228
0.000153483
0.0425166
-6.68768e-05
0.0427321
-0.000258752
0.0427849
-0.000125711
0.042116
0.00048646
0.0415267
0.000456961
0.0414147
0.000121647
0.041706
-0.000327391
0.0422622
-0.000523777
0.042629
-0.000361068
0.0423135
0.000188682
0.0417959
0.000352036
0.0416626
8.11669e-05
0.0418824
-0.000269975
0.042083
-0.000235081
0.0417111
0.000260962
0.0411041
0.000449509
0.0407461
0.000278566
0.0409024
-0.000114108
0.0415147
-0.000592601
0.0421373
-0.000547816
0.0422035
-0.000198276
0.0416871
0.000327792
0.041143
0.000407011
0.0409233
0.000216163
0.0412197
-0.000308391
0.0418355
-0.00056309
0.0421575
-0.000327558
0.0418826
0.000180782
0.0415925
0.00015553
0.0417033
-0.000165071
0.0422026
-0.000484524
0.0425245
-0.000344106
0.0422677
0.000182597
0.0419329
0.000192546
-1.44897e-06
0.000112733
-0.000368802
0.000132679
-0.000284253
0.000215672
-0.00040837
0.000357189
-0.000488801
0.000520133
-0.0005306
0.000682894
-0.0005117
0.000827898
-0.000470722
0.000959816
-0.000445569
0.00108206
-0.000428778
0.00119472
-0.000416588
0.00129709
-0.000395741
0.00139278
-0.000379247
0.00149646
-0.000394604
0.00160879
-0.000418703
0.00172788
-0.000456446
0.00186342
-0.000513997
0.00201861
-0.000580463
0.00218857
-0.000633152
0.00238202
-0.000705394
0.00260498
-0.000789758
0.00286435
-0.000887608
0.00316759
-0.00100328
0.00352004
-0.00113495
0.00391913
-0.00126572
0.00434242
-0.00135517
0.00477122
-0.00141828
0.00522076
-0.00150373
0.00569094
-0.00155645
0.00617847
-0.00161874
0.00663725
-0.00162563
0.00704261
-0.00158448
0.00743535
-0.00148269
0.00781096
-0.00139057
0.00812032
-0.00131871
0.00837927
-0.0012984
0.00862973
-0.00120788
0.00885686
-0.00111678
0.00909298
-0.00112629
0.00931697
-0.00107191
0.00946663
-0.000861152
0.00948739
-0.00059065
0.00921401
-7.50676e-05
0.0084474
0.000718089
0.00720537
0.00190573
0.00540827
0.00284199
0.00311091
0.003777
0.00032111
0.00442426
-0.00281034
0.00483645
-0.00616411
0.00517152
-0.00970657
0.00562846
-0.0134426
0.00628664
-0.0173545
0.00707229
-0.021406
0.00788231
-0.0255219
0.00863309
-0.0295484
0.00950444
-0.0333797
0.00979497
-0.0371242
0.00988911
-0.0408098
0.00987292
-0.0442718
0.00943679
-0.0474264
0.0089579
-0.0501488
0.00817986
-0.052423
0.00713557
-0.0542457
0.00605308
-0.0556125
0.00504706
-0.0565711
0.00411529
-0.0570224
0.00327924
-0.0569091
0.00220372
-0.0564262
0.00122732
-0.0558627
0.000473028
-0.0551737
-0.000321328
-0.0544006
-0.000970715
-0.0533699
-0.00194361
-0.0520958
-0.00272113
-0.0506009
-0.00360317
-0.0488385
-0.00439845
-0.0468884
-0.00495391
-0.0447925
-0.00543234
-0.0425637
-0.00583913
-0.040239
-0.0061418
-0.0378622
-0.00631988
-0.035448
-0.00640067
-0.0330167
-0.00638925
-0.0306031
-0.00627866
-0.0282369
-0.00609035
-0.0259388
-0.0058365
-0.0237283
-0.00551398
-0.0216228
-0.00512423
-0.0196056
-0.00471643
-0.0176381
-0.00435457
-0.0159719
-0.00392216
-0.0150701
-0.00305617
-0.0142864
-0.00262339
-0.0135321
-0.00232539
-0.0128182
-0.00199288
-0.0121537
-0.00161379
-0.0115458
-0.00122816
-0.0109981
-0.000864919
-0.0105193
-0.000533899
-0.0101001
-0.000219661
-0.00972593
-2.16855e-05
-0.00938531
0.000114488
-0.00907242
0.000153945
-0.00877908
9.46614e-05
-0.00848017
-6.8386e-05
-0.00815981
-0.00024186
-0.00780988
-0.000439761
-0.00711371
-0.000942191
-0.00585445
-0.00174225
-0.00424208
-0.00214017
-0.00261977
-0.00232064
-0.00106061
-0.00236631
0.000468934
-0.00229084
0.00191002
-0.00202941
0.0032914
-0.002489
0.00478121
-0.0031134
0.0065325
-0.00369575
0.00853633
-0.00419863
0.0107853
-0.00460568
0.0132658
-0.00498225
0.0158614
-0.00536111
0.0184774
-0.00565321
0.0210917
-0.00581564
0.0236883
-0.00587874
0.0262568
-0.0058688
0.028797
-0.00581979
0.0312879
-0.00572418
0.0336813
-0.00555546
0.0358773
-0.00522046
0.0376801
-0.00439167
0.0390029
-0.00375591
0.0401844
-0.00331196
0.0413943
-0.00307776
0.0426715
-0.00284357
0.0439553
-0.00260526
0.0451804
-0.00235011
0.0463036
-0.00214087
0.0473446
-0.00208131
0.0482928
-0.00210488
0.0490613
-0.0019394
0.0496679
-0.00154508
0.0500855
-0.00090982
0.0503285
-0.000405119
0.0505461
-9.06904e-05
0.050872
-0.00010478
0.0512729
-0.000274214
0.0516498
-0.000350077
0.0519877
-0.000372116
0.0523114
-0.000412781
0.052679
-0.000515952
0.0531637
-0.000672089
0.0538072
-0.000872605
0.0545735
-0.000992629
0.0553028
-0.000970431
0.0558052
-0.000746835
0.055947
-0.000348251
0.055877
1.92731e-05
0.0555033
0.000503593
0.0549172
0.000918891
0.054269
0.00118681
0.0535906
0.00139082
0.0528967
0.00156895
0.0521845
0.00179012
0.0515268
0.00180399
0.0509968
0.00165302
0.0505264
0.00161963
0.0498286
0.00187895
0.0484332
0.00245265
0.0461905
0.00314994
0.0435601
0.00347605
0.0409201
0.00367991
0.038782
0.00339155
0.0373237
0.00228803
0.0365449
0.001062
0.0362821
7.22487e-05
0.0362589
-0.000341403
0.0360068
8.22957e-06
0.0350848
0.000738408
0.0335637
0.00117624
0.0318761
0.00148203
0.0300872
0.00214335
0.0279606
0.00298116
0.0254869
0.00360139
0.0231732
0.00354044
0.0213751
0.00302628
0.0198108
0.00299741
0.0181696
0.00348118
0.0166102
0.00405566
0.0152832
0.00365364
0.0141528
0.00326116
0.0128021
0.00370622
0.0110474
0.00442394
0.00893522
0.00483915
0.00676625
0.00457586
0.0044493
0.00458519
0.0018944
0.00491393
-0.000482148
0.00503619
-0.00242367
0.00487187
-0.00401938
0.00451186
-0.00528119
0.00389838
-0.00637702
0.00332837
-0.00732045
0.00282981
-0.00810608
0.00237235
-0.00871625
0.00180163
-0.00908869
0.00118529
-0.0092449
0.000421919
-0.00919438
-0.000154159
-0.00870424
-0.000768294
-0.00792152
-0.00154264
-0.00691953
-0.00213488
-0.0057484
-0.00239972
-0.00448776
-0.00258824
-0.00311698
-0.00290022
-0.00164493
-0.00319273
-9.01556e-05
-0.00348459
0.00153142
-0.00377073
0.00317347
-0.00393689
0.00473683
-0.00391237
0.00612122
-0.00363466
0.00722296
-0.00301404
0.0082126
-0.00302392
0.00915981
-0.00313834
0.010051
-0.00311899
0.0109399
-0.00295449
0.0119965
-0.0027805
0.0131191
-0.00247922
0.0140464
-0.00194725
0.0146935
-0.00122839
0.0151498
-0.000569667
0.0154525
-0.000532808
0.0152907
-0.000380993
0.0151836
-0.000519494
0.0151415
-0.000441704
0.015229
-0.000379102
0.0153187
-0.00046501
0.0153437
-0.00053127
0.0154108
-0.000554631
0.015526
-0.000430835
0.0156777
-0.000180868
0.0157177
-0.000140121
0.0157445
2.32848e-05
0.0157002
0.000267362
0.0155613
0.000460571
0.0153264
0.000668435
0.014992
0.000870755
0.0145741
0.00105421
0.0140848
0.00118084
0.0135582
0.00122806
0.0130215
0.00127071
0.0125172
0.00131784
0.0120436
0.00139157
0.0115793
0.00148282
0.0111086
0.00157948
0.0106175
0.00169134
0.0101019
0.00180124
0.00954774
0.00189178
0.00892867
0.00194093
0.0082061
0.00202619
0.00736942
0.00225127
0.00651245
0.00240324
0.00569266
0.00232699
0.00495649
0.00213206
0.00433561
0.00183363
0.00386865
0.00157052
0.0035929
0.00129787
0.00345922
0.00104678
0.00339797
0.000830213
0.00337546
0.000670961
0.00339148
0.000521784
0.00346503
0.000370685
0.003603
0.000256842
0.00380173
0.000242327
0.00415218
0.000151191
0.00450212
-0.000116848
0.00490684
-0.000519352
0.0055445
-0.000929408
0.00629995
-0.00115606
0.00708295
-0.00132406
0.00784595
-0.00147515
0.00857722
-0.00162471
0.00933868
-0.00180077
0.0102623
-0.00206874
0.0114669
-0.00243764
0.0127933
-0.00256107
0.0141463
-0.00230445
0.0154885
-0.00232332
0.0168301
-0.00232192
0.0181763