/*--------------------------------*- C++ -*----------------------------------*\
| =========                 |                                                 |
| \\      /  F ield         | OpenFOAM: The Open Source CFD Toolbox           |
|  \\    /   O peration     | Version:  v1812                                 |
|   \\  /    A nd           | Web:      www.OpenFOAM.com                      |
|    \\/     M anipulation  |                                                 |
\*---------------------------------------------------------------------------*/
FoamFile
{
    version     2.0;
    format      ascii;
    class       volScalarField;
    location    "1";
    object      T;
}
// * * * * * * * * * * * * * * * * * * * * * * * * * * * * * * * * * * * * * //

dimensions      [0 0 0 1 0 0 0];


internalField   nonuniform List<scalar> 
20400
(
295.644
295.628
295.596
295.553
295.504
295.452
295.402
295.357
295.318
295.288
295.268
295.258
295.259
295.271
295.294
295.326
295.369
295.421
295.48
295.546
295.617
295.691
295.767
295.842
295.915
295.983
296.048
296.106
296.159
296.208
296.255
296.302
296.353
296.407
296.465
296.524
296.586
296.641
296.688
296.725
296.75
296.768
296.768
296.76
296.742
296.719
296.716
296.738
296.804
296.917
297.075
297.264
297.467
297.656
297.812
297.931
298.008
298.053
298.071
298.066
298.045
298.013
297.971
297.921
297.871
297.813
297.759
297.703
297.646
297.59
297.534
297.479
297.423
297.37
297.316
297.264
297.215
297.165
297.115
297.065
297.013
296.962
296.91
296.858
296.807
296.756
296.705
296.652
296.596
296.54
296.484
296.424
296.367
296.312
296.257
296.204
296.151
296.098
296.048
296.005
295.97
295.943
295.924
295.912
295.908
295.909
295.919
295.929
295.94
295.953
295.967
295.982
296.001
296.003
295.998
295.998
296.008
296.032
296.067
296.099
296.121
296.137
296.155
296.176
296.202
296.232
296.264
296.3
296.337
296.37
296.403
296.431
296.459
296.482
296.496
296.499
296.491
296.476
296.457
296.439
296.423
296.406
296.39
296.375
296.356
296.34
296.324
296.306
296.288
296.27
296.253
296.236
296.218
296.199
296.177
296.147
296.115
296.083
296.053
296.026
296.007
295.995
295.995
296.001
296.019
296.046
296.083
296.129
296.176
296.231
296.29
296.359
296.432
296.504
296.574
296.637
296.69
296.736
296.765
296.78
296.792
296.797
296.792
296.777
296.755
296.731
296.7
296.674
296.639
296.612
296.58
296.551
296.527
296.501
296.477
296.456
296.443
296.432
296.423
296.417
296.414
296.412
296.418
296.427
296.446
296.471
296.502
296.538
296.58
296.626
296.681
296.742
296.808
296.881
296.958
297.041
297.129
297.22
297.306
297.402
297.492
297.575
297.652
297.72
297.778
297.827
297.865
297.88
297.876
297.863
297.831
297.784
297.722
297.652
297.577
297.5
297.426
297.357
297.289
297.227
297.168
297.116
297.066
297.019
296.973
296.928
296.883
296.836
296.79
296.743
296.697
296.651
296.607
296.564
296.525
296.49
296.458
296.428
296.419
296.405
296.372
296.345
296.376
296.338
296.302
296.286
296.277
296.271
296.265
296.262
296.258
296.254
296.252
296.248
296.244
296.243
296.244
296.246
296.248
296.251
296.253
296.261
296.265
296.271
296.274
296.279
296.285
296.292
296.301
296.311
296.323
296.334
296.343
296.352
296.359
296.366
296.372
296.375
296.385
296.391
296.383
296.381
296.382
296.382
296.374
296.363
296.345
296.335
296.319
296.3
296.28
296.257
296.224
296.193
296.161
296.13
296.098
296.066
296.03
295.998
295.965
295.934
295.901
295.861
295.828
295.794
295.76
295.726
295.693
295.657
295.624
295.591
295.556
295.51
295.483
295.449
295.418
295.384
295.352
295.321
295.291
295.262
295.233
295.205
295.178
295.151
295.125
295.098
295.072
295.047
295.021
294.997
294.972
294.947
294.923
294.9
294.876
294.853
294.831
294.809
294.787
294.766
294.745
294.724
294.705
294.685
294.665
294.646
294.628
294.61
294.593
294.576
294.56
294.545
294.53
294.517
294.502
294.491
294.475
294.462
294.449
294.44
294.422
294.419
294.409
294.403
294.395
294.385
294.376
294.375
294.371
294.363
294.352
294.355
294.354
294.351
294.343
294.344
294.35
294.348
294.344
294.344
294.349
294.35
294.354
294.354
294.358
294.367
294.369
294.371
294.378
294.384
294.388
294.391
294.402
294.406
294.416
294.419
294.423
294.435
294.44
294.45
294.457
294.462
294.472
294.475
294.492
294.488
294.498
294.503
294.507
294.518
294.527
294.535
294.538
294.54
294.545
294.553
294.56
294.564
294.565
294.572
294.577
294.581
294.582
294.582
294.584
294.587
294.587
294.591
294.591
294.588
294.587
294.583
294.584
294.589
294.58
294.574
294.566
294.562
294.557
294.558
294.548
294.538
294.528
294.523
294.513
294.501
294.49
294.48
294.468
294.466
294.442
294.431
294.412
294.403
294.387
294.373
294.356
294.334
294.323
294.302
294.288
294.266
294.246
294.223
294.201
294.185
294.158
294.142
294.111
294.089
294.063
294.037
294.016
293.99
293.964
293.94
293.919
293.893
295.59
295.573
295.541
295.497
295.449
295.399
295.351
295.309
295.274
295.248
295.233
295.228
295.234
295.25
295.278
295.317
295.365
295.422
295.487
295.559
295.634
295.711
295.789
295.865
295.938
296.006
296.067
296.121
296.172
296.221
296.266
296.306
296.352
296.41
296.473
296.533
296.588
296.639
296.68
296.711
296.734
296.749
296.759
296.762
296.775
296.792
296.841
296.927
297.054
297.212
297.387
297.567
297.738
297.885
297.972
298.007
298.009
297.988
297.939
297.868
297.785
297.697
297.607
297.516
297.425
297.327
297.232
297.138
297.048
296.962
296.883
296.809
296.74
296.677
296.621
296.569
296.522
296.478
296.437
296.398
296.361
296.327
296.294
296.261
296.229
296.195
296.159
296.12
296.076
296.029
295.978
295.928
295.879
295.831
295.785
295.738
295.689
295.639
295.591
295.547
295.505
295.469
295.437
295.409
295.39
295.377
295.371
295.37
295.372
295.371
295.374
295.384
295.394
295.374
295.346
295.329
295.323
295.33
295.343
295.364
295.381
295.392
295.403
295.415
295.432
295.457
295.491
295.534
295.585
295.644
295.711
295.782
295.859
295.937
296.011
296.074
296.118
296.144
296.16
296.168
296.172
296.169
296.165
296.154
296.135
296.113
296.088
296.06
296.032
296.005
295.98
295.961
295.949
295.947
295.948
295.948
295.951
295.948
295.943
295.936
295.926
295.915
295.909
295.91
295.916
295.926
295.949
295.982
296.021
296.058
296.093
296.138
296.198
296.272
296.359
296.446
296.531
296.619
296.69
296.741
296.781
296.804
296.819
296.82
296.813
296.799
296.762
296.744
296.73
296.712
296.69
296.669
296.652
296.634
296.617
296.598
296.577
296.562
296.55
296.541
296.532
296.524
296.521
296.517
296.521
296.53
296.539
296.558
296.581
296.606
296.638
296.678
296.723
296.774
296.832
296.898
296.977
297.072
297.17
297.268
297.365
297.459
297.549
297.632
297.705
297.769
297.823
297.858
297.862
297.857
297.835
297.793
297.735
297.659
297.576
297.488
297.403
297.315
297.242
297.169
297.102
297.039
296.982
296.928
296.876
296.826
296.777
296.729
296.683
296.637
296.593
296.55
296.508
296.468
296.431
296.396
296.364
296.333
296.288
296.254
296.247
296.239
296.188
296.206
296.205
296.198
296.192
296.187
296.181
296.173
296.166
296.159
296.158
296.149
296.143
296.135
296.128
296.12
296.11
296.102
296.096
296.091
296.075
296.065
296.058
296.049
296.038
296.029
296.021
296.017
296.015
296.016
296.017
296.018
296.019
296.021
296.024
296.029
296.045
296.075
296.076
296.096
296.116
296.13
296.143
296.143
296.15
296.167
296.17
296.177
296.177
296.172
296.149
296.126
296.098
296.072
296.043
296.015
295.985
295.96
295.916
295.884
295.846
295.812
295.773
295.736
295.697
295.66
295.623
295.585
295.548
295.512
295.477
295.444
295.415
295.37
295.334
295.298
295.264
295.231
295.198
295.167
295.137
295.107
295.079
295.052
295.026
295
294.974
294.949
294.924
294.899
294.875
294.851
294.828
294.805
294.782
294.76
294.739
294.718
294.697
294.677
294.657
294.638
294.618
294.6
294.581
294.563
294.546
294.529
294.512
294.496
294.48
294.467
294.452
294.435
294.421
294.413
294.399
294.388
294.38
294.355
294.343
294.343
294.337
294.335
294.319
294.302
294.304
294.307
294.286
294.282
294.285
294.288
294.268
294.268
294.27
294.273
294.278
294.262
294.256
294.266
294.275
294.276
294.272
294.278
294.285
294.293
294.288
294.298
294.305
294.295
294.3
294.31
294.324
294.331
294.334
294.329
294.339
294.355
294.364
294.371
294.375
294.369
294.385
294.391
294.408
294.414
294.411
294.41
294.42
294.435
294.441
294.451
294.458
294.469
294.455
294.462
294.472
294.48
294.477
294.487
294.489
294.495
294.5
294.494
294.489
294.5
294.502
294.51
294.506
294.493
294.492
294.496
294.499
294.498
294.494
294.492
294.479
294.467
294.47
294.469
294.467
294.449
294.435
294.437
294.434
294.414
294.393
294.393
294.383
294.373
294.358
294.348
294.32
294.309
294.299
294.292
294.267
294.24
294.23
294.21
294.199
294.174
294.159
294.137
294.108
294.093
294.066
294.052
294.025
294.003
293.967
293.946
293.928
293.904
293.879
293.841
293.825
293.789
295.492
295.476
295.443
295.4
295.352
295.305
295.261
295.224
295.196
295.179
295.172
295.177
295.193
295.221
295.261
295.313
295.375
295.447
295.525
295.607
295.692
295.776
295.857
295.934
296.004
296.067
296.124
296.174
296.218
296.259
296.302
296.351
296.4
296.451
296.511
296.574
296.628
296.666
296.696
296.721
296.749
296.782
296.815
296.853
296.912
296.996
297.124
297.288
297.467
297.635
297.778
297.885
297.939
297.948
297.936
297.896
297.815
297.705
297.58
297.439
297.293
297.146
297.006
296.871
296.741
296.614
296.505
296.391
296.284
296.184
296.09
296.006
295.925
295.853
295.789
295.729
295.675
295.626
295.584
295.548
295.519
295.497
295.479
295.465
295.451
295.435
295.415
295.39
295.363
295.34
295.298
295.263
295.224
295.185
295.149
295.111
295.071
295.031
294.992
294.955
294.923
294.896
294.874
294.857
294.848
294.843
294.844
294.85
294.852
294.854
294.858
294.862
294.867
294.861
294.857
294.853
294.852
294.855
294.862
294.868
294.871
294.869
294.861
294.848
294.831
294.813
294.794
294.778
294.775
294.774
294.787
294.815
294.864
294.933
295.023
295.127
295.228
295.314
295.389
295.456
295.513
295.562
295.603
295.629
295.639
295.639
295.628
295.603
295.566
295.522
295.475
295.43
295.408
295.41
295.421
295.432
295.454
295.48
295.509
295.54
295.573
295.602
295.628
295.653
295.682
295.713
295.75
295.798
295.847
295.88
295.907
295.925
295.956
296.01
296.097
296.207
296.328
296.453
296.576
296.681
296.761
296.816
296.858
296.893
296.909
296.913
296.906
296.911
296.91
296.913
296.905
296.895
296.892
296.884
296.867
296.857
296.856
296.852
296.85
296.847
296.844
296.833
296.82
296.805
296.794
296.779
296.764
296.748
296.73
296.715
296.707
296.705
296.711
296.725
296.747
296.778
296.82
296.877
296.956
297.055
297.166
297.278
297.388
297.497
297.593
297.677
297.749
297.806
297.836
297.829
297.814
297.778
297.715
297.63
297.53
297.423
297.316
297.219
297.118
297.029
296.952
296.882
296.819
296.759
296.703
296.649
296.598
296.548
296.502
296.459
296.419
296.381
296.345
296.312
296.281
296.253
296.227
296.202
296.178
296.159
296.145
296.133
296.122
296.116
296.112
296.109
296.11
296.11
296.112
296.113
296.11
296.112
296.107
296.097
296.086
296.071
296.056
296.038
296.018
295.998
295.978
295.956
295.929
295.899
295.867
295.836
295.803
295.771
295.738
295.707
295.676
295.647
295.619
295.593
295.569
295.545
295.519
295.498
295.496
295.515
295.525
295.553
295.588
295.622
295.643
295.682
295.714
295.77
295.823
295.871
295.913
295.937
295.973
295.978
295.983
295.979
295.966
295.944
295.915
295.886
295.856
295.827
295.786
295.744
295.704
295.664
295.623
295.582
295.541
295.5
295.459
295.419
295.376
295.357
295.305
295.26
295.218
295.175
295.138
295.101
295.063
295.027
294.993
294.961
294.931
294.902
294.873
294.846
294.819
294.793
294.767
294.742
294.718
294.695
294.673
294.651
294.63
294.61
294.591
294.572
294.555
294.538
294.521
294.505
294.489
294.474
294.459
294.444
294.43
294.416
294.403
294.39
294.377
294.366
294.357
294.35
294.341
294.32
294.31
294.298
294.291
294.286
294.282
294.27
294.266
294.256
294.251
294.249
294.24
294.234
294.227
294.227
294.221
294.217
294.212
294.215
294.211
294.205
294.208
294.207
294.209
294.209
294.208
294.208
294.214
294.214
294.213
294.221
294.227
294.228
294.231
294.241
294.249
294.253
294.255
294.257
294.269
294.277
294.281
294.287
294.289
294.296
294.307
294.314
294.328
294.332
294.335
294.336
294.347
294.355
294.359
294.365
294.368
294.377
294.379
294.387
294.393
294.4
294.411
294.413
294.416
294.413
294.414
294.419
294.421
294.424
294.43
294.433
294.429
294.425
294.428
294.428
294.432
294.429
294.424
294.417
294.414
294.408
294.404
294.403
294.399
294.39
294.378
294.375
294.37
294.355
294.343
294.338
294.331
294.32
294.304
294.289
294.272
294.263
294.248
294.239
294.218
294.2
294.186
294.17
294.16
294.137
294.112
294.091
294.072
294.055
294.033
294.019
293.992
293.965
293.938
293.921
293.9
293.872
293.842
293.813
293.794
293.772
293.746
293.714
295.356
295.34
295.306
295.263
295.218
295.176
295.14
295.113
295.097
295.093
295.102
295.123
295.158
295.206
295.266
295.339
295.423
295.514
295.61
295.706
295.799
295.886
295.966
296.036
296.097
296.15
296.195
296.235
296.273
296.313
296.356
296.405
296.462
296.521
296.58
296.627
296.661
296.687
296.718
296.769
296.835
296.913
296.993
297.084
297.194
297.335
297.508
297.686
297.836
297.931
297.966
297.96
297.914
297.85
297.744
297.612
297.456
297.289
297.12
296.949
296.789
296.635
296.492
296.365
296.251
296.147
296.052
295.962
295.878
295.798
295.723
295.653
295.58
295.512
295.443
295.374
295.308
295.244
295.184
295.13
295.083
295.041
295.004
294.974
294.95
294.932
294.916
294.9
294.882
294.867
294.848
294.823
294.799
294.777
294.755
294.734
294.713
294.694
294.678
294.667
294.665
294.669
294.678
294.695
294.716
294.74
294.771
294.797
294.818
294.837
294.853
294.869
294.884
294.901
294.922
294.943
294.966
294.988
295.008
295.02
295.021
295.011
294.988
294.952
294.905
294.847
294.781
294.711
294.64
294.564
294.492
294.432
294.384
294.348
294.333
294.331
294.341
294.376
294.44
294.521
294.606
294.682
294.748
294.805
294.857
294.901
294.927
294.931
294.924
294.899
294.856
294.802
294.757
294.75
294.755
294.769
294.792
294.815
294.844
294.883
294.935
294.997
295.064
295.131
295.199
295.271
295.357
295.457
295.559
295.626
295.668
295.706
295.741
295.792
295.875
296.004
296.156
296.31
296.456
296.594
296.71
296.806
296.884
296.961
297.014
297.061
297.091
297.121
297.141
297.169
297.189
297.204
297.23
297.253
297.266
297.287
297.316
297.348
297.375
297.405
297.434
297.451
297.453
297.454
297.456
297.443
297.418
297.384
297.336
297.281
297.222
297.162
297.099
297.033
296.966
296.902
296.853
296.829
296.829
296.861
296.923
297.009
297.118
297.242
297.363
297.477
297.581
297.67
297.736
297.766
297.769
297.751
297.701
297.62
297.513
297.391
297.263
297.138
297.011
296.898
296.799
296.713
296.636
296.566
296.502
296.442
296.387
296.336
296.29
296.249
296.212
296.18
296.151
296.125
296.104
296.087
296.073
296.064
296.06
296.059
296.06
296.066
296.081
296.094
296.111
296.127
296.14
296.155
296.173
296.197
296.224
296.248
296.267
296.28
296.286
296.285
296.276
296.261
296.24
296.212
296.175
296.133
296.083
296.025
295.963
295.903
295.845
295.786
295.728
295.667
295.604
295.537
295.469
295.402
295.334
295.268
295.202
295.134
295.073
295.037
294.996
294.973
294.968
294.974
294.991
295.024
295.072
295.139
295.225
295.292
295.367
295.446
295.529
295.622
295.702
295.756
295.792
295.803
295.802
295.784
295.777
295.753
295.721
295.685
295.648
295.608
295.557
295.51
295.463
295.415
295.366
295.321
295.274
295.227
295.183
295.136
295.092
295.046
294.997
294.95
294.907
294.865
294.824
294.786
294.751
294.716
294.682
294.65
294.618
294.588
294.558
294.529
294.502
294.477
294.452
294.43
294.409
294.389
294.371
294.355
294.339
294.325
294.313
294.301
294.29
294.279
294.269
294.26
294.251
294.243
294.235
294.228
294.221
294.216
294.213
294.211
294.206
294.195
294.185
294.179
294.178
294.187
294.181
294.173
294.164
294.161
294.163
294.165
294.16
294.151
294.154
294.154
294.144
294.145
294.15
294.149
294.141
294.139
294.141
294.15
294.146
294.147
294.146
294.149
294.157
294.154
294.155
294.16
294.171
294.17
294.172
294.185
294.191
294.197
294.196
294.199
294.209
294.222
294.225
294.226
294.228
294.237
294.245
294.263
294.265
294.272
294.27
294.278
294.288
294.298
294.302
294.305
294.305
294.314
294.319
294.321
294.338
294.342
294.345
294.348
294.35
294.355
294.351
294.354
294.357
294.362
294.369
294.368
294.364
294.36
294.36
294.366
294.367
294.363
294.357
294.351
294.348
294.342
294.34
294.341
294.334
294.32
294.312
294.309
294.304
294.288
294.276
294.27
294.265
294.252
294.235
294.218
294.206
294.192
294.187
294.168
294.15
294.132
294.115
294.107
294.085
294.066
294.044
294.021
294.004
293.986
293.968
293.943
293.923
293.895
293.872
293.849
293.831
293.806
293.774
293.745
293.723
293.703
293.678
293.643
295.201
295.185
295.15
295.109
295.069
295.035
295.011
294.998
294.999
295.013
295.042
295.087
295.146
295.219
295.307
295.406
295.514
295.626
295.736
295.839
295.932
296.012
296.079
296.133
296.176
296.211
296.243
296.275
296.311
296.354
296.403
296.458
296.517
296.572
296.618
296.651
296.675
296.711
296.784
296.903
297.045
297.19
297.324
297.457
297.593
297.738
297.878
297.982
298.026
298.025
297.959
297.887
297.769
297.622
297.451
297.277
297.106
296.947
296.814
296.689
296.585
296.496
296.416
296.35
296.291
296.245
296.217
296.194
296.176
296.158
296.136
296.115
296.074
296.021
295.949
295.854
295.742
295.618
295.486
295.354
295.225
295.105
295.001
294.915
294.846
294.794
294.758
294.732
294.714
294.702
294.693
294.681
294.673
294.666
294.66
294.657
294.657
294.662
294.673
294.693
294.719
294.753
294.794
294.84
294.891
294.945
295.002
295.059
295.11
295.157
295.201
295.246
295.291
295.337
295.391
295.448
295.502
295.554
295.602
295.643
295.673
295.69
295.692
295.683
295.654
295.605
295.532
295.44
295.334
295.203
295.052
294.887
294.717
294.545
294.381
294.238
294.12
294.03
293.97
293.93
293.914
293.915
293.928
293.955
294
294.054
294.109
294.154
294.172
294.172
294.163
294.144
294.122
294.119
294.124
294.133
294.145
294.154
294.166
294.189
294.23
294.293
294.382
294.486
294.592
294.699
294.814
294.938
295.067
295.182
295.26
295.34
295.435
295.538
295.663
295.817
295.991
296.151
296.282
296.419
296.562
296.704
296.839
296.965
297.083
297.186
297.268
297.329
297.379
297.439
297.501
297.562
297.64
297.714
297.765
297.821
297.889
297.957
298.016
298.064
298.112
298.153
298.179
298.192
298.203
298.206
298.194
298.174
298.147
298.112
298.068
298.018
297.952
297.864
297.748
297.605
297.436
297.247
297.052
296.909
296.842
296.832
296.857
296.924
297.025
297.151
297.284
297.411
297.519
297.612
297.672
297.695
297.686
297.643
297.563
297.449
297.312
297.161
297.007
296.856
296.719
296.597
296.493
296.402
296.324
296.255
296.194
296.14
296.094
296.056
296.026
296.003
295.986
295.975
295.969
295.97
295.976
295.989
296.009
296.034
296.062
296.092
296.127
296.167
296.209
296.251
296.294
296.34
296.389
296.443
296.498
296.552
296.603
296.648
296.683
296.711
296.728
296.737
296.736
296.728
296.705
296.672
296.626
296.569
296.502
296.435
296.366
296.294
296.216
296.127
296.029
295.923
295.808
295.687
295.56
295.43
295.298
295.165
295.037
294.921
294.805
294.713
294.633
294.564
294.498
294.46
294.441
294.453
294.483
294.528
294.594
294.68
294.803
294.96
295.118
295.266
295.39
295.487
295.56
295.598
295.622
295.63
295.626
295.61
295.585
295.549
295.508
295.464
295.412
295.36
295.306
295.256
295.204
295.154
295.103
295.054
295.004
294.953
294.897
294.844
294.794
294.745
294.698
294.652
294.606
294.561
294.516
294.473
294.431
294.389
294.349
294.31
294.272
294.236
294.203
294.171
294.142
294.116
294.091
294.07
294.051
294.035
294.021
294.009
293.999
293.991
293.984
293.978
293.974
293.971
293.97
293.969
293.97
293.972
293.973
293.975
293.979
293.987
293.989
293.991
293.994
293.999
294.007
294.006
294.014
294.022
294.022
294.026
294.03
294.037
294.033
294.038
294.043
294.05
294.045
294.05
294.055
294.059
294.061
294.062
294.065
294.069
294.075
294.078
294.08
294.086
294.092
294.096
294.1
294.108
294.113
294.116
294.122
294.125
294.138
294.141
294.146
294.15
294.154
294.168
294.172
294.177
294.183
294.19
294.199
294.201
294.214
294.217
294.221
294.227
294.229
294.244
294.247
294.252
294.255
294.261
294.266
294.273
294.276
294.28
294.278
294.292
294.291
294.291
294.293
294.292
294.296
294.294
294.298
294.297
294.297
294.292
294.294
294.289
294.292
294.289
294.281
294.276
294.268
294.267
294.26
294.257
294.248
294.237
294.227
294.223
294.213
294.199
294.188
294.177
294.167
294.154
294.137
294.123
294.107
294.093
294.081
294.063
294.047
294.025
294.013
293.99
293.978
293.95
293.933
293.909
293.891
293.871
293.848
293.829
293.8
293.777
293.753
293.727
293.708
293.682
293.654
293.628
293.602
293.57
295.038
295.023
294.992
294.956
294.924
294.902
294.893
294.899
294.921
294.96
295.016
295.088
295.178
295.282
295.399
295.524
295.653
295.777
295.89
295.987
296.064
296.123
296.165
296.193
296.215
296.235
296.258
296.287
296.326
296.378
296.436
296.497
296.554
296.6
296.631
296.656
296.693
296.771
296.916
297.116
297.328
297.527
297.696
297.839
297.956
298.043
298.094
298.108
298.066
297.989
297.879
297.74
297.581
297.425
297.283
297.158
297.045
296.949
296.866
296.814
296.794
296.786
296.823
296.858
296.928
297.015
297.11
297.201
297.272
297.333
297.386
297.436
297.469
297.485
297.482
297.447
297.379
297.278
297.139
296.961
296.745
296.498
296.228
295.948
295.675
295.425
295.21
295.042
294.918
294.837
294.785
294.755
294.742
294.739
294.741
294.747
294.76
294.777
294.801
294.831
294.868
294.911
294.959
295.011
295.066
295.124
295.187
295.251
295.316
295.382
295.447
295.514
295.583
295.656
295.74
295.828
295.914
295.994
296.066
296.131
296.187
296.233
296.269
296.294
296.309
296.312
296.302
296.273
296.223
296.146
296.039
295.898
295.726
295.522
295.287
295.024
294.744
294.459
294.196
293.977
293.808
293.684
293.595
293.532
293.496
293.486
293.488
293.5
293.517
293.532
293.537
293.539
293.544
293.554
293.569
293.583
293.592
293.597
293.604
293.617
293.646
293.695
293.774
293.874
293.983
294.087
294.193
294.298
294.413
294.537
294.683
294.84
295.015
295.2
295.377
295.55
295.731
295.898
296.039
296.168
296.321
296.507
296.713
296.915
297.103
297.278
297.417
297.521
297.611
297.71
297.814
297.921
298.043
298.149
298.228
298.303
298.375
298.438
298.481
298.502
298.505
298.502
298.492
298.477
298.465
298.456
298.441
298.44
298.444
298.456
298.471
298.478
298.482
298.484
298.475
298.429
298.329
298.166
297.917
297.615
297.306
297.033
296.853
296.782
296.781
296.823
296.917
297.038
297.17
297.295
297.413
297.509
297.578
297.598
297.586
297.535
297.438
297.301
297.135
296.953
296.771
296.604
296.454
296.325
296.215
296.126
296.054
295.993
295.946
295.91
295.886
295.873
295.869
295.873
295.886
295.907
295.935
295.97
296.01
296.055
296.106
296.163
296.223
296.285
296.349
296.414
296.481
296.548
296.618
296.69
296.764
296.835
296.903
296.963
297.011
297.053
297.088
297.116
297.135
297.145
297.145
297.137
297.118
297.086
297.043
296.995
296.942
296.883
296.816
296.737
296.645
296.54
296.421
296.289
296.146
295.991
295.824
295.643
295.452
295.257
295.063
294.888
294.729
294.579
294.434
294.298
294.174
294.075
294
293.945
293.932
293.942
293.987
294.089
294.241
294.429
294.633
294.829
295.008
295.155
295.272
295.356
295.412
295.449
295.462
295.458
295.449
295.428
295.393
295.348
295.299
295.251
295.201
295.147
295.093
295.038
294.987
294.937
294.886
294.834
294.782
294.73
294.677
294.623
294.568
294.513
294.458
294.403
294.348
294.293
294.239
294.185
294.132
294.079
294.028
293.977
293.928
293.882
293.838
293.797
293.76
293.728
293.699
293.675
293.654
293.637
293.624
293.614
293.607
293.604
293.604
293.606
293.61
293.617
293.626
293.636
293.648
293.662
293.675
293.688
293.703
293.721
293.735
293.748
293.766
293.784
293.799
293.815
293.831
293.842
293.855
293.868
293.881
293.893
293.904
293.916
293.926
293.933
293.943
293.954
293.96
293.969
293.977
293.985
293.994
294.001
294.007
294.015
294.025
294.031
294.037
294.046
294.052
294.061
294.066
294.072
294.08
294.086
294.094
294.099
294.104
294.111
294.119
294.128
294.133
294.14
294.145
294.152
294.159
294.165
294.171
294.176
294.179
294.186
294.191
294.194
294.201
294.206
294.21
294.215
294.218
294.22
294.222
294.224
294.225
294.225
294.231
294.231
294.23
294.228
294.227
294.226
294.228
294.225
294.222
294.216
294.213
294.207
294.201
294.2
294.192
294.184
294.175
294.169
294.16
294.151
294.139
294.129
294.12
294.109
294.096
294.08
294.067
294.051
294.039
294.024
294.008
293.99
293.973
293.958
293.939
293.921
293.901
293.879
293.86
293.84
293.822
293.798
293.778
293.753
293.731
293.707
293.683
293.661
293.635
293.609
293.585
293.561
293.537
293.504
294.881
294.869
294.843
294.816
294.797
294.791
294.802
294.832
294.881
294.949
295.035
295.141
295.264
295.4
295.544
295.69
295.827
295.948
296.046
296.117
296.164
296.189
296.2
296.207
296.214
296.224
296.245
296.28
296.327
296.387
296.451
296.512
296.566
296.605
296.633
296.669
296.745
296.895
297.121
297.384
297.634
297.85
298.016
298.132
298.196
298.215
298.202
298.137
298.045
297.929
297.795
297.661
297.532
297.417
297.308
297.224
297.167
297.144
297.158
297.237
297.326
297.442
297.546
297.647
297.743
297.805
297.878
297.943
297.995
298.054
298.116
298.185
298.257
298.333
298.41
298.483
298.549
298.598
298.622
298.61
298.545
298.416
298.221
297.956
297.627
297.252
296.851
296.448
296.072
295.745
295.474
295.267
295.121
295.025
294.964
294.93
294.916
294.915
294.926
294.949
294.98
295.017
295.062
295.112
295.17
295.23
295.297
295.371
295.449
295.53
295.611
295.698
295.788
295.882
295.987
296.099
296.213
296.322
296.421
296.509
296.585
296.649
296.704
296.752
296.795
296.837
296.873
296.89
296.888
296.869
296.825
296.75
296.644
296.501
296.316
296.084
295.805
295.486
295.14
294.786
294.446
294.134
293.86
293.628
293.453
293.329
293.245
293.188
293.151
293.128
293.122
293.123
293.13
293.141
293.157
293.168
293.175
293.18
293.185
293.197
293.22
293.258
293.317
293.39
293.471
293.549
293.629
293.717
293.815
293.941
294.103
294.296
294.501
294.715
294.924
295.118
295.31
295.515
295.718
295.902
296.086
296.295
296.542
296.797
297.031
297.241
297.425
297.603
297.767
297.917
298.054
298.191
298.319
298.422
298.482
298.523
298.533
298.531
298.514
298.476
298.422
298.34
298.24
298.135
298.051
297.98
297.949
297.933
297.946
297.996
298.086
298.199
298.326
298.458
298.576
298.67
298.712
298.712
298.67
298.541
298.3
297.948
297.537
297.15
296.865
296.727
296.702
296.718
296.786
296.895
297.018
297.148
297.272
297.384
297.472
297.512
297.507
297.462
297.352
297.184
296.978
296.76
296.557
296.38
296.235
296.114
296.015
295.936
295.877
295.835
295.809
295.801
295.803
295.817
295.842
295.877
295.919
295.969
296.024
296.086
296.152
296.223
296.296
296.37
296.444
296.518
296.594
296.67
296.747
296.825
296.903
296.978
297.048
297.112
297.165
297.212
297.252
297.284
297.308
297.324
297.334
297.333
297.328
297.317
297.296
297.268
297.233
297.191
297.143
297.086
297.017
296.934
296.836
296.723
296.593
296.448
296.286
296.107
295.912
295.708
295.5
295.305
295.117
294.93
294.732
294.525
294.309
294.102
293.913
293.75
293.619
293.516
293.462
293.462
293.49
293.577
293.731
293.936
294.168
294.398
294.605
294.782
294.93
295.054
295.156
295.236
295.295
295.318
295.316
295.3
295.272
295.243
295.205
295.165
295.124
295.079
295.04
295.001
294.962
294.924
294.885
294.843
294.797
294.748
294.695
294.638
294.578
294.517
294.454
294.389
294.323
294.255
294.185
294.114
294.041
293.968
293.894
293.821
293.749
293.679
293.612
293.549
293.488
293.431
293.379
293.332
293.291
293.256
293.228
293.206
293.19
293.18
293.177
293.179
293.183
293.19
293.203
293.22
293.239
293.261
293.285
293.31
293.334
293.361
293.391
293.425
293.454
293.485
293.514
293.543
293.57
293.598
293.625
293.653
293.677
293.701
293.725
293.745
293.766
293.786
293.804
293.822
293.84
293.856
293.871
293.887
293.901
293.916
293.929
293.941
293.953
293.963
293.973
293.983
293.993
294.002
294.01
294.018
294.026
294.035
294.041
294.049
294.056
294.063
294.07
294.077
294.083
294.09
294.095
294.102
294.107
294.114
294.119
294.125
294.13
294.134
294.139
294.144
294.147
294.152
294.154
294.158
294.16
294.161
294.164
294.163
294.166
294.165
294.166
294.165
294.165
294.162
294.162
294.159
294.158
294.152
294.148
294.144
294.137
294.133
294.125
294.12
294.111
294.103
294.093
294.085
294.075
294.063
294.053
294.041
294.029
294.013
294
293.986
293.971
293.955
293.94
293.923
293.906
293.888
293.871
293.852
293.833
293.812
293.794
293.772
293.752
293.731
293.709
293.686
293.663
293.64
293.617
293.593
293.57
293.546
293.52
293.496
293.471
293.439
294.741
294.732
294.715
294.701
294.698
294.714
294.751
294.809
294.888
294.989
295.111
295.252
295.409
295.572
295.735
295.885
296.012
296.11
296.174
296.205
296.212
296.203
296.188
296.176
296.174
296.183
296.211
296.256
296.316
296.386
296.453
296.513
296.562
296.599
296.631
296.692
296.821
297.043
297.339
297.643
297.903
298.108
298.243
298.314
298.333
298.312
298.242
298.144
298.034
297.914
297.791
297.675
297.573
297.498
297.454
297.439
297.463
297.526
297.626
297.722
297.812
297.853
297.889
297.911
297.925
297.945
297.943
297.938
297.947
297.979
298.046
298.119
298.215
298.335
298.468
298.61
298.759
298.906
299.045
299.173
299.296
299.4
299.451
299.436
299.338
299.15
298.887
298.546
298.141
297.695
297.23
296.779
296.372
296.027
295.753
295.544
295.389
295.28
295.214
295.182
295.177
295.187
295.214
295.258
295.31
295.376
295.456
295.54
295.632
295.728
295.823
295.923
296.03
296.144
296.27
296.405
296.545
296.681
296.808
296.919
297.014
297.093
297.158
297.213
297.265
297.315
297.365
297.405
297.425
297.424
297.414
297.386
297.336
297.259
297.147
296.997
296.796
296.541
296.229
295.866
295.466
295.053
294.646
294.261
293.913
293.612
293.371
293.192
293.07
292.988
292.934
292.903
292.895
292.895
292.899
292.904
292.909
292.915
292.922
292.932
292.951
292.978
293.017
293.06
293.108
293.158
293.216
293.282
293.363
293.466
293.594
293.752
293.923
294.11
294.319
294.546
294.795
295.07
295.354
295.61
295.828
296.035
296.275
296.543
296.81
297.063
297.304
297.534
297.745
297.94
298.119