/*--------------------------------*- C++ -*----------------------------------*\
| =========                 |                                                 |
| \\      /  F ield         | OpenFOAM: The Open Source CFD Toolbox           |
|  \\    /   O peration     | Version:  v1812                                 |
|   \\  /    A nd           | Web:      www.OpenFOAM.com                      |
|    \\/     M anipulation  |                                                 |
\*---------------------------------------------------------------------------*/
FoamFile
{
    version     2.0;
    format      ascii;
    class       volVectorField;
    location    "1";
    object      U;
}
// * * * * * * * * * * * * * * * * * * * * * * * * * * * * * * * * * * * * * //

dimensions      [0 1 -1 0 0 0 0];


internalField   nonuniform List<vector> 
20400
(
(-0.0111635 -0.00526328 0)
(-0.00627113 -0.026183 0)
(0.0184081 -0.0269998 0)
(0.0469304 -0.0156409 0)
(0.0750128 -0.00710203 0)
(0.0981434 0.000685079 0)
(0.115541 0.00491287 0)
(0.129776 0.00606606 0)
(0.142682 0.00626162 0)
(0.154706 0.00571939 0)
(0.164985 0.00652627 0)
(0.171879 0.00742211 0)
(0.177089 0.00605678 0)
(0.183456 0.00343518 0)
(0.191852 -0.000121677 0)
(0.203665 -0.00552664 0)
(0.222353 -0.011405 0)
(0.247343 -0.0152065 0)
(0.278511 -0.019154 0)
(0.316833 -0.0218652 0)
(0.361562 -0.0234984 0)
(0.413356 -0.0252281 0)
(0.474055 -0.0277101 0)
(0.545461 -0.0301717 0)
(0.626264 -0.0311004 0)
(0.714904 -0.0324054 0)
(0.814663 -0.0337884 0)
(0.924502 -0.0312011 0)
(1.04542 -0.0287248 0)
(1.17378 -0.0238981 0)
(1.30735 -0.0183742 0)
(1.44098 -0.00410171 0)
(1.57368 0.0125761 0)
(1.70873 0.025363 0)
(1.84437 0.0305066 0)
(1.9802 0.0408932 0)
(2.1079 0.0557656 0)
(2.22864 0.061881 0)
(2.34248 0.059262 0)
(2.45078 0.0287175 0)
(2.54991 0.0093522 0)
(2.6195 -0.0307508 0)
(2.62125 -0.118427 0)
(2.59196 -0.372007 0)
(2.57415 0.0615158 0)
(2.40734 0.135659 0)
(2.24235 0.126715 0)
(2.09753 0.109354 0)
(1.9617 0.107775 0)
(1.81002 0.144712 0)
(1.60075 0.228158 0)
(1.28763 0.349145 0)
(0.847913 0.478105 0)
(0.284331 0.577483 0)
(-0.36476 0.456297 0)
(-1.00371 0.236555 0)
(-1.63633 0.161039 0)
(-2.27409 0.214588 0)
(-2.92893 0.295452 0)
(-3.61014 0.367706 0)
(-4.32986 0.386629 0)
(-5.0549 0.331541 0)
(-5.75359 0.246121 0)
(-6.4195 0.145353 0)
(-7.03014 0.0620214 0)
(-7.60216 0.0404598 0)
(-8.09332 0.115396 0)
(-8.48653 0.146501 0)
(-8.78247 0.132139 0)
(-8.97653 0.0733705 0)
(-9.0818 0.0208098 0)
(-9.11506 -0.0192576 0)
(-9.08279 -0.0800121 0)
(-8.96441 -0.1486 0)
(-8.74575 -0.193984 0)
(-8.4564 -0.221539 0)
(-8.10581 -0.231535 0)
(-7.69946 -0.231181 0)
(-7.245 -0.22849 0)
(-6.75142 -0.237139 0)
(-6.23215 -0.263811 0)
(-5.70073 -0.302925 0)
(-5.1693 -0.339055 0)
(-4.64916 -0.36503 0)
(-4.15054 -0.377458 0)
(-3.68466 -0.371751 0)
(-3.26381 -0.347372 0)
(-2.89707 -0.312528 0)
(-2.58654 -0.284813 0)
(-2.29992 -0.285422 0)
(-1.98453 -0.288777 0)
(-1.68396 -0.26109 0)
(-1.42728 -0.227846 0)
(-1.21861 -0.183213 0)
(-1.0659 -0.129897 0)
(-0.974085 -0.0762002 0)
(-0.93891 -0.0308046 0)
(-0.955439 -0.00273516 0)
(-1.01461 0.0381638 0)
(-1.11973 0.0673449 0)
(-1.25443 0.0774596 0)
(-1.40098 0.0709222 0)
(-1.54293 0.051782 0)
(-1.66074 0.0311593 0)
(-1.74701 0.0302666 0)
(-1.80087 0.0313264 0)
(-1.81776 0.0901779 0)
(-1.80211 0.23227 0)
(-1.78362 0.297096 0)
(-1.75286 0.195371 0)
(-1.64912 0.0943109 0)
(-1.5175 0.0494286 0)
(-1.39296 0.0667443 0)
(-1.33465 -0.0788674 0)
(-1.21053 -0.138033 0)
(-1.03939 -0.192709 0)
(-0.814814 -0.240939 0)
(-0.552783 -0.266718 0)
(-0.269262 -0.280029 0)
(0.023437 -0.233263 0)
(0.313994 -0.13372 0)
(0.625776 -0.0619767 0)
(0.957901 -0.00285733 0)
(1.30911 0.0558349 0)
(1.67486 0.11901 0)
(2.05081 0.18635 0)
(2.42932 0.257955 0)
(2.79948 0.330594 0)
(3.10847 0.447361 0)
(3.38527 0.198058 0)
(3.59534 -0.208076 0)
(3.85591 -0.387715 0)
(4.05162 -0.435342 0)
(4.19016 -0.424489 0)
(4.27815 -0.38247 0)
(4.31976 -0.325744 0)
(4.33123 -0.274881 0)
(4.32727 -0.247597 0)
(4.34903 -0.229855 0)
(4.41212 -0.199765 0)
(4.52608 -0.117382 0)
(4.61025 0.0255769 0)
(4.67195 0.122718 0)
(4.69979 0.180143 0)
(4.69776 0.182926 0)
(4.68155 0.1481 0)
(4.64965 0.116928 0)
(4.61228 0.100729 0)
(4.58672 0.0899799 0)
(4.57409 0.100544 0)
(4.58025 0.120443 0)
(4.59088 0.146716 0)
(4.60626 0.134752 0)
(4.63665 0.106908 0)
(4.66448 0.044536 0)
(4.66752 -0.0270264 0)
(4.63569 -0.0157049 0)
(4.56971 0.0172169 0)
(4.48011 0.040854 0)
(4.38792 0.0576048 0)
(4.30189 0.0811251 0)
(4.2128 0.0891963 0)
(4.12105 0.0494201 0)
(4.03814 -0.0329343 0)
(3.95124 -0.137003 0)
(3.86274 -0.243871 0)
(3.74409 -0.25701 0)
(3.63608 -0.21207 0)
(3.52784 -0.125408 0)
(3.44812 0.017005 0)
(3.34255 0.0944519 0)
(3.33288 0.222288 0)
(3.34239 0.14727 0)
(3.35309 0.0478225 0)
(3.39377 -0.00695698 0)
(3.43512 -0.034138 0)
(3.43676 -0.0739929 0)
(3.46168 -0.0818994 0)
(3.49167 -0.0148046 0)
(3.45886 0.0309762 0)
(3.43786 0.0624783 0)
(3.46633 0.0663411 0)
(3.51571 0.0971101 0)
(3.52846 0.132601 0)
(3.47777 0.125119 0)
(3.40411 -0.149614 0)
(3.3603 -0.750126 0)
(3.27232 -0.634985 0)
(3.13285 -0.320664 0)
(2.79366 -0.124 0)
(2.38535 -0.017202 0)
(1.9453 0.0519848 0)
(1.53894 0.0908112 0)
(1.19241 0.219639 0)
(0.843863 0.341654 0)
(0.46191 0.357406 0)
(0.0864817 0.256754 0)
(-0.302641 0.17344 0)
(-0.708878 0.128911 0)
(-1.10387 0.0828763 0)
(-1.4599 0.0344717 0)
(-1.7768 0.00967866 0)
(-2.04722 0.00971035 0)
(-2.26493 0.0184677 0)
(-2.39856 0.0596114 0)
(-2.46615 0.0789236 0)
(-2.46698 0.156701 0)
(-2.40971 0.239878 0)
(-2.30279 0.27127 0)
(-2.17836 0.224752 0)
(-2.0371 0.134397 0)
(-1.84174 0.047427 0)
(-1.60426 -0.0242975 0)
(-1.33426 -0.0947936 0)
(-1.02323 -0.150598 0)
(-0.675787 -0.17469 0)
(-0.328401 -0.167746 0)
(-0.0400521 -0.109685 0)
(0.113646 -0.0124588 0)
(0.249696 -0.0490801 0)
(0.440481 -0.135176 0)
(0.694355 -0.188229 0)
(0.956103 -0.192485 0)
(1.1759 -0.160166 0)
(1.33504 -0.12662 0)
(1.4741 -0.112403 0)
(1.61187 -0.0493376 0)
(1.67718 0.059801 0)
(1.74413 -0.00047861 0)
(1.83655 -0.114756 0)
(1.97379 -0.134035 0)
(2.08449 -0.0910394 0)
(2.11869 0.00669431 0)
(2.13728 -0.0776376 0)
(2.20897 -0.104411 0)
(2.29206 -0.09828 0)
(2.36978 -0.0930893 0)
(2.43429 -0.0404321 0)
(2.50339 -0.0470484 0)
(2.53537 -0.0173575 0)
(2.53588 0.0190653 0)
(2.549 0.0222741 0)
(2.57347 0.0280014 0)
(2.59859 0.0462743 0)
(2.61238 0.0658514 0)
(2.61707 0.0765101 0)
(2.62027 0.0751648 0)
(2.6182 0.0724835 0)
(2.59716 0.0743275 0)
(2.5488 0.0836779 0)
(2.47232 0.0917923 0)
(2.37438 0.0929136 0)
(2.25934 0.0921247 0)
(2.13002 0.0910757 0)
(1.99201 0.0799783 0)
(1.86292 0.0377379 0)
(1.75772 -0.0344502 0)
(1.67626 -0.131795 0)
(1.6026 -0.221415 0)
(1.51884 -0.233628 0)
(1.45805 -0.147477 0)
(1.37815 -0.0514524 0)
(1.27711 -0.00239741 0)
(1.16938 0.00506992 0)
(1.05773 0.0114537 0)
(0.947078 0.0107349 0)
(0.862646 -0.0175565 0)
(0.822113 -0.0498422 0)
(0.813168 -0.0608322 0)
(0.829607 -0.0782754 0)
(0.864097 -0.112905 0)
(0.888686 -0.139787 0)
(0.915489 0.150322 0)
(0.990502 0.12746 0)
(1.09678 0.153456 0)
(1.20715 0.184818 0)
(1.33664 0.197926 0)
(1.50071 0.196323 0)
(1.70693 0.189874 0)
(1.94353 0.219123 0)
(2.14355 0.344354 0)
(2.22977 0.49312 0)
(2.32626 0.25403 0)
(2.38695 -0.164593 0)
(2.58941 -0.303159 0)
(2.77598 -0.336821 0)
(2.94943 -0.357293 0)
(3.11467 -0.390329 0)
(3.27241 -0.441163 0)
(3.43163 -0.477037 0)
(3.5926 -0.494986 0)
(3.75272 -0.518317 0)
(3.9081 -0.548776 0)
(4.05651 -0.578239 0)
(4.20336 -0.582416 0)
(4.35195 -0.511227 0)
(4.47418 -0.346203 0)
(4.65761 -0.279089 0)
(4.8543 -0.277102 0)
(4.98643 -0.374424 0)
(5.05624 0.371465 0)
(5.21016 0.710197 0)
(5.39386 0.842099 0)
(5.50053 0.964936 0)
(5.71455 0.622745 0)
(5.83467 -0.292754 0)
(5.88659 -0.651873 0)
(5.87376 -0.475421 0)
(5.90625 0.256097 0)
(6.05572 0.675807 0)
(6.15728 0.860399 0)
(6.3687 0.795776 0)
(6.42401 -0.404287 0)
(6.44503 -0.951824 0)
(6.43012 -0.994087 0)
(6.4292 -0.972537 0)
(6.44704 -0.825589 0)
(6.48001 -0.566542 0)
(6.49181 -0.354055 0)
(6.55072 -0.15373 0)
(6.55592 0.239667 0)
(6.58892 0.418107 0)
(6.60739 0.398673 0)
(6.59392 0.390796 0)
(6.56951 0.576661 0)
(6.59407 0.683966 0)
(6.59862 0.777934 0)
(6.63639 0.837912 0)
(6.65797 0.883465 0)
(6.68965 0.863689 0)
(6.76064 0.820025 0)
(6.88012 0.804035 0)
(6.98857 0.806257 0)
(7.00777 -0.323021 0)
(6.70791 -0.638157 0)
(6.54469 -0.719696 0)
(6.5284 -0.844987 0)
(6.49572 -0.856851 0)
(6.46705 -0.839297 0)
(6.44285 -0.833499 0)
(6.436 -0.81772 0)
(6.4474 -0.805718 0)
(6.47657 -0.796848 0)
(6.51949 -0.790564 0)
(6.57073 -0.787549 0)
(6.62582 -0.787773 0)
(6.68196 -0.790791 0)
(6.73736 -0.795951 0)
(6.79111 -0.803006 0)
(6.84314 -0.810972 0)
(6.89445 -0.813011 0)
(6.94337 -0.823081 0)
(6.9947 -0.819523 0)
(7.04599 -0.816649 0)
(7.09784 -0.809675 0)
(7.15011 -0.802628 0)
(7.20286 -0.795384 0)
(7.25591 -0.78774 0)
(7.30902 -0.779671 0)
(7.36231 -0.77147 0)
(7.41605 -0.763362 0)
(7.4701 -0.755241 0)
(7.52388 -0.74703 0)
(7.57698 -0.738398 0)
(7.62633 -0.720373 0)
(7.67643 -0.717642 0)
(7.72363 -0.708586 0)
(7.76965 -0.701266 0)
(7.81463 -0.694113 0)
(7.85899 -0.686133 0)
(7.90301 -0.674627 0)
(7.94625 -0.654549 0)
(7.98492 -0.620839 0)
(8.01809 -0.570847 0)
(8.0258 -0.517577 0)
(8.04117 -0.47463 0)
(8.05439 -0.548225 0)
(8.08873 -0.554038 0)
(8.11433 -0.403362 0)
(8.16166 -0.298165 0)
(8.26301 -0.269112 0)
(8.30219 0.101112 0)
(8.34872 0.439168 0)
(8.40324 0.460765 0)
(8.42419 -0.150281 0)
(8.39246 -0.379893 0)
(8.3801 -0.0447345 0)
(8.40012 0.532592 0)
(8.43572 0.229182 0)
(8.42848 -0.320583 0)
(8.41922 0.129532 0)
(8.46398 0.536468 0)
(8.48779 -0.00342123 0)
(8.44275 -0.395014 0)
(8.43714 0.183868 0)
(8.50036 0.57327 0)
(8.54006 -0.103701 0)
(8.45241 -0.471979 0)
(8.38318 -0.400964 0)
(8.39546 0.116168 0)
(8.43602 0.549081 0)
(8.46514 0.0663236 0)
(8.4613 -0.478821 0)
(8.4318 -0.285673 0)
(8.43622 0.00708628 0)
(8.44921 -0.312606 0)
(8.40295 -0.443089 0)
(8.34501 -0.35485 0)
(8.35901 -0.0113502 0)
(8.36537 -0.14348 0)
(8.34173 -0.271867 0)
(8.32072 0.0507707 0)
(8.34839 0.470433 0)
(8.38127 0.350207 0)
(8.3875 -0.217586 0)
(8.33296 -0.408593 0)
(8.26652 -0.107136 0)
(8.28835 0.395092 0)
(8.32875 0.362284 0)
(8.33532 -0.141261 0)
(8.26751 -0.385139 0)
(8.18302 -0.268378 0)
(8.14872 -0.0807515 0)
(8.17765 0.209385 0)
(8.22925 0.421348 0)
(8.2451 0.260106 0)
(8.2486 -0.324946 0)
(8.17295 -0.410404 0)
(8.08802 -0.0433501 0)
(8.1103 0.375843 0)
(8.14141 0.349273 0)
(8.13151 -0.195781 0)
(8.08381 -0.429987 0)
(8.04861 -0.327446 0)
(7.95604 -0.199436 0)
(7.8301 -0.114046 0)
(7.82169 0.0908214 0)
(7.92181 0.176416 0)
(7.98331 0.300134 0)
(7.9947 0.483632 0)
(7.98533 0.468339 0)
(7.97482 -0.157399 0)
(7.91109 -0.382209 0)
(7.85559 -0.305047 0)
(7.73408 -0.205483 0)
(7.69057 -0.0109868 0)
(7.7357 0.177733 0)
(7.77696 0.244688 0)
(7.77869 0.0192727 0)
(7.73394 -0.338738 0)
(7.68216 -0.216475 0)
(7.65846 0.0590495 0)
(7.67511 0.240763 0)
(7.70781 0.314625 0)
(7.68049 -0.0183304 0)
(7.66432 -0.284742 0)
(7.60498 -0.306354 0)
(7.51552 -0.210418 0)
(7.46258 -0.0261496 0)
(7.48606 0.152573 0)
(7.51454 0.215513 0)
(7.52746 -0.0914048 0)
(7.48688 -0.253544 0)
(7.44842 -0.00170296 0)
(7.4387 0.232048 0)
(7.44343 0.00570471 0)
(7.41294 -0.223458 0)
(7.37803 -0.00960984 0)
(7.38673 0.204382 0)
(7.4095 0.269667 0)
(7.3749 0.062899 0)
(7.37527 -0.217994 0)
(7.32155 -0.277416 0)
(7.26081 -0.1388 0)
(7.26035 0.122295 0)
(7.27807 0.221782 0)
(7.29939 0.0216643 0)
(7.2686 -0.248103 0)
(7.24858 -0.095248 0)
(7.22638 0.15882 0)
(7.25452 0.23878 0)
(7.28001 0.138725 0)
(7.26828 -0.138085 0)
(7.213 -0.250865 0)
(7.1534 -0.188899 0)
(7.14941 -0.0354606 0)
(7.18835 0.118393 0)
(7.23262 0.219219 0)
(7.23826 0.0796176 0)
(7.23712 -0.171284 0)
(7.20377 -0.241763 0)
(7.16089 -0.0943281 0)
(7.19031 0.192161 0)
(7.23477 0.168069 0)
(7.25063 -0.0636794 0)
(7.24712 -0.215979 0)
(7.2301 -0.105046 0)
(7.25623 0.184484 0)
(7.28608 0.144371 0)
(7.33646 0.0983697 0)
(0.025166 -0.0331299 0)
(0.0665499 -0.0506836 0)
(0.0954811 -0.0683166 0)
(0.132843 -0.0720369 0)
(0.175492 -0.0711373 0)
(0.223065 -0.0643 0)
(0.267859 -0.0588255 0)
(0.309001 -0.0575486 0)
(0.346404 -0.0565053 0)
(0.381469 -0.0557062 0)
(0.414626 -0.0524945 0)
(0.445833 -0.0491795 0)
(0.476611 -0.0503726 0)
(0.507875 -0.0538755 0)
(0.542187 -0.0558189 0)
(0.582344 -0.0630483 0)
(0.628663 -0.0722262 0)
(0.680987 -0.0794977 0)
(0.738509 -0.0888009 0)
(0.803972 -0.0971601 0)
(0.87979 -0.105891 0)
(0.968341 -0.11681 0)
(1.07097 -0.130614 0)
(1.18791 -0.144724 0)
(1.31755 -0.154579 0)
(1.45681 -0.165668 0)
(1.60459 -0.183121 0)
(1.7572 -0.196032 0)
(1.90693 -0.207375 0)
(2.05736 -0.208288 0)
(2.20921 -0.212963 0)
(2.36148 -0.223226 0)
(2.48187 -0.230607 0)
(2.58255 -0.215128 0)
(2.67784 -0.210817 0)
(2.77297 -0.206578 0)
(2.85041 -0.201392 0)
(2.92382 -0.187805 0)
(2.99805 -0.172011 0)
(3.05182 -0.163487 0)
(3.07014 -0.124112 0)
(3.06419 -0.072823 0)
(3.04241 -0.00123344 0)
(2.85612 0.11934 0)
(2.54877 0.243004 0)
(2.19628 0.331648 0)
(1.7664 0.321046 0)
(1.29294 0.299268 0)
(0.779 0.301225 0)
(0.221985 0.35253 0)
(-0.391706 0.460402 0)
(-1.07434 0.61774 0)
(-1.83686 0.794705 0)
(-2.7033 0.965059 0)
(-3.7376 1.25479 0)
(-5.02547 1.31846 0)
(-6.42274 1.23637 0)
(-7.84864 1.11522 0)
(-9.22454 0.995927 0)
(-10.5113 0.961258 0)
(-11.6822 0.961106 0)
(-12.6898 0.950351 0)
(-13.5171 0.92727 0)
(-14.1902 0.904665 0)
(-14.731 0.834423 0)
(-15.194 0.771054 0)
(-15.5674 0.57051 0)
(-15.8687 0.404829 0)
(-16.0607 0.260619 0)
(-16.1454 0.153022 0)
(-16.1004 0.0562937 0)
(-15.9101 -0.0104563 0)
(-15.5838 -0.0639071 0)
(-15.1564 -0.183038 0)
(-14.6269 -0.280596 0)
(-14.0288 -0.350074 0)
(-13.378 -0.421428 0)
(-12.6825 -0.488894 0)
(-11.9561 -0.549641 0)
(-11.2128 -0.593221 0)
(-10.4664 -0.612573 0)
(-9.72839 -0.610359 0)
(-9.00821 -0.591453 0)
(-8.31231 -0.561315 0)
(-7.64493 -0.520559 0)
(-7.00988 -0.468844 0)
(-6.41134 -0.406526 0)
(-5.85318 -0.337005 0)
(-5.34166 -0.276026 0)
(-4.87577 -0.284321 0)
(-4.46341 -0.330896 0)
(-4.11217 -0.277183 0)
(-3.80786 -0.222441 0)
(-3.54057 -0.161636 0)
(-3.31539 -0.0917077 0)
(-3.13373 -0.0219814 0)
(-2.99386 0.03974 0)
(-2.89279 0.0852001 0)
(-2.83775 0.138461 0)
(-2.8014 0.177907 0)
(-2.77052 0.198152 0)
(-2.73994 0.198635 0)
(-2.70416 0.176721 0)
(-2.65746 0.134648 0)
(-2.58561 0.0911272 0)
(-2.50888 0.0335753 0)
(-2.40902 -0.00509697 0)
(-2.27645 -0.0650233 0)
(-2.09099 -0.091803 0)
(-1.91051 -0.167865 0)
(-1.73553 -0.210447 0)
(-1.58 -0.190778 0)
(-1.43771 -0.137551 0)
(-1.23126 -0.294926 0)
(-0.87013 -0.414699 0)
(-0.43904 -0.45075 0)
(0.0280406 -0.484108 0)
(0.523368 -0.506086 0)
(1.04549 -0.535641 0)
(1.62056 -0.62978 0)
(2.27932 -0.729627 0)
(2.9912 -0.795002 0)
(3.71798 -0.840889 0)
(4.44001 -0.878855 0)
(5.14517 -0.914552 0)
(5.82827 -0.94646 0)
(6.48645 -0.969336 0)
(7.12473 -0.955037 0)
(7.73215 -0.799014 0)
(8.31864 -0.642564 0)
(8.74843 -0.290001 0)
(9.16885 -0.0993887 0)
(9.52854 0.0306781 0)
(9.85774 0.11489 0)
(10.1628 0.170359 0)
(10.4581 0.197502 0)
(10.7657 0.204598 0)
(11.106 0.189848 0)
(11.4568 0.131872 0)
(11.7337 0.0135524 0)
(11.8545 -0.10623 0)
(11.8473 -0.156742 0)
(11.7747 -0.171281 0)
(11.6866 -0.150834 0)
(11.616 -0.131901 0)
(11.5939 -0.0744322 0)
(11.6225 -0.0302254 0)
(11.6734 -0.0239267 0)
(11.7243 -0.0485298 0)
(11.7743 -0.082868 0)
(11.8182 -0.123866 0)
(11.8702 -0.142556 0)
(11.9084 -0.165637 0)
(11.9441 -0.158619 0)
(11.9661 -0.0959778 0)
(11.9728 0.021769 0)
(11.9649 0.0932954 0)
(11.9299 0.124603 0)
(11.8499 0.121788 0)
(11.7151 0.101032 0)
(11.5226 0.0706535 0)
(11.2676 0.0651459 0)
(10.968 0.0927993 0)
(10.6623 0.16023 0)
(10.3618 0.262327 0)
(10.0524 0.369281 0)
(9.75602 0.411031 0)
(9.50988 0.356599 0)
(9.28863 0.287359 0)
(9.0612 0.145792 0)
(8.71403 -0.00295746 0)
(8.3713 -0.20508 0)
(8.12425 -0.173081 0)
(8.0438 -0.113193 0)
(8.05328 -0.0979288 0)
(8.07751 -0.0376573 0)
(8.06351 0.00803009 0)
(8.07219 -0.0128064 0)
(8.10145 -0.02082 0)
(8.03347 0.0113959 0)
(7.80378 -0.0678632 0)
(7.4017 -0.148142 0)
(6.92388 -0.125208 0)
(6.45968 -0.0814455 0)
(6.01461 0.0107107 0)
(5.50864 0.113638 0)
(4.80696 0.364771 0)
(4.05361 0.538287 0)
(3.47169 0.60769 0)
(3.02044 0.694594 0)
(2.56506 0.765799 0)
(2.07133 0.763342 0)
(1.59629 0.656842 0)
(1.14816 0.589232 0)
(0.707494 0.575236 0)
(0.226022 0.600518 0)
(-0.344132 0.618915 0)
(-0.945086 0.602293 0)
(-1.4807 0.553569 0)
(-1.91366 0.481761 0)
(-2.26 0.411393 0)
(-2.5489 0.3521 0)
(-2.76567 0.277534 0)
(-2.91655 0.193951 0)
(-2.9972 0.0877188 0)
(-2.98106 0.0111543 0)
(-2.96086 -0.0581516 0)
(-2.8673 -0.143803 0)
(-2.67766 -0.23299 0)
(-2.4334 -0.276552 0)
(-2.1916 -0.328944 0)
(-1.94348 -0.397708 0)
(-1.66824 -0.456757 0)
(-1.3638 -0.521454 0)
(-1.02762 -0.589758 0)
(-0.664861 -0.634622 0)
(-0.270154 -0.650906 0)
(0.19695 -0.603478 0)
(0.690992 -0.434144 0)
(1.19937 -0.382796 0)
(1.68635 -0.368814 0)
(2.15206 -0.353047 0)
(2.59152 -0.291047 0)
(2.99008 -0.194502 0)
(3.3365 -0.138068 0)
(3.59754 -0.139355 0)
(3.75268 -0.149555 0)
(3.80824 -0.0820888 0)
(3.82547 -0.135373 0)
(3.87276 -0.106648 0)
(3.97832 -0.103267 0)
(4.09054 -0.0425409 0)
(4.21278 -0.00334138 0)
(4.34006 0.00329533 0)
(4.46808 -0.0434546 0)
(4.59787 -0.044668 0)
(4.7078 -0.0261139 0)
(4.75114 -0.0628872 0)
(4.76944 -0.00710943 0)
(4.82779 0.0187756 0)
(4.84497 0.0216642 0)
(4.82002 -0.00123294 0)
(4.74959 -0.0139957 0)
(4.64912 -0.0111366 0)
(4.52861 0.000824542 0)
(4.39489 0.00719504 0)
(4.25732 0.0102209 0)
(4.12053 0.0260482 0)
(3.98806 0.0606873 0)
(3.85788 0.0983069 0)
(3.7246 0.127877 0)
(3.58555 0.151867 0)
(3.43768 0.173391 0)
(3.27847 0.191112 0)
(3.10573 0.196551 0)
(2.92034 0.182927 0)
(2.72167 0.170987 0)
(2.49581 0.190058 0)
(2.22531 0.228369 0)
(1.92832 0.242415 0)
(1.65992 0.2537 0)
(1.46006 0.237004 0)
(1.32204 0.225537 0)
(1.22317 0.21647 0)
(1.16071 0.196789 0)
(1.14113 0.169963 0)
(1.155 0.13424 0)
(1.14486 0.0953482 0)
(1.14098 0.0694083 0)
(1.14426 0.041093 0)
(1.12446 0.0465326 0)
(1.09007 0.102052 0)
(1.08153 -0.0263837 0)
(1.17048 -0.119323 0)
(1.29027 -0.153867 0)
(1.44737 -0.181878 0)
(1.62637 -0.228869 0)
(1.821 -0.286779 0)
(2.03008 -0.342265 0)
(2.27137 -0.363501 0)
(2.58698 -0.315294 0)
(3.02625 -0.194269 0)
(3.53022 -0.13119 0)
(3.91184 -0.0583686 0)
(4.21795 -0.0636703 0)
(4.51474 -0.044688 0)
(4.8183 -0.0243962 0)
(5.12456 -0.00266097 0)
(5.42406 0.0233172 0)
(5.71318 0.0422394 0)
(5.9929 0.0491855 0)
(6.26256 0.0630885 0)
(6.52051 0.0863883 0)
(6.76589 0.109708 0)
(7.0052 0.122215 0)
(7.263 0.0904019 0)
(7.57574 -0.00896584 0)
(7.97096 -0.0890753 0)
(8.39715 -0.0738107 0)
(8.65725 0.150772 0)
(8.78967 -0.307535 0)
(8.93493 -0.500597 0)
(9.13886 -0.543507 0)
(9.35239 -0.481446 0)
(9.54615 -0.527554 0)
(9.69129 0.0397337 0)
(9.94188 0.353719 0)
(10.2404 0.276291 0)
(10.3531 -0.209381 0)
(10.3453 -0.397569 0)
(10.407 -0.411417 0)
(10.4841 -0.518775 0)
(10.5662 0.171267 0)
(10.6185 0.480662 0)
(10.6133 0.491766 0)
(10.6072 0.479156 0)
(10.6426 0.386037 0)
(10.7833 0.26403 0)
(11.0092 0.179714 0)
(11.2172 0.087493 0)
(11.2352 -0.0687399 0)
(11.1029 -0.120091 0)
(10.9811 -0.114571 0)
(10.9507 -0.0386834 0)
(10.9393 -0.156168 0)
(10.8281 -0.207481 0)
(10.6942 -0.257579 0)
(10.5695 -0.284688 0)
(10.4667 -0.270659 0)
(10.3632 -0.301181 0)
(10.2404 -0.337902 0)
(10.0935 -0.363327 0)
(9.91744 -0.242092 0)
(9.90291 0.441276 0)
(9.9981 0.523085 0)
(10.025 0.390005 0)
(9.98971 0.381699 0)
(9.95498 0.401244 0)
(9.92377 0.394697 0)
(9.91442 0.372287 0)
(9.93731 0.348654 0)
(9.99404 0.322051 0)
(10.076 0.295038 0)
(10.1727 0.278105 0)
(10.2746 0.269595 0)
(10.3773 0.267078 0)
(10.4791 0.268637 0)
(10.5791 0.273224 0)
(10.6776 0.279302 0)
(10.7753 0.284527 0)
(10.8748 0.287403 0)
(10.9779 0.294108 0)
(11.0832 0.290258 0)
(11.1902 0.288538 0)
(11.2974 0.285262 0)
(11.4049 0.282165 0)
(11.5129 0.279134 0)
(11.6218 0.276269 0)
(11.7315 0.273341 0)
(11.8418 0.269955 0)
(11.9522 0.266361 0)
(12.062 0.263395 0)
(12.1701 0.261107 0)
(12.2756 0.260627 0)
(12.3784 0.257134 0)
(12.4784 0.257155 0)
(12.5757 0.256307 0)
(12.6708 0.254764 0)
(12.7639 0.252738 0)
(12.8558 0.250038 0)
(12.9486 0.246066 0)
(13.0471 0.240892 0)
(13.156 0.233783 0)
(13.283 0.231089 0)
(13.4013 0.228053 0)
(13.4492 0.200698 0)
(13.4482 0.223628 0)
(13.5174 0.224351 0)
(13.6974 0.154443 0)
(13.9381 0.0846334 0)
(14.1948 0.0798445 0)
(14.3013 -0.0800703 0)
(14.1827 -0.167589 0)
(14.0059 -0.150722 0)
(13.9655 0.126708 0)
(14.0939 0.201888 0)
(14.2638 0.0713235 0)
(14.2101 -0.172451 0)
(14.1314 -0.0691659 0)
(14.1838 0.178263 0)
(14.2712 -0.0385877 0)
(14.1846 -0.194846 0)
(14.151 0.0800716 0)
(14.2538 0.212412 0)
(14.3027 -0.0941881 0)
(14.1875 -0.221714 0)
(14.1397 0.139649 0)
(14.2688 0.257008 0)
(14.4719 0.260725 0)
(14.57 -0.0630788 0)
(14.4409 -0.2088 0)
(14.3266 -0.0270722 0)
(14.3775 0.21679 0)
(14.4527 0.186042 0)
(14.4543 -0.00504905 0)
(14.4212 0.186957 0)
(14.5065 0.228715 0)
(14.6584 0.214676 0)
(14.697 0.0169904 0)
(14.6873 0.102304 0)
(14.7671 0.152014 0)
(14.8319 -0.00410454 0)
(14.7196 -0.185079 0)
(14.5294 -0.154721 0)
(14.4831 0.1464 0)
(14.6266 0.225505 0)
(14.7652 0.104925 0)
(14.7267 -0.165009 0)
(14.5453 -0.181102 0)
(14.4671 0.118544 0)
(14.5961 0.21312 0)
(14.8289 0.217769 0)
(14.9949 0.0468903 0)
(14.9335 -0.151859 0)
(14.6989 -0.195876 0)
(14.4798 -0.108643 0)
(14.4358 0.177368 0)
(14.5705 0.241216 0)
(14.6725 0.0725589 0)
(14.5829 -0.175621 0)
(14.3662 -0.17845 0)
(14.2851 0.123695 0)
(14.3484 0.187922 0)
(14.5092 0.21888 0)
(14.7877 0.246212 0)
(15.071 0.145238 0)
(15.096 -0.119543 0)
(14.8515 -0.203883 0)
(14.5298 -0.193358 0)
(14.2944 -0.212828 0)
(14.113 -0.193453 0)
(14.0651 0.126801 0)
(14.1619 0.167376 0)
(14.3409 0.242483 0)
(14.6166 0.206076 0)
(14.7606 -0.0153305 0)
(14.6088 -0.18397 0)
(14.3485 -0.152073 0)
(14.2036 0.0124329 0)
(14.255 0.164502 0)
(14.4032 0.143008 0)
(14.4682 -0.0463575 0)
(14.289 -0.188541 0)
(14.043 -0.161182 0)
(13.9374 0.0306898 0)
(13.9658 0.125819 0)
(14.1017 0.204781 0)
(14.3278 0.202747 0)
(14.4775 0.0142412 0)
(14.3543 -0.153232 0)
(14.1204 -0.138202 0)
(14.026 0.0346074 0)
(14.0929 0.136458 0)
(14.1853 0.0248043 0)
(14.0918 -0.137327 0)
(14.0193 -0.00979041 0)
(14.0811 0.123938 0)
(14.1813 0.00831378 0)
(14.0568 -0.161959 0)
(13.8135 -0.155863 0)
(13.6874 0.000422786 0)
(13.7275 0.101566 0)
(13.8891 0.176356 0)
(14.0767 0.10395 0)
(14.0961 -0.0858775 0)
(13.9086 -0.164023 0)
(13.7704 -0.0182174 0)
(13.8094 0.123949 0)
(13.9334 0.0620726 0)
(13.9063 -0.101942 0)
(13.7183 -0.17047 0)
(13.5217 -0.0925383 0)
(13.4995 0.103934 0)
(13.6523 0.150364 0)
(13.8787 0.150358 0)
(14.0188 -0.0192365 0)
(13.9277 -0.141161 0)
(13.7271 -0.161398 0)
(13.5741 -0.0372597 0)
(13.5939 0.0877698 0)
(13.7833 0.155124 0)
(13.976 0.0629839 0)
(13.9697 -0.138144 0)
(13.837 -0.144943 0)
(13.7921 0.00393059 0)
(13.9241 0.122497 0)
(14.1083 0.0546229 0)
(14.1037 -0.131216 0)
(13.9868 -0.138113 0)
(13.9236 -0.0903995 0)
(0.0367573 -0.0946888 0)
(0.0387191 -0.0827001 0)
(0.052825 -0.109557 0)
(0.0910483 -0.127224 0)
(0.139698 -0.138812 0)
(0.192097 -0.135991 0)
(0.240871 -0.130134 0)
(0.28481 -0.127093 0)
(0.32523 -0.124405 0)
(0.362758 -0.122624 0)
(0.397007 -0.117805 0)
(0.428431 -0.113646 0)
(0.46022 -0.117498 0)
(0.494726 -0.124499 0)
(0.531915 -0.135814 0)
(0.572046 -0.152786 0)
(0.618274 -0.172097 0)
(0.670809 -0.187483 0)
(0.728488 -0.20806 0)
(0.795127 -0.231379 0)
(0.872289 -0.257782 0)
(0.962168 -0.288783 0)
(1.06655 -0.324448 0)
(1.18648 -0.360378 0)
(1.31893 -0.385797 0)
(1.45575 -0.405447 0)
(1.59577 -0.431051 0)
(1.74266 -0.448091 0)
(1.8945 -0.468862 0)
(2.04807 -0.474272 0)
(2.18809 -0.467078 0)
(2.31279 -0.439345 0)
(2.43377 -0.417951 0)
(2.54672 -0.406013 0)
(2.63985 -0.405577 0)
(2.72114 -0.380566 0)
(2.79551 -0.351958 0)
(2.87224 -0.35971 0)
(2.95156 -0.346159 0)
(3.01516 -0.284539 0)
(3.05194 -0.203629 0)
(3.01459 -0.0444728 0)
(2.83604 0.19282 0)
(2.53761 0.548589 0)
(2.02552 0.759492 0)
(1.37298 0.934198 0)
(0.55112 1.0025 0)
(-0.400969 1.0163 0)
(-1.44421 1.03917 0)
(-2.55484 1.12493 0)
(-3.72711 1.29327 0)
(-4.95998 1.50876 0)
(-6.24342 1.74252 0)
(-7.56615 1.98141 0)
(-8.87321 2.3066 0)
(-10.1422 2.51106 0)
(-11.3592 2.63174 0)
(-12.5591 2.68182 0)
(-13.7097 2.57522 0)
(-14.7752 2.43329 0)
(-15.7233 2.18875 0)
(-16.516 1.84744 0)
(-17.1673 1.53023 0)
(-17.6774 1.27206 0)
(-18.0366 1.06006 0)
(-18.2872 0.935734 0)
(-18.3425 0.794183 0)
(-18.2087 0.589267 0)
(-18.034 0.357699 0)
(-17.8334 0.125686 0)
(-17.5767 -0.0788074 0)
(-17.304 -0.33802 0)
(-16.9083 -0.548198 0)
(-16.4719 -0.799663 0)
(-15.9403 -1.01218 0)
(-15.3357 -1.16764 0)
(-14.6834 -1.30863 0)
(-13.9859 -1.42223 0)
(-13.2521 -1.50443 0)
(-12.4957 -1.55442 0)
(-11.7262 -1.57649 0)
(-10.9484 -1.57437 0)
(-10.1713 -1.54842 0)
(-9.40535 -1.50451 0)
(-8.65819 -1.4439 0)
(-7.93592 -1.36516 0)
(-7.24534 -1.26833 0)
(-6.58833 -1.16377 0)
(-5.95554 -1.06856 0)
(-5.35656 -0.992377 0)
(-4.95325 -0.831154 0)
(-4.69143 -0.712359 0)
(-4.44027 -0.622399 0)
(-4.20422 -0.522957 0)
(-3.98427 -0.410139 0)
(-3.78121 -0.29628 0)
(-3.59673 -0.190466 0)
(-3.43179 -0.0968286 0)
(-3.29089 -0.00628358 0)
(-3.16218 0.0441526 0)
(-3.04865 0.0852677 0)
(-2.94221 0.0930398 0)
(-2.8434 0.0703226 0)
(-2.75116 0.0185926 0)
(-2.6514 -0.0333978 0)
(-2.53593 -0.0921555 0)
(-2.39325 -0.258902 0)
(-2.08515 -0.515807 0)
(-1.60602 -0.604547 0)
(-1.09048 -0.614518 0)
(-0.585632 -0.593089 0)
(-0.0950561 -0.566844 0)
(0.384649 -0.477692 0)
(0.840675 -0.626217 0)
(1.27698 -0.858363 0)
(1.79553 -1.03804 0)
(2.39759 -1.12999 0)
(3.07426 -1.16403 0)
(3.82729 -1.16812 0)
(4.63562 -1.18539 0)
(5.46328 -1.21815 0)
(6.29376 -1.22694 0)
(7.12132 -1.21444 0)
(7.94086 -1.17958 0)
(8.75088 -1.12984 0)
(9.54847 -1.07526 0)
(10.322 -1.01891 0)
(11.0515 -0.961602 0)
(11.6901 -0.843941 0)
(12.1888 -0.884559 0)
(12.5733 -0.975882 0)
(12.9575 -0.974828 0)
(13.353 -0.910472 0)
(13.7625 -0.836842 0)
(14.1637 -0.765284 0)
(14.5408 -0.72159 0)
(14.8893 -0.73484 0)
(15.2075 -0.782612 0)
(15.5031 -0.737476 0)
(15.7319 -0.512143 0)
(15.8668 -0.188245 0)
(15.9875 0.0328405 0)
(16.033 0.201056 0)
(16.1411 0.242065 0)
(16.2613 0.181593 0)
(16.3773 0.082689 0)
(16.4905 0.0125997 0)
(16.5946 -0.025027 0)
(16.7026 -0.0395885 0)
(16.835 -0.0349666 0)
(17.0111 -0.0245253 0)
(17.2327 -0.00427723 0)
(17.4686 0.0106298 0)
(17.6663 0.00843133 0)
(17.7701 -0.0167609 0)
(17.7837 -0.0235367 0)
(17.7116 0.0120772 0)
(17.5601 0.1021 0)
(17.368 0.221364 0)
(17.1603 0.339203 0)
(16.9448 0.460967 0)
(16.7319 0.593771 0)
(16.5032 0.621864 0)
(16.3163 0.564418 0)
(16.1603 0.507443 0)
(15.984 0.444128 0)
(15.6621 0.317317 0)
(15.0771 0.261287 0)
(14.2966 0.264512 0)
(13.4593 0.484204 0)
(12.7177 0.759033 0)
(12.1024 0.719921 0)
(11.7399 0.371713 0)
(11.6158 0.0206499 0)
(11.5754 -0.0961798 0)
(11.5425 -0.0700859 0)
(11.3585 -0.0707052 0)
(10.9673 -0.150262 0)
(10.447 -0.0583484 0)
(9.91377 0.191104 0)
(9.30227 0.46035 0)
(8.56758 0.706427 0)
(7.78816 0.81465 0)
(7.13056 0.82936 0)
(6.59757 0.899854 0)
(6.09657 1.06669 0)
(5.56837 1.25461 0)
(5.09847 1.09214 0)
(4.72646 0.907714 0)
(4.32052 0.963762 0)
(3.83364 1.0869 0)
(3.20225 1.12933 0)
(2.51706 1.03566 0)
(1.80082 1.06535 0)
(1.02134 1.19723 0)
(0.223903 1.30075 0)
(-0.469711 1.31999 0)
(-1.04062 1.26561 0)
(-1.4983 1.13246 0)
(-1.87371 0.984506 0)
(-2.20144 0.849608 0)
(-2.48791 0.725016 0)
(-2.71007 0.561514 0)
(-2.89088 0.375739 0)
(-2.94679 0.139642 0)
(-2.99888 -0.0341645 0)
(-2.88874 -0.232295 0)
(-2.68958 -0.466947 0)
(-2.39296 -0.628314 0)
(-2.03439 -0.658465 0)
(-1.64368 -0.670195 0)
(-1.22231 -0.729319 0)
(-0.765197 -0.785539 0)
(-0.279183 -0.840702 0)
(0.230485 -0.891154 0)
(0.755605 -0.915518 0)
(1.27065 -0.924616 0)
(1.74673 -0.918559 0)
(2.14831 -0.850612 0)
(2.48276 -0.942296 0)
(2.79359 -1.0099 0)
(3.09523 -1.00978 0)
(3.38361 -0.937508 0)
(3.69324 -0.794884 0)
(4.04798 -0.615944 0)
(4.38591 -0.414179 0)
(4.63652 -0.197379 0)
(4.7922 -0.0113611 0)
(4.95174 -0.0402223 0)
(4.97807 -0.229366 0)
(4.9093 -0.271655 0)
(4.87293 -0.230206 0)
(4.89184 -0.152179 0)
(4.92461 -0.197902 0)
(4.93988 -0.231544 0)
(4.95597 -0.219043 0)
(4.98056 -0.158305 0)
(5.01888 -0.0187669 0)
(5.05561 -0.0750169 0)
(5.06338 -0.020567 0)
(5.06567 0.0469163 0)
(5.02841 0.0916207 0)
(4.96804 0.142259 0)
(4.87376 0.189845 0)
(4.7525 0.235528 0)
(4.60508 0.266253 0)
(4.4405 0.279122 0)
(4.26868 0.297065 0)
(4.10058 0.325261 0)
(3.94389 0.362156 0)
(3.79331 0.398881 0)
(3.6428 0.433304 0)
(3.48824 0.468853 0)
(3.32644 0.501895 0)
(3.15449 0.52593 0)
(2.96603 0.533842 0)
(2.75031 0.549267 0)
(2.50155 0.602911 0)
(2.22749 0.636721 0)
(1.95766 0.603083 0)
(1.70749 0.543932 0)
(1.49246 0.463418 0)
(1.31513 0.40495 0)
(1.19334 0.349688 0)
(1.1271 0.291729 0)
(1.09941 0.235895 0)
(1.08488 0.19162 0)
(1.08278 0.15093 0)
(1.09627 0.113109 0)
(1.13346 0.0839772 0)
(1.18731 0.0929202 0)
(1.27771 0.110626 0)
(1.40576 0.0511355 0)
(1.49821 -0.0971979 0)
(1.67281 -0.214661 0)
(1.90373 -0.274919 0)
(2.15187 -0.322211 0)
(2.40137 -0.376466 0)
(2.64244 -0.442123 0)
(2.88158 -0.529875 0)
(3.1463 -0.650563 0)
(3.48454 -0.779196 0)
(3.90281 -0.813255 0)
(4.33104 -0.745293 0)
(4.76568 -0.753065 0)
(5.19659 -0.746649 0)
(5.62924 -0.731748 0)
(6.0647 -0.705814 0)
(6.50588 -0.669794 0)
(6.94863 -0.637125 0)
(7.38027 -0.604521 0)
(7.79436 -0.576915 0)
(8.19246 -0.550204 0)
(8.58083 -0.529293 0)
(8.96526 -0.52316 0)
(9.34312 -0.562573 0)
(9.69211 -0.671091 0)
(9.99467 -0.804492 0)
(10.3232 -0.713387 0)
(10.5878 -0.288966 0)
(10.9804 -0.0859817 0)
(11.2561 -0.0510681 0)
(11.4719 -0.0798283 0)
(11.6235 -0.0172142 0)
(11.7092 -0.102352 0)
(11.7741 -0.477517 0)
(11.9674 -0.428617 0)
(12.2286 -0.384518 0)
(12.3281 0.0300533 0)
(12.4848 0.167827 0)
(12.6263 0.161315 0)
(12.7116 0.0553216 0)
(12.8284 -0.128051 0)
(13.0124 -0.12138 0)
(13.0841 -0.115939 0)
(13.1029 -0.134629 0)
(13.0802 -0.223376 0)
(13.0137 -0.330143 0)
(12.8852 -0.347848 0)
(12.7554 -0.132997 0)
(12.6793 0.235403 0)
(12.7208 0.398906 0)
(12.7683 0.301186 0)
(12.7383 0.210293 0)
(12.6712 0.320053 0)
(12.5671 0.467757 0)
(12.4136 0.510105 0)
(12.2545 0.481422 0)
(12.0862 0.490927 0)
(11.8985 0.497955 0)
(11.6765 0.497567 0)