/*--------------------------------*- C++ -*----------------------------------*\
| =========                 |                                                 |
| \\      /  F ield         | OpenFOAM: The Open Source CFD Toolbox           |
|  \\    /   O peration     | Version:  v1812                                 |
|   \\  /    A nd           | Web:      www.OpenFOAM.com                      |
|    \\/     M anipulation  |                                                 |
\*---------------------------------------------------------------------------*/
FoamFile
{
    version     2.0;
    format      ascii;
    class       volScalarField;
    location    "1.1";
    object      p;
}
// * * * * * * * * * * * * * * * * * * * * * * * * * * * * * * * * * * * * * //

dimensions      [1 -1 -2 0 0 0 0];


internalField   nonuniform List<scalar> 
20400
(
97755.8
97754.9
97753
97747.1
97744.3
97739.6
97733.8
97727.4
97720.3
97712.6
97704.5
97696
97687.3
97678.4
97668.1
97657.4
97646.6
97634.7
97622.6
97610.3
97599.1
97587.2
97575.2
97563.9
97552.2
97539.6
97527.3
97514.6
97502
97489
97475.8
97461.9
97448.3
97434
97419.2
97404.8
97393
97378.4
97366
97355.4
97344.4
97331.8
97319.5
97309.2
97300.3
97294.2
97288.4
97283.4
97282.9
97281.8
97282.7
97287.3
97290.2
97297.7
97304.8
97311
97320.1
97328.6
97337.7
97346.7
97355.2
97363
97375.3
97384.1
97391.1
97394
97401
97411.5
97418.5
97428.4
97435.9
97439.2
97438.3
97439.8
97439
97440.3
97440.7
97445.5
97447.7
97449.4
97451.6
97456.4
97466.4
97479
97490.5
97505.8
97522.5
97538.6
97557.9
97579.9
97604.6
97629.2
97659.9
97696.1
97733.9
97764.9
97807.9
97850.1
97893.3
97925.6
97958.4
97999.8
98040.6
98077.9
98115
98150.9
98182.3
98228.6
98246.2
98269.6
98298.3
98330.4
98334
98352.3
98367.8
98378.8
98386.6
98390.1
98391.9
98395.2
98402.3
98413.7
98403.1
98402
98396.2
98386
98380.7
98364.3
98358.1
98346.3
98332.4
98317.7
98312.8
98307
98288
98278.6
98268.4
98257.4
98243.3
98234
98226.1
98218.1
98211.1
98206.4
98201.5
98199.8
98199.2
98200.2
98200.6
98203.5
98206.5
98210.2
98213.1
98215.5
98216.6
98217.3
98217.7
98217.2
98216.9
98216.2
98214.7
98213
98210.3
98206.7
98203.2
98198.9
98195.6
98191.7
98188.5
98185.1
98182.3
98179.8
98177.4
98175
98172.9
98171.1
98169
98168
98167.3
98167.1
98167.2
98168
98168
98169.6
98172
98174.3
98176.1
98179.3
98183.4
98187.1
98190.6
98194.7
98199.3
98203.8
98208.5
98213.4
98218.4
98223.6
98229.1
98235.1
98241.3
98247.6
98254
98260.1
98265.6
98271
98276
98281.8
98287.5
98294.6
98301.3
98307.3
98311.3
98314.9
98314.5
98320.4
98322.9
98321.1
98322.3
98322
98321.9
98321.5
98320
98317.3
98313.2
98306.6
98299.4
98290.5
98285.6
98278.8
98268.3
98258.3
98248.4
98237.2
98225
98212.3
98199.5
98188.1
98175.8
98166.8
98157.5
98148.4
98138.7
98136.7
98134.9
98132.5
98134
98138.1
98137
98147
98152.4
98159.2
98165
98172.8
98184.3
98196.1
98206.9
98217.8
98230.2
98241
98248.8
98257.7
98270.7
98277.6
98284
98289.9
98295.4
98301.2
98309.1
98315.5
98321.9
98328.8
98335.9
98343.7
98350.7
98359.7
98367.1
98375.4
98384.6
98395
98405.9
98416.3
98426.4
98441.9
98455.3
98467
98480
98495.9
98512.6
98523.9
98539.8
98556.7
98571.5
98589
98607
98625.7
98645.2
98665.3
98686.7
98709.9
98734.5
98759.5
98786.7
98813.2
98843.8
98873.6
98904.2
98935.7
98971.8
99005.2
99038.9
99074.2
99109.4
99144.9
99180.5
99216.2
99251.7
99287.6
99323.1
99357.7
99392.3
99429.5
99465.8
99502.4
99538.2
99573.2
99607.6
99640.9
99671.8
99702.3
99734.2
99763.7
99788.3
99813.2
99837.2
99859.9
99882.2
99904.7
99927
99947.7
99967.4
99985.5
100003
100020
100035
100049
100063
100076
100089
100101
100113
100124
100135
100147
100156
100166
100177
100187
100196
100206
100216
100226
100235
100244
100255
100265
100274
100284
100295
100305
100316
100328
100340
100352
100363
100376
100387
100399
100412
100424
100436
100449
100466
100480
100494
100510
100526
100542
100559
100576
100593
100611
100630
100647
100666
100684
100702
100721
100740
100759
100778
100796
100815
100833
100852
100871
100889
100907
100925
100942
100960
100977
100994
101010
101026
101041
101055
101070
101084
101098
101111
101123
101135
101147
101158
101168
101178
101187
101196
101204
101212
101218
101225
101230
101236
101240
101245
101248
101252
101254
101256
101258
101260
101260
101260
101260
101259
101258
101257
101255
101254
101251
101249
101246
101243
101240
101237
101233
101230
101226
101223
101220
101216
101213
101211
101208
101205
101203
101201
101199
101197
101196
101195
101195
101195
101195
101196
101197
101199
101201
101203
101206
101209
101213
101217
101222
101227
101232
101238
101244
101250
101257
101264
101272
101279
101287
101295
101304
101312
101321
97760.7
97759.1
97757.4
97753.3
97750.2
97745.2
97739.6
97733.2
97726
97718.2
97709.7
97700.4
97690.7
97679.5
97668.2
97656.8
97645
97633.2
97621.6
97609.4
97596.8
97584.2
97572.1
97559.8
97545.9
97532.6
97520.1
97508
97496.1
97484
97472.4
97460.5
97448.7
97436.4
97423.9
97411.5
97400.5
97388
97372.8
97362.3
97350.6
97338.2
97328.6
97318.5
97309.4
97302.3
97294.8
97288
97284.2
97279.9
97278.5
97279.3
97280.5
97281.7
97286.1
97291.5
97298.8
97307.2
97317
97327.7
97340.1
97351.8
97367.7
97379.8
97391.9
97400.5
97403.6
97428.7
97436.5
97447
97456.1
97463.8
97469
97476.3
97481.6
97487.1
97486.4
97487.4
97488.9
97490.9
97489.2
97488.3
97494.1
97500.1
97501.8
97509.1
97519.9
97531.8
97555.4
97570
97601.2
97615.4
97658.8
97687.4
97682
97702
97772.2
97811.4
97835.5
97874.2
97916.4
97950.9
97975.1
98001.2
98030.9
98061.3
98091.4
98114.1
98155.7
98188.4
98219.8
98254
98283.4
98313.9
98341.2
98362.5
98380.6
98393.5
98403.9
98409.2
98406.1
98410.8
98398.7
98394.3
98388.4
98380.1
98371.5
98359.5
98350.8
98343.5
98338
98306.3
98300.3
98280.9
98269.7
98262.7
98249.5
98234.8
98222.6
98223.4
98222.8
98217.2
98210.8
98205.7
98200.5
98198.1
98196
98194.8
98194.8
98197.9
98202.1
98207.7
98213.1
98218.3
98220.1
98218.1
98214.5
98212.9
98212.7
98213.3
98213.8
98212.8
98211
98207.7
98203.6
98199.1
98195.4
98191.6
98188.6
98185.4
98182.6
98180.2
98178
98176
98174.1
98172.6
98170.9
98170
98168.9
98168.8
98169.5
98170.7
98171.4
98172.9
98176.3
98178.9
98180.9
98183.1
98186.7
98190.9
98194.9
98198.8
98203.5
98208.4
98213.3
98218.1
98223
98228.3
98233.6
98239.1
98244.8
98250.5
98256.3
98261.9
98267.8
98273.3
98278.5
98284
98289.2
98295.5
98301.7
98306.5
98311.6
98315.9
98318.1
98327.3
98330.3
98331.1
98331.8
98331
98331.3
98331.3
98331.1
98329.6
98327
98323.1
98318.2
98309.5
98303.7
98296.9
98287.8
98278
98268.3
98257.8
98247
98234.4
98221.5
98209.5
98194.8
98183.4
98172.1
98159.7
98145.4
98139.5
98132.7
98127.5
98125.8
98127.7
98124.7
98131.6
98137.9
98146.9
98156.1
98163.3
98168
98173.9
98180.8
98188.2
98197.8
98207.9
98216.4
98224.8
98241.7
98254
98265.3
98276.6
98287.1
98298
98307.5
98313.9
98319.3
98325.2
98333.4
98342.9
98351.2
98361
98368
98378.3
98388.6
98399.5
98410.2
98421.1
98431.2
98445.2
98461.4
98475.4
98488.9
98508.7
98527.3
98541.7
98556.4
98567.6
98578.9
98595.6
98613.1
98632.5
98650.8
98671.3
98693.3
98715.6
98738.7
98762.8
98789
98814.7
98842.9
98871.3
98900.3
98931.2
98964.3
98998.2
99031.6
99066.8
99103.1
99139.9
99176.9
99214.2
99251.8
99290.7
99330.5
99370.7
99409.7
99446.7
99480.9
99512.6
99539.9
99567.4
99596.1
99625
99653.1
99680.5
99713.8
99750.4
99778.4
99807.8
99835
99862
99887.9
99911.6
99932.7
99951.5
99968.9
99986.1
100003
100020
100036
100050
100064
100077
100091
100103
100115
100127
100138
100150
100160
100169
100180
100189
100199
100207
100216
100226
100236
100247
100257
100266
100276
100285
100296
100306
100317
100327
100338
100350
100361
100374
100386
100399
100411
100424
100437
100450
100464
100478
100493
100509
100525
100542
100558
100575
100591
100609
100629
100647
100665
100683
100700
100718
100737
100757
100776
100796
100815
100835
100854
100872
100890
100907
100923
100940
100957
100974
100992
101009
101025
101041
101057
101072
101085
101099
101112
101124
101135
101147
101157
101168
101178
101187
101195
101204
101212
101219
101225
101231
101236
101241
101245
101248
101251
101254
101256
101258
101259
101260
101261
101260
101260
101259
101257
101255
101253
101251
101248
101246
101243
101240
101237
101233
101230
101226
101223
101220
101216
101213
101210
101207
101205
101203
101200
101199
101197
101196
101195
101195
101195
101195
101195
101196
101198
101200
101203
101206
101209
101213
101217
101221
101226
101232
101237
101244
101250
101257
101264
101272
101279
101287
101295
101303
101312
101321
97758.5
97758.2
97756.1
97751.8
97748.3
97743.3
97737.5
97731
97723.7
97715.7
97707
97697.6
97687.9
97677.1
97666.7
97655.1
97643.7
97632.1
97620.4
97608.7
97596.2
97583.7
97572.8
97559.6
97547.2
97535.2
97523.4
97511.6
97499.3
97485.7
97472.9
97462.2
97450
97436.6
97423.7
97410.4
97400.2
97386.5
97373.7
97361.1
97348.2
97336.8
97333
97324.1
97315.9
97309.6
97302.5
97295.7
97291.6
97286.9
97284
97281.8
97281
97285.8
97290.5
97293.1
97302.4
97310.3
97321
97331.7
97343
97353.4
97368
97380.4
97392.7
97404.2
97409.5
97425.9
97435.1
97448
97456.9
97462.5
97465.5
97471.1
97472.6
97473.5
97472.8
97476.9
97485.6
97502.6
97514.3
97513.6
97515.2
97515.7
97530.6
97538
97548.1
97554.2
97568
97581.2
97596.8
97620
97618.6
97635.5
97701.9
97745.7
97741.3
97774.5
97843.8
97897.2
97936.8
97976.9
98014
98051.9
98090.6
98129.1
98164.7
98200.6
98228.2
98251.5
98269.8
98295
98310
98324.4
98343
98360.1
98375.1
98385.7
98394.3
98403.9
98407.8
98416.2
98411.1
98407.3
98399.2
98385.7
98379.2
98369
98358.4
98345
98329.6
98306
98298.7
98289.6
98289.3
98287.9
98284.4
98273.8
98249.7
98235.6
98227.2
98219.2
98210.6
98204.9
98200.5
98196.9
98195.3
98194.8
98194.7
98197.1
98200.7
98206.4
98211.7
98217.7
98221.4
98222.8
98222.7
98222.1
98221.9
98221.2
98216.6
98211.7
98207.6
98204.8
98202.6
98199.8
98196.7
98192.8
98189.1
98185.7
98182.8
98180.6
98178.5
98176
98173.8
98172.3
98171
98170.3
98171
98171
98170.4
98169.8
98170.3
98168.5
98170.7
98174.4
98175.8
98179.4
98184.5
98189.3
98193.3
98197
98202.9
98207.8
98212.4
98216.8
98221.3
98225.5
98230.2
98235.8
98241.6
98248.5
98255.8
98262.6
98268.1
98271.4
98275.2
98280.1
98285.7
98292.6
98300.6
98311.6
98317.5
98328.7
98315.1
98309
98313.9
98315.2
98317.8
98318.7
98319.5
98319.1
98316.1
98315
98311.2
98309
98305.2
98295.3
98291.7
98288.5
98281.7
98272.5
98261.6
98247.2
98234.9
98220.7
98207.2
98194.9
98180
98172
98163.4
98153.6
98145.1
98132.1
98129.9
98124.6
98124.7
98131.9
98130.8
98143.8
98153.5
98164.7
98180.2
98194.1
98203.2
98213
98223.8
98233.9
98245.3
98257
98268.4
98279.9
98272.2
98270
98275
98282
98287.8
98295.2
98308.3
98315.4
98324
98333.5
98339.3
98345.3
98351
98359.4
98367.8
98377
98385.4
98394.3
98406.7
98417.9
98427.1
98442.6
98458.4
98473.8
98482.7
98489.1
98504.5
98519
98529.8
98541.2
98561.1
98577.6
98597.4
98621.9
98643.7
98666.4
98686.3
98708.2
98732.2
98757.4
98783.5
98809.9
98843.4
98875.9
98908.6
98940.9
98977.2
99003.3
99033.5
99067.2
99100.9
99134.7
99169.7
99205.1
99241.1
99279.2
99318.4
99358.5
99397
99436.7
99474.1
99510.5
99547.6
99583.6
99620.6
99658.3
99695.6
99731.2
99760.2
99771.3
99788
99811.2
99834
99854.9
99876.2
99899.3
99923.4
99945.2
99966.7
99986.4
100005
100021
100037
100051
100065
100078
100091
100103
100114
100125
100134
100144
100155
100163
100173
100183
100192
100203
100215
100229
100235
100242
100254
100265
100273
100281
100292
100303
100312
100326
100341
100355
100368
100380
100391
100397
100410
100423
100435
100447
100463
100481
100495
100509
100525
100541
100558
100578
100594
100612
100629
100646
100665
100685
100704
100723
100742
100759
100776
100794
100812
100830
100850
100870
100889
100908
100927
100945
100963
100980
100995
101010
101025
101039
101054
101068
101082
101096
101110
101123
101136
101147
101159
101169
101180
101189
101197
101205
101212
101218
101224
101230
101235
101240
101245
101249
101252
101255
101257
101259
101260
101260
101260
101259
101259
101258
101257
101255
101254
101252
101249
101247
101244
101240
101236
101233
101229
101225
101222
101219
101216
101214
101211
101208
101206
101203
101200
101198
101196
101195
101194
101194
101195
101195
101196
101197
101198
101200
101202
101205
101208
101212
101217
101222
101226
101232
101237
101243
101249
101256
101263
101271
101279
101287
101296
101304
101313
101321
97762.5
97761
97759.1
97755.6
97751.5
97746.3
97740.4
97733.9
97726.4
97718.1
97709.2
97699.7
97689.6
97679.6
97668.9
97658.5
97647.1
97635.9
97624.3
97612.6
97599.9
97587.1
97574
97561.2
97549.7
97538.3
97526.3
97513.1
97500.8
97489.8
97478.2
97463.6
97451
97438.9
97425.5
97413.1
97401.7
97387
97373.8
97361.8
97350.2
97338.1
97327.3
97316.7
97306.4
97298.7
97289.1
97283.6
97281.1
97277.6
97278.5
97280
97281.6
97287.5
97295.9
97301.5
97310.7
97320.1
97330.8
97341.5
97352.3
97361.7
97376.5
97387.7
97398.9
97408.1
97416.7
97431.7
97437.9
97449.2
97456.3
97460.1
97460.4
97463
97460.9
97459
97454.5
97455.2
97453
97450.4
97448.6
97457.3
97468.8
97471.2
97473.1
97481
97494.1
97510.2
97530.8
97551
97578.2
97600.4
97625.6
97655.7
97694.4
97725.4
97751.4
97784.8
97832.2
97870.4
97910.4
97957.8
98005.9
98050
98093.9
98138.2
98180.3
98223
98262.9
98293.9
98312.8
98336.4
98351.4
98358.2
98371.5
98381.6
98390.6
98397.5
98395.4
98388.6
98391.8
98399.2
98398.5
98396.1
98391
98385
98374.8
98362.9
98354.1
98340.7
98325.5
98311.7
98313.2
98309.2
98292
98263.1
98251.9
98236.7
98231
98218.4
98215.7
98210.4
98205.9
98200.7
98196.5
98194.3
98193.6
98193.9
98195.5
98199.3
98203.6
98207.8
98211.3
98213
98213.6
98214.6
98215.7
98217.2
98219.3
98221.3
98220.6
98218.8
98215.2
98210.2
98203.3
98197.6
98193.6
98190.9
98187.7
98184.8
98181.4
98178.3
98176
98174.1
98172.7
98171.6
98170.3
98167.5
98163.6
98162.7
98163.4
98166.1
98167
98166.1
98172.2
98177.8
98184.7
98184.7
98183.3
98187
98191.6
98194
98196.6
98201.9
98207.4
98212.4
98218
98224.2
98230.9
98238
98245.4
98251.2
98255.7
98260.3
98265.7
98270.5
98275.4
98281.8
98289.8
98298.9
98301.9
98302.1
98305.1
98312.8
98309
98309.5
98314.8
98317.3
98323.4
98327
98327.3
98324.3
98323
98320.7
98318.1
98318.7
98317.9
98305.3
98292.4
98281.1
98273.3
98262.2
98247.1
98229
98221.1
98208.5
98197.2
98188.7
98171.7
98159.5
98150.6
98134.3
98118.3
98137.7
98129.2
98124.1
98128.7
98135.9
98136
98137.8
98136.6
98141.4
98152.3
98164.2
98176.5
98190
98204.3
98217.1
98230.9
98250
98270.2
98286.9
98283.1
98285.4
98293.1
98301.6
98310.1
98317.6
98311.5
98312.2
98319.7
98327.9
98335.2
98343.3
98351.2
98360.4
98366.8
98376.2
98385
98396.5
98410.1
98422.8
98427.1
98431.5
98446.6
98466.1
98478.1
98484.8
98500.2
98519.8
98530.8
98541.2
98576
98594.5
98608.4
98622.3
98640.1
98660.6
98683.4
98706.9
98731.6
98757.5
98784.5
98811.6
98842
98873.6
98908.8
98942.2
98977.6
99009.3
99044.4
99081.2
99117.1
99153.2
99189.9
99226.5
99263.1
99299.7
99335.9
99372.9
99404.2
99429.8
99459.9
99494.5
99530.6
99565
99600.2
99636.5
99672.1
99707.5
99740.7
99763.7
99786.9
99815.5
99843.3
99870.1
99895.4
99916.5
99931
99947.5
99965.7
99983.2
100000
100017
100033
100048
100063
100073
100086
100099
100111
100122
100133
100143
100154
100162
100173
100188
100200
100208
100209
100221
100230
100242
100253
100263
100272
100281
100294
100307
100320
100329
100332
100345
100355
100369
100380
100394
100405
100420
100434
100449
100462
100476
100490
100507
100525
100541
100557
100575
100591
100608
100628
100647
100665
100681
100699
100719
100738
100758
100778
100798
100818
100838
100856
100872
100888
100905
100922
100940
100958
100975
100993
101010
101027
101043
101059
101073
101087
101100
101112
101124
101136
101147
101157
101167
101177
101187
101195
101204
101212
101219
101226
101232
101238
101242
101246
101248
101251
101254
101256
101258
101259
101260
101261
101261
101260
101259
101258
101256
101253
101250
101248
101245
101243
101240
101236
101233
101230
101227
101224
101219
101216
101212
101209
101207
101204
101202
101200
101198
101197
101196
101196
101195
101194
101193
101194
101196
101197
101200
101202
101206
101210
101213
101217
101220
101225
101231
101237
101243
101250
101257
101265
101272
101279
101286
101294
101303
101312
101321
97765.8
97764.5
97762.2
97758.5
97754.4
97749.1
97743
97736.4
97728.8
97720.4
97711.7
97702.2
97692.3
97681.8
97670.3
97659.2
97647.6
97636
97624.3
97612.9
97600.5
97588.5
97576.7
97564.4
97553.1
97541.7
97529.8
97517.4
97505.5
97493.6
97481.5
97467.5
97455.4
97442.3
97428.8
97414.3
97403.7
97389.6
97376.9
97365.4
97353.6
97340.7
97328.2
97315.2
97304.8
97296.2
97285.2
97280.3
97277.5
97274.5
97275.2
97277.3
97279.7
97286
97295.9
97301.1
97310.8
97319.7
97330.3
97340.7
97350.9
97360.6
97375.5
97387.4
97398.6
97409.7
97420.1
97431.7
97446.5
97450.5
97453.6
97457.3
97457.9
97460.4
97458.1
97455.3
97450.6
97449.6
97448.7
97447
97441.4
97442.9
97454.5
97465.1
97467.6
97485.2
97500.6
97518.3
97539.5
97561.3
97590.9
97621
97652.5
97692
97728
97761.6
97800.7
97841.5
97880.6
97912.3
97946.5
97983.7
98019.5
98051
98078.8
98104.2
98132.2
98165.9
98202.6
98237.8
98268.2
98300.8
98327.4
98339.3
98356.4
98371.3
98386.2
98401.3
98411.7
98407.7
98404.5
98406.7
98402.1
98397.6
98394
98386.9
98378.5
98369.7
98361.4
98349.4
98338.1
98323.7
98299.3
98288.5
98276.3
98260
98252.9
98236.9
98239.6
98236.4
98228.3
98217.5
98208.5
98202
98196.9
98193.8
98191.6
98192.5
98193.7
98198.1
98202.9
98208.2
98213.7
98219.2
98221.8
98221.2
98219.3
98216.2
98212
98208.9
98209.9
98210.9
98210.6
98208.3
98205.4
98202
98197.7
98193.2
98188.1
98183.7
98180.4
98177.6
98175.5
98173
98170.3
98168
98166.6
98165
98163.3
98163.1
98165
98167.8
98175.7
98170.6
98162.2
98165.7
98168
98169.7
98175.9
98182
98186.8
98190
98195.6
98203.6
98210.8
98216.7
98223.1
98228.1
98231.3
98235.1
98239.5
98245.9
98253.1
98259.9
98268.2
98275.8
98280.7
98280.1
98282
98288.8
98295.6
98301.1
98304.7
98313
98316
98332.2
98332.3
98323.4
98319.7
98320.4
98319.9
98321
98321.6
98323.4
98318.2
98305.2
98299.6
98294.4
98281.1
98267.2
98260.7
98254.4
98242.6
98222.8
98224.6
98217.9
98204
98183.3
98167.2
98162.3
98151.1
98137.4
98124.2
98135.9
98128.9
98123.6
98131.7
98136.8
98139.3
98147.7
98149.4
98157
98163.2
98170.1
98178.7
98188
98198.4
98207.5
98216.7
98224.6
98240.9
98255.5
98267.7
98275.5
98283
98293.8
98304.6
98318.6
98318.6
98321.1
98327.7
98334.1
98338.3
98343
98349.5
98358.6
98367.7
98377.9
98388.1
98385
98395.7
98412
98424.4
98432.1
98443.1
98463.8
98477
98490.9
98505.6
98531.9
98547.2
98549.4
98561.1
98580.6
98594.5
98610
98632.2
98655.3
98680
98705.7
98728.6
98753.8
98780
98809
98840.8
98871.8
98901.4
98930.1
98962.1
98997.9
99033
99068.6
99105.9
99142.8
99181.1
99219.9
99258.3
99296.5
99334
99372.6
99412.9
99445.7
99478.4
99514
99548.3
99580.6
99612.7
99645.5
99676.4
99701.9
99729.6
99762.6
99784.9
99810.5
99834.9
99859.8
99884.9
99908.6
99928.3
99947.2
99967.5
99987.6
100006
100023
100038
100052
100064
100076
100089
100100
100112
100122
100134
100142
100161
100170
100174
100177
100190
100193
100209
100219
100229
100240
100253
100265
100276
100284
100289
100296
100309
100318
100332
100346
100356
100368
100381
100400
100412
100425
100433
100446
100461
100479
100495
100510
100524
100540
100556
100578
100593
100612
100627
100647
100666
100685
100703
100722
100740
100757
100775
100795
100815
100835
100854
100872
100891
100909
100928
100946
100962
100979
100993
101009
101024
101039
101054
101069
101083
101096
101110
101124
101136
101148
101160
101170
101180
101190
101198
101205
101212
101219
101225
101231
101236
101241
101245
101249
101253
101255
101257
101259
101260
101261
101261
101260
101260
101258
101257
101256
101254
101251
101249
101246
101244
101240
101236
101233
101229
101226
101222
101219
101216
101212
101210
101207
101205
101203
101200
101198
101196
101195
101194
101194
101194
101194
101195
101196
101198
101199
101202
101205
101208
101212
101216
101220
101226
101231
101237
101243
101249
101256
101263
101271
101279
101286
101295
101304
101312
101321
97770.8
97770.1
97767.8
97763
97759.4
97754
97747.8
97740.8
97732.6
97723.3
97713.8
97703.9
97693.5
97682.6
97671.2
97660.2
97648.4
97637.2
97625.5
97614.1
97602.2
97590.8
97579.2
97567
97555.2
97543.8
97532.2
97520.1
97508
97495.9
97483.7
97471.1
97457
97443.8
97429.9
97415.5
97404.7
97390.7
97377
97364
97350.9
97336.2
97324.7
97311.2
97301.5
97292.3
97280.5
97276.4
97273.1
97269.5
97269.8
97272.1
97275
97281.1
97291.6
97298.2
97308.9
97320.2
97333.4
97345.4
97356.5
97367.9
97382.3
97394.9
97405.9
97417.7
97428.5
97441
97448.2
97452.7
97456.6
97458.5
97457.8
97459.5
97457.1
97456
97449.7
97448.1
97444.9
97442.5
97439
97431.8
97443.3
97440.6
97458.4
97463.1
97487.9
97497.3
97523.1
97543
97560.8
97582.4
97613.3
97648
97685.7
97726.6
97770.6
97816.1
97863.7
97907.3
97950.8
97996.5
98042.8
98089.1
98127.9
98157.2
98182.6
98206.2
98227.1
98248.6
98269.5
98294.5
98316.8
98325.2
98338.7
98350
98357.3
98366.3
98378.5
98385.3
98386.5
98388.9
98391.4
98387.8
98381.7
98374.4
98367.7
98359.5
98351
98337
98320.1
98305.9
98293.8
98287.2
98276.8
98266.3
98262.7
98255
98236.9
98220.8
98216.7
98206.7
98202.9
98197.6
98194.4
98192.3
98190.9
98190.6
98192.5
98195.2
98198.1
98200.4
98203.2
98208.6
98214.3
98217.8
98218.9
98219.3
98217.8
98216.4
98214
98209.9
98204.5
98199.5
98196.9
98195.5
98193.3
98189.8
98185.9
98182.3
98180
98175.8
98173.1
98171.2
98169
98167.3
98165.9
98165.5
98167.2
98166.8
98158.2
98157.7
98162.7
98155.4
98161.5
98168.2
98168.4
98169.9
98179.5
98187.9
98192.2
98199
98196.8
98196.9
98203.5
98208.3
98213
98218.5
98225.7
98232.9
98238.6
98247.7
98258.1
98265
98266.6
98267.3
98272.2
98277.8
98283.6
98290.8
98303.4
98320.1
98324.8
98320.4
98317
98317.3
98317.5
98312.1
98315.3
98316.8
98318
98325
98323.1
98316.2
98312.4
98302.4
98298.4
98296.1
98287.8
98279.1
98269.4
98268.8
98262.7
98245
98222.9
98209.9
98193.8
98176.5
98153
98157.2
98147.5
98130.2
98131.2
98109.5
98103.9
98106
98107.4
98108.9
98113.8
98123.2
98131
98143.4
98155.1
98166.5
98179.2
98191.3
98208
98226.9
98237.8
98241.6
98248.6
98259.6
98270.1
98276.6
98281.9
98284.2
98290.1
98301.1
98313.3
98318.3
98323.8
98330.7
98337.9
98342.7
98350
98360.8
98363.2
98369.4
98380.2
98387.1
98394.8
98412.7
98424.2
98437.5
98450.1
98470
98481.9
98502.9
98507.9
98515.1
98534.7
98546.3
98559.1
98581.7
98602.1
98617.3
98645
98662.3
98681.7
98705.2
98728.3
98755.2
98782.1
98809.5
98842
98872.3
98908.7
98938.3
98972.5
99006.3
99039.4
99074.3
99109.5
99144.2
99179.9
99215.8
99252.5
99283.3
99312
99346.1
99389.3
99426.3
99462.9
99500
99537.3
99573.1
99607.4
99644
99680.9
99715.5
99742.7
99769.7
99793.3
99818.7
99842
99864.8
99885.7
99904.7
99924.5
99944.3
99963.7
99982.7
100002
100018
100033
100048
100063
100075
100087
100099
100111
100122
100138
100143
100147
100155
100162
100175
100188
100194
100211
100225
100236
100245
100257
100259
100264
100275
100286
100298
100311
100320
100334
100354
100364
100379
100382
100392
100405
100417
100429
100446
100460
100475
100490
100506
100521
100539
100556
100574
100591
100608
100626
100645
100663
100683
100702
100722
100740
100759
100778
100797
100815
100833
100851
100869
100888
100907
100925
100943
100961
100978
100995
101011
101027
101042
101058
101073
101087
101100
101112
101124
101135
101146
101157
101168
101178
101188
101197
101205
101213
101220
101227
101232
101237
101242
101246
101250
101253
101255
101257
101259
101260
101261
101261
101261
101260
101259
101258
101256
101254
101251
101249
101246
101243
101240
101236
101233
101229
101226
101223
101219
101216
101213
101210
101207
101204
101202
101200
101198
101196
101195
101194
101194
101194
101194
101194
101195
101197
101199
101201
101205
101207
101211
101216
101220
101225
101230
101236
101243
101249
101256
101263
101271
101279
101287
101295
101304
101312
101320
97776.1
97775.5
97772.6
97767.9
97764.4
97759.5
97753.2
97745.9
97737.5
97728.5
97719.1
97708.7
97697.3
97685.5
97673.3
97661.5
97648.8
97637.6
97625.8
97614.6
97602.7
97591.3
97580.3
97568.4
97556.7
97545.5
97534.1
97522.4
97510.8
97498.9
97486.3
97473.9
97460.2
97448.1
97433.9
97417.7
97406.6
97392.8
97378.4
97364.5
97350.7
97335.6
97324.1
97309.5
97299.8
97288.9
97276
97271.4
97266.2
97262.7
97261.5
97264.7
97268.2
97273.5
97285.2
97293.3
97305.5
97318.3
97333.4
97346
97357.6
97370.3
97385.7
97396.2
97407.5
97417.6
97430.1
97441.6
97453.4
97455.5
97460.2
97461.1
97459.3
97460
97457.2
97451.7
97445.1
97441.8
97440.3
97436.5
97425
97432.8
97430.7
97447.5
97452.4
97475.6
97491.3
97515.4
97545.5
97553.7
97577.2
97601.6
97628.6
97662.2
97694.5
97729.1
97766.7
97802.5
97838.1
97864.1
97891.6
97927.4
97969.3
98014.2
98058.4
98101
98142.3
98179
98211.3
98241
98267.1
98292.6
98316.2
98328
98344.7
98359.6
98370
98375.7
98378.6
98380.4
98380.1
98382.7
98382.2
98379.8
98377.2
98370.6
98362.7
98352.9
98345.7
98334.3
98320.9
98311.8
98302.3
98297.4
98287.7
98269.3
98248.5
98235.7
98232.3
98218
98215.6
98211.7
98206.6
98201.2
98196.6
98194.5
98193
98194
98195.7
98197.9
98201.3
98204.5
98208.8
98211.7
98213
98212
98209.7
98208.1
98209.5
98211.3
98212.6
98212.1
98209
98204.8
98200.4
98195.6
98190.6
98185.6
98182.4
98179.2
98176.9
98173.7
98171.5
98169.3
98166.7
98165.2
98162.9
98159.6
98158.5
98156.7
98157
98159.3
98160.3
98156.8
98168.6
98175.5
98180.3
98177.6
98172.7
98177.5
98182.4
98183.8
98189.9
98196.1
98203.7
98208.5
98212.8
98220.5
98230.1
98238.3
98245.3
98246.4
98249.1
98254.8
98261.7
98268.2
98273.7
98281.2
98296.7
98299.3
98298.3
98305.4
98310
98306.4
98308.5
98317.2
98315
98310
98331.5
98335.5
98328.7
98325.2
98324.9
98317.4
98313.7
98314
98310.8
98301.9
98294.1
98286.3
98279
98253
98245.4
98231.7
98214.4
98203.4
98195.2
98171.9
98163.8
98156.8
98141.3
98129.5
98120.4
98113.1
98104.8
98102
98107.6
98111.8
98113.3
98119.7
98125
98133.2
98142.1
98151.7
98162.2
98172.6
98182.6
98199.8
98214.4
98229.4
98243
98256.5
98268.9
98277.9
98289.4
98295.5
98300.1
98306.5
98312.5
98317.6
98323.1
98329.1
98335.8
98343.7
98347.7
98355.7
98360.1
98369.5
98381
98389.4
98399.9
98416.6
98426.1
98442.3
98458
98467
98472.6
98491.1
98504.6
98514.2
98533.5
98552.7
98565.9
98587.9
98603.1
98617.7
98631.8
98652.9
98673.4
98698.9
98725
98751.6
98777
98807.8
98837.8
98864.2
98896.2
98931.4
98966.3
99001.3
99037.1
99074.3
99111.3
99148.1
99186.4
99221.6
99261.2
99297.9
99330
99365.6
99399.2
99433.7
99468
99501.9
99536.1
99569.2
99600.8
99626.9
99659.7
99695.3
99728.9
99757.7
99784
99811.3
99837
99862.3
99889.5
99912.4
99931.2
99949.9
99968.9
99986.3
100002
100017
100032
100047
100061
100074
100086
100098
100111
100119
100126
100136
100145
100158
100163
100178
100197
100206
100216
100221
100226
100236
100248
100255
100266
100276
100287
100303
100315
100328
100339
100346
100354
100368
100379
100392
100405
100415
100433
100448
100461
100476
100490
100509
100525
100540
100555
100574
100592
100609
100628
100646
100663
100682
100700
100719
100737
100758
100778
100797
100816
100836
100855
100873
100891
100909
100926
100943
100959
100975
100992
101008
101024
101040
101055
101070
101085
101099
101112
101125
101137
101149
101160
101171
101180
101189
101197
101205
101213
101220
101226
101232
101237
101242
101246
101250
101253
101255
101257
101259
101260
101261
101262
101261
101261
101259
101258
101256
101254
101251
101249
101246
101243
101240
101237
101234
101230
101226
101223
101219
101216
101212
101209
101206
101204
101201
101199
101198
101196
101195
101194
101193
101193
101193
101194
101195
101196
101199
101201
101205
101208
101211
101215
101219
101224
101230
101236
101242
101249
101256
101263
101271
101278
101286
101294
101303
101312
101321
97781.8
97781.7
97778.7
97773.9
97770.1
97764.7
97757.4
97749.2
97740.5
97731.6
97722.3
97711.8
97700.3
97688.8
97677.3
97665.5
97651.8
97639.7
97627.4
97615.6
97604
97592.7
97582.1
97570.8
97559.1
97547.9
97536.7
97525.3
97514.2
97503.5
97491.1
97478.6
97465.5
97453.4
97439.5
97422.5
97410.2
97395.2
97380.3
97365.9
97351.3
97335.6
97323.4
97307.8
97297
97283.7
97270.7
97265.3
97259.1
97255.5
97253.6
97255.9
97258.7
97265.1
97277.8
97287.9
97300.9
97315.8
97332.2
97347
97361.6
97376.6
97395.1
97407.2
97421.8
97434.6
97444.6
97453.8
97459.7
97463
97465.2
97464.4
97461
97457.1
97450.9
97451.1
97443.1
97439.9
97435
97428
97431.7
97421.1
97433.5
97433.7
97449.8
97459.6
97477.8
97494.2
97514.7
97536.5
97557.1
97586.8
97622.7
97658
97696.3
97737
97779.7
97821.8
97866.7
97906.9
97943.7
97980.1
98012.8
98041.8
98070.4
98099
98128.6
98157.1
98185.3
98213.7
98239.4
98263.8
98288.1
98300.5
98315.3
98329.3
98344
98355.9
98362.3
98365.5
98366.8
98369.4
98369.7
98367.3
98363.3
98355.3
98348.2
98341.8
98333.6
98324.9
98315.8
98308.9
98290.8
98278.3
98265.1
98256.4
98247.3
98233.4
98232.3
98228.1
98221.6
98209.1
98204.8
98199.7
98197.5
98195.5
98194.5
98194.2
98196.2
98197.4
98200
98203.7
98207.3
98211.2
98214.5
98216
98215.2
98212.8
98209.4
98206.3
98202.5
98200.7
98199.8
98198
98195.5
98193.8
98190.9
98186.2
98182.4
98178.8
98174.9
98170.5
98167.7
98165.7
98163.9
98162
98160.1
98159.1
98158.2
98158
98162.4
98167.4
98170
98163.9
98161
98164.2
98168.3
98166.1
98170.8
98178.4
98181.9
98183.5
98190.4
98202.4
98209.4
98216.2
98218.8
98218.9
98223.8
98230.8
98235.2
98242.5
98249.4
98255.2
98262.9
98272.8
98280.4
98276.4
98281.5
98288.8
98291.5
98302.9
98312
98313.5
98318.4
98334.4
98338.1
98329.3
98324
98328.4
98324.5
98317.4
98318.5
98319.2
98316.4
98315.5
98312.6
98301.9
98291.1
98281.5
98266.8
98253
98242.7
98233.8
98221.7
98208.6
98197.3
98180.7
98163.8
98155.2
98139.2
98127.4
98117.2
98112.4
98110.5
98100.3
98098.4
98106.2
98112
98115.7
98127
98136.5
98148.1
98159.8
98176.7
98192.2
98199.3
98206.2
98216.9
98228.8
98240.6
98251.9
98261.8
98266.7
98274.6
98285.6
98295.1
98303.3
98310.7
98317.4
98322.1
98329.2
98335.2
98338.9
98347.2
98354.3
98361.6
98375
98385.7
98396.3
98409.3
98417.2
98422.5
98434.9
98451.1
98463.7
98471.5
98487.9
98502.7
98517.8
98534.4
98552.8
98564
98576.8
98594
98612.2
98635
98654.2
98680.4
98703.2
98726.8
98752.4
98779.1
98809.9
98838
98868.1
98904.7
98935.9
98968.6
99001.7
99036
99070.4
99104.9
99140.8
99169.1
99202.4
99241.6
99281.8
99318
99355.3
99392.9
99431
99468.1
99504.2
99541.2
99578.8
99614.8
99644.2
99673.3
99702.9
99733.1
99759.7
99784.9
99810.4
99834.1
99854
99874.6
99898.7
99922.3
99942.7
99962.2
99981.4
99999.7
100015
100029
100044
100059
100072
100084
100095
100106
100116
100127
100136
100148
100166
100178