/*--------------------------------*- C++ -*----------------------------------*\
| =========                 |                                                 |
| \\      /  F ield         | OpenFOAM: The Open Source CFD Toolbox           |
|  \\    /   O peration     | Version:  v1812                                 |
|   \\  /    A nd           | Web:      www.OpenFOAM.com                      |
|    \\/     M anipulation  |                                                 |
\*---------------------------------------------------------------------------*/
FoamFile
{
    version     2.0;
    format      ascii;
    class       surfaceScalarField;
    location    "1.1";
    object      phi;
}
// * * * * * * * * * * * * * * * * * * * * * * * * * * * * * * * * * * * * * //

dimensions      [1 0 -1 0 0 0 0];
oriented        oriented;


internalField   nonuniform List<scalar> 
40240
(
0.00016371
-0.000116933
0.000266936
-5.73925e-05
0.00029584
1.75013e-05
0.000273709
6.38157e-05
0.000273421
4.34336e-05
0.000280205
3.85103e-05
0.000282035
4.22387e-05
0.000279671
4.79607e-05
0.000269021
5.67694e-05
0.000241676
7.35199e-05
0.000197158
9.01587e-05
0.000143182
9.91539e-05
9.53078e-05
9.3768e-05
5.46524e-05
8.51993e-05
1.22384e-05
8.038e-05
-7.64067e-06
4.87428e-05
-3.40963e-06
2.21577e-05
1.68878e-05
4.62039e-06
5.45323e-05
-1.21865e-05
8.5905e-05
-8.16956e-06
0.000160336
-5.79511e-05
0.000274388
-0.000100586
0.000401142
-0.000114383
0.000540612
-0.000131511
0.000700926
-0.00015801
0.000876155
-0.000167431
0.00105454
-0.000173523
0.00121783
-0.00016316
0.00136545
-0.000149744
0.00148903
-0.000126651
0.00157292
-9.07667e-05
0.00160838
-4.72944e-05
0.00161413
-2.08619e-05
0.00160238
-4.36584e-06
0.00151805
6.72884e-05
0.00133738
0.000161807
0.00112698
0.000189399
0.000870676
0.000235557
0.000575979
0.000275152
0.000281206
0.000273542
-3.91531e-05
0.000294865
-0.000455466
0.000384076
-0.000959029
0.000469881
-0.00147695
0.000485773
-0.00195789
0.000449696
-0.00240982
0.000419982
-0.00284821
0.000408983
-0.00324078
0.00036267
-0.00351581
0.000244733
-0.00368583
0.000138499
-0.00372575
7.04728e-06
-0.00366059
-0.000100006
-0.00350918
-0.000187968
-0.00323776
-0.000307145
-0.00284594
-0.000427241
-0.00240859
-0.000473147
-0.00190977
-0.000536661
-0.00136458
-0.000583223
-0.000787801
-0.000615605
-0.000215855
-0.000611328
0.000305881
-0.000561701
0.000772594
-0.000506379
0.00122971
-0.000494168
0.00150712
-0.000311792
0.0015425
-6.85955e-05
0.00146527
4.40936e-05
0.00141128
2.44971e-05
0.00136506
-1.66037e-05
0.00135887
-6.95645e-06
0.00143291
-0.000101344
0.00158518
-0.000179129
0.0016595
-0.000100017
0.00153083
0.000106355
0.00102394
0.000487229
3.86042e-05
0.000967778
-0.00139589
0.00141748
-0.0032351
0.00182629
-0.00531391
0.0020771
-0.00754956
0.00225013
-0.00987432
0.00235517
-0.0122534
0.00238892
-0.0145802
0.00231843
-0.0167254
0.00213829
-0.0186323
0.00191033
-0.0203183
0.00170636
-0.0218096
0.00152306
-0.0231826
0.00141514
-0.0245
0.00136521
-0.0257145
0.00126272
-0.0266685
0.00101255
-0.0273983
0.000792234
-0.0279395
0.000644051
-0.0281286
0.000306462
-0.0281473
5.65431e-05
-0.027928
-0.000194439
-0.0272769
-0.000528288
-0.0264236
-0.000698532
-0.0256893
-0.000610916
-0.025191
-0.000394098
-0.0240201
-0.0010893
-0.0228077
-0.00110047
-0.021369
-0.00129781
-0.019631
-0.00159938
-0.0176933
-0.00181346
-0.0156592
-0.00191865
-0.01352
-0.00200901
-0.0112686
-0.00207324
-0.00900906
-0.00205192
-0.00699176
-0.00186025
-0.00480388
-0.00203618
-0.00251057
-0.00213072
-0.000532907
-0.001806
0.000873393
-0.0012359
0.00246711
-0.0014255
0.00429006
-0.00164773
0.00611304
-0.00164555
0.0077127
-0.00142248
0.00897957
-0.00109104
0.00998504
-0.000829031
0.0108248
-0.000661571
0.011538
-0.000531367
0.0118204
-0.000102294
0.0125207
-0.000519435
0.0131592
-0.000458114
0.0135561
-0.000214527
0.0136585
7.80655e-05
0.0136175
0.000223889
0.0135141
0.000274569
0.0131441
0.000551004
0.0125801
0.000743575
0.0119512
0.000808351
0.0115733
0.0005575
0.0112506
0.000499476
0.0108555
0.000569823
0.00997657
0.00105545
0.00892547
0.00122294
0.00805041
0.00104429
0.00733508
0.000880463
0.00664463
0.000854229
0.00600345
0.00080418
0.00541398
0.000748661
0.0048826
0.000687112
0.004436
0.000599116
0.0041017
0.000482696
0.00389697
0.000350882
0.00382602
0.000211851
0.00382927
0.000136934
0.00400979
-4.89887e-05
0.0044276
-0.000289428
0.00507097
-0.000520672
0.00587502
-0.000685585
0.00674131
-0.000753116
0.0075577
-0.000709103
0.00824754
-0.000590131
0.00880325
-0.000464598
0.00926122
-0.00037429
0.00967083
-0.000331913
0.0100523
-0.000309873
0.0104196
-0.00030284
0.0107696
-0.00029353
0.01108
-0.000260711
0.0113228
-0.00020077
0.0114724
-0.000114783
0.0115253
-2.54418e-05
0.0115295
1.61007e-05
0.0115022
4.0302e-05
0.0114381
7.01342e-05
0.0113282
0.000108177
0.0111864
0.000133162
0.011016
0.000154581
0.0108304
0.000163356
0.010635
0.000166924
0.0104222
0.000178139
0.0101794
0.000202193
0.00990077
0.000231603
0.0095801
0.000266766
0.0092122
0.000306814
0.00882143
0.000323116
0.00842147
0.000326109
0.00801752
0.00032524
0.00761673
0.000317546
0.00722138
0.00030767
0.00681193
0.000315883
0.00641711
0.000298529
0.00605084
0.000266258
0.00568681
0.000259903
0.00530146
0.000277916
0.00493269
0.000259164
0.00459859
0.000221936
0.00426365
0.000220136
0.00390277
0.000244261
0.00352561
0.000260046
0.00314269
0.000264827
0.00274783
0.000276174
0.00234111
0.000287506
0.00193148
0.000290312
0.00153278
0.000279645
0.00116019
0.000254415
0.000828323
0.000215353
0.00054839
0.000165406
0.000318367
0.000118086
0.000129118
8.01828e-05
-3.47641e-05
5.79203e-05
-0.00019616
5.84866e-05
-0.000370898
7.51077e-05
-0.000553541
8.67474e-05
-0.000717727
7.19638e-05
-0.000819515
1.35569e-05
-0.000847175
-5.66858e-05
-0.000819217
-0.000107624
-0.000720595
-0.000172673
-0.000609763
-0.000180058
-0.000553382
-0.000116487
-0.00055973
-5.21923e-05
-0.000607809
-2.25497e-06
-0.000603774
-4.95123e-05
-0.0005952
-4.92902e-05
-0.000697817
6.84443e-05
-0.000850416
0.00012567
-0.000952611
7.96018e-05
-0.000960009
-9.91862e-06
-0.000912299
-5.82864e-05
-0.000810048
-0.00010421
-0.000703799
-0.000102554
-0.000666779
-2.70117e-05
-0.000747786
9.64482e-05
-0.00104565
0.000317891
-0.00153214
0.000513688
-0.00201126
0.000512225
-0.00244451
0.000471673
-0.00292453
0.000524552
-0.00343276
0.000560762
-0.00394084
0.000568149
-0.00448567
0.000612574
-0.00511955
0.000707629
-0.00586846
0.000829777
-0.00671616
0.000933847
-0.00760914
0.000984234
-0.00851687
0.00100684
-0.00936324
0.000951272
-0.0101639
0.000910723
-0.0109216
0.000874337
-0.0115293
0.000729414
-0.0118609
0.000458651
-0.012038
0.000310957
-0.0121384
0.000241457
-0.0121365
0.000144131
-0.0119739
-1.72748e-05
-0.0117815
-4.14465e-05
-0.0113825
-0.000243708
-0.0107828
-0.000442705
-0.0101433
-0.000479233
-0.00956733
-0.0004137
-0.00899754
-0.000404553
-0.00828898
-0.000540736
-0.0074244
-0.000695255
-0.00648525
-0.000768244
-0.00551589
-0.000796491
-0.00450708
-0.000834759
-0.0035261
-0.000807872
-0.00263653
-0.000717431
-0.00174897
-0.000715238
-0.000788522
-0.000789286
7.47261e-05
-0.000695484
0.000779639
-0.000538044
0.0013449
-0.000400297
0.00180947
-0.000301011
0.0022276
-0.000255369
0.00264602
-0.000257995
0.00302078
-0.000216089
0.00333697
-0.000159732
0.00360841
-0.000117154
0.00384023
-7.9757e-05
0.00403064
-4.20531e-05
0.00416203
1.3892e-05
0.00423766
6.60796e-05
0.0042442
0.00013154
0.0042364
0.000142078
0.00417839
0.000188519
0.00408369
0.000221801
0.00396679
0.000239504
0.0038006
0.000284003
0.00361278
0.000302309
0.00350215
0.000222646
0.00339259
0.000217999
0.00319833
0.000297782
0.00299146
0.000312559
0.00288857
0.00020334
0.00270521
0.000280775
0.00228644
0.000513331
0.00169065
0.000688605
0.00105052
0.000730416
0.00037611
0.000762131
-0.000271238
0.000734155
-0.000882562
0.000697352
-0.00147601
0.000677835
-0.00206565
0.000673984
-0.0026568
0.000674164
-0.00322407
0.000649661
-0.00372808
0.000586413
-0.00416287
0.000517586
-0.00454696
0.000467072
-0.00487957
0.00041647
-0.00517886
0.000384204
-0.0053965
0.000303014
-0.00557362
0.000263428
-0.00570471
0.000218692
-0.00574261
0.000129128
-0.00563532
-1.47971e-05
-0.00541587
-0.000124123
-0.00516612
-0.000151531
-0.00490099
-0.000164062
-0.00463732
-0.000160077
-0.00438171
-0.000149348
-0.00413196
-0.000140958
-0.00388312
-0.000137391
-0.00362955
-0.000139236
-0.00335308
-0.000159026
-0.00306171
-0.000170595
-0.00277
-0.000167901
-0.00245392
-0.000187042
-0.00201878
-0.000301161
-0.00147647
-0.000404024
-0.000880205
-0.000453304
-0.000286703
-0.000447057
0.00028668
-0.000422109
0.000856753
-0.000413969
0.00142682
-0.000409648
0.00198096
-0.000389755
0.00255304
-0.000400832
0.00316381
-0.000433534
0.00370736
-0.000364781
0.00408749
-0.000194538
0.00437794
-0.00010023
0.00462483
-5.16269e-05
0.00485081
-2.62587e-05
0.00509359
-3.75616e-05
0.00538834
-8.41485e-05
0.00572454
-0.000121237
0.00604197
-9.78902e-05
0.00631006
-4.42401e-05
0.00651862
2.02106e-05
0.00668197
6.99543e-05
0.00679755
0.000123249
0.00686547
0.000173756
0.00689108
0.000221164
0.00690295
0.000239943
0.00690702
0.000248466
0.00691515
0.000247011
0.00692457
0.000249338
0.00692939
0.000257328
0.00693132
0.000262196
0.00692526
0.000273851
0.00694098
0.000256403
0.00696399
0.00025019
0.00698934
0.000249387
0.00704445
0.000220803
0.00711812
0.000203003
0.00718583
0.000208471
0.00726714
0.000195009
0.00737827
0.00016428
0.00746229
0.000189014
0.00749834
0.000232665
0.00752109
0.000245786
0.0075563
0.000228456
0.00757164
0.000246278
0.00756636
0.00026379
0.00756045
0.000262841
0.00759501
0.000217941
0.00768171
0.000161526
0.00780838
0.000117296
0.00799831
4.92984e-05
0.00821891
1.31851e-05
0.0084144
3.19486e-05
0.00856515
7.08446e-05
0.00869153
8.96519e-05
0.00874574
0.000154997
0.00877058
0.000178267
0.00878932
0.00017952
0.00878461
0.000195692
0.00877081
0.000196646
0.00874473
0.000201308
0.00876711
0.000148696
0.00884422
8.32472e-05
0.00893364
6.50482e-05
0.00902426
5.62838e-05
0.00910504
5.83326e-05
0.00918975
4.67123e-05
0.00929414
2.01696e-05
0.00941547
-4.96314e-06
0.00954909
-2.31126e-05
0.0096951
-4.2328e-05
0.00984724
-5.51279e-05
0.00995552
-1.78259e-05
0.0100445
-5.42179e-06
0.0101222
-1.66444e-06
0.0101869
4.29149e-06
0.0102498
-4.52254e-07
0.0103294
-2.34437e-05
0.0104245
-4.46042e-05
0.0105151
-4.57741e-05
0.0105903
-3.57684e-05
0.0106482
-2.40281e-05
0.0107021
-2.51174e-05
0.0107684
-4.28065e-05
0.0108453
-5.84633e-05
0.0109145
-5.53209e-05
0.0109621
-3.73859e-05
0.0109939
-2.54716e-05
0.0110184
-2.12901e-05
0.0110537
-3.48392e-05
0.0110974
-4.60905e-05
0.011138
-4.55028e-05
0.0111626
-3.17293e-05
0.0111696
-1.62695e-05
0.0111661
-7.66435e-06
0.0111642
-1.19078e-05
0.0111611
-1.03947e-05
0.0111556
-8.64396e-06
0.0111486
-7.48893e-06
0.011143
-8.91341e-06
0.0111371
-8.46035e-06
0.0111264
-3.19106e-06
0.0111125
5.67767e-07
0.0111
5.13323e-07
0.0110906
-1.2886e-06
0.0110829
-1.704e-06
0.0110747
8.93985e-07
0.0110645
4.97344e-06
0.0110497
1.18622e-05
0.0110263
2.27582e-05
0.0110025
2.62441e-05
0.0109811
2.73358e-05
0.010961
2.96259e-05
0.0109458
2.82292e-05
0.0109414
1.98164e-05
0.010953
8.72938e-06
0.0109739
3.78283e-06
0.0109996
3.20221e-06
0.0110321
5.20026e-07
0.0110712
-1.5443e-06
0.0111136
-4.22418e-07
0.0111545
5.97462e-06
0.0111872
1.87941e-05
0.011216
2.71212e-05
0.0112437
3.21408e-05
0.0112717
3.63256e-05
0.0113077
3.27343e-05
0.0113608
1.99378e-05
0.0114256
1.24125e-05
0.0115032
3.75553e-06
0.0115849
3.36961e-06
0.0116705
3.13091e-06
0.0117571
5.60284e-06
0.011844
8.69041e-06
0.01193
1.28944e-05
0.012012
1.96922e-05
0.0120909
2.5407e-05
0.0121719
2.56275e-05
0.0122605
1.99807e-05
0.0123647
6.35989e-06
0.0124821
-5.42269e-06
0.0126044
-9.39564e-06
0.0127279
-9.52459e-06
0.0128477
-5.4153e-06
0.0129618
6.57341e-07
0.01307
6.63078e-06
0.0131704
1.4084e-05
0.0132606
2.3857e-05
0.0133424
3.16093e-05
0.0134184
3.62675e-05
0.0134962
3.29697e-05
0.0135844
2.08311e-05
0.0136842
7.42638e-06
0.0137863
3.44712e-06
0.0138809
8.79196e-06
0.0139709
1.07302e-05
0.0140601
8.91887e-06
0.0141431
1.22098e-05
0.014221
1.39496e-05
0.0142944
1.52272e-05
0.0143587
2.055e-05
0.0144178
2.22438e-05
0.0144814
1.38371e-05
0.0145444
1.01555e-05
0.0145955
1.7777e-05
0.014639
2.11881e-05
0.0146806
1.86428e-05
0.0147153
2.12536e-05
0.0147436
2.30519e-05
0.0147655
2.49466e-05
0.014783
2.47507e-05
0.0148023
1.8163e-05
0.0148296
5.43221e-06
0.0148572
1.20827e-07
0.0148801
-3.69111e-08
0.0148956
2.23023e-06
0.0149065
1.89798e-06
0.0149149
-7.69748e-07
2.29518e-07
1.10903e-05
-7.75343e-05
2.43294e-05
-2.03706e-05
2.62795e-05
6.47191e-05
1.31183e-05
0.000122647
-9.30165e-07
0.000106316
-1.49317e-05
0.000100556
-3.16799e-05
0.000106996
-4.81603e-05
0.000112454
-6.45938e-05
0.000121407
-8.30545e-05
0.000139639
-0.000101703
0.000154798
-0.000116009
0.000157238
-0.000125524
0.000143487
-0.000135477
0.000131655
-0.000138018
0.000116512
-0.000126055
7.13798e-05
-9.90924e-05
2.87297e-05
-6.17287e-05
-3.57305e-06
-6.5617e-06
-4.02051e-05
6.46576e-05
-5.23729e-05
0.000153826
-0.000128322
0.000265009
-0.000195408
0.000402162
-0.000240242
0.000548658
-0.000267991
0.000677088
-0.000275927
0.000800071
-0.000282248
0.000923917
-0.000294511
0.00104043
-0.000279529
0.00114653
-0.000254425
0.00123283
-0.000212642
0.00129246
-0.000156004
0.00132184
-8.70124e-05
0.00132261
-3.29911e-05
0.00129084
1.42301e-05
0.00122381
0.000120187
0.00111774
0.000252986
0.000996915
0.000292358
0.000840672
0.000372205
0.000545285
0.000550521
0.000170094
0.000626768
-0.000227608
0.000668777
-0.000642107
0.000776985
-0.00101836
0.000822587
-0.00138358
0.000826247
-0.0017541
0.000791926
-0.0020924
0.000729344
-0.00240774
0.000694761
-0.00266446
0.000586833
-0.00283182
0.000379046
-0.00290506
0.000177294
-0.00285928
-7.24656e-05
-0.00264854
-0.000346593
-0.00234844
-0.000524019
-0.0020404
-0.000647457
-0.00166946
-0.000829578
-0.00120128
-0.000976616
-0.000651164
-0.00112337
-3.80361e-05
-0.00123231
0.000604081
-0.00129417
0.00122774
-0.00127282
0.00179284
-0.00116575
0.00225781
-0.00101118
0.00262985
-0.000901249
0.0028149
-0.00052942
0.0027823
-6.73933e-05
0.00236307
0.000429823
0.00139589
0.000951688
0.000437445
0.000946744
-0.000614762
0.0010076
-0.00175305
0.00101028
-0.00301621
0.00105946
-0.00448205
0.0013431
-0.00617709
0.00178145
-0.00800778
0.00230254
-0.00996973
0.00291879
-0.0121141
0.00355416
-0.0146929
0.00439671
-0.0177603
0.00514119
-0.021144
0.00564976
-0.0245836
0.00583219
-0.0279336
0.00579022
-0.0310698
0.00547543
-0.0338748
0.00493987
-0.0363365
0.0043778
-0.03846
0.00385791
-0.0401071
0.00320552
-0.041239
0.00258868
-0.0418824
0.00205841
-0.0420252
0.00146815
-0.0421865
0.00122406
-0.0420738
0.000664309
-0.0417518
0.000483108
-0.0410145
-0.000313316
-0.0400623
-0.000994279
-0.0391387
-0.00139876
-0.0378282
-0.00146448
-0.0358026
-0.00227381
-0.0337439
-0.00269364
-0.0313559
-0.0028468
-0.0282963
-0.00404336
-0.0250802
-0.0041388
-0.0223617
-0.00389162
-0.0201181
-0.00373833
-0.0180469
-0.00375411
-0.0159409
-0.00386635
-0.0137382
-0.00404891
-0.0114231
-0.00425276
-0.0090106
-0.0043553
-0.00604594
-0.00467047
-0.00270492
-0.00519863
0.000867646
-0.00552398
0.00466373
-0.00541473
0.00851061
-0.00488668
0.0123847
-0.00510019
0.0160596
-0.00511564
0.0194259
-0.00479992
0.0224867
-0.00426892
0.0252318
-0.00362423
0.027641
-0.00303031
0.0295408
-0.00235778
0.0308629
-0.00165678
0.0316819
-0.000730189
0.0320148
-0.00065352
0.0323529
-0.00060655
0.032388
-6.11928e-05
0.0320621
0.000587902
0.0313844
0.00108471
0.0304913
0.00134772
0.0296884
0.00153609
0.0291359
0.00147978
0.0286684
0.00145659
0.0278379
0.00156646
0.0260502
0.00246414
0.0240939
0.0026992
0.0222823
0.00304543
0.0207126
0.00296621
0.0193008
0.00262486
0.0180201
0.00233067
0.0171678
0.00187748
0.0167243
0.001418
0.0164303
0.00120427
0.0161089
0.00116503
0.0158025
0.0010567
0.0156105
0.000821834
0.0155709
0.000534498
0.0156728
0.000249054
0.0160174
-7.27014e-05
0.0166093
-0.000511282
0.0174912
-0.00104551
0.0186908
-0.00159923
0.0201871
-0.00206277
0.0218938
-0.00234413
0.0236614
-0.00236668
0.0253082
-0.00213218
0.0266269
-0.00168833
0.0275133
-0.00117394
0.0280774
-0.000816435
0.0285102
-0.000669291
0.0289439
-0.000670508
0.0294318
-0.000722111
0.029972
-0.000748232
0.0304677
-0.000650865
0.0308505
-0.000459677
0.0310898
-0.000235023
0.0311818
-5.34343e-05
0.0311817
5.59835e-05
0.0311433
0.000117265
0.0310655
0.0001869
0.0309251
0.000268068
0.0307228
0.000344294
0.0304638
0.000403839
0.0301629
0.000443531
0.0298253
0.000485957
0.0294456
0.000546275
0.029013
0.000622337
0.0285207
0.000710301
0.0279616
0.000809956
0.0273508
0.000871268
0.0267016
0.000906962
0.0260501
0.000903627
0.0254241
0.000865907
0.024817
0.000832338
0.0242018
0.000842057
0.0235974
0.000811618
0.0230382
0.000729219
0.0224774
0.000721332
0.0218691
0.000782286
0.0212245
0.000797356
0.0205947
0.0007433
0.0199861
0.000717295
0.0193731
0.000743258
0.0187408
0.000776862
0.0181062
0.000783046
0.0174731
0.000792041
0.0168416
0.000800998
0.0162182
0.00079556
0.0156212
0.000758511
0.0150731
0.00068506
0.0145814
0.00059049
0.0141451
0.000486824
0.013758
0.000392278
0.0134076
0.000320377
0.013084
0.000274349
0.0127794
0.000259123
0.0124925
0.000261218
0.0122202
0.000261806
0.011967
0.000230415
0.0117449
0.0001439
0.0115663
3.36415e-05
0.0114742
-9.99963e-05
0.0114018
-0.000179315
0.0113024
-0.000153856
0.0111275
-7.20986e-06
0.0109008
0.000114811
0.010669
0.000178256
0.0105473
2.65577e-05
0.0104479
1.11362e-05
0.0102248
0.000257668
0.00978843
0.000534477
0.00922484
0.000621109
0.00867193
0.000525548
0.00816776
0.000435139
0.00767032
0.000390246
0.00708771
0.000484636
0.00633926
0.000731332
0.00540963
0.00104204
0.00433642
0.00141217
0.00317236
0.0017052
0.00208427
0.00163424
0.00113075
0.0014654
0.000217323
0.00148394
-0.000696282
0.00152822
-0.00160872
0.00154209
-0.00253409
0.00160718
-0.00348991
0.00173893
-0.00451413
0.00193592
-0.00558253
0.00208893
-0.0066376
0.0021311
-0.00766727
0.00213557
-0.00857708
0.00196516
-0.00935687
0.00179964
-0.0100321
0.00166488
-0.010506
0.00132442
-0.0106874
0.000766278
-0.0106582
0.000415036
-0.0104406
0.000160456
-0.00995414
-0.000201102
-0.00912937
-0.000697975
-0.00810244
-0.00091936
-0.00675003
-0.00144356
-0.00508321
-0.00195488
-0.00319634
-0.00220812
-0.00127253
-0.00217759
0.000464929
-0.00198097
0.00193976
-0.00185307
0.00324437
-0.00183498
0.00448279
-0.00184005
0.00570906
-0.00185427
0.00697469
-0.00193024
0.0082441
-0.00190726
0.00943208
-0.00173536
0.0105809
-0.00169336
0.0118811
-0.00191704
0.0132461
-0.00189102
0.0145853
-0.00170799
0.0158801
-0.0015275
0.0171023
-0.0013561
0.018224
-0.00121289
0.0191641
-0.00103515
0.0198162
-0.000707645
0.0202212
-0.000406765
0.0204899
-0.000229681
0.0207343
-0.000169129
0.0209682
-0.000125093
0.0211235
5.92721e-06
0.0211714
0.000161551
0.0211404
0.00030226
0.0210089
0.00041022
0.0207845
0.000544808
0.0204432
0.000691719
0.0199707
0.000835576
0.0193807
0.000993119
0.018729
0.00106984
0.0181515
0.000913694
0.0176663
0.000812544
0.0171496
0.000918538
0.0165724
0.000994887
0.0160653
0.000811017
0.0155543
0.000889801
0.014824
0.001337
0.0137301
0.00187231
0.0122347
0.00231233
0.01055
0.00253201
0.00907461
0.00229451
0.00793864
0.00191768
0.00708168
0.001618
0.0063656
0.00147302
0.00575478
0.00136689
0.00523651
0.00124944
0.00477504
0.00112843
0.00436855
0.001005
0.00404474
0.000872062
0.00383096
0.000712784
0.00373505
0.000563858
0.00371235
0.000409377
0.00371505
0.000344523
0.00373682
0.00028307
0.00382173
0.000133093
0.00403848
-0.00013964
0.00445468
-0.00044464
0.00495343
-0.000551672
0.00550078
-0.000609227
0.00611102
-0.000664726
0.00678414
-0.000713703
0.00752205
-0.000767049
0.00833892
-0.000839387
0.0092727
-0.000954536
0.0103895
-0.00115339
0.0117283
-0.00138285
0.0132589
-0.00156882
0.0148489
-0.00164318
0.016337
-0.00165283
0.0175879
-0.00151537
0.0185546
-0.00127842
0.019264
-0.00101061
0.0198636
-0.000870235
0.0204715
-0.000864899
0.0211104
-0.000886152
0.021722
-0.000833417
0.0223039
-0.00080779
0.0230089
-0.000953493
0.0239162
-0.00108531
0.024786
-0.000871689
0.0256146
-0.000732239
0.0264091
-0.000644118
0.0272064
-0.000617026
0.0279831
-0.00060387
0.0286509
-0.000539133
0.0291309
-0.000385342
0.0294202
-0.000168364
0.0295775
2.17386e-05
0.0296857
0.000139903
0.0297752
0.000213417
0.0298363
0.000300469
0.0298445
0.00040749
0.0297799
0.000532726
0.0296331
0.000636953
0.0294415
0.000693672
0.0292631
0.000680863
0.0290979
0.000672607
0.0289398
0.000676169
0.028796
0.000670458
0.0286759
0.000660747
0.0285853
0.000618109
0.0284859
0.000622099
0.0283766
0.00063288
0.0282854
0.000587348
0.028207
0.000556522
0.0281336
0.000556749
0.0280091
0.000591726
0.0278887
0.000559261
0.0278166
0.000533039
0.0277494
0.000569263
0.0276989
0.000565334
0.0276139
0.000576935
0.0274454
0.000676849
0.0272522
0.000716469
0.0271349
0.000637869
0.0271223
0.000484337
0.0271624
0.000370869
0.0272304
0.000294331
0.0272912
0.000227508
0.0273792
0.000159744
0.0275055
0.000134211
0.0276026
0.000196214
0.0276809
0.000228534
0.027739
0.000308183
0.027808
0.000313515
0.0278572
0.00032968
0.0278747
0.000369244
0.0278727
0.000382958
0.0278691
0.000381934
0.0278946
0.000292775
0.0279328
0.000207204
0.0280232
0.000130582
0.0281804
4.69865e-05
0.0283894
-1.08493e-05
0.0286171
-4.79967e-05
0.028829
-6.71883e-05
0.0290261
-8.52432e-05
0.0292127
-9.85895e-05
0.0294413
-0.000166018
0.0297404
-0.000256505
0.0300414
-0.000227609
0.0303061
-0.000186534
0.0305034
-0.000122657
0.0306425
-6.54049e-05
0.030762
-5.71757e-05
0.0309024
-0.000106731
0.0311051
-0.000196035
0.0313591
-0.000253841
0.0316433
-0.000279757
0.0319343
-0.000280456
0.0322157
-0.00027743
0.0324718
-0.000275476
0.0326725
-0.000241091
0.0328099
-0.000179115
0.0328953
-0.000113389
0.0329416
-6.57542e-05
0.0329745
-5.12797e-05
0.0330196
-7.95659e-05
0.0331089
-0.000137439
0.0332407
-0.000182011
0.0333903
-0.000188452
0.033532
-0.000167284
0.0336552
-0.000141993
0.0337564
-0.00012593
0.0338313
-9.92832e-05
0.0338785
-7.05514e-05
0.0339046
-4.88282e-05
0.0339185
-3.78786e-05
0.0339227
-2.75496e-05
0.0339211
-1.63271e-05
0.033921
-1.35287e-05
0.0339266
-1.6922e-05
0.0339333
-1.85197e-05
0.0339339
-1.25631e-05
0.0339193
8.3143e-06
0.0338986
2.04449e-05
0.0338833
2.43455e-05
0.0338754
2.99362e-05
0.0338779
2.57861e-05
0.0338895
2.19904e-05
0.0339026
2.63864e-05
0.0339117
3.14419e-05
0.0339157
3.21541e-05
0.0339142
3.0127e-05
0.0339039
3.87946e-05
0.0339008
3.52459e-05
0.033903
3.09809e-05
0.0339156
2.34102e-05
0.0339418
1.5491e-05
0.0339823
1.24566e-05
0.0340327
2.02163e-05
0.0340894
2.65525e-05
0.0341454
3.65094e-05
0.0341936
5.26991e-05
0.0342353
5.99146e-05
0.0342761
5.24912e-05
0.034317
4.88988e-05
0.0343615
4.07759e-05
0.0344107
3.93132e-05
0.0344718
3.08062e-05
0.034545
2.48012e-05
0.0346313
1.83572e-05
0.0347309
1.2552e-05
0.0348397
1.30281e-05
0.0349507
1.91874e-05
0.0350624
2.08697e-05
0.0351725
1.89452e-05
0.0352835
5.9774e-06
0.0353917
-1.49468e-06
0.0354993
-3.92127e-06
0.0356066
-2.716e-06
0.0357143
1.31247e-06
0.0358201
9.66268e-06
0.0359271
1.44639e-05
0.0360395
1.64374e-05
0.0361536
2.40847e-05
0.0362675
3.13866e-05
0.0363766
3.96952e-05
0.0364802
4.03646e-05
0.0365811
2.90805e-05
0.0366771
1.87904e-05
0.0367652
2.07873e-05
0.0368411
3.621e-05
0.036917
3.58267e-05
0.0369996
2.4622e-05
0.0370934
1.38329e-05
0.0371951
4.16951e-06
0.0373043
-5.08493e-06
0.0374068
3.02225e-06
0.0374965
1.3796e-05
0.0375756
1.1999e-05
0.0376348
2.38501e-05
0.037671
5.03344e-05
0.0377012
5.56967e-05
0.0377347
4.53301e-05
0.0377767
3.52969e-05
0.0378276
2.38189e-05
0.0378829
1.67122e-05
0.0379318
1.82211e-05
0.037973
1.42195e-05
0.0380086
2.47384e-06
0.0380264
9.94054e-06
0.0380329
1.61674e-05
0.0380383
1.44005e-05
0.0380432
9.79445e-06
0.0380474
2.65398e-06
1.50644e-06
7.91692e-05
-0.000108386
0.000128171
-2.28237e-05
0.000151259
8.80279e-05
0.000140908
0.000176104
0.000119632
0.000173446
9.08105e-05
0.000174581
5.70756e-05
0.000185889
2.4421e-05
0.000189966
-5.21028e-06
0.000195884
-3.86874e-05
0.000217336
-7.39094e-05
0.000232703
-0.000102436
0.00022619
-0.000120532
0.000199146
-0.000124864
0.000171692
-9.12897e-05
0.000119229
-4.3034e-05
5.81671e-05
1.15899e-05
6.39426e-06
7.2974e-05
-3.58699e-05
0.000144716
-8.58477e-05
0.000229792
-0.000112256
0.000313317
-0.000189377
0.000410189
-0.000273355
0.000565714
-0.00037979
0.000742782
-0.000426697
0.000932523
-0.000442002
0.00112618
-0.000466828
0.0013062
-0.000474772
0.00147293
-0.00044773
0.00163241
-0.000403796
0.00175817
-0.000328365
0.00182576
-0.000233045
0.00187905
-0.000169238
0.00188856
-4.55121e-05
0.00185406
3.57284e-05
0.00176531
0.000194564
0.00159446
0.000408569
0.00139438
0.000473756
0.00115322
0.000592385
0.00083944
0.000842871
0.000419999
0.00102365
-4.28859e-05
0.0011074
-0.00041403
0.00112967
-0.0006272
0.00101095
-0.000851935
0.00102769
-0.00111246
0.00102559
-0.0013726
0.000960045
-0.00164038
0.0009315
-0.00187657
0.000788472
-0.00206763
0.000534576
-0.00221811
0.000291212
-0.00229915
-2.71296e-05
-0.00230014
-0.000382382
-0.00224691
-0.000615169
-0.00204426
-0.000890081
-0.00163491
-0.00128321
-0.00113185
-0.00152014
-0.0005267
-0.00176757
0.00014385
-0.00194221
0.000822775
-0.00201233
0.00143708
-0.00192506
0.0019422
-0.0017066
0.00235083
-0.00145448
0.00265013
-0.0012374
0.00280657
-0.000725245
0.00276561
-6.55034e-05
0.00235721
0.000805389
0.00123496
0.0020458
-0.000644978
0.00277373
-0.0029677
0.00330844
-0.00550756
0.00352497
-0.00822394
0.00374987
-0.0111954
0.00428928
-0.0144306
0.00499414
-0.017778
0.00563398
-0.0211968
0.00633053
-0.0245689
0.00692669
-0.0277799
0.0076061
-0.0306528
0.007989
-0.0331374
0.00807538
-0.035147
0.00777398
-0.0367434
0.00741515
-0.0380538
0.00692107
-0.0390906
0.0061324
-0.0400329
0.00541244
-0.0406881
0.00455009
-0.0412201
0.00376534
-0.0416493
0.00304402
-0.0419413
0.00238195
-0.0421309
0.00169115
-0.0422234
0.00135446
-0.042077
0.000619156
-0.0416491
-1.2468e-05
-0.0411666
-0.000811407
-0.0403579
-0.0015604
-0.0389973
-0.00234149
-0.0374213
-0.00327042
-0.0356079
-0.00437093
-0.0328478
-0.00534576
-0.0292868
-0.0061546
-0.0257262
-0.00748342
-0.0221025
-0.00769841
-0.0185419
-0.00736744
-0.0151021
-0.00707053
-0.0116312
-0.00710795
-0.00794736
-0.0074317
-0.00397374
-0.00790404
0.000243924
-0.00835572
0.00462524
-0.00862891
0.0088416
-0.00876439
0.0126692
-0.00889087
0.0160827
-0.00879542
0.0193148
-0.00849959
0.0222746
-0.00768507
0.025149
-0.00780521
0.028064
-0.00784919
0.0309805
-0.00752103
0.0337959
-0.0068746
0.0364255
-0.00602805
0.0388101
-0.00517497
0.0410002
-0.0043034
0.0429724
-0.00338783
0.0448405
-0.00235951
0.0462628
-0.00183382
0.0470212
-0.00113015
0.0471431
3.41182e-05
0.0468921
0.00105099
0.0463332
0.00184441
0.0454301
0.00244178
0.0442071
0.00294467
0.0426045
0.0032651
0.0405488
0.00369079
0.0381124
0.00418636
0.0359842
0.00476936
0.0341869
0.00466942
0.0332523
0.00416538
0.0330661
0.00332915
0.0329899
0.00286861
0.0326914
0.00279178
0.0318359
0.0028915
0.0305367
0.00287566
0.0294237
0.00247348
0.0286684
0.00207236
0.0282655
0.00160672
0.0281211
0.00110919
0.0282027
0.000592241
0.0285181
6.68036e-05
0.029091
-0.000516086
0.0298899
-0.00118624
0.030859
-0.0018963
0.0320363
-0.00266359
0.0334262
-0.00334187
0.034994
-0.00380242
0.0366493
-0.00391269
0.0382775
-0.00365505
0.0398069
-0.00311661
0.0412652
-0.00253843
0.0427117
-0.00217844
0.0441833
-0.00206492
0.0456476
-0.00206575
0.0469952
-0.00200831
0.0480224
-0.0017196
0.0486891
-0.00126636
0.0490654
-0.000790663
0.0492979
-0.000429289
0.04948
-0.000204873
0.0496206
-6.19606e-05
0.0496879
6.46549e-05
0.0496889
0.000190842
0.0496202
0.000334732
0.0494976
0.000457624
0.049339
0.000547323
0.0491509
0.000611394
0.0489073
0.000704604
0.0485623
0.000861476
0.0480953
0.00105428
0.0475317
0.00123264
0.0469079
0.00138543
0.0462834
0.00144249
0.045713
0.00141862
0.0451433
0.00140838
0.0445174
0.00142068
0.04381
0.00146427
0.0430448
0.001526
0.0422191
0.00155381
0.0414584
0.00140332
0.0407777
0.00130843
0.0400927
0.00136918
0.0394373
0.00135372
0.0388291
0.00124984
0.0382295
0.00121176
0.0375813
0.00128349
0.0368806
0.00136759
0.0361888
0.0013631
0.0354926
0.00137404
0.0347703
0.00140783
0.034021
0.00142903
0.033257
0.00140655
0.0324821
0.00134436
0.0317232
0.00123501
0.0310166
0.00108005
0.0303725
0.000924344
0.0298042
0.000778498
0.0292887
0.000681524
0.0287656
0.000676575
0.028154
0.000769871
0.0274003
0.000916515
0.0265926
0.000943322
0.0258986
0.00074606
0.0254514
0.000391279
0.0252382
2.56441e-05
0.0252138
-0.000238968
0.0253116
-0.000334233
0.0254972
-0.000270185
0.0255991
-5.85127e-05
0.0253085
0.000406476
0.0240924
0.00119245
0.0225567
0.00150632
0.0212701
0.00150839
0.0203724
0.0014045
0.0197387
0.00123229
0.0191575
0.00108854
0.0185059
0.00107402
0.0176609
0.0012309
0.016609
0.00153954
0.0153724
0.00197747
0.0140725
0.00235745
0.0127458
0.00275909
0.0114002
0.00307664
0.0101839
0.00288481
0.00916294
0.00252684
0.00816221
0.00253025
0.00704253
0.00270123
0.0056978
0.00294633
0.00407289
0.00329824
0.00233995
0.00354467
0.000626961
0.00372907
-0.00092634
0.00372679
-0.00224846
0.0035448
-0.00330856
0.00329568
-0.00402564
0.00278685
-0.00453114
0.00241558
-0.00483778
0.0020884
-0.00506145
0.00166877
-0.0053907
0.00122292
-0.00541739
0.000574017
-0.0051554
3.45188e-05
-0.00462479
-0.000589135
-0.00375593
-0.00142149
-0.00269842
-0.0018275
-0.00141504
-0.0025759
0.00016934
-0.0033887
0.00203351
-0.00391961
0.00421189
-0.00420133
0.00656831
-0.00418297
0.00888847
-0.00401774
0.0111797
-0.00396834
0.0135184
-0.00401934
0.0159648
-0.00413989
0.018594
-0.00439754
0.0213783
-0.00452957
0.0241313
-0.00432588
0.0263582
-0.00375843
0.0276985
-0.00309979
0.0284902
-0.00252112
0.0291656
-0.00221902
0.0298712
-0.00206868
0.0306025
-0.00192302
0.0313734
-0.00181718
0.0322722
-0.00176893
0.0331616
-0.00143284
0.034018
-0.00110006
0.0347521
-0.000802557
0.0352045
-0.000465999
0.0353649
-0.000132013
0.0353997
0.000121747
0.0353998
0.000309161
0.0353551
0.000490772
0.0351907
0.000714398
0.0348565
0.00101334
0.0343768
0.00130377
0.0338825
0.00145657
0.0333741
0.00162257
0.0329053
0.00165544