/*--------------------------------*- C++ -*----------------------------------*\
| =========                 |                                                 |
| \\      /  F ield         | OpenFOAM: The Open Source CFD Toolbox           |
|  \\    /   O peration     | Version:  v1812                                 |
|   \\  /    A nd           | Web:      www.OpenFOAM.com                      |
|    \\/     M anipulation  |                                                 |
\*---------------------------------------------------------------------------*/
FoamFile
{
    version     2.0;
    format      ascii;
    class       volScalarField;
    location    "1.1";
    object      T;
}
// * * * * * * * * * * * * * * * * * * * * * * * * * * * * * * * * * * * * * //

dimensions      [0 0 0 1 0 0 0];


internalField   nonuniform List<scalar> 
20400
(
288.531
288.519
288.496
288.462
288.426
288.387
288.349
288.314
288.284
288.26
288.244
288.237
288.238
288.248
288.266
288.292
288.325
288.364
288.409
288.459
288.513
288.567
288.622
288.676
288.728
288.776
288.821
288.861
288.898
288.932
288.962
288.991
289.02
289.049
289.079
289.112
289.148
289.184
289.223
289.264
289.306
289.346
289.385
289.425
289.465
289.504
289.541
289.575
289.612
289.648
289.688
289.737
289.793
289.863
289.945
290.039
290.146
290.261
290.38
290.494
290.589
290.65
290.665
290.639
290.561
290.422
290.239
290.038
289.835
289.65
289.498
289.379
289.293
289.237
289.204
289.195
289.205
289.236
289.278
289.323
289.365
289.402
289.435
289.461
289.481
289.5
289.517
289.532
289.547
289.566
289.584
289.601
289.62
289.632
289.641
289.64
289.643
289.632
289.624
289.627
289.623
289.637
289.652
289.664
289.674
289.679
289.676
289.679
289.653
289.632
289.607
289.564
289.472
289.437
289.393
289.345
289.302
289.264
289.232
289.206
289.188
289.172
289.146
289.128
289.111
289.095
289.086
289.072
289.07
289.066
289.063
289.064
289.076
289.09
289.093
289.105
289.117
289.131
289.143
289.159
289.176
289.192
289.208
289.226
289.243
289.261
289.278
289.294
289.306
289.315
289.321
289.323
289.325
289.325
289.325
289.324
289.323
289.319
289.313
289.305
289.293
289.28
289.264
289.247
289.229
289.211
289.194
289.176
289.159
289.142
289.127
289.114
289.104
289.097
289.095
289.099
289.108
289.122
289.143
289.17
289.203
289.243
289.287
289.337
289.392
289.449
289.51
289.575
289.643
289.712
289.781
289.849
289.913
289.974
290.03
290.081
290.13
290.174
290.216
290.255
290.291
290.326
290.358
290.389
290.417
290.444
290.469
290.492
290.514
290.535
290.553
290.57
290.586
290.602
290.617
290.64
290.664
290.688
290.719
290.754
290.793
290.835
290.881
290.929
290.978
291.025
291.07
291.111
291.151
291.186
291.212
291.235
291.254
291.27
291.281
291.287
291.289
291.288
291.283
291.277
291.268
291.257
291.241
291.231
291.218
291.205
291.192
291.18
291.161
291.148
291.129
291.109
291.085
291.059
291.034
291.008
290.98
290.949
290.918
290.884
290.845
290.806
290.769
290.726
290.682
290.639
290.596
290.554
290.515
290.477
290.442
290.409
290.379
290.352
290.327
290.307
290.289
290.275
290.266
290.261
290.26
290.262
290.267
290.279
290.292
290.306
290.324
290.346
290.369
290.388
290.411
290.435
290.459
290.487
290.516
290.546
290.577
290.608
290.641
290.675
290.71
290.745
290.78
290.814
290.85
290.883
290.914
290.944
290.977
291.006
291.036
291.068
291.101
291.137
291.174
291.212
291.252
291.293
291.335
291.376
291.417
291.46
291.503
291.547
291.593
291.639
291.685
291.731
291.776
291.822
291.87
291.918
291.962
292.007
292.051
292.095
292.138
292.181
292.224
292.263
292.301
292.334
292.366
292.395
292.423
292.448
292.472
292.494
292.515
292.535
292.554
292.571
292.586
292.602
292.614
292.627
292.639
292.65
292.659
292.669
292.679
292.688
292.695
292.703
292.712
292.721
292.729
292.737
292.748
292.758
292.769
292.781
292.794
292.807
292.819
292.833
292.845
292.858
292.873
292.887
292.901
292.916
292.934
292.951
292.968
292.986
293.004
293.023
293.042
293.062
293.081
293.102
293.124
293.144
293.165
293.186
293.207
293.229
293.25
293.271
293.293
293.314
293.335
293.356
293.377
293.398
293.419
293.439
293.459
293.479
293.498
293.517
293.535
293.553
293.57
293.586
293.603
293.619
293.634
293.649
293.663
293.676
293.689
293.702
293.714
293.725
293.736
293.746
293.756
293.765
293.774
293.782
293.789
293.795
293.801
293.807
293.813
293.818
293.822
293.826
293.83
293.833
293.836
293.838
293.839
293.84
293.84
293.841
293.841
293.84
293.84
293.84
293.839
293.838
293.836
293.835
293.833
293.832
293.83
293.828
293.827
293.825
293.824
293.823
293.821
293.82
293.818
293.817
293.816
293.815
293.815
293.815
293.815
293.816
293.817
293.819
293.82
293.822
293.825
293.827
293.83
293.834
293.837
293.841
293.846
293.851
293.855
293.861
293.866
293.872
293.878
293.885
293.892
293.899
293.906
293.914
293.921
293.929
293.936
293.943
288.494
288.481
288.459
288.428
288.392
288.356
288.32
288.288
288.262
288.242
288.23
288.225
288.229
288.241
288.262
288.291
288.327
288.37
288.417
288.468
288.521
288.575
288.628
288.68
288.729
288.775
288.818
288.857
288.894
288.927
288.959
288.989
289.019
289.05
289.082
289.117
289.155
289.196
289.237
289.283
289.329
289.377
289.426
289.475
289.524
289.572
289.615
289.654
289.692
289.727
289.763
289.803
289.848
289.901
289.964
290.037
290.121
290.213
290.311
290.409
290.498
290.561
290.582
290.562
290.493
290.362
290.163
289.939
289.722
289.539
289.406
289.323
289.281
289.27
289.281
289.317
289.371
289.444
289.527
289.615
289.697
289.776
289.856
289.93
289.995
290.058
290.12
290.183
290.26
290.321
290.4
290.462
290.536
290.583
290.592
290.627
290.681
290.68
290.667
290.695
290.709
290.723
290.739
290.761
290.786
290.808
290.822
290.819
290.823
290.818
290.788
290.708
290.552
290.446
290.32
290.16
289.986
289.818
289.671
289.546
289.438
289.351
289.265
289.195
289.137
289.095
289.067
289.046
289.034
289.026
289.025
289.012
289.022
289.026
289.037
289.054
289.067
289.08
289.097
289.126
289.157
289.186
289.215
289.247
289.279
289.314
289.351
289.389
289.425
289.458
289.479
289.487
289.483
289.472
289.458
289.445
289.437
289.433
289.429
289.421
289.409
289.391
289.37
289.346
289.321
289.296
289.273
289.249
289.226
289.202
289.177
289.151
289.126
289.101
289.077
289.057
289.04
289.028
289.021
289.021
289.026
289.037
289.053
289.073
289.102
289.134
289.17
289.211
289.259
289.313
289.374
289.437
289.504
289.569
289.632
289.691
289.747
289.8
289.853
289.904
289.954
290.003
290.052
290.099
290.146
290.193
290.243
290.295
290.351
290.408
290.464
290.513
290.554
290.584
290.605
290.629
290.648
290.667
290.69
290.714
290.743
290.777
290.819
290.869
290.924
290.978
291.029
291.073
291.112
291.143
291.166
291.181
291.193
291.203
291.209
291.208
291.203
291.193
291.176
291.159
291.14
291.117
291.091
291.073
291.057
291.047
291.043
291.045
291.047
291.059
291.072
291.086
291.097
291.102
291.098
291.092
291.083
291.072
291.06
291.046
291.026
290.998
290.97
290.934
290.891
290.847
290.8
290.752
290.702
290.65
290.599
290.55
290.505
290.465
290.426
290.393
290.36
290.335
290.312
290.294
290.28
290.271
290.266
290.269
290.276
290.287
290.301
290.325
290.353
290.382
290.411
290.438
290.464
290.494
290.526
290.56
290.593
290.629
290.667
290.706
290.746
290.785
290.826
290.866
290.906
290.944
290.979
291.013
291.044
291.07
291.093
291.114
291.134
291.155
291.177
291.202
291.23
291.261
291.295
291.331
291.367
291.403
291.436
291.468
291.494
291.52
291.547
291.574
291.601
291.628
291.659
291.695
291.725
291.758
291.789
291.824
291.862
291.904
291.947
291.992
292.037
292.081
292.124
292.164
292.202
292.235
292.266
292.294
292.324
292.354
292.384
292.414
292.441
292.467
292.49
292.511
292.533
292.553
292.573
292.591
292.608
292.624
292.638
292.65
292.662
292.67
292.677
292.682
292.689
292.696
292.705
292.713
292.722
292.733
292.742
292.753
292.763
292.774
292.785
292.797
292.808
292.821
292.835
292.848
292.862
292.879
292.896
292.913
292.93
292.948
292.964
292.982
293.002
293.022
293.043
293.063
293.083
293.103
293.123
293.143
293.164
293.185
293.207
293.229
293.251
293.273
293.295
293.316
293.336
293.356
293.377
293.397
293.418
293.438
293.457
293.476
293.495
293.513
293.53
293.547
293.563
293.579
293.593
293.606
293.62
293.633
293.645
293.658
293.67
293.681
293.692
293.702
293.71
293.718
293.725
293.731
293.737
293.743
293.748
293.753
293.757
293.762
293.766
293.769
293.771
293.773
293.774
293.775
293.775
293.775
293.774
293.774
293.774
293.773
293.772
293.771
293.77
293.768
293.766
293.764
293.762
293.76
293.758
293.757
293.757
293.756
293.755
293.755
293.754
293.753
293.752
293.752
293.752
293.752
293.753
293.754
293.756
293.758
293.76
293.763
293.766
293.769
293.773
293.777
293.781
293.786
293.791
293.797
293.802
293.808
293.814
293.82
293.826
293.833
293.84
293.848
293.856
293.863
293.872
293.878
288.423
288.413
288.393
288.364
288.33
288.298
288.267
288.241
288.222
288.209
288.205
288.209
288.222
288.243
288.272
288.309
288.352
288.4
288.452
288.506
288.559
288.612
288.665
288.712
288.758
288.801
288.84
288.877
288.911
288.942
288.972
289.004
289.035
289.066
289.102
289.14
289.186
289.233
289.286
289.343
289.402
289.465
289.535
289.601
289.664
289.726
289.78
289.826
289.867
289.901
289.933
289.964
289.996
290.032
290.076
290.122
290.176
290.235
290.298
290.362
290.417
290.45
290.449
290.415
290.338
290.21
290.02
289.802
289.594
289.441
289.368
289.351
289.368
289.428
289.513
289.624
289.749
289.89
290.043
290.209
290.374
290.528
290.68
290.823
290.967
291.098
291.221
291.333
291.434
291.532
291.619
291.693
291.733
291.774
291.845
291.876
291.86
291.87
291.903
291.92
291.922
291.931
291.949
291.973
292.003
292.035
292.066
292.095
292.115
292.13
292.134
292.128
292.076
292.013
291.929
291.8
291.619
291.386
291.111
290.822
290.538
290.266
289.998
289.734
289.493
289.307
289.186
289.106
289.055
289.02
288.993
288.97
288.973
288.977
288.985
289.003
289.029
289.055
289.075
289.104
289.139
289.178
289.222
289.271
289.327
289.388
289.454
289.527
289.605
289.687
289.767
289.829
289.858
289.86
289.845
289.817
289.797
289.79
289.787
289.779
289.761
289.733
289.696
289.656
289.613
289.57
289.53
289.494
289.46
289.429
289.397
289.363
289.323
289.277
289.226
289.173
289.12
289.07
289.025
288.983
288.946
288.915
288.89
288.868
288.856
288.85
288.847
288.851
288.86
288.875
288.896
288.923
288.96
289.004
289.052
289.102
289.152
289.2
289.248
289.298
289.353
289.415
289.484
289.556
289.625
289.686
289.741
289.799
289.87
289.962
290.076
290.21
290.345
290.473
290.554
290.607
290.641
290.661
290.68
290.699
290.72
290.744
290.772
290.811
290.858
290.914
290.968
291.011
291.051
291.083
291.103
291.112
291.113
291.106
291.094
291.073
291.046
291.013
290.971
290.929
290.884
290.833
290.783
290.728
290.685
290.653
290.633
290.629
290.633
290.659
290.701
290.755
290.817
290.875
290.919
290.955
290.987
291.015
291.044
291.074
291.103
291.126
291.124
291.111
291.094
291.068
291.031
290.986
290.936
290.875
290.812
290.749
290.684
290.619
290.556
290.499
290.448
290.403
290.364
290.33
290.305
290.285
290.267
290.262
290.262
290.27
290.279
290.292
290.316
290.348
290.38
290.413
290.455
290.494
290.536
290.582
290.626
290.673
290.719
290.767
290.817
290.868
290.919
290.969
291.022
291.07
291.117
291.16
291.203
291.229
291.251
291.27
291.283
291.292
291.299
291.307
291.318
291.334
291.353
291.375
291.396
291.417
291.438
291.458
291.48
291.501
291.522
291.541
291.559
291.575
291.589
291.588
291.59
291.596
291.604
291.612
291.622
291.636
291.655
291.676
291.702
291.732
291.766
291.804
291.844
291.881
291.915
291.945
291.974
292.007
292.045
292.086
292.127
292.166
292.203
292.236
292.269
292.305
292.341
292.379
292.42
292.462
292.496
292.526
292.553
292.573
292.587
292.595
292.601
292.606
292.61
292.617
292.625
292.636
292.647
292.658
292.666
292.669
292.674
292.679
292.683
292.688
292.697
292.709
292.719
292.731
292.744
292.758
292.772
292.788
292.803
292.818
292.833
292.848
292.864
292.883
292.901
292.921
292.941
292.958
292.975
292.991
293.008
293.025
293.045
293.066
293.087
293.109
293.131
293.153
293.175
293.197
293.218
293.239
293.26
293.28
293.299
293.319
293.339
293.359
293.379
293.399
293.417
293.435
293.451
293.466
293.481
293.497
293.512
293.527
293.542
293.555
293.568
293.579
293.589
293.597
293.606
293.613
293.62
293.627
293.634
293.641
293.648
293.654
293.659
293.663
293.665
293.667
293.668
293.669
293.669
293.67
293.671
293.672
293.673
293.673
293.672
293.671
293.668
293.666
293.664
293.661
293.659
293.658
293.658
293.658
293.659
293.66
293.66
293.659
293.658
293.657
293.656
293.656
293.657
293.658
293.66
293.663
293.666
293.669
293.671
293.673
293.676
293.679
293.683
293.689
293.694
293.701
293.707
293.713
293.718
293.724
293.729
293.736
293.742
293.749
293.757
293.766
293.775
293.783
288.326
288.315
288.298
288.273
288.244
288.217
288.195
288.18
288.171
288.171
288.181
288.199
288.227
288.263
288.306
288.357
288.411
288.467
288.524
288.58
288.634
288.684
288.73
288.773
288.813
288.85
288.885
288.916
288.947
288.98
289.012
289.042
289.076
289.115
289.158
289.208
289.269
289.336
289.41
289.491
289.577
289.665
289.752
289.832
289.904
289.967
290.015
290.053
290.082
290.102
290.12
290.133
290.145
290.159
290.175
290.193
290.217
290.244
290.271
290.292
290.301
290.291
290.256
290.193
290.103
289.983
289.825
289.653
289.501
289.425
289.412
289.464
289.561
289.7
289.867
290.062
290.272
290.497
290.724
290.948
291.162
291.375
291.574
291.737
291.872
291.986
292.079
292.154
292.209
292.246
292.268
292.274
292.271
292.268
292.267
292.252
292.232
292.217
292.212
292.201
292.196
292.201
292.209
292.215
292.225
292.239
292.254
292.272
292.295
292.322
292.351
292.389
292.428
292.459
292.494
292.516
292.519
292.508
292.468
292.361
292.187
291.946
291.612
291.168
290.649
290.157
289.762
289.477
289.285
289.154
289.066
289.007
288.981
288.963
288.956
288.954
288.967
288.991
289.027
289.062
289.108
289.157
289.215
289.281
289.355
289.439
289.535
289.642
289.761
289.892
290.03
290.165
290.285
290.367
290.399
290.408
290.417
290.43
290.443
290.444
290.43
290.395
290.342
290.282
290.218
290.154
290.089
290.026
289.967
289.917
289.871
289.826
289.777
289.718
289.648
289.568
289.482
289.392
289.303
289.218
289.139
289.066
288.997
288.932
288.879
288.831
288.789
288.749
288.712
288.685
288.66
288.638
288.617
288.608
288.61
288.615
288.626
288.641
288.661
288.685
288.719
288.763
288.823
288.9
288.991
289.079
289.146
289.195
289.242
289.311
289.421
289.589
289.814
290.074
290.307
290.479
290.58
290.635
290.679
290.716
290.747
290.769
290.79
290.814
290.844
290.886
290.938
290.982
291.021
291.049
291.065
291.06
291.041
291.005
290.963
290.908
290.845
290.778
290.698
290.613
290.525
290.425
290.312
290.228
290.141
290.071
290.023
289.993
289.978
289.977
289.993
290.036
290.103
290.181
290.259
290.332
290.403
290.472
290.546
290.64
290.756
290.887
290.99
291.062
291.108
291.126
291.128
291.125
291.096
291.052
290.998
290.932
290.856
290.776
290.694
290.614
290.537
290.47
290.411
290.365
290.329
290.303
290.278
290.256
290.249
290.248
290.251
290.26
290.281
290.317
290.353
290.39
290.452
290.51
290.569
290.628
290.687
290.745
290.804
290.864
290.926
290.989
291.053
291.114
291.174
291.227
291.276
291.316
291.352
291.377
291.398
291.415
291.425
291.433
291.438
291.442
291.448
291.456
291.466
291.481
291.495
291.504
291.516
291.53
291.547
291.563
291.58
291.595
291.609
291.621
291.624
291.618
291.609
291.608
291.606
291.607
291.609
291.61
291.606
291.602
291.599
291.596
291.592
291.591
291.592
291.598
291.608
291.616
291.627
291.642
291.664
291.695
291.732
291.77
291.807
291.839
291.872
291.915
291.965
292.027
292.089
292.159
292.221
292.282
292.338
292.386
292.426
292.457
292.484
292.503
292.52
292.532
292.537
292.548
292.554
292.562
292.566
292.572
292.574
292.577
292.578
292.58
292.584
292.59
292.597
292.605
292.616
292.627
292.64
292.654
292.665
292.676
292.69
292.703
292.717
292.73
292.744
292.758
292.773
292.787
292.801
292.815
292.83
292.845
292.86
292.873
292.886
292.9
292.914
292.929
292.945
292.962
292.98
292.999
293.02
293.042
293.064
293.084
293.104
293.123
293.143
293.163
293.183
293.202
293.22
293.238
293.257
293.275
293.294
293.313
293.332
293.35
293.367
293.383
293.399
293.414
293.429
293.442
293.454
293.464
293.473
293.481
293.49
293.5
293.51
293.518
293.527
293.534
293.54
293.545
293.548
293.551
293.552
293.553
293.555
293.556
293.558
293.559
293.56
293.561
293.561
293.561
293.56
293.558
293.556
293.555
293.555
293.555
293.556
293.557
293.558
293.559
293.56
293.561
293.562
293.562
293.563
293.564
293.566
293.568
293.571
293.574
293.578
293.582
293.587
293.591
293.596
293.601
293.607
293.612
293.618
293.625
293.632
293.639
293.646
293.653
293.66
293.666
293.674
293.681
288.212
288.204
288.19
288.17
288.148
288.131
288.121
288.119
288.128
288.146
288.175
288.214
288.261
288.316
288.376
288.439
288.503
288.566
288.625
288.68
288.729
288.773
288.813
288.847
288.88
288.91
288.94
288.969
288.999
289.031
289.066
289.102
289.144
289.195
289.255
289.328
289.419
289.518
289.624
289.734
289.845
289.951
290.046
290.123
290.184
290.226
290.247
290.257
290.258
290.247
290.232
290.216
290.2
290.187
290.177
290.163
290.151
290.14
290.131
290.116
290.089
290.041
289.976
289.899
289.816
289.726
289.624
289.529
289.476
289.459
289.517
289.647
289.824
290.04
290.284
290.552
290.83
291.113
291.383
291.625
291.832
292.012
292.162
292.269
292.336
292.38
292.4
292.404
292.396
292.367
292.331
292.286
292.235
292.179
292.115
292.048
291.988
291.931
291.884
291.84
291.81
291.788
291.766
291.74
291.711
291.679
291.65
291.626
291.612
291.61
291.62
291.653
291.71
291.776
291.874
292.013
292.197
292.411
292.606
292.747
292.818
292.826
292.789
292.639
292.291
291.753
291.142
290.576
290.117
289.764
289.501
289.305
289.161
289.071
289.015
288.991
288.995
289.007
289.037
289.076
289.124
289.179
289.244
289.322
289.414
289.523
289.648
289.794
289.959
290.143
290.338
290.535
290.72
290.879
290.996
291.075
291.135
291.19
291.24
291.264
291.263
291.247
291.206
291.148
291.083
291.012
290.932
290.844
290.75
290.66
290.581
290.511
290.448
290.383
290.309
290.223
290.126
290.019
289.905
289.791
289.68
289.571
289.465
289.348
289.234
289.131
289.035
288.95
288.884
288.829
288.778
288.727
288.676
288.624
288.566
288.503
288.44
288.383
288.332
288.293
288.279
288.279
288.291
288.324
288.385
288.465
288.543
288.596
288.637
288.685
288.767
288.919
289.159
289.481
289.829
290.142
290.358
290.493
290.594
290.679
290.751
290.809
290.846
290.87
290.888
290.907
290.94
290.984
291.023
291.052
291.055
291.039
290.998
290.929
290.856
290.766
290.658
290.534
290.403
290.273
290.137
289.998
289.855
289.74
289.641
289.564
289.51
289.465
289.429
289.406
289.386
289.381
289.386
289.403
289.431
289.468
289.515
289.574
289.651
289.756
289.916
290.135
290.375
290.585
290.753
290.888
290.998
291.078
291.104
291.104
291.091
291.057
291.003
290.93
290.842
290.747
290.648
290.554
290.472
290.389
290.332
290.289
290.256
290.23
290.217
290.22
290.223
290.235
290.254
290.292
290.334
290.375
290.433
290.507
290.587
290.668
290.749
290.826
290.899
290.973
291.043
291.113
291.18
291.245
291.306
291.357
291.397
291.425
291.444
291.458
291.464
291.466
291.465
291.46
291.457
291.454
291.454
291.455
291.46
291.468
291.484
291.497
291.511
291.529
291.547
291.564
291.583
291.605
291.631
291.654
291.675
291.694
291.701
291.71
291.714
291.715
291.714
291.712
291.706
291.698
291.69
291.679
291.662
291.637
291.605
291.57
291.532
291.496
291.463
291.434
291.418
291.415
291.418
291.423
291.439
291.454
291.472
291.498
291.543
291.593
291.666
291.739
291.814
291.89
291.969
292.047
292.126
292.202
292.269
292.325
292.368
292.397
292.423
292.444
292.459
292.472
292.482
292.496
292.502
292.511
292.511
292.513
292.514
292.518
292.522
292.529
292.538
292.55
292.562
292.578
292.59
292.606
292.617
292.633
292.647
292.661
292.674
292.688
292.701
292.712
292.723
292.733
292.743
292.753
292.761
292.769
292.775
292.782
292.787
292.793
292.797
292.801
292.805
292.81
292.818
292.828
292.84
292.852
292.864
292.876
292.89
292.906
292.922
292.938
292.955
292.973
292.991
293.01
293.029
293.048
293.068
293.088
293.108
293.128
293.147
293.167
293.188
293.209
293.228
293.245
293.261
293.275
293.289
293.303
293.318
293.333
293.347
293.36
293.373
293.385
293.396
293.404
293.411
293.417
293.423
293.428
293.433
293.437
293.441
293.445
293.448
293.451
293.454
293.455
293.456
293.457
293.458
293.459
293.461
293.463
293.465
293.467
293.468
293.47
293.472
293.473
293.475
293.477
293.479
293.481
293.484
293.488
293.491
293.495
293.499
293.504
293.509
293.514
293.52
293.525
293.531
293.537
293.544
293.551
293.558
293.565
293.572
293.579
293.587
293.593
288.096
288.091
288.082
288.069
288.058
288.055
288.061
288.079
288.109
288.151
288.203
288.265
288.334
288.409
288.485
288.559
288.627
288.689
288.742
288.788
288.827
288.86
288.888
288.914
288.939
288.965
288.993
289.023
289.055
289.091
289.13
289.176
289.231
289.301
289.392
289.503
289.636
289.774
289.911
290.041
290.159
290.259
290.335
290.382
290.404
290.407
290.387
290.359
290.321
290.275
290.227
290.175
290.123
290.074
290.029
289.986
289.949
289.919
289.892
289.862
289.821
289.766
289.706
289.652
289.603
289.561
289.529
289.514
289.508
289.552
289.678
289.873
290.113
290.386
290.68
290.984
291.274
291.541
291.768
291.952
292.096
292.202
292.279
292.314
292.328
292.32
292.289
292.219
292.142
292.056
291.953
291.852
291.758
291.671
291.593
291.527
291.473
291.425
291.389
291.358
291.337
291.323
291.31
291.298
291.281
291.254
291.222
291.186
291.145
291.102
291.061
291.025
290.999
290.973
290.976
291.012
291.105
291.27
291.516
291.816
292.138
292.476
292.807
293.023
293.047
292.972
292.714
292.271
291.733
291.182
290.66
290.192
289.804
289.523
289.333
289.218
289.165
289.152
289.16
289.185
289.234
289.294
289.374
289.469
289.586
289.728
289.895
290.09
290.311
290.551
290.803
291.053
291.289
291.5
291.675
291.812
291.92
292.01
292.09
292.15
292.165
292.16
292.137
292.094
292.039
291.973
291.895
291.801
291.693
291.579
291.465
291.359
291.264
291.177
291.09
291.001
290.907
290.806
290.7
290.586
290.462
290.337
290.206
290.046
289.89
289.743
289.602
289.48
289.385
289.305
289.231
289.161
289.08
288.991
288.896
288.788
288.672
288.556
288.445
288.341
288.243
288.152
288.07
288.016
288.004
288.011
288.037
288.071
288.102
288.135
288.197
288.319
288.523
288.814
289.176
289.551
289.871
290.115
290.315
290.485
290.638
290.777
290.881
290.935
290.96
290.97
290.989
291.023
291.057
291.084
291.078
291.058
291.016
290.934
290.808
290.661
290.494
290.317
290.136
289.981
289.832
289.692
289.58
289.476
289.407
289.358
289.319
289.283
289.252
289.223
289.19
289.157
289.119
289.078
289.032
288.985
288.948
288.928
288.926
288.95
289.03
289.184
289.405
289.66
289.924
290.187
290.445
290.68
290.87
290.996
291.058
291.071
291.063
291.027
290.963
290.877
290.768
290.649
290.531
290.419
290.327
290.264
290.218
290.193
290.182
290.188
290.19
290.21
290.23
290.257
290.303
290.354
290.419
290.506
290.602
290.698
290.802
290.894
290.981
291.063
291.137
291.209
291.275
291.333
291.384
291.422
291.454
291.471
291.481
291.48
291.47
291.449
291.419
291.386
291.356
291.332
291.315
291.3
291.291
291.29
291.3
291.315
291.334
291.357
291.383
291.412
291.445
291.486
291.536
291.593
291.644
291.689
291.724
291.755
291.779
291.8
291.814
291.82
291.824
291.823
291.819
291.811
291.798
291.777
291.744
291.699
291.646
291.586
291.526
291.469
291.417
291.367
291.327
291.285
291.246
291.217
291.2
291.201
291.211
291.225
291.258
291.3
291.351
291.414
291.494
291.58
291.683
291.798
291.913
292.013
292.096
292.161
292.217
292.269
292.31
292.352
292.382
292.414
292.435
292.449
292.455
292.461
292.462
292.466
292.471
292.482
292.493
292.509
292.526
292.544
292.562
292.58
292.6
292.62
292.641
292.662
292.681
292.701
292.72
292.737
292.753
292.768
292.781
292.79
292.796
292.8
292.802
292.801
292.798
292.792
292.785
292.777
292.768
292.758
292.75
292.743
292.736
292.73
292.724
292.719
292.714
292.712
292.711
292.712
292.714
292.718
292.723
292.732
292.742
292.754
292.768
292.784
292.802
292.819
292.838
292.859
292.881
292.904
292.928
292.951
292.972
292.993
293.014
293.034
293.056
293.077
293.1
293.121
293.143
293.164
293.184
293.202
293.219
293.234
293.247
293.26
293.271
293.282
293.292
293.302
293.312
293.32
293.328
293.335
293.341
293.346
293.351
293.357
293.362
293.367
293.371
293.376
293.38
293.384
293.389
293.392
293.395
293.398
293.401
293.405
293.408
293.412
293.416
293.42
293.425
293.429
293.434
293.439
293.445
293.451
293.456
293.463
293.469
293.476
293.483
293.491
293.498
293.505
293.512
293.519
287.987
287.986
287.984
287.982
287.986
288.001
288.029
288.072
288.127
288.195
288.274
288.36
288.45
288.539
288.623
288.698
288.761
288.812
288.851
288.881
288.903
288.923
288.941
288.959
288.981
289.007
289.037
289.072
289.11
289.152
289.199
289.257
289.33
289.428
289.555
289.709
289.884
290.057
290.213
290.345
290.447
290.514
290.547
290.552
290.531
290.488
290.429
290.365
290.295
290.219
290.139
290.062
289.987
289.917
289.854
289.794
289.744
289.703
289.669
289.636
289.601
289.567
289.539
289.522
289.517
289.52
289.535
289.558
289.607
289.702
289.872
290.103
290.369
290.646
290.904
291.142
291.364
291.572
291.76
291.913
292.019
292.091
292.115
292.113
292.054
291.971
291.865
291.751
291.64
291.527
291.425
291.33
291.248
291.182
291.129
291.093
291.072
291.06
291.054
291.043
291.035
291.031
291.028
291.025
291.019
291.007
290.989
290.958
290.916
290.866
290.807
290.743
290.676
290.599
290.531
290.482
290.471
290.49
290.565
290.706
290.909
291.197
291.585
292.07
292.605
293.059
293.233
293.216
293.088
292.78
292.298
291.71
291.112
290.598
290.197
289.907
289.713
289.591
289.551
289.553
289.583
289.645
289.736
289.856
290.004
290.184
290.398
290.645
290.918
291.205
291.495
291.774
292.032
292.259
292.45
292.605
292.731
292.834
292.923
292.998
293.035
293.037
293.027
293.001
292.959
292.904
292.834
292.748
292.648
292.534
292.411
292.283
292.162
292.048
291.937
291.829
291.722
291.613
291.505
291.389
291.266
291.143
291.014
290.868
290.724
290.573
290.425
290.282
290.15
290.039
289.94
289.844
289.752
289.656
289.552
289.428
289.285
289.128
288.959
288.782
288.605
288.432
288.273
288.136
288.024
287.927
287.843
287.778
287.749
287.744
287.756
287.823
287.97
288.209
288.529
288.883
289.208
289.491
289.776
290.052
290.33
290.599
290.822
290.963
291.033
291.059
291.076
291.094
291.119
291.139
291.137
291.104
291.049
290.947
290.787
290.588
290.377
290.159
289.967
289.795
289.646
289.537
289.462
289.413
289.382
289.37
289.375
289.387
289.391
289.385
289.358
289.307
289.232
289.136
289.034
288.933
288.837
288.752
288.672
288.599
288.559
288.569
288.64
288.775
288.968
289.215
289.512
289.849
290.193
290.508
290.765
290.941
291.021
291.033
291.018
290.97
290.879
290.759
290.625
290.488
290.369
290.277
290.203
290.165
290.151
290.149
290.151
290.17
290.198
290.232
290.283
290.342
290.409
290.495
290.59
290.694
290.801
290.911
291.01
291.101
291.181
291.254
291.315
291.37
291.412
291.44
291.46
291.467
291.464
291.45
291.421
291.378
291.323
291.265
291.209
291.159
291.124
291.102
291.094
291.096
291.105
291.124
291.151
291.185
291.228
291.278
291.335
291.395
291.461
291.532
291.599
291.658
291.71
291.759
291.803
291.842
291.877
291.9
291.914
291.924
291.933
291.932
291.925
291.912
291.892
291.861
291.818
291.763
291.699
291.628
291.557
291.484
291.411
291.341
291.275
291.218
291.159
291.114
291.076
291.035
291.01
291.005
291.008
291.024
291.063
291.124
291.213
291.322
291.44
291.558
291.661
291.756
291.85
291.939
292.026
292.11
292.184
292.253
292.308
292.344
292.371
292.389
292.4
292.411
292.423
292.438
292.453
292.471
292.491
292.514
292.538
292.565
292.592
292.621
292.651
292.683
292.715
292.748
292.781
292.814
292.846
292.875
292.903
292.928
292.949
292.964
292.975
292.98
292.98
292.974
292.962
292.944
292.925
292.903
292.878
292.852
292.823
292.794
292.764
292.735
292.707
292.68
292.654
292.628
292.604
292.582
292.561
292.542
292.527
292.515
292.508
292.504
292.503
292.504
292.51
292.519
292.532
292.549
292.567
292.587
292.608
292.63
292.654
292.678
292.704
292.731
292.759
292.788
292.818
292.849
292.88
292.91
292.939
292.966
292.992
293.016
293.039
293.06
293.08
293.1
293.119
293.137
293.154
293.17
293.185
293.198
293.211
293.223
293.235
293.247
293.257
293.267
293.277
293.287
293.295
293.303
293.31
293.317
293.323
293.329
293.334
293.34
293.345
293.351
293.356
293.362
293.367
293.373
293.379
293.385
293.391
293.397
293.404
293.411
293.418
293.426
293.433
293.441
293.449
293.455
287.893
287.898
287.904
287.916
287.938
287.976
288.031
288.1
288.185
288.282
288.387
288.495
288.598
288.693
288.774
288.839
288.884
288.914
288.932
288.942
288.949
288.956
288.967
288.983
289.006
289.036
289.071
289.112
289.157
289.209
289.27
289.346
289.443
289.573
289.736
289.922
290.122
290.31
290.465
290.578
290.645
290.67
290.67
290.631
290.572
290.497
290.417
290.336
290.248
290.159
290.071
289.986
289.906
289.833
289.767
289.704
289.648
289.598
289.556
289.521
289.497
289.485
289.485
289.497
289.525
289.561
289.607
289.671
289.756
289.878
290.056
290.275
290.495
290.69
290.889
291.093
291.28
291.449
291.587
291.678
291.729
291.733
291.707
291.641
291.541
291.416
291.288
291.147
291.011
290.901
290.82
290.766
290.733
290.717
290.72
290.736
290.765
290.802
290.844
290.879
290.904
290.922
290.931
290.928
290.922
290.906
290.877
290.834
290.779
290.715
290.644
290.566
290.486
290.394
290.304
290.218
290.142
290.086
290.068
290.08
290.135
290.262
290.484
290.828
291.302
291.872
292.442
292.938
293.3
293.383
293.328
293.107
292.694
292.172
291.637
291.168
290.804
290.541
290.369
290.312
290.322
290.362
290.449
290.579
290.754
290.965
291.209
291.478
291.764
292.055
292.34
292.606
292.845
293.054
293.229
293.373
293.488
293.579
293.653
293.714
293.748
293.755
293.753
293.74
293.712
293.672
293.618
293.55
293.469
293.374
293.265
293.146
293.021
292.898
292.775
292.65
292.523
292.397
292.274
292.154
292.039
291.929
291.817
291.695
291.565
291.427
291.28
291.12
290.969
290.838