/*--------------------------------*- C++ -*----------------------------------*\
| =========                 |                                                 |
| \\      /  F ield         | OpenFOAM: The Open Source CFD Toolbox           |
|  \\    /   O peration     | Version:  v1812                                 |
|   \\  /    A nd           | Web:      www.OpenFOAM.com                      |
|    \\/     M anipulation  |                                                 |
\*---------------------------------------------------------------------------*/
FoamFile
{
    version     2.0;
    format      ascii;
    class       volVectorField;
    location    "1.1";
    object      U;
}
// * * * * * * * * * * * * * * * * * * * * * * * * * * * * * * * * * * * * * //

dimensions      [0 1 -1 0 0 0 0];


internalField   nonuniform List<vector> 
20400
(
(0.0370186 -0.0360405 0)
(0.0736424 -0.0168151 0)
(0.0992718 0.00744724 0)
(0.096392 0.024581 0)
(0.0909185 0.0168167 0)
(0.0935682 0.0148229 0)
(0.0955411 0.016247 0)
(0.0953042 0.0181738 0)
(0.0930648 0.0209699 0)
(0.0868155 0.0262392 0)
(0.0745045 0.0313767 0)
(0.0574859 0.0338618 0)
(0.039946 0.0310121 0)
(0.0255456 0.0260398 0)
(0.0108128 0.0209035 0)
(-0.000860283 0.00849961 0)
(-0.00277119 0.000461479 0)
(0.00183166 -0.00151524 0)
(0.0120761 -0.00193854 0)
(0.0244899 0.00175791 0)
(0.0403378 -0.0121116 0)
(0.0740412 -0.0209138 0)
(0.114661 -0.0218848 0)
(0.160729 -0.0242779 0)
(0.209766 -0.0433091 0)
(0.267482 -0.0552851 0)
(0.32797 -0.0571025 0)
(0.38618 -0.0532408 0)
(0.438826 -0.0486931 0)
(0.485217 -0.04143 0)
(0.521555 -0.0291057 0)
(0.541787 -0.0140487 0)
(0.549366 -0.00503408 0)
(0.548416 -0.000118104 0)
(0.534488 0.0243276 0)
(0.487031 0.0552915 0)
(0.418991 0.0647777 0)
(0.340282 0.0800977 0)
(0.246161 0.0549783 0)
(0.145007 0.0589976 0)
(0.041838 0.056585 0)
(-0.0831918 0.0550717 0)
(-0.242186 0.0648777 0)
(-0.416525 0.0999848 0)
(-0.585475 0.151381 0)
(-0.745614 0.141656 0)
(-0.896356 0.136899 0)
(-1.04299 0.121401 0)
(-1.15475 0.0811855 0)
(-1.23295 0.0450881 0)
(-1.27268 0.00146349 0)
(-1.26732 -0.0361267 0)
(-1.22385 -0.0657008 0)
(-1.15546 -0.105922 0)
(-1.03992 -0.145325 0)
(-0.897003 -0.160645 0)
(-0.738594 -0.181274 0)
(-0.560063 -0.197083 0)
(-0.368537 -0.207715 0)
(-0.171114 -0.206054 0)
(0.0169405 -0.176203 0)
(0.182685 -0.13329 0)
(0.342914 -0.11814 0)
(0.472564 -0.0679661 0)
(0.526688 -0.0201962 0)
(0.524272 -0.0605958 0)
(0.490779 -0.123879 0)
(0.475949 -0.00567283 0)
(0.46406 -0.00298167 0)
(0.468736 -0.0316865 0)
(0.514986 -0.0581064 0)
(0.566378 -0.030922 0)
(0.558063 0.0393229 0)
(0.446231 0.168471 0)
(0.191403 0.329934 0)
(-0.227855 0.436668 0)
(-0.79115 0.407049 0)
(-1.45489 0.235037 0)
(-2.18718 0.0653081 0)
(-2.96568 -0.0294831 0)
(-3.76767 -0.0127123 0)
(-4.57346 0.108565 0)
(-5.32629 0.341541 0)
(-6.02051 0.4488 0)
(-6.6322 0.485728 0)
(-7.17258 0.465853 0)
(-7.65751 0.453623 0)
(-8.11522 0.450651 0)
(-8.54345 0.378355 0)
(-8.91936 0.352689 0)
(-9.19226 0.234143 0)
(-9.41107 0.219613 0)
(-9.53671 0.186324 0)
(-9.57582 0.237696 0)
(-9.53891 0.276649 0)
(-9.37611 0.26712 0)
(-9.08605 0.364518 0)
(-8.82339 0.729354 0)
(-8.66001 1.15151 0)
(-8.33708 1.11533 0)
(-7.90977 0.977613 0)
(-7.49952 0.589374 0)
(-6.96605 0.202928 0)
(-6.32342 0.0104337 0)
(-5.64708 -0.083495 0)
(-4.9381 -0.155429 0)
(-4.20157 -0.230963 0)
(-3.3992 -0.251585 0)
(-2.71875 -0.62913 0)
(-1.99618 -0.692349 0)
(-1.23969 -0.719936 0)
(-0.473985 -0.597136 0)
(0.0506335 -0.288687 0)
(0.559235 -0.23275 0)
(1.13884 -0.293554 0)
(1.75469 -0.372212 0)
(2.3344 -0.402084 0)
(2.8166 -0.389239 0)
(3.19778 -0.370681 0)
(3.51483 -0.304487 0)
(3.77863 -0.116016 0)
(3.93676 0.135252 0)
(4.09627 0.0181575 0)
(4.35537 -0.0614945 0)
(4.50902 -0.315004 0)
(4.5996 -0.489626 0)
(4.609 -0.619579 0)
(4.5715 -0.691281 0)
(4.48267 -0.600695 0)
(4.3285 -0.367132 0)
(4.13622 0.023761 0)
(3.98134 0.378574 0)
(3.81223 0.343095 0)
(3.75955 0.037444 0)
(3.54264 -0.286479 0)
(3.18499 -0.382077 0)
(2.86167 -0.409829 0)
(2.58893 -0.385732 0)
(2.34854 -0.249632 0)
(2.14336 -0.0359011 0)
(1.93314 0.0971381 0)
(1.73983 0.143023 0)
(1.57306 0.148183 0)
(1.44145 0.128111 0)
(1.34689 0.0987217 0)
(1.30291 0.0589688 0)
(1.28938 0.0492653 0)
(1.31829 0.00100433 0)
(1.42308 -0.0687251 0)
(1.60236 -0.136897 0)
(1.84848 -0.186264 0)
(2.13152 -0.210309 0)
(2.41638 -0.208265 0)
(2.67243 -0.189851 0)
(2.88145 -0.14074 0)
(3.05254 -0.0903468 0)
(3.19655 -0.0339474 0)
(3.33159 0.00558679 0)
(3.45678 0.0479037 0)
(3.57747 0.0823548 0)
(3.69032 0.087785 0)
(3.78396 0.0776055 0)
(3.85016 0.0601185 0)
(3.88584 0.0504759 0)
(3.89603 0.036348 0)
(3.8906 0.0273052 0)
(3.87386 0.0264834 0)
(3.84448 0.020136 0)
(3.80194 0.010798 0)
(3.74905 0.00422197 0)
(3.6888 -0.00272645 0)
(3.62437 -0.00649388 0)
(3.55568 -0.01329 0)
(3.47877 -0.0191308 0)
(3.39055 -0.0176865 0)
(3.28974 -0.00884345 0)
(3.17318 0.00358202 0)
(3.04547 0.0226371 0)
(2.91217 0.0362032 0)
(2.77656 0.0325599 0)
(2.64119 0.023228 0)
(2.50738 0.0236854 0)
(2.37227 0.0307787 0)
(2.23538 0.028312 0)
(2.10728 0.0274155 0)
(1.98492 0.0322988 0)
(1.85867 0.0427344 0)
(1.73024 0.0449425 0)
(1.61202 0.0408998 0)
(1.49979 0.0436025 0)
(1.3823 0.0529435 0)
(1.2572 0.0602826 0)
(1.1288 0.0654011 0)
(0.997526 0.0723737 0)
(0.861911 0.0794519 0)
(0.723689 0.0837107 0)
(0.586775 0.0834939 0)
(0.456092 0.077745 0)
(0.336643 0.0670278 0)
(0.233003 0.052456 0)
(0.146739 0.0380234 0)
(0.0757867 0.0263924 0)
(0.0160879 0.0196136 0)
(-0.0388943 0.0201447 0)
(-0.0956916 0.0257458 0)
(-0.156282 0.02925 0)
(-0.216293 0.0238995 0)
(-0.262711 0.0039854 0)
(-0.286329 -0.0196895 0)
(-0.286693 -0.0368687 0)
(-0.263045 -0.0581025 0)
(-0.222831 -0.0595444 0)
(-0.193542 -0.0376069 0)
(-0.181621 -0.014804 0)
(-0.195025 -0.00078502 0)
(-0.206846 -0.0162171 0)
(-0.200611 -0.0152036 0)
(-0.212597 0.0255352 0)
(-0.262831 0.0433661 0)
(-0.310039 0.0273047 0)
(-0.32961 -0.00271932 0)
(-0.320727 -0.0189518 0)
(-0.293836 -0.0343679 0)
(-0.254834 -0.0333304 0)
(-0.22491 -0.00829005 0)
(-0.231453 0.0350702 0)
(-0.296034 0.110583 0)
(-0.436694 0.174172 0)
(-0.604984 0.172778 0)
(-0.7576 0.161212 0)
(-0.911426 0.17968 0)
(-1.08109 0.190726 0)
(-1.25419 0.192713 0)
(-1.43284 0.207857 0)
(-1.63267 0.241055 0)
(-1.86785 0.281175 0)
(-2.14023 0.315709 0)
(-2.4367 0.33264 0)
(-2.74439 0.338117 0)
(-3.04272 0.319472 0)
(-3.32179 0.306556 0)
(-3.58672 0.293049 0)
(-3.82923 0.243441 0)
(-3.98354 0.152333 0)
(-4.06594 0.10112 0)
(-4.11751 0.0780493 0)
(-4.13934 0.0460769 0)
(-4.10477 -0.00723144 0)
(-4.03203 -0.0178072 0)
(-3.9472 -0.087611 0)
(-3.77059 -0.151436 0)
(-3.55594 -0.161013 0)
(-3.34968 -0.13809 0)
(-3.15528 -0.137551 0)
(-2.94033 -0.18482 0)
(-2.67112 -0.235592 0)
(-2.36234 -0.258603 0)
(-2.03859 -0.26806 0)
(-1.70258 -0.28041 0)
(-1.36198 -0.269904 0)
(-1.04524 -0.239863 0)
(-0.746113 -0.241416 0)
(-0.430446 -0.264925 0)
(-0.118168 -0.230746 0)
(0.145931 -0.170353 0)
(0.360077 -0.118761 0)
(0.534404 -0.0882238 0)
(0.683599 -0.0815655 0)
(0.825528 -0.0807038 0)
(0.960849 -0.0653669 0)
(1.07702 -0.0435399 0)
(1.17593 -0.0264299 0)
(1.26105 -0.0171053 0)
(1.3328 -0.00735356 0)
(1.38671 0.00542528 0)
(1.42385 0.0178491 0)
(1.43664 0.0386352 0)
(1.4361 0.0401324 0)
(1.42424 0.0494371 0)
(1.39722 0.0567452 0)
(1.36174 0.0632218 0)
(1.3154 0.0758896 0)
(1.25185 0.0760666 0)
(1.2028 0.0507955 0)
(1.16681 0.0438872 0)
(1.11652 0.0608788 0)
(1.04361 0.0539352 0)
(0.99316 0.0148265 0)
(0.945472 0.0439147 0)
(0.851177 0.125358 0)
(0.672719 0.196561 0)
(0.462931 0.227038 0)
(0.241347 0.247129 0)
(0.0168409 0.243412 0)
(-0.195056 0.232412 0)
(-0.398292 0.226774 0)
(-0.597906 0.224786 0)
(-0.797144 0.225018 0)
(-0.993467 0.216679 0)
(-1.17456 0.195019 0)
(-1.33217 0.171786 0)
(-1.47044 0.155115 0)
(-1.59037 0.137878 0)
(-1.6981 0.12689 0)
(-1.78443 0.10052 0)
(-1.85046 0.0873818 0)
(-1.90401 0.0717659 0)
(-1.93917 0.0415972 0)
(-1.92645 -0.0070348 0)
(-1.86358 -0.0425245 0)
(-1.78259 -0.0512345 0)
(-1.69585 -0.0552071 0)
(-1.60619 -0.0534681 0)
(-1.5185 -0.0497923 0)
(-1.43315 -0.0467584 0)
(-1.34886 -0.0453513 0)
(-1.2642 -0.0457342 0)
(-1.17494 -0.0519434 0)
(-1.0786 -0.0551747 0)
(-0.980062 -0.0536814 0)
(-0.877938 -0.0623179 0)
(-0.75379 -0.101451 0)
(-0.587924 -0.135325 0)
(-0.395487 -0.151222 0)
(-0.195112 -0.147537 0)
(0.00023989 -0.138461 0)
(0.1918 -0.131653 0)
(0.383781 -0.122199 0)
(0.571963 -0.105769 0)
(0.759595 -0.099824 0)
(0.958866 -0.099512 0)
(1.15544 -0.0727311 0)
(1.30833 -0.0297608 0)
(1.4198 -0.0126124 0)
(1.51012 -0.0101281 0)
(1.58961 -0.0143666 0)
(1.66711 -0.030995 0)
(1.75661 -0.0495286 0)
(1.86383 -0.0547297 0)
(1.97399 -0.0385865 0)
(2.07157 -0.0131504 0)
(2.15073 0.010296 0)
(2.21305 0.0263908 0)
(2.26022 0.0426848 0)
(2.29091 0.0598474 0)
(2.30569 0.0721552 0)
(2.31187 0.0762316 0)
(2.31509 0.0738483 0)
(2.31562 0.0667488 0)
(2.31929 0.0657873 0)
(2.32146 0.066704 0)
(2.32268 0.0656126 0)
(2.32064 0.0641483 0)
(2.32268 0.0578483 0)
(2.32992 0.0585465 0)
(2.3375 0.0571839 0)
(2.3498 0.0481233 0)
(2.37275 0.0446942 0)
(2.39589 0.0479256 0)
(2.41971 0.0522507 0)
(2.45232 0.0480573 0)
(2.48575 0.0566975 0)
(2.50564 0.0516625 0)
(2.5145 0.0482252 0)
(2.52455 0.0524924 0)
(2.53344 0.061929 0)
(2.53452 0.064626 0)
(2.53127 0.0644442 0)
(2.53413 0.0514779 0)
(2.55603 0.0350856 0)
(2.59166 0.0236145 0)
(2.64454 0.0231874 0)
(2.71404 0.0244185 0)
(2.78363 0.037888 0)
(2.83997 0.05325 0)
(2.88702 0.0469882 0)
(2.9174 0.0410341 0)
(2.92962 0.0421456 0)
(2.93765 0.0444366 0)
(2.93978 0.0496288 0)
(2.93642 0.0440371 0)
(2.92778 0.0468383 0)
(2.92672 0.047333 0)
(2.94471 0.0369236 0)
(2.97193 0.0266085 0)
(3.00175 0.0191894 0)
(3.03032 0.0187802 0)
(3.05718 0.0150148 0)
(3.08857 0.0193748 0)
(3.12593 0.0243392 0)
(3.16869 0.0215048 0)
(3.2141 0.00835154 0)
(3.26409 -0.00103184 0)
(3.30845 -0.000547328 0)
(3.33983 0.0133241 0)
(3.36737 0.0253141 0)
(3.39033 0.0342803 0)
(3.41208 0.0381351 0)
(3.43522 0.0256713 0)
(3.46362 0.00715582 0)
(3.49401 -0.0101287 0)
(3.52206 -0.0201553 0)
(3.5434 -0.0295355 0)
(3.56139 -0.035123 0)
(3.58163 -0.0341788 0)
(3.60539 -0.0237308 0)
(3.62988 -0.00754215 0)
(3.64874 0.0124125 0)
(3.65974 0.0284487 0)
(3.66957 0.03551 0)
(3.67995 0.0304538 0)
(3.69204 0.0187093 0)
(3.70594 0.00585457 0)
(3.71686 -0.00452528 0)
(3.72214 -0.0127611 0)
(3.722 -0.019167 0)
(3.72008 -0.0226626 0)
(3.71893 -0.0200497 0)
(3.71739 -0.0157091 0)
(3.71478 -0.0103897 0)
(3.71227 -0.0044765 0)
(3.7107 0.00124501 0)
(3.7076 0.00552538 0)
(3.70291 0.00751731 0)
(3.69814 0.00834926 0)
(3.69423 0.00949146 0)
(3.69136 0.0111803 0)
(3.68825 0.0113451 0)
(3.68515 0.00918017 0)
(3.68106 0.00649428 0)
(3.67425 0.00459479 0)
(3.66626 0.00164671 0)
(3.65865 0.00012711 0)
(3.65163 -0.000217584 0)
(3.64571 0.000137762 0)
(3.64186 0.000729198 0)
(3.64292 0.00432825 0)
(3.64895 0.005309 0)
(3.65633 0.00748241 0)
(3.66604 0.008617 0)
(3.67789 0.00673419 0)
(3.69143 0.00506477 0)
(3.70556 0.00390886 0)
(3.71762 0.00369709 0)
(3.72771 0.0029474 0)
(3.73707 0.00293326 0)
(3.74649 0.00339114 0)
(3.75696 0.00469464 0)
(3.77191 0.00498592 0)
(3.79171 0.00618708 0)
(3.81545 0.00612813 0)
(3.84213 0.00790958 0)
(3.86997 0.00692671 0)
(3.89874 0.00707472 0)
(3.9277 0.00579242 0)
(3.95658 0.00323762 0)
(3.98471 0.00151392 0)
(4.01156 0.000442367 0)
(4.03826 0.00057799 0)
(4.06651 -0.00059886 0)
(4.09868 -0.000739353 0)
(4.13583 0.000571159 0)
(4.17585 0.00338312 0)
(4.21688 0.00612228 0)
(4.25747 0.00912668 0)
(4.29647 0.0106716 0)
(4.33362 0.0101889 0)
(4.36839 0.00560074 0)
(4.40022 0.00204945 0)
(4.42892 -0.000271112 0)
(4.45522 -0.00153797 0)
(4.4807 -0.00236294 0)
(4.50833 -0.00146235 0)
(4.53982 0.00237777 0)
(4.57366 0.00819512 0)
(4.60651 0.0132669 0)
(4.63705 0.0148255 0)
(4.667 0.0121469 0)
(4.69551 0.00489806 0)
(4.72214 -0.000286344 0)
(4.74731 -0.0043936 0)
(4.77027 -0.00634931 0)
(4.79076 -0.00603672 0)
(4.81088 -0.000268573 0)
(4.83195 0.00728458 0)
(4.85066 0.0140391 0)
(4.86648 0.0149378 0)
(4.88075 0.0099243 0)
(4.89287 0.00114965 0)
(4.9029 -0.00579412 0)
(4.91127 -0.00875616 0)
(4.9177 -0.0101981 0)
(4.92373 -0.00762534 0)
(4.9312 -0.00114062 0)
(4.93971 0.00823269 0)
(4.94775 0.0153109 0)
(4.95414 0.0180687 0)
(4.95936 0.0158371 0)
(4.96152 0.00505209 0)
(4.963 -0.0120252 0)
(0.00136911 -0.0309481 0)
(0.00794886 -0.0115768 0)
(0.00928342 0.0154953 0)
(0.00696408 0.0338937 0)
(0.00161476 0.0272052 0)
(-0.00268303 0.0251958 0)
(-0.0080688 0.0269277 0)
(-0.0136354 0.0287963 0)
(-0.0193652 0.0316886 0)
(-0.024792 0.0374157 0)
(-0.0308334 0.0425734 0)
(-0.0370629 0.0443086 0)
(-0.0414106 0.0407089 0)
(-0.043897 0.0345694 0)
(-0.0470069 0.0338977 0)
(-0.0458981 0.0223194 0)
(-0.0391107 0.0111488 0)
(-0.0271887 0.00247504 0)
(-0.0129185 -0.00754351 0)
(0.0117534 -0.00851467 0)
(0.0360433 -0.032708 0)
(0.0701188 -0.0523274 0)
(0.112916 -0.0636833 0)
(0.161298 -0.0720466 0)
(0.208123 -0.075342 0)
(0.250395 -0.0759826 0)
(0.292889 -0.0787168 0)
(0.333909 -0.0742168 0)
(0.371783 -0.0678564 0)
(0.405016 -0.0570013 0)
(0.430975 -0.0409321 0)
(0.44527 -0.0214816 0)
(0.452152 -0.00882187 0)
(0.444156 0.00265429 0)
(0.430015 0.0331492 0)
(0.401589 0.0714576 0)
(0.358339 0.0830723 0)
(0.313764 0.104562 0)
(0.238989 0.148318 0)
(0.120851 0.160686 0)
(-0.010655 0.16819 0)
(-0.148517 0.200972 0)
(-0.283613 0.22005 0)
(-0.409256 0.230176 0)
(-0.53562 0.212603 0)
(-0.656441 0.189962 0)
(-0.768305 0.175363 0)
(-0.870188 0.144921 0)
(-0.940896 0.0931252 0)
(-0.989148 0.0445015 0)
(-0.995801 -0.0139627 0)
(-0.944946 -0.0598052 0)
(-0.850814 -0.0913653 0)
(-0.749296 -0.145922 0)
(-0.636836 -0.196867 0)
(-0.490533 -0.218591 0)
(-0.317275 -0.249239 0)
(-0.11815 -0.268835 0)
(0.0967985 -0.279792 0)
(0.313682 -0.273049 0)
(0.518141 -0.247935 0)
(0.692593 -0.216238 0)
(0.841735 -0.199999 0)
(0.945269 -0.122089 0)
(0.97625 -0.0234537 0)
(0.893451 0.0433824 0)
(0.655023 0.153646 0)
(0.311812 0.149192 0)
(-0.0289271 0.104722 0)
(-0.402944 0.0551809 0)
(-0.812106 0.0357006 0)
(-1.2761 0.0857694 0)
(-1.81618 0.1865 0)
(-2.41707 0.347681 0)
(-3.06148 0.55249 0)
(-3.75841 0.78582 0)
(-4.55187 1.10912 0)
(-5.51427 1.40186 0)
(-6.62272 1.56879 0)
(-7.79254 1.56218 0)
(-8.95278 1.42492 0)
(-10.0586 1.20645 0)
(-11.068 0.932957 0)
(-11.9682 0.746045 0)
(-12.7527 0.6156 0)
(-13.4001 0.532608 0)
(-13.8751 0.484197 0)
(-14.1814 0.458097 0)
(-14.3252 0.43472 0)
(-14.3643 0.329773 0)
(-14.3867 0.27457 0)
(-14.3007 0.200953 0)
(-14.1114 0.0958627 0)
(-13.8076 -0.00770061 0)
(-13.5133 -0.172496 0)
(-13.1316 -0.308138 0)
(-12.523 -0.334494 0)
(-11.8491 -0.368368 0)
(-11.0966 -0.431973 0)
(-10.1753 -0.794942 0)
(-9.07431 -0.876399 0)
(-8.06654 -0.944504 0)
(-7.22759 -1.01505 0)
(-6.49495 -1.05711 0)
(-5.78203 -1.09235 0)
(-5.04687 -1.14055 0)
(-4.27479 -1.19895 0)
(-3.47103 -1.21192 0)
(-2.56155 -1.35138 0)
(-1.48613 -1.52399 0)
(-0.311932 -1.5821 0)
(0.943641 -1.44521 0)
(2.22714 -1.16167 0)
(3.54194 -1.10882 0)
(4.82046 -0.995433 0)
(6.00539 -0.790586 0)
(7.0847 -0.559755 0)
(8.05637 -0.343465 0)
(8.92031 -0.183584 0)
(9.65026 -0.13299 0)
(10.182 -0.21968 0)
(10.5476 -0.165552 0)
(10.7369 -0.329556 0)
(10.8863 -0.2403 0)
(10.934 0.0911965 0)
(10.8987 0.393879 0)
(10.7045 0.571727 0)
(10.4289 0.669668 0)
(10.1414 0.759138 0)
(9.88519 0.702414 0)
(9.72766 0.463126 0)
(9.55984 0.0361325 0)
(9.06882 0.0292075 0)
(8.41198 0.242769 0)
(7.84794 0.78174 0)
(7.25431 1.01263 0)
(6.7494 0.991776 0)
(6.29816 0.912677 0)
(5.90826 0.795934 0)
(5.71208 0.569509 0)
(5.6025 0.411925 0)
(5.49731 0.328354 0)
(5.38731 0.264594 0)
(5.2999 0.204294 0)
(5.25498 0.140839 0)
(5.26819 0.0848319 0)
(5.35354 0.0346221 0)
(5.50968 -0.0544593 0)
(5.76214 -0.15004 0)
(6.11329 -0.235287 0)
(6.57065 -0.290317 0)
(7.11275 -0.303749 0)
(7.69981 -0.269647 0)
(8.27674 -0.201575 0)
(8.77762 -0.165128 0)
(9.15172 -0.157418 0)
(9.39494 -0.187315 0)
(9.56171 -0.211588 0)
(9.70676 -0.245815 0)
(9.86302 -0.269549 0)
(10.0381 -0.249178 0)
(10.2148 -0.19891 0)
(10.3618 -0.125789 0)
(10.4646 -0.0588496 0)
(10.5228 -0.0211325 0)
(10.5391 0.00153862 0)
(10.5281 0.0207999 0)
(10.5112 0.0511465 0)
(10.4718 0.0761454 0)
(10.4129 0.09667 0)
(10.3337 0.109447 0)
(10.238 0.115912 0)
(10.1295 0.130681 0)
(10.0083 0.154712 0)
(9.87049 0.174707 0)
(9.71399 0.191744 0)
(9.53583 0.208367 0)
(9.33789 0.202341 0)
(9.12485 0.18943 0)
(8.90521 0.194952 0)
(8.68961 0.204252 0)
(8.48239 0.202107 0)
(8.27659 0.203882 0)
(8.07024 0.195986 0)
(7.87421 0.177869 0)
(7.68697 0.170049 0)
(7.49012 0.173465 0)
(7.27861 0.155615 0)
(7.06404 0.13194 0)
(6.85603 0.130027 0)
(6.65136 0.139903 0)
(6.44186 0.143813 0)
(6.22857 0.142869 0)
(6.01552 0.14522 0)
(5.80277 0.146883 0)
(5.59137 0.144431 0)
(5.38549 0.136436 0)
(5.19231 0.124639 0)
(5.01703 0.107255 0)
(4.86077 0.0843296 0)
(4.7221 0.063208 0)
(4.59801 0.0443633 0)
(4.4845 0.0319413 0)
(4.37843 0.0260406 0)
(4.2787 0.0348377 0)
(4.18475 0.0424582 0)
(4.09539 0.0395736 0)
(4.01542 0.0183586 0)
(3.94832 -0.00853543 0)
(3.90008 -0.0305194 0)
(3.87916 -0.0578302 0)
(3.84687 -0.0701848 0)
(3.80285 -0.0457804 0)
(3.73251 -0.0274562 0)
(3.65946 0.020165 0)
(3.59616 0.0198354 0)
(3.55787 0.0176666 0)
(3.50993 0.0668767 0)
(3.39246 0.0872906 0)
(3.22158 0.0711301 0)
(3.03277 0.0425345 0)
(2.8541 0.0291831 0)
(2.68559 0.0209977 0)
(2.50364 0.0273115 0)
(2.27883 0.0650665 0)
(1.99296 0.120359 0)
(1.65575 0.214044 0)
(1.2762 0.301588 0)
(0.889909 0.308466 0)
(0.544484 0.296005 0)
(0.229561 0.334208 0)
(-0.0810119 0.368632 0)
(-0.391993 0.389878 0)
(-0.704494 0.421924 0)
(-1.02368 0.468327 0)
(-1.35927 0.523981 0)
(-1.71616 0.568297 0)
(-2.07733 0.585857 0)
(-2.43291 0.591741 0)
(-2.76349 0.556825 0)
(-3.04978 0.525209 0)
(-3.29895 0.492014 0)
(-3.51205 0.397599 0)
(-3.61475 0.236209 0)
(-3.64602 0.137601 0)
(-3.59498 0.0802122 0)
(-3.47542 0.00158095 0)
(-3.24817 -0.0795899 0)
(-2.92567 -0.0802486 0)
(-2.529 -0.154225 0)
(-2.01354 -0.221543 0)
(-1.40804 -0.224738 0)
(-0.759138 -0.184816 0)
(-0.133267 -0.176429 0)
(0.411689 -0.249067 0)
(0.880476 -0.333109 0)
(1.31286 -0.383555 0)
(1.73167 -0.41567 0)
(2.15421 -0.451247 0)
(2.5873 -0.458335 0)
(3.00551 -0.430574 0)
(3.39984 -0.43198 0)
(3.81402 -0.441341 0)
(4.26835 -0.383297 0)
(4.72473 -0.302465 0)
(5.16952 -0.225382 0)
(5.59467 -0.15787 0)
(5.98973 -0.100794 0)
(6.34061 -0.102993 0)
(6.60979 -0.0896869 0)
(6.78679 -0.076893 0)
(6.89871 -0.0688933 0)
(6.98223 -0.0480671 0)
(7.06361 -0.0257143 0)
(7.12845 0.00534062 0)
(7.16563 0.0319407 0)
(7.16586 0.0546412 0)
(7.13214 0.0664801 0)
(7.07243 0.0932982 0)
(6.97483 0.111324 0)
(6.83579 0.116122 0)
(6.65601 0.136595 0)
(6.44347 0.151768 0)
(6.23372 0.119483 0)
(6.05312 0.135473 0)
(5.88852 0.18592 0)
(5.69971 0.213297 0)
(5.51328 0.192245 0)
(5.34182 0.216292 0)
(5.13916 0.297504 0)
(4.82734 0.337359 0)
(4.38944 0.314468 0)
(3.84875 0.305199 0)
(3.31173 0.290544 0)
(2.87166 0.275024 0)
(2.53679 0.27037 0)
(2.27228 0.265969 0)
(2.04714 0.267719 0)
(1.85588 0.262681 0)
(1.69074 0.236619 0)
(1.54447 0.205605 0)
(1.41996 0.182067 0)
(1.32964 0.159986 0)
(1.27191 0.145191 0)
(1.2536 0.102923 0)
(1.2521 0.0818441 0)
(1.25487 0.0606165 0)
(1.27217 0.0267846 0)
(1.31738 -0.0381317 0)
(1.43119 -0.077328 0)
(1.58693 -0.0897452 0)
(1.76201 -0.0949608 0)
(1.95602 -0.0795677 0)
(2.17168 -0.064528 0)
(2.40872 -0.0554507 0)
(2.66966 -0.0506093 0)
(2.96289 -0.0493902 0)
(3.3063 -0.0436075 0)
(3.71818 -0.0304579 0)
(4.19975 -0.00850131 0)
(4.7245 0.00611371 0)
(5.24128 -0.0338268 0)
(5.70024 -0.0790814 0)
(6.07237 -0.11582 0)
(6.35123 -0.154546 0)
(6.56819 -0.171948 0)
(6.76882 -0.197489 0)
(6.97783 -0.225467 0)
(7.18883 -0.244478 0)
(7.38529 -0.273649 0)
(7.59789 -0.293271 0)
(7.87183 -0.244207 0)
(8.1661 -0.148341 0)
(8.4478 -0.0794447 0)
(8.718 -0.031492 0)
(8.98255 0.00431193 0)
(9.24594 0.0266646 0)
(9.48866 0.0168952 0)
(9.68027 -0.00840005 0)
(9.80887 -0.0156787 0)
(9.88367 -0.0126669 0)
(9.92691 0.00363592 0)
(9.9603 0.0201367 0)
(9.98579 0.039844 0)
(10.0003 0.0568809 0)
(9.98939 0.0765938 0)
(9.9506 0.0862545 0)
(9.89311 0.0961088 0)
(9.83078 0.106477 0)
(9.77353 0.11048 0)
(9.71931 0.115566 0)
(9.66854 0.12121 0)
(9.62383 0.132358 0)
(9.58839 0.126971 0)
(9.55725 0.121216 0)
(9.52086 0.120425 0)
(9.48735 0.109486 0)
(9.4591 0.100441 0)
(9.43274 0.101775 0)
(9.40109 0.082442 0)
(9.35935 0.0624824 0)
(9.32125 0.0699917 0)
(9.30609 0.109983 0)
(9.28144 0.124037 0)
(9.25992 0.107562 0)
(9.21593 0.107677 0)
(9.15449 0.116945 0)
(9.09945 0.115129 0)
(9.07453 0.0970333 0)
(9.07935 0.0759026 0)
(9.10603 0.0579447 0)
(9.11651 0.00822936 0)
(9.14307 -0.0202839 0)
(9.18161 -0.0198846 0)
(9.21847 -0.0113285 0)
(9.25146 0.00949805 0)
(9.26291 0.0592141 0)
(9.28704 0.0764276 0)
(9.3078 0.07449 0)
(9.3186 0.0811856 0)
(9.32012 0.0869515 0)
(9.31727 0.0888157 0)
(9.31692 0.0496725 0)
(9.32735 0.0158948 0)
(9.35046 0.0136893 0)
(9.39082 0.0161288 0)
(9.45125 0.0187878 0)
(9.52449 0.0159055 0)
(9.59612 -0.00716229 0)
(9.66294 -0.0281204 0)
(9.7258 -0.0393024 0)
(9.79302 -0.0392132 0)
(9.8812 -0.0365507 0)
(9.98002 -0.0112952 0)
(10.0742 -0.0165589 0)
(10.1501 -0.0259977 0)
(10.2051 -0.031285 0)
(10.2463 -0.0398388 0)
(10.2881 -0.0436223 0)
(10.3446 -0.0387129 0)
(10.4196 -0.0224775 0)
(10.5082 -0.0048505 0)
(10.6025 0.0122989 0)
(10.697 0.0181381 0)
(10.7859 0.00689072 0)
(10.8606 -0.0128675 0)
(10.9158 -0.0266598 0)
(10.9521 -0.0345149 0)
(10.9731 -0.0430518 0)
(10.9844 -0.0495467 0)
(10.9962 -0.0543051 0)
(11.018 -0.0506059 0)
(11.0539 -0.0374872 0)
(11.0996 -0.0179974 0)
(11.1467 0.000851545 0)
(11.1896 0.0134384 0)
(11.2263 0.0151503 0)
(11.2548 0.0143639 0)
(11.2743 0.011463 0)
(11.2861 0.0072309 0)
(11.2916 0.000342099 0)
(11.294 -0.00518114 0)
(11.2933 -0.00694665 0)
(11.2921 -0.00684687 0)
(11.2923 -0.00796128 0)
(11.2941 -0.0104169 0)
(11.2947 -0.0123777 0)
(11.2915 -0.0113313 0)
(11.2847 -0.0063826 0)
(11.278 0.000799134 0)
(11.2743 0.0102369 0)
(11.2722 0.0159341 0)
(11.2748 0.0184526 0)
(11.2787 0.020647 0)
(11.2829 0.0196524 0)
(11.2843 0.0136361 0)
(11.2856 0.00212102 0)
(11.2824 -0.00230929 0)
(11.2792 -0.00509769 0)
(11.2793 -0.00794228 0)
(11.282 -0.00784614 0)
(11.2884 -0.00556063 0)
(11.2998 -0.000199501 0)
(11.3143 0.00863845 0)
(11.3324 0.0151586 0)
(11.3511 0.0186676 0)
(11.3687 0.0210984 0)
(11.3843 0.0174896 0)
(11.3974 0.00854098 0)
(11.4115 0.0023582 0)
(11.4257 -0.00345789 0)
(11.4418 -0.00559295 0)
(11.4603 -0.00489319 0)
(11.4831 -0.00350127 0)
(11.5099 -0.000330216 0)
(11.5411 0.00482674 0)
(11.5761 0.0110335 0)
(11.6129 0.0157523 0)
(11.6504 0.0159622 0)
(11.6877 0.0135442 0)
(11.7247 0.00505881 0)
(11.7614 -0.00381817 0)
(11.7976 -0.00891361 0)
(11.8338 -0.0116935 0)
(11.8699 -0.0117694 0)
(11.9058 -0.00958961 0)
(11.9415 -0.00557093 0)
(11.9782 0.00312325 0)
(12.016 0.0124845 0)
(12.0541 0.0193011 0)
(12.0914 0.0235078 0)
(12.1271 0.0223086 0)
(12.1613 0.0142437 0)
(12.1937 0.00259627 0)
(12.2247 -0.00462437 0)
(12.2523 -0.00618864 0)
(12.2773 -0.00646979 0)
(12.3038 -0.00559098 0)
(12.3327 0.00253188 0)
(12.3652 0.00765315 0)
(12.4001 0.0123986 0)
(12.4351 0.017285 0)
(12.4672 0.0184992 0)
(12.4947 0.00882327 0)
(12.5174 0.000436655 0)
(12.5332 -0.000958646 0)
(12.5436 0.000143797 0)
(12.5542 0.00238832 0)
(12.5655 0.0109502 0)
(12.5806 0.0177568 0)
(12.5978 0.0215854 0)
(12.6149 0.0226312 0)
(12.6299 0.0171945 0)
(12.6413 0.00442678 0)
(12.6501 -0.00608604 0)
(12.6525 -0.0121568 0)
(12.6542 -0.0130334 0)
(12.6557 -0.0117365 0)
(12.6561 -0.00501179 0)
(12.6561 0.00874965 0)
(0.0249149 -0.0258147 0)
(0.0334719 -0.00226128 0)
(0.0513021 0.0277424 0)
(0.0496599 0.0512052 0)
(0.0440232 0.0463334 0)
(0.0353611 0.0454838 0)
(0.0249501 0.0488413 0)
(0.013601 0.0509823 0)
(0.00286864 0.0540267 0)
(-0.00704641 0.0613217 0)
(-0.0186493 0.0670575 0)
(-0.0305651 0.0666534 0)
(-0.0381932 0.0596817 0)
(-0.0435503 0.052886 0)
(-0.0376624 0.0410492 0)
(-0.0227727 0.0230761 0)
(-0.00618246 0.00671097 0)
(0.0146772 -0.00599078 0)
(0.0354441 -0.021222 0)
(0.0653845 -0.0277925 0)
(0.0922853 -0.0535516 0)
(0.120973 -0.0780387 0)
(0.164017 -0.10139 0)
(0.221955 -0.112017 0)
(0.284264 -0.116036 0)
(0.349551 -0.12212 0)
(0.413694 -0.124158 0)
(0.472272 -0.114852 0)
(0.52729 -0.103274 0)
(0.577127 -0.0873399 0)
(0.61275 -0.0650567 0)
(0.629601 -0.0356947 0)
(0.644599 -0.0129896 0)
(0.637548 0.00671562 0)
(0.619952 0.0485067 0)
(0.575883 0.101051 0)
(0.50683 0.1204 0)
(0.43143 0.157158 0)
(0.344829 0.231884 0)
(0.216607 0.279315 0)
(0.0646065 0.304674 0)
(-0.0819422 0.330996 0)
(-0.179545 0.313021 0)
(-0.251092 0.315527 0)
(-0.336106 0.310902 0)
(-0.424061 0.288594 0)
(-0.515797 0.276445 0)
(-0.608065 0.233914 0)
(-0.674159 0.154574 0)
(-0.739696 0.0779314 0)
(-0.777247 -0.0190733 0)
(-0.793793 -0.127261 0)
(-0.779568 -0.197925 0)
(-0.744177 -0.2867 0)
(-0.637347 -0.406497 0)
(-0.469848 -0.469261 0)
(-0.287058 -0.543763 0)
(-0.0659414 -0.589576 0)
(0.165445 -0.609102 0)
(0.389177 -0.585837 0)
(0.58185 -0.525893 0)
(0.734175 -0.45261 0)
(0.87176 -0.388298 0)
(0.950019 -0.230104 0)
(0.97226 -0.0202473 0)
(0.915107 0.241224 0)
(0.648515 0.547698 0)
(0.101088 0.653734 0)
(-0.616757 0.713423 0)
(-1.44594 0.692894 0)
(-2.33899 0.690762 0)
(-3.30493 0.790414 0)
(-4.36167 0.945649 0)
(-5.48396 1.10321 0)
(-6.63665 1.28532 0)
(-7.79954 1.46031 0)
(-8.9215 1.70272 0)
(-9.96342 1.91413 0)
(-10.8773 2.0677 0)
(-11.6523 2.12878 0)
(-12.272 2.13481 0)
(-12.7882 2.0344 0)
(-13.1922 1.84421 0)
(-13.524 1.62896 0)
(-13.8214 1.43201 0)
(-14.021 1.18541 0)
(-14.1854 0.956861 0)
(-14.3327 0.752888 0)
(-14.3834 0.533531 0)
(-14.4776 0.436195 0)
(-14.457 0.224657 0)
(-14.334 0.0180671 0)
(-14.2038 -0.22212 0)
(-13.9745 -0.457846 0)
(-13.5677 -0.718354 0)
(-13.0609 -1.00483 0)
(-12.5189 -1.34345 0)
(-11.729 -1.65177 0)
(-10.6062 -1.86219 0)
(-9.41697 -2.26454 0)
(-8.1688 -2.23706 0)
(-6.94144 -2.01264 0)
(-5.74718 -1.79155 0)
(-4.56639 -1.68744 0)
(-3.3441 -1.68129 0)
(-2.0355 -1.7231 0)
(-0.638302 -1.77188 0)
(0.829841 -1.79347 0)
(2.30129 -1.86468 0)
(3.67303 -2.05815 0)
(4.89846 -2.25554 0)
(6.03193 -2.34388 0)
(7.08928 -2.25109 0)
(8.07326 -2.41455 0)
(9.05614 -2.49044 0)
(10.0474 -2.4357 0)
(11.0171 -2.26964 0)
(11.93 -2.02263 0)
(12.7792 -1.74664 0)
(13.5408 -1.32209 0)
(14.2188 -0.811168 0)
(14.8176 -0.292624 0)
(15.3915 -0.11964 0)
(15.7539 -0.152296 0)
(15.9091 -0.07707 0)
(15.8768 0.0664657 0)
(15.7258 0.22791 0)
(15.4667 0.311435 0)
(15.1052 0.350557 0)
(14.6264 0.348496 0)
(14.0023 0.499871 0)
(13.2369 0.927659 0)
(12.5311 1.52905 0)
(11.8046 1.56911 0)
(11.3347 1.32804 0)
(11.1423 1.05267 0)
(11.1568 0.861667 0)
(11.0853 0.755668 0)
(10.9109 0.540318 0)
(10.5249 0.419809 0)
(10.115 0.412308 0)
(9.80674 0.462759 0)
(9.60399 0.449232 0)
(9.50332 0.35128 0)
(9.49758 0.22017 0)
(9.57498 0.0843209 0)
(9.73172 -0.0819941 0)
(9.97264 -0.288077 0)
(10.2709 -0.549863 0)
(10.6294 -0.832206 0)
(11.0658 -1.07957 0)
(11.5727 -1.23997 0)
(12.127 -1.27147 0)
(12.6924 -1.1634 0)
(13.2238 -0.904129 0)
(13.7103 -0.580327 0)
(14.1963 -0.327896 0)
(14.6969 -0.217562 0)
(15.1947 -0.191689 0)
(15.6713 -0.207246 0)
(16.0753 -0.253549 0)
(16.3633 -0.239042 0)
(16.5422 -0.186854 0)
(16.6404 -0.103069 0)
(16.701 -0.0177419 0)
(16.755 0.0347752 0)
(16.7923 0.058327 0)
(16.8046 0.0762759 0)
(16.7897 0.103794 0)
(16.755 0.133498 0)
(16.7054 0.159881 0)
(16.645 0.179628 0)
(16.5703 0.193655 0)
(16.4686 0.210282 0)
(16.3285 0.240849 0)
(16.1515 0.282003 0)
(15.9486 0.331501 0)
(15.7343 0.376889 0)
(15.5309 0.414732 0)
(15.3353 0.407589 0)
(15.1336 0.3725 0)
(14.906 0.351928 0)
(14.6558 0.356817 0)
(14.3863 0.33925 0)
(14.1171 0.296804 0)
(13.874 0.302627 0)
(13.645 0.340184 0)
(13.4167 0.373087 0)
(13.2028 0.366821 0)
(13.0003 0.353423 0)
(12.7904 0.36091 0)
(12.563 0.380423 0)
(12.328 0.387757 0)
(12.0959 0.392304 0)
(11.8581 0.397575 0)
(11.6108 0.397186 0)
(11.3564 0.380402 0)
(11.0983 0.3396 0)
(10.8407 0.289031 0)
(10.5945 0.24201 0)
(10.3681 0.199025 0)
(10.1642 0.172379 0)
(9.98301 0.157065 0)
(9.81 0.153466 0)
(9.62142 0.144258 0)
(9.39189 0.132872 0)
(9.12776 0.108648 0)
(8.87424 0.0698589 0)
(8.67948 0.0228741 0)
(8.57455 -0.044552 0)
(8.53453 -0.0664475 0)
(8.54525 -0.0212052 0)
(8.6021 0.0531512 0)
(8.66208 0.127959 0)
(8.6436 0.0932124 0)
(8.3781 -0.0426194 0)
(7.89799 -0.0459824 0)
(7.41765 0.0682365 0)
(7.06051 0.232676 0)
(6.80092 0.310524 0)
(6.59444 0.278702 0)
(6.38854 0.232596 0)
(6.13333 0.20568 0)
(5.80862 0.268429 0)
(5.42282 0.406911 0)
(4.99425 0.591567 0)
(4.55713 0.787446 0)
(4.10213 0.932059 0)
(3.6582 0.895127 0)
(3.28462 0.803617 0)
(2.94325 0.76631 0)
(2.5839 0.749988 0)
(2.16687 0.725982 0)
(1.66084 0.72906 0)
(1.08743 0.774996 0)
(0.504051 0.874361 0)
(-0.0508706 0.96091 0)
(-0.538867 0.986763 0)
(-0.948361 0.999154 0)
(-1.25405 0.914846 0)
(-1.45344 0.803549 0)
(-1.60981 0.727711 0)
(-1.68936 0.562677 0)
(-1.76303 0.282931 0)
(-1.86682 0.144854 0)
(-1.80929 -0.000603216 0)
(-1.66017 -0.203442 0)
(-1.44743 -0.508446 0)
(-1.07696 -0.670601 0)
(-0.709766 -0.925994 0)
(-0.221263 -1.1622 0)
(0.372587 -1.26444 0)
(1.06369 -1.2061 0)
(1.83329 -1.02227 0)
(2.62528 -0.841004 0)
(3.40872 -0.744929 0)
(4.19501 -0.698942 0)
(5.0072 -0.676768 0)
(5.86785 -0.690049 0)
(6.78704 -0.668179 0)
(7.72444 -0.588642 0)
(8.58858 -0.569465 0)
(9.18651 -0.749258 0)
(9.54735 -0.81068 0)
(9.79086 -0.779786 0)
(10.0248 -0.742373 0)
(10.2681 -0.699574 0)
(10.5237 -0.662938 0)
(10.8078 -0.545789 0)
(11.1002 -0.350752 0)
(11.386 -0.172558 0)
(11.6565 -0.0665268 0)
(11.859 -0.0513061 0)
(11.964 -0.0490073 0)
(11.9982 -0.000873625 0)
(11.9868 0.0680451 0)
(11.9895 0.137512 0)
(11.9464 0.190763 0)
(11.8569 0.246408 0)
(11.7131 0.317074 0)
(11.5468 0.407967 0)
(11.3817 0.493974 0)
(11.2078 0.532247 0)
(11.0724 0.471803 0)
(11.0261 0.38967 0)
(10.9676 0.408377 0)
(10.7872 0.420408 0)
(10.3828 0.298258 0)
(9.71446 0.318442 0)
(8.93008 0.510751 0)
(8.10665 0.793628 0)
(7.32796 1.09947 0)
(6.69621 1.30324 0)
(6.20987 1.2057 0)
(5.85615 0.995398 0)
(5.61281 0.808069 0)
(5.40211 0.720487 0)
(5.21063 0.644695 0)
(5.01007 0.560435 0)
(4.78111 0.500836 0)
(4.56502 0.450611 0)
(4.39396 0.3873 0)
(4.2796 0.303163 0)
(4.21279 0.220576 0)