/*--------------------------------*- C++ -*----------------------------------*\
| =========                 |                                                 |
| \\      /  F ield         | OpenFOAM: The Open Source CFD Toolbox           |
|  \\    /   O peration     | Version:  v1812                                 |
|   \\  /    A nd           | Web:      www.OpenFOAM.com                      |
|    \\/     M anipulation  |                                                 |
\*---------------------------------------------------------------------------*/
FoamFile
{
    version     2.0;
    format      ascii;
    class       volScalarField;
    location    "0.012";
    object      p;
}
// * * * * * * * * * * * * * * * * * * * * * * * * * * * * * * * * * * * * * //

dimensions      [1 -1 -2 0 0 0 0];


internalField   nonuniform List<scalar> 
800
(
100
99.9999
99.999
99.9993
99.9999
99.998
99.9997
100.004
100.001
99.9984
99.9986
100.003
99.9961
99.9962
100.003
100.009
100.001
99.9946
99.9992
100.006
100.001
99.9963
99.9986
100.003
100
99.9987
99.9993
99.9998
99.9998
99.9997
99.9999
99.9999
99.9999
99.9998
99.9998
99.9995
99.9996
99.9992
99.9981
99.9986
100
99.9956
99.9941
100
100.009
99.9915
99.9755
99.9969
100.051
99.9842
99.9647
100.01
100.056
100.001
99.9648
100
100.058
100.007
99.9728
99.9978
100.037
100.01
99.9862
99.9961
100.019
100.006
99.994
99.9946
100.009
100.027
100
99.984
100.007
100.043
100.002
99.9757
100.003
100.044
100.004
99.9767
99.9956
100.027
100.002
99.9868
99.9931
99.9903
99.9852
100.004
100.031
99.9973
99.9765
100.004
100.045
100.005
99.9792
99.9998
100.033
100.009
99.9916
99.9939
100.002
100.004
99.9948
99.9902
100.007
100.032
99.9961
99.9739
100.005
100.053
99.9972
99.9616
100.001
100.058
100.006
99.9774
99.9879
100.034
99.9944
99.967
99.9989
100.048
100.005
99.9751
99.9962
100.03
100.006
99.9899
99.9926
100.001
100.001
99.9969
99.9961
100.004
100.016
100.001
99.9916
100.003
100.02
100.003
99.9913
99.9999
100.013
100.003
99.9942
99.9981
100.006
100.001
99.9982
100
100
100
100
99.9999
100
100
99.9979
100
100.006
99.9975
99.9935
100.002
100.013
99.9979
99.9883
100.002
100.023
99.9997
99.9866
100.001
100.014
100.005
99.9874
99.9922
100.023
99.9962
99.9885
100
100.007
100.001
99.9949
99.997
100.002
99.9991
99.9969
99.9968
99.9992
100.003
99.9965
99.9936
100.001
100.007
100.002
99.9913
99.9948
100.017
99.9812
99.9945
100.013
100.02
100.006
99.9787
99.9976
100.033
100.003
99.9824
99.9976
100.022
100.002
99.9888
99.9996
100.016
100.002
99.9936
100.001
100.013
100.004
99.9973
100.001
100.009
100.004
100.001
100.001
100.003
100.005
100.003
100
100.001
100.003
100.003
100.009
99.9937
99.9876
100.007
100.03
99.9989
99.9776
99.9992
100.033
99.9988
99.9726
99.9897
100.026
99.9906
99.9655
99.9591
99.9676
99.9493
99.9153
99.9557
99.884
99.8894
99.9359
99.7459
99.8986
99.7553
99.6433
99.7109
99.4191
99.731
99.5753
99.0262
99.483
98.6306
99.0336
99.0719
98.3255
99.4627
97.8871
96.9007
99.6722
97.3411
94.889
98.1761
96.7737
95.0625
98.3395
95.3109
95.7486
95.5342
93.8116
96.5501
94.8603
92.4144
95.8356
94.6785
90.3959
93.2638
93.1198
90.2106
93.7682
90.8355
87.4009
89.8918
89.8048
88.2355
88.3167
88.555
86.7607
87.2352
86.9518
85.8408
86.2619
85.0554
84.9743
84.6002
86.056
86.4299
82.4211
82.5812
80.0031
80.2415
78.7283
77.8772
76.7408
76.3729
75.436
74.7785
73.8743
73.1928
72.2449
71.6616
70.6869
70.0711
69.1892
68.4294
67.7029
66.8922
66.113
65.2677
64.5435
63.7367
63.0948
62.3732
61.8595
61.1318
60.6212
59.8786
59.2886
58.5973
57.9644
57.3038
56.6675
56.0298
55.3932
54.7549
54.1106
53.4789
52.8645
52.2686
51.6844
51.1021
50.5653
50.0526
49.6035
49.1922
48.8734
48.5711
48.387
48.2229
48.1654
48.1401
48.1734
48.2459
48.3328
48.3977
48.427
48.4346
48.4289
48.4267
48.4355
48.4592
48.4879
48.5192
48.5451
48.5704
48.5909
48.6112
48.631
48.6535
48.6776
48.7023
48.7273
48.7507
48.771
48.7878
48.8
48.8083
48.8093
48.8102
48.8083
48.8049
48.7926
48.7927
48.7809
48.7667
48.7535
48.7371
48.7211
48.7074
48.6964
48.6884
48.6835
48.681
48.6806
48.6815
48.6834
48.686
48.6894
48.6932
48.6963
48.6991
48.7002
48.6996
48.6972
48.693
48.687
48.6794
48.6707
48.661
48.6503
48.6385
48.6256
48.6114
48.5965
48.5815
48.5671
48.5542
48.5429
48.5328
48.5237
48.5147
48.5057
48.4963
48.487
48.4783
48.4716
48.4673
48.4641
48.4615
48.4605
48.4598
48.4596
48.4598
48.4598
48.4601
48.4606
48.4606
48.4605
48.4612
48.4645
48.4705
48.4777
48.4888
48.5019
48.5178
48.5347
48.5499
48.5426
48.5166
48.5319
48.5773
48.6043
48.6012
48.523
48.1843
47.0719
44.1452
36.7273
20.6246
3.07882
0.0114242
0.0100001
0.01
0.01
0.01
0.01
0.01
0.01
0.01
0.01
0.01
0.01
0.01
0.01
0.01
0.01
0.01
0.01
0.01
0.01
0.01
0.01
0.01
0.01
0.01
0.01
0.01
0.01
0.01
0.01
0.01
0.01
0.01
0.01
0.01
0.01
0.01
0.01
0.01
0.01
0.01
0.01
0.01
0.01
0.01
0.01
0.01
0.01
0.01
0.01
0.01
0.01
0.01
0.01
0.01
0.01
0.01
0.01
0.01
0.01
0.01
0.01
0.01
0.01
0.01
0.01
0.01
0.01
0.01
0.01
0.01
0.01
0.01
0.01
0.01
0.01
0.01
0.01
0.01
0.01
0.01
0.01
0.01
0.01
0.01
0.01
0.01
0.01
0.01
0.01
0.01
0.01
0.01
0.01
0.01
0.01
0.01
0.01
0.01
0.01
0.01
0.01
0.01
0.01
0.01
0.01
0.01
0.01
0.01
0.01
0.01
0.01
0.01
0.01
0.01
0.01
0.01
0.01
0.01
0.01
0.01
0.01
0.01
0.01
0.01
0.01
0.01
0.01
0.01
0.01
0.01
0.01
0.01
0.01
0.01
0.01
0.01
0.01
0.01
0.01
0.01
0.01
0.01
0.01
0.01
0.01
0.01
0.01
0.01
0.01
0.01
0.01
0.01
0.01
0.01
0.01
0.01
0.01
0.01
0.01
0.01
0.01
0.01
0.01
0.01
0.01
0.01
0.01
0.01
0.01
0.01
0.01
0.01
0.01
0.01
0.01
0.01
0.01
0.01
0.01
0.01
0.01
0.01
0.01
0.01
0.01
0.01
0.01
0.01
0.01
0.01
0.01
0.01
0.01
0.01
0.01
0.01
0.01
0.01
0.01
0.01
0.01
0.01
0.01
0.01
0.01
0.01
0.01
0.01
0.01
0.01
0.01
0.01
0.01
0.01
0.01
0.01
0.01
0.01
0.01
0.01
0.01
0.01
0.01
0.01
0.01
0.01
0.01
0.01
0.01
0.01
0.01
0.01
0.01
0.01
0.01
0.01
0.01
0.01
0.01
0.01
0.01
0.01
0.01
0.01
0.01
0.01
0.01
0.01
0.01
0.01
0.01
0.01
0.01
0.01
0.01
0.01
0.01
0.01
0.01
0.01
0.01
0.01
0.01
0.01
0.01
0.01
0.01
0.01
0.01
0.01
0.01
0.01
0.01
0.01
0.01
0.01
0.01
0.01
0.01
0.01
0.01
0.01
0.01
0.01
0.01
0.01
0.01
0.01
0.01
0.01
0.01
0.01
0.01
0.01
0.01
0.01
0.01
0.01
0.01
0.01
0.01
0.01
0.01
0.01
0.01
0.01
0.01
0.01
0.01
0.01
0.01
0.01
0.01
0.01
0.01
0.01
0.01
0.01
0.01
0.01
0.01
0.01
0.01
0.01
0.01
0.01
0.01
0.01
)
;

boundaryField
{
    sides
    {
        type            zeroGradient;
    }
    empty1
    {
        type            empty;
    }
    empty2
    {
        type            empty;
    }
}


// ************************************************************************* //
