/*--------------------------------*- C++ -*----------------------------------*\
| =========                 |                                                 |
| \\      /  F ield         | OpenFOAM: The Open Source CFD Toolbox           |
|  \\    /   O peration     | Version:  v1812                                 |
|   \\  /    A nd           | Web:      www.OpenFOAM.com                      |
|    \\/     M anipulation  |                                                 |
\*---------------------------------------------------------------------------*/
FoamFile
{
    version     2.0;
    format      ascii;
    class       surfaceScalarField;
    location    "0.012";
    object      phi;
}
// * * * * * * * * * * * * * * * * * * * * * * * * * * * * * * * * * * * * * //

dimensions      [1 0 -1 0 0 0 0];
oriented        oriented;


internalField   nonuniform List<scalar> 
799
(
-1.79619e-08
-1.10179e-08
1.51886e-08
2.89081e-08
1.36667e-08
6.95134e-08
9.15328e-08
6.46073e-09
-1.04399e-07
-1.08906e-08
1.01697e-07
-1.24116e-07
7.52516e-08
1.72678e-07
1.67699e-07
-1.42474e-07
-1.36686e-07
3.77694e-08
1.05892e-07
-1.28054e-07
-1.23768e-07
-1.53166e-08
3.38664e-08
-6.70354e-08
-6.13317e-08
-2.54676e-08
-9.49292e-09
-1.20221e-08
-1.03833e-08
-4.08973e-09
-7.32162e-10
3.28935e-12
4.37141e-09
9.56661e-09
1.23554e-08
2.78993e-08
2.5223e-08
3.48648e-08
7.57235e-08
1.01559e-07
2.04594e-08
9.54873e-08
2.70732e-07
3.40649e-07
-6.62238e-09
3.04379e-07
1.0741e-06
9.85726e-07
-9.50535e-07
-5.66131e-07
9.95683e-07
1.1132e-06
-1.09228e-06
-6.16432e-07
5.78927e-07
9.56579e-07
-1.05505e-06
-8.45056e-07
1.25415e-07
5.2883e-07
-7.36742e-07
-6.80953e-07
-1.01282e-07
2.18287e-07
-2.61381e-07
-2.34947e-07
1.02143e-07
4.3333e-07
4.55825e-07
-3.65569e-07
-6.46769e-08
6.04463e-07
7.65352e-07
-6.5045e-07
-3.60648e-07
5.06442e-07
7.63705e-07
-7.59411e-07
-5.88794e-07
1.63756e-07
4.5406e-07
-4.94871e-07
-4.26091e-07
-9.41666e-08
-2.6692e-08
1.16422e-07
5.04139e-07
5.62364e-07
-5.28394e-07
-2.44761e-07
5.37226e-07
7.37778e-07
-7.84915e-07
-5.86364e-07
1.7898e-07
4.85561e-07
-5.84993e-07
-5.47531e-07
-1.85252e-07
6.71264e-08
5.98733e-08
-9.65228e-09
2.21922e-07
6.12212e-07
6.64319e-07
-4.17564e-07
-4.19025e-08
8.49729e-07
1.05434e-06
-8.15498e-07
-4.12205e-07
8.07904e-07
1.11137e-06
-1.02748e-06
-7.04268e-07
2.53283e-07
6.91024e-07
-8.9018e-07
-5.4182e-07
4.52981e-07
7.54649e-07
-9.55696e-07
-7.69254e-07
4.21161e-08
3.6787e-07
-6.3743e-07
-5.85755e-07
-2.35555e-07
-2.92123e-08
-9.19161e-08
-9.80362e-08
4.12404e-08
2.15515e-07
2.39695e-07
-2.44428e-07
-1.10676e-07
2.30787e-07
3.20512e-07
-3.29413e-07
-2.46837e-07
8.0637e-08
1.99362e-07
-2.44288e-07
-2.32039e-07
-2.86405e-08
6.20782e-08
-1.17894e-07
-9.58109e-08
-3.28766e-08
-2.52298e-08
-1.74202e-08
-5.96053e-09
4.37063e-09
2.26893e-08
2.71639e-08
2.60725e-08
1.03117e-07
1.31909e-07
-4.44097e-08
5.41855e-08
2.62373e-07
2.75126e-07
-1.88218e-07
-4.13827e-08
3.4802e-07
4.33969e-07
-3.84437e-07
-2.49231e-07
1.64913e-07
3.20904e-07
-3.41214e-07
-2.56153e-07
2.4219e-07
2.9464e-07
-5.1716e-07
-3.31787e-07
1.38893e-07
1.08872e-07
-1.781e-07
-1.63515e-07
-3.24292e-08
3.73087e-08
-5.13654e-08
-4.34382e-08
1.84988e-08
8.34312e-08
9.49289e-08
-3.75736e-08
6.12636e-08
2.11519e-07
1.59975e-07
-1.13507e-07
-1.34994e-07
2.30724e-07
4.0779e-07
-1.02471e-07
2.39462e-07
2.65908e-07
5.21561e-07
-3.51934e-07
-3.54296e-07
2.57116e-07
5.68099e-07
-6.01793e-07
-4.72804e-07
1.09026e-07
3.21889e-07
-4.45188e-07
-3.50813e-07
5.06542e-08
1.9637e-07
-3.29576e-07
-2.51698e-07
3.15263e-08
1.42367e-07
-2.34458e-07
-1.71888e-07
-1.63581e-08
4.21856e-08
-1.20943e-07
-1.04e-07
-2.07914e-08
3.70616e-08
5.87365e-08
-9.62245e-09
1.74017e-08
5.8282e-08
1.57686e-07
2.29476e-07
2.55294e-07
-1.35067e-07
1.31753e-07
5.972e-07
6.42285e-07
-4.03641e-07
-1.47606e-07
5.63376e-07
7.77325e-07
-4.40308e-07
-2.6017e-07
5.0572e-07
9.08567e-07
-6.80052e-08
1.02843e-08
5.9292e-07
1.50415e-06
1.25012e-06
2.03512e-06
2.88886e-06
1.96483e-06
5.37221e-06
5.04163e-06
3.94268e-06
1.07171e-05
3.99112e-06
1.23051e-05
9.90136e-06
9.80838e-06
2.48931e-05
8.60996e-06
1.93737e-05
3.92366e-05
2.52558e-05
5.21756e-05
4.1758e-05
7.06838e-05
8.39695e-05
2.28152e-05
9.48343e-05
0.00012904
-4.00122e-06
9.57311e-05
0.000166006
2.12193e-05
0.000108522
0.000175351
0.000126824
0.00018758
0.000155733
0.000253653
0.000255204
8.87243e-05
0.000227379
0.000259084
9.07687e-05
0.000191748
0.000289179
0.000213824
0.000295583
0.000322
0.000187893
0.000311114
0.000435277
0.0003664
0.000381173
0.000408694
0.00041949
0.000405174
0.000440116
0.00042447
0.000427924
0.00047883
0.00046507
0.000493121
0.000512808
0.000583543
0.000584958
0.000631784
0.000658293
0.000656252
0.00068146
0.000686065
0.000704949
0.000724832
0.000758043
0.000774268
0.000793221
0.000810495
0.000831192
0.000849341
0.000872523
0.000890428
0.000917429
0.000933112
0.000962568
0.000980159
0.0010002
0.00101676
0.00103387
0.00104639
0.00106309
0.00107933
0.00109849
0.0011193
0.00113784
0.00115772
0.00117477
0.00119407
0.00120881
0.00122566
0.00124006
0.00125605
0.00127006
0.0012843
0.00129706
0.00130965
0.00132145
0.00133268
0.00134344
0.00135335
0.00136375
0.00137302
0.00138134
0.0013879
0.00139394
0.0013986
0.00140358
0.00140739
0.00141083
0.00141338
0.00141436
0.00141345
0.00141166
0.00140811
0.00140466
0.00140127
0.0013982
0.00139592
0.00139405
0.00139285
0.00139248
0.00139267
0.0013933
0.0013937
0.00139373
0.00139367
0.00139344
0.00139275
0.00139168
0.00139044
0.00138918
0.00138798
0.0013869
0.00138603
0.00138557
0.00138571
0.00138595
0.00138641
0.00138723
0.00138832
0.0013894
0.00138992
0.00138952
0.00138877
0.00138762
0.0013863
0.00138474
0.00138348
0.00138271
0.00138228
0.00138217
0.00138235
0.0013828
0.00138342
0.00138413
0.0013849
0.00138569
0.00138638
0.00138698
0.00138755
0.00138807
0.00138851
0.0013889
0.00138928
0.0013896
0.00138988
0.0013901
0.00139026
0.00139036
0.00139039
0.00139039
0.00139038
0.00139036
0.00139036
0.00139035
0.00139034
0.0013903
0.00139022
0.0013901
0.00138996
0.00138979
0.00138961
0.00138948
0.00138939
0.00138933
0.00138926
0.00138924
0.00138931
0.00138947
0.00138983
0.0013906
0.00139215
0.00139516
0.0014008
0.00141092
0.00142845
0.00145777
0.00150519
0.00157951
0.00169306
0.00186279
0.00211137
0.00246888
0.00297359
0.00366989
0.00460082
0.00579008
0.00720947
0.00876293
0.0103028
0.0116793
0.0127805
0.0135726
0.0140886
0.0143622
0.0143828
0.0139536
0.0126922
0.0095034
0.00382943
0.000141882
5.1948e-08
2.06183e-14
1.19147e-20
-1.4468e-20
5.23269e-20
5.73111e-20
-9.07788e-21
1.07318e-19
-3.94722e-20
7.53412e-21
3.22987e-20
-1.21388e-19
9.15627e-20
4.66106e-20
-4.15672e-20
-1.56997e-19
-3.12654e-20
4.4476e-20
3.58159e-20
-1.37011e-20
1.23979e-19
-7.72912e-20
5.22889e-21
1.24127e-20
-9.68426e-20
2.36418e-21
-5.43124e-20
1.06765e-19
4.83179e-20
-8.29493e-20
-4.65996e-20
6.9034e-20
2.10859e-20
-9.11007e-20
6.40566e-20
-6.19106e-20
7.74517e-20
-1.26665e-19
1.021e-19
3.20636e-20
-1.57926e-20
3.85384e-20
-1.78358e-20
7.61759e-21
-7.98286e-20
-6.80679e-20
6.86979e-20
-5.47004e-20
-3.17378e-20
6.11994e-20
8.44044e-20
-1.76321e-21
-1.26233e-19
8.98557e-20
4.99578e-20
-1.44789e-20
1.83412e-20
-3.94602e-20
-9.43288e-20
-1.34042e-20
-5.99921e-20
7.60574e-20
1.38623e-19
-2.52516e-20
-1.24555e-20
-5.92162e-20
6.55411e-20
-4.67886e-21
4.03327e-20
-2.62111e-20
-7.70283e-20
-4.41052e-20
7.29952e-20
3.13145e-20
-4.7086e-20
-2.0323e-20
-1.27626e-21
1.03992e-19
-5.98469e-20
4.75992e-20
-9.26303e-20
6.2474e-20
4.5481e-20
-8.62003e-20
-6.02382e-20
6.23466e-20
6.93571e-20
-1.11638e-19
1.82599e-20
-5.95457e-20
7.51755e-20
1.401e-19
-2.71366e-20
-3.03271e-20
-1.49819e-19
-2.98098e-21
1.14686e-19
8.55827e-21
-1.25976e-19
8.79571e-20
2.52612e-20
6.23858e-20
-7.1736e-20
-1.92729e-20
1.32523e-19
-8.01417e-20
1.18446e-20
1.05273e-19
-9.18176e-21
-6.22021e-20
-1.23736e-19
7.36187e-20
1.35457e-19
-2.13433e-20
8.33177e-22
-1.98021e-20
3.72935e-20
-1.35372e-20
1.90315e-20
-4.63092e-20
-1.1955e-19
-5.21306e-21
8.62345e-20
4.62667e-20
-8.73075e-20
-6.96671e-20
1.83146e-20
7.9388e-20
-1.59157e-20
1.26569e-19
-6.29002e-20
-3.35539e-20
1.32809e-19
-8.39306e-20
-4.62988e-20
6.56981e-20
1.56813e-20
-1.10905e-19
2.13154e-20
-4.8128e-20
5.57394e-20
-4.76369e-20
5.04959e-20
-1.38883e-20
9.33631e-20
-1.09283e-19
3.62553e-20
2.8502e-20
1.01088e-19
-6.38935e-21
-1.77799e-20
9.84444e-21
-9.01582e-20
-1.12825e-19
7.22532e-21
5.69701e-20
5.54146e-20
1.75679e-20
-9.79819e-20
1.6243e-20
3.39984e-20
1.04478e-19
-7.09155e-21
-2.16019e-20
7.68931e-22
-2.84793e-20
1.90857e-20
-4.66894e-20
3.49989e-20
-7.73286e-20
1.03842e-19
-6.3541e-20
-4.2254e-20
1.14945e-19
-3.88983e-20
9.80126e-21
3.12023e-20
-1.39132e-19
-5.73689e-21
1.74697e-21
5.52596e-20
-9.29616e-20
-9.43822e-21
5.86621e-20
6.37346e-20
-2.75706e-20
-5.54551e-20
8.59507e-20
1.08458e-20
-1.18467e-19
-1.92724e-20
2.84558e-20
5.76298e-20
-2.81913e-20
-9.13818e-20
4.63745e-23
3.80159e-20
7.09212e-20
2.11074e-20
-9.12873e-20
6.01585e-20
-9.47353e-20
2.81767e-20
-2.95962e-20
3.00647e-20
5.96144e-20
-3.90117e-20
-1.07108e-19
2.66031e-21
3.37664e-20
6.17937e-21
1.54754e-20
8.54084e-20
-1.76893e-20
-4.46676e-20
6.93198e-20
9.56374e-20
-2.6629e-20
-2.65238e-20
-1.31829e-19
4.29746e-20
-4.05271e-20
3.29611e-21
1.2044e-19
5.27612e-20
-2.46481e-20
-9.87442e-21
-4.75456e-20
8.57608e-20
-2.66891e-20
-1.21068e-20
3.15495e-20
-9.20752e-20
-1.00373e-19
4.05343e-20
3.72976e-20
-7.21372e-21
1.37265e-19
-2.72345e-20
-2.31784e-20
-9.5822e-20
1.65725e-20
6.91283e-20
-1.17183e-19
-2.17257e-20
8.08335e-22
8.42956e-22
8.9748e-21
1.63001e-20
8.88234e-20
1.64539e-20
5.206e-20
-6.67854e-20
-3.73881e-20
-9.24872e-21
7.4662e-20
-4.90142e-20
1.12892e-19
-8.77853e-20
-7.4641e-20
-1.98438e-22
2.36976e-20
8.93971e-20
1.94783e-20
6.12274e-20
-6.10408e-20
-2.30503e-20
9.26211e-20
-5.22698e-20
-2.30817e-20
1.36837e-19
-9.96107e-20
-5.89857e-20
-2.83306e-20
1.30102e-20
7.77073e-20
-7.26873e-20
2.92299e-21
6.70121e-22
7.35575e-20
-8.65306e-22
-3.71409e-21
-4.36046e-21
1.37261e-19
-9.99231e-20
-6.28856e-20
-1.26386e-20
5.65968e-20
8.84133e-20
-9.66791e-20
4.82317e-20
1.02166e-19
-1.05624e-19
-5.40697e-20
3.74033e-20
-5.55758e-20
7.28164e-20
1.29733e-21
6.65071e-20
-1.10908e-19
2.11385e-20
-4.98213e-20
4.90956e-20
-8.16552e-20
4.39192e-20
9.20465e-20
4.14781e-20
-8.64482e-20
-6.78787e-20
7.25038e-20
1.41543e-21
6.70545e-20
-1.06721e-19
2.96775e-20
-1.40779e-20
-1.46206e-20
-2.87218e-20
7.20806e-20
7.42595e-20
-2.73091e-20
-8.23771e-20
-7.00817e-20
-4.42807e-22
-1.10716e-20
9.47646e-21
2.51705e-21
-1.87775e-20
3.61527e-21
)
;

boundaryField
{
    sides
    {
        type            calculated;
        value           uniform 0;
    }
    empty1
    {
        type            empty;
        value           nonuniform 0();
    }
    empty2
    {
        type            empty;
        value           nonuniform 0();
    }
}


// ************************************************************************* //
