/*--------------------------------*- C++ -*----------------------------------*\
| =========                 |                                                 |
| \\      /  F ield         | OpenFOAM: The Open Source CFD Toolbox           |
|  \\    /   O peration     | Version:  v1812                                 |
|   \\  /    A nd           | Web:      www.OpenFOAM.com                      |
|    \\/     M anipulation  |                                                 |
\*---------------------------------------------------------------------------*/
FoamFile
{
    version     2.0;
    format      ascii;
    class       volScalarField;
    location    "0.012";
    object      rho;
}
// * * * * * * * * * * * * * * * * * * * * * * * * * * * * * * * * * * * * * //

dimensions      [1 -3 0 0 0 0 0];


internalField   nonuniform List<scalar> 
800
(
0.99996
0.999939
0.999923
0.999933
0.999955
0.99991
0.999932
1.00003
0.999909
0.999891
0.999932
1.00007
0.99988
0.999841
0.999922
1.00019
0.999919
0.999817
0.999899
1.00011
0.99994
0.999864
0.999908
1.00002
0.999938
0.999917
0.999936
0.999944
0.99994
0.99994
0.999941
0.999942
0.999941
0.99994
0.999941
0.999938
0.999941
0.999935
0.999923
0.999927
0.999975
0.999882
0.999852
0.999923
1.00019
0.999782
0.999605
0.999845
1.00091
0.999558
0.999241
0.999856
1.00144
0.999687
0.999087
0.999666
1.00135
0.999793
0.999251
0.999674
1.00082
0.99991
0.999538
0.999733
1.00026
0.99993
0.999717
0.999709
0.999931
1.00051
0.999742
0.999463
0.999839
1.00094
0.999743
0.999314
0.999768
1.00104
0.999823
0.99939
0.999735
1.00064
0.999892
0.999699
0.999894
0.999834
0.999658
0.999906
1.00074
0.999738
0.999368
0.999802
1.00104
0.999808
0.999384
0.999731
1.0007
0.999919
0.999678
0.999771
0.999952
0.999997
0.999787
0.999661
0.999909
1.0007
0.999684
0.999299
0.999808
1.00127
0.999655
0.999051
0.999734
1.00151
0.999704
0.999235
0.999629
1.00111
0.999688
0.999205
0.999713
1.0012
0.999838
0.999318
0.999699
1.00067
0.999915
0.99969
0.999811
0.99997
0.999947
0.999855
0.999812
0.999928
1.0003
0.99985
0.999692
0.99988
1.00041
0.999887
0.999704
0.999858
1.00026
0.999935
0.999799
0.999878
1.00007
0.999928
0.999893
0.999943
0.99994
0.999932
0.999937
0.999931
0.99994
0.999944
0.999892
0.999925
1.00006
0.999875
0.999797
0.999935
1.00028
0.999838
0.999665
0.999888
1.00053
0.999835
0.999612
0.999847
1.00046
0.999921
0.99969
0.99975
1.0004
0.999869
0.999739
0.999897
1.00016
0.999934
0.999845
0.999893
1
0.999938
0.999899
0.999894
0.999933
1.00004
0.999889
0.999825
0.999929
1.00017
0.999906
0.999763
0.999861
1.00037
0.99963
0.999675
0.999954
1.00075
0.999826
0.999431
0.999763
1.00077
0.999857
0.999525
0.999794
1.00048
0.99988
0.999658
0.999844
1.00031
0.999891
0.999743
0.999869
1.00021
0.999922
0.999813
0.999882
1.00008
0.999934
0.999883
0.999897
0.999935
1
0.999918
0.999885
0.999885
0.999996
0.999931
1.00008
0.999744
0.999659
0.99993
1.00069
0.999759
0.999415
0.999788
1.00086
0.999813
0.999338
0.999673
1.00074
0.999837
0.999516
0.999564
0.999719
0.999642
0.999281
0.999483
0.999354
0.998972
0.999459
0.998349
0.998981
0.998242
0.997663
0.996919
0.996301
0.997772
0.99829
0.991749
0.994936
0.990942
0.992695
0.992102
0.991696
0.994527
0.982769
0.980732
0.990721
0.988185
0.966624
0.97935
0.977543
0.9693
0.987312
0.972509
0.960289
0.969258
0.969824
0.968139
0.965938
0.957153
0.962913
0.966911
0.946736
0.951993
0.948943
0.941637
0.959853
0.922517
0.922365
0.932695
0.925347
0.928254
0.911359
0.91433
0.903775
0.902087
0.895432
0.894276
0.87922
0.880469
0.851997
0.882497
0.841522
0.925619
0.819989
0.898899
0.824474
0.868488
0.832167
0.839527
0.820193
0.828657
0.814392
0.816649
0.804687
0.802041
0.791697
0.788572
0.780695
0.778049
0.771593
0.76629
0.761136
0.752821
0.748069
0.737567
0.733851
0.723464
0.721192
0.71133
0.709957
0.700328
0.698615
0.689817
0.686758
0.679689
0.675487
0.67006
0.665612
0.660874
0.65596
0.651011
0.645824
0.640798
0.636029
0.631061
0.626774
0.621448
0.618066
0.612138
0.6091
0.603381
0.601506
0.597033
0.596336
0.593854
0.593809
0.593382
0.593583
0.593889
0.594347
0.594673
0.594542
0.594315
0.594262
0.594379
0.594789
0.595575
0.596551
0.59749
0.598081
0.598405
0.598544
0.598455
0.598128
0.597675
0.597173
0.596684
0.596241
0.595864
0.595609
0.595587
0.595748
0.595973
0.59632
0.596868
0.59749
0.598107
0.598353
0.598379
0.598213
0.597912
0.597502
0.597039
0.596746
0.596593
0.596531
0.596575
0.596709
0.596897
0.597103
0.597302
0.59748
0.597617
0.597692
0.597735
0.59776
0.597765
0.597749
0.597723
0.597692
0.597645
0.597583
0.597509
0.597424
0.597328
0.597225
0.597118
0.597011
0.596907
0.596808
0.596718
0.59664
0.596573
0.596514
0.596456
0.596386
0.596295
0.596193
0.596078
0.595956
0.595819
0.5957
0.595613
0.595581
0.595592
0.595741
0.596133
0.597006
0.598756
0.602019
0.607834
0.617734
0.633978
0.659704
0.699304
0.758778
0.846172
0.972095
1.15024
1.39727
1.73117
2.16614
2.70368
3.31975
3.96405
4.57402
5.09414
5.49163
5.76521
5.93362
6.00955
5.97593
5.7513
5.12916
3.7049
1.77439
1.01881
0.99995
0.999943
0.999943
0.999943
0.999943
0.999943
0.999943
0.999943
0.999943
0.999943
0.999943
0.999943
0.999943
0.999943
0.999943
0.999943
0.999943
0.999943
0.999943
0.999943
0.999943
0.999943
0.999943
0.999943
0.999943
0.999943
0.999943
0.999943
0.999943
0.999943
0.999943
0.999943
0.999943
0.999943
0.999943
0.999943
0.999943
0.999943
0.999943
0.999943
0.999943
0.999943
0.999943
0.999943
0.999943
0.999943
0.999943
0.999943
0.999943
0.999943
0.999943
0.999943
0.999943
0.999943
0.999943
0.999943
0.999943
0.999943
0.999943
0.999943
0.999943
0.999943
0.999943
0.999943
0.999943
0.999943
0.999943
0.999943
0.999943
0.999943
0.999943
0.999943
0.999943
0.999943
0.999943
0.999943
0.999943
0.999943
0.999943
0.999943
0.999943
0.999943
0.999943
0.999943
0.999943
0.999943
0.999943
0.999943
0.999943
0.999943
0.999943
0.999943
0.999943
0.999943
0.999943
0.999943
0.999943
0.999943
0.999943
0.999943
0.999943
0.999943
0.999943
0.999943
0.999943
0.999943
0.999943
0.999943
0.999943
0.999943
0.999943
0.999943
0.999943
0.999943
0.999943
0.999943
0.999943
0.999943
0.999943
0.999943
0.999943
0.999943
0.999943
0.999943
0.999943
0.999943
0.999943
0.999943
0.999943
0.999943
0.999943
0.999943
0.999943
0.999943
0.999943
0.999943
0.999943
0.999943
0.999943
0.999943
0.999943
0.999943
0.999943
0.999943
0.999943
0.999943
0.999943
0.999943
0.999943
0.999943
0.999943
0.999943
0.999943
0.999943
0.999943
0.999943
0.999943
0.999943
0.999943
0.999943
0.999943
0.999943
0.999943
0.999943
0.999943
0.999943
0.999943
0.999943
0.999943
0.999943
0.999943
0.999943
0.999943
0.999943
0.999943
0.999943
0.999943
0.999943
0.999943
0.999943
0.999943
0.999943
0.999943
0.999943
0.999943
0.999943
0.999943
0.999943
0.999943
0.999943
0.999943
0.999943
0.999943
0.999943
0.999943
0.999943
0.999943
0.999943
0.999943
0.999943
0.999943
0.999943
0.999943
0.999943
0.999943
0.999943
0.999943
0.999943
0.999943
0.999943
0.999943
0.999943
0.999943
0.999943
0.999943
0.999943
0.999943
0.999943
0.999943
0.999943
0.999943
0.999943
0.999943
0.999943
0.999943
0.999943
0.999943
0.999943
0.999943
0.999943
0.999943
0.999943
0.999943
0.999943
0.999943
0.999943
0.999943
0.999943
0.999943
0.999943
0.999943
0.999943
0.999943
0.999943
0.999943
0.999943
0.999943
0.999943
0.999943
0.999943
0.999943
0.999943
0.999943
0.999943
0.999943
0.999943
0.999943
0.999943
0.999943
0.999943
0.999943
0.999943
0.999943
0.999943
0.999943
0.999943
0.999943
0.999943
0.999943
0.999943
0.999943
0.999943
0.999943
0.999943
0.999943
0.999943
0.999943
0.999943
0.999943
0.999943
0.999943
0.999943
0.999943
0.999943
0.999943
0.999943
0.999943
0.999943
0.999943
0.999943
0.999943
0.999943
0.999943
0.999943
0.999943
0.999943
0.999943
0.999943
0.999943
0.999943
0.999943
0.999943
0.999943
0.999943
0.999943
0.999943
0.999943
0.999943
0.999943
0.999943
0.999943
0.999943
0.999943
0.999943
0.999943
0.999943
0.999943
0.999943
0.999943
0.999943
0.999943
0.999943
0.999943
0.999943
0.999943
0.999943
0.999943
0.999943
)
;

boundaryField
{
    sides
    {
        type            calculated;
        value           nonuniform List<scalar> 2(0.999943 0.99996);
    }
    empty1
    {
        type            empty;
    }
    empty2
    {
        type            empty;
    }
}


// ************************************************************************* //
