/*--------------------------------*- C++ -*----------------------------------*\
| =========                 |                                                 |
| \\      /  F ield         | OpenFOAM: The Open Source CFD Toolbox           |
|  \\    /   O peration     | Version:  v1812                                 |
|   \\  /    A nd           | Web:      www.OpenFOAM.com                      |
|    \\/     M anipulation  |                                                 |
\*---------------------------------------------------------------------------*/
FoamFile
{
    version     2.0;
    format      ascii;
    class       volScalarField;
    location    "0.012";
    object      T;
}
// * * * * * * * * * * * * * * * * * * * * * * * * * * * * * * * * * * * * * //

dimensions      [0 0 0 1 0 0 0];


internalField   nonuniform List<scalar> 
800
(
249.996
250.001
250.003
250.001
249.997
250.003
250.002
249.988
250.011
250.009
249.999
249.975
250.006
250.016
250.012
249.963
250.009
250.018
250.009
249.973
250.004
250.011
250.005
249.99
250.002
250.003
250
249.999
250
250
250
250
250
250
250
250
250
250
250
250.001
249.993
250.005
250.008
250.006
249.962
250.019
250.023
250.017
249.887
250.057
250.087
250.046
249.765
250.066
250.126
250.07
249.794
250.054
250.105
250.062
249.874
250.034
250.067
250.043
249.966
250.018
250.042
250.045
250.026
249.925
250.051
250.08
250.045
249.859
250.055
250.097
250.051
249.836
250.041
250.08
250.041
249.894
250.018
250.028
249.995
250.003
250.034
250.019
249.878
250.045
250.085
250.045
249.838
250.047
250.088
250.053
249.893
250.028
250.045
250.028
250.004
249.997
250.026
250.046
250.027
249.891
250.055
250.096
250.047
249.8
250.065
250.127
250.055
249.754
250.074
250.121
250.048
249.794
250.05
250.102
250.055
249.806
250.038
250.094
250.052
249.893
250.022
250.038
250.015
249.996
250.002
250.014
250.023
250.015
249.951
250.026
250.042
250.023
249.933
250.022
250.038
250.021
249.953
250.01
250.021
250.012
249.985
250.006
250.008
250
250.001
250.003
250.002
250.003
250.002
250
250.008
250.005
249.986
250.011
250.02
250.008
249.949
250.021
250.04
250.019
249.912
250.026
250.049
250.026
249.907
250.018
250.032
250.029
249.942
250.009
250.022
250.012
249.965
250.005
250.012
250.005
249.989
249.999
250.003
250.004
250.001
249.984
250.005
250.014
250.007
249.962
250.013
250.023
250.008
249.937
250.031
250.053
250.031
249.848
250.043
250.075
250.039
249.875
250.028
250.061
250.031
249.92
250.021
250.043
250.024
249.949
250.019
250.034
250.022
249.966
250.016
250.026
250.019
249.989
250.012
250.017
250.015
250.01
249.999
250.013
250.016
250.016
249.995
250.01
249.989
250.034
250.04
250.021
249.887
250.043
250.076
250.037
249.853
250.03
250.083
250.042
249.866
250.003
250.021
249.992
249.975
249.949
249.954
250.004
249.857
249.966
249.961
249.763
249.987
249.813
249.678
250.034
249.456
249.87
249.351
249.611
249.959
248.816
249.392
249.637
247.858
250.011
248.994
246.997
251.5
246.248
245.399
250.601
247.478
245.169
248.994
244.999
249.256
246.397
241.813
249.305
245.499
241.365
248.803
244.783
238.691
244.903
245.311
239.491
244.212
246.148
236.88
240.933
242.611
237.625
242.253
242.117
239.982
241.746
242.751
239.959
245.266
241.492
249.324
239.648
255.641
233.425
251.273
229.66
242.575
230.967
236.502
231.895
233.897
230.399
231.558
228.906
229.499
228.132
228.12
227.175
226.346
225.137
224.164
223.236
222.362
222.126
220.933
221.214
219.867
220.236
218.705
219.201
217.816
218.213
216.921
216.997
215.816
215.517
214.516
213.789
212.828
211.941
211.103
210.257
209.452
208.63
207.78
207.055
206.141
205.565
204.519
204.406
203.582
203.808
203.118
203.374
202.84
202.997
202.77
202.809
202.881
203.082
203.291
203.452
203.62
203.73
203.724
203.675
203.571
203.402
203.189
203.001
202.909
202.904
202.943
203.058
203.252
203.5
203.772
204.042
204.299
204.526
204.699
204.777
204.773
204.731
204.616
204.431
204.211
203.986
203.851
203.842
203.85
203.893
203.978
204.067
204.1
204.095
204.07
204.021
203.955
203.88
203.808
203.744
203.691
203.656
203.645
203.646
203.65
203.66
203.67
203.676
203.677
203.676
203.671
203.665
203.657
203.65
203.64
203.627
203.609
203.586
203.557
203.525
203.491
203.46
203.433
203.41
203.395
203.389
203.386
203.386
203.388
203.399
203.411
203.423
203.42
203.406
203.351
203.214
202.916
202.324
201.227
199.303
196.111
191.087
183.635
173.238
159.67
143.197
124.666
105.382
86.7748
70.061
56.012
44.8899
36.5538
30.5961
26.5243
23.8384
22.1253
21.074
20.4429
20.0437
19.6912
19.1881
17.9002
13.9163
4.33761
0.0280314
0.025
0.025
0.025
0.025
0.025
0.025
0.025
0.025
0.025
0.025
0.025
0.025
0.025
0.025
0.025
0.025
0.025
0.025
0.025
0.025
0.025
0.025
0.025
0.025
0.025
0.025
0.025
0.025
0.025
0.025
0.025
0.025
0.025
0.025
0.025
0.025
0.025
0.025
0.025
0.025
0.025
0.025
0.025
0.025
0.025
0.025
0.025
0.025
0.025
0.025
0.025
0.025
0.025
0.025
0.025
0.025
0.025
0.025
0.025
0.025
0.025
0.025
0.025
0.025
0.025
0.025
0.025
0.025
0.025
0.025
0.025
0.025
0.025
0.025
0.025
0.025
0.025
0.025
0.025
0.025
0.025
0.025
0.025
0.025
0.025
0.025
0.025
0.025
0.025
0.025
0.025
0.025
0.025
0.025
0.025
0.025
0.025
0.025
0.025
0.025
0.025
0.025
0.025
0.025
0.025
0.025
0.025
0.025
0.025
0.025
0.025
0.025
0.025
0.025
0.025
0.025
0.025
0.025
0.025
0.025
0.025
0.025
0.025
0.025
0.025
0.025
0.025
0.025
0.025
0.025
0.025
0.025
0.025
0.025
0.025
0.025
0.025
0.025
0.025
0.025
0.025
0.025
0.025
0.025
0.025
0.025
0.025
0.025
0.025
0.025
0.025
0.025
0.025
0.025
0.025
0.025
0.025
0.025
0.025
0.025
0.025
0.025
0.025
0.025
0.025
0.025
0.025
0.025
0.025
0.025
0.025
0.025
0.025
0.025
0.025
0.025
0.025
0.025
0.025
0.025
0.025
0.025
0.025
0.025
0.025
0.025
0.025
0.025
0.025
0.025
0.025
0.025
0.025
0.025
0.025
0.025
0.025
0.025
0.025
0.025
0.025
0.025
0.025
0.025
0.025
0.025
0.025
0.025
0.025
0.025
0.025
0.025
0.025
0.025
0.025
0.025
0.025
0.025
0.025
0.025
0.025
0.025
0.025
0.025
0.025
0.025
0.025
0.025
0.025
0.025
0.025
0.025
0.025
0.025
0.025
0.025
0.025
0.025
0.025
0.025
0.025
0.025
0.025
0.025
0.025
0.025
0.025
0.025
0.025
0.025
0.025
0.025
0.025
0.025
0.025
0.025
0.025
0.025
0.025
0.025
0.025
0.025
0.025
0.025
0.025
0.025
0.025
0.025
0.025
0.025
0.025
0.025
0.025
0.025
0.025
0.025
0.025
0.025
0.025
0.025
0.025
0.025
0.025
0.025
0.025
0.025
0.025
0.025
0.025
0.025
0.025
0.025
0.025
0.025
0.025
0.025
0.025
0.025
0.025
0.025
0.025
0.025
0.025
0.025
0.025
0.025
0.025
0.025
0.025
0.025
0.025
0.025
0.025
0.025
0.025
0.025
0.025
0.025
0.025
0.025
0.025
0.025
0.025
0.025
0.025
0.025
0.025
0.025
)
;

boundaryField
{
    sides
    {
        type            zeroGradient;
    }
    empty1
    {
        type            empty;
    }
    empty2
    {
        type            empty;
    }
}


// ************************************************************************* //
