/*--------------------------------*- C++ -*----------------------------------*\
| =========                 |                                                 |
| \\      /  F ield         | OpenFOAM: The Open Source CFD Toolbox           |
|  \\    /   O peration     | Version:  v1812                                 |
|   \\  /    A nd           | Web:      www.OpenFOAM.com                      |
|    \\/     M anipulation  |                                                 |
\*---------------------------------------------------------------------------*/
FoamFile
{
    version     2.0;
    format      ascii;
    class       volVectorField;
    location    "0.012";
    object      U;
}
// * * * * * * * * * * * * * * * * * * * * * * * * * * * * * * * * * * * * * //

dimensions      [0 1 -1 0 0 0 0];


internalField   nonuniform List<vector> 
800
(
(0.000796796 0 0)
(-0.00138904 0 0)
(0.00165205 0 0)
(-0.00159926 0 0)
(0.00186928 0 0)
(-0.0021118 0 0)
(0.00231206 0 0)
(-0.00111398 0 0)
(-1.68162e-05 0 0)
(0.000301 0 0)
(-0.00146053 0 0)
(0.00356948 0 0)
(-0.00526216 0 0)
(0.00585368 0 0)
(-0.00730411 0 0)
(0.0117906 0 0)
(-0.0155898 0 0)
(0.0165878 0 0)
(-0.0171551 0 0)
(0.0196304 0 0)
(-0.0224355 0 0)
(0.0231067 0 0)
(-0.0232064 0 0)
(0.0239599 0 0)
(-0.0251211 0 0)
(0.02519 0 0)
(-0.025219 0 0)
(0.0251299 0 0)
(-0.0252263 0 0)
(0.0251998 0 0)
(-0.025219 0 0)
(0.0252018 0 0)
(-0.025188 0 0)
(0.025212 0 0)
(-0.0251852 0 0)
(0.0252604 0 0)
(-0.0251642 0 0)
(0.0253244 0 0)
(-0.0251458 0 0)
(0.0251825 0 0)
(-0.0242907 0 0)
(0.0240394 0 0)
(-0.0235306 0 0)
(0.0224473 0 0)
(-0.0173032 0 0)
(0.0143065 0 0)
(-0.0123157 0 0)
(0.0112149 0 0)
(-0.000188579 0 0)
(-0.0068787 0 0)
(0.00807276 0 0)
(-0.0176526 0 0)
(0.0429769 0 0)
(-0.0675001 0 0)
(0.0742525 0 0)
(-0.0789921 0 0)
(0.100934 0 0)
(-0.123963 0 0)
(0.128814 0 0)
(-0.132159 0 0)
(0.145252 0 0)
(-0.160694 0 0)
(0.164433 0 0)
(-0.164932 0 0)
(0.168658 0 0)
(-0.173457 0 0)
(0.174383 0 0)
(-0.174768 0 0)
(0.17202 0 0)
(-0.161905 0 0)
(0.153292 0 0)
(-0.151195 0 0)
(0.147579 0 0)
(-0.131072 0 0)
(0.115827 0 0)
(-0.112185 0 0)
(0.108348 0 0)
(-0.0912547 0 0)
(0.0739718 0 0)
(-0.0697864 0 0)
(0.0677996 0 0)
(-0.0576821 0 0)
(0.0461528 0 0)
(-0.0437973 0 0)
(0.0449543 0 0)
(-0.0451577 0 0)
(0.044277 0 0)
(-0.0473789 0 0)
(0.0604598 0 0)
(-0.0723448 0 0)
(0.0748802 0 0)
(-0.0791243 0 0)
(0.0962207 0 0)
(-0.11371 0 0)
(0.117763 0 0)
(-0.120515 0 0)
(0.131923 0 0)
(-0.145034 0 0)
(0.14829 0 0)
(-0.147606 0 0)
(0.147484 0 0)
(-0.146993 0 0)
(0.146869 0 0)
(-0.147218 0 0)
(0.14435 0 0)
(-0.13073 0 0)
(0.119845 0 0)
(-0.11708 0 0)
(0.112577 0 0)
(-0.0906099 0 0)
(0.070838 0 0)
(-0.0661964 0 0)
(0.0609119 0 0)
(-0.0359418 0 0)
(0.0109042 0 0)
(-0.00485979 0 0)
(0.00335478 0 0)
(0.0117011 0 0)
(-0.0309812 0 0)
(0.0349968 0 0)
(-0.0396991 0 0)
(0.0586145 0 0)
(-0.0787859 0 0)
(0.0831388 0 0)
(-0.0855765 0 0)
(0.0955274 0 0)
(-0.108174 0 0)
(0.110529 0 0)
(-0.110616 0 0)
(0.110311 0 0)
(-0.110855 0 0)
(0.110702 0 0)
(-0.111246 0 0)
(0.109622 0 0)
(-0.10376 0 0)
(0.0983618 0 0)
(-0.097134 0 0)
(0.0953681 0 0)
(-0.087976 0 0)
(0.0805394 0 0)
(-0.078754 0 0)
(0.077686 0 0)
(-0.0729583 0 0)
(0.0676576 0 0)
(-0.0663619 0 0)
(0.0662357 0 0)
(-0.0648969 0 0)
(0.0628952 0 0)
(-0.0629211 0 0)
(0.0630281 0 0)
(-0.0632737 0 0)
(0.0631576 0 0)
(-0.0631192 0 0)
(0.0630827 0 0)
(-0.06297 0 0)
(0.0632539 0 0)
(-0.0633215 0 0)
(0.0634175 0 0)
(-0.0614469 0 0)
(0.0602492 0 0)
(-0.0601016 0 0)
(0.0589173 0 0)
(-0.0532572 0 0)
(0.0485368 0 0)
(-0.0474799 0 0)
(0.0453796 0 0)
(-0.0359024 0 0)
(0.0268209 0 0)
(-0.0248178 0 0)
(0.022144 0 0)
(-0.0136683 0 0)
(0.00456159 0 0)
(-0.000207374 0 0)
(0.000818039 0 0)
(0.00330726 0 0)
(-0.00988819 0 0)
(0.0103776 0 0)
(-0.0115111 0 0)
(0.0144699 0 0)
(-0.0180653 0 0)
(0.018937 0 0)
(-0.0189635 0 0)
(0.0196384 0 0)
(-0.0206425 0 0)
(0.0208591 0 0)
(-0.0208379 0 0)
(0.0205752 0 0)
(-0.0189616 0 0)
(0.0180614 0 0)
(-0.0177626 0 0)
(0.0169469 0 0)
(-0.0132282 0 0)
(0.0100017 0 0)
(-0.00865523 0 0)
(0.00856966 0 0)
(-0.00351083 0 0)
(0.000452668 0 0)
(-0.000459006 0 0)
(-0.00732716 0 0)
(0.0239014 0 0)
(-0.037832 0 0)
(0.042462 0 0)
(-0.045124 0 0)
(0.0578646 0 0)
(-0.0712749 0 0)
(0.0741674 0 0)
(-0.0758251 0 0)
(0.0836522 0 0)
(-0.0926167 0 0)
(0.0942135 0 0)
(-0.0955301 0 0)
(0.100822 0 0)
(-0.107143 0 0)
(0.108184 0 0)
(-0.109382 0 0)
(0.113389 0 0)
(-0.118131 0 0)
(0.119225 0 0)
(-0.119565 0 0)
(0.121213 0 0)
(-0.123424 0 0)
(0.123772 0 0)
(-0.123784 0 0)
(0.12338 0 0)
(-0.122383 0 0)
(0.121595 0 0)
(-0.121073 0 0)
(0.121038 0 0)
(-0.120114 0 0)
(0.118376 0 0)
(-0.113031 0 0)
(0.110564 0 0)
(-0.110096 0 0)
(0.106568 0 0)
(-0.0932096 0 0)
(0.0820052 0 0)
(-0.07859 0 0)
(0.0760668 0 0)
(-0.0612426 0 0)
(0.0482493 0 0)
(-0.0443635 0 0)
(0.0426416 0 0)
(-0.0293563 0 0)
(0.018815 0 0)
(-0.0129251 0 0)
(0.0175899 0 0)
(-0.0139366 0 0)
(0.0231452 0 0)
(-0.0128669 0 0)
(0.0168396 0 0)
(0.00640543 0 0)
(0.00388706 0 0)
(0.0161608 0 0)
(0.0318603 0 0)
(-0.0154267 0 0)
(0.0724342 0 0)
(-0.0265181 0 0)
(0.0328298 0 0)
(0.0821004 0 0)
(-0.0537964 0 0)
(0.164502 0 0)
(-0.0229862 0 0)
(0.103532 0 0)
(0.151092 0 0)
(0.0277692 0 0)
(0.145324 0 0)
(0.231184 0 0)
(-0.146468 0 0)
(0.571928 0 0)
(-0.0835265 0 0)
(0.153261 0 0)
(0.543364 0 0)
(-0.0463576 0 0)
(0.232896 0 0)
(0.764472 0 0)
(-0.103328 0 0)
(0.511155 0 0)
(0.763638 0 0)
(-0.109223 0 0)
(0.913384 0 0)
(0.200334 0 0)
(0.215156 0 0)
(1.39379 0 0)
(-0.184185 0 0)
(0.662732 0 0)
(0.971876 0 0)
(0.328289 0 0)
(0.437878 0 0)
(1.453 0 0)
(0.0942302 0 0)
(0.765843 0 0)
(1.08854 0 0)
(1.17224 0 0)
(0.420763 0 0)
(1.58973 0 0)
(0.896512 0 0)
(0.779603 0 0)
(1.50322 0 0)
(0.944376 0 0)
(1.10417 0 0)
(1.31009 0 0)
(1.29137 0 0)
(1.14877 0 0)
(1.4984 0 0)
(1.63799 0 0)
(0.858723 0 0)
(3.11871 0 0)
(0.193148 0 0)
(3.21834 0 0)
(0.970528 0 0)
(2.56129 0 0)
(1.57576 0 0)
(2.33875 0 0)
(1.89666 0 0)
(2.46432 0 0)
(2.13376 0 0)
(2.52889 0 0)
(2.36265 0 0)
(2.62041 0 0)
(2.58322 0 0)
(2.76631 0 0)
(2.75811 0 0)
(2.9485 0 0)
(2.93964 0 0)
(3.11894 0 0)
(3.15469 0 0)
(3.24698 0 0)
(3.37115 0 0)
(3.39908 0 0)
(3.55592 0 0)
(3.56995 0 0)
(3.74289 0 0)
(3.74859 0 0)
(3.9427 0 0)
(3.94878 0 0)
(4.1439 0 0)
(4.15267 0 0)
(4.32853 0 0)
(4.36233 0 0)
(4.49298 0 0)
(4.55737 0 0)
(4.66179 0 0)
(4.74236 0 0)
(4.83264 0 0)
(4.91902 0 0)
(5.00477 0 0)
(5.09319 0 0)
(5.17692 0 0)
(5.26062 0 0)
(5.34114 0 0)
(5.41885 0 0)
(5.50641 0 0)
(5.56947 0 0)
(5.66241 0 0)
(5.70135 0 0)
(5.79799 0 0)
(5.81523 0 0)
(5.89897 0 0)
(5.90225 0 0)
(5.95141 0 0)
(5.95291 0 0)
(5.95807 0 0)
(5.94975 0 0)
(5.93416 0 0)
(5.91574 0 0)
(5.89795 0 0)
(5.88605 0 0)
(5.8763 0 0)
(5.86861 0 0)
(5.8611 0 0)
(5.85399 0 0)
(5.84551 0 0)
(5.83806 0 0)
(5.83073 0 0)
(5.82606 0 0)
(5.8224 0 0)
(5.8206 0 0)
(5.81936 0 0)
(5.81901 0 0)
(5.81852 0 0)
(5.81822 0 0)
(5.81787 0 0)
(5.81738 0 0)
(5.8169 0 0)
(5.81652 0 0)
(5.8161 0 0)
(5.81546 0 0)
(5.81506 0 0)
(5.81432 0 0)
(5.81289 0 0)
(5.81117 0 0)
(5.80889 0 0)
(5.80652 0 0)
(5.8028 0 0)
(5.80129 0 0)
(5.79925 0 0)
(5.79677 0 0)
(5.79543 0 0)
(5.79413 0 0)
(5.79328 0 0)
(5.79277 0 0)
(5.7925 0 0)
(5.79252 0 0)
(5.79289 0 0)
(5.79374 0 0)
(5.79492 0 0)
(5.79646 0 0)
(5.79822 0 0)
(5.80017 0 0)
(5.80218 0 0)
(5.80422 0 0)
(5.80619 0 0)
(5.80805 0 0)
(5.80988 0 0)
(5.81167 0 0)
(5.8134 0 0)
(5.81503 0 0)
(5.81657 0 0)
(5.81794 0 0)
(5.81914 0 0)
(5.82022 0 0)
(5.82122 0 0)
(5.82221 0 0)
(5.82319 0 0)
(5.82413 0 0)
(5.82497 0 0)
(5.82562 0 0)
(5.82602 0 0)
(5.82619 0 0)
(5.82622 0 0)
(5.82624 0 0)
(5.82638 0 0)
(5.82674 0 0)
(5.82739 0 0)
(5.82825 0 0)
(5.82932 0 0)
(5.83026 0 0)
(5.83127 0 0)
(5.83206 0 0)
(5.83305 0 0)
(5.83396 0 0)
(5.83502 0 0)
(5.83609 0 0)
(5.8371 0 0)
(5.83828 0 0)
(5.83935 0 0)
(5.84076 0 0)
(5.84257 0 0)
(5.84563 0 0)
(5.85068 0 0)
(5.85903 0 0)
(5.87212 0 0)
(5.89135 0 0)
(5.91677 0 0)
(5.94671 0 0)
(5.97749 0 0)
(6.00471 0 0)
(6.02188 0 0)
(6.02637 0 0)
(6.02423 0 0)
(6.01727 0 0)
(6.00962 0 0)
(6.00442 0 0)
(5.99994 0 0)
(5.9941 0 0)
(5.9789 0 0)
(5.92977 0 0)
(5.77948 0 0)
(5.36087 0 0)
(4.21258 0 0)
(1.63179 0 0)
(0.0264558 0 0)
(5.71468e-08 0 0)
(1.63109e-12 0 0)
(-8.25277e-17 0 0)
(6.2936e-17 0 0)
(1.45961e-16 0 0)
(-3.4271e-17 0 0)
(1.85293e-16 0 0)
(-6.37697e-17 0 0)
(-3.36371e-17 0 0)
(6.96562e-17 0 0)
(-1.26624e-16 0 0)
(6.45045e-18 0 0)
(1.61315e-16 0 0)
(8.03826e-18 0 0)
(-1.85049e-16 0 0)
(-1.75825e-16 0 0)
(4.80532e-17 0 0)
(9.31261e-17 0 0)
(-1.23486e-17 0 0)
(2.3867e-16 0 0)
(-5.83186e-17 0 0)
(-8.49975e-17 0 0)
(8.90865e-17 0 0)
(-1.03589e-16 0 0)
(-8.44988e-17 0 0)
(-5.32567e-17 0 0)
(1.09542e-16 0 0)
(2.01433e-16 0 0)
(-9.06466e-17 0 0)
(-1.93411e-16 0 0)
(7.96011e-17 0 0)
(1.46282e-16 0 0)
(-9.54646e-17 0 0)
(5.5135e-17 0 0)
(-7.34636e-17 0 0)
(1.02313e-16 0 0)
(-1.30128e-16 0 0)
(-1.5413e-17 0 0)
(1.8044e-16 0 0)
(-4.20653e-17 0 0)
(8.31521e-17 0 0)
(-1.06083e-17 0 0)
(-2.00581e-18 0 0)
(-8.62325e-17 0 0)
(-2.08452e-16 0 0)
(5.38983e-17 0 0)
(-4.10959e-17 0 0)
(-9.8444e-17 0 0)
(5.33166e-17 0 0)
(1.82927e-16 0 0)
(8.3462e-17 0 0)
(-1.3356e-16 0 0)
(-1.32577e-18 0 0)
(2.05873e-16 0 0)
(-1.08971e-17 0 0)
(1.48584e-17 0 0)
(-3.1825e-17 0 0)
(-1.33169e-16 0 0)
(-5.43844e-17 0 0)
(-7.81816e-17 0 0)
(2.72804e-17 0 0)
(2.78624e-16 0 0)
(-1.56466e-17 0 0)
(-3.17547e-17 0 0)
(-9.43061e-17 0 0)
(8.23255e-17 0 0)
(-3.8614e-17 0 0)
(1.02712e-16 0 0)
(-1.73316e-17 0 0)
(-1.04801e-16 0 0)
(-1.84026e-16 0 0)
(8.56202e-17 0 0)
(1.57139e-16 0 0)
(-6.71119e-17 0 0)
(-7.98244e-17 0 0)
(-4.99974e-17 0 0)
(1.80947e-16 0 0)
(-7.60519e-17 0 0)
(6.08126e-17 0 0)
(-1.06815e-16 0 0)
(-6.0259e-18 0 0)
(1.86548e-16 0 0)
(-9.30771e-17 0 0)
(-2.03897e-16 0 0)
(5.18877e-17 0 0)
(1.761e-16 0 0)
(-1.13307e-16 0 0)
(-2.97168e-17 0 0)
(-7.56023e-17 0 0)
(2.45278e-17 0 0)
(2.79372e-16 0 0)
(-1.63449e-17 0 0)
(-4.08116e-17 0 0)
(-1.66947e-16 0 0)
(-1.6262e-16 0 0)
(1.46651e-16 0 0)
(1.50207e-16 0 0)
(-1.29155e-16 0 0)
(-2.65111e-17 0 0)
(1.12335e-16 0 0)
(1.09213e-16 0 0)
(-7.45802e-17 0 0)
(-1.67583e-16 0 0)
(2.56809e-16 0 0)
(-6.6208e-17 0 0)
(-1.35454e-16 0 0)
(2.05499e-16 0 0)
(1.20038e-19 0 0)
(-4.44971e-17 0 0)
(-2.09456e-16 0 0)
(-2.09208e-17 0 0)
(2.73888e-16 0 0)
(-1.3899e-17 0 0)
(-1.62592e-17 0 0)
(-5.40044e-17 0 0)
(7.52524e-17 0 0)
(-8.93332e-18 0 0)
(1.74987e-17 0 0)
(-3.63378e-17 0 0)
(-1.57579e-16 0 0)
(-1.36093e-16 0 0)
(1.34267e-16 0 0)
(1.87049e-16 0 0)
(-9.21264e-17 0 0)
(-2.07907e-16 0 0)
(-6.03494e-17 0 0)
(1.15418e-16 0 0)
(-1.32869e-17 0 0)
(2.28535e-16 0 0)
(-7.4382e-17 0 0)
(-1.54657e-16 0 0)
(2.60071e-16 0 0)
(-9.09287e-17 0 0)
(-1.94285e-16 0 0)
(7.72164e-17 0 0)
(1.36749e-16 0 0)
(-1.12956e-16 0 0)
(-2.62947e-17 0 0)
(-6.37459e-17 0 0)
(1.96115e-17 0 0)
(-3.58347e-17 0 0)
(9.25723e-17 0 0)
(-3.67026e-17 0 0)
(1.63776e-16 0 0)
(-1.12029e-16 0 0)
(-1.16229e-17 0 0)
(-3.30202e-18 0 0)
(2.03354e-16 0 0)
(1.32815e-18 0 0)
(-1.66082e-17 0 0)
(4.16843e-18 0 0)
(-9.03947e-17 0 0)
(-2.46713e-16 0 0)
(-7.41613e-17 0 0)
(7.30174e-17 0 0)
(1.32096e-16 0 0)
(1.3879e-16 0 0)
(-1.05564e-16 0 0)
(-7.72843e-17 0 0)
(4.31912e-17 0 0)
(2.19046e-16 0 0)
(1.17253e-18 0 0)
(-1.8443e-17 0 0)
(-1.31079e-17 0 0)
(-5.95121e-17 0 0)
(3.73714e-17 0 0)
(-6.20967e-17 0 0)
(4.70025e-17 0 0)
(-9.04688e-17 0 0)
(1.18899e-16 0 0)
(-7.47103e-17 0 0)
(-1.61212e-16 0 0)
(2.23018e-16 0 0)
(-6.33537e-17 0 0)
(-2.85911e-17 0 0)
(7.33542e-17 0 0)
(-1.37996e-16 0 0)
(-1.40314e-16 0 0)
(1.23325e-17 0 0)
(5.21094e-17 0 0)
(-6.41975e-17 0 0)
(-6.86457e-17 0 0)
(7.58475e-17 0 0)
(1.63084e-16 0 0)
(-1.68466e-17 0 0)
(-9.0567e-17 0 0)
(8.95381e-17 0 0)
(1.18595e-16 0 0)
(-1.1041e-16 0 0)
(-1.51897e-16 0 0)
(3.27859e-17 0 0)
(1.32245e-16 0 0)
(-2.01762e-17 0 0)
(-1.08545e-16 0 0)
(-6.83206e-17 0 0)
(3.34303e-17 0 0)
(1.25461e-16 0 0)
(1.465e-16 0 0)
(-9.55746e-17 0 0)
(5.42073e-17 0 0)
(-9.20277e-17 0 0)
(-7.41809e-17 0 0)
(-3.09773e-17 0 0)
(-5.4313e-19 0 0)
(1.36814e-16 0 0)
(-2.70093e-17 0 0)
(-1.4363e-16 0 0)
(-7.53729e-17 0 0)
(4.50904e-17 0 0)
(1.46203e-17 0 0)
(2.62238e-17 0 0)
(9.58297e-17 0 0)
(4.39074e-17 0 0)
(-7.44242e-17 0 0)
(1.43303e-17 0 0)
(2.56315e-16 0 0)
(-1.65459e-17 0 0)
(-3.83058e-17 0 0)
(-1.52648e-16 0 0)
(-6.79129e-17 0 0)
(-3.55593e-17 0 0)
(-6.87755e-17 0 0)
(1.66798e-16 0 0)
(2.11783e-16 0 0)
(-1.54916e-17 0 0)
(-2.93895e-17 0 0)
(-8.54407e-17 0 0)
(1.31606e-16 0 0)
(-2.38803e-17 0 0)
(-7.23779e-17 0 0)
(7.73817e-17 0 0)
(-8.63171e-17 0 0)
(-2.40059e-16 0 0)
(-5.85409e-18 0 0)
(9.45611e-17 0 0)
(-6.37475e-18 0 0)
(2.65135e-16 0 0)
(-1.61218e-17 0 0)
(-4.04958e-17 0 0)
(-1.32711e-16 0 0)
(-9.50568e-17 0 0)
(1.5595e-16 0 0)
(-1.14309e-16 0 0)
(-1.23821e-16 0 0)
(-6.66025e-18 0 0)
(-1.11449e-17 0 0)
(1.99652e-17 0 0)
(2.53706e-17 0 0)
(1.05688e-16 0 0)
(8.7108e-17 0 0)
(9.3373e-17 0 0)
(-7.78971e-17 0 0)
(-1.09312e-16 0 0)
(-1.96111e-17 0 0)
(1.44836e-16 0 0)
(-6.64412e-17 0 0)
(1.59881e-16 0 0)
(-9.16557e-17 0 0)
(-2.11505e-16 0 0)
(-4.46867e-17 0 0)
(2.97986e-17 0 0)
(1.05716e-16 0 0)
(9.00529e-17 0 0)
(1.05551e-16 0 0)
(-6.67084e-17 0 0)
(-1.34949e-16 0 0)
(1.72621e-16 0 0)
(-6.03984e-17 0 0)
(-1.34068e-16 0 0)
(2.58866e-16 0 0)
(-7.64088e-17 0 0)
(-1.92993e-16 0 0)
(-8.45813e-17 0 0)
(-2.33206e-17 0 0)
(9.19676e-17 0 0)
(-3.53838e-17 0 0)
(-3.97926e-17 0 0)
(-7.22431e-18 0 0)
(1.15902e-16 0 0)
(3.94897e-18 0 0)
(-4.24956e-18 0 0)
(-1.0709e-17 0 0)
(2.61889e-16 0 0)
(-7.72558e-17 0 0)
(-1.93661e-16 0 0)
(-8.0416e-17 0 0)
(5.76565e-17 0 0)
(1.99156e-16 0 0)
(-9.5694e-17 0 0)
(-6.33813e-17 0 0)
(2.64113e-16 0 0)
(-6.48431e-17 0 0)
(-1.952e-16 0 0)
(-2.06508e-17 0 0)
(-4.3564e-17 0 0)
(6.06053e-17 0 0)
(8.56158e-18 0 0)
(1.61674e-16 0 0)
(-1.13132e-16 0 0)
(-2.62404e-17 0 0)
(-6.46849e-17 0 0)
(1.21883e-17 0 0)
(-6.16322e-17 0 0)
(-1.16093e-17 0 0)
(1.91096e-16 0 0)
(1.40329e-16 0 0)
(-8.29101e-17 0 0)
(-2.12544e-16 0 0)
(5.88319e-17 0 0)
(8.77188e-18 0 0)
(1.61949e-16 0 0)
(-1.1067e-16 0 0)
(-7.65986e-18 0 0)
(-9.6694e-18 0 0)
(-3.70052e-17 0 0)
(-2.49106e-17 0 0)
(1.24903e-16 0 0)
(1.55392e-16 0 0)
(-1.77053e-17 0 0)
(-1.06507e-16 0 0)
(-2.04164e-16 0 0)
(-4.36923e-17 0 0)
(4.44731e-18 0 0)
(-5.29554e-18 0 0)
(1.36465e-18 0 0)
(8.02437e-18 0 0)
(-1.62573e-17 0 0)
(-1.84496e-17 0 0)
)
;

boundaryField
{
    sides
    {
        type            fixedValue;
        value           uniform (0 0 0);
    }
    empty1
    {
        type            empty;
    }
    empty2
    {
        type            empty;
    }
}


// ************************************************************************* //
