/*--------------------------------*- C++ -*----------------------------------*\
| =========                 |                                                 |
| \\      /  F ield         | OpenFOAM: The Open Source CFD Toolbox           |
|  \\    /   O peration     | Version:  v1812                                 |
|   \\  /    A nd           | Web:      www.OpenFOAM.com                      |
|    \\/     M anipulation  |                                                 |
\*---------------------------------------------------------------------------*/
FoamFile
{
    version     2.0;
    format      ascii;
    class       volScalarField;
    location    "0.5";
    object      p;
}
// * * * * * * * * * * * * * * * * * * * * * * * * * * * * * * * * * * * * * //

dimensions      [1 -1 -2 0 0 0 0];


internalField   nonuniform List<scalar> 
20400
(
96571.2
96571.8
96573
96575
96578.1
96581.9
96586.9
96592.6
96598.9
96606.4
96614
96622.8
96631.7
96641.2
96650.9
96660.9
96670.2
96680.3
96689.3
96698.6
96707
96715.2
96722.4
96729.5
96735.5
96740.2
96744.3
96747.1
96749.3
96750.2
96749.9
96748.3
96745.6
96741.8
96736.6
96729.7
96721.4
96711.4
96699.7
96686.4
96671.4
96655.2
96636.9
96617.8
96596.6
96574.4
96550.8
96524.3
96496.9
96467.7
96437.6
96405.8
96372.2
96337.2
96300.9
96263.5
96225.1
96185.8
96145.9
96105.6
96064.5
96023.3
95981.7
95940.4
95898.9
95859
95818.7
95781.3
95744.1
95711.3
95680.3
95653.1
95628.5
95608.5
95590.2
95571.7
95567.7
95560.6
95559.5
95564.2
95570.4
95576.9
95587.6
95599.9
95611.8
95627.5
95639.1
95650.3
95660.7
95675.6
95690.8
95697.8
95711.9
95727.2
95741
95755.2
95774.4
95784.6
95797.9
95814.4
95829.4
95845.6
95860.8
95876.6
95892.1
95908.8
95926.6
95943.6
95963.3
95979.9
96000.7
96018
96040.7
96059.9
96083.1
96102.7
96126.1
96145.1
96168.2
96193.6
96216
96240.4
96263.6
96287.1
96310.4
96334.8
96359
96383.5
96406.8
96432.4
96455
96480.4
96502.1
96526.8
96548
96572
96591.4
96616.1
96633.1
96656.9
96672.4
96694.7
96709.4
96730.4
96744.2
96762.7
96774.9
96791.2
96802.6
96816.7
96827.4
96839.6
96849.5
96859.6
96868.5
96878
96886.2
96894.5
96902.4
96909.1
96916.9
96924.1
96928.9
96934.5
96938.9
96942.1
96945.1
96946.7
96948.1
96947.7
96948
96946
96943.8
96939.5
96935
96929.5
96923.1
96915.7
96907.5
96898.2
96888.1
96876.9
96865.1
96852.2
96838.8
96824.5
96809.7
96793.9
96778
96761.1
96744.2
96726.4
96708.8
96690.2
96671.7
96652.5
96633.5
96613.9
96594.2
96574
96553.4
96532.3
96511.4
96489.6
96467.9
96446.6
96424.5
96402.6
96380.9
96359
96337.4
96315.7
96294.3
96272.9
96251.8
96231.1
96210.8
96190.8
96171.3
96152.3
96133.8
96115.7
96098.2
96081.4
96065.1
96049.1
96033.8
96018.8
96004.2
95990.2
95976.6
95964
95951.8
95940.8
95930.8
95922.2
95914.9
95908.9
95903.7
95899.5
95895.7
95892.9
95890.7
95889.5
95888.9
95889.3
95890.2
95892.4
95895.7
95900.4
95905.9
95912.7
95920.4
95929.4
95939.3
95950.1
95961.8
95974.6
95988.1
96002.7
96018.1
96034.1
96051.2
96068.7
96087.6
96107.1
96127.7
96149
96171.4
96194.5
96218.8
96243.7
96269.8
96296.8
96324.8
96353.3
96382.7
96414
96444.7
96476.6
96508.4
96541.6
96575.2
96609.7
96644.4
96680
96715.8
96752.5
96789.5
96827.4
96865.5
96904.4
96943.5
96983.5
97023.5
97064.3
97105.1
97146.7
97188.3
97230.8
97273.2
97316.4
97359.4
97403.2
97446.9
97491.3
97535.5
97580.3
97624.8
97670.1
97714.7
97760.1
97804.8
97850.2
97895
97940.3
97984.9
98030
98074.4
98119.3
98163.5
98208.3
98252.3
98297
98340.8
98385.3
98429
98473.4
98516.9
98561.1
98604.2
98648.2
98691.1
98734.7
98777.3
98820.6
98862.6
98905.3
98946.7
98988.8
99029.7
99071
99111.1
99151.7
99190.9
99230.6
99269.5
99307.6
99347.5
99384.2
99422.2
99458.9
99496.2
99532.4
99568.8
99604
99639.7
99674
99708.9
99742.4
99776.5
99809.1
99842.3
99874.4
99907
99938.5
99970.3
100001
100032
100062
100092
100121
100150
100179
100207
100235
100263
100289
100316
100342
100368
100394
100419
100444
100469
100492
100516
100539
100563
100585
100608
100629
100651
100672
100693
100712
100732
100751
100770
100789
100807
100824
100842
100858
100875
100891
100906
100921
100936
100950
100964
100978
100991
101004
101016
101028
101039
101050
101061
101072
101081
101091
101101
101110
101118
101127
101135
101142
101150
101157
101164
101170
101176
101183
101188
101194
101199
101205
101209
101214
101219
101224
101228
101232
101236
101240
101244
101247
101251
101254
101258
101261
101264
101267
101270
101272
101275
101277
101280
101282
101284
101286
101288
101290
101292
101294
101296
101297
101299
101300
101301
101303
101304
101305
101306
101307
101308
101309
101310
101311
101312
101313
101313
101314
101315
101315
101316
101317
101317
101318
101319
101319
101320
101321
101321
101322
101323
101323
101324
101324
96568.1
96569
96569.1
96571.2
96574.7
96578.9
96584
96589.9
96596.4
96603.6
96611.9
96620.3
96629.8
96638.9
96649
96658.8
96668.7
96678.1
96688
96696.4
96705.6
96713.6
96720.9
96727.7
96734
96738.6
96743
96745.6
96747.8
96748.6
96748.3
96746.5
96743.8
96739.8
96734.3
96727.4
96719.1
96709.3
96697.9
96684.6
96670.1
96653.2
96635.8
96615.8
96595.4
96572.9
96550.5
96523.4
96496.3
96467.8
96438.2
96407
96374.4
96340.1
96304.7
96267.8
96230.1
96191.2
96151.8
96111.6
96071.2
96029.7
95988.9
95946.8
95906.4
95865.1
95825.5
95785.6
95747
95711.6
95678.7
95648
95622.1
95600.8
95585.5
95576
95577.6
95569.4
95560.4
95554.9
95558.1
95557.4
95570.6
95577.1
95593.7
95604.2
95622.6
95632.4
95648.8
95664.3
95658.5
95680.2
95686.7
95704
95716
95744.5
95758.4
95779.5
95793.9
95810.2
95827
95842.7
95858.3
95874.9
95890.3
95908.3
95923.2
95945.4
95959.2
95982.1
95996.2
96021.2
96035.5
96063.5
96078.9
96106.9
96121.3
96146.7
96169.2
96191.7
96217.8
96239.2
96263.8
96287
96310.7
96334.1
96359.5
96382.9
96409
96431.2
96458
96479.3
96506.1
96524.8
96552.5
96568.5
96597.4
96611.7
96640
96651.7
96679.1
96689.2
96715.6
96725.4
96749.4
96758.3
96779
96787.3
96805.4
96813.7
96829.3
96836.7
96849.9
96857.7
96868
96876.3
96885.3
96892.8
96900.8
96907.8
96915.3
96922.4
96928
96933.2
96937.8
96941.1
96944.2
96946.3
96946.4
96947.8
96946
96946.2
96942.9
96939.1
96934.7
96929.1
96922.6
96915.5
96907
96898.1
96887.7
96877
96864.8
96852.5
96838.6
96824.9
96809.5
96794.5
96777.8
96761.7
96744
96727.2
96708.6
96690.9
96671.6
96653
96633.4
96614.3
96594.3
96574.5
96553.4
96532.9
96511.6
96490
96468.1
96446.8
96424.8
96403
96381.1
96359.5
96337.6
96316.2
96294.6
96273.6
96252.4
96231.7
96211.4
96191.4
96171.9
96152.9
96134.2
96116.5
96098.8
96082
96065.6
96049.9
96034.5
96019.7
96005.2
95991.5
95977.9
95965.4
95953.4
95942.3
95932.4
95923.3
95916.2
95910
95904.9
95900.7
95897
95894.1
95892.1
95890.9
95890.6
95890.8
95891.9
95894
95897.4
95901.9
95907.6
95914.1
95922
95930.9
95940.5
95951.8
95963.1
95976.2
95989.5
96004.3
96019.3
96035.6
96052.2
96070.3
96088.8
96108.7
96128.8
96150.5
96172.5
96196.1
96219.8
96245.2
96270.9
96298.3
96325.3
96354.3
96384.5
96413.5
96446.8
96477.1
96509.4
96542.2
96576.3
96610.2
96645.5
96680.4
96717
96752.9
96790.6
96827.6
96866.5
96904.5
96944.5
96983.4
97024.4
97064.2
97106.1
97146.6
97189.3
97230.5
97274.1
97316
97360.3
97402.8
97447.6
97490.7
97536.2
97579.6
97625.5
97669.2
97715.4
97759.2
97805.5
97849.3
97895.5
97939.3
97985.5
98029
98075.1
98118.3
98164.2
98207.3
98253
98295.8
98341.5
98384.1
98429.7
98472.1
98517.6
98559.8
98604.9
98646.8
98691.9
98733.4
98778
98819.2
98863.3
98903.9
98947.3
98987.3
99030.4
99069.5
99111.7
99150.2
99191.7
99229.6
99268.5
99308.5
99344.9
99385.3
99421.3
99458.9
99494.8
99532.8
99567.3
99604.6
99638.2
99674.5
99707.4
99743
99775
99809.6
99841
99874.7
99905.7
99938.9
99968.9
100001
100030
100062
100090
100121
100149
100179
100206
100235
100261
100290
100315
100342
100367
100394
100418
100444
100467
100493
100515
100540
100562
100585
100606
100629
100650
100672
100691
100713
100731
100751
100770
100789
100806
100825
100841
100858
100874
100891
100905
100921
100935
100950
100964
100978
100990
101004
101015
101028
101039
101050
101061
101071
101081
101091
101101
101109
101118
101126
101135
101142
101150
101156
101164
101170
101176
101182
101188
101194
101199
101204
101210
101214
101219
101223
101228
101232
101236
101240
101244
101247
101251
101254
101258
101261
101264
101267
101270
101272
101275
101277
101280
101282
101284
101286
101288
101290
101292
101294
101296
101297
101299
101300
101302
101303
101304
101305
101306
101307
101309
101310
101310
101311
101312
101313
101313
101314
101315
101315
101316
101317
101317
101318
101319
101319
101320
101321
101321
101322
101323
101323
101324
101324
96563.5
96563.7
96565.4
96566.8
96570.2
96574.4
96580.5
96585.7
96593
96599.8
96608.1
96616.7
96625.9
96635.5
96645.4
96655.4
96664.9
96675.1
96683.9
96693.6
96702.1
96710.6
96717.9
96725
96731.1
96735.9
96740.3
96743.4
96745.5
96746.9
96747
96745.8
96743.1
96739.5
96734.4
96727.7
96719.6
96710
96698.4
96685.5
96670.3
96654.5
96635.9
96617.2
96595.3
96573.9
96550.2
96522.6
96496.1
96468.2
96438.3
96406.9
96373.9
96339.6
96304
96267.3
96229.5
96190.8
96151.1
96111.3
96070.1
96029.4
95987.3
95946.7
95904.9
95864.6
95824.9
95785.1
95748
95714.2
95681.4
95652.9
95628.2
95607.1
95585
95568.4
95557.7
95547.6
95556.3
95550.7
95566.1
95563.1
95579.4
95586.5
95598.5
95615.7
95624.2
95641.6
95650.6
95665.5
95684.2
95688.2
95710
95719.2
95737.3
95744.7
95766
95774.6
95794.3
95809
95825.7
95842.4
95859.1
95873.9
95891.8
95905.1
95928.3
95937.4
95968.3
95973.1
96005.7
96010.8
96045.7
96054
96089.6
96095.2
96128.6
96143.3
96168.4
96193.7
96215.3
96240.2
96262.6
96286.3
96310.2
96333.9
96357.7
96383.2
96406.1
96433.1
96454.6
96482.2
96500.5
96530.5
96545.5
96578.1
96584.8
96626.1
96623.4
96668.3
96660.7
96705.9
96697.1
96740.8
96733.6
96771.1
96764.3
96797
96794.5
96818.9
96821.8
96839.1
96845
96857.5
96865
96876.2
96883.4
96892.2
96899.6
96907.6
96914.2
96921.2
96927.1
96932.2
96937.1
96940.8
96943.6
96945.4
96946.6
96945.7
96946.7
96944.2
96942
96938.3
96933.9
96928.4
96922.3
96914.7
96906.9
96897.4
96887.8
96876.3
96865
96851.8
96838.8
96824
96810
96793.5
96778.5
96760.8
96744.9
96726.2
96709.7
96689.8
96672.5
96652.5
96633.9
96613.8
96594.8
96573.9
96554.1
96532.4
96512.1
96489.6
96468.9
96446.2
96425.3
96402.8
96381.4
96359.6
96338
96316.4
96295.1
96273.6
96252.9
96231.9
96211.9
96191.6
96172.2
96153.2
96134.5
96116.6
96099.5
96082.2
96066.2
96050
96035
96019.9
96005.8
95991.6
95978.5
95965.7
95954
95943
95933
95924.5
95916.7
95910.4
95905
95901
95897.5
95894.5
95892.6
95891.6
95891.1
95891.5
95892.4
95895
95898
95902.3
95908.1
95914.6
95922.4
95930.9
95940.8
95951.6
95963.6
95975.9
95989.9
96003.8
96019.5
96035.1
96052.7
96069.7
96089.2
96108
96129.2
96149.7
96172.8
96195.1
96220.1
96244.2
96271.2
96297
96325.9
96353.8
96382.1
96415.2
96444.8
96477
96508.1
96542.3
96574.8
96610.3
96643.8
96680.7
96715.2
96753.2
96788.8
96827.9
96864.5
96904.9
96942.4
96984
97022.3
97064.7
97103.9
97147.2
97187.1
97231.2
97271.8
97316.7
97358
97403.2
97445.5
97491.3
97533.7
97580.3
97623
97670.1
97712.8
97760
97802.9
97850
97893.1
97940.1
97982.8
98029.8
98072.3
98119.2
98161.3
98208.2
98250.3
98297
98338.7
98385.3
98426.8
98473.4
98514.7
98560.9
98602.1
98648.2
98688.8
98734.7
98775
98820.6
98860.3
98905.1
98944.3
98988.8
99027.1
99070.9
99108.6
99151.6
99188.2
99230.4
99268.3
99305.6
99346.9
99382.6
99421.3
99456.7
99496
99529.8
99568.6
99601.6
99639.5
99671.8
99708.7
99740.2
99776.4
99806.8
99842
99872.3
99906.5
99936.2
99970.1
99998.5
100032
100059
100092
100119
100150
100177
100207
100233
100263
100287
100316
100340
100368
100392
100419
100442
100468
100491
100516
100538
100563
100583
100607
100628
100651
100670
100693
100711
100732
100750
100770
100787
100807
100823
100842
100857
100875
100889
100906
100920
100936
100949
100964
100977
100991
101002
101016
101027
101039
101050
101060
101072
101081
101091
101100
101110
101118
101127
101134
101142
101149
101157
101163
101170
101176
101183
101188
101194
101199
101205
101209
101215
101219
101224
101228
101232
101236
101240
101244
101248
101251
101255
101258
101261
101264
101267
101270
101273
101275
101278
101280
101282
101285
101287
101289
101291
101292
101294
101296
101298
101299
101301
101302
101303
101305
101306
101307
101308
101309
101310
101311
101311
101312
101313
101314
101314
101315
101316
101316
101317
101318
101318
101319
101320
101320
101321
101321
101322
101323
101323
101324
101324
96554.8
96555.6
96555
96558.7
96561.2
96567
96571.6
96579.8
96585.2
96594
96601.4
96610.7
96619.7
96629.5
96639.4
96649.4
96659.4
96669.2
96679
96688
96697.1
96705.5
96713.2
96720.4
96726.5
96731.6
96737.1
96739.9
96742.6
96743.4
96743.4
96742.3
96739.9
96736.5
96731.9
96725.6
96718
96708.7
96697.8
96685
96670.8
96654.4
96637.1
96617.3
96596.8
96574.7
96549.7
96524.2
96498.4
96469.4
96440.2
96409.4
96377
96343.2
96308
96271.6
96234.1
96195.4
96156
96115.4
96074.9
96032.6
95990.8
95949.3
95906.6
95864.4
95821.6
95779.6
95741.7
95703.6
95671
95638.3
95611.8
95589.6
95573.5
95563.1
95548.7
95546.7
95539
95544.8
95543.7
95556.9
95561.5
95579.3
95589.4
95606.4
95623.9
95634.4
95651.4
95663.5
95678.6
95692.2
95703.3
95720.3
95731.5
95748.6
95758.2
95780
95787.7
95810.3
95823
95842.4
95856.8
95874.3
95889
95910.6
95915.7
95954.6
95948.8
95990.4
95987.5
96027.9
96023.9
96073.6
96069.2
96112
96116.5
96146.5
96168.1
96189.9
96215.9
96237.5
96261.2
96285
96308.4
96332.3
96356.6
96380.4
96405.6
96428
96455.9
96475.3
96504.7
96521
96554.1
96559.7
96605.3
96598.2
96653
96634
96693.4
96668.4
96730.8
96706.4
96762.6
96740.5
96791.1
96771.8
96811.5
96803.4
96832.6
96826.9
96849.4
96849.7
96866.1
96872
96882.6
96888.5
96898.8
96905
96913.2
96919.5
96925.5
96931
96935.6
96939.8
96943
96945.2
96945.2
96946.3
96944.7
96945
96941.2
96937.8
96933.6
96928.5
96921.8
96914.9
96906.5
96897.7
96887.1
96876.8
96864.2
96852.3
96838.1
96825.1
96808.9
96794.7
96777.3
96762.1
96743.5
96728.1
96708
96691.6
96671.1
96653.6
96633.1
96615.1
96594.3
96575.3
96553.4
96534.2
96511.3
96491.6
96468.3
96448.2
96424.9
96404.3
96381.6
96360.6
96338.2
96317.3
96295.5
96274.6
96253.3
96233
96212.6
96192.6
96173.1
96154.3
96135.5
96117.8
96100
96083.5
96066.7
96051.4
96035.6
96021.2
96006.4
95993
95979.7
95967.1
95955.4
95944.6
95934.8
95925.5
95918.1
95911.2
95906.1
95902
95899.1
95895.3
95893.9
95892.9
95892.4
95892.9
95893.7
95896.1
95899.3
95903.8
95909.4
95915.9
95923.5
95932.4
95942
95952.9
95964.1
95977.3
95990.1
96005.2
96019.6
96036.6
96052.4
96071.2
96088.7
96109.5
96128.7
96151.3
96172.4
96196.8
96219.3
96245.7
96270.6
96298.8
96324.3
96354.3
96384.5
96411.6
96447.3
96476.2
96508.8
96540.7
96576.4
96608.6
96645.5
96678.8
96717
96751.1
96790.6
96825.9
96866.2
96902.6
96944
96981.5
97024
97062.4
97105.8
97144.7
97189
97228.7
97273.8
97313.9
97359.9
97400.8
97446.9
97489
97535.5
97577.6
97624.8
97667
97714.7
97757
97804.7
97847.4
97894.4
97937.1
97984.9
98026.5
98074.6
98116.4
98163.4
98205.2
98252.5
98293.6
98341
98381.9
98429.2
98469.8
98517.1
98557.4
98604.5
98644.9
98691.3
98731.6
98777.6
98817
98862.9
98901.6
98947
98985.5
99029.9
99067.7
99111.2
99148
99191.1
99227
99268.6
99307.2
99343
99384.7
99419
99458.2
99492.3
99532.3
99565
99603.9
99636.1
99674.2
99705.1
99742.6
99772.9
99808.9
99839
99873.7
99903.7
99938.1
99966.9
100001
100028
100062
100089
100121
100147
100178
100205
100235
100259
100289
100313
100342
100366
100394
100416
100443
100466
100492
100514
100540
100560
100585
100605
100629
100648
100672
100690
100713
100730
100751
100768
100788
100805
100824
100839
100858
100873
100890
100904
100921
100934
100950
100963
100977
100989
101004
101014
101028
101038
101049
101061
101071
101081
101090
101101
101109
101119
101126
101135
101142
101150
101156
101164
101170
101177
101182
101189
101194
101199
101204
101210
101214
101220
101224
101228
101232
101237
101240
101244
101248
101252
101255
101258
101261
101265
101267
101270
101273
101276
101278
101281
101283
101285
101287
101289
101291
101293
101295
101296
101298
101300
101301
101302
101304
101305
101306
101307
101308
101309
101310
101311
101312
101313
101313
101314
101315
101315
101316
101317
101317
101318
101318
101319
101320
101320
101321
101322
101322
101323
101323
101324
101324
96543.8
96543.9
96543.8
96545.6
96551
96553.8
96562.8
96567.3
96576.9
96583.5
96592.9
96601.4
96611.2
96621.1
96631.2
96641.4
96651.5
96662
96671.3
96681.1
96689.8
96698.4
96706.4
96714.4
96721.1
96727.2
96730.2
96735.7
96736.9
96739.8
96739.2
96739.3
96736.4
96733.5
96728.4
96721.8
96713.6
96704.1
96693
96680.6
96666.7
96651.3
96634
96615.6
96595.6
96573
96549.4
96524.2
96498.1
96469.9
96440.4
96409.6
96377.4
96343.6
96308.5
96271.9
96234.2
96194.9
96155.3
96114.1
96073.8
96029.2
95988.8
95943.6
95900.6
95856.8
95814.2
95775.9
95732.9
95700.8
95663.4
95634.4
95609
95584.2
95566.3
95547.2
95540.5
95530.2
95535.1
95535.1
95542.2
95547.8
95563.1
95574.2
95590.5
95604.2
95621.4
95635.3
95650.4
95666.1
95685
95689.9
95706.4
95719.3
95734
95745.2
95761.3
95768.9
95796.1
95802.8
95823.8
95836.1
95857.5
95870.9
95891
95901.6
95933.1
95927.2
95973.2
95966.4
96006.8
96004.9
96046.1
96043
96090
96091.6
96127.7
96139.3
96166.4
96188.1
96210.3
96234.6
96259
96282.4
96306.8
96330.5
96354.6
96378.2
96402.5
96426.8
96449.5
96476.2
96495.5
96525.6
96538
96577.3
96574.8
96628.2
96611
96674.3
96644.7
96716.2
96679.1
96752
96717.5
96781.3
96747
96802.8
96785.3
96822.7
96814.5
96844.7
96831.7
96859.9
96855.8
96874.9
96878.1
96890.9
96895.4
96906.3
96911.5
96919.2
96924
96930.5
96934.4
96939.9
96942.8
96944.6
96945.3
96944.7
96945.1
96942.9
96940.9
96936.7
96932.4
96927.1
96921.3
96913.6
96906.1
96896.4
96887.3
96875.2
96864.3
96850.7
96838.4
96823
96809.6
96792.6
96778.4
96759.9
96745
96725.4
96710.1
96688.9
96672.8
96652
96633.9
96613.4
96594.8
96573.7
96555
96531.9
96513.4
96489.3
96470.5
96446
96426.7
96402.8
96382.6
96359.7
96339.1
96316.8
96296.1
96274.2
96254
96232.6
96213
96192.5
96173.4
96154.1
96135.9
96117.7
96100.5
96083.2
96067.5
96051
96036.3
96021
96007.1
95993.2
95980.4
95967.5
95955.9
95945
95935.2
95926.6
95918.3
95912.3
95906.3
95902.1
95899.2
95896.6
95894.6
95894
95893.7
95893.8
95894.4
95896.8
95900
95904.4
95910.1
95916.4
95924.2
95932.3
95942.5
95952.6
95964.7
95976.5
95991
96004.3
96020.7
96035.6
96053.8
96069.9
96090.1
96108.2
96130
96149.9
96173.5
96195.1
96220.8
96244.1
96271.7
96296.9
96326.3
96353.3
96381.8
96415.5
96443.8
96477.4
96507
96541.7
96574.1
96610.1
96642.7
96680.5
96714.2
96753.5
96788
96827.7
96863.4
96904.8
96941.2
96983.7
97021.1
97064.2
97102.9
97147
97186
97231
97270.7
97316.3
97356.8
97402.7
97444.7
97490.3
97532.5
97579.4
97621.7
97669.2
97711.6
97759.2
97801.4
97849.1
97892.1
97938.7
97981.3
98028.7
98070.7
98118.1
98160.1
98207.2
98249.2
98296.2
98337.6
98384.5
98425.7
98472.5
98513.6
98560
98600.8
98647.2
98687.6
98733.8
98773.9
98819.7
98859
98903.9
98942.9
98987.6
99025.7
99069.8
99107.2
99150.3
99187.1
99229.4
99266.1
99305.1
99345.2
99380.4
99421.1
99454.7
99494.4
99528.3
99567
99600.2
99638
99670.3
99707.3
99738.7
99775
99805.3
99840.8
99871
99904.4
99934.4
99968.5
99996.7
100030
100058
100091
100118
100149
100176
100206
100231
100262
100286
100315
100339
100367
100390
100418
100441
100467
100489
100515
100536
100562
100582
100606
100626
100650
100669
100692
100710
100732
100749
100769
100787
100806
100822
100841
100856
100874
100888
100906
100919
100935
100949
100964
100976
100990
101002
101016
101026
101039
101049
101060
101071
101081
101091
101100
101110
101117
101127
101134
101142
101149
101157
101163
101170
101176
101183
101188
101194
101200
101205
101210
101215
101220
101225
101229
101233
101237
101241
101245
101249
101252
101256
101259
101262
101265
101268
101271
101274
101276
101279
101281
101284
101286
101288
101290
101292
101294
101295
101297
101299
101300
101302
101303
101304
101305
101307
101308
101309
101310
101311
101311
101312
101313
101314
101314
101315
101316
101316
101317
101318
101318
101319
101319
101320
101321
101321
101322
101322
101323
101323
101324
101325
96528.9
96530.4
96528.9
96532.2
96536.3
96541
96546.8
96556.4
96562.6
96572.4
96580.7
96590.1
96600.3
96609.9
96621.3
96630.7
96642.7
96651.6
96662.6
96671.5
96681.4
96689.9
96698.8
96706.7
96713.2
96719.2
96724.4
96727.5
96732.4
96731.8
96734.6
96732.1
96731.2
96727.1
96723.3
96717
96709.7
96700.8
96690.4
96678.2
96665
96649.5
96633.1
96614.8
96594.3
96572.8
96549
96524.2
96497.6
96470.5
96441.2
96410.7
96378.4
96344.9
96309.6
96273.2
96234.5
96196.1
96154.3
96115.4
96071
96030.9
95984.5
95941.9
95898.6
95855
95812.5
95764.7
95730.2
95685.2
95653.5
95621.5
95592.9
95572.3
95551.2
95539.9
95522.7
95523.1
95517.8
95526.5
95527.7
95541.1
95549.8
95570.4
95579.8
95601.6
95616.7
95633.1
95648.4
95664.2
95676.4
95692.8
95702.4
95718
95727.9
95744.2
95752.7
95773.2
95781.2
95805.7
95818
95836.2
95848.7
95868.4
95881.5
95907.4
95911.6
95950.6
95942.6
95985.8
95984.7
96019.9
96021.6
96064.6
96062.9
96104.3
96112
96141.3
96161.6
96184.3
96207.2
96231
96253.4
96279
96301.5
96327.1
96349.4
96374.4
96397.4
96422.8
96446.4
96468.9
96493.8
96514.3
96542.8
96553.6
96596.6
96589.7
96646.9
96625.3
96690.1
96657.2
96734.9
96695.7
96765.4
96730
96795.5
96760.1
96811.9
96799.5
96836.3
96819.3
96858.3
96835.4
96869.8
96861.4
96886
96882
96901.5
96899.8
96913.2
96916.6
96924.8
96928.9
96935
96938
96943.3
96946.6
96944.5
96946
96943.9
96943.4
96940
96937.5
96932.2
96927.9
96920.6
96914.5
96905.4
96897.3
96886.2
96876.4
96863.2
96852
96837.1
96824.9
96807.9
96794.3
96776.5
96761.5
96743.3
96727.7
96707.3
96692.1
96670.5
96653.6
96633.3
96614.7
96593.9
96574.8
96552.9
96534.9
96510.4
96492.8
96467.5
96449.3
96424.3
96405
96381.4
96361.1
96338.6
96317.9
96295.9
96275.3
96253.8
96233.7
96212.8
96193.5
96173.2
96154.9
96135.7
96118.3
96100.4
96083.8
96067.2
96051.8
96036
96021.9
96007.3
95994
95980.6
95968.5
95956.7
95945.7
95936.3
95927.2
95919.3
95912.8
95907.4
95903
95899.8
95897.4
95895.8
95894.9
95894.6
95894.9
95895.9
95897.6
95901.3
95905.5
95910.7
95917.5
95924.6
95933.6
95942.8
95953.7
95964.8
95978.1
95990.4
96005.9
96019.8
96037
96052.7
96071.7
96089.1
96109.8
96129
96151.4
96172.6
96196.7
96219.3
96245.7
96270.6
96298.6
96324
96354.1
96384
96410.2
96447.5
96475.2
96507.9
96540.3
96575.5
96607.8
96644.4
96677.8
96715.7
96750.2
96789.4
96825.2
96865
96901.6
96942.7
96980.3
97022.5
97061.2
97104.1
97143.5
97187.5
97227.7
97272.3
97313.2
97358.2
97400.5
97445.1
97487.9
97534
97576.8
97623.1
97666.2
97712.9
97756.2
97802.9
97845.9
97892.2
97936
97983.2
98026.3
98072.9
98115.5
98161.8
98204.7
98250.4
98292.9
98339.1
98381.2
98427.2
98469.4
98515.3
98557.1
98602.8
98644.3
98689.9
98731
98775.9
98816.5
98861.1
98901.4
98945.2
98985.1
99028.1
99066.9
99109.4
99147.7
99189.2
99226.2
99267.6
99305.8
99341.8
99383.5
99417.6
99457.5
99491.2
99529.8
99564.3
99601.4
99635.3
99671.8
99704.5
99740.3
99772.2
99807.2
99838.3
99872.1
99902.6
99935.4
99965.8
99998.6
100027
100060
100088
100119
100146
100176
100203
100233
100258
100287
100312
100340
100365
100392
100415
100442
100465
100490
100513
100538
100559
100584
100604
100627
100648
100670
100689
100711
100729
100750
100768
100787
100804
100823
100839
100857
100872
100889
100904
100921
100934
100949
100962
100977
100989
101003
101014
101028
101038
101049
101060
101071
101082
101090
101101
101109
101119
101126
101135
101142
101150
101157
101164
101170
101177
101183
101189
101194
101200
101205
101211
101215
101221
101225
101230
101234
101238
101242
101246
101249
101253
101256
101260
101262
101266
101269
101271
101274
101277
101279
101282
101284
101286
101289
101291
101293
101294
101296
101298
101299
101301
101302
101304
101305
101306
101307
101308
101309
101310
101311
101312
101313
101314
101314
101315
101316
101316
101317
101317
101318
101319
101319
101320
101320
101321
101321
101322
101322
101323
101324
101324
101325
96511
96511.8
96511.7
96513
96519.8
96523.5
96533.1
96538.9
96549.1
96557.2
96566.8
96577.3
96586.2
96598.9
96607.3
96620.5
96629
96640.7
96650.6
96660.7
96671.1
96679.4
96688.8
96696.5
96705
96709.4
96717.1
96719.8
96724.1
96726.8
96726.8
96728
96724.2
96723.3
96717.8
96713.1
96705.3
96697.3
96686.8
96675.6
96662.1
96647.8
96631.4
96613.3
96594.1
96572.1
96550.1
96525.2
96499
96471.7
96443.1
96412.4
96380.7
96347
96311.9
96274.8
96237.1
96196
96157.3
96112.1
96073.5
96027.9
95983.1
95940.2
95891.6
95848.4
95800.2
95763.3
95714.1
95681.2
95643.5
95612.5
95585.8
95556.9
95541.9
95520.4
95516.2
95507
95512.7
95512.9
95525.1
95533.6
95547.7
95561.7
95581.8
95589
95615.4
95627.7
95649.3
95659.6
95676.3
95684.5
95701.5
95712.6
95727.3
95738.9
95751.5
95762.5
95784.4
95795.3
95813.1
95828.1
95848.8
95856.8
95885.2
95888.1
95924.1
95917.5
95965.1
95955.1
96002.1
95996.5
96035.1
96037.9
96075.1
96086.6
96114.8
96132
96156.8
96179.9
96202.1
96225
96249.8
96271
96296.6
96318.9
96344.6
96367.8
96392.7
96416.2
96440.9
96464.3
96488.2
96511.6
96533.2
96558.6
96572.6
96610.7
96605.1
96660.7
96638.4
96705.7
96673.9
96743.9
96713.9
96776.1
96744.4
96806
96773.5
96824.5
96806.3
96846.7
96826.9
96870.2
96840.8
96882.5
96864.8
96898
96885.4
96912.6
96904.6
96921.7
96920.3
96932.7
96931.2
96941.8
96943.3
96944.9
96948.6
96942.2
96944.7
96942.2
96940.2
96936.3
96932.5
96926.6
96921.4
96913.2
96906.5
96895.9
96887.4
96874.9
96864.5
96850.5
96838.4
96822.7
96809.8
96792.3
96778.5
96759.9
96744.7
96725.6
96709.9
96688.9
96672.8
96651.9
96634.3
96613.9
96595.2
96573.4
96554.6
96531.8
96513.9
96488.8
96471.2
96445.6
96427.1
96402.7
96383
96359.9
96339.4
96317
96296.4
96274.6
96254.1
96233.1
96213.1
96192.8
96173.7
96154.1
96136.2
96117.5
96100.7
96083.2
96067.3
96051.3
96036.5
96021.4
96008
95994
95981.4
95969
95957.4
95946.8
95936.8
95927.8
95919.8
95913.1
95908
95903.4
95900.4
95897.8
95896.6
95895.8
95895.7
95895.9
95896.8
95899.1
95902.1
95906.5
95911.8
95917.9
95925.6
95933.7
95943.6
95953.9
95965.6
95977.4
95991.4
96005.1
96021.1
96036.4
96053.9
96070.6
96090
96108.9
96130
96150.4
96173.3
96195.7
96220.6
96244.4
96271
96297.5
96326
96352.5
96381.5
96414.5
96442.2
96477.9
96506.9
96540.3
96573.4
96608.9
96642.4
96678.9
96714
96751.8
96787.3
96826.2
96863.2
96903
96941
96981.6
97020.8
97062.3
97102.4
97144.7
97185.5
97228.8
97270.4
97314.2
97355.8
97400.5
97443.9
97488.9
97532.1
97577.5
97621.3
97666.8
97711.1
97756.9
97800.6
97846.9
97891.4
97937.1
97980.4
98027
98070
98116.3
98159.6
98205.7
98249.2
98294.1
98337.3
98382.6
98425
98470.8
98513.5
98558.3
98600.1
98645.5
98687.3
98731.9
98773.9
98817.6
98858.3
98902.2
98942.8
98984.9
99025.8
99067.8
99106.5
99148.3
99187.2
99227.9
99264.6
99304.4
99343.6
99377.5
99421.4
99454.7
99492.3
99527.1
99565
99599.8
99635.7
99669.7
99704.9
99737.6
99772.7
99804.6
99838.9
99870
99903
99934
99965.5
99996
100028
100057
100088
100117
100147
100175
100204
100230
100259
100285
100313
100338
100365
100390
100416
100440
100465
100488
100514
100536
100560
100581
100605
100625
100648
100668
100690
100709
100730
100748
100768
100786
100805
100822
100840
100856
100873
100888
100905
100919
100935
100948
100963
100976
100990
101002
101015
101026
101039
101049
101060
101071
101081
101091
101100
101110
101118
101127
101134
101143
101150
101157
101164
101171
101177
101183
101189
101195
101201
101206
101211
101216
101221
101226
101230
101234
101238
101243
101246
101250
101254
101257
101260
101263
101267
101269
101273
101275
101278
101280
101283
101285
101288
101290
101292
101294
101295
101297
101299
101300
101302
101303
101305
101306
101307
101308
101309
101310
101311
101312
101313
101314
101314
101315
101316
101316
101317
101317
101318
101318
101319
101320
101320
101321
101321
101322
101322
101323
101323
101324
101324
101325
96488.9
96491.2
96490.4
96493.2
96497.4
96505.9
96512.1
96522.4
96530.5
96540.6
96551.5
96560
96573.5
96581.5
96594.6
96604
96615.8
96627.2
96637.4
96649.3
96657.8
96668.5
96677.1
96685.6
96692.5
96700.7
96704.4
96712.5
96713.6
96718.8
96719.8
96720.8
96720
96716.8
96713.4
96706.8
96701.1
96692
96683.6
96671.7
96659.9
96645.3
96629.7
96612.3
96593
96572.8
96550.4
96526.8
96500.7
96474.2
96445
96415.2
96383
96349.7
96314.3
96277.7
96238.3
96199.9
96155.6
96117.3
96070.4
96027.6
95984
95935.8
95891.9
95841.5
95800.1
95748.8
95710.7
95668.8
95632.8
95598.7
95569.4
95548.1
95524.2
95516.8
95493.8
95503.4
95495.8
95508
95510.6
95526.2
95538
95558.4
95565.7
95596.3
95599.4
95626.5
95639
95659.7
95664.4
95685.6
95689.9
95709
95716.4
95734.4
95744.6
95761.1
95770.6
95790.5
95807.5
95824.3
95833.6
95857.7
95864.8
95896.7
95897.3
95936
95931.4
95971.6
95973.1
96006.7
96015
96042.7
96058.4
96084.5
96104.8
96128.2
96150.9
96172.7
96195.9
96220.2
96241
96266.1
96287.5
96313.3
96336.1
96361.6
96384.9
96409.5
96432.5
96457.2
96479.5
96504.3
96526
96549.4
96571.2
96589.1
96619.3
96624.5
96668.3
96653.5
96719.5
96693.9
96754
96724.4
96792
96752
96815.6
96785.6
96834.8
96815.4
96855.3
96833.1
96882.7
96846.8
96897.3
96867.6
96910.2
96888.1
96923.9
96908.5
96930.1
96924.6
96940.3
96936.5
96944.3
96951.5
96941
96947.5
96943.5
96943.5
96939
96936.5
96932.6
96926.9
96920.8
96914.3
96905.7
96897.6
96886.5
96876.8
96863.5
96852.5
96837.3
96824.9
96808.1
96794.4
96776.7
96762
96743.1
96728.1
96707.6
96691.8
96671.1
96653.7
96633.1
96614.7
96594.5
96574.5
96553.4
96534.2
96510.8
96492.7
96467.5
96449.2
96424.3
96405.1
96381.3
96361.2
96338.4
96317.8
96295.8
96275.1
96253.8
96233.4
96212.8
96193
96173.3
96154.5
96135.6
96118
96099.9
96083.7
96066.7
96051.6
96035.9
96022.1
96007.5
95994.9
95981.7
95969.9
95958.4
95947.7
95937.6
95928.7
95920.9
95913.9
95908.4
95904.1
95901
95898.7
95897.6
95896.7
95896.4
95896.9
95898.1
95899.9
95903.1
95907.1
95912.4
95918.7
95926.2
95934.6
95944
95954.5
95966
95978.5
95991.6
96005.6
96020.5
96037.2
96053.3
96071.7
96089.5
96109.6
96129.5
96151.7
96173.1
96196.5
96219.9
96245.4
96270.5
96297.8
96324.4
96353.8
96383.2
96409.8
96447.2
96474.9
96507.5
96540
96574.2
96607
96642.9
96677.1
96713.9
96749.8
96787.9
96824.8
96863.4
96901.3
96941
96979.5
97020.5
97060.5
97102.1
97143.3
97185.5
97227.6
97270
97312.6
97356.6
97398.9
97443.5
97487.4
97532
97576.6
97620.8
97665.4
97710.7
97755.4
97800.8
97844.9
97890.9
97935.8
97981.3
98025.6
98071.1
98114.7
98159.6
98203
98249
98292.2
98337.1
98381.1
98426.2
98468.8
98513.3
98556.9
98601.6
98643.9
98688
98729.7