/*--------------------------------*- C++ -*----------------------------------*\
| =========                 |                                                 |
| \\      /  F ield         | OpenFOAM: The Open Source CFD Toolbox           |
|  \\    /   O peration     | Version:  v1812                                 |
|   \\  /    A nd           | Web:      www.OpenFOAM.com                      |
|    \\/     M anipulation  |                                                 |
\*---------------------------------------------------------------------------*/
FoamFile
{
    version     2.0;
    format      ascii;
    class       surfaceScalarField;
    location    "0.5";
    object      phi;
}
// * * * * * * * * * * * * * * * * * * * * * * * * * * * * * * * * * * * * * //

dimensions      [1 0 -1 0 0 0 0];
oriented        oriented;


internalField   nonuniform List<scalar> 
40240
(
-0.000115238
8.35337e-05
-0.000186206
3.90782e-05
-0.000332546
0.000115995
-0.000467751
0.000106573
-0.000700452
0.000203755
-0.000899199
0.000171243
-0.00118463
0.000256719
-0.00143198
0.000219943
-0.00174717
0.000288304
-0.00203314
0.000260703
-0.00236146
0.000304119
-0.00266648
0.00028137
-0.0029889
0.000298569
-0.00329582
0.00028196
-0.00359214
0.000270173
-0.00387959
0.00026125
-0.00414636
0.000240072
-0.00441922
0.00024604
-0.00463618
0.000188704
-0.00485429
0.000186582
-0.00499307
0.000102875
-0.00508391
5.17997e-05
-0.00511632
-1.04165e-05
-0.00511435
-5.03951e-05
-0.00506746
-9.66048e-05
-0.00499424
-0.000127136
-0.00488701
-0.000165218
-0.00476716
-0.000180316
-0.00461459
-0.000215254
-0.00443136
-0.000247935
-0.00422689
-0.000270925
-0.00400247
-0.000292238
-0.00376955
-0.000301395
-0.0035101
-0.000330163
-0.00324338
-0.000340338
-0.0029633
-0.000357219
-0.00268073
-0.00036356
-0.00239714
-0.000368433
-0.00212122
-0.000364524
-0.00186331
-0.000349431
-0.00162229
-0.000334951
-0.00141373
-0.000303796
-0.00123974
-0.000269791
-0.00110522
-0.00023065
-0.00100718
-0.000194586
-0.000925735
-0.000178549
-0.000864087
-0.00016176
-0.000834351
-0.000132488
-0.00082939
-0.000111221
-0.000865398
-7.12749e-05
-0.000958335
-1.57607e-05
-0.0011188
5.11618e-05
-0.00135215
0.000123451
-0.00167034
0.00020644
-0.00207869
0.000293888
-0.0025899
0.000394253
-0.00321189
0.000503788
-0.0039554
0.000624698
-0.00483037
0.000756309
-0.00583314
0.000884781
-0.00699463
0.00104283
-0.00829742
0.00118425
-0.00977628
0.00136006
-0.0113907
0.00149477
-0.0131702
0.00165966
-0.0150369
0.00174723
-0.0170317
0.0018768
-0.0190843
0.00193587
-0.0212068
0.002007
-0.0232893
0.00196842
-0.025249
0.00184752
-0.0269964
0.0016383
-0.0283677
0.00126261
-0.0292637
0.00078777
-0.0297439
0.000369566
-0.0298431
-1.30386e-06
-0.0297267
-0.000217742
-0.0292791
-0.000541475
-0.0286682
-0.000698393
-0.0276784
-0.00107706
-0.0264702
-0.00128266
-0.0250227
-0.00151757
-0.0232208
-0.00186712
-0.0213179
-0.00196012
-0.0191269
-0.00224642
-0.0168653
-0.00231519
-0.0145203
-0.00239482
-0.0123166
-0.00224886
-0.0103276
-0.00202985
-0.00845056
-0.00191232
-0.0065768
-0.00189651
-0.00482557
-0.00176791
-0.00306985
-0.00177027
-0.0016495
-0.00143098
-0.000625883
-0.00103069
0.000324643
-0.000950718
0.000834091
-0.000503719
0.00157118
-0.000735543
0.0022397
-0.000651335
0.002957
-0.000712178
0.00368195
-0.000704344
0.00448951
-0.000788304
0.00524747
-0.000740436
0.00603253
-0.000760264
0.00674291
-0.000697803
0.00741286
-0.00064358
0.00809469
-0.000654869
0.0087207
-0.000579774
0.00936359
-0.000607158
0.00992475
-0.000499989
0.0105184
-0.000534469
0.0110334
-0.000433002
0.0115692
-0.000462466
0.0120295
-0.000367053
0.0125281
-0.000401133
0.0129004
-0.000265235
0.0132707
-0.000260491
0.0136166
-0.000223396
0.0139842
-0.000235475
0.0142113
-9.24423e-05
0.014469
-0.000115642
0.0146018
1.67718e-05
0.0146717
8.8313e-05
0.0146801
0.000158878
0.0146351
0.00022032
0.0145123
0.000305028
0.014353
0.000347689
0.0140963
0.000452152
0.0138281
0.000471042
0.0134609
0.000578153
0.0130785
0.000603421
0.0126516
0.000658176
0.0121645
0.00072794
0.0116728
0.000739775
0.0111103
0.000817318
0.0105936
0.000780719
0.00998925
0.000867325
0.00948727
0.000770603
0.00887427
0.000875814
0.00837683
0.000755061
0.00777483
0.000852466
0.0073171
0.000700989
0.00676907
0.000783055
0.00637403
0.000621499
0.00589592
0.000695623
0.0055579
0.00054748
0.00514718
0.000612051
0.00487605
0.00046664
0.00455161
0.000512893
0.00433685
0.000398718
0.00408029
0.000436322
0.00390128
0.000354345
0.00370867
0.000361935
0.00357356
0.000297774
0.00343447
0.000295022
0.00335289
0.000229528
0.00326128
0.000231614
0.00321087
0.000183528
0.00315836
0.000178746
0.00315203
0.000125619
0.00315361
0.000110918
0.00317737
8.0529e-05
0.00322548
4.79865e-05
0.00328552
2.73023e-05
0.00335727
6.25605e-06
0.00343104
-4.73672e-06
0.00351731
-2.72559e-05
0.00361109
-4.30167e-05
0.00369167
-3.73356e-05
0.0037987
-7.0498e-05
0.00387807
-5.38195e-05
0.00398613
-9.30601e-05
0.00407146
-8.23811e-05
0.00416734
-0.000104766
0.0042474
-9.90512e-05
0.00432967
-0.000112036
0.00441377
-0.000122503
0.00449359
-0.000128023
0.00457574
-0.000140949
0.00465276
-0.00014512
0.00473156
-0.000156886
0.00480743
-0.000163556
0.00488936
-0.000176808
0.00496571
-0.000181177
0.00504853
-0.000194179
0.00512413
-0.000194984
0.00520432
-0.000206708
0.00527374
-0.000202852
0.00534921
-0.000214916
0.00541613
-0.000212194
0.00549024
-0.000224087
0.00555452
-0.000218564
0.00562076
-0.00022573
0.00566722
-0.000209486
0.00571592
-0.000215129
0.0057513
-0.00020537
0.00579104
-0.000213294
0.00582118
-0.000208575
0.00585319
-0.000217415
0.00586617
-0.000194765
0.00588134
-0.000200537
0.00587839
-0.0001893
0.00587137
-0.000184677
0.00585255
-0.000172414
0.00582595
-0.000165382
0.00579606
-0.00016051
0.00575585
-0.000149214
0.00570555
-0.00013826
0.0056446
-0.000126399
0.00558046
-0.0001215
0.00550564
-0.000108762
0.00543383
-0.000108638
0.00534892
-9.28796e-05
0.00526895
-9.50379e-05
0.00517904
-8.17328e-05
0.00508982
-7.83901e-05
0.00499796
-7.08222e-05
0.00490646
-6.67681e-05
0.00481578
-6.22748e-05
0.00472439
-5.58745e-05
0.00463173
-4.99537e-05
0.00454111
-4.67858e-05
0.00445331
-4.42191e-05
0.00436767
-3.84307e-05
0.00428299
-3.66313e-05
0.00419729
-3.1682e-05
0.00411305
-2.81456e-05
0.00402559
-2.25064e-05
0.00393985
-1.99713e-05
0.0038547
-1.54208e-05
0.00377014
-1.10218e-05
0.00368606
-5.78766e-06
0.00360558
-3.48433e-07
0.00352851
5.86568e-06
0.00345593
1.29768e-05
0.00338654
2.12893e-05
0.00332394
2.43342e-05
0.00326585
2.86025e-05
0.00321384
2.97839e-05
0.00316086
3.59673e-05
0.00311117
3.98623e-05
0.00306109
4.59311e-05
0.00301561
4.83767e-05
0.00297261
5.36645e-05
0.00293208
5.68978e-05
0.00289046
6.36949e-05
0.00285172
6.95058e-05
0.00281783
7.36904e-05
0.00278579
8.08876e-05
0.00276089
8.2829e-05
0.00273606
9.16344e-05
0.00271724
9.32865e-05
0.00269769
0.000102842
0.00268557
0.000102486
0.00267189
0.000111001
0.00266249
0.000113546
0.00265555
0.000116752
0.00264783
0.000123418
0.00264806
0.000123713
0.00264591
0.000130979
0.00264921
0.000131351
0.00264875
0.000140074
0.00265454
0.000140052
0.00266012
0.000147047
0.00267016
0.000147741
0.0026812
0.000154026
0.00269666
0.000156127
0.00271201
0.000162939
0.00273237
0.000164722
0.00275204
0.000171879
0.00277502
0.000175296
0.00280016
0.000179722
0.00283104
0.000180716
0.00286319
0.000185018
0.00289891
0.000187764
0.00293385
0.000194277
0.00298727
0.000182507
0.00301322
0.00021369
0.00306669
0.000190769
0.00311282
0.000202252
0.00316185
0.000203531
0.0032123
0.000206532
0.00326517
0.000208671
0.00332197
0.000207856
0.00337778
0.000213562
0.00344002
0.000211301
0.00350064
0.000217347
0.00356673
0.000215998
0.00363184
0.000221004
0.00370353
0.000218013
0.00377262
0.000224721
0.00384814
0.000221587
0.00392145
0.000227536
0.00400137
0.000223878
0.00407839
0.000230034
0.00416175
0.000226404
0.00424253
0.000231868
0.0043304
0.000228008
0.00441503
0.000233482
0.00450724
0.000229815
0.00459579
0.000235708
0.00469085
0.000232324
0.00478384
0.000237064
0.00488151
0.000234558
0.00497967
0.000236399
0.00508427
0.000232223
0.00518543
0.000237327
0.00529323
0.000232587
0.00539688
0.000238107
0.00550766
0.000232629
0.00561375
0.000238078
0.00572649
0.000231951
0.00583421
0.000237543
0.00594846
0.000231091
0.00606082
0.000232981
0.00618095
0.000224798
0.00629194
0.000233312
0.00640969
0.000226193
0.00652312
0.000230011
0.0066448
0.000221994
0.00676073
0.000227454
0.00688578
0.000217981
0.00700356
0.000225166
0.00712968
0.000216805
0.00724863
0.000224157
0.00737732
0.000214838
0.00750014
0.000221052
0.00763309
0.000210958
0.00775841
0.000218598
0.00789335
0.00020839
0.00801723
0.000219037
0.00815113
0.000208977
0.00827617
0.000216434
0.00841272
0.000204658
0.00853896
0.000214355
0.00867545
0.000202887
0.0088003
0.00021376
0.00893619
0.00020137
0.00906132
0.000210873
0.00919973
0.000196196
0.00932499
0.000207155
0.00945989
0.00019547
0.00958318
0.000205682
0.00971887
0.000191247
0.00984341
0.000200475
0.00998474
0.000182766
0.0100912
0.000214563
0.0102514
0.000158947
0.0103434
0.000222376
0.0104803
0.000175014
0.010608
0.000184305
0.0107262
0.000190903
0.0108555
0.000176701
0.0109722
0.000188945
0.0111015
0.00017285
0.0112176
0.000183486
0.0113442
0.000169109
0.0114594
0.00017809
0.0115892
0.000161905
0.0117032
0.000175124
0.0118285
0.000161783
0.0119387
0.00017424
0.0120604
0.000160743
0.0121734
0.000167098
0.012297
0.000151895
0.0124085
0.000162194
0.0125328
0.000145735
0.0126417
0.00015848
0.0127632
0.000143369
0.0128713
0.000154165
0.0129885
0.000141256
0.0130943
0.000149889
0.0132079
0.000137107
0.0133142
0.000142826
0.0134337
0.000126021
0.0135357
0.00014057
0.0136463
0.000128768
0.0137464
0.000136472
0.0138562
0.000123053
0.0139541
0.00013225
0.0140659
0.00011499
0.0141608
0.000128555
0.014263
0.000118129
0.0143562
0.000124016
0.0144597
0.000110409
0.0145501
0.000120455
0.0146529
0.000104596
0.0147401
0.000116844
0.0148336
0.000107399
0.0149171
0.000113816
0.0150117
0.000100377
0.0150916
0.000110861
0.0151828
9.58721e-05
0.0152606
0.00010611
0.0153475
9.33285e-05
0.0154183
0.000105781
0.0154968
9.53363e-05
0.0155646
0.000101937
0.0156415
8.97385e-05
0.0157073
9.73184e-05
0.0157822
8.60547e-05
0.0158444
9.45373e-05
0.0159165
8.29342e-05
0.0159771
9.00446e-05
0.0160466
7.86507e-05
0.0161045
8.54482e-05
0.0161709
7.44608e-05
0.0162258
8.15355e-05
0.0162873
7.26216e-05
0.0163396
7.74789e-05
0.0164014
6.66018e-05
0.0164553
7.13837e-05
0.0165177
6.04134e-05
0.0165715
6.65577e-05
0.0166311
5.76447e-05
0.0166815
6.39074e-05
0.0167476
4.58983e-05
0.016787
6.86138e-05
0.0168483
4.31894e-05
0.0168953
5.44804e-05
0.0169444
4.92987e-05
0.0169947
4.64049e-05
0.017037
5.12013e-05
0.0170854
4.3396e-05
0.0171259
4.84194e-05
0.0171712
4.17176e-05
0.0172079
4.70578e-05
0.0172498
4.01768e-05
0.017284
4.48099e-05
0.0173226
3.88413e-05
0.0173549
4.20889e-05
0.0173902
3.63809e-05
0.0174201
3.957e-05
0.0174527
3.47057e-05
0.0174804
3.76325e-05
0.0175101
3.33045e-05
0.0175357
3.55677e-05
0.0175632
3.12803e-05
0.0175864
3.38816e-05
0.0176116
2.98082e-05
0.0176333
3.12145e-05
0.0176565
2.77199e-05
0.0176757
2.97105e-05
0.0176971
2.58568e-05
0.0177147
2.78016e-05
0.0177329
2.57502e-05
0.0177493
2.59121e-05
0.0177664
2.36882e-05
0.0177814
2.43366e-05
0.0177971
2.2146e-05
0.01781
2.34464e-05
0.0178233
2.18834e-05
0.0178358
2.14066e-05
0.017849
1.95776e-05
0.0178587
2.20725e-05
0.0178729
1.66448e-05
0.0178811
2.15203e-05
0.0178938
1.60314e-05
0.0179026
1.86903e-05
0.0179136
1.54176e-05
0.0179238
1.53338e-05
0.0179338
1.48853e-05
0.0179442
1.36814e-05
0.0179545
1.314e-05
0.0179649
1.23942e-05
0.0179754
1.15198e-05
0.0179865
1.0379e-05
0.0179972
1.01494e-05
0.0180088
8.40812e-06
0.0180197
8.74303e-06
0.0180308
7.70765e-06
0.0180415
7.6367e-06
0.0180524
6.68333e-06
0.0180634
6.27878e-06
0.0180745
5.68872e-06
0.0180849
6.22675e-06
0.0180952
5.39851e-06
0.0181049
5.45353e-06
0.0181145
4.91686e-06
0.0181228
5.30813e-06
0.018131
4.48604e-06
0.0181387
4.3264e-06
0.018146
4.49594e-06
0.0181518
5.54605e-06
0.0181596
3.01891e-06
0.0181633
6.55795e-06
0.0181694
3.36294e-06
0.0181735
4.72414e-06
0.0181774
4.1174e-06
0.0181814
3.3153e-06
0.0181834
4.56402e-06
0.0181852
3.74464e-06
0.0181864
3.57803e-06
0.0181871
3.43188e-06
0.0181873
3.27137e-06
0.0181868
3.37852e-06
0.0181857
3.429e-06
0.018184
3.36836e-06
0.018182
2.85546e-06
3.49409e-06
-0.00015726
0.000211162
-0.000425187
0.000280488
-0.00065889
0.000321844
-0.00108199
0.000499613
-0.00148314
0.0005796
-0.00206951
0.000729673
-0.00256597
0.000727734
-0.00320962
0.000835165
-0.0037547
0.000807916
-0.00440262
0.000882894
-0.00496618
0.000844329
-0.00557985
0.000871284
-0.00612515
0.00081996
-0.00667364
0.000804952
-0.00716575
0.000736397
-0.00763497
0.000704206
-0.00808087
0.000658596
-0.00844574
0.000583563
-0.00883989
0.000554186
-0.00909845
0.000413228
-0.00934709
0.000315756
-0.00948244
0.000147707
-0.00956627
3.02185e-05
-0.00957113
-9.35613e-05
-0.00952396
-0.000193764
-0.0094199
-0.000284356
-0.00926392
-0.000378476
-0.00906112
-0.000442981
-0.00881016
-0.000528545
-0.00850852
-0.000613714
-0.00814635
-0.000699381
-0.00775415
-0.000752344
-0.00731246
-0.000811886
-0.00685428
-0.000859747
-0.00636158
-0.000906333
-0.00586772
-0.000927233
-0.00535966
-0.000950908
-0.00485479
-0.000955932
-0.00436214
-0.000942575
-0.00388548
-0.000914549
-0.00344997
-0.000860994
-0.00305036
-0.000795827
-0.0027113
-0.000701833
-0.00243676
-0.000599104
-0.00221576
-0.000510642
-0.00209027
-0.000399325
-0.00203041
-0.00032061
-0.0020578
-0.000205182
-0.0021667
-0.000105183
-0.00239811
5.34282e-05
-0.00275035
0.000227826
-0.00323827
0.000429434
-0.00387214
0.000645987
-0.00465713
0.000877882
-0.00560542
0.00112583
-0.00671899
0.00138924
-0.00800403
0.00166911
-0.00946129
0.00196208
-0.011077
0.00225245
-0.0128555
0.00254648
-0.0147595
0.00282726
-0.016822
0.00312874
-0.018932
0.00335072
-0.0211611
0.00360453
-0.0233213
0.00369963
-0.0254823
0.0037893
-0.027491
0.00376774
-0.0293714
0.00369914
-0.0310662
0.00358509
-0.0324689
0.00325601
-0.0336374
0.00290126
-0.0345075
0.00239623
-0.0351379
0.00178286
-0.0355883
0.00113032
-0.0358151
0.0004925
-0.0358602
-5.52629e-05
-0.0354713
-0.000707528
-0.0349304
-0.00117955
-0.0340688
-0.00164461
-0.0329724
-0.00225182
-0.0315438
-0.00277704
-0.0298306
-0.00330554
-0.0278659
-0.00388902
-0.0254554
-0.0044326
-0.0229111
-0.00483631
-0.0200294
-0.00525116
-0.0171434
-0.00533005
-0.0141517
-0.00528571
-0.0112294
-0.0049941
-0.00839424
-0.00478457
-0.006377
-0.0039514
-0.00440406
-0.0037723
-0.00263442
-0.00355758
-0.00102974
-0.00304375
0.000870696
-0.00293226
0.00253331
-0.00261697
0.00465087
-0.00261353
0.00639645
-0.00247402
0.00821518
-0.00248462
0.0100713
-0.00254707
0.0119914
-0.00260967
0.0138464
-0.00261935
0.0157496
-0.00260017
0.0174555
-0.00246454
0.019103
-0.00232502
0.0206943
-0.00222407
0.0221144
-0.00204496
0.0236319
-0.00205358
0.0249249
-0.00186144
0.0263166
-0.00182598
0.0275222
-0.00167984
0.028791
-0.00163113
0.0299092
-0.00148308
0.0310788
-0.00146976
0.0320083
-0.00123676
0.0329963
-0.00114671
0.0338598
-0.00100659
0.0347515
-0.00098987
0.0353787
-0.000741338
0.0361887
-0.000763889
0.036625
-0.000413634
0.0370811
-0.000290328
0.0373354
-9.6432e-06
0.0374687
0.000192324
0.0374965
0.00036656
0.037412
0.000570438
0.0371669
0.000780143
0.0368742
0.000939155
0.036344
0.001202
0.0358024
0.00133034
0.0350835
0.00154185
0.0342761
0.00169584
0.0333844
0.00185801
0.0323401
0.00202818
0.0313153
0.00209439
0.0300609
0.00229349
0.0289401
0.00225701
0.0275619
0.00241544
0.0263562
0.0023463
0.0248993
0.00247053
0.0236866
0.00231688
0.0222486
0.00238213
0.0210954
0.00217201
0.0197526
0.00219125
0.0186934
0.00197303
0.0174635
0.00198624
0.0165312
0.00174777
0.0154627
0.00172728
0.0146791
0.00148542
0.0137906
0.00146623
0.0131527
0.0012587
0.0124193
0.00125931
0.0118968
0.00105753
0.0113131
0.0010418
0.0109399
0.000824458
0.0105308
0.000785828
0.0102651
0.000635265
0.00998402
0.000599773
0.00982248
0.000468362
0.00966031
0.000405169
0.00959591
0.000287399
0.00956407
0.000218798
0.00959061
0.000118423
0.00965233
5.38632e-05
0.00974553
-8.50307e-06
0.00985649
-4.66703e-05
0.0099905
-0.000101527
0.0101223
-0.000125165
0.0103048
-0.00017501
0.0104328
-0.000162047
0.010639
-0.000230975
0.0107696
-0.000209346
0.0109512
-0.000261494
0.0111022
-0.000263756
0.0112652
-0.000279319
0.0114295
-0.000304438
0.0115852
-0.000316689
0.0117515
-0.000342074
0.0119104
-0.000358429
0.0120765
-0.000378718
0.012243
-0.000401125
0.0124158
-0.000421166
0.0125865
-0.000446845
0.0127764
-0.000469856
0.0129548
-0.000484614
0.0131498
-0.000509155
0.0133317
-0.000514408
0.0135235
-0.000528483
0.0137047
-0.000535562
0.0138991
-0.000551884
0.0140795
-0.000554645
0.0142737
-0.000567611
0.0144382
-0.00054829
0.0146051
-0.000541271
0.0147492
-0.000526208
0.014897
-0.000523691
0.0150239
-0.000514157
0.0151581
-0.000519974
0.01526
-0.000500651
0.0153637
-0.000482247
0.0154238
-0.000447669
0.0154868
-0.000442782
0.0155061
-0.000395732
0.0155253
-0.000383574
0.0155168
-0.000348764
0.0154878
-0.000322277
0.0154414
-0.000292591
0.0153716
-0.000257415
0.0152879
-0.000230254
0.015187
-0.000206817
0.0150772
-0.000182046
0.0149495
-0.000163245
0.0148171
-0.000137489
0.0146679
-0.000120127
0.0145116
-9.85749e-05
0.0143489
-8.31699e-05
0.0141787
-6.57827e-05
0.0140056
-5.27732e-05
0.0138302
-3.86431e-05
0.0136561
-2.97899e-05
0.0134781
-1.49083e-05
0.0133104
-1.19882e-05
0.0131345
-4.34394e-08
0.0129655
3.97346e-07
0.0128
9.72591e-06
0.0126374
1.50137e-05
0.0124689
2.77634e-05
0.0123048
3.3521e-05
0.0121355
4.66133e-05
0.0119719
4.75569e-05
0.011805
6.13785e-05
0.0116591
5.67168e-05
0.0115015
7.45042e-05
0.0113579
7.09306e-05
0.0112178
9.22849e-05
0.0110965
9.56488e-05
0.0109739
0.000106072
0.0108708
0.000103008
0.0107652
0.000114205
0.0106737
0.000109148
0.0105797
0.000123589
0.0105017
0.000122423
0.0104186
0.000134209
0.0103521
0.000131408
0.0102812
0.000144716
0.0102209
0.000146716
0.0101648
0.000156049
0.0101176
0.000159874
0.0100802
0.000167346
0.0100537
0.000166323
0.0100297
0.000182949
0.0100196
0.000177884
0.0100087
0.000195608
0.0100103
0.000191957
0.0100134
0.000205314
0.0100265
0.000203889
0.0100413
0.000212436
0.0100666
0.00021445
0.0100932
0.000220065
0.0101317
0.000221307
0.0101695
0.000228259
0.0102183
0.000231732
0.010263
0.000242584
0.0103193
0.000244062
0.0103805
0.000246213
0.0104537
0.000247021
0.0105251
0.000256956
0.0106091
0.000257763
0.0106926
0.000266572
0.0107877
0.000268287
0.0108822
0.000279036
0.0109906
0.000276237
0.0110983
0.000284286
0.0112196
0.000280551
0.0113471
0.000284446
0.0114986
0.000274179
0.0115934
0.000324503
0.0117837
0.000261253
0.0118989
0.000319313
0.0120574
0.000291335
0.0122171
0.000298534
0.0123719
0.000310351
0.0125424
0.000298902
0.0127065
0.00031064
0.0128884
0.000300504
0.013063
0.000310874
0.013255
0.000303363
0.0134394
0.000313451
0.013641
0.000305214
0.0138337
0.000315288
0.0140452
0.000307138
0.0142472
0.000317787
0.014467
0.000309211
0.0146768
0.000318781
0.0149053
0.000309247
0.0151207
0.000321423
0.0153561
0.000309818
0.0155786
0.000321377
0.0158213
0.000310192
0.0160509
0.000321785
0.0163014
0.000310121
0.0165383
0.000323319
0.0167932
0.000312181
0.0170365
0.000324292
0.0173002
0.000307589
0.0175505
0.000318998
0.0178219
0.000305067
0.0180754
0.000319694
0.0183514
0.000304657
0.0186098
0.000318027
0.0188896
0.0003032
0.0191482
0.000318805
0.0194296
0.000302477
0.0196931
0.000313915
0.01998
0.00029215
0.0202446
0.000305777
0.0205321
0.000290585
0.0207969
0.000306081
0.0210879
0.000284252
0.0213543
0.000300442
0.0216477
0.000278476
0.0219179
0.000291296
0.0222161
0.00027085
0.0224879
0.000288842
0.0227873
0.000268459
0.0230628
0.000283988
0.0233668
0.00026131
0.0236453
0.000277566
0.0239535
0.000254391
0.0242301
0.000275725
0.0245388
0.00025492
0.0248172
0.000274501
0.0251226
0.000253384
0.0253986
0.000270705
0.0257065
0.000247569
0.0259798
0.000269747
0.0262838
0.000248926
0.0265507
0.000271376
0.0268538
0.000245927
0.0271247
0.000261019
0.0274252
0.000239556
0.0276893
0.000263633
0.0279847
0.000239676
0.0282457
0.000257078
0.0285391
0.000235203
0.0287839
0.000259431
0.0291322
0.000192928
0.0293157
0.000297671
0.0296609
0.000189193
0.0298821
0.000270402
0.0301259
0.000248105
0.0304063
0.000221338
0.0306458
0.000246906
0.0309202
0.00022078
0.0311612
0.000237496
0.0314267
0.000215767
0.0316598
0.000232844
0.0319302
0.000202781
0.0321606
0.00022241
0.0324273
0.000199354
0.0326547
0.000221622
0.0329103
0.000204826
0.0331383
0.000215483
0.0333923
0.00019361
0.0336158
0.000206684
0.0338695
0.000181444
0.0340877
0.000199347
0.0343384
0.000175751
0.0345536
0.000193646
0.0347987
0.000172207
0.0350137
0.00018809
0.0352457
0.000170387
0.0354533
0.000181327
0.0356909
0.000154458
0.0358947
0.000169686
0.0361242
0.000153635
0.036323
0.000170586
0.0365465
0.000150094
0.0367387
0.000163197
0.036961
0.000141516
0.037149
0.000154671
0.0373618
0.000139133
0.0375445
0.000156801
0.037751
0.000135434
0.037926
0.000148704
0.03813
0.000128928
0.0383016
0.000141832
0.038496
0.000126485
0.0386602
0.000145076
0.0388463
0.000126306
0.0390003
0.000139832
0.0391821
0.000121025
0.0393306
0.000135522
0.0395049
0.00011587
0.0396456
0.000133798
0.0398078
0.000120948
0.0399392
0.000138007
0.0400897
0.000122641
0.0402151
0.000130236
0.0403642
0.000113197
0.0404817
0.000129277
0.0406207
0.00011391
0.0407347
0.000123414
0.0408696
0.000107541
0.040978
0.000117876
0.0411077
0.000100759
0.0412122
0.000111036
0.041333
9.8662e-05
0.0414329
0.000106488
0.0415493
9.29868e-05
0.0416439
9.89984e-05
0.0417599
8.2018e-05
0.0418559
8.7858e-05
0.0419688
7.42538e-05
0.0420642
7.98397e-05
0.0421821
6.1526e-05
0.0422579
8.21841e-05
0.0423912
4.50537e-05
0.0424559
8.29131e-05
0.0425585
5.35712e-05
0.0426511
5.54102e-05
0.0427294
6.42823e-05
0.0428233
5.21665e-05
0.0428982
5.9731e-05
0.0429858
5.12759e-05
0.0430559
5.81736e-05
0.0431382
4.99395e-05
0.0432021
5.75159e-05
0.0432761
5.0902e-05
0.0433364
5.55392e-05
0.0434046
4.84923e-05
0.0434616
5.22601e-05
0.0435247
4.59437e-05
0.0435761
5.06726e-05
0.0436341
4.51961e-05
0.0436819
4.89828e-05
0.0437354
4.33334e-05
0.043779
4.70651e-05
0.0438282
4.20831e-05
0.0438689
4.41957e-05
0.0439139
3.92258e-05
0.0439507
4.1448e-05
0.0439928
3.67929e-05
0.0440262
3.95958e-05
0.0440627
3.68566e-05
0.044094
3.84558e-05
0.0441276
3.47289e-05
0.0441553
3.6789e-05
0.0441869
3.24486e-05
0.0442123
3.48804e-05
0.0442396
3.26722e-05
0.044262
3.47126e-05
0.044287
3.04712e-05
0.0443077
3.22489e-05
0.0443335
2.80992e-05
0.0443484
3.24416e-05
0.0443739
2.60089e-05
0.0443876
3.09059e-05
0.0444099
2.4428e-05
0.0444255
2.65597e-05
0.0444426
2.39594e-05
0.0444604
2.17611e-05
0.044478
2.04578e-05
0.0444974
1.73842e-05
0.0445163
1.66622e-05
0.0445341
1.59286e-05
0.0445528
1.3148e-05
0.0445724
1.24912e-05
0.0445922
8.89459e-06
0.0446115
9.82662e-06
0.044631
7.06191e-06
0.0446502
6.9613e-06
0.0446692
5.4129e-06
0.04469
2.58958e-06
0.0447087
4.44756e-06
0.0447282
4.15097e-06
0.0447458
3.28582e-06
0.0447646
1.97123e-06
0.0447805
3.85231e-06
0.0447973
2.37324e-06
0.0448109
3.50132e-06
0.0448252
2.40311e-06
0.0448396
2.29199e-06
0.0448537
2.39124e-06
0.0448618
5.60944e-06
0.0448771
1.60607e-06
0.0448838
6.28354e-06
0.0448934
4.11085e-06
0.0449017
4.26372e-06
0.0449067
5.70588e-06
0.0449135
4.22785e-06
0.044917
6.05194e-06
0.0449194
6.21915e-06
0.0449208
6.29317e-06
0.0449213
6.39222e-06
0.044921
6.80029e-06
0.0449198
7.22932e-06
0.0449171
7.74004e-06
0.0449136
7.25806e-06
7.68995e-06
-0.000245665
0.000429981
-0.000556445
0.000563946
-0.0010219
0.000761301
-0.0014891
0.00093991
-0.00212717
0.00118996
-0.00279075
0.00136958
-0.00354799
0.00145727
-0.00426808
0.00152959
-0.00505468
0.00156636
-0.00576868
0.00156932
-0.00651216
0.00156279
-0.00717937
0.00151471
-0.00784208
0.00145771
-0.00842858
0.00136669
-0.00899218
0.00127342
-0.00948808
0.0011733
-0.00994034
0.00108323
-0.0103603
0.000975919
-0.0106836
0.000847886
-0.010998
0.000695332
-0.0112068
0.000488422
-0.0113804
0.000281667
-0.011475
8.05707e-05
-0.0114995
-0.000116223
-0.0114564
-0.000287638
-0.011358
-0.000435552
-0.0111927
-0.000600051
-0.0109612
-0.000732658
-0.0106821
-0.000867972
-0.0103299
-0.00102943
-0.00992339
-0.0011717
-0.00943913
-0.00130352
-0.00892386
-0.00139625
-0.00835545
-0.00149822
-0.00776979
-0.00156477
-0.00716711
-0.00160527
-0.00656456
-0.00163202
-0.00596327
-0.0016392
-0.00537563
-0.00161586
-0.00481498
-0.00156324
-0.00428801
-0.00147842
-0.00381246
-0.00136295
-0.00339641
-0.00121174
-0.00304083
-0.00104912
-0.00279203
-0.000856252
-0.00260842
-0.000679172
-0.00258057
-0.000449163
-0.00266934
-0.00021574
-0.00292485
5.00656e-05
-0.00333379
0.000360168
-0.00391021
0.000699418
-0.00465364
0.001065
-0.00556484
0.00144745
-0.00664862
0.00184909
-0.00790153
0.00226326
-0.00932294
0.002693
-0.0109022
0.00313035
-0.0126277
0.00356861
-0.0144836
0.00399045
-0.0164321
0.00437626
-0.0184737
0.00475279
-0.0205556
0.00509094
-0.0226645
0.00534116
-0.0247093
0.00553202
-0.0266962
0.00556906
-0.0285378
0.00551591
-0.0302216
0.00533709
-0.0317312
0.00509577
-0.0329656
0.00470694
-0.0339849
0.00416311
-0.0347359
0.00353787
-0.0353103
0.0028561
-0.0356985
0.00206073
-0.036004
0.00132701
-0.0361596
0.000540563
-0.0361181
-0.000198234
-0.0359012
-0.00102201
-0.0351441
-0.00203599
-0.0339551
-0.00293209
-0.0324948
-0.00377806
-0.0306461
-0.00470895
-0.0287263
-0.00529143
-0.0263838
-0.00631687
-0.0239468
-0.00691573
-0.0211204
-0.00773202
-0.0183282
-0.00809
-0.0152397
-0.00846684
-0.0124209
-0.00815316
-0.00962657
-0.00782454
-0.00718178
-0.00726412
-0.00491088
-0.00624991
-0.00252595
-0.006179
-0.000348781
-0.0057512
0.00216356
-0.00556463
0.00451115
-0.00528544
0.00734944
-0.00545428
0.0100879
-0.00533923
0.0127687
-0.00517175
0.0154394
-0.00513068
0.0180236
-0.00514653
0.0206025
-0.00516636
0.0231055
-0.00509824
0.0255502
-0.0050065
0.0279348
-0.00479604
0.0300648
-0.00447163
0.0320432
-0.00417876
0.0340513
-0.00399639
0.0358462
-0.0038075
0.0376322
-0.00362429
0.0393537
-0.00346284
0.0409953
-0.00328049
0.042619
-0.00314748
0.0441586
-0.0029647
0.0454987
-0.00275281
0.0468727
-0.00254362
0.048169
-0.00234222
0.0494676
-0.00219253
0.0504101
-0.00180605
0.0516493
-0.00185665
0.0523261
-0.00131624
0.0531991
-0.00114875
0.0537538
-0.000704002
0.0542305
-0.000335897
0.0545723
1.41186e-06
0.0547511
0.000354872
0.0548059
0.000689391
0.0547212
0.00104623
0.0544561
0.00139304
0.054124
0.00173081
0.0535298
0.00212861
0.0528839
0.00240298
0.0520432
0.00275944
0.0510515
0.00308143
0.0500047
0.00330706
0.0486748
0.00366329
0.0473298
0.00389256
0.0457845
0.00407014
0.0442482
0.00422208
0.042466
0.0043969
0.0407896
0.00440925
0.0388752
0.0044858
0.0371497
0.00435431
0.0352209
0.00433805
0.0335151
0.00412708
0.0316381
0.00407098
0.0300253
0.00381533
0.0282714
0.00370666
0.0267959
0.00339738
0.0252312
0.00322986
0.0239921
0.00288726
0.0226718
0.00275852
0.021663
0.00245202
0.0205333
0.0023554
0.0197253
0.00201313
0.0188377
0.00187048
0.0182281
0.00153553
0.0175828
0.0014266
0.0171584
0.00115963
0.0167062
0.00104617
0.0164211
0.000806845
0.0161421
0.000682135
0.0160163
0.000447522
0.0159142
0.00031826
0.0159027
0.000154267
0.0159267
4.68755e-05
0.0160006
-5.05764e-05
0.0160908
-0.000131543
0.0162341
-0.000215846
0.0163475
-0.000245097
0.0165444
-0.00032024
0.0166654
-0.000322627
0.016869
-0.000397596
0.0170252
-0.000407942
0.0172065
-0.000443747
0.0173899
-0.000484089
0.0175767
-0.000517076
0.017774
-0.000548961
0.0179709
-0.000586504
0.0181784
-0.000621783
0.0183919
-0.00065792
0.0186138
-0.000697263
0.01884
-0.000736737
0.019088
-0.000783634
0.0193293
-0.00081698
0.019598
-0.000861105
0.0198656
-0.000894946
0.0201412
-0.000916875
0.0204161
-0.000936474
0.0207032
-0.000963463
0.020982
-0.000977453
0.021282
-0.00100486
0.0215615
-0.00100109
0.0218435
-0.00099229
0.0221059
-0.000965977
0.0223685
-0.000959909
0.0226147
-0.000939254
0.0228628
-0.000936891
0.0230849
-0.000920112
0.023307
-0.000902505
0.0234796
-0.000839974
0.0236573
-0.000813222
0.0237687
-0.000745712
0.0238907
-0.000708621
0.0239578
-0.000643617
0.024022
-0.000608105
0.0240382
-0.000531276
0.0240463
-0.000492058
0.0240183
-0.000419729
0.0239816
-0.000382272
0.0239135
-0.000325416
0.0238263
-0.000279694
0.0237215
-0.000239679
0.0235969
-0.000195983
0.0234625
-0.000160121
0.0233132
-0.000125089
0.0231481
-8.7386e-05
0.022984
-6.09148e-05
0.0228002
-3.09956e-05
0.0226227
-1.50177e-05
0.0224317
1.13615e-05
0.0222473
2.76128e-05
0.0220581
3.90097e-05
0.0218794
4.55568e-05
0.0216988
5.76987e-05
0.0215218
6.22202e-05
0.0213442
7.91059e-05
0.0211749
8.60473e-05
0.0209956
0.000106077
0.0208297
0.000103624
0.0206578
0.000123277
0.0205005
0.000127108
0.020332
0.000136615
0.0201884
0.000142503
0.0200383
0.000153222
0.0199126
0.000159845
0.0197819
0.000171314
0.0196763
0.000175777
0.0195666
0.000180584
0.0194807
0.000179616
0.0193943
0.000182615
0.0193245
0.000183685
0.01925
0.000192623
0.0191965
0.000194743
0.0191446
0.000195831
0.0191031
0.000202478
0.0190651
0.000207936
0.0190398
0.000210985
0.0190204
0.000218862
0.01902
0.000217979
0.0190222
0.000222337
0.0190428
0.000228568
0.0190619
0.000233128
0.0191038
0.000241836
0.0191431
0.000243107
0.0192004
0.00024621
0.0192572
0.000250437
0.0193317
0.000248979
0.0194055
0.000257574
0.0194951
0.000253963
0.0195848
0.000260373
0.0196926
0.000256097
0.0197961
0.00027021
0.0199122
0.000274382
0.0200314
0.000280059
0.0201697
0.000270733
0.0203033
0.000281238
0.0204537
0.00028026
0.0206021
0.00028917
0.020768
0.000286606
0.0209332
0.000296155
0.0211135
0.000297594
0.0212944
0.000301686
0.0214935
0.0002964
0.0216933
0.000301401
0.0219015
0.000301647
0.0220869
0.000319343
0.022397
0.000254723
0.0225364
0.000362393
0.022819
0.000277154
0.0230524
0.000306434
0.0232835
0.000322722
0.0235456
0.000308281
0.023791
0.000318381
0.0240633
0.000303972
0.0243208
0.000314862
0.0246054
0.000301823
0.0248756
0.000312483
0.0251724
0.000301064
0.0254523
0.000312838
0.0257617
0.000298714
0.0260498
0.000313865
0.0263627
0.00030269
0.0266621
0.000313699
0.0269856
0.000299383
0.0272913
0.000314474
0.027625
0.000299765