/*--------------------------------*- C++ -*----------------------------------*\
| =========                 |                                                 |
| \\      /  F ield         | OpenFOAM: The Open Source CFD Toolbox           |
|  \\    /   O peration     | Version:  v1812                                 |
|   \\  /    A nd           | Web:      www.OpenFOAM.com                      |
|    \\/     M anipulation  |                                                 |
\*---------------------------------------------------------------------------*/
FoamFile
{
    version     2.0;
    format      ascii;
    class       volScalarField;
    location    "0.5";
    object      T;
}
// * * * * * * * * * * * * * * * * * * * * * * * * * * * * * * * * * * * * * //

dimensions      [0 0 0 1 0 0 0];


internalField   nonuniform List<scalar> 
20400
(
288.331
288.327
288.313
288.278
288.213
288.113
287.981
287.822
287.652
287.479
287.318
287.173
287.052
286.952
286.873
286.811
286.769
286.742
286.731
286.727
286.729
286.733
286.74
286.751
286.765
286.784
286.809
286.842
286.884
286.936
287
287.075
287.165
287.269
287.39
287.529
287.686
287.861
288.055
288.265
288.489
288.723
288.965
289.21
289.454
289.691
289.916
290.123
290.309
290.473
290.614
290.734
290.832
290.909
290.963
290.993
291.006
291.009
291.006
290.995
290.973
290.938
290.891
290.836
290.773
290.705
290.635
290.568
290.506
290.45
290.402
290.357
290.317
290.277
290.239
290.202
290.175
290.161
290.161
290.141
290.12
290.103
290.1
290.098
290.115
290.158
290.223
290.296
290.354
290.398
290.409
290.459
290.504
290.584
290.659
290.769
290.859
290.976
291.091
291.177
291.251
291.304
291.368
291.431
291.521
291.623
291.748
291.874
292.01
292.133
292.255
292.362
292.47
292.568
292.674
292.774
292.877
292.966
293.053
293.124
293.192
293.237
293.268
293.282
293.286
293.284
293.272
293.239
293.179
293.082
292.939
292.746
292.505
292.223
291.899
291.547
291.169
290.783
290.399
290.037
289.703
289.407
289.146
288.924
288.735
288.579
288.449
288.344
288.26
288.201
288.166
288.151
288.149
288.151
288.159
288.172
288.19
288.211
288.232
288.251
288.27
288.287
288.303
288.318
288.331
288.343
288.354
288.366
288.378
288.393
288.406
288.423
288.438
288.455
288.472
288.491
288.511
288.53
288.551
288.573
288.597
288.623
288.652
288.683
288.716
288.749
288.784
288.816
288.848
288.877
288.905
288.931
288.956
288.977
288.996
289.012
289.027
289.042
289.06
289.079
289.1
289.123
289.146
289.168
289.187
289.203
289.214
289.22
289.223
289.223
289.222
289.22
289.215
289.209
289.202
289.193
289.182
289.17
289.155
289.137
289.117
289.094
289.07
289.045
289.022
289
288.982
288.966
288.952
288.94
288.93
288.921
288.913
288.905
288.9
288.894
288.89
288.886
288.884
288.881
288.879
288.877
288.876
288.875
288.875
288.875
288.876
288.878
288.881
288.885
288.891
288.896
288.903
288.911
288.919
288.929
288.94
288.951
288.963
288.976
288.989
289.003
289.017
289.032
289.049
289.068
289.089
289.11
289.132
289.153
289.174
289.195
289.218
289.241
289.267
289.294
289.325
289.355
289.386
289.415
289.445
289.476
289.506
289.537
289.568
289.599
289.629
289.661
289.692
289.725
289.757
289.791
289.825
289.859
289.894
289.93
289.966
290.004
290.041
290.078
290.114
290.151
290.186
290.223
290.26
290.299
290.338
290.379
290.419
290.459
290.497
290.535
290.572
290.61
290.648
290.688
290.727
290.767
290.806
290.846
290.885
290.925
290.965
291.006
291.045
291.084
291.121
291.159
291.197
291.237
291.276
291.316
291.354
291.392
291.429
291.467
291.503
291.54
291.575
291.611
291.646
291.682
291.716
291.751
291.784
291.82
291.856
291.898
291.932
291.965
291.992
292.021
292.051
292.079
292.11
292.141
292.173
292.204
292.236
292.266
292.296
292.323
292.35
292.375
292.402
292.429
292.458
292.485
292.513
292.538
292.563
292.586
292.609
292.633
292.658
292.683
292.707
292.729
292.751
292.773
292.796
292.818
292.841
292.862
292.884
292.904
292.926
292.946
292.967
292.986
293.006
293.025
293.044
293.063
293.082
293.099
293.116
293.132
293.147
293.162
293.178
293.193
293.209
293.223
293.238
293.252
293.266
293.279
293.292
293.305
293.319
293.331
293.344
293.356
293.367
293.378
293.391
293.401
293.413
293.421
293.431
293.44
293.448
293.456
293.463
293.469
293.475
293.481
293.486
293.492
293.497
293.502
293.507
293.513
293.518
293.522
293.526
293.531
293.535
293.539
293.544
293.548
293.552
293.556
293.56
293.564
293.568
293.573
293.577
293.582
293.587
293.591
293.596
293.601
293.605
293.611
293.615
293.62
293.624
293.628
293.632
293.636
293.64
293.644
293.649
293.653
293.657
293.661
293.665
293.669
293.672
293.676
293.679
293.682
293.685
293.687
293.688
293.689
293.69
293.69
293.69
293.689
293.687
293.684
293.681
293.678
293.676
293.673
293.671
293.669
293.668
293.667
293.667
293.667
293.667
293.667
293.667
293.666
293.665
293.664
288.33
288.324
288.313
288.277
288.211
288.11
287.977
287.817
287.647
287.474
287.313
287.17
287.049
286.951
286.872
286.811
286.769
286.743
286.73
286.729
286.729
286.734
286.741
286.752
286.766
286.786
286.811
286.845
286.886
286.939
287.003
287.079
287.168
287.273
287.394
287.532
287.688
287.864
288.056
288.266
288.489
288.724
288.965
289.211
289.454
289.692
289.916
290.122
290.309
290.473
290.615
290.735
290.833
290.909
290.962
290.991
291.002
291.005
291.001
290.987
290.963
290.923
290.877
290.815
290.754
290.68
290.612
290.54
290.476
290.416
290.365
290.318
290.274
290.232
290.19
290.151
290.123
290.086
290.085
290.054
290.054
290.032
290.034
290.032
290.047
290.089
290.154
290.227
290.292
290.34
290.403
290.424
290.501
290.545
290.635
290.693
290.794
290.902
291.007
291.124
291.171
291.248
291.274
291.357
291.404
291.535
291.621
291.791
291.89
292.055
292.14
292.285
292.356
292.496
292.568
292.71
292.785
292.907
292.965
293.074
293.119
293.183
293.214
293.239
293.25
293.253
293.246
293.221
293.173
293.082
292.959
292.764
292.557
292.267
291.983
291.615
291.28
290.866
290.509
290.11
289.8
289.468
289.229
288.974
288.799
288.615
288.498
288.373
288.299
288.222
288.188
288.162
288.159
288.159
288.167
288.177
288.194
288.211
288.232
288.25
288.269
288.286
288.303
288.317
288.329
288.34
288.351
288.359
288.373
288.382
288.399
288.409
288.424
288.439
288.454
288.473
288.489
288.509
288.526
288.547
288.568
288.594
288.619
288.65
288.68
288.715
288.746
288.781
288.81
288.843
288.869
288.899
288.921
288.947
288.963
288.982
288.994
289.011
289.025
289.046
289.066
289.091
289.114
289.138
289.158
289.176
289.188
289.197
289.201
289.203
289.203
289.202
289.198
289.194
289.187
289.18
289.17
289.16
289.145
289.13
289.11
289.089
289.064
289.041
289.016
288.995
288.975
288.959
288.944
288.933
288.921
288.914
288.904
288.899
288.892
288.888
288.883
288.88
288.877
288.875
288.872
288.871
288.869
288.869
288.868
288.869
288.869
288.872
288.875
288.879
288.884
288.89
288.896
288.905
288.913
288.923
288.933
288.945
288.956
288.97
288.982
288.996
289.009
289.024
289.04
289.06
289.08
289.103
289.123
289.146
289.165
289.187
289.208
289.234
289.258
289.288
289.313
289.351
289.375
289.405
289.435
289.464
289.498
289.526
289.559
289.587
289.621
289.649
289.684
289.713
289.749
289.779
289.816
289.846
289.885
289.917
289.957
289.99
290.031
290.064
290.105
290.136
290.176
290.207
290.249
290.282
290.327
290.362
290.408
290.442
290.486
290.518
290.561
290.593
290.636
290.669
290.714
290.748
290.793
290.826
290.871
290.905
290.951
290.985
291.03
291.062
291.106
291.137
291.182
291.214
291.26
291.292
291.338
291.368
291.412
291.442
291.485
291.514
291.557
291.585
291.628
291.655
291.697
291.723
291.765
291.791
291.839
291.868
291.914
291.938
291.965
291.999
292.022
292.057
292.08
292.118
292.142
292.18
292.205
292.243
292.266
292.301
292.319
292.351
292.369
292.403
292.424
292.459
292.48
292.513
292.531
292.56
292.576
292.605
292.623
292.656
292.673
292.702
292.716
292.744
292.76
292.79
292.806
292.834
292.848
292.875
292.89
292.917
292.931
292.956
292.969
292.994
293.007
293.032
293.045
293.068
293.08
293.101
293.111
293.13
293.141
293.161
293.171
293.19
293.2
293.219
293.229
293.246
293.254
293.271
293.28
293.297
293.305
293.321
293.329
293.344
293.351
293.367
293.374
293.384
293.393
293.4
293.412
293.417
293.427
293.43
293.438
293.442
293.45
293.452
293.459
293.463
293.47
293.474
293.481
293.483
293.489
293.491
293.497
293.5
293.506
293.508
293.514
293.516
293.522
293.524
293.529
293.532
293.538
293.541
293.547
293.551
293.556
293.56
293.566
293.57
293.576
293.58
293.584
293.588
293.592
293.596
293.6
293.604
293.608
293.612
293.616
293.62
293.624
293.628
293.631
293.635
293.638
293.641
293.643
293.646
293.647
293.649
293.649
293.65
293.649
293.649
293.647
293.645
293.641
293.639
293.636
293.634
293.631
293.629
293.628
293.627
293.627
293.627
293.627
293.627
293.626
293.626
293.625
293.624
288.326
288.323
288.306
288.275
288.203
288.105
287.962
287.811
287.631
287.468
287.304
287.168
287.047
286.952
286.873
286.815
286.773
286.749
286.739
286.737
286.738
286.742
286.751
286.762
286.778
286.798
286.825
286.857
286.9
286.952
287.017
287.091
287.182
287.285
287.405
287.541
287.696
287.868
288.059
288.266
288.489
288.723
288.966
289.209
289.455
289.69
289.916
290.123
290.309
290.473
290.616
290.736
290.834
290.908
290.958
290.983
290.99
290.991
290.984
290.967
290.93
290.891
290.829
290.779
290.701
290.635
290.548
290.476
290.391
290.326
290.258
290.202
290.142
290.094
290.035
289.999
289.948
289.93
289.867
289.902
289.836
289.852
289.822
289.84
289.836
289.868
289.927
289.999
290.068
290.149
290.199
290.275
290.309
290.373
290.403
290.461
290.545
290.618
290.777
290.837
290.953
290.956
291.029
291.022
291.116
291.134
291.328
291.394
291.62
291.678
291.881
291.92
292.11
292.147
292.347
292.402
292.601
292.631
292.807
292.843
292.962
293.012
293.078
293.128
293.162
293.189
293.199
293.196
293.169
293.117
293
292.885
292.659
292.481
292.154
291.918
291.52
291.234
290.745
290.47
290.006
289.791
289.405
289.251
288.942
288.833
288.602
288.543
288.389
288.349
288.256
288.232
288.194
288.198
288.195
288.207
288.206
288.221
288.233
288.254
288.268
288.287
288.301
288.317
288.327
288.336
288.341
288.349
288.35
288.362
288.366
288.376
288.383
288.391
288.404
288.414
288.427
288.434
288.449
288.459
288.477
288.491
288.515
288.533
288.566
288.59
288.627
288.652
288.692
288.716
288.754
288.776
288.812
288.829
288.857
288.866
288.886
288.891
288.913
288.924
288.953
288.972
289.005
289.028
289.06
289.08
289.102
289.114
289.126
289.132
289.138
289.14
289.142
289.14
289.14
289.134
289.132
289.123
289.117
289.102
289.09
289.069
289.05
289.024
289.003
288.977
288.958
288.936
288.924
288.907
288.899
288.887
288.883
288.873
288.872
288.864
288.863
288.858
288.857
288.854
288.854
288.85
288.85
288.848
288.848
288.848
288.849
288.851
288.855
288.858
288.865
288.869
288.877
288.883
288.893
288.9
288.913
288.922
288.935
288.945
288.96
288.97
288.987
288.997
289.017
289.031
289.057
289.075
289.101
289.117
289.142
289.156
289.183
289.201
289.234
289.253
289.297
289.318
289.352
289.376
289.401
289.437
289.461
289.5
289.522
289.562
289.584
289.624
289.646
289.688
289.71
289.754
289.775
289.821
289.843
289.891
289.914
289.963
289.988
290.038
290.061
290.109
290.131
290.178
290.2
290.251
290.277
290.332
290.359
290.414
290.437
290.49
290.511
290.562
290.583
290.637
290.66
290.716
290.738
290.794
290.815
290.872
290.894
290.951
290.972
291.028
291.047
291.102
291.122
291.178
291.198
291.255
291.274
291.331
291.348
291.404
291.42
291.475
291.492
291.547
291.562
291.616
291.629
291.682
291.697
291.752
291.767
291.832
291.852
291.886
291.916
291.934
291.978
291.99
292.037
292.048
292.097
292.109
292.159
292.173
292.223
292.235
292.277
292.282
292.32
292.329
292.374
292.386
292.433
292.443
292.486
292.492
292.527
292.532
292.572
292.584
292.627
292.634
292.667
292.671
292.708
292.718
292.758
292.765
292.798
292.803
292.839
292.847
292.882
292.886
292.916
292.921
292.954
292.961
292.993
292.999
293.03
293.034
293.058
293.061
293.087
293.092
293.118
293.122
293.145
293.15
293.175
293.179
293.199
293.201
293.221
293.226
293.248
293.251
293.273
293.274
293.292
293.296
293.313
293.319
293.325
293.339
293.342
293.357
293.358
293.37
293.37
293.38
293.381
293.392
293.392
293.4
293.401
293.411
293.413
293.422
293.422
293.428
293.429
293.437
293.438
293.444
293.445
293.452
293.453
293.46
293.462
293.468
293.47
293.476
293.479
293.485
293.488
293.494
293.497
293.504
293.507
293.513
293.516
293.521
293.524
293.528
293.532
293.535
293.54
293.542
293.547
293.55
293.554
293.557
293.561
293.563
293.568
293.569
293.573
293.575
293.578
293.579
293.58
293.58
293.58
293.579
293.579
293.577
293.576
293.572
293.571
293.568
293.566
293.564
293.562
293.561
293.561
293.56
293.56
293.559
293.559
293.558
293.557
293.556
288.32
288.315
288.303
288.261
288.201
288.084
287.96
287.785
287.629
287.452
287.303
287.164
287.051
286.956
286.884
286.828
286.792
286.771
286.763
286.762
286.763
286.769
286.778
286.791
286.808
286.83
286.854
286.89
286.929
286.983
287.043
287.12
287.205
287.308
287.422
287.554
287.703
287.871
288.059
288.266
288.488
288.722
288.963
289.209
289.451
289.689
289.912
290.12
290.306
290.472
290.616
290.737
290.834
290.904
290.946
290.964
290.968
290.964
290.953
290.918
290.883
290.82
290.78
290.698
290.654
290.535
290.462
290.342
290.252
290.155
290.067
289.984
289.909
289.823
289.767
289.684
289.674
289.593
289.644
289.55
289.519
289.444
289.471
289.443
289.465
289.447
289.492
289.556
289.628
289.699
289.784
289.833
289.887
289.922
289.922
289.97
289.985
290.124
290.183
290.361
290.38
290.457
290.415
290.471
290.442
290.559
290.587
290.865
290.881
291.179
291.187
291.424
291.421
291.706
291.706
292.005
292.054
292.308
292.355
292.533
292.609
292.735
292.838
292.93
293.021
293.086
293.139
293.168
293.178
293.162
293.127
293.013
292.933
292.708
292.581
292.269
292.108
291.625
291.422
290.857
290.678
290.135
290.023
289.557
289.484
289.085
289.034
288.734
288.73
288.537
288.521
288.355
288.334
288.269
288.293
288.269
288.268
288.248
288.258
288.26
288.282
288.29
288.31
288.318
288.329
288.333
288.335
288.332
288.331
288.325
288.326
288.322
288.319
288.321
288.317
288.32
288.314
288.313
288.307
288.307
288.304
288.31
288.31
288.326
288.333
288.361
288.374
288.412
288.43
288.475
288.495
288.542
288.56
288.603
288.613
288.643
288.642
288.661
288.661
288.691
288.7
288.741
288.761
288.808
288.836
288.881
288.907
288.942
288.96
288.983
288.994
289.008
289.014
289.025
289.029
289.038
289.04
289.046
289.044
289.046
289.038
289.03
289.011
288.996
288.969
288.95
288.922
288.903
288.879
288.868
288.851
288.846
288.836
288.834
288.828
288.828
288.823
288.823
288.819
288.819
288.817
288.817
288.816
288.816
288.815
288.815
288.815
288.818
288.82
288.826
288.828
288.837
288.841
288.851
288.855
288.869
288.874
288.89
288.896
288.914
288.92
288.939
288.943
288.965
288.972
289
289.01
289.042
289.053
289.083
289.092
289.122
289.131
289.166
289.181
289.223
289.237
289.289
289.302
289.326
289.361
289.38
289.423
289.439
289.486
289.5
289.549
289.562
289.611
289.624
289.675
289.689
289.74
289.755
289.809
289.823
289.879
289.894
289.952
289.968
290.026
290.039
290.094
290.104
290.16
290.177
290.238
290.258
290.322
290.339
290.401
290.415
290.475
290.487
290.544
290.559
290.623
290.637
290.702
290.715
290.777
290.791
290.855
290.868
290.933
290.944
291.008
291.018
291.083
291.091
291.157
291.167
291.232
291.243
291.307
291.315
291.379
291.385
291.451
291.459
291.522
291.527
291.587
291.592
291.653
291.659
291.727
291.739
291.804
291.821
291.842
291.885
291.893
291.945
291.949
292.004
292.007
292.065
292.068
292.127
292.137
292.194
292.197
292.234
292.234
292.279
292.285
292.34
292.344
292.398
292.403
292.45
292.448
292.483
292.486
292.534
292.545
292.591
292.589
292.621
292.624
292.67
292.679
292.722
292.72
292.753
292.758
292.802
292.807
292.841
292.838
292.871
292.875
292.914
292.915
292.952
292.955
292.989
292.988
293.012
293.014
293.044
293.045
293.072
293.072
293.099
293.103
293.131
293.13
293.149
293.148
293.17
293.172
293.198
293.2
293.221
293.221
293.239
293.243
293.255
293.264
293.267
293.284
293.285
293.302
293.301
293.311
293.31
293.323
293.324
293.333
293.331
293.339
293.341
293.353
293.355
293.361
293.36
293.368
293.37
293.377
293.377
293.383
293.384
293.393
293.394
293.4
293.401
293.407
293.409
293.416
293.418
293.425
293.427
293.434
293.436
293.442
293.444
293.45
293.452
293.458
293.46
293.464
293.467
293.47
293.474
293.476
293.48
293.482
293.487
293.488
293.492
293.494
293.498
293.499
293.504
293.505
293.508
293.507
293.509
293.509
293.509
293.509
293.509
293.507
293.506
293.504
293.503
293.5
293.499
293.497
293.496
293.495
293.494
293.493
293.492
293.491
293.49
293.489
293.488
288.31
288.309
288.289
288.258
288.176
288.084
287.927
287.785
287.604
287.452
287.298
287.169
287.06
286.973
286.908
286.86
286.831
286.814
286.81
286.809
286.812
286.817
286.828
286.843
286.862
286.883
286.911
286.938
286.983
287.026
287.089
287.154
287.239
287.329
287.44
287.563
287.707
287.871
288.057
288.262
288.483
288.714
288.956
289.199
289.442
289.678
289.901
290.109
290.297
290.466
290.612
290.735
290.829
290.892
290.925
290.935
290.934
290.928
290.897
290.869
290.8
290.767
290.691
290.672
290.54
290.459
290.305
290.179
290.052
289.918
289.808
289.692
289.568
289.482
289.354
289.312
289.202
289.251
289.147
289.125
288.973
288.944
288.875
288.897
288.876
288.886
288.882
288.918
288.967
289.016
289.085
289.13
289.194
289.192
289.2
289.184
289.252
289.263
289.445
289.484
289.598
289.56
289.616
289.575
289.635
289.604
289.814
289.83
290.163
290.181
290.448
290.455
290.719
290.736
291.099
291.184
291.51
291.591
291.841
291.97
292.161
292.325
292.489
292.664
292.805
292.946
293.047
293.137
293.192
293.232
293.236
293.225
293.145
293.099
292.912
292.862
292.526
292.424
291.91
291.783
291.169
291.073
290.467
290.443
289.916
289.889
289.387
289.357
289.053
289.039
288.811
288.775
288.529
288.52
288.414
288.434
288.378
288.362
288.309
288.313
288.302
288.318
288.322
288.336
288.335
288.338
288.332
288.325
288.31
288.299
288.285
288.271
288.258
288.239
288.226
288.202
288.186
288.156
288.137
288.106
288.091
288.061
288.05
288.028
288.027
288.019
288.03
288.032
288.065
288.075
288.125
288.14
288.194
288.206
288.252
288.257
288.279
288.27
288.29
288.289
288.329
288.338
288.395
288.421
288.489
288.527
288.595
288.631
288.686
288.714
288.752
288.773
288.8
288.819
288.842
288.86
288.883
288.899
288.92
288.933
288.946
288.947
288.946
288.933
288.921
288.895
288.876
288.848
288.83
288.809
288.799
288.787
288.783
288.778
288.778
288.775
288.777
288.775
288.776
288.775
288.776
288.775
288.777
288.777
288.779
288.778
288.78
288.78
288.785
288.786
288.793
288.795
288.805
288.807
288.82
288.823
288.839
288.843
288.863
288.866
288.888
288.89
288.914
288.917
288.945
288.95
288.982
288.988
289.02
289.027
289.061
289.067
289.101
289.11
289.152
289.161
289.21
289.227
289.263
289.285
289.303
289.346
289.359
289.406
289.418
289.47
289.48
289.534
289.542
289.594
289.605
289.66
289.67
289.727
289.737
289.795
289.807
289.866
289.879
289.94
289.953
290.011
290.021
290.074
290.089
290.146
290.167
290.23
290.247
290.31
290.325
290.388
290.4
290.458
290.472
290.529
290.549
290.613
290.626
290.688
290.7
290.763
290.776
290.839
290.852
290.916
290.927
290.99
291.001
291.064
291.074
291.137
291.148
291.213
291.224
291.286
291.294
291.355
291.366
291.433
291.437
291.496
291.504
291.562
291.569
291.629
291.638
291.704
291.724
291.773
291.798
291.813
291.861
291.865
291.918
291.923
291.977
291.984
292.038
292.045
292.101
292.118
292.166
292.166
292.197
292.203
292.256
292.261
292.314
292.317
292.369
292.379
292.419
292.417
292.449
292.458
292.511
292.522
292.56
292.555
292.586
292.598
292.649
292.655
292.688
292.687
292.723
292.734
292.777
292.777
292.806
292.806
292.842
292.846
292.884
292.883
292.921
292.927
292.957
292.956
292.977
292.981
293.011
293.012
293.037
293.038
293.067
293.073
293.097
293.095
293.109
293.11
293.132
293.133
293.16
293.162
293.181
293.181
293.197
293.202
293.21
293.222
293.223
293.242
293.243
293.257
293.255
293.265
293.266
293.278
293.278
293.285
293.284
293.294
293.297
293.307
293.307
293.313
293.313
293.323
293.323
293.33
293.331
293.338
293.34
293.348
293.348
293.354
293.354
293.36
293.362
293.369
293.372
293.379
293.38
293.385
293.387
293.393
293.394
293.4
293.402
293.407
293.408
293.412
293.414
293.417
293.42
293.422
293.426
293.426
293.43
293.43
293.434
293.435
293.441
293.442
293.446
293.445
293.448
293.448
293.45
293.45
293.451
293.45
293.45
293.449
293.449
293.448
293.447
293.445
293.444
293.442
293.441
293.44
293.439
293.437
293.436
293.435
293.433
293.432
288.3
288.293
288.283
288.234
288.171
288.051
287.927
287.752
287.603
287.439
287.302
287.181
287.079
287.007
286.945
286.913
286.886
286.88
286.874
286.877
286.878
286.886
286.898
286.913
286.935
286.955
286.981
287.011
287.041
287.089
287.132
287.199
287.264
287.351
287.447
287.567
287.705
287.867
288.048
288.25
288.465
288.695
288.931
289.174
289.414
289.647
289.873
290.081
290.274
290.447
290.599
290.722
290.814
290.868
290.891
290.895
290.893
290.869
290.847
290.779
290.755
290.691
290.691
290.577
290.469
290.309
290.162
290.006
289.827
289.693
289.53
289.38
289.249
289.076
288.995
288.823
288.816
288.672
288.67
288.519
288.439
288.305
288.27
288.224
288.221
288.21
288.188
288.185
288.18
288.217
288.228
288.3
288.304
288.323
288.293
288.319
288.294
288.38
288.412
288.562
288.542
288.596
288.561
288.611
288.572
288.686
288.711
288.985
289.006
289.296
289.325
289.594
289.621
289.983
290.084
290.465
290.608
290.915
291.094
291.353
291.585
291.829
292.09
292.316
292.559
292.751
292.942
293.079
293.201
293.287
293.352
293.375
293.38
293.343
293.327
293.193
293.164
292.853
292.789
292.295
292.218
291.61
291.553
290.962
290.958
290.427
290.37
289.837
289.79
289.483
289.464
289.159
289.113
288.781
288.779
288.629
288.644
288.518
288.491
288.386
288.383
288.362
288.376
288.371
288.373
288.352
288.348
288.318
288.306
288.284
288.264
288.24
288.211
288.184
288.146
288.113
288.067
288.026
287.972
287.929
287.87
287.829
287.768
287.733
287.679
287.657
287.617
287.613
287.598
287.615
287.621
287.665
287.674
287.726
287.734
287.767
287.766
287.783
287.771
287.793
287.794
287.844
287.859
287.934
287.972
288.066
288.119
288.214
288.265
288.341
288.383
288.439
288.476
288.521
288.558
288.6
288.638
288.68
288.719
288.759
288.79
288.819
288.833
288.841
288.835
288.827
288.805
288.79
288.767
288.753
288.739
288.733
288.727
288.727
288.726
288.728
288.728
288.732
288.732
288.736
288.737
288.742
288.743
288.747
288.748
288.751
288.749
288.753
288.753
288.76
288.761
288.769
288.77
288.782
288.785
288.799
288.803
288.821
288.824
288.846
288.848
288.871
288.876
288.902
288.907
288.935
288.941
288.969
288.976
289.006
289.018
289.052
289.062
289.095
289.109
289.15
289.162
289.208
289.226
289.249
289.282
289.299
289.341
289.356
289.402
289.416
289.466
289.478
289.528
289.542
289.591
289.606
289.659
289.673
289.726
289.743
289.796
289.813
289.868
289.886
289.941
289.96
290.012
290.032
290.079
290.105
290.162
290.183
290.239
290.26
290.316
290.338
290.393
290.412
290.462
290.488
290.545
290.567
290.622
290.64
290.694
290.713
290.768
290.789
290.846
290.864
290.918
290.939
290.996
291.013
291.067
291.086
291.14
291.16
291.217
291.234
291.286
291.302
291.355
291.373
291.427
291.445
291.497
291.512
291.56
291.578
291.631
291.647
291.703
291.725
291.759
291.794
291.809
291.855
291.868
291.912
291.928
291.975
291.988
292.033
292.048
292.097
292.112
292.153
292.155
292.191
292.203
292.248
292.261
292.307
292.316
292.358
292.37
292.408
292.407
292.44
292.453
292.504
292.508
292.543
292.545
292.582
292.595
292.638
292.638
292.668
292.674
292.716
292.727
292.766
292.764
292.789
292.795
292.83
292.832
292.866
292.869
292.905
292.913
292.938
292.937
292.96
292.966
292.993
292.992
293.017
293.02
293.051
293.056
293.076
293.072
293.085
293.086
293.11
293.111
293.136
293.137
293.155
293.154
293.171
293.176
293.18
293.195
293.195
293.214
293.214
293.228
293.226
293.236
293.237
293.247
293.247
293.254
293.255
293.265
293.266
293.276
293.276
293.284
293.285
293.294
293.294
293.301
293.301
293.31
293.312
293.318
293.317
293.322
293.322
293.329
293.332
293.34
293.342
293.348
293.347
293.351
293.353
293.36
293.36
293.366
293.367
293.372
293.372
293.376
293.376
293.379
293.381
293.383
293.386
293.386
293.389
293.389
293.392
293.394
293.398
293.399
293.401
293.401
293.404
293.404
293.406
293.406
293.407
293.407
293.407
293.407
293.407
293.406
293.406
293.405
293.404
293.402
293.401
293.399
293.398
293.396
293.394
293.393
293.392
288.284
288.283
288.262
288.23
288.14
288.045
287.887
287.748
287.579
287.439
287.308
287.196
287.116
287.039
287.003
286.962
286.956
286.946
286.948
286.947
286.951
286.961
286.972
286.991
287.006
287.034
287.047
287.081
287.104
287.138
287.181
287.223
287.289
287.355
287.451
287.562
287.699
287.852
288.03
288.22
288.431
288.65
288.883
289.118
289.354
289.59
289.813
290.029
290.225
290.408
290.563
290.692
290.778
290.827
290.843
290.846
290.834
290.818
290.76
290.737
290.686
290.7
290.626
290.508
290.35
290.197
290.034
289.835
289.684
289.474
289.31
289.125
288.938
288.803
288.594
288.512
288.303
288.252
288.099
288.007
287.848
287.729
287.656
287.619
287.616
287.553
287.53
287.445
287.433
287.412
287.447
287.428
287.461
287.422
287.428
287.411
287.422
287.405
287.504
287.521
287.548
287.537
287.597
287.559
287.658
287.653
287.874
287.879
288.159
288.161
288.476
288.505
288.837
288.973
289.332
289.531
289.857
290.092
290.401
290.691
291.008
291.34
291.645
291.978
292.262
292.556
292.792
293.013
293.178
293.316
293.417
293.497
293.533
293.559
293.549
293.545
293.453
293.42
293.167
293.125
292.703
292.639
292.084
292.041
291.546
291.523
290.979
290.886
290.346
290.296
289.973
289.955
289.575
289.505
289.112
289.112
288.897
288.91
288.687
288.645
288.487
288.483
288.438
288.463
288.428
288.426
288.362
288.344
288.3
288.286
288.261
288.227
288.194
288.15
288.106
288.054
288
287.935
287.87
287.794
287.722
287.636
287.565
287.472
287.406
287.318
287.265
287.193
287.161
287.124
287.125
287.116
287.137
287.146
287.179
287.175
287.194
287.192
287.208
287.194
287.219
287.224
287.284
287.307
287.401
287.457
287.576
287.65
287.766
287.836
287.928
287.99
288.064
288.123
288.189
288.249
288.315
288.377
288.445
288.508
288.573
288.626
288.673
288.702
288.722
288.724
288.724
288.714
288.707
288.694
288.69
288.684
288.685
288.684
288.688
288.689
288.695
288.697
288.703
288.707
288.713
288.717
288.724
288.726
288.732
288.732
288.735
288.735
288.74
288.741
288.747
288.749
288.758
288.761
288.773
288.777
288.791
288.796
288.815
288.82
288.841
288.849
288.872
288.881
288.905
288.913
288.938
288.947
288.97
288.984
289.015
289.03
289.062
289.076
289.107
289.124
289.163
289.181
289.219
289.241
289.259
289.293
289.315
289.356
289.374
289.415
289.435
289.478
289.498
289.542
289.562
289.607
289.629
289.674
289.697
289.743
289.768
289.814
289.839
289.886
289.912
289.96
289.986
290.04
290.072
290.116
290.138
290.185
290.212
290.261
290.289
290.339
290.366
290.419
290.455
290.504
290.52
290.572
290.596
290.648
290.67
290.717
290.743
290.792
290.819
290.867
290.891
290.943
290.968
291.018
291.04
291.093
291.114
291.163
291.189
291.237
291.259
291.31
291.328
291.37
291.4
291.451
291.47
291.519
291.536
291.582
291.603
291.651
291.667
291.72
291.743
291.769
291.809
291.827
291.871
291.889
291.929
291.949
291.988
292.007
292.049
292.064
292.107
292.123
292.16
292.17
292.201
292.219
292.262
292.277
292.316
292.327
292.362
292.375
292.408
292.416
292.452
292.464
292.503
292.515
292.548
292.555
292.59
292.602
292.635
292.64
292.671
292.682
292.718
292.733
292.766
292.764
292.785
292.797
292.827
292.836
292.866
292.873
292.901
292.909
292.931
292.934
292.958
292.963
292.985
292.988
293.011
293.015
293.044
293.049
293.066
293.063
293.075
293.078
293.099
293.102
293.122
293.123
293.141
293.142
293.156
293.163
293.166
293.181
293.181
293.197
293.199
293.212
293.21
293.218
293.22
293.231
293.232
293.239
293.239
293.248
293.251
293.26
293.26
293.268
293.27
293.278
293.278
293.283
293.285
293.294
293.294
293.3
293.298
293.303
293.304
293.313
293.316
293.324
293.324
293.327
293.326
293.332
293.333
293.339
293.338
293.344
293.344
293.349
293.348
293.352
293.352
293.355
293.356
293.358
293.36
293.36
293.362
293.361
293.365
293.365
293.369
293.368
293.371
293.371
293.374
293.374
293.376
293.375
293.377
293.377
293.378
293.378
293.378
293.378
293.378
293.377
293.376
293.374
293.373
293.37
293.369
293.367
293.365
293.365
288.265
288.259
288.248
288.198
288.135
288.004
287.881
287.715
287.572
287.43
287.312
287.223
287.136
287.092
287.038
287.023
287.007
287.007
287.008
287.007
287.015
287.022
287.037
287.049
287.069
287.08
287.108
287.116
287.151
287.168
287.205
287.242
287.293
287.362
287.446
287.557
287.678
287.828
287.986
288.173
288.363
288.577
288.793
289.022
289.255
289.485
289.715
289.931
290.141
290.325
290.494
290.622
290.716
290.762
290.778
290.777
290.77
290.734
290.711
290.67
290.687
290.65
290.565
290.421
290.263
290.106
289.908
289.764
289.534
289.364
289.136
288.946
288.751
288.542
288.391
288.157
288.025
287.825
287.677
287.532
287.359
287.242
287.149
287.158
287.108
287.085
286.916
286.861
286.763
286.789
286.737
286.76
286.69
286.698
286.638
286.671
286.618
286.639
286.629
286.677
286.65
286.692
286.65
286.744
286.744
286.946
286.955
287.202
287.199
287.456
287.543
287.834
287.982
288.3
288.514
288.834
289.112
289.451
289.78
290.145
290.522
290.892
291.287
291.643
292.017
292.34
292.657
292.915
293.14
293.309
293.451
293.555
293.637
293.679
293.71
293.704
293.7
293.636
293.596
293.44
293.388
293.057
292.993
292.54
292.531
292.079
292.081
291.473
291.376
290.868
290.831
290.505
290.475
290.019
289.934
289.488
289.501
289.213
289.216
288.885
288.819
288.611
288.607
288.545
288.566
288.496
288.478
288.362
288.339
288.301
288.263
288.234
288.185
288.146
288.089
288.035
287.97
287.9
287.82
287.734
287.639
287.541
287.431
287.326
287.208
287.106
286.987
286.898
286.793
286.733
286.663
286.636
286.602
286.607
286.601