/*--------------------------------*- C++ -*----------------------------------*\
| =========                 |                                                 |
| \\      /  F ield         | OpenFOAM: The Open Source CFD Toolbox           |
|  \\    /   O peration     | Version:  v1812                                 |
|   \\  /    A nd           | Web:      www.OpenFOAM.com                      |
|    \\/     M anipulation  |                                                 |
\*---------------------------------------------------------------------------*/
FoamFile
{
    version     2.0;
    format      ascii;
    class       volVectorField;
    location    "0.5";
    object      U;
}
// * * * * * * * * * * * * * * * * * * * * * * * * * * * * * * * * * * * * * //

dimensions      [0 1 -1 0 0 0 0];


internalField   nonuniform List<vector> 
20400
(
(-0.0216139 0.00922828 0)
(-0.0534549 -0.00861211 0)
(-0.0755436 -0.0132973 0)
(-0.148683 -0.0100468 0)
(-0.170533 -0.0270673 0)
(-0.298725 -0.0109389 0)
(-0.31366 -0.0236671 0)
(-0.484465 -0.00620331 0)
(-0.49369 -0.0186181 0)
(-0.690242 0.00108214 0)
(-0.69883 -0.0137558 0)
(-0.905278 0.00555311 0)
(-0.914783 -0.00922122 0)
(-1.11763 0.00663866 0)
(-1.12894 -0.00740675 0)
(-1.31361 0.00670467 0)
(-1.32955 -0.00747114 0)
(-1.49088 0.0077919 0)
(-1.51747 -0.00652156 0)
(-1.63409 0.00289946 0)
(-1.6654 -0.00616017 0)
(-1.71932 -0.0065643 0)
(-1.7331 -0.0117523 0)
(-1.74003 -0.0137577 0)
(-1.73126 -0.015736 0)
(-1.70881 -0.0174075 0)
(-1.68205 -0.0180757 0)
(-1.63771 -0.0106497 0)
(-1.5998 -0.00908285 0)
(-1.5327 -0.00986304 0)
(-1.47951 -0.0133147 0)
(-1.39417 -0.0204014 0)
(-1.32908 -0.0252973 0)
(-1.23421 -0.0340511 0)
(-1.15593 -0.0378022 0)
(-1.05347 -0.0436434 0)
(-0.967821 -0.0477206 0)
(-0.862535 -0.0451286 0)
(-0.777524 -0.0483096 0)
(-0.676418 -0.0386751 0)
(-0.603705 -0.0461092 0)
(-0.514024 -0.03534 0)
(-0.462942 -0.0437581 0)
(-0.39651 -0.0319321 0)
(-0.369564 -0.0396959 0)
(-0.328434 -0.0324039 0)
(-0.311927 -0.0344223 0)
(-0.291744 -0.0300172 0)
(-0.286861 -0.0265297 0)
(-0.29285 -0.0211868 0)
(-0.314368 -0.0135974 0)
(-0.361319 -0.00401026 0)
(-0.426945 0.00200048 0)
(-0.526527 0.0113333 0)
(-0.649252 0.0163646 0)
(-0.812166 0.0246631 0)
(-1.00493 0.0305061 0)
(-1.24542 0.0374668 0)
(-1.52197 0.0456155 0)
(-1.85378 0.0529462 0)
(-2.22272 0.0666375 0)
(-2.66214 0.0828659 0)
(-3.13222 0.100889 0)
(-3.68901 0.140826 0)
(-4.25788 0.156589 0)
(-4.91822 0.218703 0)
(-5.56374 0.249021 0)
(-6.29454 0.324453 0)
(-6.99803 0.362788 0)
(-7.7511 0.402884 0)
(-8.44167 0.400477 0)
(-9.09607 0.38042 0)
(-9.6424 0.300376 0)
(-10.038 0.180857 0)
(-10.2706 0.0399956 0)
(-10.39 -0.0180195 0)
(-10.3704 -0.0481334 0)
(-10.2905 -0.030942 0)
(-10.0467 0.15363 0)
(-9.87174 0.305731 0)
(-9.37548 0.550797 0)
(-9.01459 0.524726 0)
(-8.34324 0.606573 0)
(-7.78871 0.571785 0)
(-7.00981 0.533406 0)
(-6.28292 0.438486 0)
(-5.45276 0.348827 0)
(-4.6777 0.242533 0)
(-3.92511 0.124636 0)
(-3.27469 -0.141386 0)
(-2.62372 -0.565922 0)
(-1.99397 -0.559341 0)
(-1.36308 -0.54519 0)
(-0.835075 -0.492368 0)
(-0.366077 -0.328337 0)
(-0.11735 -0.232696 0)
(0.262429 -0.0791769 0)
(0.296406 -0.0734045 0)
(0.777562 -0.0628225 0)
(0.793994 -0.0143044 0)
(1.27428 -0.0564653 0)
(1.30429 -0.0305424 0)
(1.81969 -0.0450902 0)
(1.84838 -0.0323874 0)
(2.34244 -0.0102662 0)
(2.36271 -0.0389084 0)
(2.80932 0.0108393 0)
(2.83554 -0.0359071 0)
(3.25239 0.0181733 0)
(3.27856 -0.0362931 0)
(3.65763 0.0249758 0)
(3.68307 -0.0302036 0)
(4.02876 0.0310256 0)
(4.04968 -0.0214526 0)
(4.36238 0.032763 0)
(4.38304 -0.016688 0)
(4.63126 0.048385 0)
(4.64317 -0.00237057 0)
(4.88268 0.0168483 0)
(4.89985 0.0365264 0)
(5.0356 0.00817431 0)
(5.07374 0.0271381 0)
(5.11405 0.0295716 0)
(5.12722 0.0335771 0)
(5.11848 0.0382545 0)
(5.09488 0.0468527 0)
(5.02897 0.0468954 0)
(4.98905 0.064984 0)
(4.84369 0.0439349 0)
(4.80678 0.0725213 0)
(4.57436 0.0376434 0)
(4.54418 0.0787768 0)
(4.24812 0.0379389 0)
(4.21397 0.0923499 0)
(3.87591 0.0355532 0)
(3.83609 0.0988872 0)
(3.48273 0.0237048 0)
(3.44215 0.0966148 0)
(3.0889 0.0170461 0)
(3.04683 0.0941689 0)
(2.70179 0.0141302 0)
(2.66194 0.0896544 0)
(2.34731 0.0104919 0)
(2.3155 0.0802763 0)
(2.03879 0.00960486 0)
(2.01419 0.0716209 0)
(1.77695 0.00984989 0)
(1.75809 0.0631372 0)
(1.56764 0.00942541 0)
(1.554 0.0545494 0)
(1.40256 0.0119215 0)
(1.3918 0.0475559 0)
(1.26836 0.0136939 0)
(1.26384 0.0325059 0)
(1.17106 0.0093249 0)
(1.17389 0.0240993 0)
(1.1107 0.00990867 0)
(1.11442 0.0190461 0)
(1.0763 0.00669317 0)
(1.07681 0.00714102 0)
(1.07474 0.0073281 0)
(1.08113 0.00687563 0)
(1.08446 0.00562168 0)
(1.11865 0.00412746 0)
(1.12364 0.00577496 0)
(1.16793 0.00456603 0)
(1.176 0.00525287 0)
(1.22583 0.00213963 0)
(1.24111 0.0101985 0)
(1.2804 0.00212264 0)
(1.30989 0.0117338 0)
(1.3333 0.00194891 0)
(1.38248 0.00961017 0)
(1.3917 0.0027412 0)
(1.44861 0.00519568 0)
(1.44991 0.00370397 0)
(1.50618 0.00323991 0)
(1.50776 0.001254 0)
(1.56148 0.00262899 0)
(1.56333 -0.00258241 0)
(1.61539 0.000672716 0)
(1.61689 -0.00571461 0)
(1.66969 -0.00233078 0)
(1.67174 -0.00923252 0)
(1.72462 -0.00466972 0)
(1.72741 -0.0113116 0)
(1.77854 -0.00473586 0)
(1.78155 -0.0124357 0)
(1.82915 -0.00482627 0)
(1.83207 -0.0129004 0)
(1.87848 -0.00585419 0)
(1.88129 -0.0137132 0)
(1.92469 -0.00759053 0)
(1.92619 -0.0157497 0)
(1.9606 -0.00949892 0)
(1.95836 -0.0156706 0)
(1.98805 -0.0115316 0)
(1.98511 -0.0160661 0)
(2.01049 -0.0143013 0)
(2.0072 -0.0149991 0)
(2.02049 -0.0143053 0)
(2.01843 -0.0150376 0)
(2.0216 -0.014082 0)
(2.01165 -0.0161124 0)
(2.01082 -0.0135558 0)
(1.99397 -0.0154197 0)
(1.99107 -0.0123234 0)
(1.96614 -0.0160291 0)
(1.96001 -0.0129639 0)
(1.92468 -0.0162057 0)
(1.91824 -0.0116043 0)
(1.87419 -0.0157584 0)
(1.86943 -0.0115504 0)
(1.81694 -0.0155589 0)
(1.81421 -0.0121006 0)
(1.75542 -0.0153032 0)
(1.75343 -0.0120113 0)
(1.69243 -0.0147168 0)
(1.69097 -0.0126529 0)
(1.63031 -0.0124619 0)
(1.62886 -0.0118205 0)
(1.56687 -0.0116689 0)
(1.56619 -0.0108557 0)
(1.50722 -0.0097771 0)
(1.50675 -0.00894393 0)
(1.44873 -0.00789487 0)
(1.44885 -0.00749723 0)
(1.38937 -0.00565404 0)
(1.38949 -0.0064293 0)
(1.33052 -0.00230483 0)
(1.33018 -0.00371172 0)
(1.273 0.000993247 0)
(1.27143 -0.000607404 0)
(1.21914 0.00378244 0)
(1.21736 0.00227898 0)
(1.17028 0.00609663 0)
(1.16847 0.00489823 0)
(1.12853 0.00769062 0)
(1.12698 0.00679141 0)
(1.09295 0.0111073 0)
(1.0897 0.00984061 0)
(1.05951 0.0135274 0)
(1.05462 0.0128209 0)
(1.02929 0.0155926 0)
(1.02391 0.0154056 0)
(1.00176 0.0182937 0)
(0.995264 0.0188608 0)
(0.976518 0.0205706 0)
(0.970467 0.0217599 0)
(0.955898 0.0231791 0)
(0.951409 0.0250667 0)
(0.940179 0.0260664 0)
(0.937012 0.0285532 0)
(0.928191 0.0284438 0)
(0.926903 0.0308788 0)
(0.919397 0.0314474 0)
(0.919305 0.0328421 0)
(0.91428 0.0337559 0)
(0.914316 0.0348862 0)
(0.913544 0.0356919 0)
(0.913986 0.0371156 0)
(0.913936 0.0382755 0)
(0.915463 0.0403309 0)
(0.915255 0.0399856 0)
(0.920943 0.043567 0)
(0.920299 0.0417614 0)
(0.929778 0.0464724 0)
(0.929231 0.044051 0)
(0.941729 0.049275 0)
(0.941751 0.0465282 0)
(0.956289 0.0527843 0)
(0.955966 0.0487956 0)
(0.974699 0.0539902 0)
(0.975373 0.049783 0)
(0.997885 0.0567661 0)
(0.999434 0.050858 0)
(1.02367 0.05456 0)
(1.03282 0.0608334 0)
(1.04028 0.0519937 0)
(1.06931 0.0594887 0)
(1.07046 0.0549047 0)
(1.10435 0.060602 0)
(1.10432 0.055601 0)
(1.1411 0.0618535 0)
(1.14157 0.056551 0)
(1.18061 0.0639607 0)
(1.18186 0.0570454 0)
(1.22335 0.0651772 0)
(1.22466 0.0577588 0)
(1.26948 0.0658377 0)
(1.27086 0.0583216 0)
(1.31838 0.0666116 0)
(1.31982 0.0586779 0)
(1.37008 0.0672293 0)
(1.37174 0.0590179 0)
(1.42402 0.068092 0)
(1.42596 0.0592605 0)
(1.48062 0.068518 0)
(1.48285 0.0593555 0)
(1.54015 0.0691255 0)
(1.54258 0.0596679 0)
(1.60211 0.069803 0)
(1.60455 0.0596333 0)
(1.66641 0.0701688 0)
(1.66868 0.0601751 0)
(1.73413 0.0700072 0)
(1.73681 0.0592246 0)
(1.80415 0.0698883 0)
(1.80715 0.0586979 0)
(1.87608 0.0695893 0)
(1.87931 0.0582282 0)
(1.94938 0.0694129 0)
(1.95271 0.0575967 0)
(2.02368 0.0692232 0)
(2.02721 0.0575287 0)
(2.10096 0.0677635 0)
(2.10496 0.0558575 0)
(2.17754 0.0682334 0)
(2.18168 0.0554758 0)
(2.25575 0.0672237 0)
(2.26025 0.0541946 0)
(2.33589 0.0662018 0)
(2.3408 0.0534675 0)
(2.4171 0.066585 0)
(2.42222 0.0531721 0)
(2.49952 0.066122 0)
(2.5049 0.0523047 0)
(2.58445 0.0652076 0)
(2.59005 0.0513426 0)
(2.67084 0.064721 0)
(2.67644 0.0507875 0)
(2.75656 0.0642404 0)
(2.76221 0.0496791 0)
(2.84331 0.0625568 0)
(2.84933 0.0484838 0)
(2.93026 0.0622486 0)
(2.93644 0.0480333 0)
(3.01644 0.0613722 0)
(3.02275 0.0467866 0)
(3.10346 0.0596701 0)
(3.11018 0.0454277 0)
(3.18968 0.0593349 0)
(3.19629 0.0449516 0)
(3.27509 0.058103 0)
(3.28255 0.0436633 0)
(3.36242 0.0579617 0)
(3.37462 0.0480943 0)
(3.43339 0.0435244 0)
(3.47335 0.0595626 0)
(3.49267 0.0417927 0)
(3.56721 0.0535435 0)
(3.57407 0.0443908 0)
(3.65015 0.0537686 0)
(3.65637 0.0411972 0)
(3.73031 0.0533536 0)
(3.73764 0.0399625 0)
(3.80983 0.0528062 0)
(3.81731 0.0387387 0)
(3.8899 0.050959 0)
(3.89797 0.0378663 0)
(3.96863 0.0514594 0)
(3.97617 0.037989 0)
(4.04546 0.0505513 0)
(4.05229 0.0383933 0)
(4.1228 0.0483706 0)
(4.12986 0.0357979 0)
(4.19948 0.0475541 0)
(4.20729 0.0345993 0)
(4.2748 0.0471221 0)
(4.2828 0.0338327 0)
(4.34917 0.046009 0)
(4.35611 0.0336162 0)
(4.42162 0.0452348 0)
(4.42762 0.0340262 0)
(4.49447 0.0432746 0)
(4.50152 0.0313047 0)
(4.56452 0.0438813 0)
(4.57088 0.0321083 0)
(4.6334 0.0422018 0)
(4.63921 0.0313634 0)
(4.70109 0.0399121 0)
(4.70798 0.0283509 0)
(4.76594 0.0405269 0)
(4.77203 0.0293627 0)
(4.83016 0.0383878 0)
(4.83601 0.0284099 0)
(4.89266 0.0371701 0)
(4.8992 0.0262238 0)
(4.95219 0.0370191 0)
(4.95763 0.027289 0)
(5.01007 0.0351067 0)
(5.01547 0.0263639 0)
(5.06547 0.0346942 0)
(5.0716 0.0250485 0)
(5.1188 0.0332973 0)
(5.12484 0.0243664 0)
(5.16777 0.0330703 0)
(5.17266 0.0240072 0)
(5.21523 0.029785 0)
(5.21987 0.02284 0)
(5.26028 0.0299167 0)
(5.26529 0.0221037 0)
(5.30396 0.0286393 0)
(5.30885 0.0215042 0)
(5.34615 0.0275319 0)
(5.35101 0.020624 0)
(5.38659 0.0269565 0)
(5.39106 0.0201896 0)
(5.42477 0.0258422 0)
(5.42859 0.0197719 0)
(5.46158 0.0248081 0)
(5.46596 0.0187021 0)
(5.49908 0.0239054 0)
(5.50409 0.01764 0)
(5.53626 0.0240063 0)
(5.54142 0.0180294 0)
(5.57181 0.0199959 0)
(5.5824 0.0208918 0)
(5.59645 0.0156972 0)
(5.62118 0.0209789 0)
(5.62629 0.0161131 0)
(5.65535 0.0191286 0)
(5.65812 0.0151311 0)
(5.68481 0.0192491 0)
(5.68769 0.0145195 0)
(5.71289 0.0179356 0)
(5.71545 0.0140941 0)
(5.7384 0.0171945 0)
(5.74091 0.0131877 0)
(5.76224 0.0162012 0)
(5.76446 0.0129662 0)
(5.7844 0.0153129 0)
(5.78652 0.0124406 0)
(5.80459 0.0154936 0)
(5.80673 0.01211 0)
(5.82358 0.0144109 0)
(5.82529 0.0119912 0)
(5.84084 0.0137834 0)
(5.84248 0.0112228 0)
(5.85653 0.0136168 0)
(5.85815 0.0112196 0)
(5.87124 0.013093 0)
(5.87268 0.0110914 0)
(5.88432 0.0129061 0)
(5.88573 0.0104448 0)
(5.89641 0.0121049 0)
(5.89723 0.0106784 0)
(5.90736 0.011729 0)
(5.90812 0.0104763 0)
(5.91731 0.0113194 0)
(5.91807 0.00994425 0)
(5.92598 0.0111652 0)
(5.92662 0.010013 0)
(5.93437 0.0105644 0)
(5.93523 0.010278 0)
(5.94108 0.00947889 0)
(5.94382 0.00991904 0)
(5.9465 0.00924784 0)
(5.95165 0.00954766 0)
(5.95246 0.00917647 0)
(5.95904 0.00923397 0)
(5.95924 0.00912846 0)
(5.96585 0.00905463 0)
(5.96602 0.00885696 0)
(5.97265 0.00880974 0)
(5.97281 0.00851296 0)
(5.97976 0.00866946 0)
(5.97999 0.0083187 0)
(5.98706 0.0087422 0)
(5.98743 0.0081536 0)
(5.99442 0.00868518 0)
(5.99473 0.00808685 0)
(6.0016 0.00859199 0)
(6.00189 0.00798346 0)
(6.0089 0.0085292 0)
(6.00911 0.00802658 0)
(6.01582 0.00812205 0)
(6.01593 0.00798415 0)
(6.02217 0.00793172 0)
(6.02222 0.00788935 0)
(6.02773 0.00785139 0)
(6.02772 0.00788818 0)
(6.03262 0.00787069 0)
(6.0327 0.00778086 0)
(6.03627 0.0076897 0)
(6.03736 0.00786098 0)
(6.0384 0.00739552 0)
(6.041 0.00777326 0)
(6.04129 0.00759006 0)
(6.04338 0.0075908 0)
(6.04383 0.00763244 0)
(6.04447 0.0075046 0)
(6.04491 0.00757133 0)
(6.04518 0.00754492 0)
(6.04527 0.00753727 0)
(6.04519 0.00754857 0)
(6.04493 0.00756801 0)
(6.04445 0.00758775 0)
(6.04376 0.0079981 0)
(6.04274 0.00810199 0)
(-0.0276835 0.0502599 0)
(-0.0853562 0.0483295 0)
(-0.201303 0.0785126 0)
(-0.248341 0.0805416 0)
(-0.48439 0.135246 0)
(-0.5327 0.117415 0)
(-0.861213 0.155061 0)
(-0.893654 0.135931 0)
(-1.27513 0.163998 0)
(-1.29134 0.14769 0)
(-1.69241 0.166045 0)
(-1.69995 0.150893 0)
(-2.08772 0.157469 0)
(-2.09183 0.145499 0)
(-2.43979 0.139202 0)
(-2.44211 0.130567 0)
(-2.74782 0.122015 0)
(-2.75553 0.117252 0)
(-2.99432 0.0959106 0)
(-3.02415 0.0869007 0)
(-3.16107 0.0525862 0)
(-3.19415 0.0266193 0)
(-3.24469 -0.00115039 0)
(-3.25702 -0.0205344 0)
(-3.24778 -0.0415092 0)
(-3.22369 -0.056019 0)
(-3.17202 -0.0742405 0)
(-3.12236 -0.0855469 0)
(-3.03023 -0.104412 0)
(-2.95587 -0.12038 0)
(-2.82244 -0.132289 0)
(-2.71726 -0.139409 0)
(-2.55362 -0.145101 0)
(-2.42255 -0.155 0)
(-2.2425 -0.161411 0)
(-2.09309 -0.166956 0)
(-1.90758 -0.169421 0)
(-1.75194 -0.17311 0)
(-1.56651 -0.169438 0)
(-1.42056 -0.167898 0)
(-1.24502 -0.155183 0)
(-1.12727 -0.147654 0)
(-0.975107 -0.121992 0)
(-0.898176 -0.111405 0)
(-0.788818 -0.0838172 0)
(-0.750151 -0.0819255 0)
(-0.702764 -0.0673501 0)
(-0.703576 -0.0553517 0)
(-0.729445 -0.0474257 0)
(-0.787083 -0.0272573 0)
(-0.892448 0.00196834 0)
(-1.03304 0.0385227 0)
(-1.23457 0.0829801 0)
(-1.47473 0.129374 0)
(-1.78254 0.181765 0)
(-2.13407 0.236012 0)
(-2.55645 0.295654 0)
(-3.02617 0.357369 0)
(-3.56725 0.421479 0)
(-4.1488 0.481369 0)
(-4.8017 0.550218 0)
(-5.47474 0.605348 0)
(-6.22605 0.674137 0)
(-6.94803 0.708724 0)
(-7.75523 0.767306 0)
(-8.45854 0.770155 0)
(-9.23792 0.801614 0)
(-9.86529 0.787498 0)
(-10.5338 0.789643 0)
(-11.0435 0.749341 0)
(-11.5134 0.685735 0)
(-11.8662 0.589415 0)
(-12.1334 0.444755 0)
(-12.3162 0.269673 0)
(-12.4394 0.136711 0)
(-12.4979 0.0203622 0)
(-12.4508 -0.0421398 0)
(-12.2097 -0.162107 0)
(-12.0872 -0.248538 0)
(-11.5739 -0.468467 0)
(-11.3462 -0.536294 0)
(-10.5364 -0.765894 0)
(-10.1678 -0.82233 0)
(-9.14765 -1.06176 0)
(-8.52142 -1.07429 0)
(-7.37904 -1.29701 0)
(-6.53265 -1.24544 0)
(-5.39591 -1.31907 0)
(-4.45831 -1.18555 0)
(-3.37229 -1.21173 0)
(-2.59884 -0.917917 0)
(-1.82435 -1.02952 0)
(-1.30094 -0.843192 0)
(-0.549189 -0.811694 0)
(-0.208586 -0.621304 0)
(0.780239 -0.656744 0)
(0.949519 -0.464594 0)
(2.20704 -0.513131 0)
(2.24115 -0.449051 0)
(3.48934 -0.511817 0)
(3.54742 -0.454962 0)
(4.7982 -0.509238 0)
(4.85867 -0.463389 0)
(6.07495 -0.458624 0)
(6.09845 -0.438152 0)
(7.20399 -0.363283 0)
(7.23052 -0.419042 0)
(8.21432 -0.311869 0)
(8.26675 -0.390413 0)
(9.14948 -0.256757 0)
(9.20872 -0.345503 0)
(10.022 -0.214204 0)
(10.0669 -0.303762 0)
(10.8338 -0.178848 0)
(10.8601 -0.26136 0)
(11.5159 -0.117672 0)
(11.527 -0.190674 0)
(12.1465 -0.11641 0)
(12.1431 -0.125435 0)
(12.6132 -0.0816351 0)
(12.6876 -0.0450074 0)
(12.894 -0.001875 0)
(12.9989 0.0483443 0)
(13.0618 0.0846291 0)
(13.0973 0.118525 0)
(13.0761 0.160382 0)
(13.0433 0.190849 0)
(12.8848 0.235926 0)
(12.8509 0.272921 0)
(12.4906 0.301967 0)
(12.474 0.355428 0)
(11.9392 0.347517 0)
(11.9201 0.430733 0)
(11.251 0.38251 0)
(11.2195 0.48727 0)
(10.4497 0.395135 0)
(10.3957 0.536527 0)
(9.57034 0.386512 0)
(9.49621 0.560033 0)
(8.63469 0.381482 0)
(8.54952 0.559493 0)
(7.70508 0.354418 0)
(7.62048 0.525717 0)
(6.82728 0.317418 0)
(6.75458 0.47422 0)
(6.02628 0.282955 0)
(5.96478 0.420046 0)
(5.32481 0.23995 0)
(5.27941 0.350525 0)
(4.73889 0.208204 0)
(4.70763 0.296798 0)
(4.25984 0.187373 0)
(4.23886 0.23962 0)
(3.86878 0.168384 0)
(3.85853 0.193594 0)
(3.59821 0.129548 0)
(3.59103 0.149781 0)
(3.40885 0.102547 0)
(3.40598 0.114804 0)
(3.29129 0.0760725 0)
(3.30108 0.0658707 0)
(3.24602 0.0454049 0)
(3.27746 0.0255398 0)
(3.26513 0.0115119 0)
(3.32348 -0.0028859 0)
(3.32356 -0.00971895 0)
(3.40675 -0.0241016 0)
(3.41463 -0.0267136 0)
(3.50312 -0.0395557 0)
(3.53333 -0.0416514 0)
(3.58275 -0.0517874 0)
(3.66223 -0.054677 0)
(3.67721 -0.0604793 0)
(3.78895 -0.0642994 0)
(3.78809 -0.0628955 0)
(3.90149 -0.0689533 0)
(3.90036 -0.0756792 0)
(4.01141 -0.0757683 0)
(4.012 -0.0858033 0)
(4.12406 -0.0816092 0)
(4.12444 -0.0925634 0)
(4.24145 -0.0886828 0)
(4.24235 -0.100975 0)
(4.36462 -0.09566 0)
(4.36928 -0.108589 0)
(4.49294 -0.101248 0)
(4.49965 -0.116341 0)
(4.62363 -0.104621 0)
(4.62972 -0.121518 0)
(4.75481 -0.110163 0)
(4.76072 -0.126727 0)
(4.88559 -0.113596 0)
(4.891 -0.127013 0)
(5.0039 -0.106798 0)
(5.00638 -0.119136 0)
(5.10865 -0.106001 0)
(5.108 -0.116407 0)
(5.20053 -0.108133 0)
(5.20079 -0.116026 0)
(5.27449 -0.100122 0)
(5.27233 -0.106427 0)
(5.32128 -0.0969846 0)
(5.31713 -0.097239 0)
(5.33819 -0.0870059 0)
(5.33293 -0.0867014 0)
(5.33737 -0.0819081 0)
(5.31159 -0.0787035 0)
(5.31186 -0.067711 0)
(5.26254 -0.0646794 0)
(5.26099 -0.0576194 0)
(5.19269 -0.0555885 0)
(5.19166 -0.0505124 0)
(5.10445 -0.0458181 0)
(5.10458 -0.0418264 0)
(5.00039 -0.0381696 0)
(5.00107 -0.0326668 0)
(4.88804 -0.0318439 0)
(4.88737 -0.0258909 0)
(4.76884 -0.0259264 0)
(4.7691 -0.0214977 0)
(4.64895 -0.0195657 0)
(4.64842 -0.0163371 0)
(4.53245 -0.0164055 0)
(4.53021 -0.0129516 0)
(4.41619 -0.0136246 0)
(4.41765 -0.00958398 0)
(4.3027 -0.00843762 0)
(4.30362 -0.0044022 0)
(4.1887 -0.00221718 0)
(4.18949 -0.000876691 0)
(4.07466 0.00253261 0)
(4.07628 0.00245851 0)
(3.97303 0.00720028 0)
(3.97042 0.00810844 0)
(3.8746 0.0128735 0)
(3.87447 0.0144396 0)
(3.79038 0.0179109 0)
(3.7911 0.0192366 0)
(3.71883 0.0214041 0)
(3.71898 0.0211383 0)
(3.65523 0.0250323 0)
(3.65394 0.0248037 0)
(3.60068 0.0286847 0)
(3.59712 0.0287557 0)
(3.55432 0.0334257 0)
(3.54939 0.0338099 0)
(3.51405 0.0382744 0)
(3.50959 0.0396201 0)
(3.48325 0.0429075 0)
(3.48187 0.0446528 0)
(3.46471 0.0474618 0)
(3.46441 0.0487759 0)
(3.45697 0.0512949 0)
(3.4578 0.0536033 0)
(3.45564 0.0545419 0)
(3.46222 0.0591911 0)
(3.46054 0.0569437 0)
(3.47551 0.0639968 0)
(3.47376 0.0597522 0)
(3.49666 0.0675353 0)
(3.49623 0.0627067 0)
(3.5253 0.0716517 0)
(3.52555 0.0645288 0)
(3.55881 0.0755519 0)
(3.56057 0.0676591 0)
(3.60325 0.0787952 0)
(3.60578 0.0702299 0)
(3.65561 0.08245 0)
(3.65868 0.0733678 0)
(3.71605 0.0863802 0)
(3.71894 0.0767929 0)
(3.78456 0.0893299 0)
(3.78762 0.0800542 0)
(3.86144 0.0921629 0)
(3.86484 0.0796148 0)
(3.95636 0.0945812 0)
(3.96755 0.0903652 0)
(4.01658 0.0876595 0)
(4.08578 0.0989514 0)
(4.09282 0.0872412 0)
(4.20241 0.0978101 0)
(4.19911 0.0907865 0)
(4.31078 0.101073 0)
(4.30986 0.0893534 0)
(4.42614 0.103124 0)
(4.42755 0.0887525 0)
(4.54941 0.105209 0)
(4.55103 0.0904543 0)
(4.67949 0.106472 0)
(4.68095 0.0914734 0)
(4.81522 0.107862 0)
(4.8171 0.0927014 0)
(4.95728 0.10911 0)
(4.95863 0.0936466 0)
(5.10466 0.110256 0)
(5.1057 0.0945215 0)
(5.25561 0.111078 0)
(5.25723 0.0947983 0)
(5.41147 0.11173 0)
(5.41322 0.0947816 0)
(5.57247 0.112378 0)
(5.57405 0.0952972 0)
(5.73789 0.113126 0)
(5.73807 0.0962265 0)
(5.90677 0.111123 0)
(5.90799 0.0944552 0)
(6.08025 0.112629 0)
(6.08256 0.0942091 0)
(6.25666 0.11293 0)
(6.25945 0.0934347 0)
(6.43668 0.112792 0)
(6.43824 0.0932872 0)
(6.61641 0.112677 0)
(6.61787 0.0928945 0)
(6.79915 0.108739 0)
(6.80124 0.0899906 0)
(6.98224 0.111197 0)
(6.98443 0.0903341 0)
(7.16667 0.109353 0)
(7.16887 0.0886867 0)
(7.35189 0.108343 0)
(7.35495 0.0867753 0)
(7.53983 0.107245 0)
(7.54335 0.0851334 0)
(7.72901 0.106603 0)
(7.73251 0.0840888 0)
(7.92052 0.105105 0)
(7.92391 0.0823653 0)
(8.11437 0.104241 0)
(8.11779 0.0813662 0)
(8.30703 0.104782 0)
(8.31146 0.0818463 0)
(8.49978 0.104225 0)
(8.50345 0.0809426 0)
(8.69206 0.10344 0)
(8.69573 0.0799931 0)
(8.88194 0.1032 0)
(8.88567 0.0798528 0)
(9.06832 0.10221 0)
(9.07359 0.0779049 0)
(9.25599 0.101226 0)
(9.26071 0.0779671 0)
(9.43962 0.10026 0)
(9.44392 0.0761702 0)
(9.62221 0.0984202 0)
(9.62933 0.0749182 0)
(9.80182 0.0957691 0)
(9.84455 0.0823696 0)
(9.91055 0.082258 0)
(10.057 0.0893821 0)
(10.064 0.0775126 0)
(10.2317 0.0889361 0)
(10.2383 0.0712224 0)
(10.3966 0.0918206 0)
(10.4052 0.0690554 0)
(10.563 0.0900969 0)
(10.5691 0.0677372 0)
(10.7269 0.0875043 0)
(10.7339 0.0652222 0)
(10.8881 0.0862569 0)
(10.8966 0.0638949 0)
(11.0458 0.0852629 0)
(11.0541 0.0651722 0)
(11.2024 0.0800253 0)
(11.21 0.0618289 0)
(11.3568 0.0800347 0)
(11.3646 0.0589166 0)
(11.509 0.0791527 0)
(11.5169 0.0571775 0)
(11.659 0.0770235 0)
(11.6658 0.0568676 0)
(11.8063 0.0743749 0)
(11.8096 0.056333 0)
(11.9499 0.0688311 0)
(11.9538 0.0509375 0)
(12.0904 0.0707201 0)
(12.0943 0.051356 0)
(12.2281 0.0671709 0)
(12.2307 0.0504775 0)
(12.3613 0.0648373 0)
(12.3651 0.0476139 0)
(12.491 0.0664454 0)
(12.4946 0.048507 0)
(12.6177 0.0620752 0)
(12.6202 0.0464153 0)
(12.7391 0.0603162 0)
(12.743 0.0438805 0)
(12.8577 0.0613192 0)
(12.8608 0.0457864 0)
(12.9715 0.0576144 0)
(12.9735 0.0438843 0)
(13.0786 0.0562941 0)
(13.0824 0.0410414 0)
(13.182 0.0555506 0)
(13.1864 0.0405717 0)
(13.2799 0.0557679 0)
(13.2834 0.0417518 0)
(13.3716 0.0536808 0)
(13.3736 0.0424119 0)
(13.4588 0.0514459 0)
(13.4617 0.0395458 0)
(13.5411 0.0508749 0)
(13.5441 0.0388126 0)
(13.6212 0.0484514 0)
(13.6239 0.0374148 0)
(13.6973 0.0466866 0)
(13.7003 0.0350739 0)
(13.7704 0.0451267 0)
(13.7724 0.035729 0)
(13.8399 0.0428307 0)
(13.8417 0.0331739 0)
(13.9067 0.0402004 0)
(13.9099 0.0297567 0)
(13.9739 0.038653 0)
(13.9771 0.0279933 0)
(14.0428 0.0355874 0)
(14.0501 0.0282617 0)
(14.0948 0.0321981 0)
(14.1271 0.0299344 0)
(14.136 0.0275694 0)
(14.1958 0.0302084 0)
(14.196 0.0261949 0)
(14.2505 0.031695 0)
(14.2519 0.0240389 0)
(14.303 0.0306538 0)
(14.3044 0.0245143 0)
(14.3519 0.0299787 0)
(14.3537 0.0242033 0)
(14.3961 0.0296592 0)
(14.3983 0.0244023 0)
(14.4377 0.0283674 0)
(14.4398 0.0239767 0)
(14.4762 0.0274696 0)
(14.4782 0.0224095 0)
(14.5116 0.0268543 0)
(14.5135 0.022787 0)
(14.5445 0.0257105 0)
(14.5459 0.0222117 0)
(14.5744 0.0255169 0)
(14.5758 0.0215468 0)
(14.6022 0.0241151 0)
(14.6033 0.0210185 0)
(14.6274 0.0232774 0)
(14.6288 0.0199481 0)
(14.6501 0.0231636 0)
(14.6512 0.0210791 0)
(14.6713 0.0219167 0)
(14.672 0.0204517 0)
(14.6903 0.0212569 0)
(14.6912 0.0197506 0)
(14.7075 0.0212614 0)
(14.7082 0.0198149 0)
(14.7229 0.0201017 0)
(14.7235 0.0189517 0)
(14.7377 0.0199905 0)
(14.7395 0.0183491 0)
(14.7483 0.0196523 0)
(14.7543 0.018047 0)
(14.7573 0.0185182 0)
(14.7681 0.0175226 0)
(14.7686 0.0173105 0)
(14.7796 0.0170963 0)
(14.7801 0.0165879 0)
(14.7915 0.0161446 0)
(14.7922 0.0162847 0)
(14.804 0.01532 0)
(14.8042 0.0152364 0)
(14.8165 0.0148379 0)
(14.8169 0.0142393 0)
(14.8295 0.0142404 0)
(14.8298 0.013734 0)
(14.8424 0.0135774 0)
(14.8425 0.0131562 0)
(14.8554 0.0131463 0)
(14.8557 0.0127021 0)
(14.868 0.0127783 0)
(14.8683 0.0127895 0)
(14.8798 0.0124987 0)
(14.8802 0.0124322 0)
(14.8908 0.0122741 0)
(14.8909 0.0121952 0)
(14.8999 0.0116276 0)
(14.9001 0.0119681 0)
(14.909 0.0120788 0)
(14.9094 0.0115587 0)
(14.9141 0.0124769 0)
(14.9177 0.0117147 0)
(14.9183 0.0119057 0)
(14.9237 0.0117366 0)
(14.9239 0.0115622 0)
(14.9267 0.011997 0)
(14.9277 0.0117284 0)
(14.9286 0.0116545 0)
(14.9291 0.0115806 0)
(14.9294 0.0115275 0)
(14.9293 0.0115542 0)
(14.9289 0.0115615 0)
(14.9283 0.0114825 0)
(14.927 0.0109897 0)
(14.9256 0.0111508 0)
(-0.0216149 0.10811 0)
(-0.142834 0.150303 0)
(-0.243719 0.161547 0)
(-0.459105 0.259216 0)
(-0.562613 0.270494 0)
(-0.893422 0.368941 0)
(-1.01749 0.347068 0)
(-1.3992 0.404966 0)
(-1.51619 0.376065 0)
(-1.91829 0.40875 0)
(-2.017 0.380016 0)
(-2.40636 0.388218 0)
(-2.48731 0.358128 0)
(-2.83796 0.346983 0)
(-2.90192 0.314948 0)
(-3.20335 0.296097 0)
(-3.25609 0.275123 0)
(-3.49727 0.240866 0)
(-3.55362 0.225418 0)
(-3.70999 0.168239 0)
(-3.76941 0.126432 0)
(-3.84585 0.0601688 0)
(-3.88915 0.0134838 0)
(-3.91029 -0.0367986 0)
(-3.90914 -0.0777709 0)
(-3.87809 -0.115211 0)
(-3.84046 -0.155039 0)
(-3.76143 -0.180821 0)
(-3.68676 -0.214477 0)
(-3.567 -0.249114 0)
(-3.45473 -0.286008 0)
(-3.28753 -0.311652 0)
(-3.1326 -0.339275 0)
(-2.93711 -0.362371 0)
(-2.75262 -0.384845 0)
(-2.54198 -0.395088 0)
(-2.34653 -0.407141 0)
(-2.13492 -0.410407 0)
(-1.94153 -0.408356 0)
(-1.73794 -0.395493 0)
(-1.56428 -0.377834 0)
(-1.38024 -0.344776 0)
(-1.24546 -0.31113 0)
(-1.09548 -0.257718 0)
(-1.01071 -0.223935 0)
(-0.919879 -0.161132 0)
(-0.888027 -0.128122 0)
(-0.897517 -0.0781472 0)
(-0.962991 -0.0324836 0)
(-1.08114 0.0414423 0)
(-1.24913 0.122846 0)
(-1.48286 0.216781 0)
(-1.76641 0.312098 0)
(-2.11785 0.416302 0)
(-2.51981 0.522832 0)
(-2.98793 0.636733 0)
(-3.50517 0.752942 0)
(-4.08209 0.873207 0)
(-4.70184 0.987301 0)
(-5.36685 1.10315 0)
(-6.05741 1.20682 0)
(-6.78044 1.32206 0)
(-7.50271 1.39633 0)
(-8.23817 1.48255 0)
(-8.92436 1.50616 0)
(-9.61261 1.5116 0)
(-10.2017 1.50038 0)
(-10.786 1.43482 0)
(-11.2446 1.39574 0)
(-11.6581 1.23428 0)
(-11.9612 1.09936 0)
(-12.2002 0.896596 0)
(-12.3664 0.667078 0)
(-12.4695 0.428042 0)
(-12.5832 0.187474 0)
(-12.5869 -0.0198942 0)
(-12.5332 -0.326025 0)
(-12.4749 -0.498912 0)
(-11.9274 -1.00499 0)
(-11.7478 -0.966675 0)
(-10.7717 -1.5882 0)
(-10.567 -1.43627 0)
(-9.31458 -2.07131 0)
(-9.0533 -1.93785 0)
(-7.52934 -2.44239 0)
(-7.12954 -2.30987 0)
(-5.56842 -2.58657 0)
(-5.00078 -2.37485 0)
(-3.64981 -2.36883 0)
(-3.06749 -2.17399 0)
(-1.95289 -1.91707 0)
(-1.50649 -1.77529 0)
(-0.28054 -1.74913 0)
(-0.00496211 -1.50864 0)
(1.47858 -1.53205 0)
(1.63415 -1.33093 0)
(3.46739 -1.44858 0)
(3.54638 -1.28493 0)
(5.33249 -1.32623 0)
(5.41773 -1.25135 0)
(7.11442 -1.3548 0)
(7.21557 -1.26713 0)
(8.83989 -1.28967 0)
(8.93489 -1.1739 0)
(10.439 -1.10524 0)
(10.4712 -1.06323 0)
(11.8266 -0.924117 0)
(11.8912 -0.994703 0)
(13.0785 -0.814114 0)
(13.1588 -0.894047 0)
(14.2551 -0.731667 0)
(14.3279 -0.809149 0)
(15.3745 -0.639029 0)
(15.4062 -0.724387 0)
(16.3695 -0.520723 0)
(16.3789 -0.590595 0)
(17.2602 -0.447579 0)
(17.2495 -0.454224 0)
(17.9787 -0.373998 0)
(18.0862 -0.34081 0)
(18.4567 -0.223986 0)
(18.6747 -0.144194 0)
(18.842 -0.0328449 0)
(19.0046 0.0638127 0)
(19.0854 0.14272 0)
(19.1321 0.231255 0)
(19.1119 0.330678 0)
(19.0831 0.4006 0)
(18.8956 0.52055 0)
(18.8684 0.581206 0)
(18.433 0.669589 0)
(18.4216 0.751035 0)
(17.7758 0.805083 0)
(17.7556 0.919765 0)
(16.9408 0.905929 0)
(16.8907 1.08347 0)
(15.9313 0.944517 0)
(15.8471 1.16892 0)
(14.7626 0.975043 0)
(14.64 1.22843 0)
(13.4979 0.955048 0)
(13.3595 1.21569 0)
(12.212 0.892993 0)
(12.0781 1.14237 0)
(10.9525 0.822197 0)
(10.8304 1.05459 0)
(9.77236 0.727535 0)
(9.67049 0.92734 0)
(8.69823 0.632968 0)
(8.62337 0.78639 0)
(7.79849 0.541779 0)
(7.73612 0.674904 0)
(7.04256 0.472187 0)
(7.00185 0.542563 0)
(6.44282 0.364453 0)
(6.41991 0.405287 0)
(6.00549 0.283413 0)
(5.99536 0.306082 0)
(5.69967 0.205434 0)
(5.69872 0.200082 0)
(5.50327 0.131291 0)
(5.51286 0.10599 0)
(5.41451 0.0566001 0)
(5.44253 0.0282471 0)
(5.40542 -0.00120196 0)
(5.46111 -0.0222637 0)
(5.45516 -0.040617 0)
(5.53172 -0.0607619 0)
(5.54628 -0.0677341 0)
(5.61234 -0.0778727 0)
(5.66853 -0.0900525 0)
(5.69367 -0.0929779 0)
(5.80522 -0.10591 0)
(5.80859 -0.108097 0)
(5.93293 -0.117677 0)
(5.93331 -0.127825 0)
(6.06501 -0.131288 0)
(6.06547 -0.144528 0)
(6.20481 -0.146232 0)
(6.20516 -0.161086 0)
(6.35565 -0.165684 0)
(6.35542 -0.180709 0)
(6.51877 -0.186191 0)
(6.52161 -0.203328 0)
(6.69333 -0.20333 0)
(6.70218 -0.223643 0)
(6.88141 -0.213999 0)
(6.89064 -0.233404 0)
(7.07724 -0.223145 0)
(7.08631 -0.243603 0)
(7.2781 -0.231616 0)
(7.28855 -0.252071 0)
(7.47593 -0.2273 0)
(7.48201 -0.242724 0)
(7.66291 -0.221428 0)
(7.66491 -0.230267 0)
(7.83794 -0.217314 0)
(7.83735 -0.225627 0)
(7.99547 -0.209208 0)
(7.99379 -0.208971 0)
(8.11873 -0.182745 0)
(8.12021 -0.187473 0)
(8.2032 -0.158721 0)
(8.2051 -0.159777 0)
(8.258 -0.138134 0)
(8.25024 -0.12791 0)
(8.27957 -0.111223 0)
(8.25549 -0.0993595 0)
(8.26928 -0.084725 0)
(8.22933 -0.0759261 0)
(8.23031 -0.0619059 0)
(8.16868 -0.0541813 0)
(8.16782 -0.0426784 0)
(8.08334 -0.0349614 0)
(8.083 -0.025538 0)
(7.97931 -0.0183137 0)
(7.97692 -0.0111766 0)
(7.86328 -0.00551 0)
(7.85792 -0.000263809 0)
(7.7391 0.00540199 0)
(7.73256 0.00945545 0)
(7.61206 0.0118358 0)
(7.60577 0.0169997 0)
(7.48899 0.0165353 0)
(7.48509 0.0217273 0)
(7.36526 0.0241788 0)
(7.36644 0.0293278 0)
(7.24527 0.0333497 0)
(7.24708 0.0364416 0)
(7.13063 0.0399588 0)
(7.13162 0.0416822 0)
(7.02094 0.0447755 0)
(7.02103 0.0461234 0)
(6.92038 0.0503455 0)
(6.92097 0.0529865 0)
(6.83326 0.0553634 0)
(6.83282 0.058412 0)
(6.75876 0.0591262 0)
(6.75922 0.060025 0)
(6.69992 0.0610448 0)
(6.7004 0.0628539 0)
(6.65027 0.0647574 0)
(6.64971 0.0672114 0)
(6.61356 0.0666012 0)
(6.61298 0.070087 0)
(6.586 0.0719995 0)
(6.58576 0.0734294 0)
(6.56881 0.0748403 0)
(6.5718 0.0769739 0)
(6.56624 0.0776043 0)
(6.57761 0.0831309 0)
(6.57414 0.08173 0)
(6.59648 0.0886845 0)
(6.59581 0.0850815 0)
(6.62866 0.0916354 0)
(6.62886 0.0873092 0)
(6.6729 0.0951897 0)
(6.67357 0.0895111 0)
(6.72755 0.0976116 0)
(6.72905 0.0905906 0)
(6.79376 0.100078 0)
(6.79583 0.0941727 0)
(6.86764 0.108675 0)
(6.87006 0.0994138 0)
(6.95355 0.107379 0)
(6.9572 0.0977328 0)
(7.04917 0.112009 0)
(7.05364 0.100874 0)
(7.15507 0.114768 0)
(7.15998 0.103908 0)
(7.2716 0.120121 0)
(7.27622 0.107696 0)
(7.39933 0.119866 0)
(7.4034 0.106296 0)
(7.5396 0.121829 0)
(7.54519 0.108179 0)
(7.67751 0.119295 0)
(7.73473 0.120877 0)
(7.76305 0.111427 0)
(7.92793 0.119989 0)
(7.92351 0.112441 0)
(8.09457 0.125854 0)
(8.09072 0.110674 0)
(8.26692 0.126723 0)
(8.26515 0.109628 0)
(8.44823 0.127489 0)
(8.44699 0.109596 0)
(8.63847 0.127616 0)
(8.63658 0.110042 0)
(8.83496 0.12731 0)
(8.83485 0.109843 0)
(9.03634 0.128032 0)
(9.03509 0.110047 0)
(9.24546 0.127432 0)
(9.24201 0.109581 0)
(9.45859 0.127835 0)
(9.45599 0.109577 0)
(9.67524 0.127429 0)
(9.67269 0.108954 0)
(9.89566 0.127691 0)
(9.89328 0.10845 0)
(10.1224 0.128128 0)
(10.1182 0.109495 0)
(10.3535 0.126547 0)
(10.3502 0.109703 0)
(10.5849 0.124917 0)
(10.5836 0.106004 0)
(10.82 0.125564 0)
(10.8202 0.105486 0)
(11.0567 0.125478 0)
(11.0565 0.104681 0)
(11.2963 0.125177 0)
(11.2955 0.104965 0)
(11.5367 0.121772 0)
(11.5325 0.102835 0)
(11.7765 0.119234 0)
(11.7719 0.0991467 0)
(12.016 0.1189 0)