/*--------------------------------*- C++ -*----------------------------------*\
| =========                 |                                                 |
| \\      /  F ield         | OpenFOAM: The Open Source CFD Toolbox           |
|  \\    /   O peration     | Version:  v1812                                 |
|   \\  /    A nd           | Web:      www.OpenFOAM.com                      |
|    \\/     M anipulation  |                                                 |
\*---------------------------------------------------------------------------*/
FoamFile
{
    version     2.0;
    format      ascii;
    class       volScalarField;
    location    "0.5";
    object      p;
}
// * * * * * * * * * * * * * * * * * * * * * * * * * * * * * * * * * * * * * //

dimensions      [1 -1 -2 0 0 0 0];


internalField   nonuniform List<scalar> 
20400
(
96789.5
96794.3
96794.9
96800.9
96804.8
96812.3
96819.1
96828.3
96838.7
96849.4
96862.4
96873.9
96888.3
96902.4
96916.9
96931.6
96946.7
96960.7
96974.5
96987.4
96999.4
97010.3
97019.8
97028.1
97035.4
97040.4
97041.8
97042.2
97041.1
97037.4
97031.8
97023.1
97011.2
96996.4
96982.4
96962.9
96948.6
96912.7
96888.5
96855.1
96818.1
96785.5
96751.6
96712.7
96669.8
96624.7
96577.2
96526.7
96473.7
96418.3
96364.8
96310.6
96256.7
96204.9
96150.6
96100
96049.7
96002.7
95960.1
95919
95875.3
95840.1
95801.3
95771.4
95742.8
95716.7
95695.8
95678.1
95664.4
95657.1
95644.3
95635.3
95629.1
95622.9
95616.4
95610.1
95606.2
95603.9
95603.1
95602.6
95602.2
95602.8
95602.6
95602.6
95603.2
95602.3
95617.9
95609
95602.1
95607.2
95613.9
95621.7
95624.7
95631
95641
95651.8
95663.3
95673.7
95684.2
95695.9
95708.2
95721.2
95735.3
95750.8
95768.9
95790.6
95813.6
95827
95847.9
95865.7
95890.7
95913.6
95932.6
95961.1
95985.7
96010.2
96035
96063
96090.3
96117.1
96143.7
96170.8
96197.5
96224.6
96251.1
96278.5
96308.4
96339.8
96373.4
96403.4
96429.8
96455.7
96480.6
96507.3
96535.8
96569.2
96601.3
96626
96647.6
96673.4
96699
96723
96746.9
96771.3
96794.1
96816.2
96835.2
96856.8
96876.7
96895.9
96915.5
96931.8
96949.1
96965.9
96981.8
96996.3
97010.7
97023.5
97035.9
97047.2
97058
97067.3
97075.5
97082.5
97088.2
97092.8
97097.5
97101.3
97104.3
97106
97105.7
97105
97103.1
97099.7
97095
97089.7
97083.9
97077.2
97068.8
97059.6
97049.9
97038.5
97026.7
97014.5
97001.4
96987.8
96972.9
96958
96941.8
96925.2
96907.8
96889.7
96871.4
96852.3
96832.9
96812.9
96792.6
96771.9
96751
96729.8
96708.3
96686.6
96664.7
96642.6
96620.4
96598.2
96576
96553.9
96532
96510.1
96488.5
96467.1
96446
96425
96404.4
96384
96364.1
96344.5
96325.4
96306.8
96288.8
96271.4
96254.6
96238.5
96223
96208.1
96193.8
96180.2
96167
96154.5
96142.6
96131.3
96120.8
96111
96102
96093.9
96086.7
96080.5
96075.4
96071.1
96067.7
96065.4
96063.9
96063.2
96063.3
96064.2
96066.3
96069.5
96073.8
96079.2
96085.7
96093.2
96101.9
96111.6
96122.4
96134.3
96147.2
96161.2
96176.2
96192.3
96209.4
96227.5
96246.7
96266.9
96288.1
96310.3
96333.5
96357.6
96382.6
96408.6
96435.6
96463.5
96492.2
96521.9
96552.4
96583.8
96615.9
96648.8
96682.5
96716.7
96751.7
96787.3
96823.5
96860.4
96897.9
96936.1
96974.8
97014.1
97054
97094.4
97135.2
97176.5
97218.2
97260.2
97302.6
97345.4
97388.5
97431.9
97475.7
97519.7
97564
97608.6
97653.4
97698.3
97743.4
97788.5
97833.8
97879.2
97924.7
97970.2
98015.8
98061.4
98106.9
98152.5
98197.9
98243.4
98288.7
98333.9
98379.1
98424.2
98469.1
98514
98558.6
98603.2
98647.5
98691.7
98735.7
98779.4
98822.8
98866.1
98909
98951.7
98994.1
99036.2
99078
99119.5
99160.7
99201.5
99242
99282.1
99321.7
99361
99399.9
99438.3
99476.3
99513.9
99551.1
99587.8
99624.1
99659.9
99695.2
99730.1
99764.6
99798.5
99832.1
99865.2
99897.8
99930
99961.8
99993.1
100024
100054
100085
100114
100143
100172
100201
100229
100257
100284
100311
100338
100364
100390
100416
100441
100466
100490
100515
100539
100562
100586
100609
100631
100654
100676
100697
100719
100740
100760
100780
100800
100819
100839
100857
100875
100893
100911
100928
100944
100960
100976
100991
101006
101020
101034
101047
101060
101072
101084
101095
101106
101117
101127
101136
101145
101154
101162
101170
101178
101185
101191
101198
101204
101209
101215
101220
101224
101229
101233
101237
101240
101244
101247
101250
101253
101256
101258
101261
101263
101265
101267
101269
101271
101272
101274
101275
101277
101278
101279
101281
101282
101283
101284
101285
101286
101287
101288
101289
101290
101291
101291
101292
101293
101294
101295
101295
101296
101297
101298
101298
101299
101300
101300
101301
101302
101303
101303
101304
101305
101306
101306
101307
101308
101309
101310
101310
101311
101312
101313
101314
101315
101316
101318
101319
101320
101321
101322
101323
101324
96779.3
96783.4
96781.7
96787.8
96793.8
96803
96811.3
96821.4
96832.3
96843.2
96856
96868.4
96882.1
96895.7
96910.1
96925
96939.7
96953.7
96967.4
96980.1
96991.9
97002.7
97012.3
97020.7
97028.3
97034
97036.6
97038.6
97038.7
97035.7
97031
97023.7
97013
96995.7
96982.9
96961.8
96945.8
96913
96891.5
96871.3
96841.8
96806.8
96772.6
96735.6
96696.3
96655.2
96612.3
96567.2
96520.3
96471.5
96420.4
96368
96313.2
96259
96200.1
96144.3
96087
96031.4
95978.3
95928.6
95881.1
95839.8
95802.2
95792.7
95761.5
95733
95707.5
95683.2
95660.5
95640.1
95619.2
95600.3
95586.2
95573.4
95563.1
95555.1
95546.7
95541.2
95535.5
95531.5
95525.1
95516.9
95511.6
95500.6
95495.8
95492.2
95493.6
95520.8
95525.7
95530.9
95540.2
95551.1
95570.1
95589.6
95611.5
95630.2
95647.4
95663.4
95679.5
95695.8
95712.4
95729.9
95750
95772.7
95795.6
95813.1
95821.2
95822.6
95843.6
95861
95886.2
95910
95935.6
95968.2
95998.1
96023.4
96046.3
96071.3
96097.2
96125.2
96153.9
96184.1
96212.4
96240
96267
96294.8
96323.9
96354.7
96390.4
96425.9
96457.8
96487.1
96515.5
96534.8
96555.1
96582.5
96610.9
96636
96660
96685.5
96709.4
96731.6
96753.7
96776.2
96798
96818.8
96838.7
96859.4
96878.2
96896.3
96914.4
96929.8
96946
96961.5
96976.6
96990.8
97004.8
97017.3
97029.9
97040.7
97050.9
97059.7
97067.3
97073.6
97078.7
97082.8
97087.3
97092
97096.2
97100.2
97100.8
97100.5
97099.4
97097
97093.3
97088.8
97083.9
97077.6
97069.1
97059.8
97049.5
97038.2
97025.1
97012.7
96999.8
96986.5
96971.9
96957.4
96941.3
96925
96908
96890
96871.8
96852.8
96833.4
96813.5
96793.2
96772.6
96751.7
96730.5
96709
96687.4
96665.6
96643.7
96621.7
96599.6
96577.5
96555.4
96533.4
96511.5
96489.9
96468.4
96447.2
96426.3
96405.7
96385.4
96365.5
96346
96326.9
96308.2
96290.1
96272.6
96255.7
96239.4
96223.8
96208.9
96194.7
96181.1
96168.2
96155.8
96144.1
96132.9
96122.4
96112.6
96103.5
96095.2
96087.9
96081.4
96076.2
96071.8
96068.3
96066
96064.7
96064.2
96064.4
96065.4
96067.4
96070.7
96075
96080.3
96086.7
96094.1
96102.7
96112.3
96123
96134.9
96147.8
96161.7
96176.7
96192.8
96209.9
96228
96247.2
96267.4
96288.6
96310.8
96333.9
96358
96383.1
96409.1
96436
96463.8
96492.5
96522.1
96552.6
96583.9
96616
96648.9
96682.6
96716.9
96751.9
96787.5
96823.7
96860.6
96898
96936.1
96974.7
97014
97053.8
97094.1
97134.9
97176.3
97218
97260.1
97302.5
97345.3
97388.4
97431.8
97475.5
97519.6
97563.8
97608.4
97653.1
97698.1
97743.1
97788.3
97833.6
97879
97924.5
97970
98015.6
98061.2
98106.7
98152.3
98197.8
98243.2
98288.5
98333.8
98379
98424
98469
98513.8
98558.4
98603
98647.3
98691.5
98735.5
98779.2
98822.7
98865.9
98908.9
98951.5
98993.9
99036
99077.8
99119.3
99160.5
99201.3
99241.8
99281.8
99321.5
99360.8
99399.6
99438.1
99476.1
99513.7
99550.8
99587.5
99623.8
99659.6
99694.9
99729.8
99764.3
99798.3
99831.8
99864.9
99897.5
99929.7
99961.5
99992.8
100024
100054
100084
100114
100143
100172
100201
100229
100256
100284
100311
100337
100364
100390
100415
100441
100465
100490
100514
100538
100562
100585
100608
100631
100653
100675
100697
100718
100739
100760
100780
100800
100819
100838
100857
100875
100893
100910
100927
100944
100960
100976
100991
101006
101020
101034
101047
101060
101072
101084
101095
101106
101117
101127
101136
101145
101154
101162
101170
101178
101185
101191
101198
101204
101209
101215
101219
101224
101229
101233
101237
101240
101244
101247
101250
101253
101256
101258
101261
101263
101265
101267
101269
101271
101272
101274
101276
101277
101278
101280
101281
101282
101283
101284
101285
101286
101287
101288
101289
101290
101291
101292
101293
101293
101294
101295
101296
101296
101297
101298
101299
101299
101300
101301
101301
101302
101303
101304
101304
101305
101306
101307
101307
101308
101309
101310
101311
101312
101313
101313
101314
101315
101317
101318
101319
101320
101321
101322
101323
101324
96769
96774.6
96773.6
96780.5
96786.5
96795.1
96803.7
96814.3
96826.1
96838
96851.8
96864.1
96877.9
96892
96906.8
96921.6
96936.8
96951.1
96965.3
96978.6
96991
97002.4
97012.6
97021.5
97029.3
97034.6
97037.3
97039.4
97038.6
97035.3
97029.9
97019.1
97008.6
96995.8
96982.7
96964.1
96946.5
96924
96902.3
96875.9
96842.4
96797.7
96762.9
96724
96682.6
96639
96592.2
96541.8
96488.7
96432.3
96376.9
96321.2
96264.6
96211.9
96157.7
96110.1
96064.8
96015.6
95965.4
95916.6
95874.4
95828.6
95784.7
95744.5
95709.5
95674.3
95643.7
95614.5
95589.5
95567.7
95546.9
95533.7
95523.8
95524.1
95530.9
95541
95551.7
95562.5
95570.1
95576.7
95580.7
95582.8
95583.7
95587.9
95591.9
95594.5
95607.3
95607.6
95611.1
95618.2
95625.9
95636.2
95642.4
95641.3
95634
95636.2
95645.9
95657.5
95669.3
95682.1
95696.7
95712.5
95730
95750.8
95775.3
95799.6
95813.8
95825.3
95850
95875.2
95902.3
95929.8
95940.6
95952.6
95977.7
96004.5
96031.6
96061.9
96089.9
96117.7
96144.3
96173.9
96201.9
96232.1
96260.9
96289.2
96316.1
96342.3
96372.6
96400.8
96429.7
96454.8
96478.2
96501.3
96528.2
96562.3
96598.3
96626.1
96650.3
96674.7
96697
96719.8
96745.8
96770.4
96793.3
96817.1
96837.5
96855.7
96875.4
96894
96914.3
96930.1
96947.1
96963.1
96978.8
96992.5
97005.7
97017.5
97030.1
97043
97054.5
97065.2
97075.1
97084.8
97094.2
97101.8
97107.7
97109.7
97109.2
97105.6
97102.3
97099.4
97095.5
97091.1
97085.8
97080.5
97076.4
97072
97065.4
97057.1
97048.5
97039.1
97029.1
97018.5
97006.1
96992.6
96973.2
96958.1
96941.4
96923.9
96906.4
96888.9
96870.8
96852.3
96832.9
96813.1
96792.8
96772.2
96751.2
96730
96708.6
96686.9
96665
96643
96620.9
96598.7
96576.5
96554.3
96532.3
96510.4
96488.8
96467.4
96446.3
96425.4
96404.9
96384.6
96364.7
96345.2
96326.1
96307.5
96289.5
96272
96255.2
96239
96223.5
96208.7
96194.5
96180.9
96167.8
96155.4
96143.5
96132.3
96121.8
96112
96102.9
96094.7
96087.5
96081.1
96076.1
96071.8
96068.6
96066.2
96064.8
96064.2
96064.4
96065.3
96067.3
96070.5
96074.7
96080
96086.4
96093.9
96102.5
96112.2
96123
96134.9
96147.8
96161.7
96176.7
96192.7
96209.7
96227.8
96246.9
96267.1
96288.3
96310.4
96333.6
96357.7
96382.7
96408.6
96435.5
96463.3
96492
96521.5
96552
96583.3
96615.5
96648.3
96682
96716.2
96751.1
96786.7
96822.9
96859.7
96897.1
96935.2
96973.9
97013.1
97053
97093.3
97134.2
97175.5
97217.2
97259.2
97301.6
97344.3
97387.4
97430.8
97474.5
97518.5
97562.9
97607.4
97652.2
97697.2
97742.2
97787.4
97832.7
97878.1
97923.5
97969.1
98014.6
98060.2
98105.8
98151.3
98196.8
98242.3
98287.6
98332.9
98378.1
98423.1
98468
98512.9
98557.5
98602.1
98646.5
98690.7
98734.6
98778.4
98821.9
98865.1
98908
98950.7
98993.1
99035.2
99077
99118.5
99159.7
99200.5
99241
99281.1
99320.8
99360
99398.9
99437.3
99475.3
99512.9
99550.1
99586.8
99623
99658.9
99694.2
99729.1
99763.5
99797.5
99831.1
99864.1
99896.8
99929
99960.7
99992
100023
100053
100083
100113
100142
100171
100200
100228
100256
100283
100310
100337
100363
100389
100415
100440
100465
100489
100514
100538
100561
100585
100608
100630
100653
100675
100696
100718
100739
100759
100779
100799
100819
100838
100856
100875
100892
100910
100927
100943
100960
100975
100990
101005
101019
101033
101047
101059
101072
101084
101095
101106
101116
101126
101136
101145
101154
101162
101170
101177
101185
101191
101198
101203
101209
101214
101219
101224
101229
101233
101237
101240
101244
101247
101250
101253
101256
101258
101261
101263
101265
101267
101269
101271
101273
101274
101276
101277
101279
101280
101281
101283
101284
101285
101286
101287
101288
101289
101290
101291
101291
101292
101293
101294
101295
101296
101296
101297
101298
101299
101299
101300
101301
101301
101302
101303
101303
101304
101305
101306
101306
101307
101308
101309
101309
101310
101311
101312
101313
101314
101315
101316
101317
101318
101319
101320
101321
101322
101323
101324
96754.4
96755.1
96752.8
96760.9
96766.5
96775.4
96783.9
96793.5
96804.7
96815.2
96827.1
96839.6
96853.7
96868.2
96882.4
96896.1
96909.5
96924.2
96938.6
96952.3
96965.2
96977.7
96989.1
96999.6
97009.2
97015.7
97021.1
97025.8
97026.6
97026.1
97022.1
97016.6
97008.2
96995.1
96981.1
96962.5
96945.9
96925.5
96904
96869.3
96832.9
96797
96763.4
96729.1
96692.9
96650.7
96601.4
96547.8
96492
96433
96376.4
96319.7
96261.2
96207.3
96147.5
96096.2
96045.7
95994.8
95945.5
95893.4
95848.1
95813.6
95777.1
95746.1
95720.2
95694.8
95674.9
95658.6
95646.6
95638.5
95631.3
95626.4
95624.8
95623.6
95619.9
95612.8
95600.2
95586.1
95575.5
95566.5
95562.6
95562.9
95565
95569.4
95574
95577.7
95587.9
95592.8
95598.1
95606.6
95616.5
95630.8
95645.7
95655.4
95656.1
95661.8
95669.6
95678
95687.4
95697.8
95709.1
95721.3
95734.6
95749.3
95764.1
95782.2
95804.2
95816.1
95835.7
95855.8
95883.5
95905.3
95929.2
95953.8
95978.7
96004.6
96031.2
96060.5
96084.9
96112.5
96141.3
96175.3
96207.8
96234
96257.1
96280.5
96306.9
96333.1
96367.6
96402
96434.5
96465.1
96493.7
96515.1
96539.2
96570.7
96603.2
96627.8
96651
96674.7
96697.5
96722.2
96746.6
96768.3
96789.8
96810.4
96829.8
96852.1
96874.4
96894.8
96911.1
96927
96945.1
96962.6
96979.3
96994.9
97011.6
97026.1
97039.7
97045.4
97052.5
97060.4
97068.7
97077.2
97085.7
97092.9
97099.1
97104.2
97107.3
97109
97110
97111
97111
97110.3
97108.5
97104.6
97096
97082.3
97069.9
97058.2
97047
97034.8
97022.6
97011.1
96999.3
96986.6
96972.1
96958
96942.9
96927.9
96910.9
96891.3
96871.9
96852.4
96832.9
96813.1
96792.8
96772.2
96751.3
96730
96708.5
96686.8
96665
96643
96620.9
96598.7
96576.6
96554.5
96532.5
96510.7
96489
96467.6
96446.5
96425.6
96405
96384.8
96364.9
96345.5
96326.4
96307.9
96289.9
96272.4
96255.7
96239.5
96224
96209.2
96194.9
96181.3
96168.2
96155.7
96143.9
96132.8
96122.3
96112.5
96103.5
96095.3
96088.2
96081.9
96076.8
96072.3
96068.9
96066.8
96065.2
96064.7
96064.9
96065.9
96067.9
96071.1
96075.3
96080.7
96087.1
96094.5
96103
96112.7
96123.4
96135.2
96148.1
96162
96177
96193
96210
96228.1
96247.2
96267.3
96288.4
96310.5
96333.6
96357.7
96382.6
96408.6
96435.4
96463.2
96491.8
96521.4
96551.8
96583.1
96615.1
96648
96681.5
96715.8
96750.7
96786.2
96822.4
96859.2
96896.6
96934.7
96973.3
97012.6
97052.3
97092.7
97133.5
97174.7
97216.4
97258.5
97300.9
97343.6
97386.7
97430.1
97473.9
97517.9
97562.2
97606.7
97651.4
97696.4
97741.5
97786.7
97832
97877.4
97922.9
97968.4
98014
98059.5
98105.1
98150.6
98196.2
98241.6
98287
98332.3
98377.5
98422.5
98467.5
98512.3
98557
98601.5
98645.9
98690.1
98734.1
98777.8
98821.3
98864.5
98907.5
98950.2
98992.6
99034.7
99076.5
99118
99159.2
99200
99240.4
99280.5
99320.2
99359.5
99398.3
99436.8
99474.8
99512.4
99549.5
99586.2
99622.4
99658.3
99693.6
99728.5
99762.9
99796.9
99830.4
99863.5
99896.1
99928.3
99960.1
99991.4
100022
100053
100083
100112
100142
100171
100199
100227
100255
100282
100309
100336
100362
100388
100414
100439
100464
100489
100513
100537
100561
100584
100607
100630
100652
100674
100696
100717
100738
100759
100779
100799
100818
100837
100856
100874
100892
100909
100926
100943
100959
100975
100990
101005
101019
101033
101046
101059
101071
101083
101095
101106
101116
101126
101136
101145
101154
101162
101170
101177
101184
101191
101197
101203
101209
101214
101219
101224
101229
101233
101237
101240
101244
101247
101250
101253
101256
101259
101261
101263
101266
101268
101270
101271
101273
101275
101276
101278
101279
101281
101282
101283
101284
101286
101287
101288
101289
101290
101291
101291
101292
101293
101294
101295
101296
101297
101297
101298
101299
101300
101300
101301
101302
101302
101303
101304
101304
101305
101306
101306
101307
101308
101309
101309
101310
101311
101312
101312
101313
101314
101315
101316
101317
101318
101319
101320
101321
101322
101323
101324
96744.3
96745.5
96746.4
96755
96760.9
96769.5
96779
96789
96800.9
96812.9
96826.9
96840.3
96854.1
96868.4
96883.2
96899
96914.2
96929.1
96943.9
96957.9
96971
96983.6
96995
97004.8
97014
97019.7
97023.8
97026.6
97027.1
97025.4
97021.4
97013.9
97003.9
96992.7
96979.9
96959.6
96942.9
96921.4
96898.5
96864.6
96828
96793.3
96759.4
96720.3
96676.5
96627.9
96576.8
96524
96469.2
96410.2
96353.4
96294.7
96238.2
96180.6
96120.6
96066.6
96016.3
95966.3
95921.4
95880.9
95837
95793.7
95758.6
95723.6
95695.1
95669.8
95651.3
95637.4
95628.2
95624
95622.2
95621.1
95622.4
95626.1
95628.1
95630.8
95631.3
95628.6
95626
95621.5
95617
95612.8
95608.8
95605.7
95602.5
95598.3
95597.6
95594.1
95594.2
95594.5
95590.4
95588.9
95596.8
95609.2
95622
95632
95643.4
95656.4
95670
95684.3
95699
95714
95730.2
95751.1
95772
95789.9
95806.9
95821
95839.7
95857.9
95881.2
95901.6
95925.4
95950
95971.5
95993.5
96018
96046.2
96072.7
96101.1
96127.1
96155.2
96179.3
96207
96235.8
96265.4
96298.7
96328.4
96370.6
96415.3
96451.2
96476.6
96496.5
96513
96526
96555.5
96587.4
96617.4
96644.8
96674.1
96693.2
96712.9
96736.9
96762.7
96786.6
96809.1
96832.6
96851.9
96871.7
96887.5
96913.7
96930.7
96947.3
96962.2
96978.5
96994.7
97011.1
97024.1
97039.4
97051.6
97061.9
97071.6
97080.7
97088
97095.1
97098.7
97097.7
97096.4
97097.5
97099.6
97098.9
97098.8
97099.1
97098.5
97096.4
97093.6
97088.7
97079.9
97070.9
97062.6
97054
97044.6
97033.8
97022.6
97007.3
96990.4
96972.1
96956.5
96940.6
96923.4
96907.1
96889.5
96871.2
96853
96833.4
96813.8
96793.2
96772.4
96751.3
96730.1
96708.6
96686.9
96665
96643
96620.9
96598.7
96576.5
96554.4
96532.5
96510.7
96489.1
96467.7
96446.6
96425.8
96405.2
96385
96365.2
96345.7
96326.7
96308.2
96290.3
96272.9
96256.1
96240
96224.4
96209.5
96195.3
96181.6
96168.6
96156.1
96144.3
96133.2
96122.8
96113.1
96104
96095.9
96088.8
96082.7
96077.6
96073
96069.7
96067.6
96066.1
96065.4
96065.6
96066.6
96068.6
96071.8
96076
96081.3
96087.7
96095.2
96103.7
96113.3
96124.1
96135.8
96148.7
96162.5
96177.4
96193.3
96210.3
96228.3
96247.4
96267.5
96288.6
96310.7
96333.8
96357.8
96382.8
96408.6
96435.4
96463.1
96491.7
96521.2
96551.5
96582.7
96614.7
96647.5
96681
96715.3
96750.1
96785.6
96821.8
96858.5
96895.9
96934
96972.6
97011.8
97051.5
97091.8
97132.6
97173.8
97215.5
97257.6
97300
97342.7
97385.8
97429.2
97472.9
97516.9
97561.2
97605.7
97650.5
97695.4
97740.5
97785.7
97831
97876.4
97921.9
97967.4
98013
98058.6
98104.2
98149.8
98195.3
98240.8
98286.2
98331.5
98376.6
98421.7
98466.7
98511.5
98556.2
98600.7
98645.1
98689.3
98733.3
98777
98820.6
98863.8
98906.8
98949.5
98991.9
99034
99075.8
99117.3
99158.5
99199.3
99239.7
99279.8
99319.5
99358.8
99397.6
99436
99474
99511.6
99548.7
99585.4
99621.7
99657.5
99692.8
99727.7
99762.1
99796.1
99829.6
99862.7
99895.3
99927.5
99959.2
99990.5
100021
100052
100082
100112
100141
100170
100198
100226
100254
100281
100308
100335
100361
100387
100413
100438
100463
100488
100512
100536
100560
100583
100606
100629
100651
100673
100695
100716
100737
100758
100778
100798
100818
100837
100855
100874
100891
100909
100926
100942
100959
100974
100990
101004
101019
101032
101046
101059
101071
101083
101094
101105
101116
101126
101136
101145
101153
101162
101170
101177
101184
101191
101197
101203
101209
101214
101219
101224
101229
101233
101237
101241
101244
101248
101251
101254
101256
101259
101262
101264
101266
101268
101270
101272
101274
101276
101277
101279
101280
101282
101283
101284
101285
101287
101288
101289
101290
101291
101292
101293
101294
101294
101295
101296
101297
101298
101299
101299
101300
101301
101301
101302
101303
101304
101304
101305
101305
101306
101307
101307
101308
101309
101309
101310
101311
101312
101312
101313
101314
101315
101316
101316
101317
101318
101319
101320
101321
101322
101323
101324
96721.9
96725.7
96727.1
96737.2
96743.2
96751.7
96762.2
96771.4
96783
96794.8
96808.2
96820.3
96834.7
96848.9
96864.3
96880.3
96895.4
96910.6
96925.6
96939.7
96952.7
96965.6
96977.9
96988.7
96998.5
97005
97010.2
97014.4
97017
97017.4
97014.5
97007.8
96998.7
96987.4
96973.8
96956.6
96939.3
96914.1
96891.1
96859.8
96826.2
96792.7
96757.2
96717.4
96672.5
96623.7
96572.5
96518.5
96462.8
96402.4
96344.9
96288.6
96227.9
96174.4
96114.7
96057.6
96006.6
95958.3
95912.4
95878.7
95836
95804.5
95779
95749
95725.6
95704.7
95686.2
95670.5
95655.8
95644
95632.3
95619.6
95604.3
95583.8
95570.9
95567.4
95570.8
95575.2
95578.7
95582.1
95585.4
95587.5
95588.8
95590.1
95591.7
95592.8
95595.3
95597.6
95604.8
95614.6
95617.1
95616.1
95617.7
95621.2
95627.3
95632.7
95640.1
95649.1
95659.4
95670.7
95682.7
95695
95706.5
95721.9
95744.7
95767.9
95788.4
95805.9
95825.7
95846.6
95874.3
95897.4
95921.7
95945.4
95967.3
95991.8
96016.7
96042.3
96064.9
96093.5
96120.5
96149.7
96178.8
96207.2
96238.5
96269.1
96302.2
96334.2
96356.5
96382.9
96421.4
96445
96464
96491.6
96515.2
96549.8
96589.8
96628.9
96657.6
96674.4
96691.2
96716.3
96740.3
96772.1
96797.4
96815.5
96830.9
96845.9
96869.9
96886.8
96909.7
96926.6
96942.1
96960.4
96977.1
96991.7
97006.3
97019.6
97029.3
97044.3
97056.6
97067
97076.8
97085.2
97093.6
97101.8
97107.3
97109.1
97110.9
97112.2
97111.4
97109.8
97107.8
97104.8
97099.3
97090.2
97081.3
97075.2
97066.4
97057.1
97047.6
97037.9
97027.1
97016.9
97003.6
96989.3
96974.7
96959.9
96944.3
96928.5
96910.2
96889.8
96871.4
96852.1
96832.5
96813.1
96792.8
96772.2
96751.2
96730
96708.4
96686.7
96664.8
96642.8
96620.7
96598.6
96576.5
96554.4
96532.5
96510.8
96489.2
96467.8
96446.7
96425.9
96405.4
96385.2
96365.4
96346
96327
96308.5
96290.6
96273.3
96256.5
96240.4
96224.9
96210.1
96195.8
96182.1
96169.1
96156.7
96144.9
96133.9
96123.5
96113.9
96104.9
96096.8
96089.7
96083.5
96078.4
96073.9
96070.4
96068.3
96066.7
96066.1
96066.4
96067.4
96069.5
96072.6
96076.9
96082.2
96088.6
96096
96104.5
96114.1
96124.7
96136.4
96149.2
96163
96177.8
96193.7
96210.7
96228.7
96247.7
96267.7
96288.8
96310.8
96333.8
96357.8
96382.7
96408.5
96435.3
96462.9
96491.5
96520.9
96551.2
96582.3
96614.2
96646.9
96680.3
96714.5
96749.3
96784.8
96820.9
96857.7
96895.1
96933.1
96971.6
97010.8
97050.5
97090.7
97131.5
97172.7
97214.3
97256.3
97298.7
97341.5
97384.6
97428
97471.7
97515.7
97560
97604.6
97649.3
97694.2
97739.3
97784.5
97829.9
97875.3
97920.8
97966.3
98011.9
98057.5
98103.1
98148.7
98194.3
98239.8
98285.2
98330.5
98375.7
98420.8
98465.8
98510.6
98555.3
98599.9
98644.3
98688.5
98732.5
98776.2
98819.7
98863
98906
98948.7
98991.1
99033.2
99075.1
99116.6
99157.7
99198.5
99239
99279
99318.7
99358
99396.8
99435.2
99473.2
99510.8
99547.9
99584.6
99620.8
99656.6
99691.9
99726.8
99761.2
99795.2
99828.7
99861.8
99894.4
99926.5
99958.3
99989.6
100020
100051
100081
100111
100140
100169
100197
100225
100253
100280
100307
100334
100360
100386
100412
100437
100462
100487
100511
100535
100559
100582
100605
100628
100650
100673
100694
100716
100737
100757
100777
100797
100817
100836
100855
100873
100891
100908
100925
100942
100958
100974
100989
101004
101018
101032
101045
101058
101071
101083
101094
101105
101116
101126
101135
101144
101153
101162
101169
101177
101184
101191
101197
101203
101209
101214
101220
101224
101229
101233
101237
101241
101245
101248
101251
101254
101257
101260
101262
101265
101267
101269
101271
101273
101275
101277
101278
101280
101281
101283
101284
101285
101287
101288
101289
101290
101291
101292
101293
101294
101295
101296
101297
101298
101299
101299
101300
101301
101302
101302
101303
101304
101304
101305
101306
101306
101307
101308
101308
101309
101309
101310
101311
101311
101312
101313
101313
101314
101315
101315
101316
101317
101318
101319
101320
101321
101322
101323
101324
101324
96706.1
96698.7
96701.5
96712.6
96720.5
96729.2
96739.8
96750.1
96763
96776.2
96790.7
96804.8
96819.8
96834.1
96849.5
96866.2
96882.3
96898.2
96913.9
96929.5
96944.4
96959.4
96973.5
96985.2
96995.1
97002.1
97009.2
97013.1
97017.1
97017.2
97013.5
97006.7
96997.1
96985.9
96972.2
96956.8
96939.5
96914.1
96889
96856.2
96820.1
96785.1
96749.1
96706.6
96661.1
96611.6
96559.7
96505
96449.1
96386.7
96325.4
96264.3
96207.6
96152.4
96087.2
96038.5
95984.7
95935.6
95894.5
95842.9
95806.6
95770.3
95743.6
95720.3
95699.1
95683.4
95670
95660.6
95651.3
95645.1
95642
95642.2
95638.3
95628.1
95620
95611.3
95602.7
95595.6
95589.4
95584.6
95581.7
95579.1
95576.6
95574.2
95572.2
95570.3
95568.4
95562.6
95562.2
95571.1
95579.6
95588.4
95596.2
95604.9
95615
95624
95634.5
95645.8
95657.7
95671.4
95686.3
95701.5
95714.4
95726.8
95742.8
95760.4
95777.6
95794.1
95811.3
95829.9
95854.1
95875.1
95902.8
95929
95950.9
95975.6
96002.5
96030.6
96055.2
96081.8
96110.7
96140.9
96170.5
96197.4
96228.7
96248.8
96279.5
96304.5
96337.8
96370.5
96407.6
96445.8
96471.9
96510.9
96542.8
96575.6
96603.7
96635.2
96657.4
96665.3
96687.7
96720.5
96743.2
96767.9
96785.8
96803.1
96817.7
96836.2
96866.3
96887.4
96910.3
96927.4
96944.7
96960.6
96976.6
96992.1
97005.5
97018.9
97034.7
97045.3
97055.1
97063.3
97071.8
97076.1
97079
97086
97092.8
97097.8
97101.1
97103.7
97105.1
97105.1
97104.9
97104.3
97102.8
97098.4
97090.6
97082.7
97073.8
97064.2
97053.7
97042.9
97031
97016.4
97001.2
96986.5
96972.5
96957.4
96941.4
96925.5
96908.4
96890.4
96871.5
96853.5
96833.1
96813.3
96792.7
96772.1
96751
96729.8
96708.3
96686.6
96664.6
96642.6
96620.5
96598.4
96576.3
96554.2
96532.3
96510.6
96489.1
96467.7
96446.6
96425.9
96405.4
96385.3
96365.5
96346.2
96327.3
96308.9
96291
96273.7
96257
96240.9
96225.4
96210.4
96196.1
96182.5
96169.4
96157.1
96145.4
96134.4
96124.1
96114.6
96105.7
96097.5
96090.4
96084.4
96079.3
96074.8
96071.4
96069.2
96067.6
96067
96067.3
96068.3
96070.4
96073.5
96077.8
96083.1
96089.4
96096.8
96105.2
96114.8
96125.3
96137
96149.7
96163.5
96178.3
96194.2
96211
96229
96247.9
96267.9
96288.9
96310.8
96333.8
96357.7
96382.5
96408.3
96435
96462.6
96491.1
96520.4
96550.6
96581.7
96613.5
96646.1
96679.5
96713.6
96748.4
96783.8
96819.9
96856.7
96894
96932
96970.5
97009.6
97049.3
97089.5
97130.1
97171.3
97212.9
97254.9
97297.3
97340
97383.1
97426.5
97470.2
97514.3
97558.6
97603.1
97647.9
97692.8
97737.9
97783.1
97828.5
97873.9
97919.4
97965
98010.6
98056.2
98101.8
98147.4
98193
98238.5
98284
98329.3
98374.6
98419.7
98464.7
98509.6
98554.3
98598.8
98643.2
98687.4
98731.4
98775.2
98818.7
98862
98905
98947.8
98990.2
99032.3
99074.1
99115.6
99156.8
99197.6
99238
99278.1
99317.8
99357
99395.9
99434.3
99472.3
99509.8
99546.9
99583.6
99619.8
99655.6
99690.9
99725.8
99760.2
99794.1
99827.6
99860.7
99893.3
99925.4
99957.2
99988.5
100019
100050
100080
100109
100139
100168
100196
100224
100252
100279
100306
100333
100359
100385
100411
100436
100461
100486
100510
100534
100558
100581
100604
100627
100650
100672
100693
100715
100736
100756
100777
100797
100816
100835
100854
100872
100890
100908
100925
100941
100957
100973
100988
101003
101018
101031
101045
101058
101070
101082
101094
101105
101115
101125
101135
101144
101153
101161
101169
101177
101184
101191
101197
101203
101209
101215
101220
101224
101229
101233
101237
101241
101245
101248
101252
101255
101258
101260
101263
101265
101268
101270
101272
101274
101276
101278
101279
101281
101283
101284
101286
101287
101288
101289
101291
101292
101293
101294
101295
101296
101297
101298
101299
101300
101300
101301
101302
101303
101304
101304
101305
101306
101306
101307
101307
101308
101309
101309
101310
101310
101311
101311
101312
101313
101313
101314
101314
101315
101316
101316
101317
101318
101319
101319
101320
101321
101322
101323
101324
101325
96672.8
96669
96672.2
96684.8
96692.9
96701.2
96711.8
96722.7
96735.6
96749.6
96764.5
96778.6
96794.5
96809.2
96825.2
96841.9
96858.2
96874.5
96891
96907.4
96922.9
96938.2
96952.3
96963.9
96974.1
96982.7
96990.8
96996.7
97001.7
97004.4
97000.1
96995
96988.4
96978.3
96969
96951
96935.2
96912
96888.2
96855.9
96819.3
96783.8
96745.5
96702.1
96654.8
96604.7
96552.5
96497.8
96441.7
96377.3
96316.1
96258.4
96197.8
96142.2
96087.3
96028.2
95983.4
95934.7
95887.5
95851.6
95814.7
95771.2
95745.6
95718.9
95695.9
95676.8
95657.8
95642.7
95625.8
95605.9
95589.5
95582.7
95582.9
95585.8
95587.2
95587.9
95588.3
95587.8
95585.9
95584
95581.7
95579.8
95579
95578.7
95579.8
95583.4
95587.9
95586.8
95583.8
95583.3
95584.5
95587.2
95591.3
95597
95604.1
95611
95619.1
95628.4
95638.3
95649.4
95662.6
95678.7
95696.1
95714.2
95733.4
95752.8
95771.8
95790.5
95809
95828.8
95850.6
95868.6
95892.4
95915.8
95936.3
95959.8
95983.6
96011.6
96037.9
96066.5
96095.2
96124.3
96154.3
96181.8
96213.1
96242.6
96269.9
96302.2
96342.2
96383.1
96418.5
96455.5
96488.1
96504.2
96521.6
96554
96581.6
96607.3
96633.6
96643.4
96694.8
96718.7
96739.3
96763.1
96783.8
96805.5
96817.8
96853.8
96875.4
96892.9
96909.3
96925.5
96938
96955.3
96974.1
96990.4
97003.5
97018.1
97033.4
97045.2
97056.4
97066.3
97075.6
97084.1
97090.5
97094.4
97098
97101.2
97102.7
97103.2
97103
97101.5
97096.8
97091.8
97089.2
97086.8
97082.4
97076
97068.4
97059.9
97050.7
97041.6
97031.7
97020.8
97005.9
96991.2
96976.8
96961.8
96945.6
96928.8
96905.8
96888.2
96870.3
96851.9
96832.1
96813.1
96792.6
96772
96750.9
96729.6
96707.9
96686.2
96664.3
96642.3
96620.3
96598.2
96576.1
96554.1
96532.3
96510.6
96489
96467.7
96446.6
96425.9
96405.4
96385.3
96365.6
96346.3
96327.5
96309.1
96291.3
96274
96257.3
96241.3
96225.8
96211
96196.7
96183
96170
96157.7
96146
96135.1
96124.8
96115.4
96106.5
96098.4
96091.3
96085.3
96080.1
96075.7
96072.4
96070.1
96068.5
96067.9
96068.2
96069.3
96071.4
96074.5
96078.8
96084.1
96090.4
96097.8
96106.2
96115.7
96126.2
96137.8
96150.4
96164.1
96178.8
96194.6
96211.4
96229.3
96248.2
96268.1
96289
96310.9
96333.8
96357.6
96382.4
96408.1
96434.7
96462.2
96490.6
96519.9
96550.1
96581
96612.8
96645.3
96678.6
96712.6
96747.3
96782.7
96818.7
96855.4
96892.7
96930.6
96969.1
97008.2
97047.8
97088
97128.6
97169.7
97211.3
97253.3
97295.6
97338.4
97381.4
97424.8
97468.6
97512.6
97556.9
97601.5
97646.2
97691.2
97736.3
97781.5
97826.9
97872.4
97917.9
97963.5
98009.1
98054.8
98100.4
98146.1
98191.7
98237.2
98282.7
98328
98373.3
98418.5
98463.5
98508.4
98553.1
98597.7
98642.1
98686.4
98730.4
98774.1
98817.7
98861
98904
98946.7
98989.2
99031.3