/*--------------------------------*- C++ -*----------------------------------*\
| =========                 |                                                 |
| \\      /  F ield         | OpenFOAM: The Open Source CFD Toolbox           |
|  \\    /   O peration     | Version:  v1812                                 |
|   \\  /    A nd           | Web:      www.OpenFOAM.com                      |
|    \\/     M anipulation  |                                                 |
\*---------------------------------------------------------------------------*/
FoamFile
{
    version     2.0;
    format      ascii;
    class       surfaceScalarField;
    location    "0.5";
    object      phi;
}
// * * * * * * * * * * * * * * * * * * * * * * * * * * * * * * * * * * * * * //

dimensions      [1 0 -1 0 0 0 0];
oriented        oriented;


internalField   nonuniform List<scalar> 
40240
(
-0.000170372
0.000142278
-0.000135626
-6.24655e-05
-9.81357e-05
-6.73589e-05
-1.16233e-05
-0.000121944
0.000140892
-0.000183905
0.000364043
-0.000252504
0.000577649
-0.000241916
0.000763973
-0.000213432
0.000896442
-0.000158682
0.000956666
-8.55852e-05
0.000972605
-4.10668e-05
0.00096049
-9.92359e-06
0.000924763
1.56587e-05
0.000879781
2.83216e-05
0.000842356
2.24426e-05
0.000833244
-7.01218e-06
0.000847985
-3.21912e-05
0.000892332
-6.3609e-05
0.00096907
-9.74882e-05
0.00107566
-0.000129119
0.00120753
-0.000155861
0.00136094
-0.000178933
0.00153548
-0.0002017
0.00175025
-0.000243541
0.00202894
-0.00030967
0.00232924
-0.000332878
0.0025822
-0.000288541
0.00281565
-0.000273145
0.00306058
-0.000286907
0.00331147
-0.000295401
0.00357263
-0.00030853
0.00381753
-0.000293149
0.00403078
-0.000262908
0.0042504
-0.000270132
0.00455748
-0.000363805
0.00490489
-0.000407733
0.00509069
-0.000256665
0.00522197
-0.000211619
0.00531528
-0.000167762
0.00518749
6.88285e-05
0.00491277
0.00018692
0.00467981
0.000138579
0.00454648
3.16535e-05
0.00440598
3.58115e-05
0.00418308
0.000115137
0.00383112
0.000241276
0.00332466
0.00039447
0.00262108
0.000590291
0.00165703
0.000848076
0.000359726
0.00117969
-0.00125475
0.00149646
-0.00316915
0.00179509
-0.00533956
0.00205006
-0.0076911
0.002228
-0.0102277
0.00240995
-0.0128126
0.00245449
-0.0153397
0.00239253
-0.0176483
0.00217015
-0.0196319
0.00184211
-0.0213699
0.00159376
-0.0229989
0.00148222
-0.0244321
0.00128594
-0.0256939
0.00111344
-0.0267618
0.000918246
-0.0277117
0.000802751
-0.0284349
0.000578896
-0.0288643
0.000286645
-0.0290373
3.20586e-05
-0.0290364
-0.000136219
-0.0287671
-0.000404742
-0.0281785
-0.000721567
-0.0273444
-0.000963107
-0.0263078
-0.00116103
-0.0251718
-0.00125673
-0.0240024
-0.00128778
-0.0227786
-0.00133777
-0.0214143
-0.0014757
-0.0199442
-0.00157413
-0.0184055
-0.00163661
-0.0168624
-0.00163708
-0.015344
-0.00160738
-0.0138239
-0.00160397
-0.0123052
-0.00159727
-0.0107761
-0.00160031
-0.00922976
-0.00161574
-0.00770446
-0.00158969
-0.00636542
-0.00140023
-0.0052989
-0.00112219
-0.00416419
-0.00118666
-0.00293456
-0.00127614
-0.00153239
-0.00144515
-9.69908e-05
-0.00147303
0.00128008
-0.00141146
0.00264856
-0.00139468
0.00410436
-0.00147616
0.0055738
-0.00148175
0.00700223
-0.00143484
0.0082889
-0.00128532
0.00940495
-0.00110617
0.0103594
-0.000936132
0.0111575
-0.00077161
0.0118117
-0.000619984
0.0123472
-0.000493704
0.012808
-0.000411714
0.0132393
-0.000371549
0.0136677
-0.000358004
0.0139448
-0.000200538
0.0138173
0.000216015
0.0135141
0.000400221
0.0131453
0.000476532
0.0128529
0.000408941
0.0126395
0.000343961
0.0125171
0.00025699
0.0120184
0.000643345
0.0112122
0.000953908
0.0102234
0.00114257
0.00921362
0.00116864
0.00831722
0.00106002
0.00750628
0.000979682
0.00670744
0.000971734
0.00587039
0.00101475
0.0049829
0.00106856
0.00404513
0.00112249
0.00308544
0.00114862
0.0021488
0.00113043
0.00137114
0.000976146
0.00089935
0.00067638
0.000727435
0.00038223
0.000683249
0.000261246
0.000627423
0.000275939
0.000385375
0.000466347
-0.000176997
0.000789743
-0.000973672
0.00101869
-0.00171872
0.000974052
-0.00208703
0.000601747
-0.00206718
0.00021644
-0.00197026
0.000139286
-0.00193816
0.000202901
-0.00212561
0.000423617
-0.00243555
0.000546601
-0.00270179
0.00050359
-0.00287332
0.000408106
-0.00293338
0.000295465
-0.00292147
0.000219675
-0.0028929
0.000202481
-0.00287888
0.000213403
-0.00290183
0.000245175
-0.00292221
0.000242886
-0.00292309
0.000217515
-0.00288464
0.000174617
-0.00276396
8.60799e-05
-0.00261106
4.90892e-05
-0.00243145
1.64693e-05
-0.00221129
-2.99338e-05
-0.00196055
-6.7058e-05
-0.00170216
-8.13637e-05
-0.00143062
-0.000101758
-0.00115726
-0.000110919
-0.000873042
-0.000130284
-0.000573696
-0.000153832
-0.000251916
-0.000185648
7.21946e-05
-0.000197535
0.00038639
-0.000197277
0.000686925
-0.000193147
0.000975335
-0.000190689
0.00126877
-0.000205044
0.00160279
-0.000255724
0.00198004
-0.000309828
0.00237521
-0.000337933
0.00274838
-0.000328017
0.00306679
-0.00028223
0.00334777
-0.000254201
0.00359724
-0.000234216
0.00381375
-0.000212732
0.00400158
-0.000194737
0.00417649
-0.000191528
0.00434279
-0.000192753
0.00447317
-0.000166977
0.00454827
-0.000121807
0.00458648
-9.43251e-05
0.00460071
-7.9363e-05
0.00459722
-7.41494e-05
0.00459178
-7.84489e-05
0.00458764
-8.83634e-05
0.00457604
-9.04458e-05
0.0045342
-6.8924e-05
0.00445146
-3.58386e-05
0.00434919
-2.52357e-05
0.00422698
-1.29122e-05
0.00408792
-3.44376e-06
0.00392958
8.72642e-06
0.00374914
2.42703e-05
0.00355588
3.09049e-05
0.00334764
3.99021e-05
0.00313008
4.3933e-05
0.00290583
4.56679e-05
0.00267978
4.31282e-05
0.00245338
3.96279e-05
0.00222802
3.52909e-05
0.00200303
3.2165e-05
0.0017767
3.13538e-05
0.00154572
3.44226e-05
0.00130608
4.21057e-05
0.00105461
5.35065e-05
0.000790276
6.64595e-05
0.000515011
7.79546e-05
0.00023327
8.55024e-05
-4.95806e-05
8.81387e-05
-0.00032898
8.64801e-05
-0.000601243
8.15913e-05
-0.000864289
7.50715e-05
-0.00111822
6.90784e-05
-0.00136562
6.60876e-05
-0.00161074
6.77533e-05
-0.00185794
7.41877e-05
-0.00211026
8.40775e-05
-0.00236833
9.49301e-05
-0.00263004
0.000104027
-0.00289149
0.000109503
-0.00314806
0.000110591
-0.00339491
0.000107066
-0.00362779
9.94835e-05
-0.00384384
8.92123e-05
-0.00404217
7.81952e-05
-0.00422438
6.88726e-05
-0.00439461
6.37397e-05
-0.00455872
6.44276e-05
-0.00472325
7.16156e-05
-0.0048943
8.48601e-05
-0.00507609
0.000102294
-0.00526956
0.00012065
-0.00547216
0.000136405
-0.00567745
0.000145776
-0.00587856
0.000148387
-0.00606888
0.000144726
-0.00624254
0.000135613
-0.006396
0.000123172
-0.0065277
0.000109458
-0.00663909
9.68089e-05
-0.0067359
8.93725e-05
-0.00682205
8.68107e-05
-0.00690254
8.94128e-05
-0.00698386
9.74587e-05
-0.00707199
0.000110027
-0.00716809
0.000124501
-0.00726925
0.000137549
-0.00737
0.000146199
-0.00746528
0.000148991
-0.00755178
0.000148174
-0.00762701
0.000144449
-0.00768959
0.00013927
-0.00773901
0.000133504
-0.00777593
0.000128358
-0.00780237
0.000124998
-0.00782094
0.000124132
-0.00783396
0.0001258
-0.0078426
0.000129001
-0.0078477
0.00013227
-0.00784816
0.00013491
-0.00784509
0.000136398
-0.00783539
0.000136612
-0.0078188
0.000136455
-0.00779557
0.000136139
-0.00776615
0.000136142
-0.00773146
0.000136972
-0.00769269
0.000138885
-0.00765095
0.000141785
-0.00760693
0.000145273
-0.00756058
0.000148564
-0.00751079
0.000150636
-0.00745576
0.000150784
-0.00739355
0.000148897
-0.00732269
0.000145447
-0.00724254
0.00014126
-0.00715346
0.000137336
-0.00705699
0.000134823
-0.00695566
0.000134735
-0.00685263
0.00013769
-0.00675091
0.00014355
-0.0066525
0.000151331
-0.0065578
0.000159383
-0.00646545
0.000165977
-0.00637273
0.000169768
-0.00627629
0.000170117
-0.006173
0.000167291
-0.0060605
0.000162026
-0.00593723
0.00015516
-0.00580298
0.000147984
-0.00565855
0.000141548
-0.00550606
0.000137153
-0.00534879
0.000135971
-0.00519053
0.000138499
-0.00503459
0.000144258
-0.00488279
0.000151756
-0.00473467
0.000158708
-0.00458776
0.000163091
-0.00443884
0.000164142
-0.0042852
0.000162342
-0.00412523
0.000158808
-0.00395842
0.000154636
-0.00378521
0.000150761
-0.00360684
0.000147953
-0.00342512
0.0001468
-0.00324194
0.000147382
-0.00305861
0.000149081
-0.00287527
0.000150771
-0.00269112
0.000151498
-0.00250514
0.000151038
-0.00231663
0.000149719
-0.00212531
0.000147959
-0.00193124
0.000146109
-0.00173482
0.000144511
-0.0015368
0.000143517
-0.00133814
0.000143341
-0.0011397
0.000143876
-0.000941942
0.000144752
-0.000744898
0.000145538
-0.000548152
0.000145813
-0.000350968
0.000145267
-0.000152457
0.00014373
4.81407e-05
0.000141246
0.000251226
0.000138211
0.000456818
0.000135088
0.000664456
0.000132359
0.000873238
0.000130458
0.00108194
0.000129702
0.00128936
0.000130067
0.00149466
0.000131191
0.00169753
0.000132548
0.00189823
0.000133591
0.0020975
0.000133817
0.00229643
0.000132894
0.00249611
0.00013082
0.00269732
0.000127909
0.00290035
0.000124674
0.00310494
0.000121634
0.00331049
0.000119177
0.00351619
0.00011748
0.00372131
0.000116488
0.00392532
0.000115977
0.00412804
0.000115622
0.0043296
0.000115093
0.00453035
0.000114175
0.00473074
0.0001128
0.00493114
0.000111019
0.00513178
0.000108985
0.00533267
0.000106921
0.00553359
0.000105067
0.00573408
0.000103634
0.00593365
0.000102679
0.00613184
0.000102141
0.00632844
0.000101808
0.00652341
0.000101461
0.00671693
0.000100922
0.0069092
0.000100143
0.00710035
9.92072e-05
0.00729035
9.82535e-05
0.00747904
9.74145e-05
0.00766625
9.67148e-05
0.00785184
9.61054e-05
0.00803573
9.5518e-05
0.00821797
9.48319e-05
0.00839873
9.39155e-05
0.00857825
9.27085e-05
0.00875668
9.12677e-05
0.00893405
8.97426e-05
0.00911017
8.83326e-05
0.00928475
8.71538e-05
0.00945734
8.63394e-05
0.00962747
8.59261e-05
0.00979472
8.58619e-05
0.0099588
8.60153e-05
0.0101195
8.62455e-05
0.0102769
8.64286e-05
0.0104311
8.64134e-05
0.0105823
8.59817e-05
0.0107312
8.50022e-05
0.0108781
8.35209e-05
0.0110234
8.16309e-05
0.0111674
7.94537e-05
0.0113099
7.72488e-05
0.0114509
7.52767e-05
0.0115898
7.37133e-05
0.0117261
7.26054e-05
0.0118594
7.19833e-05
0.0119892
7.18222e-05
0.0121152
7.19286e-05
0.0122374
7.21065e-05
0.0123558
7.22468e-05
0.0124707
7.21735e-05
0.0125823
7.17135e-05
0.0126913
7.08123e-05
0.012798
6.95061e-05
0.0129028
6.78609e-05
0.013006
6.5922e-05
0.0131079
6.37772e-05
0.0132085
6.15468e-05
0.0133079
5.93142e-05
0.0134062
5.71583e-05
0.013503
5.51809e-05
0.0135983
5.34586e-05
0.0136918
5.20077e-05
0.0137832
5.08125e-05
0.0138724
4.98498e-05
0.0139592
4.90691e-05
0.0140436
4.83693e-05
0.0141256
4.76219e-05
0.0142055
4.67205e-05
0.0142834
4.55971e-05
0.0143596
4.42365e-05
0.0144343
4.26641e-05
0.0145077
4.09358e-05
0.0145798
3.91417e-05
0.0146505
3.73958e-05
0.0147198
3.58129e-05
0.0147873
3.44739e-05
0.0148529
3.33718e-05
0.0149162
3.24505e-05
0.0149773
3.16032e-05
0.0150361
3.0761e-05
0.0150926
2.98764e-05
0.015147
2.89575e-05
0.0151991
2.80163e-05
0.0152492
2.70583e-05
0.0152972
2.6076e-05
0.0153432
2.50619e-05
0.0153873
2.39447e-05
0.0154296
2.28128e-05
0.0154701
2.16577e-05
0.0155089
2.05451e-05
0.015546
1.95133e-05
0.0155813
1.85934e-05
0.0156148
1.77441e-05
0.0156465
1.69327e-05
0.0156765
1.61307e-05
0.0157049
1.53074e-05
0.0157318
1.44785e-05
0.0157573
1.36623e-05
0.0157814
1.28963e-05
0.0158041
1.22332e-05
0.0158253
1.17091e-05
0.015845
1.1303e-05
0.0158633
1.09512e-05
0.0158802
1.06027e-05
0.0158959
1.02374e-05
0.0159104
9.84635e-06
0.0159239
9.42287e-06
0.0159365
8.97926e-06
0.0159483
8.52717e-06
0.0159593
8.06296e-06
0.0159698
7.5811e-06
0.0159796
7.0937e-06
0.0159891
6.62453e-06
0.015998
6.19085e-06
0.0160066
5.79472e-06
0.0160148
5.41818e-06
0.0160227
5.05761e-06
0.0160304
4.71607e-06
0.0160377
4.40356e-06
0.0160449
4.13063e-06
0.0160518
3.8895e-06
0.0160585
3.6725e-06
0.0160651
3.46943e-06
0.0160717
3.25549e-06
0.0160782
3.00684e-06
0.0160848
2.71169e-06
0.0160916
2.38302e-06
0.0160985
2.06696e-06
0.0161057
1.80875e-06
0.0161129
1.6152e-06
0.0161203
1.45541e-06
0.0161278
1.23136e-06
0.0161356
8.39144e-07
0.0161439
2.60802e-07
0.0161529
-4.24224e-07
0.0161626
-1.27056e-06
0.0161731
-2.32237e-06
0.0161847
-3.50168e-06
0.0161971
-4.63369e-06
0.0162101
-5.30097e-06
0.0162228
-5.40637e-06
0.0162346
-4.68732e-06
0.0162449
-3.52814e-06
0.0162534
-2.1537e-06
0.01626
-6.15982e-07
0.0162649
6.59914e-07
0.0162686
1.40082e-06
0.0162719
1.46569e-06
0.0162751
1.0549e-06
0.0162787
2.7856e-07
0.0162828
-5.8606e-07
0.0162869
-1.06125e-06
0.0162908
-1.27254e-06
0.0162941
-1.07795e-06
0.0162964
-5.79933e-07
0.0162973
4.31836e-07
0.0162978
5.37632e-07
0.016298
5.45763e-07
0.0162981
3.0192e-07
-4.10456e-07
1.1516e-05
9.79334e-05
0.000131469
-0.000208674
0.000310294
-0.000274716
0.000562935
-0.000397779
0.000903449
-0.000548673
0.00131985
-0.000691235
0.00176029
-0.000704227
0.00218691
-0.000660768
0.00256268
-0.000554813
0.00286169
-0.000404786
0.00309821
-0.00029814
0.00326216
-0.000193508
0.00338997
-0.000126965
0.00349169
-8.60518e-05
0.0035846
-8.31495e-05
0.00369444
-0.000130285
0.00383293
-0.000187882
0.00400219
-0.000251411
0.00421525
-0.000331044
0.0044707
-0.000406575
0.00475983
-0.000468508
0.00507556
-0.000519761
0.00540773
-0.000560694
0.00574981
-0.000614417
0.00611059
-0.000701801
0.00645045
-0.000706475
0.00673197
-0.000606666
0.00697695
-0.000559249
0.00721359
-0.000568342
0.00742942
-0.00055886
0.00762022
-0.000551021
0.00774726
-0.000473025
0.00776578
-0.00033699
0.00772053
-0.000283368
0.0075906
-0.000290923
0.00741193
-0.000284326
0.00712171
-3.37132e-05
0.00647133
0.000369543
0.00567134
0.000547412
0.00511753
0.000514518
0.00452441
0.000689797
0.00360223
0.000959282
0.00234665
0.00118794
0.000772281
0.00150691
-0.00107122
0.00185451
-0.00313468
0.00219947
-0.00540328
0.00255582
-0.007907
0.00298387
-0.0106873
0.0035151
-0.0137751
0.00414901
-0.0171531
0.0047479
-0.0207133
0.00522264
-0.0243353
0.00553521
-0.0279009
0.00565235
-0.0314077
0.00577267
-0.0347472
0.00564702
-0.0378836
0.00537938
-0.0407477
0.00488236
-0.0432624
0.00420313
-0.0453602
0.00353606
-0.0469665
0.00293237
-0.0479405
0.00210337
-0.0481544
0.00116709
-0.048003
0.000614293
-0.0473532
-7.08717e-06
-0.046565
-0.000367242
-0.0456868
-0.000747858
-0.0447001
-0.00110967
-0.0435753
-0.00141269
-0.0422994
-0.00183111
-0.0408878
-0.00228122
-0.0392865
-0.00270942
-0.0373988
-0.00318914
-0.0352392
-0.00354951
-0.0328557
-0.00379876
-0.0303024
-0.00401831
-0.0276525
-0.00424984
-0.0249219
-0.00442182
-0.0221997
-0.00446894
-0.0195522
-0.00438982
-0.0171182
-0.0041432
-0.0149707
-0.00384766
-0.0130785
-0.00357728
-0.0114722
-0.00329524
-0.00994819
-0.00322085
-0.00839973
-0.00321712
-0.00671623
-0.00315852
-0.00405202
-0.00385335
-0.000911569
-0.00439311
0.00213756
-0.0043862
0.00493922
-0.00430292
0.0075613
-0.00414556
0.0103018
-0.00419671
0.0132099
-0.00434036
0.0162147
-0.00451451
0.0190991
-0.00439497
0.0217632
-0.00412314
0.024228
-0.00376806
0.0265629
-0.00345183
0.0288111
-0.00318854
0.0310339
-0.00299234
0.0333208
-0.00289922
0.0357504
-0.00291044
0.0382539
-0.00289992
0.0404224
-0.00252063
0.0416299
-0.00154552
0.0417521
-0.000292418
0.0416214
0.000396783
0.041294
0.000787977
0.040919
0.000922131
0.0405919
0.00081649
0.0401832
0.00084959
0.0396695
0.000887536
0.0390851
0.00136218
0.0382661
0.00191147
0.0371455
0.00240742
0.0356527
0.00281099
0.033842
0.00302876
0.0317802
0.00321079
0.0295639
0.00336694
0.0272592
0.00350641
0.0249332
0.00358477
0.0225991
0.00364879
0.0203396
0.00360154
0.0182823
0.00338476
0.0165093
0.00295036
0.0149785
0.0024136
0.0135966
0.00197523
0.0123221
0.00175112
0.01105
0.00176431
0.00965338
0.00208234
0.00819641
0.00246902
0.00687008
0.00257447
0.00575583
0.00232047
0.0049627
0.00162874
0.00452758
0.000888161
0.00427642
0.000628004
0.00401807
0.000699453
0.00368419
0.000996376
0.00332243
0.00114806
0.00297663
0.00108965
0.0026789
0.000944981
0.00245902
0.000752664
0.00233019
0.000583032
0.00226514
0.000500227
0.00224809
0.000459821
0.00223894
0.000479044
0.00225383
0.000452535
0.00232893
0.000360776
0.00246
0.000258126
0.00265827
9.63392e-05
0.00290905
1.04052e-06
0.00320585
-8.37453e-05
0.00355938
-0.000193079
0.0039719
-0.000295654
0.0044339
-0.000366116
0.00494613
-0.000444116
0.00549321
-0.000495656
0.00608419
-0.000567574
0.0066949
-0.000620102
0.00731619
-0.000672024
0.00792507
-0.000681404
0.00849851
-0.000655826
0.00901957
-0.000609316
0.00948525
-0.000561411
0.00991047
-0.000545344
0.0103571
-0.000627247
0.0108731
-0.000762221
0.0114682
-0.000878902
0.0121211
-0.00093865
0.0127395
-0.000869939
0.0133065
-0.000799143
0.0138327
-0.000748726
0.0143266
-0.000706098
0.0147845
-0.000662844
0.0152135
-0.000640658
0.0156099
-0.00061914
0.0159318
-0.000528892
0.0161477
-0.000387958
0.016278
-0.000283616
0.0163415
-0.000210655
0.0163539
-0.000165626
0.0163375
-0.000148895
0.0163115
-0.00015774
0.0163066
-0.000190931
0.016296
-0.000170448
0.016263
-0.000122834
0.0162172
-0.000107979
0.016155
-8.6605e-05
0.0160709
-6.26092e-05
0.0159635
-3.41589e-05
0.0158225
8.52711e-06
0.0156574
3.33298e-05
0.0154716
5.72696e-05
0.0152714
7.04656e-05
0.0150614
7.69901e-05
0.0148463
7.54512e-05
0.0146281
7.12607e-05
0.0144081
6.54456e-05
0.0141854
6.22992e-05
0.0139589
6.31082e-05
0.0137278
6.9306e-05
0.0134906
8.19812e-05
0.0132466
9.99111e-05
0.0129954
0.000120044
0.0127386
0.000137857
0.0124785
0.000149629
0.0122183
0.000153764
0.0119611
0.000151023
0.0117095
0.000142838
0.011465
0.00013197
0.011228
0.000121582
0.0109978
0.000115339
0.0107727
0.000115884
0.0105507
0.000123488
0.0103307
0.00013618
0.0101126
0.000150224
0.00989764
0.000161596
0.00968798
0.000167514
0.00948606
0.000166838
0.0092944
0.000159234
0.00911526
0.000145511
0.00895014
0.000127792
0.00879904
0.000109452
0.00866044
9.44357e-05
0.0085313
8.66411e-05
0.00840803
8.82637e-05
0.00828695
0.000100004
0.00816493
0.000120895
0.00804
0.000147954
0.00791208
0.000175993
0.00778314
0.000199425
0.00765725
0.000212445
0.00753875
0.000214461
0.00743171
0.000206493
0.00734011
0.000189548
0.00726657
0.000166706
0.00721158
0.000142431
0.00717549
0.000119205
0.00715341
0.000104303
0.00714228
9.78408e-05
0.00713806
0.000103484
0.00713668
0.000115279
0.00713439
0.000134981
0.00712907
0.000158092
0.00712403
0.000179077
0.00712351
0.00019326
0.00712653
0.000199587
0.00713902
0.000197819
0.00716217
0.000190792
0.00719779
0.000180677
0.00724637
0.000169318
0.00730788
0.000158571
0.00738138
0.00015045
0.00746538
0.000146246
0.00755813
0.000146404
0.00765794
0.000149689
0.00776354
0.000153985
0.00787467
0.000157693
0.00799145
0.000159902
0.00811419
0.000160752
0.00824308
0.000160895
0.00837808
0.000160809
0.00851894
0.00016114
0.00866525
0.000162593
0.00881649
0.000165559
0.00897213
0.000169921
0.00913178
0.00017512
0.00929545
0.000180013
0.00946379
0.000182972
0.00963795
0.000182745
0.00981926
0.000179032
0.0100088
0.000172656
0.0102067
0.000165159
0.0104125
0.000158392
0.0106247
0.000154374
0.0108412
0.000154745
0.0110595
0.000160407
0.0112777
0.000171038
0.0114941
0.000184987
0.0117085
0.000199435
0.011922
0.000211279
0.0121367
0.000217913
0.0123559
0.000217893
0.0125827
0.000211571
0.0128192
0.000200497
0.0130668
0.000186398
0.0133257
0.000171695
0.0135948
0.000158799
0.0138718
0.000150201
0.0141534
0.000147914
0.0144363
0.000152751
0.0147172
0.000163873
0.0149942
0.000178695
0.015267
0.000193051
0.0155376
0.000202927
0.0158088
0.000206445
0.0160834
0.000204156
0.0163634
0.000198097
0.0166495
0.000190473
0.0169414
0.000183199
0.0172384
0.000177778
0.0175388
0.000175341
0.0178409
0.000176218
0.0181433
0.000179526
0.0184454
0.000183285
0.0187475
0.000185543
0.0190505
0.000185604
0.019355
0.000183984
0.0196612
0.000181589
0.0199688
0.000179203
0.0202774
0.000177417
0.0205863
0.000176719
0.0208948
0.000177376
0.0212025
0.000179186
0.0215088
0.000181544
0.0218139
0.000183737
0.0221178
0.00018505
0.0224213
0.000184914
0.0227248
0.000182979
0.0230291
0.000179307
0.0233348
0.000174492
0.0236418
0.000169439
0.0239497
0.000165174
0.0242574
0.000162647
0.0245636
0.000162592
0.0248667
0.000165047
0.0251658
0.000169291
0.0254602
0.000174157
0.0257504
0.00017837
0.0260373
0.000180735
0.0263223
0.000180447
0.026607
0.000177435
0.0268924
0.000172353
0.0271793
0.000166346
0.0274673
0.000160587
0.027756
0.000155983
0.0280444
0.000152995
0.0283317
0.000151581
0.0286171
0.000151318
0.0289003
0.000151538
0.0291813
0.000151535
0.0294604
0.000150831
0.0297379
0.000149262
0.0300143
0.000146907
0.0302897
0.000144038
0.0305642
0.000141035
0.0308377
0.000138337
0.0311099
0.000136375
0.0313802
0.000135353
0.0316482
0.000135253
0.0319134
0.000135717
0.0321758
0.000136293
0.0324354
0.000136547
0.0326924
0.000136297
0.032947
0.000135663
0.0331993
0.000134943
0.0334491
0.000134452
0.0336962
0.000134272
0.0339404
0.000134277
0.0341817
0.000134261
0.0344204
0.000133906
0.0346569
0.000132874
0.0348915
0.000131005
0.0351247
0.00012846
0.0353565
0.000125681
0.0355867
0.000123253
0.0358147
0.000121544
0.0360397
0.000120856
0.036261
0.000121237
0.036478
0.000122521
0.0366903
0.000124356
0.0368977
0.000126373
0.0371001
0.000128273
0.0372979
0.000129753
0.0374913
0.000130363
0.0376809
0.000129762
0.0378675
0.000127915
0.0380517
0.000124897
0.0382342
0.000120898
0.0384152
0.000116512
0.0385948
0.000112483
0.0387721
0.000109433
0.0389464
0.000107661
0.0391167
0.00010731
0.0392823
0.000108313
0.0394424
0.000110162
0.0395969
0.000112256
0.039746
0.00011418
0.0398901
0.000115454
0.04003
0.000115671
0.0401663
0.000114729
0.0402996
0.000112767
0.0404305
0.000109975
0.0405595
0.000106457
0.0406869
0.000102374
0.0408131
9.79779e-05
0.040938
9.34916e-05
0.0410618
8.91466e-05
0.0411842
8.52449e-05
0.0413047
8.206e-05
0.0414228
7.97146e-05
0.041538
7.81907e-05
0.0416498
7.73819e-05
0.041758
7.70858e-05
0.0418625
7.69898e-05
0.0419633
7.6736e-05
0.0420609
7.60411e-05
0.0421556
7.47387e-05
0.0422478
7.28007e-05
0.0423378
7.02986e-05
0.042426
6.73665e-05
0.0425126
6.42054e-05
0.0425974
6.10726e-05
0.0426804
5.82466e-05
0.0427612
5.59574e-05
0.0428396
5.4248e-05
0.0429151
5.3021e-05
0.0429877
5.20256e-05
0.0430573
5.10522e-05
0.043124
4.9933e-05
0.043188
4.86428e-05
0.0432493
4.72158e-05
0.0433081
4.57104e-05
0.0433644
4.41398e-05
0.0434184
4.24378e-05
0.0434701
4.05949e-05
0.0435198
3.85537e-05
0.0435675
3.65015e-05
0.0436133
3.44698e-05
0.0436573
3.24473e-05
0.0436995
3.06431e-05
0.0437397
2.90895e-05
0.0437779
2.77039e-05
0.0438142
2.63685e-05
0.0438486
2.49622e-05
0.0438814
2.34763e-05
0.0439126
2.19354e-05
0.0439424
2.04406e-05
0.0439707
1.9168e-05
0.0439973
1.82784e-05
0.0440222
1.77775e-05
0.0440452
1.75115e-05
0.0440664
1.73011e-05
0.0440858
1.70246e-05
0.0441037
1.66143e-05
0.0441203
1.60417e-05
0.0441359
1.53552e-05
0.0441503
1.464e-05
0.0441639
1.39528e-05
0.0441764
1.33058e-05
0.0441881
1.26963e-05
0.044199
1.2121e-05
0.0442091
1.15699e-05
0.0442185
1.1024e-05
0.0442274
1.04495e-05
0.0442359
9.8637e-06
0.0442439
9.31001e-06
0.0442515
8.83945e-06
0.0442587
8.485e-06
0.0442655
8.22108e-06
0.0442719
8.00991e-06
0.0442779
7.8137e-06
0.0442836
7.57458e-06
0.0442892
7.23975e-06
0.0442948
6.77901e-06
0.0443004
6.21162e-06
0.0443061
5.63071e-06
0.044312
5.14509e-06
0.0443179
4.79714e-06
0.0443239
4.55123e-06
0.0443299
4.21433e-06
0.0443363
3.518e-06
0.0443431
2.32151e-06
0.0443509
7.87508e-07
0.0443598
-1.39786e-06
0.0443701
-4.11863e-06
0.0443822
-7.17534e-06
0.0443959
-1.02318e-05
0.0444109
-1.23494e-05
0.0444261
-1.29791e-05
0.0444403
-1.15531e-05
0.0444526
-8.78783e-06
0.0444623
-5.17437e-06
0.0444691
-1.14294e-06
0.0444735
2.14155e-06
0.0444763
3.99937e-06
0.0444787
4.11722e-06
0.0444814
2.93679e-06
0.0444853
5.84372e-07
0.0444909
-2.35211e-06
0.0444977
-4.57996e-06
0.0445051
-5.73022e-06
0.0445121
-5.69991e-06
0.0445182
-4.6808e-06
0.0445229
-2.62817e-06
0.0445262
-1.48481e-06
0.0445286
-9.06501e-07
0.0445306
-1.07983e-06
-9.47852e-07
0.000255029
-0.000179218
0.000654983
-0.000633765
0.00106781
-0.000710477
0.0014635
-0.000819743
0.00185073
-0.000962906
0.00225539
-0.00112239
0.00267373
-0.00114973
0.00307683
-0.00108994
0.00343626
-0.000940445
0.00373854
-0.000733069
0.00399924
-0.000581715
0.00420334
-0.00041033
0.0043881
-0.000327123
0.00455754
-0.000271636
0.00473096
-0.000274015
0.00493064
-0.000346029
0.00517237
-0.00044528
0.00545984
-0.000558807
0.00581274
-0.000705229
0.00623367
-0.000850626
0.00671229
-0.000971674
0.00723737
-0.00107102
0.00779544
-0.00114686
0.00837291
-0.00122209
0.00894972
-0.00131139
0.00946442
-0.00125612
0.00990155
-0.00108201
0.0102856
-0.000985046
0.0105883
-0.000915268
0.0107696
-0.000786309
0.0108159
-0.000646036
0.0107792
-0.000488409
0.0105341
-0.000143588
0.0100407
0.000157944
0.00942002
0.000275642
0.00872178
0.000359403
0.00806525
0.00055845
0.0073972
0.000963075
0.00670169
0.00115945
0.00596981
0.00114131
0.00483327
0.00172565
0.00279705
0.0028899
2.52817e-05
0.00385464
-0.00316736
0.00459574
-0.00661515
0.00519914
-0.010201
0.00568426
-0.013887
0.00613797
-0.0176821
0.00666915
-0.0215876
0.00730317
-0.025572
0.00801002
-0.0294782
0.00852848
-0.033173
0.00878683
-0.036541
0.00877104
-0.0394393
0.00841273
-0.0418441
0.00803359
-0.0436717
0.00732569
-0.045016
0.00656985
-0.0461524
0.00586096
-0.0472034
0.00509349
-0.0480308
0.00419987
-0.0483348
0.00306999
-0.0484966
0.00209896
-0.0485489
0.00105179
-0.0483479
0.000251643
-0.0478358
-0.000681387
-0.0470603
-0.00130235
-0.0461623
-0.00180358
-0.0451509
-0.00227601
-0.043988
-0.00272519
-0.0426633
-0.00330225
-0.0411975
-0.00388915
-0.0394911
-0.00455266
-0.0374639
-0.00534798
-0.034948
-0.0061937
-0.0319727
-0.00689822
-0.0286994
-0.00740745
-0.025337
-0.00771915
-0.0219987
-0.00786493
-0.0187336
-0.00783762
-0.0155393
-0.00768353
-0.0124195
-0.00735687
-0.00935824
-0.00699624
-0.00631009
-0.00670725
-0.00315388
-0.00652333
0.000118968
-0.00656463
0.00348524
-0.00665009
0.00705037
-0.00678719
0.0105405
-0.00740439
0.0139286
-0.00784148
0.017389
-0.00790495
0.020968
-0.0079378
0.0246183
-0.00784815
0.0279455
-0.00757669
0.0305387
-0.00698892
0.0324342
-0.00645539
0.0341098
-0.00610579
0.035911
-0.00595116
0.0379502
-0.00582859
0.0401441
-0.00566195
0.0423928
-0.00544694
0.0446409
-0.00524487
0.0468485
-0.00510649
0.0490183
-0.00507767
0.0511243
-0.00500475
0.0530636
-0.00446137
0.0547154
-0.00320977
0.0561321
-0.00171156
0.0575176
-0.000970614
0.0589787
-0.000638362
0.0605316
-0.000583556
0.0619857
-0.000589333
0.0628026
7.59606e-05
0.0628393
0.000893036
0.0622501
0.00201623
0.0610119
0.00323485
0.0593817
0.00414286
0.057557
0.00475074
0.0556751
0.0050364
0.0537141
0.00531497
0.0516158
0.00562828
0.0493561
0.00594883
0.0470206
0.00611753
0.0446346
0.00624563
0.0422582
0.00619687
0.0398558
0.00600967
0.0373432
0.00568557
0.0346633
0.00531279
0.0319441
0.00491815
0.0295023
0.00442627
0.0274237
0.00408369
0.025567
0.00418242
0.0237192
0.00455828
0.0217438
0.0047868
0.0197881
0.00451346
0.0182072
0.00345296
0.0171408
0.00219888
0.0164229
0.00159312
0.0157496
0.00161771
0.0149417
0.0020485
0.0139978
0.00233657
0.0130393
0.00229411
0.0122893
0.00194176
0.0119087
0.00137908
0.0117456
0.00098817
0.0117178
0.00076698
0.0117381
0.000673556
0.0117509
0.000696224
0.0117225
0.000710045
0.0116835
0.000623259
0.0117163
0.000444708
0.0119667
5.92994e-05
0.012352
-0.000178156
0.0128238
-0.000355661
0.0133547
-0.000530912
0.0139259
-0.000681168
0.0144803
-0.000741885
0.0150097
-0.00080221
0.0155234
-0.000845742
0.0160863
-0.000974669
0.0167631
-0.00115077
0.0175376
-0.00130985
0.0184053
-0.00142252
0.0193771
-0.00151118
0.0204706
-0.00159655
0.0216768
-0.00167218
0.0229064
-0.00169112
0.0240346
-0.00168487
0.0249418
-0.00161309
0.0255967
-0.00148856
0.0260453
-0.00135148
0.0264582
-0.00125727
0.026879
-0.00120424
0.0273105
-0.00117496
0.0277296
-0.00113106
0.0281168
-0.00106656
0.0284914
-0.00104162
0.0288958
-0.00105883
0.0293408
-0.00101918
0.0297876
-0.000889268
0.0302049
-0.00076447
0.0305978
-0.000675638
0.0309856
-0.000634592
0.0313597
-0.000612651
0.0316769
-0.000574253
0.0318718
-0.000493929
0.0319103
-0.000326774
0.0318801
-0.0002177
0.031748
-0.000106829
0.0315616
-4.00627e-05
0.0313706
-1.78721e-05
0.0312199
-3.61928e-05
0.0311051
-3.57899e-05
0.0310088
-3.4754e-05
0.0309139
-1.83159e-05
0.0307969
1.23398e-05
0.0306527
4.12349e-05
0.0304867
5.74743e-05
0.0303068
6.36089e-05
0.0301198
6.18511e-05
0.0299311
5.79308e-05
0.0297409
5.81727e-05
0.0295465
6.71188e-05
0.0293436
8.73616e-05
0.0291291
0.00011651
0.0289019
0.000149524
0.0286637
0.000178934
0.0284196
0.000197726
0.0281767
0.000202344
0.0279413
0.00019402
0.027718
0.000176159
0.0275088
0.000153908
0.0273135
0.000132862
0.027129
0.00011927
0.0269507
0.0001176
0.0267736
0.00012826
0.0265941
0.000148075
0.026411
0.0001707
0.0262268
0.000188705
0.0260458
0.000196991
0.0258733
0.000193953
0.0257133
0.000179969
0.0255688
0.000157065
0.0254414
0.000128851
0.0253309
0.000100294
0.0252348
7.76595e-05
0.0251494
6.60919e-05
0.0250697
6.87008e-05
0.0249897
8.74527e-05
0.0249029
0.000121882
0.024805
0.000166713
0.0246966
0.0002119
0.0245833
0.000246923
0.024473
0.000263635
0.0243736
0.00026155
0.0242903
0.000244673
0.024228
0.000214448
0.0241899
0.000174884
0.024178
0.000132853
0.0241879
9.57774e-05
0.0242179
6.8076e-05
0.024264
5.35189e-05
0.024317
5.90734e-05
0.0243668
8.21742e-05
0.0244057
0.000119722
0.0244312
0.00016172
0.0244492
0.000198308
0.0244661
0.000222555
0.0244884
0.000231665
0.0245225
0.000226222
0.0245736
0.000209673
0.024646
0.000185913
0.0247406
0.000159768
0.024855
0.000136652
0.0249839
0.000121348
0.0251206
0.000116462
0.0252597
0.000121537
0.0253979
0.000132712
0.025535
0.000144842
0.0256736
0.00015378
0.0258173
0.000157462
0.0259698
0.000156153
0.0261337
0.000151343
0.02631
0.00014527
0.0264974
0.000140721
0.0266928
0.000140246
0.0268924
0.000145023
0.0270928
0.000154489
0.0272918
0.000166827
0.027489
0.000179167
0.027686
0.000187934
0.0278858
0.000190395
0.0280919
0.000185587
0.0283076
0.000174835
0.028535
0.000160778
0.0287745
0.000146905
0.0290247
0.000137143
0.0292823
0.000134891
0.0295429
0.00014225
0.0298018
0.000159073
0.0300554
0.000182646
0.0303025
0.000207972
0.0305442
0.00022935
0.0307842
0.000241889
0.0310275
0.000242734
0.031279
0.000232193
0.0315426
0.000212961
0.0318207
0.000188256
0.0321138
0.000162401
0.0324205
0.000139641
0.0327379
0.000124087
0.0330617
0.000118968
0.033387