/*--------------------------------*- C++ -*----------------------------------*\
| =========                 |                                                 |
| \\      /  F ield         | OpenFOAM: The Open Source CFD Toolbox           |
|  \\    /   O peration     | Version:  v1812                                 |
|   \\  /    A nd           | Web:      www.OpenFOAM.com                      |
|    \\/     M anipulation  |                                                 |
\*---------------------------------------------------------------------------*/
FoamFile
{
    version     2.0;
    format      ascii;
    class       volScalarField;
    location    "0.5";
    object      T;
}
// * * * * * * * * * * * * * * * * * * * * * * * * * * * * * * * * * * * * * //

dimensions      [0 0 0 1 0 0 0];


internalField   nonuniform List<scalar> 
20400
(
289.127
289.107
289.058
288.994
288.921
288.847
288.774
288.711
288.658
288.62
288.599
288.59
288.595
288.61
288.631
288.658
288.688
288.719
288.751
288.784
288.815
288.845
288.871
288.892
288.905
288.903
288.882
288.834
288.751
288.627
288.451
288.218
287.932
287.602
287.261
286.945
286.715
286.598
286.624
286.765
287.031
287.392
287.826
288.314
288.842
289.383
289.894
290.331
290.672
290.923
291.108
291.24
291.329
291.376
291.385
291.365
291.317
291.253
291.181
291.106
291.026
290.95
290.87
290.798
290.726
290.657
290.594
290.533
290.475
290.427
290.379
290.34
290.311
290.29
290.275
290.267
290.267
290.274
290.285
290.297
290.311
290.326
290.342
290.36
290.379
290.396
290.421
290.43
290.431
290.44
290.45
290.462
290.477
290.49
290.502
290.511
290.513
290.507
290.49
290.464
290.43
290.391
290.347
290.298
290.238
290.158
290.049
289.905
289.742
289.555
289.356
289.147
288.944
288.764
288.604
288.465
288.347
288.249
288.174
288.123
288.105
288.107
288.129
288.164
288.207
288.259
288.319
288.383
288.451
288.513
288.568
288.617
288.661
288.704
288.748
288.797
288.847
288.895
288.941
288.987
289.028
289.066
289.104
289.142
289.179
289.216
289.25
289.286
289.322
289.357
289.392
289.425
289.458
289.489
289.518
289.546
289.573
289.599
289.626
289.654
289.682
289.71
289.736
289.762
289.786
289.808
289.83
289.85
289.869
289.887
289.902
289.917
289.93
289.941
289.951
289.959
289.965
289.969
289.97
289.97
289.968
289.965
289.96
289.955
289.949
289.942
289.934
289.925
289.915
289.904
289.891
289.877
289.863
289.848
289.833
289.817
289.802
289.786
289.769
289.753
289.736
289.718
289.701
289.683
289.665
289.646
289.628
289.61
289.592
289.575
289.558
289.541
289.525
289.508
289.491
289.474
289.457
289.441
289.425
289.41
289.395
289.382
289.369
289.357
289.345
289.334
289.324
289.313
289.303
289.293
289.283
289.274
289.266
289.259
289.253
289.247
289.243
289.239
289.236
289.233
289.231
289.23
289.23
289.231
289.233
289.234
289.237
289.241
289.246
289.251
289.258
289.266
289.274
289.283
289.294
289.305
289.318
289.331
289.345
289.36
289.376
289.392
289.409
289.427
289.446
289.466
289.487
289.509
289.532
289.555
289.58
289.605
289.631
289.657
289.684
289.712
289.74
289.769
289.799
289.829
289.86
289.892
289.924
289.956
289.989
290.023
290.057
290.091
290.127
290.163
290.199
290.236
290.272
290.309
290.346
290.383
290.421
290.459
290.498
290.536
290.575
290.614
290.654
290.693
290.733
290.773
290.812
290.852
290.891
290.931
290.97
291.01
291.05
291.09
291.13
291.169
291.209
291.248
291.287
291.326
291.365
291.404
291.443
291.482
291.52
291.558
291.597
291.634
291.672
291.709
291.746
291.783
291.819
291.856
291.892
291.928
291.963
291.999
292.033
292.068
292.102
292.136
292.169
292.203
292.236
292.268
292.301
292.332
292.363
292.394
292.425
292.455
292.485
292.514
292.543
292.572
292.6
292.628
292.656
292.683
292.71
292.736
292.762
292.788
292.813
292.838
292.863
292.888
292.912
292.936
292.959
292.982
293.005
293.028
293.05
293.072
293.094
293.116
293.137
293.158
293.179
293.199
293.22
293.24
293.259
293.279
293.298
293.316
293.335
293.353
293.37
293.388
293.405
293.421
293.438
293.454
293.469
293.485
293.5
293.515
293.529
293.543
293.556
293.569
293.582
293.594
293.606
293.617
293.628
293.639
293.649
293.659
293.668
293.678
293.686
293.695
293.703
293.71
293.718
293.725
293.731
293.738
293.744
293.75
293.755
293.76
293.765
293.77
293.775
293.779
293.783
293.787
293.791
293.795
293.798
293.802
293.805
293.808
293.811
293.814
293.817
293.819
293.822
293.824
293.827
293.829
293.831
293.833
293.835
293.837
293.839
293.841
293.843
293.845
293.847
293.849
293.85
293.852
293.853
293.855
293.856
293.857
293.859
293.86
293.861
293.862
293.863
293.864
293.865
293.867
293.868
293.869
293.87
293.872
293.873
293.875
293.876
293.878
293.879
293.881
293.883
293.884
293.886
293.887
293.889
293.891
293.892
293.894
293.896
293.898
293.9
293.902
293.904
293.905
293.907
293.909
293.911
293.913
293.915
293.916
289.067
289.037
288.974
288.891
288.796
288.698
288.603
288.52
288.451
288.402
288.373
288.362
288.367
288.381
288.405
288.434
288.466
288.5
288.536
288.572
288.608
288.645
288.68
288.714
288.743
288.765
288.774
288.768
288.738
288.673
288.566
288.404
288.179
287.88
287.532
287.162
286.858
286.692
286.713
286.887
287.201
287.625
288.133
288.699
289.297
289.891
290.424
290.841
291.129
291.313
291.426
291.478
291.483
291.439
291.356
291.249
291.115
290.968
290.816
290.667
290.519
290.375
290.231
290.116
289.991
289.867
289.747
289.631
289.522
289.42
289.327
289.245
289.179
289.127
289.092
289.071
289.062
289.069
289.085
289.11
289.136
289.162
289.194
289.221
289.246
289.257
289.253
289.263
289.271
289.29
289.315
289.344
289.394
289.449
289.512
289.58
289.652
289.726
289.798
289.866
289.931
289.994
290.063
290.143
290.24
290.343
290.42
290.439
290.441
290.423
290.385
290.309
290.181
290.004
289.804
289.614
289.441
289.276
289.102
288.916
288.734
288.579
288.464
288.391
288.35
288.334
288.333
288.342
288.365
288.399
288.439
288.479
288.511
288.528
288.542
288.564
288.597
288.638
288.684
288.723
288.749
288.769
288.789
288.813
288.841
288.871
288.901
288.929
288.957
288.985
289.014
289.044
289.075
289.105
289.133
289.159
289.183
289.206
289.231
289.257
289.286
289.316
289.348
289.381
289.414
289.446
289.479
289.511
289.543
289.575
289.603
289.632
289.659
289.686
289.713
289.739
289.763
289.783
289.799
289.811
289.82
289.827
289.83
289.834
289.835
289.835
289.833
289.83
289.825
289.819
289.812
289.803
289.793
289.781
289.769
289.755
289.74
289.725
289.709
289.693
289.676
289.66
289.644
289.627
289.61
289.593
289.575
289.556
289.538
289.519
289.501
289.484
289.467
289.451
289.435
289.419
289.403
289.387
289.371
289.356
289.341
289.326
289.312
289.299
289.286
289.274
289.264
289.254
289.245
289.236
289.228
289.219
289.211
289.203
289.195
289.189
289.183
289.178
289.174
289.171
289.169
289.169
289.17
289.171
289.173
289.176
289.178
289.182
289.186
289.191
289.197
289.204
289.212
289.222
289.232
289.244
289.256
289.269
289.283
289.298
289.313
289.329
289.347
289.365
289.384
289.405
289.426
289.448
289.47
289.493
289.517
289.541
289.567
289.592
289.619
289.647
289.676
289.706
289.736
289.767
289.798
289.83
289.861
289.893
289.925
289.958
289.991
290.025
290.06
290.096
290.132
290.169
290.206
290.244
290.281
290.318
290.356
290.393
290.431
290.469
290.507
290.547
290.586
290.625
290.665
290.705
290.744
290.783
290.822
290.862
290.901
290.941
290.981
291.02
291.06
291.1
291.139
291.178
291.217
291.256
291.295
291.333
291.372
291.41
291.448
291.487
291.525
291.564
291.601
291.639
291.676
291.712
291.748
291.784
291.82
291.855
291.891
291.926
291.961
291.995
292.029
292.063
292.096
292.129
292.161
292.193
292.225
292.257
292.288
292.319
292.349
292.379
292.409
292.438
292.466
292.495
292.523
292.551
292.578
292.605
292.632
292.658
292.684
292.709
292.734
292.759
292.783
292.807
292.831
292.855
292.879
292.902
292.925
292.947
292.97
292.991
293.013
293.034
293.055
293.075
293.096
293.116
293.136
293.156
293.176
293.195
293.214
293.233
293.251
293.269
293.286
293.303
293.32
293.337
293.353
293.369
293.384
293.399
293.414
293.429
293.443
293.457
293.47
293.483
293.496
293.508
293.52
293.531
293.542
293.553
293.563
293.573
293.582
293.591
293.599
293.608
293.616
293.623
293.631
293.637
293.644
293.65
293.656
293.662
293.667
293.673
293.677
293.682
293.687
293.691
293.695
293.699
293.702
293.706
293.709
293.712
293.715
293.718
293.721
293.724
293.727
293.73
293.732
293.734
293.737
293.739
293.741
293.743
293.745
293.747
293.749
293.751
293.753
293.755
293.756
293.758
293.76
293.761
293.763
293.765
293.766
293.768
293.769
293.77
293.772
293.773
293.774
293.776
293.777
293.778
293.779
293.781
293.782
293.783
293.784
293.785
293.786
293.787
293.788
293.79
293.791
293.793
293.795
293.796
293.798
293.799
293.8
293.802
293.803
293.804
293.806
293.808
293.81
293.812
293.814
293.815
293.817
293.819
293.821
293.822
288.953
288.91
288.821
288.7
288.557
288.411
288.274
288.157
288.064
288
287.964
287.953
287.96
287.979
288.008
288.042
288.08
288.119
288.16
288.202
288.244
288.289
288.335
288.383
288.431
288.477
288.521
288.56
288.582
288.58
288.548
288.464
288.315
288.076
287.745
287.356
287.011
286.841
286.883
287.11
287.509
288.015
288.61
289.253
289.905
290.518
291.015
291.345
291.514
291.564
291.56
291.477
291.368
291.222
291.025
290.796
290.55
290.289
290.024
289.76
289.505
289.256
289.015
288.79
288.581
288.388
288.209
288.039
287.882
287.736
287.601
287.484
287.384
287.311
287.263
287.236
287.226
287.232
287.249
287.272
287.298
287.321
287.344
287.367
287.387
287.401
287.398
287.38
287.381
287.406
287.449
287.503
287.57
287.644
287.712
287.783
287.857
287.936
288.022
288.113
288.208
288.306
288.414
288.549
288.74
289
289.279
289.515
289.705
289.858
290.008
290.176
290.34
290.489
290.591
290.632
290.629
290.609
290.539
290.389
290.166
289.897
289.607
289.331
289.089
288.906
288.789
288.703
288.617
288.518
288.417
288.335
288.293
288.28
288.279
288.285
288.292
288.302
288.32
288.34
288.339
288.324
288.306
288.294
288.295
288.304
288.317
288.327
288.337
288.345
288.354
288.367
288.385
288.407
288.428
288.448
288.463
288.474
288.486
288.501
288.519
288.541
288.568
288.599
288.638
288.682
288.732
288.785
288.837
288.886
288.934
288.982
289.03
289.081
289.135
289.192
289.251
289.307
289.357
289.399
289.436
289.47
289.502
289.531
289.558
289.581
289.595
289.61
289.62
289.628
289.634
289.637
289.639
289.639
289.636
289.63
289.623
289.613
289.602
289.589
289.576
289.562
289.548
289.533
289.519
289.503
289.487
289.47
289.452
289.434
289.415
289.397
289.38
289.362
289.346
289.33
289.315
289.3
289.285
289.27
289.255
289.24
289.226
289.212
289.198
289.186
289.174
289.164
289.154
289.146
289.137
289.129
289.122
289.114
289.107
289.1
289.093
289.088
289.083
289.079
289.076
289.075
289.075
289.077
289.079
289.082
289.085
289.089
289.093
289.098
289.103
289.109
289.117
289.125
289.135
289.146
289.159
289.172
289.186
289.2
289.215
289.231
289.248
289.266
289.285
289.305
289.326
289.348
289.37
289.393
289.417
289.442
289.466
289.492
289.518
289.544
289.572
289.601
289.631
289.662
289.693
289.725
289.757
289.789
289.821
289.854
289.887
289.92
289.954
289.988
290.023
290.059
290.096
290.133
290.171
290.209
290.247
290.285
290.322
290.359
290.397
290.435
290.474
290.513
290.552
290.592
290.631
290.671
290.71
290.749
290.788
290.827
290.866
290.905
290.945
290.985
291.024
291.063
291.102
291.14
291.179
291.217
291.255
291.294
291.332
291.37
291.407
291.445
291.483
291.521
291.559
291.596
291.632
291.668
291.704
291.739
291.773
291.808
291.843
291.877
291.911
291.945
291.978
292.011
292.043
292.075
292.106
292.137
292.168
292.199
292.229
292.259
292.288
292.317
292.346
292.374
292.402
292.429
292.456
292.483
292.51
292.536
292.562
292.587
292.612
292.636
292.66
292.684
292.707
292.731
292.754
292.777
292.8
292.822
292.845
292.866
292.888
292.909
292.93
292.951
292.971
292.991
293.01
293.029
293.048
293.068
293.087
293.106
293.124
293.142
293.16
293.177
293.193
293.21
293.225
293.241
293.256
293.271
293.286
293.3
293.314
293.327
293.34
293.353
293.366
293.378
293.39
293.401
293.412
293.423
293.433
293.443
293.452
293.461
293.469
293.478
293.485
293.493
293.5
293.507
293.513
293.52
293.525
293.531
293.536
293.541
293.546
293.551
293.555
293.559
293.563
293.567
293.57
293.574
293.577
293.58
293.583
293.586
293.589
293.591
293.593
293.596
293.598
293.6
293.603
293.605
293.607
293.609
293.611
293.613
293.614
293.616
293.618
293.62
293.622
293.623
293.625
293.626
293.628
293.629
293.631
293.632
293.634
293.635
293.637
293.638
293.639
293.641
293.642
293.643
293.645
293.646
293.647
293.649
293.65
293.651
293.652
293.652
293.653
293.654
293.655
293.656
293.657
293.659
293.661
293.663
293.664
293.665
293.666
293.667
293.668
293.669
293.67
293.672
293.674
293.676
293.677
293.679
293.68
293.681
288.784
288.716
288.583
288.405
288.198
287.992
287.809
287.659
287.549
287.479
287.444
287.439
287.454
287.481
287.517
287.556
287.598
287.641
287.684
287.729
287.775
287.827
287.883
287.945
288.011
288.083
288.16
288.234
288.297
288.347
288.365
288.342
288.257
288.075
287.781
287.417
287.108
287.019
287.142
287.485
287.981
288.549
289.181
289.84
290.485
291.057
291.459
291.65
291.693
291.631
291.498
291.32
291.073
290.777
290.429
290.052
289.663
289.27
288.885
288.511
288.164
287.862
287.592
287.36
287.158
286.982
286.829
286.692
286.571
286.464
286.371
286.29
286.226
286.176
286.138
286.11
286.09
286.077
286.071
286.067
286.067
286.071
286.075
286.082
286.089
286.095
286.097
286.089
286.086
286.093
286.108
286.134
286.179
286.24
286.295
286.345
286.388
286.433
286.483
286.54
286.604
286.673
286.751
286.85
286.989
287.184
287.414
287.629
287.819
287.991
288.185
288.446
288.792
289.198
289.6
289.94
290.208
290.418
290.6
290.793
290.983
291.053
291.027
290.897
290.631
290.275
289.951
289.728
289.559
289.35
289.056
288.732
288.489
288.364
288.312
288.276
288.231
288.171
288.112
288.066
288.021
287.966
287.899
287.833
287.778
287.738
287.71
287.689
287.671
287.655
287.637
287.617
287.602
287.592
287.589
287.589
287.59
287.587
287.584
287.575
287.569
287.566
287.57
287.58
287.598
287.628
287.668
287.718
287.772
287.827
287.882
287.942
288.007
288.082
288.17
288.272
288.379
288.48
288.572
288.654
288.731
288.805
288.877
288.95
289.018
289.081
289.135
289.183
289.225
289.264
289.3
289.331
289.358
289.381
289.4
289.415
289.426
289.433
289.437
289.438
289.436
289.432
289.425
289.417
289.408
289.397
289.384
289.371
289.357
289.342
289.326
289.309
289.292
289.274
289.257
289.241
289.225
289.209
289.195
289.18
289.166
289.152
289.138
289.125
289.111
289.099
289.086
289.075
289.064
289.055
289.046
289.038
289.03
289.023
289.017
289.01
289.004
288.999
288.995
288.99
288.987
288.984
288.983
288.983
288.984
288.987
288.99
288.994
288.999
289.005
289.011
289.018
289.025
289.033
289.042
289.052
289.063
289.075
289.088
289.103
289.118
289.134
289.151
289.169
289.188
289.207
289.228
289.249
289.271
289.294
289.318
289.342
289.367
289.393
289.419
289.446
289.473
289.501
289.53
289.56
289.59
289.621
289.653
289.685
289.718
289.751
289.784
289.818
289.852
289.886
289.92
289.955
289.99
290.026
290.063
290.1
290.138
290.176
290.215
290.253
290.291
290.329
290.368
290.406
290.444
290.483
290.522
290.56
290.599
290.638
290.678
290.717
290.756
290.795
290.835
290.874
290.913
290.952
290.99
291.029
291.067
291.106
291.144
291.182
291.22
291.257
291.295
291.332
291.37
291.407
291.444
291.482
291.518
291.555
291.591
291.626
291.661
291.696
291.73
291.764
291.798
291.831
291.864
291.897
291.929
291.961
291.993
292.024
292.055
292.085
292.115
292.144
292.173
292.202
292.23
292.258
292.286
292.313
292.34
292.367
292.393
292.419
292.445
292.47
292.495
292.519
292.543
292.566
292.589
292.613
292.635
292.658
292.68
292.702
292.724
292.746
292.767
292.788
292.809
292.83
292.85
292.87
292.89
292.909
292.928
292.947
292.965
292.984
293.002
293.019
293.037
293.054
293.071
293.087
293.103
293.119
293.134
293.149
293.163
293.177
293.19
293.203
293.216
293.229
293.241
293.253
293.264
293.276
293.286
293.297
293.307
293.316
293.326
293.334
293.343
293.351
293.359
293.366
293.373
293.38
293.386
293.392
293.398
293.403
293.408
293.413
293.418
293.422
293.427
293.431
293.435
293.438
293.441
293.445
293.448
293.451
293.454
293.457
293.459
293.462
293.464
293.466
293.468
293.47
293.472
293.474
293.476
293.478
293.48
293.482
293.483
293.485
293.487
293.488
293.49
293.491
293.493
293.494
293.495
293.497
293.498
293.499
293.501
293.502
293.504
293.505
293.506
293.507
293.509
293.51
293.511
293.513
293.514
293.515
293.516
293.518
293.519
293.52
293.52
293.521
293.522
293.523
293.523
293.525
293.526
293.527
293.528
293.53
293.531
293.532
293.534
293.535
293.536
293.537
293.538
293.539
293.541
293.542
293.543
293.543
288.577
288.48
288.298
288.053
287.778
287.519
287.304
287.143
287.036
286.977
286.956
286.963
286.984
287.016
287.054
287.094
287.134
287.174
287.215
287.257
287.304
287.358
287.422
287.494
287.575
287.665
287.764
287.864
287.957
288.041
288.106
288.112
288.073
287.941
287.697
287.392
287.201
287.257
287.562
288.075
288.649
289.231
289.824
290.401
290.945
291.399
291.663
291.735
291.687
291.527
291.274
290.946
290.555
290.113
289.635
289.15
288.683
288.244
287.847
287.496
287.185
286.921
286.705
286.529
286.384
286.262
286.16
286.073
285.998
285.935
285.879
285.829
285.784
285.746
285.712
285.685
285.662
285.643
285.629
285.613
285.598
285.583
285.569
285.556
285.543
285.531
285.52
285.505
285.493
285.483
285.468
285.455
285.456
285.469
285.491
285.508
285.524
285.543
285.566
285.596
285.633
285.675
285.724
285.789
285.878
285.993
286.122
286.245
286.358
286.464
286.589
286.759
287.001
287.326
287.709
288.113
288.517
288.926
289.348
289.783
290.218
290.602
290.902
291.193
291.402
291.403
291.322
291.169
291.015
290.81
290.445
289.88
289.259
288.822
288.628
288.561
288.491
288.375
288.229
288.095
287.966
287.843
287.726
287.616
287.514
287.422
287.345
287.276
287.218
287.163
287.12
287.077
287.036
286.998
286.964
286.933
286.904
286.872
286.841
286.808
286.774
286.742
286.713
286.688
286.671
286.659
286.653
286.657
286.668
286.686
286.71
286.744
286.795
286.866
286.963
287.086
287.222
287.352
287.47
287.58
287.689
287.802
287.922
288.049
288.175
288.292
288.394
288.487
288.572
288.653
288.732
288.807
288.877
288.941
288.998
289.049
289.094
289.134
289.168
289.197
289.221
289.24
289.254
289.264
289.27
289.272
289.271
289.267
289.261
289.252
289.242
289.23
289.216
289.201
289.186
289.17
289.155
289.139
289.124
289.11
289.095
289.082
289.068
289.055
289.042
289.03
289.018
289.007
288.996
288.986
288.977
288.968
288.961
288.954
288.947
288.941
288.935
288.93
288.926
288.922
288.919
288.917
288.915
288.914
288.915
288.917
288.92
288.923
288.928
288.934
288.94
288.947
288.955
288.963
288.972
288.983
288.993
289.005
289.018
289.031
289.046
289.061
289.078
289.095
289.114
289.133
289.154
289.175
289.197
289.22
289.243
289.267
289.292
289.318
289.344
289.37
289.398
289.426
289.455
289.484
289.514
289.545
289.576
289.607
289.639
289.672
289.705
289.738
289.772
289.807
289.841
289.876
289.911
289.947
289.983
290.019
290.056
290.093
290.131
290.169
290.208
290.246
290.285
290.323
290.362
290.4
290.439
290.477
290.516
290.554
290.593
290.632
290.671
290.71
290.749
290.788
290.827
290.866
290.905
290.943
290.981
291.02
291.058
291.095
291.133
291.17
291.208
291.245
291.282
291.319
291.356
291.393
291.43
291.466
291.502
291.538
291.573
291.608
291.642
291.676
291.71
291.743
291.776
291.809
291.841
291.873
291.904
291.935
291.966
291.996
292.026
292.056
292.085
292.113
292.141
292.169
292.197
292.224
292.25
292.277
292.303
292.329
292.354
292.379
292.404
292.428
292.452
292.475
292.498
292.521
292.544
292.566
292.588
292.61
292.631
292.652
292.674
292.694
292.715
292.736
292.756
292.776
292.795
292.815
292.834
292.852
292.871
292.889
292.906
292.924
292.941
292.958
292.975
292.991
293.007
293.023
293.038
293.053
293.067
293.08
293.094
293.106
293.119
293.131
293.143
293.155
293.166
293.177
293.188
293.198
293.208
293.217
293.226
293.235
293.243
293.251
293.259
293.266
293.273
293.279
293.286
293.292
293.297
293.302
293.307
293.312
293.317
293.321
293.325
293.329
293.333
293.336
293.339
293.342
293.345
293.348
293.351
293.354
293.356
293.359
293.361
293.363
293.365
293.367
293.369
293.371
293.373
293.374
293.376
293.378
293.379
293.381
293.382
293.384
293.385
293.386
293.388
293.389
293.39
293.391
293.392
293.394
293.395
293.396
293.397
293.399
293.4
293.401
293.402
293.403
293.404
293.405
293.407
293.408
293.409
293.41
293.411
293.412
293.413
293.414
293.415
293.416
293.417
293.417
293.418
293.419
293.42
293.421
293.422
293.424
293.425
293.426
293.427
293.428
293.43
293.431
293.432
293.433
293.434
293.434
288.36
288.236
288.001
287.696
287.368
287.076
286.854
286.7
286.609
286.566
286.556
286.566
286.588
286.616
286.647
286.678
286.709
286.741
286.776
286.816
286.864
286.922
286.992
287.072
287.163
287.266
287.382
287.5
287.614
287.722
287.808
287.837
287.817
287.721
287.541
287.359
287.355
287.592
288.112
288.761
289.381
289.95
290.475
290.942
291.341
291.625
291.734
291.728
291.594
291.302
290.909
290.445
289.934
289.406
288.874
288.37
287.917
287.524
287.192
286.926
286.709
286.541
286.409
286.297
286.203
286.121
286.049
285.987
285.93
285.88
285.832
285.785
285.735
285.678
285.627
285.585
285.551
285.519
285.486
285.455
285.423
285.389
285.354
285.319
285.285
285.251
285.219
285.187
285.163
285.144
285.122
285.095
285.072
285.055
285.043
285.03
285.019
285.011
285.01
285.016
285.032
285.058
285.092
285.138
285.207
285.292
285.384
285.469
285.546
285.616
285.693
285.787
285.91
286.068
286.259
286.484
286.742
287.05
287.425
287.885
288.42
289.023
289.671
290.321
290.883
291.255
291.527
291.788
291.966
291.945
291.768
291.278
290.516
289.817
289.45
289.311
289.185
288.969
288.669
288.376
288.157
288.004
287.868
287.74
287.607
287.472
287.343
287.224
287.128
287.044
286.981
286.924
286.872
286.827
286.782
286.734
286.685
286.632
286.575
286.522
286.467
286.411
286.353
286.292
286.23
286.168
286.104
286.037
285.976
285.923
285.878
285.844
285.838
285.849
285.891
285.966
286.063
286.166
286.267
286.37
286.482
286.608
286.753
286.917
287.086
287.247
287.393
287.526
287.652
287.778
287.906
288.03
288.15
288.262
288.366
288.465
288.557
288.644
288.723
288.796
288.862
288.921
288.972
289.017
289.054
289.084
289.108
289.126
289.137
289.144
289.147
289.145
289.14
289.133
289.123
289.112
289.099
289.085
289.071
289.057
289.043
289.03
289.016
289.003
288.991
288.979
288.967
288.956
288.946
288.936
288.926
288.918
288.91
288.903
288.896
288.89
288.885
288.88
288.876
288.872
288.87
288.868
288.866
288.866
288.866
288.868
288.87
288.874
288.878
288.883
288.89
288.897
288.905
288.913
288.923
288.933
288.944
288.956
288.969
288.982
288.997
289.012
289.028
289.045
289.063
289.082
289.102
289.123
289.145
289.168
289.191
289.215
289.24
289.265
289.291
289.318
289.345
289.373
289.401
289.431
289.46
289.491
289.522
289.553
289.585
289.617
289.65
289.683
289.716
289.75
289.785
289.82
289.855
289.89
289.926
289.962
289.998
290.035
290.072
290.11
290.148
290.186
290.224
290.263
290.302
290.34
290.379
290.417
290.456
290.494
290.532
290.571
290.609
290.648
290.687
290.726
290.765
290.803
290.842
290.881
290.919
290.958
290.996
291.033
291.071
291.108
291.145
291.183
291.22
291.256
291.293
291.33
291.366
291.402
291.438
291.473
291.509
291.543
291.578
291.612
291.646
291.679
291.712
291.745
291.777
291.809
291.84
291.871
291.902
291.932
291.962
291.992
292.021
292.049
292.077
292.105
292.132
292.159
292.186
292.212
292.238
292.264
292.289
292.314
292.339
292.363
292.387
292.41
292.433
292.456
292.478
292.5
292.522
292.544
292.565
292.586
292.607
292.627
292.648
292.668
292.688
292.708
292.727
292.747
292.766
292.784
292.802
292.82
292.838
292.855
292.872
292.889
292.905
292.922
292.938
292.953
292.968
292.983
292.997
293.011
293.024
293.037
293.049
293.061
293.073
293.085
293.096
293.106
293.117
293.127
293.136
293.146
293.154
293.163
293.171
293.179
293.186
293.194
293.2
293.207
293.213
293.219
293.224
293.229
293.234
293.239
293.243
293.248
293.252
293.255
293.259
293.262
293.265
293.268
293.271
293.274
293.277
293.279
293.282
293.284
293.286
293.288
293.29
293.292
293.294
293.296
293.298
293.299
293.301
293.302
293.304
293.305
293.307
293.308
293.31
293.311
293.312
293.313
293.314
293.315
293.316
293.317
293.318
293.32
293.321
293.322
293.323
293.324
293.325
293.326
293.327
293.328
293.329
293.33
293.331
293.332
293.333
293.334
293.335
293.336
293.337
293.338
293.339
293.339
293.34
293.341
293.342
293.342
293.343
293.344
293.345
293.346
293.348
293.349
293.35
293.351
293.352
293.353
293.355
293.355
288.16
287.999
287.72
287.368
287.011
286.713
286.5
286.365
286.292
286.26
286.253
286.259
286.273
286.29
286.31
286.331
286.354
286.384
286.423
286.471
286.528
286.597
286.675
286.762
286.857
286.965
287.086
287.209
287.331
287.443
287.529
287.566
287.558
287.503
287.421
287.421
287.609
288.062
288.716
289.409
290.022
290.554
291.003
291.349
291.587
291.701
291.72
291.643
291.395
290.984
290.474
289.915
289.349
288.804
288.291
287.848
287.468
287.161
286.925
286.735
286.594
286.479
286.386
286.309
286.243
286.186
286.133
286.082
286.029
285.974
285.918
285.862
285.803
285.74
285.679
285.62
285.564
285.505
285.444
285.381
285.317
285.252
285.187
285.124
285.065
285.009
284.956
284.901
284.854
284.823
284.795
284.77
284.746
284.726
284.707
284.687
284.667
284.645
284.627
284.622
284.624
284.635
284.658
284.694
284.748
284.817
284.894
284.973
285.05
285.124
285.201
285.278
285.359
285.44
285.52
285.609
285.718
285.865
286.064
286.335
286.697
287.173
287.78
288.508
289.302
290.064
290.725
291.279
291.746
292.19
292.344
292.232
291.847
291.295
290.851
290.578
290.311
289.93
289.434
288.952
288.631
288.448
288.301
288.139
287.936
287.722
287.537
287.406
287.332
287.279
287.243
287.205
287.165
287.127
287.093
287.056
287.008
286.95
286.892
286.835
286.774
286.7
286.61
286.503
286.386
286.264
286.138
286.011
285.883
285.759
285.64
285.532
285.437
285.355
285.287
285.245
285.243
285.254
285.284
285.338
285.415
285.516
285.646
285.8
285.967
286.13
286.283
286.429
286.577
286.733
286.895
287.058
287.217
287.37
287.516
287.659
287.799
287.935
288.066
288.19
288.307
288.418
288.52
288.614
288.698
288.773
288.839
288.894
288.94
288.977
289.005
289.026
289.04
289.048
289.05
289.048
289.043
289.035
289.025
289.014
289.001
288.989
288.976
288.964
288.952
288.94
288.929
288.918
288.907
288.897
288.888
288.879
288.871
288.864
288.857
288.851
288.846
288.842
288.838
288.835
288.833
288.831
288.83
288.83
288.83
288.831
288.834
288.837
288.841
288.847
288.853
288.86
288.868
288.877
288.887
288.897
288.908
288.92
288.933
288.947
288.961
288.976
288.993
289.009
289.027
289.046
289.066
289.087
289.108
289.131
289.154
289.178
289.202
289.227
289.253
289.28
289.307
289.335
289.363
289.392
289.422
289.452
289.483
289.514
289.546
289.578
289.61
289.643
289.676
289.71
289.744
289.779
289.814
289.849
289.885
289.921
289.957
289.993
290.03
290.067
290.105
290.142
290.181
290.219
290.257
290.296
290.334
290.373
290.411
290.45
290.488
290.526
290.565
290.603
290.641
290.68
290.719
290.757
290.796
290.835
290.873
290.911
290.95
290.987
291.025
291.062
291.1
291.137
291.174
291.21
291.247
291.283
291.319
291.355
291.391
291.426
291.462
291.496
291.531
291.565
291.599
291.632
291.665
291.698
291.73
291.762
291.793
291.824
291.855
291.885
291.915
291.944
291.973
292.002
292.03
292.058
292.086
292.113
292.139
292.165
292.191
292.217
292.242
292.267
292.291
292.315
292.339
292.363
292.386
292.408
292.431
292.453
292.475
292.496
292.517
292.538
292.559
292.579
292.6
292.62
292.64
292.659
292.679
292.698
292.717
292.735
292.753
292.771
292.789
292.806
292.823
292.84
292.856
292.872
292.888
292.903
292.918
292.933
292.947
292.961
292.974
292.987
292.999
293.011
293.023
293.034
293.045
293.056
293.066
293.076
293.085
293.095
293.103
293.112
293.12
293.127
293.135
293.142
293.148
293.155
293.161
293.167
293.172
293.177
293.182
293.186
293.191
293.195
293.199
293.202
293.206
293.209
293.212
293.215
293.218
293.221
293.223
293.226
293.228
293.23
293.233
293.235
293.237
293.239
293.241
293.242
293.244
293.246
293.247
293.249
293.25
293.252
293.253
293.254
293.256
293.257
293.258
293.259
293.26
293.261
293.262
293.263
293.264
293.265
293.266
293.267
293.268
293.269
293.27
293.271
293.272
293.273
293.274
293.275
293.276
293.277
293.278
293.279
293.28
293.28
293.281
293.282
293.283
293.283
293.284
293.285
293.286
293.286
293.287
293.288
293.288
293.289
293.29
293.291
293.293
293.294
293.295
293.296
293.297
293.298
287.968
287.786
287.471
287.09
286.723
286.434
286.24
286.123
286.059
286.027
286.011
286.006
286.008
286.016
286.032
286.057
286.092
286.14
286.2
286.269
286.346
286.429
286.517
286.608
286.704
286.808
286.921
287.032
287.14
287.24
287.312
287.357
287.379
287.399
287.456
287.624
288.001
288.587
289.273
289.936
290.503
290.974
291.332
291.556
291.654
291.682
291.639
291.462
291.118
290.632
290.064
289.476
288.909
288.397
287.955
287.584
287.296
287.07
286.9
286.775
286.678
286.591
286.523
286.458
286.393
286.329
286.262
286.195
286.122
286.039
285.951
285.87
285.798
285.728
285.654
285.578
285.496
285.41
285.321
285.231
285.141
285.051
284.963
284.878
284.799
284.73
284.669
284.611
284.558
284.515
284.483
284.457
284.438
284.425
284.414
284.402
284.389
284.374
284.356
284.343
284.34
284.345
284.36
284.388
284.429
284.484
284.55
284.624
284.706
284.795
284.889
284.979
285.062
285.13
285.182
285.226
285.274
285.336
285.418
285.532
285.7
285.946
286.302
286.79
287.428
288.201
289.051
289.93
290.81
291.605
292.162
292.55
292.585
292.468
292.234
291.953
291.58
291.06
290.426
289.82
289.436
289.192
288.998
288.772
288.484
288.186
287.951
287.842
287.796
287.779
287.77
287.762
287.756
287.765
287.784
287.795
287.793
287.782
287.769
287.755
287.735
287.694
287.625
287.529
287.406
287.257
287.078
286.872
286.641
286.395
286.139
285.881
285.631
285.404
285.213
285.059
284.936
284.839
284.763
284.723
284.725
284.752
284.818
284.919
285.036
285.16
285.286
285.417
285.559
285.717
285.881
286.052
286.222
286.389