/*--------------------------------*- C++ -*----------------------------------*\
| =========                 |                                                 |
| \\      /  F ield         | OpenFOAM: The Open Source CFD Toolbox           |
|  \\    /   O peration     | Version:  v1812                                 |
|   \\  /    A nd           | Web:      www.OpenFOAM.com                      |
|    \\/     M anipulation  |                                                 |
\*---------------------------------------------------------------------------*/
FoamFile
{
    version     2.0;
    format      ascii;
    class       volVectorField;
    location    "0.5";
    object      U;
}
// * * * * * * * * * * * * * * * * * * * * * * * * * * * * * * * * * * * * * //

dimensions      [0 1 -1 0 0 0 0];


internalField   nonuniform List<vector> 
20400
(
(-0.0522633 0.0364405 0)
(-0.0541372 -0.0285112 0)
(-0.0370507 -0.0315982 0)
(-0.0195864 -0.046009 0)
(0.0224644 -0.0439284 0)
(0.0870882 -0.0378318 0)
(0.161559 -0.0175322 0)
(0.229085 -0.00466207 0)
(0.283939 0.00279466 0)
(0.316838 0.00583135 0)
(0.330717 0.00247599 0)
(0.331192 0.000591722 0)
(0.321781 -0.00225537 0)
(0.30819 -0.00215002 0)
(0.293821 -0.00516612 0)
(0.284646 -0.0109827 0)
(0.285693 -0.0179167 0)
(0.296813 -0.0255026 0)
(0.317601 -0.0329614 0)
(0.349141 -0.0384161 0)
(0.389966 -0.040817 0)
(0.438835 -0.0396702 0)
(0.49473 -0.0366063 0)
(0.560552 -0.0386528 0)
(0.644911 -0.0409946 0)
(0.746506 -0.0264701 0)
(0.83943 0.00165139 0)
(0.920362 0.0207189 0)
(1.00152 0.0334843 0)
(1.08643 0.0412365 0)
(1.1728 0.0396751 0)
(1.25985 0.0375131 0)
(1.33769 0.00966342 0)
(1.40448 -0.0287611 0)
(1.49257 -0.0584356 0)
(1.59877 -0.032462 0)
(1.69033 -0.0183531 0)
(1.73618 -0.352268 0)
(1.78529 -0.36142 0)
(1.81935 -0.00415349 0)
(1.72467 0.0633723 0)
(1.62945 0.0459823 0)
(1.57412 0.0113511 0)
(1.52952 0.0127948 0)
(1.47221 0.0398572 0)
(1.37701 0.0831271 0)
(1.23179 0.13568 0)
(1.02567 0.202516 0)
(0.74025 0.289879 0)
(0.352321 0.400447 0)
(-0.154483 0.468917 0)
(-0.766906 0.478304 0)
(-1.47758 0.455421 0)
(-2.26245 0.410466 0)
(-3.11299 0.394408 0)
(-4.00563 0.390991 0)
(-4.89592 0.425127 0)
(-5.74055 0.451496 0)
(-6.48915 0.449052 0)
(-7.13429 0.440208 0)
(-7.72283 0.430095 0)
(-8.25668 0.395689 0)
(-8.73482 0.323954 0)
(-9.12446 0.138907 0)
(-9.48624 0.109704 0)
(-9.77688 0.0425731 0)
(-9.97742 -0.0092345 0)
(-10.0831 -0.0305368 0)
(-10.1172 -0.0357231 0)
(-10.0714 -0.089546 0)
(-9.91098 -0.105602 0)
(-9.66265 -0.061822 0)
(-9.33343 0.0499267 0)
(-8.95555 0.250684 0)
(-8.56243 0.508612 0)
(-8.15674 0.748202 0)
(-7.69709 0.858874 0)
(-7.20016 0.862457 0)
(-6.67517 0.796381 0)
(-6.13696 0.685047 0)
(-5.60587 0.523211 0)
(-5.08079 0.337991 0)
(-4.55289 0.177574 0)
(-4.02225 0.0675382 0)
(-3.48424 0.0240453 0)
(-2.95065 -0.00633596 0)
(-2.42054 -0.0270758 0)
(-2.05028 -0.388451 0)
(-1.64473 -0.409337 0)
(-1.23852 -0.441642 0)
(-0.781309 -0.499526 0)
(-0.274881 -0.507118 0)
(0.20967 -0.341919 0)
(0.679158 -0.173642 0)
(1.17319 -0.0868556 0)
(1.68682 -0.059189 0)
(2.19227 -0.147463 0)
(2.66108 -0.267903 0)
(3.08003 -0.324459 0)
(3.43985 -0.339029 0)
(3.74421 -0.346597 0)
(3.9961 -0.335063 0)
(4.20185 -0.320502 0)
(4.37313 -0.309063 0)
(4.5286 -0.299996 0)
(4.68399 -0.232389 0)
(4.82086 -0.0681653 0)
(4.8437 0.130102 0)
(4.74325 0.199035 0)
(4.61751 0.228974 0)
(4.49222 0.193047 0)
(4.39816 0.121108 0)
(4.34757 -0.0304269 0)
(4.2299 0.00855348 0)
(4.00605 0.102406 0)
(3.69421 0.200299 0)
(3.34564 0.25934 0)
(3.01438 0.266283 0)
(2.72088 0.252401 0)
(2.44378 0.236508 0)
(2.16188 0.226245 0)
(1.86477 0.226478 0)
(1.55085 0.241878 0)
(1.22538 0.265184 0)
(0.900538 0.290946 0)
(0.601585 0.276139 0)
(0.381778 0.197034 0)
(0.273262 0.104829 0)
(0.244742 0.0623354 0)
(0.223754 0.0602111 0)
(0.179794 0.118313 0)
(0.0458546 0.241032 0)
(-0.190636 0.345276 0)
(-0.470915 0.328863 0)
(-0.672968 0.201408 0)
(-0.726831 0.0715847 0)
(-0.692725 0.0466343 0)
(-0.658385 0.0687033 0)
(-0.683893 0.145488 0)
(-0.782203 0.186125 0)
(-0.883262 0.169425 0)
(-0.958183 0.136414 0)
(-0.999335 0.0990247 0)
(-1.00616 0.0733887 0)
(-0.996647 0.0674712 0)
(-0.986604 0.0708091 0)
(-0.988959 0.0832058 0)
(-0.999533 0.0813552 0)
(-1.00331 0.0725145 0)
(-0.997122 0.057603 0)
(-0.969447 0.0278981 0)
(-0.919539 0.0153868 0)
(-0.863391 0.00432996 0)
(-0.79528 -0.0114891 0)
(-0.714024 -0.023666 0)
(-0.626786 -0.0282526 0)
(-0.536152 -0.0350239 0)
(-0.442761 -0.0384102 0)
(-0.347447 -0.0447818 0)
(-0.247794 -0.0530928 0)
(-0.141451 -0.0635236 0)
(-0.0305139 -0.0670934 0)
(0.0787034 -0.0633507 0)
(0.183966 -0.0565009 0)
(0.284713 -0.0490937 0)
(0.383868 -0.0467203 0)
(0.490936 -0.0523459 0)
(0.613105 -0.0533542 0)
(0.745929 -0.0440863 0)
(0.878041 -0.0324879 0)
(0.995685 -0.0196658 0)
(1.09813 -0.0246273 0)
(1.18869 -0.0395691 0)
(1.2689 -0.0482077 0)
(1.33809 -0.055227 0)
(1.40001 -0.060425 0)
(1.459 -0.0565349 0)
(1.51069 -0.0443918 0)
(1.54578 -0.029724 0)
(1.56535 -0.0205691 0)
(1.57519 -0.0117291 0)
(1.57652 -0.00452846 0)
(1.57439 -0.00325377 0)
(1.57318 -0.000473388 0)
(1.57145 0.00452444 0)
(1.56178 0.00568575 0)
(1.5404 0.0049563 0)
(1.50868 0.00430553 0)
(1.47065 0.00234461 0)
(1.42596 0.00071313 0)
(1.37532 0.00326764 0)
(1.31731 0.00681015 0)
(1.25333 0.00846661 0)
(1.18471 0.011171 0)
(1.11173 0.0124256 0)
(1.03606 0.0130332 0)
(0.958897 0.0124645 0)
(0.881376 0.0115928 0)
(0.803927 0.0104166 0)
(0.72671 0.00964722 0)
(0.649298 0.0096016 0)
(0.570849 0.010817 0)
(0.490093 0.0135552 0)
(0.405785 0.0175751 0)
(0.317189 0.0221665 0)
(0.224447 0.0263225 0)
(0.128669 0.0291655 0)
(0.0315677 0.0302771 0)
(-0.0651585 0.0297429 0)
(-0.160097 0.0280645 0)
(-0.252243 0.0258488 0)
(-0.341251 0.023836 0)
(-0.427583 0.0228731 0)
(-0.512422 0.0235109 0)
(-0.59725 0.025774 0)
(-0.683349 0.029204 0)
(-0.771362 0.0329407 0)
(-0.861031 0.0360568 0)
(-0.951309 0.0379222 0)
(-1.04072 0.038282 0)
(-1.12764 0.0370609 0)
(-1.2105 0.0344561 0)
(-1.28805 0.0309486 0)
(-1.35965 0.0272033 0)
(-1.42542 0.0240487 0)
(-1.48635 0.0223428 0)
(-1.54417 0.0226398 0)
(-1.601 0.0251615 0)
(-1.65902 0.0297431 0)
(-1.72002 0.0357383 0)
(-1.7849 0.0420252 0)
(-1.85342 0.0474137 0)
(-1.92402 0.0505902 0)
(-1.99433 0.0514611 0)
(-2.06207 0.0501567 0)
(-2.12505 0.0470089 0)
(-2.18165 0.0427662 0)
(-2.231 0.0380117 0)
(-2.27298 0.0338042 0)
(-2.30904 0.0313705 0)
(-2.34077 0.0302917 0)
(-2.36958 0.0312643 0)
(-2.39754 0.0342495 0)
(-2.42681 0.038629 0)
(-2.45815 0.0435933 0)
(-2.49228 0.0479786 0)
(-2.52719 0.0507902 0)
(-2.56104 0.0518089 0)
(-2.59239 0.0514313 0)
(-2.62024 0.0501258 0)
(-2.64393 0.0483149 0)
(-2.66313 0.046321 0)
(-2.67787 0.0445469 0)
(-2.68862 0.0433918 0)
(-2.69619 0.0431102 0)
(-2.70143 0.0436817 0)
(-2.70491 0.0447441 0)
(-2.70702 0.0458239 0)
(-2.70776 0.0466496 0)
(-2.70703 0.0470555 0)
(-2.70436 0.0471621 0)
(-2.69946 0.0470827 0)
(-2.69223 0.0469421 0)
(-2.68276 0.0469145 0)
(-2.67129 0.0471742 0)
(-2.6582 0.0478043 0)
(-2.64388 0.0487678 0)
(-2.62864 0.0499253 0)
(-2.61261 0.0510028 0)
(-2.59557 0.0516482 0)
(-2.57702 0.0516277 0)
(-2.55632 0.0509139 0)
(-2.53289 0.0496745 0)
(-2.50636 0.0481939 0)
(-2.47668 0.0468174 0)
(-2.44419 0.0459381 0)
(-2.40959 0.0458964 0)
(-2.37386 0.0468951 0)
(-2.33807 0.0488773 0)
(-2.3031 0.0514981 0)
(-2.26936 0.0541897 0)
(-2.23667 0.0563634 0)
(-2.20431 0.0575675 0)
(-2.17126 0.0575986 0)
(-2.13639 0.0565621 0)
(-2.09878 0.0547136 0)
(-2.05775 0.0523235 0)
(-2.01301 0.0498518 0)
(-1.96466 0.0476475 0)
(-1.91319 0.046155 0)
(-1.85954 0.0457668 0)
(-1.80493 0.0466423 0)
(-1.75057 0.0486056 0)
(-1.69737 0.0511364 0)
(-1.64555 0.0534494 0)
(-1.5946 0.0548668 0)
(-1.54353 0.0551503 0)
(-1.49133 0.0544797 0)
(-1.43726 0.0532398 0)
(-1.38097 0.0517991 0)
(-1.32246 0.0504714 0)
(-1.262 0.0495166 0)
(-1.20012 0.0491299 0)
(-1.13747 0.0493303 0)
(-1.07459 0.0498964 0)
(-1.01173 0.0504419 0)
(-0.948771 0.0506521 0)
(-0.885399 0.0504645 0)
(-0.821321 0.0499947 0)
(-0.756373 0.0493823 0)
(-0.690522 0.0487444 0)
(-0.623844 0.0481973 0)
(-0.556535 0.0478602 0)
(-0.48889 0.0478022 0)
(-0.421221 0.0479824 0)
(-0.353753 0.048273 0)
(-0.286567 0.0485257 0)
(-0.219598 0.0485956 0)
(-0.152649 0.0483739 0)
(-0.0854448 0.0478041 0)
(-0.0176999 0.0469074 0)
(0.0507716 0.0458075 0)
(0.120051 0.0446863 0)
(0.190061 0.04371 0)
(0.26057 0.0430198 0)
(0.331215 0.0427166 0)
(0.401583 0.0427835 0)
(0.471329 0.0430929 0)
(0.540261 0.0434668 0)
(0.60837 0.0437215 0)
(0.675827 0.0436892 0)
(0.742944 0.0432659 0)
(0.810092 0.0424625 0)
(0.877591 0.041394 0)
(0.945619 0.0402379 0)
(1.01418 0.0391653 0)
(1.08314 0.0382987 0)
(1.15224 0.037687 0)
(1.22123 0.0373014 0)
(1.28989 0.0370604 0)
(1.35812 0.0368525 0)
(1.42589 0.0365708 0)
(1.4933 0.0361514 0)
(1.56049 0.0355796 0)
(1.62758 0.0348793 0)
(1.69468 0.0341072 0)
(1.76184 0.0333395 0)
(1.82902 0.0326538 0)
(1.8961 0.0321101 0)
(1.96292 0.031717 0)
(2.02933 0.0314445 0)
(2.09521 0.0312196 0)
(2.16053 0.030973 0)
(2.2253 0.0306533 0)
(2.28959 0.0302548 0)
(2.35347 0.0298108 0)
(2.41694 0.0293692 0)
(2.47999 0.0289697 0)
(2.54254 0.0286161 0)
(2.60455 0.0282925 0)
(2.66599 0.0279731 0)
(2.72684 0.0276126 0)
(2.78715 0.0271674 0)
(2.84698 0.026625 0)
(2.90641 0.0260145 0)
(2.96546 0.0253938 0)
(3.02411 0.0248254 0)
(3.08228 0.0243422 0)
(3.13984 0.0239797 0)
(3.19665 0.0237363 0)
(3.25255 0.0235838 0)
(3.30741 0.0234754 0)
(3.36118 0.0233703 0)
(3.41382 0.0232352 0)
(3.46534 0.0230301 0)
(3.51583 0.0227044 0)
(3.56542 0.022238 0)
(3.61428 0.0216458 0)
(3.66254 0.020946 0)
(3.71029 0.0201824 0)
(3.75758 0.0194416 0)
(3.80437 0.0187986 0)
(3.85052 0.0182924 0)
(3.89591 0.0179286 0)
(3.94035 0.0177077 0)
(3.9837 0.0176043 0)
(4.02583 0.0175517 0)
(4.06669 0.0174938 0)
(4.10627 0.0173933 0)
(4.14462 0.0172021 0)
(4.18184 0.0168978 0)
(4.21809 0.0164991 0)
(4.25351 0.0160392 0)
(4.28824 0.0155407 0)
(4.32238 0.0150135 0)
(4.35605 0.0144701 0)
(4.38929 0.0139123 0)
(4.42213 0.0133397 0)
(4.45457 0.0127719 0)
(4.48659 0.0122437 0)
(4.51812 0.0117821 0)
(4.5491 0.0113987 0)
(4.57944 0.0110953 0)
(4.60908 0.010864 0)
(4.63797 0.0106818 0)
(4.66606 0.0105125 0)
(4.69336 0.0103203 0)
(4.71992 0.0100819 0)
(4.7458 0.00978767 0)
(4.77108 0.0094412 0)
(4.79584 0.00905537 0)
(4.82014 0.00865105 0)
(4.84403 0.00825368 0)
(4.86749 0.00789142 0)
(4.89049 0.00758563 0)
(4.91297 0.00734601 0)
(4.93483 0.00716023 0)
(4.95601 0.00700818 0)
(4.97646 0.00686109 0)
(4.99616 0.00670296 0)
(5.01513 0.00652702 0)
(5.03337 0.00634307 0)
(5.05089 0.00616197 0)
(5.06771 0.00598971 0)
(5.08384 0.00582533 0)
(5.09931 0.00566631 0)
(5.11413 0.00551487 0)
(5.12836 0.00532273 0)
(5.142 0.00510355 0)
(5.15507 0.00488547 0)
(5.16757 0.0047273 0)
(5.17949 0.00458928 0)
(5.19082 0.00446886 0)
(5.20157 0.00436937 0)
(5.21175 0.00428349 0)
(5.22138 0.00419761 0)
(5.23051 0.00410135 0)
(5.23915 0.00398693 0)
(5.24733 0.00387096 0)
(5.25505 0.00377536 0)
(5.26229 0.00371867 0)
(5.26905 0.0036945 0)
(5.27532 0.00369177 0)
(5.28113 0.00369682 0)
(5.28651 0.00369378 0)
(5.29149 0.00366935 0)
(5.29611 0.00361376 0)
(5.30041 0.0035402 0)
(5.30443 0.00346637 0)
(5.3082 0.00340308 0)
(5.31174 0.00335574 0)
(5.31509 0.00332046 0)
(5.31828 0.00328983 0)
(5.32132 0.00325316 0)
(5.32421 0.0032069 0)
(5.32699 0.00315002 0)
(5.32965 0.00309165 0)
(5.33221 0.00304184 0)
(5.33469 0.00300712 0)
(5.33708 0.00298587 0)
(5.3394 0.0029692 0)
(5.34166 0.00294979 0)
(5.34385 0.00292142 0)
(5.34602 0.00287968 0)
(5.34816 0.00282276 0)
(5.35032 0.00275797 0)
(5.35253 0.00269162 0)
(5.3548 0.00263735 0)
(5.35713 0.00259635 0)
(5.3595 0.00256439 0)
(5.36191 0.00253283 0)
(5.36437 0.00246857 0)
(5.3669 0.00235832 0)
(5.36958 0.00220654 0)
(5.37245 0.00191957 0)
(5.37553 0.00169596 0)
(5.37888 0.00142294 0)
(5.38255 0.00113284 0)
(5.38653 0.000889172 0)
(5.39075 0.000749067 0)
(5.39501 0.000754133 0)
(5.39909 0.000895393 0)
(5.40273 0.0011333 0)
(5.40586 0.00135193 0)
(5.40837 0.00154645 0)
(5.41027 0.00170051 0)
(5.41169 0.00164778 0)
(5.41282 0.00146666 0)
(5.41387 0.00118379 0)
(5.41498 0.000875076 0)
(5.41625 0.000601123 0)
(5.4176 0.000457022 0)
(5.41892 0.000461112 0)
(5.42008 0.00052489 0)
(5.42098 0.000639878 0)
(5.42151 0.000778404 0)
(5.4217 0.000588342 0)
(5.42181 0.000518547 0)
(5.42171 0.000227436 0)
(5.42197 -0.00038515 0)
(0.00348142 0.0533604 0)
(0.0176887 -0.030684 0)
(0.0818924 -0.042499 0)
(0.148093 -0.0805733 0)
(0.249782 -0.127378 0)
(0.379106 -0.165629 0)
(0.52745 -0.160511 0)
(0.675116 -0.140248 0)
(0.812745 -0.10483 0)
(0.925979 -0.0611956 0)
(1.01788 -0.0335981 0)
(1.08603 -0.01303 0)
(1.135 0.0028701 0)
(1.17446 0.00930684 0)
(1.20803 0.00782633 0)
(1.24181 -0.00514388 0)
(1.28449 -0.0163763 0)
(1.33677 -0.0303848 0)
(1.40183 -0.0467837 0)
(1.48199 -0.063644 0)
(1.57499 -0.0803747 0)
(1.67827 -0.0976843 0)
(1.78915 -0.115412 0)
(1.90435 -0.139554 0)
(2.02253 -0.177407 0)
(2.14443 -0.199626 0)
(2.25018 -0.189632 0)
(2.34015 -0.189642 0)
(2.41929 -0.202565 0)
(2.49759 -0.207017 0)
(2.56579 -0.206227 0)
(2.62299 -0.188399 0)
(2.64888 -0.146303 0)
(2.63678 -0.128561 0)
(2.60449 -0.154508 0)
(2.54349 -0.183635 0)
(2.46218 -0.114869 0)
(2.32093 0.0338821 0)
(2.05603 0.0978144 0)
(1.82465 0.106121 0)
(1.64274 0.153975 0)
(1.38649 0.15908 0)
(1.01623 0.124101 0)
(0.532753 0.134985 0)
(-0.0522885 0.17861 0)
(-0.724451 0.240543 0)
(-1.47266 0.314553 0)
(-2.29913 0.408016 0)
(-3.21586 0.528491 0)
(-4.23458 0.681648 0)
(-5.35878 0.857407 0)
(-6.56655 1.02946 0)
(-7.81743 1.17099 0)
(-9.06841 1.25647 0)
(-10.2996 1.30211 0)
(-11.4931 1.25274 0)
(-12.6195 1.12948 0)
(-13.6626 0.946204 0)
(-14.5942 0.745691 0)
(-15.394 0.607577 0)
(-16.0398 0.548452 0)
(-16.486 0.458856 0)
(-16.7143 0.401075 0)
(-16.7183 0.384416 0)
(-16.5519 0.336206 0)
(-16.3019 0.250561 0)
(-16.0152 0.132959 0)
(-15.6912 0.0243725 0)
(-15.3194 -0.0490867 0)
(-14.9006 -0.151432 0)
(-14.4343 -0.277233 0)
(-13.9117 -0.38446 0)
(-13.3055 -0.485435 0)
(-12.6009 -0.565496 0)
(-11.8119 -0.639585 0)
(-10.9547 -0.738712 0)
(-10.0557 -0.872468 0)
(-9.12209 -0.963053 0)
(-8.17716 -1.02709 0)
(-7.24602 -1.05683 0)
(-6.36319 -1.04807 0)
(-5.57049 -1.01792 0)
(-4.86808 -0.968016 0)
(-4.26487 -0.871067 0)
(-3.72079 -0.837274 0)
(-3.18664 -0.831763 0)
(-2.60888 -0.793174 0)
(-1.88153 -1.09504 0)
(-0.85615 -1.26299 0)
(0.220106 -1.22028 0)
(1.23288 -1.17651 0)
(2.17224 -1.1245 0)
(3.09845 -1.2065 0)
(4.07987 -1.27763 0)
(5.11076 -1.28048 0)
(6.13959 -1.16066 0)
(7.10089 -0.91742 0)
(7.98325 -0.634506 0)
(8.81906 -0.44083 0)
(9.61771 -0.31414 0)
(10.3938 -0.196569 0)
(11.1763 -0.1044 0)
(11.9933 -0.0283642 0)
(12.849 0.0248477 0)
(13.6657 0.049777 0)
(14.265 -2.67496e-05 0)
(14.5082 -0.0543347 0)
(14.5178 0.0245412 0)
(14.4086 0.0815886 0)
(14.2814 0.100555 0)
(14.1534 0.0847184 0)
(14.0186 0.108006 0)
(13.8351 0.206059 0)
(13.666 0.448281 0)
(13.3973 0.586762 0)
(13.0433 0.626958 0)
(12.5792 0.585544 0)
(11.9996 0.498048 0)
(11.3199 0.456087 0)
(10.5715 0.478926 0)
(9.78379 0.540876 0)
(8.97996 0.608131 0)
(8.17326 0.656298 0)
(7.37798 0.670475 0)
(6.6302 0.638689 0)
(5.9687 0.537554 0)
(5.40472 0.395363 0)
(4.90638 0.27803 0)
(4.44536 0.252891 0)
(4.0077 0.310149 0)
(3.55378 0.439376 0)
(3.06479 0.584481 0)
(2.58196 0.62333 0)
(2.15341 0.559555 0)
(1.82436 0.36953 0)
(1.63079 0.183281 0)
(1.51067 0.124159 0)
(1.41618 0.148252 0)
(1.3268 0.236769 0)
(1.19978 0.281537 0)
(1.07619 0.260386 0)
(0.966021 0.21475 0)
(0.878828 0.158121 0)
(0.820488 0.118458 0)
(0.786716 0.105423 0)
(0.771701 0.102508 0)
(0.766805 0.113033 0)
(0.767282 0.110621 0)
(0.783018 0.0942934 0)
(0.819573 0.0719575 0)
(0.87242 0.0295885 0)
(0.952416 0.00944293 0)
(1.04547 -0.00960878 0)
(1.15616 -0.0339947 0)
(1.28732 -0.0546232 0)
(1.437 -0.063213 0)
(1.60353 -0.0728585 0)
(1.78441 -0.0759634 0)
(1.97886 -0.0811534 0)
(2.18435 -0.0901824 0)
(2.39465 -0.10595 0)
(2.60521 -0.114226 0)
(2.80752 -0.122856 0)
(2.99487 -0.133081 0)
(3.16412 -0.145131 0)
(3.31674 -0.1642 0)
(3.46457 -0.201233 0)
(3.62857 -0.242825 0)
(3.81914 -0.271791 0)
(4.03614 -0.26303 0)
(4.25305 -0.230351 0)
(4.45534 -0.188739 0)
(4.64154 -0.142191 0)
(4.81688 -0.108343 0)
(4.98028 -0.082526 0)
(5.13274 -0.0723566 0)
(5.27474 -0.0778061 0)
(5.3994 -0.0717823 0)
(5.49196 -0.0553673 0)
(5.5515 -0.0460736 0)
(5.58598 -0.0465806 0)
(5.60105 -0.052454 0)
(5.60131 -0.0612814 0)
(5.59321 -0.0737722 0)
(5.58841 -0.0815124 0)
(5.58705 -0.065626 0)
(5.58296 -0.0377276 0)
(5.56703 -0.0275946 0)
(5.55047 -0.0150217 0)
(5.5257 -0.003826 0)
(5.49358 0.00326181 0)
(5.45186 0.0113013 0)
(5.39985 0.0149284 0)
(5.3406 0.0191068 0)
(5.27513 0.0209628 0)
(5.20557 0.0219455 0)
(5.13345 0.0207757 0)
(5.05988 0.0193051 0)
(4.98547 0.0175395 0)
(4.91029 0.0161844 0)
(4.83396 0.0157794 0)
(4.75615 0.0170434 0)
(4.6765 0.0202432 0)
(4.59462 0.0249258 0)
(4.5103 0.0301888 0)
(4.42373 0.0348127 0)
(4.33558 0.037781 0)
(4.2468 0.0388459 0)
(4.15849 0.0382429 0)
(4.07164 0.0362485 0)
(3.98696 0.03355 0)
(3.90477 0.0309909 0)
(3.82501 0.029584 0)
(3.74726 0.0300204 0)
(3.67089 0.0323598 0)
(3.59537 0.0360872 0)
(3.52047 0.0402004 0)
(3.4464 0.0435811 0)
(3.37374 0.045473 0)
(3.30328 0.0455835 0)
(3.2359 0.0438452 0)
(3.17241 0.0405051 0)
(3.11348 0.0361422 0)
(3.05937 0.0315199 0)
(3.00982 0.0276703 0)
(2.96401 0.0255544 0)
(2.9208 0.0258352 0)
(2.87896 0.028781 0)
(2.83735 0.0342141 0)
(2.79509 0.0413254 0)
(2.75177 0.0487409 0)
(2.7077 0.0550134 0)
(2.66388 0.05861 0)
(2.62187 0.0593809 0)
(2.58307 0.0575884 0)
(2.54892 0.0535506 0)
(2.52054 0.0481669 0)
(2.49844 0.0421646 0)
(2.48295 0.0365135 0)
(2.47304 0.0327088 0)
(2.46722 0.0311947 0)
(2.46428 0.0326512 0)
(2.46347 0.0357032 0)
(2.4635 0.040775 0)
(2.46237 0.0468188 0)
(2.46041 0.0522231 0)
(2.459 0.0557602 0)
(2.45952 0.0570636 0)
(2.46234 0.0566548 0)
(2.46828 0.055026 0)
(2.47832 0.0527135 0)
(2.49269 0.0501188 0)
(2.51155 0.0477364 0)
(2.53469 0.0460443 0)
(2.56168 0.0453242 0)
(2.59197 0.0456183 0)
(2.62495 0.0466789 0)
(2.66011 0.0479352 0)
(2.69719 0.0489416 0)
(2.73616 0.0494832 0)
(2.77713 0.0496647 0)
(2.82015 0.0496406 0)
(2.86524 0.0495374 0)
(2.91237 0.0495389 0)
(2.96141 0.0498458 0)
(3.01221 0.05056 0)
(3.06457 0.0516464 0)
(3.11835 0.052956 0)
(3.17346 0.054184 0)
(3.23002 0.0549252 0)
(3.28833 0.0549048 0)
(3.34884 0.0540839 0)
(3.41193 0.0526495 0)
(3.47785 0.0509127 0)
(3.54652 0.0492606 0)
(3.6176 0.048157 0)
(3.69046 0.0480239 0)
(3.76434 0.0491198 0)
(3.83845 0.051394 0)
(3.91215 0.0544557 0)
(3.98515 0.0576421 0)
(4.05756 0.0602481 0)
(4.12997 0.0617137 0)
(4.20331 0.0617683 0)
(4.27866 0.0605159 0)
(4.35692 0.0582624 0)
(4.43869 0.0558503 0)
(4.52425 0.0532361 0)
(4.61343 0.0508133 0)
(4.70565 0.0491026 0)
(4.79995 0.0485778 0)
(4.8952 0.0494373 0)
(4.99024 0.0514975 0)
(5.08419 0.0542129 0)
(5.17666 0.0567732 0)
(5.26796 0.0584568 0)
(5.35891 0.0589607 0)
(5.45048 0.058414 0)
(5.5435 0.0571963 0)
(5.63841 0.0556991 0)
(5.7353 0.0542633 0)
(5.83398 0.0531754 0)
(5.93403 0.0526656 0)
(6.03489 0.0527932 0)
(6.13602 0.0533626 0)
(6.23705 0.0539773 0)
(6.33795 0.0542748 0)
(6.43894 0.0541451 0)
(6.54027 0.0536901 0)
(6.64209 0.053059 0)
(6.74437 0.0523782 0)
(6.847 0.0517677 0)
(6.94977 0.0513544 0)
(7.05247 0.0512266 0)
(7.15488 0.0513616 0)
(7.25686 0.0516365 0)
(7.35834 0.0519012 0)
(7.45935 0.0520126 0)
(7.56002 0.0518646 0)
(7.66055 0.0513932 0)
(7.76117 0.0505993 0)
(7.86211 0.0495704 0)
(7.96344 0.0484734 0)
(8.0651 0.047501 0)
(8.16684 0.0468149 0)
(8.26824 0.0465375 0)
(8.36881 0.0466718 0)
(8.46813 0.047094 0)
(8.56592 0.047618 0)
(8.66216 0.048052 0)
(8.75706 0.0482181 0)
(8.85104 0.0479894 0)
(8.94461 0.0473464 0)
(9.03822 0.046381 0)
(9.13217 0.0452659 0)
(9.22653 0.0441874 0)
(9.32118 0.043296 0)
(9.41585 0.0426722 0)
(9.51025 0.0423128 0)
(9.60412 0.0421506 0)
(9.69726 0.0420751 0)
(9.78963 0.0419642 0)
(9.88129 0.0417297 0)
(9.97235 0.0413352 0)
(10.0629 0.040787 0)
(10.1531 0.0401305 0)
(10.243 0.0394413 0)
(10.3326 0.0388099 0)
(10.4217 0.0383239 0)
(10.5103 0.0380186 0)
(10.5982 0.0378828 0)
(10.6852 0.0378449 0)
(10.7713 0.037823 0)
(10.8564 0.037745 0)
(10.9406 0.0375829 0)
(11.0239 0.0373582 0)
(11.1065 0.0371162 0)
(11.1883 0.0369065 0)
(11.2692 0.0367412 0)
(11.3491 0.0366034 0)
(11.4281 0.0364731 0)
(11.5061 0.036316 0)
(11.5834 0.0360889 0)
(11.6599 0.0357651 0)
(11.7359 0.0353543 0)
(11.8114 0.0348984 0)
(11.8865 0.0344681 0)
(11.9609 0.034108 0)
(12.0344 0.0338736 0)
(12.1069 0.033792 0)
(12.178 0.0338567 0)
(12.2475 0.0340263 0)
(12.3155 0.0342464 0)
(12.3819 0.0344655 0)
(12.4466 0.0346191 0)
(12.5098 0.0346087 0)
(12.5717 0.0343655 0)
(12.6324 0.0339079 0)
(12.6922 0.0332829 0)
(12.7514 0.0325328 0)
(12.8101 0.0317485 0)
(12.8682 0.0310291 0)
(12.9258 0.0304517 0)
(12.9825 0.0300402 0)
(13.0381 0.0298126 0)
(13.0922 0.0297751 0)
(13.1446 0.0298637 0)
(13.1951 0.0300042 0)
(13.2439 0.0301618 0)
(13.2909 0.0302669 0)
(13.3365 0.0302288 0)
(13.3807 0.0299937 0)
(13.4238 0.0295522 0)
(13.4661 0.0289248 0)
(13.5078 0.0281326 0)
(13.5488 0.0272228 0)
(13.5894 0.0262735 0)
(13.6296 0.0253412 0)
(13.6695 0.0244608 0)
(13.7089 0.0236661 0)
(13.7479 0.0229795 0)
(13.7862 0.0223981 0)
(13.8236 0.0219078 0)
(13.86 0.0214997 0)
(13.8953 0.0211615 0)
(13.9294 0.0208618 0)
(13.9624 0.020552 0)
(13.9942 0.0201867 0)
(14.025 0.0197326 0)
(14.055 0.0191768 0)
(14.0842 0.0185242 0)
(14.1129 0.0177915 0)
(14.1409 0.0170134 0)
(14.1685 0.0162369 0)
(14.1955 0.0155155 0)
(14.2219 0.0148906 0)
(14.2476 0.0143674 0)
(14.2724 0.0139279 0)
(14.2963 0.0135303 0)
(14.3192 0.0131463 0)
(14.3412 0.0127535 0)
(14.3623 0.0123499 0)
(14.3826 0.0119334 0)
(14.402 0.011501 0)
(14.4206 0.0110453 0)
(14.4385 0.0105663 0)
(14.4556 0.0100099 0)
(14.472 0.00948083 0)
(14.4878 0.00895691 0)
(14.503 0.00845933 0)
(14.5175 0.00797325 0)
(14.5315 0.00753736 0)
(14.5449 0.00713132 0)
(14.5577 0.00673119 0)
(14.5698 0.00632496 0)
(14.5813 0.00590501 0)
(14.5922 0.00549022 0)
(14.6027 0.00509964 0)
(14.6126 0.00474387 0)
(14.6221 0.00443687 0)
(14.6311 0.00418379 0)
(14.6395 0.00397483 0)
(14.6473 0.00377942 0)
(14.6545 0.00357736 0)
(14.6611 0.00337031 0)
(14.6672 0.00316479 0)
(14.6728 0.00296629 0)
(14.6781 0.00277244 0)
(14.683 0.0025751 0)
(14.6875 0.00236148 0)
(14.6918 0.00212213 0)
(14.6957 0.00186702 0)
(14.6994 0.00161715 0)
(14.7028 0.00139277 0)
(14.706 0.00119918 0)
(14.709 0.00102703 0)
(14.7118 0.000866705 0)
(14.7145 0.000711126 0)
(14.7171 0.000560105 0)
(14.7195 0.000420675 0)
(14.7218 0.000295299 0)
(14.7239 0.000185643 0)
(14.7259 9.08406e-05 0)
(14.7278 -4.69685e-07 0)
(14.7297 -0.000101232 0)
(14.7315 -0.000224465 0)
(14.7333 -0.000367423 0)
(14.7351 -0.000513319 0)
(14.737 -0.000636011 0)
(14.7389 -0.000728228 0)
(14.7409 -0.000802723 0)
(14.7428 -0.000892942 0)
(14.7448 -0.00105069 0)
(14.747 -0.00128982 0)
(14.7493 -0.0014823 0)
(14.752 -0.00182927 0)
(14.7552 -0.00225239 0)
(14.7589 -0.00274324 0)
(14.7631 -0.00324191 0)
(14.7679 -0.00353602 0)
(14.7729 -0.00360895 0)
(14.7777 -0.00329165 0)
(14.7821 -0.00278869 0)
(14.7857 -0.00214588 0)
(14.7884 -0.00138432 0)
(14.7902 -0.000757832 0)
(14.7914 -0.000294151 0)
(14.7922 -0.000132157 0)
(14.7929 -0.000163857 0)
(14.794 -0.000393746 0)
(14.7955 -0.000704722 0)
(14.7975 -0.000886954 0)
(14.7998 -0.00103567 0)
(14.8021 -0.000983728 0)
(14.8043 -0.000792362 0)
(14.806 -0.000316774 0)
(14.8072 -0.000111062 0)
(14.8081 -7.34246e-05 0)
(14.8087 2.98388e-06 0)
(14.8093 6.93809e-05 0)
(0.048046 -0.00854377 0)
(0.14957 -0.129101 0)
(0.303215 -0.14283 0)
(0.434079 -0.176256 0)
(0.566923 -0.224041 0)
(0.699035 -0.274689 0)
(0.842157 -0.281318 0)
(0.982651 -0.264914 0)
(1.11384 -0.223316 0)
(1.22301 -0.164284 0)
(1.32054 -0.12144 0)
(1.39709 -0.0777824 0)
(1.46393 -0.0525007 0)
(1.52419 -0.0361695 0)
(1.58341 -0.0347256 0)
(1.64656 -0.0518808 0)
(1.72164 -0.0742523 0)
(1.81185 -0.0992503 0)
(1.92029 -0.131832 0)
(2.05235 -0.163132 0)
(2.20597 -0.188366 0)
(2.3772 -0.208234 0)
(2.56203 -0.221893 0)
(2.7556 -0.237625 0)
(2.95225 -0.264122 0)
(3.14185 -0.257213 0)
(3.30102 -0.212768 0)
(3.44174 -0.189795 0)
(3.55841 -0.19029 0)
(3.64185 -0.18361 0)
(3.68382 -0.180315 0)
(3.6895 -0.156764 0)
(3.637 -0.109468 0)
(3.50371 -0.0822427 0)
(3.30962 -0.0730411 0)
(3.07932 -0.0478089 0)
(2.84284 0.0442889 0)
(2.63142 0.18652 0)
(2.39301 0.250876 0)
(2.14509 0.259279 0)
(1.84636 0.416069 0)
(1.31713 0.678976 0)
(0.480988 0.847918 0)
(-0.54014 0.980799 0)
(-1.68333 1.10442 0)
(-2.90019 1.21762 0)
(-4.16268 1.33239 0)
(-5.46363 1.4767 0)
(-6.80261 1.65772 0)
(-8.17391 1.86479 0)
(-9.54778 2.03219 0)
(-10.87 2.12915 0)
(-12.0997 2.165 0)
(-13.1875 2.13994 0)
(-14.1078 2.1521 0)
(-14.8418 2.08469 0)
(-15.3894 1.98239 0)
(-15.8122 1.79721 0)
(-16.1793 1.54763 0)
(-16.5115 1.29372 0)
(-16.7272 1.04211 0)
(-16.7484 0.731196 0)
(-16.8173 0.388486 0)
(-16.7783 0.130315 0)
(-16.6598 -0.155406 0)
(-16.4072 -0.337748 0)
(-16.1105 -0.489366 0)
(-15.7762 -0.627132 0)
(-15.3925 -0.753938 0)
(-14.9602 -0.924809 0)
(-14.4743 -1.10317 0)
(-13.9232 -1.3179 0)
(-13.2849 -1.57838 0)
(-12.4931 -1.875 0)
(-11.544 -2.14472 0)
(-10.4604 -2.3599 0)
(-9.3141 -2.51468 0)
(-8.15713 -2.59558 0)
(-7.01834 -2.55552 0)
(-5.90392 -2.44688 0)
(-4.81625 -2.25778 0)
(-3.75347 -2.02893 0)
(-2.70163 -1.81768 0)
(-1.63521 -1.63829 0)
(-0.521801 -1.53237 0)
(0.621894 -1.44965 0)
(1.82247 -1.37496 0)
(3.03877 -1.5111 0)
(4.21691 -1.66697 0)
(5.39641 -1.66479 0)
(6.60831 -1.62085 0)
(7.85453 -1.53914 0)
(9.06827 -1.51543 0)
(10.0948 -1.6058 0)
(10.8617 -1.78089 0)
(11.4817 -1.82667 0)
(12.0793 -1.85976 0)
(12.7473 -1.87135 0)
(13.4825 -1.83125 0)
(14.2516 -1.7668 0)
(15.0305 -1.7218 0)
(15.8032 -1.71346 0)
(16.5609 -1.75044 0)
(17.3122 -1.74617 0)
(18.0544 -1.49599 0)
(18.6874 -0.88217 0)
(19.143 -0.137112 0)
(19.6794 0.2131 0)
(20.1781 0.405553 0)
(20.7128 0.484984 0)
(21.2394 0.43995 0)
(21.6581 0.452141 0)
(21.8178 0.379952 0)
(21.7228 0.455576 0)
(21.4006 0.671233 0)
(20.8974 0.942636 0)
(20.2971 1.23878 0)
(19.6449 1.47727 0)
(18.9703 1.66528 0)
(18.2505 1.77826 0)
(17.4753 1.83775 0)
(16.6579 1.8474 0)
(15.8213 1.87215 0)
(14.9785 1.85682 0)
(14.137 1.7633 0)
(13.2823 1.56912 0)
(12.3857 1.33213 0)
(11.4463 1.13594 0)
(10.5505 0.986151 0)
(9.76629 0.905387 0)
(9.08631 0.99225 0)
(8.45394 1.10802 0)
(7.79277 1.13476 0)
(7.10392 1.02937 0)
(6.48793 0.745696 0)
(6.06193 0.415352 0)
(5.74582 0.306875 0)
(5.50155 0.340156 0)
(5.25795 0.45892 0)
(4.95087 0.515689 0)
(4.6225 0.490518 0)
(4.32622 0.437242 0)
(4.12718 0.371746 0)
(4.03772 0.297654 0)
(4.00136 0.25172 0)
(4.00365 0.228468 0)
(4.01139 0.229138 0)
(4.00942 0.20608 0)
(3.9923 0.154817 0)
(3.98134 0.102773 0)
(4.03447 0.0375248 0)
(4.14821 -0.0102389 0)
(4.29483 -0.0487878 0)
(4.46445 -0.0999969 0)
(4.65235 -0.150815 0)
(4.84498 -0.195432 0)
(5.02844 -0.243577 0)
(5.20659 -0.279104 0)
(5.38694 -0.327168 0)
(5.59925 -0.351054 0)
(5.8472 -0.361094 0)
(6.12725 -0.349505 0)
(6.44026 -0.311994 0)
(6.79128 -0.25729 0)
(7.18323 -0.199745 0)
(7.59985 -0.160485 0)
(8.00628 -0.176379 0)
(8.35387 -0.233613 0)
(8.62166 -0.295253 0)
(8.80742 -0.366959 0)
(8.95747 -0.360524 0)
(9.10167 -0.355576 0)
(9.24942 -0.373637 0)
(9.39717 -0.386797 0)
(9.53737 -0.391849 0)
(9.66933 -0.393629 0)
(9.80666 -0.373311 0)
(9.95429 -0.309843 0)
(10.1056 -0.22189 0)
(10.2575 -0.155281 0)
(10.3965 -0.0977198 0)
(10.5326 -0.0585491 0)
(10.665 -0.0312146 0)
(10.7865 -0.0206428 0)
(10.8768 -0.0345774 0)
(10.9216 -0.0368175 0)
(10.9254 -0.0428911 0)
(10.897 -0.0443828 0)
(10.845 -0.0440265 0)
(10.7826 -0.0412602 0)
(10.7251 -0.0307731 0)
(10.6836 -0.0083042 0)
(10.6491 0.00543527 0)
(10.6192 0.0188547 0)
(10.5846 0.0262522 0)
(10.5414 0.0297708 0)
(10.49 0.0299906 0)
(10.4325 0.0285534 0)
(10.3714 0.0261975 0)
(10.3087 0.0254609 0)
(10.2455 0.0265389 0)
(10.1813 0.0295115 0)
(10.1149 0.0348072 0)
(10.045 0.0421406 0)
(9.97092 0.0503443 0)
(9.89269 0.0576062 0)
(9.81146 0.0624579 0)
(9.72935 0.0641033 0)
(9.6487 0.062796 0)
(9.5714 0.0592109 0)
(9.49857 0.0545576 0)
(9.43053 0.0501575 0)
(9.36669 0.047465 0)
(9.30574 0.0475548 0)
(9.24604 0.0505454 0)
(9.18614 0.0555905 0)
(9.12515 0.0611428 0)
(9.06325 0.06562 0)
(9.00164 0.0678986 0)
(8.94198 0.0674884 0)
(8.88587 0.0642049 0)
(8.83455 0.0583254 0)
(8.78884 0.050699 0)
(8.74896 0.0429144 0)
(8.71445 0.0365838 0)
(8.68408 0.0334553 0)
(8.65642 0.0343341 0)
(8.62978 0.039394 0)
(8.60204 0.0481092 0)
(8.5712 0.0593275 0)
(8.5365 0.0709263 0)
(8.499 0.0806065 0)
(8.46099 0.0858893 0)
(8.42535 0.0865909 0)
(8.39423 0.0830222 0)
(8.36934 0.0756055 0)
(8.35219 0.0656411 0)
(8.34295 0.0551201 0)
(8.34309 0.0454712 0)
(8.35116 0.03904 0)
(8.36513 0.0360569 0)
(8.38254 0.0383885 0)
(8.4005 0.043519 0)
(8.41626 0.05194 0)
(8.42753 0.0617728 0)
(8.43448 0.0706589 0)
(8.44008 0.0767404 0)
(8.44694 0.0793379 0)
(8.45653 0.078512 0)
(8.47082 0.075296 0)
(8.4917 0.070761 0)
(8.52003 0.0657092 0)
(8.55556 0.0608918 0)
(8.59695 0.0571886 0)
(8.64213 0.0551534 0)
(8.68899 0.0549157 0)
(8.73599 0.056088 0)
(8.78255 0.0577882 0)
(8.8291 0.0591907 0)
(8.87672 0.059985 0)
(8.92665 0.0602452 0)
(8.98 0.0602184 0)
(9.03738 0.0601384 0)
(9.09873 0.0602517 0)
(9.16329 0.0608273 0)
(9.22988 0.0620198 0)
(9.29722 0.0637821 0)
(9.36436 0.0659011 0)
(9.43087 0.0679071 0)
(9.49693 0.0690762 0)
(9.56333 0.068852 0)
(9.63119 0.0670894 0)
(9.7017 0.0641807 0)
(9.77577 0.0608709 0)
(9.85385 0.0580015 0)
(9.93577 0.0564362 0)
(10.0207 0.0568155 0)
(10.1074 0.0594627 0)
(10.1941 0.064203 0)
(10.2796 0.0703196 0)
(10.363 0.0766045 0)
(10.4442 0.0817166 0)
(10.5241 0.0845133 0)
(10.6042 0.0843375 0)
(10.6861 0.081339 0)
(10.7714 0.0762442 0)
(10.8612 0.0696406 0)
(10.9559 0.0627818 0)
(11.0554 0.0568597 0)
(11.1591 0.0529738 0)
(11.2655 0.0519781 0)
(11.3733 0.0542069 0)
(11.4807 0.059282 0)
(11.5863 0.0660529 0)
(11.6894 0.0726342 0)
(11.7902 0.0771781 0)
(11.8896 0.0788011 0)
(11.989 0.0777503 0)
(12.0899 0.0749798 0)
(12.1932 0.0715301 0)
(12.2993 0.0682854 0)
(12.4081 0.0659029 0)
(12.5189 0.0648555 0)
(12.6305 0.0652796 0)
(12.7418 0.06679 0)
(12.8521 0.0685042 0)
(12.961 0.0695294 0)
(13.0689 0.0695405 0)
(13.1765 0.068789 0)
(13.2846 0.0677354 0)