/*--------------------------------*- C++ -*----------------------------------*\
| =========                 |                                                 |
| \\      /  F ield         | OpenFOAM: The Open Source CFD Toolbox           |
|  \\    /   O peration     | Version:  v1812                                 |
|   \\  /    A nd           | Web:      www.OpenFOAM.com                      |
|    \\/     M anipulation  |                                                 |
\*---------------------------------------------------------------------------*/
FoamFile
{
    version     2.0;
    format      ascii;
    class       volScalarField;
    location    "0.9";
    object      p;
}
// * * * * * * * * * * * * * * * * * * * * * * * * * * * * * * * * * * * * * //

dimensions      [1 -1 -2 0 0 0 0];


internalField   nonuniform List<scalar> 
20400
(
99471.1
99471.6
99471.3
99472.6
99473.8
99475.2
99476.7
99478.5
99480.5
99482.7
99485.4
99488.3
99491.4
99494.5
99498.1
99501.7
99505.6
99510.1
99510.9
99512.7
99520.7
99520.7
99520.7
99532
99536.9
99541.8
99547.5
99546.9
99552.9
99544
99536.2
99548.5
99555.9
99557.6
99556.8
99566.2
99564.4
99568.7
99569.1
99572.9
99577.3
99578.8
99577.1
99586.5
99593.1
99599.3
99612.5
99615.3
99638
99657.9
99685.7
99690.4
99706.1
99727.4
99745.9
99766.5
99780.8
99792.5
99803.8
99815.9
99819.8
99828.4
99835.8
99840.8
99832.9
99829.8
99829
99802.5
99812.7
99815.1
99802.8
99792.3
99780.2
99768.4
99756.6
99745.9
99735.6
99728
99721.7
99718.3
99717.5
99716.9
99719.5
99721.2
99728
99742.6
99751.1
99762.6
99780.5
99806.9
99829.9
99849.9
99871
99892.1
99911.3
99930.9
99948.3
99963.1
99976.8
99988.4
99995.3
99998.5
99997.8
99993.8
99987.2
99985
99974.8
99964.6
99962.1
99949.8
99941.4
99931.1
99919.9
99908
99895.6
99882.6
99869.5
99855.9
99842.7
99828.8
99815.5
99805.4
99792.1
99776.1
99765.9
99750.2
99735.6
99720.8
99706.7
99692.7
99678.5
99665.2
99652.3
99639.9
99626.1
99611.9
99601.4
99588.7
99580.7
99568.5
99561.4
99550.9
99542.1
99534.9
99528.1
99522.1
99517
99513
99508.9
99504.5
99503.2
99502.7
99501.7
99501.8
99503.2
99507.1
99507.9
99510.4
99512.2
99517
99521.9
99522
99531.9
99537.5
99540.4
99542.7
99555.7
99574.2
99586.1
99593.8
99609.1
99631.1
99653.2
99676
99701.6
99729.3
99758
99787.1
99819.1
99849.9
99885.6
99919.5
99953.9
99988
100023
100059
100095
100130
100166
100200
100234
100268
100300
100332
100364
100394
100423
100452
100480
100506
100532
100558
100583
100607
100631
100653
100674
100693
100710
100725
100743
100763
100778
100792
100802
100815
100828
100839
100848
100856
100861
100867
100870
100872
100875
100876
100876
100873
100869
100866
100860
100853
100847
100838
100829
100818
100806
100792
100778
100763
100746
100730
100713
100695
100676
100656
100637
100616
100595
100574
100552
100532
100511
100490
100470
100449
100429
100410
100391
100372
100353
100336
100319
100305
100289
100276
100263
100250
100239
100229
100220
100212
100206
100200
100195
100191
100188
100186
100185
100185
100187
100189
100191
100193
100203
100202
100207
100215
100224
100234
100240
100249
100260
100270
100282
100296
100309
100323
100337
100352
100369
100385
100403
100421
100440
100460
100481
100502
100524
100547
100571
100594
100618
100643
100668
100693
100718
100743
100769
100795
100819
100846
100871
100897
100922
100946
100970
100994
101017
101040
101062
101084
101105
101125
101144
101162
101179
101196
101211
101226
101239
101251
101262
101272
101281
101289
101296
101302
101306
101310
101312
101313
101313
101312
101310
101306
101302
101296
101290
101283
101274
101265
101255
101244
101232
101219
101206
101192
101177
101162
101147
101131
101114
101097
101080
101063
101045
101027
101010
100992
100974
100956
100939
100921
100904
100888
100871
100855
100840
100825
100810
100796
100783
100770
100758
100747
100736
100727
100718
100710
100703
100697
100691
100687
100684
100682
100681
100681
100682
100684
100687
100691
100696
100702
100709
100718
100727
100737
100748
100761
100774
100788
100803
100818
100835
100852
100870
100889
100908
100928
100948
100969
100990
101012
101034
101056
101079
101102
101124
101147
101170
101193
101216
101238
101260
101282
101304
101325
101346
101367
101386
101406
101424
101442
101460
101476
101492
101507
101521
101534
101546
101558
101568
101577
101585
101592
101598
101603
101607
101610
101612
101613
101612
101611
101609
101606
101602
101597
101591
101584
101577
101568
101559
101550
101539
101528
101516
101504
101491
101477
101463
101449
101435
101421
101406
101391
101376
101361
101344
101335
99472.2
99472
99471.9
99473
99473.7
99474.4
99475.6
99477
99478.6
99480.5
99482.9
99485.7
99488.5
99491.5
99494.9
99498.6
99502.5
99506
99512.1
99515
99521.8
99521.5
99512.7
99532.7
99536.9
99539.5
99538.6
99541.7
99552
99544.5
99525.1
99544.8
99547.6
99544.8
99533.7
99541.5
99550.7
99552.7
99553.8
99557.5
99558.8
99560.6
99577.2
99600.9
99613.2
99618.1
99632.7
99642.3
99668
99675
99687.5
99731
99734.9
99761.4
99766.7
99774.3
99789.4
99801
99812.8
99824.5
99832
99864.5
99785.1
99829.8
99833.4
99825.3
99829
99779.5
99814.4
99820.6
99815.8
99811.5
99807.6
99802.7
99795.6
99787.7
99778.1
99768.4
99756.6
99745.2
99736.9
99732.6
99729.6
99735.5
99748.4
99767.5
99781.7
99794.7
99811.2
99829.6
99843.5
99856.3
99868.7
99879.7
99888.4
99896.5
99903.6
99908.8
99913.9
99921.2
99926.9
99930.4
99931.9
99931.2
99928.1
99929.8
99928.4
99922.2
99887.4
99878.2
99863.4
99847.9
99832.7
99818
99803.9
99790.3
99777.6
99765.5
99754.8
99745.1
99734.5
99729.4
99744.1
99732
99722.5
99719.9
99714.2
99705.6
99695.4
99684.5
99673.7
99663.1
99651.9
99639.6
99625.9
99610.9
99599.7
99587.9
99579
99566.8
99561.6
99552.6
99545.7
99540.6
99536
99532.7
99530.3
99529.6
99530.3
99534.4
99535.3
99532.6
99535.3
99554.4
99556.6
99561.8
99565.9
99570.1
99572.7
99575.5
99576.6
99581.3
99577.8
99592.1
99589.9
99582.3
99590.7
99618
99643.9
99645.7
99639
99654.5
99684.6
99704.9
99724.5
99747.4
99770.6
99793.8
99819.9
99846.1
99874.7
99904
99934
99965.2
99997.5
100030
100064
100098
100132
100167
100202
100236
100270
100304
100338
100370
100401
100432
100462
100491
100518
100544
100570
100594
100617
100641
100659
100678
100696
100712
100730
100749
100765
100779
100790
100804
100815
100827
100836
100845
100851
100857
100862
100864
100867
100869
100870
100869
100866
100864
100859
100854
100848
100840
100831
100820
100809
100796
100782
100768
100753
100737
100720
100703
100685
100666
100647
100627
100606
100585
100564
100543
100522
100500
100480
100458
100438
100418
100401
100386
100369
100353
100337
100322
100308
100295
100283
100271
100260
100249
100239
100230
100223
100215
100209
100204
100199
100195
100192
100191
100190
100190
100191
100193
100199
100186
100191
100193
100198
100206
100214
100224
100237
100250
100264
100281
100297
100314
100331
100350
100369
100388
100408
100429
100450
100471
100493
100515
100538
100561
100584
100608
100632
100656
100681
100706
100730
100755
100780
100805
100829
100854
100879
100903
100927
100951
100974
100997
101020
101042
101063
101084
101104
101124
101142
101160
101178
101194
101209
101223
101237
101249
101260
101270
101279
101287
101294
101300
101304
101308
101310
101311
101311
101310
101308
101305
101300
101295
101288
101281
101273
101263
101253
101242
101230
101218
101205
101191
101176
101161
101145
101129
101113
101096
101079
101061
101043
101026
101008
100990
100973
100955
100937
100920
100903
100886
100870
100854
100838
100823
100809
100795
100781
100769
100757
100746
100735
100725
100717
100709
100702
100696
100691
100686
100683
100681
100680
100680
100681
100683
100686
100690
100695
100702
100709
100717
100726
100737
100748
100760
100773
100787
100802
100818
100835
100852
100870
100889
100908
100928
100948
100969
100991
101012
101034
101057
101079
101102
101125
101147
101170
101193
101216
101238
101261
101283
101304
101326
101347
101367
101387
101406
101425
101443
101460
101476
101492
101507
101521
101534
101546
101557
101567
101577
101585
101592
101598
101602
101606
101609
101611
101611
101611
101609
101607
101604
101599
101594
101588
101581
101573
101564
101555
101545
101534
101522
101510
101497
101483
101469
101454
101440
101424
101409
101394
101378
101362
101347
101331
101330
99470.9
99471.1
99470.6
99471.4
99472.2
99473.2
99474.4
99475.8
99477.4
99479.5
99482.2
99485.2
99488.3
99492.1
99496
99499.7
99503.4
99506.3
99511.8
99515.5
99519.4
99512.8
99526.1
99532.8
99540.2
99544.8
99546.4
99547
99551.2
99545.4
99552.9
99558.3
99564.5
99564.9
99553.9
99557.4
99559.9
99561.8
99557.7
99556.3
99553.9
99554.7
99566.4
99574.6
99582.6
99598.8
99615.6
99626.7
99647.9
99661.5
99687.6
99709.5
99716.1
99728.2
99738.5
99753.6
99767.6
99781.3
99795.7
99809.9
99816.3
99820.6
99844.7
99853.7
99844.9
99830.2
99849.8
99841.8
99822.2
99838.7
99827.9
99814.1
99799.6
99784.6
99770.1
99757.7
99747.1
99739.1
99728.9
99718.5
99710
99699.9
99700.8
99691.8
99690.9
99693.5
99695.2
99698.6
99706.2
99720.2
99729.4
99739.3
99750.2
99761.8
99772.6
99784.3
99797.2
99811.1
99825.8
99843.5
99860
99875.1
99887.3
99898.7
99907.6
99918.6
99921
99923.2
99930.7
99927.5
99922.1
99916.2
99908.8
99900.6
99891.8
99882.8
99873.7
99864.1
99853.5
99843.1
99831.7
99813.9
99778.5
99757.2
99740.8
99722.6
99708.1
99695.4
99684.6
99675.1
99665.6
99657.5
99647
99635.1
99623.6
99613.9
99609.9
99605.8
99596.6
99566.1
99560.3
99555
99549.9
99544.8
99541.5
99537.5
99532.6
99529
99526.2
99522.6
99521.4
99520.3
99520.4
99522.9
99528.7
99530.9
99529.7
99529.4
99531.8
99537
99544.2
99550.5
99554.9
99558.5
99581.1
99597.3
99596.2
99584.6
99585.8
99616.6
99646.9
99655.4
99657.4
99677.5
99700.7
99721
99746.1
99776.9
99807.3
99839.9
99874
99908.7
99944.1
99979.1
100015
100051
100088
100125
100162
100198
100234
100270
100304
100336
100369
100400
100431
100461
100490
100517
100544
100570
100596
100621
100645
100666
100690
100710
100729
100745
100764
100780
100797
100811
100822
100836
100846
100857
100866
100874
100881
100887
100891
100894
100896
100896
100894
100891
100883
100877
100865
100855
100849
100840
100830
100818
100806
100792
100778
100763
100748
100731
100714
100696
100677
100658
100639
100619
100597
100576
100555
100535
100514
100490
100468
100446
100426
100400
100378
100364
100335
100315
100295
100273
100254
100235
100217
100201
100187
100174
100161
100151
100142
100134
100127
100122
100118
100115
100114
100115
100117
100119
100123
100127
100132
100170
100178
100190
100207
100224
100235
100246
100259
100271
100284
100299
100312
100326
100341
100357
100373
100390
100408
100426
100445
100464
100484
100505
100526
100548
100570
100594
100617
100641
100665
100690
100715
100739
100765
100791
100814
100841
100867
100893
100918
100943
100968
100992
101015
101039
101061
101083
101104
101124
101144
101162
101180
101197
101212
101227
101240
101252
101264
101274
101283
101291
101298
101303
101308
101311
101313
101315
101314
101313
101311
101307
101303
101298
101291
101284
101275
101266
101256
101245
101233
101220
101207
101193
101179
101163
101148
101132
101115
101098
101081
101064
101046
101028
101011
100993
100975
100957
100940
100922
100905
100888
100872
100856
100840
100825
100811
100797
100783
100771
100759
100747
100737
100727
100718
100710
100703
100697
100692
100688
100684
100682
100681
100681
100682
100684
100687
100691
100696
100702
100709
100718
100727
100737
100748
100760
100774
100788
100802
100818
100835
100852
100870
100888
100908
100928
100948
100969
100990
101012
101034
101056
101079
101101
101124
101147
101170
101193
101215
101238
101260
101282
101304
101325
101346
101366
101386
101406
101424
101442
101460
101476
101492
101507
101521
101534
101547
101558
101568
101577
101586
101593
101599
101604
101608
101611
101613
101614
101614
101613
101611
101608
101604
101599
101594
101587
101580
101572
101563
101553
101543
101532
101520
101508
101495
101481
101467
101453
101438
101423
101407
101391
101374
101359
101342
101335
99471.2
99471.8
99471.1
99471.9
99472.9
99474.1
99475.6
99477.2
99478.9
99481
99483.6
99486.5
99489.9
99493.6
99497.6
99501.7
99505.4
99508.3
99510.9
99514.2
99519.6
99515.4
99524.1
99531.2
99536.5
99539.9
99541.4
99544.5
99546.8
99547.7
99554.5
99565
99568.1
99568.4
99571.1
99570.2
99569.3
99571.5
99571
99574.4
99573.4
99573.5
99573.8
99581.7
99583.9
99593
99604.1
99616.6
99639.3
99656
99678.1
99696.6
99706.5
99721.8
99742.1
99763.6
99777.6
99790.9
99806.4
99821.6
99828.8
99835.4
99843.4
99856.6
99850.3
99856.4
99864.2
99850.7
99857.9
99857.3
99846
99831
99816.3
99800.4
99783.4
99768.5
99754.1
99740.1
99728
99715.2
99706.5
99696.2
99696.3
99695.6
99699.9
99713.2
99725.6
99735.9
99756.5
99780.1
99802.1
99825.7
99851.3
99877.9
99901.3
99924.8
99946.2
99965.9
99980.1
99976.8
99973.7
99975
99981
99984.5
99983
99982
99976.7
99965.7
99956.1
99937.3
99922
99907.7
99896.1
99886
99877.1
99869
99861.4
99853.1
99845.4
99836.7
99828.7
99817.1
99797.7
99781.7
99769.6
99755.4
99742.4
99727.7
99713.3
99699.2
99684.7
99665.2
99646
99630.6
99617.1
99604
99596.2
99585.9
99576.3
99563.9
99555.5
99546.9
99541.3
99535.4
99525.1
99520
99517.3
99517.6
99517.6
99516.4
99515.8
99515.7
99514.4
99513.7
99514.7
99515.5
99514.2
99515.1
99520.7
99527
99539.3
99546.5
99551.6
99555.7
99561.9
99569.3
99574.7
99576.7
99579.6
99593.1
99613.3
99633.5
99648.1
99669.5
99693.6
99720.3
99749.5
99777.4
99807.7
99841.4
99876.2
99911.4
99948.3
99985
100022
100060
100094
100127
100160
100194
100228
100262
100295
100329
100362
100394
100424
100454
100483
100510
100536
100561
100587
100611
100634
100656
100676
100695
100713
100728
100745
100762
100780
100793
100802
100816
100826
100838
100845
100857
100864
100868
100872
100875
100877
100879
100880
100880
100879
100880
100885
100882
100873
100865
100856
100845
100833
100820
100807
100792
100773
100756
100737
100717
100697
100675
100654
100633
100611
100589
100565
100541
100518
100495
100473
100448
100425
100406
100383
100356
100346
100332
100313
100296
100281
100267
100255
100242
100231
100222
100212
100204
100199
100194
100191
100188
100187
100186
100187
100188
100191
100194
100199
100205
100214
100217
100223
100232
100239
100238
100239
100247
100256
100266
100278
100293
100308
100323
100339
100355
100372
100389
100407
100426
100445
100465
100486
100507
100529
100552
100576
100600
100624
100648
100673
100699
100723
100747
100773
100799
100822
100848
100873
100898
100923
100947
100971
100995
101018
101040
101062
101084
101104
101124
101144
101162
101179
101196
101211
101226
101239
101251
101263
101273
101282
101290
101297
101302
101307
101310
101312
101314
101314
101312
101310
101307
101302
101297
101290
101283
101275
101265
101255
101244
101232
101220
101206
101192
101178
101163
101147
101131
101114
101097
101080
101063
101045
101027
101010
100992
100974
100956
100939
100921
100904
100887
100871
100855
100839
100824
100810
100796
100782
100769
100757
100746
100736
100726
100717
100709
100702
100696
100691
100687
100684
100681
100680
100680
100681
100683
100686
100690
100695
100701
100709
100717
100726
100737
100748
100760
100773
100787
100802
100818
100834
100852
100870
100888
100908
100927
100948
100969
100990
101012
101034
101056
101079
101101
101124
101147
101170
101193
101215
101238
101260
101282
101304
101325
101346
101367
101386
101406
101424
101442
101460
101476
101492
101507
101521
101534
101546
101558
101568
101577
101585
101592
101598
101603
101607
101610
101612
101613
101612
101611
101609
101606
101601
101596
101590
101584
101576
101568
101558
101548
101538
101526
101515
101502
101489
101475
101461
101447
101433
101419
101404
101389
101374
101360
101344
101333
99470.4
99471.3
99470.3
99471.1
99472.1
99473.5
99475.1
99476.8
99478.8
99481.2
99484
99486.8
99489.7
99492.5
99495.9
99500.7
99505.5
99509.7
99513.5
99517.3
99523.8
99521
99531.7
99539.8
99545
99548
99550.1
99554.4
99555
99556
99559.2
99564
99564.2
99562.6
99562.6
99559.3
99556.7
99560.2
99563.4
99568.6
99569.2
99568.4
99569.1
99579.8
99582.6
99590.5
99601.6
99615.8
99634.7
99651.6
99673.2
99689.9
99706
99726.3
99746.6
99765.7
99779.5
99792.1
99807.6
99822.8
99835.3
99844
99854.7
99863.1
99854.8
99851.5
99858.5
99843.2
99840.8
99831.8
99820.1
99802.8
99789
99771.8
99754.1
99737
99721.4
99707.6
99695.3
99687.4
99681.8
99683.6
99674.8
99679.3
99688.7
99690.4
99699.7
99706.7
99724.3
99746.2
99769.6
99795.1
99824.1
99854.6
99883.9
99907.9
99934.8
99961.7
99983.5
99991.2
99995.5
100001
100002
99998.7
99991.6
99989
99982.8
99974.4
99970.9
99960.2
99950
99938.1
99925.7
99912.8
99899.1
99884.9
99870.4
99854.2
99831.3
99809.4
99793.4
99784.2
99774.9
99761.5
99749.5
99736.5
99725.2
99714.1
99703
99692
99683.1
99671.1
99655.7
99640.6
99626.9
99612.3
99601.7
99587.7
99576.3
99562.6
99552.6
99541.5
99534.3
99527.8
99521.8
99517.6
99512.9
99507.7
99502.2
99498.6
99497.7
99497.7
99497.1
99498.4
99503.8
99511.2
99516.5
99520.2
99533.3
99537
99533.7
99532.3
99534.8
99533.7
99533.3
99540
99554
99562
99567.8
99582.7
99601.8
99623.6
99642.6
99666.1
99693.1
99719.9
99749.1
99781.1
99815.3
99844.2
99878.2
99913.3
99949.3
99985.1
100022
100059
100096
100133
100169
100205
100241
100277
100310
100337
100366
100397
100427
100456
100485
100512
100537
100560
100585
100609
100633
100656
100679
100698
100715
100726
100743
100764
100780
100793
100802
100817
100831
100831
100844
100854
100861
100866
100872
100873
100876
100880
100881
100878
100873
100867
100861
100854
100847
100840
100831
100822
100811
100798
100784
100768
100752
100734
100717
100698
100678
100658
100637
100617
100595
100574
100551
100530
100509
100487
100466
100443
100424
100402
100383
100364
100346
100329
100312
100296
100282
100268
100256
100244
100233
100224
100215
100204
100191
100182
100177
100174
100172
100172
100173
100175
100178
100181
100186
100191
100198
100203
100210
100219
100237
100239
100242
100252
100265
100279
100293
100306
100310
100322
100337
100354
100370
100387
100405
100423
100442
100462
100483
100506
100527
100548
100569
100593
100617
100641
100666
100691
100716
100741
100768
100793
100817
100843
100869
100895
100920
100945
100969
100993
101016
101039
101062
101084
101104
101124
101144
101162
101180
101196
101212
101227
101240
101252
101263
101273
101282
101290
101297
101303
101308
101311
101313
101314
101314
101313
101311
101307
101303
101298
101291
101284
101275
101266
101256
101245
101233
101220
101207
101193
101179
101163
101148
101132
101115
101098
101081
101063
101046
101028
101010
100992
100975
100957
100939
100922
100905
100888
100871
100855
100840
100824
100810
100796
100782
100770
100758
100746
100736
100726
100717
100709
100702
100696
100691
100687
100683
100681
100680
100680
100681
100683
100686
100690
100695
100701
100709
100717
100726
100736
100748
100760
100773
100787
100802
100817
100834
100851
100869
100888
100907
100927
100948
100968
100990
101011
101033
101056
101078
101101
101124
101147
101169
101192
101215
101238
101260
101282
101304
101325
101346
101366
101386
101405
101424
101442
101459
101476
101492
101507
101521
101534
101546
101557
101568
101577
101585
101592
101598
101603
101607
101610
101612
101613
101613
101612
101610
101607
101603
101598
101592
101585
101578
101569
101560
101551
101540
101529
101517
101505
101492
101479
101465
101451
101437
101422
101407
101392
101377
101363
101347
101334
99469.4
99470.6
99469.4
99470.2
99471.1
99472.3
99473.8
99475.7
99478
99480.5
99483.2
99486.2
99489.4
99492.2
99494.9
99498.3
99502.1
99506
99509.8
99513.2
99517.2
99516.2
99526.6
99533
99537.7
99542
99547
99552
99553.4
99554.9
99558.3
99562.8
99564
99563.9
99565.9
99564.6
99561.9
99561.8
99558.8
99559.3
99555.8
99553.2
99553
99560.7
99565
99574.3
99586.5
99599.1
99616.3
99633.2
99656
99676.2
99695.1
99716.8
99739.5
99761.3
99779
99794.7
99809.2
99823.4
99834.3
99846.6
99855.7
99865.5
99867.7
99861.2
99863.9
99853.2
99845.7
99835.7
99822.8
99804.3
99791.4
99775
99756.8
99739.5
99722.2
99705.2
99693.3
99684.5
99682.5
99677.7
99684.2
99695.8
99696.7
99717.3
99731.5
99743.4
99764.8
99789.3
99812
99832.8
99854.5
99876.4
99896.2
99910.4
99921.3
99927.8
99940.4
99956.3
99967.8
99977.3
99984.6
99984.7
99978.6
99973.7
99965.8
99954
99944.3
99936.7
99928.7
99920.1
99910.9
99901.4
99891.4
99880.4
99868.2
99858.3
99844.7
99828.2
99813.1
99797.4
99782.2
99766.7
99751.5
99736.2
99721.5
99706.1
99688.7
99670.9
99657
99649.3
99639.1
99626.8
99613.8
99601.7
99593.7
99583.5
99575.4
99560.7
99550
99540.1
99532.9
99525.3
99512.6
99506.8
99500.6
99498.1
99496.9
99495.7
99495.8
99497.7
99502.2
99510.1
99520.1
99529.5
99527.5
99514.6
99503.6
99503.4
99503.7
99504.6
99516.4
99524.6
99532.5
99540
99556.4
99565.5
99570.5
99588.1
99596.8
99614.8
99634.8
99655.5
99681.5
99719.2
99746.4
99775.8
99809
99843.2
99878.1
99913
99948.9
99984.1
100019
100053
100087
100123
100159
100195
100230
100266
100298
100330
100363
100394
100425
100455
100484
100511
100536
100561
100587
100614
100641
100662
100678
100694
100708
100719
100736
100761
100778
100791
100798
100809
100815
100834
100842
100850
100857
100865
100872
100876
100868
100871
100872
100869
100866
100864
100857
100851
100846
100841
100833
100822
100808
100795
100781
100766
100750
100733
100716
100698
100679
100658
100638
100617
100595
100575
100552
100530
100509
100486
100466
100444
100423
100404
100383
100367
100348
100332
100315
100301
100288
100276
100266
100256
100247
100238
100234
100228
100217
100209
100203
100197
100192
100188
100186
100184
100184
100185
100187
100190
100193
100197
100202
100208
100216
100227
100234
100242
100254
100266
100281
100293
100307
100321
100336
100352
100369
100385
100404
100423
100443
100462
100480
100499
100522
100544
100568
100593
100617
100643
100669
100697
100721
100744
100770
100796
100820
100846
100872
100898
100923
100946
100970
100995
101017
101041
101063
101085
101105
101126
101145
101163
101181
101197
101212
101227
101240
101253
101264
101274
101283
101291
101298
101304
101308
101311
101314
101315
101315
101313
101311
101308
101303
101298
101292
101284
101276
101266
101256
101245
101233
101221
101207
101193
101179
101164
101148
101132
101115
101098
101081
101064
101046
101028
101010
100992
100975
100957
100939
100922
100905
100888
100871
100855
100839
100824
100810
100796
100782
100769
100757
100746
100736
100726
100717
100709
100702
100696
100691
100686
100683
100681
100680
100680
100681
100683
100686
100690
100695
100701
100708
100716
100726
100736
100747
100759
100773
100787
100801
100817
100834
100851
100869
100888
100907
100927
100947
100968
100990
101011
101033
101056
101078
101101
101124
101146
101169
101192
101215
101237
101260
101282
101303
101325
101346
101366
101386
101405
101424
101442
101459
101476
101492
101507
101521
101534
101546
101557
101568
101577
101585
101592
101598
101603
101607
101610
101612
101613
101613
101612
101609
101606
101602
101598
101592
101585
101578
101569
101560
101550
101540
101529
101517
101505
101492
101478
101465
101451
101437
101422
101407
101393
101377
101363
101347
101333
99468.6
99470.2
99468.6
99469.3
99470.2
99471.5
99472.7
99473.8
99475.2
99476.9
99479.1
99482.6
99486.6
99490.5
99494.6
99498.5
99503
99508.8
99514
99517.5
99521.8
99522.1
99529.6
99534.4
99538.2
99542.2
99546.1
99550.7
99552.1
99554.4
99555.8
99559.9
99562.2
99564.1
99566.3
99566.1
99563.3
99562.2
99558.2
99559.3
99556.4
99554.1
99553.5
99558.1
99559.9
99568.5
99579.2
99591.9
99608.6
99627.6
99651.4
99673.3
99695.4
99720
99746.5
99771.3
99791.7
99805.7
99821
99840.7
99855.3
99865.8
99873.4
99880.8
99881.8
99876.7
99875
99865
99854.6
99841.3
99826.1
99804.6
99789.3
99768.2
99746.6
99727.3
99707.3
99693.2
99676.8
99665.5
99650.7
99645.6
99637.9
99642.6
99650.2
99670.2
99683.3
99701
99727.6
99757.3
99787.5
99815.5
99843.8
99873.5
99908.5
99939
99955.5
99962.8
99970.3
99978.1
99983.6
99983.2
99982.7
99982.2
99977.1
99975.6
99972.9
99965.3
99953.6
99942.4
99930.8
99918.8
99906
99892.6
99877.9
99859.5
99841.3
99829
99820.9
99809.3
99796.7
99784.5
99772.3
99759.7
99747.1
99733.8
99721.1
99709.6
99695.8
99679.6
99663.9
99649.4
99635.6
99621
99606.4
99590.6
99579.6
99567.1
99559.5
99549.5
99538.8
99529
99523.4
99517.5
99509
99504.2
99496.6
99494.4
99491.4
99488.8
99489.5
99491.9
99493.8
99494.4
99492.5
99490.2
99489.5
99489.2
99494.4
99505
99517.9
99527.7
99546.8
99554
99544.2
99540.2
99540.8
99541.9
99557.7
99568.6
99585
99598.7
99630.5
99655
99681.3
99716.1
99744.7
99775.3
99809.7
99844.9
99878.4
99916.8
99953.3
99989.8
100027
100065
100100
100134
100169
100204
100239
100274
100306
100335
100365
100394
100425
100454
100483
100510
100537
100562
100586
100606
100630
100653
100672
100691
100708
100719
100746
100761
100776
100786
100794
100807
100819
100837
100853
100857
100856
100861
100866
100867
100868
100872
100872
100867
100865
100867
100863
100854
100839
100833
100825
100814
100802
100791
100777
100763
100749
100733
100715
100695
100676
100655
100635
100615
100593
100572
100550
100529
100508
100487
100467
100442
100425
100403
100384
100366
100346
100329
100314
100298
100284
100271
100256
100239
100223
100212
100209
100202
100197
100193
100190
100187
100186
100185
100184
100183
100183
100185
100188
100192
100197
100202
100212
100221
100230
100238
100242
100250
100261
100272
100283
100295
100308
100322
100335
100351
100367
100384
100402
100420
100437
100456
100476
100498
100520
100542
100569
100597
100622
100641
100662
100687
100712
100740
100767
100792
100817
100842
100867
100895
100920
100944
100970
100993
101016
101040
101062
101084
101105
101125
101144
101163
101181
101197
101213
101228
101241
101253
101264
101274
101283
101291
101298
101304
101309
101312
101314
101315
101315
101314
101312
101308
101304
101299
101292
101285
101276
101267
101257
101246
101234
101221
101208
101194
101179
101164
101148
101132
101116
101099
101081
101064
101046
101028
101011
100993
100975
100957
100939
100922
100905
100888
100871
100855
100839
100824
100810
100796
100782
100769
100757
100746
100735
100726
100717
100709
100702
100696
100690
100686
100683
100681
100680
100679
100680
100682
100685
100689
100695
100701
100708
100716
100726
100736
100747
100759
100772
100786
100801
100817
100833
100851
100869
100887
100907
100927
100947
100968
100989
101011
101033
101055
101078
101101
101124
101146
101169
101192
101215
101237
101259
101281
101303
101325
101345
101366
101386
101405
101424
101442
101459
101476
101492
101506
101521
101534
101546
101557
101567
101577
101585
101592
101598
101603
101607
101610
101612
101613
101613
101612
101610
101607
101603
101598
101592
101585
101578
101570
101561
101551
101541
101530
101518
101505
101493
101479
101466
101452
101438
101423
101408
101393
101378
101364
101347
101332
99468.2
99470.1
99468.3
99469
99470
99471.2
99472.2
99473.4
99475.3
99477.6
99479.6
99481.8
99484.2
99487
99490.5
99494.1
99497.5
99502.8
99508.3
99512.9
99520.4
99522.2
99531.5
99538
99543.3
99548.2
99552.3
99556.9
99558.4
99559.4
99559.7
99563.1
99562.5
99559.7
99557.8
99555.7
99553
99551.1
99546.1
99545.7
99541.6
99539.3
99538.6
99540.4
99541.7
99547.3
99560.6
99570.5
99592
99611.1
99635.7
99660.3
99685.6
99713.4
99743.7
99773.1
99796.8
99811.5
99831.8
99855.2
99869.9
99877.6
99885.3
99890.4
99891.4
99887.9
99883.5
99874.1
99861.5
99845.4
99828.1
99802.8
99788.5
99768.8
99746.4
99726.7
99708.1
99690.5
99677.7
99665.7
99657.4
99659.1
99657.2
99662.3
99660.4
99678.3
99687.4
99697.4
99717.6
99743.3
99768.5
99790.1
99813
99834.1
99859.3
99885.5
99908.7
99929.5
99946.5
99962.6
99977.8
99984.7
99983.4
99981.2
99975
99968.8
99960.2
99951.3
99941.7
99932.7
99922.7
99912.6
99902
99890.6
99879.8
99867.7
99854.5
99840.5
99825.5
99810.6
99795.9
99781.4
99766.4
99751.5
99736.3
99719.9
99703.3
99690.2
99679.1
99668
99655.3
99643.1
99630.6
99617.3
99604.6
99592.2
99578.9
99564.7
99554.1
99541.5
99528.9
99516.6
99508.3
99501
99495.7
99489.4
99483.2
99480.8
99477.6
99476.3
99475.7
99475.7
99477
99479.6
99484.2
99489
99496.3
99503.1
99513.9
99523.6
99526.4
99523.6
99517.5
99516
99508.9
99518
99530.1
99531.7
99560.3
99575.9
99593.5
99616.6
99632.2
99657.2
99680
99709.1
99737.9
99770.3
99803.7
99837.6
99871.4
99906.2
99942.7
99978.1
100014
100052
100091
100129
100165
100202
100238
100273
100307
100340
100371
100399
100429
100459
100487
100514
100534
100560
100586
100611
100636
100659
100683
100702
100715
100724
100739
100758
100773
100785
100794
100813
100821
100830
100841
100847
100850
100859
100861
100864
100870
100877
100876
100868
100862
100859
100855
100847
100839
100833
100824
100814
100807
100797
100782
100765
100749
100732
100714
100695
100676
100655
100635
100614
100592
100572
100549
100528
100508
100485
100467
100442
100422
100405
100386
100366
100348
100333
100319
100304
100291
100277
100265
100253
100242
100232
100220
100208
100199
100192
100185
100178
100173
100171
100170
100170
100171
100172
100175
100179
100182
100184
100193
100206
100220
100229
100234
100244
100257
100268
100281
100296
100310
100322
100336
100351
100367
100382
100400
100418
100437
100458
100477
100501
100528
100545
100561
100588
100613
100633
100661
100689
100711
100743
100768
100793
100820
100847
100872
100900
100924
100946
100970
100995
101017
101041
101063
101085
101106
101127
101146
101164
101181
101198
101213
101228
101241
101254
101265
101275
101285
101292
101299
101305
101309
101313
101315
101316
101316
101315
101312
101309
101305
101299
101293
101285
101277
101267
101257
101246
101234
101222
101208
101194
101180
101165
101149
101133
101116
101099
101082
101064
101046
101028
101011
100993
100975
100957
100939
100922
100905
100888
100871
100855
100839
100824
100809
100795
100782
100769
100757
100746
100735
100726
100717
100709
100702
100695
100690
100686
100683
100681
100679
100679
100680
100682
100685
100689
100694
100700
100708
100716
100725
100735
100747
100759
100772
100786
100801
100817
100833
100850
100868
100887
100906
100926
100947
100968
100989
101011
101033
101055
101078
101100
101123
101146
101169
101192
101214
101237
101259
101281
101303
101324
101345
101366
101386
101405
101424
101442
101459
101476
101491
101506
101520
101534
101546
101557
101567
101576
101585
101592
101598
101603
101607
101610
101612
101613
101613
101612
101610
101607
101603
101598
101592
101586
101578
101570
101561
101551
101541
101530
101518
101505
101493
101479
101466
101452