/*--------------------------------*- C++ -*----------------------------------*\
| =========                 |                                                 |
| \\      /  F ield         | OpenFOAM: The Open Source CFD Toolbox           |
|  \\    /   O peration     | Version:  v1812                                 |
|   \\  /    A nd           | Web:      www.OpenFOAM.com                      |
|    \\/     M anipulation  |                                                 |
\*---------------------------------------------------------------------------*/
FoamFile
{
    version     2.0;
    format      ascii;
    class       surfaceScalarField;
    location    "0.9";
    object      phi;
}
// * * * * * * * * * * * * * * * * * * * * * * * * * * * * * * * * * * * * * //

dimensions      [1 0 -1 0 0 0 0];
oriented        oriented;


internalField   nonuniform List<scalar> 
40240
(
-0.000455708
-2.39006e-05
-0.000924256
-1.12849e-05
-0.00142129
1.69809e-05
-0.00190864
7.11402e-06
-0.00237794
-1.09488e-05
-0.0028411
-1.68469e-05
-0.00330343
-1.70219e-05
-0.00376682
-1.49324e-05
-0.00422984
-1.39457e-05
-0.00468291
-2.23127e-05
-0.00511434
-4.20326e-05
-0.00552481
-6.06601e-05
-0.00592137
-7.19964e-05
-0.00631267
-7.48288e-05
-0.00669148
-8.44178e-05
-0.00705099
-0.000100502
-0.00737885
-0.000128681
-0.00769857
-0.000132663
-0.00807559
-6.97144e-05
-0.00833703
-0.000183519
-0.00847932
-0.000301685
-0.00857009
-0.000349818
-0.00874016
-0.000268494
-0.00923453
6.17951e-05
-0.00982701
0.000165171
-0.010338
8.70492e-05
-0.0105786
-0.000176945
-0.0107852
-0.000209554
-0.0109292
-0.000259262
-0.0111077
-0.00021575
-0.0114213
-8.85239e-05
-0.0123748
0.000564322
-0.0136243
0.000870099
-0.0149854
0.000987459
-0.0159096
0.000560058
-0.0164155
0.000142094
-0.0169661
0.000191586
-0.0178404
0.000532696
-0.0188433
0.000665685
-0.0197514
0.000578027
-0.0205235
0.000450209
-0.0213083
0.000472901
-0.0222769
0.000665083
-0.0232544
0.000679423
-0.0242726
0.000724885
-0.0251709
0.000611757
-0.0256933
0.00024188
-0.025892
-7.76406e-05
-0.0262542
8.74631e-05
-0.0259281
-0.00059503
-0.0256978
-0.000476896
-0.0256518
-0.000294951
-0.0256169
-0.000271223
-0.0249606
-0.000877082
-0.0237603
-0.00140767
-0.0221829
-0.00176889
-0.0205145
-0.00184239
-0.0188966
-0.00177757
-0.017406
-0.00163907
-0.0162521
-0.00129197
-0.015601
-0.000780593
-0.0154328
-0.000288754
-0.0152469
-0.000301321
-0.0147808
-0.000573453
-0.0143288
-0.000553681
-0.0142365
-0.000188559
-0.0139628
-0.000361825
-0.0142075
0.000160485
-0.014371
8.57696e-05
-0.0144448
-5.77611e-07
-0.0148369
0.00032578
-0.0156751
0.000776182
-0.0169902
0.00125845
-0.0187434
0.00170226
-0.0208532
0.00206501
-0.0232108
0.00231933
-0.0257046
0.00246157
-0.0281822
0.00245142
-0.0305386
0.00233674
-0.0326763
0.00212553
-0.0345728
0.00189065
-0.0362936
0.00172013
-0.0378273
0.00153865
-0.03921
0.00139328
-0.0402896
0.00109583
-0.0410025
0.000732704
-0.0415828
0.000605914
-0.0419651
0.000411944
-0.0420169
8.51107e-05
-0.0419575
-2.1651e-05
-0.0414452
-0.000471584
-0.0405185
-0.000882137
-0.0393261
-0.00114465
-0.0379623
-0.0013132
-0.0364816
-0.00142733
-0.0348473
-0.00157822
-0.0330486
-0.00174047
-0.0310863
-0.00190204
-0.0289306
-0.00209328
-0.0266295
-0.00223699
-0.0243666
-0.0021988
-0.0223369
-0.00196513
-0.0206645
-0.00160639
-0.0193476
-0.00125025
-0.0182335
-0.00104722
-0.0171278
-0.0010382
-0.016223
-0.000837078
-0.0153661
-0.000792663
-0.0143674
-0.000936232
-0.0133814
-0.000921491
-0.0124144
-0.00090311
-0.0114794
-0.000872675
-0.0105821
-0.000836882
-0.00971163
-0.000812286
-0.00885224
-0.000803371
-0.0079933
-0.000805425
-0.00712759
-0.000815198
-0.00625399
-0.000826283
-0.00535781
-0.000853029
-0.00444696
-0.000871553
-0.0034616
-0.00094966
-0.00239261
-0.00102939
-0.00144348
-0.000917603
-0.000598982
-0.000821382
0.000245235
-0.000828977
0.00107498
-0.000811147
0.00188453
-0.000792521
0.00264236
-0.000744694
0.00333089
-0.000680165
0.00393265
-0.000598231
0.00443266
-0.000500939
0.00483919
-0.000410953
0.00515042
-0.000319471
0.00533223
-0.000194176
0.00535368
-3.78614e-05
0.00529043
4.24407e-05
0.00521116
5.50597e-05
0.00513674
4.56666e-05
0.00507777
2.62494e-05
0.0049345
0.000108411
0.00468659
0.000206701
0.00427542
0.000365327
0.00372255
0.000502752
0.00312025
0.00054824
0.00251804
0.000544174
0.00193471
0.000520481
0.00138168
0.000486151
0.0008567
0.000453439
0.000321178
0.000459791
-0.000236987
0.000477091
-0.000763229
0.00044489
-0.00121634
0.000369434
-0.0014804
0.000177868
-0.00170155
0.000129848
-0.00176585
-3.18138e-05
-0.00198328
0.000120613
-0.00239067
0.000311806
-0.00290003
0.00041443
-0.00340978
0.000411277
-0.00382521
0.000310046
-0.00426426
0.000322299
-0.00498055
0.000586543
-0.00583222
0.000736193
-0.00673978
0.000847383
-0.00772094
0.000922503
-0.0088948
0.00107233
-0.0101767
0.0010903
-0.0113949
0.00106565
-0.0125265
0.00108844
-0.0136315
0.00105347
-0.0146671
0.000953873
-0.015573
0.000775306
-0.016344
0.000666736
-0.0169572
0.000508098
-0.0174015
0.000346591
-0.017727
0.0002326
-0.0179959
0.000178219
-0.0182214
0.000134671
-0.0183611
5.00647e-05
-0.0184119
-3.662e-05
-0.0183692
-0.000127638
-0.0182062
-0.000247956
-0.0179939
-0.000295479
-0.0177655
-0.000309733
-0.0175066
-0.000338318
-0.0172019
-0.000382071
-0.0168382
-0.000439096
-0.0164234
-0.000488407
-0.015979
-0.00051627
-0.0155264
-0.000522741
-0.0150847
-0.000510009
-0.0146682
-0.000483154
-0.0142874
-0.000445535
-0.013937
-0.000413397
-0.0135831
-0.000414877
-0.013266
-0.00037647
-0.0129895
-0.000333507
-0.012752
-0.000292395
-0.0125659
-0.000238932
-0.0124405
-0.000176093
-0.0123496
-0.000139577
-0.0122598
-0.000136454
-0.0121296
-0.00017507
-0.0119538
-0.00021888
-0.0117526
-0.000242648
-0.0115782
-0.000213624
-0.0114466
-0.000169884
-0.0114261
-5.7192e-05
-0.011491
3.07431e-05
-0.0116519
0.000129537
-0.0117413
5.77931e-05
-0.0117193
-5.28689e-05
-0.0116639
-8.29995e-05
-0.0116473
-4.40746e-05
-0.0117104
3.90483e-05
-0.0117671
3.377e-05
-0.0117717
-1.89989e-05
-0.0117048
-8.72373e-05
-0.0115958
-0.000128598
-0.0114971
-0.000116965
-0.0114421
-7.2344e-05
-0.0114229
-3.40106e-05
-0.0114338
-5.43457e-06
-0.0114973
4.91035e-05
-0.0115414
3.09856e-05
-0.0115574
1.97254e-06
-0.0115718
-2.01243e-06
-0.0116066
1.81188e-05
-0.0116493
2.41854e-05
-0.0116163
-5.07113e-05
-0.0115979
-3.29591e-05
-0.0115981
-2.11966e-05
-0.0115707
-4.85347e-05
-0.011519
-7.37154e-05
-0.0114447
-9.51062e-05
-0.011354
-0.000110535
-0.011267
-0.000105002
-0.011213
-7.0889e-05
-0.0111839
-4.51249e-05
-0.0111799
-2.14521e-05
-0.0112213
2.50671e-05
-0.0113306
9.3038e-05
-0.0114866
0.000140478
-0.0116871
0.00018568
-0.0119367
0.000235178
-0.0122347
0.000284942
-0.0125651
0.000319361
-0.01292
0.000346749
-0.0133027
0.000376901
-0.0137071
0.000400058
-0.0141363
0.000424694
-0.0145552
0.000413992
-0.0149658
0.000406008
-0.0153858
0.000417648
-0.0157988
0.000412422
-0.016214
0.000414633
-0.0165916
0.000377727
-0.0169333
0.000347605
-0.0172238
0.000293253
-0.017481
0.000252102
-0.0176993
0.000225408
-0.0178581
0.000175027
-0.0179748
0.00013913
-0.0180348
7.89843e-05
-0.018055
4.20706e-05
-0.0180292
-1.85209e-05
-0.0179191
-8.00444e-05
-0.017751
-0.000140679
-0.0175306
-0.000187216
-0.0172717
-0.000223631
-0.0169907
-0.000242863
-0.0166466
-0.000303199
-0.0162046
-0.00039875
-0.0157183
-0.000440728
-0.0152268
-0.00044372
-0.014744
-0.000433046
-0.0142689
-0.000423503
-0.0137929
-0.000422921
-0.013306
-0.000432327
-0.0128043
-0.000445884
-0.0122884
-0.000459034
-0.0117615
-0.000467337
-0.0112278
-0.000469904
-0.010679
-0.000482373
-0.0100671
-0.000536721
-0.00963279
-0.000371169
-0.00923478
-0.000330109
-0.00872414
-0.000444293
-0.00812735
-0.000533776
-0.00756109
-0.000503119
-0.00715914
-0.000342268
-0.00683862
-0.000262204
-0.00654224
-0.00023887
-0.00628264
-0.000203366
-0.00602662
-0.000201416
-0.00574681
-0.00022664
-0.00551232
-0.00018378
-0.00534479
-0.000119352
-0.00524724
-5.19351e-05
-0.00518971
-1.4711e-05
-0.00517736
2.66828e-05
-0.00518815
4.94852e-05
-0.00522292
6.79503e-05
-0.00528541
9.27812e-05
-0.00537515
0.000116101
-0.00549
0.000137608
-0.00562271
0.000151787
-0.00576401
0.000156828
-0.00591504
0.000162733
-0.00604362
0.000136713
-0.00615745
0.000117972
-0.00626594
0.000108334
-0.00637684
0.00010645
-0.00648434
9.83885e-05
-0.0065858
8.77628e-05
-0.00668875
8.44714e-05
-0.00680603
9.42585e-05
-0.00694143
0.000107841
-0.00706262
8.90744e-05
-0.00719423
9.51324e-05
-0.00736776
0.000132237
-0.00750178
8.84663e-05
-0.0076023
5.01482e-05
-0.00768418
2.66173e-05
-0.00775848
1.40895e-05
-0.00783501
1.16665e-05
-0.00790607
1.51316e-06
-0.00797481
-5.31443e-06
-0.00804389
-9.24614e-06
-0.00810715
-1.94005e-05
-0.00816515
-2.89154e-05
-0.00822005
-3.62348e-05
-0.00827355
-4.1739e-05
-0.00832478
-4.80108e-05
-0.00837473
-5.31334e-05
-0.00842411
-5.74525e-05
-0.00847398
-6.05967e-05
-0.00852549
-6.25021e-05
-0.00857877
-6.41355e-05
-0.00863495
-6.44993e-05
-0.0086946
-6.40625e-05
-0.00875761
-6.35175e-05
-0.00882338
-6.32765e-05
-0.00889251
-6.21806e-05
-0.00896453
-6.12761e-05
-0.00903912
-6.0436e-05
-0.0091162
-5.94412e-05
-0.00919535
-5.86859e-05
-0.00927673
-5.75945e-05
-0.00936021
-5.64145e-05
-0.00944577
-5.49623e-05
-0.00953319
-5.33478e-05
-0.00962202
-5.18128e-05
-0.00971152
-5.06063e-05
-0.00980145
-4.92366e-05
-0.00989148
-4.78374e-05
-0.00998123
-4.647e-05
-0.0100702
-4.52056e-05
-0.0101579
-4.41612e-05
-0.0102436
-4.32787e-05
-0.0103271
-4.23157e-05
-0.010408
-4.12453e-05
-0.0104861
-4.00564e-05
-0.010561
-3.87853e-05
-0.0106324
-3.7504e-05
-0.0107
-3.61762e-05
-0.0107633
-3.47714e-05
-0.0108221
-3.33117e-05
-0.0108759
-3.19081e-05
-0.0109245
-3.05238e-05
-0.0109673
-2.92483e-05
-0.011004
-2.82072e-05
-0.011034
-2.72919e-05
-0.0110573
-2.6354e-05
-0.0110736
-2.51949e-05
-0.0110833
-2.36949e-05
-0.0110876
-2.04745e-05
-0.0110864
-1.75572e-05
-0.011071
-2.25575e-05
-0.0110487
-2.05454e-05
-0.0110192
-1.86762e-05
-0.0109824
-1.69578e-05
-0.0109383
-1.51577e-05
-0.0108869
-1.34562e-05
-0.0108284
-1.18466e-05
-0.0107626
-1.03152e-05
-0.0106899
-8.84125e-06
-0.0106103
-7.42372e-06
-0.0105239
-6.06034e-06
-0.0104312
-4.74139e-06
-0.0103323
-3.46954e-06
-0.0102275
-2.24907e-06
-0.0101172
-1.08741e-06
-0.010002
1.54287e-06
-0.00988277
1.85463e-06
-0.00975895
3.15663e-06
-0.00963111
4.54254e-06
-0.00949989
5.96873e-06
-0.00936575
7.39028e-06
-0.00922904
8.75725e-06
-0.00909009
1.00213e-05
-0.00894911
1.106e-05
-0.00880656
1.19143e-05
-0.00866371
1.33711e-05
-0.00851979
1.39184e-05
-0.00837541
1.47389e-05
-0.00823103
1.53837e-05
-0.00808696
1.59602e-05
-0.00794362
1.64692e-05
-0.00780132
1.68214e-05
-0.00766045
1.71113e-05
-0.00752134
1.73775e-05
-0.00738433
1.75656e-05
-0.00724975
1.76768e-05
-0.00711795
1.77389e-05
-0.00698924
1.77385e-05
-0.00686388
1.76628e-05
-0.00674209
1.74968e-05
-0.00662408
1.72355e-05
-0.00651008
1.68659e-05
-0.00640031
1.64047e-05
-0.00629502
1.58883e-05
-0.00619444
1.53438e-05
-0.00609883
1.48189e-05
-0.00600843
1.43104e-05
-0.00592345
1.38606e-05
-0.00584424
1.35057e-05
-0.00577101
1.31234e-05
-0.00570389
1.26584e-05
-0.00564286
1.19917e-05
-0.00558789
1.11574e-05
-0.00553894
1.0167e-05
-0.00549609
9.15673e-06
-0.00545949
8.17746e-06
-0.00542923
7.19371e-06
-0.00540532
6.14243e-06
-0.005388
5.24468e-06
-0.00537907
6.06665e-06
-0.00537837
6.89538e-06
-0.00538211
3.36448e-06
-0.00538918
-8.47736e-07
-0.00540265
-2.17274e-06
-0.00542325
-2.68753e-06
-0.00545094
-3.2753e-06
-0.00548544
-4.13292e-06
-0.0055265
-5.85587e-06
-0.00557386
-6.417e-06
-0.00562741
-7.68491e-06
-0.00568705
-8.95659e-06
-0.0057527
-1.02138e-05
-0.00582427
-1.14525e-05
-0.00590164
-1.26813e-05
-0.00598469
-1.38882e-05
-0.00607327
-1.5079e-05
-0.0061672
-1.62467e-05
-0.00626628
-1.73803e-05
-0.00637031
-1.8505e-05
-0.00647908
-1.97095e-05
-0.00659263
-2.0774e-05
-0.00671076
-2.18294e-05
-0.00683323
-2.29093e-05
-0.00695985
-2.39178e-05
-0.00709038
-2.48812e-05
-0.00722455
-2.58013e-05
-0.00736203
-2.672e-05
-0.00750253
-2.75639e-05
-0.00764573
-2.83311e-05
-0.00779114
-2.91856e-05
-0.00793836
-2.99828e-05
-0.00808705
-3.06983e-05
-0.00823662
-3.13996e-05
-0.00838681
-3.2107e-05
-0.0085372
-3.27513e-05
-0.00868708
-3.33412e-05
-0.00883614
-3.39603e-05
-0.00898381
-3.4559e-05
-0.00912958
-3.51375e-05
-0.00927295
-3.5657e-05
-0.00941348
-3.60576e-05
-0.0095508
-3.62653e-05
-0.00968466
-3.61927e-05
-0.00981489
-3.57465e-05
-0.00994137
-3.48507e-05
-0.010064
-3.34822e-05
-0.0101822
-3.18109e-05
-0.0102952
-3.04e-05
-0.0104011
-3.00714e-05
-0.010496
-3.30191e-05
-0.0105784
-3.71553e-05
-0.0106416
-4.80467e-05
-0.0106815
-6.29185e-05
-0.0106919
-8.38808e-05
-0.0106857
-9.15475e-05
-0.0106666
-9.46246e-05
-0.0105878
-0.000145852
-0.0104571
-0.00018621
-0.0102996
-0.000200393
-0.0101426
-0.000186297
-0.0100358
-0.000126633
-5.71212e-05
-0.000594814
9.11515e-05
-0.00122916
0.00014309
-0.00187856
0.000186185
-0.00250597
0.000154088
-0.00311767
0.000120282
-0.00373067
0.000115971
-0.00434623
0.000119051
-0.00496609
0.000126486
-0.0055914
0.0001343
-0.00621423
0.000125022
-0.00681949
8.95481e-05
-0.0074018
5.00945e-05
-0.00797319
3.01847e-05
-0.00854174
2.73919e-05
-0.00911665
2.72033e-05
-0.00970387
2.67659e-05
-0.0102953
6.62436e-06
-0.0108393
-4.01761e-05
-0.0112189
-0.00013771
-0.0114652
-0.000382236
-0.0115794
-0.000630712
-0.0116483
-0.000722004
-0.0123368
-1.83335e-05
-0.0132277
0.000519781
-0.0141335
0.000643641
-0.0151183
0.000649277
-0.0161912
0.000477063
-0.0169523
0.000133038
-0.0173282
-0.000296108
-0.0175702
-0.000364677
-0.0185999
0.000539566
-0.0199014
0.00147567
-0.021244
0.00182973
-0.022793
0.00216329
-0.0249194
0.00232015
-0.0270111
0.00186641
-0.0289807
0.00180594
-0.0309509
0.00215928
-0.0330248
0.00240376
-0.0351455
0.0023707
-0.0371884
0.00217498
-0.0387501
0.00172092
-0.0393147
0.0009213
-0.0392761
0.000338831
-0.0391755
0.000329869
-0.039216
0.000365297
-0.0392544
-2.32363e-06
-0.0392871
-0.000321526
-0.039138
-0.000334872
-0.0390801
-0.000930145
-0.0388941
-0.000925362
-0.0381926
-0.00123708
-0.0368562
-0.00183775
-0.0350465
-0.00290074
-0.0333793
-0.00327438
-0.0320649
-0.00325889
-0.0307922
-0.00327631
-0.0295236
-0.00319483
-0.0281826
-0.00311951
-0.0267114
-0.00289408
-0.0251778
-0.00243864
-0.0241734
-0.0014097
-0.0249975
0.000408157
-0.0261139
0.000438624
-0.0268512
8.32908e-05
-0.0271144
-2.32004e-05
-0.0280403
0.000469492
-0.0294892
0.00151341
-0.0324528
0.00296548
-0.0355332
0.00300044
-0.0387505
0.00347151
-0.0419086
0.003866
-0.0449598
0.00424658
-0.0479566
0.00464274
-0.0509748
0.0050336
-0.0540288
0.00533037
-0.0570875
0.00548351
-0.0600718
0.00540551
-0.0629025
0.00514314
-0.0654208
0.00462604
-0.0674296
0.00388706
-0.0688351
0.00311803
-0.0697086
0.00241298
-0.0699935
0.00168655
-0.0699656
0.00108127
-0.0693627
0.000145839
-0.0681539
-0.000581414
-0.0667377
-0.000977769
-0.0651419
-0.00148087
-0.0633712
-0.00175847
-0.061532
-0.00227341
-0.0596286
-0.00274419
-0.0576368
-0.00309179
-0.0555709
-0.00333125
-0.0534523
-0.0034953
-0.0512489
-0.0037278
-0.0489403
-0.00399271
-0.0465288
-0.00425466
-0.0439638
-0.00459627
-0.0411832
-0.00495204
-0.0382731
-0.00504102
-0.0353685
-0.0048047
-0.0325563
-0.00435387
-0.0298642
-0.00387611
-0.0272688
-0.00357205
-0.0246689
-0.00356554
-0.0222244
-0.00321214
-0.020296
-0.0026635
-0.0191831
-0.00198396
-0.0180927
-0.00194843
-0.0169031
-0.0020308
-0.0156345
-0.00208116
-0.014308
-0.00210543
-0.0129439
-0.00212038
-0.0115588
-0.00213452
-0.0101677
-0.00214495
-0.00878478
-0.00214952
-0.00742813
-0.00213792
-0.00610675
-0.00213343
-0.00484721
-0.002095
-0.00365681
-0.0021076
-0.00224327
-0.00242001
-0.000137476
-0.00300482
0.00215965
-0.00309915
0.00422613
-0.00288149
0.00619252
-0.00277638
0.00807439
-0.00267256
0.00988011
-0.00255304
0.0116103
-0.00241485
0.0132423
-0.00223674
0.0147292
-0.00199696
0.0159774
-0.00167107
0.0168525
-0.00121076
0.0172775
-0.000638464
0.0173841
-0.000167112
0.0173725
2.64835e-05
0.0172962
0.000100027
0.0171229
0.000182354
0.0169264
0.000183344
0.0165687
0.000426936
0.0159875
0.000743605
0.0151737
0.00113253
0.0141211
0.00150517
0.0128924
0.00172332
0.0115207
0.00185875
0.0100311
0.0019497
0.00843833
0.00201604
0.00676549
0.00206191
0.00502854
0.00212967
0.00325766
0.00217607
0.00138462
0.00223887
-0.000447245
0.00211963
-0.00185643
0.00150568
-0.00269582
0.00088119
-0.00351751
0.00070048
-0.00437801
0.000889763
-0.00528687
0.00112842
-0.00623012
0.00126287
-0.00718345
0.00126726
-0.00810264
0.00113128
-0.00898132
0.00109924
-0.00999323
0.0014662
-0.011515
0.00210165
-0.0130039
0.00227638
-0.0144125
0.00240091
-0.0159005
0.00255499
-0.0175041
0.00247553
-0.0190511
0.00228117
-0.020322
0.00219273
-0.0214029
0.00225289
-0.0224713
0.00209199
-0.0234417
0.00160798
-0.0241787
0.00121037
-0.024715
0.000949499
-0.0251493
0.000686988
-0.0254983
0.000487963
-0.025768
0.000354329
-0.0259576
0.000231249
-0.0260688
7.02068e-05
-0.0261021
-9.15477e-05
-0.0260454
-0.000271818
-0.0259205
-0.000458588
-0.0257296
-0.00057
-0.0254954
-0.000625451
-0.025219
-0.000694116
-0.0249061
-0.000772196
-0.0245589
-0.000861292
-0.0241839
-0.000936359
-0.0237918
-0.000979184
-0.0233942
-0.000989263
-0.0230021
-0.000969116
-0.0226243
-0.000926029
-0.0222704
-0.000862666
-0.0219442
-0.000800887
-0.0216335
-0.000784865
-0.0213523
-0.000715049
-0.0210999
-0.000641047
-0.0208727
-0.000572703
-0.0206712
-0.000491259
-0.0204981
-0.000397949
-0.0203461
-0.000338402
-0.0202077
-0.000319831
-0.0200637
-0.000362373
-0.0199135
-0.000410769
-0.0197604
-0.000436205
-0.0196234
-0.000389267
-0.0196247
-0.000207378
-0.0197044
-1.29713e-05
-0.0199255
0.000218114
-0.0202416
0.000414552
-0.0205388
0.000324838
-0.0207176
9.65505e-05
-0.0208555
2.92098e-05
-0.0210338
0.000108861
-0.0212948
0.000277489
-0.0215409
0.000257983
-0.0217238
0.000143068
-0.0218161
-1.36401e-05
-0.0218787
-8.35632e-05
-0.0219489
-6.35494e-05
-0.0220613
2.43308e-05
-0.0222232
0.000112778
-0.022433
0.000190084
-0.0226937
0.000295675
-0.0229602
0.000283391
-0.0232068
0.00023292
-0.0234555
0.000228927
-0.0237232
0.000268256
-0.0239848
0.000267275
-0.0241863
0.000131398
-0.0243913
0.000145753
-0.0245445
0.000108447
-0.0246733
5.8738e-05
-0.024792
2.18929e-05
-0.024898
-1.23884e-05
-0.025002
-2.88714e-05
-0.0251168
-1.10823e-05
-0.0252775
6.9642e-05
-0.0254923
0.000149503
-0.0257672
0.000233801
-0.0260985
0.000337014
-0.0264912
0.000467581
-0.0269354
0.00056729
-0.0274296
0.000662959
-0.0279748
0.00076486
-0.0285699
0.00086715
-0.0292005
0.000939911
-0.0298616
0.00099936
-0.0305546
0.001061
-0.0312709
0.00110605
-0.0320101
0.00115252
-0.0327395
0.00113435
-0.0334474
0.00111082
-0.0341322
0.00110246
-0.0347633
0.00104064
-0.035319
0.000963377
-0.0357451
0.00079972
-0.0360001
0.000613177
-0.036091
0.000412764
-0.0360803
0.00023309
-0.0359843
0.000124975
-0.0356858
-0.000121205
-0.0352447
-0.000291726
-0.0347071
-0.000438591
-0.0341073
-0.000533421
-0.0334553
-0.000634396
-0.0327465
-0.000763034
-0.0319969
-0.000859936
-0.0312028
-0.000949019
-0.0303683
-0.00102315
-0.0295156
-0.00105826
-0.0286249
-0.00115426
-0.0276691
-0.00131274
-0.0266754
-0.00139059
-0.0256636
-0.0014099
-0.024644
-0.00140526
-0.0236227
-0.00139592
-0.0226019
-0.00139348
-0.0215831
-0.00140005
-0.0205685
-0.00140855
-0.0195604
-0.00141399
-0.0185675
-0.00140464
-0.0176153
-0.00136465
-0.0167513
-0.00128685
-0.0160708
-0.00115918
-0.015755
-0.000624942
-0.0154537
-0.000574176
-0.0150747
-0.000764153
-0.0146315
-0.000920382
-0.0141658
-0.000910279
-0.0137294
-0.000721704
-0.0133153
-0.000619686
-0.012929
-0.000568548
-0.0125859
-0.000490553
-0.0122796
-0.000453186
-0.0120045
-0.000448522
-0.0117772
-0.000360059
-0.0116001
-0.000247719
-0.0114757
-0.000130008
-0.0113953
-5.15741e-05
-0.0113565
2.79878e-05
-0.0113598
9.20577e-05
-0.0113985
0.000140504
-0.01147
0.000195103
-0.0115721
0.000245157
-0.0117004
0.000289246
-0.0118502
0.000321144
-0.0120156
0.000338172
-0.0121968
0.000355887
-0.0123819
0.000330031
-0.01257
0.000310284
-0.0127602
0.000298459
-0.0129539
0.000295696
-0.013147
0.000282405
-0.0133377
0.000264646
-0.0135264
0.000254638
-0.0137165
0.000261197
-0.0139087
0.00027229
-0.0140902
0.000238372
-0.014268
0.00023621
-0.0144517
0.000274383
-0.0146211
0.000212029
-0.0147777
0.000156049
-0.0149232
0.000116628
-0.0150593
8.98389e-05
-0.01519
7.73254e-05
-0.0153117
5.34591e-05
-0.0154264
3.51798e-05
-0.015536
2.19333e-05
-0.0156386
4.31542e-07
-0.0157352
-1.92677e-05
-0.0158272
-3.53897e-05
-0.0159158
-4.82329e-05
-0.0160013
-6.15804e-05
-0.0160849
-7.25185e-05
-0.0161671
-8.18921e-05
-0.0162487
-8.91724e-05
-0.0163307
-9.42487e-05
-0.0164135
-9.85223e-05
-0.0164977
-0.000100633
-0.0165839
-0.000101249
-0.0166723
-0.000101262
-0.0167629
-0.000101337
-0.0168562
-9.98729e-05
-0.0169519
-9.84755e-05
-0.01705
-9.69875e-05
-0.0171505
-9.50833e-05
-0.0172532
-9.34526e-05
-0.0173581
-9.13003e-05
-0.0174649
-8.90558e-05
-0.0175735
-8.65056e-05
-0.0176834
-8.38341e-05
-0.0177944
-8.10959e-05
-0.0179058
-7.88403e-05
-0.0180174
-7.64889e-05
-0.0181285
-7.41721e-05
-0.0182388
-7.19616e-05
-0.0183479
-6.99207e-05
-0.0184552
-6.82185e-05
-0.0185603
-6.68019e-05
-0.0186626
-6.5361e-05
-0.0187618
-6.38716e-05
-0.0188572
-6.23066e-05
-0.0189486
-6.06961e-05
-0.0190355
-5.91304e-05
-0.0191174
-5.75574e-05
-0.0191939
-5.59392e-05
-0.0192647
-5.42938e-05
-0.0193292
-5.27677e-05
-0.0193871
-5.12918e-05
-0.0194382
-4.99663e-05
-0.0194819
-4.89591e-05
-0.0195181
-4.81419e-05
-0.0195464
-4.73587e-05
-0.0195664
-4.64114e-05
-0.019578
-4.50592e-05
-0.0195808
-4.22508e-05
-0.0195777
-3.68701e-05
-0.0195627
-4.43623e-05
-0.019539
-4.21985e-05
-0.0195065
-4.0165e-05
-0.019465
-3.83715e-05
-0.0194146
-3.6408e-05
-0.0193555
-3.45041e-05
-0.0192878
-3.26553e-05
-0.0192117
-3.08594e-05
-0.0191275
-2.90952e-05
-0.0190352
-2.73674e-05
-0.0189353
-2.5676e-05
-0.018828
-2.40103e-05
-0.0187136
-2.23772e-05
-0.0185924
-2.0785e-05
-0.018465
-1.92435e-05
-0.0183317
-1.57461e-05
-0.0181931
-1.52018e-05
-0.0180494
-1.33988e-05
-0.0179009
-1.14642e-05
-0.0177483
-9.44656e-06
-0.0175919
-7.40396e-06
-0.0174322
-5.40188e-06
-0.0172697
-3.49025e-06
-0.0171049
-1.80891e-06
-0.0169381
-3.09119e-07
-0.0167697
1.69684e-06
-0.0166004
2.87817e-06
-0.0164305
4.26651e-06
-0.0162607
5.42956e-06
-0.0160913
6.56102e-06
-0.0159227
7.63316e-06
-0.0157553
8.46889e-06
-0.0155895
9.26008e-06
-0.0154258
1.00444e-05
-0.0152644
1.07401e-05
-0.0151058
1.13518e-05
-0.0149505
1.19107e-05
-0.0147987
1.24021e-05
-0.0146508
1.28169e-05
-0.0145071
1.31384e-05
-0.0143679
1.3364e-05
-0.0142336
1.34789e-05
-0.0141045
1.3505e-05
-0.0139808
1.34817e-05
-0.0138629
1.34483e-05
-0.0137511
1.34599e-05
-0.0136455
1.3473e-05
-0.0135463
1.35195e-05
-0.0134538
1.37221e-05
-0.0133681
1.39006e-05
-0.0132896
1.39933e-05
-0.0132183
1.38518e-05
-0.0131545
1.34907e-05
-0.0130981
1.29445e-05
-0.0130492
1.23679e-05
-0.013008
1.17584e-05
-0.0129744
1.11245e-05
-0.0129486
1.04231e-05
-0.0129305
9.79205e-06
-0.0129206
1.12213e-05
-0.0129191
1.31549e-05
-0.0129244
8.32241e-06
-0.0129375
4.33015e-06
-0.0129584
3.07866e-06
-0.012987
2.67265e-06
-0.0130234
2.10397e-06
-0.0130673
1.2207e-06
-0.0131188
-6.57154e-07
-0.0131777
-1.23493e-06
-0.0132439
-2.64646e-06
-0.0133173
-4.10765e-06
-0.0133977
-5.60332e-06
-0.013485
-7.13134e-06
-0.0135789
-8.70913e-06
-0.0136793
-1.03168e-05
-0.013786
-1.19686e-05
-0.0138987
-1.36611e-05
-0.0140171
-1.53798e-05
-0.014141
-1.71684e-05
-0.01427
-1.91401e-05
-0.014404
-2.10741e-05
-0.0145427
-2.30541e-05
-0.0146857
-2.51885e-05
-0.0148328
-2.7337e-05
-0.0149835
-2.95354e-05
-0.0151374
-3.1789e-05
-0.015294
-3.41665e-05
-0.015453
-3.65989e-05
-0.0156137
-3.90695e-05
-0.0157755
-4.18119e-05
-0.015938
-4.46272e-05
-0.0161005
-4.75241e-05
-0.0162624
-5.03279e-05
-0.0164229
-5.37922e-05
-0.0165812
-5.73665e-05
-0.016737
-6.07154e-05
-0.0168892
-6.4577e-05
-0.0170372
-6.86092e-05
-0.0171802
-7.28902e-05
-0.0173173
-7.7386e-05
-0.0174477
-8.20553e-05
-0.0175706
-8.68461e-05
-0.0176849
-9.16956e-05
-0.0177899
-9.65401e-05
-0.0178844
-0.000101345
-0.0179676
-0.000106147
-0.0180379
-0.000111234
-0.0180941
-0.000117293
-0.0181345
-0.000125348
-0.0181578
-0.000137414
-0.0181639
-0.000150687
-0.0181549
-0.000167899
-0.0181269
-0.000193274
-0.0180799
-0.000224583
-0.0180079
-0.000248209
-0.017913
-0.00026461
-0.0177963
-0.000327936
-0.0176567
-0.000379827
-0.0174954
-0.000404504
-0.0173261
-0.000388345
-0.0171541
-0.000320143
-0.000137345
-0.000599625
0.000211036
-0.00123191
0.000295473
-0.00188969
0.00036401
-0.00254576
0.000329983
-0.00318862
0.000283019
-0.00382406
0.000271631
-0.00446098
0.000276988
-0.00510959
0.000297242
-0.00577345
0.00032173
-0.00644144
0.000318219
-0.00709706
0.000272208
-0.00773101
0.000213321
-0.00833858
0.000169576
-0.0089095
0.000132763
-0.00945194
0.000107065
-0.00999142
0.000107068
-0.0105511
0.000111174
-0.0111328
9.08277e-05
-0.0116706
-4.78092e-05
-0.0122188
-0.00027762
-0.0128604
-0.0004293
-0.013617
-0.000403325
-0.0143668
0.000296689
-0.0150996
0.000821975
-0.0158943
0.00101336
-0.016785
0.00112094
-0.0178729
0.00114976
-0.0191076
0.000957002
-0.0204085
0.000593639
-0.0218693
0.000703577
-0.0231576
0.00143243
-0.0242658
0.00219611
-0.0253139
0.0024964
-0.0263737
0.00284863
-0.027729
0.00331256
-0.0294943
0.00327335
-0.0312687
0.00322587
-0.033078
0.00362643
-0.0350855
0.00407808
-0.0372819
0.0042406
-0.0394706
0.00404589
-0.0411528
0.00308897
-0.0420705
0.00153017
-0.0426115
0.000577874
-0.042925
0.000347084
-0.0429327
8.44192e-05
-0.0428241
-0.000397966
-0.0427289
-0.000702991
-0.0425539
-0.000792472
-0.0424844
-0.00125851
-0.042103
-0.00153585
-0.0408275
-0.00275478
-0.0395328
-0.0033556
-0.0386313
-0.00399918
-0.0378967
-0.00418436
-0.0371867
-0.00412802
-0.0364252
-0.00418452
-0.0357082
-0.00405059
-0.0350236
-0.00393816
-0.0344909
-0.00355673
-0.0343703
-0.0026861
-0.034599
-0.00130039
-0.034387
7.91948e-05
-0.0343038
0.000246187
-0.0346432
0.000322836
-0.0363205
0.00154163
-0.0387041
0.00274945
-0.0407678
0.00348221
-0.0433321
0.00544058
-0.0468573
0.00643985
-0.0505432
0.00707801
-0.0542182
0.00746774
-0.0576905
0.00765193
-0.0608409
0.00773437
-0.0635882
0.00773003
-0.0658663
0.00756512
-0.0676677
0.00724807
-0.0690567
0.00676477
-0.0701598
0.00622208
-0.0710083
0.00545715
-0.0716163
0.00448359
-0.0718559
0.0033504
-0.0717418
0.00229906
-0.0714838
0.00143341
-0.0711091
0.000715057
-0.0705481
-0.000401629
-0.0695105
-0.00160221
-0.0681324
-0.00233406
-0.0665286
-0.00305993
-0.0646106
-0.00364783
-0.0626049
-0.00424748
-0.0605584
-0.00475536
-0.0584485
-0.00516307
-0.0562636
-0.00547437
-0.0540302
-0.00568403
-0.0517311
-0.00597904
-0.0493371
-0.00633601
-0.0468471
-0.00669124
-0.0442555
-0.007131
-0.0414938
-0.00765363
-0.0385846
-0.00788883
-0.0356139
-0.00770667
-0.0326634
-0.0072328
-0.0297441
-0.00672478
-0.026882
-0.0063688
-0.0241187
-0.00626426
-0.0215847
-0.00568028
-0.0191785
-0.00499794
-0.0167149
-0.00437875
-0.0143694
-0.00422827
-0.0121618
-0.00417403
-0.0100008
-0.00417968
-0.00782719
-0.0042184
-0.00560146
-0.00428747
-0.00329997
-0.00437964
-0.000909869
-0.00448122
0.00157673
-0.0045848
0.00414501
-0.00465822
0.00675928
-0.0047024
0.0093665
-0.00466052
0.0117586
-0.00446094
0.013493
-0.00413432
0.0145927
-0.00407615
0.0156249
-0.00410409
0.0168565
-0.00408523
0.0182241
-0.00411998
0.0196891
-0.00412223
0.0212079
-0.00406154
0.0227497
-0.00395094
0.0242863
-0.00377294
0.0257727
-0.00348838
0.0271767
-0.00308435
0.0284295
-0.00247816
0.0296113
-0.00183834
0.0308455
-0.00142265
0.0321883
-0.00134102
0.0335238
-0.00126645
0.0344407
-0.000773181
0.0346003
-2.60714e-05
0.0341836
0.000791929
0.0331361
0.00173668
0.0317759
0.00243459
0.0303462
0.00287195
0.0289099
0.0030949
0.0274584
0.0032421
0.0258457
0.0034903
0.0239562
0.00383069
0.0218001
0.00414008
0.0194642
0.00438568
0.0170718
0.0044856
0.0148096
0.00441699
0.0127685
0.00407477
0.0108428
0.00334454
0.00894082
0.00269496
0.00702232
0.00253003
0.00487252
0.00294631
0.0023645
0.00353855
-0.000405827
0.00393013
-0.00321707
0.0039669
-0.00584649
0.00365489
-0.00809899
0.00327465
-0.00988153
0.00319841
-0.0113779
0.0035373
-0.0129528
0.00362441
-0.0145001
0.00365771
-0.0159396
0.00389061
-0.0172963
0.00392264
-0.0186994
0.00376831
-0.0201563
0.00347662
-0.0214534
0.00317565
-0.0224239
0.00284885
-0.0232449
0.00242308
-0.0240121
0.00195768
-0.0246091
0.00145751
-0.0250505
0.00103125
-0.0253348
0.000671675
-0.0253586
0.00028456
-0.0250839
-0.000136644
-0.0246167
-0.000487319
-0.0240538
-0.000742864
-0.02344
-0.000972877
-0.0227999
-0.00118336
-0.022145
-0.00130755
-0.021515
-0.00133584
-0.0209076
-0.00137974
-0.0203169
-0.0014387
-0.0197255
-0.00152598
-0.0191448
-0.00158836
-0.0185948
-0.00159819
-0.0180875
-0.0015638
-0.0176458
-0.00147623
-0.017296
-0.00133987
-0.0170632
-0.00115773
-0.0169352
-0.000990022
-0.0168752
-0.000903922
-0.0168832
-0.00076486
-0.0169756
-0.000604585
-0.0171371
-0.000465389
-0.0173546
-0.000325972
-0.0176443
-0.000158518
-0.0180023
-2.87838e-05
-0.0183928
2.45607e-05
-0.018765
-3.44929e-05
-0.0191096
-0.000108411
-0.0194368
-0.000149255
-0.0197819
-8.26872e-05
-0.0200503
2.42877e-05
-0.0203348
0.000237129
-0.0206525
0.000503186
-0.0209926
0.000724578
-0.0213333
0.000636194
-0.0216363
0.000371701
-0.0219334
0.000300818
-0.0222418
0.00039305
-0.0225706
0.000584651
-0.0228982
0.000564451
-0.0232098
0.000435065
-0.0234939
0.00025256
-0.0237752
0.00018163
-0.024057
0.000203125
-0.0243536
0.000307246
-0.0246642
0.000410575
-0.0249826
0.000496605
-0.0253101
0.000611659
-0.0256347
0.000596798
-0.0259364
0.000522589
-0.0262148
0.000493912
-0.0264704
0.000509849
-0.0266735
0.000458642
-0.0268293
0.000277239
-0.0271052
0.000446705
-0.0275231
0.000508441
-0.0279457
0.0004623
-0.0283652
0.000419242
-0.0287774
0.000377529
-0.0291876
0.000360014
-0.0295977
0.000378346
-0.0300246
0.000476598
-0.030467
0.000572586
-0.0309363
0.000683434
-0.0314399
0.000821643
-0.0319999
0.00101185
-0.0325992
0.00115101
-0.0332254
0.00127254
-0.0338614
0.00138364
-0.0344909
0.00148228
-0.0350878
0.0015287
-0.0356377
0.00154789
-0.0361434
0.00156726
-0.0366018
0.00156004
-0.0370214
0.00155878
-0.0373762
0.00147423
-0.0376677
0.00139864
-0.0379123