/*--------------------------------*- C++ -*----------------------------------*\
| =========                 |                                                 |
| \\      /  F ield         | OpenFOAM: The Open Source CFD Toolbox           |
|  \\    /   O peration     | Version:  v1812                                 |
|   \\  /    A nd           | Web:      www.OpenFOAM.com                      |
|    \\/     M anipulation  |                                                 |
\*---------------------------------------------------------------------------*/
FoamFile
{
    version     2.0;
    format      ascii;
    class       volScalarField;
    location    "0.9";
    object      T;
}
// * * * * * * * * * * * * * * * * * * * * * * * * * * * * * * * * * * * * * //

dimensions      [0 0 0 1 0 0 0];


internalField   nonuniform List<scalar> 
20400
(
290.315
290.293
290.25
290.194
290.13
290.064
290
289.944
289.896
289.858
289.831
289.815
289.809
289.813
289.827
289.852
289.887
289.933
289.983
290.043
290.113
290.182
290.253
290.33
290.403
290.472
290.536
290.586
290.64
290.676
290.713
290.759
290.806
290.849
290.892
290.949
291
291.061
291.127
291.201
291.281
291.36
291.44
291.519
291.573
291.596
291.6
291.569
291.51
291.406
291.288
291.136
290.993
290.885
290.826
290.811
290.851
290.969
291.135
291.342
291.571
291.824
292.083
292.347
292.593
292.825
293.037
293.198
293.346
293.451
293.505
293.524
293.518
293.489
293.444
293.394
293.345
293.3
293.258
293.219
293.185
293.152
293.121
293.09
293.061
293.037
293.01
292.984
292.962
292.945
292.927
292.906
292.888
292.87
292.851
292.834
292.817
292.799
292.783
292.768
292.75
292.73
292.706
292.679
292.644
292.603
292.555
292.503
292.458
292.407
292.358
292.309
292.26
292.213
292.167
292.123
292.082
292.042
292.005
291.967
291.93
291.897
291.862
291.822
291.786
291.745
291.704
291.661
291.616
291.569
291.518
291.463
291.403
291.337
291.263
291.182
291.097
291.003
290.908
290.803
290.698
290.59
290.488
290.393
290.307
290.234
290.174
290.132
290.108
290.099
290.108
290.132
290.175
290.237
290.294
290.38
290.453
290.529
290.602
290.674
290.744
290.808
290.875
290.932
290.981
291.025
291.071
291.115
291.15
291.175
291.199
291.222
291.242
291.257
291.27
291.281
291.29
291.296
291.302
291.306
291.313
291.318
291.325
291.332
291.344
291.357
291.374
291.395
291.419
291.446
291.477
291.512
291.55
291.59
291.636
291.683
291.733
291.785
291.84
291.896
291.954
292.013
292.074
292.136
292.198
292.262
292.325
292.389
292.453
292.52
292.592
292.669
292.746
292.827
292.908
292.996
293.084
293.173
293.26
293.345
293.425
293.499
293.565
293.624
293.673
293.71
293.733
293.741
293.735
293.717
293.685
293.642
293.594
293.542
293.49
293.437
293.385
293.334
293.284
293.235
293.185
293.138
293.092
293.048
293.006
292.966
292.929
292.893
292.859
292.825
292.792
292.759
292.727
292.696
292.666
292.636
292.607
292.581
292.556
292.533
292.511
292.491
292.474
292.458
292.444
292.431
292.423
292.415
292.412
292.411
292.411
292.415
292.422
292.431
292.441
292.453
292.467
292.482
292.498
292.514
292.531
292.548
292.564
292.577
292.595
292.602
292.611
292.622
292.632
292.64
292.647
292.654
292.663
292.672
292.682
292.694
292.705
292.718
292.731
292.746
292.763
292.779
292.797
292.816
292.836
292.856
292.877
292.899
292.921
292.945
292.969
292.993
293.018
293.043
293.069
293.094
293.12
293.146
293.172
293.198
293.223
293.25
293.276
293.301
293.327
293.351
293.376
293.4
293.424
293.447
293.469
293.491
293.512
293.532
293.552
293.571
293.588
293.605
293.621
293.636
293.65
293.663
293.675
293.685
293.695
293.704
293.712
293.719
293.725
293.729
293.733
293.736
293.738
293.738
293.738
293.737
293.735
293.732
293.728
293.723
293.718
293.711
293.704
293.697
293.688
293.679
293.669
293.659
293.648
293.637
293.626
293.613
293.601
293.588
293.575
293.562
293.549
293.535
293.522
293.508
293.495
293.481
293.468
293.454
293.442
293.429
293.416
293.404
293.392
293.381
293.37
293.36
293.35
293.34
293.331
293.323
293.316
293.309
293.302
293.297
293.292
293.288
293.285
293.283
293.281
293.281
293.281
293.282
293.284
293.287
293.29
293.295
293.3
293.306
293.314
293.322
293.33
293.34
293.351
293.362
293.374
293.387
293.4
293.414
293.429
293.445
293.461
293.477
293.495
293.512
293.53
293.549
293.567
293.586
293.606
293.625
293.645
293.665
293.685
293.705
293.725
293.745
293.764
293.784
293.803
293.823
293.842
293.86
293.878
293.896
293.914
293.93
293.947
293.963
293.978
293.993
294.007
294.02
294.032
294.044
294.055
294.066
294.075
294.084
294.091
294.098
294.104
294.11
294.114
294.117
294.12
294.122
294.123
294.123
294.122
294.121
294.118
294.115
294.112
294.107
294.102
294.096
294.089
294.082
294.073
294.065
294.055
294.044
294.032
294.018
294.002
293.986
293.971
293.956
293.942
293.93
293.919
293.91
293.897
293.886
290.256
290.232
290.188
290.13
290.064
289.998
289.936
289.881
289.835
289.801
289.778
289.766
289.763
289.772
289.792
289.822
289.863
289.914
289.975
290.042
290.118
290.193
290.268
290.357
290.437
290.509
290.574
290.631
290.686
290.72
290.744
290.791
290.829
290.862
290.895
290.951
291.01
291.069
291.135
291.207
291.278
291.345
291.408
291.459
291.48
291.478
291.459
291.406
291.338
291.211
291.082
290.988
290.904
290.878
290.878
290.963
291.123
291.32
291.542
291.771
291.998
292.249
292.448
292.728
292.963
293.15
293.298
293.379
293.453
293.475
293.466
293.429
293.373
293.31
293.242
293.172
293.102
293.032
292.962
292.893
292.827
292.767
292.712
292.664
292.626
292.597
292.57
292.545
292.525
292.509
292.49
292.471
292.454
292.436
292.417
292.4
292.384
292.371
292.361
292.358
292.36
292.363
292.365
292.358
292.339
292.317
292.282
292.243
292.176
292.126
292.072
292.017
291.961
291.907
291.854
291.802
291.751
291.703
291.658
291.614
291.569
291.527
291.503
291.465
291.43
291.403
291.376
291.35
291.326
291.306
291.291
291.277
291.262
291.238
291.205
291.167
291.128
291.087
291.043
290.988
290.927
290.852
290.767
290.68
290.594
290.51
290.428
290.354
290.29
290.245
290.215
290.204
290.206
290.24
290.287
290.35
290.425
290.505
290.584
290.665
290.744
290.824
290.893
290.973
291.035
291.085
291.142
291.213
291.283
291.329
291.358
291.398
291.45
291.487
291.516
291.54
291.557
291.569
291.576
291.578
291.575
291.568
291.557
291.547
291.536
291.526
291.516
291.51
291.507
291.507
291.513
291.525
291.542
291.565
291.595
291.629
291.667
291.711
291.759
291.81
291.864
291.92
291.978
292.039
292.101
292.165
292.227
292.293
292.361
292.432
292.509
292.592
292.679
292.77
292.863
292.962
293.06
293.159
293.257
293.354
293.445
293.529
293.606
293.67
293.723
293.759
293.775
293.777
293.761
293.727
293.675
293.615
293.549
293.48
293.412
293.343
293.276
293.212
293.15
293.09
293.033
292.979
292.927
292.879
292.832
292.787
292.743
292.699
292.655
292.611
292.567
292.523
292.48
292.436
292.393
292.349
292.307
292.265
292.227
292.191
292.156
292.123
292.092
292.066
292.044
292.027
292.013
292.005
292.001
292.001
292.005
292.013
292.026
292.044
292.067
292.093
292.122
292.155
292.191
292.231
292.274
292.319
292.366
292.412
292.461
292.489
292.523
292.549
292.571
292.589
292.603
292.616
292.628
292.639
292.65
292.659
292.668
292.678
292.688
292.699
292.712
292.725
292.739
292.755
292.772
292.789
292.808
292.828
292.848
292.869
292.891
292.914
292.937
292.961
292.985
293.01
293.035
293.061
293.086
293.112
293.138
293.164
293.19
293.216
293.242
293.268
293.293
293.318
293.343
293.367
293.391
293.415
293.437
293.459
293.48
293.501
293.52
293.538
293.556
293.572
293.588
293.602
293.615
293.627
293.639
293.649
293.657
293.665
293.672
293.678
293.682
293.686
293.688
293.689
293.689
293.689
293.687
293.684
293.681
293.676
293.671
293.665
293.658
293.65
293.642
293.633
293.623
293.613
293.602
293.591
293.579
293.567
293.555
293.542
293.529
293.516
293.502
293.489
293.475
293.461
293.448
293.434
293.421
293.408
293.395
293.382
293.37
293.358
293.346
293.334
293.324
293.313
293.303
293.294
293.285
293.277
293.269
293.262
293.256
293.251
293.246
293.242
293.239
293.236
293.235
293.234
293.234
293.235
293.237
293.24
293.244
293.248
293.253
293.26
293.267
293.275
293.283
293.293
293.303
293.315
293.327
293.339
293.353
293.367
293.382
293.397
293.413
293.43
293.447
293.464
293.482
293.501
293.519
293.538
293.558
293.577
293.597
293.617
293.637
293.657
293.676
293.696
293.716
293.736
293.755
293.774
293.793
293.812
293.83
293.848
293.865
293.882
293.898
293.914
293.929
293.944
293.958
293.971
293.983
293.995
294.006
294.016
294.025
294.034
294.041
294.048
294.054
294.059
294.063
294.066
294.069
294.07
294.071
294.071
294.07
294.068
294.066
294.062
294.058
294.053
294.048
294.041
294.034
294.027
294.018
294.009
293.998
293.986
293.973
293.959
293.944
293.928
293.913
293.899
293.887
293.875
293.866
293.858
293.845
293.842
290.14
290.116
290.069
290.009
289.942
289.877
289.817
289.767
289.728
289.702
289.687
289.682
289.689
289.707
289.736
289.776
289.828
289.889
289.963
290.044
290.133
290.22
290.316
290.409
290.496
290.573
290.639
290.693
290.74
290.769
290.799
290.829
290.857
290.883
290.905
290.946
290.994
291.048
291.102
291.158
291.209
291.254
291.294
291.316
291.32
291.308
291.284
291.226
291.15
291.05
290.977
290.938
290.924
290.978
291.136
291.361
291.62
291.888
292.148
292.385
292.587
292.769
292.968
293.163
293.306
293.397
293.451
293.458
293.43
293.401
293.317
293.222
293.119
293.016
292.914
292.817
292.723
292.633
292.545
292.46
292.383
292.312
292.259
292.202
292.158
292.117
292.081
292.051
292.026
292.007
291.983
291.962
291.941
291.92
291.897
291.875
291.854
291.837
291.825
291.822
291.831
291.85
291.871
291.886
291.89
291.89
291.87
291.834
291.793
291.739
291.681
291.621
291.56
291.5
291.439
291.378
291.319
291.26
291.202
291.147
291.091
291.029
290.954
290.894
290.842
290.792
290.749
290.712
290.683
290.664
290.659
290.666
290.68
290.691
290.692
290.69
290.697
290.719
290.758
290.785
290.819
290.829
290.827
290.817
290.797
290.771
290.738
290.694
290.631
290.55
290.475
290.418
290.375
290.336
290.307
290.303
290.339
290.413
290.497
290.59
290.693
290.795
290.89
290.98
291.089
291.196
291.288
291.364
291.446
291.554
291.664
291.753
291.827
291.91
291.986
292.048
292.103
292.153
292.19
292.215
292.225
292.225
292.21
292.186
292.155
292.115
292.066
292.01
291.949
291.888
291.829
291.774
291.728
291.691
291.666
291.653
291.649
291.658
291.677
291.705
291.74
291.78
291.827
291.878
291.934
291.994
292.057
292.118
292.185
292.253
292.33
292.412
292.504
292.602
292.706
292.815
292.924
293.039
293.157
293.274
293.387
293.495
293.595
293.682
293.755
293.808
293.835
293.842
293.828
293.788
293.719
293.634
293.543
293.443
293.341
293.24
293.143
293.051
292.963
292.881
292.804
292.732
292.665
292.601
292.54
292.479
292.418
292.357
292.296
292.235
292.175
292.116
292.058
291.997
291.935
291.873
291.814
291.754
291.698
291.648
291.588
291.537
291.491
291.446
291.405
291.367
291.335
291.309
291.288
291.272
291.259
291.252
291.251
291.257
291.271
291.291
291.318
291.352
291.395
291.448
291.511
291.584
291.668
291.762
291.864
291.998
292.11
292.218
292.315
292.392
292.451
292.498
292.54
292.577
292.607
292.63
292.645
292.655
292.66
292.665
292.669
292.672
292.677
292.683
292.69
292.699
292.709
292.72
292.732
292.747
292.762
292.778
292.796
292.814
292.834
292.854
292.876
292.897
292.92
292.944
292.968
292.992
293.017
293.043
293.07
293.096
293.123
293.15
293.176
293.203
293.23
293.257
293.283
293.308
293.333
293.357
293.381
293.403
293.425
293.445
293.465
293.483
293.5
293.516
293.53
293.544
293.556
293.567
293.577
293.585
293.592
293.598
293.603
293.606
293.608
293.609
293.609
293.608
293.606
293.603
293.598
293.593
293.587
293.58
293.573
293.564
293.555
293.545
293.535
293.524
293.512
293.5
293.488
293.475
293.462
293.449
293.436
293.422
293.409
293.395
293.382
293.368
293.355
293.341
293.328
293.315
293.303
293.29
293.279
293.267
293.256
293.245
293.235
293.226
293.217
293.209
293.201
293.194
293.187
293.182
293.177
293.173
293.169
293.167
293.165
293.164
293.164
293.164
293.166
293.169
293.172
293.176
293.181
293.187
293.194
293.202
293.21
293.22
293.23
293.241
293.253
293.265
293.278
293.292
293.307
293.322
293.338
293.354
293.371
293.388
293.406
293.424
293.443
293.462
293.481
293.5
293.52
293.54
293.559
293.579
293.599
293.619
293.638
293.658
293.677
293.696
293.715
293.733
293.752
293.769
293.786
293.803
293.82
293.835
293.85
293.865
293.879
293.892
293.904
293.916
293.927
293.937
293.946
293.954
293.962
293.968
293.974
293.979
293.983
293.986
293.988
293.99
293.99
293.99
293.989
293.987
293.985
293.981
293.977
293.972
293.966
293.96
293.953
293.945
293.936
293.927
293.916
293.905
293.892
293.878
293.864
293.849
293.834
293.82
293.806
293.794
293.784
293.776
293.766
293.761
289.982
289.957
289.908
289.844
289.777
289.715
289.66
289.618
289.59
289.575
289.572
289.581
289.601
289.633
289.676
289.731
289.798
289.876
289.965
290.065
290.174
290.278
290.385
290.486
290.577
290.653
290.712
290.758
290.791
290.809
290.825
290.842
290.856
290.873
290.896
290.924
290.96
291.003
291.045
291.087
291.119
291.144
291.161
291.169
291.158
291.138
291.103
291.054
291.005
290.961
290.944
290.953
291.049
291.252
291.534
291.856
292.17
292.456
292.705
292.91
293.072
293.21
293.336
293.435
293.471
293.475
293.466
293.4
293.331
293.232
293.11
292.98
292.848
292.716
292.588
292.467
292.352
292.243
292.139
292.036
291.94
291.846
291.768
291.696
291.634
291.578
291.528
291.486
291.455
291.432
291.414
291.402
291.395
291.392
291.387
291.382
291.378
291.374
291.365
291.346
291.336
291.34
291.366
291.398
291.422
291.437
291.446
291.425
291.386
291.326
291.259
291.185
291.109
291.032
290.955
290.88
290.805
290.729
290.656
290.585
290.516
290.444
290.364
290.289
290.222
290.158
290.101
290.049
290.005
289.972
289.952
289.939
289.935
289.932
289.925
289.92
289.929
289.961
290.027
290.112
290.206
290.293
290.373
290.444
290.504
290.558
290.601
290.628
290.639
290.649
290.652
290.65
290.639
290.598
290.511
290.406
290.344
290.343
290.377
290.449
290.548
290.661
290.78
290.895
291.013
291.139
291.268
291.4
291.538
291.684
291.837
291.988
292.134
292.282
292.429
292.57
292.704
292.826
292.934
293.027
293.102
293.154
293.184
293.195
293.189
293.162
293.112
293.035
292.935
292.818
292.683
292.537
292.389
292.249
292.119
291.997
291.891
291.806
291.743
291.705
291.687
291.683
291.693
291.71
291.739
291.779
291.826
291.878
291.931
291.988
292.053
292.125
292.212
292.31
292.416
292.53
292.646
292.773
292.908
293.054
293.199
293.339
293.473
293.595
293.704
293.8
293.875
293.921
293.935
293.931
293.888
293.802
293.686
293.553
293.409
293.26
293.113
292.973
292.843
292.723
292.611
292.51
292.415
292.326
292.241
292.158
292.077
291.998
291.921
291.846
291.772
291.7
291.629
291.56
291.492
291.423
291.358
291.299
291.241
291.184
291.141
291.095
291.048
291.004
290.962
290.918
290.875
290.832
290.789
290.747
290.705
290.664
290.626
290.592
290.561
290.535
290.515
290.501
290.495
290.5
290.519
290.555
290.61
290.687
290.797
290.937
291.122
291.342
291.577
291.778
291.932
292.057
292.173
292.291
292.402
292.497
292.572
292.623
292.653
292.669
292.676
292.677
292.674
292.669
292.663
292.657
292.653
292.65
292.649
292.65
292.654
292.659
292.664
292.671
292.68
292.69
292.701
292.712
292.726
292.741
292.757
292.774
292.792
292.812
292.833
292.855
292.879
292.903
292.928
292.955
292.981
293.009
293.037
293.065
293.093
293.122
293.15
293.178
293.205
293.232
293.257
293.282
293.306
293.328
293.349
293.369
293.388
293.405
293.421
293.436
293.449
293.46
293.47
293.479
293.486
293.492
293.496
293.499
293.5
293.501
293.499
293.497
293.494
293.489
293.484
293.477
293.47
293.462
293.453
293.443
293.432
293.421
293.409
293.397
293.385
293.372
293.359
293.346
293.332
293.319
293.305
293.292
293.278
293.265
293.252
293.239
293.226
293.214
293.202
293.19
293.179
293.168
293.158
293.149
293.139
293.131
293.123
293.116
293.109
293.104
293.099
293.094
293.091
293.088
293.086
293.085
293.085
293.085
293.087
293.089
293.092
293.096
293.101
293.107
293.114
293.121
293.129
293.139
293.149
293.159
293.171
293.183
293.196
293.21
293.225
293.24
293.255
293.272
293.288
293.305
293.323
293.341
293.359
293.378
293.397
293.416
293.436
293.455
293.475
293.494
293.514
293.534
293.553
293.572
293.592
293.611
293.629
293.648
293.666
293.683
293.7
293.717
293.733
293.749
293.764
293.778
293.792
293.805
293.817
293.828
293.839
293.849
293.858
293.866
293.873
293.88
293.885
293.89
293.894
293.896
293.899
293.9
293.9
293.9
293.898
293.896
293.893
293.889
293.885
293.88
293.874
293.867
293.86
293.852
293.843
293.833
293.823
293.812
293.8
293.787
293.773
293.759
293.744
293.73
293.716
293.702
293.691
293.682
293.672
293.662
289.796
289.771
289.72
289.655
289.589
289.531
289.485
289.455
289.441
289.441
289.455
289.481
289.518
289.568
289.63
289.705
289.794
289.894
290.006
290.128
290.257
290.377
290.493
290.595
290.679
290.743
290.785
290.809
290.815
290.812
290.808
290.808
290.808
290.814
290.831
290.853
290.882
290.919
290.955
290.987
291.01
291.026
291.038
291.044
291.036
291.023
291.005
290.985
290.971
290.965
291.006
291.101
291.287
291.568
291.913
292.276
292.607
292.887
293.107
293.271
293.387
293.467
293.517
293.536
293.517
293.463
293.395
293.28
293.159
293.019
292.871
292.715
292.563
292.411
292.263
292.12
291.982
291.848
291.715
291.585
291.456
291.333
291.199
291.079
290.974
290.863
290.761
290.673
290.601
290.546
290.509
290.487
290.479
290.486
290.501
290.515
290.539
290.57
290.603
290.622
290.635
290.653
290.683
290.723
290.766
290.805
290.841
290.847
290.831
290.796
290.747
290.684
290.611
290.532
290.449
290.363
290.277
290.188
290.093
289.997
289.906
289.823
289.742
289.662
289.587
289.518
289.456
289.401
289.352
289.312
289.285
289.265
289.247
289.229
289.208
289.192
289.198
289.222
289.273
289.344
289.422
289.497
289.581
289.678
289.793
289.924
290.056
290.176
290.281
290.375
290.459
290.534
290.594
290.644
290.648
290.606
290.496
290.404
290.389
290.401
290.43
290.495
290.606
290.729
290.851
290.987
291.144
291.298
291.452
291.62
291.796
291.984
292.18
292.38
292.587
292.794
292.999
293.2
293.394
293.573
293.739
293.884
294.001
294.092
294.161
294.205
294.224
294.211
294.164
294.08
293.956
293.791
293.596
293.384
293.161
292.925
292.684
292.448
292.232
292.05
291.918
291.831
291.773
291.725
291.683
291.659
291.655
291.675
291.706
291.74
291.781
291.833
291.899
291.982
292.078
292.188
292.308
292.437
292.589
292.758
292.927
293.092
293.251
293.399
293.536
293.67
293.795
293.901
293.977
294.011
294.013
293.969
293.874
293.739
293.571
293.378
293.174
292.97
292.775
292.596
292.437
292.295
292.167
292.051
291.944
291.844
291.75
291.663
291.581
291.506
291.435
291.371
291.314
291.262
291.215
291.173
291.14
291.109
291.084
291.06
291.039
291.018
290.995
290.969
290.94
290.905
290.866
290.82
290.767
290.711
290.649
290.584
290.514
290.444
290.374
290.305
290.237
290.172
290.11
290.052
289.995
289.941
289.901
289.879
289.883
289.921
290.015
290.177
290.415
290.674
290.885
291.058
291.233
291.435
291.666
291.914
292.149
292.345
292.487
292.582
292.643
292.683
292.707
292.717
292.717
292.709
292.698
292.686
292.673
292.66
292.646
292.632
292.62
292.608
292.597
292.588
292.58
292.574
292.57
292.567
292.566
292.566
292.567
292.572
292.579
292.587
292.599
292.612
292.628
292.645
292.664
292.685
292.707
292.732
292.758
292.785
292.814
292.844
292.875
292.906
292.937
292.969
293
293.03
293.06
293.089
293.117
293.143
293.169
293.193
293.216
293.237
293.257
293.275
293.292
293.306
293.32
293.331
293.341
293.348
293.355
293.359
293.362
293.364
293.364
293.362
293.36
293.356
293.351
293.344
293.337
293.329
293.319
293.309
293.299
293.287
293.276
293.263
293.251
293.239
293.226
293.213
293.2
293.187
293.174
293.161
293.148
293.136
293.124
293.112
293.101
293.09
293.08
293.07
293.061
293.052
293.044
293.037
293.03
293.025
293.019
293.015
293.011
293.008
293.006
293.005
293.004
293.005
293.006
293.008
293.011
293.015
293.02
293.025
293.032
293.039
293.047
293.057
293.066
293.077
293.088
293.101
293.113
293.127
293.141
293.156
293.171
293.187
293.204
293.221
293.239
293.256
293.274
293.293
293.312
293.331
293.35
293.369
293.389
293.408
293.428
293.447
293.466
293.485
293.504
293.523
293.542
293.56
293.578
293.595
293.612
293.629
293.645
293.66
293.675
293.69
293.703
293.716
293.728
293.74
293.75
293.76
293.769
293.777
293.784
293.79
293.796
293.8
293.804
293.807
293.809
293.81
293.81
293.81
293.808
293.806
293.803
293.799
293.795
293.789
293.783
293.776
293.769
293.761
293.752
293.743
293.733
293.722
293.711
293.699
293.687
293.673
293.66
293.646
293.631
293.617
293.604
293.593
293.582
293.571
289.601
289.577
289.526
289.462
289.4
289.35
289.317
289.303
289.305
289.325
289.359
289.406
289.465
289.536
289.621
289.719
289.83
289.954
290.089
290.231
290.374
290.505
290.62
290.712
290.776
290.81
290.819
290.812
290.792
290.768
290.748
290.733
290.725
290.726
290.743
290.768
290.797
290.832
290.864
290.894
290.918
290.939
290.959
290.977
290.985
290.993
291.003
291.014
291.037
291.078
291.161
291.295
291.504
291.795
292.145
292.516
292.859
293.142
293.352
293.488
293.563
293.593
293.596
293.581
293.516
293.414
293.3
293.154
293.001
292.839
292.672
292.499
292.332
292.163
291.994
291.824
291.648
291.463
291.274
291.075
290.874
290.673
290.48
290.292
290.118
289.974
289.837
289.719
289.623
289.545
289.484
289.438
289.41
289.398
289.403
289.416
289.438
289.469
289.516
289.569
289.617
289.668
289.729
289.799
289.871
289.94
290.015
290.059
290.068
290.064
290.043
290.009
289.961
289.901
289.831
289.754
289.672
289.59
289.503
289.412
289.321
289.232
289.147
289.068
288.996
288.932
288.876
288.827
288.782
288.741
288.708
288.684
288.664
288.643
288.62
288.602
288.606
288.623
288.659
288.702
288.747
288.791
288.843
288.912
289.007
289.137
289.287
289.443
289.597
289.752
289.915
290.088
290.267
290.435
290.565
290.614
290.606
290.563
290.505
290.458
290.442
290.453
290.498
290.565
290.66
290.779
290.928
291.082
291.239
291.413
291.595
291.791
291.994
292.21
292.442
292.697
292.948
293.202
293.454
293.698
293.933
294.156
294.366
294.557
294.723
294.865
294.982
295.069
295.121
295.127
295.091
294.996
294.854
294.686
294.49
294.258
293.981
293.663
293.313
292.957
292.639
292.4
292.232
292.097
291.969
291.835
291.713
291.625
291.582
291.57
291.578
291.596
291.63
291.688
291.764
291.858
291.961
292.093
292.249
292.419
292.594
292.767
292.937
293.103
293.259
293.424
293.591
293.751
293.891
293.999
294.069
294.094
294.08
294.004
293.862
293.656
293.401
293.128
292.863
292.618
292.396
292.199
292.027
291.879
291.752
291.64
291.541
291.455
291.381
291.32
291.268
291.228
291.201
291.183
291.175
291.173
291.184
291.202
291.225
291.252
291.278
291.307
291.333
291.352
291.362
291.364
291.357
291.335
291.296
291.243
291.177
291.095
291.001
290.9
290.789
290.667
290.537
290.402
290.265
290.13
290.002
289.885
289.775
289.677
289.593
289.523
289.47
289.468
289.523
289.642
289.772
289.894
290.036
290.224
290.479
290.799
291.166
291.54
291.866
292.12
292.313
292.46
292.576
292.666
292.734
292.777
292.796
292.796
292.786
292.771
292.758
292.742
292.722
292.698
292.673
292.649
292.621
292.593
292.566
292.538
292.511
292.485
292.461
292.439
292.42
292.403
292.39
292.38
292.373
292.368
292.366
292.367
292.371
292.377
292.388
292.401
292.417
292.437
292.46
292.486
292.514
292.545
292.577
292.611
292.646
292.682
292.718
292.754
292.789
292.825
292.859
292.893
292.925
292.956
292.986
293.015
293.041
293.066
293.089
293.11
293.129
293.146
293.161
293.174
293.185
293.194
293.201
293.206
293.21
293.211
293.211
293.21
293.207
293.202
293.196
293.189
293.181
293.173
293.163
293.153
293.143
293.131
293.12
293.108
293.096
293.084
293.073
293.061
293.049
293.038
293.026
293.016
293.005
292.996
292.986
292.978
292.97
292.962
292.956
292.95
292.944
292.94
292.936
292.933
292.931
292.929
292.929
292.929
292.93
292.932
292.935
292.939
292.943
292.949
292.955
292.962
292.97
292.979
292.989
293
293.011
293.023
293.036
293.049
293.063
293.078
293.093
293.109
293.125
293.142
293.16
293.177
293.195
293.214
293.232
293.251
293.27
293.289
293.308
293.328
293.347
293.366
293.385
293.404
293.423
293.442
293.46
293.478
293.496
293.513
293.53
293.547
293.562
293.578
293.593
293.607
293.62
293.633
293.645
293.657
293.667
293.677
293.686
293.694
293.701
293.707
293.712
293.717
293.721
293.723
293.725
293.726
293.726
293.726
293.724
293.722
293.719
293.715
293.71
293.705
293.699
293.692
293.685
293.676
293.668
293.658
293.649
293.638
293.627
293.616
293.604
293.591
293.579
293.566
293.552
293.539
293.525
293.513
293.501
293.491
289.415
289.392
289.343
289.284
289.231
289.195
289.179
289.182
289.206
289.248
289.304
289.375
289.459
289.556
289.667
289.791
289.93
290.08
290.238
290.394
290.54
290.662
290.757
290.819
290.843
290.842
290.812
290.767
290.718
290.677
290.646
290.629
290.622
290.631
290.656
290.69
290.728
290.769
290.807
290.848
290.884
290.918
290.951
290.983
291.009
291.04
291.072
291.107
291.154
291.217
291.31
291.441
291.631
291.891
292.22
292.584
292.936
293.232
293.453
293.596
293.662
293.675
293.66
293.606
293.502
293.367
293.222
293.055
292.883
292.706
292.527
292.344
292.164
291.977
291.782
291.576
291.348
291.102
290.832
290.553
290.263
290
289.767
289.57
289.412
289.288
289.183
289.097
289.024
288.957
288.892
288.826
288.763
288.707
288.668
288.639
288.619
288.61
288.618
288.644
288.682
288.726
288.781
288.848
288.92
288.995
289.082
289.154
289.197
289.223
289.234
289.235
289.226
289.202
289.166
289.113
289.047
288.975
288.904
288.829
288.753
288.678
288.605
288.538
288.476
288.422
288.375
288.339
288.307
288.278
288.253
288.23
288.211
288.194
288.176
288.163
288.168
288.18
288.204
288.231
288.255
288.277
288.304
288.345
288.408
288.499
288.609
288.734
288.871
289.022
289.197
289.402
289.637
289.889
290.138
290.339
290.469
290.517
290.531
290.537
290.534
290.526
290.537
290.563
290.588
290.636
290.722
290.838
290.983
291.142
291.323
291.512
291.716
291.929
292.164
292.423
292.688
292.964
293.249
293.539
293.83
294.118
294.391
294.645
294.879
295.094
295.293
295.469
295.618
295.731
295.796
295.805
295.782
295.722
295.627
295.494
295.308
295.053
294.725
294.332
293.917
293.541
293.238
292.981
292.723
292.425
292.101
291.833
291.676
291.602
291.564
291.517
291.485
291.486
291.524
291.589
291.662
291.761
291.895
292.053
292.225
292.405
292.586
292.767
292.95
293.137
293.321
293.499
293.671
293.83
293.971
294.082
294.152
294.172
294.122
293.964
293.719
293.421
293.109
292.81
292.538
292.296
292.082
291.893
291.73
291.592
291.482
291.397
291.331
291.284
291.252
291.235
291.229
291.241
291.267
291.303
291.358
291.418
291.484
291.552
291.617
291.687
291.758
291.822
291.878
291.922
291.952
291.964
291.962
291.946
291.908
291.838
291.746
291.637
291.511
291.368
291.208
291.035
290.853
290.664
290.471
290.276
290.081
289.889
289.703
289.534
289.398
289.291
289.211
289.16
289.147
289.155
289.189
289.273
289.418
289.639
289.946
290.329
290.733
291.111
291.447
291.747
292.015
292.255
292.458
292.618
292.733
292.817
292.874
292.91
292.935
292.949
292.947
292.929
292.897
292.861
292.821
292.783
292.746
292.705
292.662
292.617
292.57
292.522
292.473
292.424
292.378
292.334
292.294
292.257
292.222
292.191
292.162
292.135
292.111
292.091
292.076
292.065
292.06
292.061
292.067
292.079
292.096
292.118
292.145
292.175
292.209
292.247
292.286
292.328
292.37
292.414
292.458
292.502
292.546
292.589
292.632
292.673
292.713
292.751
292.788
292.822
292.854
292.885
292.912
292.938
292.961
292.981
293
293.016
293.029
293.04
293.049
293.055
293.06
293.063
293.063
293.062
293.06
293.056
293.05
293.044
293.037
293.029
293.02
293.01
293
292.99
292.98
292.97
292.959
292.949
292.939
292.93
292.921
292.912
292.904
292.896
292.89
292.884
292.878
292.874
292.87
292.867
292.865
292.863
292.863
292.863
292.864
292.866
292.868
292.872
292.877
292.882
292.888
292.895
292.903
292.912
292.922
292.932
292.943
292.955
292.968
292.981
292.995
293.009
293.025
293.04
293.057
293.073
293.091
293.108
293.126
293.144
293.163
293.182
293.2
293.219
293.238
293.257
293.277
293.296
293.315
293.334
293.352
293.371
293.389
293.407
293.425
293.442
293.458
293.475
293.49
293.506
293.52
293.534
293.548
293.56
293.572
293.584
293.594
293.604
293.613
293.621
293.628
293.634
293.64
293.644
293.648
293.65
293.652
293.653
293.653
293.653
293.651
293.649
293.646
293.642
293.637
293.632
293.626
293.619
293.612
293.604
293.595
293.586
293.576
293.565
293.555
293.543
293.532
293.52
293.508
293.495
293.482
293.469
293.456
293.444
293.431
293.421
289.249
289.229
289.186
289.136
289.097
289.08
289.083
289.111
289.159
289.226
289.306
289.399
289.507
289.63
289.768
289.919
290.082
290.257
290.433
290.596
290.732
290.827
290.88
290.894
290.88
290.829
290.758
290.679
290.606
290.554
290.525
290.515
290.515
290.54
290.578
290.624
290.673
290.724
290.77
290.818
290.859
290.9
290.939
290.975
291.01
291.047
291.087
291.13
291.188
291.257
291.35
291.475
291.644
291.87
292.155
292.492
292.846
293.166
293.428
293.61
293.7
293.721
293.708
293.638
293.513
293.359
293.189
293.005
292.817
292.629
292.443
292.25
292.061
291.856
291.627
291.37
291.08
290.757
290.42
290.091
289.794
289.551
289.372
289.244
289.152
289.092
289.031
288.978
288.929
288.877
288.812
288.73
288.644
288.554
288.468
288.387
288.305
288.231
288.173
288.137
288.125
288.13
288.147
288.178
288.216
288.261
288.315
288.371
288.416
288.453
288.483
288.508
288.523
288.527
288.525
288.511
288.482
288.441
288.392
288.34
288.287
288.232
288.177
288.125
288.078
288.037
288
287.972
287.951
287.934
287.916
287.9
287.885
287.872
287.86
287.856
287.861
287.872
287.889
287.909
287.925
287.94
287.96
287.986
288.024
288.075
288.137
288.213
288.306
288.418
288.558
288.729
288.94
289.193
289.481
289.778
290.05
290.255
290.39
290.469
290.513
290.544
290.572
290.584
290.593
290.626
290.672
290.731
290.831
290.951
291.102
291.275
291.455
291.656
291.88
292.131
292.396
292.673
292.96
293.255
293.558
293.868
294.18
294.488
294.784
295.062
295.315
295.543
295.748
295.931
296.087
296.205
296.281
296.319
296.319
296.297
296.236