/*--------------------------------*- C++ -*----------------------------------*\
| =========                 |                                                 |
| \\      /  F ield         | OpenFOAM: The Open Source CFD Toolbox           |
|  \\    /   O peration     | Version:  v1812                                 |
|   \\  /    A nd           | Web:      www.OpenFOAM.com                      |
|    \\/     M anipulation  |                                                 |
\*---------------------------------------------------------------------------*/
FoamFile
{
    version     2.0;
    format      ascii;
    class       volVectorField;
    location    "0.9";
    object      U;
}
// * * * * * * * * * * * * * * * * * * * * * * * * * * * * * * * * * * * * * //

dimensions      [0 1 -1 0 0 0 0];


internalField   nonuniform List<vector> 
20400
(
(-0.0749324 -0.0249559 0)
(-0.229849 -0.0532083 0)
(-0.391704 -0.0599058 0)
(-0.557566 -0.0525165 0)
(-0.716879 -0.0384551 0)
(-0.872596 -0.0328846 0)
(-1.02709 -0.0240525 0)
(-1.18156 -0.0135216 0)
(-1.33618 -0.0019071 0)
(-1.48928 0.0131061 0)
(-1.63691 0.0334686 0)
(-1.77714 0.0559379 0)
(-1.91143 0.0761994 0)
(-2.0432 0.0840388 0)
(-2.17213 0.0809765 0)
(-2.29559 0.0685139 0)
(-2.41091 0.0533213 0)
(-2.51645 0.0544944 0)
(-2.635 0.0517067 0)
(-2.7623 0.107587 0)
(-2.79617 0.286084 0)
(-2.84366 0.367663 0)
(-2.88815 -0.60493 0)
(-3.0064 -0.538972 0)
(-3.19056 -0.504341 0)
(-3.37803 -0.515319 0)
(-3.53254 -0.471161 0)
(-3.55723 0.0572131 0)
(-3.61545 0.328918 0)
(-3.67882 0.335574 0)
(-3.76959 -0.785585 0)
(-3.98856 -0.667716 0)
(-4.35445 -0.622647 0)
(-4.78934 -0.615307 0)
(-5.21445 -0.532897 0)
(-5.4355 -0.132665 0)
(-5.55184 0.193779 0)
(-5.82555 0.330246 0)
(-6.1484 0.359611 0)
(-6.47622 0.33487 0)
(-6.75581 0.280889 0)
(-7.0196 0.261561 0)
(-7.31621 0.155118 0)
(-7.64625 -0.0471075 0)
(-7.97038 -0.273153 0)
(-8.30967 -0.469072 0)
(-8.53231 -0.685824 0)
(-8.64779 -0.821115 0)
(-8.81124 -0.567644 0)
(-8.80743 0.0630591 0)
(-8.64048 0.130972 0)
(-8.58626 -0.462032 0)
(-8.58807 -0.086741 0)
(-8.55178 0.731947 0)
(-8.15858 0.961794 0)
(-7.67801 0.923206 0)
(-7.13611 0.856069 0)
(-6.59039 0.820591 0)
(-6.07464 0.822661 0)
(-5.62142 0.921092 0)
(-5.34616 1.11143 0)
(-5.20429 1.13277 0)
(-5.14732 -1.3152 0)
(-5.00327 -1.31266 0)
(-4.84564 -0.593511 0)
(-4.80645 0.785208 0)
(-4.70831 0.35507 0)
(-4.74786 -0.499679 0)
(-4.85398 -0.280033 0)
(-4.83878 -0.0436605 0)
(-4.92889 0.0235341 0)
(-5.14467 0.0691758 0)
(-5.50912 0.122888 0)
(-6.02762 0.170514 0)
(-6.67934 0.194232 0)
(-7.43215 0.211176 0)
(-8.25042 0.245887 0)
(-9.08826 0.301215 0)
(-9.90263 0.368888 0)
(-10.6606 0.415726 0)
(-11.338 0.430593 0)
(-11.9448 0.41378 0)
(-12.4939 0.383403 0)
(-12.9829 0.286356 0)
(-13.4017 0.147239 0)
(-13.6954 -0.00268267 0)
(-13.9073 -0.115295 0)
(-14.0702 -0.212868 0)
(-14.1427 -0.27932 0)
(-14.1399 -0.266792 0)
(-14.0358 -0.314886 0)
(-13.7848 -0.337671 0)
(-13.4248 -0.335957 0)
(-12.9919 -0.364825 0)
(-12.5112 -0.363669 0)
(-11.9856 -0.359667 0)
(-11.4055 -0.349033 0)
(-10.7723 -0.335128 0)
(-10.0799 -0.326876 0)
(-9.32846 -0.309332 0)
(-8.55891 -0.254073 0)
(-7.8342 -0.151841 0)
(-7.21199 0.000526469 0)
(-6.71118 0.19253 0)
(-6.31435 0.37024 0)
(-5.94047 0.492621 0)
(-5.59537 0.580428 0)
(-5.30222 0.531601 0)
(-4.99684 0.427078 0)
(-4.6535 0.407426 0)
(-4.32746 0.426881 0)
(-4.00743 0.438005 0)
(-3.69999 0.440953 0)
(-3.40333 0.430443 0)
(-3.11298 0.40456 0)
(-2.82457 0.363333 0)
(-2.53507 0.306713 0)
(-2.24333 0.235623 0)
(-1.9468 0.148547 0)
(-1.64312 0.0536421 0)
(-1.33166 -0.0587122 0)
(-0.980675 -0.150532 0)
(-0.64485 -0.270428 0)
(-0.342445 -0.271321 0)
(-0.0585715 -0.256546 0)
(0.220054 -0.16408 0)
(0.494879 -0.0996092 0)
(0.758947 -0.0697983 0)
(1.00184 -0.0685221 0)
(1.21834 -0.085998 0)
(1.40264 -0.104483 0)
(1.55484 -0.107101 0)
(1.67613 -0.0863379 0)
(1.76248 -0.0491902 0)
(1.80075 -0.00129116 0)
(1.78822 0.0372497 0)
(1.7603 0.0459853 0)
(1.72865 0.0400695 0)
(1.71291 -0.00236211 0)
(1.68219 -0.0590709 0)
(1.60946 -0.0696638 0)
(1.50103 -0.0432155 0)
(1.33849 -0.0043434 0)
(1.14407 0.0188066 0)
(0.942754 0.0330412 0)
(0.744286 0.032499 0)
(0.553943 0.0296829 0)
(0.373508 0.0417694 0)
(0.196819 0.0783454 0)
(0.0154765 0.137737 0)
(-0.168278 0.146351 0)
(-0.332806 0.121895 0)
(-0.470672 0.0597174 0)
(-0.517437 -0.114221 0)
(-0.58024 -0.177384 0)
(-0.623164 -0.130206 0)
(-0.729249 -0.0810911 0)
(-0.886349 -0.0690612 0)
(-1.05795 -0.0854437 0)
(-1.21353 -0.117037 0)
(-1.3515 -0.103513 0)
(-1.53942 -0.0504829 0)
(-1.81075 0.0103885 0)
(-2.10907 0.0127401 0)
(-2.42416 0.00979792 0)
(-2.77995 0.0322652 0)
(-3.19408 0.049752 0)
(-3.61674 0.0359665 0)
(-4.01137 0.00789829 0)
(-4.38485 -0.024172 0)
(-4.74201 -0.0565125 0)
(-5.0671 -0.076005 0)
(-5.34899 -0.0925385 0)
(-5.58007 -0.123507 0)
(-5.75714 -0.11982 0)
(-5.88414 -0.0960103 0)
(-5.98108 -0.0580534 0)
(-6.06166 -0.0170104 0)
(-6.12071 0.00856744 0)
(-6.15651 0.0154242 0)
(-6.15762 0.0666812 0)
(-6.11404 0.0802223 0)
(-6.0499 0.105132 0)
(-5.97432 0.124898 0)
(-5.89146 0.138085 0)
(-5.79543 0.141544 0)
(-5.68213 0.1371 0)
(-5.5504 0.128969 0)
(-5.40549 0.119656 0)
(-5.25452 0.109707 0)
(-5.10417 0.0997673 0)
(-4.95994 0.0904275 0)
(-4.8258 0.0810204 0)
(-4.7038 0.0696033 0)
(-4.58587 0.0547162 0)
(-4.47273 0.0459856 0)
(-4.37373 0.0405676 0)
(-4.2877 0.0375797 0)
(-4.21624 0.0393089 0)
(-4.16398 0.0440141 0)
(-4.12779 0.0446238 0)
(-4.098 0.038959 0)
(-4.06169 0.0287397 0)
(-4.01042 0.0170615 0)
(-3.94768 0.0102015 0)
(-3.88178 0.0117683 0)
(-3.83145 0.0514287 0)
(-3.80161 0.0879588 0)
(-3.80982 0.112438 0)
(-3.85245 0.134643 0)
(-3.90271 0.116387 0)
(-3.91129 0.0854047 0)
(-3.8947 0.0780991 0)
(-3.87941 0.0868268 0)
(-3.88823 0.107438 0)
(-3.9151 0.10773 0)
(-3.92754 0.0932366 0)
(-3.91627 0.0746232 0)
(-3.88546 0.0651589 0)
(-3.85033 0.0668968 0)
(-3.82646 0.0781453 0)
(-3.81348 0.0841493 0)
(-3.81221 0.0875371 0)
(-3.82718 0.0981186 0)
(-3.84843 0.0902503 0)
(-3.85629 0.0768084 0)
(-3.86182 0.0700712 0)
(-3.87 0.0647388 0)
(-3.888 0.0528957 0)
(-3.89062 0.0189136 0)
(-3.87372 0.0065299 0)
(-3.8727 -0.00318017 0)
(-3.87014 -0.0141434 0)
(-3.85398 -0.0234949 0)
(-3.83371 -0.0345176 0)
(-3.80548 -0.0437979 0)
(-3.7752 -0.0484072 0)
(-3.75128 -0.0460245 0)
(-3.73738 -0.0479258 0)
(-3.73123 -0.0513126 0)
(-3.73713 -0.047144 0)
(-3.76331 -0.0388107 0)
(-3.80797 -0.0351986 0)
(-3.86727 -0.0316808 0)
(-3.94236 -0.02621 0)
(-4.03405 -0.0193631 0)
(-4.13947 -0.0138061 0)
(-4.25409 -0.00719608 0)
(-4.37757 0.00280682 0)
(-4.50918 0.0140495 0)
(-4.64889 0.0272831 0)
(-4.7915 0.0336949 0)
(-4.92989 0.0408538 0)
(-5.06919 0.0517068 0)
(-5.20872 0.0594142 0)
(-5.34762 0.0666132 0)
(-5.48105 0.069542 0)
(-5.60186 0.0589021 0)
(-5.70836 0.0416023 0)
(-5.79967 0.015812 0)
(-5.88172 -0.00778205 0)
(-5.94359 -0.0395112 0)
(-5.99185 -0.0624405 0)
(-6.02167 -0.0868269 0)
(-6.03792 -0.111645 0)
(-6.03746 -0.133982 0)
(-6.01623 -0.174044 0)
(-5.96732 -0.200556 0)
(-5.90216 -0.219223 0)
(-5.82181 -0.231789 0)
(-5.73208 -0.238314 0)
(-5.62931 -0.250456 0)
(-5.49776 -0.265257 0)
(-5.34173 -0.265491 0)
(-5.17866 -0.254931 0)
(-5.01622 -0.239521 0)
(-4.85651 -0.222615 0)
(-4.69783 -0.205732 0)
(-4.53717 -0.188667 0)
(-4.37109 -0.171552 0)
(-4.20119 -0.154908 0)
(-4.02662 -0.141043 0)
(-3.84846 -0.136865 0)
(-3.66784 -0.136177 0)
(-3.46593 -0.116522 0)
(-3.2934 -0.0493201 0)
(-3.16094 -0.0151906 0)
(-3.00873 0.00193403 0)
(-2.82214 -0.00596754 0)
(-2.62408 -0.00663163 0)
(-2.46228 0.0236778 0)
(-2.3436 0.0360617 0)
(-2.23978 0.0299284 0)
(-2.14591 0.024499 0)
(-2.06061 0.0114364 0)
(-1.97115 -0.00882072 0)
(-1.8834 -0.0103641 0)
(-1.81612 -0.0041397 0)
(-1.77195 0.00334495 0)
(-1.7462 0.00444459 0)
(-1.73292 0.00754701 0)
(-1.73277 0.00953868 0)
(-1.7408 0.003524 0)
(-1.7571 0.00337724 0)
(-1.7822 0.00378481 0)
(-1.81618 0.00422709 0)
(-1.85744 0.00342554 0)
(-1.90264 0.000887779 0)
(-1.9516 -0.00156734 0)
(-1.99815 -0.0107326 0)
(-2.03798 -0.0168204 0)
(-2.07472 -0.0195165 0)
(-2.11107 -0.0201606 0)
(-2.1474 -0.0213592 0)
(-2.18193 -0.0227842 0)
(-2.21559 -0.0220026 0)
(-2.25162 -0.0182553 0)
(-2.29387 -0.0137408 0)
(-2.3367 -0.0157341 0)
(-2.37705 -0.011867 0)
(-2.42806 -0.0011635 0)
(-2.48034 -0.0101808 0)
(-2.51806 -0.0171381 0)
(-2.54808 -0.0197029 0)
(-2.57355 -0.0192771 0)
(-2.59833 -0.0169958 0)
(-2.62267 -0.0159686 0)
(-2.64539 -0.0146146 0)
(-2.668 -0.0129977 0)
(-2.68973 -0.0126001 0)
(-2.70948 -0.0123508 0)
(-2.72787 -0.0118425 0)
(-2.74557 -0.0112556 0)
(-2.76267 -0.0109249 0)
(-2.77916 -0.0106467 0)
(-2.79536 -0.0103342 0)
(-2.81154 -0.00994245 0)
(-2.82812 -0.00947109 0)
(-2.84528 -0.00907277 0)
(-2.86321 -0.00855802 0)
(-2.88224 -0.00801188 0)
(-2.90243 -0.00759005 0)
(-2.92363 -0.0073397 0)
(-2.94587 -0.00704692 0)
(-2.96918 -0.00684538 0)
(-2.9934 -0.00671551 0)
(-3.01849 -0.00662932 0)
(-3.04434 -0.00661039 0)
(-3.07094 -0.00655094 0)
(-3.09822 -0.00646418 0)
(-3.12633 -0.00632365 0)
(-3.15462 -0.00612131 0)
(-3.18516 -0.00598842 0)
(-3.21436 -0.00591139 0)
(-3.2443 -0.00575689 0)
(-3.27425 -0.00558669 0)
(-3.30424 -0.00540588 0)
(-3.33409 -0.00523701 0)
(-3.36363 -0.00509508 0)
(-3.39265 -0.00495906 0)
(-3.421 -0.00477774 0)
(-3.44858 -0.0045411 0)
(-3.47529 -0.00425289 0)
(-3.50102 -0.00392686 0)
(-3.52567 -0.00357877 0)
(-3.54911 -0.00320325 0)
(-3.57122 -0.00279321 0)
(-3.59191 -0.00235727 0)
(-3.61104 -0.00191616 0)
(-3.62848 -0.00147212 0)
(-3.64411 -0.00104933 0)
(-3.65778 -0.000669661 0)
(-3.66933 -0.000305651 0)
(-3.67865 8.74037e-05 0)
(-3.68572 0.000571125 0)
(-3.69055 0.00113338 0)
(-3.69336 0.0022657 0)
(-3.6945 0.00236076 0)
(-3.69201 0.00178605 0)
(-3.68611 0.00231332 0)
(-3.67808 0.00284397 0)
(-3.66748 0.00336609 0)
(-3.65446 0.00386928 0)
(-3.63902 0.00431757 0)
(-3.62114 0.00471655 0)
(-3.60086 0.005075 0)
(-3.57819 0.00539954 0)
(-3.55319 0.00569253 0)
(-3.52592 0.00595589 0)
(-3.49643 0.00619281 0)
(-3.46482 0.00640535 0)
(-3.43119 0.00659543 0)
(-3.39562 0.00676256 0)
(-3.35832 0.00627349 0)
(-3.31947 0.0066477 0)
(-3.27919 0.00695899 0)
(-3.23742 0.00726309 0)
(-3.1944 0.00752432 0)
(-3.15031 0.00773778 0)
(-3.10527 0.0079231 0)
(-3.05941 0.00807405 0)
(-3.01282 0.00818232 0)
(-2.96559 0.00823247 0)
(-2.91804 0.00827623 0)
(-2.87027 0.00825386 0)
(-2.82214 0.00827383 0)
(-2.77434 0.00826296 0)
(-2.72517 0.0082343 0)
(-2.67752 0.00819756 0)
(-2.62975 0.00812317 0)
(-2.58247 0.00803487 0)
(-2.53566 0.00794071 0)
(-2.48947 0.00782836 0)
(-2.44402 0.00769482 0)
(-2.39943 0.00754797 0)
(-2.3558 0.00738358 0)
(-2.31323 0.00719881 0)
(-2.27181 0.00698925 0)
(-2.2316 0.00675342 0)
(-2.19269 0.00648736 0)
(-2.15514 0.00619408 0)
(-2.11904 0.00588583 0)
(-2.08446 0.00556803 0)
(-2.0515 0.00525835 0)
(-2.02023 0.00496298 0)
(-1.99073 0.00464078 0)
(-1.9631 0.00432849 0)
(-1.93742 0.00404794 0)
(-1.91375 0.00378372 0)
(-1.89212 0.00349964 0)
(-1.87252 0.00314941 0)
(-1.85492 0.0027504 0)
(-1.83935 0.00234459 0)
(-1.82584 0.00195699 0)
(-1.81442 0.00158247 0)
(-1.80514 0.00118496 0)
(-1.79801 0.000827044 0)
(-1.79328 0.000916412 0)
(-1.79131 0.000976874 0)
(-1.79148 6.31249e-05 0)
(-1.79309 -0.00135364 0)
(-1.79626 -0.00178397 0)
(-1.80169 -0.00197027 0)
(-1.80944 -0.00217233 0)
(-1.81952 -0.00245368 0)
(-1.8318 -0.00279512 0)
(-1.84623 -0.00318105 0)
(-1.86274 -0.00356396 0)
(-1.88129 -0.00393717 0)
(-1.90186 -0.00429372 0)
(-1.92441 -0.00463168 0)
(-1.94891 -0.00495072 0)
(-1.97532 -0.00524948 0)
(-2.00359 -0.00552664 0)
(-2.03367 -0.00577927 0)
(-2.06551 -0.00600381 0)
(-2.09902 -0.00619486 0)
(-2.13414 -0.00633444 0)
(-2.17086 -0.00646194 0)
(-2.20914 -0.00660764 0)
(-2.24891 -0.00665491 0)
(-2.29009 -0.00664847 0)
(-2.33263 -0.00659069 0)
(-2.37642 -0.0064797 0)
(-2.42139 -0.00631455 0)
(-2.46741 -0.00607216 0)
(-2.5144 -0.00575266 0)
(-2.56221 -0.00538333 0)
(-2.6107 -0.00493068 0)
(-2.65972 -0.00437355 0)
(-2.70916 -0.00379565 0)
(-2.75878 -0.00301842 0)
(-2.80936 -0.00211366 0)
(-2.85901 -0.00118439 0)
(-2.90867 -8.49862e-05 0)
(-2.95796 0.00113944 0)
(-3.00674 0.00251143 0)
(-3.05484 0.00405236 0)
(-3.1021 0.00579422 0)
(-3.14839 0.00777601 0)
(-3.19358 0.0100429 0)
(-3.23762 0.0126451 0)
(-3.28046 0.0156329 0)
(-3.32205 0.0190515 0)
(-3.36229 0.0229101 0)
(-3.40094 0.0271036 0)
(-3.43759 0.0314471 0)
(-3.4712 0.0354057 0)
(-3.50089 0.0389815 0)
(-3.52541 0.0401792 0)
(-3.54283 0.0404586 0)
(-3.55225 0.0398999 0)
(-3.55415 0.0437611 0)
(-3.54887 0.0499684 0)
(-3.53334 0.0390655 0)
(-3.4983 0.0306003 0)
(-3.45123 0.029504 0)
(-3.39871 0.0350815 0)
(-3.36049 0.0475617 0)
(-3.3201 0.0270869 0)
(-0.098099 0.00976446 0)
(-0.304851 0.0160588 0)
(-0.519546 0.0233719 0)
(-0.733767 0.0127256 0)
(-0.940191 0.00144955 0)
(-1.14464 -0.00208965 0)
(-1.34986 -0.0038735 0)
(-1.55594 -0.00497849 0)
(-1.76365 -0.00670485 0)
(-1.97207 -0.0127172 0)
(-2.17718 -0.0240812 0)
(-2.37527 -0.0354304 0)
(-2.5677 -0.0444689 0)
(-2.75812 -0.0471438 0)
(-2.94898 -0.049817 0)
(-3.14295 -0.0529388 0)
(-3.33922 -0.0605957 0)
(-3.5304 -0.0638809 0)
(-3.68637 -0.0335706 0)
(-3.80399 -0.0904847 0)
(-3.84746 -0.197818 0)
(-3.87824 -0.272784 0)
(-3.96191 0.0841319 0)
(-4.275 0.211045 0)
(-4.5772 0.234311 0)
(-4.89562 0.192392 0)
(-5.23943 0.0504929 0)
(-5.55556 -0.115956 0)
(-5.72957 -0.230058 0)
(-5.85928 -0.239366 0)
(-5.99033 0.307856 0)
(-6.44306 0.563199 0)
(-6.88968 0.65757 0)
(-7.38428 0.674903 0)
(-7.99768 0.405816 0)
(-8.69239 0.0618955 0)
(-9.38929 0.00833932 0)
(-10.0445 0.115226 0)
(-10.7246 0.16597 0)
(-11.4295 0.137394 0)
(-12.1271 0.0958502 0)
(-12.7391 0.110731 0)
(-13.1159 0.241251 0)
(-13.2064 0.322358 0)
(-13.1619 0.41418 0)
(-13.1471 0.415912 0)
(-13.1641 0.311055 0)
(-13.1724 0.215977 0)
(-13.1417 0.22151 0)
(-13.1004 -0.240325 0)
(-13.0482 -0.230955 0)
(-12.8983 0.0468609 0)
(-12.498 -0.0481541 0)
(-12.036 -0.530815 0)
(-11.4392 -0.896129 0)
(-10.9475 -1.09355 0)
(-10.5163 -1.14192 0)
(-10.0956 -1.14351 0)
(-9.66542 -1.12974 0)
(-9.19894 -1.06878 0)
(-8.70023 -0.972954 0)
(-8.16438 -0.762251 0)
(-8.25987 0.519344 0)
(-8.63442 0.409741 0)
(-8.96738 0.0283334 0)
(-9.0828 -0.51944 0)
(-9.35021 -0.398915 0)
(-9.65805 0.365553 0)
(-10.4643 0.222276 0)
(-11.4689 0.029558 0)
(-12.5305 0.178082 0)
(-13.6002 0.418307 0)
(-14.6413 0.668948 0)
(-15.6562 0.887338 0)
(-16.6659 1.0614 0)
(-17.6874 1.16683 0)
(-18.7163 1.19289 0)
(-19.7321 1.12733 0)
(-20.708 1.00901 0)
(-21.6065 0.862665 0)
(-22.3663 0.729356 0)
(-22.9377 0.647537 0)
(-23.3138 0.564891 0)
(-23.5177 0.528345 0)
(-23.5655 0.439783 0)
(-23.4443 0.32711 0)
(-23.1158 0.302812 0)
(-22.6685 0.242079 0)
(-22.1665 0.120637 0)
(-21.586 0.0635971 0)
(-20.9813 -0.117306 0)
(-20.3513 -0.281766 0)
(-19.6924 -0.390865 0)
(-19.006 -0.452407 0)
(-18.3004 -0.499088 0)
(-17.5732 -0.562442 0)
(-16.8133 -0.632616 0)
(-16.0194 -0.705005 0)
(-15.1853 -0.790471 0)
(-14.2876 -0.859995 0)
(-13.329 -0.864322 0)
(-12.3518 -0.798318 0)
(-11.3939 -0.688194 0)
(-10.4726 -0.584613 0)
(-9.58706 -0.54066 0)
(-8.71585 -0.571956 0)
(-7.87001 -0.509607 0)
(-7.13301 -0.471368 0)
(-6.6253 -0.489747 0)
(-6.25874 -0.481787 0)
(-5.87054 -0.492243 0)
(-5.45692 -0.495156 0)
(-5.02122 -0.493056 0)
(-4.56979 -0.491452 0)
(-4.10864 -0.492419 0)
(-3.64305 -0.494583 0)
(-3.17772 -0.497045 0)
(-2.71835 -0.497245 0)
(-2.26908 -0.501069 0)
(-1.83405 -0.49765 0)
(-1.4209 -0.514176 0)
(-0.98875 -0.63356 0)
(-0.414753 -0.88083 0)
(0.35047 -0.871405 0)
(1.07077 -0.751926 0)
(1.74549 -0.711502 0)
(2.39069 -0.655983 0)
(3.00831 -0.567352 0)
(3.60074 -0.465529 0)
(4.16358 -0.353471 0)
(4.68508 -0.245929 0)
(5.14458 -0.17288 0)
(5.50305 -0.129383 0)
(5.72549 -0.0820848 0)
(5.81231 -0.025221 0)
(5.8269 -0.0149796 0)
(5.81122 -0.0196328 0)
(5.76619 -0.0185661 0)
(5.69645 0.01861 0)
(5.62647 0.15926 0)
(5.45649 0.25667 0)
(5.22469 0.351752 0)
(4.90769 0.421262 0)
(4.52295 0.447252 0)
(4.08638 0.449084 0)
(3.60667 0.468449 0)
(3.08986 0.496741 0)
(2.54334 0.510414 0)
(1.97342 0.522182 0)
(1.38767 0.525511 0)
(0.780862 0.577265 0)
(0.154266 0.591437 0)
(-0.399685 0.411997 0)
(-0.744207 0.170129 0)
(-1.03586 0.114138 0)
(-1.3202 0.170903 0)
(-1.61455 0.243174 0)
(-1.92561 0.28253 0)
(-2.24542 0.283199 0)
(-2.5587 0.243833 0)
(-2.865 0.239159 0)
(-3.16758 0.339915 0)
(-3.59143 0.375281 0)
(-4.1085 0.427975 0)
(-4.5983 0.452165 0)
(-5.08046 0.475635 0)
(-5.58795 0.473124 0)
(-6.12198 0.473205 0)
(-6.59636 0.495216 0)
(-6.99961 0.480962 0)
(-7.35343 0.409766 0)
(-7.68913 0.335971 0)
(-7.98453 0.300632 0)
(-8.20137 0.241206 0)
(-8.35604 0.171406 0)
(-8.48789 0.119833 0)
(-8.59062 0.0882919 0)
(-8.66893 0.0602471 0)
(-8.71592 0.0186866 0)
(-8.74392 -0.0167936 0)
(-8.7349 -0.0668574 0)
(-8.70186 -0.119425 0)
(-8.64155 -0.145476 0)
(-8.56646 -0.156888 0)
(-8.47811 -0.173079 0)
(-8.3765 -0.193481 0)
(-8.26354 -0.217738 0)
(-8.13988 -0.238077 0)
(-8.00875 -0.249467 0)
(-7.87409 -0.25191 0)
(-7.73971 -0.246218 0)
(-7.60891 -0.234324 0)
(-7.48475 -0.217513 0)
(-7.37005 -0.20189 0)
(-7.26151 -0.199367 0)
(-7.16135 -0.181104 0)
(-7.07146 -0.161732 0)
(-6.99026 -0.14344 0)
(-6.91764 -0.120841 0)
(-6.85554 -0.0948413 0)
(-6.80079 -0.0790748 0)
(-6.75123 -0.0757215 0)
(-6.70427 -0.0892216 0)
(-6.65578 -0.104489 0)
(-6.60563 -0.112436 0)
(-6.55526 -0.0998568 0)
(-6.53125 -0.0956769 0)
(-6.54152 -0.0612887 0)
(-6.59496 -0.0299211 0)
(-6.68621 0.00518057 0)
(-6.7945 -0.020122 0)
(-6.87022 -0.0604088 0)
(-6.92393 -0.0717824 0)
(-6.9768 -0.0592855 0)
(-7.05043 -0.028885 0)
(-7.13961 -0.0314234 0)
(-7.21317 -0.0519647 0)
(-7.25983 -0.0762741 0)
(-7.28577 -0.0925767 0)
(-7.31102 -0.0887408 0)
(-7.34182 -0.0732886 0)
(-7.39005 -0.0589911 0)
(-7.45325 -0.0455344 0)
(-7.53318 -0.0240785 0)
(-7.62392 -0.0294227 0)
(-7.70931 -0.037097 0)
(-7.79274 -0.0352206 0)
(-7.87828 -0.0218416 0)
(-7.96813 -0.0122864 0)
(-8.04483 -0.0321306 0)
(-8.11066 -0.0192482 0)
(-8.16959 -0.00726697 0)
(-8.21511 -0.016599 0)
(-8.25505 -0.0224003 0)
(-8.29143 -0.0274307 0)
(-8.32544 -0.0297166 0)
(-8.36114 -0.0239404 0)
(-8.40529 -0.00721761 0)
(-8.46776 0.00783177 0)
(-8.54944 0.0221186 0)
(-8.64979 0.0469583 0)
(-8.76979 0.0784008 0)
(-8.90983 0.102043 0)
(-9.06624 0.124753 0)
(-9.2396 0.148399 0)
(-9.43014 0.170609 0)
(-9.6353 0.184849 0)
(-9.85112 0.194294 0)
(-10.0775 0.203304 0)
(-10.3129 0.208234 0)
(-10.5565 0.21287 0)
(-10.8024 0.20265 0)
(-11.0424 0.193156 0)
(-11.2757 0.191375 0)
(-11.4955 0.18285 0)
(-11.6942 0.179358 0)
(-11.859 0.158656 0)
(-11.9744 0.147282 0)
(-12.0328 0.12878 0)
(-12.0469 0.12427 0)
(-12.0305 0.121244 0)
(-11.9634 0.109024 0)
(-11.8393 0.0988376 0)
(-11.6771 0.0789125 0)
(-11.4875 0.07148 0)
(-11.2803 0.0592692 0)
(-11.0539 0.0363823 0)
(-10.8112 0.0179191 0)
(-10.5549 0.00242457 0)
(-10.2835 -0.010522 0)
(-10.0025 -0.0183453 0)
(-9.71323 -0.0429201 0)
(-9.40636 -0.0813296 0)
(-9.08104 -0.100279 0)
(-8.74713 -0.105718 0)
(-8.40884 -0.106874 0)
(-8.06893 -0.109087 0)
(-7.72875 -0.115127 0)
(-7.38894 -0.125302 0)
(-7.05011 -0.137162 0)
(-6.71327 -0.14874 0)
(-6.37902 -0.157384 0)
(-6.05502 -0.160945 0)
(-5.7529 -0.165744 0)
(-5.49243 -0.189307 0)
(-5.3315 -0.144975 0)
(-5.22404 -0.13657 0)
(-5.11422 -0.199834 0)
(-4.97506 -0.244185 0)
(-4.81835 -0.237053 0)
(-4.67102 -0.177717 0)
(-4.52803 -0.147361 0)
(-4.39295 -0.135083 0)
(-4.27081 -0.116061 0)
(-4.16192 -0.10952 0)
(-4.06329 -0.113058 0)
(-3.97806 -0.0907973 0)
(-3.90985 -0.0610841 0)
(-3.86021 -0.0302552 0)
(-3.82402 -0.010966 0)
(-3.80351 0.00905044 0)
(-3.7955 0.0214392 0)
(-3.80337 0.0350523 0)
(-3.82189 0.0482636 0)
(-3.85061 0.0604385 0)
(-3.88863 0.0713784 0)
(-3.93469 0.0790394 0)
(-3.98667 0.0826707 0)
(-4.04416 0.0866038 0)
(-4.10468 0.0777992 0)
(-4.1662 0.0714052 0)
(-4.22868 0.067892 0)
(-4.29213 0.0670491 0)
(-4.35608 0.0635066 0)
(-4.41936 0.0587604 0)
(-4.48195 0.0566148 0)
(-4.54421 0.0592949 0)
(-4.60754 0.0633071 0)
(-4.6691 0.0545531 0)
(-4.72786 0.0552314 0)
(-4.78792 0.0677712 0)
(-4.84638 0.0498709 0)
(-4.89918 0.0341836 0)
(-4.94892 0.0237627 0)
(-4.99503 0.0172708 0)
(-5.03895 0.0147084 0)
(-5.08022 0.00907888 0)
(-5.11878 0.00494572 0)
(-5.15554 0.00203161 0)
(-5.19015 -0.00321005 0)
(-5.22258 -0.00803089 0)
(-5.25329 -0.0118991 0)
(-5.28274 -0.0149405 0)
(-5.31108 -0.0181821 0)
(-5.3386 -0.0208421 0)
(-5.3656 -0.0230979 0)
(-5.3923 -0.0248096 0)
(-5.419 -0.0259473 0)
(-5.44591 -0.0269104 0)
(-5.47321 -0.0272968 0)
(-5.50112 -0.0273068 0)
(-5.52977 -0.027201 0)
(-5.55917 -0.0271568 0)
(-5.5894 -0.0267208 0)
(-5.62052 -0.0263318 0)
(-5.65248 -0.0259366 0)
(-5.68527 -0.025455 0)
(-5.71886 -0.0250557 0)
(-5.75322 -0.0245146 0)
(-5.78826 -0.0239439 0)
(-5.82407 -0.0232739 0)
(-5.85989 -0.0225597 0)
(-5.89792 -0.0218505 0)
(-5.93448 -0.021273 0)
(-5.97171 -0.020656 0)
(-6.00883 -0.0200384 0)
(-6.04585 -0.0194443 0)
(-6.08257 -0.018897 0)
(-6.11886 -0.0184437 0)
(-6.15452 -0.0180653 0)
(-6.1894 -0.0176699 0)
(-6.22333 -0.0172493 0)
(-6.25617 -0.0167968 0)
(-6.28776 -0.0163236 0)
(-6.31796 -0.0158565 0)
(-6.34662 -0.0153807 0)
(-6.3736 -0.0148852 0)
(-6.39876 -0.0143772 0)
(-6.42195 -0.0138997 0)
(-6.44304 -0.0134349 0)
(-6.46192 -0.0130148 0)
(-6.47846 -0.012688 0)
(-6.49255 -0.0124139 0)
(-6.50407 -0.0121417 0)
(-6.51294 -0.0118059 0)
(-6.51904 -0.0113391 0)
(-6.52262 -0.0103585 0)
(-6.52329 -0.00900812 0)
(-6.52091 -0.0110891 0)
(-6.51521 -0.01038 0)
(-6.50679 -0.00976216 0)
(-6.49527 -0.00919096 0)
(-6.4808 -0.00858055 0)
(-6.46336 -0.00799816 0)
(-6.44303 -0.00744092 0)
(-6.41985 -0.00690547 0)
(-6.39388 -0.00638475 0)
(-6.36519 -0.00587867 0)
(-6.33387 -0.00538596 0)
(-6.29999 -0.00490212 0)
(-6.26367 -0.00442737 0)
(-6.22502 -0.00396324 0)
(-6.18415 -0.00351442 0)
(-6.14121 -0.00242516 0)
(-6.09637 -0.00231695 0)
(-6.04976 -0.00185465 0)
(-6.00147 -0.00131661 0)
(-5.95164 -0.00074733 0)
(-5.90045 -0.000172692 0)
(-5.84803 0.000386323 0)
(-5.79455 0.000916468 0)
(-5.74016 0.00138229 0)
(-5.68502 0.00178034 0)
(-5.62925 0.00245741 0)
(-5.57306 0.00263879 0)
(-5.51649 0.00296107 0)
(-5.46026 0.00324951 0)
(-5.40254 0.00352771 0)
(-5.34648 0.00379089 0)
(-5.29028 0.00399151 0)
(-5.23461 0.00417503 0)
(-5.17946 0.00435279 0)
(-5.12501 0.00450325 0)
(-5.07139 0.00462654 0)
(-5.01873 0.00473334 0)
(-4.96717 0.00481866 0)
(-4.91683 0.00487846 0)
(-4.86781 0.00490779 0)
(-4.82022 0.00490525 0)
(-4.77417 0.00486608 0)
(-4.72978 0.0047963 0)
(-4.68714 0.00470931 0)
(-4.64635 0.00461453 0)
(-4.60752 0.00453048 0)
(-4.57073 0.00447558 0)
(-4.53602 0.00449175 0)
(-4.50348 0.00449568 0)
(-4.47317 0.00444444 0)
(-4.4452 0.00433026 0)
(-4.41961 0.0041658 0)
(-4.39647 0.00396497 0)
(-4.37579 0.00371007 0)
(-4.35761 0.00344485 0)
(-4.34194 0.00318921 0)
(-4.32881 0.00293113 0)
(-4.31826 0.00264683 0)
(-4.31028 0.00239643 0)
(-4.30491 0.00277652 0)
(-4.30221 0.00324383 0)
(-4.30201 0.00182969 0)
(-4.3047 0.000480408 0)
(-4.30966 7.0321e-05 0)
(-4.31724 -7.39139e-05 0)
(-4.32737 -0.000263503 0)
(-4.34006 -0.000549254 0)
(-4.35526 -0.000875741 0)
(-4.37297 -0.00130972 0)
(-4.39313 -0.00174583 0)
(-4.41571 -0.00219097 0)
(-4.44065 -0.00263879 0)
(-4.46791 -0.00308837 0)
(-4.49743 -0.00354373 0)
(-4.52914 -0.00400017 0)
(-4.56299 -0.00446115 0)
(-4.59888 -0.00492572 0)
(-4.63675 -0.00539416 0)
(-4.67649 -0.00588064 0)
(-4.71801 -0.00643371 0)
(-4.76123 -0.00696921 0)
(-4.80608 -0.0073993 0)
(-4.85245 -0.00792301 0)
(-4.90024 -0.00843798 0)
(-4.94933 -0.00895502 0)
(-4.99958 -0.0094749 0)
(-5.05086 -0.0100176 0)
(-5.10299 -0.0105549 0)
(-5.15584 -0.0110862 0)
(-5.2092 -0.0116774 0)
(-5.26287 -0.0122711 0)
(-5.31667 -0.0128644 0)
(-5.37036 -0.0134409 0)
(-5.424 -0.0141234 0)
(-5.47732 -0.0148179 0)
(-5.52938 -0.0154667 0)
(-5.58057 -0.0162039 0)
(-5.63053 -0.0169683 0)
(-5.679 -0.0177716 0)
(-5.7257 -0.0186018 0)
(-5.77037 -0.0194418 0)
(-5.8127 -0.0202704 0)
(-5.8524 -0.0210624 0)
(-5.88918 -0.0217922 0)
(-5.92271 -0.0224426 0)
(-5.95265 -0.0230174 0)
(-5.9786 -0.0235907 0)
(-6.0001 -0.0243727 0)
(-6.01674 -0.025655 0)
(-6.02793 -0.0281544 0)
(-6.03406 -0.0310536 0)
(-6.03431 -0.0357017 0)
(-6.02794 -0.0423779 0)
(-6.01636 -0.0510129 0)
(-5.99692 -0.0564523 0)
(-5.96851 -0.0597247 0)
(-5.93559 -0.0789323 0)
(-5.89373 -0.0942568 0)
(-5.8452 -0.100609 0)
(-5.7891 -0.095587 0)
(-5.75043 -0.073911 0)
(-5.68049 -0.032626 0)
(-0.0974299 0.050403 0)
(-0.306086 0.073418 0)
(-0.521574 0.0919665 0)
(-0.74194 0.0810232 0)
(-0.958499 0.0676998 0)
(-1.17187 0.0653358 0)
(-1.38407 0.0666007 0)
(-1.59839 0.0702726 0)
(-1.8173 0.07427 0)
(-2.03978 0.0709415 0)
(-2.26069 0.0566227 0)
(-2.47569 0.0407936 0)
(-2.68313 0.0342845 0)
(-2.88021 0.0331909 0)
(-3.06611 0.0338504 0)
(-3.24687 0.0342768 0)
(-3.4304 0.0279257 0)
(-3.6237 0.00757786 0)
(-3.81363 -0.049939 0)
(-3.99098 -0.139012 0)
(-4.18356 -0.219876 0)
(-4.43941 -0.243355 0)
(-4.67985 -0.018939 0)
(-4.91949 0.160821 0)
(-5.18623 0.214598 0)
(-5.46725 0.234215 0)
(-5.80185 0.212622 0)
(-6.19619 0.119328 0)
(-6.6069 -0.0420688 0)
(-7.09022 -0.0659212 0)
(-7.56139 0.165097 0)
(-7.92913 0.473355 0)
(-8.30922 0.61393 0)
(-8.66304 0.79054 0)
(-9.05011 1.02616 0)
(-9.59334 0.989873 0)
(-10.1904 0.975712 0)
(-10.7863 1.09362 0)
(-11.4252 1.18844 0)
(-12.1347 1.17438 0)
(-12.8821 1.05018 0)
(-13.5558 0.752974 0)
(-13.9756 0.308156 0)
(-14.1857 0.0213127 0)
(-14.345 -0.044491 0)
(-14.4036 -0.0357034 0)
(-14.3807 -0.17678 0)
(-14.3515 -0.296911 0)
(-14.2812 -0.319004 0)
(-14.2436 -0.367473 0)
(-14.1552 -0.34627 0)
(-13.9006 -0.690152 0)
(-13.4208 -0.964178 0)
(-13.0966 -1.25577 0)
(-12.7991 -1.26559 0)
(-12.5835 -1.12983 0)
(-12.3353 -1.1144 0)
(-12.0996 -1.06746 0)
(-11.8711 -1.03093 0)
(-11.6548 -0.941016 0)
(-11.519 -0.747461 0)
(-11.6131 -0.349894 0)
(-11.6279 -0.0273648 0)
(-11.5524 -0.00872469 0)
(-11.5918 0.0439163 0)
(-11.9155 0.425114 0)
(-12.639 0.623858 0)
(-13.4559 0.732067 0)
(-14.0999 1.53992 0)
(-15.2105 1.63468 0)
(-16.4119 1.70228 0)
(-17.648 1.70582 0)
(-18.8479 1.71404 0)
(-19.959 1.7578 0)
(-20.9476 1.83235 0)
(-21.7892 1.89701 0)
(-22.4723 1.92864 0)
(-23.0054 1.89085 0)
(-23.4253 1.79353 0)
(-23.7593 1.60562 0)
(-23.995 1.3326 0)
(-24.1612 1.0393 0)
(-24.1535 0.789425 0)
(-24.0998 0.512886 0)
(-23.9425 0.289574 0)
(-23.8377 -0.0561291 0)
(-23.5551 -0.389815 0)
(-23.1188 -0.59141 0)
(-22.6228 -0.803761 0)
(-22.0187 -0.965108 0)
(-21.3573 -1.15614 0)
(-20.6747 -1.31451 0)
(-19.9735 -1.43083 0)
(-19.2481 -1.51204 0)
(-18.5018 -1.5644 0)
(-17.7385 -1.64852 0)
(-16.9484 -1.75745 0)
(-16.1246 -1.87499 0)
(-15.2707 -2.02891 0)
(-14.3762 -2.21451 0)
(-13.4199 -2.30269 0)
(-12.4298 -2.2588 0)
(-11.4395 -2.12073 0)
(-10.4573 -1.9805 0)
(-9.48846 -1.90184 0)
(-8.53583 -1.91097 0)
(-7.64965 -1.75564 0)
(-6.82795 -1.57114 0)
(-6.01137 -1.41031 0)
(-5.20164 -1.3273 0)
(-4.44082 -1.25142 0)
(-3.70962 -1.1971 0)
(-2.9838 -1.13718 0)
(-2.2473 -1.07667 0)
(-1.48948 -1.01929 0)
(-0.704537 -0.964043 0)
(0.111181 -0.909761 0)
(0.95623 -0.853118 0)
(1.82208 -0.813394 0)
(2.69265 -0.763368 0)
(3.53094 -0.733026 0)
(4.24436 -0.86011 0)
(4.68755 -1.1597 0)
(5.04516 -1.27204 0)
(5.42841 -1.26655 0)
(5.86551 -1.23616 0)
(6.33945 -1.21378 0)
(6.83866 -1.22385 0)
(7.35035 -1.22804 0)
(7.86651 -1.20791 0)
(8.37636 -1.13706 0)
(8.86793 -0.968443 0)
(9.31392 -0.686606 0)
(9.69888 -0.344269 0)
(10.101 -0.0856281 0)
(10.5391 0.0377752 0)
(10.9909 0.105671 0)
(11.3707 0.174863 0)
(11.5666 0.142122 0)
(11.5153 0.128574 0)
(11.2711 0.241112 0)
(10.8684 0.411779 0)
(10.408 0.602319 0)
(9.92574 0.736663 0)
(9.44445 0.848246 0)
(8.93113 0.904597 0)
(8.34343 0.930851 0)
(7.66353 0.967714 0)
(6.91029 1.03205 0)
(6.11557 1.08776 0)
(5.33223 1.08803 0)
(4.60462 0.980516 0)
(3.95619 0.74878 0)
(3.31283 0.598585 0)
(2.67072 0.55146 0)
(1.99279 0.620402 0)
(1.2135 0.703065 0)
(0.329176 0.76369 0)
(-0.605599 0.815249 0)
(-1.51689 0.855729 0)
(-2.33761 0.891806 0)
(-3.01962 0.959813 0)
(-3.56056 1.09014 0)
(-4.06496 1.12614 0)
(-4.5955 1.13579 0)
(-5.09882 1.18985 0)
(-5.58185 1.20059 0)
(-6.04569 1.1718 0)
(-6.50729 1.08723 0)
(-6.97554 1.00004 0)
(-7.36673 0.884214 0)
(-7.66695 0.761616 0)
(-7.93496 0.640937 0)
(-8.16332 0.489576 0)
(-8.34174 0.352859 0)
(-8.47218 0.240934 0)
(-8.53729 0.117436 0)
(-8.48528 -0.0211609 0)
(-8.3473 -0.124314 0)
(-8.16963 -0.202178 0)
(-7.96777 -0.270031 0)
(-7.75719 -0.347998 0)
(-7.53579 -0.400998 0)
(-7.31591 -0.427522 0)
(-7.1056 -0.458863 0)
(-6.90222 -0.49223 0)
(-6.70058 -0.510493 0)
(-6.50026 -0.509018 0)
(-6.30762 -0.501218 0)
(-6.12717 -0.487252 0)
(-5.96506 -0.460733 0)
(-5.82902 -0.425596 0)
(-5.72859 -0.383197 0)
(-5.66803 -0.35079 0)
(-5.62926 -0.337137 0)
(-5.61627 -0.300325 0)
(-5.63424 -0.260737 0)
(-5.67798 -0.22372 0)
(-5.73992 -0.181567 0)
(-5.82149 -0.130664 0)
(-5.92923 -0.0901339 0)
(-6.05467 -0.0689828 0)
(-6.18171 -0.0780487 0)
(-6.29976 -0.0903644 0)
(-6.41159 -0.0921918 0)
(-6.52316 -0.0585874 0)
(-6.62953 -0.0297999 0)
(-6.71696 0.0380522 0)
(-6.81266 0.120399 0)
(-6.9229 0.189037 0)
(-7.0485 0.159317 0)
(-7.14387 0.0775203 0)
(-7.25063 0.0549797 0)
(-7.35354 0.083494 0)
(-7.45645 0.142802 0)
(-7.5734 0.136316 0)
(-7.68157 0.0955715 0)
(-7.7786 0.0394844 0)
(-7.8772 0.0164084 0)
(-7.97514 0.0232177 0)
(-8.07273 0.0554259 0)
(-8.17643 0.0871941 0)
(-8.28378 0.114906 0)
(-8.39269 0.151709 0)
(-8.50487 0.146786 0)
(-8.6118 0.126247 0)
(-8.70933 0.121281 0)
(-8.79813 0.130776 0)
(-8.88086 0.122386 0)
(-8.93247 0.0643462 0)
(-9.00545 0.05844 0)
(-9.11916 0.0422533 0)
(-9.26002 0.0243524 0)
(-9.39633 0.0117618 0)
(-9.53271 -0.00203099 0)
(-9.66757 -0.00939151 0)
(-9.80299 -0.00480491 0)
(-9.94017 0.0232853 0)
(-10.0836 0.0512685 0)
(-10.2342 0.0814317 0)
(-10.395 0.117019 0)
(-10.5707 0.161428 0)
(-10.7641 0.195446 0)
(-10.9678 0.228045 0)
(-11.1777 0.263354 0)
(-11.3881 0.29922 0)
(-11.5928 0.324605 0)
(-11.7839 0.345052 0)
(-11.9596 0.365686 0)
(-12.12 0.380358 0)
(-12.266 0.395677 0)
(-12.3959 0.388708 0)
(-12.5033 0.378916 0)
(-12.594 0.371958 0)
(-12.663 0.347169 0)
(-12.7082 0.315626 0)
(-12.7036 0.258439 0)
(-12.6738 0.183995 0)
(-12.6274 0.110365 0)
(-12.5286 0.0528431 0)
(-12.4307 -0.00507952 0)
(-12.3202 -0.100055 0)
(-12.1589 -0.169351 0)
(-12.0013 -0.220486 0)
(-11.8367 -0.262961 0)
(-11.6488 -0.307359 0)
(-11.4385 -0.362515 0)