/*--------------------------------*- C++ -*----------------------------------*\
| =========                 |                                                 |
| \\      /  F ield         | OpenFOAM: The Open Source CFD Toolbox           |
|  \\    /   O peration     | Version:  v1812                                 |
|   \\  /    A nd           | Web:      www.OpenFOAM.com                      |
|    \\/     M anipulation  |                                                 |
\*---------------------------------------------------------------------------*/
FoamFile
{
    version     2.0;
    format      ascii;
    class       volScalarField;
    location    "1.4";
    object      p;
}
// * * * * * * * * * * * * * * * * * * * * * * * * * * * * * * * * * * * * * //

dimensions      [1 -1 -2 0 0 0 0];


internalField   nonuniform List<scalar> 
20400
(
98356.9
98356.1
98354.8
98352.7
98352.1
98349.6
98347.1
98344
98340.5
98336.6
98332.6
98328.6
98324.3
98319.1
98314.7
98309.8
98304.1
98299.4
98294.3
98289.2
98284.8
98280.5
98275.5
98270.4
98265.5
98261.1
98256.5
98251.8
98247
98241.4
98236.3
98230.8
98225.3
98218.6
98212.8
98207
98200.6
98193.7
98189
98184.4
98179.5
98175.1
98170
98164
98157.8
98155.4
98152.2
98151.8
98152.4
98155.5
98157.9
98162.5
98170.8
98175.5
98186.7
98198.1
98203.4
98215.6
98225.8
98237.4
98248.7
98258.1
98266.8
98275.4
98284.9
98294.7
98300.9
98305.4
98311.6
98316.6
98322.8
98324
98318.9
98323.8
98326.5
98326.1
98322
98321.3
98318.3
98310.6
98295
98285.9
98274.5
98262.5
98251.1
98243.6
98239
98230.7
98227.3
98228
98227.1
98234.2
98243.8
98250.5
98261.2
98275
98293.5
98318.3
98342.7
98369.4
98400.2
98428.4
98467
98503.5
98539.5
98572.9
98608
98646.4
98687.8
98723.4
98757.6
98790.3
98820.6
98847.1
98870.4
98890.8
98903.6
98915
98925.5
98934.7
98941.9
98946.9
98948.5
98947.3
98946.8
98949.5
98957.3
98930.4
98916.2
98910
98898.9
98894.9
98888.4
98882.6
98872.2
98863.9
98842.3
98838.3
98825.5
98815.7
98805.5
98793.5
98783.4
98776.1
98772.2
98767.6
98764.3
98762.1
98761.7
98763
98764.5
98766.9
98768.5
98771.2
98774.2
98777.9
98782
98788
98793.9
98800.4
98808.1
98814.1
98820.8
98825.5
98829.2
98833.9
98838.4
98842.9
98847.7
98852
98855.9
98859.8
98862.5
98865.8
98868.5
98872.2
98874.9
98878
98880.9
98883.3
98885.4
98887.1
98888.4
98890.6
98893.5
98896.8
98898.1
98899.8
98900.5
98901.2
98901.8
98902.8
98905
98905.3
98905.4
98905
98904.3
98904.5
98904.5
98904
98903
98902.1
98901.1
98901.8
98902.7
98903.5
98904.6
98904.5
98904.5
98904.1
98903.2
98904
98907.2
98911.6
98918.9
98921.8
98925.1
98922.8
98929.5
98923.7
98920.7
98923.1
98920.6
98919.1
98914.1
98909.6
98909
98903.5
98899
98895.5
98889.2
98883.8
98880.3
98875.6
98871.3
98868.7
98864.5
98863.8
98862.6
98861.5
98863.6
98866.2
98873.6
98878
98886
98898.5
98911.2
98923.1
98936.4
98954.2
98974.1
98993.6
99011.5
99029.4
99047.5
99064.2
99077
99089.6
99105.3
99118.7
99128
99137
99145.2
99152.6
99158.7
99168.6
99173.9
99178
99182
99186.6
99189.6
99193.8
99197.9
99203.3
99207.9
99213.3
99218.4
99222.9
99224.4
99228.5
99235.2
99239.6
99241.2
99243.9
99249.8
99255.4
99259.3
99262.7
99267.1
99271.5
99272.9
99279.6
99283.5
99287.4
99290.4
99293.5
99296.8
99302.8
99307.1
99312.4
99319.7
99325.7
99331.8
99341.1
99349.7
99359.4
99370.5
99382.7
99395.5
99410.5
99426.9
99444.5
99463.5
99482.5
99502.6
99522.7
99545.3
99568.7
99592.9
99617.8
99643.6
99669.9
99695.8
99722.1
99747.8
99776.2
99804.7
99827.9
99852.6
99876.3
99900
99922.8
99944.5
99964.8
99984
100003
100022
100045
100066
100087
100108
100127
100147
100165
100184
100206
100221
100236
100250
100264
100279
100295
100311
100324
100338
100351
100365
100378
100392
100403
100416
100427
100439
100452
100464
100475
100485
100496
100506
100515
100525
100534
100543
100552
100561
100568
100575
100580
100587
100593
100600
100604
100609
100610
100611
100620
100625
100631
100634
100638
100642
100648
100652
100660
100666
100672
100680
100689
100699
100708
100716
100727
100737
100749
100761
100773
100785
100797
100810
100822
100834
100845
100856
100870
100885
100898
100910
100922
100933
100943
100954
100965
100978
100987
100997
101006
101014
101023
101032
101042
101050
101060
101069
101078
101087
101095
101104
101113
101122
101130
101139
101148
101157
101166
101173
101178
101185
101193
101195
101203
101209
101217
101220
101224
101227
101231
101234
101234
101239
101243
101246
101250
101253
101258
101261
101265
101269
101273
101277
101281
101285
101290
101294
101299
101303
101308
101312
101316
101320
101324
101329
101334
101339
101341
101344
101345
101346
101346
101346
101344
101343
101343
101343
101343
101342
101340
101337
101334
101330
101366
98362.1
98362
98361.2
98358.1
98357.1
98354.2
98351.2
98347.5
98343.6
98339.2
98334.7
98330.1
98325.1
98319.4
98314.6
98309
98305.1
98299.8
98294.5
98289.3
98284
98279.1
98273.9
98268.3
98263.4
98258.6
98253.9
98249.2
98244.6
98239.9
98235.8
98231.2
98226.9
98221.9
98217.4
98212.5
98207.4
98202.8
98196.4
98190.8
98185.3
98179.9
98174
98170.6
98169.2
98166.9
98164
98161.5
98158.3
98159.1
98159
98160.7
98164.1
98166.3
98173.5
98178.9
98182.8
98192.9
98201.7
98211.9
98222.6
98233.4
98246
98257.5
98269.4
98281.5
98290.7
98299
98308.3
98314.8
98319.2
98323.8
98322.7
98333
98330.1
98326.5
98349
98347.3
98345.8
98343.4
98338.2
98337.7
98336.1
98335.5
98329.2
98311.4
98302
98288.7
98277.5
98270.8
98255.8
98248
98244.2
98245.2
98254.6
98261.5
98283
98309.4
98336.3
98331.3
98331.8
98379.5
98428.6
98443.6
98465.6
98506.4
98550.1
98581.5
98603.5
98628.9
98656.1
98684
98712
98740.8
98764.1
98793.1
98833.3
98865.9
98893.3
98915.2
98931.8
98943.7
98948.7
98948.5
98946.5
98944.3
98944
98934.2
98921.8
98913.5
98905
98894.6
98879.5
98869.8
98856.1
98836.9
98824.8
98822.9
98811.6
98801.3
98791.6
98782.9
98780.6
98777.1
98773.1
98768.7
98764.9
98761.8
98761
98761.7
98764.3
98766.3
98768.1
98771
98774.2
98778
98781.9
98787
98789.4
98792.7
98798
98802
98809.7
98818.6
98822.8
98828.1
98832.9
98837.9
98842.9
98848.6
98854.1
98859.8
98865
98870.6
98874.9
98876.1
98877.3
98879.2
98879.6
98879.4
98879.6
98880.1
98880.8
98882
98885.7
98891.2
98894.1
98896.8
98899.1
98901.4
98903.9
98905.6
98908.5
98907.5
98906.6
98907.4
98907.4
98907.7
98908.2
98908.1
98907.6
98907.3
98905.2
98905.1
98905.7
98906.6
98907.9
98908.7
98909.1
98909.1
98908
98907.9
98909.8
98912.7
98918.6
98922.7
98925.4
98926.2
98936.9
98936.1
98931.6
98927.8
98923.2
98920.7
98916
98911.7
98909.6
98905.5
98905.1
98907.4
98906.6
98901.5
98897.5
98892.5
98887.1
98882.8
98876.8
98874.2
98870.1
98866.8
98865
98865.4
98874.5
98879
98886.2
98896.2
98909.6
98924.1
98937.4
98948
98958.2
98970.5
98982.5
98995
99009.2
99024.8
99038.2
99050.9
99070.7
99092.1
99107.6
99122.1
99135.7
99149.4
99161.6
99172.7
99176.8
99180.4
99180.9
99186.7
99191.3
99196.3
99199.2
99202.5
99205.2
99215.1
99222.4
99229.4
99235
99232.8
99234.3
99239.8
99241.5
99243.6
99249.2
99257.5
99261.3
99265.4
99273
99278.9
99280.5
99281.9
99285.1
99291.6
99297.4
99302.8
99307.5
99316.9
99323.7
99329.6
99334.4
99336.9
99341.4
99349.6
99357.7
99366.4
99376.2
99387
99398.6
99411.6
99425.4
99441.8
99461.1
99480.5
99500.3
99520.4
99543.3
99565.5
99586.2
99607.5
99629.4
99651.8
99674.6
99698.6
99722.3
99747.2
99780.6
99805.7
99834.1
99861.6
99889
99916.7
99943.2
99969.1
99994.2
100019
100043
100061
100077
100091
100104
100120
100136
100154
100171
100196
100216
100234
100249
100264
100281
100297
100312
100325
100338
100351
100364
100377
100392
100405
100418
100429
100440
100451
100463
100475
100485
100497
100508
100517
100528
100536
100543
100551
100560
100567
100576
100583
100588
100591
100598
100604
100610
100614
100615
100622
100630
100636
100641
100645
100648
100653
100656
100661
100667
100672
100679
100686
100695
100705
100714
100724
100735
100747
100760
100773
100787
100802
100817
100833
100848
100863
100875
100888
100897
100904
100913
100921
100929
100938
100948
100958
100973
100985
100995
101005
101015
101025
101033
101042
101050
101059
101069
101078
101086
101096
101105
101114
101122
101129
101139
101148
101155
101163
101170
101175
101186
101197
101206
101202
101202
101209
101210
101215
101221
101227
101228
101231
101239
101245
101249
101250
101253
101257
101261
101266
101269
101272
101275
101278
101283
101288
101291
101295
101298
101301
101304
101307
101310
101314
101318
101325
101331
101336
101340
101343
101346
101349
101351
101353
101353
101354
101353
101350
101346
101342
101337
101332
101325
101360
98358.6
98357.7
98356.7
98353.7
98353
98350.2
98347.4
98343.9
98340.2
98336
98331.8
98327.4
98322.6
98317
98312.6
98307.8
98303.5
98298.5
98293.4
98288.4
98283.3
98278.4
98273.3
98268
98263.2
98258.7
98253.9
98249.6
98244.2
98240.4
98236.6
98231.6
98226.9
98221.8
98216.9
98211.7
98206.6
98201.4
98194.3
98188.3
98181.4
98175.1
98168.8
98168.4
98168.5
98166.9
98166.3
98164.5
98162
98162.7
98161.8
98162
98163
98163.7
98169.1
98170.9
98182
98189.2
98199
98210
98221.5
98232.7
98244.3
98256.3
98269.3
98281.6
98289.9
98298.5
98307.8
98314.4
98322.6
98328.1
98335.6
98335.8
98341.1
98349.9
98346.8
98344.5
98343.2
98337.7
98327.9
98322
98312.3
98301.8
98289.8
98281.4
98279.1
98278.5
98287.8
98266.7
98272.8
98272.5
98263.2
98266.7
98269.2
98273.3
98288.1
98281.9
98280.4
98327.3
98374.4
98375.5
98389.6
98436
98488.8
98533.2
98574
98616.9
98654
98688.3
98721.3
98750.6
98776
98798.8
98819.6
98837.7
98856.8
98879.9
98900.3
98917.2
98930.9
98942.1
98947.7
98948.4
98947.2
98948.9
98942.8
98933.7
98926.5
98917.4
98902.6
98891.3
98882.7
98874
98861.3
98848.3
98857.2
98853.1
98833.2
98819.1
98806.8
98795.3
98783.5
98776.3
98770
98765
98761.3
98758.3
98758.5
98760.1
98761.6
98765.1
98767.3
98769.8
98772.3
98776.6
98781.7
98788.5
98795.6
98803.6
98813.9
98821.9
98829.3
98823.9
98824.5
98831.1
98836.5
98840.2
98843.5
98846.7
98850.1
98854
98858.5
98863.6
98868.3
98873.8
98875.9
98879.2
98883.4
98887.8
98892.6
98897.7
98903.2
98909.3
98910.2
98904.3
98900.8
98898.6
98897.5
98896.6
98896.3
98895.6
98899.7
98903.9
98905.5
98907
98906.8
98907
98907.4
98907.8
98905.1
98905.6
98904.5
98905.6
98907.3
98908.4
98909.9
98909.8
98907.7
98904.2
98900.5
98899.7
98902
98907.9
98916.9
98927.1
98932.9
98922
98913.7
98918.6
98917.2
98909.6
98915.9
98912.6
98904.6
98911.4
98917.6
98915.7
98906.7
98897.1
98889.1
98882.8
98878.1
98874.9
98868.6
98866.1
98861
98861.8
98861.3
98862.2
98859.2
98862.4
98869.3
98878.8
98889.8
98904
98919.4
98938.1
98960.1
98978
98994.5
99013.8
99031.4
99047.7
99064.7
99082.2
99098.1
99114.6
99117.5
99114.5
99118.9
99127.4
99136.2
99144.5
99152.7
99166.9
99173.5
99177.5
99184.5
99189.4
99188.2
99190.6
99198
99207.7
99215.5
99216.3
99206.8
99212.5
99215.9
99220.9
99229.6
99236.3
99237.4
99240.2
99248
99257.6
99266
99267.7
99269.1
99270.2
99271.4
99276.3
99284
99290
99297
99302.5
99302.9
99298.9
99301.6
99307.1
99310.6
99315.8
99324.7
99335.7
99346
99356.8
99369.1
99382.3
99395.8
99409.9
99423.8
99442.5
99463.1
99482.8
99503.6
99525.1
99551.5
99576.5
99602.5
99628.7
99655.4
99683.1
99710.7
99738.5
99764.8
99801.1
99803
99820.8
99844.7
99867.3
99890.2
99913.1
99935.7
99959.2
99982.5
100007
100030
100053
100072
100092
100114
100136
100159
100183
100207
100223
100220
100228
100244
100259
100275
100293
100310
100325
100337
100352
100366
100380
100392
100401
100414
100426
100438
100450
100465
100477
100486
100496
100505
100514
100524
100534
100542
100553
100566
100573
100576
100578
100586
100594
100599
100603
100607
100614
100613
100611
100612
100619
100624
100630
100636
100641
100646
100655
100664
100672
100683
100693
100700
100702
100709
100720
100729
100738
100748
100759
100770
100783
100796
100811
100827
100842
100855
100870
100884
100898
100911
100925
100939
100954
100969
100983
100989
100988
100995
101004
101012
101021
101031
101041
101051
101060
101070
101080
101088
101095
101102
101112
101121
101128
101137
101148
101155
101166
101179
101181
101177
101184
101187
101198
101204
101210
101209
101216
101229
101235
101241
101233
101233
101240
101242
101247
101252
101257
101260
101265
101267
101272
101276
101283
101286
101291
101296
101302
101308
101314
101320
101327
101334
101341
101346
101346
101342
101340
101340
101339
101339
101339
101339
101339
101340
101341
101343
101343
101342
101341
101339
101338
101340
101380
98359.6
98358.5
98358
98355.1
98354.5
98351.9
98349.1
98345.8
98342.3
98338.3
98334.2
98329.8
98325.2
98319.9
98315.2
98310.8
98305.6
98300.6
98295.3
98290.1
98285
98280.2
98275.4
98270.5
98265.5
98260.8
98255.7
98250.7
98246.9
98241.7
98235.6
98231.4
98226.5
98221
98216.3
98210.9
98204.6
98198.2
98192.5
98187.3
98181.7
98177
98172.2
98168.8
98163.2
98159.8
98156.5
98152.5
98151.1
98154
98154.9
98159.2
98164.7
98169
98178.5
98187.9
98193.8
98206.4
98216.1
98226.9
98237.6
98247.6
98257.4
98267.5
98278.6
98290.3
98298.1
98305.1
98314.7
98320.4
98328.6
98332.2
98333.1
98336
98344.3
98351.7
98347.5
98345.9
98342.2
98333.3
98319.3
98308.1
98293
98278.5
98262.3
98247.5
98243.3
98223.7
98221.5
98215.3
98205.2
98206.2
98204.7
98210
98217.9
98230.9
98255.9
98272.8
98291.7
98327.8
98371.5
98386.9
98411.2
98444.1
98479.7
98516.5
98557.8
98603.4
98654.6
98703.5
98749.2
98788.4
98820.1
98847.2
98870.7
98890.8
98903.7
98910
98916.8
98925.2
98933.9
98941.7
98946.6
98947.8
98947.7
98945.5
98944
98930
98921.8
98911.1
98902.2
98896
98888.9
98877.8
98863.8
98850.7
98834.5
98821.9
98809.2
98799.8
98790.9
98781.2
98772.6
98770.8
98766.7
98762.7
98758.5
98755.4
98755.7
98756.9
98760.5
98763.8
98767
98770.3
98774.2
98777.9
98779.4
98783.9
98792.5
98800.6
98811.3
98817.9
98828.1
98830.3
98831.5
98835.9
98840.4
98845.5
98851.2
98856.3
98861.7
98866.4
98872.1
98875.6
98879.3
98871.1
98869.7
98872.5
98874.6
98876.9
98879.7
98883.6
98887.9
98893.2
98896.4
98896
98896.7
98898.7
98902.5
98906.5
98911.2
98916.7
98917.7
98911.4
98899.2
98900.7
98901.5
98901.2
98902.3
98901.4
98902.4
98905.8
98903.7
98902.1
98901.6
98901.9
98903.2
98903.2
98902.6
98901.5
98899.7
98902.5
98910.7
98916.4
98918.7
98915.1
98919.8
98917.6
98907.6
98918.5
98914.9
98899.1
98917.6
98924.8
98921.1
98909.2
98904.6
98902.9
98896.3
98886.9
98885.7
98879.4
98876.4
98880.8
98877.7
98868.8
98859.7
98856
98850.2
98843.7
98854
98867.7
98873.2
98880.2
98879.1
98882.7
98891.1
98904
98921.2
98938.6
98958.9
98981.9
99004.7
99025.1
99045.6
99070.4
99095.4
99119.2
99126.7
99129
99137.8
99148.2
99158.3
99167.3
99179
99179
99173.5
99175.9
99179.4
99185.2
99189.9
99198.1
99199.8
99200.1
99200.2
99209.4
99211.7
99215.8
99220.1
99226.2
99238.4
99247.9
99248.5
99246.8
99246.1
99251.7
99260.3
99262.5
99260.3
99258.5
99267.5
99271.4
99282.1
99284
99284.7
99290.1
99295.2
99294.2
99299.7
99312.5
99318.3
99323.8
99336.2
99340.6
99345.6
99354.4
99364.2
99375.9
99388.2
99402.1
99419.7
99432.3
99450.7
99470.8
99496.1
99515.1
99535
99558.9
99584.6
99612.1
99641.5
99671.4
99701
99731.5
99760.2
99794.8
99814.1
99834.4
99860.6
99885.6
99910.2
99932.6
99955.1
99976.7
99997.2
100018
100034
100043
100060
100081
100102
100123
100144
100166
100190
100209
100220
100234
100249
100268
100284
100303
100311
100320
100334
100349
100363
100376
100390
100404
100417
100431
100444
100449
100458
100471
100482
100494
100503
100514
100526
100539
100548
100548
100553
100562
100568
100576
100583
100594
100598
100602
100602
100608
100612
100616
100622
100628
100634
100639
100646
100653
100656
100661
100666
100675
100686
100696
100702
100713
100721
100733
100745
100757
100770
100784
100797
100810
100823
100837
100850
100863
100872
100876
100883
100891
100901
100912
100923
100936
100949
100963
100971
100982
100992
101002
101015
101026
101036
101043
101048
101058
101068
101076
101084
101094
101102
101111
101121
101129
101139
101153
101158
101158
101166
101171
101178
101185
101189
101200
101208
101222
101225
101218
101217
101222
101225
101225
101229
101237
101242
101247
101253
101255
101260
101264
101272
101273
101273
101274
101279
101286
101288
101293
101297
101302
101309
101315
101322
101330
101335
101339
101341
101345
101349
101352
101354
101357
101358
101360
101360
101358
101352
101345
101341
101338
101335
101333
101327
101370
98361.4
98360.2
98359.9
98357
98356.1
98353.6
98350.7
98347.5
98344
98340.1
98336
98331.6
98326.7
98321.4
98316.4
98311.1
98305.4
98300.1
98295
98290
98285
98280.4
98275.8
98271.1
98266.3
98262
98257.8
98253.8
98249.3
98243.9
98239.5
98234.3
98229.4
98223.6
98218.2
98212.9
98206.5
98200.3
98195.8
98191.4
98186.5
98181.5
98175.7
98168.6
98162.4
98157.7
98152.5
98147.7
98146.1
98149.5
98150.7
98154.8
98160.3
98164.6
98174.5
98184.2
98189.3
98201.2
98211.3
98222.8
98234.4
98245.2
98256
98266.8
98279.1
98291.1
98299
98305.9
98316.6
98322.9
98330.5
98334.8
98334.8
98338.1
98347
98351.6
98343.2
98340.8
98336.9
98326.8
98311.7
98298.6
98281
98266
98247.5
98233.9
98221.1
98207
98202.9
98202.4
98196.1
98199.6
98205.8
98210.2
98218.6
98239.2
98260.4
98287.3
98312.9
98354.1
98379.3
98408
98442
98478.9
98513.4
98546.1
98575
98605.8
98641.9
98679
98717.6
98755.9
98791.6
98826.3
98861.3
98891.8
98910.5
98919.6
98927.2
98934.7
98940.7
98945.9
98947
98945.8
98943.6
98943.8
98936.6
98927.7
98920.2
98911
98902.2
98891.7
98883.1
98872.2
98859.5
98848.8
98839.4
98829.3
98823.2
98818.8
98807
98792.3
98780
98771.8
98766.3
98761.8
98756.5
98754.1
98754.2
98756.1
98757.4
98761.2
98765.2
98769.6
98773.8
98777.4
98781.1
98788
98793
98798.9
98803.9
98809
98817.5
98826.7
98829.7
98834
98838.1
98842.6
98847.8
98853.6
98859.5
98864.3
98870.1
98872.1
98878.9
98882.1
98881.5
98884.5
98887
98889.1
98891
98893
98894.1
98895.2
98893.1
98892.9
98892.8
98893.3
98894.8
98897.4
98900.6
98904.5
98906.7
98905.9
98902.4
98903.9
98906.2
98909.2
98910.6
98909.3
98898.5
98898.2
98899.3
98900.7
98902.4
98902.8
98904.5
98906.5
98907.4
98913.2
98913.7
98902.2
98897.3
98905.1
98908.9
98909.6
98919.9
98917.2
98914.3
98932.3
98932.9
98925
98909.2
98906.8
98907.5
98899
98895.3
98900
98894.3
98885.8
98897
98893.6
98876.7
98868.1
98861.2
98852.4
98851.4
98851.7
98848
98848.6
98852
98861.1
98868
98875.7
98882.5
98896.6
98908.4
98921.2
98933.4
98948.1
98962.5
98980.2
98997.7
99012.8
99028.4
99042.5
99059.1
99078.6
99094.6
99110
99120.9
99132.3
99143.4
99155.5
99175.7
99180.4
99178.8
99182.5
99189.6
99191.9
99187.3
99190.5
99195.6
99200.2
99205.4
99215.3
99220.3
99232.8
99225
99224
99227.8
99235.9
99242.2
99245.3
99241.3
99241.1
99248.5
99258.2
99261.3
99257.4
99277
99279.5
99282.7
99285.3
99289.7
99296.1
99302
99306.7
99307.8
99315.9
99317.7
99319.6
99322.1
99326.5
99337.7
99349.3
99361
99374.7
99387.2
99402.1
99417.3
99432.9
99455.7
99475.5
99499.6
99521.1
99545.7
99570.3
99594.8
99620.4
99646.2
99672.3
99698.3
99715.6
99736
99767.1
99799.8
99822.7
99848
99873.8
99899.7
99925.6
99950.2
99973.3
99995
100017
100042
100058
100075
100095
100114
100133
100151
100168
100185
100202
100221
100235
100248
100263
100281
100299
100311
100323
100336
100351
100365
100379
100391
100402
100412
100422
100434
100446
100458
100469
100480
100497
100508
100519
100514
100527
100538
100542
100553
100563
100566
100578
100592
100598
100602
100606
100609
100615
100624
100623
100625
100626
100628
100630
100634
100638
100642
100652
100662
100669
100676
100680
100690
100701
100709
100719
100730
100743
100757
100772
100787
100802
100817
100833
100847
100863
100880
100891
100900
100911
100922
100933
100943
100953
100963
100974
100981
100985
100993
101002
101010
101022
101032
101041
101051
101059
101068
101076
101085
101095
101103
101110
101128
101132
101131
101142
101152
101154
101164
101173
101179
101194
101200
101207
101208
101207
101212
101212
101216
101223
101226
101232
101242
101249
101243
101245
101253
101256
101258
101262
101265
101270
101272
101278
101284
101290
101295
101302
101307
101312
101317
101322
101325
101329
101327
101327
101333
101336
101338
101341
101343
101346
101348
101350
101351
101352
101350
101349
101347
101345
101342
101340
101338
101380
98363.8
98362.4
98362.2
98359.4
98358.3
98355.7
98352.5
98349.1
98345.6
98341.8
98337.3
98332.3
98327.3
98322.5
98317.5
98311.9
98306.3
98300.7
98295.6
98290.4
98285.3
98280.7
98276.2
98271.8
98267.1
98263.1
98258.9
98254.7
98250.4
98245.9
98240.7
98236.1
98230.1
98224.8
98218.6
98213
98205.9
98199.4
98193.2
98188.1
98182.9
98177.2
98171.5
98165.4
98161.1
98156.8
98151.2
98146.6
98144.9
98147
98147.1
98149.7
98153.6
98159.2
98169.9
98181.3
98187.8
98202.1
98215.1
98228.6
98241.8
98253.7
98265.4
98277.1
98289.3
98299.9
98306.4
98311.4
98323.2
98331.4
98336.7
98343.1
98345.9
98346.7
98348.5
98356.2
98343.5
98340.6
98334.6
98323.2
98306.8
98292
98274.2
98256.8
98239.2
98220.9
98210.2
98193.7
98192.4
98178.2
98182.8
98182.9
98186.4
98196.9
98210.5
98224.2
98244
98272.1
98293.4
98325.8
98362.7
98381.7
98410
98454.1
98498.7
98544.2
98587.7
98632.5
98670.2
98701.2
98730.6
98760.5
98789.6
98815.5
98838
98856.8
98875.4
98893.2
98907.9
98919.7
98929.4
98937.1
98940.4
98941
98942.3
98939.3
98933
98922.5
98914.6
98907.4
98898.5
98889
98881.4
98873.1
98864
98853.8
98840.8
98827
98812.8
98800.3
98789.4
98779.2
98769.9
98762.5
98761.4
98758
98754
98750.9
98751.3
98753.2
98756.2
98758.9
98763.6
98767.7
98770.6
98775.5
98782
98787.7
98794.5
98798.9
98805.5
98813.7
98820.9
98826.4
98828.2
98832.5
98837
98841.4
98846
98850.3
98854.2
98857.4
98863.4
98861.2
98866.9
98873.3
98875.8
98878.3
98881.8
98885.3
98888.4
98891.6
98893.5
98898.1
98902
98902
98900.8
98901.5
98902
98902.5
98902.8
98901.4
98899
98901.1
98899.7
98899
98898
98898.1
98900.3
98898.8
98898.6
98899.7
98901.3
98899.2
98898.8
98898.9
98902.5
98906.5
98900.8
98894.2
98893.8
98893.5
98896.3
98906.1
98915
98922.5
98936.2
98943.6
98935.5
98922.5
98917.4
98914.1
98903.7
98905.5
98907.7
98903.3
98903.2
98915.3
98913.8
98898.7
98886.4
98880.2
98868.5
98864.7
98860.5
98850.2
98860.6
98859.4
98850.8
98847.5
98848.1
98851.1
98854.9
98856.4
98868.6
98879.2
98894.7
98912
98927.8
98947.2
98964.6
98985.5
99010.1
99035.5
99053.4
99063.4
99072.8
99085.5
99098.1
99110
99118.6
99128.1
99136.8
99144
99154.4
99166.1
99171.4
99173.7
99180.9
99184.4
99187.1
99190.6
99195.5
99206.6
99208.2
99207.3
99210
99220.9
99227
99223.9
99222.5
99229.7
99242.8
99246.9
99251.1
99254.4
99263.5
99270.9
99280.4
99281.7
99279.2
99280.6
99285
99287.7
99290.3
99293.2
99296.3
99297.9
99301.1
99299.3
99300.6
99309.9
99321.3
99325.5
99339.9
99348.7
99358.4
99370.4
99384.1
99398.5
99414.3
99432.5
99451.4
99469.9
99490.1
99513.6
99538.4
99564.9
99592.7
99620.9
99648.9
99677.4
99707.3
99732.7
99756.2
99779.9
99806.2
99828.5
99852
99875.2
99898.4
99921.6
99943.6
99963.6
99979.4
99995.6
100021
100046
100066
100086
100107
100127
100148
100167
100189
100206
100221
100236
100250
100264
100277
100292
100309
100323
100336
100350
100363
100376
100389
100401
100413
100423
100434
100449
100467
100480
100479
100487
100500
100509
100515
100529
100537
100543
100557
100574
100582
100581
100581
100589
100593
100595
100600
100605
100612
100612
100616
100621
100626
100630
100637
100643
100649
100658
100663
100670
100676
100691
100699
100707
100716
100726
100738
100749
100760
100772
100785
100797
100807
100812
100821
100834
100851
100867
100881
100894
100908
100922
100934
100947
100960
100975
100988
100992
101000
101010
101020
101032
101036
101037
101049
101058
101068
101077
101085
101096
101106
101108
101113
101125
101130
101138
101150
101156
101165
101180
101190
101193
101192
101200
101206
101208
101213
101218
101219
101237
101236
101235
101234
101239
101237
101235
101249
101251
101258
101261
101267
101271
101274
101278
101280
101285
101291
101297
101303
101309
101316
101321
101326
101333
101338
101340
101343
101345
101347
101349
101350
101350
101350
101349
101346
101342
101342
101342
101341
101339
101337
101335
101328
101381
98367.1
98365.1
98365.7
98362.9
98361.4
98358.8
98355.5
98352
98348.3
98343.7
98338.2
98332.6
98327.5
98322.9
98317.5
98311.4
98306.4
98301.5
98296.4
98290.8
98285.9
98281.2
98276.7
98272.5
98267.9
98264
98260.1
98256.3
98252.4
98248.5
98245.1
98238.1
98233.9
98228.3
98223.4
98218.1
98211.5
98204.3
98197.5
98191.4
98183.6
98175.8
98168.8
98162.6
98157.7
98152.8
98146.7
98143.2
98141.4
98142.3
98142
98143.3
98148.1
98153.1
98164
98176.5
98183.2
98198
98211.6
98224.4
98237.4
98249.8
98262.5
98275.4
98290.3
98302.2
98310.3
98314.8
98329.9
98338.1
98346.8
98351.5
98355.2
98356.2
98361.6
98352.3
98348.7
98338.9
98332.3
98319.8
98303
98290.5
98268.5
98246.6
98221.8
98208.4
98189.6
98187.7
98172.1
98179.2
98174.4
98178.8
98183.6
98192.6
98197.1
98227.3
98244.4
98263.7
98299.2
98327.6
98345.8
98371.3
98393.9
98417.4
98451.2
98487.8
98532.7
98576.3
98623.7
98667.3
98707.7
98749.7
98792.6
98827
98849.7
98864.2
98877.1
98891.2
98902.9
98912.3
98920.2
98926.1
98928.3
98930.8
98930
98926.3
98919.6
98912.5
98906
98898.2
98889.8
98881
98872.8
98862.8
98851.5
98840.2
98829.5
98819.2
98809.5
98801.4
98793.4
98784.7
98775.4
98769.8
98762.7
98757.9
98752.2
98751.3
98752.2
98753.8
98755.8
98758
98761.3
98766.4
98770.3
98774.5
98778.8
98783.3
98789.7
98796.6
98803.4
98812.5
98820.4
98827
98831
98835.3
98839.7
98844.4
98849.2
98853.7
98857.7
98861.9
98865.9
98869.4
98874
98875.5
98875.5
98877.2
98878.9
98880.8
98882.1
98883.2
98881.9
98884.4
98888.8
98893
98894.5
98895.8
98897.1
98899.2
98901.9
98905
98904.1
98901.9
98900.5
98899.9
98898.9
98897.8
98895.3
98895
98893.9
98894.3
98894
98893.4
98893
98895.4
98892.8
98891.4
98891.7
98893
98898.9
98903.5
98910.4
98922.3
98932.3
98932.4
98919.6
98921.6
98920.9
98913.4
98913
98914.4
98909.4
98915
98920.7
98924.2
98913.1
98900.9
98898
98887.8
98878
98875.9
98867.2
98868.6
98869.2
98859.7
98851.1
98845.9
98844.9
98840.6
98841
98847.2
98847.7
98857.1
98867.1
98877
98887.2
98900.4
98914.2
98931.1
98945.3
98961.7
98981
99003.5
99022.1
99041.6
99059.7
99077.4
99093.8
99107.7
99118.2
99130.8
99144.6
99152.8
99161.1
99166.5
99170.3
99174.4
99179.5
99183.6
99187.6
99194.3
99192.7
99195.7
99201
99202.7
99206.1
99220.6
99227.3
99232.4
99235.7
99241.4
99251.5
99254.8
99261.2
99262.5
99263.7
99262.8
99272.1
99275.3
99278.7
99278
99276.7
99278
99281.3
99286.3
99290.3
99295.5
99300.5
99306.4
99309.4
99317.2
99322
99328.4
99335.4
99343.8
99354.4
99365.4
99380.1
99394.3
99411
99430.7
99452.1
99472.1
99494.7
99516.3
99539.6
99564.3
99589.8
99615.3
99635.9
99656.6
99685.6
99718.4
99745
99771.5
99799.2
99824.4
99850.4
99876
99901.4
99926.4
99949.5
99973.7
99993.9
100013
100030
100049
100068
100087
100106
100124
100141
100158
100178
100199
100217
100232
100247
100261
100277
100293
100308
100321
100334
100348
100361
100375
100388
100402
100415
100430
100438
100443
100455
100468
100476
100488
100501
100509
100520
100536
100546
100549
100550
100560
100567
100571
100575
100586
100592
100595
100604
100611
100616
100617
100626
100635
100636
100635
100639
100642
100645
100651
100657
100665
100672
100682
100691
100702
100712
100725
100738
100751
100764
100778
100791
100806
100820
100830
100841
100853
100863
100874
100886
100896
100907
100919
100929
100935
100943
100956
100972
100984
100993
101002
101012
101025
101032
101037
101048
101059
101067
101077
101084
101087
101095
101104
101111
101125
101136
101141
101154
101172
101175
101175
101181
101189
101192
101195
101203
101211
101217
101223
101225
101223
101224
101225
101232
101238
101237
101249
101254
101254
101259
101261
101264
101266
101272
101276
101282
101287
101291
101296
101301
101306
101310
101313
101314
101318
101327
101331
101335
101338
101342
101345
101348
101350
101351
101353
101355
101354
101351
101349
101347
101343
101340
101338
101332
101377
98370.9
98368.3
98370.2
98367.3
98365.3
98362.7
98359.5
98355.8
98351.7
98346.8
98341.4
98335.7
98330
98324.3
98317.7
98310.6
98304.9
98300
98295.1
98289.6
98285.1
98281
98276.7
98272.8
98268.3
98264.5
98261
98257.3
98252.9
98249.1
98245.5
98240.8
98236.7
98230.7
98226
98220.2
98214
98207.1
98200.7
98193.5
98185.5
98176.2
98168.2
98160.9
98154.6
98147.8
98139.8
98135.7
98133
98132.8
98131.1
98131
98135.7
98140.1
98150.2
98164.4
98171.9
98186.8
98201.5
98215
98229.1
98244.3
98260.2
98277
98295.4
98312.7
98320.4
98331.7
98333.6
98346.5
98349.4
98358.4
98362.8
98363.9
98366
98359.3
98350.8
98341.8
98331.6
98316.2
98298.4
98279.4
98261.4
98238.4
98224.3
98194.3
98188.7
98169.2
98171.5
98164.3
98168.6
98174.7
98166.6
98190
98194.1
98200.2
98241.4
98258.4
98268.4
98318.2
98340.7
98359.3
98395.3
98434.1
98469.4
98506.4
98539.1
98574.6
98614.3
98650.9
98683.7
98715.7
98748.7
98782
98811.2
98836.3
98857
98875.1
98889.8
98901.6
98911.1
98917.9
98920.9
98923.6
98923.8
98918.7
98911.8
98904.5
98897.2
98891.2
98882.9
98873.3
98864.5
98855.9
98846.7
98837.4
98827.9
98816.9
98805.3
98793.6
98783.1
98775
98766.9
98761.8
98757.9
98753.7
98753
98748.5
98748.5
98750.4
98753.8
98756.3
98760.7
98767.5
98772.9
98777.5
98784.6
98789
98793.7
98798.1
98802.7
98812.8
98817.9
98823.2
98826.4
98831.4
98836.4
98840.9
98845.8
98850.2
98854.7
98859.3
98863.6
98868.2
98872.8
98875.4
98876.9
98879.7
98881.9
98884.4
98886
98888.5
98891.3
98892.8
98892
98892.4
98892.9
98893
98892.5
98889.3
98889.2
98893.5
98896.7
98896.7
98895.8
98896
98895.7
98897.2
98896.9
98894.8
98893.4
98894.5
98893.5
98890.6
98889.8
98891.5
98891
98894.6
98895.3
98899.2
98900.9
98904.4
98907.2
98899.7
98906.5
98911.9
98908.6
98910.8
98918
98919.3
98919.5
98924.1
98925.8
98915.7
98905.2
98907.6
98902
98893.7
98892.8
98891.1
98882.2
98880.1
98883.7
98870.9
98857.4
98853.9
98852.2
98842.1
98849.3
98846.5
98845.3
98844.6
98846.3
98855.6
98864.6
98876.3
98889.3
98906
98923.2
98943.3
98962.9
98983
98996.8
99011
99025.8
99042.2
99058.2
99073.6
99087.7
99099.7
99109.1
99117.7
99127.7
99140.3
99152.5
99159.7
99163.4
99168.7
99175.9
99180
99186.5
99186
99187.9
99194.9
99202.4
99210.9
99219.8
99231.4
99233.6
99240.1
99241
99242
99240.8
99244.4
99252.5
99258.1
99256.5
99255.9
99265.6
99273.5
99278.4
99282.3
99285.8
99290.5
99292.8
99297
99299.3
99301.1
99301.3
99304.7
99305
99306.6
99310.6
99317.3
99328.3
99340.4
99350.9
99363.4
99377.3
99391.7
99408.3
99425.7
99444.7
99466.7
99489.1
99513.7
99539.9
99567.1
99595.7
99624.3
99649.8
99675.9
99701.3
99725.5
99750
99774.5
99799.7
99823.7
99847.7
99871.2
99894
99915.5
99933.2
99955.6
99980.9
100004
100024
100045
100065
100085
100105
100125
100143
100163
100182
100199
100215
100231
100246
100260
100275
100291
100306
100320
100333
100347
100360
100374