/*--------------------------------*- C++ -*----------------------------------*\
| =========                 |                                                 |
| \\      /  F ield         | OpenFOAM: The Open Source CFD Toolbox           |
|  \\    /   O peration     | Version:  v1812                                 |
|   \\  /    A nd           | Web:      www.OpenFOAM.com                      |
|    \\/     M anipulation  |                                                 |
\*---------------------------------------------------------------------------*/
FoamFile
{
    version     2.0;
    format      ascii;
    class       surfaceScalarField;
    location    "1.4";
    object      phi;
}
// * * * * * * * * * * * * * * * * * * * * * * * * * * * * * * * * * * * * * //

dimensions      [1 0 -1 0 0 0 0];
oriented        oriented;


internalField   nonuniform List<scalar> 
40240
(
2.52557e-05
-6.55612e-07
2.49589e-05
2.86171e-05
-3.24773e-06
5.65801e-05
-7.98132e-05
0.000104203
-0.000149144
9.67329e-05
-0.000225385
0.000103547
-0.00030489
0.000106879
-0.000391964
0.00011465
-0.000487866
0.000123745
-0.000590426
0.000130589
-0.000689514
0.000127125
-0.000774484
0.0001131
-0.000851452
0.000105413
-0.000937984
0.000115036
-0.00101058
0.000101262
-0.00107678
9.53233e-05
-0.00115125
0.000103922
-0.0012017
8.04441e-05
-0.00123073
5.92978e-05
-0.00123514
3.51023e-05
-0.00122331
1.87394e-05
-0.00119431
1.94133e-06
-0.00111128
-5.12926e-05
-0.00101148
-6.76702e-05
-0.000902326
-7.76995e-05
-0.000781755
-9.03142e-05
-0.000652608
-9.88705e-05
-0.000517318
-0.000102142
-0.000383363
-9.80813e-05
-0.000272133
-7.63048e-05
-0.000188682
-5.10815e-05
-0.000142495
-1.26597e-05
-0.000133773
2.53284e-05
-0.000150826
5.07216e-05
-0.000201182
8.48561e-05
-0.000286293
0.000120689
-0.000427667
0.000178209
-0.000623134
0.000232659
-0.000810428
0.000226496
-0.000988946
0.000217602
-0.00119445
0.000244643
-0.00144601
0.000290288
-0.00179614
0.000387988
-0.00228291
0.000524483
-0.00285229
0.000610225
-0.00334831
0.000535699
-0.00376577
0.000460311
-0.00411581
0.000393557
-0.00446826
0.000394404
-0.00474079
0.000313712
-0.00491899
0.000220648
-0.00495048
7.69545e-05
-0.00485698
-4.71754e-05
-0.00470278
-0.000106406
-0.0044075
-0.000246465
-0.0039429
-0.000415842
-0.00349556
-0.000400469
-0.00295451
-0.000495424
-0.00229473
-0.000614275
-0.00149326
-0.000756434
-0.000587797
-0.000860804
0.000303738
-0.000849554
0.00114812
-0.000801073
0.00196559
-0.000774148
0.00280875
-0.000800035
0.00367996
-0.000828349
0.0044632
-0.000740461
0.00511966
-0.000614173
0.00570654
-0.000545471
0.00619346
-0.000445382
0.00650514
-0.000271715
0.00655638
-1.20347e-05
0.00650942
8.76212e-05
0.0064621
8.81254e-05
0.00647616
2.6597e-05
0.00649425
2.1579e-05
0.00646767
6.55625e-05
0.00647787
2.97814e-05
0.00654381
-2.65693e-05
0.00657633
5.25247e-06
0.00615871
0.000455891
0.00501219
0.00118587
0.00315156
0.00189967
0.000730471
0.00245898
-0.00201678
0.00278677
-0.00498024
0.00300357
-0.00803263
0.00309243
-0.0111575
0.00316603
-0.0141878
0.0030724
-0.0168977
0.00275299
-0.0193988
0.00254593
-0.0216331
0.00227881
-0.0235968
0.00200688
-0.025427
0.00187832
-0.0270463
0.00167606
-0.0282533
0.00126874
-0.029079
0.000885882
-0.0296042
0.000595398
-0.029882
0.000336425
-0.0299043
-7.10835e-06
-0.0295737
-0.000305894
-0.0289573
-0.000472886
-0.027968
-0.000879158
-0.0266328
-0.00127619
-0.0250406
-0.00155001
-0.023373
-0.00162499
-0.0217134
-0.00159589
-0.0199133
-0.00172689
-0.0178629
-0.00198397
-0.0156467
-0.00215555
-0.0133825
-0.00220258
-0.0111008
-0.00221636
-0.00881024
-0.00222437
-0.00653568
-0.00221198
-0.00429284
-0.00217919
-0.00213667
-0.00208911
-0.000203141
-0.00187038
0.00158668
-0.00172952
0.00335243
-0.00170576
0.00512721
-0.00171373
0.00684192
-0.0016525
0.00838879
-0.00148506
0.00968889
-0.00123873
0.0107701
-0.00102065
0.011732
-0.000900855
0.01259
-0.000799221
0.012929
-0.000276918
0.0129091
8.29974e-05
0.0128313
0.000138781
0.0124479
0.000447574
0.0119845
0.000526844
0.011694
0.000354991
0.0115845
0.000171198
0.0115547
9.66974e-05
0.011516
0.000101261
0.0112435
0.000341772
0.0104825
0.000825701
0.00933414
0.00121656
0.00823725
0.00116711
0.00725088
0.00105754
0.00633984
0.000981928
0.00546278
0.000945919
0.00459168
0.000941562
0.00380139
0.000863041
0.0031462
0.000728135
0.00262656
0.000593384
0.00222909
0.000471718
0.00195426
0.000350684
0.00180218
0.000228011
0.0017399
0.000140209
0.00171753
0.000100186
0.0016777
0.000118336
0.00158224
0.000174391
0.00143405
0.000227601
0.00128029
0.000233405
0.00117048
0.000189592
0.00112866
0.00012138
0.00115146
5.67676e-05
0.00131891
-8.82841e-05
0.00166477
-0.000267388
0.00218352
-0.000441884
0.00277117
-0.000510437
0.00332872
-0.000482272
0.00376324
-0.000361693
0.00408091
-0.000245462
0.00435837
-0.000206903
0.00463204
-0.000204687
0.00492734
-0.000227703
0.00526157
-0.000268288
0.00562137
-0.000295587
0.00598467
-0.00030117
0.00633136
-0.000286566
0.0066369
-0.000247772
0.0069182
-0.000224794
0.00718214
-0.000209268
0.00745402
-0.000219003
0.00771627
-0.000211014
0.00797227
-0.000207125
0.00821505
-0.000196394
0.00843679
-0.000178051
0.00863253
-0.000154761
0.0087998
-0.000128933
0.0089511
-0.000115242
0.00911371
-0.000128365
0.00933648
-0.00018988
0.00957369
-0.000206877
0.00973056
-0.000129325
0.00981029
-5.51337e-05
0.00983736
-4.26296e-06
0.00983471
2.21675e-05
0.00981251
4.06242e-05
0.00980675
6.45372e-06
0.00983313
-9.2023e-06
0.00982343
1.92748e-05
0.00976054
7.17901e-05
0.00960939
0.000156483
0.00936161
0.000251257
0.00907159
0.000291341
0.00876186
0.000308733
0.00841337
0.000345631
0.00800996
0.000399598
0.00756512
0.000439108
0.00712179
0.000437003
0.00674622
0.000367707
0.00643271
0.000304336
0.00614893
0.00027388
0.00586134
0.00027656
0.00552948
0.000319816
0.00515081
0.000366783
0.00474017
0.000398396
0.00435228
0.000376142
0.00409455
0.000245889
0.0040025
8.02812e-05
0.00401399
-2.08146e-05
0.00418781
-0.000183211
0.00440078
-0.000225077
0.00445894
-7.20818e-05
0.00451221
-6.17779e-05
0.00458982
-8.48688e-05
0.00457843
-4.52463e-06
0.00431136
0.000257506
0.00398628
0.000315169
0.00361963
0.000355371
0.00323972
0.000369747
0.00283889
0.000391369
0.00248091
0.000348186
0.00200684
0.000464235
0.00144368
0.000552007
0.000825299
0.000609473
0.000198156
0.000618173
-0.000500482
0.000691051
-0.00125998
0.000753594
-0.00201577
0.000751891
-0.00279301
0.000774448
-0.00359041
0.000797101
-0.00438316
0.000794288
-0.0051861
0.000807914
-0.00593768
0.000758159
-0.00666472
0.000736961
-0.00737176
0.0007175
-0.00798688
0.000630191
-0.00847268
0.000502562
-0.00879636
0.000342866
-0.00902716
0.000252546
-0.00909197
8.93165e-05
-0.00901521
-4.88216e-05
-0.00874396
-0.000239431
-0.00836502
-0.000345318
-0.00792945
-0.000396798
-0.00731209
-0.000574133
-0.00643848
-0.000827166
-0.00539624
-0.000993351
-0.00432517
-0.00101929
-0.00326626
-0.00100351
-0.00221299
-0.000994509
-0.001211
-0.000941034
-0.00032478
-0.000822935
0.00051859
-0.000775626
0.00143106
-0.000840014
0.00232849
-0.000824304
0.00308057
-0.000675198
0.00369747
-0.000536119
0.00420947
-0.000427941
0.00463732
-0.000339307
0.00500704
-0.000276897
0.00537887
-0.000274359
0.00565109
-0.00016993
0.00579839
-4.32166e-05
0.00588626
2.04129e-05
0.00596932
2.86817e-05
0.0060158
6.82301e-05
0.00606198
7.14726e-05
0.00612166
5.97097e-05
0.00625267
-9.38338e-06
0.00642917
-5.37639e-05
0.00661376
-6.13208e-05
0.00675494
-1.50578e-05
0.00679594
8.64014e-05
0.00670241
0.000222961
0.00654761
0.000288309
0.00641826
0.000265705
0.00628085
0.000272992
0.00606751
0.000350433
0.00586036
0.000344811
0.00576125
0.000238975
0.00571771
0.000185628
0.00566416
0.000192839
0.00556533
0.000241031
0.00548808
0.000220953
0.00533933
0.00029087
0.0050566
0.000425498
0.00476688
0.000434924
0.00446737
0.000444242
0.00411994
0.000492564
0.00367785
0.000587498
0.003119
0.000704643
0.00249432
0.000770753
0.00190402
0.000736525
0.00132801
0.000722055
0.00076913
0.000704847
0.000247073
0.000668029
-0.000307673
0.000700614
-0.000920385
0.000758482
-0.00152769
0.000752731
-0.0021386
0.000755937
-0.00274414
0.000750265
-0.00332018
0.000720404
-0.00384941
0.000673481
-0.00430891
0.000603134
-0.00465365
0.000487817
-0.00488459
0.000373931
-0.00503145
0.0002887
-0.00512702
0.000236181
-0.00524541
0.000257405
-0.00537691
0.000269284
-0.00548935
0.000249418
-0.0055306
0.000175604
-0.00551828
0.000121515
-0.00540259
1.66491e-05
-0.00516744
-0.000104463
-0.00481807
-0.000220366
-0.00436947
-0.000321276
-0.0038539
-0.000390037
-0.00328088
-0.000449379
-0.00264968
-0.000508563
-0.0018756
-0.000653291
-0.000982337
-0.000774749
-0.000132783
-0.000732956
0.000666912
-0.000685338
0.00142011
-0.000640142
0.00212534
-0.000593691
0.00273994
-0.000504071
0.0032236
-0.000374527
0.00355579
-0.000224771
0.00376158
-0.000100083
0.00389889
-3.33346e-05
0.00404924
-4.64944e-05
0.00432227
-0.000170663
0.00470909
-0.000285828
0.0051482
-0.000339715
0.00557821
-0.000331991
0.00598492
-0.000309374
0.00638318
-0.000301328
0.00678929
-0.000310091
0.0072212
-0.000334201
0.00768704
-0.0003675
0.00793628
-0.000154214
0.0080156
1.60142e-05
0.00801871
9.15901e-05
0.00800102
0.000113343
0.00802386
7.34319e-05
0.00814792
-2.74115e-05
0.0083116
-6.68411e-05
0.00841339
-6.05e-06
0.00844709
6.13064e-05
0.00845268
8.96546e-05
0.00846939
7.88101e-05
0.00849174
7.39887e-05
0.00850146
8.5644e-05
0.00848569
0.000113593
0.00845828
0.000125447
0.00841706
0.000140895
0.00839309
0.000124221
0.0083963
9.96097e-05
0.00843058
6.81346e-05
0.00846193
7.12721e-05
0.00846642
9.84574e-05
0.00847565
9.56867e-05
0.00848641
9.47692e-05
0.00848351
0.000107961
0.00847643
0.000113553
0.00846141
0.000121077
0.0084273
0.000141219
0.0084238
0.000111397
0.00843795
9.49638e-05
0.00843567
0.000111693
0.00839068
0.000157401
0.00824757
0.000255658
0.00807714
0.0002846
0.00792695
0.000265294
0.00779468
0.000249891
0.00764001
0.000272196
0.00741425
0.00034493
0.00715016
0.000383238
0.00703298
0.000235473
0.00677393
0.000380453
0.00653068
0.000364641
0.00633264
0.000319983
0.00613236
0.000322748
0.00592365
0.000332526
0.00572689
0.000320978
0.00555656
0.000294939
0.00541321
0.000268707
0.00533798
0.000201269
0.00527566
0.00018789
0.00521892
0.000183337
0.00519587
0.000148144
0.00520905
0.000116965
0.00532188
1.30287e-05
0.00550657
-5.8127e-05
0.00570097
-6.67168e-05
0.00592361
-9.51347e-05
0.00619042
-0.000139283
0.00651926
-0.000201563
0.00691501
-0.000269218
0.00735955
-0.000319375
0.00782938
-0.00034631
0.00830521
-0.000353878
0.00877595
-0.000350291
0.00921569
-0.00032128
0.00959833
-0.000265752
0.00991635
-0.00020305
0.0102161
-0.000184459
0.0105852
-0.000253463
0.0110451
-0.000344863
0.0115038
-0.000346406
0.0118963
-0.000281794
0.0122193
-0.000214127
0.012485
-0.000158912
0.0127175
-0.000128813
0.012939
-0.000119465
0.0132188
-0.000180542
0.0135285
-0.0002132
0.013722
-0.00010133
0.0138402
-2.70173e-05
0.0138996
2.81699e-05
0.0139179
6.75977e-05
0.0139341
6.67931e-05
0.0139572
5.72569e-05
0.0139658
6.94812e-05
0.0139784
6.26038e-05
0.0139959
5.52949e-05
0.0140137
5.348e-05
0.014025
5.80634e-05
0.0140183
7.51678e-05
0.0140023
8.01247e-05
0.0139693
9.52885e-05
0.0139458
8.26346e-05
0.0139121
8.84485e-05
0.0138739
9.12334e-05
0.0138691
5.60015e-05
0.0138703
4.52045e-05
0.0138591
5.5851e-05
0.0138403
6.2377e-05
0.0137255
0.000153822
0.013528
0.000235549
0.0133008
0.000263268
0.013121
0.000210558
0.0128686
0.000280298
0.0126391
0.000258885
0.0125423
0.000123675
0.0125581
4.10264e-06
0.0125143
6.15433e-05
0.012274
0.000257661
0.0117835
0.000506155
0.0113097
0.000487546
0.0108775
0.000441787
0.0104568
0.000429333
0.0101286
0.000337293
0.00986771
0.000267907
0.00962414
0.00025001
0.00940435
0.000225992
0.00918425
0.000223263
0.00897787
0.000208996
0.00875825
0.000221621
0.00855078
0.000207717
0.00835267
0.000198568
0.00818844
0.000163721
0.00806663
0.000121578
0.00801013
5.55138e-05
0.00798264
2.52404e-05
0.00796078
1.92101e-05
0.00795294
4.97573e-06
0.00796973
-1.99663e-05
0.0080157
-4.93638e-05
0.00808014
-6.79078e-05
0.00815344
-7.71316e-05
0.00823784
-8.85827e-05
0.00835333
-0.000119864
0.00852441
-0.000175699
0.0087956
-0.000275253
0.00918456
-0.000393054
0.00961208
-0.000432124
0.00997355
-0.000366376
0.0102727
-0.0003044
0.0105177
-0.000250262
0.0107164
-0.000203813
0.0108754
-0.000164101
0.0110031
-0.000132585
0.0111141
-0.000115467
0.0112408
-0.00013013
0.0114268
-0.0001884
0.0116832
-0.000257899
0.0119573
-0.000275716
0.0122066
-0.000250312
0.0123913
-0.000186384
0.0125112
-0.000121185
0.0126067
-9.76972e-05
0.0127257
-0.000121032
-0.000274792
-3.91248e-05
7.09298e-05
-9.00768e-05
0.000108409
-0.000155583
0.000149163
-0.000263686
0.000240395
-0.000381382
0.000241831
-0.000504783
0.000254393
-0.000632421
0.000262137
-0.000765085
0.000275222
-0.000899984
0.000286912
-0.00103125
0.000290377
-0.00114806
0.000272505
-0.00124681
0.00024044
-0.00133811
0.000225366
-0.00142552
0.000231027
-0.00148222
0.000186906
-0.00150161
0.000144625
-0.00149726
0.000129258
-0.00148294
9.65895e-05
-0.00146357
7.08272e-05
-0.00143804
4.09883e-05
-0.00139898
1.14011e-05
-0.0013494
-1.58158e-05
-0.00129279
-7.56063e-05
-0.00122613
-0.000101961
-0.00115537
-0.000116276
-0.00107973
-0.000134059
-0.00100111
-0.000144806
-0.000921411
-0.000145862
-0.000847399
-0.000135884
-0.000784461
-0.000106384
-0.000731673
-7.08623e-05
-0.000697224
-1.28544e-05
-0.000685441
4.85202e-05
-0.000701203
0.000101952
-0.000737533
0.00015649
-0.0007904
0.00020982
-0.00086656
0.000291983
-0.000977615
0.000382055
-0.00119701
0.000482239
-0.00150163
0.000560296
-0.00185156
0.000632991
-0.0022255
0.00070447
-0.0026121
0.000815272
-0.00294941
0.000904679
-0.00320966
0.000910935
-0.00347649
0.000839788
-0.00375608
0.000781657
-0.0040428
0.000719824
-0.00428506
0.000677959
-0.00443466
0.00050535
-0.0044935
0.000322607
-0.00442534
5.3966e-05
-0.00420195
-0.000224965
-0.00386774
-0.000393895
-0.00338363
-0.000683613
-0.00280279
-0.000949362
-0.00217387
-0.000983727
-0.00139077
-0.00123247
-0.000446617
-0.00151224
0.00063843
-0.00179515
0.00182512
-0.0020013
0.00307131
-0.00204785
0.00436054
-0.00204486
0.00564426
-0.00201304
0.00691371
-0.00202531
0.00812499
-0.00199584
0.009171
-0.00174296
0.010019
-0.00141908
0.0106765
-0.00116029
0.01107
-0.000797879
0.0111813
-0.000341037
0.0111264
8.11703e-05
0.0105638
0.000691248
0.00962451
0.00106803
0.00813321
0.00155618
0.00634394
0.00185513
0.00490011
0.00155129
0.003397
0.0015745
0.00162134
0.00179024
-0.000482076
0.00214871
-0.00297376
0.00298842
-0.0057079
0.00396123
-0.00866304
0.00489657
-0.0118367
0.00567384
-0.0153937
0.00638474
-0.0195751
0.00722707
-0.0240758
0.00763545
-0.0284839
0.00761698
-0.0325048
0.00713692
-0.0359374
0.00623074
-0.038941
0.0055976
-0.0413564
0.00474071
-0.0430758
0.0037697
-0.0441516
0.00300271
-0.0445662
0.00215171
-0.0447067
0.00146344
-0.0445135
0.000791301
-0.043812
0.000102387
-0.0428475
-0.000666777
-0.0418737
-0.00134431
-0.0406155
-0.00143691
-0.0387448
-0.00188827
-0.0366536
-0.00287284
-0.0344675
-0.00356112
-0.0317829
-0.00422155
-0.0285061
-0.00478723
-0.0249817
-0.00502053
-0.0217036
-0.00494377
-0.018885
-0.00474077
-0.0163529
-0.00461416
-0.0139438
-0.00453382
-0.0115725
-0.00451147
-0.00921435
-0.00450639
-0.00688507
-0.00446237
-0.00463373
-0.00435294
-0.00209891
-0.00454768
0.00122419
-0.00511229
0.00521846
-0.0056401
0.00946148
-0.00586479
0.0135844
-0.00575329
0.0173428
-0.00532833
0.0205745
-0.00463636
0.0231328
-0.00371998
0.0250567
-0.00287147
0.0265215
-0.00229516
0.0276021
-0.00181588
0.0283013
-0.000912177
0.02843
2.01403e-05
0.0283519
0.000280319
0.0283302
0.000532376
0.0282994
0.00062158
0.0280521
0.000665202
0.02737
0.000917738
0.0264377
0.00109378
0.0254206
0.00117783
0.0240103
0.00181185
0.0223472
0.00256051
0.0206616
0.00297314
0.018987
0.0029129
0.0173929
0.00272425
0.0159443
0.00250432
0.0148118
0.00215097
0.0140444
0.00178511
0.0134339
0.00154699
0.0128793
0.00135654
0.0124081
0.00113899
0.0120346
0.000919936
0.0117953
0.000665691
0.0117018
0.000397605
0.0117086
0.000212765
0.0117839
0.000102222
0.0119099
7.14107e-05
0.0120317
0.000132021
0.0121695
0.000169919
0.0123732
0.000110064
0.0126878
-4.45184e-05
0.0131382
-0.000248606
0.0137017
-0.000426941
0.0142573
-0.000564912
0.0147875
-0.000718371
0.0153328
-0.000908392
0.0158855
-0.000983865
0.0165103
-0.00102872
0.017251
-0.00102617
0.017965
-0.000884076
0.0186521
-0.000820271
0.0193241
-0.000804373
0.0200087
-0.000841499
0.0207336
-0.000923582
0.0215292
-0.00102264
0.0223913
-0.00109659
0.0233009
-0.00113108
0.0242354
-0.00112003
0.0251707
-0.00109847
0.0260144
-0.000996184
0.0266988
-0.000847782
0.0272618
-0.000719457
0.02775
-0.000643787
0.0281567
-0.000554454
0.0284948
-0.000469645
0.0287946
-0.000410006
0.029076
-0.000368493
0.02935
-0.00034945
0.0296392
-0.000379831
0.0300028
-0.000515958
0.0304531
-0.000621981
0.03087
-0.000514841
0.0312024
-0.000358026
0.0314574
-0.000231998
0.0316456
-0.000138798
0.0317585
-6.13008e-05
0.0318264
-3.25133e-05
0.0318522
-2.59379e-05
0.0318322
4.69703e-05
0.0315838
0.0003309
0.0311098
0.000637712
0.0304843
0.00088059
0.0297998
0.000977189
0.0291093
0.000997191
0.0283935
0.00105716
0.027614
0.00117441
0.0267538
0.00129275
0.0258138
0.00137035
0.0248796
0.0012935
0.024009
0.00116475
0.0232141
0.00105713
0.0224778
0.00100001
0.0217523
0.00103215
0.0210124
0.0010943
0.0202627
0.00113559
0.0195323
0.00109291
0.0188943
0.000869676
0.0184573
0.000502146
0.0183059
0.000113833
0.0182818
-0.000174938
0.0182709
-0.000230477
0.0181306
5.27732e-05
0.0178073
0.000251402
0.01755
0.00016234
0.0171165
0.000419825
0.0162411
0.00112279
0.0147914
0.00175492
0.0130069
0.00212924
0.0112612
0.00210643
0.00969167
0.00195226
0.00832641
0.00170653
0.00716595
0.00161838
0.00614134
0.00157101
0.0053037
0.00144245
0.00461212
0.00130507
0.00385592
0.00144097
0.00291772
0.00168665
0.00183453
0.0018324
0.000685041
0.00192165
-0.000444044
0.0019261
-0.00147734
0.00182952
-0.00240213
0.00173705
-0.00316472
0.0015277
-0.00380901
0.00139122
-0.00431733
0.00123583
-0.00463985
0.000967686
-0.00473894
0.000617529
-0.00464366
0.000270261
-0.00413383
-0.000233571
-0.00323604
-0.000781048
-0.00197685
-0.00127807
-0.00041867
-0.00176372
0.00131762
-0.00204623
0.00302676
-0.00206826
0.00457482
-0.00208347
0.00600262
-0.00221287
0.00741526
-0.00236124
0.00882709
-0.00238399
0.0102348
-0.00236074
0.0116594
-0.00236492
0.0130697
-0.00229434
0.0143708
-0.00206476
0.0155915
-0.0019325
0.0169533
-0.00213026
0.0184852
-0.00228466
0.0199812
-0.00209634
0.0213724
-0.00184902
0.0226598
-0.00163329
0.0238577
-0.00145097
0.0248995
-0.00122886
0.0256298
-0.000911005
0.0259
-0.000343763
0.0259364
2.11869e-05
0.025911
0.000149915
0.0259083
0.000140487
0.0259562
0.000133457
0.0260254
0.000117286
0.0260361
0.000166017
0.0259535
0.000192978
0.025891
0.000133037
0.0258842
7.43201e-05
0.0259951
5.53484e-06
0.0260667
0.0001491
0.026059
0.000362248
0.0255706
0.00090878
0.0245523
0.00142248
0.0234197
0.0015429
0.0223872
0.00152021
0.0216012
0.00126933
0.0211189
0.000862784
0.0208271
0.000619236
0.0205501
0.000611663
0.0201927
0.000741794
0.019797
0.000760946
0.0192997
0.000931354
0.0184966
0.00137061
0.017293
0.00178288
0.0158599
0.0020223
0.0144829
0.00201477
0.0132418
0.00197409
0.0121183
0.0019736
0.0111063
0.00192858
0.0102784
0.00171029
0.00952148
0.00162417
0.00872101
0.00165009
0.00777358
0.00175951
0.0065992
0.00201887
0.00534452
0.00215761
0.00422737
0.00201474
0.00328523
0.00184242
0.00248368
0.00169564
0.00179498
0.00155262
0.00120347
0.00140819
0.000709439
0.0012396
0.000321678
0.00101837
6.03736e-05
0.000775113
-2.62881e-05
0.000518451
-1.98926e-05
0.000372212
9.06796e-05
0.000284445
0.000355359
0.000143176
0.000755596
-1.35294e-05
0.00132443
-0.00025759
0.00199715
-0.000418092
0.00268857
-0.00054317
0.00339179
-0.000677183
0.00411812
-0.000817496
0.00487243
-0.000947639
0.00565121
-0.00104216
0.0064482
-0.00112092
0.00723041
-0.00116794
0.00809851
-0.00139745
0.00928254
-0.00183595
0.0105661
-0.00189587
0.0119045
-0.00190363
0.0132582
-0.00187582
0.0146088
-0.00182716
0.0159749
-0.00175448
0.0173396
-0.00162507
0.0186996
-0.00147202
0.0200679
-0.00135704
0.0214465
-0.00130252
0.0227177
-0.00121086
0.023725
-0.00107532
0.0244286
-0.00088846
0.024888
-0.000701133
0.0252138
-0.000560447
0.0255318
-0.000529639
0.0259155
-0.000588
0.0263507
-0.000648437
0.0268075
-0.000694234
0.0273313
-0.000790519
0.0279391
-0.000667183
0.028513
-0.000462731
0.0289409
-0.000241393
0.0292715
-0.000121036
0.0295721
-0.000130909
0.0298658
-0.000225133
0.0300699
-0.000176088
0.0301275
2.95771e-05
0.0301294
0.000152433
0.0301052
0.000207132
0.0300635
0.000214183
0.0300503
0.000182119
0.0300656
0.000165128
0.0300924
0.000183498
0.0301027
0.000212093
0.0300796
0.000263271
0.029951
0.000352443
0.0297618
0.000391518
0.0296067
0.000326298
0.0294951
0.000287101
0.029384
0.000313911
0.0292881
0.000297028
0.0291827
0.000305681
0.0290342
0.000360895
0.0288695
0.000384269
0.0286445
0.00045129
0.0283458
0.000545369
0.0280513
0.000512644
0.0278193
0.000436631
0.0276477
0.000393242
0.0275234
0.000393855
0.0273715
0.000519228
0.0269144
0.000853005
0.0260584
0.00123446
0.0250605
0.00136476
0.0241196
0.00133072
0.0232693
0.00131319
0.0224843
0.00128641
0.021738
0.00110077
0.0213819
0.000857891
0.0212918
0.00057577
0.0213271
0.000406786
0.0213761
0.000395805
0.0213758
0.000456045
0.0212957
0.000524945
0.0211549
0.000560344
0.0210014
0.000547259
0.0208924
0.000435555
0.0208337
0.000372014
0.0208184
0.000324915
0.0208436
0.000249684
0.0209031
0.000185092
0.0211153
-7.23953e-05
0.0215312
-0.000346935
0.0220192
-0.000427249
0.0225543
-0.00050236
0.0231479
-0.000604563
0.0238314
-0.000756801
0.0246294
-0.000939355
0.0255434
-0.00110673
0.0265594
-0.00123712
0.0276647
-0.00133558
0.0288587
-0.00142191
0.0301217
-0.00146393
0.0314015
-0.00142674
0.0326124
-0.00129842
0.0336698
-0.00112797
0.0345537
-0.00102453
0.0352155
-0.000897823
0.0357071
-0.000729832
0.0361083
-0.000574965
0.0364306
-0.000430648
0.0366947
-0.000318218
0.0369275
-0.000258596
0.0371496
-0.000240932
0.0373507
-0.000282442
0.0376377
-0.000402172
0.0379585
-0.000327795
0.0382449
-0.000221555
0.0384007
-3.87823e-05
0.0384735
8.081e-05
0.0385068
0.00011681
0.0384994
0.000144919
0.0384269
0.000219745
0.0382674
0.000298548
0.0381009
0.000296045
0.0379554
0.000270829
0.0378083
0.000274864
0.0376581
0.000293336
0.037512
0.000291244
0.0373493
0.000320426
0.0371416
0.00034934
0.0368478
0.00043772
0.0364807
0.000511138
0.0361379
0.000450104
0.035807
0.000422818
0.0354277
0.000480055
0.0350349
0.000497026
0.034583
0.000643793
0.0341311
0.00072696
0.0339424
0.000488485
0.0338236
0.000363166
0.033679
0.000454365
0.0330766
0.000883432
0.0319383
0.00128977
0.0308818
0.00108118
0.030019
0.000944299
0.0292992
0.000998564
0.0287067
0.00111455
0.0280367
0.00117347
0.0273444
0.00114609
0.0268788
0.000905118
0.0265612
0.00066615
0.0263062
0.000531911
0.0260052
0.000557592
0.0256094
0.000628026
0.0251982
0.000638239
0.024883
0.0005276
0.02467
0.00043593
0.0245461
0.000332429
0.0244492
0.000295456
0.0243343
0.000278109
0.0242522
0.000203501
0.0242297
7.79462e-05
0.0242333
2.16889e-05
0.0243566
-0.000106382
0.0245594
-0.000200967
0.0248142
-0.000278674
0.0250666
-0.000306062
0.0253059
-0.000311775
0.0255334
-0.000309341
0.025762
-0.000321668
0.0260135
-0.000375865
0.0263145
-0.000481102
0.0267037
-0.000668126
0.0272202
-0.000913137
0.0278384
-0.00105394
0.0284644
-0.000998417
0.0290412
-0.000886156
0.0296023
-0.000816421
0.0301653
-0.000771156
0.0307382
-0.000741196
0.0313274
-0.00072566
0.0319283
-0.000720021
0.0325262
-0.000731097
0.0330918
-0.000757428
0.0335605
-0.000731124
0.0338851
-0.000605096
0.0340854
-0.000455556
0.0341971
-0.000302077
0.0342208
-0.000148165
0.0342119
-9.21029e-05
0.0341277
-3.95357e-05
-0.000512651
2.7084e-05
6.66432e-05
-3.18353e-05
0.000194344
-0.000114802
0.00025818
-0.000223811
0.000376499
-0.00035054
0.000395843
-0.000482742
0.000414078
-0.000620298
0.000427364
-0.000761777
0.000444517
-0.000903543
0.000456718
-0.0010389
0.000453983
-0.00115876
0.000420683
-0.00126365
0.000373729
-0.00136596
0.000356301
-0.00145154
0.000345162
-0.00150003
0.000264352
-0.00150039
0.00017486
-0.00146846
0.000127138
-0.00143175
9.05648e-05
-0.00139331
6.33618e-05
-0.00135103
3.03504e-05
-0.0012998
-7.81977e-06
-0.00123978
-4.36972e-05
-0.00117355
-0.00010971
-0.00109894
-0.000144946
-0.00102231
-0.000161478
-0.000942569
-0.000180769
-0.000855495
-0.000195053
-0.000744106
-0.000214379
-0.000646147
-0.000202211
-0.000556349
-0.000178328
-0.000475229
-0.000120056
-0.000415509
-3.90397e-05
-0.000395211
6.30709e-05
-0.000416849
0.000157675
-0.000476273
0.000249173
-0.000553649
0.000322319
-0.000650932
0.000426122
-0.000791825
0.00055919
-0.00103249
0.000759731
-0.00136941
0.000934855
-0.0017736
0.00107506
-0.00220304
0.00117225
-0.00257304
0.00122564
-0.00276961
0.00114931
-0.00289933
0.00108257
-0.00303586
0.00101925
-0.00318301
0.000971021
-0.00336419
0.000944517
-0.00351283
0.000870243
-0.00361092
0.000646707
-0.0036623
0.000418363
-0.00364223
7.93223e-05
-0.00353066
-0.000290898
-0.00336273
-0.000516952
-0.00311081
-0.000891985
-0.00270715
-0.00131154
-0.00198227
-0.00166739
-0.00102334
-0.00214797
0.00010839
-0.00260039
0.00136147
-0.0030044
0.00266969
-0.00326592
0.00396922
-0.00330391
0.00522544
-0.00325834
0.00645546
-0.0032003
0.00767575
-0.00320275
0.00877759
-0.00305447
0.00965392
-0.00257623
0.0103343
-0.00205626
0.010799
-0.00158277
0.0110558
-0.00101286
0.0111951
-0.000439051
0.011193
0.000124338
0.0108381
0.00108542
0.00964879
0.00229812
0.00788854
0.00335973
0.00578406
0.004003
0.00301103
0.0043653
-0.000406752
0.00503412
-0.00429282
0.00571732
-0.00853515
0.00643085
-0.0130793
0.00757305
-0.0176724
0.00859473
-0.0222309
0.00949506
-0.0266653
0.0101474
-0.0307942
0.0105545
-0.0343239
0.0107983
-0.0370347
0.0103902
-0.0389502
0.00957906
-0.040202
0.00843344
-0.0416299
0.00770663
-0.0426328
0.00664155
-0.0433318
0.00548394
-0.0440294
0.0045179
-0.0443915
0.00341285
-0.0446589
0.0024625
-0.0447804
0.00162392
-0.0443961
0.000418462
-0.0439023
-0.000522541
-0.0431927
-0.00124402
-0.0418903
-0.00215809
-0.0401523
-0.0031267
-0.0383283
-0.0040527
-0.036015
-0.00523463
-0.032965
-0.00640711
-0.0295307
-0.00753042
-0.0257917
-0.00848088
-0.0217314
-0.00903525
-0.0174424
-0.00916929
-0.0131562
-0.00895786
-0.00892882
-0.00877199
-0.00474763
-0.00864496
-0.000652343
-0.00853526
0.00329872
-0.00838334
0.00709006
-0.00817574
0.0107206
-0.00790268
0.0141834
-0.00792745
0.0175423
-0.00838328
0.0208812
-0.00888604
0.0241175
-0.00900378
0.0271526
-0.00868609
0.0299645
-0.00803263
0.0325199
-0.00707956
0.0347561
-0.00584248
0.0366337
-0.00463828
0.0380423
-0.00359916
0.0387231
-0.00240401
0.0389242
-0.00102677
0.039211
-0.000185329
0.0394483
0.00011778
0.0396733
0.000381521
0.0396616
0.000704065
0.0390619
0.00133272
0.0379472
0.0020999
0.0364473
0.00266143
0.034782
0.00290771
0.0334783
0.00318639
0.0328002
0.0033116
0.0323054
0.00353389
0.0314534
0.00383224
0.0301103
0.00413719
0.0285794
0.00410569
0.0270827
0.00371803
0.0257442
0.00319437
0.0246595
0.00270435
0.0238086
0.00228109
0.0231336
0.00188778
0.0226333
0.00149447
0.0223225
0.00105252
0.0222048
0.000591489
0.0222424
0.000252341
0.022375
4.81281e-05
0.0226125
-8.67455e-05
0.0228898
-6.54023e-05
0.0231321
7.73505e-06
0.0233411
-1.88188e-05
0.0236026
-0.0002258
0.024049
-0.000615185
0.0248036
-0.00110254
0.0259458
-0.00162698
0.027431
-0.00212266
0.0291273
-0.00252142
0.0306799
-0.00245259
0.0317023
-0.00197544
0.0321235
-0.00136866
0.0324353
-0.00111626
0.0328697
-0.00117627
0.0335234
-0.00138221
0.0343239
-0.00156773
0.0351689
-0.00169506
0.0360025
-0.00178333
0.0368089
-0.00183084
0.0375857
-0.00183592
0.0383419
-0.00180694
0.0390744
-0.00176067
0.0397851
-0.00163882
0.0405186
-0.00151706
0.041237
-0.00137625
0.0419791
-0.00132557
0.0428332
-0.00134989
0.0438736
-0.00145289
0.0451247
-0.00160545
0.0465564
-0.00174626
0.0480739
-0.0018152
0.0494344
-0.00169209
0.0503067
-0.00134755
0.05065
-0.00092646
0.0507635
-0.000592679
0.0508322
-0.000391789
0.0508879
-0.000254273
0.0509268
-0.000143503
0.0509453
-5.59777e-05
0.0509652
2.94807e-05
0.0510034
-3.35158e-05
0.0510899
-2.49533e-05
0.051128
0.00031054
0.0510229
0.000754479
0.0507541
0.00115653
0.0503128
0.00142285
0.0497395
0.00157072
0.0490185
0.00177352
0.0480733
0.00211217
0.0469857
0.00237174
0.0458154
0.00253263
0.044669
0.00243271
0.0435827
0.00224143
0.0425102
0.00211625
0.0413936
0.00209887
0.0401454
0.0022595
0.038693
0.0025271
0.037051
0.00276046
0.0354217
0.00270769
0.0341314
0.00214869
0.0333746
0.00124518
0.0330976
0.000373869
0.0330859
-0.000183164
0.0331976
-0.000368453
0.0332147
2.63946e-07
0.0326678
0.000766918
0.0309732
0.00183481
0.0285311
0.00284613
0.0257694
0.00386965
0.0230748
0.00443955
0.0209821
0.00421161
0.0192738
0.00380314
0.0179784
0.0032382
0.0171817
0.00249732
0.016628
0.00216359
0.0159611
0.00222651
0.014916
0.00247774
0.0133337
0.00288007
0.0114175
0.0033512
0.00948097
0.00361754
0.00776501
0.00354753
0.00632901
0.00335643
0.00507199
0.00318503
0.00400492
0.00290159
0.00313228
0.00261649
0.00249104
0.00217977
0.00201047
0.00188532
0.00170037
0.00155806
0.00132671
0.00135975
0.00108581
0.000879263
0.00116833
0.0002125
0.00171179
-0.000748514
0.00266604
-0.00170251
0.00387534
-0.00245354
0.00528616
-0.00313677
0.00703333
-0.00375243
0.009179
-0.00417032
0.0115148
-0.0043757
0.013927
-0.00457798
0.0164556
-0.00484057
0.0190866
-0.004965
0.021821
-0.00504331
0.0247136
-0.00520424
0.0277615
-0.00528861
0.0308286
-0.0050784
0.0335235
-0.00457084
0.03537
-0.0039291
0.0364281
-0.00328612
0.0372471
-0.00285186
0.0380659
-0.00260037
0.0389355
-0.00243186
0.0397842
-0.00222533
0.0405329
-0.00190002
0.0411734
-0.00146547
0.0417201
-0.000801359
0.0421945
-0.000359199
0.0425193
-7.34582e-05
0.0426453
0.000116486
0.0426076
0.000277548
0.042558
0.000277646
0.0425353
0.000304354
0.042636
0.000214341
0.0428228
6.86804e-05
0.042816
0.000197094
0.0421267
0.000823136
0.040725
0.00168578
0.0393556
0.00186956
0.0382068
0.002203
0.0373065
0.00246754
0.0364297