/*--------------------------------*- C++ -*----------------------------------*\
| =========                 |                                                 |
| \\      /  F ield         | OpenFOAM: The Open Source CFD Toolbox           |
|  \\    /   O peration     | Version:  v1812                                 |
|   \\  /    A nd           | Web:      www.OpenFOAM.com                      |
|    \\/     M anipulation  |                                                 |
\*---------------------------------------------------------------------------*/
FoamFile
{
    version     2.0;
    format      ascii;
    class       volScalarField;
    location    "1.4";
    object      T;
}
// * * * * * * * * * * * * * * * * * * * * * * * * * * * * * * * * * * * * * //

dimensions      [0 0 0 1 0 0 0];


internalField   nonuniform List<scalar> 
20400
(
288.8
288.798
288.795
288.792
288.789
288.787
288.788
288.793
288.803
288.818
288.839
288.866
288.898
288.936
288.98
289.027
289.078
289.131
289.188
289.245
289.305
289.365
289.426
289.488
289.55
289.614
289.677
289.741
289.805
289.868
289.93
289.99
290.049
290.103
290.154
290.203
290.248
290.291
290.333
290.375
290.415
290.454
290.491
290.525
290.557
290.59
290.621
290.654
290.686
290.72
290.752
290.784
290.818
290.849
290.879
290.908
290.929
290.951
290.969
290.985
290.999
291.01
291.022
291.036
291.054
291.077
291.104
291.137
291.176
291.215
291.248
291.262
291.255
291.234
291.186
291.111
291.014
290.908
290.802
290.703
290.613
290.545
290.494
290.464
290.447
290.443
290.448
290.453
290.46
290.468
290.476
290.487
290.498
290.504
290.514
290.521
290.527
290.532
290.546
290.553
290.561
290.567
290.577
290.583
290.585
290.586
290.587
290.59
290.596
290.598
290.6
290.604
290.609
290.612
290.617
290.622
290.624
290.625
290.626
290.626
290.627
290.628
290.63
290.63
290.63
290.631
290.634
290.612
290.598
290.584
290.568
290.557
290.546
290.536
290.523
290.511
290.488
290.477
290.46
290.447
290.435
290.425
290.416
290.411
290.41
290.408
290.407
290.406
290.405
290.403
290.4
290.394
290.385
290.377
290.369
290.362
290.354
290.346
290.338
290.329
290.32
290.31
290.299
290.286
290.272
290.26
290.247
290.234
290.222
290.21
290.197
290.185
290.173
290.162
290.151
290.144
290.137
290.132
290.13
290.129
290.132
290.136
290.144
290.155
290.171
290.192
290.216
290.245
290.277
290.313
290.353
290.398
290.449
290.502
290.559
290.618
290.679
290.741
290.801
290.856
290.908
290.957
291.003
291.049
291.093
291.134
291.171
291.203
291.231
291.255
291.274
291.29
291.301
291.305
291.304
291.29
291.269
291.238
291.212
291.174
291.14
291.113
291.084
291.058
291.031
291.003
290.98
290.955
290.935
290.921
290.91
290.904
290.905
290.908
290.914
290.923
290.932
290.947
290.962
290.98
291.001
291.025
291.054
291.082
291.114
291.15
291.187
291.225
291.263
291.304
291.347
291.389
291.428
291.466
291.5
291.53
291.553
291.571
291.587
291.597
291.598
291.594
291.584
291.569
291.549
291.528
291.501
291.47
291.436
291.402
291.365
291.328
291.291
291.255
291.219
291.183
291.149
291.116
291.083
291.054
291.031
291.008
290.984
290.963
290.947
290.932
290.917
290.903
290.892
290.884
290.875
290.873
290.871
290.871
290.872
290.875
290.879
290.886
290.894
290.903
290.915
290.928
290.941
290.958
290.975
290.992
291.01
291.029
291.048
291.069
291.092
291.115
291.139
291.163
291.188
291.213
291.24
291.267
291.294
291.323
291.353
291.385
291.419
291.454
291.49
291.529
291.571
291.609
291.648
291.687
291.726
291.764
291.8
291.833
291.863
291.893
291.923
291.956
291.989
292.024
292.059
292.094
292.13
292.164
292.198
292.233
292.261
292.286
292.308
292.331
292.355
292.379
292.404
292.427
292.45
292.473
292.495
292.517
292.54
292.561
292.584
292.606
292.63
292.656
292.681
292.706
292.731
292.757
292.782
292.806
292.83
292.853
292.875
292.897
292.919
292.939
292.958
292.975
292.992
293.008
293.023
293.036
293.047
293.054
293.061
293.072
293.08
293.087
293.093
293.098
293.104
293.11
293.116
293.124
293.132
293.139
293.147
293.157
293.166
293.175
293.184
293.194
293.204
293.215
293.227
293.239
293.251
293.263
293.275
293.287
293.299
293.309
293.318
293.33
293.342
293.352
293.362
293.37
293.378
293.385
293.392
293.4
293.408
293.413
293.418
293.422
293.425
293.428
293.432
293.435
293.438
293.442
293.446
293.449
293.453
293.455
293.458
293.461
293.464
293.466
293.47
293.473
293.475
293.479
293.48
293.481
293.482
293.485
293.482
293.485
293.487
293.491
293.491
293.492
293.492
293.494
293.496
293.496
293.503
293.51
293.517
293.526
293.535
293.545
293.552
293.56
293.567
293.574
293.582
293.59
293.599
293.61
293.62
293.632
293.644
293.656
293.667
293.678
293.688
293.7
293.712
293.725
293.738
293.749
293.759
293.767
293.774
293.78
293.785
293.79
293.794
293.799
293.805
293.809
293.813
293.816
293.818
293.819
293.821
293.835
288.79
288.789
288.788
288.785
288.785
288.785
288.788
288.796
288.808
288.825
288.848
288.877
288.912
288.951
288.995
289.044
289.096
289.152
289.209
289.268
289.329
289.391
289.454
289.517
289.582
289.647
289.712
289.777
289.841
289.904
289.966
290.026
290.083
290.136
290.186
290.232
290.276
290.317
290.356
290.394
290.432
290.468
290.503
290.538
290.573
290.607
290.641
290.672
290.704
290.738
290.771
290.803
290.835
290.863
290.891
290.915
290.933
290.953
290.969
290.983
290.995
291.006
291.019
291.031
291.045
291.062
291.082
291.107
291.139
291.172
291.201
291.216
291.211
291.194
291.134
291.031
290.925
290.799
290.688
290.599
290.542
290.509
290.496
290.496
290.505
290.513
290.531
290.55
290.572
290.598
290.62
290.648
290.679
290.715
290.754
290.79
290.836
290.894
290.942
290.959
290.985
291.044
291.084
291.089
291.097
291.109
291.114
291.097
291.07
291.044
291.018
290.995
290.975
290.96
290.948
290.946
290.954
290.95
290.928
290.887
290.829
290.763
290.697
290.643
290.604
290.576
290.557
290.535
290.518
290.507
290.494
290.48
290.467
290.459
290.45
290.437
290.424
290.418
290.403
290.389
290.377
290.367
290.363
290.361
290.36
290.36
290.362
290.366
290.372
290.379
290.386
290.387
290.385
290.383
290.381
290.38
290.38
290.381
290.377
290.369
290.358
290.343
290.326
290.31
290.289
290.27
290.252
290.233
290.215
290.196
290.177
290.158
290.139
290.121
290.103
290.083
290.063
290.045
290.028
290.011
289.997
289.985
289.976
289.968
289.968
289.971
289.976
289.984
289.996
290.011
290.031
290.058
290.092
290.131
290.176
290.231
290.29
290.355
290.425
290.497
290.566
290.626
290.679
290.731
290.787
290.847
290.907
290.961
291.006
291.043
291.078
291.114
291.156
291.202
291.249
291.287
291.306
291.307
291.303
291.277
291.236
291.195
291.156
291.119
291.082
291.045
291.008
290.97
290.937
290.912
290.891
290.871
290.857
290.845
290.834
290.826
290.817
290.81
290.803
290.797
290.791
290.787
290.791
290.794
290.801
290.815
290.836
290.864
290.895
290.926
290.961
291.002
291.046
291.093
291.144
291.196
291.245
291.29
291.337
291.385
291.425
291.461
291.491
291.518
291.54
291.556
291.556
291.552
291.539
291.525
291.504
291.479
291.448
291.412
291.371
291.332
291.285
291.236
291.191
291.141
291.097
291.062
291.031
291.005
290.985
290.968
290.949
290.93
290.916
290.905
290.895
290.887
290.881
290.878
290.878
290.88
290.883
290.89
290.898
290.908
290.92
290.931
290.943
290.958
290.973
290.989
291.005
291.022
291.04
291.059
291.078
291.099
291.123
291.146
291.17
291.193
291.217
291.24
291.261
291.283
291.305
291.326
291.347
291.368
291.389
291.41
291.439
291.463
291.491
291.52
291.551
291.584
291.617
291.65
291.679
291.707
291.734
291.756
291.778
291.8
291.823
291.85
291.881
291.917
291.958
292.007
292.054
292.094
292.128
292.157
292.185
292.214
292.246
292.279
292.313
292.344
292.376
292.405
292.434
292.461
292.487
292.509
292.531
292.552
292.574
292.597
292.62
292.646
292.672
292.698
292.726
292.752
292.777
292.803
292.829
292.855
292.882
292.908
292.932
292.952
292.972
292.99
293.006
293.021
293.029
293.04
293.049
293.058
293.066
293.071
293.076
293.081
293.084
293.09
293.096
293.102
293.11
293.116
293.125
293.134
293.141
293.149
293.157
293.166
293.175
293.185
293.196
293.208
293.221
293.236
293.251
293.267
293.281
293.295
293.307
293.316
293.327
293.335
293.343
293.351
293.358
293.365
293.374
293.381
293.388
293.394
293.399
293.403
293.406
293.409
293.41
293.413
293.416
293.419
293.423
293.427
293.43
293.433
293.435
293.436
293.439
293.442
293.445
293.447
293.447
293.446
293.449
293.452
293.454
293.447
293.44
293.44
293.434
293.435
293.435
293.434
293.428
293.422
293.421
293.42
293.418
293.418
293.422
293.429
293.438
293.449
293.456
293.462
293.465
293.468
293.472
293.478
293.483
293.492
293.502
293.513
293.524
293.534
293.543
293.552
293.562
293.575
293.59
293.606
293.621
293.636
293.65
293.661
293.671
293.68
293.687
293.696
293.703
293.709
293.715
293.721
293.724
293.726
293.727
293.738
288.763
288.763
288.765
288.766
288.77
288.775
288.784
288.797
288.816
288.839
288.868
288.902
288.941
288.984
289.032
289.085
289.141
289.2
289.261
289.325
289.39
289.457
289.525
289.593
289.662
289.731
289.8
289.867
289.929
289.992
290.051
290.107
290.159
290.208
290.253
290.294
290.332
290.368
290.401
290.434
290.466
290.498
290.529
290.565
290.603
290.639
290.677
290.714
290.752
290.791
290.828
290.863
290.895
290.921
290.943
290.959
290.979
290.99
291.003
291.014
291.024
291.034
291.043
291.053
291.064
291.075
291.087
291.103
291.123
291.142
291.158
291.16
291.156
291.122
291.052
290.949
290.815
290.675
290.572
290.518
290.504
290.508
290.522
290.546
290.577
290.617
290.673
290.74
290.822
290.891
290.991
291.091
291.187
291.289
291.389
291.488
291.595
291.67
291.718
291.814
291.899
291.917
291.953
292.008
292.052
292.076
292.087
292.092
292.086
292.074
292.06
292.041
292.019
291.996
291.977
291.975
291.98
291.975
291.942
291.867
291.746
291.578
291.371
291.155
290.96
290.799
290.665
290.564
290.493
290.441
290.399
290.373
290.358
290.348
290.338
290.328
290.337
290.337
290.327
290.318
290.309
290.301
290.294
290.292
290.294
290.301
290.313
290.328
290.347
290.368
290.386
290.401
290.409
290.417
290.427
290.441
290.46
290.484
290.508
290.525
290.531
290.523
290.511
290.48
290.446
290.419
290.394
290.369
290.343
290.313
290.278
290.241
290.203
290.165
290.13
290.098
290.065
290.035
290.005
289.974
289.943
289.912
289.884
289.858
289.832
289.803
289.778
289.754
289.733
289.713
289.695
289.681
289.681
289.688
289.703
289.731
289.769
289.813
289.867
289.934
290.01
290.09
290.158
290.218
290.276
290.343
290.425
290.517
290.601
290.664
290.704
290.734
290.771
290.829
290.918
291.038
291.169
291.271
291.329
291.341
291.326
291.285
291.253
291.215
291.17
291.128
291.085
291.035
290.978
290.92
290.864
290.813
290.769
290.731
290.694
290.659
290.622
290.59
290.557
290.527
290.492
290.461
290.432
290.408
290.387
290.373
290.365
290.364
290.372
290.381
290.393
290.415
290.443
290.48
290.528
290.59
290.663
290.746
290.826
290.899
290.972
291.044
291.115
291.188
291.261
291.336
291.396
291.439
291.475
291.502
291.517
291.529
291.531
291.527
291.519
291.501
291.453
291.393
291.318
291.24
291.174
291.121
291.076
291.041
291.018
291
290.984
290.964
290.943
290.922
290.904
290.894
290.888
290.884
290.883
290.885
290.888
290.89
290.896
290.907
290.917
290.929
290.945
290.962
290.979
290.996
291.012
291.031
291.05
291.071
291.091
291.113
291.137
291.159
291.181
291.203
291.228
291.251
291.273
291.294
291.314
291.333
291.351
291.369
291.385
291.413
291.413
291.421
291.434
291.447
291.46
291.473
291.485
291.498
291.509
291.519
291.529
291.538
291.545
291.552
291.561
291.572
291.585
291.605
291.636
291.685
291.728
291.775
291.818
291.851
291.878
291.906
291.938
291.977
292.019
292.067
292.118
292.169
292.22
292.267
292.312
292.349
292.382
292.411
292.44
292.466
292.489
292.513
292.536
292.56
292.585
292.611
292.637
292.666
292.702
292.738
292.772
292.802
292.832
292.86
292.884
292.906
292.927
292.951
292.97
292.985
292.997
293.008
293.013
293.017
293.02
293.021
293.019
293.021
293.023
293.025
293.032
293.041
293.052
293.057
293.063
293.069
293.073
293.076
293.078
293.081
293.085
293.09
293.098
293.109
293.121
293.133
293.145
293.159
293.174
293.19
293.207
293.226
293.247
293.269
293.293
293.317
293.334
293.337
293.345
293.353
293.358
293.363
293.367
293.372
293.376
293.38
293.382
293.385
293.387
293.388
293.389
293.39
293.391
293.391
293.392
293.395
293.397
293.403
293.413
293.414
293.409
293.407
293.397
293.391
293.382
293.374
293.358
293.355
293.356
293.354
293.352
293.337
293.322
293.308
293.288
293.269
293.254
293.249
293.248
293.252
293.257
293.261
293.261
293.26
293.256
293.25
293.246
293.247
293.251
293.26
293.272
293.285
293.297
293.309
293.322
293.334
293.344
293.358
293.376
293.395
293.415
293.434
293.451
293.464
293.474
293.484
293.495
293.507
293.519
293.533
293.546
293.559
293.573
293.587
288.73
288.732
288.738
288.744
288.755
288.768
288.785
288.808
288.835
288.867
288.904
288.946
288.992
289.042
289.096
289.155
289.217
289.282
289.35
289.42
289.494
289.569
289.644
289.72
289.795
289.869
289.939
290.006
290.072
290.129
290.181
290.23
290.274
290.313
290.35
290.384
290.414
290.441
290.469
290.497
290.527
290.558
290.591
290.628
290.666
290.708
290.751
290.795
290.84
290.885
290.924
290.96
290.99
291.011
291.027
291.04
291.045
291.053
291.059
291.066
291.071
291.075
291.079
291.082
291.087
291.092
291.098
291.104
291.111
291.111
291.104
291.087
291.059
291.009
290.93
290.821
290.684
290.57
290.52
290.514
290.524
290.554
290.601
290.661
290.732
290.815
290.918
291.023
291.155
291.29
291.426
291.573
291.705
291.831
291.944
292.051
292.15
292.22
292.292
292.356
292.406
292.43
292.452
292.472
292.484
292.494
292.511
292.534
292.564
292.593
292.623
292.65
292.674
292.699
292.729
292.763
292.796
292.82
292.83
292.823
292.784
292.695
292.541
292.321
292.054
291.756
291.451
291.157
290.914
290.716
290.562
290.451
290.372
290.314
290.273
290.248
290.231
290.223
290.218
290.217
290.216
290.214
290.213
290.22
290.233
290.253
290.278
290.309
290.349
290.393
290.437
290.476
290.507
290.533
290.559
290.591
290.631
290.682
290.744
290.806
290.854
290.863
290.861
290.84
290.811
290.79
290.776
290.763
290.747
290.724
290.69
290.645
290.592
290.532
290.476
290.417
290.373
290.339
290.304
290.263
290.214
290.157
290.092
290.025
289.959
289.896
289.84
289.79
289.744
289.697
289.649
289.599
289.546
289.493
289.442
289.411
289.39
289.387
289.393
289.407
289.44
289.497
289.56
289.623
289.683
289.748
289.829
289.934
290.057
290.173
290.248
290.284
290.309
290.347
290.428
290.569
290.782
291.018
291.206
291.329
291.359
291.349
291.35
291.34
291.312
291.262
291.195
291.116
291.028
290.938
290.856
290.774
290.701
290.642
290.584
290.525
290.466
290.412
290.36
290.309
290.273
290.244
290.212
290.184
290.151
290.12
290.092
290.069
290.048
290.028
290.011
289.997
289.988
289.982
289.986
290.007
290.05
290.115
290.19
290.265
290.341
290.418
290.501
290.601
290.727
290.869
291.001
291.119
291.21
291.283
291.344
291.399
291.445
291.485
291.514
291.525
291.514
291.488
291.439
291.367
291.292
291.221
291.156
291.099
291.055
291.022
290.996
290.972
290.947
290.923
290.911
290.898
290.896
290.892
290.89
290.892
290.897
290.9
290.909
290.924
290.938
290.953
290.978
290.999
291.018
291.037
291.055
291.076
291.097
291.119
291.146
291.172
291.2
291.223
291.249
291.271
291.293
291.317
291.34
291.361
291.38
291.398
291.414
291.428
291.44
291.458
291.464
291.471
291.482
291.491
291.498
291.5
291.5
291.499
291.495
291.493
291.49
291.483
291.481
291.481
291.481
291.479
291.477
291.477
291.481
291.489
291.496
291.507
291.523
291.542
291.558
291.58
291.601
291.628
291.664
291.705
291.754
291.811
291.877
291.949
292.022
292.092
292.161
292.218
292.271
292.318
292.355
292.388
292.416
292.442
292.468
292.496
292.523
292.548
292.58
292.619
292.655
292.692
292.723
292.754
292.78
292.808
292.838
292.874
292.902
292.925
292.943
292.955
292.962
292.965
292.966
292.963
292.958
292.949
292.938
292.928
292.923
292.922
292.922
292.926
292.928
292.932
292.934
292.935
292.935
292.936
292.937
292.939
292.944
292.952
292.962
292.974
292.983
292.988
292.995
293.003
293.015
293.031
293.052
293.08
293.116
293.157
293.191
293.221
293.245
293.265
293.285
293.302
293.319
293.333
293.343
293.356
293.365
293.369
293.369
293.367
293.363
293.359
293.357
293.353
293.353
293.358
293.36
293.36
293.365
293.365
293.363
293.362
293.352
293.345
293.332
293.326
293.314
293.295
293.278
293.265
293.249
293.229
293.214
293.196
293.167
293.135
293.104
293.072
293.049
293.034
293.033
293.03
293.027
293.019
293.008
292.994
292.974
292.962
292.957
292.958
292.962
292.969
292.978
292.987
292.997
293.006
293.016
293.028
293.045
293.066
293.093
293.123
293.154
293.182
293.206
293.223
293.233
293.244
293.257
293.275
293.297
293.321
293.338
293.369
288.692
288.698
288.709
288.722
288.742
288.765
288.794
288.827
288.866
288.909
288.956
289.006
289.061
289.118
289.18
289.246
289.316
289.391
289.469
289.551
289.636
289.722
289.808
289.893
289.974
290.051
290.124
290.189
290.246
290.295
290.337
290.373
290.404
290.431
290.455
290.477
290.497
290.517
290.538
290.563
290.591
290.624
290.662
290.705
290.754
290.809
290.864
290.918
290.97
291.017
291.053
291.08
291.098
291.105
291.108
291.109
291.103
291.102
291.101
291.1
291.098
291.094
291.091
291.088
291.085
291.082
291.076
291.067
291.057
291.034
291
290.96
290.912
290.851
290.773
290.675
290.569
290.516
290.519
290.543
290.588
290.656
290.74
290.839
290.948
291.065
291.187
291.308
291.446
291.587
291.728
291.872
292.006
292.122
292.221
292.31
292.382
292.438
292.478
292.517
292.529
292.532
292.531
292.523
292.508
292.491
292.469
292.453
292.449
292.455
292.476
292.509
292.554
292.614
292.688
292.77
292.85
292.925
292.998
293.067
293.126
293.166
293.173
293.162
293.093
292.937
292.692
292.386
292.049
291.696
291.347
291.03
290.774
290.582
290.444
290.351
290.29
290.248
290.221
290.202
290.185
290.176
290.176
290.183
290.2
290.226
290.261
290.306
290.363
290.431
290.502
290.573
290.638
290.696
290.749
290.802
290.86
290.93
291.012
291.1
291.182
291.247
291.282
291.292
291.295
291.302
291.312
291.322
291.325
291.32
291.302
291.265
291.211
291.143
291.078
291.025
290.991
290.973
290.955
290.928
290.886
290.823
290.741
290.647
290.547
290.457
290.38
290.311
290.243
290.17
290.084
289.981
289.863
289.737
289.617
289.519
289.441
289.373
289.308
289.244
289.177
289.138
289.134
289.141
289.161
289.193
289.247
289.33
289.443
289.582
289.707
289.78
289.824
289.872
289.948
290.09
290.335
290.641
290.934
291.164
291.285
291.342
291.382
291.409
291.407
291.375
291.307
291.221
291.112
290.995
290.901
290.803
290.695
290.596
290.508
290.427
290.36
290.301
290.249
290.208
290.177
290.155
290.134
290.114
290.091
290.074
290.052
290.028
289.999
289.967
289.931
289.895
289.856
289.815
289.771
289.731
289.709
289.709
289.722
289.751
289.785
289.826
289.878
289.955
290.077
290.242
290.418
290.588
290.741
290.878
290.997
291.112
291.216
291.307
291.389
291.46
291.504
291.52
291.503
291.466
291.406
291.327
291.238
291.155
291.079
291.024
290.989
290.964
290.943
290.919
290.922
290.913
290.906
290.905
290.906
290.911
290.918
290.928
290.937
290.954
290.971
290.993
291.018
291.045
291.075
291.101
291.125
291.151
291.175
291.201
291.226
291.251
291.278
291.301
291.324
291.346
291.369
291.389
291.408
291.425
291.441
291.457
291.472
291.48
291.488
291.502
291.518
291.529
291.541
291.552
291.563
291.57
291.574
291.574
291.57
291.564
291.562
291.555
291.553
291.555
291.558
291.558
291.555
291.544
291.526
291.501
291.475
291.449
291.427
291.412
291.401
291.395
291.392
291.393
291.397
291.41
291.431
291.465
291.512
291.574
291.648
291.732
291.824
291.917
292.007
292.087
292.155
292.221
292.276
292.328
292.364
292.406
292.436
292.457
292.488
292.523
292.553
292.587
292.622
292.654
292.686
292.721
292.757
292.797
292.836
292.861
292.882
292.897
292.907
292.908
292.907
292.902
292.89
292.877
292.86
292.841
292.825
292.808
292.798
292.79
292.782
292.777
292.772
292.768
292.763
292.758
292.753
292.75
292.748
292.75
292.752
292.757
292.764
292.768
292.77
292.773
292.78
292.791
292.807
292.833
292.87
292.918
292.969
293.014
293.056
293.089
293.118
293.147
293.18
293.212
293.247
293.283
293.316
293.34
293.356
293.364
293.365
293.36
293.363
293.357
293.342
293.336
293.328
293.319
293.323
293.326
293.324
293.326
293.32
293.314
293.303
293.284
293.265
293.238
293.21
293.184
293.152
293.129
293.113
293.091
293.055
293.016
292.977
292.928
292.882
292.846
292.82
292.805
292.792
292.782
292.768
292.747
292.722
292.703
292.692
292.691
292.692
292.696
292.702
292.71
292.713
292.716
292.721
292.725
292.731
292.742
292.761
292.786
292.816
292.845
292.872
292.893
292.908
292.92
292.934
292.954
292.981
293.014
293.045
293.091
288.656
288.665
288.682
288.705
288.735
288.771
288.812
288.859
288.909
288.964
289.021
289.081
289.144
289.21
289.28
289.356
289.437
289.523
289.615
289.711
289.809
289.908
290.004
290.095
290.178
290.253
290.32
290.376
290.421
290.455
290.481
290.501
290.516
290.528
290.538
290.548
290.557
290.569
290.586
290.609
290.641
290.682
290.734
290.794
290.862
290.933
290.999
291.058
291.108
291.146
291.169
291.18
291.183
291.175
291.165
291.155
291.142
291.133
291.125
291.116
291.106
291.093
291.078
291.06
291.04
291.021
290.999
290.974
290.946
290.907
290.855
290.803
290.747
290.683
290.618
290.558
290.511
290.515
290.546
290.609
290.689
290.785
290.887
290.989
291.077
291.164
291.261
291.366
291.499
291.632
291.783
291.926
292.055
292.17
292.269
292.346
292.408
292.454
292.471
292.476
292.465
292.415
292.363
292.312
292.259
292.206
292.153
292.104
292.054
292.004
291.963
291.935
291.922
291.924
291.95
292.01
292.1
292.218
292.359
292.526
292.716
292.921
293.116
293.271
293.381
293.413
293.402
293.342
293.198
292.961
292.636
292.24
291.822
291.433
291.108
290.854
290.664
290.523
290.419
290.344
290.29
290.254
290.241
290.241
290.25
290.272
290.31
290.362
290.432
290.518
290.615
290.714
290.811
290.901
290.983
291.064
291.147
291.234
291.331
291.432
291.531
291.619
291.687
291.734
291.771
291.807
291.843
291.877
291.904
291.912
291.909
291.894
291.863
291.811
291.765
291.736
291.723
291.718
291.712
291.697
291.665
291.612
291.538
291.453
291.365
291.282
291.211
291.148
291.083
291.008
290.911
290.785
290.628
290.459
290.289
290.134
289.994
289.86
289.726
289.58
289.43
289.292
289.172
289.064
288.966
288.884
288.865
288.877
288.913
288.991
289.106
289.225
289.318
289.391
289.473
289.601
289.823
290.133
290.47
290.771
291.002
291.163
291.274
291.371
291.437
291.438
291.411
291.356
291.26
291.131
290.997
290.863
290.725
290.599
290.489
290.393
290.333
290.283
290.238
290.209
290.19
290.182
290.179
290.175
290.177
290.173
290.166
290.151
290.122
290.081
290.027
289.967
289.902
289.833
289.761
289.687
289.615
289.555
289.51
289.476
289.453
289.45
289.458
289.489
289.559
289.673
289.813
289.964
290.129
290.3
290.474
290.651
290.825
290.996
291.151
291.288
291.408
291.486
291.5
291.489
291.451
291.387
291.302
291.203
291.112
291.04
290.994
290.963
290.947
290.933
290.921
290.917
290.916
290.917
290.919
290.925
290.936
290.949
290.968
290.986
291.008
291.039
291.075
291.106
291.144
291.175
291.204
291.231
291.257
291.281
291.306
291.328
291.346
291.361
291.376
291.39
291.404
291.417
291.43
291.443
291.457
291.471
291.488
291.502
291.516
291.531
291.549
291.563
291.58
291.596
291.613
291.628
291.641
291.651
291.655
291.656
291.662
291.67
291.675
291.683
291.693
291.702
291.704
291.7
291.688
291.662
291.622
291.578
291.535
291.493
291.453
291.417
291.385
291.355
291.327
291.301
291.285
291.284
291.287
291.301
291.335
291.39
291.462
291.55
291.649
291.749
291.845
291.952
292.056
292.152
292.234
292.307
292.355
292.388
292.421
292.454
292.481
292.504
292.53
292.563
292.598
292.635
292.675
292.715
292.754
292.783
292.81
292.832
292.845
292.846
292.845
292.839
292.825
292.808
292.783
292.757
292.732
292.714
292.695
292.678
292.664
292.654
292.645
292.636
292.627
292.619
292.611
292.603
292.595
292.584
292.575
292.57
292.569
292.566
292.562
292.556
292.556
292.559
292.565
292.578
292.601
292.637
292.682
292.724
292.766
292.805
292.841
292.884
292.928
292.974
293.035
293.098
293.165
293.23
293.284
293.324
293.35
293.359
293.366
293.367
293.356
293.34
293.323
293.305
293.299
293.3
293.3
293.297
293.286
293.279
293.268
293.25
293.228
293.2
293.16
293.13
293.089
293.052
293.018
292.986
292.944
292.897
292.858
292.806
292.757
292.707
292.668
292.638
292.616
292.598
292.579
292.558
292.535
292.517
292.508
292.507
292.509
292.513
292.519
292.529
292.537
292.542
292.546
292.55
292.554
292.56
292.568
292.579
292.593
292.607
292.618
292.624
292.629
292.633
292.637
292.646
292.664
292.69
292.715
292.765
288.624
288.636
288.662
288.696
288.739
288.788
288.844
288.904
288.966
289.031
289.097
289.165
289.235
289.31
289.389
289.475
289.569
289.67
289.777
289.888
290
290.109
290.212
290.304
290.382
290.448
290.5
290.539
290.565
290.581
290.59
290.593
290.593
290.591
290.589
290.589
290.59
290.597
290.612
290.639
290.679
290.734
290.803
290.883
290.967
291.047
291.116
291.172
291.214
291.238
291.247
291.248
291.243
291.227
291.211
291.196
291.176
291.161
291.145
291.125
291.101
291.074
291.042
291.008
290.972
290.934
290.895
290.85
290.809
290.758
290.704
290.651
290.601
290.552
290.523
290.5
290.508
290.535
290.602
290.693
290.789
290.881
290.945
290.998
291.058
291.125
291.196
291.29
291.398
291.535
291.674
291.816
291.95
292.066
292.163
292.253
292.308
292.338
292.355
292.341
292.302
292.255
292.197
292.133
292.073
292.011
291.954
291.895
291.837
291.772
291.701
291.633
291.57
291.511
291.46
291.428
291.425
291.452
291.52
291.626
291.777
291.982
292.239
292.541
292.87
293.181
293.422
293.574
293.616
293.601
293.521
293.333
293.035
292.662
292.265
291.889
291.561
291.289
291.066
290.888
290.747
290.639
290.562
290.516
290.504
290.511
290.535
290.583
290.658
290.756
290.869
290.991
291.114
291.229
291.334
291.434
291.534
291.637
291.745
291.856
291.961
292.057
292.134
292.197
292.249
292.296
292.341
292.385
292.424
292.449
292.452
292.449
292.435
292.411
292.388
292.376
292.377
292.38
292.379
292.372
292.352
292.315
292.262
292.203
292.143
292.087
292.032
291.977
291.917
291.846
291.756
291.642
291.5
291.342
291.184
291.033
290.885
290.732
290.56
290.363
290.138
289.893
289.642
289.41
289.204
289.037
288.905
288.784
288.682
288.665
288.69
288.749
288.823
288.894
288.973
289.088
289.268
289.557
289.923
290.28
290.578
290.809
290.992
291.169
291.33
291.448
291.468
291.449
291.39
291.275
291.124
290.965
290.801
290.658
290.54
290.438
290.359
290.301
290.267
290.253
290.252
290.265
290.284
290.312
290.339
290.356
290.357
290.351
290.33
290.291
290.227
290.146
290.049
289.943
289.827
289.713
289.606
289.511
289.426
289.349
289.279
289.232
289.219
289.223
289.245
289.296
289.371
289.467
289.586
289.729
289.895
290.089
290.301
290.534
290.779
291.015
291.225
291.39
291.468
291.477
291.465
291.427
291.363
291.271
291.173
291.081
291.01
290.961
290.939
290.924
290.919
290.916
290.914
290.916
290.923
290.937
290.954
290.978
291.004
291.033
291.062
291.096
291.13
291.167
291.202
291.234
291.263
291.287
291.31
291.329
291.347
291.364
291.379
291.39
291.402
291.412
291.421
291.431
291.441
291.453
291.461
291.469
291.483
291.504
291.522
291.542
291.565
291.587
291.611
291.635
291.659
291.682
291.704
291.726
291.744
291.761
291.779
291.8
291.822
291.845
291.87
291.892
291.906
291.907
291.902
291.884
291.853
291.812
291.764
291.715
291.665
291.616
291.565
291.513
291.462
291.413
291.363
291.313
291.264
291.224
291.204
291.204
291.216
291.246
291.303
291.382
291.48
291.604
291.746
291.89
292.029
292.15
292.239
292.299
292.341
292.378
292.406
292.429
292.454
292.488
292.524
292.56
292.601
292.642
292.68
292.713
292.745
292.769
292.783
292.784
292.784
292.778
292.763
292.743
292.716
292.687
292.658
292.633
292.609
292.59
292.574
292.561
292.549
292.537
292.526
292.515
292.502
292.492
292.482
292.469
292.459
292.449
292.438
292.428
292.418
292.407
292.396
292.387
292.382
292.383
292.386
292.398
292.419
292.444
292.468
292.492
292.52
292.56
292.605
292.656
292.719
292.797
292.885
292.981
293.073
293.155
293.231
293.292
293.337
293.361
293.366
293.358
293.344
293.33
293.314
293.295
293.284
293.274
293.262
293.248
293.238
293.222
293.199
293.168
293.129
293.083
293.035
292.986
292.943
292.897
292.845
292.804
292.759
292.708
292.659
292.608
292.564
292.528
292.501
292.48
292.465
292.45
292.438
292.433
292.433
292.437
292.442
292.451
292.458
292.469
292.483
292.493
292.503
292.513
292.521
292.528
292.532
292.534
292.535
292.535
292.532
292.526
292.518
292.509
292.501
292.493
292.49
292.489
292.49
292.504
288.599
288.616
288.652
288.698
288.755
288.82
288.89
288.963
289.037
289.11
289.182
289.255
289.331
289.412
289.5
289.596
289.703
289.819
289.942
290.065
290.187
290.302
290.404
290.491
290.56
290.61
290.644
290.662
290.667
290.664
290.656
290.643
290.629
290.615
290.604
290.596
290.593
290.598
290.615
290.649
290.702
290.772
290.857
290.948
291.038
291.118
291.182
291.231
291.262
291.277
291.28
291.276
291.267
291.252
291.237
291.225
291.206
291.19
291.171
291.143
291.107
291.068
291.027
290.982
290.933
290.88
290.82
290.763
290.698
290.644
290.586
290.542
290.507
290.484
290.484
290.5
290.525
290.582
290.669
290.765
290.847
290.899
290.934
290.961
290.983
290.997
291.028
291.079
291.167
291.278
291.408
291.539
291.661
291.784
291.878
291.959
292.029
292.062
292.081
292.093
292.069
292.035
292.005
291.972
291.931
291.888
291.837
291.785
291.732
291.67
291.596
291.511
291.421
291.329
291.238
291.151
291.074
291.025
291.019
291.042
291.105
291.217
291.382
291.611
291.911
292.26
292.631
292.994
293.325
293.599
293.758
293.772
293.732
293.602
293.376
293.084
292.767
292.455
292.167
291.906
291.676
291.48
291.321
291.201
291.111
291.071
291.076
291.102
291.162
291.253
291.369
291.497
291.63
291.759
291.876
291.982
292.085
292.186
292.289
292.393
292.493
292.587
292.662
292.722
292.77
292.814
292.853
292.889
292.923
292.946
292.952
292.95
292.942
292.926
292.913
292.906
292.906
292.907
292.906
292.9
292.885
292.862
292.833
292.798
292.76
292.723
292.684
292.638
292.585
292.519
292.44