/*--------------------------------*- C++ -*----------------------------------*\
| =========                 |                                                 |
| \\      /  F ield         | OpenFOAM: The Open Source CFD Toolbox           |
|  \\    /   O peration     | Version:  v1812                                 |
|   \\  /    A nd           | Web:      www.OpenFOAM.com                      |
|    \\/     M anipulation  |                                                 |
\*---------------------------------------------------------------------------*/
FoamFile
{
    version     2.0;
    format      ascii;
    class       volVectorField;
    location    "1.4";
    object      U;
}
// * * * * * * * * * * * * * * * * * * * * * * * * * * * * * * * * * * * * * //

dimensions      [0 1 -1 0 0 0 0];


internalField   nonuniform List<vector> 
20400
(
(0.00675255 -0.00213972 0)
(0.0107797 0.0101688 0)
(0.00491932 0.0171198 0)
(-0.0148939 0.0193474 0)
(-0.0394499 0.0117335 0)
(-0.0630564 0.00902051 0)
(-0.0894129 0.00606029 0)
(-0.117296 0.00494478 0)
(-0.148099 0.00462801 0)
(-0.181535 0.00461048 0)
(-0.215718 0.00415468 0)
(-0.246875 0.00236358 0)
(-0.27381 0.00191783 0)
(-0.301557 0.00534156 0)
(-0.328574 0.0111607 0)
(-0.352059 0.00928918 0)
(-0.375428 -0.0006133 0)
(-0.397059 -0.00733851 0)
(-0.410086 -0.011787 0)
(-0.416632 -0.0120178 0)
(-0.417094 -0.00165392 0)
(-0.409481 0.01705 0)
(-0.388836 0.0130058 0)
(-0.358136 0.0156578 0)
(-0.323237 0.0129045 0)
(-0.284489 0.00817145 0)
(-0.242451 -0.000205782 0)
(-0.198091 -0.00908273 0)
(-0.152635 -0.0174934 0)
(-0.110793 -0.0180209 0)
(-0.0775953 -0.0131314 0)
(-0.0554429 -0.0036645 0)
(-0.0453149 0.00572236 0)
(-0.0470284 0.0106563 0)
(-0.0594692 0.0172662 0)
(-0.0824166 0.0211263 0)
(-0.120453 0.023849 0)
(-0.179619 0.0172143 0)
(-0.243502 -0.00746105 0)
(-0.304827 -0.0241315 0)
(-0.370362 -0.0270331 0)
(-0.447899 -0.0215773 0)
(-0.548986 -0.00457404 0)
(-0.690659 0.0180936 0)
(-0.873582 0.0230091 0)
(-1.05443 0.016126 0)
(-1.21265 0.0527603 0)
(-1.33364 0.130427 0)
(-1.45793 0.1302 0)
(-1.56498 0.104318 0)
(-1.64417 0.0727109 0)
(-1.68607 0.02503 0)
(-1.67122 -0.0182643 0)
(-1.62078 -0.0385429 0)
(-1.55285 -0.0857988 0)
(-1.41748 -0.141274 0)
(-1.25914 -0.13516 0)
(-1.09631 -0.1668 0)
(-0.891909 -0.206439 0)
(-0.645158 -0.254199 0)
(-0.353824 -0.28899 0)
(-0.0453792 -0.282396 0)
(0.246443 -0.216196 0)
(0.528441 -0.181026 0)
(0.809373 -0.174654 0)
(1.10172 -0.180246 0)
(1.38443 -0.173176 0)
(1.6275 -0.153904 0)
(1.83777 -0.14741 0)
(2.02191 -0.12365 0)
(2.16357 -0.0614114 0)
(2.22096 0.000801172 0)
(2.22183 -0.00149516 0)
(2.19037 -0.189031 0)
(2.19848 -0.469795 0)
(2.2058 -0.353877 0)
(2.19796 0.0218726 0)
(2.19093 0.0117551 0)
(2.2067 -0.00650578 0)
(2.23271 0.00419061 0)
(2.18303 0.157551 0)
(1.90903 0.402069 0)
(1.39283 0.640669 0)
(0.66334 0.827448 0)
(-0.22951 0.839868 0)
(-1.18707 0.559599 0)
(-2.19949 0.290916 0)
(-3.25366 0.177157 0)
(-4.30089 0.279829 0)
(-5.27748 0.365979 0)
(-6.14504 0.591875 0)
(-6.95955 0.646672 0)
(-7.66746 0.614715 0)
(-8.3093 0.594998 0)
(-8.89503 0.516555 0)
(-9.38191 0.430133 0)
(-9.71112 0.273432 0)
(-9.94235 0.247194 0)
(-10.0793 0.26925 0)
(-10.1329 0.332768 0)
(-10.0757 0.364905 0)
(-9.90559 0.453004 0)
(-9.6358 0.591207 0)
(-9.24112 0.76268 0)
(-8.74017 0.892473 0)
(-8.18397 0.983214 0)
(-7.60499 0.93434 0)
(-7.0277 0.666225 0)
(-6.3918 0.317289 0)
(-5.66 0.0875639 0)
(-4.89868 -0.0345198 0)
(-4.13008 -0.113729 0)
(-3.35757 -0.176171 0)
(-2.58728 -0.22812 0)
(-1.82618 -0.264628 0)
(-1.08189 -0.293974 0)
(-0.390625 -0.304662 0)
(0.237744 -0.200508 0)
(0.829484 -0.0089242 0)
(1.42471 0.165874 0)
(2.01419 0.288408 0)
(2.56644 0.353301 0)
(3.04636 0.376545 0)
(3.44507 0.381731 0)
(3.78682 0.404942 0)
(4.08502 0.473496 0)
(4.29087 0.532974 0)
(4.40843 -0.185313 0)
(4.33742 -0.475049 0)
(4.25915 -0.380727 0)
(4.07056 -0.170868 0)
(4.01389 0.25167 0)
(3.90771 0.392492 0)
(3.90323 0.470366 0)
(3.88853 0.504208 0)
(3.86277 0.154969 0)
(3.70696 -0.383919 0)
(3.3302 -0.454351 0)
(2.95845 -0.462489 0)
(2.60742 -0.426394 0)
(2.28664 -0.355215 0)
(1.97978 -0.214844 0)
(1.70455 0.0143331 0)
(1.4209 0.169875 0)
(1.16987 0.186278 0)
(0.972901 0.166719 0)
(0.817907 0.138579 0)
(0.703474 0.103233 0)
(0.631946 0.0674162 0)
(0.597324 0.0399375 0)
(0.583137 0.0299862 0)
(0.572564 0.0374757 0)
(0.551886 0.0569384 0)
(0.509279 0.0741704 0)
(0.456887 0.0760737 0)
(0.411064 0.061377 0)
(0.383654 0.0384511 0)
(0.378407 0.0175322 0)
(0.411878 -0.0272512 0)
(0.499317 -0.0806814 0)
(0.64676 -0.125734 0)
(0.8357 -0.130304 0)
(1.02923 -0.101324 0)
(1.19602 -0.0624894 0)
(1.32104 -0.0324491 0)
(1.42094 -0.0259704 0)
(1.51374 -0.0292961 0)
(1.60929 -0.0392099 0)
(1.71516 -0.0558081 0)
(1.8317 -0.0780924 0)
(1.9536 -0.0864671 0)
(2.07341 -0.0891963 0)
(2.1829 -0.0948985 0)
(2.28119 -0.103908 0)
(2.37294 -0.101619 0)
(2.46271 -0.0886978 0)
(2.5529 -0.0777254 0)
(2.63999 -0.0624584 0)
(2.72414 -0.0392402 0)
(2.80201 -0.00952395 0)
(2.87231 0.0218009 0)
(2.93307 0.0535732 0)
(2.98522 0.0811562 0)
(3.03888 0.0961376 0)
(3.1036 0.0782843 0)
(3.18212 0.0541579 0)
(3.2499 0.0430205 0)
(3.29054 0.0252378 0)
(3.30809 0.00557112 0)
(3.31376 -0.00599465 0)
(3.30576 -0.0216292 0)
(3.30249 -0.0465053 0)
(3.30946 -0.0472414 0)
(3.31616 -0.00821815 0)
(3.30079 0.00600562 0)
(3.26435 0.0112618 0)
(3.19659 0.0185518 0)
(3.10627 0.0171008 0)
(3.00604 0.0169072 0)
(2.89643 0.0239886 0)
(2.77031 0.0368831 0)
(2.62793 0.0552581 0)
(2.47738 0.0639886 0)
(2.33921 0.0631786 0)
(2.22394 0.0532216 0)
(2.12371 0.0461437 0)
(2.02836 0.0469912 0)
(1.92352 0.0524012 0)
(1.80368 0.0668352 0)
(1.67109 0.0790886 0)
(1.53503 0.0784824 0)
(1.42285 0.0478682 0)
(1.36387 0.000352113 0)
(1.34687 -0.02204 0)
(1.3823 -0.0625299 0)
(1.45319 -0.0519268 0)
(1.49872 -0.0202896 0)
(1.51354 -0.0644855 0)
(1.5379 -0.0967309 0)
(1.55806 -0.0822073 0)
(1.50905 0.0174012 0)
(1.40083 0.0717744 0)
(1.2833 0.0906262 0)
(1.15511 0.077525 0)
(1.0211 0.0270885 0)
(0.901421 -0.0820814 0)
(0.750594 -0.0521812 0)
(0.581964 0.0192273 0)
(0.382744 0.105576 0)
(0.17318 0.176311 0)
(-0.0485693 0.232213 0)
(-0.297583 0.25206 0)
(-0.553252 0.251166 0)
(-0.810842 0.259149 0)
(-1.07752 0.26611 0)
(-1.34521 0.26518 0)
(-1.61631 0.268947 0)
(-1.87777 0.253126 0)
(-2.12602 0.244922 0)
(-2.36837 0.238632 0)
(-2.5929 0.207302 0)
(-2.7793 0.165155 0)
(-2.91379 0.112604 0)
(-3.01141 0.0823152 0)
(-3.06873 0.0277638 0)
(-3.06721 -0.0198433 0)
(-3.00261 -0.0825678 0)
(-2.88698 -0.115475 0)
(-2.7486 -0.134456 0)
(-2.57533 -0.196774 0)
(-2.32438 -0.280708 0)
(-1.99703 -0.332861 0)
(-1.63927 -0.339683 0)
(-1.28114 -0.334667 0)
(-0.925061 -0.331376 0)
(-0.57605 -0.312162 0)
(-0.258083 -0.272838 0)
(0.0313192 -0.254881 0)
(0.327368 -0.25012 0)
(0.63629 -0.218759 0)
(0.913301 -0.163258 0)
(1.14307 -0.125395 0)
(1.3332 -0.105547 0)
(1.49231 -0.102151 0)
(1.62515 -0.0986491 0)
(1.75196 -0.0981199 0)
(1.86238 -0.0567486 0)
(1.93066 -0.0144724 0)
(1.96684 0.0123212 0)
(1.99765 0.0124099 0)
(2.01914 0.0134207 0)
(2.03385 0.0133603 0)
(2.0515 0.0166597 0)
(2.0821 0.00316999 0)
(2.1355 -0.00717838 0)
(2.19414 -0.0303896 0)
(2.2501 -0.0377046 0)
(2.28852 -0.0181934 0)
(2.28009 0.031029 0)
(2.2314 0.0811442 0)
(2.1792 0.0832881 0)
(2.13737 0.0932475 0)
(2.07831 0.111747 0)
(2.00217 0.101245 0)
(1.95263 0.0647293 0)
(1.9301 0.0521456 0)
(1.91279 0.0567396 0)
(1.88757 0.0430304 0)
(1.85689 0.0230794 0)
(1.82039 0.0438043 0)
(1.75168 0.0949294 0)
(1.64969 0.122693 0)
(1.55095 0.123631 0)
(1.44278 0.105844 0)
(1.31165 0.0742503 0)
(1.14147 0.0786979 0)
(0.942911 0.116695 0)
(0.737593 0.141912 0)
(0.543582 0.176542 0)
(0.352092 0.201064 0)
(0.170176 0.209859 0)
(-0.00881953 0.232347 0)
(-0.205639 0.251343 0)
(-0.411641 0.249382 0)
(-0.615368 0.250414 0)
(-0.81994 0.248221 0)
(-1.01842 0.238047 0)
(-1.20371 0.22224 0)
(-1.37062 0.199013 0)
(-1.50622 0.160216 0)
(-1.6018 0.121594 0)
(-1.66473 0.0938563 0)
(-1.70427 0.0768698 0)
(-1.74 0.084979 0)
(-1.78198 0.0890433 0)
(-1.82531 0.0820395 0)
(-1.85238 0.0574313 0)
(-1.85833 0.0385641 0)
(-1.83515 0.00347733 0)
(-1.77431 -0.0363186 0)
(-1.67521 -0.0743627 0)
(-1.54052 -0.107493 0)
(-1.37807 -0.13004 0)
(-1.19517 -0.149866 0)
(-0.993445 -0.171234 0)
(-0.760844 -0.218443 0)
(-0.478297 -0.256032 0)
(-0.185014 -0.241551 0)
(0.0895437 -0.216151 0)
(0.349022 -0.188095 0)
(0.593176 -0.167265 0)
(0.815157 -0.148434 0)
(0.999003 -0.114188 0)
(1.13568 -0.0824798 0)
(1.22512 -0.0599519 0)
(1.28269 -0.0527412 0)
(1.32952 -0.064962 0)
(1.39845 -0.0932765 0)
(1.51092 -0.11728 0)
(1.65035 -0.112546 0)
(1.79539 -0.0898181 0)
(1.93458 -0.0628222 0)
(2.06867 -0.0361514 0)
(2.20247 -0.0103371 0)
(2.3403 0.0149365 0)
(2.49357 -0.00296939 0)
(2.61486 0.0107413 0)
(2.66846 0.0211515 0)
(2.68159 0.0292135 0)
(2.67656 0.0248339 0)
(2.67355 0.00564902 0)
(2.6996 -0.0234499 0)
(2.75397 -0.0286683 0)
(2.79793 0.000213864 0)
(2.81923 0.0218159 0)
(2.82435 0.0332711 0)
(2.82775 0.0298062 0)
(2.83408 0.0257864 0)
(2.84007 0.0215396 0)
(2.83886 0.0225433 0)
(2.831 0.02719 0)
(2.81997 0.0332905 0)
(2.80765 0.0325204 0)
(2.80408 0.0306439 0)
(2.81055 0.0254352 0)
(2.82227 0.0246034 0)
(2.82838 0.0241976 0)
(2.82906 0.0160742 0)
(2.83365 0.0148497 0)
(2.83493 0.0161686 0)
(2.83203 0.0175634 0)
(2.83134 0.0299439 0)
(2.82176 0.0417501 0)
(2.81397 0.044561 0)
(2.81708 0.0411875 0)
(2.81912 0.0342813 0)
(2.81016 0.0337642 0)
(2.7805 0.0619673 0)
(2.72773 0.0939953 0)
(2.67171 0.104707 0)
(2.62487 0.0877225 0)
(2.57718 0.0607969 0)
(2.51941 0.0163419 0)
(2.42578 -0.0379508 0)
(2.37227 -0.150972 0)
(2.30798 -0.0615546 0)
(2.223 -0.00146403 0)
(2.14819 0.02023 0)
(2.08243 0.0373446 0)
(2.01389 0.0544251 0)
(1.94572 0.0658572 0)
(1.88457 0.064295 0)
(1.83172 0.0623811 0)
(1.79494 0.0549975 0)
(1.7729 0.0544512 0)
(1.75257 0.0581812 0)
(1.73796 0.0492053 0)
(1.73543 0.0498562 0)
(1.75374 0.0144889 0)
(1.80749 -0.0128915 0)
(1.87159 -0.0177819 0)
(1.94029 -0.0277949 0)
(2.02169 -0.0455646 0)
(2.12054 -0.0681189 0)
(2.24156 -0.0906138 0)
(2.38184 -0.113275 0)
(2.53424 -0.136072 0)
(2.69161 -0.156744 0)
(2.84919 -0.174714 0)
(3.00117 -0.184843 0)
(3.13866 -0.186837 0)
(3.25529 -0.182869 0)
(3.35693 -0.183104 0)
(3.46735 -0.190987 0)
(3.60724 -0.171123 0)
(3.76126 -0.129423 0)
(3.90304 -0.0763423 0)
(4.02093 -0.0145981 0)
(4.11756 0.0447637 0)
(4.19856 0.0940605 0)
(4.27383 0.127061 0)
(4.36005 0.110825 0)
(4.45731 0.0553622 0)
(4.54012 0.0120918 0)
(4.59165 -0.0019236 0)
(4.62074 -0.0112234 0)
(4.63396 -0.0128875 0)
(4.63957 -0.00701818 0)
(4.64435 0.0106566 0)
(4.65017 0.028142 0)
(4.65361 0.025666 0)
(4.6571 0.0202298 0)
(4.66459 0.0176898 0)
(4.66849 0.00678403 0)
(4.67117 -0.0145279 0)
(4.66442 -0.0243258 0)
(4.65325 -0.0136811 0)
(4.64728 0.00255094 0)
(4.63638 0.0087518 0)
(4.62231 0.00574402 0)
(4.61407 -0.00563368 0)
(4.61715 -0.0134589 0)
(4.60881 -0.0505333 0)
(4.61565 -0.0991806 0)
(4.59183 -0.141858 0)
(4.5315 -0.161613 0)
(4.46067 -0.125921 0)
(4.39109 -0.0981788 0)
(4.31916 -0.0136496 0)
(4.25222 0.13769 0)
(4.17135 0.190623 0)
(4.17528 0.293054 0)
(4.16687 0.287462 0)
(4.15022 0.0796827 0)
(4.00776 -0.0583517 0)
(3.84026 -0.129429 0)
(3.69168 -0.158152 0)
(3.54447 -0.142817 0)
(3.42225 -0.0650748 0)
(3.32458 -0.0204979 0)
(3.24073 0.0156701 0)
(3.16472 0.0496499 0)
(3.09005 0.0577064 0)
(3.01933 0.0575029 0)
(2.94871 0.0522249 0)
(2.87727 0.0478435 0)
(2.80997 0.0537954 0)
(2.74953 0.0594137 0)
(2.70192 0.0566494 0)
(2.66952 0.0472979 0)
(2.65959 0.0245357 0)
(2.64995 0.0243061 0)
(2.64443 0.0259879 0)
(2.64535 0.0316616 0)
(2.65758 0.0373352 0)
(2.67559 0.0499612 0)
(2.69816 0.0670669 0)
(2.72377 0.0833727 0)
(2.75686 0.0966781 0)
(2.80512 0.101778 0)
(2.87844 0.0879557 0)
(2.98793 0.0546438 0)
(3.12482 0.0155642 0)
(3.25704 -0.0103886 0)
(3.36542 -0.0429282 0)
(3.45543 -0.0694699 0)
(3.53074 -0.0868873 0)
(3.58875 -0.110256 0)
(3.63695 -0.129812 0)
(3.67637 -0.147073 0)
(3.7145 -0.162874 0)
(3.76744 -0.171656 0)
(3.8426 -0.159485 0)
(3.93182 -0.126219 0)
(4.01824 -0.0780317 0)
(4.09119 -0.0280822 0)
(4.13938 0.0149088 0)
(4.17732 0.0396736 0)
(4.20608 0.0684157 0)
(4.32175 0.0765013 0)
(-0.00457252 0.0150344 0)
(-0.0221386 0.0236727 0)
(-0.0413879 0.0356018 0)
(-0.0699467 0.0556161 0)
(-0.109992 0.0529348 0)
(-0.149222 0.0546344 0)
(-0.19159 0.0548124 0)
(-0.235272 0.0567327 0)
(-0.280332 0.0588968 0)
(-0.325275 0.0597301 0)
(-0.367403 0.055968 0)
(-0.403449 0.0483928 0)
(-0.43503 0.0438819 0)
(-0.465869 0.0461588 0)
(-0.489956 0.0380728 0)
(-0.503737 0.0347656 0)
(-0.506369 0.0395459 0)
(-0.50327 0.0300009 0)
(-0.497059 0.0221542 0)
(-0.490326 0.0131264 0)
(-0.479397 0.00606932 0)
(-0.462833 -0.00123039 0)
(-0.447836 -0.0203117 0)
(-0.425527 -0.0276099 0)
(-0.402458 -0.03195 0)
(-0.377883 -0.0375145 0)
(-0.351841 -0.0407377 0)
(-0.325292 -0.0419783 0)
(-0.298764 -0.0393158 0)
(-0.275788 -0.0302174 0)
(-0.255628 -0.0197887 0)
(-0.240832 -0.00417405 0)
(-0.23205 0.0130862 0)
(-0.233055 0.0266386 0)
(-0.243031 0.0417979 0)
(-0.259215 0.0569303 0)
(-0.27985 0.0805107 0)
(-0.310409 0.104636 0)
(-0.367878 0.115584 0)
(-0.458177 0.122941 0)
(-0.569136 0.134372 0)
(-0.692174 0.148913 0)
(-0.822035 0.182141 0)
(-0.944153 0.226258 0)
(-1.04531 0.25311 0)
(-1.13456 0.235073 0)
(-1.22811 0.218563 0)
(-1.32264 0.197771 0)
(-1.41977 0.190287 0)
(-1.48486 0.140663 0)
(-1.52502 0.0899615 0)
(-1.52675 0.0187307 0)
(-1.47041 -0.0399386 0)
(-1.36833 -0.0627724 0)
(-1.23312 -0.114864 0)
(-1.05184 -0.182655 0)
(-0.842921 -0.196555 0)
(-0.606776 -0.233534 0)
(-0.312238 -0.286254 0)
(0.0317475 -0.344955 0)
(0.418334 -0.386938 0)
(0.832136 -0.383327 0)
(1.26252 -0.363714 0)
(1.69936 -0.345739 0)
(2.13168 -0.346595 0)
(2.55459 -0.344241 0)
(2.93869 -0.292392 0)
(3.25777 -0.23242 0)
(3.51494 -0.198265 0)
(3.69787 -0.158517 0)
(3.79462 -0.10236 0)
(3.80526 -0.00513939 0)
(3.69114 0.0369555 0)
(3.43193 0.0889224 0)
(3.0234 0.19233 0)
(2.46254 0.311109 0)
(1.90947 0.24544 0)
(1.41226 0.161126 0)
(0.852588 0.138412 0)
(0.189017 0.17211 0)
(-0.592424 0.373699 0)
(-1.47157 0.675627 0)
(-2.43256 0.983939 0)
(-3.47478 1.24915 0)
(-4.61208 1.51578 0)
(-5.9121 1.86394 0)
(-7.39785 1.99536 0)
(-8.91865 1.92085 0)
(-10.3465 1.597 0)
(-11.6088 1.28456 0)
(-12.6945 0.997782 0)
(-13.6216 0.818068 0)
(-14.3255 0.696041 0)
(-14.7993 0.637339 0)
(-15.0718 0.566711 0)
(-15.1663 0.41168 0)
(-15.1658 0.291125 0)
(-14.981 0.192182 0)
(-14.675 0.0959171 0)
(-14.3825 -0.095859 0)
(-13.9992 -0.242367 0)
(-13.4409 -0.285076 0)
(-12.7646 -0.437126 0)
(-12.0693 -0.67535 0)
(-11.2392 -0.86726 0)
(-10.2172 -0.99754 0)
(-9.05622 -1.08698 0)
(-7.89985 -1.17197 0)
(-6.8678 -1.23884 0)
(-5.9628 -1.26161 0)
(-5.1255 -1.25225 0)
(-4.31516 -1.24619 0)
(-3.51401 -1.24393 0)
(-2.71675 -1.23459 0)
(-1.94148 -1.19901 0)
(-1.13783 -1.28419 0)
(-0.158255 -1.51041 0)
(1.08562 -1.67831 0)
(2.4789 -1.73559 0)
(3.89019 -1.68673 0)
(5.21729 -1.53753 0)
(6.39446 -1.31732 0)
(7.36816 -1.08103 0)
(8.11484 -0.898647 0)
(8.68573 -0.817933 0)
(9.12905 -0.790895 0)
(9.48608 -0.522894 0)
(9.56179 0.17167 0)
(9.5773 0.391355 0)
(9.5442 0.506814 0)
(9.52635 0.429495 0)
(9.54265 0.0293302 0)
(9.35521 -0.187681 0)
(9.06842 -0.280671 0)
(8.71744 -0.296561 0)
(8.29784 0.0349139 0)
(7.85577 0.697697 0)
(7.25566 1.03928 0)
(6.68146 1.0905 0)
(6.13084 1.04659 0)
(5.61674 0.974489 0)
(5.16737 0.848253 0)
(4.854 0.639367 0)
(4.64107 0.434029 0)
(4.43767 0.322703 0)
(4.26328 0.248936 0)
(4.12023 0.190923 0)
(4.01332 0.141658 0)
(3.95681 0.0918414 0)
(3.94176 0.057804 0)
(3.95885 0.0401738 0)
(3.99644 0.0432458 0)
(4.03721 0.0615842 0)
(4.07884 0.0812886 0)
(4.13717 0.0835762 0)
(4.22405 0.0693243 0)
(4.35225 0.045425 0)
(4.52712 0.018587 0)
(4.71537 -0.0506228 0)
(4.89592 -0.13458 0)
(5.07332 -0.224051 0)
(5.25914 -0.280729 0)
(5.45863 -0.292141 0)
(5.6882 -0.228742 0)
(5.93212 -0.16994 0)
(6.16701 -0.142916 0)
(6.39518 -0.133722 0)
(6.62271 -0.135985 0)
(6.8591 -0.144037 0)
(7.11415 -0.129995 0)
(7.39254 -0.119455 0)
(7.69046 -0.104287 0)
(7.99867 -0.0652677 0)
(8.31249 -0.0349534 0)
(8.61364 -0.0236758 0)
(8.86872 -0.0494628 0)
(9.07691 -0.0586763 0)
(9.25356 -0.0738214 0)
(9.40359 -0.0945445 0)
(9.52784 -0.117141 0)
(9.63446 -0.137343 0)
(9.73197 -0.156017 0)
(9.82542 -0.178505 0)
(9.91859 -0.208543 0)
(10.0269 -0.231766 0)
(10.1689 -0.211482 0)
(10.313 -0.141613 0)
(10.4377 -0.0699022 0)
(10.5338 -0.0100112 0)
(10.611 0.0213942 0)
(10.6607 0.0526002 0)
(10.6931 0.065103 0)
(10.714 0.0479604 0)
(10.7145 0.0262676 0)
(10.6688 0.0451977 0)
(10.5498 0.100437 0)
(10.3666 0.160538 0)
(10.1468 0.191479 0)
(9.91799 0.206843 0)
(9.68412 0.228501 0)
(9.43536 0.256036 0)
(9.16067 0.267745 0)
(8.85722 0.255755 0)
(8.54436 0.204661 0)
(8.24156 0.168339 0)
(7.96237 0.155273 0)
(7.70564 0.157659 0)
(7.46153 0.188441 0)
(7.21551 0.210866 0)
(6.96449 0.222014 0)
(6.71388 0.205632 0)
(6.48462 0.141811 0)
(6.30301 0.070941 0)
(6.19369 0.016652 0)
(6.17453 -0.0611514 0)
(6.17341 -0.107123 0)
(6.16014 -0.0295868 0)
(6.07424 0.0453466 0)
(5.97216 0.0761782 0)
(5.85795 0.125256 0)
(5.63601 0.190308 0)
(5.2388 0.153665 0)
(4.68842 0.157027 0)
(4.09038 0.180165 0)
(3.53177 0.260232 0)
(3.03999 0.383074 0)
(2.61507 0.46247 0)
(2.24301 0.466998 0)
(1.92784 0.42584 0)
(1.67469 0.352864 0)
(1.42851 0.360212 0)
(1.14409 0.380223 0)
(0.80122 0.374107 0)
(0.424719 0.379374 0)
(0.0397247 0.387783 0)
(-0.32421 0.381652 0)
(-0.655856 0.381516 0)
(-0.939451 0.347903 0)
(-1.17558 0.324976 0)
(-1.37208 0.29893 0)
(-1.51526 0.249067 0)
(-1.5903 0.187958 0)
(-1.59186 0.13362 0)
(-1.4794 0.101174 0)
(-1.24313 0.0377061 0)
(-0.878368 -0.0178804 0)
(-0.404792 -0.0831497 0)
(0.152149 -0.118578 0)
(0.735931 -0.1325 0)
(1.28614 -0.211066 0)
(1.78191 -0.338681 0)
(2.25979 -0.435567 0)
(2.73827 -0.479245 0)
(3.21365 -0.503435 0)
(3.69062 -0.526324 0)
(4.17095 -0.526168 0)
(4.62942 -0.491242 0)
(5.0531 -0.48129 0)
(5.48422 -0.514995 0)
(5.97774 -0.497468 0)
(6.48842 -0.408105 0)
(6.97304 -0.312929 0)
(7.42361 -0.227767 0)
(7.83974 -0.134499 0)
(8.21676 -0.078542 0)
(8.52098 -0.0743285 0)
(8.69224 -0.0502776 0)
(8.7426 -0.0082865 0)
(8.74316 -0.00247607 0)
(8.72867 0.00642546 0)
(8.7363 0.0390109 0)
(8.76087 0.0433327 0)
(8.77743 0.0274654 0)
(8.764 -0.0126565 0)
(8.73265 -0.0378263 0)
(8.70705 -0.00677223 0)
(8.73108 0.0419824 0)
(8.76956 0.0957438 0)
(8.77721 0.145675 0)
(8.69047 0.123085 0)
(8.42982 0.0951122 0)
(8.06493 0.0909232 0)
(7.70197 0.124846 0)
(7.39447 0.131338 0)
(7.17942 0.0965406 0)
(7.05213 0.078591 0)
(6.95422 0.0751189 0)
(6.84969 0.125777 0)
(6.71797 0.143438 0)
(6.57282 0.171436 0)
(6.35347 0.208955 0)
(6.01487 0.174523 0)
(5.56773 0.178492 0)
(5.09176 0.238015 0)
(4.65636 0.353306 0)
(4.26298 0.455122 0)
(3.90019 0.481986 0)
(3.58937 0.448091 0)
(3.32553 0.403535 0)
(3.06447 0.360341 0)
(2.77381 0.310322 0)
(2.41606 0.294726 0)
(2.00528 0.309164 0)
(1.6053 0.304529 0)
(1.26091 0.306234 0)
(0.968657 0.301403 0)
(0.718453 0.285902 0)
(0.503428 0.263598 0)
(0.319999 0.231678 0)
(0.172755 0.181949 0)
(0.062863 0.134794 0)
(0.00222415 0.0929781 0)
(-0.00935167 0.0744972 0)
(0.0108446 0.0802371 0)
(0.0755268 0.082705 0)
(0.186825 0.0774704 0)
(0.348441 0.0539452 0)
(0.55905 0.0319252 0)
(0.787082 -0.0184761 0)
(1.01961 -0.0776114 0)
(1.25867 -0.137644 0)
(1.50634 -0.194791 0)
(1.76347 -0.238527 0)
(2.02794 -0.275944 0)
(2.29513 -0.307111 0)
(2.56321 -0.38589 0)
(2.91061 -0.408291 0)
(3.32581 -0.380064 0)
(3.76255 -0.354801 0)
(4.21267 -0.326033 0)
(4.66525 -0.29041 0)
(5.11737 -0.21143 0)
(5.57496 -0.141199 0)
(6.02848 -0.0537767 0)
(6.48249 0.0266261 0)
(6.94018 0.0815932 0)
(7.38703 0.0946159 0)
(7.76739 0.0233098 0)
(8.05299 -0.0459459 0)
(8.24487 -0.107932 0)
(8.37502 -0.141644 0)
(8.481 -0.165211 0)
(8.59785 -0.195203 0)
(8.73655 -0.234526 0)
(8.88038 -0.285553 0)
(9.05864 -0.280845 0)
(9.2309 -0.130745 0)
(9.4307 -0.0129307 0)
(9.60123 0.0314392 0)
(9.72543 0.0528109 0)
(9.83151 0.0468146 0)
(9.92796 0.00873034 0)
(10.0128 -0.0130536 0)
(10.0601 -0.00235956 0)
(10.0685 0.0203 0)
(10.0629 0.0246358 0)
(10.051 0.0208984 0)
(10.04 0.0217379 0)
(10.0393 0.0359306 0)
(10.0459 0.0577101 0)
(10.0547 0.0615996 0)
(10.0522 0.0642682 0)
(10.0258 0.0525678 0)
(9.97132 0.0357517 0)
(9.91346 0.018791 0)
(9.86818 0.0231812 0)
(9.83237 0.0417282 0)
(9.79671 0.0505465 0)
(9.76367 0.0517473 0)
(9.72085 0.0594231 0)
(9.66814 0.0635349 0)
(9.60453 0.0544125 0)
(9.51565 0.053175 0)
(9.41669 0.0288898 0)
(9.3283 0.0198534 0)
(9.25867 0.0383575 0)
(9.21218 0.0746355 0)
(9.17051 0.113597 0)
(9.06863 0.0974398 0)
(8.84744 0.0687708 0)
(8.53294 0.0760548 0)
(8.2086 0.119347 0)
(7.91267 0.212227 0)
(7.64838 0.304667 0)
(7.38978 0.327519 0)
(7.19284 0.329998 0)
(7.11441 0.259508 0)
(7.11013 0.208159 0)
(7.1318 0.194347 0)
(7.14194 0.182487 0)
(7.12755 0.160708 0)
(7.08867 0.143792 0)
(7.03545 0.124916 0)
(6.9967 0.0819029 0)
(6.96524 0.0731156 0)
(6.95125 0.0637191 0)
(6.95469 0.0489056 0)
(6.9636 0.0173414 0)
(7.01005 -0.0173554 0)
(7.11891 -0.0292868 0)
(7.27022 -0.0296218 0)
(7.43926 -0.039111 0)
(7.62663 -0.049676 0)
(7.83857 -0.0674053 0)
(8.08484 -0.0892635 0)
(8.37014 -0.0989493 0)
(8.69151 -0.0906225 0)
(9.04417 -0.0718486 0)
(9.42646 -0.0483387 0)
(9.83518 -0.0150499 0)
(10.2583 0.0276831 0)
(10.673 0.069169 0)
(11.0502 0.0809111 0)
(11.3768 0.0422878 0)
(11.6299 -0.0434643 0)
(11.8208 -0.0901429 0)
(11.9698 -0.101169 0)
(12.0902 -0.118815 0)
(12.1876 -0.141066 0)
(12.2687 -0.170008 0)
(12.3439 -0.197105 0)
(12.4128 -0.225914 0)
(12.5022 -0.193026 0)
(12.5857 -0.0778201 0)
(12.6954 -0.0174052 0)
(12.7675 0.0261452 0)
(12.8014 0.0530993 0)
(12.8225 0.0494276 0)
(12.8265 0.0280298 0)
(12.8103 0.0193866 0)
(12.7693 0.0154096 0)
(12.7129 0.0161621 0)
(12.6607 0.0177424 0)
(12.6104 0.0279899 0)
(12.5616 0.0550301 0)
(12.5109 0.0700618 0)
(12.4577 0.0696418 0)
(12.3969 0.0482375 0)
(12.3121 0.0464065 0)
(12.1999 0.0489081 0)
(12.0804 0.0372634 0)
(11.9676 0.0357287 0)
(11.8498 0.0684185 0)
(11.7162 0.107234 0)
(11.5852 0.195569 0)
(11.4319 0.26255 0)
(11.3122 0.257969 0)
(11.2718 0.205487 0)
(11.2231 0.193597 0)
(11.1185 0.0493447 0)
(10.8096 -0.0772321 0)
(10.451 -0.217433 0)
(10.1041 -0.186148 0)
(9.8527 0.0705501 0)
(9.66139 0.319395 0)
(9.43614 0.372862 0)
(9.20819 0.374212 0)
(9.00207 0.36973 0)
(8.8804 0.257185 0)
(8.7897 0.181733 0)
(8.69554 0.142908 0)
(8.5812 0.0950163 0)
(8.44186 0.0870328 0)
(8.3212 0.076999 0)
(8.23338 0.09077 0)
(8.17724 0.0868292 0)
(8.14015 0.076298 0)
(8.10732 0.0476948 0)
(8.06944 0.0223067 0)
(8.055 -0.0128149 0)
(8.05018 -0.0103881 0)
(8.0732 -0.0124673 0)
(8.12799 -0.0247145 0)
(8.20353 -0.0476137 0)
(8.28792 -0.0734064 0)
(8.36925 -0.0993688 0)
(8.44683 -0.124189 0)
(8.52316 -0.149926 0)
(8.6022 -0.186578 0)
(8.69358 -0.231145 0)
(8.80557 -0.284743 0)
(8.9571 -0.325543 0)
(9.15071 -0.305575 0)
(9.3556 -0.231048 0)
(9.55462 -0.161107 0)
(9.74185 -0.0961004 0)
(9.93022 -0.0517316 0)
(10.1183 -0.00298953 0)
(10.3116 0.0373339 0)
(10.5094 0.0666815 0)
(10.7093 0.0744347 0)
(10.9041 0.0478702 0)
(11.0754 -0.00716508 0)
(11.2083 -0.0494385 0)
(11.2945 -0.0784938 0)
(11.3481 -0.0842004 0)
(11.3731 -0.0832587 0)
(11.3797 -0.093154 0)
(11.3462 -0.137856 0)
(11.4226 -0.239729 0)
(0.0153797 0.023432 0)
(0.00184995 0.0502135 0)
(-0.0262217 0.0697607 0)
(-0.0546645 0.104806 0)
(-0.0982276 0.10846 0)
(-0.140221 0.113952 0)
(-0.185858 0.117769 0)
(-0.232666 0.123247 0)
(-0.280359 0.127536 0)
(-0.327367 0.127702 0)
(-0.370777 0.118913 0)
(-0.407729 0.105265 0)
(-0.442518 0.0995714 0)
(-0.47648 0.0988789 0)
(-0.500158 0.0781461 0)
(-0.509438 0.0570404 0)
(-0.501599 0.0436784 0)
(-0.489605 0.0319724 0)
(-0.476577 0.0230686 0)
(-0.463259 0.0124924 0)
(-0.448213 0.000833516 0)
(-0.42775 -0.00998216 0)
(-0.409305 -0.0311595 0)
(-0.384182 -0.0414283 0)
(-0.358477 -0.0466968 0)
(-0.332108 -0.0531464 0)
(-0.304651 -0.0572004 0)
(-0.271012 -0.0586091 0)
(-0.234196 -0.0538293 0)
(-0.203048 -0.0418658 0)
(-0.173939 -0.0266492 0)
(-0.149446 -0.00407483 0)
(-0.133793 0.019782 0)
(-0.134287 0.0427171 0)
(-0.150253 0.0654881 0)
(-0.17566 0.0880939 0)
(-0.203465 0.122244 0)
(-0.243134 0.163644 0)
(-0.305403 0.218538 0)
(-0.406371 0.262644 0)
(-0.53246 0.298019 0)
(-0.673953 0.327309 0)
(-0.813916 0.358003 0)
(-0.909678 0.362129 0)
(-0.963253 0.339975 0)
(-1.00713 0.315521 0)
(-1.05547 0.296103 0)
(-1.11112 0.281812 0)
(-1.17681 0.261508 0)
(-1.21227 0.194485 0)
(-1.24522 0.124181 0)
(-1.24326 0.0206248 0)
(-1.23231 -0.0904863 0)
(-1.16269 -0.157604 0)
(-1.10767 -0.27045 0)
(-0.993735 -0.387138 0)
(-0.800502 -0.491683 0)
(-0.511938 -0.614605 0)
(-0.156848 -0.732898 0)
(0.247652 -0.841877 0)
(0.68404 -0.914078 0)
(1.12877 -0.923519 0)
(1.56238 -0.912454 0)
(1.98322 -0.89686 0)
(2.39862 -0.899462 0)
(2.80001 -0.869846 0)
(3.13654 -0.748281 0)
(3.39595 -0.607187 0)
(3.60239 -0.48188 0)
(3.72336 -0.321525 0)
(3.78773 -0.146353 0)
(3.8164 0.0316313 0)
(3.79191 0.321429 0)
(3.50443 0.621707 0)
(2.98412 0.894337 0)
(2.32729 1.0692 0)
(1.4945 1.07575 0)
(0.441222 1.13673 0)
(-0.799259 1.21018 0)
(-2.17742 1.31982 0)
(-3.66261 1.59445 0)
(-5.21147 1.87525 0)
(-6.75879 2.13493 0)
(-8.28412 2.3322 0)
(-9.74105 2.49636 0)
(-11.0415 2.70618 0)
(-12.1044 2.79589 0)
(-12.8974 2.76908 0)
(-13.4526 2.60107 0)
(-13.8819 2.2752 0)
(-14.3367 2.04712 0)
(-14.6137 1.72538 0)
(-14.848 1.38996 0)
(-15.0595 1.07789 0)
(-15.1248 0.773076 0)
(-15.255 0.514176 0)
(-15.1794 0.14569 0)
(-15.0427 -0.117434 0)
(-14.8236 -0.350223 0)
(-14.4782 -0.644865 0)
(-13.9384 -0.940665 0)
(-13.3521 -1.2413 0)
(-12.6665 -1.63706 0)
(-11.7316 -2.01612 0)
(-10.6276 -2.3429 0)
(-9.41076 -2.5726 0)
(-8.0762 -2.63693 0)
(-6.649 -2.51794 0)
(-5.19458 -2.29319 0)
(-3.7485 -2.16443 0)
(-2.3209 -2.09879 0)
(-0.915401 -2.08745 0)
(0.44903 -2.09477 0)
(1.76066 -2.08509 0)
(3.01785 -2.05389 0)
(4.21974 -2.09452 0)
(5.37245 -2.19846 0)
(6.50351 -2.32267 0)
(7.61881 -2.35213 0)
(8.67925 -2.26953 0)
(9.66427 -2.08759 0)
(10.5719 -1.80878 0)
(11.3672 -1.41336 0)
(12.0418 -1.02801 0)
(12.6001 -0.736031 0)
(12.9772 -0.45367 0)
(13.0691 -0.125298 0)
(13.1599 -0.13411 0)
(13.2482 -0.153886 0)
(13.3352 -0.0886182 0)
(13.3892 0.0299206 0)
(13.2886 0.36993 0)
(12.9929 0.714496 0)
(12.5384 0.938898 0)
(11.9984 1.05381 0)
(11.4888 1.18642 0)
(11.1531 1.10098 0)
(10.9598 1.03893 0)
(10.7513 0.929373 0)
(10.3721 0.837189 0)
(9.88401 0.752617 0)
(9.38027 0.631062 0)
(8.9 0.570184 0)
(8.49276 0.612189 0)
(8.16542 0.593138 0)
(7.90909 0.517472 0)
(7.70726 0.426759 0)
(7.56563 0.303558 0)
(7.49815 0.174596 0)
(7.48113 0.0858505 0)
(7.51529 0.0243822 0)
(7.58511 0.00498425 0)
(7.67181 0.0271243 0)
(7.76283 0.0312885 0)
(7.84245 -0.0127867 0)
(7.91054 -0.101258 0)
(8.02543 -0.208858 0)
(8.23229 -0.292875 0)
(8.55611 -0.301937 0)
(8.99802 -0.310922 0)
(9.53393 -0.339579 0)
(10.0818 -0.328829 0)
(10.5245 -0.347173 0)
(10.7585 -0.434705 0)
(10.8812 -0.401502 0)
(11.0004 -0.383643 0)
(11.1852 -0.380339 0)
(11.4304 -0.402951 0)
(11.7072 -0.447708 0)
(11.9859 -0.521321 0)
(12.26 -0.57987 0)
(12.5246 -0.620118 0)
(12.7801 -0.647258 0)
(13.0303 -0.65946 0)
(13.2749 -0.602739 0)
(13.5084 -0.475716 0)
(13.7524 -0.38522 0)
(13.9969 -0.325042 0)
(14.2609 -0.246998 0)
(14.577 -0.169992 0)
(14.9608 -0.110688 0)
(15.4092 -0.0637466 0)
(15.9013 -0.0279715 0)
(16.3885 -0.0154561 0)
(16.7646 -0.0833715 0)
(16.962 -0.180432 0)
(17.0414 -0.1805 0)
(17.0682 -0.151794 0)
(17.0879 -0.128613 0)
(17.1029 -0.107857 0)
(17.1117 -0.0937772 0)
(17.1186 -0.0807314 0)
(17.1271 -0.0757522 0)
(17.1511 -0.00159217 0)
(17.1752 0.167378 0)
(17.1772 0.311634 0)
(17.1082 0.412107 0)
(16.9818 0.44696 0)
(16.8129 0.447515 0)
(16.5989 0.468566 0)
(16.3237 0.519406 0)
(15.9869 0.588237 0)
(15.6121 0.658901 0)
(15.2222 0.663819 0)
(14.8504 0.618131 0)
(14.4919 0.559984 0)
(14.1283 0.518805 0)
(13.7332 0.507459 0)
(13.2842 0.52487 0)
(12.7662 0.534399 0)
(12.2121 0.513721 0)
(11.7151 0.425234 0)
(11.3618 0.250562 0)
(11.1945 0.0487144 0)
(11.1576 -0.0604352 0)
(11.1892 -0.0406319 0)
(11.22 0.0773214 0)
(11.132 0.112634 0)
(10.7448 -0.00106791 0)
(10.0298 0.116534 0)
(9.16301 0.495382 0)
(8.25046 0.936801 0)
(7.44566 1.23269 0)
(6.79463 1.26752 0)
(6.26489 1.1226 0)
(5.93298 0.83796 0)
(5.71385 0.686159 0)
(5.49858 0.642347 0)
(5.21628 0.567523 0)
(4.76636 0.534288 0)
(4.16963 0.600212 0)
(3.52265 0.763485 0)
(2.90564 0.894889 0)
(2.37713 0.98694 0)
(1.92089 1.00533 0)
(1.52932 0.959229 0)
(1.19499 0.889714 0)
(0.947417 0.7722 0)
(0.754149 0.693201 0)
(0.610436 0.600218 0)
(0.516852 0.43492 0)
(0.378398 0.231709 0)
(0.352159 0.0111158 0)
(0.450005 -0.338691 0)
(0.720133 -0.646557 0)
(1.09512 -0.884549 0)
(1.53237 -1.08706 0)
(2.07006 -1.17535 0)
(2.72864 -1.11791 0)
(3.48274 -1.01418 0)
(4.28028 -0.959712 0)
(5.10995 -0.951288 0)
(5.97788 -0.916968 0)
(6.87888 -0.875987 0)
(7.82364 -0.854441 0)
(8.82309 -0.80986 0)
(9.84836 -0.70147 0)
(10.8335 -0.63829 0)
(11.6032 -0.770173 0)
(12.0843 -0.925453 0)
(12.4026 -0.906223 0)
(12.6765 -0.846332 0)
(12.9643 -0.793615 0)
(13.2603 -0.771086 0)
(13.5401 -0.701079 0)
(13.7949 -0.506475 0)
(13.9466 -0.175482 0)
(14.1331 0.0151047 0)
(14.2691 0.0983206 0)
(14.3618 0.083427 0)
(14.3773 0.042714 0)
(14.3536 0.02447 0)
(14.3257 0.0748306 0)
(14.3444 0.134532 0)
(14.4136 0.127348 0)
(14.4477 0.0484581 0)
(14.3172 -0.0581835 0)
(13.9494 -0.0163795 0)
(13.4504 0.0657449 0)
(13.0417 0.409941 0)
(12.7279 0.752639 0)
(12.4095 0.848429 0)
(12.1074 0.824804 0)
(11.842 0.676092 0)
(11.6722 0.457044 0)
(11.5756 0.314788 0)
(11.4631 0.313447 0)
(11.2668 0.340729 0)
(10.9111 0.329483 0)
(10.38 0.397986 0)
(9.74346 0.617892 0)
(9.11293 0.904294 0)
(8.58876 1.08145 0)
(8.18736 1.05303 0)
(7.90138 0.936712 0)
(7.66086 0.844633 0)
(7.36626 0.784648 0)
(6.96338 0.644946 0)
(6.39059 0.611513 0)
(5.73577 0.657444 0)
(5.0772 0.773812 0)
(4.48592 0.980665 0)
(3.98395 1.0982 0)
(3.59161 1.03991 0)
(3.28673 0.935924 0)
(3.02301 0.849896 0)
(2.79178 0.774598 0)
(2.58978 0.703266 0)
(2.41043 0.624727 0)
(2.24853 0.527709 0)
(2.09827 0.414037 0)
(2.01773 0.27577 0)
(2.01332 0.190831 0)
(2.06866 0.11929 0)
(2.11486 0.0178794 0)
(2.19238 -0.0808796 0)
(2.30954 -0.210515 0)