/*--------------------------------*- C++ -*----------------------------------*\
| =========                 |                                                 |
| \\      /  F ield         | OpenFOAM: The Open Source CFD Toolbox           |
|  \\    /   O peration     | Version:  v1812                                 |
|   \\  /    A nd           | Web:      www.OpenFOAM.com                      |
|    \\/     M anipulation  |                                                 |
\*---------------------------------------------------------------------------*/
FoamFile
{
    version     2.0;
    format      ascii;
    class       volScalarField;
    location    "0.25";
    object      p;
}
// * * * * * * * * * * * * * * * * * * * * * * * * * * * * * * * * * * * * * //

dimensions      [1 -1 -2 0 0 0 0];


internalField   nonuniform List<scalar> 
800
(
1
1
1
1
1
1
1
1
1
1
1
1
1
1
1
1
1
1
1
1
1
1
1
1
1
1
1
1
1
1
1
1
1
1
1
1
1
1
1
1
1
1
1
1
1
1
1
1
1
1
1
1
1
1
1
1
1
1
1
1
1
1
1
1
1
1
1
1
1
1
1
1
1
1
1
1
1
1
1
1
1
1
1
1
1
1
1
1
1
1
1
1
1
1
1
1
1
1
1
1
1
1
1
1
1
1
1
1
1
1
1
1
1
1
1
1
1
1
1
1
1
1
1
0.999999
0.999999
0.999999
0.999998
0.999996
0.999994
0.999991
0.999986
0.999979
0.999969
0.999955
0.999934
0.999906
0.999866
0.999812
0.999741
0.999645
0.999521
0.999361
0.999157
0.998902
0.998585
0.998198
0.997729
0.99717
0.99651
0.995739
0.994849
0.993833
0.992682
0.991393
0.989961
0.988384
0.98666
0.984791
0.982776
0.98062
0.978326
0.975898
0.973341
0.970662
0.967867
0.964961
0.961952
0.958846
0.955649
0.952369
0.94901
0.94558
0.942083
0.938526
0.934914
0.931251
0.927542
0.923792
0.920004
0.916183
0.912331
0.908452
0.90455
0.900627
0.896685
0.892727
0.888756
0.884773
0.88078
0.87678
0.872773
0.868762
0.864747
0.86073
0.856713
0.852695
0.84868
0.844666
0.840656
0.83665
0.832648
0.828652
0.824663
0.82068
0.816704
0.812737
0.808777
0.804827
0.800886
0.796954
0.793033
0.789121
0.785221
0.781331
0.777453
0.773586
0.76973
0.765887
0.762056
0.758237
0.754431
0.750637
0.746856
0.743088
0.739332
0.735591
0.731862
0.728147
0.724445
0.720756
0.717082
0.713421
0.709774
0.70614
0.702521
0.698915
0.695324
0.691746
0.688182
0.684633
0.681097
0.677576
0.674069
0.670576
0.667097
0.663632
0.660182
0.656746
0.653323
0.649915
0.646522
0.643142
0.639776
0.636425
0.633088
0.629765
0.626456
0.623161
0.619881
0.616614
0.613362
0.610123
0.606899
0.603688
0.600492
0.597309
0.59414
0.590986
0.587845
0.584718
0.581604
0.578505
0.575419
0.572347
0.569289
0.566244
0.563213
0.560195
0.557191
0.554201
0.551224
0.548261
0.54531
0.542374
0.53945
0.53654
0.533643
0.53076
0.527889
0.525032
0.522188
0.519356
0.516538
0.513733
0.510941
0.508162
0.505395
0.502642
0.499901
0.497173
0.494457
0.491754
0.489064
0.486387
0.483722
0.481069
0.478429
0.475802
0.473186
0.470583
0.467993
0.465414
0.462848
0.460294
0.457752
0.455222
0.452704
0.450198
0.447704
0.445222
0.442752
0.440293
0.437846
0.435412
0.432988
0.430577
0.428176
0.425788
0.423411
0.421045
0.418691
0.416348
0.414017
0.411697
0.409388
0.40709
0.404803
0.402528
0.400264
0.39801
0.395768
0.393536
0.391316
0.389106
0.386907
0.384719
0.382541
0.380375
0.378218
0.376073
0.373938
0.371813
0.369699
0.367596
0.365503
0.36342
0.361347
0.359285
0.357233
0.355191
0.35316
0.351138
0.349127
0.347125
0.345134
0.343152
0.34118
0.339218
0.337266
0.335324
0.333391
0.331467
0.329554
0.327649
0.325754
0.323869
0.321992
0.320126
0.318269
0.316421
0.314585
0.312763
0.310961
0.309197
0.307515
0.306013
0.304864
0.304217
0.30397
0.303881
0.303831
0.3038
0.303789
0.303788
0.303792
0.303805
0.303819
0.303818
0.303805
0.303761
0.303721
0.303726
0.303783
0.30394
0.30413
0.304169
0.304153
0.304077
0.303981
0.303979
0.303999
0.304069
0.304137
0.304136
0.30412
0.304093
0.304082
0.304085
0.304101
0.304117
0.304116
0.304108
0.304106
0.304108
0.30411
0.30411
0.30411
0.30411
0.30411
0.304109
0.304109
0.304109
0.304108
0.304107
0.304105
0.304103
0.304103
0.304104
0.304104
0.304104
0.304102
0.304098
0.304095
0.304094
0.304097
0.3041
0.304099
0.304096
0.304092
0.30409
0.304091
0.304093
0.304093
0.304092
0.304089
0.304086
0.304086
0.304087
0.304087
0.304086
0.304084
0.304083
0.304084
0.304084
0.304083
0.304081
0.304079
0.304081
0.30408
0.304079
0.304078
0.304078
0.304078
0.304077
0.304075
0.304076
0.304075
0.304074
0.304072
0.304073
0.304073
0.304072
0.30407
0.304069
0.304071
0.30407
0.304069
0.304067
0.304068
0.304068
0.304067
0.304066
0.304064
0.304066
0.304065
0.304065
0.304064
0.304063
0.304063
0.304063
0.304063
0.304062
0.304061
0.304061
0.304061
0.30406
0.30406
0.304059
0.304059
0.304059
0.304058
0.304057
0.304058
0.304058
0.304057
0.304056
0.304056
0.304056
0.304055
0.304055
0.304054
0.304055
0.304054
0.304054
0.304053
0.304053
0.304053
0.304051
0.304049
0.30405
0.30405
0.30405
0.30405
0.30405
0.30405
0.30405
0.30405
0.30405
0.304049
0.304049
0.304049
0.304049
0.304049
0.304049
0.304048
0.304048
0.304048
0.304048
0.304048
0.304047
0.304047
0.304047
0.304047
0.304047
0.304046
0.304046
0.304046
0.304046
0.304045
0.304045
0.304045
0.304045
0.304044
0.304044
0.304044
0.304044
0.304044
0.304044
0.304044
0.304044
0.304044
0.304044
0.304043
0.304043
0.304043
0.304043
0.304043
0.304043
0.304044
0.304044
0.304044
0.304044
0.304044
0.304044
0.304044
0.304044
0.304044
0.304044
0.304044
0.304044
0.304045
0.304045
0.304045
0.304045
0.304045
0.304046
0.304046
0.304046
0.304047
0.304047
0.304047
0.304047
0.304047
0.304048
0.304048
0.304048
0.304048
0.304048
0.304049
0.304049
0.304049
0.30405
0.30405
0.30405
0.304051
0.304051
0.304051
0.304052
0.304052
0.304052
0.304052
0.304052
0.304053
0.304053
0.304053
0.304054
0.304054
0.304054
0.304055
0.304055
0.304056
0.304056
0.304056
0.304057
0.304057
0.304057
0.304057
0.304058
0.304058
0.304059
0.304059
0.30406
0.30406
0.30406
0.304061
0.304061
0.304062
0.304062
0.304063
0.304063
0.304063
0.304063
0.304063
0.304064
0.304065
0.304065
0.304065
0.304066
0.304066
0.304067
0.304067
0.304068
0.304068
0.304068
0.304069
0.304069
0.304069
0.304069
0.30407
0.304071
0.304071
0.304072
0.304072
0.304072
0.304073
0.304074
0.304074
0.304074
0.304074
0.304075
0.304076
0.304077
0.304077
0.304077
0.304078
0.304079
0.304079
0.304079
0.30408
0.304081
0.304082
0.304082
0.304082
0.304083
0.304084
0.304085
0.304085
0.304085
0.304086
0.304087
0.304088
0.304088
0.304088
0.304089
0.30409
0.304091
0.304092
0.304092
0.304092
0.304094
0.304095
0.304095
0.304095
0.304096
0.304097
0.304099
0.304099
0.304098
0.304099
0.304101
0.304103
0.304103
0.304101
0.304102
0.304106
0.304109
0.304107
0.304105
0.304107
0.304112
0.304114
0.304109
0.304102
0.304104
0.304108
0.3041
0.304077
0.304044
0.304
0.303902
0.303696
0.303314
0.302607
0.301271
0.298752
0.294048
0.285386
0.269807
0.243132
0.202034
0.152817
0.117237
0.103669
0.100604
0.10009
0.100013
0.100002
0.1
0.1
0.1
0.1
0.1
0.1
0.1
0.1
0.1
0.1
0.1
0.1
0.1
0.1
0.1
0.1
0.1
0.1
0.1
0.1
0.1
0.1
0.1
0.1
0.1
0.1
0.1
0.1
0.1
0.1
0.1
0.1
0.1
0.1
0.1
0.1
0.1
0.1
0.1
0.1
0.1
0.1
0.1
)
;

boundaryField
{
    sides
    {
        type            zeroGradient;
    }
    empty1
    {
        type            empty;
    }
    empty2
    {
        type            empty;
    }
}


// ************************************************************************* //
