/*--------------------------------*- C++ -*----------------------------------*\
| =========                 |                                                 |
| \\      /  F ield         | OpenFOAM: The Open Source CFD Toolbox           |
|  \\    /   O peration     | Version:  v1812                                 |
|   \\  /    A nd           | Web:      www.OpenFOAM.com                      |
|    \\/     M anipulation  |                                                 |
\*---------------------------------------------------------------------------*/
FoamFile
{
    version     2.0;
    format      ascii;
    class       surfaceScalarField;
    location    "0.25";
    object      phi;
}
// * * * * * * * * * * * * * * * * * * * * * * * * * * * * * * * * * * * * * //

dimensions      [1 0 -1 0 0 0 0];
oriented        oriented;


internalField   nonuniform List<scalar> 
799
(
-1.35525e-19
-1.6263e-19
-2.1684e-19
-1.89735e-19
-5.42101e-20
-1.6263e-19
-5.42101e-20
-5.42101e-20
8.13152e-20
1.89735e-19
1.89735e-19
5.42101e-20
-1.6263e-19
-4.33681e-19
-4.87891e-19
-5.14996e-19
-7.58942e-19
-7.58942e-19
-5.69206e-19
-8.40257e-19
-7.58942e-19
-7.86047e-19
-5.42101e-19
-6.77626e-19
-8.13152e-19
-5.96311e-19
-5.42101e-19
-4.60786e-19
-4.33681e-19
-1.35525e-19
-5.42101e-20
-1.89735e-19
-1.89735e-19
-4.33681e-19
-5.42101e-19
-3.52366e-19
-2.1684e-19
-1.89735e-19
5.42101e-20
0
-1.6263e-19
-4.60786e-19
-5.14996e-19
-4.60786e-19
-5.42101e-19
-8.13152e-19
-7.31836e-19
-7.04731e-19
-9.21572e-19
-8.94467e-19
-1.0571e-18
-9.75782e-19
-1.00289e-18
-7.58942e-19
-6.23416e-19
-7.58942e-19
-7.04731e-19
-6.50521e-19
-6.23416e-19
-7.31836e-19
-8.13152e-19
-8.13152e-19
-9.21572e-19
-9.48677e-19
-1.00289e-18
-8.67362e-19
-9.75782e-19
-1.0842e-18
-1.19262e-18
-1.32815e-18
-1.32815e-18
-1.11131e-18
-1.51788e-18
-1.32815e-18
-1.38236e-18
-1.32815e-18
-1.21973e-18
-1.13841e-18
-1.02999e-18
-1.19262e-18
-1.0842e-18
-1.19262e-18
-8.94467e-19
-6.23416e-19
-2.98156e-19
-2.43945e-19
-1.6263e-19
-2.43945e-19
-8.13152e-20
-8.13152e-20
-5.42101e-20
1.0842e-19
1.89735e-19
8.67362e-19
2.00577e-18
4.17418e-18
8.99888e-18
1.91362e-17
4.09286e-17
8.52996e-17
1.76888e-16
3.62584e-16
7.37203e-16
1.48617e-15
2.96846e-15
5.87627e-15
1.15276e-14
2.2407e-14
4.31511e-14
8.23179e-14
1.55535e-13
2.91026e-13
5.39192e-13
9.89018e-13
1.79577e-12
3.2272e-12
5.73942e-12
1.00999e-11
1.75839e-11
3.02834e-11
5.15858e-11
8.69032e-11
1.44766e-10
2.38437e-10
3.88245e-10
6.24905e-10
9.94153e-10
1.56308e-09
2.4286e-09
3.72858e-09
5.65599e-09
8.47661e-09
1.25504e-08
1.83569e-08
2.65234e-08
3.78564e-08
5.3374e-08
7.43371e-08
1.02278e-07
1.39023e-07
1.86703e-07
2.47756e-07
3.2491e-07
4.21151e-07
5.39675e-07
6.8382e-07
8.56988e-07
1.06256e-06
1.30378e-06
1.5837e-06
1.90506e-06
2.27024e-06
2.68115e-06
3.13927e-06
3.64554e-06
4.20044e-06
4.80392e-06
5.45552e-06
6.15432e-06
6.89907e-06
7.68816e-06
8.51978e-06
9.39187e-06
1.03022e-05
1.12486e-05
1.22286e-05
1.32398e-05
1.428e-05
1.53468e-05
1.64379e-05
1.75511e-05
1.86844e-05
1.98357e-05
2.10032e-05
2.21851e-05
2.33797e-05
2.45854e-05
2.58007e-05
2.70244e-05
2.8255e-05
2.94915e-05
3.07326e-05
3.19775e-05
3.32251e-05
3.44746e-05
3.57252e-05
3.69761e-05
3.82267e-05
3.94763e-05
4.07243e-05
4.19702e-05
4.32135e-05
4.44538e-05
4.56906e-05
4.69236e-05
4.81523e-05
4.93765e-05
5.05958e-05
5.181e-05
5.30189e-05
5.42221e-05
5.54195e-05
5.66108e-05
5.7796e-05
5.89747e-05
6.01469e-05
6.13125e-05
6.24712e-05
6.3623e-05
6.47677e-05
6.59053e-05
6.70356e-05
6.81587e-05
6.92743e-05
7.03825e-05
7.14832e-05
7.25762e-05
7.36617e-05
7.47394e-05
7.58095e-05
7.68718e-05
7.79262e-05
7.89729e-05
8.00117e-05
8.10427e-05
8.20658e-05
8.3081e-05
8.40882e-05
8.50876e-05
8.6079e-05
8.70625e-05
8.80381e-05
8.90057e-05
8.99654e-05
9.09171e-05
9.1861e-05
9.27969e-05
9.37249e-05
9.4645e-05
9.55572e-05
9.64616e-05
9.73581e-05
9.82467e-05
9.91275e-05
0.0001
0.000100866
0.000101723
0.000102573
0.000103415
0.000104249
0.000105075
0.000105894
0.000106705
0.000107509
0.000108305
0.000109093
0.000109874
0.000110647
0.000111413
0.000112171
0.000112921
0.000113665
0.000114401
0.000115129
0.00011585
0.000116564
0.000117271
0.00011797
0.000118662
0.000119347
0.000120025
0.000120695
0.000121359
0.000122015
0.000122665
0.000123307
0.000123942
0.00012457
0.000125192
0.000125806
0.000126414
0.000127014
0.000127608
0.000128195
0.000128776
0.000129349
0.000129916
0.000130477
0.00013103
0.000131578
0.000132118
0.000132652
0.000133179
0.0001337
0.000134215
0.000134723
0.000135225
0.00013572
0.00013621
0.000136692
0.000137169
0.000137639
0.000138104
0.000138562
0.000139013
0.000139459
0.000139899
0.000140333
0.00014076
0.000141182
0.000141598
0.000142008
0.000142412
0.00014281
0.000143203
0.000143589
0.00014397
0.000144345
0.000144715
0.000145078
0.000145436
0.000145789
0.000146136
0.000146477
0.000146813
0.000147144
0.000147469
0.000147789
0.000148103
0.000148412
0.000148715
0.000149014
0.000149307
0.000149594
0.000149877
0.000150155
0.000150427
0.000150694
0.000150956
0.000151213
0.000151465
0.000151712
0.000151954
0.000152191
0.000152424
0.000152651
0.000152873
0.000153091
0.000153304
0.000153512
0.000153716
0.000153914
0.000154108
0.000154298
0.000154482
0.000154663
0.000154838
0.000155009
0.000155176
0.000155338
0.000155495
0.000155649
0.000155797
0.000155942
0.000156082
0.000156218
0.000156349
0.000156476
0.000156599
0.000156718
0.000156833
0.000156943
0.000157049
0.000157152
0.00015725
0.000157344
0.000157434
0.00015752
0.000157602
0.00015768
0.000157755
0.000157825
0.00015789
0.000157951
0.000158004
0.000158047
0.000158075
0.000158086
0.00015809
0.000158091
0.000158091
0.000158091
0.000158091
0.000158091
0.00015809
0.00015809
0.00015809
0.00015809
0.00015809
0.000158091
0.00015809
0.000158089
0.000158086
0.000158081
0.000158078
0.000158078
0.000158079
0.00015808
0.000158081
0.000158081
0.000158079
0.000158078
0.000158078
0.000158077
0.000158078
0.000158078
0.000158077
0.000158077
0.000158076
0.000158075
0.000158075
0.000158075
0.000158074
0.000158074
0.000158074
0.000158074
0.000158073
0.000158073
0.000158073
0.000158073
0.000158072
0.000158072
0.000158072
0.000158071
0.000158071
0.000158071
0.00015807
0.00015807
0.000158069
0.000158069
0.000158069
0.000158068
0.000158068
0.000158067
0.000158067
0.000158066
0.000158066
0.000158066
0.000158065
0.000158065
0.000158065
0.000158064
0.000158064
0.000158064
0.000158063
0.000158063
0.000158063
0.000158062
0.000158062
0.000158061
0.000158061
0.00015806
0.00015806
0.000158059
0.000158059
0.000158058
0.000158058
0.000158057
0.000158057
0.000158056
0.000158055
0.000158055
0.000158054
0.000158054
0.000158053
0.000158052
0.000158052
0.000158051
0.000158051
0.00015805
0.000158049
0.000158049
0.000158048
0.000158047
0.000158047
0.000158046
0.000158045
0.000158044
0.000158044
0.000158043
0.000158042
0.000158041
0.000158041
0.00015804
0.000158039
0.000158038
0.000158037
0.000158036
0.000158035
0.000158034
0.000158033
0.000158032
0.000158031
0.00015803
0.000158029
0.000158028
0.000158026
0.000158025
0.000158024
0.000158023
0.000158022
0.00015802
0.000158019
0.000158018
0.000158016
0.000158015
0.000158013
0.000158012
0.00015801
0.000158008
0.000158007
0.000158005
0.000158003
0.000158001
0.000157999
0.000157997
0.000157995
0.000157993
0.000157991
0.000157989
0.000157987
0.000157984
0.000157982
0.000157979
0.000157977
0.000157974
0.000157971
0.000157968
0.000157966
0.000157962
0.000157959
0.000157956
0.000157952
0.000157949
0.000157945
0.000157941
0.000157937
0.000157932
0.000157927
0.000157922
0.000157917
0.000157911
0.000157905
0.000157898
0.00015789
0.00015788
0.000157868
0.000157852
0.000157832
0.000157804
0.000157767
0.000157715
0.000157644
0.000157546
0.000157413
0.000157233
0.000156993
0.000156676
0.000156266
0.000155741
0.000155079
0.000154258
0.000153255
0.000152049
0.000150625
0.000148968
0.000147074
0.000144945
0.00014259
0.000140029
0.000137291
0.000134411
0.000131431
0.000128397
0.000125358
0.000122364
0.000119459
0.000116687
0.000114083
0.000111677
0.00010949
0.000107534
0.000105816
0.000104333
0.000103076
0.000102032
0.00010118
0.000100502
9.99718e-05
9.9568e-05
9.92678e-05
9.90506e-05
9.88979e-05
9.8794e-05
9.87259e-05
9.86833e-05
9.86582e-05
9.86446e-05
9.86384e-05
9.86365e-05
9.86364e-05
9.86368e-05
9.86378e-05
9.86394e-05
9.86413e-05
9.86433e-05
9.86452e-05
9.86469e-05
9.86484e-05
9.86497e-05
9.86507e-05
9.86515e-05
9.86523e-05
9.86529e-05
9.86534e-05
9.86538e-05
9.86542e-05
9.86546e-05
9.8655e-05
9.86553e-05
9.86556e-05
9.86559e-05
9.86562e-05
9.86565e-05
9.86567e-05
9.8657e-05
9.86573e-05
9.86576e-05
9.86578e-05
9.86581e-05
9.86583e-05
9.86586e-05
9.86588e-05
9.86591e-05
9.86593e-05
9.86595e-05
9.86597e-05
9.86598e-05
9.86599e-05
9.866e-05
9.86601e-05
9.86602e-05
9.86603e-05
9.86604e-05
9.86606e-05
9.86608e-05
9.86611e-05
9.86614e-05
9.86617e-05
9.86621e-05
9.86624e-05
9.86628e-05
9.86633e-05
9.86637e-05
9.86641e-05
9.86645e-05
9.8665e-05
9.86654e-05
9.86657e-05
9.8666e-05
9.86664e-05
9.86668e-05
9.86671e-05
9.86674e-05
9.86677e-05
9.86679e-05
9.86683e-05
9.86686e-05
9.8669e-05
9.86693e-05
9.86696e-05
9.86699e-05
9.86703e-05
9.86706e-05
9.86709e-05
9.86712e-05
9.86716e-05
9.86719e-05
9.86723e-05
9.86726e-05
9.86729e-05
9.86733e-05
9.86736e-05
9.8674e-05
9.86743e-05
9.86746e-05
9.8675e-05
9.86754e-05
9.86757e-05
9.8676e-05
9.86764e-05
9.86768e-05
9.86772e-05
9.86775e-05
9.86778e-05
9.86782e-05
9.86786e-05
9.8679e-05
9.86794e-05
9.86797e-05
9.86801e-05
9.86806e-05
9.8681e-05
9.86813e-05
9.86816e-05
9.86821e-05
9.86826e-05
9.8683e-05
9.86834e-05
9.86837e-05
9.86842e-05
9.86848e-05
9.86851e-05
9.86855e-05
9.86859e-05
9.86866e-05
9.86873e-05
9.86877e-05
9.86878e-05
9.86879e-05
9.86883e-05
9.86885e-05
9.86878e-05
9.8686e-05
9.86828e-05
9.86783e-05
9.8668e-05
9.86479e-05
9.86087e-05
9.85333e-05
9.83909e-05
9.8122e-05
9.76139e-05
9.6659e-05
9.48773e-05
9.15907e-05
8.56519e-05
7.53255e-05
5.85874e-05
3.52451e-05
1.35897e-05
3.24729e-06
5.60124e-07
8.40372e-08
1.21905e-08
1.7683e-09
2.57325e-10
3.75021e-11
5.46802e-12
7.97366e-13
1.1628e-13
1.69573e-14
2.47297e-15
3.60721e-16
5.2638e-17
7.69784e-18
1.18246e-18
2.1684e-19
7.7927e-20
5.0822e-20
4.06576e-20
5.75982e-20
3.04932e-20
3.38813e-20
1.69407e-20
1.69407e-20
1.01644e-20
2.03288e-20
2.03288e-20
3.72694e-20
2.37169e-20
1.01644e-20
0
-6.77626e-21
-3.04932e-20
-1.35525e-20
-1.69407e-20
-4.40457e-20
-2.71051e-20
-4.06576e-20
-1.69407e-20
-3.72694e-20
-2.71051e-20
-2.71051e-20
-6.77626e-21
-6.77626e-21
1.69407e-20
3.38813e-21
3.38813e-21
)
;

boundaryField
{
    sides
    {
        type            calculated;
        value           uniform 0;
    }
    empty1
    {
        type            empty;
        value           nonuniform 0();
    }
    empty2
    {
        type            empty;
        value           nonuniform 0();
    }
}


// ************************************************************************* //
