/*--------------------------------*- C++ -*----------------------------------*\
| =========                 |                                                 |
| \\      /  F ield         | OpenFOAM: The Open Source CFD Toolbox           |
|  \\    /   O peration     | Version:  v1812                                 |
|   \\  /    A nd           | Web:      www.OpenFOAM.com                      |
|    \\/     M anipulation  |                                                 |
\*---------------------------------------------------------------------------*/
FoamFile
{
    version     2.0;
    format      ascii;
    class       volScalarField;
    location    "0.25";
    object      rho;
}
// * * * * * * * * * * * * * * * * * * * * * * * * * * * * * * * * * * * * * //

dimensions      [1 -3 0 0 0 0 0];


internalField   nonuniform List<scalar> 
800
(
0.999943
0.999943
0.999943
0.999943
0.999943
0.999943
0.999943
0.999943
0.999943
0.999943
0.999943
0.999943
0.999943
0.999943
0.999943
0.999943
0.999943
0.999943
0.999943
0.999943
0.999943
0.999943
0.999943
0.999943
0.999943
0.999943
0.999943
0.999943
0.999943
0.999943
0.999943
0.999943
0.999943
0.999943
0.999943
0.999943
0.999943
0.999943
0.999943
0.999943
0.999943
0.999943
0.999943
0.999943
0.999943
0.999943
0.999943
0.999943
0.999943
0.999943
0.999943
0.999943
0.999943
0.999943
0.999943
0.999943
0.999943
0.999943
0.999943
0.999943
0.999943
0.999943
0.999943
0.999943
0.999943
0.999943
0.999943
0.999943
0.999943
0.999943
0.999943
0.999943
0.999943
0.999943
0.999943
0.999943
0.999943
0.999943
0.999943
0.999943
0.999943
0.999943
0.999943
0.999943
0.999943
0.999943
0.999943
0.999943
0.999943
0.999943
0.999943
0.999943
0.999943
0.999943
0.999943
0.999943
0.999943
0.999943
0.999943
0.999943
0.999943
0.999943
0.999943
0.999943
0.999943
0.999943
0.999943
0.999943
0.999943
0.999943
0.999943
0.999943
0.999943
0.999943
0.999943
0.999943
0.999943
0.999943
0.999943
0.999943
0.999943
0.999943
0.999943
0.999943
0.999943
0.999942
0.999942
0.999941
0.999939
0.999937
0.999934
0.999928
0.999921
0.999911
0.999896
0.999875
0.999847
0.999808
0.999756
0.999688
0.999598
0.999483
0.999336
0.999152
0.998924
0.998646
0.998309
0.997907
0.997432
0.996878
0.996239
0.995509
0.994682
0.993756
0.992727
0.991593
0.990354
0.989009
0.98756
0.986009
0.984357
0.982608
0.980765
0.978833
0.976816
0.974717
0.972542
0.970295
0.967981
0.965604
0.963168
0.960678
0.958137
0.95555
0.952919
0.950249
0.947543
0.944803
0.942033
0.939235
0.936411
0.933565
0.930697
0.927811
0.924908
0.921989
0.919056
0.916111
0.913156
0.91019
0.907217
0.904235
0.901248
0.898255
0.895258
0.892256
0.889252
0.886246
0.883238
0.880228
0.877219
0.874209
0.8712
0.868192
0.865186
0.862181
0.859178
0.856178
0.853181
0.850187
0.847196
0.844209
0.841226
0.838247
0.835272
0.832302
0.829337
0.826377
0.823422
0.820472
0.817528
0.814589
0.811655
0.808728
0.805807
0.802891
0.799982
0.797079
0.794182
0.791291
0.788408
0.78553
0.782659
0.779795
0.776938
0.774088
0.771244
0.768407
0.765577
0.762755
0.759939
0.75713
0.754329
0.751535
0.748748
0.745968
0.743195
0.74043
0.737672
0.734921
0.732177
0.729441
0.726713
0.723992
0.721278
0.718571
0.715872
0.713181
0.710497
0.707821
0.705152
0.70249
0.699836
0.697189
0.694551
0.691919
0.689295
0.686679
0.68407
0.681468
0.678875
0.676288
0.67371
0.671138
0.668575
0.666018
0.66347
0.660929
0.658395
0.655869
0.65335
0.650839
0.648336
0.64584
0.643351
0.64087
0.638396
0.63593
0.633472
0.63102
0.628576
0.62614
0.623711
0.62129
0.618876
0.616469
0.61407
0.611678
0.609293
0.606916
0.604546
0.602184
0.599829
0.597481
0.595141
0.592808
0.590482
0.588163
0.585852
0.583548
0.581251
0.578961
0.576679
0.574404
0.572136
0.569875
0.567622
0.565375
0.563136
0.560904
0.558679
0.556461
0.55425
0.552046
0.549849
0.54766
0.545477
0.543301
0.541133
0.538971
0.536816
0.534669
0.532528
0.530394
0.528267
0.526147
0.524034
0.521928
0.519828
0.517736
0.51565
0.513571
0.511499
0.509434
0.507375
0.505323
0.503278
0.50124
0.499208
0.497183
0.495165
0.493153
0.491148
0.48915
0.487158
0.485173
0.483194
0.481222
0.479257
0.477298
0.475345
0.4734
0.47146
0.469527
0.467601
0.465681
0.463767
0.46186
0.459959
0.458064
0.456176
0.454294
0.452418
0.450548
0.448685
0.446827
0.444976
0.443131
0.441292
0.43946
0.437636
0.435823
0.434027
0.432267
0.430585
0.429081
0.427927
0.427275
0.427026
0.426936
0.426886
0.426854
0.426842
0.426841
0.426844
0.426855
0.426871
0.426868
0.426855
0.42681
0.426769
0.426773
0.426829
0.426984
0.427178
0.427216
0.427199
0.427123
0.427025
0.427022
0.427041
0.427109
0.427179
0.427177
0.427162
0.427134
0.427121
0.427123
0.427137
0.427153
0.427151
0.427142
0.427139
0.42714
0.427142
0.42714
0.427139
0.427139
0.427138
0.427137
0.427136
0.427135
0.427133
0.427131
0.427128
0.427126
0.427125
0.427125
0.427124
0.427122
0.42712
0.427115
0.42711
0.427109
0.42711
0.427111
0.427109
0.427105
0.427099
0.427097
0.427097
0.427097
0.427096
0.427094
0.42709
0.427086
0.427085
0.427085
0.427084
0.427081
0.427078
0.427075
0.427075
0.427073
0.427071
0.427067
0.427063
0.427063
0.427061
0.427059
0.427055
0.427054
0.427052
0.42705
0.427046
0.427046
0.427044
0.427041
0.427037
0.427036
0.427034
0.427031
0.427028
0.427025
0.427025
0.427022
0.427019
0.427015
0.427014
0.427012
0.427009
0.427005
0.427001
0.427
0.426997
0.426994
0.42699
0.426987
0.426984
0.426981
0.426978
0.426974
0.42697
0.426967
0.426964
0.426961
0.426957
0.426953
0.426951
0.426947
0.426943
0.426938
0.426935
0.426931
0.426926
0.426921
0.426917
0.426913
0.426908
0.426903
0.426898
0.426893
0.426888
0.426883
0.426877
0.426872
0.426866
0.426859
0.426851
0.426846
0.42684
0.426833
0.426827
0.42682
0.426813
0.426806
0.426798
0.42679
0.426782
0.426773
0.426765
0.426756
0.426746
0.426736
0.426725
0.426714
0.426703
0.426691
0.426678
0.426665
0.42665
0.426635
0.426619
0.4266
0.426579
0.426555
0.426525
0.426488
0.426439
0.426374
0.426286
0.426165
0.425998
0.425769
0.425456
0.425032
0.424464
0.423712
0.42273
0.421464
0.419859
0.417853
0.415385
0.412397
0.408839
0.404669
0.399864
0.394418
0.388348
0.381695
0.374521
0.366916
0.358984
0.350846
0.34263
0.334469
0.326491
0.318816
0.31155
0.30478
0.298575
0.29298
0.28802
0.283699
0.280002
0.276898
0.27434
0.272277
0.270647
0.269388
0.268438
0.267741
0.267242
0.266896
0.266664
0.266514
0.266423
0.26637
0.266344
0.266333
0.26633
0.266331
0.266333
0.266336
0.26634
0.266346
0.266351
0.266355
0.266359
0.266363
0.266366
0.266368
0.26637
0.266371
0.266373
0.266374
0.266375
0.266375
0.266376
0.266377
0.266377
0.266378
0.266378
0.266379
0.266379
0.26638
0.26638
0.26638
0.266381
0.266381
0.266382
0.266382
0.266382
0.266383
0.266383
0.266383
0.266384
0.266384
0.266384
0.266384
0.266384
0.266383
0.266383
0.266383
0.266383
0.266384
0.266384
0.266384
0.266385
0.266385
0.266386
0.266387
0.266388
0.266389
0.26639
0.26639
0.266391
0.266392
0.266392
0.266393
0.266394
0.266394
0.266395
0.266395
0.266396
0.266396
0.266397
0.266397
0.266397
0.266398
0.266399
0.266399
0.266399
0.2664
0.2664
0.266401
0.266402
0.266402
0.266402
0.266402
0.266403
0.266404
0.266404
0.266404
0.266405
0.266406
0.266406
0.266406
0.266406
0.266407
0.266408
0.266408
0.266408
0.266408
0.266409
0.26641
0.266411
0.26641
0.266411
0.266412
0.266413
0.266413
0.266413
0.266413
0.266414
0.266415
0.266415
0.266415
0.266415
0.266417
0.266418
0.266418
0.266417
0.266418
0.26642
0.266422
0.266421
0.26642
0.26642
0.266424
0.266425
0.266422
0.266418
0.266418
0.266422
0.266417
0.266403
0.266381
0.266354
0.266293
0.266163
0.265921
0.265475
0.264634
0.263049
0.260095
0.254674
0.244961
0.228322
0.202076
0.168027
0.14033
0.128475
0.125581
0.125081
0.125006
0.124995
0.124993
0.124993
0.124993
0.124993
0.124993
0.124993
0.124993
0.124993
0.124993
0.124993
0.124993
0.124993
0.124993
0.124993
0.124993
0.124993
0.124993
0.124993
0.124993
0.124993
0.124993
0.124993
0.124993
0.124993
0.124993
0.124993
0.124993
0.124993
0.124993
0.124993
0.124993
0.124993
0.124993
0.124993
0.124993
0.124993
0.124993
0.124993
0.124993
0.124993
0.124993
0.124993
0.124993
)
;

boundaryField
{
    sides
    {
        type            calculated;
        value           nonuniform List<scalar> 2(0.124993 0.999943);
    }
    empty1
    {
        type            empty;
    }
    empty2
    {
        type            empty;
    }
}


// ************************************************************************* //
