/*--------------------------------*- C++ -*----------------------------------*\
| =========                 |                                                 |
| \\      /  F ield         | OpenFOAM: The Open Source CFD Toolbox           |
|  \\    /   O peration     | Version:  v1812                                 |
|   \\  /    A nd           | Web:      www.OpenFOAM.com                      |
|    \\/     M anipulation  |                                                 |
\*---------------------------------------------------------------------------*/
FoamFile
{
    version     2.0;
    format      ascii;
    class       volScalarField;
    location    "0.25";
    object      T;
}
// * * * * * * * * * * * * * * * * * * * * * * * * * * * * * * * * * * * * * //

dimensions      [0 0 0 1 0 0 0];


internalField   nonuniform List<scalar> 
800
(
2.5
2.5
2.5
2.5
2.5
2.5
2.5
2.5
2.5
2.5
2.5
2.5
2.5
2.5
2.5
2.5
2.5
2.5
2.5
2.5
2.5
2.5
2.5
2.5
2.5
2.5
2.5
2.5
2.5
2.5
2.5
2.5
2.5
2.5
2.5
2.5
2.5
2.5
2.5
2.5
2.5
2.5
2.5
2.5
2.5
2.5
2.5
2.5
2.5
2.5
2.5
2.5
2.5
2.5
2.5
2.5
2.5
2.5
2.5
2.5
2.5
2.5
2.5
2.5
2.5
2.5
2.5
2.5
2.5
2.5
2.5
2.5
2.5
2.5
2.5
2.5
2.5
2.5
2.5
2.5
2.5
2.5
2.5
2.5
2.5
2.5
2.5
2.5
2.5
2.5
2.5
2.5
2.5
2.5
2.5
2.5
2.5
2.5
2.5
2.5
2.5
2.5
2.5
2.5
2.5
2.5
2.5
2.5
2.5
2.5
2.5
2.5
2.5
2.5
2.5
2.5
2.5
2.5
2.5
2.5
2.5
2.5
2.5
2.5
2.5
2.5
2.5
2.5
2.5
2.49999
2.49999
2.49999
2.49998
2.49997
2.49995
2.49993
2.49991
2.49987
2.49982
2.49975
2.49967
2.49955
2.49941
2.49923
2.49901
2.49874
2.49841
2.49801
2.49755
2.497
2.49637
2.49565
2.49483
2.49392
2.49289
2.49177
2.49054
2.48919
2.48775
2.4862
2.48454
2.48279
2.48094
2.47899
2.47696
2.47484
2.47264
2.47036
2.46801
2.46559
2.46311
2.46057
2.45797
2.45532
2.45262
2.44988
2.44709
2.44427
2.4414
2.4385
2.43557
2.43261
2.42963
2.42661
2.42358
2.42052
2.41744
2.41434
2.41123
2.4081
2.40495
2.40179
2.39861
2.39543
2.39223
2.38902
2.3858
2.38257
2.37934
2.37609
2.37284
2.36959
2.36632
2.36305
2.35978
2.3565
2.35321
2.34992
2.34663
2.34334
2.34004
2.33673
2.33343
2.33012
2.32681
2.3235
2.32019
2.31687
2.31356
2.31024
2.30692
2.3036
2.30028
2.29696
2.29364
2.29031
2.28699
2.28367
2.28035
2.27702
2.2737
2.27038
2.26706
2.26374
2.26042
2.2571
2.25378
2.25046
2.24714
2.24382
2.24051
2.23719
2.23388
2.23056
2.22725
2.22394
2.22063
2.21732
2.21402
2.21071
2.20741
2.2041
2.2008
2.1975
2.1942
2.19091
2.18761
2.18432
2.18103
2.17774
2.17445
2.17116
2.16788
2.1646
2.16132
2.15804
2.15476
2.15149
2.14821
2.14494
2.14167
2.13841
2.13514
2.13188
2.12862
2.12536
2.12211
2.11885
2.1156
2.11235
2.1091
2.10586
2.10261
2.09937
2.09613
2.0929
2.08966
2.08643
2.0832
2.07997
2.07675
2.07353
2.07031
2.06709
2.06387
2.06066
2.05745
2.05424
2.05103
2.04783
2.04463
2.04143
2.03823
2.03504
2.03185
2.02866
2.02547
2.02229
2.01911
2.01593
2.01275
2.00958
2.00641
2.00324
2.00007
1.99691
1.99375
1.99059
1.98744
1.98428
1.98113
1.97798
1.97484
1.9717
1.96856
1.96542
1.96228
1.95915
1.95602
1.95289
1.94977
1.94665
1.94353
1.94041
1.9373
1.93419
1.93108
1.92797
1.92487
1.92177
1.91867
1.91558
1.91248
1.90939
1.90631
1.90322
1.90014
1.89706
1.89398
1.89091
1.88784
1.88477
1.88171
1.87864
1.87558
1.87253
1.86947
1.86642
1.86337
1.86032
1.85728
1.85424
1.8512
1.84816
1.84513
1.8421
1.83907
1.83605
1.83303
1.83001
1.82699
1.82398
1.82097
1.81796
1.81495
1.81194
1.80894
1.80594
1.80295
1.79996
1.79697
1.79399
1.79104
1.78813
1.78535
1.78285
1.78095
1.77988
1.77948
1.77933
1.77925
1.7792
1.77918
1.77918
1.77919
1.77922
1.77924
1.77924
1.77922
1.77915
1.77909
1.7791
1.7792
1.77947
1.77978
1.77985
1.77982
1.7797
1.77954
1.77954
1.77958
1.77971
1.77982
1.77981
1.77979
1.77974
1.77974
1.77974
1.77977
1.77981
1.77981
1.7798
1.7798
1.77981
1.77981
1.77982
1.77982
1.77982
1.77983
1.77983
1.77983
1.77983
1.77984
1.77984
1.77984
1.77984
1.77984
1.77985
1.77985
1.77985
1.77986
1.77985
1.77986
1.77986
1.77987
1.77988
1.77988
1.77988
1.77988
1.77988
1.77989
1.7799
1.7799
1.7799
1.7799
1.77991
1.77991
1.77992
1.77992
1.77993
1.77993
1.77993
1.77994
1.77995
1.77995
1.77995
1.77996
1.77997
1.77997
1.77998
1.77998
1.77999
1.77999
1.78
1.78
1.78001
1.78002
1.78002
1.78003
1.78004
1.78004
1.78005
1.78005
1.78006
1.78007
1.78008
1.78008
1.78009
1.7801
1.78011
1.78012
1.78012
1.78013
1.78014
1.78015
1.78016
1.78017
1.78019
1.7802
1.78021
1.78022
1.78023
1.78024
1.78025
1.78026
1.78028
1.78029
1.7803
1.78031
1.78033
1.78034
1.78035
1.78037
1.78038
1.7804
1.78041
1.78043
1.78045
1.78047
1.78048
1.7805
1.78052
1.78054
1.78056
1.78058
1.7806
1.78063
1.78065
1.78067
1.78069
1.78072
1.78075
1.78077
1.7808
1.78083
1.78086
1.78089
1.78093
1.78096
1.78099
1.78103
1.78107
1.7811
1.78115
1.78119
1.78123
1.78128
1.78133
1.78138
1.78144
1.78149
1.78156
1.78162
1.7817
1.78179
1.78189
1.78201
1.78216
1.78237
1.78264
1.783
1.78351
1.78421
1.78516
1.78648
1.78826
1.79065
1.79383
1.798
1.80339
1.81029
1.81898
1.82979
1.84304
1.85908
1.87824
1.90081
1.92705
1.95718
1.9913
2.02943
2.0715
2.11727
2.16639
2.21833
2.27246
2.32799
2.38403
2.43964
2.49382
2.54566
2.59427
2.63895
2.67914
2.71452
2.74495
2.77054
2.79154
2.80836
2.82149
2.83147
2.83885
2.84415
2.84784
2.85032
2.85192
2.8529
2.85346
2.85375
2.85387
2.8539
2.8539
2.85388
2.85385
2.8538
2.85375
2.8537
2.85365
2.85361
2.85358
2.85355
2.85353
2.85351
2.8535
2.85349
2.85348
2.85347
2.85347
2.85346
2.85346
2.85346
2.85345
2.85345
2.85345
2.85345
2.85345
2.85345
2.85344
2.85344
2.85344
2.85344
2.85344
2.85344
2.85344
2.85344
2.85345
2.85345
2.85345
2.85345
2.85346
2.85346
2.85347
2.85347
2.85347
2.85348
2.85348
2.85348
2.85348
2.85348
2.85347
2.85347
2.85347
2.85346
2.85345
2.85345
2.85344
2.85344
2.85343
2.85343
2.85343
2.85343
2.85342
2.85342
2.85342
2.85342
2.85342
2.85342
2.85342
2.85342
2.85342
2.85342
2.85342
2.85342
2.85342
2.85342
2.85342
2.85342
2.85342
2.85342
2.85342
2.85342
2.85342
2.85342
2.85342
2.85343
2.85343
2.85343
2.85343
2.85343
2.85343
2.85343
2.85343
2.85343
2.85343
2.85344
2.85344
2.85344
2.85344
2.85344
2.85344
2.85345
2.85345
2.85345
2.85345
2.85345
2.85346
2.85345
2.85345
2.85345
2.85346
2.85347
2.85346
2.85346
2.85346
2.85347
2.85348
2.85347
2.85347
2.85347
2.85349
2.85349
2.85348
2.85346
2.85347
2.85347
2.85344
2.85338
2.85331
2.85319
2.85292
2.85238
2.85138
2.84951
2.84595
2.83916
2.82619
2.80132
2.75342
2.662
2.49933
2.27357
2.08848
2.0172
2.00266
2.00039
2.00006
2.00001
2
2
2
2
2
2
2
2
2
2
2
2
2
2
2
2
2
2
2
2
2
2
2
2
2
2
2
2
2
2
2
2
2
2
2
2
2
2
2
2
2
2
2
)
;

boundaryField
{
    sides
    {
        type            zeroGradient;
    }
    empty1
    {
        type            empty;
    }
    empty2
    {
        type            empty;
    }
}


// ************************************************************************* //
