/*--------------------------------*- C++ -*----------------------------------*\
| =========                 |                                                 |
| \\      /  F ield         | OpenFOAM: The Open Source CFD Toolbox           |
|  \\    /   O peration     | Version:  v1812                                 |
|   \\  /    A nd           | Web:      www.OpenFOAM.com                      |
|    \\/     M anipulation  |                                                 |
\*---------------------------------------------------------------------------*/
FoamFile
{
    version     2.0;
    format      ascii;
    class       volVectorField;
    location    "0.25";
    object      U;
}
// * * * * * * * * * * * * * * * * * * * * * * * * * * * * * * * * * * * * * //

dimensions      [0 1 -1 0 0 0 0];


internalField   nonuniform List<vector> 
800
(
(-2.56821e-17 0 0)
(-2.14808e-16 0 0)
(-4.84374e-16 0 0)
(-5.79321e-16 0 0)
(-3.07714e-16 0 0)
(-2.10902e-16 0 0)
(-3.35865e-16 0 0)
(-3.52665e-16 0 0)
(3.91101e-16 0 0)
(5.68781e-16 0 0)
(3.66258e-16 0 0)
(3.49314e-16 0 0)
(-2.85014e-16 0 0)
(-9.62835e-16 0 0)
(-9.55605e-16 0 0)
(-1.24017e-15 0 0)
(-1.56181e-15 0 0)
(-1.54094e-15 0 0)
(-1.44427e-15 0 0)
(-1.80242e-15 0 0)
(-2.08182e-15 0 0)
(-1.97481e-15 0 0)
(-1.67575e-15 0 0)
(-2.03503e-15 0 0)
(-2.20514e-15 0 0)
(-1.87454e-15 0 0)
(-1.47743e-15 0 0)
(-1.25065e-15 0 0)
(-1.23482e-15 0 0)
(-7.99908e-16 0 0)
(-2.30235e-16 0 0)
(-1.46238e-17 0 0)
(-6.19325e-16 0 0)
(-1.03222e-15 0 0)
(-9.28077e-16 0 0)
(-8.02367e-16 0 0)
(-6.14121e-16 0 0)
(-3.70384e-16 0 0)
(-1.67136e-16 0 0)
(-5.0752e-17 0 0)
(-4.15147e-16 0 0)
(-1.0202e-15 0 0)
(-1.01731e-15 0 0)
(-8.83259e-16 0 0)
(-1.11813e-15 0 0)
(-1.7247e-15 0 0)
(-2.08514e-15 0 0)
(-1.8184e-15 0 0)
(-2.14554e-15 0 0)
(-2.13338e-15 0 0)
(-2.22204e-15 0 0)
(-2.45483e-15 0 0)
(-2.41189e-15 0 0)
(-1.83929e-15 0 0)
(-1.82321e-15 0 0)
(-1.85375e-15 0 0)
(-2.05341e-15 0 0)
(-1.89294e-15 0 0)
(-1.52348e-15 0 0)
(-1.61059e-15 0 0)
(-1.97519e-15 0 0)
(-1.96513e-15 0 0)
(-2.33212e-15 0 0)
(-2.5379e-15 0 0)
(-2.61239e-15 0 0)
(-2.21757e-15 0 0)
(-2.28139e-15 0 0)
(-2.6049e-15 0 0)
(-2.95956e-15 0 0)
(-3.20485e-15 0 0)
(-3.08083e-15 0 0)
(-3.00349e-15 0 0)
(-3.26667e-15 0 0)
(-3.70939e-15 0 0)
(-3.64475e-15 0 0)
(-3.22373e-15 0 0)
(-3.02608e-15 0 0)
(-3.26028e-15 0 0)
(-2.95166e-15 0 0)
(-2.84448e-15 0 0)
(-2.81098e-15 0 0)
(-2.67168e-15 0 0)
(-2.62056e-15 0 0)
(-2.185e-15 0 0)
(-1.4397e-15 0 0)
(-6.92126e-16 0 0)
(-7.55723e-16 0 0)
(-7.44785e-16 0 0)
(-1.22761e-16 0 0)
(-3.10219e-17 0 0)
(-1.18692e-16 0 0)
(-5.92612e-17 0 0)
(5.29069e-16 0 0)
(1.55915e-15 0 0)
(3.40362e-15 0 0)
(7.52349e-15 0 0)
(1.54107e-14 0 0)
(3.37662e-14 0 0)
(7.21511e-14 0 0)
(1.52087e-13 0 0)
(3.16512e-13 0 0)
(6.51548e-13 0 0)
(1.33053e-12 0 0)
(2.69325e-12 0 0)
(5.40151e-12 0 0)
(1.07386e-11 0 0)
(2.11542e-11 0 0)
(4.12961e-11 0 0)
(7.98706e-11 0 0)
(1.53035e-10 0 0)
(2.90433e-10 0 0)
(5.45877e-10 0 0)
(1.01596e-09 0 0)
(1.87208e-09 0 0)
(3.41496e-09 0 0)
(6.16587e-09 0 0)
(1.10177e-08 0 0)
(1.94814e-08 0 0)
(3.40816e-08 0 0)
(5.89837e-08 0 0)
(1.00972e-07 0 0)
(1.70951e-07 0 0)
(2.86212e-07 0 0)
(4.73804e-07 0 0)
(7.75451e-07 0 0)
(1.2546e-06 0 0)
(2.00635e-06 0 0)
(3.17112e-06 0 0)
(4.95317e-06 0 0)
(7.64507e-06 0 0)
(1.16593e-05 0 0)
(1.75681e-05 0 0)
(2.61526e-05 0 0)
(3.84609e-05 0 0)
(5.58755e-05 0 0)
(8.01888e-05 0 0)
(0.000113682 0 0)
(0.000159206 0 0)
(0.000220258 0 0)
(0.000301043 0 0)
(0.000406524 0 0)
(0.000542432 0 0)
(0.00071526 0 0)
(0.000932198 0 0)
(0.00120104 0 0)
(0.00153006 0 0)
(0.00192782 0 0)
(0.00240296 0 0)
(0.00296401 0 0)
(0.00361913 0 0)
(0.00437594 0 0)
(0.00524127 0 0)
(0.00622102 0 0)
(0.00732007 0 0)
(0.00854213 0 0)
(0.00988979 0 0)
(0.0113645 0 0)
(0.0129664 0 0)
(0.0146949 0 0)
(0.0165483 0 0)
(0.0185241 0 0)
(0.0206191 0 0)
(0.0228294 0 0)
(0.025151 0 0)
(0.0275791 0 0)
(0.0301091 0 0)
(0.032736 0 0)
(0.0354548 0 0)
(0.0382605 0 0)
(0.0411483 0 0)
(0.0441133 0 0)
(0.0471509 0 0)
(0.0502566 0 0)
(0.0534262 0 0)
(0.0566557 0 0)
(0.0599411 0 0)
(0.0632789 0 0)
(0.0666656 0 0)
(0.0700981 0 0)
(0.0735734 0 0)
(0.0770886 0 0)
(0.0806411 0 0)
(0.0842286 0 0)
(0.0878487 0 0)
(0.0914993 0 0)
(0.0951786 0 0)
(0.0988846 0 0)
(0.102616 0 0)
(0.10637 0 0)
(0.110147 0 0)
(0.113944 0 0)
(0.117761 0 0)
(0.121596 0 0)
(0.125448 0 0)
(0.129317 0 0)
(0.133201 0 0)
(0.137099 0 0)
(0.14101 0 0)
(0.144935 0 0)
(0.148871 0 0)
(0.152819 0 0)
(0.156777 0 0)
(0.160746 0 0)
(0.164725 0 0)
(0.168713 0 0)
(0.172709 0 0)
(0.176714 0 0)
(0.180726 0 0)
(0.184746 0 0)
(0.188774 0 0)
(0.192807 0 0)
(0.196848 0 0)
(0.200894 0 0)
(0.204947 0 0)
(0.209004 0 0)
(0.213068 0 0)
(0.217136 0 0)
(0.221209 0 0)
(0.225287 0 0)
(0.229369 0 0)
(0.233455 0 0)
(0.237546 0 0)
(0.24164 0 0)
(0.245738 0 0)
(0.24984 0 0)
(0.253945 0 0)
(0.258053 0 0)
(0.262165 0 0)
(0.266279 0 0)
(0.270397 0 0)
(0.274517 0 0)
(0.27864 0 0)
(0.282766 0 0)
(0.286894 0 0)
(0.291024 0 0)
(0.295157 0 0)
(0.299292 0 0)
(0.303429 0 0)
(0.307568 0 0)
(0.311709 0 0)
(0.315852 0 0)
(0.319997 0 0)
(0.324143 0 0)
(0.328291 0 0)
(0.332441 0 0)
(0.336593 0 0)
(0.340746 0 0)
(0.3449 0 0)
(0.349056 0 0)
(0.353213 0 0)
(0.357372 0 0)
(0.361532 0 0)
(0.365693 0 0)
(0.369855 0 0)
(0.374018 0 0)
(0.378183 0 0)
(0.382348 0 0)
(0.386515 0 0)
(0.390682 0 0)
(0.394851 0 0)
(0.39902 0 0)
(0.403191 0 0)
(0.407362 0 0)
(0.411534 0 0)
(0.415706 0 0)
(0.41988 0 0)
(0.424054 0 0)
(0.428229 0 0)
(0.432405 0 0)
(0.436581 0 0)
(0.440758 0 0)
(0.444936 0 0)
(0.449114 0 0)
(0.453293 0 0)
(0.457472 0 0)
(0.461652 0 0)
(0.465832 0 0)
(0.470013 0 0)
(0.474194 0 0)
(0.478375 0 0)
(0.482557 0 0)
(0.48674 0 0)
(0.490923 0 0)
(0.495106 0 0)
(0.499289 0 0)
(0.503473 0 0)
(0.507658 0 0)
(0.511842 0 0)
(0.516027 0 0)
(0.520212 0 0)
(0.524397 0 0)
(0.528583 0 0)
(0.532768 0 0)
(0.536954 0 0)
(0.54114 0 0)
(0.545327 0 0)
(0.549513 0 0)
(0.5537 0 0)
(0.557887 0 0)
(0.562074 0 0)
(0.566261 0 0)
(0.570448 0 0)
(0.574635 0 0)
(0.578823 0 0)
(0.58301 0 0)
(0.587197 0 0)
(0.591385 0 0)
(0.595573 0 0)
(0.59976 0 0)
(0.603948 0 0)
(0.608136 0 0)
(0.612323 0 0)
(0.616511 0 0)
(0.620699 0 0)
(0.624886 0 0)
(0.629074 0 0)
(0.633262 0 0)
(0.637449 0 0)
(0.641637 0 0)
(0.645824 0 0)
(0.650012 0 0)
(0.654199 0 0)
(0.658386 0 0)
(0.662573 0 0)
(0.66676 0 0)
(0.670947 0 0)
(0.675134 0 0)
(0.679321 0 0)
(0.683508 0 0)
(0.687694 0 0)
(0.691881 0 0)
(0.696067 0 0)
(0.700253 0 0)
(0.704439 0 0)
(0.708625 0 0)
(0.712811 0 0)
(0.716997 0 0)
(0.721182 0 0)
(0.725367 0 0)
(0.729552 0 0)
(0.733737 0 0)
(0.737922 0 0)
(0.742107 0 0)
(0.746291 0 0)
(0.750476 0 0)
(0.75466 0 0)
(0.758844 0 0)
(0.763027 0 0)
(0.767211 0 0)
(0.771394 0 0)
(0.775577 0 0)
(0.77976 0 0)
(0.783943 0 0)
(0.788125 0 0)
(0.792307 0 0)
(0.796489 0 0)
(0.800671 0 0)
(0.804853 0 0)
(0.809034 0 0)
(0.813215 0 0)
(0.817395 0 0)
(0.821576 0 0)
(0.825756 0 0)
(0.829936 0 0)
(0.834116 0 0)
(0.838295 0 0)
(0.842475 0 0)
(0.846654 0 0)
(0.850833 0 0)
(0.855012 0 0)
(0.859191 0 0)
(0.86337 0 0)
(0.867548 0 0)
(0.871727 0 0)
(0.875906 0 0)
(0.880086 0 0)
(0.884265 0 0)
(0.888444 0 0)
(0.892622 0 0)
(0.896799 0 0)
(0.900971 0 0)
(0.905133 0 0)
(0.909268 0 0)
(0.913338 0 0)
(0.917239 0 0)
(0.920738 0 0)
(0.92342 0 0)
(0.924928 0 0)
(0.925501 0 0)
(0.925715 0 0)
(0.925832 0 0)
(0.92591 0 0)
(0.925934 0 0)
(0.925939 0 0)
(0.92593 0 0)
(0.925898 0 0)
(0.925869 0 0)
(0.925865 0 0)
(0.925895 0 0)
(0.926003 0 0)
(0.926101 0 0)
(0.92609 0 0)
(0.925955 0 0)
(0.925578 0 0)
(0.925129 0 0)
(0.925032 0 0)
(0.925071 0 0)
(0.925262 0 0)
(0.925474 0 0)
(0.925497 0 0)
(0.925448 0 0)
(0.925276 0 0)
(0.925118 0 0)
(0.925124 0 0)
(0.925163 0 0)
(0.925226 0 0)
(0.925253 0 0)
(0.925247 0 0)
(0.925206 0 0)
(0.925166 0 0)
(0.92517 0 0)
(0.92519 0 0)
(0.925194 0 0)
(0.925189 0 0)
(0.925184 0 0)
(0.925185 0 0)
(0.925187 0 0)
(0.925186 0 0)
(0.925187 0 0)
(0.925187 0 0)
(0.925188 0 0)
(0.925189 0 0)
(0.92519 0 0)
(0.925192 0 0)
(0.925197 0 0)
(0.9252 0 0)
(0.9252 0 0)
(0.925197 0 0)
(0.925196 0 0)
(0.925197 0 0)
(0.9252 0 0)
(0.925211 0 0)
(0.925218 0 0)
(0.925219 0 0)
(0.925213 0 0)
(0.925207 0 0)
(0.925209 0 0)
(0.925218 0 0)
(0.925227 0 0)
(0.925231 0 0)
(0.925228 0 0)
(0.925225 0 0)
(0.925226 0 0)
(0.925229 0 0)
(0.925236 0 0)
(0.925242 0 0)
(0.925243 0 0)
(0.925239 0 0)
(0.92524 0 0)
(0.925242 0 0)
(0.925248 0 0)
(0.925251 0 0)
(0.925248 0 0)
(0.925248 0 0)
(0.925251 0 0)
(0.925257 0 0)
(0.92526 0 0)
(0.925257 0 0)
(0.925258 0 0)
(0.92526 0 0)
(0.925264 0 0)
(0.925263 0 0)
(0.925264 0 0)
(0.925266 0 0)
(0.92527 0 0)
(0.925268 0 0)
(0.925269 0 0)
(0.925272 0 0)
(0.925276 0 0)
(0.925273 0 0)
(0.925274 0 0)
(0.925277 0 0)
(0.92528 0 0)
(0.925283 0 0)
(0.925279 0 0)
(0.92528 0 0)
(0.925284 0 0)
(0.925287 0 0)
(0.925286 0 0)
(0.925287 0 0)
(0.925288 0 0)
(0.925292 0 0)
(0.925295 0 0)
(0.925293 0 0)
(0.925294 0 0)
(0.925295 0 0)
(0.925297 0 0)
(0.925299 0 0)
(0.9253 0 0)
(0.9253 0 0)
(0.925301 0 0)
(0.925303 0 0)
(0.925306 0 0)
(0.925307 0 0)
(0.925306 0 0)
(0.925307 0 0)
(0.925309 0 0)
(0.925311 0 0)
(0.92531 0 0)
(0.925311 0 0)
(0.925313 0 0)
(0.925315 0 0)
(0.925314 0 0)
(0.925315 0 0)
(0.925317 0 0)
(0.925319 0 0)
(0.925319 0 0)
(0.925319 0 0)
(0.92532 0 0)
(0.925322 0 0)
(0.925324 0 0)
(0.925323 0 0)
(0.925323 0 0)
(0.925325 0 0)
(0.925327 0 0)
(0.925327 0 0)
(0.925328 0 0)
(0.925332 0 0)
(0.925336 0 0)
(0.925335 0 0)
(0.925335 0 0)
(0.925335 0 0)
(0.925336 0 0)
(0.925336 0 0)
(0.925336 0 0)
(0.925335 0 0)
(0.925336 0 0)
(0.925337 0 0)
(0.925338 0 0)
(0.925338 0 0)
(0.925339 0 0)
(0.925339 0 0)
(0.92534 0 0)
(0.925341 0 0)
(0.925342 0 0)
(0.925342 0 0)
(0.925343 0 0)
(0.925343 0 0)
(0.925344 0 0)
(0.925345 0 0)
(0.925346 0 0)
(0.925346 0 0)
(0.925346 0 0)
(0.925347 0 0)
(0.925348 0 0)
(0.925349 0 0)
(0.925349 0 0)
(0.92535 0 0)
(0.925351 0 0)
(0.925351 0 0)
(0.925352 0 0)
(0.925353 0 0)
(0.925353 0 0)
(0.925354 0 0)
(0.925355 0 0)
(0.925356 0 0)
(0.925356 0 0)
(0.925357 0 0)
(0.925358 0 0)
(0.92536 0 0)
(0.925362 0 0)
(0.925366 0 0)
(0.925372 0 0)
(0.92538 0 0)
(0.92539 0 0)
(0.925404 0 0)
(0.925422 0 0)
(0.925445 0 0)
(0.925472 0 0)
(0.925504 0 0)
(0.92554 0 0)
(0.92558 0 0)
(0.925623 0 0)
(0.925666 0 0)
(0.925709 0 0)
(0.92575 0 0)
(0.925787 0 0)
(0.925819 0 0)
(0.925844 0 0)
(0.925863 0 0)
(0.925877 0 0)
(0.925885 0 0)
(0.925888 0 0)
(0.925889 0 0)
(0.925888 0 0)
(0.925885 0 0)
(0.925883 0 0)
(0.925881 0 0)
(0.925879 0 0)
(0.925878 0 0)
(0.925878 0 0)
(0.925878 0 0)
(0.925878 0 0)
(0.925879 0 0)
(0.92588 0 0)
(0.925881 0 0)
(0.925881 0 0)
(0.925882 0 0)
(0.925883 0 0)
(0.925883 0 0)
(0.925884 0 0)
(0.925885 0 0)
(0.925885 0 0)
(0.925886 0 0)
(0.925886 0 0)
(0.925887 0 0)
(0.925887 0 0)
(0.925888 0 0)
(0.925889 0 0)
(0.92589 0 0)
(0.925891 0 0)
(0.925892 0 0)
(0.925893 0 0)
(0.925894 0 0)
(0.925894 0 0)
(0.925895 0 0)
(0.925896 0 0)
(0.925897 0 0)
(0.925898 0 0)
(0.925899 0 0)
(0.925899 0 0)
(0.9259 0 0)
(0.925901 0 0)
(0.925902 0 0)
(0.925904 0 0)
(0.925905 0 0)
(0.925907 0 0)
(0.925908 0 0)
(0.92591 0 0)
(0.92591 0 0)
(0.925911 0 0)
(0.925911 0 0)
(0.925913 0 0)
(0.925914 0 0)
(0.925915 0 0)
(0.925916 0 0)
(0.925916 0 0)
(0.925917 0 0)
(0.925919 0 0)
(0.92592 0 0)
(0.925921 0 0)
(0.925923 0 0)
(0.925926 0 0)
(0.925927 0 0)
(0.925926 0 0)
(0.925927 0 0)
(0.925929 0 0)
(0.92593 0 0)
(0.925932 0 0)
(0.925932 0 0)
(0.925932 0 0)
(0.925933 0 0)
(0.925934 0 0)
(0.925935 0 0)
(0.925936 0 0)
(0.925937 0 0)
(0.925939 0 0)
(0.925942 0 0)
(0.925943 0 0)
(0.925943 0 0)
(0.925943 0 0)
(0.925945 0 0)
(0.925948 0 0)
(0.925949 0 0)
(0.925949 0 0)
(0.925949 0 0)
(0.925951 0 0)
(0.925954 0 0)
(0.925956 0 0)
(0.925956 0 0)
(0.925956 0 0)
(0.925958 0 0)
(0.925961 0 0)
(0.925963 0 0)
(0.925964 0 0)
(0.925964 0 0)
(0.925966 0 0)
(0.925969 0 0)
(0.925971 0 0)
(0.925972 0 0)
(0.925971 0 0)
(0.925973 0 0)
(0.925977 0 0)
(0.92598 0 0)
(0.92598 0 0)
(0.92598 0 0)
(0.925982 0 0)
(0.925985 0 0)
(0.925988 0 0)
(0.925988 0 0)
(0.925988 0 0)
(0.925991 0 0)
(0.925995 0 0)
(0.925998 0 0)
(0.925997 0 0)
(0.925997 0 0)
(0.926 0 0)
(0.926004 0 0)
(0.926007 0 0)
(0.926006 0 0)
(0.926006 0 0)
(0.926009 0 0)
(0.926014 0 0)
(0.926017 0 0)
(0.926015 0 0)
(0.926016 0 0)
(0.92602 0 0)
(0.926026 0 0)
(0.926029 0 0)
(0.926025 0 0)
(0.926026 0 0)
(0.92603 0 0)
(0.926039 0 0)
(0.926042 0 0)
(0.926034 0 0)
(0.926034 0 0)
(0.926043 0 0)
(0.926058 0 0)
(0.926055 0 0)
(0.926044 0 0)
(0.926037 0 0)
(0.926053 0 0)
(0.926066 0 0)
(0.926053 0 0)
(0.926011 0 0)
(0.925984 0 0)
(0.925976 0 0)
(0.925907 0 0)
(0.925708 0 0)
(0.925373 0 0)
(0.924803 0 0)
(0.923686 0 0)
(0.921517 0 0)
(0.917431 0 0)
(0.909766 0 0)
(0.895355 0 0)
(0.868354 0 0)
(0.818248 0 0)
(0.727126 0 0)
(0.569127 0 0)
(0.339386 0 0)
(0.125099 0 0)
(0.0262228 0 0)
(0.00388003 0 0)
(0.000537222 0 0)
(7.6313e-05 0 0)
(1.10481e-05 0 0)
(1.60962e-06 0 0)
(2.3478e-07 0 0)
(3.42421e-08 0 0)
(4.99375e-09 0 0)
(7.28251e-10 0 0)
(1.06204e-10 0 0)
(1.54881e-11 0 0)
(2.26012e-12 0 0)
(3.30553e-13 0 0)
(4.89455e-14 0 0)
(7.4698e-15 0 0)
(2.38391e-15 0 0)
(1.21536e-15 0 0)
(9.0192e-16 0 0)
(1.00593e-15 0 0)
(9.60869e-16 0 0)
(6.80857e-16 0 0)
(5.38102e-16 0 0)
(2.03429e-16 0 0)
(1.29302e-16 0 0)
(1.86285e-16 0 0)
(5.12206e-16 0 0)
(5.3167e-16 0 0)
(4.64183e-16 0 0)
(2.55511e-16 0 0)
(3.96786e-16 0 0)
(6.78153e-17 0 0)
(-4.18997e-16 0 0)
(-2.8447e-16 0 0)
(-3.66356e-16 0 0)
(-6.42275e-16 0 0)
(-8.52199e-16 0 0)
(-6.16647e-16 0 0)
(-5.49289e-16 0 0)
(-4.92797e-16 0 0)
(-8.37888e-16 0 0)
(-9.74129e-16 0 0)
(-5.17712e-16 0 0)
(5.15984e-17 0 0)
(1.14117e-16 0 0)
(-5.54187e-17 0 0)
(-1.40252e-16 0 0)
(2.58225e-16 0 0)
)
;

boundaryField
{
    sides
    {
        type            fixedValue;
        value           uniform (0 0 0);
    }
    empty1
    {
        type            empty;
    }
    empty2
    {
        type            empty;
    }
}


// ************************************************************************* //
