/*--------------------------------*- C++ -*----------------------------------*\
| =========                 |                                                 |
| \\      /  F ield         | OpenFOAM: The Open Source CFD Toolbox           |
|  \\    /   O peration     | Version:  v1812                                 |
|   \\  /    A nd           | Web:      www.OpenFOAM.com                      |
|    \\/     M anipulation  |                                                 |
\*---------------------------------------------------------------------------*/
FoamFile
{
    version     2.0;
    format      ascii;
    class       volScalarField;
    location    "1.5";
    object      p;
}
// * * * * * * * * * * * * * * * * * * * * * * * * * * * * * * * * * * * * * //

dimensions      [1 -1 -2 0 0 0 0];


internalField   nonuniform List<scalar> 
20400
(
99630.1
99630.2
99630.1
99630.1
99629.9
99629.6
99629.2
99628.7
99628.1
99627.4
99626.8
99626.1
99625.5
99624.9
99624.3
99623.8
99623.4
99623
99622.6
99622.4
99622.2
99622.1
99622.1
99622.1
99622.1
99622
99621.8
99621.3
99620.5
99619.1
99617.3
99614.7
99611.5
99607.5
99602.7
99597.1
99590.9
99584.4
99577
99571.4
99562
99553.2
99541.8
99529.9
99516.2
99500.7
99484.8
99468.6
99453.5
99440.1
99429.1
99421.9
99417.4
99418.4
99424
99434.2
99449.6
99471.4
99497.6
99527.8
99567.6
99605.7
99650.6
99695.3
99742.7
99789.7
99836.7
99882.1
99925.2
99965.2
100002
100033
100061
100083
100101
100113
100124
100131
100135
100136
100134
100131
100127
100122
100116
100111
100104
100096
100087
100074
100059
100040
100027
100005
99984
99959.2
99933.2
99907.9
99883.9
99863.5
99845.8
99834
99824.6
99822.7
99829.4
99842.2
99860.1
99888.1
99915.2
99949.9
99983.7
100020
100055
100089
100119
100148
100172
100190
100206
100221
100232
100242
100247
100251
100252
100250
100248
100244
100240
100234
100229
100223
100218
100212
100207
100203
100198
100194
100191
100187
100184
100182
100179
100177
100174
100172
100170
100168
100166
100163
100160
100157
100153
100148
100144
100140
100134
100129
100124
100119
100115
100112
100109
100108
100107
100107
100107
100108
100108
100109
100110
100110
100111
100111
100112
100112
100112
100112
100112
100112
100112
100113
100115
100117
100121
100125
100132
100140
100151
100163
100177
100194
100212
100230
100248
100266
100283
100300
100315
100330
100342
100354
100361
100370
100378
100385
100391
100397
100402
100406
100409
100412
100415
100416
100418
100419
100420
100421
100422
100422
100422
100422
100422
100422
100421
100420
100419
100419
100417
100416
100415
100414
100414
100414
100415
100416
100418
100420
100422
100424
100425
100427
100428
100428
100428
100428
100426
100425
100422
100419
100415
100411
100407
100402
100397
100393
100388
100384
100380
100377
100375
100374
100373
100374
100375
100378
100381
100386
100392
100398
100406
100415
100425
100437
100449
100462
100476
100491
100505
100519
100533
100548
100562
100577
100591
100603
100618
100626
100638
100648
100659
100669
100678
100686
100693
100700
100705
100710
100714
100718
100720
100722
100723
100724
100724
100723
100722
100721
100719
100718
100715
100713
100711
100710
100709
100709
100709
100710
100711
100713
100714
100716
100717
100719
100720
100720
100721
100721
100720
100720
100719
100718
100717
100716
100715
100714
100713
100712
100711
100711
100711
100711
100711
100712
100713
100715
100717
100720
100724
100728
100733
100739
100745
100753
100761
100771
100781
100792
100802
100813
100824
100835
100846
100857
100869
100880
100890
100901
100910
100921
100926
100934
100941
100948
100955
100961
100966
100971
100975
100978
100981
100984
100986
100988
100989
100991
100992
100992
100993
100993
100993
100993
100993
100993
100993
100994
100994
100995
100995
100996
100997
100998
100999
101000
101001
101002
101002
101003
101003
101004
101004
101005
101005
101005
101005
101006
101006
101006
101006
101007
101007
101007
101008
101009
101010
101011
101013
101015
101018
101021
101026
101030
101036
101044
101051
101059
101068
101078
101088
101098
101109
101120
101130
101141
101152
101162
101173
101182
101191
101200
101208
101215
101222
101230
101232
101236
101240
101244
101248
101250
101253
101255
101256
101257
101259
101259
101260
101261
101261
101262
101263
101264
101265
101266
101267
101268
101269
101271
101272
101274
101276
101278
101280
101283
101285
101287
101289
101291
101293
101295
101297
101298
101300
101302
101305
101307
101309
101312
101315
101319
99630.2
99630.3
99630.2
99630.1
99629.7
99629.4
99628.8
99628.3
99627.6
99626.9
99626.1
99625.4
99624.7
99624.1
99623.5
99622.9
99622.4
99622
99621.8
99621.6
99621.6
99621.6
99621.8
99621.9
99622.1
99622.1
99622
99621.4
99620.7
99619.1
99617.1
99614.1
99610.4
99605.8
99601.5
99597.3
99593
99587.9
99582.2
99572.9
99565
99554.5
99543.5
99530.4
99515.9
99500.4
99484.2
99467.6
99452
99437.7
99425.8
99417.1
99410.4
99409.5
99415.8
99427.3
99445.9
99470.4
99499.7
99534.5
99571.4
99610.1
99651.3
99694.2
99738.8
99783.7
99828.6
99872.5
99914.6
99954.2
99990.6
100023
100052
100077
100096
100113
100124
100130
100134
100136
100134
100131
100127
100122
100117
100111
100104
100096
100088
100080
100069
100055
100031
100008
99983.2
99955.8
99928.5
99901.1
99875.7
99853.3
99835.1
99823
99816.3
99817.5
99827.7
99838.2
99852.8
99872.4
99896.8
99925.4
99957.3
99992.6
100029
100065
100100
100131
100159
100187
100207
100223
100234
100241
100246
100249
100250
100249
100246
100243
100238
100233
100228
100223
100218
100212
100207
100202
100198
100194
100191
100188
100185
100183
100180
100178
100175
100173
100171
100169
100167
100164
100162
100159
100155
100151
100145
100140
100136
100131
100127
100123
100119
100116
100114
100111
100109
100107
100104
100105
100105
100105
100106
100106
100107
100108
100108
100108
100108
100107
100107
100106
100106
100106
100107
100110
100114
100121
100128
100139
100150
100163
100176
100187
100200
100215
100232
100248
100265
100282
100299
100314
100329
100342
100358
100369
100379
100386
100393
100398
100403
100406
100410
100412
100415
100417
100418
100420
100421
100422
100422
100423
100423
100423
100423
100422
100422
100421
100420
100419
100418
100417
100417
100417
100417
100417
100417
100418
100418
100419
100420
100422
100423
100424
100426
100426
100427
100426
100426
100424
100422
100419
100416
100412
100407
100402
100397
100392
100387
100382
100377
100373
100370
100368
100368
100370
100372
100376
100381
100386
100394
100402
100412
100421
100432
100443
100454
100465
100473
100484
100496
100509
100522
100536
100550
100564
100577
100592
100605
100623
100636
100649
100660
100670
100679
100688
100695
100701
100707
100712
100715
100719
100721
100723
100724
100725
100725
100724
100723
100721
100719
100717
100717
100715
100714
100714
100713
100713
100713
100713
100713
100714
100715
100715
100716
100716
100717
100717
100717
100717
100717
100716
100715
100714
100713
100712
100711
100709
100708
100707
100706
100706
100706
100706
100707
100708
100710
100712
100715
100719
100724
100729
100736
100742
100750
100756
100766
100775
100780
100787
100796
100805
100815
100826
100837
100848
100859
100870
100881
100891
100902
100910
100924
100933
100942
100949
100956
100962
100967
100972
100976
100979
100982
100985
100987
100989
100990
100991
100992
100993
100993
100993
100995
100995
100996
100996
100996
100997
100997
100998
100998
100999
100999
100999
100999
100999
100998
100999
100999
100999
101000
101000
101000
101000
101001
101001
101001
101001
101001
101002
101002
101002
101002
101002
101003
101004
101005
101007
101009
101012
101015
101020
101025
101030
101038
101044
101050
101056
101064
101073
101082
101091
101101
101112
101122
101133
101143
101154
101164
101174
101184
101193
101201
101209
101216
101222
101230
101237
101241
101245
101248
101251
101254
101256
101258
101259
101261
101262
101263
101264
101265
101266
101266
101267
101268
101269
101270
101271
101273
101274
101275
101277
101278
101278
101279
101280
101282
101283
101286
101287
101289
101291
101294
101296
101299
101302
101305
101308
101311
101314
101315
101320
99630.3
99630.4
99630.3
99630.2
99629.9
99629.7
99629.2
99628.8
99628.3
99627.7
99627.2
99626.6
99626
99625.4
99624.9
99624.4
99623.9
99623.5
99623.2
99622.8
99622.7
99622.4
99622.5
99622.4
99622.5
99622.5
99622.3
99621.6
99620.6
99619.2
99617.1
99614.6
99611.5
99607.7
99603.2
99597.4
99591.8
99585.6
99579.3
99573.1
99565.3
99555.8
99544.4
99531
99515.4
99497.5
99478.1
99457.2
99437.3
99419.1
99405.3
99395.7
99391.7
99395.1
99403
99412.5
99426.9
99447.1
99472
99502.7
99539.1
99580
99624.6
99671.7
99720.6
99769.7
99818.1
99864.7
99908.8
99949.9
99987.4
100021
100050
100074
100094
100109
100121
100128
100132
100133
100131
100129
100126
100124
100115
100112
100107
100101
100092
100080
100066
100049
100030
100007
99979.2
99950.4
99921.1
99894.4
99871
99850.6
99834.5
99822.2
99813.5
99807.9
99809
99823.4
99843.1
99870
99899.2
99932.9
99968
100004
100040
100074
100106
100136
100161
100182
100201
100216
100227
100236
100242
100245
100247
100246
100243
100240
100236
100231
100225
100220
100215
100210
100205
100200
100196
100192
100189
100186
100183
100181
100179
100177
100175
100172
100170
100169
100167
100165
100162
100159
100155
100151
100146
100140
100133
100127
100122
100117
100113
100110
100108
100106
100106
100106
100109
100109
100110
100111
100112
100113
100114
100115
100115
100116
100116
100116
100117
100117
100117
100118
100119
100121
100123
100126
100130
100136
100145
100156
100170
100189
100207
100226
100245
100263
100280
100297
100313
100327
100340
100351
100360
100369
100377
100384
100391
100396
100401
100405
100409
100412
100414
100417
100418
100420
100421
100422
100422
100423
100423
100423
100423
100423
100422
100421
100420
100419
100417
100416
100414
100413
100413
100413
100414
100415
100417
100419
100421
100424
100426
100428
100429
100430
100430
100430
100429
100427
100424
100421
100417
100413
100408
100403
100398
100393
100389
100385
100382
100379
100377
100376
100374
100374
100375
100377
100379
100383
100389
100395
100402
100411
100420
100431
100444
100457
100473
100488
100503
100517
100532
100546
100560
100574
100588
100601
100614
100625
100637
100648
100659
100669
100678
100687
100694
100701
100707
100712
100716
100719
100722
100724
100725
100725
100725
100725
100724
100722
100720
100717
100714
100712
100710
100708
100707
100707
100708
100709
100711
100712
100714
100716
100718
100720
100722
100723
100723
100724
100724
100724
100723
100722
100721
100720
100719
100718
100717
100716
100715
100715
100714
100714
100714
100714
100715
100716
100718
100720
100723
100727
100731
100737
100742
100750
100757
100765
100778
100790
100801
100812
100823
100834
100845
100856
100868
100879
100889
100900
100909
100919
100927
100934
100942
100949
100956
100962
100967
100972
100976
100979
100982
100985
100987
100989
100990
100991
100992
100993
100993
100993
100993
100993
100993
100993
100993
100993
100993
100994
100995
100995
100996
100997
100999
101000
101002
101003
101004
101005
101006
101006
101007
101007
101008
101008
101008
101009
101009
101009
101009
101010
101010
101010
101011
101012
101012
101014
101015
101017
101019
101022
101025
101029
101033
101040
101048
101058
101067
101077
101087
101097
101108
101119
101130
101141
101152
101162
101173
101182
101192
101200
101208
101215
101222
101227
101232
101237
101241
101245
101249
101251
101254
101255
101257
101258
101259
101260
101260
101261
101261
101262
101262
101263
101264
101265
101266
101267
101269
101270
101272
101274
101276
101279
101282
101285
101286
101289
101291
101293
101294
101296
101298
101299
101301
101303
101304
101306
101308
101310
101311
101317
99630.5
99630.6
99630.5
99630.3
99629.9
99629.4
99628.7
99628
99627.2
99626.4
99625.6
99624.8
99624.1
99623.4
99622.7
99622.1
99621.6
99621.1
99620.8
99620.7
99620.8
99621.1
99621.4
99621.9
99622.3
99622.7
99622.8
99622.9
99622.6
99621.2
99619.6
99616.5
99612.5
99607.9
99603.4
99598.9
99594.7
99589.8
99584.2
99576.3
99567.3
99555.7
99541.5
99523.9
99503.4
99481.3
99459.4
99438.7
99420.7
99404.2
99391.5
99381.5
99374.7
99371.4
99375.2
99389.5
99409.7
99436.2
99465.8
99500.5
99537.3
99577.8
99620.6
99665.6
99711.7
99758.6
99805.3
99850.8
99894.5
99935.5
99973.2
100007
100037
100063
100085
100103
100116
100126
100131
100133
100133
100129
100125
100121
100118
100113
100107
100101
100093
100083
100069
100050
100025
99997
99967.3
99935.6
99904.3
99872.9
99844
99817.8
99798.3
99784.5
99780.1
99784
99791.4
99802.6
99818.9
99841.5
99869.4
99902.5
99938.5
99976.6
100015
100053
100089
100121
100150
100175
100195
100211
100223
100231
100236
100239
100241
100240
100238
100234
100230
100225
100220
100215
100210
100205
100200
100195
100191
100188
100184
100181
100179
100177
100175
100173
100172
100170
100169
100167
100166
100165
100163
100160
100156
100151
100146
100140
100135
100129
100124
100119
100115
100112
100109
100107
100105
100104
100104
100104
100105
100105
100106
100107
100109
100110
100110
100110
100110
100109
100108
100106
100105
100103
100103
100105
100108
100113
100120
100129
100140
100153
100165
100179
100195
100211
100229
100247
100265
100282
100299
100315
100330
100343
100355
100366
100375
100383
100390
100395
100400
100404
100408
100411
100413
100416
100417
100419
100420
100421
100422
100422
100423
100423
100423
100422
100422
100421
100420
100418
100417
100416
100415
100415
100414
100414
100415
100415
100417
100418
100420
100422
100424
100426
100428
100429
100429
100429
100429
100427
100425
100422
100419
100414
100409
100403
100397
100391
100385
100379
100374
100370
100366
100364
100363
100364
100366
100370
100375
100381
100389
100397
100406
100415
100425
100436
100446
100457
100469
100481
100494
100507
100521
100535
100550
100564
100579
100593
100607
100621
100634
100646
100658
100668
100678
100686
100694
100701
100707
100712
100716
100720
100722
100724
100725
100726
100726
100725
100724
100722
100720
100717
100715
100713
100712
100710
100710
100709
100710
100710
100711
100713
100714
100715
100716
100717
100718
100718
100719
100718
100718
100717
100716
100715
100714
100712
100711
100709
100708
100707
100706
100705
100704
100704
100705
100706
100707
100710
100713
100716
100721
100726
100732
100738
100745
100752
100760
100767
100775
100784
100794
100804
100814
100825
100836
100848
100859
100871
100882
100893
100904
100914
100924
100933
100941
100949
100956
100962
100967
100972
100976
100980
100983
100985
100988
100989
100991
100992
100993
100993
100994
100994
100994
100994
100995
100995
100995
100996
100996
100996
100997
100998
100998
100999
100999
100999
100999
100999
100999
101000
101000
101000
101001
101001
101001
101001
101002
101002
101002
101002
101002
101002
101002
101002
101003
101003
101004
101006
101007
101010
101013
101017
101022
101027
101033
101039
101045
101053
101061
101070
101080
101090
101101
101111
101122
101133
101144
101155
101166
101176
101186
101195
101204
101212
101220
101226
101232
101238
101242
101246
101250
101252
101255
101257
101258
101260
101261
101262
101263
101263
101264
101265
101265
101266
101267
101268
101269
101270
101271
101273
101274
101276
101277
101278
101280
101281
101282
101284
101286
101288
101290
101292
101294
101296
101299
101301
101305
101307
101311
101314
101316
101318
99630.9
99630.9
99630.8
99630.6
99630.3
99629.8
99629.4
99628.8
99628.3
99627.7
99627.1
99626.5
99625.9
99625.3
99624.6
99624
99623.5
99623
99622.6
99622.2
99622.1
99622.2
99622.3
99622.7
99623.2
99623.8
99624.1
99624.1
99623.6
99622.5
99620.6
99618
99614.8
99610.8
99606.5
99601.1
99596
99590.5
99584.5
99576.6
99565.6
99550.7
99532.7
99512.1
99490
99466.1
99441.3
99416.1
99392.2
99369.9
99352.7
99340.5
99335.7
99338.2
99344.9
99356.8
99374.4
99398.6
99427.2
99462.1
99501
99544.2
99590
99638.4
99687.8
99737.9
99787.4
99835.5
99881.4
99924.4
99963.8
99999.1
100030
100057
100079
100096
100110
100120
100126
100129
100130
100129
100126
100124
100118
100114
100109
100104
100095
100083
100065
100043
100016
99985.4
99951.9
99917.8
99884.9
99854.7
99828.6
99805.7
99787.7
99774.7
99766.4
99766.1
99773.4
99787.2
99807.3
99833.2
99863.1
99897
99933.4
99971.5
100010
100047
100082
100113
100141
100164
100184
100199
100212
100221
100227
100231
100232
100232
100230
100227
100223
100218
100213
100208
100202
100197
100192
100187
100183
100179
100176
100173
100171
100169
100167
100166
100165
100165
100164
100163
100163
100161
100160
100158
100154
100149
100144
100137
100131
100125
100119
100114
100110
100106
100104
100103
100102
100103
100104
100105
100106
100108
100110
100112
100113
100114
100114
100115
100114
100114
100113
100112
100110
100109
100108
100109
100110
100113
100118
100125
100135
100147
100162
100178
100196
100214
100232
100250
100268
100285
100301
100316
100330
100342
100353
100363
100372
100379
100386
100392
100397
100402
100405
100408
100411
100413
100415
100417
100418
100419
100420
100421
100421
100421
100421
100421
100420
100420
100419
100417
100416
100414
100413
100412
100412
100412
100413
100414
100416
100419
100421
100424
100426
100429
100431
100432
100433
100433
100432
100430
100427
100424
100419
100414
100408
100402
100396
100390
100384
100379
100374
100370
100367
100365
100364
100364
100365
100368
100371
100376
100382
100389
100398
100407
100417
100428
100440
100453
100467
100480
100494
100508
100522
100536
100550
100565
100579
100592
100606
100619
100632
100644
100655
100666
100675
100684
100692
100699
100705
100711
100715
100719
100721
100724
100725
100725
100725
100724
100723
100721
100718
100715
100713
100710
100708
100707
100706
100706
100707
100708
100710
100712
100714
100716
100718
100720
100722
100723
100724
100724
100724
100723
100722
100721
100720
100718
100717
100715
100714
100713
100711
100710
100710
100709
100709
100709
100710
100711
100713
100716
100719
100723
100728
100733
100740
100747
100755
100764
100774
100784
100794
100805
100816
100827
100838
100849
100861
100872
100883
100894
100904
100914
100923
100932
100940
100948
100955
100961
100966
100971
100975
100979
100982
100985
100987
100989
100990
100991
100992
100993
100993
100993
100993
100993
100993
100993
100993
100993
100994
100994
100995
100996
100997
100998
100999
101000
101001
101002
101003
101004
101004
101005
101005
101006
101006
101007
101007
101007
101007
101008
101008
101008
101008
101008
101008
101008
101008
101009
101010
101012
101014
101017
101020
101025
101030
101037
101044
101053
101061
101071
101081
101091
101102
101113
101124
101135
101147
101158
101168
101178
101188
101197
101206
101214
101221
101227
101233
101238
101242
101246
101250
101252
101255
101256
101258
101259
101260
101260
101261
101261
101262
101262
101263
101263
101264
101265
101266
101267
101269
101270
101272
101274
101276
101278
101280
101283
101285
101287
101289
101291
101293
101295
101297
101298
101300
101301
101304
101306
101309
101311
101315
101317
99631.3
99631.3
99631.1
99630.8
99630.4
99629.8
99629.1
99628.3
99627.5
99626.7
99625.9
99625.1
99624.4
99623.6
99622.9
99622.1
99621.4
99620.8
99620.4
99620.2
99620.3
99620.6
99621.2
99622.2
99623.2
99624.3
99625.2
99626
99626.3
99625.6
99624
99621.6
99618.2
99614.1
99610
99606
99601.6
99595.8
99587.6
99576.2
99562
99544.7
99523.7
99499.2
99471.8
99442.9
99414.5
99387.6
99364.1
99343.4
99326.9
99315.1
99307.7
99308.9
99317.7
99333.2
99354.6
99382.6
99414.1
99450.4
99489.2
99531.3
99575.5
99622
99670
99719.1
99768.3
99816.7
99863.3
99907.1
99947.7
99984.4
100017
100046
100070
100089
100105
100116
100123
100128
100131
100130
100128
100125
100121
100117
100112
100105
100096
100081
100061
100035
100004
99969.8
99933.5
99896.5
99860.6
99826.5
99796.9
99772
99754.4
99742.9
99737.9
99740.1
99747.7
99761
99779.7
99804.7
99834.5
99869.1
99906.8
99946.7
99987.3
100027
100064
100098
100127
100152
100173
100189
100201
100210
100216
100220
100222
100221
100219
100217
100213
100208
100203
100198
100193
100187
100182
100177
100172
100168
100165
100162
100160
100158
100157
100156
100155
100155
100155
100156
100156
100156
100155
100154
100151
100147
100142
100136
100130
100124
100118
100113
100109
100106
100103
100102
100101
100100
100101
100101
100103
100104
100106
100108
100109
100110
100111
100111
100110
100109
100107
100104
100102
100101
100100
100100
100102
100106
100113
100121
100131
100143
100157
100172
100188
100205
100223
100241
100259
100277
100293
100309
100323
100336
100348
100358
100368
100376
100383
100389
100394
100398
100402
100405
100408
100410
100412
100414
100415
100416
100417
100418
100418
100419
100419
100419
100418
100417
100416
100415
100414
100413
100412
100412
100412
100412
100413
100414
100416
100418
100421
100423
100426
100428
100430
100432
100433
100433
100432
100431
100428
100424
100420
100414
100408
100401
100393
100386
100379
100372
100367
100362
100359
100357
100356
100357
100359
100363
100367
100373
100380
100388
100397
100406
100416
100427
100438
100449
100461
100474
100487
100501
100515
100529
100543
100557
100572
100586
100600
100614
100627
100640
100652
100662
100673
100682
100690
100697
100703
100708
100712
100716
100719
100721
100722
100723
100723
100722
100720
100719
100717
100714
100712
100709
100708
100706
100706
100706
100707
100708
100709
100711
100713
100715
100717
100719
100720
100721
100721
100721
100720
100719
100718
100717
100715
100713
100711
100710
100708
100707
100705
100704
100704
100703
100704
100704
100706
100707
100710
100713
100717
100721
100727
100733
100739
100746
100754
100761
100770
100779
100789
100799
100810
100821
100832
100844
100855
100867
100878
100889
100900
100911
100921
100930
100939
100946
100953
100960
100965
100970
100974
100978
100981
100984
100986
100988
100989
100990
100991
100991
100992
100992
100992
100992
100993
100993
100993
100993
100994
100995
100995
100996
100997
100998
100998
100999
101000
101000
101000
101001
101001
101002
101002
101002
101003
101003
101003
101003
101003
101003
101003
101003
101003
101003
101003
101003
101004
101005
101006
101008
101010
101013
101017
101022
101028
101034
101041
101048
101057
101066
101076
101086
101097
101108
101119
101131
101142
101153
101164
101175
101185
101195
101204
101212
101219
101226
101232
101237
101242
101246
101249
101252
101254
101256
101258
101259
101260
101260
101261
101261
101262
101262
101263
101264
101264
101265
101267
101268
101269
101271
101272
101274
101276
101278
101279
101281
101283
101285
101287
101289
101291
101292
101295
101297
101300
101301
101305
101307
101312
101313
101318
101318
99632
99631.9
99631.7
99631.4
99631
99630.3
99629.7
99628.9
99628.2
99627.5
99626.8
99626.1
99625.2
99624.5
99623.7
99622.8
99622
99621.2
99620.7
99620.3
99620.3
99620.6
99621.3
99622.4
99623.7
99625.2
99626.4
99627.5
99628.1
99628
99627
99625.5
99623.1
99620.2
99616.7
99612.1
99606.6
99599.2
99589.6
99576.9
99559.6
99537.8
99511.7
99483.2
99452.8
99421.4
99389.9
99359.1
99331.2
99307
99289.1
99277.5
99272.4
99275.2
99284
99299.9
99321.1
99349.3
99381.4
99418.8
99459.2
99503
99549
99597.3
99647.1
99698.1
99749.4
99799.8
99848.2
99893.7
99935.6
99973.5
100007
100036
100061
100082
100099
100113
100122
100127
100130
100131
100131
100129
100127
100123
100117
100109
100097
100079
100056
100026
99991.8
99954.2
99915.3
99877
99841.3
99808.9
99781.5
99758.5
99741.8
99730.4
99724.7
99726.5
99734.4
99748.9
99768.9
99795
99825.6
99860.3
99897.8
99937.1
99976.7
100015
100052
100084
100113
100137
100158
100174
100187
100196
100203
100207
100209
100209
100207
100205
100201
100197
100192
100186
100180
100175
100169
100164
100159
100155
100151
100148
100145
100143
100142
100142
100142
100142
100143
100144
100145
100146
100146
100145
100143
100140
100136
100130
100124
100118
100112
100107
100103
100100
100098
100097
100096
100097
100098
100100
100102
100104
100106
100108
100109
100111
100112
100112
100111
100110
100108
100106
100104
100102
100101
100101
100103
100106
100112
100120
100129
100142
100155
100171
100188
100205
100223
100241
100259
100275
100291
100306
100320
100333
100344
100354
100363
100371
100378
100384
100389
100394
100398
100401
100404
100406
100408
100410
100411
100413
100413
100414
100415
100415
100415
100415
100415
100414
100413
100413
100412
100411
100410
100410
100410
100410
100412
100413
100415
100418
100421
100424
100427
100430
100432
100433
100435
100435
100434
100432
100429
100424
100419
100413
100406
100399
100391
100384
100377
100371
100366
100361
100358
100355
100354
100355
100356
100359
100363
100368
100375
100382
100391
100401
100411
100422
100434
100446
100459
100472
100486
100499
100513
100527
100541
100555
100569
100583
100596
100610
100622
100635
100647
100658
100668
100677
100685
100692
100699
100704
100708
100712
100715
100717
100718
100719
100719
100718
100717
100715
100713
100711
100708
100706
100705
100704
100703
100704
100705
100706
100708
100710
100713
100715
100717
100719
100721
100722
100723
100723
100723
100722
100721
100719
100718
100716
100714
100712
100711
100709
100708
100706
100705
100705
100705
100705
100706
100707
100709
100712
100715
100719
100724
100729
100736
100743
100751
100759
100769
100778
100788
100799
100809
100820
100831
100843
100854
100865
100876
100888
100898
100909
100918
100928
100936
100944
100951
100957
100963
100968
100972
100975
100979
100981
100983
100985
100987
100988
100989
100989
100990
100990
100990
100990
100990
100991
100991
100992
100992
100993
100994
100995
100996
100997
100998
100999
101000
101000
101001
101002
101003
101003
101004
101004
101005
101005
101005
101006
101006
101006
101005
101005
101005
101005
101004
101004
101004
101005
101006
101007
101010
101012
101016
101020
101026
101032
101039
101047
101056
101065
101075
101086
101096
101107
101119
101130
101141
101153
101164
101174
101184
101194
101203
101211
101218
101225
101231
101236
101240
101244
101248
101250
101253
101254
101256
101257
101258
101258
101259
101259
101260
101260
101261
101262
101263
101264
101265
101266
101268
101269
101271
101273
101275
101277
101279
101281
101283
101285
101288
101290
101292
101294
101296
101298
101300
101302
101305
101307
101312
101313
101320
101318
99632.6
99632.4
99632.4
99631.8
99631.4
99630.6
99629.9
99629
99628.2
99627.3
99626.4
99625.5
99624.7
99623.7
99622.8
99621.7
99620.9
99619.8
99619.2
99618.8
99618.8
99619.4
99620.4
99622
99623.8
99625.9
99627.9
99629.8
99631.1
99631.9
99632
99631.2
99629.8
99627.7
99624.8
99620.9
99615.4
99607.2
99594.8
99578
99556.8
99531.6
99501.8
99469.7
99434.7
99399.7
99365.6
99333.7
99305.7
99281.6
99263.9
99251.8
99246.5
99250.1
99260.2
99278.2
99301.5
99331.5
99365
99403
99443.3
99486.4
99531.3
99578.6
99627.7
99678.5
99730.1
99781.5
99831.2
99878.1
99921.7
99961.2
99996.5
100027
100054
100076
100094
100109
100120
100129
100134
100136
100136
100134
100132
100128
100122
100112
100098
100078
100051
100018
99980.1
99939.9
99898.9
99858.6
99821.1
99787.5
99759.5
99736.3
99720
99709.1
99704.3
99706.8
99714.6
99729
99748.4
99774
99804.3
99839.1
99877.1
99917.4
99958.3
99998.3
100036
100069
100098
100123
100144
100160
100173
100182
100188
100192
100195
100195
100193
100191
100187
100183
100178
100172
100166
100160
100154
100149
100143
100139
100135
100131
100128
100126
100125
100124
100125
100126
100127
100128
100130
100132
100133
100134
100134
100132
100129
100125
100120
100115
100110
100105
100101
100098
100096
100094
100093
100093
100094
100096
100098
100100
100102
100104
100106
100108
100109
100109
100108
100108
100106
100104
100102
100101
100100
100101
100103
100107
100112
100120
100130
100142
100155
100170
100186
100203
100220
100237
100254
100270
100286
100301
100314
100327
100338
100348
100357
100365
100372
100379
100384
100389
100393
100396
100399
100402
100404
100405
100407
100408
100409
100409
100410
100410
100410
100410
100410
100410
100409
100409
100408
100408
100408
100408
100408
100409
100411
100412
100415
100417
100420
100423
100426
100429
100431
100433
100434
100434
100433
100431
100428
100423
100418
100411
100404
100396
100388
100380
100372
100365
100360
100355
100351
100349
100348
100349
100351
100355
100359
100365
100372
100380
100388
100398
100408
100419
100430
100442
100454
100466
100479
100493
100506
100520
100534
100548
100562
100576
100590
100603
100617
100629
100641
100652
100662
100672
100680
100687
100693
100699
100703
100706
100709
100711
100712
100712
100713
100712
100711
100710
100708
100706
100705
100704
100703
100702
100702
100703
100704
100705
100707
100709
100712
100714
100716
100718
100719
100720
100721
100721
100720
100720
100718
100717
100715
100713
100711
100709
100708
100706
100705
100704
100703
100702
100702
100702
100703
100705
100707
100710
100713
100717
100722
100728
100734
100741
100748
100756
100765
100774
100784
100794
100804
100815
100826
100837
100849
100860
100872
100883
100894
100905
100915
100924
100933
100941
100948
100954
100960
100965
100969
100972
100975
100978
100980
100982
100983
100984
100985
100986
100987
100987
100988
100988
100988
100989
100989
100990
100991
100992
100993
100994
100995
100996
100997
100998
100998
100999
101000
101000
101001
101002
101002
101003
101003
101003
101003
101004
101004
101004
101003
101003
101003
101002
101002
101002
101002
101002
101003
101005
101007
101010
101013
101018
101023
101029
101036
101044
101052
101061
101071
101081
101092
101103
101114
101126
101137
101149
101160
101171
101181
101191
101200
101208
101216
101222
101228
101234
101238
101242
101245
101248
101250
101252
101254
101255
101256
101257
101257
101258
101258
101259
101260
101261
101262
101263
101264
101266
101267
101269
101271
101272
101274
101276
101278
101280
101283
101285
101287
101289
101291
101293
101296
101298
101301
101303
101307
101308
101313
101314
101322
101318
99633.7
99633.5
99633.2
99632.7
99632.1
99631.3
99630.5
99629.6
99628.7
99627.7
99626.8
99625.8
99624.8
99623.7
99622.7
99621.5
99620.5
99619.2
99618.7
99618.1
99618.1
99618.8
99620
99621.7
99623.8
99626.4
99628.9
99631.5
99633.7
99635.6
99636.9
99637.8
99637.9
99636.9
99635.3
99631.7
99624.8
99614.2
99599.3
99580
99555.5
99527
99492.4
99457
99418.9
99381.2
99344.2
99310.1
99280.4
99255.3
99237.3
99225.2
99220.1
99223.8
99234.2
99252.7
99276.7
99307.8
99342.5
99381.5
99422.7
99466.4
99511.8
99559.5
99609
99660.5
99713.2
99765.9
99817.1