/*--------------------------------*- C++ -*----------------------------------*\
| =========                 |                                                 |
| \\      /  F ield         | OpenFOAM: The Open Source CFD Toolbox           |
|  \\    /   O peration     | Version:  v1812                                 |
|   \\  /    A nd           | Web:      www.OpenFOAM.com                      |
|    \\/     M anipulation  |                                                 |
\*---------------------------------------------------------------------------*/
FoamFile
{
    version     2.0;
    format      ascii;
    class       surfaceScalarField;
    location    "1.5";
    object      phi;
}
// * * * * * * * * * * * * * * * * * * * * * * * * * * * * * * * * * * * * * //

dimensions      [1 0 -1 0 0 0 0];
oriented        oriented;


internalField   nonuniform List<scalar> 
40240
(
-6.72684e-05
-5.61915e-05
-5.93976e-05
-0.000131341
4.06845e-07
-0.000183242
0.000102663
-0.000225687
0.00023382
-0.000254538
0.000367684
-0.000257202
0.000488188
-0.000243769
0.000581787
-0.000216787
0.000644458
-0.000185762
0.000678531
-0.00015706
0.000687694
-0.000132027
0.000681598
-0.000116644
0.000662545
-0.000103543
0.000637726
-9.76254e-05
0.000609344
-9.38999e-05
0.000579705
-9.24718e-05
0.000547949
-9.01765e-05
0.000513354
-8.71333e-05
0.000473495
-8.16822e-05
0.000429423
-7.72709e-05
0.000382805
-7.45125e-05
0.000338467
-7.65352e-05
0.000305545
-8.77384e-05
0.000299691
-0.000114661
0.000337038
-0.00015768
0.00043544
-0.000218432
0.000618753
-0.000303072
0.000907567
-0.000408379
0.00130587
-0.00051763
0.00182752
-0.000640644
0.00245145
-0.000742739
0.00311243
-0.000779539
0.00379243
-0.000798296
0.00441786
-0.000743565
0.0048615
-0.000561534
0.00509194
-0.000348213
0.00511622
-0.000141822
0.00491762
8.11653e-05
0.00450409
0.000296436
0.00444764
-6.03078e-05
0.00421316
0.000117976
0.0035227
0.000574351
0.00253061
0.000876369
0.0011347
0.00128076
-0.000561744
0.00158163
-0.00284297
0.00216698
-0.00571104
0.00275441
-0.00914878
0.00332478
-0.013077
0.00381616
-0.0173711
0.0041825
-0.0218155
0.00433398
-0.0262189
0.00429338
-0.0303592
0.00403133
-0.0340353
0.00356818
-0.037218
0.00307546
-0.0398833
0.00255908
-0.0419502
0.00196162
-0.0433288
0.00127443
-0.0442046
0.000772138
-0.044434
0.000128037
-0.0441171
-0.000419654
-0.0431399
-0.00107785
-0.0416613
-0.00157938
-0.0397401
-0.00202152
-0.037408
-0.00243218
-0.0346782
-0.00282978
-0.0316188
-0.00315929
-0.0282853
-0.0034334
-0.0247508
-0.00363454
-0.0210884
-0.0037626
-0.01737
-0.00381907
-0.0136705
-0.00380059
-0.0100738
-0.00369871
-0.00666941
-0.00350747
-0.00368754
-0.00308647
-0.00123233
-0.00256177
0.00123932
-0.00257994
0.00353478
-0.00240632
0.00534207
-0.00192037
0.00667915
-0.00145108
0.00758387
-0.00101794
0.00821158
-0.000738734
0.00869971
-0.000595332
0.00912734
-0.000531683
0.00942307
-0.000395983
0.00979817
-0.000471311
0.0102936
-0.000588161
0.0108271
-0.000624826
0.0111069
-0.000371094
0.0109064
0.00010667
0.00993191
0.000878464
0.00872082
0.00111308
0.00754553
0.00107525
0.0055177
0.00192897
0.00292328
0.0024936
-5.75771e-05
0.0028811
-0.00358182
0.00342347
-0.00755883
0.00387801
-0.0116784
0.00402213
-0.0157515
0.00397719
-0.0196047
0.00375995
-0.0231932
0.00349741
-0.0263363
0.00305392
-0.028941
0.00251796
-0.0307096
0.00168468
-0.0318008
0.00100839
-0.0320959
0.000213709
-0.0317485
-0.000427797
-0.0306402
-0.00118769
-0.028946
-0.00177337
-0.0267137
-0.00231071
-0.0240929
-0.00269936
-0.0211428
-0.00302858
-0.0179933
-0.00322842
-0.0146968
-0.00337649
-0.0114372
-0.0033373
-0.00873999
-0.00277896
-0.0060858
-0.00273539
-0.00331293
-0.0028563
-0.000663547
-0.00273333
0.00199001
-0.00273842
0.00451272
-0.00260898
0.00674658
-0.00232112
0.00867945
-0.00202116
0.0103208
-0.00173035
0.0116727
-0.00144133
0.0127547
-0.00117196
0.0135753
-0.000910495
0.0141249
-0.000639319
0.0143974
-0.000361535
0.0144465
-0.000137256
0.0143614
-1.6336e-06
0.0140596
0.000216185
0.0135275
0.000448057
0.0128486
0.000596618
0.0120353
0.000733042
0.0111285
0.000828321
0.0101601
0.000892408
0.00915962
0.000926726
0.00815895
0.000928585
0.00718144
0.00090679
0.00624526
0.000866703
0.00536571
0.000811304
0.00455587
0.000742532
0.00382963
0.000659481
0.00320651
0.000556543
0.0027032
0.000436877
0.00231776
0.000319114
0.00202491
0.000226515
0.00177759
0.000180966
0.00151534
0.000195887
0.00119107
0.000257992
0.000769006
0.000355979
0.000311195
0.000392007
-0.000121219
0.000367064
-0.000742577
0.000555921
-0.00147853
0.000670797
-0.0022302
0.000686937
-0.00297232
0.00067784
-0.00365864
0.000622632
-0.00426709
0.000545265
-0.00478071
0.000450989
-0.00519554
0.000352833
-0.00551893
0.000261448
-0.00575671
0.000176244
-0.00589427
7.59738e-05
-0.00599547
3.9264e-05
-0.00602241
-3.32665e-05
-0.00601154
-6.94651e-05
-0.00599204
-7.69401e-05
-0.00597696
-7.154e-05
-0.00598319
-4.94052e-05
-0.00604221
4.10274e-06
-0.0061852
8.87664e-05
-0.00642433
0.000185513
-0.00678001
0.000302747
-0.0072678
0.000435443
-0.00790192
0.000582339
-0.00868855
0.000735401
-0.00962577
0.000886559
-0.0107008
0.00102485
-0.0118921
0.00114168
-0.0131765
0.0012353
-0.0145275
0.00130229
-0.0159105
0.00133479
-0.0172616
0.00130341
-0.0185267
0.00121771
-0.0195863
0.00101287
-0.020331
0.000698026
-0.0207648
0.000388145
-0.0208312
2.22749e-05
-0.0205377
-0.000336983
-0.0199301
-0.000651359
-0.0190512
-0.000922453
-0.0179196
-0.00117529
-0.0165878
-0.00137517
-0.0150861
-0.00154483
-0.0134685
-0.00166039
-0.0117833
-0.00172783
-0.0100789
-0.00174678
-0.00839403
-0.00172711
-0.00677615
-0.00166018
-0.00580183
-0.00101669
-0.0047361
-0.00110781
-0.00356895
-0.00120924
-0.00248613
-0.00112488
-0.00150458
-0.00102367
-0.000663352
-0.000883492
4.12809e-05
-0.000747084
0.000631052
-0.000632365
0.00110126
-0.000513019
0.00144895
-0.000390556
0.00167835
-0.000272433
0.00181617
-0.000180781
0.0018488
-7.55929e-05
0.00182217
-1.59189e-05
0.00171839
6.12603e-05
0.00156451
0.000111616
0.00137444
0.000148077
0.00115903
0.000173803
0.000920781
0.000197037
0.000658848
0.000221212
0.000374393
0.000244223
6.81226e-05
0.000266475
-0.000256461
0.000285243
-0.00061243
0.000317131
-0.000992351
0.0003415
-0.0013841
0.000353794
-0.00174142
0.000319748
-0.00204007
0.000261529
-0.00246152
0.000384671
-0.00294197
0.000444212
-0.00335926
0.000381707
-0.00368542
0.000291176
-0.00390483
0.000184994
-0.00399266
5.39577e-05
-0.00396381
-6.21789e-05
-0.00383866
-0.0001581
-0.00363345
-0.000237752
-0.00336025
-0.000305453
-0.00304986
-0.000342413
-0.00271965
-0.000362113
-0.00239286
-0.000358494
-0.0020926
-0.000331967
-0.00181227
-0.000311869
-0.00157232
-0.000271341
-0.00139336
-0.000210264
-0.00135088
-7.35615e-05
-0.00138336
1.40879e-06
-0.00157057
0.000156357
-0.00185663
0.000255234
-0.002295
0.000407692
-0.00285973
0.000534181
-0.00356378
0.000673603
-0.00438634
0.000792248
-0.00530838
0.000891882
-0.00629785
0.000959419
-0.0073237
0.000996002
-0.00835834
0.0010049
-0.00938006
0.000992204
-0.0103783
0.000968991
-0.0113391
0.000931548
-0.0122463
0.000878348
-0.0130918
0.000817007
-0.0138684
0.000748239
-0.0145656
0.000669174
-0.0151688
0.000575441
-0.0157033
0.000507069
-0.0161618
0.000431359
-0.0165182
0.000329552
-0.016779
0.000234369
-0.0169398
0.000134622
-0.0169943
2.8824e-05
-0.0169132
-0.00010635
-0.0167108
-0.000227546
-0.0163523
-0.000383026
-0.0158857
-0.000491292
-0.0153506
-0.000559474
-0.0147438
-0.000630908
-0.014057
-0.000710741
-0.0132833
-0.000797449
-0.0124345
-0.000872235
-0.011493
-0.000965077
-0.0104895
-0.00102607
-0.00937507
-0.00113809
-0.00825749
-0.00114151
-0.007236
-0.00104457
-0.00661176
-0.000645917
-0.00577118
-0.000861954
-0.00485496
-0.000936702
-0.00395288
-0.000922347
-0.00310947
-0.000862946
-0.00234282
-0.00078567
-0.00166317
-0.000698109
-0.00108126
-0.000599735
-0.00058619
-0.000512375
-0.000192835
-0.000410088
0.000132421
-0.000341664
0.000365384
-0.000249047
0.000532335
-0.000183028
0.000631723
-0.000115342
0.000661552
-4.59453e-05
0.000626
1.93873e-05
0.000525747
8.38843e-05
0.000347864
0.000161335
0.000104988
0.000226192
-0.000184648
0.000272803
-0.000481354
0.000279794
-0.000779724
0.000281425
-0.00121094
0.000414048
-0.00176148
0.000533573
-0.00229394
0.000515472
-0.00280771
0.000497074
-0.00326905
0.000444757
-0.00365611
0.000370744
-0.00395233
0.000280217
-0.00415244
0.000184359
-0.00425796
9.00683e-05
-0.00428309
9.93813e-06
-0.00424991
-4.8122e-05
-0.00417077
-9.38345e-05
-0.00407495
-0.00011032
-0.00396723
-0.000122021
-0.00384331
-0.00013807
-0.00373049
-0.000126836
-0.00365793
-8.65228e-05
-0.00362881
-4.30031e-05
-0.00365282
1.01788e-05
-0.00373097
6.44368e-05
-0.00386654
0.000121836
-0.00406087
0.000180674
-0.00430914
0.000234643
-0.00461137
0.000288613
-0.00496067
0.000335718
-0.00535207
0.00037781
-0.00578227
0.00041664
-0.00624643
0.000450636
-0.00673999
0.000480051
-0.00725822
0.000504788
-0.00779586
0.000524205
-0.00834901
0.000539808
-0.00891025
0.000548018
-0.00947377
0.00055033
-0.0100352
0.00054836
-0.0105894
0.000541198
-0.0111295
0.000527224
-0.0116468
0.000504453
-0.0121268
0.00046739
-0.012563
0.000423624
-0.0129755
0.000400116
-0.0133483
0.000360648
-0.0136548
0.0002946
-0.0138882
0.000221894
-0.0140353
0.000136314
-0.0140782
3.49099e-05
-0.0139412
-0.000144505
-0.0137501
-0.000199622
-0.0134937
-0.000266897
-0.0131666
-0.000337872
-0.0127628
-0.000414405
-0.0122817
-0.00049153
-0.0117251
-0.00056674
-0.0111006
-0.000634373
-0.0104101
-0.000700388
-0.00967125
-0.000748383
-0.00888012
-0.000800791
-0.00806549
-0.000823923
-0.00721279
-0.000862305
-0.00633678
-0.000885161
-0.00548228
-0.000864265
-0.00508195
-0.00040953
-0.00454764
-0.000543341
-0.00394953
-0.000606765
-0.00337891
-0.000579283
-0.0028612
-0.00052612
-0.0024063
-0.000463283
-0.00201902
-0.000395531
-0.00169661
-0.000330618
-0.00143966
-0.0002651
-0.0012402
-0.000207567
-0.00110671
-0.000141569
-0.00102417
-9.05994e-05
-0.000994946
-3.72367e-05
-0.00100434
1.34517e-06
-0.00105723
4.48886e-05
-0.00114778
8.2547e-05
-0.00126382
0.000108079
-0.00140035
0.000128589
-0.00149529
8.70527e-05
-0.00158512
8.19801e-05
-0.00186581
0.000272856
-0.00213857
0.000265019
-0.0023891
0.000242879
-0.00263107
0.000234451
-0.00284688
0.000208408
-0.00304004
0.000185908
-0.00320523
0.000158086
-0.00334669
0.000134489
-0.00346807
0.000114539
-0.00357715
0.000102372
-0.00368306
9.92805e-05
-0.0037946
0.000105042
-0.0039114
0.000110363
-0.00403711
0.000119533
-0.00412908
8.58045e-05
-0.00420579
7.06854e-05
-0.00428508
7.31896e-05
-0.00436822
7.71521e-05
-0.00446338
8.91732e-05
-0.00456961
0.000100309
-0.00468854
0.00011305
-0.00482142
0.000127064
-0.00496916
0.000141968
-0.00513358
0.000158696
-0.00531732
0.000178067
-0.00552357
0.00020061
-0.00575554
0.000226377
-0.00601684
0.000255736
-0.00631029
0.000287914
-0.0066368
0.000321014
-0.00699722
0.00035497
-0.00739097
0.00038838
-0.00781739
0.000421137
-0.00827327
0.000450698
-0.00875394
0.000475625
-0.00925399
0.000495173
-0.00976407
0.000505314
-0.0102742
0.000505438
-0.0107757
0.000496851
-0.0112612
0.000480758
-0.0117191
0.000452968
-0.012117
0.000392635
-0.0124557
0.000333081
-0.0126602
0.00019825
-0.0127941
0.000128945
-0.0128342
3.59051e-05
-0.0127862
-5.15261e-05
-0.0126456
-0.000143805
-0.0124123
-0.00023648
-0.0120887
-0.000326483
-0.0116815
-0.000410043
-0.0111988
-0.000485468
-0.0106504
-0.000551028
-0.0100481
-0.000604858
-0.00940413
-0.000646395
-0.00873245
-0.000674052
-0.00804789
-0.000686893
-0.00736049
-0.000689692
-0.00669228
-0.000670467
-0.00603771
-0.000656951
-0.00542911
-0.000610893
-0.00485249
-0.000579602
-0.0043033
-0.000550057
-0.00387055
-0.000438028
-0.00364657
-0.000226683
-0.00335538
-0.000294307
-0.0030896
-0.000268023
-0.00284816
-0.000243604
-0.00267373
-0.0001765
-0.00250506
-0.000170764
-0.00236538
-0.000141755
-0.00235417
-1.33564e-05
-0.00239955
4.32367e-05
-0.00247079
6.90815e-05
-0.00258671
0.000113756
-0.00272916
0.000140293
-0.00290308
0.00017176
-0.00309667
0.000191452
-0.00330748
0.000208702
-0.00352663
0.00021707
-0.00374956
0.00022089
-0.00397006
0.000218503
-0.00418412
0.00021212
-0.00438777
0.000201756
-0.00457857
0.000188969
-0.00475473
0.000174409
-0.0049157
0.000159299
-0.00506204
0.0001448
-0.00519572
0.000132275
-0.00532142
0.000124531
-0.00544195
0.000119841
-0.00556311
0.000121111
-0.00569145
0.000129418
-0.00577119
8.01102e-05
-0.00582818
5.67353e-05
-0.005889
5.99463e-05
-0.00594561
5.56042e-05
-0.00601566
6.88389e-05
-0.00609617
7.90548e-05
-0.00620316
0.000105186
-0.00632344
0.000117895
-0.00647009
0.000143665
-0.00658534
0.000111794
-0.00668443
9.5538e-05
-0.00669319
5.55557e-06
-0.00665028
-4.55634e-05
-0.00656746
-8.48684e-05
-0.00658007
1.10026e-05
-0.00692034
0.000338887
0.000253015
-5.90372e-05
-0.000120642
6.97409e-06
-0.000320837
0.000206488
-0.000506208
0.000492851
-0.000635486
0.000821678
-0.000706745
0.0011497
-0.000708556
0.00145229
-0.000669613
0.00170666
-0.000594339
0.00190705
-0.00050924
0.00205026
-0.00042325
0.00214446
-0.000349091
0.00219881
-0.000293726
0.00223056
-0.000257875
0.00224921
-0.000238712
0.00226346
-0.000230418
0.00227516
-0.000226272
0.00228464
-0.000221566
0.0022873
-0.000211503
0.00228035
-0.000196264
0.00225772
-0.000175975
0.00221825
-0.000156141
0.00216797
-0.000147133
0.00211738
-0.000157799
0.00209669
-0.000214446
0.00212384
-0.000305061
0.00223942
-0.000454004
0.00246864
-0.000651999
0.00285485
-0.000914064
0.00344072
-0.00122275
0.00418316
-0.00150201
0.00505658
-0.0017349
0.0059486
-0.00179008
0.00672441
-0.00169238
0.00707174
-0.00120895
0.00711659
-0.000724257
0.00696616
-0.000315473
0.00658321
0.000123595
0.00595907
0.000587911
0.00503543
0.00110281
0.00302905
0.00182891
0.000329688
0.00270068
-0.00296839
0.00375631
-0.00718758
0.00498006
-0.012367
0.0063454
-0.0185762
0.00767684
-0.025428
0.00890533
-0.0326587
0.00987217
-0.0399066
0.0104602
-0.0467973
0.0105951
-0.0530681
0.0103418
-0.0585275
0.00968283
-0.0631574
0.00881288
-0.0668533
0.00761754
-0.0696648
0.00627063
-0.0714334
0.00473561
-0.0723191
0.00333654
-0.0724279
0.00196242
-0.0717972
0.000536166
-0.0704028
-0.00072945
-0.0684076
-0.00197457
-0.0659978
-0.00293704
-0.0632505
-0.00393277
-0.0600847
-0.00485283
-0.0565279
-0.00568622
-0.0525987
-0.00646967
-0.0483484
-0.00718895
-0.0438022
-0.00781503
-0.0390044
-0.00834142
-0.0339998
-0.00874984
-0.0288444
-0.00902892
-0.0235943
-0.00918022
-0.0183244
-0.00918083
-0.0130909
-0.00904164
-0.00798864
-0.00871761
-0.00291496
-0.0082664
0.0020403
-0.0076217
0.00627505
-0.00691918
0.00984782
-0.00608349
0.0129772
-0.00515553
0.0155856
-0.00416746
0.017599
-0.00314207
0.0189623
-0.0022155
0.0196688
-0.00141537
0.0199732
-0.000946026
0.0200287
-0.000555947
0.0198899
-0.000433265
0.0191361
7.16682e-05
0.0177466
0.000677391
0.0159695
0.00132183
0.0140128
0.00197618
0.0116682
0.00313241
0.00807029
0.00461552
0.00280481
0.00624457
-0.00308018
0.00771468
-0.00955491
0.00886915
-0.0163925
0.00961908
-0.0230463
0.00997926
-0.0291026
0.0098379
-0.0344023
0.00922736
-0.0388217
0.00830423
-0.0423144
0.00716282
-0.0448138
0.00590993
-0.0463694
0.00452483
-0.0468142
0.00288312
-0.0465362
0.00132912
-0.0459158
0.000308497
-0.0447834
-0.000997064
-0.0429039
-0.00238406
-0.0405631
-0.0036036
-0.0377198
-0.00469019
-0.034342
-0.00576035
-0.030447
-0.00666514
-0.0261888
-0.00735675
-0.0216559
-0.00783097
-0.0169938
-0.0081078
-0.0122554
-0.00814783
-0.00705307
-0.00805023
-0.00188731
-0.00797191
0.00288457
-0.00769985
0.00743217
-0.00735418
0.0115574
-0.00693796
0.0153137
-0.00644005
0.0188196
-0.00590239
0.0220766
-0.00535514
0.0250607
-0.00479302
0.0277392
-0.00419972
0.0301119
-0.00362662
0.0321666
-0.00304863
0.0338853
-0.00244251
0.0352511
-0.00181258
0.0362931
-0.00126499
0.036904
-0.000698739
0.0370568
-2.34659e-05
0.0368797
0.000538016
0.0363048
0.00108499
0.0353093
0.00164278
0.0339081
0.00214498
0.0321412
0.00257648
0.030052
0.00293535
0.0277003
0.00320211
0.0251611
0.00336948
0.022522
0.00343037
0.0198766
0.00338319
0.0173111
0.00323695
0.0148997
0.00300196
0.012707
0.00268123
0.0107801
0.00229665
0.00911889
0.00191416
0.00767451
0.00160529
0.00637848
0.00141146
0.0051598
0.00134882
0.00393275
0.00141898
0.00264452
0.00157792
0.00120046
0.00176968
-0.000372822
0.001874
-0.00177237
0.0018899
-0.00306146
0.00189487
-0.00427268
0.00183362
-0.00535995
0.00170105
-0.00631946
0.00151863
-0.00714653
0.00130928
-0.00784504
0.00108701
-0.00841904
0.00086499
-0.00887069
0.00065161
-0.00918473
0.000429964
-0.00939425
0.000224866
-0.0097156
0.000299827
-0.0100184
0.000210011
-0.0103422
0.000196619
-0.0107092
0.00023267
-0.0111827
0.000345578
-0.0117732
0.000485411
-0.0124619
0.000637684
-0.0132956
0.000868205
-0.0143185
0.00115472
-0.015548
0.00147927
-0.0169957
0.00183087
-0.0186535
0.00218838
-0.0205026
0.00253339
-0.0224953
0.00282859
-0.0245739
0.00305337
-0.0266536
0.00317175
-0.0286094
0.00314203
-0.0303202
0.00296437
-0.0316793
0.00264571
-0.0326059
0.00218221
-0.0330224
0.00158681
-0.0330234
0.000966847
-0.0326158
0.000242231
-0.0317974
-0.000474549
-0.0308514
-0.000968663
-0.0297896
-0.00144373
-0.0283438
-0.00214233
-0.0265788
-0.00273173
-0.0245491
-0.0032489
-0.022317
-0.00365065
-0.0199424
-0.00396229
-0.0174727
-0.00417241
-0.0149371
-0.00430518
-0.0123885
-0.00433651
-0.00985563
-0.00430073
-0.00738427
-0.00417162
-0.00442854
-0.00401221
-0.00177398
-0.00380212
0.000494408
-0.00351722
0.00254074
-0.00321066
0.00436459
-0.00288695
0.00598476
-0.00254298
0.00738958
-0.00219127
0.00854572
-0.00182788
0.009461
-0.00146782
0.0101328
-0.00110201
0.0105821
-0.000761857
0.0107776
-0.000416665
0.0107788
-0.000117736
0.0105687
0.00015323
0.0101662
0.000422376
0.00960412
0.000632099
0.0089041
0.000806383
0.00809421
0.000942042
0.00720246
0.00104735
0.0062571
0.00112549
0.0052757
0.00118502
0.00426881
0.00123329
0.00324173
0.00127289
0.00221251
0.00130764
0.00118499
0.00133091
0.000162614
0.00133875
-0.00087689
0.00132224
-0.00192536
0.00127353
-0.00272592
0.00114936
-0.00332125
0.0010038
-0.00382313
0.000848134
-0.00420717
0.000639966
-0.00447872
0.000421528
-0.00465934
0.000199944
-0.00474628
-9.44276e-06
-0.00474012
-0.000197923
-0.00465326
-0.000357786
-0.0045011
-0.000490275
-0.0043167
-0.000559043
-0.00410901
-0.000601723
-0.00393624
-0.000562912
-0.00376838
-0.000531365
-0.00367485
-0.000436863
-0.00387767
-9.96946e-05
-0.00425481
0.000135611
-0.00477979
0.000420436
-0.0055433
0.000733942
-0.00648465
0.00106703
-0.00766228
0.00140224
-0.00903446
0.00174951
-0.010605
0.00207452
-0.0123119
0.00235054
-0.0141129
0.00256339
-0.0159707
0.00272014
-0.0178465
0.00280573
-0.019699
0.00281937
-0.0214797
0.00275668
-0.0231331
0.00261704
-0.0246036
0.00241123
-0.025876
0.0021763
-0.0269402
0.00191524
-0.0277786
0.00162856
-0.0283898
0.00133299
-0.0288177
0.00107092
-0.0290889
0.000820824
-0.0291453
0.000538388
-0.0289823
0.00024317
-0.0286589
-1.82268e-05
-0.0281674
-0.000281594
-0.0275131
-0.000543674
-0.026689
-0.000818823
-0.0257984
-0.00102159
-0.0248487
-0.00120088
-0.023863
-0.00139329
-0.0229545
-0.00142373
-0.0218448
-0.00169287
-0.0205497
-0.00194898
-0.019123
-0.00216025
-0.0175999
-0.00234302
-0.0159874
-0.00250723
-0.0143269
-0.00264764
-0.0126055
-0.0027702
-0.0108928
-0.00287265
-0.00912087
-0.00293565
-0.00718056
-0.0030075
-0.00484971
-0.00300017
-0.00280159
-0.00293329
-0.000960127
-0.00280176
0.000722273
-0.0026282
0.00224265
-0.00240683
0.00357039
-0.00213664
0.00468086
-0.00183137
0.00555455
-0.00149543
0.00617982
-0.00115883
0.00656451
-0.000815175
0.00671894
-0.000515315
0.00667943
-0.000228021
0.00648002
-1.26275e-06
0.00611253
0.000235037
0.00559715
0.000452736
0.00497272
0.000627442
0.00424995
0.000790297
0.00344807
0.000946778
0.00256554
0.00109218
0.00158702
0.00123463
0.000487937
0.00136218
-0.000694176
0.00144679
-0.001723
0.00142651
-0.00263238
0.00142658
-0.00350753
0.00137444
-0.00429301
0.00126652
-0.00497657
0.00111247
-0.00555001
0.000928417
-0.00601528
0.000729899
-0.00637952
0.000533141
-0.00665389
0.000349129
-0.00684836
0.000189211
-0.0069637
5.22561e-05
-0.00702586
-4.65112e-05
-0.00700904
-0.000141786
-0.00695761
-0.000187952
-0.00711653
6.4259e-06
-0.00735239
9.4839e-05
-0.00763726
0.000184196
-0.00801317
0.000318926
-0.00847331
0.000456383
-0.00902835
0.000605548
-0.00966914
0.000748722
-0.0103921
0.00088972
-0.0111803
0.00100898
-0.0120252
0.00111955
-0.012926
0.00122266
-0.0138717
0.00130973
-0.0148445
0.00137574
-0.0158329
0.0014253
-0.0168256
0.00145912
-0.017813
0.00147872
-0.0187811
0.00147883
-0.0197188
0.0014642
-0.0206123
0.00142836
-0.0214434
0.00136838
-0.0221984
0.00129037
-0.0228585
0.00118851
-0.0234108
0.00106695
-0.0238393
0.000920398
-0.0241482
0.000764085
-0.0243479
0.000611038
-0.0243901
0.000430537
-0.0242677
0.000226355
-0.0239985
1.4242e-05
-0.0235813
-0.0002068
-0.0230983
-0.000357083
-0.0224121
-0.000657393
-0.0218386
-0.000731672
-0.0213221
-0.000727647
-0.0205812
-0.00101987
-0.0196872
-0.00124318
-0.0186679
-0.00144451
-0.0175532
-0.00161676
-0.0163558
-0.00177451
-0.0150865
-0.0019139
-0.0137634
-0.00203353
-0.0123919
-0.00213001
-0.011004
-0.00219849
-0.00960192
-0.00223611
-0.00822867
-0.00224527
-0.00691782
-0.00220617
-0.00561114
-0.00218027
-0.00393809
-0.00209236
-0.00252987
-0.00196118
-0.00137177
-0.0017747
-0.000384498
-0.00157621
0.000444888
-0.00136507
0.00111992
-0.00114771
0.00164415
-0.000928992
0.00201743
-0.000712946
0.00225047
-0.000507019
0.00234234
-0.000308135
0.00232038
-0.000128206
0.00218874
3.26117e-05
0.0019549
0.000188295
0.00162603
0.000322009
0.00121955
0.000443268
0.000747776
0.000546318
0.000212151
0.000635781
-0.000386004
0.000718913
-0.00108386
0.000777156
-0.00181076
0.000801232
-0.002346
0.000800594
-0.00288597
0.000797569
-0.00343428
0.000783852
-0.00395684
0.000749768
-0.00445827
0.000702682
-0.00492711
0.000647682
-0.0053674
0.000591434
-0.00577737
0.000537625
-0.006159
0.000489488
-0.00651318
0.000449971
-0.0068301
0.000409785
-0.00710698
0.000375622
-0.00731097
0.000308134
-0.00750524
0.000307827
-0.00795223
0.000526503
-0.00837157
0.000484407
-0.00878305
0.000478854
-0.00919907
0.000487313
-0.0096101
0.000494424
-0.0100255
0.000509942
-0.0104481
0.000529908
-0.0108817
0.000555019
-0.0113322
0.000586906
-0.0118035
0.000624427
-0.0123015
0.000670594
-0.0128307
0.000724292
-0.0133947
0.000784914
-0.013995
0.000850706
-0.0146318
0.000919362
-0.0153025
0.000986361
-0.0160016
0.00104882
-0.0167209
0.00110255
-0.0174487
0.00114383
-0.0181711
0.0011681
-0.0188725
0.00117216
-0.0195348
0.00115289
-0.0201396
0.00110554
-0.0206691
0.00103063
-0.0210961
0.000919335
-0.021394
0.000774296
-0.0215484
0.000602908
-0.0215588
0.000398778
-0.0213305
9.97268e-05
-0.0211581
1.6938e-05
-0.0209457
-8.91351e-05
-0.0205706
-0.000343732
-0.0200618
-0.000564561
-0.0194226
-0.000786851
-0.0186689
-0.000994038
-0.0178124
-0.00118663
-0.016865
-0.00136107
-0.0158407
-0.00151335
-0.0147545
-0.00164074
-0.0136226
-0.00174022
-0.0124634
-0.0018089
-0.0112949
-0.00184582
-0.0101366
-0.00184838
-0.00901029
-0.0018191
-0.00792708
-0.00175669
-0.00692153
-0.00166543
-0.00598743
-0.00154798
-0.0051564
-0.00141293
-0.00445916
-0.00125034
-0.00376011
-0.00113572
-0.00304987
-0.0009383
-0.00258475
-0.000761146
-0.00228578
-0.00056919
-0.002127
-0.000404603
-0.00207894
-0.000226738
-0.00216276
-8.91133e-05
-0.00237884
7.21854e-05
-0.00256082
0.000166557
-0.00280451
0.000284877
-0.00312112
0.000383665
-0.00349085
0.000481474
-0.00391235
0.000559788
-0.00436749
0.000624909
-0.00484927
0.000671264
-0.00534448
0.000701968
-0.0058452
0.000715859
-0.00634239
0.000716194
-0.00683016
0.000704418
-0.00730302
0.000683168
-0.00775744
0.000654419
-0.00819075
0.000620574
-0.00860157
0.000583596
-0.00898874
0.000544906
-0.00935101
0.000505666
-0.00968636
0.000466335
-0.00998353
0.00042078
-0.0102361
0.00037186
-0.0103961
0.000281265
-0.0105693
0.00030633
-0.0109448
0.000455729
-0.0112903
0.000401917
-0.0116148
0.000383639
-0.0119462
0.000385897
-0.0122813
0.000402978
-0.0126272
0.000423415
-0.0129932
0.000469212
-0.0133644
0.00048638
-0.0137164
0.000492269
-0.0139912
0.000382933
-0.0140547
0.000155257
-0.013879
-0.000173239
-0.0133989
-0.000528103
-0.012714
-0.000771257
-0.0119716
-0.000732384
-0.011064
-0.000569296
-0.00027208
-1.5366e-05
-0.000228795
0.000138352
-0.00059807
0.000432344
-0.000923695
0.000812072
-0.00113869
0.00123063
-0.00124872
0.00164414
-0.00124544
0.00202339
-0.00117216
0.0023482
-0.00104237
0.00261679
-0.00090094
0.00283188
-0.000761353
0.00300604
-0.000646142
0.00314691
-0.000557348
0.00326407
-0.000497662
0.00336844
-0.000465542
0.00346991
-0.000454199
0.00357158
-0.000450065
0.00367376
-0.000445682
0.00377068
-0.000430137
0.00385326
-0.00040038
0.00391386
-0.000357882
0.00394034
-0.000303796
0.00393282
-0.000260488
0.00388955
-0.000235183
0.00382362
-0.000269016
0.00377118
-0.000372938
0.00376531
-0.000568176
0.0038675
-0.000873923
0.00407961
-0.0012456
0.00435496
-0.00161749
0.00478309
-0.00204908
0.00529888
-0.00236941
0.00581233
-0.00242198
0.00625426
-0.00225242
0.00658539
-0.00165814
0.00652981
-0.000786625
0.00573802
0.000358319
0.00416101
0.00158271
0.00179282
0.00283831
-0.00145763
0.00423582
-0.00556552
0.00582007
-0.0107351
0.0077542
-0.0169866
0.00989269
-0.0241553
0.0120343
-0.031902
0.013978
-0.0398967
0.0155577
-0.0476886
0.0165842
-0.0549072
0.016978
-0.0613074
0.0167479
-0.0666997
0.0158754
-0.0710253
0.0145556
-0.0743093
0.0128558
-0.0766189
0.0110117
-0.0780196
0.00890787
-0.0785322
0.00667419
-0.0785573
0.00465219
-0.0783505
0.00302206
-0.077639
0.00114402
-0.0763732
-0.000835191
-0.0746861
-0.00252183
-0.0725553
-0.00420949
-0.0698768
-0.00571885
-0.0667809
-0.00713135
-0.0632571
-0.00847911
-0.0593341
-0.00971177
-0.0550484
-0.0108586
-0.0504744
-0.0118674
-0.0456523
-0.0127437
-0.0406346
-0.0134686
-0.0354597
-0.0140377
-0.0301676
-0.0144375
-0.0247949
-0.0146737
-0.0193797
-0.0147209
-0.0139571
-0.0145929
-0.0085675
-0.0142368
-0.00328846
-0.0136735
0.00181243
-0.0128455
0.00673228
-0.0119555
0.0112939
-0.0107562
0.0152745
-0.00924377
0.0185206
-0.00751869
0.021008
-0.00573439
0.0227907
-0.00410638
0.0240081
-0.00274435
0.024458
-0.00150808
0.024172
-0.000379397
0.0230678
0.000568554
0.0216221
0.00142179
0.0196018
0.00261236
0.0165815
0.00426225
0.0120934
0.00638154
0.0063453
0.00879144
-0.000285923
0.0111538
-0.00749156
0.0133545
-0.0148014
0.0149277
-0.0217412
0.0157121
-0.0278383
0.0156197
-0.0328803
0.0149259
-0.0368823
0.0137452
-0.0400418
0.0122942
-0.042481
0.0106522
-0.0442315
0.00882386
-0.0454679
0.00705764
-0.0462738
0.00524221
-0.0466944
0.00321459
-0.0464413
0.000989126
-0.0449315
-0.00128252
-0.0427238
-0.00328203
-0.0400568
-0.00512809
-0.0368769
-0.00685826
-0.033156
-0.00848515
-0.0290478
-0.00994104
-0.0245959
-0.0111887
-0.0198552
-0.0121674
-0.0148905
-0.0128646
-0.00981724
-0.0132483
-0.00464435
-0.0133872
0.000421761
-0.0131823
0.00523891
-0.0128542
0.00989115
-0.0124153
0.0143668
-0.0118927
0.0186373
-0.0112717
0.0227362
-0.0106033
0.0266375
-0.00986953
0.0302968
-0.00908157
0.0337021
-0.00826641
0.0368398
-0.00740654
0.0397194
-0.00657701
0.0423291
-0.00573067
0.0446704
-0.00485844
0.0467562
-0.00397481
0.0485513
-0.00313684
0.0500001
-0.00222579
0.0511607
-0.00126415
0.0519605
-0.000344079
0.052329
0.000632551
0.0522573
0.0016292
0.0517196
0.00259638
0.0506742
0.00353513
0.049097
0.00442592
0.0469928
0.00522049
0.0443895
0.00588808
0.04134
0.00639711
0.0379273
0.0067157
0.0342643
0.00682258
0.0304846
0.00670563
0.0267286
0.00636308
0.0231237
0.00582916
0.0197692
0.0051993
0.0167374
0.00457031
0.0140483
0.004035
0.0116413
0.00369093
0.00941219
0.00358285
0.00728494
0.00363909
0.00525025
0.00373758
0.00329327
0.00376387
0.00138578
0.00373015
-0.000385336
0.00359907
-0.00198368
0.00336554
-0.00339867
0.00305035
-0.00463203
0.00268716
-0.00569461
0.00230781
-0.00660422
0.00193353
-0.00739066
0.00158891
-0.00808126
0.0012805
-0.00875295
0.00104041
-0.0094686
0.000880627
-0.00997565
0.000748683
-0.0104851
0.000660776
-0.0110575
0.000710491
-0.0117163
0.000834334
-0.0124583
0.00103116
-0.0133426
0.00131426
-0.0144794
0.00171985
-0.0158184
0.00215336
-0.017335
0.00261815
-0.0189946
0.00308659
-0.0207649
0.00354939
-0.0225881
0.00396029
-0.0244108
0.00430537
-0.0261716
0.00453896
-0.0278079
0.00463966
-0.0292741
0.00458823
-0.0305457
0.00436415
-0.0315922
0.00396173
-0.0323785
0.00338291
-0.0328907
0.00264575
-0.0331397
0.00178739
-0.0330842
0.000863837
-0.0325923
-0.000295152
-0.0316611
-0.00145348
-0.0300927
-0.00258323
-0.0280512
-0.00353131
-0.0258255
-0.00441335
-0.0234016
-0.0052008
-0.0208043
-0.005891
-0.0180477
-0.00645162
-0.0151684
-0.00688534
-0.0122038
-0.00718031
-0.00921795
-0.00733356
-0.00624412
-0.00735242
-0.00335479
-0.00723137
-0.000559349
-0.00700792
0.00203675
-0.00664839
0.00450182
-0.00630651
0.00686802
-0.00592197
0.00912577
-0.00550637
0.0112448
-0.00504335
0.0132066
-0.0045415
0.0149932
-0.00401424
0.0165959
-0.00346656
0.0179963
-0.00290405
0.0191859
-0.00232741
0.0201311
-0.00174291
0.0208218
-0.00114345
0.0212043
-0.000536577
0.0212617
5.93006e-05
0.0210581
0.000588604
0.0205693
0.00108264
0.0197942
0.00154234
0.0187637
0.00193279
0.0175162
0.00225451
0.0160934
0.00250764
0.0145418
0.00269601
0.0129092
0.00282564
0.0112408
0.00290148
0.00957587
0.00293374
0.00794544
0.0029234
0.00637905
0.00286811
0.00490237
0.00276269
0.00354515
0.00259512
0.00228796
0.00237143
0.00115007
0.00210665
0.000185312
0.00177804
-0.000619008
0.00140938
-0.00125309
0.00102059
-0.00172239
0.000634199
-0.00204854
0.000281823
-0.00224813
-3.28071e-05
-0.00236822
-0.000271568
-0.00245653
-0.000435125
-0.00254493
-0.000503153
-0.00268808
-0.000490432
-0.00292819
-0.000354246
-0.00333754
-0.000153193
-0.00393305
0.000127574
-0.00450602
0.000442284
-0.00535674
0.000955703
-0.00649389
0.001527
-0.00788677
0.00209667
-0.00949597
0.00264625
-0.0113073
0.00318408
-0.0132549
0.00366784
-0.0152666
0.00405724
-0.017301
0.00435627
-0.0193033
0.00453732
-0.0212043
0.00459323
-0.0229484
0.00452213
-0.0244988
0.00434257
-0.0258305
0.00406133
-0.0269722
0.00373207
-0.0279524
0.00336496
-0.0287721
0.00296956