/*--------------------------------*- C++ -*----------------------------------*\
| =========                 |                                                 |
| \\      /  F ield         | OpenFOAM: The Open Source CFD Toolbox           |
|  \\    /   O peration     | Version:  v1812                                 |
|   \\  /    A nd           | Web:      www.OpenFOAM.com                      |
|    \\/     M anipulation  |                                                 |
\*---------------------------------------------------------------------------*/
FoamFile
{
    version     2.0;
    format      ascii;
    class       volScalarField;
    location    "1.5";
    object      T;
}
// * * * * * * * * * * * * * * * * * * * * * * * * * * * * * * * * * * * * * //

dimensions      [0 0 0 1 0 0 0];


internalField   nonuniform List<scalar> 
20400
(
289.619
289.619
289.62
289.621
289.622
289.621
289.62
289.619
289.617
289.615
289.613
289.61
289.607
289.604
289.601
289.597
289.593
289.589
289.585
289.58
289.574
289.569
289.563
289.557
289.551
289.545
289.54
289.536
289.534
289.534
289.537
289.543
289.553
289.567
289.586
289.612
289.643
289.684
289.732
289.787
289.847
289.91
289.972
290.03
290.083
290.133
290.182
290.229
290.272
290.31
290.346
290.381
290.414
290.448
290.484
290.522
290.563
290.606
290.653
290.702
290.757
290.816
290.883
290.956
291.035
291.12
291.212
291.308
291.411
291.517
291.629
291.746
291.87
292.001
292.141
292.291
292.453
292.631
292.82
293.008
293.177
293.307
293.377
293.385
293.342
293.234
293.067
292.861
292.64
292.429
292.243
292.085
291.964
291.861
291.784
291.726
291.683
291.651
291.632
291.619
291.608
291.6
291.592
291.586
291.584
291.584
291.587
291.596
291.605
291.617
291.629
291.643
291.657
291.672
291.687
291.702
291.719
291.732
291.751
291.774
291.8
291.835
291.877
291.925
291.977
292.035
292.097
292.161
292.227
292.29
292.349
292.4
292.443
292.477
292.501
292.51
292.508
292.489
292.451
292.399
292.337
292.267
292.19
292.106
292.022
291.941
291.866
291.798
291.736
291.682
291.634
291.591
291.552
291.515
291.481
291.449
291.418
291.389
291.362
291.338
291.316
291.297
291.281
291.268
291.257
291.249
291.242
291.238
291.235
291.236
291.238
291.243
291.251
291.261
291.273
291.288
291.304
291.322
291.342
291.362
291.382
291.403
291.422
291.441
291.458
291.474
291.489
291.502
291.515
291.526
291.539
291.551
291.563
291.574
291.584
291.593
291.602
291.611
291.619
291.629
291.638
291.649
291.66
291.673
291.688
291.706
291.728
291.753
291.782
291.816
291.855
291.898
291.947
292
292.057
292.118
292.184
292.254
292.327
292.403
292.482
292.563
292.645
292.727
292.809
292.89
292.968
293.042
293.112
293.175
293.229
293.275
293.31
293.333
293.343
293.343
293.329
293.305
293.271
293.231
293.185
293.138
293.09
293.044
293
292.959
292.921
292.884
292.849
292.816
292.784
292.754
292.725
292.699
292.674
292.651
292.629
292.609
292.59
292.573
292.558
292.544
292.531
292.52
292.51
292.502
292.495
292.489
292.485
292.482
292.48
292.479
292.48
292.483
292.486
292.492
292.499
292.508
292.518
292.529
292.542
292.555
292.569
292.583
292.599
292.611
292.626
292.633
292.639
292.642
292.642
292.636
292.625
292.608
292.586
292.559
292.528
292.494
292.459
292.425
292.392
292.363
292.338
292.319
292.304
292.295
292.292
292.294
292.301
292.313
292.329
292.349
292.373
292.399
292.427
292.456
292.486
292.514
292.54
292.564
292.584
292.6
292.612
292.622
292.628
292.631
292.633
292.632
292.63
292.627
292.623
292.619
292.613
292.606
292.6
292.592
292.585
292.577
292.569
292.562
292.554
292.547
292.54
292.534
292.527
292.522
292.517
292.513
292.509
292.506
292.505
292.503
292.503
292.504
292.505
292.509
292.513
292.519
292.525
292.531
292.539
292.548
292.558
292.568
292.58
292.592
292.604
292.618
292.631
292.647
292.657
292.67
292.682
292.695
292.707
292.719
292.73
292.742
292.753
292.765
292.778
292.791
292.804
292.819
292.834
292.85
292.867
292.885
292.903
292.922
292.942
292.962
292.982
293.002
293.021
293.04
293.058
293.075
293.091
293.106
293.12
293.134
293.147
293.159
293.171
293.182
293.192
293.203
293.212
293.222
293.231
293.239
293.247
293.255
293.263
293.27
293.277
293.283
293.289
293.295
293.3
293.304
293.309
293.313
293.316
293.32
293.324
293.328
293.332
293.336
293.34
293.345
293.35
293.356
293.362
293.368
293.375
293.382
293.39
293.398
293.405
293.414
293.422
293.429
293.437
293.443
293.449
293.454
293.458
293.461
293.463
293.463
293.462
293.461
293.454
293.449
293.442
293.434
293.426
293.417
293.408
293.398
293.389
293.379
293.369
293.359
293.35
293.341
293.332
293.324
293.316
293.308
293.301
293.295
293.289
293.284
293.279
293.275
293.272
293.269
293.268
293.267
293.266
293.267
293.268
293.27
293.271
293.27
293.267
293.258
293.236
293.196
293.137
293.064
292.99
292.928
292.887
292.866
292.862
292.866
289.624
289.625
289.626
289.626
289.626
289.625
289.623
289.621
289.619
289.616
289.613
289.61
289.607
289.604
289.601
289.597
289.593
289.589
289.585
289.58
289.575
289.57
289.564
289.558
289.552
289.546
289.54
289.536
289.534
289.534
289.537
289.545
289.557
289.575
289.599
289.629
289.666
289.713
289.77
289.836
289.906
289.973
290.035
290.088
290.128
290.157
290.179
290.193
290.197
290.191
290.179
290.163
290.145
290.13
290.118
290.112
290.109
290.121
290.141
290.174
290.22
290.276
290.344
290.423
290.513
290.615
290.729
290.855
290.991
291.136
291.288
291.443
291.598
291.748
291.89
292.024
292.152
292.279
292.414
292.564
292.734
292.921
293.102
293.233
293.275
293.251
293.149
292.946
292.673
292.402
292.177
292.006
291.873
291.778
291.711
291.667
291.635
291.612
291.598
291.589
291.584
291.582
291.583
291.59
291.608
291.631
291.655
291.679
291.7
291.718
291.73
291.738
291.739
291.733
291.721
291.704
291.683
291.663
291.64
291.617
291.594
291.572
291.549
291.533
291.527
291.532
291.549
291.579
291.619
291.668
291.724
291.788
291.862
291.941
292.021
292.099
292.17
292.231
292.274
292.296
292.299
292.294
292.276
292.236
292.174
292.1
292.025
291.947
291.867
291.793
291.727
291.672
291.626
291.587
291.55
291.515
291.481
291.448
291.417
291.387
291.359
291.334
291.312
291.293
291.277
291.265
291.254
291.25
291.248
291.249
291.254
291.261
291.273
291.287
291.304
291.323
291.345
291.367
291.39
291.414
291.437
291.46
291.481
291.502
291.522
291.542
291.563
291.584
291.606
291.627
291.649
291.667
291.684
291.699
291.712
291.723
291.732
291.738
291.741
291.741
291.74
291.736
291.734
291.73
291.726
291.722
291.72
291.721
291.724
291.731
291.743
291.759
291.783
291.816
291.857
291.906
291.964
292.031
292.105
292.185
292.271
292.361
292.452
292.544
292.635
292.723
292.808
292.888
292.964
293.035
293.102
293.163
293.217
293.261
293.294
293.314
293.321
293.311
293.286
293.246
293.194
293.134
293.072
293.011
292.954
292.903
292.857
292.814
292.774
292.736
292.7
292.666
292.634
292.602
292.572
292.543
292.514
292.485
292.457
292.429
292.404
292.378
292.355
292.333
292.313
292.294
292.277
292.26
292.247
292.234
292.223
292.214
292.208
292.204
292.201
292.2
292.198
292.199
292.203
292.21
292.219
292.232
292.247
292.265
292.286
292.312
292.338
292.372
292.405
292.44
292.476
292.51
292.542
292.568
292.585
292.594
292.593
292.584
292.564
292.538
292.507
292.474
292.44
292.409
292.382
292.361
292.345
292.335
292.331
292.331
292.338
292.348
292.362
292.381
292.403
292.429
292.459
292.49
292.521
292.55
292.576
292.597
292.614
292.625
292.631
292.634
292.634
292.63
292.625
292.618
292.61
292.6
292.59
292.579
292.567
292.555
292.542
292.529
292.516
292.503
292.49
292.477
292.465
292.453
292.441
292.43
292.42
292.411
292.403
292.396
292.39
292.386
292.383
292.381
292.381
292.384
292.383
292.384
292.388
292.393
292.401
292.41
292.42
292.432
292.445
292.46
292.476
292.493
292.513
292.531
292.554
292.575
292.597
292.619
292.64
292.66
292.679
292.697
292.714
292.731
292.746
292.762
292.777
292.792
292.807
292.822
292.838
292.855
292.872
292.89
292.909
292.928
292.948
292.968
292.989
293.009
293.029
293.049
293.067
293.084
293.099
293.113
293.126
293.137
293.148
293.159
293.168
293.178
293.187
293.195
293.203
293.211
293.218
293.225
293.231
293.237
293.242
293.247
293.251
293.254
293.257
293.259
293.261
293.262
293.262
293.263
293.264
293.265
293.266
293.267
293.27
293.272
293.276
293.281
293.285
293.29
293.297
293.305
293.314
293.324
293.335
293.348
293.361
293.374
293.388
293.401
293.415
293.427
293.439
293.449
293.457
293.464
293.468
293.469
293.472
293.471
293.467
293.462
293.454
293.445
293.435
293.424
293.413
293.401
293.389
293.377
293.365
293.353
293.341
293.33
293.32
293.309
293.3
293.29
293.282
293.273
293.266
293.258
293.252
293.245
293.24
293.234
293.229
293.226
293.224
293.221
293.219
293.214
293.205
293.187
293.153
293.099
293.028
292.949
292.872
292.81
292.769
292.75
292.747
292.753
289.633
289.634
289.634
289.634
289.633
289.63
289.627
289.624
289.62
289.617
289.613
289.609
289.606
289.602
289.598
289.595
289.591
289.587
289.583
289.578
289.573
289.568
289.563
289.558
289.552
289.546
289.541
289.536
289.535
289.536
289.543
289.558
289.58
289.608
289.642
289.681
289.729
289.787
289.854
289.922
289.983
290.028
290.058
290.075
290.081
290.065
290.03
289.976
289.911
289.839
289.766
289.697
289.635
289.585
289.551
289.525
289.51
289.506
289.523
289.545
289.579
289.622
289.673
289.733
289.802
289.883
289.977
290.087
290.218
290.373
290.555
290.766
291.007
291.268
291.534
291.782
291.993
292.164
292.306
292.429
292.547
292.686
292.855
293.026
293.14
293.154
293.098
292.916
292.615
292.29
292.033
291.858
291.74
291.667
291.63
291.62
291.623
291.635
291.654
291.689
291.736
291.793
291.858
291.925
291.991
292.051
292.103
292.148
292.182
292.208
292.223
292.23
292.221
292.199
292.163
292.112
292.047
291.971
291.884
291.791
291.695
291.6
291.512
291.432
291.358
291.291
291.234
291.189
291.16
291.147
291.147
291.156
291.181
291.228
291.295
291.38
291.482
291.596
291.715
291.834
291.945
292.041
292.115
292.159
292.177
292.18
292.171
292.137
292.071
291.988
291.902
291.823
291.76
291.714
291.679
291.649
291.619
291.587
291.552
291.513
291.473
291.432
291.394
291.36
291.332
291.31
291.296
291.285
291.28
291.279
291.284
291.294
291.309
291.329
291.352
291.378
291.406
291.436
291.467
291.499
291.531
291.564
291.597
291.631
291.664
291.697
291.729
291.76
291.789
291.815
291.838
291.862
291.884
291.903
291.92
291.934
291.946
291.954
291.959
291.961
291.957
291.951
291.94
291.926
291.908
291.887
291.864
291.838
291.811
291.783
291.757
291.734
291.715
291.703
291.699
291.703
291.718
291.749
291.797
291.859
291.934
292.021
292.116
292.217
292.32
292.42
292.514
292.603
292.684
292.761
292.835
292.908
292.982
293.056
293.128
293.195
293.249
293.284
293.294
293.275
293.23
293.162
293.077
292.989
292.905
292.831
292.768
292.715
292.666
292.621
292.578
292.538
292.499
292.461
292.424
292.388
292.354
292.32
292.287
292.255
292.224
292.194
292.165
292.138
292.112
292.088
292.065
292.044
292.024
292.006
291.989
291.973
291.958
291.944
291.932
291.92
291.912
291.904
291.898
291.892
291.888
291.887
291.887
291.892
291.899
291.911
291.928
291.951
291.979
292.016
292.06
292.114
292.175
292.244
292.319
292.395
292.467
292.529
292.573
292.598
292.606
292.603
292.589
292.562
292.531
292.499
292.468
292.44
292.418
292.401
292.389
292.381
292.376
292.375
292.378
292.389
292.408
292.434
292.466
292.504
292.541
292.577
292.605
292.626
292.637
292.64
292.639
292.632
292.621
292.607
292.592
292.575
292.557
292.538
292.519
292.499
292.478
292.458
292.437
292.417
292.396
292.376
292.357
292.338
292.32
292.303
292.286
292.271
292.257
292.244
292.233
292.223
292.215
292.208
292.203
292.198
292.198
292.199
292.2
292.203
292.207
292.212
292.219
292.227
292.237
292.249
292.263
292.279
292.297
292.318
292.341
292.367
292.396
292.428
292.461
292.497
292.532
292.567
292.6
292.631
292.66
292.686
292.71
292.731
292.751
292.77
292.787
292.803
292.819
292.834
292.85
292.867
292.884
292.903
292.923
292.945
292.967
292.99
293.012
293.033
293.053
293.071
293.086
293.1
293.112
293.121
293.13
293.137
293.144
293.15
293.156
293.162
293.167
293.172
293.176
293.18
293.183
293.185
293.186
293.187
293.186
293.185
293.183
293.18
293.177
293.173
293.169
293.165
293.16
293.155
293.151
293.147
293.144
293.142
293.143
293.146
293.149
293.155
293.162
293.171
293.183
293.196
293.213
293.231
293.252
293.274
293.298
293.323
293.349
293.375
293.399
293.422
293.443
293.46
293.475
293.485
293.492
293.495
293.495
293.492
293.486
293.477
293.467
293.454
293.44
293.425
293.41
293.394
293.378
293.363
293.347
293.332
293.317
293.303
293.289
293.276
293.262
293.249
293.236
293.224
293.212
293.201
293.191
293.181
293.17
293.161
293.151
293.14
293.125
293.102
293.066
293.014
292.946
292.868
292.785
292.706
292.639
292.595
292.576
292.575
289.644
289.644
289.644
289.642
289.639
289.634
289.629
289.624
289.619
289.614
289.609
289.605
289.6
289.596
289.592
289.587
289.583
289.579
289.575
289.571
289.566
289.562
289.557
289.553
289.548
289.542
289.538
289.535
289.536
289.542
289.559
289.587
289.625
289.668
289.713
289.761
289.815
289.873
289.928
289.97
289.996
290.008
290.002
289.966
289.905
289.82
289.724
289.623
289.528
289.443
289.369
289.31
289.269
289.243
289.231
289.229
289.248
289.27
289.3
289.332
289.369
289.408
289.449
289.494
289.54
289.589
289.64
289.693
289.75
289.821
289.915
290.041
290.216
290.461
290.781
291.176
291.603
291.996
292.296
292.498
292.645
292.755
292.859
292.972
293.056
293.064
293
292.792
292.452
292.109
291.864
291.713
291.63
291.599
291.606
291.639
291.685
291.758
291.849
291.951
292.056
292.154
292.243
292.32
292.382
292.424
292.458
292.485
292.507
292.525
292.537
292.542
292.536
292.518
292.487
292.441
292.375
292.291
292.188
292.069
291.938
291.8
291.659
291.521
291.388
291.268
291.159
291.061
290.976
290.904
290.845
290.801
290.779
290.779
290.789
290.818
290.87
290.946
291.047
291.173
291.318
291.476
291.636
291.789
291.922
292.024
292.095
292.132
292.146
292.136
292.092
292.019
291.941
291.878
291.838
291.816
291.799
291.782
291.757
291.722
291.676
291.62
291.559
291.497
291.44
291.393
291.357
291.333
291.32
291.315
291.319
291.331
291.35
291.376
291.406
291.441
291.479
291.519
291.561
291.604
291.647
291.689
291.732
291.773
291.811
291.847
291.88
291.909
291.934
291.956
291.975
291.992
292.008
292.024
292.039
292.054
292.07
292.083
292.095
292.103
292.11
292.113
292.113
292.11
292.101
292.088
292.07
292.047
292.018
291.984
291.946
291.904
291.859
291.811
291.762
291.714
291.673
291.646
291.638
291.642
291.66
291.699
291.758
291.837
291.93
292.031
292.134
292.232
292.323
292.405
292.481
292.555
292.631
292.715
292.809
292.913
293.022
293.125
293.209
293.255
293.255
293.21
293.123
293.009
292.89
292.781
292.692
292.621
292.563
292.512
292.465
292.423
292.384
292.349
292.317
292.288
292.261
292.236
292.213
292.19
292.168
292.146
292.124
292.103
292.082
292.061
292.042
292.024
292.006
291.987
291.969
291.951
291.933
291.915
291.897
291.878
291.86
291.842
291.825
291.809
291.793
291.779
291.766
291.754
291.743
291.732
291.723
291.719
291.719
291.726
291.739
291.761
291.793
291.835
291.891
291.961
292.047
292.148
292.257
292.366
292.459
292.534
292.588
292.624
292.639
292.637
292.623
292.6
292.573
292.544
292.516
292.491
292.467
292.445
292.427
292.412
292.402
292.399
292.409
292.435
292.473
292.517
292.563
292.602
292.629
292.643
292.647
292.641
292.628
292.609
292.586
292.561
292.534
292.507
292.478
292.449
292.421
292.392
292.364
292.336
292.308
292.282
292.256
292.232
292.209
292.188
292.168
292.15
292.135
292.121
292.109
292.1
292.092
292.086
292.082
292.078
292.076
292.075
292.075
292.077
292.08
292.083
292.087
292.092
292.096
292.101
292.106
292.112
292.119
292.127
292.137
292.15
292.166
292.187
292.213
292.245
292.283
292.326
292.373
292.422
292.472
292.519
292.564
292.605
292.641
292.674
292.703
292.727
292.748
292.767
292.783
292.798
292.812
292.827
292.843
292.862
292.882
292.905
292.93
292.955
292.981
293.004
293.025
293.043
293.058
293.07
293.079
293.086
293.091
293.096
293.1
293.104
293.107
293.11
293.112
293.114
293.114
293.114
293.113
293.111
293.107
293.102
293.096
293.089
293.08
293.071
293.062
293.051
293.041
293.03
293.02
293.01
293.001
292.992
292.985
292.978
292.974
292.971
292.971
292.972
292.976
292.984
292.994
293.008
293.025
293.046
293.072
293.101
293.135
293.172
293.211
293.253
293.295
293.336
293.376
293.413
293.445
293.471
293.492
293.506
293.515
293.519
293.519
293.515
293.508
293.497
293.483
293.467
293.449
293.43
293.411
293.39
293.37
293.349
293.328
293.308
293.288
293.269
293.249
293.23
293.21
293.19
293.171
293.151
293.131
293.112
293.093
293.074
293.053
293.029
292.998
292.958
292.906
292.843
292.768
292.684
292.594
292.512
292.457
292.438
289.654
289.654
289.652
289.648
289.642
289.635
289.628
289.62
289.613
289.606
289.6
289.594
289.589
289.584
289.579
289.574
289.57
289.567
289.563
289.56
289.557
289.553
289.55
289.546
289.543
289.539
289.537
289.537
289.542
289.558
289.589
289.636
289.69
289.743
289.792
289.839
289.883
289.921
289.945
289.956
289.952
289.913
289.846
289.751
289.644
289.536
289.438
289.357
289.3
289.264
289.245
289.238
289.242
289.256
289.279
289.313
289.356
289.397
289.439
289.479
289.518
289.556
289.591
289.622
289.649
289.67
289.687
289.7
289.715
289.732
289.758
289.798
289.855
289.932
290.084
290.348
290.758
291.301
291.885
292.376
292.688
292.857
292.954
293.008
293.021
292.995
292.875
292.612
292.249
291.922
291.711
291.6
291.561
291.572
291.628
291.711
291.822
291.952
292.085
292.206
292.307
292.382
292.432
292.466
292.487
292.502
292.516
292.531
292.548
292.565
292.581
292.59
292.591
292.581
292.56
292.524
292.469
292.39
292.287
292.162
292.02
291.865
291.705
291.544
291.385
291.23
291.082
290.948
290.83
290.728
290.643
290.573
290.518
290.481
290.469
290.472
290.486
290.515
290.565
290.638
290.738
290.868
291.025
291.205
291.398
291.591
291.77
291.922
292.031
292.098
292.129
292.127
292.101
292.052
292.009
291.986
291.982
291.985
291.986
291.977
291.947
291.895
291.822
291.733
291.638
291.549
291.474
291.418
291.382
291.363
291.358
291.367
291.386
291.415
291.452
291.495
291.542
291.592
291.644
291.695
291.744
291.791
291.834
291.873
291.907
291.935
291.958
291.975
291.989
292
292.012
292.024
292.037
292.05
292.064
292.08
292.096
292.115
292.136
292.155
292.173
292.191
292.207
292.22
292.229
292.232
292.23
292.22
292.204
292.18
292.15
292.114
292.071
292.022
291.966
291.904
291.838
291.77
291.708
291.655
291.609
291.579
291.575
291.584
291.615
291.67
291.745
291.833
291.923
292.01
292.091
292.165
292.238
292.315
292.403
292.509
292.638
292.787
292.946
293.089
293.185
293.213
293.179
293.079
292.937
292.789
292.657
292.556
292.481
292.425
292.381
292.347
292.319
292.3
292.289
292.28
292.27
292.262
292.257
292.254
292.252
292.251
292.249
292.246
292.241
292.233
292.223
292.209
292.192
292.173
292.152
292.13
292.107
292.083
292.057
292.031
292.005
291.977
291.948
291.919
291.888
291.856
291.824
291.791
291.76
291.732
291.707
291.686
291.668
291.654
291.645
291.639
291.639
291.644
291.659
291.684
291.721
291.773
291.847
291.946
292.069
292.205
292.341
292.458
292.546
292.609
292.657
292.69
292.701
292.697
292.687
292.67
292.644
292.614
292.58
292.543
292.503
292.467
292.439
292.423
292.425
292.446
292.488
292.539
292.589
292.625
292.645
292.651
292.642
292.624
292.598
292.568
292.535
292.498
292.461
292.423
292.386
292.35
292.315
292.281
292.248
292.218
292.189
292.162
292.137
292.115
292.095
292.077
292.062
292.049
292.038
292.03
292.024
292.02
292.018
292.018
292.021
292.024
292.029
292.035
292.042
292.047
292.053
292.057
292.062
292.065
292.067
292.068
292.068
292.067
292.066
292.063
292.06
292.057
292.056
292.06
292.07
292.089
292.119
292.157
292.205
292.259
292.319
292.379
292.439
292.495
292.547
292.592
292.632
292.666
292.694
292.717
292.736
292.753
292.768
292.783
292.799
292.817
292.837
292.861
292.888
292.917
292.945
292.971
292.994
293.012
293.026
293.036
293.043
293.048
293.05
293.052
293.053
293.054
293.055
293.055
293.054
293.052
293.05
293.046
293.04
293.033
293.024
293.014
293.003
292.99
292.976
292.961
292.946
292.931
292.916
292.901
292.886
292.873
292.861
292.85
292.84
292.83
292.822
292.815
292.81
292.807
292.805
292.807
292.812
292.821
292.834
292.853
292.878
292.908
292.945
292.988
293.036
293.09
293.147
293.206
293.265
293.321
293.374
293.419
293.457
293.486
293.509
293.526
293.538
293.543
293.543
293.539
293.531
293.518
293.501
293.481
293.458
293.434
293.408
293.381
293.353
293.325
293.297
293.27
293.243
293.216
293.19
293.163
293.136
293.108
293.078
293.049
293.019
292.989
292.957
292.921
292.881
292.834
292.781
292.717
292.633
292.527
292.424
292.371
289.662
289.66
289.656
289.65
289.641
289.631
289.621
289.61
289.601
289.592
289.584
289.577
289.571
289.566
289.562
289.56
289.558
289.556
289.555
289.553
289.551
289.548
289.545
289.542
289.539
289.537
289.537
289.541
289.555
289.585
289.635
289.698
289.76
289.812
289.853
289.885
289.907
289.918
289.922
289.894
289.837
289.748
289.644
289.537
289.446
289.38
289.342
289.321
289.312
289.311
289.342
289.386
289.443
289.509
289.573
289.626
289.672
289.712
289.752
289.79
289.829
289.869
289.911
289.955
289.998
290.037
290.067
290.083
290.078
290.049
289.997
289.932
289.873
289.849
289.873
289.944
290.11
290.462
291.032
291.74
292.385
292.794
292.961
292.994
292.98
292.904
292.719
292.411
292.053
291.765
291.595
291.522
291.514
291.564
291.662
291.792
291.938
292.077
292.195
292.28
292.336
292.368
292.378
292.367
292.339
292.313
292.297
292.297
292.316
292.349
292.392
292.435
292.466
292.479
292.477
292.463
292.427
292.361
292.261
292.127
291.963
291.777
291.579
291.379
291.185
291.004
290.84
290.697
290.573
290.468
290.383
290.314
290.258
290.219
290.199
290.199
290.204
290.219
290.246
290.286
290.344
290.422
290.526
290.661
290.828
291.025
291.243
291.468
291.682
291.866
292.002
292.083
292.125
292.138
292.134
292.129
292.136
292.155
292.185
292.212
292.219
292.203
292.153
292.067
291.952
291.82
291.69
291.578
291.493
291.439
291.412
291.405
291.416
291.441
291.478
291.524
291.576
291.63
291.685
291.738
291.788
291.834
291.874
291.909
291.936
291.957
291.973
291.984
291.992
291.999
292.003
292.008
292.015
292.026
292.042
292.062
292.086
292.113
292.141
292.17
292.201
292.234
292.267
292.298
292.328
292.353
292.369
292.371
292.367
292.354
292.333
292.304
292.267
292.223
292.173
292.116
292.053
291.982
291.903
291.818
291.734
291.66
291.599
291.546
291.508
291.495
291.503
291.529
291.576
291.639
291.711
291.782
291.853
291.923
291.999
292.088
292.2
292.345
292.526
292.735
292.941
293.094
293.154
293.131
293.027
292.862
292.691
292.547
292.439
292.37
292.327
292.306
292.298
292.3
292.306
292.318
292.337
292.362
292.39
292.419
292.445
292.468
292.486
292.498
292.502
292.501
292.493
292.479
292.461
292.44
292.415
292.388
292.359
292.329
292.297
292.264
292.229
292.194
292.157
292.119
292.079
292.038
291.995
291.95
291.904
291.858
291.811
291.766
291.723
291.684
291.652
291.628
291.613
291.604
291.601
291.601
291.606
291.619
291.64
291.677
291.736
291.826
291.946
292.087
292.238
292.383
292.508
292.602
292.668
292.721
292.767
292.798
292.806
292.804
292.792
292.763
292.718
292.66
292.596
292.531
292.479
292.451
292.448
292.466
292.511
292.564
292.611
292.639
292.649
292.644
292.623
292.594
292.556
292.515
292.472
292.429
292.384
292.34
292.298
292.258
292.221
292.187
292.155
292.127
292.102
292.079
292.06
292.044
292.03
292.019
292.011
292.005
292.001
291.999
292
292.002
292.007
292.013
292.021
292.031
292.042
292.055
292.068
292.08
292.091
292.1
292.105
292.107
292.105
292.099
292.09
292.077
292.062
292.045
292.028
292.011
291.996
291.985
291.979
291.981
291.992
292.018
292.059
292.111
292.172
292.237
292.306
292.373
292.437
292.495
292.547
292.591
292.629
292.66
292.685
292.706
292.725
292.741
292.758
292.776
292.797
292.822
292.849
292.879
292.908
292.936
292.96
292.979
292.992
293.002
293.007
293.01
293.01
293.01
293.009
293.007
293.006
293.003
293
292.995
292.989
292.981
292.972
292.96
292.948
292.934
292.919
292.904
292.888
292.873
292.859
292.845
292.832
292.819
292.807
292.795
292.783
292.772
292.76
292.748
292.736
292.724
292.713
292.702
292.692
292.685
292.681
292.682
292.687
292.699
292.717
292.742
292.776
292.818
292.868
292.927
292.992
293.062
293.135
293.209
293.279
293.344
293.401
293.45
293.488
293.517
293.538
293.557
293.57
293.575
293.574
293.569
293.557
293.54
293.516
293.489
293.458
293.424
293.388
293.351
293.314
293.277
293.241
293.206
293.17
293.135
293.1
293.065
293.028
292.991
292.951
292.911
292.87
292.828
292.785
292.74
292.686
292.602
292.478
292.377
289.667
289.664
289.658
289.649
289.636
289.623
289.608
289.595
289.583
289.573
289.564
289.558
289.554
289.552
289.552
289.554
289.557
289.56
289.562
289.562
289.56
289.556
289.551
289.547
289.543
289.542
289.544
289.554
289.58
289.627
289.693
289.762
289.818
289.856
289.88
289.893
289.898
289.887
289.85
289.78
289.688
289.587
289.498
289.436
289.401
289.382
289.371
289.391
289.439
289.511
289.6
289.687
289.765
289.827
289.873
289.905
289.931
289.951
289.972
289.994
290.021
290.053
290.093
290.144
290.205
290.273
290.343
290.403
290.444
290.459
290.44
290.389
290.299
290.166
290.012
289.914
289.922
290.023
290.306
290.876
291.658
292.378
292.791
292.908
292.894
292.789
292.558
292.231
291.897
291.647
291.506
291.457
291.47
291.546
291.656
291.791
291.934
292.062
292.157
292.209
292.22
292.189
292.121
292.042
291.97
291.915
291.885
291.885
291.92
291.988
292.078
292.172
292.249
292.291
292.299
292.291
292.261
292.193
292.081
291.924
291.731
291.515
291.291
291.069
290.862
290.674
290.509
290.369
290.253
290.16
290.087
290.031
289.99
289.965
289.957
289.959
289.966
289.982
290.005
290.036
290.076
290.127
290.193
290.277
290.388
290.531
290.711
290.926
291.168
291.421
291.661
291.862
292.008
292.093
292.141
292.182
292.22
292.262
292.315
292.377
292.435
292.468
292.463
292.423
292.334
292.202
292.039
291.868
291.714
291.595
291.515
291.471
291.458
291.466
291.492
291.53
291.575
291.626
291.679
291.731
291.78
291.824
291.862
291.894
291.918
291.933
291.942
291.946
291.948
291.949
291.952
291.959
291.971
291.988
292.011
292.04
292.073
292.107
292.145
292.19
292.242
292.296
292.352
292.407
292.458
292.505
292.542
292.56
292.56
292.552
292.535
292.507
292.47
292.426
292.374
292.316
292.252
292.183
292.109
292.027
291.938
291.843
291.745
291.652
291.571
291.508
291.454
291.413
291.4
291.405
291.426
291.463
291.514
291.572
291.635
291.706
291.794
291.909
292.064
292.269
292.52
292.783
292.993
293.088
293.074
292.973
292.795
292.605
292.457
292.356
292.3
292.282
292.287
292.308
292.344
292.392
292.448
292.508
292.568
292.623
292.67
292.708
292.735
292.753
292.762
292.763
292.755
292.74
292.72
292.695
292.667
292.635
292.601
292.565
292.527
292.488
292.448
292.407
292.364
292.32
292.274
292.225
292.173
292.119
292.061
292.001
291.94
291.878
291.818
291.761
291.71
291.668
291.634
291.611
291.596
291.589
291.587
291.587
291.589
291.596
291.61
291.637
291.685
291.763
291.873
292.013
292.169
292.327
292.471
292.593
292.69
292.764
292.826
292.883
292.926
292.94
292.934
292.908
292.851
292.769
292.673
292.58
292.509
292.474
292.47
292.49
292.535
292.586
292.624
292.64
292.64
292.626
292.597
292.556
292.51
292.46
292.409
292.36
292.314
292.27
292.229
292.191
292.157
292.126
292.099
292.075
292.055
292.039
292.025
292.014
292.006
292
291.996
291.994
291.995
291.998
292.003
292.01
292.02
292.033
292.048
292.067
292.088
292.112
292.135
292.158
292.177
292.19
292.196
292.196
292.19
292.179
292.16
292.134
292.102
292.065
292.026
291.988
291.954
291.926
291.907
291.899
291.902
291.916
291.945
291.989
292.045
292.11
292.181
292.254
292.326
292.395
292.457
292.513
292.56
292.601
292.634
292.662
292.685
292.705
292.724
292.743
292.765
292.79
292.817
292.847
292.877
292.906
292.93
292.949
292.963
292.972
292.976
292.978
292.977
292.976
292.974
292.971
292.968
292.963
292.958
292.951
292.942
292.932
292.921
292.908
292.895
292.882
292.869
292.856
292.844
292.833
292.822
292.811
292.801
292.79
292.779
292.768
292.755
292.742
292.727
292.711
292.695
292.677
292.659
292.64
292.622
292.606
292.593
292.585
292.583
292.587
292.597
292.617
292.645
292.683
292.73
292.788
292.856
292.932
293.014
293.099
293.183
293.262
293.335
293.399
293.455
293.5
293.535
293.562
293.584
293.603
293.614
293.615
293.611
293.6
293.578
293.549
293.514
293.473
293.429
293.382
293.335
293.288
293.242
293.197
293.154
293.111
293.067
293.023
292.978
292.933
292.887
292.841
292.796
292.753
292.712
292.661
292.569
292.421
289.67
289.666
289.658
289.645
289.629
289.61
289.592
289.576
289.562
289.552
289.546
289.544
289.546
289.553
289.564
289.577
289.588
289.596
289.6
289.597
289.59
289.58
289.57
289.561
289.555
289.554
289.559
289.578
289.618
289.679
289.75
289.811
289.851
289.872
289.88
289.882
289.862
289.819
289.749
289.66
289.572
289.505
289.46
289.435
289.422
289.438
289.491
289.58
289.692
289.809
289.915
289.999
290.059
290.095
290.115
290.12
290.121
290.114
290.112
290.112
290.124
290.145
290.179
290.231
290.304
290.397
290.503
290.611
290.706
290.77
290.793
290.776
290.728
290.633
290.482
290.273
290.054
289.955
290.01
290.248
290.818
291.648
292.381
292.728
292.763
292.673
292.43
292.099
291.784
291.557
291.433
291.394
291.416
291.499
291.614
291.744
291.87
291.966
292.017
292.016
291.965
291.874
291.764
291.662
291.577
291.52
291.497
291.51
291.567
291.665
291.795
291.935
292.057
292.128
292.146
292.139
292.104
292.021
291.882
291.69
291.46
291.211
290.96
290.721
290.507
290.322
290.167
290.043
289.947
289.875
289.823
289.788
289.768
289.763
289.765
289.772
289.785
289.804
289.828
289.857
289.891
289.931
289.977
290.033
290.102
290.192
290.311
290.465
290.662
290.9
291.167
291.444
291.696
291.898
292.042
292.137
292.206
292.273
292.35
292.44
292.538
292.626
292.688
292.708
292.685
292.608
292.473
292.292
292.088
291.894
291.734
291.619
291.55
291.52
291.519
291.535
291.567
291.608
291.653
291.699
291.743
291.784
291.818
291.845
291.865
291.877
291.884
291.888
291.891
291.896
291.906
291.921
291.942
291.969
292
292.036
292.079
292.134
292.2