/*--------------------------------*- C++ -*----------------------------------*\
| =========                 |                                                 |
| \\      /  F ield         | OpenFOAM: The Open Source CFD Toolbox           |
|  \\    /   O peration     | Version:  v1812                                 |
|   \\  /    A nd           | Web:      www.OpenFOAM.com                      |
|    \\/     M anipulation  |                                                 |
\*---------------------------------------------------------------------------*/
FoamFile
{
    version     2.0;
    format      ascii;
    class       volVectorField;
    location    "1.5";
    object      U;
}
// * * * * * * * * * * * * * * * * * * * * * * * * * * * * * * * * * * * * * //

dimensions      [0 1 -1 0 0 0 0];


internalField   nonuniform List<vector> 
20400
(
(-0.0142502 -0.00813882 0)
(-0.0234023 -0.0208518 0)
(-0.00870862 -0.0287397 0)
(0.0152598 -0.0319279 0)
(0.0581669 -0.0285872 0)
(0.0988844 -0.0218754 0)
(0.144044 -0.0130386 0)
(0.177766 -0.00415701 0)
(0.205325 0.00508346 0)
(0.220639 0.0131198 0)
(0.22892 0.0206629 0)
(0.229362 0.0255327 0)
(0.223966 0.0295659 0)
(0.217034 0.0315832 0)
(0.207617 0.0324031 0)
(0.198313 0.0317342 0)
(0.18778 0.030069 0)
(0.176953 0.0272924 0)
(0.164471 0.0236848 0)
(0.1503 0.0185146 0)
(0.135533 0.0118309 0)
(0.119443 0.00358876 0)
(0.107234 -0.00632203 0)
(0.0982126 -0.0171281 0)
(0.104082 -0.0293708 0)
(0.128443 -0.0413854 0)
(0.174408 -0.0543633 0)
(0.254657 -0.0676154 0)
(0.368216 -0.0796194 0)
(0.521669 -0.0736747 0)
(0.713426 -0.0575367 0)
(0.928184 -0.0218331 0)
(1.148 0.0150821 0)
(1.3692 0.0362642 0)
(1.55402 0.011643 0)
(1.67471 -0.0845761 0)
(1.71545 -0.199995 0)
(1.70513 -0.283358 0)
(1.53381 -0.282201 0)
(1.48201 -0.0710045 0)
(1.47453 -0.0107464 0)
(1.27727 0.108563 0)
(1.02589 0.161779 0)
(0.600254 0.236282 0)
(0.102262 0.268528 0)
(-0.569389 0.273606 0)
(-1.42737 0.254422 0)
(-2.48872 0.217844 0)
(-3.71462 0.174049 0)
(-5.0996 0.141202 0)
(-6.56068 0.130362 0)
(-8.04174 0.144395 0)
(-9.48703 0.173499 0)
(-10.7804 0.181495 0)
(-11.9379 0.119749 0)
(-12.9119 0.0494838 0)
(-13.7113 -0.0235502 0)
(-14.2873 -0.0766596 0)
(-14.6488 -0.159739 0)
(-14.8609 -0.197404 0)
(-14.8536 -0.14007 0)
(-14.5865 -0.123925 0)
(-14.2052 -0.0811618 0)
(-13.6132 -0.0790262 0)
(-12.9141 -0.0599194 0)
(-12.0561 -0.0317388 0)
(-11.0913 -0.00215429 0)
(-10.0175 0.0172106 0)
(-8.87 0.0189853 0)
(-7.6649 -0.000975824 0)
(-6.43075 -0.0461351 0)
(-5.19266 -0.113709 0)
(-3.96819 -0.204447 0)
(-2.81028 -0.314586 0)
(-1.71599 -0.40339 0)
(-0.825415 -0.444524 0)
(-0.00885399 -0.33576 0)
(0.802197 -0.233545 0)
(1.49648 -0.165987 0)
(2.01343 -0.129696 0)
(2.39892 -0.107392 0)
(2.65347 -0.0795444 0)
(2.83804 -0.0554376 0)
(2.99738 -0.0476569 0)
(3.11918 -0.0516423 0)
(3.222 -0.0427779 0)
(3.37827 -0.056881 0)
(3.54191 -0.128928 0)
(3.71195 -0.257785 0)
(3.72312 -0.446097 0)
(3.44647 -0.460755 0)
(3.11135 -0.122258 0)
(2.7412 0.190908 0)
(2.20499 0.406378 0)
(1.40714 0.507555 0)
(0.475257 0.563019 0)
(-0.595254 0.565153 0)
(-1.87252 0.635809 0)
(-3.21686 0.717997 0)
(-4.59394 0.775098 0)
(-5.92773 0.773684 0)
(-7.15227 0.696766 0)
(-8.31726 0.611783 0)
(-9.23622 0.634361 0)
(-10.0134 0.769246 0)
(-10.46 0.945961 0)
(-10.7457 1.11185 0)
(-10.7233 1.33355 0)
(-10.4162 1.3575 0)
(-9.98144 1.32298 0)
(-9.29881 1.19287 0)
(-8.49574 1.01028 0)
(-7.56554 0.773348 0)
(-6.52762 0.524507 0)
(-5.48257 0.204471 0)
(-4.34681 -0.066679 0)
(-3.36349 -0.472267 0)
(-2.4988 -0.597784 0)
(-1.55428 -0.614936 0)
(-0.669438 -0.552666 0)
(0.22168 -0.407016 0)
(1.08432 -0.296808 0)
(1.88413 -0.22011 0)
(2.57513 -0.164821 0)
(3.1748 -0.123861 0)
(3.67119 -0.0921284 0)
(4.08316 -0.0668249 0)
(4.39712 -0.0441584 0)
(4.63321 -0.0225515 0)
(4.76618 -0.00424997 0)
(4.82929 0.00667122 0)
(4.82374 0.0102323 0)
(4.75341 0.0226141 0)
(4.61709 0.0404231 0)
(4.41301 0.0507702 0)
(4.16601 0.0591004 0)
(3.8767 0.0634855 0)
(3.56377 0.0599866 0)
(3.23337 0.0540332 0)
(2.89815 0.047467 0)
(2.56665 0.041127 0)
(2.24604 0.0351124 0)
(1.94189 0.0297105 0)
(1.65901 0.0247447 0)
(1.40187 0.0190697 0)
(1.17567 0.0105814 0)
(0.986943 -0.00100749 0)
(0.838081 -0.0129249 0)
(0.724566 -0.0194263 0)
(0.634539 -0.0188021 0)
(0.550573 -0.0139867 0)
(0.451684 -0.00306142 0)
(0.331024 0.014615 0)
(0.174629 0.0222375 0)
(0.0302925 0.0153973 0)
(-0.138682 -0.0804985 0)
(-0.373029 -0.165011 0)
(-0.615448 -0.244333 0)
(-0.868481 -0.291403 0)
(-1.10561 -0.311621 0)
(-1.32349 -0.303717 0)
(-1.51059 -0.275596 0)
(-1.66649 -0.233974 0)
(-1.78876 -0.182733 0)
(-1.88725 -0.125228 0)
(-1.94877 -0.0576163 0)
(-1.98512 0.0251719 0)
(-2.01031 0.103125 0)
(-2.00995 0.153652 0)
(-2.00117 0.199906 0)
(-1.99765 0.229173 0)
(-1.99344 0.249201 0)
(-2.00549 0.252917 0)
(-2.03998 0.261433 0)
(-2.10358 0.269192 0)
(-2.20326 0.2891 0)
(-2.34348 0.31696 0)
(-2.53143 0.356104 0)
(-2.76738 0.400611 0)
(-3.05614 0.446728 0)
(-3.39137 0.484957 0)
(-3.77085 0.507822 0)
(-4.18395 0.505393 0)
(-4.62427 0.473488 0)
(-5.08014 0.419321 0)
(-5.53649 0.354731 0)
(-5.97087 0.312018 0)
(-6.36478 0.289573 0)
(-6.67352 0.393214 0)
(-6.87595 0.520622 0)
(-6.97603 0.710163 0)
(-6.92725 0.902799 0)
(-6.75418 1.00241 0)
(-6.50697 1.04945 0)
(-6.16319 1.05201 0)
(-5.755 1.0186 0)
(-5.28066 0.950683 0)
(-4.75624 0.850748 0)
(-4.21367 0.709333 0)
(-3.63043 0.547037 0)
(-3.09809 0.324805 0)
(-2.50459 0.129879 0)
(-2.09354 -0.167874 0)
(-1.77571 -0.248489 0)
(-1.37588 -0.27406 0)
(-1.01132 -0.249396 0)
(-0.663557 -0.222642 0)
(-0.360324 -0.187315 0)
(-0.103775 -0.154855 0)
(0.112028 -0.116911 0)
(0.288761 -0.0872475 0)
(0.424735 -0.0656995 0)
(0.522733 -0.0490007 0)
(0.580202 -0.0400858 0)
(0.615352 -0.023332 0)
(0.61497 -0.0194496 0)
(0.58935 -0.0131199 0)
(0.548121 -0.00782486 0)
(0.490071 -0.000620881 0)
(0.423135 0.00720764 0)
(0.347331 0.0152021 0)
(0.263888 0.0250076 0)
(0.172229 0.0362 0)
(0.0742954 0.050066 0)
(-0.0319071 0.0643879 0)
(-0.144271 0.074603 0)
(-0.269307 0.0832603 0)
(-0.395433 0.0883443 0)
(-0.527939 0.080607 0)
(-0.634808 0.0576777 0)
(-0.749605 -0.018648 0)
(-0.900235 -0.103816 0)
(-1.05994 -0.124651 0)
(-1.17695 -0.127114 0)
(-1.27888 -0.0881982 0)
(-1.32981 -0.0368907 0)
(-1.34264 0.0232134 0)
(-1.31056 0.0672202 0)
(-1.25295 0.0978546 0)
(-1.17212 0.112529 0)
(-1.07122 0.111547 0)
(-0.967837 0.106484 0)
(-0.853152 0.0833002 0)
(-0.751335 0.0766955 0)
(-0.654395 0.0503961 0)
(-0.56691 0.0640433 0)
(-0.498402 0.0439405 0)
(-0.455843 0.0494761 0)
(-0.451317 0.0347584 0)
(-0.50026 0.0493431 0)
(-0.568889 0.0636493 0)
(-0.697153 0.0877674 0)
(-0.859883 0.116579 0)
(-1.07466 0.153051 0)
(-1.32837 0.197353 0)
(-1.62049 0.249002 0)
(-1.93967 0.30418 0)
(-2.27664 0.356056 0)
(-2.62009 0.395338 0)
(-2.96635 0.410309 0)
(-3.30043 0.396262 0)
(-3.63357 0.354511 0)
(-3.94013 0.290651 0)
(-4.23621 0.214024 0)
(-4.50355 0.131398 0)
(-4.75163 0.0530799 0)
(-4.96809 -0.00898273 0)
(-5.15617 -0.0637424 0)
(-5.32262 -0.103681 0)
(-5.46027 -0.115567 0)
(-5.56593 -0.0906086 0)
(-5.64201 -0.0342723 0)
(-5.67826 0.0604833 0)
(-5.67046 0.192335 0)
(-5.62326 0.335828 0)
(-5.53053 0.490963 0)
(-5.38749 0.625401 0)
(-5.21637 0.700571 0)
(-5.02336 0.73541 0)
(-4.80555 0.74383 0)
(-4.56312 0.730012 0)
(-4.28713 0.697821 0)
(-3.99512 0.635705 0)
(-3.66025 0.560338 0)
(-3.31591 0.422479 0)
(-2.9418 0.280911 0)
(-2.56516 0.0592269 0)
(-2.31748 -0.131804 0)
(-2.07348 -0.204693 0)
(-1.7701 -0.218339 0)
(-1.4674 -0.215595 0)
(-1.17775 -0.200613 0)
(-0.908071 -0.18378 0)
(-0.667356 -0.164718 0)
(-0.457533 -0.143409 0)
(-0.276763 -0.123232 0)
(-0.130422 -0.0994386 0)
(-0.00917145 -0.0824438 0)
(0.0820307 -0.0621857 0)
(0.151524 -0.0497317 0)
(0.191085 -0.0353235 0)
(0.219298 -0.0233894 0)
(0.214454 -0.010657 0)
(0.197362 0.00139577 0)
(0.138916 0.0215898 0)
(0.0814778 0.0405258 0)
(-0.0176285 0.0653482 0)
(-0.11041 0.0627824 0)
(-0.21523 0.0475047 0)
(-0.323439 -0.0521342 0)
(-0.496361 -0.132313 0)
(-0.672368 -0.202391 0)
(-0.84945 -0.240575 0)
(-1.01004 -0.258786 0)
(-1.15605 -0.25011 0)
(-1.26691 -0.224085 0)
(-1.35303 -0.185284 0)
(-1.40469 -0.142839 0)
(-1.42807 -0.099094 0)
(-1.42594 -0.0599321 0)
(-1.40342 -0.0256746 0)
(-1.37388 0.0116223 0)
(-1.3377 0.0507779 0)
(-1.30468 0.118952 0)
(-1.2594 0.162106 0)
(-1.23043 0.205415 0)
(-1.20933 0.239461 0)
(-1.20909 0.267537 0)
(-1.22865 0.293127 0)
(-1.26378 0.315017 0)
(-1.32105 0.334219 0)
(-1.39358 0.350273 0)
(-1.48627 0.364649 0)
(-1.59444 0.378441 0)
(-1.7179 0.390266 0)
(-1.85488 0.399043 0)
(-2.00353 0.404189 0)
(-2.16362 0.404884 0)
(-2.33148 0.400396 0)
(-2.50812 0.389946 0)
(-2.68945 0.371648 0)
(-2.875 0.345896 0)
(-3.06202 0.312079 0)
(-3.24985 0.270544 0)
(-3.43495 0.222653 0)
(-3.61741 0.169938 0)
(-3.79257 0.116994 0)
(-3.95917 0.0660455 0)
(-4.11103 0.0314045 0)
(-4.2512 -0.00552129 0)
(-4.38289 -0.0176181 0)
(-4.49943 -0.00792524 0)
(-4.59148 0.0433791 0)
(-4.65752 0.127321 0)
(-4.69329 0.228225 0)
(-4.67361 0.375532 0)
(-4.61548 0.488407 0)
(-4.53838 0.568707 0)
(-4.43849 0.612981 0)
(-4.3148 0.640201 0)
(-4.16704 0.654144 0)
(-3.99405 0.655994 0)
(-3.79614 0.646225 0)
(-3.57895 0.62179 0)
(-3.33752 0.585767 0)
(-3.08687 0.526879 0)
(-2.81491 0.461453 0)
(-2.53828 0.355484 0)
(-2.26246 0.248998 0)
(-1.94375 0.0964846 0)
(-1.75799 -0.082364 0)
(-1.61322 -0.139731 0)
(-1.40841 -0.155266 0)
(-1.2193 -0.149362 0)
(-1.03699 -0.135043 0)
(-0.875342 -0.119229 0)
(-0.735847 -0.101899 0)
(-0.617398 -0.085726 0)
(-0.521241 -0.0697006 0)
(-0.445772 -0.0559893 0)
(-0.388741 -0.0397655 0)
(-0.354847 -0.0266748 0)
(-0.332903 -0.0131371 0)
(-0.329659 -0.00336959 0)
(-0.343247 0.00817778 0)
(-0.364151 0.0186159 0)
(-0.403737 0.0256443 0)
(-0.43761 0.030726 0)
(-0.491411 0.0161611 0)
(-0.503057 -0.0179762 0)
(-0.568632 -0.120313 0)
(-0.668892 -0.168291 0)
(-0.749372 -0.214054 0)
(-0.83628 -0.234977 0)
(-0.910105 -0.249152 0)
(-0.980122 -0.250933 0)
(-1.03897 -0.248301 0)
(-1.09056 -0.240802 0)
(-1.13428 -0.231996 0)
(-1.17262 -0.220935 0)
(-1.209 -0.206965 0)
(-1.24524 -0.186178 0)
(-1.28499 -0.151927 0)
(-1.32582 -0.100185 0)
(-1.3608 -0.00616495 0)
(-1.38636 0.0547578 0)
(-1.41168 0.110819 0)
(-1.4391 0.154419 0)
(-1.46836 0.186901 0)
(-1.50299 0.213002 0)
(-1.54047 0.231413 0)
(-1.58293 0.246243 0)
(-1.62973 0.257395 0)
(-1.68184 0.266648 0)
(-1.73987 0.274218 0)
(-1.80483 0.28059 0)
(-1.87788 0.285771 0)
(-1.95998 0.289661 0)
(-2.05244 0.291707 0)
(-2.1557 0.291595 0)
(-2.2701 0.288394 0)
(-2.39575 0.281512 0)
(-2.53228 0.270617 0)
(-2.67928 0.254394 0)
(-2.83522 0.23403 0)
(-2.99832 0.209186 0)
(-3.16676 0.181944 0)
(-3.33614 0.153523 0)
(-3.50479 0.129104 0)
(-3.66859 0.107119 0)
(-3.82581 0.0960404 0)
(-3.97048 0.108431 0)
(-4.09556 0.147963 0)
(-4.18802 0.235294 0)
(-4.23996 0.314049 0)
(-4.2736 0.389668 0)
(-4.27205 0.451343 0)
(-4.23695 0.500333 0)
(-4.17219 0.538636 0)
(-4.07797 0.566154 0)
(-3.95562 0.584145 0)
(-3.80696 0.591874 0)
(-3.63502 0.589446 0)
(-3.44318 0.57685 0)
(-3.2355 0.553987 0)
(-3.01663 0.52189 0)
(-2.78982 0.480129 0)
(-2.56371 0.430502 0)
(-2.33304 0.374101 0)
(-2.122 0.307228 0)
(-1.89736 0.245427 0)
(-1.7186 0.155326 0)
(-1.51846 0.0996602 0)
(-1.34869 -0.010429 0)
(-1.25343 -0.0683902 0)
(-1.1662 -0.0881759 0)
(-1.06849 -0.0797276 0)
(-0.990874 -0.0733053 0)
(-0.911923 -0.0537617 0)
(-0.869425 -0.0535192 0)
(-0.802031 -0.0459106 0)
(-0.772203 -0.112073 0)
(-0.791239 -0.142533 0)
(-0.804215 -0.182777 0)
(-0.840675 -0.206422 0)
(-0.881112 -0.23202 0)
(-0.936008 -0.248738 0)
(-0.995792 -0.263656 0)
(-1.06405 -0.272683 0)
(-1.1348 -0.278426 0)
(-1.20873 -0.279666 0)
(-1.28202 -0.277703 0)
(-1.35442 -0.27256 0)
(-1.42359 -0.265177 0)
(-1.48916 -0.256048 0)
(-1.55002 -0.245925 0)
(-1.60593 -0.235232 0)
(-1.65714 -0.224332 0)
(-1.70331 -0.212687 0)
(-1.74725 -0.198983 0)
(-1.78784 -0.180005 0)
(-1.82974 -0.147605 0)
(-1.87104 -0.0983332 0)
(-1.9057 -0.0204395 0)
(-1.92506 0.0295368 0)
(-1.94431 0.0747092 0)
(-1.96303 0.10737 0)
(-1.98482 0.12713 0)
(-2.00933 0.137739 0)
(-2.04297 0.138568 0)
(-2.07869 0.125553 0)
(-2.12501 0.107996 0)
(-2.16915 0.0673291 0)
(-2.2031 0.0328788 0)
(-2.22756 -0.0424258 0)
(-2.21384 -0.0690977 0)
(-2.19959 -0.0958531 0)
(-2.16179 -0.08883 0)
(-2.22846 -0.0127101 0)
(-2.35518 -0.0295236 0)
(-0.020052 -0.0293981 0)
(-0.0185747 -0.0762023 0)
(0.0348491 -0.116551 0)
(0.113348 -0.143224 0)
(0.221424 -0.155837 0)
(0.327036 -0.154604 0)
(0.435345 -0.145818 0)
(0.525856 -0.132577 0)
(0.603059 -0.119523 0)
(0.659404 -0.109174 0)
(0.699422 -0.102004 0)
(0.724098 -0.099484 0)
(0.738315 -0.0985155 0)
(0.746957 -0.100286 0)
(0.752061 -0.102806 0)
(0.756521 -0.105176 0)
(0.759905 -0.10597 0)
(0.762806 -0.104455 0)
(0.762079 -0.0999265 0)
(0.75671 -0.0929319 0)
(0.746807 -0.0842133 0)
(0.73112 -0.0755537 0)
(0.715769 -0.0701962 0)
(0.698995 -0.0758507 0)
(0.700151 -0.0902814 0)
(0.725991 -0.116647 0)
(0.781866 -0.154676 0)
(0.88571 -0.199528 0)
(1.04702 -0.238432 0)
(1.27094 -0.291718 0)
(1.53611 -0.331388 0)
(1.83512 -0.340794 0)
(2.10808 -0.339131 0)
(2.31647 -0.305746 0)
(2.38439 -0.220895 0)
(2.35886 -0.118266 0)
(2.27117 -0.0229913 0)
(2.08255 0.0809301 0)
(1.84967 0.20106 0)
(1.36597 0.391414 0)
(0.532152 0.50133 0)
(-0.42527 0.710791 0)
(-1.70404 0.958599 0)
(-3.25396 1.24459 0)
(-5.17369 1.45812 0)
(-7.35924 1.68577 0)
(-9.7108 1.95617 0)
(-12.1405 2.19888 0)
(-14.504 2.36803 0)
(-16.7139 2.43187 0)
(-18.6796 2.3606 0)
(-20.3603 2.19241 0)
(-21.7793 1.92553 0)
(-22.8309 1.60721 0)
(-23.628 1.34221 0)
(-24.0726 1.10852 0)
(-24.2719 0.86195 0)
(-24.1557 0.585154 0)
(-23.78 0.410936 0)
(-23.2084 0.18635 0)
(-22.4623 -0.0613014 0)
(-21.601 -0.333849 0)
(-20.6106 -0.572003 0)
(-19.4798 -0.765562 0)
(-18.2285 -0.951497 0)
(-16.8591 -1.14331 0)
(-15.3907 -1.31978 0)
(-13.8289 -1.48431 0)
(-12.1935 -1.62732 0)
(-10.4963 -1.74513 0)
(-8.76152 -1.83624 0)
(-7.00167 -1.89632 0)
(-5.25365 -1.92493 0)
(-3.51387 -1.92284 0)
(-1.84188 -1.88679 0)
(-0.134435 -1.83592 0)
(1.4072 -1.58502 0)
(2.70057 -1.26049 0)
(3.81765 -0.933282 0)
(4.78883 -0.670314 0)
(5.55528 -0.448604 0)
(6.13519 -0.325314 0)
(6.48757 -0.268909 0)
(6.65895 -0.251996 0)
(6.72726 -0.164407 0)
(6.71736 -0.210219 0)
(6.55704 -0.260644 0)
(6.18128 -0.249616 0)
(5.64186 -0.0968528 0)
(5.005 0.183987 0)
(4.30838 0.5929 0)
(3.34952 1.0031 0)
(1.80586 1.36405 0)
(-0.0407831 1.70051 0)
(-2.11158 1.91333 0)
(-4.33312 2.02765 0)
(-6.60853 1.96155 0)
(-8.72724 1.86884 0)
(-10.6333 1.71234 0)
(-12.2594 1.54654 0)
(-13.5898 1.37541 0)
(-14.5934 1.24647 0)
(-15.2938 1.07648 0)
(-15.6577 0.876499 0)
(-15.6776 0.559268 0)
(-15.4938 0.284162 0)
(-15.2222 -0.0365096 0)
(-14.6905 -0.34933 0)
(-13.9795 -0.67171 0)
(-13.112 -0.934352 0)
(-12.0632 -1.18558 0)
(-10.8453 -1.40102 0)
(-9.46803 -1.59281 0)
(-8.00916 -1.74369 0)
(-6.44345 -1.87921 0)
(-4.89518 -1.94725 0)
(-3.24152 -2.04454 0)
(-1.47068 -2.09455 0)
(0.159683 -2.04024 0)
(1.72545 -1.90748 0)
(3.17598 -1.72946 0)
(4.48066 -1.48729 0)
(5.69229 -1.25227 0)
(6.8191 -1.05936 0)
(7.86132 -0.891145 0)
(8.80294 -0.735206 0)
(9.64916 -0.596188 0)
(10.3869 -0.465438 0)
(11.0221 -0.332187 0)
(11.5347 -0.193767 0)
(11.9404 -0.0799652 0)
(12.2266 -0.00649708 0)
(12.3783 0.108505 0)
(12.3723 0.229908 0)
(12.2341 0.31482 0)
(11.9734 0.398299 0)
(11.5731 0.464733 0)
(11.0463 0.52325 0)
(10.4032 0.568508 0)
(9.6613 0.595246 0)
(8.84348 0.606518 0)
(7.97708 0.60421 0)
(7.09265 0.588208 0)
(6.22025 0.558531 0)
(5.38667 0.514637 0)
(4.61505 0.454 0)
(3.9248 0.378876 0)
(3.32468 0.301065 0)
(2.80591 0.233146 0)
(2.34749 0.192395 0)
(1.92578 0.199134 0)
(1.51892 0.242532 0)
(1.09544 0.317214 0)
(0.651399 0.406509 0)
(0.135937 0.488385 0)
(-0.362314 0.520913 0)
(-0.80361 0.522908 0)
(-1.22571 0.493343 0)
(-1.60797 0.445817 0)
(-1.94982 0.386272 0)
(-2.24734 0.323745 0)
(-2.50232 0.26195 0)
(-2.71382 0.203929 0)
(-2.88532 0.150686 0)
(-3.01814 0.0968587 0)
(-3.09645 0.0369401 0)
(-3.19072 -0.0133071 0)
(-3.28896 -0.0563477 0)
(-3.40001 -0.0883795 0)
(-3.5081 -0.115242 0)
(-3.653 -0.130305 0)
(-3.82906 -0.13807 0)
(-4.04513 -0.125196 0)
(-4.29631 -0.10107 0)
(-4.60757 -0.0669722 0)
(-4.9833 -0.0261076 0)
(-5.43101 0.0209282 0)
(-5.94902 0.0702507 0)
(-6.53473 0.122051 0)
(-7.17746 0.17297 0)
(-7.85627 0.2231 0)
(-8.55103 0.271607 0)
(-9.22567 0.320343 0)
(-9.83759 0.367617 0)
(-10.3512 0.405842 0)
(-10.7301 0.420666 0)
(-10.9674 0.405277 0)
(-11.0476 0.348226 0)
(-10.9739 0.216354 0)
(-10.7546 0.085716 0)
(-10.449 -0.074982 0)
(-10.1364 -0.269563 0)
(-9.70522 -0.434431 0)
(-9.17206 -0.571712 0)
(-8.53119 -0.695193 0)
(-7.82372 -0.793388 0)
(-7.04793 -0.875101 0)
(-6.24581 -0.932504 0)
(-5.40018 -0.975345 0)
(-4.5658 -0.992951 0)
(-3.69263 -1.01581 0)
(-2.888 -1.00384 0)
(-1.97845 -1.03491 0)
(-1.01483 -0.972982 0)
(-0.217761 -0.921559 0)
(0.50864 -0.821956 0)
(1.14979 -0.726002 0)
(1.72518 -0.624671 0)
(2.2284 -0.527567 0)
(2.6573 -0.425792 0)
(3.00002 -0.329381 0)
(3.26732 -0.239201 0)
(3.45254 -0.157619 0)
(3.56789 -0.0891612 0)
(3.60501 -0.0251171 0)
(3.56406 0.0220661 0)
(3.45864 0.0827058 0)
(3.29751 0.124317 0)
(3.08727 0.15095 0)
(2.83583 0.168116 0)
(2.55283 0.184807 0)
(2.24638 0.202387 0)
(1.92562 0.221539 0)
(1.59429 0.243766 0)
(1.25507 0.269502 0)
(0.911415 0.295984 0)
(0.568465 0.320019 0)
(0.224403 0.340529 0)
(-0.115284 0.346155 0)
(-0.469155 0.34613 0)
(-0.785648 0.307428 0)
(-1.01187 0.25531 0)
(-1.19548 0.207008 0)
(-1.34847 0.146742 0)
(-1.45533 0.0890365 0)
(-1.53365 0.0325557 0)
(-1.57957 -0.0182493 0)
(-1.59712 -0.0619244 0)
(-1.57507 -0.102064 0)
(-1.53938 -0.137201 0)
(-1.47079 -0.157046 0)
(-1.42048 -0.170682 0)
(-1.33487 -0.167013 0)
(-1.30404 -0.16242 0)
(-1.23184 -0.147483 0)
(-1.25641 -0.162002 0)
(-1.37574 -0.13677 0)
(-1.49909 -0.0895967 0)
(-1.73506 -0.0309446 0)
(-2.00354 0.0519481 0)
(-2.36787 0.107303 0)
(-2.78755 0.182901 0)
(-3.2825 0.235759 0)
(-3.82921 0.285366 0)
(-4.41566 0.315081 0)
(-5.02641 0.326564 0)
(-5.65031 0.318285 0)
(-6.27267 0.297596 0)
(-6.87857 0.273546 0)
(-7.45481 0.255831 0)
(-7.97181 0.252025 0)
(-8.43701 0.252801 0)
(-8.81667 0.257938 0)
(-9.1405 0.263254 0)
(-9.37939 0.26602 0)
(-9.55146 0.262626 0)
(-9.66518 0.244913 0)
(-9.72742 0.229526 0)
(-9.705 0.221408 0)
(-9.61919 0.186068 0)
(-9.48209 0.150788 0)
(-9.29445 0.105032 0)
(-9.03914 0.0556426 0)
(-8.75652 -0.0186138 0)
(-8.44955 -0.0950033 0)
(-8.11785 -0.183309 0)
(-7.80886 -0.268203 0)
(-7.47419 -0.330795 0)
(-7.0679 -0.380416 0)
(-6.61421 -0.423455 0)
(-6.1206 -0.463515 0)
(-5.60041 -0.499547 0)
(-5.0489 -0.537384 0)
(-4.49196 -0.566753 0)
(-3.91135 -0.608466 0)
(-3.33075 -0.640366 0)
(-2.73135 -0.695345 0)
(-1.99994 -0.741334 0)
(-1.2689 -0.740583 0)
(-0.627245 -0.711706 0)
(-0.0401095 -0.662178 0)
(0.494887 -0.600755 0)
(0.967844 -0.532905 0)
(1.37719 -0.46255 0)
(1.70329 -0.390112 0)
(1.96037 -0.328196 0)
(2.12178 -0.262193 0)
(2.22647 -0.21352 0)
(2.24551 -0.133891 0)
(2.19677 -0.0799713 0)
(2.098 -0.0326385 0)
(1.95306 0.0162612 0)
(1.75521 0.0634962 0)
(1.54259 0.111432 0)
(1.27278 0.163667 0)
(1.00833 0.216196 0)
(0.684186 0.27803 0)
(0.355944 0.336815 0)
(-0.0378559 0.394737 0)
(-0.406728 0.397657 0)
(-0.722399 0.387637 0)
(-1.02261 0.363477 0)
(-1.29891 0.325953 0)
(-1.54403 0.278306 0)
(-1.7531 0.22466 0)
(-1.92708 0.170312 0)
(-2.06403 0.11841 0)
(-2.17151 0.0707519 0)
(-2.24825 0.0299744 0)
(-2.3038 -0.00344149 0)
(-2.32735 -0.0294398 0)
(-2.34736 -0.0496486 0)
(-2.31617 -0.0629068 0)
(-2.33775 -0.100451 0)
(-2.41631 -0.117043 0)
(-2.49313 -0.131391 0)
(-2.60995 -0.137427 0)
(-2.74495 -0.139284 0)
(-2.91704 -0.136184 0)
(-3.11419 -0.12915 0)
(-3.34253 -0.11651 0)
(-3.59376 -0.102161 0)
(-3.86586 -0.0856394 0)
(-4.15601 -0.0707677 0)
(-4.46398 -0.0558245 0)
(-4.78345 -0.0393505 0)
(-5.10961 -0.0221761 0)
(-5.44014 -0.00426163 0)
(-5.76839 0.0148327 0)
(-6.09594 0.0339504 0)
(-6.41071 0.0552118 0)
(-6.71695 0.0762571 0)
(-7.00267 0.0967351 0)
(-7.2671 0.117911 0)
(-7.50207 0.13778 0)
(-7.70319 0.155375 0)
(-7.86685 0.167579 0)
(-7.98773 0.172775 0)
(-8.07026 0.168154 0)
(-8.11683 0.169525 0)
(-8.09953 0.16713 0)
(-8.03479 0.142711 0)
(-7.90974 0.114315 0)
(-7.77848 0.0603754 0)
(-7.56563 0.018312 0)
(-7.35255 -0.0720049 0)
(-7.18795 -0.139755 0)
(-6.96949 -0.202826 0)
(-6.70042 -0.246963 0)
(-6.37829 -0.287412 0)
(-6.02453 -0.323336 0)
(-5.63886 -0.357083 0)
(-5.22893 -0.387428 0)
(-4.79641 -0.415697 0)
(-4.35023 -0.438364 0)
(-3.88788 -0.460004 0)
(-3.42778 -0.472591 0)
(-2.9638 -0.487617 0)
(-2.5092 -0.495433 0)
(-2.09459 -0.508348 0)
(-1.58869 -0.538557 0)
(-1.0662 -0.512106 0)
(-0.649297 -0.474815 0)
(-0.291644 -0.424292 0)
(0.0105709 -0.370927 0)
(0.260676 -0.31822 0)
(0.459999 -0.266941 0)
(0.611007 -0.216116 0)
(0.711385 -0.167255 0)
(0.771624 -0.118366 0)
(0.78365 -0.069713 0)
(0.752768 -0.031526 0)
(0.690959 0.00762592 0)
(0.595573 0.0416295 0)
(0.473826 0.076538 0)
(0.326542 0.108671 0)
(0.160794 0.138576 0)
(-0.0304149 0.173624 0)
(-0.237595 0.197749 0)
(-0.48512 0.218739 0)
(-0.69493 0.202631 0)
(-0.86455 0.197807 0)
(-1.05435 0.187365 0)
(-1.2277 0.176627 0)
(-1.40091 0.162123 0)
(-1.56084 0.147571 0)
(-1.71295 0.132931 0)
(-1.854 0.11991 0)
(-1.98635 0.108923 0)
(-2.10762 0.100755 0)
(-2.22185 0.0938783 0)
(-2.31664 0.0888068 0)
(-2.40498 0.0759977 0)
(-2.46198 0.0629199 0)
(-2.56841 0.0152373 0)
(-2.72352 -0.00384386 0)
(-2.85092 -0.0245201 0)
(-2.995 -0.0366115 0)
(-3.13011 -0.0469391 0)
(-3.26854 -0.0545329 0)
(-3.40823 -0.059551 0)
(-3.55045 -0.062629 0)
(-3.69808 -0.0634814 0)
(-3.85135 -0.0625521 0)
(-4.01294 -0.0591253 0)
(-4.18392 -0.0532535 0)
(-4.36602 -0.0447443 0)
(-4.55991 -0.0334208 0)
(-4.7659 -0.019398 0)
(-4.98363 -0.00349549 0)
(-5.21167 0.0145153 0)
(-5.44782 0.034077 0)
(-5.68877 0.0551001 0)
(-5.93007 0.0766938 0)
(-6.16712 0.0976352 0)
(-6.39382 0.117624 0)
(-6.60491 0.134167 0)
(-6.7928 0.147034 0)
(-6.95249 0.155331 0)
(-7.07322 0.160459 0)
(-7.14725 0.160313 0)
(-7.18599 0.135963 0)
(-7.12783 0.121963 0)
(-7.07011 0.0526306 0)
(-7.013 0.00448013 0)
(-6.90974 -0.0550754 0)
(-6.76303 -0.103282 0)
(-6.57072 -0.150907 0)
(-6.33823 -0.195711 0)
(-6.07022 -0.23761 0)
(-5.76941 -0.275825 0)
(-5.44124 -0.309705 0)
(-5.08961 -0.338793 0)
(-4.72055 -0.362418 0)
(-4.33888 -0.380229 0)
(-3.95177 -0.391679 0)
(-3.56446 -0.39642 0)
(-3.18354 -0.395421 0)
(-2.81853 -0.386084 0)
(-2.46527 -0.375542 0)
(-2.15241 -0.351822 0)
(-1.84643 -0.338486 0)
(-1.59761 -0.301858 0)
(-1.37565 -0.292025 0)
(-1.12369 -0.267825 0)
(-0.936898 -0.234603 0)
(-0.804622 -0.182938 0)
(-0.730446 -0.137356 0)
(-0.691143 -0.0841266 0)
(-0.691516 -0.0453664 0)
(-0.758935 0.00630301 0)
(-0.820765 0.0229839 0)
(-0.889038 0.0534327 0)
(-0.985305 0.0758937 0)
(-1.09746 0.102238 0)
(-1.23014 0.122396 0)
(-1.37511 0.140467 0)
(-1.53104 0.153109 0)
(-1.69317 0.16208 0)
(-1.85856 0.16641 0)
(-2.02427 0.167353 0)
(-2.18772 0.165081 0)
(-2.34723 0.160446 0)
(-2.50107 0.153877 0)
(-2.64843 0.146055 0)
(-2.78846 0.13745 0)
(-2.92082 0.128502 0)
(-3.04531 0.119618 0)
(-3.16024 0.111004 0)
(-3.26722 0.102089 0)
(-3.35423 0.0925795 0)
(-3.43115 0.0750133 0)
(-3.47545 0.0559395 0)
(-3.56409 0.0129427 0)
(-3.70052 -0.00416951 0)
(-3.79759 -0.0199708 0)
(-3.91244 -0.0281402 0)
(-4.0222 -0.0294256 0)
(-4.1327 -0.0274613 0)
(-4.25435 -0.0152938 0)
(-4.37019 -0.00330444 0)
(-4.49562 0.0160274 0)
(-4.5885 0.0199509 0)
(-4.65789 0.026309 0)
(-4.64715 0.0191569 0)
(-4.49798 0.00933924 0)
(-4.35865 0.00658405 0)
(-4.04883 0.0495011 0)
(-3.89522 0.161161 0)
(-3.50938 0.128924 0)
(-0.0165572 -0.0566858 0)
(0.0072211 -0.150432 0)
(0.0915146 -0.23428 0)
(0.202535 -0.288591 0)
(0.342135 -0.314172 0)
(0.478499 -0.306481 0)
(0.61379 -0.279813 0)
(0.729145 -0.237238 0)
(0.828824 -0.192371 0)
(0.908273 -0.149258 0)
(0.97295 -0.113758 0)
(1.02529 -0.0871152 0)
(1.06837 -0.0697575 0)
(1.10529 -0.0588681 0)
(1.13966 -0.0526045 0)
(1.17363 -0.0483349 0)
(1.20757 -0.0446185 0)
(1.24074 -0.0397832 0)
(1.27102 -0.034149 0)
(1.29368 -0.0285595 0)
(1.30971 -0.0239648 0)
(1.31299 -0.026466 0)
(1.30279 -0.0364552 0)
(1.28434 -0.0646546 0)
(1.26204 -0.104852 0)
(1.25021 -0.167152 0)
(1.26148 -0.243655 0)
(1.32648 -0.33675 0)
(1.40009 -0.456596 0)
(1.51344 -0.579645 0)
(1.67656 -0.699557 0)
(1.84872 -0.761131 0)
(2.02217 -0.753682 0)
(2.16979 -0.599294 0)
(2.23224 -0.345019 0)
(2.09217 0.0342439 0)
(1.66509 0.384015 0)
(1.00999 0.687926 0)
(0.0530295 0.974125 0)
(-1.17101 1.26069 0)
(-2.71971 1.69989 0)
(-4.62246 2.17531 0)
(-6.87585 2.65889 0)
(-9.36333 3.18747 0)
(-11.9943 3.71413 0)
(-14.638 4.10601 0)
(-17.1489 4.28279 0)
(-19.4315 4.27113 0)
(-21.4027 4.0931 0)
(-23.0338 3.82215 0)
(-24.3008 3.46306 0)
(-25.2507 3.08146 0)
(-25.8802 2.63313 0)
(-26.2194 2.17221 0)
(-26.2467 1.63664 0)
(-26.2411 1.12908 0)
(-26.078 0.62664 0)
(-25.7384 0.0971007 0)
(-25.2187 -0.392894 0)
(-24.5939 -0.898618 0)
(-23.7647 -1.32011 0)
(-22.7979 -1.74503 0)
(-21.6867 -2.15512 0)
(-20.4393 -2.54707 0)
(-19.0655 -2.91702 0)
(-17.5841 -3.2412 0)
(-16.016 -3.51792 0)
(-14.3741 -3.73855 0)
(-12.6767 -3.90343 0)
(-10.933 -4.01128 0)
(-9.15931 -4.06719 0)
(-7.3628 -4.06455 0)
(-5.55975 -4.01067 0)
(-3.75828 -3.87997 0)
(-1.97432 -3.68726 0)
(-0.24938 -3.39211 0)
(1.43359 -3.15765 0)
(3.02249 -2.82104 0)
(4.46509 -2.38217 0)
(5.67001 -1.87895 0)
(6.63036 -1.3687 0)
(7.35432 -0.909043 0)
(7.8268 -0.542169 0)
(8.16616 -0.314497 0)
(8.19572 -0.206611 0)
(7.89818 -0.126495 0)
(7.50022 0.13114 0)
(6.91906 0.49093 0)
(6.08581 0.972784 0)
(4.82246 1.53757 0)
(3.09072 2.13341 0)
(1.01892 2.61475 0)
(-1.29561 3.10287 0)
(-3.72411 3.47101 0)
(-6.1093 3.76256 0)
(-8.29595 3.88797 0)
(-10.1662 3.9186 0)
(-11.6893 3.76233 0)
(-12.8913 3.46677 0)
(-13.8458 3.07464 0)
(-14.5546 2.6037 0)
(-15.0591 2.12132 0)
(-15.412 1.61661 0)
(-15.6484 1.07878 0)
(-15.6882 0.413178 0)
(-15.4055 -0.416989 0)
(-14.7193 -1.14711 0)
(-13.9113 -1.81297 0)
(-12.9204 -2.37192 0)
(-11.7529 -2.86128 0)
(-10.4339 -3.2686 0)
(-8.99399 -3.58834 0)
(-7.44996 -3.81163 0)
(-5.81835 -3.94752 0)
(-4.13453 -3.96757 0)
(-2.42064 -3.90396 0)
(-0.698746 -3.64371 0)
(0.94523 -3.38622 0)
(2.52536 -3.19896 0)
(4.05158 -3.03304 0)
(5.50871 -2.87112 0)
(6.901 -2.71764 0)
(8.23719 -2.53992 0)
(9.4928 -2.32668 0)
(10.6696 -2.09336 0)
(11.7526 -1.84074 0)
(12.7568 -1.5962 0)
(13.6686 -1.35041 0)
(14.4939 -1.09715 0)
(15.2274 -0.840065 0)
(15.8823 -0.614614 0)
(16.4261 -0.361094 0)
(16.8558 -0.0762866 0)
(17.199 0.151694 0)
(17.4133 0.392032 0)
(17.4787 0.643826 0)
(17.37 0.882033 0)
(17.1008 1.09706 0)
(16.6642 1.29109 0)
(16.0531 1.45622 0)
(15.2714 1.58381 0)
(14.3308 1.66429 0)
(13.2535 1.69161 0)
(12.072 1.66611 0)
(10.8277 1.58976 0)
(9.56733 1.46255 0)
(8.33679 1.29449 0)
(7.17333 1.12063 0)
(6.10328 0.984279 0)
(5.14488 0.898252 0)
(4.29283 0.846867 0)
(3.51772 0.853982 0)
(2.78991 0.897485 0)
(2.09275 0.953078 0)
(1.42843 0.983712 0)
(0.782989 1.0252 0)
(0.16556 1.03736 0)
(-0.39576 1.0111 0)
(-0.900962 0.948161 0)
(-1.34205 0.860073 0)
(-1.72624 0.756247 0)
(-2.05502 0.644005 0)
(-2.3356 0.5318 0)
(-2.5864 0.424608 0)
(-2.8023 0.331671 0)
(-3.04166 0.256702 0)
(-3.24443 0.162216 0)
(-3.40873 0.118343 0)
(-3.59502 0.12335 0)
(-3.7998 0.150059 0)
(-4.03635 0.204497 0)
(-4.30135 0.276605 0)
(-4.64141 0.360854 0)
(-5.05604 0.461095 0)
(-5.53209 0.578593 0)
(-6.06266 0.707862 0)
(-6.63513 0.844936 0)
(-7.23587 0.980063 0)
(-7.84436 1.10528 0)
(-8.44393 1.20552 0)
(-9.0122 1.27168 0)
(-9.53265 1.29108 0)
(-9.99241 1.25205 0)
(-10.385 1.15472 0)
(-10.6985 1.002 0)
(-10.9212 0.798276 0)
(-11.0507 0.557828 0)
(-11.0985 0.331577 0)
(-10.9894 -0.0170273 0)
(-10.7636 -0.388947 0)
(-10.3421 -0.798426 0)
(-9.71512 -1.1605 0)
(-9.00564 -1.47554 0)
(-8.22516 -1.74054 0)
(-7.38506 -1.96584 0)
(-6.48967 -2.13787 0)
(-5.54653 -2.26138 0)
(-4.56968 -2.33208 0)
(-3.57514 -2.34242 0)
(-2.57863 -2.30717 0)
(-1.60121 -2.21095 0)
(-0.648888 -2.08823 0)
(0.248857 -1.8666 0)
(1.08896 -1.68935 0)
(1.89469 -1.50416 0)
(2.66682 -1.36621 0)
(3.39665 -1.22439 0)
(4.07663 -1.07798 0)
(4.70065 -0.928541 0)
(5.26482 -0.780052 0)
(5.76569 -0.633476 0)
(6.19537 -0.481574 0)
(6.5548 -0.339682 0)
(6.82458 -0.184116 0)
(7.013 -0.0528261 0)
(7.09757 0.0792353 0)
(7.06557 0.198956 0)
(6.94176 0.302281 0)
(6.72874 0.401541 0)
(6.4272 0.48906 0)
(6.04844 0.559514 0)
(5.60445 0.611588 0)
(5.10965 0.64901 0)
(4.58032 0.67419 0)
(4.03084 0.688619 0)
(3.47567 0.695906 0)
(2.92661 0.695106 0)
(2.39328 0.687572 0)
(1.88546 0.678947 0)
(1.41115 0.658893 0)
(0.976945 0.628508 0)
(0.57302 0.586149 0)
(0.219029 0.508024 0)
(-0.0739546 0.405618 0)
(-0.319025 0.284864 0)
(-0.501797 0.15715 0)
(-0.636803 0.0358124 0)
(-0.722725 -0.0812549 0)
(-0.773476 -0.166416 0)
(-0.804975 -0.225455 0)
(-0.835741 -0.250096 0)
(-0.875945 -0.252559 0)
(-0.943698 -0.205003 0)
(-1.03726 -0.144632 0)
(-1.22409 -0.0319008 0)
(-1.41259 0.0558419 0)
(-1.63847 0.177598 0)
(-1.98315 0.289063 0)
(-2.40023 0.404163 0)
(-2.90532 0.523548 0)
(-3.47339 0.652558 0)
(-4.10345 0.775964 0)
(-4.76351 0.896418 0)
(-5.43796 0.993249 0)
(-6.11325 1.06009 0)
(-6.76412 1.10665 0)
(-7.37342 1.12849 0)
(-7.92318 1.12474 0)
(-8.40502 1.09147 0)
(-8.81719 1.02762 0)
(-9.16968 0.938332 0)
(-9.47101 0.840216 0)
(-9.71739 0.728006 0)
(-9.89628 0.607533 0)
(-10.0308 0.48576 0)
(-10.1143 0.375689 0)
(-10.142 0.280734 0)
(-10.0991 0.173929 0)
(-10.0111 0.0522474 0)
(-9.86592 -0.0504636 0)
(-9.68348 -0.160082 0)
(-9.44876 -0.273174 0)
(-9.18379 -0.396383 0)
(-8.8631 -0.539692 0)
(-8.47501 -0.689 0)
(-8.04132 -0.85181 0)
(-7.51187 -1.01815 0)
(-6.93266 -1.13241 0)
(-6.34958 -1.23752 0)
(-5.74485 -1.32967 0)
(-5.11078 -1.40931 0)
(-4.44484 -1.47794 0)
(-3.74919 -1.52919 0)
(-3.01844 -1.56669 0)
(-2.27317 -1.56963 0)
(-1.5025 -1.55142 0)
(-0.735997 -1.47112 0)
(0.00838287 -1.36848 0)
(0.75415 -1.27661 0)
(1.49527 -1.19791 0)
(2.2273 -1.11668 0)
(2.92966 -1.01946 0)
(3.58323 -0.90064 0)
(4.17773 -0.764576 0)
(4.68399 -0.612137 0)
(5.10429 -0.449691 0)
(5.39435 -0.284282 0)
(5.58374 -0.12631 0)
(5.6254 -0.00894281 0)
(5.53186 0.0978218 0)
(5.33051 0.225424 0)
(5.03538 0.342175 0)
(4.65461 0.428555 0)
(4.22431 0.506153 0)
(3.73105 0.575545 0)