/*--------------------------------*- C++ -*----------------------------------*\
| =========                 |                                                 |
| \\      /  F ield         | OpenFOAM: The Open Source CFD Toolbox           |
|  \\    /   O peration     | Version:  v1812                                 |
|   \\  /    A nd           | Web:      www.OpenFOAM.com                      |
|    \\/     M anipulation  |                                                 |
\*---------------------------------------------------------------------------*/
FoamFile
{
    version     2.0;
    format      ascii;
    class       volScalarField;
    location    "0.2";
    object      p;
}
// * * * * * * * * * * * * * * * * * * * * * * * * * * * * * * * * * * * * * //

dimensions      [1 -1 -2 0 0 0 0];


internalField   nonuniform List<scalar> 
20400
(
94523.3
94519.2
94514.3
94502.7
94490.9
94475.2
94454.8
94434.5
94408.4
94371.8
94349.9
94318.8
94285.2
94251
94223.5
94198.2
94170.6
94138.4
94103
94067.6
94036
94008
93982.7
93960.8
93941.1
93927.7
93919.4
93922.1
93929.7
93946.5
93964.5
93989.3
94019.1
94058.3
94100.7
94146.8
94201.5
94261.6
94325.9
94399.2
94477.6
94558.4
94642.9
94730.9
94822.6
94917.3
95013.6
95113.1
95210.3
95318.4
95403.8
95486
95579.1
95666.2
95750.2
95830.4
95905.1
95975.9
96043.1
96106.3
96164.5
96219.4
96269.9
96315.2
96354.5
96387.5
96417.4
96444
96467.7
96484.2
96495.7
96502.8
96501.9
96498.7
96491.2
96480.1
96464.1
96444.6
96421.5
96394.8
96364.9
96331.9
96295.8
96256.8
96214.9
96170.1
96122.4
96071.8
96018.7
95963.1
95905.1
95845
95782.8
95718.7
95653.1
95586.1
95518
95448.9
95379.2
95308.9
95238.2
95167.4
95096.5
95025.9
94955.8
94886.3
94817.8
94750.5
94684.5
94620.2
94557.6
94497.1
94438.7
94382.6
94329.1
94278.7
94231.4
94187.7
94147.6
94111.4
94079.3
94051.4
94027.8
94008.3
93992.9
93981.8
93975.7
93974
93975.7
93980.9
93990.1
94003.3
94020.3
94041
94065.3
94092.6
94124.7
94159.6
94197.3
94237.8
94281
94326.6
94374.4
94424.3
94475.9
94529.3
94584.1
94640.4
94697.9
94756.6
94816.3
94876.9
94938.3
95000.3
95062.9
95125.9
95189.3
95253
95316.9
95381
95445.2
95509.2
95573
95636.4
95699.5
95762.1
95824.2
95885.8
95946.6
96006.7
96065.9
96124
96180.9
96236.4
96290.4
96342.7
96393.2
96441.7
96488.1
96532.3
96574.2
96613.7
96650.7
96684.8
96715.5
96742.4
96765.3
96784.4
96800.4
96813.4
96822.3
96826.6
96828.7
96827.7
96823.6
96815.7
96804.2
96789
96769.9
96746.9
96720.2
96690.1
96656.5
96619.7
96579.8
96536.7
96490.6
96441.5
96389.4
96334.3
96276.3
96215.3
96151.5
96084.8
96015.3
95943.1
95868.3
95791
95711.3
95629.4
95545.8
95460.6
95374.3
95287.2
95199.9
95112.7
95026.3
94941
94857.4
94776
94697.1
94621.2
94548.7
94479.9
94415
94354.1
94297.4
94245
94196.9
94153.6
94115.3
94082.3
94054.5
94031.7
94013.2
93998.4
93986.9
93978.6
93973.1
93970.2
93969.8
93972
93977.1
93984.9
93995.8
94008.4
94023.4
94040.6
94060
94081.4
94104.6
94129.8
94156.7
94185.3
94215.6
94247.4
94280.8
94315.8
94352.3
94390.2
94429.7
94470.6
94513
94556.9
94602.2
94649
94697.3
94747.1
94798.4
94851.2
94905.5
94961.2
95018.4
95077.1
95137.2
95198.7
95261.5
95325.8
95391.4
95458.3
95526.6
95596.1
95666.8
95738.6
95811.6
95885.6
95960.7
96036.8
96113.7
96191.6
96270.4
96349.9
96430.2
96511.2
96592.8
96675
96757.7
96840.9
96924.5
97008.4
97092.6
97177.1
97261.7
97346.5
97431.4
97516.2
97601
97685.7
97770.2
97854.4
97938.3
98021.8
98105
98187.6
98269.7
98351.2
98432
98512.1
98591.4
98669.8
98747.4
98823.9
98899.5
98973.9
99047.2
99119.3
99190.1
99259.6
99327.7
99394.3
99459.4
99523
99584.9
99645.2
99703.9
99760.8
99816.1
99869.6
99921.4
99971.5
100020
100067
100112
100155
100197
100237
100276
100314
100350
100385
100418
100451
100482
100513
100543
100572
100600
100628
100655
100681
100707
100732
100757
100782
100806
100830
100853
100876
100899
100922
100944
100966
100987
101008
101028
101048
101068
101086
101105
101123
101140
101156
101172
101187
101202
101216
101229
101241
101253
101264
101274
101284
101293
101302
101310
101317
101325
101331
101338
101344
101350
101355
101361
101367
101372
101378
101383
101389
101394
101400
101406
101411
101417
101423
101429
101435
101441
101448
101454
101460
101466
101472
101478
101484
101491
101496
101502
101508
101514
101519
101525
101530
101535
101540
101545
101549
101554
101558
101562
101565
101569
101572
101575
101577
101580
101582
101583
101585
101586
101586
101587
101587
101587
101586
101585
101584
101582
101580
101577
101574
101571
101568
101564
101559
101554
101549
101544
101538
101532
101525
101518
101511
101503
101495
101487
101478
101469
101460
101451
101441
101431
101421
101410
101399
101388
101377
101366
101354
101343
101331
94514.7
94509.2
94505.2
94494.2
94483.1
94465.9
94446.2
94430.5
94403.7
94382.5
94350.4
94334.3
94305.7
94278.9
94256.3
94232.4
94204
94172.6
94139.1
94106.3
94076.3
94048.3
94022.2
93999.7
93981.3
93970.3
93966.1
93970.9
93974.9
93978.2
93987.3
94008
94036.1
94076.1
94126.2
94174.2
94230.8
94291.7
94356.4
94422.5
94493.6
94567.8
94644
94722.4
94804.4
94889.3
94977.3
95068.8
95159.2
95274
95371.3
95460
95559.5
95652
95738.9
95818.7
95892.2
95967.2
96041.5
96108.5
96169.3
96227.3
96279
96323.7
96363.8
96398.2
96428.9
96455.3
96476.6
96492
96499.4
96502.8
96499.3
96495.6
96487
96474.7
96458
96438.2
96415.3
96389.2
96360
96327.6
96292.2
96253.9
96212.5
96168.3
96121.1
96071
96018.2
95962.8
95905.1
95845.2
95783.4
95719.7
95654.4
95587.7
95519.8
95450.9
95381.2
95311
95240.3
95169.5
95098.6
95028
94957.8
94888.3
94819.8
94752.4
94686.4
94622
94559.4
94498.7
94440.3
94384.2
94330.9
94280.5
94233.2
94189.4
94149.3
94113
94080.9
94052.9
94029.2
94009.8
93994.3
93983
93976.8
93975.3
93977.1
93982.4
93991.6
94004.8
94021.8
94042.6
94067.8
94095.3
94126.8
94161.5
94199.4
94240.2
94283.5
94329.3
94377.3
94427.3
94479.1
94532.7
94587.8
94644.3
94702.1
94761
94820.8
94881.6
94943
95005
95067.6
95130.5
95193.8
95257.3
95321
95384.7
95448.4
95512
95575.4
95638.6
95701.4
95763.9
95825.7
95887
95947.4
96006.9
96065.2
96122.3
96178
96232.2
96284.8
96335.8
96385.2
96432.9
96478.7
96522.5
96564
96603.4
96640.4
96674.7
96705.8
96733.1
96756.7
96776.7
96793.7
96807.3
96816.5
96822.1
96824.9
96824.6
96821.3
96814.3
96803.4
96788.8
96770.1
96747.6
96721.2
96691.2
96657.7
96621
96581
96537.8
96491.6
96442.3
96390.1
96334.9
96276.7
96215.6
96151.6
96084.8
96015.2
95942.9
95868
95790.5
95710.8
95629
95545.4
95460.3
95374.1
95287.1
95199.9
95112.8
95026.5
94941.4
94857.9
94776.6
94697.9
94622.2
94549.9
94481.2
94416.4
94355.7
94299.2
94247
94199.1
94155.9
94117.7
94084.7
94056.9
94034
94015.5
94000.8
93989.3
93981.6
93976.1
93973.2
93972.9
93975.2
93980.4
93988.4
93999
94011.8
94027
94044.4
94063.9
94085.4
94108.8
94134
94161
94189.7
94220
94251.9
94285.3
94320.3
94356.8
94394.7
94434.2
94475.1
94517.4
94561.2
94606.5
94653.3
94701.5
94751.2
94802.4
94855.1
94909.3
94964.9
95022
95080.6
95140.6
95202
95264.8
95329
95394.5
95461.4
95529.5
95598.9
95669.4
95741.1
95813.9
95887.8
95962.7
96038.6
96115.5
96193.3
96271.9
96351.3
96431.4
96512.3
96593.7
96675.8
96758.4
96841.5
96925
97008.8
97093
97177.3
97261.9
97346.6
97431.4
97516.1
97600.8
97685.3
97769.7
97853.8
97937.7
98021.1
98104.2
98186.7
98268.7
98350.1
98430.8
98510.8
98590
98668.3
98745.8
98822.3
98897.8
98972.2
99045.4
99117.4
99188.2
99257.6
99325.6
99392.2
99457.3
99520.8
99582.7
99643
99701.6
99758.6
99813.8
99867.3
99919.1
99969.2
100018
100064
100109
100153
100195
100235
100274
100312
100348
100383
100417
100449
100481
100512
100541
100570
100599
100626
100653
100680
100706
100731
100756
100781
100805
100829
100853
100876
100899
100921
100943
100965
100986
101007
101028
101048
101067
101086
101105
101122
101140
101156
101172
101187
101202
101216
101229
101241
101253
101264
101274
101284
101293
101302
101310
101317
101324
101331
101337
101344
101349
101355
101361
101366
101372
101377
101383
101388
101394
101399
101405
101411
101417
101423
101429
101435
101441
101447
101453
101459
101465
101471
101478
101484
101490
101496
101501
101507
101513
101518
101524
101529
101534
101539
101544
101548
101552
101556
101560
101564
101567
101570
101573
101575
101578
101580
101581
101583
101584
101584
101585
101585
101584
101584
101583
101581
101580
101578
101575
101572
101569
101565
101561
101557
101552
101547
101542
101536
101530
101523
101516
101509
101502
101494
101485
101477
101468
101459
101450
101440
101430
101420
101409
101399
101388
101377
101365
101354
101342
101331
94511.9
94508.3
94505
94495.1
94485.4
94467.3
94448.7
94431.3
94409.6
94380.4
94360.2
94334
94302.6
94270.5
94245.4
94221.3
94192.5
94161.6
94128.2
94096.2
94067.3
94040.4
94013.7
93987.8
93961.2
93938.3
93922.3
93921.4
93934.3
93955.9
93952.8
93977.8
94003.6
94030.3
94064.1
94111.9
94166.3
94222.9
94286.4
94347.6
94416.1
94490.2
94565
94643.7
94725.6
94810.3
94897.5
94990.1
95093.6
95211.5
95308.6
95400.8
95501
95595.2
95686.8
95775.8
95864.2
95947.2
96024.2
96097.9
96164.7
96219.4
96264.2
96305.1
96342.8
96374.9
96403
96428.3
96450.8
96470.4
96485
96495.2
96498.4
96496.8
96492
96483.5
96469.8
96451.6
96429.5
96402.6
96372.7
96339.5
96303.2
96263.8
96221.5
96176.2
96128.1
96077.2
96023.5
95967.5
95909.1
95848.7
95786.3
95722.2
95656.5
95589.5
95521.4
95452.4
95382.7
95312.4
95241.8
95171
95100.3
95029.8
94959.8
94890.5
94822.2
94755
94689.2
94625
94562.6
94502.1
94443.8
94387.9
94334.6
94284.3
94237.1
94193.3
94153.2
94117
94084.9
94056.9
94033.2
94013.7
93998.3
93986.8
93980.4
93978.9
93980.7
93985.8
93994.8
94007.8
94024.6
94045.9
94070.1
94097.7
94128.8
94163.3
94200.9
94241.4
94284.5
94330
94377.8
94427.4
94478.9
94532
94586.7
94642.7
94700
94758.5
94818
94878.4
94939.6
95001.6
95064.1
95127.1
95190.5
95254.1
95317.9
95381.9
95445.8
95509.8
95573.5
95637
95700.1
95762.8
95824.9
95886.4
95947.2
96007.3
96066.3
96124.4
96181.4
96237.1
96291.4
96344.1
96395
96443.9
96490.7
96535.2
96577.4
96617
96654
96688.1
96718.8
96745.7
96768.5
96787.5
96803.2
96815.8
96824.9
96828.8
96830.5
96829.1
96824.3
96815.8
96803.9
96788.4
96769.3
96746.4
96719.8
96689.7
96656.3
96619.6
96579.8
96536.8
96490.8
96441.8
96389.7
96334.7
96276.8
96216
96152.3
96085.7
96016.3
95944.2
95869.3
95792
95712.2
95630.4
95546.7
95461.5
95375.2
95288.2
95200.9
95113.7
95027.3
94942
94858.4
94777
94698.2
94622.4
94549.9
94481.2
94416.2
94355.4
94298.7
94246.3
94198.3
94155
94116.6
94083.3
94055.3
94032
94012.9
93998.2
93987.2
93978.9
93973.2
93970.4
93970.1
93972.4
93977.5
93985.4
93995.9
94008.7
94023.9
94041.3
94060.7
94082.2
94105.7
94130.9
94158
94186.7
94217.1
94249.1
94282.7
94317.8
94354.4
94392.5
94432.1
94473.2
94515.7
94559.7
94605.1
94652.1
94700.5
94750.3
94801.7
94854.5
94908.8
94964.6
95021.9
95080.6
95140.7
95202.3
95265.2
95329.5
95395.2
95462
95530.2
95599.6
95670.1
95741.8
95814.6
95888.5
95963.4
96039.3
96116.2
96193.9
96272.4
96351.8
96431.9
96512.6
96594.1
96676
96758.6
96841.5
96924.9
97008.6
97092.6
97176.9
97261.3
97345.8
97430.4
97515
97599.6
97684.1
97768.3
97852.3
97936
98019.4
98102.3
98184.7
98266.5
98347.8
98428.4
98508.2
98587.3
98665.5
98742.8
98819.2
98894.5
98968.8
99041.9
99113.8
99184.4
99253.7
99321.6
99388.1
99453.1
99516.5
99578.4
99638.6
99697.1
99754
99809.2
99862.7
99914.5
99964.6
100013
100060
100105
100148
100190
100231
100270
100307
100344
100379
100413
100445
100477
100508
100538
100567
100596
100623
100650
100677
100703
100729
100754
100779
100803
100827
100851
100874
100897
100920
100942
100964
100986
101007
101027
101047
101067
101086
101104
101122
101139
101156
101172
101187
101202
101216
101229
101241
101253
101264
101274
101284
101293
101302
101310
101317
101324
101331
101337
101343
101349
101355
101361
101366
101372
101377
101382
101388
101393
101399
101405
101410
101416
101422
101428
101434
101440
101446
101452
101458
101465
101471
101477
101483
101489
101495
101500
101506
101512
101517
101522
101528
101533
101537
101542
101546
101551
101555
101558
101562
101565
101568
101571
101573
101575
101577
101579
101580
101581
101582
101582
101582
101582
101581
101580
101579
101577
101575
101572
101570
101566
101563
101559
101554
101550
101545
101539
101534
101527
101521
101514
101507
101499
101492
101483
101475
101466
101457
101448
101438
101429
101418
101408
101398
101387
101376
101365
101354
101342
101331
94513.1
94511.3
94509.1
94499
94491
94476.3
94451.4
94432.8
94405.8
94383.8
94364.9
94343
94312.7
94283.8
94263.6
94241.4
94210.5
94177.5
94140.2
94104.4
94069.8
94038.9
94010.2
93987.6
93969.9
93953.3
93942.9
93931.5
93920.6
93923.7
93955.3
93969.1
93988.6
94032.3
94076.4
94125.1
94179.6
94243.4
94313
94381.2
94456.3
94536.4
94619.3
94706.3
94795.6
94887
94979.9
95075.4
95171.3
95275.2
95360.6
95446.3
95538.9
95627.5
95714.6
95800.2
95884
95961.1
96031.6
96097.7
96159.2
96215.2
96267.1
96313.6
96352.6
96384
96410.9
96434.2
96453.8
96469.9
96482
96490.2
96492.3
96488.2
96480.1
96471.1
96457.9
96440.1
96418.7
96393.6
96365.1
96333.1
96297.6
96258.4
96216
96170.8
96123.1
96072.9
96020
95964.6
95907
95847.3
95785.7
95722.2
95657.1
95590.6
95523
95454.4
95385
95315.1
95244.7
95174.2
95103.7
95033.4
94963.5
94894.3
94826.1
94759
94693.2
94629
94566.6
94506.1
94447.8
94391.9
94338.7
94288.4
94241.2
94197.4
94157.4
94121.1
94088.9
94060.9
94037.1
94017.6
94002
93990.5
93984
93982.5
93984.2
93989.3
93998.1
94010.8
94028.4
94049.3
94073.4
94100.8
94131.7
94166.1
94203.6
94244
94287
94332.4
94380
94429.5
94480.8
94533.9
94588.5
94644.6
94701.9
94760.4
94819.9
94880.3
94941.5
95003.3
95065.7
95128.6
95191.9
95255.4
95319.1
95382.9
95446.7
95510.5
95574
95637.3
95700.2
95762.6
95824.5
95885.8
95946.3
96006
96064.8
96122.6
96179.2
96234.4
96288.2
96340.4
96390.8
96439.4
96485.8
96530.1
96571.9
96611.4
96648.2
96682.3
96713.2
96740.3
96763.5
96783
96799
96811.7
96821.2
96826.4
96828
96826.8
96822.4
96814.5
96803.1
96788
96769.2
96746.6
96720.3
96690.5
96657.3
96620.8
96581
96538.2
96492.2
96443.2
96391.2
96336.2
96278.3
96217.4
96153.6
96086.9
96017.3
95945
95870
95792.5
95712.7
95630.8
95547.1
95461.8
95375.5
95288.4
95201
95113.9
95027.5
94942.3
94858.8
94777.4
94698.7
94622.8
94550.3
94481.5
94416.5
94355.5
94298.8
94246.4
94198.4
94155.1
94116.6
94083.4
94055.2
94031.4
94012
93997.7
93986.7
93978.4
93972.8
93970
93969.9
93972.2
93977.4
93985.4
93995.9
94008.9
94024.2
94041.7
94061.3
94082.9
94106.5
94131.9
94159
94187.9
94218.5
94250.6
94284.3
94319.5
94356.3
94394.5
94434.2
94475.3
94518
94562
94607.6
94654.6
94703.1
94753
94804.4
94857.3
94911.6
94967.4
95024.7
95083.4
95143.6
95205.2
95268.2
95332.6
95398.2
95465.1
95533.2
95602.6
95673
95744.6
95817.4
95891.1
95965.9
96041.7
96118.4
96196
96274.4
96353.7
96433.6
96514.2
96595.5
96677.3
96759.6
96842.5
96925.7
97009.3
97093.1
97177.2
97261.4
97345.8
97430.2
97514.7
97599
97683.3
97767.4
97851.2
97934.7
98017.8
98100.5
98182.7
98264.4
98345.4
98425.8
98505.4
98584.3
98662.4
98739.5
98815.7
98890.8
98964.9
99037.8
99109.6
99180
99249.2
99316.9
99383.3
99448.1
99511.4
99573.1
99633.2
99691.7
99748.6
99803.7
99857.2
99908.9
99959
100007
100054
100099
100143
100185
100226
100265
100302
100339
100374
100408
100441
100473
100504
100534
100563
100592
100620
100647
100674
100700
100726
100752
100777
100801
100825
100849
100873
100896
100919
100941
100963
100985
101006
101027
101047
101066
101086
101104
101122
101139
101156
101172
101187
101202
101216
101229
101241
101253
101264
101274
101284
101293
101302
101310
101317
101324
101331
101337
101343
101349
101355
101360
101366
101371
101377
101382
101387
101393
101398
101404
101410
101415
101421
101427
101433
101439
101445
101451
101457
101463
101469
101475
101481
101487
101493
101498
101504
101509
101515
101520
101525
101530
101535
101539
101543
101548
101551
101555
101558
101562
101565
101567
101569
101572
101573
101575
101576
101577
101578
101578
101578
101577
101577
101575
101574
101572
101570
101568
101565
101562
101558
101554
101550
101545
101540
101535
101529
101523
101517
101510
101503
101496
101488
101480
101472
101463
101454
101445
101436
101426
101416
101406
101396
101385
101375
101364
101353
101342
101331
94520.5
94516.8
94515.4
94501.3
94491.1
94473.9
94450.2
94429.7
94398.5
94368.6
94343.6
94318.8
94285.1
94253.2
94234.2
94211
94175.9
94140.2
94098.7
94060.5
94022.4
93990
93960.6
93931.7
93915.6
93892.8
93879.6
93876.9
93877.5
93896.2
93919.7
93947.8
93979.6
94019.5
94062
94109.3
94172.8
94231
94305
94373.3
94447.6
94525.2
94607
94694.8
94786
94879.5
94974.6
95071
95166.5
95267.8
95351.5
95438.4
95530.6
95619.5
95708.2
95796.3
95882.4
95961.8
96033
96096.5
96154.4
96208.7
96259.2
96304.2
96343.5
96376.9
96404.3
96425.7
96441.4
96453.4
96463.7
96471.4
96475.9
96476.8
96472.7
96464.5
96451.6
96433.8
96412
96386.8
96355.9
96324.6
96290.3
96253
96212.5
96168.7
96121.5
96071.5
96018.9
95963.9
95906.7
95847.3
95786
95722.9
95658.3
95592.3
95525.2
95457
95388.1
95318.5
95248.4
95178.2
95107.9
95037.8
94968.2
94899.2
94831.1
94764.1
94698.5
94634.4
94572
94511.6
94453.4
94397.5
94344.3
94294
94246.8
94203.1
94163
94126.8
94094.5
94066.4
94042.5
94022.9
94007.2
93995.5
93989
93987.4
93989.1
93994
94002.5
94015.5
94033.2
94053.8
94077.6
94104.8
94135.5
94169.6
94206.9
94247.1
94290
94335.2
94382.6
94431.9
94483.2
94536.1
94590.6
94646.5
94703.7
94762.1
94821.5
94881.8
94942.9
95004.7
95067
95129.8
95193
95256.6
95320.3
95384.1
95447.9
95511.6
95575.1
95638.3
95701.2
95763.6
95825.5
95886.8
95947.4
96007.1
96065.9
96123.6
96180.2
96235.4
96289.1
96341.3
96391.6
96440.1
96486.4
96530.5
96572.3
96611.5
96648.1
96681.8
96712.4
96739.5
96762.8
96782.3
96798.3
96811.1
96820.7
96826.2
96827.9
96826.5
96822
96814.1
96802.7
96787.7
96769
96746.6
96720.5
96690.9
96657.8
96621.4
96581.8
96539.1
96493.3
96444.4
96392.5
96337.6
96279.7
96218.8
96154.9
96088.2
96018.5
95946
95870.9
95793.3
95713.3
95631.3
95547.5
95462.2
95375.7
95288.6
95201.2
95114
95027.5
94942.2
94858.6
94777.2
94698.3
94622.4
94549.9
94481
94415.9
94355
94298.2
94245.9
94198
94154.7
94116.2
94082.8
94054.4
94030.2
94010.7
93996.5
93985.5
93977.3
93971.8
93969.2
93969.1
93971.5
93976.8
93984.9
93995.6
94008.7
94024.2
94041.9
94061.8
94083.6
94107.4
94133
94160.4
94189.5
94220.2
94252.5
94286.4
94321.8
94358.6
94397
94436.8
94478.1
94520.8
94565
94610.7
94657.8
94706.3
94756.3
94807.8
94860.8
94915.2
94971
95028.4
95087.1
95147.3
95208.9
95272
95336.3
95402
95468.9
95537
95606.3
95676.8
95748.3
95821
95894.6
95969.3
96045
96121.5
96199
96277.2
96356.2
96435.9
96516.3
96597.4
96679
96761.1
96843.7
96926.7
97010
97093.7
97177.5
97261.5
97345.7
97429.8
97514
97598.1
97682.1
97765.9
97849.4
97932.7
98015.6
98098
98180
98261.4
98342.2
98422.3
98501.7
98580.3
98658.1
98735
98810.9
98885.8
98959.7
99032.4
99103.9
99174.1
99243
99310.6
99376.7
99441.4
99504.5
99566.1
99626.1
99684.5
99741.2
99796.3
99849.7
99901.5
99951.6
100000
100047
100092
100136
100178
100218
100258
100296
100332
100368
100402
100435
100467
100498
100529
100558
100587
100615
100643
100670
100697
100723
100748
100774
100799
100823
100847
100871
100894
100917
100940
100962
100984
101005
101026
101046
101066
101085
101104
101122
101139
101156
101172
101187
101202
101216
101229
101242
101253
101264
101274
101284
101293
101302
101310
101317
101324
101331
101337
101344
101349
101355
101360
101366
101371
101376
101382
101387
101392
101398
101403
101409
101415
101420
101426
101432
101438
101444
101450
101456
101461
101467
101473
101479
101485
101490
101496
101501
101507
101512
101517
101522
101527
101531
101536
101540
101544
101547
101551
101554
101557
101560
101562
101564
101566
101568
101569
101571
101571
101572
101572
101572
101571
101570
101569
101568
101566
101564
101561
101558
101555
101552
101548
101544
101539
101534
101529
101523
101517
101511
101505
101498
101491
101483
101475
101467
101459
101450
101441
101432
101423
101414
101404
101394
101384
101373
101363
101352
101341
101331
94530.5
94528.5
94521.2
94510.6
94497.1
94479.4
94464.7
94451.2
94422.1
94389
94366
94342.7
94300.8
94263.3
94239.2
94209.3
94169.6
94134.3
94091.7
94053.4
94012
93983.1
93943.5
93917.8
93902.8
93882.3
93877.3
93872.7
93884.3
93893.6
93925.4
93959.5
93988
94035.8
94078.4
94131.8
94183.9
94248.5
94324.4
94389.3
94464.9
94543.4
94624.1
94707.8
94793.8
94882.4
94972.2
95065.1
95157.9
95255.1
95339.2
95427.8
95517.8
95604.3
95689
95771.2
95850.1
95924.6
95994.8
96060.5
96121
96176
96225.4
96268.9
96307.7
96340.5
96368
96391.7
96410.6
96424.7
96435.6
96444.7
96453.4
96460.4
96460.3
96452.2
96439.7
96424.1
96404.2
96381
96354
96323.3
96289
96251.7
96210.4
96165.7
96118.3
96069.1
96017.5
95963.3
95906.7
95848
95787.3
95724.8
95660.7
95595.2
95528.5
95460.7
95392.1
95322.9
95253.2
95183.2
95113.2
95043.3
94973.9
94905.1
94837.1
94770.2
94704.7
94640.6
94578.3
94517.9
94459.7
94403.9
94350.7
94300.4
94253.2
94209.5
94169.3
94133.1
94100.7
94072.5
94048.5
94028.7
94012.8
94001
93994.3
93992.6
93994.2
93998.9
94007.4
94020.7
94038.1
94058.5
94082
94109
94139.6
94173.6
94210.8
94250.9
94293.5
94338.6
94385.8
94435
94486
94538.8
94593.2
94649.1
94706.2
94764.6
94824
94884.3
94945.3
95007.1
95069.4
95132.1
95195.3
95258.8
95322.4
95386.1
95449.8
95513.4
95576.9
95640.1
95703
95765.4
95827.2
95888.4
95948.8
96008.4
96067.1
96124.7
96181.1
96236.2
96289.8
96341.8
96392
96440.3
96486.6
96530.5
96572.1
96611.1
96647.4
96681
96711.6
96738.7
96762.2
96781.8
96797.8
96810.7
96820.3
96825.8
96827.6
96826.3
96821.7
96813.8
96802.5
96787.6
96769.2
96747
96721.2
96691.8
96659
96622.8
96583.4
96540.8
96495.1
96446.3
96394.4
96339.5
96281.5
96220.5
96156.5
96089.6
96019.7
95947.1
95871.8
95794
95713.8
95631.6
95547.6
95462.1
95375.5
95288.2
95200.7
95113.4
95026.8
94941.5
94857.8
94776.3
94697.4
94621.4
94548.9
94479.9
94414.8
94353.9
94297.1
94244.8
94196.9
94153.6
94115.1
94081.7
94053
94028.5
94009.1
93994.9
93984
93975.9
93970.6
93968.1
93968.2
93970.7
93976.2
93984.4
93995.3
94008.7
94024.4
94042.4
94062.5
94084.7
94108.8
94134.7
94162.4
94191.8
94222.8
94255.3
94289.4
94325
94362.1
94400.7
94440.7
94482.1
94525.1
94569.4
94615.2
94662.5
94711.2
94761.3
94812.9
94865.9
94920.4
94976.4
95033.8
95092.6
95152.8
95214.4
95277.4
95341.7
95407.3
95474.1
95542.2
95611.4
95681.8
95753.2
95825.7
95899.2
95973.7
96049.1
96125.5
96202.7
96280.8
96359.6
96439.1
96519.3
96600.1
96681.4
96763.3
96845.6
96928.3
97011.4
97094.7
97178.3
97262
97345.8
97429.7
97513.6
97597.3
97681
97764.5
97847.7
97930.6
98013.1
98095.2
98176.9
98257.9
98338.4
98418.2
98497.2
98575.5
98653
98729.6
98805.2
98879.8
98953.3
99025.7
99097
99166.9
99235.6
99302.9
99368.8
99433.3
99496.2
99557.6
99617.5
99675.7
99732.3
99787.4
99840.7
99892.4
99942.5
99991
100038
100083
100127
100169
100210
100249
100287
100324
100360
100394
100428
100460
100492
100522
100552
100581
100610
100638
100665
100692
100719
100745
100770
100795
100820
100845
100869
100892
100916
100939
100961
100983
101005
101026
101046
101066
101086
101104
101122
101140
101157
101173
101188
101203
101217
101230
101242
101254
101265
101275
101285
101294
101302
101310
101318
101325
101331
101338
101344
101349
101355
101360
101365
101371
101376
101381
101386
101392
101397
101402
101408
101413
101419
101425
101430
101436
101442
101448
101453
101459
101465
101471
101476
101482
101487
101493
101498
101503
101508
101513
101518
101522
101527
101531
101535
101539
101542
101545
101549
101551
101554
101556
101558
101560
101562
101563
101564
101564
101565
101565
101564
101564
101563
101562
101560
101558
101556
101554
101551
101547
101544
101540
101536
101531
101527
101521
101516
101510
101504
101498
101491
101484
101477
101469
101462
101454
101445
101437
101428
101419
101410
101401
101391
101381
101371
101361
101351
101341
101331
94531.5
94526
94522.4
94509.2
94498.9
94480.7
94463.2
94448.7
94419.6
94388.2
94357.8
94346
94303.2
94266.5
94235.5
94205
94159.5
94123.1
94077.4
94039.7
94000.6
93957.8
93926.6
93901.7
93877.9
93870.4
93847.4
93865
93869.1
93885.4
93903.5
93947.2
93986.3
94020.3
94074.1
94123.2
94191.4
94246.6
94313.6
94371.3
94444.2
94522.4
94602.8
94687.5
94774.5
94863.3
94953.9
95048.3
95143
95241.2
95333.3
95427.8
95525.2
95619.5
95708.5
95789.4
95863.7
95932.9
95998.8
96061.2
96119.7
96173.8
96222.6
96265.5
96303
96335.3
96363.1
96387.6
96407.8
96423.5
96434.9
96442.9
96447.9
96448.7
96446.3
96438.5
96426.4
96411.2
96392.5
96369.2
96342.9
96312.7
96279.7
96243.5
96203.8
96161.6
96113.9
96065.8
96014.7
95961.4
95905.7
95847.6
95787.5
95725.7
95662.4
95597.8
95531.8
95464.7
95396.7
95328
95258.8
95189.3
95119.6
95050.1
94980.9
94912.3
94844.5
94777.7
94712.2
94648.2
94585.9
94525.5
94467.3
94411.5
94358.3
94307.9
94260.8
94217
94176.8
94140.5
94108
94079.7
94055.5
94035.5
94019.4
94007.4
94000.5
93998.7
94000.2
94004.9
94013.4
94026.8
94043.8
94063.9
94087.2
94114
94144.3
94178.2
94215.2
94255
94297.5
94342.4
94389.4
94438.5
94489.5
94542.2
94596.4
94652.1
94709.1
94767.3
94826.5
94886.7
94947.6
95009.3
95071.5
95134.3
95197.5
95261
95324.6
95388.2
95451.9
95515.6
95579
95642.2
95705.1
95767.5
95829.3
95890.4
95950.8
96010.3
96068.8
96126.3
96182.6
96237.6
96291
96342.9
96392.9
96441
96486.9
96530.6
96571.8
96610.5
96646.4
96679.6
96709.9
96737
96760.6
96780.3
96796.6
96809.6
96819.4
96825.1
96827.1
96826
96821.5
96813.6
96802.4
96787.8
96769.6
96747.8
96722.2
96693.1
96660.5
96624.5
96585.3
96542.8
96497.2
96448.5
96396.6
96341.6
96283.6
96222.5
96158.3
96091.2
96021.2
95948.3
95872.8
95794.7
95714.3
95631.8
95547.6
95461.9
95375.1
95287.6
95200
95112.5
95025.8
94940.3
94856.5
94774.8
94695.8
94619.8
94547.1
94478.1
94413
94352
94295.3
94243
94195.2
94151.9
94113.4
94079.7
94050.8
94026.3
94006.7
93992.5
93981.8
93973.9
93968.8
93966.5
93966.7
93969.4
93975.1
93983.6
93994.7
94008.3
94024.4
94042.6
94063.1
94085.6
94110
94136.3
94164.3
94194
94225.4
94258.3
94292.7
94328.6
94365.9
94404.7
94445
94486.7
94529.8
94574.4
94620.4
94667.8
94716.6
94766.8
94818.5
94871.7
94926.3
94982.3
95039.8
95098.6
95158.9
95220.5
95283.5
95347.8
95413.4
95480.2
95548.2
95617.4
95687.7
95759
95831.4
95904.8
95979.2
96054.4
96130.5
96207.4
96285.2
96363.6
96442.8
96522.6
96603.1
96684.1
96765.7
96847.7
96930.1
97012.8
97095.8
97179
97262.3
97345.8
97429.2
97512.7
97596.1
97679.4
97762.5
97845.3
97927.9
98010
98091.7
98173
98253.7
98333.8
98413.2
98491.9
98569.8
98646.9
98723.1
98798.4
98872.6
98945.8
99017.9
99088.8
99158.5
99226.8
99293.9
99359.5
99423.7
99486.4
99547.6
99607.3
99665.4
99721.9
99776.8
99830.1
99881.8
99931.8
99980.3
100027
100073
100116
100159
100200
100239
100278
100315
100350
100385
100419
100452
100483
100514
100545
100574
100603
100632
100659
100687
100714
100740
100766
100792
100817
100842
100866
100890
100914
100937
100960
100982
101004
101025
101046
101066
101085
101104
101123
101140
101157
101173
101189
101203
101217
101230
101243
101255
101266
101276
101286
101295
101303
101311
101319
101326
101332
101338
101344
101350
101355
101361
101366
101371
101376
101381
101386
101391
101397
101402
101407
101413
101418
101423
101429
101434
101440
101446
101451
101457
101462
101468
101473
101479
101484
101489
101494
101499
101504
101509
101513
101517
101521
101525
101529
101533
101536
101539
101542
101544
101547
101549
101551
101552
101554
101555
101555
101556
101556
101556
101556
101555
101554
101552
101551
101549
101547
101544
101541
101538
101535
101531
101527
101522
101518
101513
101507
101502
101496
101490
101483
101477
101470
101463
101455
101448
101440
101431
101423
101415
101406
101397
101388
101379
101369
101359
101350
101340
101331
94545.6
94534.8
94532.4
94518.7
94508.3
94490.9
94468.3
94452
94424.9
94389.1
94362.8
94340.1
94301.4
94260.2
94228.3
94193.6
94147.3
94111.1
94063.7
94019.9
93977.1
93944.8
93906.2
93884.2
93867.8
93844.5
93850.3
93851.2
93873.5
93888.5
93909.4
93943.6
93973.7
94020.6
94063
94119.5
94187.1
94259.3
94334.5
94389.8
94458.2
94530.4
94607.6
94687.6
94771.7
94858.6
94946.3
95036.2
95125.6
95216
95297.9
95386.3
95476.4
95567
95656
95740.6
95820.7
95895.6
95965.5
96030.2
96089.8
96144.7
96195.1
96240.3
96280.4
96316.3
96348.7
96376.8
96398.5
96415.4
96427.3
96435.4
96439.7
96438.8
96434.4
96426.5
96414.7
96399.7
96380.9
96358.3
96332.8
96303.7
96271.8
96236.4
96198
96157
96110.2
96063.4
96013.6
95961.2
95906.2
95849.2
95790.1
95729.1
95666.3
95601.8
95536.2
95469.6
95402
95333.8
95265
95195.9
95126.6
95057.2
94988.3
94919.9
94852.3
94785.7
94720.3
94656.5
94594.2
94533.9
94475.7
94419.9
94366.7
94316.3
94269.1
94225.3
94185
94148.6
94116.1
94087.5
94063.1
94042.9
94026.5
94014.2
94007.2
94005.3
94006.7
94011.4
94019.9
94033.1
94049.8
94069.5
94092.5
94119.2
94149.4
94183.1
94220
94259.7
94301.9
94346.6
94393.5
94442.3
94493.1
94545.5
94599.7
94655.3
94712.2
94770.4
94829.7
94889.8
94950.8
95012.5
95074.7
95137.5
95200.6
95264
95327.6
95391.2
95454.9
95518.5
95582
95645.2
95708
95770.3
95832.1
95893.1
95953.4
96012.8
96071.2
96128.5
96184.6
96239.4
96292.8
96344.5
96394.4
96442.3
96488.1
96531.6
96572.7
96611.2
96647
96680
96710.2
96737.2
96760.7
96780.4
96796.8
96810
96819.8
96825.5
96827.5
96826.3
96821.8
96813.9
96802.7
96788.2
96770.3
96748.8
96723.5
96694.7
96662.4
96626.7
96587.6
96545.4
96499.8
96451.1
96399.3
96344.2
96286.1
96224.8
96160.5
96093.1
96022.8
95949.7
95873.9
95795.5
95714.8
95632
95547.5
95461.5
95374.4
95286.7
95198.8
95111.2
95024.3
94938.7
94854.7
94773
94693.8
94617.7
94544.9
94475.8
94410.6
94349.5
94292.8
94240.5
94192.8
94149.5
94110.9
94077.1
94048
94023.4
94003.9
93989.6
93979.1
93971.5
93966.6
93964.5
93964.9
93967.9
93973.8
93982.6
93994
94008
94024.4
94043
94063.9
94086.7
94111.6
94138.2
94166.7
94196.8
94228.5
94261.8
94296.6
94332.8
94370.6
94409.8
94450.4
94492.4
94535.8
94580.6
94626.9
94674.5
94723.5
94773.9
94825.8
94879
94933.7
94989.9
95047.4
95106.3
95166.6
95228.2
95291.1
95355.3
95420.8
95487.4
95555.3
95624.2
95694.3
95765.5
95837.7
95910.9
95985
96060.1
96136.1
96212.8
96290.4
96368.6
96447.5
96527
96607.1
96687.7
96768.9
96850.5
96932.5
97014.8
97097.4
97180.2
97263.1
97346.2
97429.2
97512.3
97595.2
97678
97760.7
97843
97925.1
98006.8
98088
98168.8
98249
98328.6
98407.6
98485.8
98563.3
98640
98715.7
98790.6
98864.4
98937.2
99008.9
99079.4
99148.7
99216.7
99283.4
99348.7
99412.6
99475.1
99536.1
99595.6