/*--------------------------------*- C++ -*----------------------------------*\
| =========                 |                                                 |
| \\      /  F ield         | OpenFOAM: The Open Source CFD Toolbox           |
|  \\    /   O peration     | Version:  v1812                                 |
|   \\  /    A nd           | Web:      www.OpenFOAM.com                      |
|    \\/     M anipulation  |                                                 |
\*---------------------------------------------------------------------------*/
FoamFile
{
    version     2.0;
    format      ascii;
    class       surfaceScalarField;
    location    "0.2";
    object      phi;
}
// * * * * * * * * * * * * * * * * * * * * * * * * * * * * * * * * * * * * * //

dimensions      [1 0 -1 0 0 0 0];
oriented        oriented;


internalField   nonuniform List<scalar> 
40240
(
0.000203436
-0.000329114
0.000591027
-0.000510464
0.00114192
-0.000671309
0.00175326
-0.000727726
0.00240041
-0.000760769
0.00299683
-0.000707194
0.00345578
-0.000567187
0.00377169
-0.000421903
0.00383066
-0.000163506
0.0036631
6.44005e-05
0.00367416
-0.000110377
0.00353993
4.00129e-05
0.00294317
0.000509734
0.00197207
0.000887026
0.00103928
0.000852049
0.000412549
0.000550502
-1.70354e-05
0.000364769
-0.000491231
0.000414192
-0.00122475
0.000677619
-0.00240006
0.00111782
-0.00406585
0.00160687
-0.00617003
0.00205075
-0.00862619
0.00241811
-0.0113378
0.002694
-0.0142671
0.0029237
-0.0173505
0.00307894
-0.0205124
0.00315153
-0.0235713
0.00304588
-0.0264244
0.00284945
-0.0288507
0.0024413
-0.0308459
0.00203754
-0.0323976
0.00158954
-0.033542
0.0011772
-0.0343817
0.000904801
-0.0351226
0.000823264
-0.0357861
0.000757475
-0.0362444
0.000554163
-0.0364878
0.000346265
-0.0365751
0.000192176
-0.0365588
0.000113527
-0.036226
-0.00020865
-0.0354815
-0.000613218
-0.0343696
-0.000976513
-0.0329163
-0.00131521
-0.0311186
-0.00165698
-0.0290029
-0.00197148
-0.0266903
-0.00216261
-0.0245224
-0.00201172
-0.022926
-0.00143704
-0.0218771
-0.000888268
-0.0195778
-0.00214549
-0.0169274
-0.00249652
-0.0139479
-0.00282451
-0.0107976
-0.00299448
-0.00766051
-0.00297976
-0.00469366
-0.00280976
-0.00205034
-0.00248121
0.000301165
-0.00219928
0.0024768
-0.00202634
0.00452467
-0.00189512
0.00643288
-0.00175377
0.00819377
-0.00160598
0.00981342
-0.00146427
0.0112382
-0.00126931
0.0124022
-0.00100821
0.0133039
-0.000745571
0.0140509
-0.000590506
0.0147265
-0.000519281
0.0152872
-0.000406442
0.0156726
-0.000244069
0.0158213
1.14392e-06
0.0157836
0.000167286
0.0156419
0.000265746
0.0154697
0.000284646
0.0152725
0.000297438
0.0150368
0.000319943
0.0147485
0.00035634
0.0144233
0.000376197
0.0140891
0.000368116
0.01376
0.000346631
0.0134456
0.000315107
0.0131468
0.000282389
0.0128619
0.000249784
0.0125898
0.000216694
0.0123293
0.000183343
0.0120773
0.000151882
0.0118251
0.000128417
0.0115637
0.000113909
0.0112888
0.000103329
0.0109995
9.30998e-05
0.0106949
8.2501e-05
0.0103748
7.19808e-05
0.010039
6.17131e-05
0.00968672
5.23189e-05
0.0093188
4.27461e-05
0.00893737
3.14984e-05
0.0085441
1.9093e-05
0.00814003
6.02012e-06
0.00772582
-7.28017e-06
0.00730176
-2.03613e-05
0.00686719
-3.21173e-05
0.00642087
-4.18209e-05
0.00596179
-4.939e-05
0.00548933
-5.50552e-05
0.0050037
-5.94391e-05
0.00450569
-6.291e-05
0.00399636
-6.55928e-05
0.00347668
-6.73384e-05
0.00294747
-6.79596e-05
0.00240968
-6.75224e-05
0.00186454
-6.62467e-05
0.00131373
-6.44812e-05
0.000759322
-6.2548e-05
0.000203843
-6.05134e-05
-0.000349304
-5.79701e-05
-0.000895703
-5.67813e-05
-0.00143199
-5.55411e-05
-0.00195532
-5.37211e-05
-0.00246305
-5.12304e-05
-0.00295294
-4.79286e-05
-0.00342189
-4.49099e-05
-0.0038682
-4.11373e-05
-0.00429104
-3.64196e-05
-0.00469033
-3.09979e-05
-0.00506534
-2.45501e-05
-0.00541151
-1.75406e-05
-0.00572219
-1.09442e-05
-0.00600679
-4.17301e-06
-0.00626935
4.01094e-06
-0.00650116
1.26812e-05
-0.00670095
2.17478e-05
-0.0068689
3.11775e-05
-0.00700469
4.10647e-05
-0.00710701
5.0897e-05
-0.00717664
5.97867e-05
-0.00721666
7.3454e-05
-0.00721639
8.90655e-05
-0.00719012
9.98552e-05
-0.00712952
0.000109754
-0.00703624
0.000120727
-0.00691224
0.000132393
-0.00675901
0.000144339
-0.00657788
0.000156507
-0.00636974
0.000168717
-0.00613678
0.000181736
-0.00588047
0.000195563
-0.00560151
0.000209206
-0.00530072
0.000222614
-0.00497887
0.000235634
-0.00463671
0.000248148
-0.00427517
0.000260162
-0.00389501
0.000271342
-0.00349684
0.000281308
-0.00308078
0.00028951
-0.00264654
0.000295518
-0.00219423
0.000299813
-0.00172498
0.000303395
-0.00124033
0.00030672
-0.000741859
0.000309782
-0.00023095
0.000312473
0.000290502
0.000313965
0.000819413
0.000316068
0.00135403
0.000317431
0.00189234
0.000318404
0.0024321
0.00031918
0.00297109
0.000319771
0.00350721
0.000320126
0.00403881
0.000319927
0.00456473
0.00031839
0.00508291
0.000316638
0.00559343
0.000311903
0.00609551
0.000305523
0.0065876
0.000297878
0.00706815
0.000289059
0.00753537
0.000279293
0.00798682
0.000269321
0.00842034
0.00025901
0.00883463
0.000247611
0.00922874
0.000234805
0.00960164
0.000220821
0.00995219
0.000206108
0.010279
0.000190941
0.0105798
0.000175337
0.0108508
0.000159205
0.0110876
0.000142423
0.0112871
0.000125549
0.0114491
0.000109413
0.0115778
9.32506e-05
0.0116763
7.54607e-05
0.0117399
5.90489e-05
0.0117596
4.48737e-05
0.0117514
2.82891e-05
0.0117137
1.52848e-05
0.0116451
2.72512e-06
0.0115402
-1.06214e-05
0.0113987
-2.35905e-05
0.0112241
-3.67939e-05
0.0110157
-4.99567e-05
0.0107719
-6.09621e-05
0.0104937
-7.16008e-05
0.0101828
-8.13391e-05
0.00984081
-9.00009e-05
0.0094689
-9.74876e-05
0.00906814
-0.000103857
0.00863943
-0.000109196
0.00818358
-0.000113552
0.00770125
-0.000116933
0.00719291
-0.000119325
0.00665888
-0.000120743
0.00609931
-0.000121202
0.0055145
-0.000120137
0.00490535
-0.000118086
0.00427279
-0.000115436
0.00361763
-0.000112121
0.00294046
-0.00010767
0.00224228
-0.000102568
0.00152435
-9.66589e-05
0.000787821
-9.00367e-05
3.46606e-05
-8.26994e-05
-0.000732586
-7.46711e-05
-0.0015112
-6.658e-05
-0.00229823
-5.76284e-05
-0.00309077
-4.79894e-05
-0.00388492
-3.82536e-05
-0.00467691
-2.80883e-05
-0.00546291
-1.69069e-05
-0.00623881
-5.05527e-06
-0.00700082
7.45112e-06
-0.00774519
2.04919e-05
-0.00846832
3.38735e-05
-0.00916716
4.77126e-05
-0.00983906
6.19315e-05
-0.0104818
7.65975e-05
-0.0110939
9.19875e-05
-0.0116741
0.000107838
-0.012221
0.000123575
-0.0127339
0.000139307
-0.0132121
0.000155189
-0.0136548
0.000171422
-0.0140601
0.000187989
-0.0144256
0.000204617
-0.0147506
0.000220923
-0.0150361
0.000236346
-0.0152851
0.000250234
-0.0155017
0.000262699
-0.01569
0.000273928
-0.0158525
0.000285277
-0.015989
0.000294112
-0.0161045
0.000305202
-0.0162005
0.000315932
-0.0162774
0.000325481
-0.0163313
0.000334135
-0.0163628
0.000342467
-0.0163706
0.000350731
-0.016366
0.000359071
-0.0163428
0.000364218
-0.0163028
0.000369529
-0.0162475
0.00037468
-0.0161786
0.000379382
-0.0160972
0.000383526
-0.0160044
0.000387094
-0.0159013
0.000390083
-0.0157886
0.00039249
-0.0156673
0.000394317
-0.015538
0.000395584
-0.0154014
0.000396326
-0.0152579
0.000396582
-0.0151081
0.000396372
-0.0149524
0.000395729
-0.014791
0.000394668
-0.0146244
0.000393182
-0.0144526
0.000391299
-0.0142758
0.000389032
-0.0140941
0.000386383
-0.0139076
0.000383366
-0.0137164
0.00038001
-0.0135204
0.000376351
-0.0133195
0.00037244
-0.0131139
0.00036832
-0.0129035
0.000364032
-0.0126883
0.000359603
-0.0124685
0.000355048
-0.0122442
0.000350379
-0.0120152
0.000345599
-0.0117817
0.000341158
-0.0115438
0.000336587
-0.0113017
0.00033167
-0.0110554
0.000326383
-0.0108051
0.0003208
-0.0105507
0.000315057
-0.0102924
0.00030926
-0.0100301
0.000303475
-0.0097638
0.000297758
-0.00949358
0.000292106
-0.00921946
0.000286522
-0.00894152
0.000281032
-0.00865989
0.000275629
-0.00837467
0.0002703
-0.00808597
0.000265066
-0.00779394
0.000259956
-0.00749871
0.00025498
-0.00720037
0.000250133
-0.00689904
0.000245418
-0.00659483
0.000240848
-0.00628788
0.000236436
-0.00597835
0.000232189
-0.00566637
0.000228088
-0.00535206
0.000224086
-0.00503558
0.000220274
-0.00471732
0.000216734
-0.00439741
0.000213287
-0.00407598
0.000209949
-0.00375323
0.000206744
-0.00342934
0.000203721
-0.00310432
0.0002007
-0.00277799
0.000197586
-0.00245071
0.000194885
-0.00212262
0.000192357
-0.0017938
0.000189959
-0.00146436
0.00018773
-0.00113441
0.000185676
-0.000804069
0.000183803
-0.000473492
0.000182127
-0.000142847
0.000180617
0.000187571
0.000179229
0.000517476
0.000178265
0.00084678
0.000177576
0.0011753
0.000177163
0.00150286
0.000177008
0.00182928
0.000177094
0.00215442
0.000177403
0.00247816
0.000177919
0.00280037
0.000178626
0.00312094
0.000179515
0.00343976
0.000180563
0.00375671
0.000181777
0.0040717
0.000183125
0.00438463
0.000184614
0.00469535
0.000186295
0.00500378
0.000188076
0.00530982
0.000189961
0.00561335
0.000191977
0.00591429
0.000194053
0.00621263
0.000196114
0.00650838
0.000198153
0.00680151
0.000200192
0.00709204
0.00020222
0.00738002
0.000204203
0.00766556
0.000206116
0.0079488
0.000207949
0.00822988
0.000209705
0.00850896
0.000211383
0.00878622
0.000212984
0.00906185
0.000214501
0.00933609
0.000215933
0.00960915
0.000217285
0.00988124
0.000218561
0.0101525
0.00021977
0.0104232
0.000220906
0.0106932
0.000221964
0.0109628
0.000222919
0.0112321
0.000223677
0.0115014
0.000224198
0.0117708
0.000224451
0.0120405
0.000224413
0.0123107
0.00022413
0.0125813
0.000223667
0.0128522
0.000223013
0.0131231
0.000222154
0.0133941
0.00022102
0.0136647
0.000219558
0.0139349
0.000217783
0.0142042
0.000215694
0.0144725
0.000213252
0.0147393
0.000210446
0.0150043
0.000207295
0.0152671
0.000203818
0.0155272
0.000200027
0.015784
0.000195911
0.0160371
0.000191504
0.0162858
0.000186746
0.0165295
0.000181778
0.0167678
0.00017645
0.0170001
0.000170887
0.0172257
0.000165139
0.0174443
0.00015894
0.0176554
0.000152611
0.0178583
0.00014618
0.0180527
0.000139588
0.0182382
0.000132842
0.0184142
0.000125936
0.0185806
0.000118859
0.0187372
0.000111636
0.0188837
0.000104294
0.0190201
9.68407e-05
0.019146
8.9299e-05
0.0192611
8.173e-05
0.0193655
7.42131e-05
0.0194596
6.68185e-05
0.019544
5.95832e-05
0.0196191
5.24382e-05
0.0196852
4.5235e-05
0.0197422
3.79723e-05
0.0197904
3.08415e-05
0.0198298
2.38126e-05
0.0198611
1.68377e-05
0.0198848
9.9982e-06
0.0199017
3.3397e-06
0.0199121
-3.02293e-06
0.0199163
-8.90784e-06
0.0199164
-1.68108e-05
0.0199123
-2.27399e-05
0.0199034
-2.82825e-05
0.0198905
-3.38876e-05
0.019874
-3.94711e-05
0.0198546
-4.49865e-05
0.0198324
-5.04157e-05
0.019808
-5.57142e-05
0.0197815
-6.09138e-05
0.0197532
-6.59835e-05
0.0197235
-7.09467e-05
0.0196925
-7.57806e-05
0.0196604
-8.04693e-05
0.0196275
-8.50061e-05
0.019594
-8.94196e-05
0.0195601
-9.37289e-05
0.019526
-9.79361e-05
0.0194918
-0.000102036
0.0194577
-0.000106015
0.0194238
-0.000109858
0.0193901
-0.000113552
0.0193566
-0.000117089
0.0193234
-0.000120431
0.0192905
-0.000123677
0.0192579
-0.000126791
0.0192257
-0.000129664
0.0191938
-0.000132382
0.0191623
-0.000134997
0.0191314
-0.000137518
0.0191012
-0.00013993
0.0190716
-0.000142197
0.0190426
-0.000144296
0.0190144
-0.000146206
0.0189869
-0.000147921
0.01896
-0.000149439
0.0189338
-0.00015075
0.0189082
-0.000151843
0.0188831
-0.000152706
0.0188584
-0.000153348
0.0188342
-0.000153786
0.0188104
-0.000154036
0.0187869
-0.000154106
0.0187639
-0.000153998
0.0187411
-0.000153704
0.0187187
-0.000153216
0.0186966
-0.000152508
0.0186747
-0.000151636
0.0186532
-0.000150599
0.0186321
-0.000149296
0.0186115
-0.000147758
0.0185911
-0.000146033
0.0185707
-0.000144167
0.0185505
-0.000142151
0.0185308
-0.000139943
0.0185117
-0.00013756
0.0184929
-0.000135007
0.0184747
-0.000132285
0.018457
-0.000129402
0.0184398
-0.000126369
0.0184232
-0.000123196
0.0184072
-0.000119893
0.018392
-0.000116476
0.0183774
-0.000112946
0.0183636
-0.000109331
0.0183505
-0.000105631
0.0183384
-0.000101874
0.0183272
-9.80358e-05
0.0183169
-9.41385e-05
0.0183076
-9.01653e-05
0.0182993
-8.61628e-05
0.018292
-8.20872e-05
0.0182857
-7.80327e-05
0.0182805
-7.39579e-05
0.0182763
-6.99059e-05
0.0182733
-6.58794e-05
0.0182712
-6.18642e-05
0.0182701
-5.78623e-05
0.0182699
-5.38777e-05
0.0182706
-4.99293e-05
0.0182723
-4.60185e-05
0.0182753
-4.21858e-05
0.0182793
-3.84577e-05
0.0182844
-3.48493e-05
0.0182903
-3.13175e-05
0.018297
-2.78899e-05
0.0183043
-2.42707e-05
0.0183118
-2.0437e-05
0.0183173
-1.47021e-05
0.0183194
-7.49445e-06
-3.69066e-06
0.000658119
-0.00111243
0.00139818
-0.00137466
0.00216053
-0.00155565
0.00287912
-0.0015655
0.00351712
-0.00151643
0.00396518
-0.00126894
0.00427414
-0.000986757
0.00448604
-0.000743027
0.00443505
-0.00021772
0.0042044
0.000196938
0.00338657
0.000610763
0.00246883
0.000864675
0.00115929
0.00173098
-0.000660756
0.00262258
-0.00282739
0.00293692
-0.0052046
0.00284689
-0.00783415
0.0029096
-0.0107851
0.00328967
-0.0141451
0.00396903
-0.0179815
0.00488855
-0.0222794
0.00584315
-0.0269526
0.00667229
-0.0318254
0.00725787
-0.0366442
0.00749736
-0.0412101
0.00748053
-0.0453886
0.0072467
-0.0491473
0.00689594
-0.0524295
0.00633447
-0.055255
0.00571832
-0.0576627
0.00495398
-0.0596392
0.00409317
-0.0610352
0.00303755
-0.0617024
0.00189272
-0.0617322
0.000986783
-0.0612738
0.000434394
-0.060269
-0.000154151
-0.0588703
-0.000735084
-0.0572289
-0.00117688
-0.0554753
-0.00143814
-0.0537269
-0.00150231
-0.051902
-0.00189702
-0.0499367
-0.00243713
-0.0478273
-0.00294148
-0.0455896
-0.00340583
-0.0432035
-0.0038927
-0.0406412
-0.00437816
-0.0378834
-0.00475822
-0.0349234
-0.00480408
-0.0317576
-0.00443483
-0.0282817
-0.00419345
-0.0243593
-0.00589956
-0.0202745
-0.00641418
-0.0161835
-0.00674677
-0.0121735
-0.00683615
-0.00827833
-0.00670745
-0.00444098
-0.00647903
-0.000506696
-0.00623547
0.00373164
-0.00624173
0.00817907
-0.00628478
0.012456
-0.00599643
0.0163156
-0.00544923
0.0197329
-0.00486828
0.0226697
-0.00425545
0.0251175
-0.00357825
0.0271585
-0.00291445
0.0288825
-0.00233663
0.0303925
-0.00196806
0.0317113
-0.00170587
0.0327625
-0.00132711
0.0334225
-0.000780877
0.0336962
-0.000144124
0.0336735
0.000307917
0.033477
0.00057701
0.0331645
0.000705438
0.0327792
0.000780543
0.0323052
0.000878851
0.0317342
0.000997396
0.0311034
0.00106223
0.0304668
0.00104472
0.0298481
0.00098941
0.0292527
0.000918286
0.0286776
0.00084783
0.0281229
0.000775812
0.0275903
0.000700199
0.0270812
0.000621039
0.026595
0.000543344
0.0261242
0.000480347
0.025659
0.000435598
0.0251933
0.00040062
0.0247245
0.000368085
0.0242513
0.000335981
0.0237746
0.000303185
0.0232951
0.000269743
0.0228135
0.000236785
0.0223289
0.000204693
0.0218417
0.000171083
0.0213524
0.000136214
0.0208615
0.000100655
0.0203684
6.58459e-05
0.0198732
3.19435e-05
0.0193749
1.01322e-06
0.0188725
-2.58466e-05
0.0183645
-4.81352e-05
0.0178498
-6.62171e-05
0.0173282
-8.12439e-05
0.0168
-9.37863e-05
0.0162655
-0.000104099
0.0157253
-0.000112123
0.01518
-0.000117587
0.01463
-0.000120519
0.0140763
-0.000121333
0.0135201
-0.000120811
0.0129638
-0.000119772
0.0124105
-0.000118665
0.011864
-0.000118266
0.0113277
-0.000119283
0.0108055
-0.000121083
0.0103015
-0.000122742
0.00981874
-0.000123482
0.00935913
-0.000122376
0.0089251
-0.000121228
0.00851883
-0.000118894
0.00814155
-0.000114632
0.0077929
-0.000108745
0.00747265
-0.000101045
0.00718526
-9.22911e-05
0.00693879
-8.27845e-05
0.00672277
-7.15991e-05
0.0065311
-5.90039e-05
0.00637223
-4.48099e-05
0.00624804
-2.93152e-05
0.00615801
-1.2662e-05
0.00610246
4.70691e-06
0.0060823
2.41657e-05
0.00608832
4.86599e-05
0.00612794
7.10976e-05
0.00620473
9.61584e-05
0.00631412
0.000119319
0.00645312
0.000143582
0.00662073
0.000168821
0.00681569
0.000195026
0.00703657
0.000221922
0.00728204
0.000249295
0.00755138
0.000276825
0.00784372
0.000304796
0.00815737
0.0003345
0.0084911
0.000364302
0.0088437
0.000393983
0.00921415
0.000423109
0.00960197
0.000450909
0.0100072
0.000476739
0.0104307
0.000499491
0.0108732
0.00051824
0.0113359
0.000532362
0.011819
0.000541758
0.0123226
0.000547551
0.0128456
0.000551726
0.0133859
0.000555575
0.0139411
0.000559425
0.0145085
0.000563158
0.015085
0.000567085
0.0156691
0.000571412
0.0162575
0.000575932
0.0168473
0.000581106
0.0174352
0.000586893
0.0180188
0.000592138
0.0185964
0.000596202
0.0191661
0.000599318
0.0197243
0.00060211
0.0202688
0.000604224
0.0207975
0.000603363
0.0213087
0.000600041
0.0218001
0.000594694
0.0222681
0.000589485
0.0227098
0.000583432
0.023129
0.000571241
0.0235301
0.000551886
0.0239146
0.000527555
0.0242813
0.000500643
0.0246262
0.000474287
0.0249464
0.000448039
0.0252409
0.000420337
0.0255076
0.000391378
0.0257423
0.000361784
0.0259412
0.000330275
0.0261008
0.000298832
0.0262229
0.000265882
0.0263145
0.000229881
0.0263729
0.000199015
0.0263885
0.00016843
0.0263698
0.000136887
0.0263079
0.00011551
0.0262153
8.92465e-05
0.0260941
6.15692e-05
0.0259384
3.26474e-05
0.0257472
5.06226e-06
0.0255227
-2.13793e-05
0.0252632
-4.69849e-05
0.0249673
-6.85175e-05
0.0246362
-8.92132e-05
0.024272
-0.000108612
0.0238767
-0.000126053
0.0234517
-0.000141348
0.0229981
-0.000154455
0.022517
-0.000165535
0.0220093
-0.000174683
0.0214757
-0.000181967
0.0209171
-0.000187437
0.0203342
-0.000191218
0.0197277
-0.000193498
0.0190982
-0.000193571
0.0184466
-0.000191822
0.0177738
-0.000188911
0.0170807
-0.000184759
0.0163686
-0.000179107
0.015639
-0.000172503
0.0148935
-0.00016473
0.014134
-0.000155799
0.0133631
-0.00014574
0.012583
-0.000134892
0.0117964
-0.00012322
0.0110063
-0.00011035
0.0102162
-9.63651e-05
0.00943006
-8.21053e-05
0.0086519
-6.71416e-05
0.00788587
-5.09476e-05
0.00713606
-3.37384e-05
0.00640678
-1.56153e-05
0.00570193
3.28853e-06
0.00502497
2.29819e-05
0.00437881
4.37276e-05
0.00376594
6.55125e-05
0.00318829
8.85103e-05
0.00264749
0.00011284
0.00214566
0.00013728
0.00168379
0.000161937
0.00126196
0.000187346
0.000880057
0.000213694
0.000538512
0.000240926
0.000238832
0.00026874
-1.69453e-05
0.000297038
-0.000227919
0.000324828
-0.000395256
0.000351195
-0.000521924
0.000374904
-0.000611634
0.000395596
-0.000667672
0.000413502
-0.000692937
0.00042963
-0.000691102
0.000450527
-0.000666424
0.000467666
-0.000617585
0.000482975
-0.000543499
0.000497572
-0.000444116
0.000511909
-0.000318836
0.000525641
-0.000169897
0.000538488
2.74464e-07
0.000549789
0.000189149
0.000559279
0.000396221
0.000568035
0.000620486
0.000576086
0.000860597
0.000583377
0.00111518
0.000589865
0.00138292
0.000595512
0.00166261
0.000600259
0.00195315
0.000604054
0.00225356
0.000606863
0.00256298
0.000608679
0.00288065
0.000609543
0.00320591
0.0006095
0.00353818
0.000608598
0.00387698
0.000606881
0.0042219
0.000604391
0.0045726
0.000601114
0.00492882
0.000597089
0.00529038
0.000592331
0.00565714
0.000586837
0.00602903
0.000580634
0.006406
0.000573783
0.00678802
0.000566355
0.00717507
0.000558452
0.00756708
0.00055016
0.00796399
0.000541565
0.00836569
0.000532717
0.00877206
0.000523649
0.00918298
0.000514388
0.0095984
0.000504931
0.0100182
0.000496059
0.0104421
0.000486707
0.0108701
0.000476732
0.0113022
0.000466267
0.0117382
0.000455453
0.0121783
0.000444444
0.0126223
0.00043333
0.0130702
0.00042216
0.013522
0.000410998
0.0139778
0.000399849
0.0144374
0.000388745
0.0149008
0.000377768
0.0153679
0.00036695
0.0158385
0.0003563
0.0163124
0.000345889
0.0167896
0.000335826
0.0172697
0.00032619
0.0177523
0.000317005
0.0182374
0.000308275
0.0187244
0.000300012
0.0192131
0.000292232
0.0197033
0.000284945
0.0201944
0.000278126
0.0206863
0.000271739
0.0211784
0.000265983
0.0216704
0.000260681
0.0221624
0.000255587
0.022654
0.000250717
0.0231452
0.000246118
0.0236359
0.000241687
0.0241261
0.000237518
0.0246153
0.000233526
0.0251036
0.000229979
0.0255909
0.00022675
0.026077
0.000223899
0.0265616
0.000221517
0.0270444
0.000219581
0.0275253
0.000218022
0.0280041
0.000216844
0.0284806
0.000216052
0.0289547
0.00021581
0.029426
0.000216253
0.0298943
0.000217351
0.0303592
0.000219047
0.0308205
0.000221298
0.0312781
0.000224079
0.0317318
0.000227368
0.0321812
0.000231142
0.0326262
0.000235379
0.0330666
0.000240062
0.0335023
0.000245133
0.033933
0.00025059
0.0343587
0.000256348
0.0347791
0.00026239
0.0351943
0.000268792
0.0356042
0.000275322
0.0360087
0.00028197
0.0364079
0.000288806
0.0368016
0.000295713
0.03719
0.00030251
0.0375733
0.000309138
0.0379514
0.000315626
0.0383245
0.000321975
0.0386929
0.00032814
0.0390566
0.000334068
0.039416
0.000339738
0.0397712
0.000345157
0.0401225
0.000350334
0.0404702
0.000355278
0.0408145
0.000359993
0.0411557
0.000364485
0.0414941
0.000368767
0.04183
0.000372845
0.0421636
0.000376735
0.042495
0.000380418
0.0428245
0.00038388
0.0431522
0.000387111
0.0434782
0.000389995
0.0438027
0.000392479
0.0441257
0.000394495
0.0444476
0.000395921
0.0447685
0.000396743
0.0450886
0.000397045
0.0454078
0.000396848
0.0457261
0.000396203
0.0460431
0.000395048
0.0463587
0.000393296
0.0466726
0.00039095
0.0469845
0.000387992
0.0472941
0.000384332
0.0476011
0.000379928
0.0479051
0.000374816
0.0482057
0.000369045
0.0485024
0.000362651
0.0487947
0.000355624
0.049082
0.000348036
0.0493638
0.000339762
0.0496394
0.000331091
0.0499083
0.000321713
0.0501699
0.000311927
0.0504235
0.000301863
0.0506687
0.0002909
0.0509052
0.000279589
0.0511322
0.00026808
0.0513493
0.000256258
0.0515562
0.000244099
0.0517523
0.000231415
0.0519375
0.000218441
0.0521116
0.000205245
0.0522745
0.00019183
0.0524261
0.000178229
0.052566
0.000164481
0.052694
0.000150628
0.0528101
0.000136854
0.0529149
0.000123228
0.053009
0.000109635
0.0530931
9.60214e-05
0.0531673
8.24487e-05
0.0532316
6.88976e-05
0.0532863
5.53478e-05
0.0533317
4.1897e-05
0.0533684
2.85698e-05
0.0533972
1.54194e-05
0.0534187
2.47067e-06
0.053434
-1.04404e-05
0.0534433
-2.24381e-05
0.0534461
-3.54724e-05
0.0534442
-4.72946e-05
0.0534381
-5.87467e-05
0.0534279
-6.98856e-05
0.0534141
-8.08895e-05
0.053397
-9.18068e-05
0.0533772
-0.000102523
0.0533548
-0.000112967
0.0533302
-0.000123183
0.0533037
-0.000133152
0.0532755
-0.000142916
0.053246
-0.000152453
0.0532153
-0.000161713
0.0531837
-0.000170684
0.0531514
-0.0001794
0.0531186
-0.00018789
0.0530854
-0.000196158
0.053052
-0.000204193
0.0530186
-0.00021197
0.0529851
-0.000219459
0.0529517
-0.000226646
0.0529183
-0.000233516
0.0528851
-0.000240065
0.052852
-0.000246377
0.0528191
-0.000252296
0.0527862
-0.000257818
0.0527536
-0.000263062
0.0527213
-0.0002681
0.0526893
-0.000272951
0.0526579
-0.000277591
0.052627
-0.000281963
0.0525967
-0.000286008
0.052567
-0.000289674
0.0525379
-0.000292942
0.0525093
-0.000295811
0.0524813
-0.000298259
0.0524537
-0.000300264
0.0524264
-0.000301805
0.0523995
-0.000302899
0.0523729
-0.000303579
0.0523465
-0.000303894
0.0523204
-0.000303862
0.0522944
-0.000303497
0.0522688
-0.000302781
0.0522434
-0.000301702
0.0522182
-0.000300218
0.0521932
-0.000298404
0.0521684
-0.000296171
0.0521439
-0.000293425
0.0521198
-0.000290222
0.0520958
-0.000286636
0.0520717
-0.000282779
0.0520476
-0.000278618
0.0520239
-0.000274085
0.0520006
-0.000269203
0.0519776
-0.000263974
0.0519549
-0.000258404
0.0519326
-0.000252508
0.0519108
-0.000246304
0.0518893
-0.000239819
0.0518684
-0.000233083
0.0518479
-0.000226116
0.051828
-0.000218951
0.0518088
-0.000211607
0.0517902
-0.000204131
0.0517723
-0.000196515
0.0517553
-0.000188788
0.0517391
-0.000180874
0.0517237
-0.000172923
0.0517092
-0.000164743
0.0516955
-0.000156592
0.0516827
-0.000148299
0.0516708
-0.000140087
0.0516598
-0.000131883
0.0516498
-0.000123702
0.0516406
-0.000115572
0.0516323
-0.0001075
0.0516248
-9.94974e-05
0.0516181
-9.16006e-05
0.0516125
-8.37782e-05
0.0516078
-7.60922e-05
0.0516042
-6.85931e-05
0.0516015
-6.12279e-05
0.0515992
-5.38755e-05
0.0515979
-4.70608e-05
0.0515963
-3.9095e-05
0.0515951
-3.16041e-05
0.0515962
-2.44291e-05
0.0515977
-1.3945e-05
-6.77668e-06
0.000659702
-0.00189378
0.00150329
-0.00233885
0.00225732
-0.00242872
0.00289445
-0.00231994
0.00339888
-0.00213613
0.00373429
-0.00171608
0.00402905
-0.00139078
0.00428793
-0.00111018
0.00425323
-0.00028884
0.00364694
0.000701124
0.00259007
0.00156951
0.00114506
0.002217
-0.000977079
0.00376592
-0.00415955
0.00572136
-0.00825379
0.00694601
-0.0128178
0.00732246
-0.0176598
0.00767014
-0.0227376
0.00830028
-0.0280613
0.00923803
-0.0335261
0.0103028
-0.0389298
0.0112003
-0.0440978
0.0118014
-0.0489266
0.0120635
-0.0533368
0.0119009
-0.0572572
0.0114048
-0.0605741
0.0105637
-0.0631153
0.00941532
-0.0648388
0.00802171
-0.0656907
0.0065144
-0.065967
0.0052823
-0.0660539
0.004392
-0.0658786
0.00292673
-0.0656263
0.00171174
-0.065085
0.000446664
-0.0641541
-0.000405388
-0.0629098
-0.00126315
-0.0613764
-0.00213919
-0.0595678
-0.00286698
-0.0575368
-0.00334163
-0.0555514
-0.00334709
-0.0535643
-0.00373579
-0.0514449
-0.00440421
-0.0491949
-0.00503663
-0.0468056
-0.00563717
-0.0442698
-0.00626697
-0.0415782
-0.00690368
-0.0386879
-0.00747792
-0.0354098
-0.00790785
-0.0314344
-0.00823356
-0.0269435
-0.00850178
-0.0224838
-0.0101805
-0.0181879
-0.0105318
-0.0140487
-0.010707
-0.00999318
-0.0107119
-0.0059248
-0.0105953
-0.00174555
-0.0104778
0.00263432
-0.0104445
0.0072109
-0.010658
0.0119496
-0.0108607
0.0168557
-0.0107463
0.02175
-0.0101954
0.0262468
-0.00922725
0.0301106
-0.00799302
0.0334116
-0.00676335
0.0362703
-0.00566839
0.0387203
-0.00469221
0.0408014
-0.00396186
0.0425331
-0.00335547
0.0439466
-0.00266305
0.0450786
-0.00183891
0.0459631
-0.000955525
0.0465582
-0.000205148
0.0468795
0.000335621
0.0470062
0.000660674
0.0470122
0.000842283
0.0469355
0.00101795
0.0467567
0.00122738
0.0464359
0.00142152
0.0459896
0.00151603
0.0454382
0.00154768
0.0448353
0.00151585
0.0442156
0.00144538
0.0436016
0.00134883
0.0430105
0.00123014
0.0424528
0.00109555
0.0419299
0.000960368
0.0414343
0.000846998
0.04095
0.000767075
0.0404666
0.000706935
0.039981
0.000652142
0.0394939
0.000597478
0.0390055
0.00054123
0.0385145
0.000485865
0.0380212
0.000430227
0.0375244
0.000377189
0.0370236
0.000323214
0.036519
0.000268194
0.0360111
0.000212562
0.0355007
0.000157297
0.0349869
0.000104108
0.0344693
5.50105e-05
0.0339473
1.128e-05
0.0334202
-2.60916e-05
0.0328884
-5.846e-05
0.0323532
-8.72744e-05
0.0318158
-0.000113287
0.0312776
-0.000136724
0.0307401
-0.000157272
0.0302039
-0.000173967
0.0296691
-0.000186223
0.0291356
-0.000194193
0.0286037
-0.000198864
0.0280744
-0.000201512
0.02755
-0.000203308
0.0270328
-0.000205605
0.0265262
-0.000209211
0.026034
-0.000214153
0.0255602
-0.000219559
0.0251083
-0.000224231
0.0246801
-0.00022584
0.0242773
-0.000226574
0.0239022
-0.000225765
0.0235562
-0.000221923
0.0232394
-0.000215658
0.022951
-0.000207046
0.0226945
-0.000196389
0.0224791
-0.000183698
0.0222947
-0.000168663
0.022134
-0.000151163
0.0220056
-0.000131252
0.0219115
-0.000109274
0.0218518
-8.65348e-05
0.0218308
-6.11561e-05
0.021838
-2.85562e-05
0.0218777
3.33878e-06
0.0219514
3.62052e-05
0.0220614
6.97018e-05
0.0222056
0.000104196
0.0223824
0.000139829
0.0225907
0.000176563
0.0228291
0.000214366
0.0230963
0.000253139
0.0233905
0.00029304
0.0237095
0.000334103
0.0240518
0.000376619
0.0244171
0.000420055
0.0248055
0.000462748
0.0252164
0.000504783
0.0256488
0.000546099
0.0261012
0.000586127
0.0265725
0.000624102
0.0270616
0.00065858
0.0275676
0.00068863
0.028089
0.000713622
0.0286244
0.0007332
0.0291725
0.000748413
0.0297323
0.000761062
0.0303031
0.000772
0.0308844
0.000781343
0.0314753
0.000789343
0.0320751
0.00079653
0.0326822
0.000803216
0.0332948
0.000809902
0.0339103
0.000817191
0.0345258
0.000825321
0.0351376
0.00083405
0.0357423
0.000842814
0.0363375
0.00085055
0.0369231
0.000855793
0.0374998
0.000857033
0.0380645
0.000855943
0.0386162
0.000850767
0.039155
0.000840821
0.0396817
0.00082756
0.0401959
0.000811233
0.0406943
0.000789419
0.0411729
0.000761826
0.0416286
0.000729779
0.0420597
0.000694602
0.0424658
0.000657934
0.0428464
0.000620064
0.0432001
0.00058062
0.0435251
0.000539238
0.0438187
0.000496105
0.0440761
0.000451106
0.044294
0.00040587
0.0444708
0.000360295
0.0446085
0.000313233
0.0447135
0.000267226
0.0447856
0.000221672
0.0448147
0.000177999
0.0448096
0.000139187
0.0447678
0.000109372
0.0446888
7.48939e-05
0.044568
3.86393e-05
0.0444088
2.00445e-06
0.044213
-3.37115e-05
0.0439807
-6.86192e-05
0.0437135
-0.00010098
0.0434121
-0.000131927
0.0430778
-0.000160515
0.0427125
-0.000186613
0.0423176
-0.000209896
0.0418945
-0.000230273
0.0414443
-0.000247812
0.0409677
-0.00026259
0.0404656
-0.000274657
0.0399387
-0.000284047
0.0393878
-0.000290805
0.0388137
-0.000294953
0.0382172
-0.000296317
0.0375992
-0.000295445
0.0369602
-0.000292692
0.0363012
-0.000288029
0.0356233
-0.000281416
0.0349273
-0.000272799
0.0342145
-0.000262354
0.0334866
-0.000250296
0.0327459
-0.000236746
0.0319949
-0.00022194
0.0312364
-0.000206023
0.0304738
-0.000188521
0.0297104
-0.000169288
0.02895
-0.000149544
0.028197
-0.000128845
0.0274555
-0.000107028
0.02673
-8.4253e-05
0.0260244
-6.02617e-05
0.0253428
-3.5366e-05
0.0246888
-9.56425e-06
0.024066
1.73364e-05
0.0234779
4.52618e-05
0.0229269
7.4527e-05
0.0224158
0.00010472
0.0219454
0.00013596
0.0215173
0.000167011
0.0211319
0.000199557
0.0207884
0.000234469
0.0204866
0.000271203
0.0202275
0.000309139
0.0200127
0.000348037
0.0198432
0.000386384
0.0197174
0.000423249
0.019631
0.000456422
0.0195826
0.000484516
0.0195734
0.000510902
0.0195859
0.000537266
0.0196277
0.000562669
0.019697
0.000585451
0.0197906
0.000606891
0.0199067
0.000627274
0.020048
0.000646498
0.0202168
0.000664548
0.0204097
0.000681187
0.0206239
0.000695811
0.0208578
0.000708739
0.0211105
0.000720499
0.0213808
0.000731204
0.0216675
0.000740638
0.0219691
0.00074885
0.0222844
0.000755875
0.022612
0.000761666
0.022951
0.000766129
0.0233003
0.000769215
0.023659
0.000770913
0.0240264
0.000771285
0.0244018
0.000770449
0.0247845
0.000768491
0.0251738
0.000765512
0.0255693
0.000761574
0.0259704
0.000756632
0.0263768
0.000750696
0.0267883
0.000743737
0.0272048
0.000735701
0.0276262
0.000726584
0.0280526
0.000716447
0.028484
0.000705382
0.0289204
0.000693533
0.029362
0.000681036
0.0298086
0.000668036
0.0302602
0.000654633
0.0307166
0.000640905
0.0311778
0.000626918
0.0316436
0.000612709
0.0321137
0.000598882
0.032588
0.00058483
0.0330665
0.000570373
0.0335489
0.000555496
0.0340351
0.00054022
0.0345249
0.000524655
0.0350182
0.000508877
0.0355148