/*--------------------------------*- C++ -*----------------------------------*\
| =========                 |                                                 |
| \\      /  F ield         | OpenFOAM: The Open Source CFD Toolbox           |
|  \\    /   O peration     | Version:  v1812                                 |
|   \\  /    A nd           | Web:      www.OpenFOAM.com                      |
|    \\/     M anipulation  |                                                 |
\*---------------------------------------------------------------------------*/
FoamFile
{
    version     2.0;
    format      ascii;
    class       volScalarField;
    location    "0.2";
    object      rho;
}
// * * * * * * * * * * * * * * * * * * * * * * * * * * * * * * * * * * * * * //

dimensions      [1 -3 0 0 0 0 0];


internalField   nonuniform List<scalar> 
20400
(
1.14712
1.1471
1.14704
1.14693
1.14681
1.14666
1.14645
1.14625
1.146
1.14566
1.14545
1.14518
1.1449
1.14464
1.14452
1.14457
1.14488
1.14546
1.14618
1.14687
1.14747
1.14796
1.14835
1.14864
1.14881
1.14893
1.14902
1.14921
1.14947
1.14986
1.15031
1.15083
1.15136
1.15194
1.15252
1.1531
1.15374
1.1544
1.15506
1.15578
1.15651
1.15723
1.15794
1.15865
1.15939
1.1601
1.1607
1.16118
1.16156
1.1622
1.16283
1.16334
1.16386
1.16421
1.16446
1.16463
1.16469
1.16468
1.16461
1.16448
1.16431
1.16412
1.16393
1.16373
1.16355
1.16341
1.16333
1.16328
1.16326
1.16322
1.16319
1.16316
1.16309
1.16302
1.16292
1.16281
1.16266
1.16249
1.16229
1.16206
1.1618
1.16152
1.16121
1.16088
1.16052
1.16013
1.15972
1.15928
1.15882
1.15834
1.15784
1.15732
1.15679
1.15623
1.15567
1.15509
1.1545
1.1539
1.1533
1.15269
1.15208
1.15146
1.15085
1.15024
1.14963
1.14902
1.14843
1.14784
1.14727
1.14671
1.14616
1.14563
1.14512
1.14463
1.14417
1.14373
1.14331
1.14293
1.14258
1.14226
1.14197
1.14173
1.14152
1.14134
1.1412
1.1411
1.14104
1.14102
1.14103
1.14107
1.14114
1.14125
1.14139
1.14156
1.14177
1.142
1.14227
1.14256
1.14288
1.14323
1.14359
1.14398
1.14439
1.14481
1.14525
1.14571
1.14618
1.14666
1.14715
1.14765
1.14817
1.14869
1.14921
1.14974
1.15028
1.15082
1.15136
1.15191
1.15246
1.15301
1.15356
1.1541
1.15465
1.15519
1.15573
1.15627
1.15681
1.15733
1.15786
1.15837
1.15888
1.15938
1.15987
1.16035
1.16081
1.16126
1.16169
1.16211
1.16251
1.16289
1.16325
1.16359
1.1639
1.1642
1.16446
1.16469
1.16489
1.16505
1.16519
1.1653
1.16538
1.16541
1.16543
1.16542
1.16539
1.16532
1.16522
1.16509
1.16493
1.16473
1.1645
1.16424
1.16395
1.16363
1.16329
1.16292
1.16252
1.16209
1.16164
1.16117
1.16066
1.16014
1.15959
1.15901
1.15841
1.15779
1.15714
1.15647
1.15578
1.15507
1.15435
1.15361
1.15286
1.15211
1.15135
1.15059
1.14984
1.1491
1.14837
1.14766
1.14697
1.14631
1.14568
1.14508
1.14451
1.14398
1.14348
1.14302
1.1426
1.14222
1.14188
1.14159
1.14134
1.14114
1.14097
1.14084
1.14073
1.14066
1.1406
1.14058
1.14057
1.14058
1.14062
1.14069
1.14078
1.14088
1.14101
1.14115
1.14132
1.1415
1.1417
1.14191
1.14214
1.14239
1.14265
1.14292
1.14321
1.14351
1.14382
1.14415
1.14449
1.14484
1.1452
1.14558
1.14597
1.14638
1.14679
1.14722
1.14766
1.14812
1.14859
1.14907
1.14956
1.15007
1.15058
1.15111
1.15166
1.15221
1.15277
1.15335
1.15394
1.15454
1.15514
1.15576
1.15639
1.15703
1.15767
1.15832
1.15899
1.15965
1.16033
1.16101
1.1617
1.1624
1.1631
1.1638
1.16451
1.16522
1.16594
1.16666
1.16738
1.1681
1.16883
1.16955
1.17028
1.171
1.17173
1.17245
1.17317
1.17389
1.17461
1.17532
1.17603
1.17673
1.17743
1.17813
1.17882
1.1795
1.18017
1.18084
1.1815
1.18215
1.1828
1.18343
1.18405
1.18467
1.18527
1.18586
1.18644
1.187
1.18756
1.1881
1.18862
1.18913
1.18963
1.19011
1.19058
1.19104
1.19147
1.1919
1.19231
1.1927
1.19309
1.19345
1.19381
1.19415
1.19448
1.19479
1.1951
1.19539
1.19568
1.19595
1.19622
1.19647
1.19673
1.19697
1.19721
1.19744
1.19767
1.19789
1.19811
1.19832
1.19853
1.19874
1.19894
1.19914
1.19934
1.19953
1.19973
1.19992
1.2001
1.20029
1.20046
1.20064
1.20081
1.20098
1.20115
1.20131
1.20146
1.20161
1.20175
1.20189
1.20203
1.20216
1.20228
1.2024
1.20251
1.20261
1.20271
1.2028
1.20289
1.20297
1.20305
1.20312
1.20319
1.20325
1.20331
1.20336
1.20342
1.20347
1.20351
1.20356
1.20361
1.20365
1.2037
1.20374
1.20379
1.20384
1.20388
1.20393
1.20398
1.20402
1.20407
1.20412
1.20417
1.20422
1.20427
1.20432
1.20437
1.20442
1.20447
1.20453
1.20458
1.20463
1.20468
1.20473
1.20477
1.20482
1.20487
1.20491
1.20496
1.205
1.20504
1.20508
1.20512
1.20516
1.20519
1.20522
1.20526
1.20528
1.20531
1.20533
1.20536
1.20537
1.20539
1.20541
1.20542
1.20542
1.20543
1.20543
1.20543
1.20543
1.20542
1.20541
1.2054
1.20539
1.20537
1.20535
1.20532
1.20529
1.20526
1.20523
1.20519
1.20515
1.20511
1.20506
1.20502
1.20496
1.20491
1.20485
1.20479
1.20473
1.20466
1.20459
1.20452
1.20445
1.20437
1.20429
1.20421
1.20412
1.20404
1.20395
1.20386
1.20376
1.20367
1.20357
1.20347
1.20338
1.20327
1.20317
1.14701
1.14697
1.14693
1.14682
1.14672
1.14656
1.14638
1.14625
1.14602
1.14587
1.1456
1.14552
1.14536
1.14524
1.14529
1.14566
1.14653
1.1477
1.14873
1.14943
1.14994
1.15035
1.15071
1.15103
1.15134
1.15171
1.15216
1.15275
1.15338
1.15404
1.15474
1.15548
1.15621
1.15696
1.15772
1.15843
1.15921
1.15998
1.16074
1.16149
1.16226
1.16303
1.16379
1.16455
1.16534
1.16608
1.16673
1.16726
1.16775
1.16866
1.1696
1.17022
1.17092
1.17142
1.17177
1.17199
1.1721
1.17217
1.17211
1.17185
1.1714
1.17083
1.17013
1.1693
1.16843
1.16759
1.16684
1.16619
1.1656
1.16506
1.16457
1.16419
1.16386
1.16361
1.16337
1.16316
1.16294
1.16272
1.1625
1.16226
1.16201
1.16173
1.16142
1.16109
1.16074
1.16036
1.15995
1.15952
1.15906
1.15858
1.15808
1.15756
1.15703
1.15648
1.15592
1.15534
1.15476
1.15416
1.15356
1.15296
1.15235
1.15174
1.15112
1.15051
1.1499
1.1493
1.1487
1.14812
1.14754
1.14698
1.14644
1.14591
1.1454
1.14491
1.14444
1.144
1.14359
1.14321
1.14285
1.14254
1.14225
1.14201
1.1418
1.14162
1.14148
1.14138
1.14132
1.1413
1.14132
1.14136
1.14143
1.14154
1.14168
1.14186
1.14207
1.1423
1.14257
1.14286
1.14319
1.14353
1.1439
1.14429
1.1447
1.14513
1.14557
1.14603
1.1465
1.14699
1.14748
1.14799
1.1485
1.14902
1.14955
1.15008
1.15062
1.15116
1.1517
1.15225
1.1528
1.15335
1.1539
1.15444
1.15498
1.15553
1.15607
1.1566
1.15713
1.15766
1.15818
1.15869
1.15919
1.15968
1.16016
1.16062
1.16107
1.16151
1.16194
1.16235
1.16274
1.16312
1.16348
1.16382
1.16414
1.16443
1.1647
1.16494
1.16514
1.16531
1.16546
1.16558
1.16566
1.1657
1.16573
1.16573
1.1657
1.16564
1.16555
1.16542
1.16526
1.16507
1.16484
1.16458
1.1643
1.16398
1.16364
1.16326
1.16287
1.16244
1.16199
1.16151
1.16101
1.16048
1.15993
1.15935
1.15875
1.15813
1.15748
1.15681
1.15612
1.15541
1.15469
1.15395
1.1532
1.15245
1.15169
1.15094
1.15019
1.14945
1.14873
1.14802
1.14733
1.14667
1.14604
1.14544
1.14488
1.14434
1.14385
1.14339
1.14297
1.14259
1.14225
1.14196
1.14171
1.14151
1.14134
1.14121
1.14111
1.14103
1.14098
1.14095
1.14095
1.14096
1.141
1.14107
1.14115
1.14126
1.14139
1.14154
1.1417
1.14188
1.14208
1.1423
1.14253
1.14277
1.14303
1.14331
1.14359
1.14389
1.14421
1.14453
1.14487
1.14522
1.14558
1.14596
1.14635
1.14675
1.14717
1.1476
1.14804
1.14849
1.14896
1.14943
1.14993
1.15043
1.15095
1.15147
1.15201
1.15257
1.15313
1.15371
1.15429
1.15489
1.1555
1.15611
1.15674
1.15738
1.15802
1.15867
1.15933
1.16
1.16068
1.16136
1.16205
1.16274
1.16344
1.16415
1.16485
1.16557
1.16628
1.167
1.16772
1.16845
1.16917
1.1699
1.17062
1.17135
1.17207
1.1728
1.17352
1.17424
1.17495
1.17567
1.17638
1.17708
1.17778
1.17848
1.17917
1.17985
1.18053
1.18119
1.18185
1.18251
1.18315
1.18378
1.18441
1.18502
1.18562
1.18621
1.18679
1.18736
1.18791
1.18845
1.18898
1.18949
1.18999
1.19047
1.19094
1.1914
1.19184
1.19226
1.19268
1.19307
1.19345
1.19382
1.19418
1.19452
1.19485
1.19517
1.19548
1.19577
1.19606
1.19633
1.1966
1.19686
1.19711
1.19736
1.1976
1.19783
1.19806
1.19828
1.1985
1.19872
1.19893
1.19914
1.19934
1.19954
1.19974
1.19994
1.20013
1.20032
1.20051
1.20069
1.20087
1.20105
1.20122
1.20139
1.20156
1.20172
1.20187
1.20202
1.20217
1.20231
1.20244
1.20257
1.2027
1.20281
1.20293
1.20303
1.20313
1.20322
1.20331
1.20339
1.20347
1.20354
1.20361
1.20367
1.20373
1.20379
1.20384
1.20389
1.20394
1.20399
1.20403
1.20408
1.20412
1.20417
1.20421
1.20426
1.20431
1.20435
1.2044
1.20445
1.2045
1.20454
1.20459
1.20464
1.20469
1.20474
1.2048
1.20485
1.2049
1.20495
1.205
1.20505
1.2051
1.20515
1.20519
1.20524
1.20529
1.20533
1.20538
1.20542
1.20546
1.2055
1.20554
1.20558
1.20561
1.20564
1.20567
1.2057
1.20573
1.20575
1.20578
1.2058
1.20581
1.20583
1.20584
1.20585
1.20585
1.20586
1.20586
1.20585
1.20585
1.20584
1.20583
1.20581
1.2058
1.20578
1.20575
1.20572
1.20569
1.20566
1.20562
1.20558
1.20554
1.20549
1.20545
1.20539
1.20534
1.20528
1.20522
1.20515
1.20509
1.20502
1.20495
1.20487
1.2048
1.20472
1.20463
1.20455
1.20447
1.20438
1.20429
1.2042
1.2041
1.20401
1.20391
1.20381
1.20371
1.20361
1.147
1.14698
1.14695
1.14685
1.14677
1.14662
1.14647
1.14636
1.14624
1.14607
1.146
1.14591
1.14578
1.1457
1.14597
1.14704
1.14879
1.15043
1.15149
1.15216
1.15271
1.15323
1.15374
1.15425
1.15476
1.15531
1.15592
1.15664
1.15741
1.15816
1.1586
1.15922
1.15975
1.16024
1.16074
1.16136
1.16204
1.16273
1.16347
1.16419
1.16497
1.16579
1.16663
1.1675
1.1684
1.1693
1.17019
1.17108
1.17205
1.17318
1.17414
1.17497
1.17587
1.17666
1.17738
1.17805
1.17867
1.17918
1.17954
1.17973
1.17968
1.17934
1.17871
1.17786
1.17679
1.17553
1.17417
1.17276
1.1713
1.16985
1.16848
1.16729
1.1663
1.1655
1.16484
1.1643
1.16384
1.16345
1.16312
1.16279
1.16248
1.16218
1.16186
1.16152
1.16115
1.16076
1.16035
1.15991
1.15944
1.15896
1.15845
1.15793
1.15739
1.15684
1.15627
1.15569
1.1551
1.15451
1.15391
1.1533
1.15269
1.15208
1.15147
1.15086
1.15026
1.14966
1.14907
1.14849
1.14792
1.14736
1.14681
1.14629
1.14578
1.14529
1.14483
1.14439
1.14397
1.14359
1.14324
1.14292
1.14264
1.1424
1.14219
1.14201
1.14188
1.14177
1.14171
1.1417
1.14171
1.14175
1.14182
1.14193
1.14207
1.14225
1.14246
1.14269
1.14296
1.14325
1.14357
1.14392
1.14429
1.14468
1.14509
1.14551
1.14595
1.14641
1.14688
1.14736
1.14785
1.14835
1.14886
1.14938
1.14991
1.15044
1.15097
1.15152
1.15206
1.15261
1.15316
1.15371
1.15427
1.15482
1.15537
1.15591
1.15646
1.157
1.15753
1.15806
1.15858
1.1591
1.1596
1.1601
1.16059
1.16107
1.16154
1.162
1.16244
1.16286
1.16326
1.16365
1.16401
1.16436
1.16468
1.16497
1.16524
1.16547
1.16567
1.16584
1.16597
1.16608
1.16616
1.1662
1.16621
1.1662
1.16616
1.16609
1.16599
1.16585
1.16569
1.1655
1.16527
1.16501
1.16472
1.16441
1.16407
1.1637
1.1633
1.16288
1.16243
1.16196
1.16146
1.16094
1.16039
1.15981
1.15921
1.15859
1.15795
1.15728
1.15659
1.15588
1.15516
1.15442
1.15367
1.15292
1.15216
1.1514
1.15065
1.14991
1.14918
1.14848
1.14779
1.14713
1.1465
1.1459
1.14534
1.1448
1.14431
1.14385
1.14343
1.14305
1.14271
1.14241
1.14216
1.14196
1.14179
1.14165
1.14156
1.14148
1.14143
1.1414
1.14139
1.14141
1.14145
1.14152
1.14161
1.14172
1.14184
1.14199
1.14216
1.14234
1.14255
1.14276
1.14299
1.14324
1.1435
1.14378
1.14407
1.14437
1.14469
1.14501
1.14535
1.14571
1.14607
1.14645
1.14685
1.14725
1.14767
1.1481
1.14854
1.149
1.14947
1.14995
1.15044
1.15095
1.15147
1.152
1.15254
1.15309
1.15366
1.15424
1.15482
1.15542
1.15603
1.15665
1.15728
1.15791
1.15856
1.15921
1.15987
1.16054
1.16122
1.1619
1.16259
1.16329
1.16399
1.16469
1.1654
1.16612
1.16683
1.16755
1.16827
1.16899
1.16972
1.17044
1.17117
1.17189
1.17262
1.17334
1.17407
1.17479
1.1755
1.17622
1.17693
1.17763
1.17833
1.17903
1.17972
1.1804
1.18108
1.18174
1.1824
1.18306
1.1837
1.18433
1.18496
1.18557
1.18617
1.18676
1.18734
1.18791
1.18846
1.189
1.18953
1.19004
1.19054
1.19102
1.19149
1.19195
1.19239
1.19281
1.19323
1.19362
1.19401
1.19438
1.19473
1.19508
1.19541
1.19573
1.19603
1.19633
1.19662
1.1969
1.19717
1.19743
1.19768
1.19793
1.19817
1.1984
1.19863
1.19886
1.19908
1.1993
1.19951
1.19972
1.19993
1.20013
1.20033
1.20053
1.20072
1.20092
1.2011
1.20129
1.20147
1.20165
1.20182
1.20199
1.20216
1.20232
1.20248
1.20263
1.20277
1.20292
1.20305
1.20318
1.2033
1.20342
1.20353
1.20364
1.20374
1.20383
1.20392
1.204
1.20408
1.20415
1.20422
1.20428
1.20434
1.2044
1.20445
1.2045
1.20455
1.2046
1.20465
1.20469
1.20474
1.20478
1.20483
1.20488
1.20492
1.20497
1.20502
1.20506
1.20511
1.20516
1.20521
1.20526
1.20531
1.20536
1.20541
1.20546
1.20551
1.20556
1.20561
1.20566
1.20571
1.20576
1.20581
1.20586
1.2059
1.20595
1.20599
1.20604
1.20608
1.20612
1.20615
1.20619
1.20623
1.20626
1.20629
1.20632
1.20634
1.20637
1.20639
1.20641
1.20643
1.20644
1.20645
1.20646
1.20647
1.20647
1.20647
1.20647
1.20647
1.20646
1.20645
1.20644
1.20642
1.2064
1.20638
1.20635
1.20632
1.20629
1.20625
1.20621
1.20617
1.20612
1.20608
1.20602
1.20597
1.20591
1.20585
1.20579
1.20572
1.20565
1.20558
1.20551
1.20543
1.20535
1.20527
1.20519
1.20511
1.20502
1.20493
1.20484
1.20474
1.20465
1.20455
1.20446
1.20436
1.20427
1.14701
1.14701
1.14699
1.1469
1.14686
1.14677
1.14664
1.14662
1.14658
1.14661
1.14669
1.14678
1.14678
1.14684
1.14762
1.14963
1.152
1.15372
1.15472
1.1554
1.15602
1.15662
1.15718
1.15769
1.15812
1.15843
1.15868
1.15881
1.15887
1.15899
1.15931
1.15946
1.15968
1.16016
1.16068
1.16129
1.16198
1.16277
1.16364
1.16452
1.16546
1.16643
1.16744
1.1685
1.16957
1.17066
1.17174
1.17283
1.1739
1.17503
1.17596
1.17689
1.17784
1.17877
1.17966
1.1805
1.1813
1.18201
1.1826
1.18309
1.18345
1.18366
1.18369
1.18353
1.18311
1.1824
1.18144
1.18023
1.17874
1.177
1.17509
1.17316
1.1713
1.16959
1.16803
1.16669
1.16556
1.16463
1.1639
1.16336
1.16293
1.16253
1.16216
1.16179
1.16142
1.16103
1.16062
1.16019
1.15973
1.15925
1.15875
1.15823
1.1577
1.15715
1.15659
1.15601
1.15543
1.15484
1.15424
1.15363
1.15303
1.15242
1.15181
1.1512
1.1506
1.15
1.14942
1.14884
1.14827
1.14771
1.14717
1.14664
1.14613
1.14565
1.14518
1.14474
1.14433
1.14395
1.1436
1.14328
1.143
1.14276
1.14255
1.14238
1.14224
1.14214
1.14208
1.14206
1.14207
1.14211
1.14219
1.14229
1.14244
1.14262
1.14283
1.14306
1.14332
1.14362
1.14394
1.14429
1.14466
1.14505
1.14546
1.14588
1.14632
1.14678
1.14725
1.14773
1.14823
1.14873
1.14924
1.14976
1.15029
1.15082
1.15136
1.1519
1.15244
1.15299
1.15354
1.15409
1.15464
1.15519
1.15574
1.15629
1.15684
1.15737
1.15791
1.15843
1.15896
1.15947
1.15998
1.16047
1.16096
1.16144
1.1619
1.16235
1.16279
1.16321
1.16361
1.16399
1.16436
1.1647
1.16502
1.16531
1.16558
1.16582
1.16602
1.1662
1.16634
1.16645
1.16653
1.16658
1.1666
1.16659
1.16655
1.16649
1.16639
1.16626
1.1661
1.16591
1.16568
1.16543
1.16515
1.16483
1.16449
1.16413
1.16373
1.16331
1.16286
1.16239
1.16189
1.16137
1.16082
1.16025
1.15965
1.15902
1.15838
1.15771
1.15702
1.15631
1.15559
1.15485
1.1541
1.15335
1.15259
1.15183
1.15108
1.15034
1.14962
1.14891
1.14823
1.14757
1.14694
1.14634
1.14577
1.14524
1.14474
1.14429
1.14387
1.14349
1.14315
1.14286
1.14261
1.1424
1.14222
1.14209
1.14199
1.14192
1.14187
1.14184
1.14184
1.14186
1.1419
1.14197
1.14205
1.14217
1.1423
1.14245
1.14262
1.1428
1.143
1.14322
1.14346
1.14371
1.14397
1.14425
1.14454
1.14485
1.14516
1.14549
1.14584
1.14619
1.14656
1.14694
1.14733
1.14774
1.14816
1.14859
1.14904
1.14949
1.14996
1.15044
1.15094
1.15145
1.15197
1.1525
1.15304
1.1536
1.15417
1.15474
1.15533
1.15593
1.15654
1.15715
1.15778
1.15842
1.15906
1.15972
1.16038
1.16105
1.16172
1.1624
1.16309
1.16379
1.16449
1.16519
1.1659
1.16661
1.16733
1.16805
1.16877
1.16949
1.17021
1.17094
1.17166
1.17239
1.17311
1.17384
1.17456
1.17527
1.17599
1.1767
1.17741
1.17812
1.17882
1.17951
1.1802
1.18088
1.18156
1.18222
1.18288
1.18353
1.18418
1.18481
1.18543
1.18605
1.18665
1.18724
1.18782
1.18838
1.18894
1.18948
1.19
1.19051
1.19101
1.1915
1.19197
1.19242
1.19286
1.19329
1.1937
1.1941
1.19448
1.19485
1.19521
1.19556
1.19589
1.19621
1.19652
1.19682
1.19711
1.19739
1.19766
1.19792
1.19818
1.19843
1.19867
1.19891
1.19914
1.19937
1.19959
1.19981
1.20002
1.20023
1.20044
1.20065
1.20085
1.20105
1.20125
1.20144
1.20163
1.20182
1.202
1.20218
1.20236
1.20253
1.2027
1.20286
1.20302
1.20317
1.20332
1.20346
1.20359
1.20372
1.20385
1.20397
1.20408
1.20419
1.20428
1.20438
1.20447
1.20455
1.20463
1.2047
1.20477
1.20483
1.20489
1.20495
1.205
1.20505
1.2051
1.20515
1.2052
1.20524
1.20529
1.20534
1.20538
1.20543
1.20547
1.20552
1.20557
1.20561
1.20566
1.20571
1.20576
1.20581
1.20586
1.20591
1.20596
1.20601
1.20606
1.20611
1.20616
1.20621
1.20626
1.20631
1.20636
1.2064
1.20645
1.2065
1.20654
1.20658
1.20662
1.20666
1.2067
1.20673
1.20677
1.2068
1.20683
1.20686
1.20689
1.20691
1.20693
1.20695
1.20697
1.20698
1.20699
1.207
1.20701
1.20701
1.20701
1.20701
1.20701
1.207
1.20699
1.20698
1.20696
1.20694
1.20692
1.20689
1.20686
1.20683
1.2068
1.20676
1.20672
1.20667
1.20663
1.20658
1.20652
1.20647
1.20641
1.20635
1.20628
1.20622
1.20615
1.20608
1.206
1.20592
1.20585
1.20576
1.20568
1.2056
1.20551
1.20542
1.20533
1.20524
1.20514
1.20505
1.20495
1.20487
1.14707
1.14705
1.14705
1.14695
1.14693
1.14691
1.14691
1.14706
1.14718
1.14728
1.14747
1.14775
1.14786
1.14806
1.14935
1.15204
1.15462
1.15629
1.15717
1.15769
1.15796
1.15804
1.15796
1.15779
1.1577
1.1575
1.1573
1.15704
1.15671
1.1565
1.15626
1.15607
1.15597
1.15609
1.15644
1.15696
1.1577
1.15847
1.15947
1.16055
1.16168
1.16283
1.16407
1.1654
1.16679
1.16823
1.16967
1.17113
1.17257
1.17405
1.1753
1.17651
1.17768
1.17874
1.17975
1.18072
1.18163
1.18247
1.18321
1.18384
1.18438
1.18483
1.18519
1.18542
1.18551
1.18541
1.1851
1.18454
1.18368
1.18248
1.18099
1.17923
1.17726
1.17515
1.17295
1.17075
1.16871
1.16694
1.16551
1.16443
1.16357
1.16297
1.16249
1.16204
1.16162
1.16122
1.16081
1.16038
1.15993
1.15946
1.15897
1.15845
1.15792
1.15738
1.15682
1.15625
1.15567
1.15508
1.15448
1.15388
1.15327
1.15267
1.15206
1.15145
1.15085
1.15026
1.14967
1.14909
1.14852
1.14797
1.14743
1.14691
1.1464
1.14591
1.14545
1.14501
1.1446
1.14422
1.14387
1.14355
1.14327
1.14302
1.14281
1.14264
1.1425
1.1424
1.14234
1.14232
1.14234
1.14238
1.14245
1.14256
1.14271
1.14288
1.14309
1.14332
1.14358
1.14388
1.1442
1.14454
1.14491
1.1453
1.14571
1.14613
1.14658
1.14703
1.1475
1.14798
1.14848
1.14898
1.14949
1.15001
1.15054
1.15107
1.15161
1.15215
1.15269
1.15324
1.15379
1.15434
1.15489
1.15544
1.15599
1.15654
1.15709
1.15763
1.15816
1.15869
1.15921
1.15973
1.16024
1.16073
1.16122
1.1617
1.16216
1.16261
1.16305
1.16347
1.16387
1.16425
1.16461
1.16496
1.16527
1.16557
1.16583
1.16607
1.16627
1.16645
1.16659
1.1667
1.16679
1.16684
1.16686
1.16685
1.16681
1.16675
1.16665
1.16652
1.16636
1.16617
1.16595
1.1657
1.16542
1.16511
1.16477
1.1644
1.16401
1.16359
1.16314
1.16267
1.16217
1.16165
1.1611
1.16053
1.15993
1.1593
1.15866
1.15799
1.1573
1.15659
1.15586
1.15513
1.15438
1.15362
1.15287
1.15211
1.15136
1.15062
1.14989
1.14919
1.1485
1.14784
1.14721
1.14661
1.14604
1.14551
1.14502
1.14456
1.14414
1.14376
1.14342
1.14313
1.14288
1.14267
1.14249
1.14237
1.14227
1.14219
1.14214
1.14212
1.14211
1.14213
1.14218
1.14225
1.14234
1.14245
1.14258
1.14273
1.14291
1.14309
1.1433
1.14352
1.14376
1.14401
1.14428
1.14456
1.14485
1.14516
1.14548
1.14581
1.14615
1.14651
1.14688
1.14726
1.14766
1.14806
1.14848
1.14892
1.14936
1.14982
1.15029
1.15077
1.15127
1.15178
1.1523
1.15283
1.15338
1.15393
1.1545
1.15508
1.15567
1.15627
1.15687
1.15749
1.15812
1.15876
1.1594
1.16005
1.16071
1.16138
1.16205
1.16274
1.16342
1.16412
1.16481
1.16552
1.16622
1.16694
1.16765
1.16837
1.16909
1.16981
1.17053
1.17125
1.17198
1.1727
1.17342
1.17414
1.17486
1.17558
1.17629
1.177
1.17771
1.17841
1.17911
1.1798
1.18049
1.18117
1.18184
1.18251
1.18317
1.18382
1.18446
1.18509
1.18571
1.18632
1.18692
1.18751
1.18809
1.18866
1.18921
1.18975
1.19027
1.19078
1.19128
1.19177
1.19224
1.19269
1.19313
1.19356
1.19397
1.19437
1.19476
1.19513
1.19549
1.19583
1.19617
1.19649
1.1968
1.1971
1.19739
1.19768
1.19795
1.19821
1.19847
1.19872
1.19897
1.19921
1.19945
1.19968
1.1999
1.20012
1.20034
1.20056
1.20077
1.20098
1.20118
1.20138
1.20158
1.20178
1.20197
1.20216
1.20235
1.20253
1.2027
1.20288
1.20305
1.20321
1.20337
1.20352
1.20367
1.20381
1.20395
1.20408
1.20421
1.20433
1.20444
1.20455
1.20465
1.20474
1.20483
1.20491
1.20499
1.20506
1.20513
1.2052
1.20526
1.20531
1.20537
1.20542
1.20547
1.20552
1.20556
1.20561
1.20566
1.2057
1.20575
1.20579
1.20584
1.20588
1.20593
1.20598
1.20603
1.20607
1.20612
1.20617
1.20622
1.20627
1.20632
1.20637
1.20642
1.20647
1.20652
1.20657
1.20662
1.20667
1.20671
1.20676
1.2068
1.20685
1.20689
1.20693
1.20697
1.20701
1.20705
1.20708
1.20711
1.20715
1.20718
1.2072
1.20723
1.20725
1.20727
1.20729
1.20731
1.20732
1.20733
1.20734
1.20735
1.20735
1.20735
1.20735
1.20734
1.20734
1.20733
1.20731
1.2073
1.20728
1.20725
1.20723
1.2072
1.20717
1.20714
1.2071
1.20706
1.20702
1.20697
1.20692
1.20687
1.20682
1.20676
1.2067
1.20664
1.20658
1.20651
1.20644
1.20637
1.20629
1.20622
1.20614
1.20606
1.20598
1.20589
1.20581
1.20572
1.20563
1.20554
1.20545
1.20536
1.20527
1.14715
1.14716
1.14712
1.1471
1.14715
1.14728
1.1476
1.14811
1.1485
1.14873
1.14909
1.14962
1.14987
1.15025
1.15181
1.15458
1.15694
1.15825
1.15863
1.15855
1.15817
1.15778
1.15721
1.1566
1.15594
1.15509
1.15422
1.15334
1.15269
1.15211
1.15183
1.15165
1.15154
1.15178
1.15213
1.15272
1.15335
1.15414
1.1551
1.15619
1.15746
1.15878
1.16018
1.16167
1.16326
1.16494
1.16666
1.16843
1.17019
1.17199
1.17358
1.17512
1.17655
1.17784
1.17904
1.18014
1.18114
1.18203
1.18283
1.18354
1.18417
1.18472
1.18519
1.18557
1.18585
1.18602
1.18608
1.186
1.18572
1.18521
1.18443
1.18336
1.18195
1.18015
1.17792
1.17537
1.17271
1.17019
1.168
1.16622
1.16484
1.16379
1.16298
1.16239
1.16187
1.16137
1.16091
1.16047
1.16003
1.15956
1.15908
1.15857
1.15805
1.15751
1.15696
1.15639
1.15582
1.15523
1.15464
1.15404
1.15344
1.15283
1.15223
1.15162
1.15102
1.15043
1.14984
1.14926
1.1487
1.14814
1.1476
1.14708
1.14657
1.14609
1.14563
1.14519
1.14478
1.14439
1.14404
1.14373
1.14344
1.1432
1.14299
1.14281
1.14267
1.14257
1.14251
1.14249
1.1425
1.14254
1.14261
1.14272
1.14287
1.14305
1.14325
1.14348
1.14374
1.14403
1.14435
1.1447
1.14507
1.14545
1.14586
1.14628
1.14672
1.14718
1.14765
1.14813
1.14862
1.14913
1.14964
1.15016
1.15069
1.15122
1.15176
1.1523
1.15284
1.15339
1.15394
1.15449
1.15504
1.15559
1.15614
1.15669
1.15723
1.15777
1.15831
1.15883
1.15936
1.15987
1.16038
1.16087
1.16136
1.16184
1.1623
1.16275
1.16319
1.1636
1.16401
1.16439
1.16475
1.16509
1.1654
1.16569
1.16596
1.1662
1.1664
1.16658
1.16672
1.16683
1.16692
1.16697
1.16699
1.16698
1.16694
1.16688
1.16678
1.16666
1.1665
1.16631
1.16609
1.16584
1.16556
1.16525
1.16492
1.16455
1.16416
1.16374
1.1633
1.16283
1.16233
1.1618
1.16125
1.16068
1.16008
1.15945
1.1588
1.15813
1.15744
1.15673
1.156
1.15526
1.15452
1.15376
1.153
1.15225
1.1515
1.15076
1.15003
1.14932
1.14863
1.14797
1.14734
1.14674
1.14617
1.14564
1.14515
1.14469
1.14427
1.14389
1.14356
1.14326
1.14301
1.14279
1.14262
1.14249
1.1424
1.14232
1.14228
1.14225
1.14225
1.14227
1.14232
1.14239
1.14248
1.14259
1.14273
1.14288
1.14306
1.14325
1.14346
1.14368
1.14392
1.14418
1.14444
1.14473
1.14502
1.14533
1.14565
1.14599
1.14633
1.14669
1.14706
1.14745
1.14785
1.14825
1.14868
1.14911
1.14956
1.15002
1.15049
1.15097
1.15147
1.15198
1.1525
1.15303
1.15358
1.15413
1.1547
1.15528
1.15587
1.15646
1.15707
1.15769
1.15832
1.15895
1.15959
1.16024
1.1609
1.16157
1.16224
1.16292
1.16361
1.1643
1.16499
1.1657
1.1664
1.16711
1.16782
1.16854
1.16925
1.16997
1.17069
1.17141
1.17214
1.17286
1.17358
1.17429
1.17501
1.17573
1.17644
1.17714
1.17785
1.17855
1.17924
1.17993
1.18062
1.1813
1.18197
1.18263
1.18329
1.18393
1.18457
1.1852
1.18582
1.18643
1.18703
1.18762
1.18819
1.18875
1.18931
1.18984
1.19037
1.19088
1.19138
1.19186
1.19233
1.19278
1.19323
1.19365
1.19407
1.19447
1.19485
1.19522
1.19559
1.19593
1.19627
1.19659
1.19691
1.19721
1.1975
1.19779
1.19806
1.19833
1.19859
1.19885
1.1991
1.19934
1.19958
1.19981
1.20004
1.20026
1.20049
1.2007
1.20092
1.20113
1.20134
1.20154
1.20175
1.20194
1.20214
1.20233
1.20252
1.2027
1.20288
1.20306
1.20323
1.20339
1.20355
1.20371
1.20386
1.204
1.20414
1.20427
1.2044
1.20452
1.20463
1.20474
1.20484
1.20493
1.20502
1.2051
1.20518
1.20525
1.20532
1.20539
1.20545
1.2055
1.20556
1.20561
1.20566
1.2057
1.20575
1.2058
1.20584
1.20589
1.20593
1.20598
1.20602
1.20607
1.20611
1.20616
1.20621
1.20625
1.2063
1.20635
1.2064
1.20645
1.2065
1.20655
1.2066
1.20664
1.20669
1.20674
1.20679
1.20683
1.20688
1.20693
1.20697
1.20701
1.20705
1.20709
1.20713
1.20717
1.2072
1.20724
1.20727
1.2073
1.20733
1.20735
1.20738
1.2074
1.20742
1.20744
1.20745
1.20746
1.20747
1.20748
1.20749
1.20749
1.20749
1.20749
1.20748
1.20747
1.20746
1.20745
1.20743
1.20741
1.20739
1.20737
1.20734
1.20731
1.20727
1.20724
1.2072
1.20716
1.20711
1.20707
1.20702
1.20696
1.20691
1.20685
1.20679
1.20673
1.20667
1.2066
1.20653
1.20646
1.20639
1.20631
1.20624
1.20616
1.20608
1.206
1.20591
1.20583
1.20574
1.20565
1.20557
1.20549
1.14714
1.14713
1.14715
1.14717
1.14739
1.14772
1.1483
1.14915
1.14987
1.15033
1.15079
1.15167
1.15217
1.15283
1.15441
1.15677
1.15838
1.15898
1.15871
1.15824
1.15747
1.15635
1.15514
1.15378
1.15239
1.15112
1.14978
1.14905
1.14843
1.14816
1.14805
1.14826
1.14852
1.14883
1.14941
1.14998
1.15075
1.1514
1.1522
1.15306
1.15416
1.15541
1.15678
1.15829
1.15996
1.16177
1.16369
1.16574
1.16783
1.16996
1.17197
1.17389
1.17568
1.1773
1.17874
1.17998
1.18104
1.18197
1.18279
1.18352
1.18418
1.18477
1.18528
1.1857
1.18603
1.18629
1.18648
1.1866
1.18661
1.1865
1.18621
1.18569
1.18485
1.18356
1.18177
1.17947
1.17681
1.17401
1.17131
1.16888
1.16683
1.16518
1.1639
1.16289
1.16214
1.16157
1.16101
1.16051
1.16004
1.15958
1.15911
1.15862
1.15811
1.15758
1.15703
1.15648
1.15591
1.15533
1.15474
1.15415
1.15355
1.15295
1.15235
1.15174
1.15115
1.15055
1.14997
1.14939
1.14882
1.14827
1.14773
1.14721
1.1467
1.14622
1.14575
1.14531
1.1449
1.14452
1.14417
1.14385
1.14357
1.14332
1.14311
1.14293
1.14279
1.14268
1.14262
1.1426
1.14261
1.14265
1.14272
1.14284
1.14298
1.14315
1.14335
1.14358
1.14384
1.14413
1.14445
1.14479
1.14516
1.14555
1.14595
1.14638
1.14682
1.14727
1.14774
1.14822
1.14871
1.14921
1.14972
1.15024
1.15077
1.1513
1.15184
1.15238
1.15293
1.15347
1.15402
1.15457
1.15512
1.15567
1.15622
1.15677
1.15731
1.15785
1.15839
1.15891
1.15943
1.15995
1.16045
1.16095
1.16144
1.16191
1.16237
1.16282
1.16326
1.16367
1.16407
1.16445
1.16481
1.16514
1.16546
1.16574
1.16601
1.16624
1.16645
1.16663
1.16677
1.16688
1.16697
1.16703
1.16705
1.16704
1.167
1.16694
1.16684
1.16672
1.16657
1.16638
1.16616
1.16592
1.16564
1.16533
1.165
1.16463
1.16424
1.16382
1.16338
1.16291
1.16241
1.16188
1.16133
1.16075
1.16015
1.15952
1.15887
1.1582
1.1575
1.15679
1.15607
1.15533
1.15457
1.15382
1.15306
1.1523
1.15155
1.15081
1.15008
1.14937
1.14868
1.14802
1.14739
1.14679
1.14622
1.14569
1.14519
1.14474
1.14432
1.14394
1.1436
1.14331
1.14305
1.14284
1.14266
1.14254
1.14244
1.14237
1.14232
1.1423
1.1423
1.14232
1.14237
1.14244
1.14254
1.14266
1.14279
1.14295
1.14313
1.14332
1.14353
1.14376
1.144
1.14426
1.14453
1.14482
1.14511
1.14543
1.14575
1.14609
1.14643
1.1468
1.14717
1.14756
1.14795
1.14836
1.14879
1.14922
1.14967
1.15013
1.1506
1.15109
1.15159
1.1521
1.15262
1.15315
1.15369
1.15425
1.15482
1.1554
1.15598
1.15658
1.15719
1.15781
1.15843
1.15906
1.15971
1.16036
1.16101
1.16168
1.16235
1.16302
1.16371
1.16439
1.16509
1.16579
1.16649
1.1672
1.1679
1.16862
1.16933
1.17005
1.17076
1.17148
1.1722
1.17292
1.17363
1.17435
1.17506
1.17577
1.17648
1.17719
1.17789
1.17858
1.17928
1.17996
1.18064
1.18132
1.18199
1.18265
1.1833
1.18394
1.18458
1.18521
1.18582
1.18643
1.18702
1.18761
1.18818
1.18874
1.18929
1.18983
1.19035
1.19086
1.19136
1.19184
1.19231
1.19276
1.1932
1.19363
1.19405
1.19445
1.19483
1.19521
1.19557
1.19592
1.19625
1.19658
1.1969
1.1972
1.1975
1.19778
1.19806
1.19834
1.1986
1.19886
1.19911
1.19936
1.1996
1.19983
1.20007
1.2003
1.20052
1.20074
1.20096
1.20117
1.20139
1.20159
1.2018
1.202
1.2022
1.20239
1.20258
1.20277
1.20295
1.20313
1.2033
1.20347
1.20363
1.20379
1.20394
1.20408
1.20422
1.20435
1.20448
1.2046
1.20471
1.20482
1.20492
1.20501
1.2051
1.20518
1.20526
1.20534
1.2054
1.20547
1.20553
1.20559
1.20564
1.20569
1.20574
1.20579
1.20583
1.20588
1.20592
1.20597
1.20601
1.20605
1.2061
1.20614
1.20619
1.20623
1.20628
1.20632
1.20637
1.20642
1.20646
1.20651
1.20656
1.20661
1.20666
1.2067
1.20675
1.20679
1.20684
1.20689
1.20693
1.20697
1.20701
1.20706
1.20709
1.20713
1.20717
1.2072
1.20724
1.20727
1.2073
1.20733
1.20735
1.20738
1.2074
1.20742
1.20744
1.20745
1.20747
1.20748
1.20749
1.20749
1.2075
1.2075
1.2075
1.20749
1.20749
1.20748
1.20747
1.20745
1.20744
1.20742
1.2074
1.20737
1.20734
1.20731
1.20728
1.20725
1.20721
1.20717
1.20712
1.20708
1.20703
1.20698
1.20693
1.20688
1.20682
1.20676
1.2067
1.20663
1.20657
1.2065
1.20643
1.20636
1.20629
1.20621
1.20614
1.20606
1.20598
1.2059
1.20582
1.20573
1.20565
1.20558
1.14727
1.14721
1.14729
1.1474
1.1478
1.1484
1.14919
1.15033
1.15141
1.15214
1.15288
1.15381
1.15461
1.15541
1.15676
1.15829
1.15897
1.15887
1.15832
1.15722
1.15574
1.15405
1.15212
1.15037
1.14884
1.14748
1.14669
1.14616
1.14615
1.14629
1.14657
1.14704
1.14748
1.14808
1.14862
1.14926
1.14998
1.15076
1.1516
1.15229
1.15315
1.15409
1.15522
1.1565
1.15799
1.15969
1.16158
1.16365
1.16583
1.16808
1.17024
1.17237
1.17437
1.17621
1.17784
1.17925
1.18046
1.18151
1.18241
1.1832
1.1839
1.18451
1.18505
1.1855
1.18589
1.18622
1.18649
1.18671
1.18684
1.18689
1.18684
1.18664
1.18623
1.18549
1.18434
1.18267
1.1805
1.17795
1.17519
1.17242
1.16981
1.1675
1.16556
1.164
1.1628
1.16188
1.16119
1.16062
1.16008
1.15959
1.15912
1.15864
1.15814
1.15762
1.15709
1.15654
1.15597
1.1554
1.15481
1.15422
1.15363
1.15303
1.15243
1.15183
1.15124
1.15065
1.15006
1.14949
1.14892
1.14837
1.14783
1.14731
1.1468
1.14632
1.14585
1.14542
1.145
1.14462
1.14427
1.14395
1.14367
1.14342
1.1432
1.14303
1.14288
1.14277
1.14271
1.14269
1.1427
1.14274
1.14281
1.14292
1.14306
1.14323
1.14343
1.14366
1.14392
1.14421
1.14452
1.14486
1.14523
1.14561
1.14602
1.14644
1.14688
1.14733
1.14779
1.14827
1.14877
1.14927
1.14978
1.1503
1.15082
1.15136
1.15189
1.15244
1.15298
1.15353
1.15408
1.15463
1.15518
1.15573
1.15628
1.15682
1.15736
1.1579
1.15844
1.15897
1.15949
1.16
1.1605
1.161
1.16148
1.16196
1.16242
1.16287
1.1633
1.16371
1.16411
1.16449
1.16484
1.16518
1.16549
1.16578
1.16604
1.16627
1.16648
1.16665
1.1668
1.16691
1.167
1.16706
1.16708
1.16707
1.16703
1.16697