/*--------------------------------*- C++ -*----------------------------------*\
| =========                 |                                                 |
| \\      /  F ield         | OpenFOAM: The Open Source CFD Toolbox           |
|  \\    /   O peration     | Version:  v1812                                 |
|   \\  /    A nd           | Web:      www.OpenFOAM.com                      |
|    \\/     M anipulation  |                                                 |
\*---------------------------------------------------------------------------*/
FoamFile
{
    version     2.0;
    format      ascii;
    class       volScalarField;
    location    "0.2";
    object      T;
}
// * * * * * * * * * * * * * * * * * * * * * * * * * * * * * * * * * * * * * //

dimensions      [0 0 0 1 0 0 0];


internalField   nonuniform List<scalar> 
20400
(
287.404
287.398
287.396
287.39
287.383
287.374
287.363
287.352
287.335
287.31
287.294
287.268
287.237
287.197
287.144
287.053
286.892
286.649
286.361
286.081
285.836
285.628
285.455
285.317
285.215
285.145
285.095
285.058
285.016
284.969
284.913
284.86
284.819
284.793
284.78
284.774
284.783
284.802
284.832
284.877
284.933
285
285.08
285.169
285.264
285.374
285.514
285.697
285.895
286.061
286.162
286.284
286.435
286.61
286.799
286.999
287.206
287.421
287.64
287.861
288.077
288.288
288.489
288.673
288.834
288.969
289.08
289.171
289.248
289.306
289.348
289.377
289.392
289.4
289.401
289.396
289.385
289.369
289.35
289.326
289.301
289.272
289.241
289.207
289.171
289.133
289.092
289.049
289.004
288.956
288.906
288.854
288.8
288.745
288.688
288.631
288.572
288.512
288.452
288.392
288.332
288.271
288.21
288.15
288.09
288.031
287.972
287.914
287.858
287.803
287.749
287.698
287.648
287.6
287.554
287.511
287.471
287.434
287.4
287.37
287.343
287.32
287.301
287.286
287.273
287.265
287.262
287.262
287.265
287.271
287.281
287.294
287.31
287.33
287.353
287.378
287.408
287.44
287.475
287.512
287.551
287.593
287.637
287.682
287.729
287.777
287.826
287.876
287.927
287.979
288.033
288.087
288.141
288.196
288.251
288.307
288.363
288.419
288.475
288.532
288.588
288.645
288.701
288.757
288.812
288.866
288.92
288.974
289.027
289.079
289.13
289.181
289.23
289.278
289.325
289.37
289.413
289.455
289.495
289.533
289.57
289.604
289.636
289.665
289.691
289.714
289.734
289.75
289.764
289.775
289.783
289.787
289.788
289.788
289.784
289.777
289.768
289.754
289.738
289.718
289.696
289.67
289.641
289.61
289.576
289.539
289.5
289.459
289.415
289.368
289.318
289.266
289.212
289.155
289.095
289.034
288.97
288.903
288.835
288.765
288.694
288.621
288.547
288.473
288.398
288.324
288.25
288.177
288.106
288.036
287.969
287.905
287.843
287.785
287.73
287.678
287.63
287.586
287.546
287.509
287.477
287.45
287.427
287.409
287.394
287.382
287.373
287.367
287.364
287.362
287.363
287.366
287.371
287.379
287.39
287.402
287.416
287.432
287.449
287.469
287.49
287.513
287.537
287.563
287.59
287.618
287.648
287.679
287.711
287.745
287.78
287.816
287.854
287.892
287.932
287.973
288.016
288.059
288.104
288.15
288.198
288.246
288.296
288.348
288.4
288.454
288.508
288.564
288.621
288.68
288.739
288.799
288.861
288.923
288.986
289.051
289.116
289.182
289.248
289.316
289.384
289.453
289.522
289.592
289.663
289.733
289.805
289.877
289.949
290.021
290.093
290.166
290.239
290.312
290.385
290.458
290.53
290.603
290.675
290.748
290.82
290.891
290.962
291.033
291.103
291.173
291.242
291.31
291.378
291.445
291.511
291.576
291.64
291.704
291.766
291.827
291.887
291.946
292.004
292.061
292.116
292.17
292.222
292.274
292.323
292.372
292.418
292.464
292.508
292.55
292.591
292.631
292.669
292.706
292.741
292.776
292.809
292.84
292.871
292.901
292.929
292.957
292.984
293.01
293.035
293.06
293.084
293.108
293.131
293.153
293.175
293.197
293.218
293.239
293.259
293.28
293.3
293.319
293.339
293.358
293.376
293.395
293.413
293.43
293.447
293.464
293.481
293.497
293.512
293.527
293.542
293.555
293.569
293.582
293.594
293.606
293.617
293.627
293.637
293.646
293.655
293.664
293.671
293.679
293.686
293.692
293.698
293.704
293.71
293.715
293.72
293.726
293.731
293.735
293.74
293.745
293.75
293.755
293.76
293.765
293.77
293.775
293.78
293.786
293.791
293.796
293.802
293.807
293.813
293.818
293.824
293.829
293.835
293.84
293.845
293.851
293.856
293.861
293.866
293.871
293.876
293.881
293.885
293.89
293.894
293.898
293.902
293.906
293.91
293.914
293.917
293.92
293.923
293.926
293.928
293.931
293.933
293.935
293.937
293.938
293.939
293.94
293.941
293.941
293.941
293.941
293.941
293.94
293.939
293.937
293.935
293.933
293.93
293.928
293.924
293.921
293.917
293.913
293.908
293.903
293.898
293.892
293.886
293.88
293.873
293.866
293.859
293.852
293.844
293.836
293.828
293.82
293.812
293.803
293.794
293.786
293.777
293.768
293.759
293.751
287.405
287.4
287.398
287.391
287.383
287.37
287.356
287.341
287.316
287.289
287.26
287.23
287.184
287.132
287.052
286.885
286.58
286.192
285.836
285.561
285.345
285.158
284.99
284.842
284.709
284.585
284.461
284.33
284.186
284.033
283.89
283.769
283.675
283.611
283.577
283.547
283.528
283.521
283.53
283.547
283.572
283.607
283.65
283.698
283.753
283.825
283.93
284.076
284.227
284.348
284.409
284.524
284.649
284.803
284.976
285.16
285.352
285.559
285.794
286.058
286.348
286.66
286.987
287.324
287.657
287.968
288.243
288.482
288.692
288.872
289.015
289.121
289.193
289.244
289.276
289.293
289.297
289.292
289.279
289.259
289.235
289.207
289.177
289.144
289.109
289.071
289.03
288.988
288.942
288.895
288.846
288.794
288.741
288.686
288.63
288.572
288.513
288.453
288.393
288.332
288.27
288.209
288.148
288.087
288.027
287.967
287.908
287.851
287.794
287.739
287.686
287.634
287.584
287.536
287.49
287.447
287.407
287.37
287.336
287.305
287.278
287.255
287.235
287.219
287.207
287.198
287.194
287.194
287.197
287.203
287.212
287.225
287.242
287.261
287.285
287.31
287.339
287.371
287.405
287.442
287.481
287.523
287.566
287.611
287.658
287.706
287.755
287.806
287.857
287.91
287.963
288.017
288.071
288.126
288.181
288.236
288.291
288.346
288.402
288.457
288.513
288.569
288.625
288.68
288.735
288.79
288.844
288.897
288.95
289.001
289.052
289.102
289.15
289.197
289.242
289.286
289.329
289.369
289.409
289.446
289.482
289.515
289.547
289.576
289.602
289.625
289.645
289.662
289.677
289.688
289.696
289.701
289.703
289.703
289.7
289.693
289.684
289.671
289.655
289.636
289.613
289.587
289.559
289.527
289.493
289.456
289.417
289.375
289.33
289.283
289.233
289.181
289.127
289.069
289.01
288.948
288.884
288.818
288.75
288.68
288.608
288.535
288.461
288.387
288.312
288.237
288.163
288.09
288.019
287.949
287.882
287.817
287.756
287.697
287.642
287.591
287.543
287.499
287.459
287.423
287.391
287.364
287.341
287.322
287.308
287.296
287.287
287.282
287.278
287.276
287.277
287.28
287.286
287.294
287.304
287.316
287.331
287.347
287.365
287.384
287.406
287.429
287.453
287.479
287.506
287.535
287.565
287.596
287.629
287.663
287.698
287.734
287.772
287.811
287.851
287.892
287.934
287.978
288.023
288.07
288.117
288.166
288.216
288.267
288.32
288.373
288.428
288.484
288.541
288.6
288.659
288.719
288.781
288.843
288.906
288.97
289.035
289.1
289.167
289.234
289.302
289.37
289.44
289.509
289.58
289.65
289.721
289.793
289.865
289.937
290.009
290.082
290.154
290.227
290.299
290.372
290.444
290.516
290.588
290.66
290.732
290.803
290.874
290.944
291.014
291.083
291.152
291.22
291.287
291.353
291.419
291.484
291.548
291.611
291.673
291.734
291.794
291.853
291.91
291.967
292.022
292.075
292.128
292.179
292.228
292.276
292.323
292.368
292.411
292.454
292.494
292.534
292.572
292.608
292.644
292.678
292.711
292.742
292.773
292.802
292.831
292.858
292.885
292.911
292.936
292.961
292.985
293.008
293.031
293.053
293.075
293.097
293.118
293.139
293.159
293.179
293.199
293.219
293.238
293.257
293.275
293.294
293.312
293.329
293.346
293.363
293.379
293.395
293.41
293.425
293.44
293.453
293.467
293.479
293.492
293.503
293.514
293.525
293.534
293.544
293.552
293.56
293.568
293.575
293.582
293.589
293.595
293.6
293.606
293.611
293.616
293.621
293.626
293.631
293.636
293.641
293.646
293.65
293.655
293.66
293.665
293.67
293.676
293.681
293.686
293.691
293.697
293.702
293.708
293.713
293.719
293.724
293.729
293.735
293.74
293.745
293.75
293.755
293.76
293.765
293.77
293.775
293.779
293.784
293.788
293.792
293.796
293.8
293.803
293.807
293.81
293.813
293.816
293.818
293.821
293.823
293.825
293.826
293.828
293.829
293.83
293.831
293.831
293.831
293.831
293.831
293.83
293.829
293.828
293.826
293.824
293.822
293.82
293.817
293.814
293.81
293.806
293.802
293.798
293.793
293.788
293.783
293.777
293.771
293.764
293.758
293.751
293.744
293.736
293.729
293.721
293.713
293.705
293.696
293.688
293.679
293.67
293.661
293.651
293.643
287.399
287.393
287.392
287.385
287.377
287.36
287.339
287.314
287.278
287.233
287.189
287.133
287.068
286.992
286.848
286.506
285.981
285.481
285.116
284.854
284.632
284.421
284.215
284.011
283.806
283.601
283.403
283.225
283.075
282.957
282.84
282.763
282.712
282.673
282.652
282.644
282.643
282.644
282.655
282.664
282.681
282.702
282.724
282.747
282.774
282.809
282.855
282.914
282.987
283.067
283.123
283.196
283.277
283.367
283.464
283.568
283.68
283.801
283.942
284.115
284.324
284.569
284.853
285.181
285.551
285.953
286.368
286.787
287.21
287.625
288.006
288.33
288.585
288.779
288.927
289.036
289.109
289.151
289.168
289.168
289.156
289.132
289.102
289.069
289.032
288.993
288.952
288.908
288.863
288.815
288.765
288.713
288.66
288.605
288.549
288.491
288.432
288.372
288.312
288.251
288.189
288.128
288.066
288.004
287.943
287.883
287.824
287.766
287.709
287.654
287.601
287.549
287.499
287.451
287.406
287.363
287.322
287.285
287.25
287.22
287.192
287.169
287.149
287.133
287.12
287.111
287.107
287.107
287.109
287.115
287.124
287.136
287.152
287.172
287.194
287.219
287.248
287.279
287.313
287.349
287.388
287.429
287.471
287.516
287.561
287.609
287.657
287.707
287.758
287.81
287.863
287.917
287.971
288.026
288.081
288.136
288.191
288.247
288.302
288.357
288.413
288.468
288.523
288.578
288.633
288.688
288.742
288.796
288.849
288.901
288.952
289.002
289.051
289.098
289.145
289.19
289.233
289.275
289.315
289.353
289.388
289.422
289.453
289.481
289.507
289.529
289.548
289.564
289.577
289.587
289.595
289.598
289.6
289.598
289.594
289.587
289.576
289.563
289.546
289.526
289.503
289.477
289.448
289.416
289.382
289.345
289.305
289.263
289.219
289.171
289.122
289.069
289.015
288.958
288.898
288.836
288.772
288.706
288.637
288.567
288.495
288.422
288.348
288.274
288.199
288.124
288.05
287.977
287.905
287.835
287.768
287.703
287.64
287.581
287.526
287.474
287.426
287.381
287.341
287.305
287.273
287.245
287.222
287.203
287.188
287.176
287.167
287.161
287.157
287.155
287.156
287.158
287.164
287.171
287.181
287.193
287.207
287.223
287.24
287.259
287.28
287.303
287.327
287.352
287.379
287.408
287.438
287.469
287.501
287.535
287.57
287.606
287.643
287.682
287.722
287.763
287.805
287.849
287.894
287.94
287.988
288.036
288.086
288.137
288.19
288.243
288.298
288.354
288.411
288.469
288.528
288.588
288.649
288.711
288.774
288.838
288.903
288.968
289.034
289.101
289.169
289.237
289.305
289.375
289.445
289.515
289.586
289.657
289.728
289.8
289.872
289.944
290.016
290.088
290.161
290.233
290.305
290.377
290.449
290.52
290.591
290.662
290.732
290.802
290.872
290.94
291.009
291.076
291.143
291.209
291.275
291.339
291.403
291.466
291.528
291.588
291.648
291.706
291.764
291.82
291.875
291.928
291.98
292.031
292.08
292.128
292.175
292.22
292.263
292.305
292.346
292.385
292.423
292.46
292.495
292.529
292.562
292.593
292.624
292.653
292.682
292.709
292.736
292.762
292.787
292.812
292.836
292.859
292.882
292.904
292.926
292.948
292.969
292.99
293.011
293.031
293.051
293.07
293.089
293.108
293.127
293.145
293.163
293.181
293.198
293.214
293.231
293.247
293.262
293.277
293.291
293.305
293.318
293.331
293.343
293.354
293.365
293.376
293.385
293.394
293.403
293.411
293.419
293.426
293.433
293.439
293.445
293.451
293.456
293.461
293.466
293.471
293.476
293.481
293.485
293.49
293.495
293.5
293.504
293.509
293.514
293.519
293.524
293.529
293.534
293.54
293.545
293.55
293.555
293.561
293.566
293.571
293.577
293.582
293.587
293.592
293.597
293.602
293.607
293.612
293.617
293.621
293.625
293.63
293.634
293.638
293.641
293.645
293.648
293.652
293.655
293.657
293.66
293.662
293.665
293.666
293.668
293.67
293.671
293.672
293.672
293.673
293.673
293.673
293.672
293.672
293.671
293.67
293.668
293.666
293.664
293.662
293.659
293.656
293.653
293.649
293.645
293.641
293.637
293.632
293.627
293.621
293.616
293.61
293.604
293.597
293.59
293.584
293.576
293.569
293.561
293.553
293.545
293.537
293.529
293.52
293.511
293.502
293.493
293.484
287.402
287.396
287.394
287.385
287.372
287.348
287.307
287.254
287.183
287.108
287.031
286.941
286.849
286.746
286.49
285.921
285.239
284.714
284.357
284.08
283.824
283.582
283.359
283.166
283.007
282.881
282.789
282.723
282.677
282.657
282.673
282.68
282.683
282.697
282.704
282.702
282.698
282.697
282.693
282.684
282.682
282.687
282.69
282.693
282.699
282.709
282.724
282.746
282.773
282.811
282.839
282.871
282.915
282.955
283
283.05
283.106
283.165
283.23
283.308
283.402
283.519
283.662
283.839
284.056
284.319
284.629
284.99
285.407
285.877
286.377
286.873
287.334
287.744
288.102
288.406
288.648
288.825
288.941
289.001
289.021
289.023
289.011
288.984
288.949
288.911
288.87
288.826
288.781
288.734
288.685
288.634
288.581
288.526
288.471
288.413
288.355
288.296
288.236
288.175
288.114
288.053
287.992
287.93
287.869
287.809
287.749
287.691
287.633
287.578
287.524
287.472
287.422
287.374
287.328
287.285
287.245
287.207
287.173
287.142
287.114
287.09
287.07
287.054
287.041
287.032
287.027
287.026
287.028
287.034
287.042
287.054
287.07
287.09
287.111
287.136
287.164
287.195
287.229
287.265
287.303
287.343
287.386
287.429
287.475
287.522
287.57
287.619
287.67
287.722
287.774
287.827
287.881
287.935
287.99
288.045
288.1
288.156
288.211
288.266
288.321
288.376
288.431
288.485
288.539
288.593
288.646
288.699
288.752
288.804
288.854
288.904
288.953
289
289.046
289.091
289.134
289.175
289.214
289.252
289.287
289.32
289.351
289.379
289.405
289.427
289.446
289.462
289.474
289.484
289.492
289.495
289.496
289.495
289.491
289.484
289.474
289.46
289.444
289.424
289.401
289.375
289.346
289.314
289.28
289.243
289.203
289.161
289.116
289.068
289.018
288.966
288.911
288.853
288.793
288.731
288.667
288.6
288.531
288.461
288.389
288.315
288.241
288.166
288.091
288.016
287.942
287.869
287.797
287.728
287.66
287.595
287.533
287.473
287.418
287.365
287.317
287.272
287.231
287.194
287.162
287.134
287.111
287.091
287.076
287.064
287.055
287.049
287.045
287.043
287.043
287.046
287.051
287.059
287.068
287.08
287.094
287.11
287.127
287.146
287.167
287.19
287.214
287.239
287.266
287.294
287.324
287.354
287.387
287.42
287.455
287.491
287.528
287.567
287.607
287.648
287.69
287.734
287.779
287.825
287.872
287.92
287.97
288.021
288.073
288.127
288.181
288.237
288.294
288.352
288.411
288.471
288.532
288.594
288.656
288.72
288.784
288.85
288.916
288.982
289.05
289.118
289.186
289.255
289.325
289.395
289.465
289.536
289.607
289.678
289.75
289.822
289.893
289.965
290.037
290.109
290.181
290.253
290.324
290.396
290.466
290.537
290.607
290.677
290.746
290.814
290.882
290.95
291.016
291.082
291.147
291.211
291.275
291.337
291.399
291.459
291.518
291.576
291.633
291.689
291.744
291.797
291.849
291.9
291.949
291.997
292.043
292.088
292.131
292.173
292.214
292.253
292.291
292.327
292.363
292.397
292.429
292.461
292.491
292.521
292.549
292.577
292.604
292.63
292.655
292.68
292.703
292.727
292.75
292.772
292.794
292.816
292.837
292.858
292.879
292.899
292.919
292.938
292.958
292.977
292.995
293.014
293.031
293.049
293.066
293.083
293.099
293.115
293.13
293.145
293.159
293.173
293.186
293.199
293.211
293.222
293.233
293.243
293.253
293.262
293.27
293.278
293.285
293.293
293.299
293.305
293.311
293.317
293.322
293.327
293.332
293.336
293.341
293.346
293.35
293.355
293.359
293.364
293.368
293.373
293.378
293.383
293.387
293.392
293.397
293.402
293.408
293.413
293.418
293.423
293.428
293.433
293.438
293.443
293.448
293.453
293.458
293.463
293.468
293.472
293.477
293.481
293.485
293.489
293.493
293.497
293.5
293.504
293.507
293.51
293.513
293.515
293.518
293.52
293.522
293.524
293.525
293.526
293.527
293.528
293.528
293.528
293.528
293.528
293.527
293.527
293.525
293.524
293.522
293.52
293.518
293.515
293.512
293.509
293.506
293.502
293.498
293.494
293.489
293.484
293.479
293.474
293.468
293.462
293.456
293.449
293.443
293.436
293.429
293.421
293.414
293.406
293.398
293.39
293.382
293.373
293.365
293.356
293.347
293.338
287.409
287.402
287.398
287.381
287.353
287.307
287.234
287.135
287.011
286.894
286.772
286.626
286.495
286.348
285.968
285.232
284.487
283.969
283.629
283.387
283.206
283.088
283.018
282.972
282.947
282.926
282.935
282.992
283.073
283.182
283.311
283.444
283.564
283.653
283.697
283.713
283.722
283.71
283.687
283.627
283.575
283.526
283.471
283.41
283.344
283.276
283.208
283.144
283.08
283.024
282.972
282.938
282.931
282.939
282.958
282.987
283.023
283.057
283.089
283.125
283.167
283.219
283.282
283.358
283.453
283.575
283.729
283.926
284.181
284.503
284.894
285.341
285.83
286.347
286.873
287.386
287.851
288.235
288.522
288.715
288.834
288.891
288.907
288.906
288.889
288.856
288.816
288.773
288.727
288.679
288.63
288.579
288.527
288.473
288.417
288.36
288.303
288.244
288.184
288.124
288.064
288.003
287.942
287.881
287.821
287.76
287.701
287.643
287.585
287.529
287.475
287.423
287.372
287.324
287.279
287.236
287.195
287.157
287.123
287.092
287.064
287.04
287.02
287.003
286.99
286.981
286.976
286.975
286.977
286.982
286.99
287.002
287.018
287.037
287.059
287.083
287.111
287.141
287.174
287.21
287.248
287.288
287.33
287.374
287.419
287.465
287.513
287.563
287.613
287.664
287.716
287.769
287.822
287.876
287.931
287.986
288.041
288.096
288.152
288.207
288.262
288.317
288.371
288.426
288.48
288.533
288.586
288.639
288.691
288.742
288.793
288.843
288.891
288.938
288.984
289.028
289.071
289.112
289.151
289.188
289.224
289.256
289.287
289.315
289.341
289.363
289.382
289.397
289.41
289.42
289.427
289.431
289.432
289.43
289.425
289.418
289.408
289.394
289.378
289.358
289.335
289.309
289.28
289.249
289.214
289.177
289.137
289.095
289.05
289.003
288.953
288.9
288.845
288.787
288.727
288.665
288.6
288.533
288.464
288.393
288.321
288.247
288.173
288.098
288.023
287.947
287.873
287.8
287.728
287.658
287.59
287.525
287.463
287.404
287.348
287.296
287.247
287.202
287.161
287.124
287.092
287.063
287.04
287.02
287.004
286.992
286.983
286.977
286.973
286.971
286.972
286.974
286.979
286.987
286.997
287.008
287.022
287.038
287.056
287.075
287.096
287.118
287.143
287.168
287.195
287.223
287.253
287.283
287.316
287.349
287.384
287.42
287.457
287.496
287.535
287.576
287.619
287.662
287.707
287.753
287.8
287.849
287.898
287.949
288.001
288.055
288.109
288.165
288.222
288.279
288.338
288.398
288.459
288.52
288.583
288.646
288.711
288.776
288.841
288.908
288.975
289.043
289.111
289.18
289.249
289.319
289.389
289.459
289.53
289.601
289.673
289.744
289.816
289.887
289.959
290.03
290.102
290.173
290.244
290.315
290.386
290.456
290.526
290.595
290.664
290.732
290.8
290.867
290.933
290.999
291.064
291.128
291.191
291.253
291.314
291.374
291.433
291.491
291.547
291.603
291.657
291.71
291.762
291.812
291.861
291.909
291.955
291.999
292.043
292.085
292.125
292.164
292.202
292.239
292.274
292.308
292.341
292.372
292.403
292.432
292.461
292.489
292.515
292.541
292.567
292.591
292.616
292.639
292.662
292.685
292.707
292.728
292.75
292.771
292.791
292.812
292.832
292.852
292.871
292.89
292.909
292.927
292.945
292.963
292.98
292.997
293.013
293.029
293.044
293.059
293.073
293.086
293.1
293.112
293.124
293.135
293.146
293.156
293.165
293.174
293.183
293.19
293.198
293.205
293.211
293.217
293.223
293.229
293.234
293.239
293.243
293.248
293.252
293.257
293.261
293.265
293.27
293.274
293.279
293.283
293.288
293.292
293.297
293.302
293.307
293.311
293.316
293.321
293.326
293.331
293.336
293.341
293.346
293.351
293.355
293.36
293.365
293.369
293.374
293.378
293.383
293.387
293.391
293.395
293.398
293.402
293.405
293.408
293.411
293.414
293.416
293.419
293.421
293.423
293.424
293.426
293.427
293.428
293.429
293.429
293.43
293.43
293.429
293.429
293.428
293.427
293.426
293.424
293.422
293.42
293.418
293.415
293.412
293.409
293.405
293.401
293.397
293.393
293.388
293.383
293.378
293.373
293.367
293.361
293.355
293.348
293.342
293.335
293.328
293.321
293.313
293.306
293.298
293.29
293.282
293.274
293.265
293.257
293.248
293.238
287.419
287.411
287.399
287.371
287.317
287.231
287.107
286.936
286.751
286.595
286.434
286.231
286.042
285.835
285.374
284.598
283.898
283.471
283.251
283.155
283.122
283.131
283.151
283.223
283.34
283.487
283.684
283.886
284.082
284.252
284.419
284.566
284.681
284.766
284.807
284.823
284.825
284.826
284.818
284.745
284.661
284.572
284.473
284.358
284.227
284.084
283.933
283.781
283.629
283.484
283.35
283.241
283.164
283.109
283.072
283.051
283.044
283.051
283.068
283.091
283.118
283.148
283.181
283.22
283.266
283.321
283.389
283.478
283.599
283.764
283.983
284.267
284.632
285.086
285.624
286.221
286.834
287.403
287.883
288.253
288.514
288.682
288.78
288.816
288.821
288.811
288.783
288.744
288.7
288.652
288.602
288.551
288.498
288.444
288.389
288.332
288.275
288.216
288.157
288.097
288.037
287.977
287.916
287.855
287.795
287.735
287.676
287.618
287.561
287.505
287.451
287.398
287.348
287.3
287.254
287.211
287.17
287.133
287.098
287.067
287.039
287.015
286.995
286.978
286.965
286.955
286.95
286.949
286.951
286.956
286.964
286.976
286.992
287.01
287.032
287.056
287.083
287.114
287.147
287.182
287.22
287.26
287.302
287.345
287.39
287.437
287.484
287.533
287.584
287.635
287.687
287.739
287.793
287.847
287.901
287.956
288.011
288.066
288.121
288.176
288.231
288.286
288.341
288.395
288.449
288.502
288.555
288.608
288.66
288.711
288.761
288.811
288.859
288.906
288.952
288.996
289.038
289.079
289.118
289.155
289.19
289.223
289.253
289.281
289.307
289.329
289.348
289.364
289.377
289.387
289.394
289.398
289.398
289.396
289.392
289.384
289.374
289.361
289.344
289.325
289.302
289.276
289.248
289.216
289.182
289.145
289.105
289.063
289.018
288.97
288.92
288.867
288.812
288.754
288.694
288.631
288.566
288.499
288.43
288.359
288.286
288.213
288.138
288.063
287.987
287.912
287.837
287.764
287.692
287.622
287.554
287.489
287.427
287.367
287.312
287.259
287.211
287.166
287.125
287.088
287.055
287.027
287.003
286.982
286.966
286.955
286.946
286.94
286.936
286.934
286.934
286.937
286.942
286.95
286.96
286.972
286.986
287.002
287.02
287.039
287.06
287.083
287.108
287.133
287.16
287.189
287.219
287.25
287.282
287.315
287.35
287.386
287.424
287.462
287.502
287.543
287.585
287.629
287.674
287.72
287.767
287.816
287.865
287.916
287.968
288.021
288.076
288.131
288.188
288.246
288.304
288.364
288.424
288.486
288.548
288.612
288.676
288.74
288.806
288.872
288.939
289.007
289.075
289.143
289.212
289.282
289.352
289.422
289.492
289.563
289.634
289.705
289.777
289.848
289.919
289.99
290.062
290.133
290.203
290.274
290.344
290.414
290.484
290.553
290.621
290.689
290.756
290.823
290.889
290.954
291.019
291.083
291.145
291.207
291.268
291.328
291.386
291.444
291.5
291.556
291.61
291.662
291.714
291.764
291.813
291.86
291.906
291.951
291.994
292.036
292.076
292.115
292.153
292.189
292.225
292.259
292.291
292.323
292.354
292.383
292.412
292.44
292.467
292.493
292.519
292.544
292.568
292.592
292.615
292.638
292.66
292.682
292.703
292.725
292.746
292.766
292.786
292.806
292.826
292.845
292.864
292.883
292.901
292.918
292.936
292.952
292.969
292.985
293
293.015
293.029
293.043
293.056
293.068
293.08
293.091
293.102
293.112
293.121
293.13
293.138
293.146
293.153
293.16
293.166
293.172
293.178
293.183
293.188
293.193
293.197
293.202
293.206
293.211
293.215
293.219
293.223
293.227
293.232
293.236
293.24
293.245
293.249
293.254
293.259
293.263
293.268
293.273
293.278
293.282
293.287
293.292
293.297
293.301
293.306
293.31
293.315
293.319
293.324
293.328
293.332
293.336
293.34
293.343
293.347
293.35
293.353
293.356
293.359
293.361
293.363
293.366
293.367
293.369
293.371
293.372
293.373
293.374
293.374
293.375
293.375
293.375
293.374
293.374
293.373
293.371
293.37
293.368
293.366
293.364
293.362
293.359
293.356
293.353
293.349
293.345
293.341
293.337
293.332
293.327
293.322
293.317
293.311
293.305
293.299
293.293
293.286
293.28
293.273
293.266
293.259
293.251
293.244
293.236
293.228
293.22
293.212
293.203
293.195
293.186
287.423
287.411
287.395
287.349
287.262
287.124
286.927
286.671
286.404
286.193
285.985
285.732
285.478
285.205
284.719
284.046
283.514
283.26
283.188
283.189
283.26
283.404
283.608
283.867
284.137
284.427
284.688
284.924
285.089
285.206
285.288
285.368
285.423
285.45
285.469
285.476
285.492
285.497
285.502
285.465
285.414
285.339
285.245
285.126
284.978
284.802
284.602
284.384
284.158
283.934
283.721
283.537
283.394
283.284
283.202
283.144
283.108
283.09
283.088
283.096
283.111
283.13
283.152
283.179
283.209
283.242
283.278
283.322
283.378
283.452
283.555
283.703
283.919
284.229
284.653
285.185
285.795
286.43
287.034
287.561
287.988
288.307
288.525
288.667
288.733
288.749
288.745
288.725
288.687
288.641
288.591
288.539
288.485
288.431
288.376
288.32
288.263
288.205
288.146
288.087
288.027
287.966
287.906
287.846
287.786
287.726
287.667
287.609
287.552
287.496
287.442
287.39
287.339
287.291
287.245
287.202
287.161
287.124
287.089
287.058
287.03
287.006
286.986
286.969
286.955
286.945
286.94
286.939
286.941
286.946
286.954
286.966
286.982
287
287.021
287.045
287.072
287.103
287.135
287.171
287.208
287.248
287.29
287.333
287.378
287.424
287.472
287.521
287.571
287.622
287.674
287.726
287.779
287.833
287.887
287.942
287.997
288.052
288.107
288.162
288.217
288.272
288.327
288.381
288.435
288.489
288.542
288.594
288.646
288.697
288.747
288.796
288.845
288.891
288.937
288.981
289.023
289.064
289.103
289.139
289.174
289.207
289.237
289.264
289.29
289.312
289.331
289.347
289.36
289.37
289.378
289.382
289.383
289.381
289.376
289.369
289.359
289.346
289.329
289.31
289.288
289.262
289.234
289.202
289.168
289.131
289.092
289.049
289.004
288.957
288.907
288.854
288.798
288.74
288.68
288.617
288.552
288.484
288.415
288.343
288.271
288.197
288.122
288.047
287.971
287.896
287.821
287.747
287.675
287.605
287.537
287.472
287.409
287.35
287.294
287.242
287.193
287.148
287.108
287.071
287.038
287.009
286.985
286.965
286.948
286.937
286.928
286.922
286.918
286.917
286.917
286.92
286.925
286.933
286.943
286.956
286.97
286.986
287.004
287.024
287.046
287.069
287.093
287.119
287.147
287.175
287.205
287.237
287.269
287.303
287.338
287.374
287.412
287.451
287.491
287.532
287.574
287.618
287.663
287.709
287.756
287.804
287.854
287.905
287.957
288.01
288.065
288.12
288.177
288.235
288.293
288.353
288.413
288.475
288.537
288.6
288.664
288.728
288.794
288.86
288.926
288.994
289.061
289.13
289.198
289.268
289.337
289.407
289.477
289.548
289.619
289.689
289.76
289.831
289.902
289.973
290.044
290.115
290.185
290.255
290.325
290.395
290.464
290.533
290.601
290.668
290.735
290.802
290.867
290.932
290.997
291.06
291.122
291.184
291.244
291.304
291.362
291.42
291.476
291.531
291.585
291.637
291.688
291.738
291.787
291.834
291.88
291.924
291.968
292.009
292.05
292.089
292.127
292.163
292.198
292.233
292.265
292.297
292.328
292.358
292.387
292.415
292.442
292.469
292.495
292.52
292.544
292.568
292.592
292.615
292.638
292.66
292.682
292.703
292.724
292.745
292.766
292.786
292.806
292.825
292.844
292.863
292.882
292.899
292.917
292.934
292.95
292.966
292.982
292.997
293.011
293.025
293.038
293.05
293.062
293.073
293.084
293.094
293.103
293.112
293.12
293.128
293.135
293.142
293.148
293.154
293.16
293.165
293.17
293.175
293.179
293.183
293.188
293.192
293.196
293.2
293.204
293.208
293.212
293.217
293.221
293.225
293.229
293.234
293.238
293.243
293.247
293.252
293.257
293.261
293.266
293.27
293.275
293.279
293.284
293.288
293.292
293.297
293.301
293.305
293.308
293.312
293.316
293.319
293.322
293.325
293.328
293.331
293.333
293.336
293.338
293.34
293.342
293.343
293.344
293.345
293.346
293.347
293.347
293.347
293.347
293.347
293.347
293.346
293.345
293.343
293.342
293.34
293.338
293.336
293.333
293.331
293.328
293.324
293.321
293.317
293.313
293.309
293.304
293.3
293.295
293.289
293.284
293.278
293.272
293.266
293.26
293.254
293.247
293.24
293.233
293.226
293.219
293.212
293.204
293.196
293.188
293.181
293.172
293.164
287.434
287.416
287.39
287.319
287.188
286.987
286.719
286.385
286.035
285.745
285.484
285.183
284.87
284.549
284.119
283.64
283.336
283.251
283.242
283.379
283.613
283.929
284.289
284.654
284.983
285.251
285.465
285.6
285.669
285.682
285.675
285.661
285.643
285.636
285.632
285.645
285.67
285.696
285.715
285.71
285.706
285.689
285.645
285.568
285.455
285.297
285.098
284.86
284.594
284.316
284.036
283.782
283.565
283.392
283.263
283.174
283.119
283.091
283.081
283.083
283.091
283.106
283.126
283.151
283.177
283.204
283.233
283.264
283.297
283.333
283.381
283.452
283.564
283.737
284.002
284.379
284.866
285.438
286.053
286.662
287.224
287.706
288.09
288.37
288.553
288.657
288.688
288.691
288.674
288.638
288.591
288.539
288.485
288.43
288.374
288.317
288.26
288.202
288.144
288.085
288.025
287.965
287.905
287.845
287.785
287.725
287.667
287.609
287.552
287.496
287.442
287.39
287.339
287.291
287.245
287.202
287.161
287.123
287.089
287.058
287.03
287.006
286.985
286.968
286.954
286.944
286.939
286.938
286.94
286.944
286.953
286.965
286.98
286.998
287.018
287.042
287.07
287.1
287.132
287.168
287.205
287.245
287.286
287.329
287.374
287.42
287.468
287.516
287.566
287.617
287.669
287.722
287.775
287.829
287.883
287.937
287.992
288.047
288.102
288.158
288.213
288.268
288.322
288.377
288.431
288.484
288.537
288.589
288.641
288.692
288.742
288.791
288.839
288.886
288.931
288.975
289.017
289.058
289.097
289.133
289.168
289.2
289.23
289.258
289.283
289.305
289.324
289.34
289.354
289.364
289.371
289.375
289.376
289.375
289.37
289.363