/*--------------------------------*- C++ -*----------------------------------*\
| =========                 |                                                 |
| \\      /  F ield         | OpenFOAM: The Open Source CFD Toolbox           |
|  \\    /   O peration     | Version:  v1812                                 |
|   \\  /    A nd           | Web:      www.OpenFOAM.com                      |
|    \\/     M anipulation  |                                                 |
\*---------------------------------------------------------------------------*/
FoamFile
{
    version     2.0;
    format      ascii;
    class       volVectorField;
    location    "0.2";
    object      U;
}
// * * * * * * * * * * * * * * * * * * * * * * * * * * * * * * * * * * * * * //

dimensions      [0 1 -1 0 0 0 0];


internalField   nonuniform List<vector> 
20400
(
(0.0246322 -0.0476081 0)
(0.137217 -0.0692083 0)
(0.300452 -0.0807017 0)
(0.505399 -0.0661975 0)
(0.723226 -0.0514878 0)
(0.94209 -0.0319347 0)
(1.12411 0.00855963 0)
(1.25925 0.0281841 0)
(1.3336 0.0108175 0)
(1.31532 -0.0927653 0)
(1.27744 -0.143305 0)
(1.28932 0.0153921 0)
(1.15124 0.176447 0)
(0.86628 0.307346 0)
(0.517386 0.297742 0)
(0.247955 0.193545 0)
(0.0704738 0.123018 0)
(-0.0895902 0.121087 0)
(-0.297571 0.182764 0)
(-0.628225 0.28813 0)
(-1.1252 0.387241 0)
(-1.7829 0.456144 0)
(-2.57798 0.492814 0)
(-3.47739 0.49038 0)
(-4.45951 0.449824 0)
(-5.5041 0.359772 0)
(-6.5927 0.251987 0)
(-7.66833 0.160234 0)
(-8.6973 0.169736 0)
(-9.61549 0.225763 0)
(-10.3786 0.278348 0)
(-10.9916 0.291711 0)
(-11.4611 0.216609 0)
(-11.7899 0.0833886 0)
(-12.0598 0.0315127 0)
(-12.3012 -0.0396629 0)
(-12.4909 -0.147973 0)
(-12.6006 -0.242153 0)
(-12.6496 -0.287119 0)
(-12.6599 -0.281344 0)
(-12.5889 -0.295046 0)
(-12.3924 -0.304246 0)
(-12.0624 -0.291185 0)
(-11.6144 -0.351522 0)
(-11.0468 -0.37622 0)
(-10.3663 -0.377477 0)
(-9.59583 -0.332535 0)
(-8.79605 -0.14831 0)
(-8.13328 0.313235 0)
(-7.74518 0.884787 0)
(-7.11937 0.706424 0)
(-6.26512 0.523185 0)
(-5.30841 0.242549 0)
(-4.25275 -0.0233506 0)
(-3.17144 -0.237941 0)
(-2.12214 -0.413509 0)
(-1.15789 -0.553418 0)
(-0.292649 -0.481306 0)
(0.471818 -0.253357 0)
(1.20075 -0.130105 0)
(1.88267 -0.127732 0)
(2.51469 -0.101289 0)
(3.09673 0.00979039 0)
(3.61957 0.163319 0)
(4.06413 0.310717 0)
(4.41762 0.412583 0)
(4.70276 0.442679 0)
(4.95054 0.405575 0)
(5.17645 0.304356 0)
(5.3354 0.114004 0)
(5.42739 -0.0836952 0)
(5.4508 -0.195524 0)
(5.40665 -0.239076 0)
(5.34948 -0.253377 0)
(5.28601 -0.258143 0)
(5.21337 -0.282838 0)
(5.12415 -0.304585 0)
(5.01792 -0.303427 0)
(4.90541 -0.282321 0)
(4.79281 -0.253817 0)
(4.68308 -0.228793 0)
(4.57865 -0.205719 0)
(4.47946 -0.18117 0)
(4.38484 -0.157146 0)
(4.29445 -0.134314 0)
(4.20762 -0.114172 0)
(4.12217 -0.0989615 0)
(4.03511 -0.0865158 0)
(3.9441 -0.0751688 0)
(3.84829 -0.0643335 0)
(3.74734 -0.0539268 0)
(3.64106 -0.044329 0)
(3.52936 -0.0363233 0)
(3.41202 -0.0292685 0)
(3.28903 -0.0228712 0)
(3.16091 -0.0173818 0)
(3.02833 -0.0125124 0)
(2.89171 -0.00871234 0)
(2.75131 -0.00683066 0)
(2.60732 -0.00560906 0)
(2.45965 -0.00526772 0)
(2.30797 -0.00551761 0)
(2.15186 -0.00609317 0)
(1.99103 -0.00691001 0)
(1.8254 -0.00796077 0)
(1.65514 -0.0092198 0)
(1.48056 -0.0106214 0)
(1.30203 -0.0119901 0)
(1.11983 -0.0131616 0)
(0.934284 -0.0141208 0)
(0.745758 -0.0148608 0)
(0.554774 -0.0154326 0)
(0.361987 -0.0158588 0)
(0.168155 -0.0160455 0)
(-0.0255645 -0.0157293 0)
(-0.217876 -0.0152356 0)
(-0.407354 -0.0147424 0)
(-0.592923 -0.0140791 0)
(-0.773585 -0.0131895 0)
(-0.948505 -0.0120643 0)
(-1.1167 -0.0110913 0)
(-1.27726 -0.00982871 0)
(-1.42977 -0.00819764 0)
(-1.57411 -0.00631411 0)
(-1.71032 -0.00420899 0)
(-1.83731 -0.00203752 0)
(-1.9528 0.000176862 0)
(-2.0553 0.00260348 0)
(-2.15113 0.00554207 0)
(-2.23772 0.00846372 0)
(-2.31333 0.0115105 0)
(-2.37768 0.0146996 0)
(-2.43069 0.0179701 0)
(-2.47211 0.0212675 0)
(-2.50182 0.0251413 0)
(-2.52076 0.0297653 0)
(-2.52756 0.0341953 0)
(-2.52208 0.0374553 0)
(-2.50576 0.0409732 0)
(-2.47802 0.0447697 0)
(-2.43926 0.0486978 0)
(-2.38999 0.0526653 0)
(-2.33074 0.0566639 0)
(-2.26188 0.0607058 0)
(-2.18398 0.0652059 0)
(-2.09773 0.0698254 0)
(-2.00347 0.0743947 0)
(-1.90151 0.0788826 0)
(-1.79215 0.0832222 0)
(-1.67565 0.0873683 0)
(-1.55232 0.0913324 0)
(-1.42248 0.0950147 0)
(-1.28638 0.0983023 0)
(-1.14416 0.101007 0)
(-0.9958 0.102965 0)
(-0.841261 0.104335 0)
(-0.680775 0.105447 0)
(-0.514829 0.106422 0)
(-0.34397 0.107191 0)
(-0.168717 0.107522 0)
(0.0103961 0.106837 0)
(0.192373 0.105445 0)
(0.376484 0.103854 0)
(0.562068 0.102097 0)
(0.748372 0.100041 0)
(0.934622 0.0975244 0)
(1.12007 0.0945782 0)
(1.3041 0.0905517 0)
(1.48621 0.0822983 0)
(1.66586 0.0702588 0)
(1.84264 0.0547385 0)
(2.01652 0.0365986 0)
(2.18715 0.0164826 0)
(2.35388 -0.00680651 0)
(2.51607 -0.0323091 0)
(2.67329 -0.0544851 0)
(2.8247 -0.0717153 0)
(2.96962 -0.0852967 0)
(3.10772 -0.0964296 0)
(3.2386 -0.107119 0)
(3.36197 -0.116402 0)
(3.47746 -0.122858 0)
(3.58445 -0.126723 0)
(3.68188 -0.128551 0)
(3.76829 -0.127166 0)
(3.84246 -0.124204 0)
(3.90394 -0.117037 0)
(3.95295 -0.105486 0)
(3.99169 -0.0967498 0)
(4.01988 -0.0886454 0)
(4.03505 -0.0819568 0)
(4.03705 -0.0747428 0)
(4.02745 -0.0663018 0)
(4.00842 -0.0561497 0)
(3.97868 -0.0445577 0)
(3.93655 -0.0344121 0)
(3.88276 -0.0252029 0)
(3.81751 -0.0181505 0)
(3.74039 -0.0135108 0)
(3.65137 -0.0104569 0)
(3.55095 -0.00860528 0)
(3.43961 -0.00793261 0)
(3.31782 -0.00816927 0)
(3.18595 -0.00928092 0)
(3.0443 -0.0110759 0)
(2.89316 -0.0133827 0)
(2.73276 -0.0160051 0)
(2.56327 -0.0187479 0)
(2.38481 -0.0214297 0)
(2.19742 -0.0239236 0)
(2.00118 -0.0261242 0)
(1.79626 -0.0281109 0)
(1.58295 -0.0297686 0)
(1.36152 -0.030964 0)
(1.1322 -0.0314655 0)
(0.895222 -0.0311752 0)
(0.650958 -0.0303148 0)
(0.399807 -0.0290106 0)
(0.142208 -0.0271872 0)
(-0.120937 -0.0247024 0)
(-0.388882 -0.021919 0)
(-0.660551 -0.0188277 0)
(-0.935022 -0.0154783 0)
(-1.21109 -0.0120752 0)
(-1.48742 -0.00847785 0)
(-1.7627 -0.00461165 0)
(-2.03552 -0.000563439 0)
(-2.30451 0.00373534 0)
(-2.56833 0.00822683 0)
(-2.82565 0.0128637 0)
(-3.0753 0.0176858 0)
(-3.31623 0.0226473 0)
(-3.54755 0.0277444 0)
(-3.76857 0.0330669 0)
(-3.97878 0.038569 0)
(-4.17768 0.0440454 0)
(-4.36487 0.0495338 0)
(-4.54008 0.0550942 0)
(-4.70302 0.0607756 0)
(-4.85313 0.0664903 0)
(-4.98959 0.0721569 0)
(-5.11179 0.0776388 0)
(-5.21978 0.082725 0)
(-5.31433 0.0872733 0)
(-5.39669 0.0913719 0)
(-5.46835 0.0953398 0)
(-5.53049 0.0990852 0)
(-5.58333 0.102599 0)
(-5.62794 0.106575 0)
(-5.66536 0.110172 0)
(-5.69432 0.113421 0)
(-5.7173 0.116488 0)
(-5.73219 0.119481 0)
(-5.73952 0.122484 0)
(-5.73968 0.124794 0)
(-5.73381 0.126832 0)
(-5.72207 0.128868 0)
(-5.70466 0.130793 0)
(-5.68211 0.132536 0)
(-5.65489 0.134081 0)
(-5.62341 0.135421 0)
(-5.58805 0.136553 0)
(-5.54914 0.137474 0)
(-5.507 0.138182 0)
(-5.46188 0.138686 0)
(-5.41404 0.139 0)
(-5.36368 0.139138 0)
(-5.31099 0.139108 0)
(-5.25611 0.138923 0)
(-5.1992 0.13859 0)
(-5.14034 0.138109 0)
(-5.07963 0.137488 0)
(-5.01713 0.136735 0)
(-4.9529 0.135846 0)
(-4.88697 0.134826 0)
(-4.81935 0.133682 0)
(-4.75006 0.132424 0)
(-4.67909 0.131069 0)
(-4.60645 0.129633 0)
(-4.53215 0.128133 0)
(-4.45621 0.126578 0)
(-4.37864 0.124977 0)
(-4.29948 0.123335 0)
(-4.21876 0.121654 0)
(-4.13648 0.119947 0)
(-4.05268 0.118253 0)
(-3.96741 0.116538 0)
(-3.88072 0.114754 0)
(-3.79265 0.112877 0)
(-3.70324 0.110913 0)
(-3.6125 0.108882 0)
(-3.52044 0.106808 0)
(-3.42706 0.104721 0)
(-3.3324 0.102634 0)
(-3.23644 0.100563 0)
(-3.13924 0.098522 0)
(-3.04082 0.0965133 0)
(-2.94122 0.0945335 0)
(-2.84051 0.0925894 0)
(-2.73871 0.0906882 0)
(-2.63589 0.0888296 0)
(-2.53209 0.0870091 0)
(-2.42735 0.0852266 0)
(-2.32172 0.0834878 0)
(-2.21523 0.0817992 0)
(-2.10794 0.0801659 0)
(-1.99991 0.0785852 0)
(-1.8912 0.0770469 0)
(-1.78183 0.0755473 0)
(-1.67192 0.0741516 0)
(-1.56155 0.0727969 0)
(-1.45078 0.0714765 0)
(-1.33965 0.0701948 0)
(-1.22824 0.0689645 0)
(-1.11658 0.0677585 0)
(-1.00465 0.0665136 0)
(-0.892458 0.0653908 0)
(-0.780115 0.0643314 0)
(-0.667647 0.0633236 0)
(-0.555088 0.0623744 0)
(-0.442476 0.0614778 0)
(-0.329846 0.0606268 0)
(-0.217246 0.059818 0)
(-0.104734 0.059034 0)
(0.00762262 0.0582582 0)
(0.119705 0.0575379 0)
(0.231481 0.0568947 0)
(0.342892 0.056319 0)
(0.45388 0.0558031 0)
(0.564388 0.055341 0)
(0.674369 0.0549267 0)
(0.783777 0.0545542 0)
(0.892577 0.0542188 0)
(1.00073 0.0539177 0)
(1.1082 0.0536437 0)
(1.21496 0.0534003 0)
(1.32098 0.0531774 0)
(1.42622 0.0529801 0)
(1.53066 0.0528263 0)
(1.63425 0.0526855 0)
(1.73697 0.0525685 0)
(1.8388 0.0524816 0)
(1.93969 0.0524017 0)
(2.03965 0.0523116 0)
(2.13867 0.0522163 0)
(2.23676 0.0521258 0)
(2.33393 0.0520374 0)
(2.43018 0.0519436 0)
(2.52556 0.0518392 0)
(2.6201 0.0517251 0)
(2.71385 0.0516046 0)
(2.80688 0.0514774 0)
(2.89924 0.0513457 0)
(2.991 0.0512079 0)
(3.08223 0.0510639 0)
(3.17301 0.0509141 0)
(3.26342 0.0507578 0)
(3.35351 0.0505968 0)
(3.44334 0.0504298 0)
(3.53295 0.0502496 0)
(3.62238 0.0500541 0)
(3.71167 0.0498026 0)
(3.80089 0.0494782 0)
(3.8901 0.0490804 0)
(3.97939 0.0485987 0)
(4.0688 0.0480613 0)
(4.15833 0.0474846 0)
(4.24796 0.0468642 0)
(4.33764 0.0461914 0)
(4.42732 0.0454457 0)
(4.51692 0.0446085 0)
(4.60638 0.0436974 0)
(4.6956 0.0427143 0)
(4.78448 0.0416517 0)
(4.87293 0.0405075 0)
(4.96082 0.0392962 0)
(5.04803 0.0380239 0)
(5.13438 0.0367016 0)
(5.21973 0.0353303 0)
(5.30389 0.0339258 0)
(5.38669 0.0324811 0)
(5.46793 0.0310275 0)
(5.54742 0.029556 0)
(5.625 0.0280674 0)
(5.70045 0.0265764 0)
(5.77362 0.0250589 0)
(5.84438 0.0235986 0)
(5.91253 0.0221563 0)
(5.97791 0.0207339 0)
(6.04039 0.0193433 0)
(6.09983 0.0179902 0)
(6.15611 0.016675 0)
(6.20915 0.0154002 0)
(6.25891 0.0141678 0)
(6.30535 0.0129871 0)
(6.34836 0.0118705 0)
(6.38785 0.0108179 0)
(6.42379 0.00981183 0)
(6.45627 0.00884714 0)
(6.48546 0.00788175 0)
(6.51153 0.00690845 0)
(6.53455 0.00598201 0)
(6.55461 0.00516038 0)
(6.5717 0.00426236 0)
(6.58587 0.0032837 0)
(6.59727 0.0023996 0)
(6.60609 0.00160393 0)
(6.61254 0.000860429 0)
(6.61678 0.0002773 0)
(6.6191 -0.000297804 0)
(6.61952 -0.00139397 0)
(6.61855 -0.0019279 0)
(6.61604 -0.00255648 0)
(6.61216 -0.00323337 0)
(6.60703 -0.00396707 0)
(6.60082 -0.00469087 0)
(6.59367 -0.0054247 0)
(6.58568 -0.00612776 0)
(6.57697 -0.00684551 0)
(6.56762 -0.0075444 0)
(6.55772 -0.00826291 0)
(6.54737 -0.00897964 0)
(6.53664 -0.00971441 0)
(6.52559 -0.0104562 0)
(6.5143 -0.0111973 0)
(6.50283 -0.0119445 0)
(6.49126 -0.0126795 0)
(6.47964 -0.0134169 0)
(6.46803 -0.01414 0)
(6.45645 -0.0148608 0)
(6.44495 -0.0155691 0)
(6.43352 -0.016268 0)
(6.42218 -0.0169667 0)
(6.41093 -0.0175507 0)
(6.3998 -0.0183043 0)
(6.38878 -0.0190074 0)
(6.37788 -0.0196845 0)
(6.36711 -0.0203609 0)
(6.35652 -0.0210355 0)
(6.34612 -0.0217034 0)
(6.33595 -0.0223605 0)
(6.32601 -0.0229969 0)
(6.31631 -0.0236101 0)
(6.30684 -0.0241991 0)
(6.29762 -0.0247609 0)
(6.28861 -0.0252921 0)
(6.27983 -0.0257887 0)
(6.27124 -0.0262572 0)
(6.26283 -0.02669 0)
(6.25458 -0.0270935 0)
(6.24647 -0.0274715 0)
(6.2385 -0.0278198 0)
(6.23067 -0.0281351 0)
(6.22297 -0.0284214 0)
(6.2154 -0.0286595 0)
(6.20794 -0.028879 0)
(6.20059 -0.0289545 0)
(6.19336 -0.029128 0)
(6.18627 -0.0292328 0)
(6.17934 -0.0292664 0)
(6.17256 -0.0292595 0)
(6.16569 -0.0292101 0)
(6.15893 -0.0291207 0)
(6.1524 -0.028986 0)
(6.14604 -0.0288036 0)
(6.13984 -0.0285785 0)
(6.13381 -0.028303 0)
(6.12795 -0.0279863 0)
(6.12228 -0.0276213 0)
(6.11683 -0.0272147 0)
(6.11158 -0.0267685 0)
(6.10657 -0.0262726 0)
(6.10181 -0.0257501 0)
(6.0973 -0.0251719 0)
(6.09306 -0.0245751 0)
(6.08912 -0.0239313 0)
(6.08548 -0.0232683 0)
(6.08218 -0.0225338 0)
(6.0792 -0.0218239 0)
(6.07658 -0.0209925 0)
(6.07428 -0.0202177 0)
(6.07234 -0.0193582 0)
(6.07076 -0.0184591 0)
(6.06954 -0.0175804 0)
(6.06869 -0.0166718 0)
(6.0682 -0.0157446 0)
(6.06806 -0.0147763 0)
(6.06822 -0.0138073 0)
(6.06872 -0.0128189 0)
(6.06955 -0.0118208 0)
(6.07078 -0.0108097 0)
(6.0724 -0.00980963 0)
(6.0744 -0.00881688 0)
(6.07669 -0.00781878 0)
(6.07929 -0.00686102 0)
(6.0821 -0.00587951 0)
(6.08507 -0.00477901 0)
(6.088 -0.0029983 0)
(6.08922 -0.001078 0)
(6.09113 -0.000187459 0)
(0.0882879 -0.242473 0)
(0.357739 -0.306514 0)
(0.616225 -0.358387 0)
(0.878391 -0.365912 0)
(1.11568 -0.362367 0)
(1.31024 -0.31742 0)
(1.43775 -0.252641 0)
(1.54184 -0.184341 0)
(1.57602 -0.0666854 0)
(1.52427 0.0447981 0)
(1.32368 0.0984772 0)
(1.00653 0.119541 0)
(0.644804 0.31643 0)
(0.0936966 0.501513 0)
(-0.613919 0.512386 0)
(-1.40265 0.405268 0)
(-2.2749 0.345496 0)
(-3.2466 0.387945 0)
(-4.34167 0.516034 0)
(-5.58874 0.724622 0)
(-6.99939 0.956805 0)
(-8.55669 1.16217 0)
(-10.2154 1.32436 0)
(-11.8987 1.44895 0)
(-13.5267 1.56926 0)
(-15.04 1.67036 0)
(-16.4093 1.72344 0)
(-17.6254 1.65254 0)
(-18.6804 1.4734 0)
(-19.5704 1.16666 0)
(-20.3119 0.902007 0)
(-20.8849 0.663629 0)
(-21.2352 0.488995 0)
(-21.348 0.400621 0)
(-21.2563 0.384841 0)
(-20.9802 0.370822 0)
(-20.5536 0.306489 0)
(-20.0165 0.235488 0)
(-19.4176 0.175946 0)
(-18.7992 0.12716 0)
(-18.1759 -0.0131378 0)
(-17.5145 -0.18277 0)
(-16.8026 -0.3404 0)
(-16.0431 -0.467283 0)
(-15.2398 -0.601627 0)
(-14.3823 -0.731677 0)
(-13.4625 -0.822968 0)
(-12.4717 -0.805081 0)
(-11.4288 -0.674747 0)
(-10.2526 -0.609875 0)
(-9.02192 -1.1994 0)
(-7.62231 -1.41609 0)
(-6.22825 -1.58271 0)
(-4.83965 -1.66497 0)
(-3.48843 -1.66706 0)
(-2.16907 -1.61639 0)
(-0.847985 -1.51399 0)
(0.54505 -1.41114 0)
(2.03302 -1.29715 0)
(3.52578 -1.12432 0)
(4.91269 -0.941723 0)
(6.15745 -0.836306 0)
(7.24895 -0.812745 0)
(8.17514 -0.792354 0)
(8.94972 -0.732358 0)
(9.59929 -0.645527 0)
(10.159 -0.576246 0)
(10.6531 -0.512437 0)
(11.0742 -0.39062 0)
(11.3865 -0.187946 0)
(11.5418 0.058712 0)
(11.5951 0.216625 0)
(11.5486 0.300918 0)
(11.4529 0.324398 0)
(11.3358 0.337844 0)
(11.1909 0.370823 0)
(11.0144 0.412391 0)
(10.8082 0.429463 0)
(10.5917 0.415895 0)
(10.3782 0.387542 0)
(10.1719 0.354245 0)
(9.97295 0.32076 0)
(9.78104 0.285465 0)
(9.59654 0.249559 0)
(9.42005 0.213837 0)
(9.2518 0.180929 0)
(9.09003 0.156535 0)
(8.93191 0.139569 0)
(8.77474 0.125519 0)
(8.61701 0.111769 0)
(8.45804 0.0978621 0)
(8.29769 0.0839698 0)
(8.13623 0.0715122 0)
(7.97387 0.0604514 0)
(7.81058 0.0497651 0)
(7.64623 0.0385599 0)
(7.48098 0.0267828 0)
(7.31499 0.0151265 0)
(7.1482 0.00462706 0)
(6.98052 -0.00536675 0)
(6.81179 -0.013981 0)
(6.64164 -0.0208859 0)
(6.46961 -0.0262188 0)
(6.29526 -0.0301508 0)
(6.11835 -0.0330258 0)
(5.93888 -0.0350897 0)
(5.75693 -0.0364625 0)
(5.57266 -0.0371883 0)
(5.38627 -0.0372869 0)
(5.19792 -0.0368035 0)
(5.00785 -0.0359121 0)
(4.81643 -0.0348401 0)
(4.62428 -0.0338539 0)
(4.43242 -0.0331239 0)
(4.24203 -0.0327672 0)
(4.05434 -0.0326451 0)
(3.87065 -0.0325145 0)
(3.69241 -0.0321459 0)
(3.52086 -0.03153 0)
(3.35687 -0.0304518 0)
(3.2012 -0.02936 0)
(3.05469 -0.0280697 0)
(2.91803 -0.0264297 0)
(2.79132 -0.0243424 0)
(2.67412 -0.0216034 0)
(2.56726 -0.0187099 0)
(2.47358 -0.0162122 0)
(2.39476 -0.0135021 0)
(2.3232 -0.0104047 0)
(2.26162 -0.0067927 0)
(2.21185 -0.00298062 0)
(2.17398 0.00107923 0)
(2.14792 0.00514513 0)
(2.13389 0.00930787 0)
(2.13042 0.0139643 0)
(2.13882 0.0199109 0)
(2.15883 0.0269594 0)
(2.19106 0.0319326 0)
(2.23379 0.0370454 0)
(2.28671 0.0426858 0)
(2.34934 0.0487524 0)
(2.42121 0.0551224 0)
(2.50179 0.061761 0)
(2.59075 0.0686578 0)
(2.68782 0.0752747 0)
(2.7925 0.0819416 0)
(2.90428 0.0886017 0)
(3.02273 0.0951851 0)
(3.14745 0.101583 0)
(3.27817 0.10768 0)
(3.4148 0.113375 0)
(3.55749 0.118439 0)
(3.70652 0.122676 0)
(3.86221 0.125867 0)
(4.02479 0.127873 0)
(4.19433 0.128994 0)
(4.37061 0.129744 0)
(4.55311 0.130388 0)
(4.74103 0.131005 0)
(4.93342 0.131727 0)
(5.12933 0.132792 0)
(5.32798 0.13387 0)
(5.52852 0.134808 0)
(5.72987 0.135887 0)
(5.93094 0.137364 0)
(6.13076 0.139313 0)
(6.32864 0.14144 0)
(6.52403 0.144289 0)
(6.71593 0.151183 0)
(6.90325 0.161562 0)
(7.08542 0.172914 0)
(7.26174 0.184224 0)
(7.43161 0.195557 0)
(7.59403 0.208315 0)
(7.74769 0.221746 0)
(7.89294 0.231199 0)
(8.03124 0.235436 0)
(8.1636 0.235614 0)
(8.29008 0.232972 0)
(8.4098 0.229589 0)
(8.52156 0.224963 0)
(8.62474 0.218052 0)
(8.71888 0.209122 0)
(8.80294 0.198685 0)
(8.87544 0.185796 0)
(8.93533 0.172088 0)
(8.98236 0.155952 0)
(9.0172 0.136454 0)
(9.04303 0.119016 0)
(9.05675 0.102647 0)
(9.05492 0.0880252 0)
(9.0396 0.0741989 0)
(9.01211 0.0598576 0)
(8.9739 0.0446173 0)
(8.92694 0.0276555 0)
(8.86774 0.0122356 0)
(8.79741 -0.00310053 0)
(8.71532 -0.0163982 0)
(8.62114 -0.0271265 0)
(8.51489 -0.0362491 0)
(8.3972 -0.0440542 0)
(8.26866 -0.0504169 0)
(8.12981 -0.0554539 0)
(7.98108 -0.0591874 0)
(7.82282 -0.0617898 0)
(7.65532 -0.063392 0)
(7.47886 -0.0641166 0)
(7.29369 -0.064071 0)
(7.10006 -0.0633618 0)
(6.89819 -0.0620412 0)
(6.68825 -0.0600823 0)
(6.4705 -0.0574217 0)
(6.24522 -0.0542467 0)
(6.0127 -0.0507357 0)
(5.77329 -0.0473129 0)
(5.52742 -0.0443936 0)
(5.27562 -0.0416241 0)
(5.01846 -0.0387869 0)
(4.75671 -0.0358829 0)
(4.49114 -0.0329706 0)
(4.22257 -0.0298464 0)
(3.95199 -0.0263941 0)
(3.68049 -0.0226744 0)
(3.40933 -0.0189087 0)
(3.13991 -0.0149939 0)
(2.87363 -0.0107965 0)
(2.61191 -0.00618562 0)
(2.35623 -0.00117351 0)
(2.10803 0.0043045 0)
(1.8686 0.0101442 0)
(1.63908 0.0163537 0)
(1.42042 0.0228111 0)
(1.21347 0.0296797 0)
(1.01881 0.0365675 0)
(0.837175 0.0433884 0)
(0.669142 0.0500641 0)
(0.51492 0.0568118 0)
(0.374519 0.0637047 0)
(0.248002 0.0707396 0)
(0.135759 0.0778381 0)
(0.0385677 0.0849543 0)
(-0.0431418 0.0918139 0)
(-0.109364 0.0981262 0)
(-0.160814 0.10388 0)
(-0.19877 0.109075 0)
(-0.224394 0.11338 0)
(-0.239314 0.118161 0)
(-0.243518 0.122768 0)
(-0.238931 0.127145 0)
(-0.225819 0.131244 0)
(-0.202745 0.135071 0)
(-0.172561 0.138669 0)
(-0.133244 0.142095 0)
(-0.0853428 0.145444 0)
(-0.0294756 0.148374 0)
(0.0333456 0.15068 0)
(0.102695 0.152918 0)
(0.178242 0.154994 0)
(0.259551 0.156843 0)
(0.346141 0.158446 0)
(0.437537 0.159797 0)
(0.533292 0.160889 0)
(0.632996 0.161718 0)
(0.736278 0.162276 0)
(0.842808 0.162574 0)
(0.952298 0.162619 0)
(1.06449 0.162432 0)
(1.17918 0.16202 0)
(1.29615 0.1614 0)
(1.41525 0.160581 0)
(1.53635 0.159563 0)
(1.65934 0.158359 0)
(1.78412 0.156978 0)
(1.91064 0.155421 0)
(2.03886 0.153697 0)
(2.16875 0.151821 0)
(2.30029 0.149812 0)
(2.43347 0.147698 0)
(2.56825 0.145499 0)
(2.70462 0.14324 0)
(2.84254 0.140934 0)
(2.98196 0.138589 0)
(3.12284 0.136211 0)
(3.26512 0.133803 0)
(3.40879 0.131272 0)
(3.55377 0.128606 0)
(3.70001 0.12583 0)
(3.84749 0.122985 0)
(3.99617 0.120118 0)
(4.14605 0.117271 0)
(4.29711 0.114473 0)
(4.44935 0.111731 0)
(4.60276 0.10906 0)
(4.75731 0.106455 0)
(4.913 0.103917 0)
(5.0698 0.101458 0)
(5.22768 0.0990774 0)
(5.38658 0.0967709 0)
(5.54646 0.0945482 0)
(5.70726 0.0924247 0)
(5.86888 0.0904075 0)
(6.03123 0.0884961 0)
(6.19421 0.0866881 0)
(6.35771 0.0849838 0)
(6.52163 0.0833811 0)
(6.68585 0.0818794 0)
(6.85026 0.0804693 0)
(7.01475 0.0791524 0)
(7.17918 0.077907 0)
(7.34342 0.0766216 0)
(7.50742 0.0753801 0)
(7.67113 0.0742052 0)
(7.8345 0.0730935 0)
(7.9975 0.0720494 0)
(8.16013 0.0708877 0)
(8.32231 0.0700791 0)
(8.48396 0.0694131 0)
(8.6451 0.0687731 0)
(8.80567 0.0681606 0)
(8.9656 0.0676111 0)
(9.1248 0.0671399 0)
(9.28321 0.0667594 0)
(9.44077 0.0664791 0)
(9.59743 0.0663022 0)
(9.75314 0.0662331 0)
(9.90783 0.0662763 0)
(10.0614 0.066444 0)
(10.2138 0.0667361 0)
(10.3649 0.0671449 0)
(10.5146 0.0676626 0)
(10.6629 0.0682814 0)
(10.8098 0.0689933 0)
(10.9551 0.0697912 0)
(11.0988 0.0706701 0)
(11.2409 0.0716195 0)
(11.3813 0.0726405 0)
(11.52 0.0737201 0)
(11.6569 0.0748576 0)
(11.792 0.0760682 0)
(11.9254 0.0773219 0)
(12.0569 0.0786088 0)
(12.1867 0.079942 0)
(12.3147 0.0812961 0)
(12.4409 0.0826372 0)
(12.5654 0.0839561 0)
(12.6882 0.0852573 0)
(12.8093 0.086538 0)
(12.9289 0.0877844 0)
(13.047 0.0889845 0)
(13.1636 0.0901326 0)
(13.2789 0.091227 0)
(13.3929 0.0922711 0)
(13.5058 0.0932618 0)
(13.6175 0.0941993 0)
(13.7283 0.0950829 0)
(13.8382 0.0959161 0)
(13.9472 0.0967015 0)
(14.0555 0.0974454 0)
(14.1632 0.098144 0)
(14.2702 0.098802 0)
(14.3767 0.0994044 0)
(14.4826 0.0999299 0)
(14.5881 0.100367 0)
(14.6932 0.100695 0)
(14.7978 0.100909 0)
(14.9022 0.101011 0)
(15.0062 0.101029 0)
(15.11 0.100963 0)
(15.2136 0.100812 0)
(15.3168 0.100549 0)
(15.4196 0.100159 0)
(15.5218 0.0996346 0)
(15.6235 0.0989741 0)
(15.7244 0.0981605 0)
(15.8246 0.0971892 0)
(15.9238 0.0960611 0)
(16.0219 0.0947848 0)
(16.1189 0.0933585 0)
(16.2144 0.0917775 0)
(16.3084 0.0900506 0)
(16.4007 0.0881473 0)
(16.491 0.0861297 0)
(16.5792 0.0839143 0)
(16.6651 0.0815777 0)
(16.7485 0.079137 0)
(16.8292 0.0764517 0)
(16.9071 0.0736524 0)
(16.9819 0.0707848 0)
(17.0536 0.0678124 0)
(17.1221 0.0647332 0)
(17.187 0.0615528 0)
(17.2485 0.0582573 0)
(17.3063 0.0548535 0)
(17.3605 0.0513415 0)
(17.411 0.0477184 0)
(17.4578 0.0440005 0)
(17.5007 0.0402479 0)
(17.5397 0.0365093 0)
(17.575 0.0328179 0)
(17.6067 0.0292363 0)
(17.6351 0.0257273 0)
(17.6602 0.0221377 0)
(17.6821 0.0184089 0)
(17.7008 0.0148268 0)
(17.7164 0.0113751 0)
(17.7292 0.0078852 0)
(17.7392 0.00440926 0)
(17.7468 0.00101593 0)
(17.752 -0.00236475 0)
(17.7557 -0.00543567 0)
(17.757 -0.0092435 0)
(17.7564 -0.0123602 0)
(17.7543 -0.0152594 0)
(17.7508 -0.0180876 0)
(17.7461 -0.0208561 0)
(17.7403 -0.02359 0)
(17.7334 -0.0262714 0)
(17.7257 -0.0289068 0)
(17.7173 -0.0314781 0)
(17.7081 -0.0339873 0)
(17.6983 -0.0364164 0)
(17.688 -0.0387662 0)
(17.6773 -0.0410132 0)
(17.6663 -0.0431633 0)
(17.655 -0.0452417 0)
(17.6434 -0.0472554 0)
(17.6317 -0.0492204 0)
(17.6199 -0.0511223 0)
(17.6081 -0.0529657 0)
(17.5962 -0.054733 0)
(17.5844 -0.0564237 0)
(17.5726 -0.0580307 0)
(17.5608 -0.0595216 0)
(17.549 -0.0610469 0)
(17.5374 -0.062361 0)
(17.5257 -0.0635675 0)
(17.5142 -0.0647011 0)
(17.5027 -0.0657744 0)
(17.4914 -0.0667926 0)
(17.4802 -0.067751 0)
(17.4692 -0.0686317 0)
(17.4584 -0.0694287 0)
(17.4479 -0.0701317 0)
(17.4375 -0.0707383 0)
(17.4274 -0.0712491 0)
(17.4175 -0.0716606 0)
(17.4078 -0.071969 0)
(17.3982 -0.0721615 0)
(17.3888 -0.0722492 0)
(17.3795 -0.072237 0)
(17.3703 -0.0721309 0)
(17.3612 -0.0719388 0)
(17.3523 -0.0716653 0)
(17.3435 -0.0713012 0)
(17.3347 -0.0708578 0)
(17.3261 -0.0702938 0)
(17.3177 -0.0697453 0)
(17.3093 -0.0690183 0)
(17.301 -0.0681815 0)
(17.2929 -0.0672603 0)
(17.285 -0.0662547 0)
(17.2769 -0.0651983 0)
(17.2689 -0.0640758 0)
(17.2612 -0.0628748 0)
(17.2536 -0.0616038 0)
(17.2461 -0.060259 0)
(17.2388 -0.0588505 0)
(17.2316 -0.0573731 0)
(17.2247 -0.0558403 0)
(17.2179 -0.0542539 0)
(17.2113 -0.0526138 0)
(17.2049 -0.0509443 0)
(17.1987 -0.0492208 0)
(17.1928 -0.0474912 0)
(17.1871 -0.0457152 0)
(17.1817 -0.0439459 0)
(17.1767 -0.0421265 0)
(17.1719 -0.040345 0)
(17.1674 -0.0384621 0)
(17.1633 -0.0366926 0)
(17.1595 -0.0347939 0)
(17.156 -0.0329935 0)
(17.1528 -0.0311998 0)
(17.15 -0.0293986 0)
(17.1476 -0.0276363 0)
(17.1454 -0.0258891 0)
(17.1436 -0.0241869 0)
(17.1421 -0.022492 0)
(17.1409 -0.0208323 0)
(17.1401 -0.0191987 0)
(17.1396 -0.0176132 0)
(17.1394 -0.016069 0)
(17.1397 -0.0145867 0)
(17.1402 -0.0131608 0)
(17.1408 -0.0117623 0)
(17.1419 -0.0102454 0)
(17.1424 -0.00875316 0)
(17.1443 -0.00669704 0)
(17.1454 -0.00373212 0)
(17.1486 -0.00206814 0)
(0.0417621 -0.538163 0)
(0.37312 -0.661996 0)
(0.652017 -0.711621 0)
(0.898127 -0.700849 0)
(1.10376 -0.666687 0)
(1.24994 -0.559387 0)
(1.35021 -0.463569 0)
(1.47612 -0.375271 0)
(1.52986 -0.107999 0)
(1.41432 0.219548 0)
(1.10192 0.489048 0)
(0.636411 0.698594 0)
(0.0555911 1.15168 0)
(-0.867811 1.63575 0)
(-2.16578 1.84564 0)
(-3.67809 1.82551 0)
(-5.30926 1.84247 0)
(-7.02574 1.98274 0)
(-8.82416 2.24568 0)
(-10.6896 2.58824 0)
(-12.5697 2.92092 0)
(-14.396 3.18496 0)
(-16.1245 3.3172 0)
(-17.7216 3.25793 0)
(-19.1586 3.06936 0)
(-20.4017 2.80163 0)
(-21.4163 2.53121 0)
(-22.1231 2.24495 0)
(-22.5789 2.0192 0)
(-22.7566 1.77706 0)
(-22.8111 1.42922 0)
(-22.7534 1.05938 0)
(-22.7008 0.634435 0)
(-22.5705 0.27379 0)
(-22.2759 0.0418206 0)
(-21.8851 -0.203243 0)
(-21.3994 -0.460517 0)
(-20.812 -0.673311 0)
(-20.1327 -0.813264 0)
(-19.4205 -0.844014 0)
(-18.7291 -0.993892 0)
(-18.0174 -1.21499 0)
(-17.2541 -1.42329 0)
(-16.4458 -1.61939 0)
(-15.5903 -1.82487 0)
(-14.6843 -2.03065 0)
(-13.7198 -2.20922 0)
(-12.6587 -2.32368 0)
(-11.4186 -2.38514 0)
(-9.92915 -2.44248 0)
(-8.43259 -3.03165 0)
(-6.91661 -3.16281 0)
(-5.48309 -3.23213 0)
(-4.08588 -3.23438 0)
(-2.70418 -3.18239 0)
(-1.30339 -3.11464 0)
(0.150401 -3.06324 0)
(1.67002 -3.09558 0)
(3.24879 -3.1087 0)
(4.88585 -2.96929 0)
(6.54995 -2.65927 0)
(8.14741 -2.27059 0)
(9.56797 -1.86847 0)
(10.7853 -1.49142 0)
(11.8407 -1.17576 0)
(12.755 -0.92614 0)
(13.5443 -0.777224 0)
(14.2145 -0.678037 0)
(14.7721 -0.544025 0)
(15.2276 -0.359426 0)
(15.5829 -0.143896 0)
(15.8577 0.0231624 0)
(16.0242 0.129018 0)
(16.1152 0.18685 0)
(16.15 0.228529 0)
(16.1418 0.270388 0)
(16.1049 0.316413 0)
(16.0206 0.345915 0)
(15.892 0.34675 0)
(15.725 0.33312 0)
(15.5306 0.314042 0)
(15.3246 0.295384 0)
(15.1164 0.277166 0)
(14.9133 0.25734 0)
(14.7201 0.235345 0)
(14.5389 0.21181 0)
(14.3688 0.190614 0)
(14.2054 0.174703 0)
(14.0441 0.162742 0)
(13.8827 0.152281 0)
(13.7208 0.142522 0)
(13.5585 0.131835 0)
(13.3956 0.119395 0)
(13.2318 0.106326 0)
(13.0671 0.0927309 0)
(12.901 0.0794894 0)
(12.7335 0.0665368 0)
(12.5646 0.0532738 0)
(12.3947 0.0395994 0)
(12.2236 0.0260332 0)
(12.0511 0.0132156 0)
(11.877 0.00154757 0)
(11.7011 -0.00850934 0)
(11.5232 -0.0170024 0)
(11.3437 -0.0244059 0)
(11.163 -0.0308682 0)
(10.9816 -0.0364454 0)
(10.7998 -0.0410556 0)
(10.6181 -0.0445006 0)
(10.4366 -0.0467488 0)
(10.2553 -0.0479151 0)
(10.0741 -0.0483152 0)
(9.89329 -0.0482757 0)
(9.71349 -0.0480919 0)
(9.53545 -0.0482427 0)
(9.36017 -0.0490248 0)
(9.1889 -0.0503311 0)
(9.023 -0.0517324 0)
(8.86382 -0.0527205 0)
(8.71227 -0.0528961 0)
(8.56893 -0.0530322 0)
(8.43454 -0.0525668 0)
(8.30984 -0.0512012 0)
(8.19508 -0.0491679 0)
(8.08975 -0.0463914 0)
(7.99435 -0.0429247 0)
(7.91177 -0.038833 0)
(7.84404 -0.0341053 0)
(7.78347 -0.0287298 0)
(7.73243 -0.0226221 0)
(7.69289 -0.015772 0)
(7.66478 -0.00861434 0)
(7.64834 -0.0011176 0)
(7.6442 0.00882739 0)
(7.65218 0.0194149 0)
(7.67095 0.0291364 0)
(7.70159 0.0395832 0)
(7.74417 0.0505024 0)
(7.79813 0.0618067 0)
(7.8631 0.0734331 0)
(7.93862 0.0854212 0)
(8.02424 0.0976835 0)
(8.11943 0.110115 0)
(8.22347 0.122622 0)
(8.3357 0.135056 0)
(8.45581 0.147724 0)
(8.58379 0.160382 0)
(8.71952 0.173007 0)
(8.8627 0.185441 0)
(9.01293 0.197295 0)
(9.16972 0.208285 0)
(9.3327 0.217957 0)
(9.50153 0.225932 0)
(9.67575 0.232025 0)
(9.85487 0.236289 0)
(10.0384 0.239101 0)
(10.226 0.241249 0)
(10.4173 0.243319 0)
(10.6121 0.245449 0)
(10.8103 0.24754 0)
(11.0114 0.249746 0)
(11.2152 0.252205 0)
(11.421 0.254897 0)
(11.6281 0.257835 0)
(11.8355 0.260774 0)
(12.0422 0.263254 0)
(12.2468 0.264745 0)
(12.4485 0.264729 0)
(12.6467 0.260596 0)
(12.8416 0.252948 0)
(13.0329 0.243722 0)
(13.2197 0.233334 0)
(13.402 0.222142 0)
(13.58 0.210302 0)
(13.7538 0.197756 0)
(13.9227 0.184569 0)
(14.0856 0.170995 0)
(14.2411 0.157403 0)
(14.3886 0.144126 0)
(14.5277 0.131501 0)
(14.6584 0.119505 0)
(14.7802 0.107926 0)
(14.8927 0.0968034 0)
(14.9952 0.0862941 0)
(15.0864 0.0763709 0)
(15.1649 0.0671333 0)
(15.23 0.0584254 0)
(15.2817 0.0502271 0)
(15.3217 0.0430268 0)
(15.3511 0.0355939 0)
(15.3686 0.0281215 0)
(15.3718 0.022786 0)
(15.3621 0.016398 0)
(15.341 0.00939639 0)
(15.3073 0.00248237 0)
(15.2603 -0.00465096 0)
(15.2009 -0.0103782 0)
(15.1292 -0.0159977 0)
(15.0456 -0.0219499 0)
(14.9506 -0.0280661 0)
(14.8445 -0.0340693 0)
(14.7277 -0.0398718 0)
(14.6008 -0.0452928 0)
(14.4642 -0.0503157 0)
(14.3185 -0.0549368 0)
(14.1637 -0.0591422 0)
(14.0003 -0.0629123 0)
(13.8284 -0.066223 0)
(13.6483 -0.0690885 0)
(13.4602 -0.0715295 0)
(13.2644 -0.0735991 0)
(13.0612 -0.0751007 0)
(12.8507 -0.0758888 0)
(12.6333 -0.0759098 0)
(12.4091 -0.0750407 0)
(12.1786 -0.0730675 0)
(11.9421 -0.0701872 0)
(11.7 -0.0666369 0)
(11.453 -0.0625363 0)
(11.2019 -0.0580438 0)
(10.9475 -0.0532102 0)
(10.691 -0.0478568 0)
(10.4334 -0.0419867 0)
(10.1759 -0.0359682 0)
(9.91984 -0.0296289 0)
(9.66674 -0.0229747 0)
(9.41807 -0.0160924 0)
(9.17522 -0.00909096 0)
(8.93959 -0.00189793 0)
(8.7125 0.00567415 0)
(8.49523 0.0138357 0)
(8.28901 0.0226351 0)
(8.09484 0.0319996 0)
(7.91374 0.042173 0)
(7.74625 0.0520113 0)
(7.59285 0.0622137 0)
(7.45396 0.0728769 0)
(7.32948 0.0840625 0)
(7.21924 0.095756 0)
(7.12345 0.107781 0)
(7.04259 0.119913 0)
(6.97713 0.131816 0)
(6.92703 0.143364 0)
(6.8912 0.154042 0)
(6.86804 0.16246 0)
(6.85774 0.169781 0)
(6.85895 0.177769 0)
(6.86981 0.186025 0)
(6.88957 0.192828 0)
(6.91843 0.199233 0)
(6.95673 0.205418 0)
(7.00136 0.211327 0)
(7.0555 0.216862 0)
(7.11831 0.221935 0)
(7.18897 0.226408 0)
(7.2667 0.230403 0)
(7.35108 0.233995 0)
(7.44172 0.237263 0)
(7.53816 0.240229 0)
(7.63993 0.242889 0)
(7.74655 0.245237 0)
(7.85759 0.247246 0)
(7.97262 0.248893 0)
(8.0913 0.250162 0)
(8.21327 0.251041 0)
(8.33827 0.251549 0)
(8.46601 0.251691 0)
(8.59625 0.251491 0)
(8.72876 0.250957 0)
(8.86334 0.250105 0)
(8.99979 0.248927 0)
(9.13798 0.247435 0)
(9.2778 0.245632 0)
(9.41917 0.243511 0)
(9.56207 0.241081 0)
(9.70648 0.238362 0)
(9.85243 0.23538 0)
(9.99991 0.232175 0)
(10.1489 0.228785 0)
(10.2995 0.225248 0)
(10.4516 0.221588 0)
(10.6052 0.21782 0)
(10.7601 0.213958 0)
(10.9165 0.210005 0)
(11.0741 0.205932 0)
(11.233 0.201655 0)
(11.393 0.197181 0)
(11.5542 0.192543 0)
(11.7165 0.18777 0)
(11.8797 0.182901 0)
(12.0439 0.17796 0)
(12.2091 0.17296 0)
(12.375 0.167929 0)
(12.5419 0.16287 0)
(12.7096 0.157804 0)
(12.8781 0.152772 0)
(13.0474 0.147795 0)
(13.2176 0.142882 0)
(13.3885 0.138067 0)
(13.5603 0.133406 0)
(13.7328 0.128941 0)
(13.9059 0.124687 0)
(14.0797 0.120647 0)
(14.2541 0.116831 0)
(14.4289 0.113247 0)
(14.6041 0.109906 0)
(14.7795 0.106802 0)
(14.9549 0.103931 0)
(15.1304 0.101269 0)
(15.3058 0.0986559 0)
(15.4808 0.0960877 0)
(15.6554 0.0935824 0)
(15.8293 0.0911886 0)
(16.0025 0.0889118 0)
(16.1749 0.0871753 0)