/*--------------------------------*- C++ -*----------------------------------*\
| =========                 |                                                 |
| \\      /  F ield         | OpenFOAM: The Open Source CFD Toolbox           |
|  \\    /   O peration     | Version:  v1812                                 |
|   \\  /    A nd           | Web:      www.OpenFOAM.com                      |
|    \\/     M anipulation  |                                                 |
\*---------------------------------------------------------------------------*/
FoamFile
{
    version     2.0;
    format      ascii;
    class       volScalarField;
    location    "1.2";
    object      p;
}
// * * * * * * * * * * * * * * * * * * * * * * * * * * * * * * * * * * * * * //

dimensions      [1 -1 -2 0 0 0 0];


internalField   nonuniform List<scalar> 
20400
(
99333.9
99335
99332.1
99336.7
99337.8
99339.2
99341.2
99343.7
99346.5
99349.6
99353.2
99357.4
99362.2
99367.4
99372.8
99378
99382.7
99387.9
99385.1
99404.1
99413.4
99420.9
99427.9
99435.2
99442.6
99445.6
99456.4
99459.9
99463.7
99476.7
99484.7
99492.1
99497.5
99501.3
99501.1
99520
99523.9
99530.7
99536.3
99543.5
99548.4
99551.6
99558.3
99563.2
99570.9
99578.1
99585.3
99596.5
99609.8
99624.8
99633.8
99644.9
99654.6
99664.9
99675.1
99687.9
99694.9
99709.3
99714.1
99713.5
99724.5
99720.4
99723.6
99720.9
99720.6
99714.2
99714.6
99709.3
99701.5
99689.7
99680.1
99669.1
99659.8
99647.8
99637.3
99624.8
99610.6
99599.7
99587.8
99577.6
99567.4
99557.3
99548.7
99542.4
99537.4
99532.5
99530.8
99529.1
99527.5
99530.3
99535.2
99536.9
99535.8
99535.5
99537
99539.8
99542.9
99550.8
99560.7
99559.6
99560.9
99562.9
99564.5
99566
99567.3
99569
99570.7
99572.1
99573.1
99574.3
99575.4
99577.3
99579.2
99581.6
99585.5
99590.9
99596.5
99593.6
99593.4
99596.8
99600.8
99604.8
99606.5
99611
99614.6
99617.7
99621.3
99626.7
99628.1
99629.4
99632.1
99635.2
99635.3
99636
99637.7
99638.5
99639.7
99642
99642.7
99648.8
99650.8
99653.3
99653.7
99656.2
99659.6
99662.9
99668.9
99674.6
99680.8
99686.6
99692.4
99697.6
99703.2
99708.3
99717.6
99726.6
99733.5
99738
99743.1
99751.4
99757.1
99763.6
99767.3
99773.6
99779.6
99784.5
99790.6
99796.1
99805.2
99815.9
99821.8
99831
99843.6
99855.9
99870.3
99884.2
99897.2
99916.6
99935.1
99958.9
99980.3
99999.9
100021
100042
100062
100082
100101
100119
100135
100149
100162
100179
100187
100214
100208
100213
100219
100219
100227
100229
100232
100235
100238
100239
100239
100239
100239
100239
100239
100240
100239
100233
100221
100216
100220
100228
100233
100236
100238
100238
100241
100244
100249
100253
100259
100265
100270
100275
100279
100286
100295
100304
100312
100321
100330
100339
100348
100357
100365
100372
100380
100387
100393
100399
100404
100410
100414
100418
100422
100425
100427
100429
100432
100434
100437
100439
100441
100443
100447
100450
100452
100457
100462
100466
100470
100476
100482
100487
100497
100502
100511
100520
100529
100540
100550
100561
100572
100582
100593
100603
100612
100622
100632
100640
100647
100654
100659
100669
100668
100671
100674
100677
100679
100682
100682
100682
100681
100679
100677
100674
100672
100667
100663
100659
100653
100647
100641
100632
100625
100619
100611
100603
100594
100586
100579
100570
100563
100555
100548
100542
100537
100531
100526
100521
100518
100516
100512
100511
100510
100510
100511
100512
100515
100521
100525
100529
100537
100545
100552
100563
100575
100585
100595
100609
100623
100634
100646
100661
100675
100689
100703
100717
100730
100743
100757
100771
100785
100800
100811
100825
100838
100851
100863
100876
100887
100900
100910
100921
100932
100943
100954
100965
100976
100985
100995
101002
101011
101022
101031
101041
101050
101058
101066
101072
101080
101088
101095
101103
101110
101117
101123
101128
101135
101142
101147
101152
101156
101162
101167
101171
101175
101179
101182
101185
101188
101190
101192
101193
101194
101195
101195
101195
101195
101194
101193
101191
101190
101188
101185
101182
101178
101174
101171
101166
101162
101157
101152
101147
101141
101136
101130
101123
101116
101110
101103
101097
101090
101083
101077
101071
101064
101057
101049
101043
101037
101031
101025
101019
101014
101009
101005
101001
100996
100993
100990
100987
100984
100982
100981
100980
100979
100979
100980
100981
100982
100984
100987
100990
100993
100997
101002
101007
101013
101019
101026
101033
101041
101049
101057
101067
101076
101086
101096
101107
101118
101130
101142
101154
101166
101179
101192
101205
101218
101232
101246
101259
101273
101287
101300
101315
99333.1
99333.7
99329.7
99333.2
99333.7
99335.3
99337.5
99339.9
99342.6
99345.7
99349.3
99353.7
99358.7
99364.3
99370.2
99376.5
99382.7
99390.3
99394.7
99394.1
99409.1
99416
99422.9
99429.7
99436.9
99445.1
99457.5
99465.3
99454.6
99475.2
99481.7
99487.8
99492.1
99495
99495.3
99502.8
99514.1
99518.9
99524.2
99529.6
99535
99549.3
99560.1
99566.7
99575.1
99578.9
99587.8
99580.1
99601.3
99613.8
99625.8
99638.2
99649.3
99660.1
99671.5
99687.9
99702.7
99691.9
99707.1
99714
99726.2
99713.8
99722.2
99722.4
99723.7
99712.7
99699.8
99703.8
99699.3
99690
99681
99669.6
99658.8
99648.1
99638.1
99626.8
99614.9
99607.5
99599.2
99591.5
99582.8
99573.6
99565.7
99558.5
99552.7
99547.5
99544.8
99543.2
99539.6
99536.8
99538.1
99555.5
99563.1
99569.3
99574.8
99580.1
99583.8
99591
99590.6
99589.3
99590.5
99590.9
99590.8
99590.2
99588.8
99587.2
99585.2
99582.7
99579.6
99576.2
99571.9
99567.5
99562.4
99557.2
99550.7
99549.5
99552.8
99557.1
99560.9
99566.4
99565.3
99559.3
99554.9
99553.1
99552.9
99551.1
99551.1
99563.7
99575.4
99581.3
99587.8
99594.6
99606.7
99618.6
99627.1
99631.6
99635.1
99639.2
99641.5
99647.8
99651.6
99652.5
99653.3
99655.7
99658.5
99660.3
99666.2
99671.1
99677.1
99682.5
99688.5
99694.6
99702.2
99709.6
99717.2
99726.3
99735.9
99758.9
99780
99795.2
99808
99820.3
99830.4
99839.6
99847.1
99852.7
99856.9
99860.9
99860
99861.1
99871.3
99881.3
99886.6
99892.9
99899.6
99906.4
99913.5
99921.5
99929.5
99940.5
99951.7
99962.8
99976.6
99990.4
100005
100021
100037
100054
100071
100086
100103
100119
100140
100151
100187
100205
100216
100229
100239
100246
100253
100260
100266
100271
100274
100277
100279
100279
100278
100277
100276
100273
100261
100225
100226
100227
100231
100235
100239
100242
100245
100247
100250
100252
100256
100261
100267
100273
100278
100285
100292
100300
100308
100320
100329
100338
100346
100354
100362
100369
100376
100383
100390
100396
100402
100407
100412
100417
100421
100425
100429
100433
100437
100440
100443
100446
100448
100451
100454
100456
100457
100460
100463
100465
100470
100475
100482
100488
100506
100515
100523
100532
100541
100551
100559
100568
100576
100584
100592
100600
100607
100614
100622
100629
100635
100641
100646
100655
100643
100644
100643
100642
100642
100643
100644
100645
100646
100646
100646
100646
100645
100643
100641
100639
100635
100629
100624
100618
100612
100607
100600
100593
100586
100579
100572
100564
100557
100549
100541
100534
100528
100521
100516
100511
100508
100505
100503
100503
100503
100505
100507
100509
100511
100522
100529
100525
100536
100549
100553
100556
100570
100581
100582
100592
100613
100621
100622
100632
100641
100652
100664
100677
100691
100705
100719
100734
100750
100766
100781
100797
100813
100829
100845
100861
100876
100893
100906
100920
100933
100946
100958
100969
100980
100990
100999
101006
101009
101021
101029
101038
101046
101053
101061
101067
101074
101081
101088
101095
101102
101108
101114
101119
101127
101133
101139
101144
101149
101155
101160
101165
101169
101174
101178
101183
101186
101189
101193
101195
101197
101199
101200
101201
101201
101201
101200
101199
101197
101196
101193
101190
101186
101184
101171
101164
101155
101147
101140
101134
101128
101123
101117
101111
101105
101098
101092
101086
101080
101073
101067
101061
101055
101049
101042
101037
101031
101025
101020
101015
101010
101005
101001
100997
100993
100990
100987
100985
100983
100981
100980
100979
100978
100979
100979
100980
100982
100984
100987
100990
100993
100997
101002
101007
101013
101019
101026
101033
101040
101049
101057
101066
101075
101085
101095
101106
101117
101128
101139
101151
101163
101175
101188
101200
101213
101226
101239
101252
101265
101279
101292
101310
99335.4
99336.5
99332.1
99336.6
99337
99338.1
99339.8
99342
99344.8
99347.9
99351.7
99356.1
99361.3
99366.9
99372.7
99379
99385.2
99391
99391.7
99401.1
99410.8
99418.3
99425.2
99431.7
99436.7
99445.4
99454.7
99453.9
99468
99477.1
99485.4
99492.3
99500.1
99508.5
99510.6
99512.7
99519.9
99526
99527.5
99529.4
99533.9
99546.2
99553.6
99556.9
99565.3
99582.2
99590.8
99581.8
99598.7
99617
99629.6
99642.5
99654.6
99666.7
99677.5
99688.1
99697.3
99716.3
99722.3
99718.3
99719.5
99726.7
99729.4
99728.7
99733.2
99727.5
99706.7
99715.4
99711.1
99701.5
99692
99681
99668.8
99655.6
99643.3
99629.3
99613.9
99601.6
99588
99574.8
99562
99552.1
99543.5
99537.6
99531.7
99525.1
99522.4
99523.1
99511.8
99503.1
99504.8
99522
99508.9
99501.9
99504.1
99508.8
99512.7
99511.6
99495
99494.6
99490.3
99486.4
99482.4
99478.9
99475.7
99473
99470.7
99468.9
99467.5
99466.6
99466.3
99467.1
99468.7
99471.3
99474.8
99486.1
99511.1
99530.4
99548.1
99560.7
99571.2
99578.6
99583.8
99590.9
99599
99605
99605.8
99600.8
99596.2
99595.5
99598.4
99602.5
99604.1
99612.8
99621.4
99627.3
99633
99639.4
99645.3
99653.2
99652.5
99649.9
99650.6
99654.6
99659
99664.7
99673.1
99679.2
99687.5
99696
99704.8
99711.7
99717.7
99722.9
99732.5
99742.3
99747.9
99757.3
99766.3
99771.8
99772.4
99775
99777.4
99781.2
99786.5
99791.1
99796.2
99801.5
99808.9
99814.3
99818.7
99828.1
99837.4
99846.6
99857.1
99870
99886.2
99901.4
99919.5
99938.3
99958.4
99977.8
99999.6
100021
100043
100065
100088
100110
100133
100153
100172
100187
100199
100206
100210
100215
100221
100224
100235
100240
100243
100245
100247
100248
100249
100249
100249
100248
100248
100248
100250
100260
100276
100308
100297
100286
100282
100280
100280
100279
100280
100280
100281
100282
100283
100286
100288
100291
100294
100300
100305
100310
100316
100322
100328
100335
100342
100351
100359
100368
100376
100384
100393
100401
100408
100416
100423
100429
100434
100439
100442
100445
100450
100454
100457
100460
100462
100464
100467
100469
100470
100473
100474
100474
100476
100480
100481
100483
100486
100489
100493
100496
100500
100504
100508
100514
100519
100524
100531
100538
100545
100553
100560
100569
100577
100584
100589
100594
100632
100642
100656
100667
100675
100682
100685
100689
100690
100690
100690
100689
100688
100686
100684
100679
100676
100672
100667
100662
100657
100651
100645
100639
100632
100625
100618
100610
100603
100595
100588
100578
100570
100562
100556
100548
100543
100537
100531
100527
100523
100519
100517
100514
100515
100512
100515
100523
100523
100520
100531
100540
100540
100548
100566
100574
100576
100599
100621
100637
100654
100670
100686
100700
100715
100729
100744
100759
100774
100793
100806
100821
100836
100851
100866
100880
100890
100904
100915
100928
100940
100952
100964
100977
100990
101002
101013
101021
101048
101056
101066
101076
101085
101093
101101
101108
101116
101123
101129
101136
101142
101147
101152
101156
101161
101165
101169
101173
101175
101178
101181
101183
101184
101186
101188
101189
101189
101190
101189
101189
101189
101188
101187
101186
101184
101182
101180
101177
101175
101172
101169
101165
101162
101157
101164
101161
101159
101156
101153
101148
101143
101137
101131
101125
101118
101112
101105
101099
101092
101085
101079
101073
101066
101059
101051
101045
101038
101032
101026
101021
101015
101010
101006
101001
100997
100994
100991
100988
100986
100983
100982
100981
100980
100980
100981
100982
100983
100985
100987
100990
100994
100998
101002
101008
101013
101019
101026
101033
101041
101049
101058
101067
101077
101087
101097
101108
101119
101131
101143
101155
101167
101179
101192
101205
101219
101232
101245
101259
101272
101286
101299
101315
99334.2
99335.7
99331.1
99336.1
99337
99338.5
99340.5
99342.8
99345.6
99348.8
99352.6
99356.8
99361.5
99366.1
99370.8
99376.5
99383.1
99389.7
99390.8
99404.8
99412.9
99421.4
99429.7
99436.5
99441.9
99448
99456.5
99457.9
99468.2
99478.4
99484.3
99490.6
99499.9
99508.3
99515.2
99522
99526.6
99531.4
99536.8
99541.4
99546.5
99550.1
99556.2
99556
99563.4
99570.1
99574.1
99583.5
99606.2
99617.7
99629.4
99642.5
99654.7
99666.9
99677.4
99686.6
99696.6
99707.5
99713.6
99718.1
99727.7
99722
99732.1
99732.6
99734.2
99728.1
99727.8
99725.7
99722.3
99714.7
99707.1
99697.8
99687.7
99676.5
99664.8
99651.2
99635.5
99624.4
99610.3
99596.1
99580.4
99570.5
99557.8
99548.2
99540.8
99529.1
99524.5
99513.9
99517.1
99524.6
99513.5
99493.7
99513.4
99528.2
99535
99538.6
99544
99549.8
99555.3
99557.7
99560.2
99561.2
99561.5
99561.6
99561.7
99562.6
99564.4
99567.2
99570.6
99574.3
99578.2
99582.9
99587.8
99593.7
99601
99609.4
99585.9
99574.4
99569.1
99567.1
99571.2
99580.1
99587.9
99595.7
99607.8
99620.3
99628.6
99631.5
99633.5
99635.7
99638.8
99641.5
99641.1
99631.9
99629.3
99630.7
99634.2
99636.5
99639.9
99650
99653.7
99653.4
99655.9
99660.8
99660.7
99656.4
99663.6
99669.4
99678.4
99685.2
99690.6
99694.9
99701.1
99708.5
99718.1
99729.4
99735.7
99734.9
99741
99751.6
99754.9
99763.8
99770.4
99777.7
99788.3
99799.3
99808.9
99814.9
99819.5
99823.9
99827
99835.2
99842.7
99853.1
99864.8
99881.3
99897.7
99915.8
99935.3
99956.8
99975.2
99990.7
100008
100026
100044
100062
100081
100099
100118
100136
100153
100169
100179
100192
100205
100216
100229
100226
100232
100234
100239
100242
100246
100248
100249
100249
100249
100248
100247
100247
100247
100250
100253
100251
100244
100236
100232
100230
100231
100232
100235
100238
100244
100250
100256
100263
100270
100276
100279
100289
100295
100304
100311
100320
100328
100337
100346
100355
100365
100374
100382
100390
100398
100406
100412
100417
100423
100428
100432
100436
100443
100445
100447
100449
100450
100452
100452
100453
100455
100456
100457
100459
100461
100462
100464
100468
100474
100479
100487
100492
100501
100509
100517
100526
100535
100544
100554
100563
100574
100584
100594
100604
100617
100628
100640
100651
100662
100674
100677
100683
100686
100688
100687
100684
100679
100678
100677
100677
100678
100676
100674
100671
100667
100664
100659
100654
100649
100641
100632
100624
100614
100605
100595
100587
100579
100571
100563
100556
100548
100541
100535
100528
100522
100516
100512
100509
100504
100503
100502
100502
100502
100504
100507
100511
100515
100521
100528
100533
100541
100552
100563
100573
100586
100600
100613
100625
100639
100654
100669
100685
100699
100715
100730
100745
100761
100778
100795
100800
100807
100819
100831
100845
100859
100872
100886
100901
100913
100924
100935
100946
100958
100969
100980
100992
101003
101013
101020
101030
101037
101045
101052
101059
101067
101074
101081
101089
101095
101103
101110
101117
101123
101126
101133
101139
101145
101150
101153
101159
101164
101168
101172
101175
101179
101182
101185
101187
101189
101191
101192
101193
101193
101193
101192
101192
101191
101189
101187
101184
101181
101177
101174
101172
101168
101162
101157
101152
101148
101143
101139
101134
101128
101121
101114
101108
101100
101093
101086
101079
101072
101067
101061
101054
101048
101041
101035
101029
101024
101019
101014
101009
101005
101000
100996
100993
100990
100987
100985
100983
100981
100980
100979
100979
100980
100981
100983
100985
100987
100990
100994
100998
101003
101008
101013
101019
101026
101033
101041
101049
101058
101067
101076
101086
101097
101107
101118
101130
101141
101153
101166
101178
101191
101204
101217
101231
101245
101259
101273
101288
101301
101315
99334.4
99336.6
99331.3
99336.1
99337.1
99338.9
99341
99343.5
99346.7
99350.3
99354.4
99358.7
99363.4
99368.1
99372.7
99377.7
99383.2
99389.2
99391
99402
99409.9
99419.4
99428.5
99437.1
99444.8
99452
99460.5
99464.8
99475.6
99485.6
99491.6
99497.5
99503.5
99509.3
99515.3
99519.2
99520.9
99527.5
99537.7
99543.8
99547.7
99549.8
99557.7
99561.9
99566.6
99570.6
99577
99583.4
99598
99608.3
99620.2
99632.1
99643.6
99657.8
99668.8
99680.8
99692.3
99709.1
99720.9
99722.6
99728.6
99733.1
99736.6
99739
99737.6
99733
99729.8
99726.7
99717.1
99706.2
99694.6
99681.8
99668.3
99653.7
99639
99623.2
99606
99592.3
99579.8
99565.4
99550.3
99538.3
99526.9
99519.2
99512.8
99506.4
99504.2
99501.9
99502
99508.4
99512.6
99513.1
99517.8
99520.2
99518.9
99518.1
99518.7
99523.6
99532.5
99538.4
99544.7
99550.1
99554.4
99557.5
99558.4
99556.9
99555.7
99556.3
99559
99563.7
99569.3
99575.4
99582.2
99589.6
99596
99607.2
99601.8
99597.2
99596.1
99599.5
99601.6
99604.3
99603.5
99599
99591.6
99592.8
99598.7
99605.5
99611.2
99616.3
99622.2
99630.8
99637.8
99635.1
99633.6
99634.3
99635.7
99635.1
99633.6
99636.3
99639
99642.7
99643.3
99648.8
99651
99653.5
99660.5
99666.1
99673.3
99678.2
99684.2
99690.3
99697.3
99703.8
99709.8
99717.7
99726.8
99731.6
99741.9
99756.5
99765.7
99779.8
99791.4
99790.8
99787
99787.3
99788
99789.9
99797.1
99800.9
99806.7
99821.1
99833.2
99845.6
99858.7
99876.1
99894.1
99915
99935.9
99959.2
99983.1
100006
100028
100049
100070
100088
100106
100123
100139
100153
100167
100177
100184
100192
100201
100208
100215
100220
100227
100232
100237
100241
100243
100244
100245
100246
100247
100246
100245
100243
100240
100238
100238
100242
100241
100238
100235
100233
100232
100232
100236
100241
100248
100253
100259
100266
100272
100276
100277
100288
100294
100303
100311
100319
100328
100338
100349
100358
100367
100375
100382
100390
100395
100400
100406
100411
100416
100422
100427
100434
100437
100440
100443
100444
100446
100447
100448
100449
100451
100453
100454
100456
100459
100462
100464
100470
100472
100478
100485
100490
100501
100510
100521
100532
100542
100554
100564
100575
100586
100597
100606
100612
100618
100626
100634
100643
100651
100658
100664
100670
100677
100682
100687
100686
100686
100691
100691
100684
100675
100674
100674
100671
100668
100665
100661
100655
100647
100638
100629
100621
100614
100606
100597
100591
100585
100580
100574
100565
100556
100548
100541
100534
100528
100523
100518
100514
100511
100509
100509
100508
100507
100511
100516
100518
100524
100528
100536
100544
100547
100554
100565
100576
100589
100601
100615
100628
100640
100653
100666
100681
100695
100711
100728
100743
100759
100777
100797
100806
100817
100831
100846
100861
100878
100892
100893
100900
100913
100925
100936
100947
100958
100971
100983
100992
101000
101006
101014
101023
101031
101042
101050
101059
101070
101078
101086
101092
101096
101105
101112
101118
101125
101127
101136
101143
101148
101154
101156
101162
101165
101170
101173
101177
101180
101183
101186
101188
101190
101192
101193
101193
101193
101193
101193
101192
101191
101190
101189
101187
101185
101183
101180
101176
101169
101163
101158
101153
101149
101144
101139
101135
101131
101125
101118
101111
101105
101099
101093
101087
101082
101075
101065
101057
101050
101043
101036
101030
101024
101019
101013
101008
101004
101000
100996
100993
100990
100987
100985
100983
100982
100981
100980
100980
100980
100981
100983
100985
100987
100990
100994
100998
101002
101008
101013
101019
101026
101033
101041
101049
101058
101067
101077
101087
101097
101108
101119
101130
101142
101154
101167
101179
101192
101205
101219
101232
101246
101260
101274
101289
101303
101316
99333.4
99336.3
99330.4
99334.8
99336
99337.8
99339.9
99342.5
99346.1
99350.8
99355.5
99360
99364.4
99369.2
99374.8
99381
99386.9
99392.9
99394.2
99405.1
99412.5
99420.4
99428.3
99436.7
99444.5
99449.7
99458.2
99464.3
99476.2
99486.4
99493.4
99499.8
99505.8
99512.5
99518.3
99523.1
99526.3
99531.4
99535
99537.2
99538.3
99540.2
99547.9
99554.9
99560.9
99567.2
99575.3
99585.8
99595
99606.2
99619.5
99632.9
99645.7
99661.2
99674
99685.5
99698.4
99713.8
99724.2
99725.5
99734
99735.5
99745.6
99741.3
99741.4
99736.7
99732.9
99728.3
99719.2
99707.5
99695.2
99681.7
99667.1
99651.4
99635.8
99619.4
99599.6
99585.1
99572.5
99561.2
99546.5
99536.3
99524.3
99516.4
99508.4
99500.7
99499.5
99500.1
99501.9
99508.2
99515.2
99526.7
99538.1
99545.7
99551.7
99557.7
99563.8
99570.9
99573.1
99570.6
99570.2
99571.3
99572.7
99573.9
99575.7
99576.8
99575.9
99575.9
99575.9
99575.4
99574.4
99573.8
99570.9
99561.6
99557.8
99563
99572.9
99577.6
99581.7
99587.9
99594.5
99601.5
99610.1
99616.4
99614.4
99612.6
99611.8
99611.3
99611.4
99611.7
99610.3
99608.4
99611.7
99617
99620.7
99623.1
99626.7
99629.5
99632.6
99637.9
99637.7
99638.5
99638.7
99641.3
99644.3
99646.4
99651.3
99656.6
99663.6
99669.6
99675.5
99682.5
99687.6
99693.4
99700.5
99711.4
99723.5
99737
99751.2
99764.2
99768
99761.9
99760.5
99761.2
99762.1
99774
99780.8
99785.3
99801.6
99812
99815.5
99824.9
99830.1
99842.8
99856.4
99871.1
99886.4
99904.7
99924.4
99938
99960.3
99981.3
100006
100028
100051
100074
100096
100115
100135
100154
100174
100191
100199
100208
100217
100223
100230
100233
100238
100233
100236
100239
100241
100244
100244
100243
100244
100243
100244
100244
100240
100233
100226
100224
100225
100226
100231
100233
100235
100236
100235
100234
100240
100246
100253
100260
100267
100275
100275
100287
100293
100303
100312
100320
100329
100337
100347
100355
100365
100375
100381
100387
100392
100399
100407
100413
100420
100429
100432
100435
100436
100439
100442
100443
100445
100446
100445
100446
100447
100448
100449
100451
100454
100455
100460
100462
100470
100473
100483
100488
100497
100506
100517
100529
100541
100554
100567
100579
100592
100605
100621
100631
100638
100644
100650
100655
100659
100663
100666
100669
100673
100672
100672
100677
100678
100681
100681
100679
100676
100674
100673
100671
100669
100663
100655
100647
100641
100636
100628
100621
100618
100612
100603
100594
100580
100570
100560
100550
100543
100536
100530
100523
100519
100514
100512
100509
100505
100505
100504
100504
100506
100507
100512
100517
100527
100530
100539
100548
100558
100566
100576
100585
100596
100608
100622
100635
100649
100662
100675
100688
100701
100715
100729
100742
100752
100760
100773
100792
100804
100817
100831
100845
100862
100873
100885
100898
100908
100920
100932
100944
100955
100961
100972
100982
100993
101002
101011
101020
101030
101044
101055
101063
101066
101069
101074
101081
101087
101097
101105
101114
101123
101126
101132
101135
101142
101148
101151
101157
101161
101166
101171
101175
101179
101182
101185
101188
101190
101191
101193
101193
101194
101194
101194
101194
101192
101190
101188
101186
101185
101183
101181
101178
101172
101167
101163
101159
101154
101150
101146
101141
101131
101120
101113
101107
101099
101093
101087
101081
101076
101071
101063
101056
101050
101043
101036
101031
101025
101020
101015
101011
101007
101003
100997
100993
100990
100987
100985
100982
100981
100979
100979
100979
100980
100981
100983
100985
100987
100990
100994
100998
101003
101008
101013
101019
101026
101033
101041
101049
101058
101067
101077
101087
101097
101108
101119
101130
101142
101154
101167
101179
101192
101205
101219
101232
101246
101260
101274
101289
101303
101316
99333.9
99337.8
99331.2
99334.9
99336.2
99337.9
99339.8
99342.2
99345.2
99348.7
99352.5
99356
99359.3
99363.8
99370.1
99377
99383.3
99389.4
99392.6
99405.5
99414.7
99423.7
99432
99440.6
99448.6
99454.7
99463.6
99467.9
99478.1
99487.8
99493.2
99498.2
99506.8
99514.3
99519.8
99524.7
99529.4
99533.5
99537.2
99540.6
99542.2
99541.4
99544.8
99548.8
99552.4
99556.6
99565.3
99573.1
99583.3
99595.9
99608.4
99623.5
99636.5
99653.1
99667.6
99681.7
99692.6
99708.1
99717.2
99729.9
99730.1
99739.7
99741
99743.6
99744.1
99741.1
99737.4
99732.5
99723.3
99711.4
99698.3
99683.6
99667.2
99650.2
99633.4
99614.4
99594.5
99577
99566.4
99550
99538.6
99526.6
99520
99515.5
99509.4
99503.3
99503.7
99507.7
99507.4
99507.3
99500.4
99498.5
99501.8
99509.6
99519.1
99528.2
99538
99547.1
99556.2
99560.9
99564.1
99565.7
99565.7
99564.7
99564.5
99566.4
99569.8
99573
99575.3
99576.8
99578.2
99579.1
99581.5
99583.1
99580.5
99578.2
99577.7
99577.9
99578.2
99578.6
99576.1
99573
99576.6
99584.3
99589.9
99594.8
99598.9
99602.7
99606.6
99612.1
99615.8
99614.1
99612
99612.7
99613.3
99614
99614.2
99611.9
99614.1
99620.9
99623.4
99626.7
99629
99634.4
99637.7
99640.7
99644.6
99650.2
99656.5
99661.9
99667.5
99674.4
99680.9
99687.1
99697.2
99708.7
99720.2
99732.2
99739.4
99745.6
99749
99752.7
99759.1
99770.6
99774.8
99788.7
99796.9
99795.8
99793.8
99794.3
99804.5
99813.2
99822.3
99835.8
99853.2
99870.9
99887.9
99908.2
99925.5
99950.5
99970.6
99989.4
100009
100028
100049
100068
100087
100103
100116
100127
100145
100163
100177
100192
100203
100211
100218
100226
100232
100233
100235
100238
100240
100239
100237
100237
100239
100240
100240
100236
100231
100225
100221
100218
100222
100228
100235
100237
100234
100230
100227
100235
100238
100245
100254
100264
100273
100273
100274
100288
100292
100302
100310
100318
100327
100338
100350
100362
100370
100378
100384
100390
100398
100408
100414
100418
100420
100423
100426
100432
100434
100439
100442
100443
100443
100443
100442
100443
100444
100445
100447
100449
100451
100455
100458
100464
100468
100476
100486
100489
100500
100509
100519
100529
100539
100549
100559
100568
100570
100581
100597
100607
100618
100628
100638
100647
100655
100661
100667
100675
100685
100688
100686
100685
100686
100687
100685
100683
100677
100675
100673
100669
100664
100657
100651
100646
100642
100639
100633
100626
100618
100606
100593
100583
100572
100568
100559
100549
100547
100544
100537
100527
100520
100516
100510
100505
100506
100504
100504
100506
100504
100508
100511
100507
100518
100517
100528
100535
100546
100556
100569
100581
100592
100604
100616
100629
100642
100656
100671
100687
100702
100716
100734
100752
100768
100779
100790
100804
100815
100827
100839
100853
100865
100877
100889
100901
100910
100919
100930
100941
100952
100962
100975
100985
100995
101006
101018
101029
101032
101037
101043
101050
101054
101063
101071
101078
101090
101103
101112
101116
101119
101121
101128
101136
101142
101148
101152
101158
101162
101168
101171
101175
101178
101182
101185
101187
101189
101191
101192
101193
101194
101194
101194
101193
101192
101191
101190
101188
101185
101181
101177
101172
101168
101165
101161
101157
101153
101149
101144
101140
101133
101125
101118
101112
101106
101099
101093
101086
101080
101072
101062
101054
101047
101041
101035
101029
101023
101017
101013
101008
101004
101000
100996
100993
100990
100987
100985
100983
100982
100981
100981
100980
100980
100981
100983
100985
100987
100990
100994
100998
101003
101008
101013
101020
101026
101034
101041
101050
101058
101067
101077
101087
101097
101108
101119
101131
101142
101155
101167
101180
101193
101206
101219
101233
101246
101260
101274
101289
101303
101316
99334.9
99339.9
99332.7
99335.2
99336.9
99338.4
99340.4
99342.8
99345.7
99348.9
99352.6
99356.7
99361.1
99366
99371.1
99376.5
99381.6
99386.6
99390
99401.1
99410.3
99419.1
99427.9
99437.1
99446.5
99455.8
99464.9
99469.1
99479.8
99490.1
99495.5
99501.9
99508.2
99512.2
99515.8
99520
99524.7
99529.1
99532
99535.4
99538.4
99537.9
99540.6
99545
99548.1
99552.1
99558.8
99566.3
99576.5
99587.9
99602
99617.5
99631.2
99649.1
99666.3
99681.7
99696.6
99711.5
99724.2
99735.1
99743.3
99747.6
99753.4
99756.7
99757.3
99753.2
99746.9
99739.3
99728.5
99715
99700.1
99683.8
99665.5
99646.4
99627.2
99607.9
99582.5
99570.9
99552.2
99544
99528.7
99517.7
99503.7
99500.2
99503.7
99495.4
99498.8
99508.3
99514.1
99525.5
99531.1
99536.4
99541.6
99545.6
99550.4
99555.2
99559.6
99563.6
99563.6
99565.5
99568.2
99570.1
99570.8
99570
99567.6
99565.5
99562.9
99560.5
99558.4
99557
99554.9
99552.5
99554.7
99562.9
99566.4
99569.6
99572.9
99575.8
99577.9
99582.6
99587.7
99589.1
99587.3
99586.1
99587.5
99588.6
99589.6
99590.5
99590.3
99590.5
99594.6
99599
99601.9
99604.7
99607.2
99610.7
99613.4
99611.9
99611.9
99613.8
99613.9
99615.4
99613.7
99617.2
99620.6
99624.6
99629.2
99636
99641.7
99648.2
99654.5
99661.8
99670.1
99678.7
99689.7
99700.9
99710.2
99720.7
99728.8
99736.9
99744.5
99751.6
99759.1
99763.6
99770
99772.4
99776.8
99782.9
99790
99795
99809.5
99820.8
99833.3
99835.8
99854.6
99868.6
99882.4
99902.5
99920.5
99944
99966.8
99988.9
100010
100032
100054
100074
100095
100117
100136
100148
100160
100171
100179
100192
100199
100204
100209
100213
100221
100225
100226
100226
100229
100229
100230
100231
100230
100227
100227
100228
100229
100229
100226
100228
100226
100222
100220
100223
100221
100226
100220
100239
100248
100254
100259
100261
100267
100270
100268
100286
100294
100300
100312
100321
100334
100344
100352
100361
100368
100375
100384
100391
100398
100403
100409
100414
100418
100425
100431
100439
100441
100440
100441
100441
100441
100442
100442
100442
100443
100445
100446
100447
100449
100452
100456
100458
100465
100470
100477
100491
100498
100507
100520
100533
100544
100556
100566
100579
100589
100596
100603
100610
100618
100626
100634
100640
100646
100651
100653
100656
100666
100674
100677
100677
100679
100682
100683
100682
100677
100677
100673
100668
100663
100660
100656
100652
100648
100644
100634
100622
100612
100602
100590
100590
100578
100577
100570
100555
100543
100532
100526
100519
100515
100510
100508
100502
100504
100505
100504
100502
100503
100507
100509
100515
100523
100531
100534
100539
100547
100552
100562
100574
100587
100601
100614
100626
100639
100652
100665
100678
100691
100703
100714
100729
100747
100763
100777
100793
100805
100819
100833
100848
100862
100875
100889
100903
100912
100922
100933
100944
100956
100962
100973
100982
100992
101002
101008
101014
101020
101029
101038
101049
101056
101069
101082
101089
101092
101096
101104
101106
101111
101115
101122
101138
101143
101151
101153
101157
101158
101163
101169
101172
101177
101181
101184
101187
101189
101191
101192
101193
101194
101194
101193
101193
101191
101191
101190
101188
101186
101183
101180
101177
101172
101167
101162
101157
101151
101145
101140
101133
101128
101121
101115
101109
101103
101097
101090
101084
101078
101073
101064
101058
101050
101043
101037
101031
101026
101020
101015
101010
101006
101002
100997
100992
100989
100986
100984
100981
100980
100979
100979
100979
100980
100981
100983
100985
100987
100991
100994
100998
101003
101008
101013
101020
101026
101034
101041
101050
101058
101067
101077
101087
101097
101108
101119
101131
101143
101155