/*--------------------------------*- C++ -*----------------------------------*\
| =========                 |                                                 |
| \\      /  F ield         | OpenFOAM: The Open Source CFD Toolbox           |
|  \\    /   O peration     | Version:  v1812                                 |
|   \\  /    A nd           | Web:      www.OpenFOAM.com                      |
|    \\/     M anipulation  |                                                 |
\*---------------------------------------------------------------------------*/
FoamFile
{
    version     2.0;
    format      ascii;
    class       surfaceScalarField;
    location    "1.2";
    object      phi;
}
// * * * * * * * * * * * * * * * * * * * * * * * * * * * * * * * * * * * * * //

dimensions      [1 0 -1 0 0 0 0];
oriented        oriented;


internalField   nonuniform List<scalar> 
40240
(
-0.000351724
0.000101539
-0.000719794
0.00011776
-0.00115004
0.00018084
-0.00150404
0.000104596
-0.00184744
9.47061e-05
-0.00220698
0.000111665
-0.00257349
0.000119676
-0.00293697
0.00011812
-0.00329533
0.000114901
-0.00364998
0.000113624
-0.00399808
0.000110052
-0.00433176
9.90268e-05
-0.00464793
8.49864e-05
-0.0049551
7.93755e-05
-0.00526853
8.89614e-05
-0.00560736
0.000117698
-0.00597268
0.000147005
-0.00631422
0.00012695
-0.00650775
-1.40813e-05
-0.0065364
-0.000180477
-0.0065508
-0.000192749
-0.00660335
-0.000150747
-0.00669508
-0.000107436
-0.00676573
-0.000125665
-0.00687371
-8.40448e-05
-0.00697579
-8.43498e-05
-0.00705751
-0.000106072
-0.0071205
-0.000121433
-0.007238
-6.42324e-05
-0.00752632
0.000108798
-0.00788301
0.000179704
-0.00835247
0.000295504
-0.00897463
0.000451104
-0.00968312
0.000542767
-0.0100079
0.000161792
-0.0101915
1.80115e-05
-0.0104157
6.19449e-05
-0.0108227
0.00024796
-0.0112588
0.000276901
-0.0116564
0.000239206
-0.0120757
0.000263129
-0.0126356
0.000404641
-0.0132735
0.00048246
-0.0139847
0.000556643
-0.014746
0.000607311
-0.0156152
0.00071718
-0.0161052
0.000333976
-0.0161727
-8.22792e-05
-0.0161944
-0.000126598
-0.0161516
-0.000190637
-0.0160106
-0.000288953
-0.0157891
-0.000369771
-0.0154568
-0.000481301
-0.0150514
-0.000555598
-0.0147185
-0.000482936
-0.0145998
-0.000269816
-0.0141299
-0.000623288
-0.0139608
-0.000324011
-0.013497
-0.000620033
-0.0131278
-0.00052716
-0.0129586
-0.000331759
-0.0127501
-0.000369878
-0.0125033
-0.000409145
-0.0122761
-0.000387452
-0.012217
-0.000219873
-0.0124668
9.21511e-05
-0.0124139
-0.000208289
-0.0121987
-0.000366615
-0.0121369
-0.000210527
-0.0122562
-2.717e-05
-0.0126485
0.000247897
-0.0132463
0.000455272
-0.0140285
0.000641525
-0.0149666
0.000799194
-0.015974
0.00086977
-0.0170543
0.000943634
-0.0182197
0.00102934
-0.0193763
0.0010214
-0.0205054
0.000994682
-0.0215824
0.000943578
-0.0226446
0.00093028
-0.0237423
0.000967292
-0.024848
0.000978064
-0.0258962
0.000924869
-0.0268585
0.000842565
-0.0277245
0.000747592
-0.0284273
0.000587805
-0.0289662
0.00042228
-0.0293617
0.000292719
-0.0295899
0.00014653
-0.0296633
-2.89522e-05
-0.0296176
-0.000194717
-0.0295534
-0.000189198
-0.0295482
-9.88465e-05
-0.0296183
-1.2878e-05
-0.0297355
5.06026e-05
-0.0298092
-4.59985e-05
-0.0297608
-0.000118281
-0.0292807
-0.000558817
-0.0287199
-0.000625427
-0.0282247
-0.000552994
-0.0277934
-0.000484267
-0.0274032
-0.0004382
-0.0270223
-0.000423755
-0.026621
-0.000438632
-0.026162
-0.000490421
-0.0256241
-0.000563803
-0.0250173
-0.000627435
-0.0243667
-0.00066584
-0.0236824
-0.000694053
-0.0229577
-0.000729135
-0.0221805
-0.000775978
-0.0213377
-0.000836062
-0.0204043
-0.000921405
-0.0193475
-0.00103881
-0.0182732
-0.00105341
-0.0174019
-0.000844708
-0.0167412
-0.000629168
-0.0158808
-0.000825199
-0.0150379
-0.000804525
-0.014061
-0.00093309
-0.0129236
-0.00109049
-0.0116872
-0.00118636
-0.010401
-0.00123173
-0.00909516
-0.00124681
-0.00777544
-0.00125703
-0.00641662
-0.00129189
-0.00511244
-0.001236
-0.00389
-0.00115377
-0.00260815
-0.00121131
-0.00132245
-0.00121331
-8.31377e-05
-0.00116621
0.00107141
-0.0010797
0.00214335
-0.000996328
0.0031217
-0.000902689
0.00395477
-0.000757433
0.00465699
-0.00062704
0.00525255
-0.000520457
0.00572534
-0.00039815
0.00610053
-0.000301463
0.00641323
-0.000239924
0.00653071
-4.62868e-05
0.00652205
7.6298e-05
0.00641049
0.000176305
0.00620422
0.000268258
0.00590694
0.000356809
0.00559614
0.000366225
0.00527429
0.000373644
0.00492356
0.000397592
0.00450804
0.000457852
0.00401015
0.000535493
0.00343371
0.000609878
0.00287245
0.000590157
0.00250058
0.000396715
0.00236578
0.000154081
0.00236453
1.67304e-05
0.00239675
-2.32432e-05
0.00222632
0.000174485
0.00187441
0.000349925
0.00140223
0.000465584
0.000884896
0.000505666
0.000338183
0.000528921
-0.000274361
0.000590392
-0.000937842
0.000635451
-0.00169196
0.00072028
-0.00258732
0.000855707
-0.00363284
0.00100052
-0.00481249
0.00113076
-0.00595322
0.00108039
-0.00697521
0.000963854
-0.00801814
0.000980837
-0.00900672
0.000919108
-0.00986268
0.000782705
-0.0106089
0.000667065
-0.0112558
0.000563335
-0.0118191
0.000472156
-0.0122649
0.000352377
-0.0125756
0.000213646
-0.0126899
1.11662e-05
-0.0126538
-0.000141835
-0.0124034
-0.000363583
-0.0120147
-0.000505539
-0.0115079
-0.000626829
-0.0109199
-0.000711971
-0.0102807
-0.00076907
-0.00960915
-0.000808081
-0.00893506
-0.000814893
-0.00827889
-0.000797009
-0.00763364
-0.000785604
-0.0070406
-0.000741753
-0.00647123
-0.000725822
-0.00585334
-0.000776084
-0.00527412
-0.000680781
-0.0045997
-0.000762581
-0.00435564
-0.000419506
-0.00417869
-0.000351527
-0.00411627
-0.000228803
-0.00412244
-0.000161295
-0.0041149
-0.000173118
-0.00415525
-0.000124131
-0.00429976
-2.18507e-05
-0.00448193
1.71219e-05
-0.00466578
2.02189e-05
-0.00488356
5.6408e-05
-0.00517313
0.000131
-0.00553179
0.000203086
-0.00594857
0.000261615
-0.00640537
0.000298892
-0.00687389
0.000309251
-0.00734086
0.000316935
-0.00778238
0.000326866
-0.00821854
0.000357524
-0.00876396
0.00048472
-0.00942577
0.000518678
-0.0101246
0.000492388
-0.0107728
0.000474867
-0.0113627
0.000456875
-0.0119216
0.000447089
-0.0124656
0.000451144
-0.0130211
0.000473663
-0.01352
0.000422023
-0.0139144
0.000322445
-0.0141761
0.000194428
-0.014343
0.000101378
-0.0144197
1.42371e-05
-0.0144445
-3.32765e-05
-0.0144809
-1.42925e-05
-0.0145726
5.07305e-05
-0.0147779
0.000171528
-0.0150115
0.000198624
-0.015163
0.000124184
-0.015224
4.14099e-05
-0.0152507
1.35834e-05
-0.0152105
-4.7578e-05
-0.0150808
-0.000131679
-0.0148402
-0.000236745
-0.0144952
-0.000335449
-0.0140666
-0.000413272
-0.0135952
-0.000450325
-0.0131216
-0.000447168
-0.0126514
-0.000438425
-0.012182
-0.000431972
-0.011715
-0.000424133
-0.0112536
-0.000413043
-0.0107992
-0.0004009
-0.0103506
-0.000390061
-0.00994025
-0.000347198
-0.00961123
-0.000261752
-0.00939468
-0.000145082
-0.00930983
-8.47305e-06
-0.00931261
8.11122e-05
-0.00936411
0.000135217
-0.00950042
0.000222116
-0.00973676
0.000325963
-0.0100475
0.000403108
-0.0104319
0.000479667
-0.0108973
0.000563357
-0.0114163
0.000619626
-0.0119573
0.000644125
-0.0125171
0.000665306
-0.0130965
0.000686749
-0.0136448
0.000656721
-0.0141393
0.000604261
-0.01462
0.000591702
-0.015118
0.000609127
-0.0156024
0.000595405
-0.0160448
0.0005534
-0.0163891
0.000455577
-0.0166435
0.000364392
-0.016904
0.000369824
-0.0170489
0.000253058
-0.0171197
0.000177805
-0.0171193
0.000105354
-0.0170255
9.96253e-06
-0.0168158
-0.000108159
-0.0164792
-0.0002371
-0.0160365
-0.000345754
-0.0155072
-0.000435375
-0.0148996
-0.000517651
-0.0142678
-0.000546599
-0.013636
-0.000551011
-0.0129593
-0.000599057
-0.0122271
-0.000656947
-0.0115039
-0.000652224
-0.0108157
-0.000622597
-0.0101673
-0.000587806
-0.00954122
-0.00056559
-0.00889065
-0.000590619
-0.00837038
-0.000475359
-0.0078546
-0.000466624
-0.00733348
-0.000480884
-0.00682396
-0.000475399
-0.00630015
-0.000496691
-0.0057468
-0.000533906
-0.00522518
-0.000507586
-0.00472103
-0.000494438
-0.00425466
-0.000461898
-0.00384394
-0.00041287
-0.00346125
-0.000390764
-0.00310152
-0.000374077
-0.00275223
-0.000369987
-0.00242299
-0.000356089
-0.0021154
-0.000340681
-0.00185343
-0.000301048
-0.00166306
-0.000235654
-0.00155463
-0.000159695
-0.00153058
-8.09753e-05
-0.00155689
-3.6503e-05
-0.00162079
-3.91688e-06
-0.00169093
-3.36781e-06
-0.00180603
3.64111e-05
-0.00198277
9.33441e-05
-0.00223795
0.000167326
-0.00256028
0.000229926
-0.00293326
0.000276803
-0.0033711
0.000337915
-0.00385393
0.000379471
-0.00438328
0.000422882
-0.00494959
0.000456804
-0.00549553
0.000433459
-0.00600119
0.000390655
-0.00652764
0.00040913
-0.0070871
0.000439493
-0.00765589
0.000446597
-0.00820655
0.000426355
-0.00874146
0.000408609
-0.00929202
0.000423229
-0.00981548
0.000394802
-0.0103198
0.000375211
-0.0107925
0.000343427
-0.0112341
0.000312755
-0.0116589
0.000297255
-0.0120126
0.00023076
-0.0122499
0.000115779
-0.0124532
7.19834e-05
-0.0127012
0.000112437
-0.0129289
0.000116924
-0.0131159
5.54489e-05
-0.0132302
-9.34601e-07
-0.0132494
-7.50985e-05
-0.0132377
-0.000141129
-0.013178
-0.000187647
-0.0130595
-0.000212907
-0.0128761
-0.000262426
-0.0126736
-0.000313978
-0.0124433
-0.000328333
-0.0121868
-0.000354992
-0.0119152
-0.000360377
-0.0115922
-0.000411244
-0.0112352
-0.000441547
-0.0108637
-0.000452084
-0.0104899
-0.00045083
-0.0101318
-0.000430972
-0.00980919
-0.000390119
-0.00949825
-0.000372751
-0.00918455
-0.000370326
-0.00885032
-0.000386596
-0.0084707
-0.00042736
-0.00814802
-0.000366049
-0.00785759
-0.000329658
-0.00758187
-0.000310422
-0.00732189
-0.000289772
-0.00707722
-0.000269552
-0.00686025
-0.000235924
-0.00670203
-0.000172011
-0.00656771
-0.000142742
-0.00651962
-5.14297e-05
-0.00649171
-2.57407e-05
-0.00647815
-6.89921e-06
-0.00646092
-7.0024e-06
-0.00642604
-2.178e-05
-0.00638198
-2.72719e-05
-0.00635274
-8.15284e-06
-0.00635251
2.577e-05
-0.00637916
5.75881e-05
-0.00651072
0.000166861
-0.00669541
0.000220553
-0.00685275
0.000199514
-0.00696439
0.000158014
-0.00704815
0.000134613
-0.00713316
0.000139504
-0.00724117
0.000165355
-0.00738993
0.000208388
-0.00760021
0.000273117
-0.00783212
0.000298519
-0.00805018
0.000288581
-0.00822252
0.000247494
-0.00833305
0.000188394
-0.0084268
0.000174016
-0.00853588
0.000191655
-0.00868369
0.000232155
-0.00886327
0.000267052
-0.00899857
0.000223857
-0.00909955
0.000191426
-0.00918834
0.000180673
-0.00928969
0.000193788
-0.00940528
0.000209319
-0.0094849
0.000173295
-0.00953978
0.000149255
-0.00957801
0.000132796
-0.00959201
0.000108829
-0.0095851
8.76249e-05
-0.00956717
7.63494e-05
-0.00953126
5.77059e-05
-0.00947008
3.19222e-05
-0.00940485
2.72517e-05
-0.00933273
1.90646e-05
-0.0092566
1.30734e-05
-0.00918244
1.14408e-05
-0.00910668
7.99155e-06
-0.00902384
6.05694e-06
-0.00893379
-1.00249e-05
-0.00883373
-2.06825e-05
-0.00872551
-3.16458e-05
-0.00861082
-4.16736e-05
-0.00848818
-5.38133e-05
-0.00835266
-7.09527e-05
-0.00820357
-8.75577e-05
-0.00804897
-9.39861e-05
-0.00790233
-8.66503e-05
-0.00775529
-9.05244e-05
-0.00759337
-0.000110592
-0.00743538
-0.000117843
-0.00731145
-7.90413e-05
-0.00717757
-9.75859e-05
-0.00703641
-0.000110474
-0.00688659
-0.000124723
-0.00672871
-0.00013706
-0.00656903
-0.000143196
-0.0064206
-0.000136742
-0.00629137
-0.000122835
-0.0061923
-9.77212e-05
-0.00611126
-8.47066e-05
-0.00604159
-7.8357e-05
-0.00598011
-7.51377e-05
-0.00592051
-7.81585e-05
-0.00585445
-8.94327e-05
-0.00577523
-0.000107375
-0.00567784
-0.000130231
-0.00557696
-0.000138585
-0.00551841
-0.000100955
-0.00550815
-5.70394e-05
-0.00551441
-4.47648e-05
-0.00553876
-3.08676e-05
-0.00557305
-2.51362e-05
-0.00561127
-2.51859e-05
-0.00565009
-2.8538e-05
-0.00569037
-3.05497e-05
-0.0057329
-3.18219e-05
-0.00577708
-3.32897e-05
-0.0058196
-3.79725e-05
-0.00586335
-3.95871e-05
-0.00591632
-3.30343e-05
-0.00597834
-2.64518e-05
-0.00604941
-1.95821e-05
-0.0061277
-1.4283e-05
-0.00621144
-1.05449e-05
-0.00630052
-6.67401e-06
-0.006393
-4.48106e-06
-0.00648572
-5.22512e-06
-0.00657779
-6.53556e-06
-0.0066715
-5.41042e-06
-0.006769
-1.94016e-06
-0.0068689
3.67025e-07
-0.00697172
3.38261e-06
-0.00707652
5.62801e-06
-0.00718218
7.02752e-06
-0.00728741
7.27555e-06
-0.00739132
6.85098e-06
-0.00749461
7.32041e-06
-0.00759747
8.18628e-06
-0.00769943
8.7782e-06
-0.00780004
9.12442e-06
-0.00789889
9.232e-06
-0.00799583
9.38174e-06
-0.00809095
9.79508e-06
-0.00818414
1.02425e-05
-0.00827515
1.05588e-05
-0.00836384
1.08667e-05
-0.00845003
1.12019e-05
-0.00853325
1.1272e-05
-0.00861263
1.07893e-05
-0.00868944
1.1037e-05
-0.00876294
1.07474e-05
-0.0088329
1.04026e-05
-0.00889908
9.99856e-06
-0.00896094
9.18215e-06
-0.00901865
8.19193e-06
-0.0090694
4.76367e-06
-0.00910984
-2.64e-06
-0.00914189
-6.92957e-06
-0.0091594
-1.72381e-05
-0.00916233
-2.76749e-05
-0.0091447
-4.44653e-05
-0.00908971
-7.78566e-05
-0.00899826
-0.000110132
-0.00888416
-0.000128545
-0.00876786
-0.000126713
-0.00868555
-8.8533e-05
-2.45251e-05
-0.000373473
0.000225494
-0.00082445
0.00031919
-0.00138677
0.000494713
-0.0019594
0.000429102
-0.00254548
0.000433238
-0.00311826
0.000437774
-0.00366366
0.000419397
-0.00419139
0.000401459
-0.00471293
0.000393734
-0.00523487
0.000394926
-0.00575391
0.000390918
-0.00625728
0.000367155
-0.00673214
0.000328258
-0.0071704
0.000289471
-0.00757057
0.000264265
-0.00793403
0.000259565
-0.00826179
0.00025667
-0.00853822
0.000188261
-0.00876742
-8.28357e-07
-0.00900174
-0.000154408
-0.00943422
3.32695e-05
-0.00991145
0.000123987
-0.0104397
0.000222101
-0.0109812
0.000220552
-0.0114173
0.0001595
-0.0115881
-0.000102988
-0.011579
-0.000302855
-0.0115545
-0.000330037
-0.0120773
0.000277301
-0.0127513
0.000604528
-0.0133384
0.000591044
-0.0138908
0.000675164
-0.0145063
0.000896629
-0.0152082
0.00107865
-0.0162556
0.00104809
-0.0173822
0.000978197
-0.0185305
0.00104864
-0.019773
0.00133203
-0.0211152
0.00146147
-0.0224391
0.00140625
-0.0234954
0.0011624
-0.0240784
0.000829983
-0.0243644
0.000612385
-0.0245983
0.000635112
-0.0248024
0.000656981
-0.0249036
0.000666263
-0.025275
0.000552725
-0.0257477
0.00024019
-0.0263379
0.000313697
-0.0265602
-0.000117544
-0.0265639
-0.000433461
-0.0263708
-0.000710933
-0.025906
-0.00109439
-0.0252352
-0.00137535
-0.0244702
-0.00139753
-0.0237498
-0.00114183
-0.0235558
-0.000968974
-0.0236601
-0.000382379
-0.023624
-0.000818313
-0.0234514
-0.000863161
-0.0233495
-0.000600053
-0.023509
-0.000376906
-0.0237226
-0.000357897
-0.0237838
-0.000484914
-0.023829
-0.000330914
-0.0239377
4.88037e-05
-0.0243975
9.88058e-05
-0.0253355
0.000424687
-0.0264257
0.000735468
-0.0276978
0.00110262
-0.0291567
0.00156584
-0.0308843
0.00204269
-0.0328658
0.00248302
-0.0349968
0.00279016
-0.0371644
0.00289739
-0.0393312
0.00297028
-0.0414184
0.00297591
-0.0432578
0.00272073
-0.0448544
0.00245172
-0.0462669
0.00221735
-0.047599
0.00212536
-0.0489182
0.00215193
-0.0502
0.00212974
-0.0514116
0.00201136
-0.0525311
0.00183761
-0.0535454
0.0016374
-0.0544272
0.00134835
-0.0551769
0.00105587
-0.05579
0.000760349
-0.0561839
0.0004311
-0.0563208
6.40431e-05
-0.0562403
-0.000334485
-0.0557936
-0.000703765
-0.0549422
-0.00105537
-0.053809
-0.00124918
-0.0526064
-0.00124597
-0.0514503
-0.00124892
-0.0504745
-0.00117868
-0.0495886
-0.00151234
-0.0486189
-0.00166233
-0.0475748
-0.00165718
-0.0464581
-0.00165571
-0.0452872
-0.00165905
-0.0440695
-0.00168567
-0.0428094
-0.00173728
-0.0415002
-0.00183269
-0.0401371
-0.00195463
-0.0387271
-0.00206004
-0.0372855
-0.00212481
-0.0358254
-0.00216646
-0.0343676
-0.00219439
-0.0329112
-0.00223507
-0.0314605
-0.00228535
-0.0300055
-0.00236974
-0.0284862
-0.00254614
-0.0267081
-0.00281052
-0.0245618
-0.00296457
-0.0221564
-0.00300422
-0.019624
-0.00332247
-0.0171405
-0.00324985
-0.0150275
-0.00300709
-0.0133569
-0.00271913
-0.0119395
-0.00255895
-0.0105866
-0.00253632
-0.00923852
-0.00254563
-0.00792618
-0.00251619
-0.00658361
-0.00257873
-0.0047714
-0.00298823
-0.0024155
-0.00344621
8.13237e-05
-0.00364241
0.00247735
-0.00354221
0.00473866
-0.0033589
0.00704086
-0.00331322
0.00937045
-0.00325677
0.0115658
-0.00302917
0.0134868
-0.0026092
0.0151386
-0.00220933
0.0165712
-0.00188275
0.0177907
-0.00154716
0.0188088
-0.00124897
0.019449
-0.000811346
0.0197581
-0.000288423
0.0197823
0.00011742
0.0196841
0.000336619
0.0194375
0.000574064
0.0189784
0.000872401
0.0183249
0.00107302
0.0175129
0.00123601
0.0165557
0.00140088
0.0154348
0.00162097
0.014152
0.00185595
0.0127118
0.00208293
0.0111162
0.00221367
0.00932419
0.00221212
0.00725605
0.00224094
0.0050636
0.00222317
0.00313608
0.00191428
0.00202471
0.00129181
0.00148244
0.000892627
0.000843847
0.00109929
0.000102128
0.00123697
-0.000725527
0.00134043
-0.00163769
0.00148056
-0.0026012
0.00157145
-0.00359075
0.00167724
-0.00460273
0.00183031
-0.00560772
0.0019644
-0.006602
0.00207596
-0.00772836
0.00216197
-0.00897457
0.00214499
-0.0100336
0.00196393
-0.010836
0.00164868
-0.011534
0.00140315
-0.012145
0.00119444
-0.0126553
0.000984142
-0.0130532
0.000775111
-0.0133279
0.000527528
-0.0134811
0.000263886
-0.0135067
-6.98743e-05
-0.0133827
-0.000377676
-0.013129
-0.000734037
-0.0127542
-0.000999551
-0.0122655
-0.00123701
-0.0116767
-0.00142468
-0.011011
-0.00156312
-0.0102874
-0.00166493
-0.00952976
-0.00170932
-0.00876098
-0.00170236
-0.00799414
-0.00168774
-0.00726207
-0.0016132
-0.00657556
-0.00156401
-0.00592716
-0.00158245
-0.00526171
-0.00152999
-0.00474227
-0.00145451
-0.00414284
-0.0011538
-0.00396989
-0.000673854
-0.00411538
-0.000238039
-0.00439911
-3.34943e-05
-0.00471266
-2.00145e-05
-0.00509443
9.69264e-05
-0.00554303
0.000265423
-0.00605037
0.000363709
-0.00660099
0.000410541
-0.00719794
0.000494072
-0.00784616
0.000622471
-0.00853386
0.000738615
-0.00924775
0.00082807
-0.00997268
0.000879036
-0.0106946
0.000879702
-0.0114126
0.000872733
-0.0121021
0.000863864
-0.0126836
0.000842466
-0.0132381
0.00107352
-0.0143057
0.00150548
-0.0154149
0.00146927
-0.0164642
0.00137314
-0.0174543
0.00128469
-0.0183882
0.00122592
-0.0192606
0.00118838
-0.0200873
0.00118602
-0.0208394
0.00107655
-0.0215113
0.000908308
-0.0220948
0.000700756
-0.0226153
0.000551211
-0.0230569
0.000391408
-0.0234358
0.000284842
-0.0237769
0.000269246
-0.0240829
0.000308348
-0.0243706
0.000426195
-0.0246132
0.000412227
-0.0247903
0.000277291
-0.024911
0.000142716
-0.0249442
3.27653e-05
-0.024895
-0.000105089
-0.0246429
-0.00038677
-0.0242299
-0.000646461
-0.0237426
-0.000813942
-0.0232396
-0.000901842
-0.0227545
-0.000915477
-0.0223142
-0.000862412
-0.0219224
-0.00079974
-0.021545
-0.000773167
-0.0211813
-0.000746251
-0.0208504
-0.00069691
-0.0205634
-0.000635682
-0.0203268
-0.000569824
-0.0201645
-0.000447528
-0.0200889
-0.000270868
-0.0201025
-6.11531e-05
-0.020229
0.000193422
-0.0205125
0.000441754
-0.0209372
0.000642802
-0.0214807
0.000850912
-0.0221277
0.00106177
-0.0228648
0.00123173
-0.0236847
0.00139413
-0.0245844
0.00156029
-0.0255319
0.00166703
-0.0265001
0.00171477
-0.0274884
0.00175848
-0.0284937
0.00179876
-0.029463
0.00173405
-0.0303575
0.00160832
-0.0311517
0.00149613
-0.0317785
0.00134642
-0.0322078
0.00113593
-0.0324292
0.000886145
-0.0324845
0.000623079
-0.0323426
0.000332076
-0.0319293
6.50632e-05
-0.0313553
-0.000213062
-0.0306947
-0.000376593
-0.0299676
-0.000517354
-0.0291741
-0.000681363
-0.0283213
-0.000860919
-0.0273985
-0.00106233
-0.0264147
-0.00123505
-0.0253745
-0.00138443
-0.0242734
-0.00153143
-0.0231449
-0.00159222
-0.0220307
-0.00158702
-0.0209277
-0.00162927
-0.0198249
-0.0016898
-0.0187215
-0.00168909
-0.0176287
-0.00165126
-0.0165626
-0.00158969
-0.0155538
-0.00150658
-0.0146657
-0.00141511
-0.014211
-0.000876147
-0.0137779
-0.000852892
-0.0132929
-0.000930064
-0.0127667
-0.000971712
-0.0122059
-0.00103346
-0.0116201
-0.00110104
-0.0110487
-0.00106464
-0.0104932
-0.00103968
-0.00996902
-0.000981096
-0.00948461
-0.00089846
-0.00903335
-0.000848731
-0.00861942
-0.000801045
-0.00823906
-0.000769964
-0.00789709
-0.000723914
-0.00759074
-0.000679286
-0.00733474
-0.000595313
-0.00722107
-0.000393503
-0.00722557
-0.000206352
-0.00730396
-5.91717e-05
-0.00750996
0.000107005
-0.00779963
0.000218207
-0.00812529
0.000249233
-0.00851377
0.000346444
-0.00897276
0.000469042
-0.00951297
0.000619552
-0.0101196
0.00074393
-0.0107836
0.000844289
-0.0115206
0.00097435
-0.0123139
0.00106873
-0.0131652
0.00116696
-0.0140725
0.00125386
-0.0150022
0.00124999
-0.0159212
0.00119418
-0.0168358
0.0012059
-0.0177132
0.00119648
-0.0185243
0.00113529
-0.0192487
0.00102648
-0.0199001
0.00093438
-0.020481
0.000877126
-0.0209467
0.000732286
-0.0213442
0.000643833
-0.0216634
0.000534157
-0.0219195
0.000439866
-0.0221237
0.000376722
-0.0222086
0.000199105
-0.022176
-1.37633e-05
-0.0220357
-0.000216486
-0.021954
-0.000161604
-0.0217232
-0.000162384
-0.0213602
-0.000401817
-0.0210355
-0.000539032
-0.0206551
-0.000553904
-0.0201288
-0.000700125
-0.0195909
-0.000892075
-0.0190895
-0.000899295
-0.0184939
-0.000892958
-0.017795
-0.00106215
-0.0173504
-0.000919312
-0.0170927
-0.000712985
-0.0167782
-0.000767465
-0.0164003
-0.000880466
-0.0159721
-0.000957507
-0.0155106
-0.000995935
-0.0150285
-0.00101015
-0.0145398
-0.000992113
-0.0140625
-0.000934525
-0.0135973
-0.000899451
-0.0131481
-0.000875938
-0.0127135
-0.000872724
-0.012288
-0.000899748
-0.0119052
-0.000791507
-0.0115575
-0.000715769
-0.011246
-0.000655668
-0.0109742
-0.000590415
-0.01074
-0.00052754
-0.0105503
-0.000443504
-0.0104061
-0.000328618
-0.0103015
-0.000254252
-0.010246
-0.000108347
-0.0102285
-3.88973e-05
-0.0102359
8.82446e-06
-0.0102651
3.47366e-05
-0.0103056
3.38721e-05
-0.0103483
3.40583e-05
-0.0103896
5.56414e-05
-0.0104302
9.32473e-05
-0.0104556
0.000113532
-0.0104884
0.000235936
-0.0108365
0.000609726
-0.0112613
0.000667968
-0.0117071
0.000652102
-0.0121521
0.000632147
-0.0125991
0.000642704
-0.0130499
0.000675395
-0.0135044
0.000724776
-0.0139729
0.00080655
-0.0144368
0.000831216
-0.0148905
0.000814933
-0.0153308
0.000764519
-0.0157355
0.00067261
-0.0161244
0.000644742
-0.0165055
0.000656558
-0.0168834
0.000696028
-0.0172591
0.000731414
-0.0175868
0.000641151
-0.0178784
0.000574463
-0.0181418
0.000536671
-0.0183862
0.000531697
-0.0186156
0.000533855
-0.0187947
0.000447241
-0.0189409
0.000390646
-0.0190562
0.000343534
-0.0191313
0.000279694
-0.0191729
0.00022508
-0.0191831
0.000181171
-0.0191665
0.000135523
-0.0191084
6.71719e-05
-0.0190146
2.60273e-05
-0.0188882
-1.54071e-05
-0.018737
-5.0722e-05
-0.018561
-7.96395e-05
-0.0183603
-0.000108096
-0.018142
-0.000134495
-0.0179063
-0.000164425
-0.0176582
-0.000190592
-0.0173988
-0.0002149
-0.0171327
-0.000234618
-0.0168603
-0.000257032
-0.0165791
-0.00028756
-0.0162885
-0.000317314
-0.0159923
-0.000330737
-0.0157001
-0.000319501
-0.0154114
-0.000319528
-0.0151374
-0.000334266
-0.0150605
-0.000154352
-0.0149828
-0.000119983
-0.0148503
-0.000198891
-0.0146784
-0.000255667
-0.0144832
-0.000296469
-0.014277
-0.000322643
-0.0140695
-0.00033419
-0.0138674
-0.000327029
-0.0136729
-0.000310702
-0.0134927
-0.000276117
-0.0133243
-0.00025638
-0.0131666
-0.00024426
-0.0130198
-0.000235224
-0.0128827
-0.000233413
-0.0127542
-0.000241014
-0.0126341
-0.000255296
-0.0125198
-0.000277143
-0.0124122
-0.000283499
-0.0123199
-0.000235131
-0.0122462
-0.00017715
-0.0121928
-0.000149
-0.0121533
-0.000125401
-0.0121264
-0.000111327
-0.0121107
-0.000104089
-0.0121057
-0.000100998
-0.0121072
-9.91759e-05
-0.0121172
-9.61285e-05
-0.0121351
-9.2815e-05
-0.0121592
-9.43242e-05
-0.0121897
-9.24426e-05
-0.012229
-7.97254e-05
-0.0122755
-6.83176e-05
-0.012329
-5.66776e-05
-0.012389
-4.68988e-05
-0.0124546
-3.91375e-05
-0.0125259
-3.10359e-05
-0.0126023
-2.507e-05
-0.0126824
-2.3026e-05
-0.0127654
-2.21605e-05
-0.0128518
-1.82588e-05
-0.0129415
-1.1688e-05
-0.0130334
-7.39663e-06
-0.0131276
-1.98764e-06
-0.0132232
2.03308e-06
-0.0133199
4.98646e-06
-0.013417
6.39931e-06
-0.0135139
6.65069e-06
-0.0136104
7.82049e-06
-0.0137061
9.21674e-06
-0.0138005
9.98734e-06
-0.0138931
1.02352e-05
-0.0139834
9.92565e-06
-0.014071
9.37347e-06
-0.0141554
8.90816e-06
-0.0142363
8.21399e-06
-0.0143133
7.10445e-06
-0.0143859
5.69935e-06
-0.0144536
4.00022e-06
-0.0145161
1.66172e-06
-0.0145729
-1.43612e-06
-0.0146233
-4.38315e-06
-0.014667
-8.2677e-06
-0.0147035
-1.2602e-05
-0.0147321
-1.7481e-05
-0.0147522
-2.3267e-05
-0.0147635
-2.97944e-05
-0.0147654
-3.89025e-05
-0.0147581
-5.2438e-05
-0.0147398
-6.35414e-05
-0.0147102
-8.16115e-05
-0.0146678
-0.000100623
-0.0146112
-0.000127742
-0.0145421
-0.000169485
-0.0144607
-0.000210005
-0.0143677
-0.000235628
-0.014264
-0.000240454
-0.0141562
-0.000202252
-9.25944e-05
-0.000479086
0.000455186
-0.000995282
0.000586238
-0.00157891
0.000830239
-0.00216189
0.000764721
-0.00275788
0.000782859
-0.0033606
0.000795566
-0.0039593
0.000774507
-0.00454688
0.000746875
-0.00512243
0.000728612
-0.00569023
0.000723783
-0.0062472
0.000710905
-0.00678131
0.000666722
-0.00728376
0.000599449
-0.00775613
0.000533875
-0.00820129
0.000485204
-0.00860604
0.000443886
-0.00894024
0.000373998
-0.0091743
0.000208336
-0.00930285
-8.67936e-05
-0.00977318
0.000107559
-0.0102917
0.000346318
-0.0108325
0.000462338
-0.011385
0.000575456
-0.0119928
0.000632601
-0.0126103
0.00058471
-0.0131867
0.000283813
-0.0137805
0.000104158
-0.0144692
0.000175273
-0.0151319
0.000760198
-0.0157691
0.00106459
-0.0164341
0.00108195
-0.0170619
0.00113157
-0.0176091
0.0012742
-0.0181128
0.00141496
-0.0187921
0.00156532
-0.0197235
0.00174762
-0.0207373
0.0019009
-0.0218195
0.00225557
-0.023147
0.0026317
-0.0246398
0.00274304
-0.0260135
0.00237844
-0.0270361
0.00169461
-0.0278842
0.00130422
-0.0286201
0.0012158
-0.0289606
0.000842466
-0.0289589
0.000510994
-0.0289667
0.000406717
-0.0295872
0.000705045
-0.0302508
0.000826136
-0.0306649
0.000146328
-0.0307375
-0.000510534
-0.0306188
-0.00097978
-0.0304089
-0.0014558
-0.0301697
-0.00176813
-0.029934
-0.00178747
-0.0296919
-0.00153859
-0.029522
-0.00129831
-0.029034
-0.00103137
-0.0288053
-0.00121261
-0.0287751
-0.00105721
-0.0288883
-0.000654105
-0.0291902
-0.00023319
-0.0295153
-0.000188607
-0.0296953
-0.000453774
-0.0298327
-0.000341961
-0.0300866
0.0001604
-0.0313677
0.00123192
-0.0331424
0.00205572
-0.0349717
0.00242255
-0.036846
0.002835
-0.0387453
0.00332315
-0.0406724
0.00382776
-0.04265
0.00431769
-0.0446815
0.00467778
-0.0467211
0.00479256
-0.0487399
0.00484446
-0.0506734
0.00476463
-0.0524499
0.00435447
-0.0540837
0.00394365
-0.0555846
0.00357713
-0.0569394
0.00333987
-0.0580711
0.00314543
-0.0589322
0.00285835
-0.0595197
0.0024745
-0.0599295
0.00212625
-0.0601907
0.00177217
-0.0602632
0.00129786
-0.0602021
0.000843945
-0.0601195
0.000475062
-0.0599506
0.000156254
-0.059576
-0.000199629
-0.0589712
-0.000946023
-0.0583846
-0.00147611
-0.0574588
-0.00212501
-0.0561334
-0.00265599
-0.0545914
-0.00285464
-0.0530455
-0.00282257
-0.0517631
-0.00255304
-0.0508766
-0.00247182
-0.0499515
-0.00265033
-0.0489318
-0.00273464
-0.0478285
-0.00281281
-0.0466476
-0.00288889
-0.0453965
-0.00298039
-0.0440817
-0.00309013
-0.0427036
-0.00324332
-0.0412625
-0.00342274
-0.0397664
-0.0035779
-0.0382303
-0.00367718
-0.0366676
-0.00373981
-0.0350896
-0.0037784
-0.0334957
-0.00383054
-0.0318912
-0.0038863
-0.0302779
-0.0039746
-0.0286468
-0.00416221
-0.0266731
-0.00476289
-0.0239574
-0.00565
-0.0207097
-0.0062206
-0.0174407
-0.00655705
-0.0143277
-0.0063254
-0.0113848
-0.00590913
-0.00853369
-0.00552691
-0.0056783
-0.00536791
-0.00270449
-0.00546004
0.000396918
-0.00559369
0.00344423
-0.00550931
0.0061707
-0.00525052
0.00847124
-0.00523158
0.0104826
-0.00539635
0.0124356
-0.00553095
0.0144949
-0.00553409
0.016671
-0.00546637
0.01887
-0.00544172
0.0211813
-0.00549573
0.0235595
-0.00533702
0.0258974
-0.0048774
0.0281663
-0.00440962
0.0303195
-0.00396719
0.0322488
-0.00340927
0.0337577
-0.00269405
0.0345203
-0.00151213
0.0346763
-0.000384471
0.0346077
0.000245761
0.0345024
0.000499364
0.034402
0.000730769
0.034188
0.00113924
0.0337572
0.00155257
0.0330061
0.00203425
0.0319004
0.00255156
0.0304232
0.00314235
0.0285856
0.00373589
0.0264006
0.00430655
0.0239726
0.00467562
0.0215341
0.00468003
0.0194172
0.00438154
0.0176952
0.00396617
0.0161985
0.00342774
0.014808
0.00269417
0.0133067
0.00239687
0.0114494
0.00295079
0.00911973
0.00355225
0.00656273
0.00387692
0.00404075
0.00397655
0.0017625
0.00381809
-0.000200627
0.00360303
-0.00194611
0.00353161
-0.00355372
0.00352249
-0.00504335
0.00351096
-0.00638154
0.00343939
-0.00761351
0.0033155
-0.00874001
0.00302089
-0.00968517
0.00251784
-0.0104629
0.00209991
-0.0110831
0.00172751
-0.0115049
0.00131438
-0.0116334
0.000806945
-0.011435
0.000229016
-0.0110001
-0.000275617
-0.0103819
-0.000796217
-0.00955235
-0.00132043
-0.00856222
-0.00184212
-0.00741755
-0.00226531
-0.00612703
-0.00265091
-0.00470928
-0.00296741
-0.003182
-0.00321794
-0.00154515
-0.00343167
0.000181894
-0.00356928
0.00195537
-0.00360946
0.00372922
-0.00359406
0.00537718
-0.00339301
0.00673531
-0.00305914
0.00764672
-0.00263664
0.00806653
-0.00208944
0.00811864
-0.00168825
0.00793981
-0.00112897
0.00760826
-0.000498591
0.0071822
3.37581e-05
0.00665969
0.000333149
0.00609984
0.000381906
0.00544155
0.000596562
0.00457675
0.000970225
0.00348097
0.00130022
0.00223867
0.00149417
0.000914225
0.00165926
-0.0004879
0.00186509
-0.00196133
0.00205411
-0.00349655
0.00221088
-0.00507841
0.00231658
-0.00667313
0.00233374
-0.0082828
0.00233504
-0.00997575
0.00236548
-0.011814
0.00244366
-0.0135456
0.00252734
-0.0146874
0.00254625
-0.0157196
0.00249021
-0.0167138
0.00231732
-0.0176695
0.00213955
-0.0185764
0.00201848
-0.0194293
0.00192458
-0.0202364
0.00187865
-0.0209772
0.00171283
-0.021642
0.00147996
-0.0222251
0.00120037
-0.022735
0.000988294
-0.0231662
0.000759895
-0.0235282
0.000592535
-0.0238433
0.000535839
-0.0241274
0.000546266
-0.0244037
0.000659611
-0.0246291
0.000601127
-0.0248073
0.000430354
-0.0249297
0.000244775
-0.0250086
9.60096e-05
-0.0250342
-8.85966e-05
-0.0250197
-0.000403761
-0.024966
-0.00069716
-0.0248795
-0.000891238
-0.0247767
-0.000989606
-0.0246674
-0.0010048
-0.0245632
-0.000941533
-0.0244749
-0.000857699
-0.0243979
-0.000813947
-0.0243394
-0.000762826
-0.024306
-0.000682411
-0.0242993
-0.000588828
-0.0243131
-0.000497084
-0.0243515
-0.000345375
-0.0244203
-0.000134188
-0.0245133
0.000104785
-0.0246359
0.000392961
-0.0249733
0.000859358
-0.0255322