/*--------------------------------*- C++ -*----------------------------------*\
| =========                 |                                                 |
| \\      /  F ield         | OpenFOAM: The Open Source CFD Toolbox           |
|  \\    /   O peration     | Version:  v1812                                 |
|   \\  /    A nd           | Web:      www.OpenFOAM.com                      |
|    \\/     M anipulation  |                                                 |
\*---------------------------------------------------------------------------*/
FoamFile
{
    version     2.0;
    format      ascii;
    class       volScalarField;
    location    "1.2";
    object      T;
}
// * * * * * * * * * * * * * * * * * * * * * * * * * * * * * * * * * * * * * //

dimensions      [0 0 0 1 0 0 0];


internalField   nonuniform List<scalar> 
20400
(
289.733
289.728
289.711
289.695
289.675
289.654
289.635
289.622
289.615
289.616
289.625
289.645
289.673
289.711
289.758
289.812
289.872
289.937
290.002
290.08
290.154
290.225
290.294
290.362
290.426
290.485
290.547
290.603
290.655
290.715
290.774
290.834
290.894
290.957
291.019
291.096
291.162
291.231
291.298
291.365
291.429
291.491
291.553
291.607
291.66
291.71
291.757
291.8
291.855
291.914
291.973
292.037
292.102
292.169
292.234
292.296
292.338
292.355
292.351
292.313
292.25
292.136
292.01
291.879
291.757
291.652
291.582
291.55
291.545
291.566
291.618
291.688
291.773
291.863
291.953
292.036
292.107
292.168
292.216
292.253
292.28
292.299
292.314
292.325
292.335
292.342
292.351
292.358
292.363
292.37
292.376
292.375
292.374
292.372
292.368
292.361
292.357
292.346
292.337
292.325
292.308
292.291
292.273
292.255
292.236
292.217
292.199
292.18
292.162
292.144
292.127
292.109
292.092
292.075
292.059
292.044
292.029
292.007
291.987
291.966
291.945
291.923
291.898
291.876
291.852
291.827
291.8
291.774
291.741
291.706
291.668
291.627
291.581
291.532
291.479
291.423
291.364
291.301
291.234
291.169
291.101
291.033
290.967
290.905
290.848
290.795
290.748
290.707
290.673
290.65
290.639
290.64
290.649
290.666
290.694
290.729
290.771
290.819
290.871
290.921
290.969
291.016
291.058
291.1
291.141
291.179
291.216
291.249
291.28
291.307
291.328
291.349
291.365
291.378
291.388
291.393
291.393
291.394
291.391
291.389
291.382
291.37
291.357
291.342
291.325
291.308
291.292
291.276
291.262
291.249
291.242
291.243
291.245
291.268
291.27
291.288
291.311
291.336
291.371
291.403
291.436
291.469
291.503
291.537
291.57
291.603
291.637
291.672
291.709
291.747
291.787
291.824
291.858
291.897
291.946
292.001
292.056
292.11
292.166
292.223
292.283
292.346
292.412
292.479
292.546
292.615
292.682
292.742
292.794
292.842
292.882
292.915
292.937
292.952
292.959
292.96
292.954
292.941
292.921
292.896
292.869
292.841
292.814
292.79
292.768
292.749
292.732
292.714
292.695
292.673
292.649
292.622
292.592
292.561
292.532
292.503
292.475
292.45
292.428
292.407
292.388
292.373
292.36
292.347
292.336
292.327
292.319
292.311
292.307
292.299
292.293
292.288
292.283
292.279
292.275
292.273
292.27
292.268
292.266
292.264
292.261
292.258
292.256
292.252
292.248
292.244
292.239
292.239
292.231
292.229
292.229
292.232
292.237
292.247
292.258
292.275
292.294
292.316
292.34
292.365
292.39
292.414
292.437
292.457
292.473
292.486
292.496
292.499
292.5
292.499
292.493
292.487
292.479
292.471
292.463
292.455
292.448
292.441
292.435
292.43
292.427
292.423
292.42
292.418
292.417
292.416
292.415
292.417
292.419
292.422
292.427
292.433
292.441
292.45
292.46
292.47
292.484
292.497
292.511
292.528
292.545
292.562
292.581
292.602
292.623
292.642
292.662
292.684
292.705
292.727
292.749
292.771
292.792
292.814
292.836
292.858
292.881
292.906
292.928
292.952
292.975
292.998
293.021
293.045
293.067
293.09
293.11
293.131
293.151
293.171
293.189
293.208
293.225
293.24
293.254
293.266
293.278
293.292
293.304
293.316
293.328
293.338
293.348
293.356
293.365
293.374
293.383
293.392
293.401
293.409
293.416
293.424
293.433
293.441
293.449
293.457
293.464
293.472
293.479
293.486
293.493
293.5
293.505
293.511
293.517
293.522
293.527
293.532
293.537
293.541
293.545
293.548
293.551
293.554
293.556
293.559
293.561
293.562
293.564
293.564
293.564
293.565
293.566
293.565
293.565
293.565
293.564
293.563
293.563
293.562
293.561
293.559
293.558
293.557
293.555
293.553
293.551
293.55
293.548
293.547
293.546
293.544
293.542
293.54
293.539
293.538
293.537
293.536
293.535
293.535
293.535
293.535
293.535
293.535
293.536
293.537
293.538
293.54
293.542
293.544
293.546
293.549
293.552
293.555
293.559
293.563
293.567
293.572
293.577
293.583
293.589
293.595
293.602
293.609
293.616
293.624
293.632
293.64
293.649
293.658
293.668
293.677
293.687
293.697
293.708
293.718
293.729
293.739
293.75
293.761
293.771
293.78
293.789
293.798
293.806
293.815
293.824
293.835
293.847
293.855
289.705
289.701
289.684
289.669
289.65
289.632
289.616
289.607
289.604
289.609
289.624
289.648
289.681
289.724
289.775
289.832
289.895
289.964
290.034
290.104
290.181
290.253
290.323
290.39
290.455
290.517
290.58
290.639
290.689
290.756
290.82
290.885
290.951
291.018
291.086
291.165
291.242
291.312
291.381
291.449
291.514
291.575
291.624
291.669
291.713
291.754
291.799
291.835
291.889
291.945
292.002
292.062
292.119
292.174
292.224
292.265
292.288
292.276
292.23
292.161
292.074
291.945
291.831
291.738
291.674
291.637
291.623
291.655
291.711
291.782
291.866
291.954
292.043
292.126
292.198
292.255
292.297
292.328
292.348
292.359
292.364
292.364
292.363
292.362
292.361
292.358
292.355
292.351
292.341
292.331
292.323
292.324
292.319
292.311
292.304
292.298
292.289
292.281
292.268
292.255
292.243
292.232
292.22
292.209
292.199
292.189
292.18
292.171
292.161
292.152
292.142
292.132
292.12
292.107
292.093
292.083
292.076
292.067
292.059
292.053
292.037
292.017
291.996
291.975
291.953
291.928
291.9
291.876
291.852
291.822
291.792
291.761
291.733
291.704
291.672
291.635
291.595
291.554
291.508
291.46
291.406
291.346
291.284
291.223
291.162
291.1
291.041
290.98
290.916
290.851
290.795
290.754
290.73
290.717
290.713
290.721
290.743
290.79
290.842
290.901
290.961
291.022
291.082
291.142
291.201
291.255
291.309
291.363
291.413
291.466
291.524
291.58
291.631
291.679
291.726
291.767
291.805
291.839
291.866
291.888
291.9
291.903
291.897
291.882
291.858
291.825
291.784
291.736
291.683
291.625
291.567
291.511
291.463
291.415
291.4
291.383
291.372
291.371
291.378
291.386
291.402
291.421
291.443
291.468
291.494
291.522
291.55
291.577
291.606
291.638
291.673
291.708
291.739
291.75
291.795
291.841
291.892
291.946
292.003
292.065
292.129
292.194
292.264
292.343
292.424
292.508
292.59
292.662
292.727
292.781
292.822
292.853
292.878
292.896
292.903
292.903
292.895
292.878
292.852
292.819
292.782
292.746
292.713
292.684
292.659
292.637
292.617
292.596
292.574
292.55
292.522
292.492
292.459
292.425
292.392
292.361
292.331
292.302
292.276
292.252
292.228
292.207
292.188
292.17
292.154
292.14
292.126
292.115
292.112
292.103
292.096
292.091
292.089
292.089
292.091
292.095
292.102
292.111
292.124
292.138
292.152
292.167
292.182
292.197
292.211
292.224
292.234
292.247
292.239
292.24
292.239
292.238
292.239
292.243
292.249
292.26
292.275
292.294
292.317
292.342
292.37
292.398
292.426
292.452
292.473
292.496
292.507
292.513
292.515
292.514
292.509
292.501
292.491
292.481
292.47
292.459
292.448
292.437
292.427
292.417
292.408
292.4
292.392
292.385
292.379
292.374
292.369
292.368
292.367
292.364
292.366
292.37
292.37
292.382
292.391
292.395
292.413
292.431
292.441
292.456
292.481
292.5
292.513
292.538
292.57
292.59
292.605
292.626
292.645
292.665
292.685
292.706
292.727
292.748
292.769
292.79
292.812
292.835
292.856
292.879
292.901
292.924
292.948
292.972
292.994
293.019
293.041
293.063
293.084
293.105
293.126
293.145
293.163
293.18
293.195
293.208
293.219
293.236
293.25
293.263
293.276
293.287
293.296
293.306
293.315
293.324
293.332
293.341
293.35
293.356
293.362
293.37
293.378
293.385
293.392
293.396
293.402
293.414
293.422
293.425
293.428
293.434
293.438
293.444
293.451
293.456
293.462
293.466
293.471
293.475
293.479
293.483
293.487
293.49
293.493
293.495
293.498
293.5
293.502
293.504
293.505
293.507
293.501
293.499
293.496
293.492
293.49
293.489
293.487
293.486
293.485
293.483
293.482
293.48
293.478
293.477
293.475
293.473
293.472
293.471
293.47
293.469
293.467
293.466
293.465
293.464
293.464
293.464
293.464
293.464
293.465
293.466
293.467
293.468
293.47
293.472
293.474
293.476
293.479
293.482
293.485
293.489
293.493
293.497
293.502
293.507
293.512
293.518
293.524
293.53
293.537
293.544
293.551
293.559
293.567
293.575
293.584
293.593
293.602
293.611
293.621
293.631
293.641
293.652
293.662
293.673
293.684
293.695
293.706
293.716
293.726
293.736
293.745
293.754
293.763
293.772
293.783
293.795
293.807
293.817
289.654
289.652
289.637
289.626
289.611
289.598
289.589
289.586
289.591
289.605
289.628
289.661
289.702
289.752
289.808
289.87
289.936
290.005
290.074
290.149
290.223
290.295
290.364
290.43
290.494
290.559
290.625
290.685
290.751
290.823
290.898
290.976
291.057
291.138
291.214
291.291
291.367
291.438
291.503
291.568
291.631
291.688
291.729
291.76
291.793
291.833
291.867
291.892
291.932
291.982
292.029
292.075
292.116
292.149
292.169
292.176
292.166
292.137
292.056
291.955
291.857
291.775
291.726
291.709
291.721
291.764
291.82
291.921
292.022
292.123
292.219
292.304
292.376
292.431
292.47
292.492
292.5
292.502
292.496
292.482
292.463
292.445
292.428
292.412
292.396
292.375
292.357
292.34
292.312
292.29
292.279
292.277
292.247
292.228
292.219
292.214
292.21
292.198
292.177
292.168
292.157
292.147
292.138
292.129
292.122
292.115
292.11
292.106
292.102
292.099
292.096
292.091
292.087
292.08
292.073
292.069
292.074
292.075
292.072
292.065
292.054
292.039
292.02
292.001
291.982
291.961
291.932
291.897
291.858
291.82
291.784
291.749
291.713
291.686
291.661
291.637
291.614
291.593
291.576
291.564
291.548
291.527
291.503
291.476
291.446
291.417
291.392
291.359
291.313
291.247
291.165
291.08
291.006
290.95
290.908
290.867
290.826
290.797
290.803
290.832
290.887
290.956
291.028
291.107
291.19
291.276
291.365
291.456
291.552
291.648
291.743
291.844
291.944
292.045
292.146
292.247
292.35
292.449
292.544
292.633
292.713
292.78
292.836
292.876
292.898
292.901
292.881
292.839
292.776
292.686
292.574
292.442
292.296
292.145
291.997
291.862
291.746
291.648
291.577
291.519
291.476
291.445
291.423
291.412
291.41
291.415
291.426
291.438
291.452
291.469
291.492
291.524
291.566
291.624
291.645
291.667
291.695
291.729
291.767
291.809
291.856
291.911
291.979
292.057
292.15
292.251
292.351
292.447
292.533
292.609
292.667
292.719
292.757
292.786
292.807
292.82
292.823
292.816
292.795
292.757
292.707
292.652
292.598
292.55
292.509
292.475
292.445
292.418
292.389
292.36
292.327
292.293
292.257
292.217
292.178
292.14
292.103
292.069
292.038
292.009
291.981
291.956
291.933
291.911
291.892
291.874
291.856
291.838
291.82
291.802
291.785
291.77
291.758
291.747
291.738
291.732
291.73
291.732
291.743
291.761
291.785
291.814
291.849
291.89
291.934
291.979
292.025
292.065
292.131
292.168
292.202
292.226
292.241
292.252
292.257
292.263
292.268
292.277
292.29
292.308
292.334
292.365
292.402
292.441
292.481
292.507
292.53
292.545
292.553
292.555
292.551
292.542
292.53
292.515
292.499
292.482
292.465
292.447
292.43
292.412
292.394
292.377
292.359
292.343
292.329
292.317
292.305
292.297
292.29
292.286
292.284
292.281
292.284
292.284
292.293
292.307
292.31
292.318
292.337
292.353
292.363
292.382
292.409
292.426
292.442
292.476
292.508
292.537
292.566
292.595
292.622
292.647
292.671
292.692
292.713
292.733
292.753
292.774
292.79
292.807
292.823
292.84
292.858
292.877
292.895
292.917
292.937
292.96
292.982
293.005
293.03
293.054
293.078
293.1
293.12
293.137
293.166
293.179
293.195
293.21
293.224
293.237
293.249
293.258
293.268
293.276
293.282
293.288
293.293
293.298
293.304
293.305
293.309
293.313
293.316
293.323
293.326
293.327
293.327
293.333
293.338
293.342
293.347
293.35
293.351
293.354
293.356
293.358
293.36
293.362
293.363
293.365
293.366
293.367
293.368
293.369
293.369
293.37
293.37
293.369
293.369
293.367
293.374
293.375
293.375
293.376
293.376
293.375
293.373
293.371
293.37
293.367
293.364
293.361
293.358
293.355
293.351
293.349
293.346
293.345
293.344
293.342
293.34
293.339
293.337
293.335
293.334
293.334
293.335
293.335
293.337
293.338
293.34
293.343
293.346
293.349
293.352
293.356
293.36
293.365
293.369
293.375
293.381
293.387
293.393
293.4
293.407
293.414
293.422
293.43
293.438
293.447
293.456
293.465
293.475
293.485
293.495
293.505
293.516
293.526
293.537
293.548
293.56
293.571
293.583
293.595
293.606
293.618
293.63
293.641
293.652
293.663
293.673
293.683
293.693
293.704
293.715
293.728
293.742
293.753
289.582
289.583
289.572
289.567
289.559
289.554
289.555
289.564
289.581
289.608
289.643
289.688
289.74
289.797
289.859
289.925
289.994
290.064
290.132
290.207
290.279
290.348
290.416
290.481
290.545
290.61
290.681
290.75
290.826
290.913
291.003
291.1
291.201
291.299
291.39
291.472
291.544
291.609
291.667
291.722
291.772
291.812
291.84
291.855
291.872
291.889
291.903
291.918
291.951
291.978
292.004
292.027
292.044
292.051
292.051
292.039
292.004
291.946
291.867
291.797
291.755
291.737
291.758
291.837
291.94
292.045
292.16
292.281
292.397
292.501
292.588
292.654
292.699
292.722
292.729
292.727
292.708
292.687
292.656
292.621
292.58
292.543
292.504
292.467
292.431
292.388
292.353
292.31
292.281
292.252
292.207
292.16
292.145
292.127
292.104
292.084
292.07
292.059
292.049
292.039
292.03
292.021
292.013
292.005
291.999
291.994
291.992
291.994
292
292.008
292.017
292.028
292.038
292.048
292.056
292.064
292.041
292.023
292.006
291.987
291.965
291.942
291.913
291.88
291.848
291.816
291.778
291.73
291.676
291.621
291.567
291.515
291.464
291.408
291.362
291.327
291.3
291.276
291.264
291.273
291.292
291.313
291.333
291.35
291.36
291.364
291.374
291.385
291.398
291.401
291.394
291.366
291.317
291.259
291.207
291.16
291.097
291.002
290.899
290.823
290.814
290.846
290.913
290.999
291.1
291.206
291.313
291.421
291.533
291.649
291.774
291.905
292.037
292.174
292.313
292.456
292.601
292.748
292.898
293.051
293.205
293.356
293.501
293.635
293.753
293.85
293.919
293.956
293.962
293.933
293.856
293.74
293.585
293.402
293.188
292.949
292.713
292.481
292.268
292.069
291.897
291.757
291.647
291.561
291.495
291.449
291.413
291.381
291.356
291.339
291.33
291.332
291.343
291.351
291.356
291.36
291.369
291.38
291.397
291.416
291.438
291.465
291.505
291.561
291.64
291.747
291.876
292.013
292.143
292.264
292.357
292.437
292.504
292.562
292.616
292.668
292.715
292.747
292.759
292.752
292.71
292.646
292.568
292.489
292.417
292.356
292.306
292.264
292.225
292.187
292.15
292.109
292.066
292.021
291.976
291.932
291.892
291.856
291.824
291.797
291.772
291.75
291.732
291.716
291.702
291.689
291.676
291.662
291.649
291.632
291.615
291.595
291.573
291.549
291.523
291.496
291.468
291.44
291.413
291.389
291.371
291.363
291.366
291.383
291.417
291.47
291.54
291.63
291.73
291.84
291.947
292.042
292.117
292.173
292.216
292.247
292.264
292.271
292.273
292.275
292.282
292.298
292.325
292.364
292.411
292.461
292.508
292.544
292.57
292.585
292.591
292.588
292.576
292.56
292.539
292.515
292.49
292.465
292.438
292.411
292.384
292.356
292.329
292.303
292.279
292.259
292.238
292.223
292.208
292.197
292.188
292.182
292.178
292.175
292.179
292.186
292.195
292.207
292.224
292.246
292.271
292.299
292.331
292.366
292.403
292.439
292.476
292.513
292.551
292.588
292.624
292.659
292.692
292.723
292.751
292.778
292.804
292.817
292.828
292.837
292.843
292.844
292.843
292.84
292.841
292.847
292.855
292.865
292.877
292.891
292.907
292.924
292.945
292.965
292.985
293.002
293.018
293.036
293.053
293.073
293.091
293.109
293.125
293.137
293.149
293.159
293.168
293.178
293.187
293.195
293.201
293.202
293.206
293.208
293.212
293.216
293.217
293.219
293.22
293.223
293.225
293.228
293.232
293.235
293.238
293.24
293.243
293.245
293.247
293.249
293.25
293.252
293.253
293.255
293.257
293.259
293.262
293.265
293.267
293.269
293.271
293.272
293.271
293.269
293.267
293.266
293.264
293.263
293.262
293.26
293.258
293.254
293.249
293.244
293.238
293.232
293.226
293.219
293.213
293.209
293.204
293.2
293.194
293.19
293.185
293.18
293.176
293.173
293.17
293.169
293.168
293.169
293.17
293.172
293.174
293.176
293.18
293.184
293.188
293.193
293.199
293.205
293.213
293.22
293.229
293.238
293.247
293.257
293.267
293.277
293.288
293.299
293.311
293.323
293.335
293.348
293.361
293.374
293.388
293.401
293.415
293.428
293.442
293.456
293.47
293.484
293.498
293.511
293.525
293.539
293.552
293.565
293.578
293.59
293.602
293.615
293.628
293.642
293.657
293.668
289.5
289.504
289.499
289.5
289.502
289.509
289.523
289.547
289.58
289.623
289.674
289.732
289.796
289.862
289.929
289.997
290.066
290.134
290.199
290.268
290.336
290.404
290.471
290.537
290.605
290.676
290.756
290.841
290.935
291.041
291.152
291.267
291.381
291.488
291.585
291.665
291.73
291.786
291.834
291.871
291.897
291.911
291.917
291.915
291.911
291.907
291.905
291.903
291.911
291.916
291.92
291.921
291.919
291.913
291.898
291.873
291.832
291.788
291.75
291.729
291.729
291.781
291.898
292.049
292.209
292.36
292.502
292.633
292.747
292.84
292.908
292.949
292.965
292.966
292.953
292.923
292.883
292.84
292.791
292.736
292.677
292.62
292.561
292.504
292.449
292.394
292.342
292.292
292.245
292.203
292.161
292.118
292.081
292.044
292.006
291.973
291.943
291.919
291.901
291.883
291.869
291.857
291.847
291.839
291.832
291.824
291.819
291.818
291.822
291.83
291.841
291.852
291.863
291.873
291.881
291.888
291.878
291.859
291.838
291.815
291.785
291.746
291.696
291.633
291.56
291.489
291.421
291.349
291.273
291.194
291.118
291.047
290.984
290.92
290.861
290.812
290.774
290.742
290.717
290.721
290.74
290.773
290.812
290.861
290.911
290.961
291.016
291.075
291.145
291.219
291.289
291.328
291.342
291.344
291.345
291.343
291.332
291.276
291.151
290.985
290.871
290.833
290.842
290.875
290.942
291.041
291.15
291.26
291.376
291.49
291.606
291.728
291.851
291.983
292.123
292.272
292.431
292.607
292.797
292.997
293.205
293.415
293.624
293.827
294.021
294.201
294.371
294.521
294.645
294.737
294.785
294.788
294.755
294.671
294.524
294.314
294.053
293.761
293.456
293.141
292.838
292.562
292.318
292.099
291.902
291.739
291.614
291.523
291.455
291.401
291.354
291.316
291.282
291.258
291.237
291.215
291.195
291.175
291.159
291.15
291.147
291.145
291.148
291.159
291.184
291.239
291.331
291.455
291.597
291.746
291.866
291.969
292.058
292.139
292.22
292.314
292.423
292.533
292.63
292.692
292.709
292.684
292.604
292.498
292.388
292.285
292.199
292.13
292.073
292.025
291.979
291.936
291.894
291.851
291.811
291.774
291.744
291.721
291.708
291.703
291.702
291.708
291.716
291.725
291.733
291.747
291.759
291.77
291.778
291.779
291.776
291.762
291.74
291.708
291.666
291.616
291.556
291.488
291.416
291.344
291.27
291.201
291.139
291.085
291.04
291.004
290.991
291.006
291.059
291.154
291.287
291.439
291.59
291.728
291.865
292.003
292.123
292.208
292.251
292.268
292.271
292.268
292.268
292.282
292.318
292.372
292.436
292.496
292.543
292.579
292.608
292.624
292.627
292.62
292.603
292.58
292.552
292.52
292.486
292.451
292.417
292.381
292.347
292.313
292.28
292.249
292.219
292.194
292.171
292.151
292.136
292.128
292.123
292.12
292.124
292.13
292.141
292.158
292.176
292.2
292.231
292.266
292.305
292.348
292.395
292.444
292.496
292.552
292.609
292.666
292.723
292.778
292.831
292.878
292.92
292.957
292.991
293.015
293.037
293.056
293.064
293.057
293.038
293.005
292.962
292.928
292.906
292.893
292.884
292.875
292.865
292.857
292.853
292.854
292.86
292.869
292.877
292.885
292.895
292.91
292.93
292.951
292.974
292.992
293.007
293.017
293.024
293.038
293.054
293.069
293.082
293.088
293.095
293.1
293.103
293.108
293.109
293.111
293.113
293.114
293.116
293.118
293.12
293.123
293.126
293.129
293.131
293.134
293.136
293.137
293.137
293.138
293.138
293.138
293.139
293.14
293.143
293.147
293.153
293.159
293.165
293.17
293.172
293.172
293.174
293.175
293.177
293.18
293.183
293.184
293.185
293.183
293.178
293.173
293.166
293.159
293.151
293.143
293.135
293.126
293.115
293.104
293.094
293.083
293.073
293.062
293.051
293.04
293.03
293.021
293.013
293.006
293
292.996
292.993
292.99
292.988
292.988
292.988
292.99
292.992
292.996
293.001
293.008
293.015
293.024
293.033
293.043
293.054
293.066
293.079
293.092
293.106
293.121
293.136
293.152
293.168
293.185
293.203
293.22
293.238
293.255
293.273
293.291
293.309
293.327
293.344
293.362
293.38
293.398
293.415
293.432
293.449
293.465
293.481
293.497
293.513
293.531
293.548
293.566
289.414
289.423
289.424
289.435
289.449
289.471
289.503
289.545
289.597
289.659
289.727
289.799
289.872
289.946
290.017
290.086
290.151
290.214
290.273
290.337
290.399
290.463
290.528
290.596
290.67
290.75
290.846
290.952
291.072
291.205
291.342
291.475
291.599
291.709
291.798
291.864
291.91
291.943
291.962
291.968
291.968
291.951
291.929
291.907
291.886
291.865
291.846
291.83
291.814
291.8
291.79
291.781
291.772
291.763
291.75
291.73
291.707
291.692
291.691
291.7
291.767
291.89
292.068
292.262
292.463
292.645
292.805
292.942
293.053
293.135
293.187
293.209
293.212
293.199
293.168
293.121
293.063
293.004
292.942
292.876
292.807
292.74
292.672
292.608
292.546
292.484
292.429
292.375
292.323
292.271
292.22
292.175
292.131
292.087
292.044
292.003
291.967
291.935
291.903
291.87
291.841
291.817
291.796
291.778
291.763
291.748
291.735
291.727
291.721
291.718
291.717
291.718
291.717
291.708
291.697
291.688
291.676
291.653
291.619
291.577
291.524
291.461
291.39
291.309
291.21
291.105
290.998
290.891
290.785
290.682
290.582
290.486
290.403
290.329
290.262
290.204
290.158
290.124
290.098
290.09
290.098
290.118
290.154
290.207
290.27
290.338
290.414
290.501
290.608
290.738
290.881
291.016
291.121
291.188
291.233
291.271
291.305
291.324
291.312
291.244
291.107
290.963
290.883
290.847
290.851
290.887
290.952
291.035
291.134
291.232
291.325
291.419
291.51
291.611
291.721
291.846
291.991
292.163
292.361
292.578
292.817
293.072
293.341
293.615
293.887
294.147
294.385
294.597
294.785
294.95
295.094
295.219
295.315
295.363
295.359
295.312
295.197
295.015
294.775
294.474
294.14
293.793
293.454
293.122
292.793
292.482
292.214
292.002
291.84
291.708
291.59
291.48
291.388
291.321
291.279
291.249
291.223
291.193
291.16
291.125
291.086
291.052
291.027
291.008
290.992
290.982
290.988
291.025
291.094
291.201
291.297
291.391
291.478
291.555
291.634
291.735
291.88
292.062
292.268
292.466
292.607
292.66
292.643
292.556
292.443
292.321
292.202
292.092
291.996
291.918
291.858
291.81
291.771
291.738
291.712
291.697
291.69
291.692
291.709
291.73
291.76
291.799
291.845
291.894
291.95
292.008
292.066
292.118
292.165
292.197
292.222
292.234
292.233
292.216
292.183
292.136
292.072
291.99
291.89
291.77
291.635
291.485
291.331
291.181
291.046
290.931
290.834
290.756
290.693
290.661
290.678
290.743
290.846
290.974
291.132
291.335
291.574
291.808
292
292.133
292.211
292.246
292.257
292.256
292.259
292.282
292.335
292.403
292.464
292.517
292.567
292.61
292.644
292.664
292.662
292.646
292.62
292.587
292.554
292.518
292.48
292.439
292.4
292.362
292.324
292.288
292.253
292.222
292.193
292.168
292.147
292.134
292.126
292.121
292.126
292.13
292.142
292.16
292.184
292.212
292.247
292.289
292.338
292.394
292.456
292.523
292.595
292.67
292.747
292.827
292.906
292.984
293.059
293.13
293.192
293.246
293.296
293.347
293.393
293.436
293.467
293.465
293.441
293.383
293.303
293.219
293.147
293.097
293.06
293.028
292.995
292.956
292.917
292.878
292.845
292.816
292.794
292.776
292.764
292.764
292.772
292.786
292.803
292.821
292.834
292.839
292.839
292.846
292.861
292.884
292.912
292.933
292.947
292.952
292.96
292.967
292.971
292.977
292.981
292.985
292.989
292.992
292.996
292.999
293.003
293.006
293.009
293.013
293.015
293.016
293.016
293.015
293.014
293.012
293.01
293.008
293.007
293.009
293.015
293.025
293.036
293.046
293.052
293.055
293.059
293.064
293.072
293.083
293.098
293.115
293.127
293.131
293.134
293.135
293.134
293.133
293.13
293.126
293.12
293.112
293.1
293.088
293.075
293.062
293.048
293.032
293.016
292.999
292.981
292.962
292.943
292.925
292.907
292.89
292.875
292.86
292.847
292.835
292.824
292.814
292.806
292.799
292.795
292.793
292.793
292.794
292.797
292.802
292.808
292.816
292.826
292.837
292.85
292.863
292.879
292.895
292.913
292.932
292.951
292.972
292.993
293.015
293.038
293.06
293.083
293.106
293.129
293.152
293.175
293.198
293.221
293.244
293.267
293.29
293.312
293.334
293.355
293.378
293.401
293.426
289.333
289.347
289.356
289.379
289.409
289.45
289.502
289.564
289.636
289.714
289.796
289.878
289.958
290.034
290.106
290.172
290.234
290.292
290.347
290.407
290.467
290.529
290.594
290.667
290.749
290.843
290.958
291.087
291.233
291.391
291.546
291.691
291.82
291.921
291.992
292.033
292.05
292.053
292.043
292.014
291.977
291.935
291.893
291.849
291.807
291.769
291.735
291.703
291.676
291.655
291.638
291.629
291.623
291.622
291.621
291.621
291.619
291.628
291.658
291.723
291.83
291.998
292.202
292.432
292.658
292.862
293.037
293.18
293.291
293.367
293.408
293.421
293.419
293.394
293.352
293.295
293.225
293.155
293.084
293.008
292.934
292.859
292.788
292.718
292.649
292.581
292.517
292.46
292.402
292.346
292.286
292.23
292.179
292.133
292.092
292.054
292.02
291.989
291.958
291.925
291.891
291.857
291.823
291.791
291.76
291.735
291.712
291.691
291.67
291.652
291.636
291.62
291.604
291.584
291.555
291.52
291.478
291.427
291.367
291.295
291.206
291.102
290.99
290.873
290.746
290.614
290.48
290.347
290.219
290.103
289.999
289.903
289.814
289.736
289.666
289.609
289.563
289.528
289.507
289.491
289.493
289.503
289.526
289.568
289.621
289.683
289.755
289.843
289.955
290.097
290.266
290.448
290.621
290.766
290.882
290.982
291.077
291.173
291.249
291.265
291.252
291.186
291.069
290.967
290.908
290.905
290.9
290.905
290.927
290.973
291.043
291.111
291.179
291.252
291.341
291.449
291.581
291.744
291.937
292.163
292.409
292.675
292.96
293.252
293.545
293.83
294.104
294.363
294.604
294.828
295.039
295.227
295.387
295.524
295.637
295.719
295.74
295.724
295.649
295.497
295.276
295.01
294.717
294.399
294.046
293.664
293.281
292.926
292.619
292.354
292.117
291.899
291.716
291.582
291.503
291.458
291.426
291.385
291.331
291.268
291.206
291.164
291.128
291.102
291.08
291.055
291.025
290.988
290.947
290.942
290.945
290.971
291.014
291.054
291.092
291.15
291.255
291.438
291.705
292.026
292.322
292.513
292.589
292.588
292.536
292.443
292.323
292.19
292.056
291.933
291.825
291.746
291.695
291.667
291.654
291.652
291.668
291.696
291.739
291.794
291.86
291.935
292.014
292.097
292.178
292.261
292.337
292.41
292.48
292.538
292.589
292.631
292.66
292.673
292.667
292.641
292.596
292.532
292.441
292.329
292.193
292.023
291.835
291.635
291.43
291.225
291.025
290.835
290.674
290.548
290.457
290.387
290.36
290.374
290.432
290.56
290.765
291.042
291.348
291.634
291.868
292.043
292.159
292.21
292.226
292.234
292.254
292.293
292.342
292.396
292.46
292.53
292.597
292.648
292.672
292.686
292.68
292.657
292.635
292.607
292.573
292.53
292.49
292.452
292.414
292.377
292.342
292.309
292.279
292.252
292.231
292.215
292.205
292.199
292.203
292.207
292.221
292.24
292.268
292.303
292.346
292.397
292.454
292.519
292.592
292.672
292.758
292.849
292.945
293.044
293.144
293.243
293.342
293.436
293.522
293.599
293.673
293.747
293.817
293.887
293.951
293.984
293.974
293.932
293.854
293.75
293.64
293.548
293.478
293.419
293.357
293.281
293.191
293.09
292.994
292.917
292.859
292.816
292.78
292.745
292.709
292.677
292.662
292.665
292.669
292.663
292.653
292.649
292.655
292.672
292.701
292.729
292.75
292.762
292.769
292.777
292.783
292.79
292.799
292.813
292.822
292.829
292.835
292.84
292.844
292.849
292.855
292.86
292.863
292.865
292.865
292.863
292.859
292.853
292.847
292.839
292.831
292.825
292.824
292.83
292.842
292.854
292.863
292.865
292.865
292.868
292.878
292.898
292.93
292.968
293.003
293.026
293.044
293.057
293.07
293.083
293.096
293.11
293.123
293.131
293.132
293.131
293.126
293.119
293.111
293.1
293.087
293.071
293.051
293.027
293
292.97
292.94
292.911
292.883
292.856
292.829
292.803
292.776
292.749
292.723
292.699
292.676
292.656
292.639
292.624
292.611
292.6
292.592
292.586
292.583
292.583
292.585
292.589
292.597
292.606
292.618
292.632
292.649
292.667
292.688
292.71
292.733
292.758
292.784
292.81
292.838
292.866
292.894
292.923
292.953
292.982
293.012
293.042
293.072
293.102
293.132
293.162
293.193
293.231
289.263
289.283
289.302
289.338
289.388
289.451
289.526
289.611
289.703
289.797
289.89
289.978
290.058
290.13
290.194
290.252
290.306
290.358
290.409
290.467
290.527
290.59
290.661
290.741
290.837
290.952
291.09
291.246
291.418
291.596
291.76
291.901
292.012
292.088
292.128
292.14
292.134
292.098
292.049
291.997
291.941
291.876
291.814
291.754
291.699
291.649
291.605
291.566
291.532
291.507
291.49
291.483
291.481
291.49
291.506
291.523
291.545
291.579
291.634
291.723
291.853
292.026
292.238
292.467
292.694
292.901
293.076
293.218
293.325
293.398
293.435
293.444
293.437
293.403
293.352
293.284
293.196
293.107
293.004
292.906
292.809
292.713
292.605
292.491
292.379
292.269
292.168
292.078
292.007
291.956
291.913
291.879
291.854
291.837
291.828
291.826
291.83
291.836
291.835
291.832
291.826
291.814
291.796
291.77
291.738
291.702
291.662
291.618
291.573
291.531
291.49
291.447
291.402
291.356
291.298
291.233
291.161
291.08
290.988
290.889
290.778
290.653
290.514
290.369
290.222
290.072
289.924
289.78
289.645
289.524
289.421
289.333
289.255
289.187
289.129
289.085
289.054
289.032
289.018
289.01
289.009
289.015
289.029
289.057
289.094
289.139
289.192
289.26
289.351
289.473
289.625
289.801
289.988
290.17
290.337
290.488
290.634
290.793
290.96
291.113
291.21
291.229
291.218
291.17
291.1
291.038
290.982
290.937
290.91
290.901
290.914
290.94
290.981
291.029
291.106
291.201
291.323
291.48
291.669
291.891
292.137
292.405
292.686
292.973
293.256
293.529
293.79
294.037
294.271
294.492
294.709
294.924
295.138
295.349
295.548