/*--------------------------------*- C++ -*----------------------------------*\
| =========                 |                                                 |
| \\      /  F ield         | OpenFOAM: The Open Source CFD Toolbox           |
|  \\    /   O peration     | Version:  v1812                                 |
|   \\  /    A nd           | Web:      www.OpenFOAM.com                      |
|    \\/     M anipulation  |                                                 |
\*---------------------------------------------------------------------------*/
FoamFile
{
    version     2.0;
    format      ascii;
    class       volVectorField;
    location    "1.2";
    object      U;
}
// * * * * * * * * * * * * * * * * * * * * * * * * * * * * * * * * * * * * * //

dimensions      [0 1 -1 0 0 0 0];


internalField   nonuniform List<vector> 
20400
(
(-0.0598994 0.0176769 0)
(-0.178368 -0.00258412 0)
(-0.313894 -0.0177158 0)
(-0.442548 -0.0703027 0)
(-0.5595 -0.092138 0)
(-0.677921 -0.0839558 0)
(-0.798904 -0.0630262 0)
(-0.921214 -0.052514 0)
(-1.04188 -0.0556014 0)
(-1.16088 -0.0637947 0)
(-1.27841 -0.0716221 0)
(-1.39257 -0.0799999 0)
(-1.50128 -0.0902928 0)
(-1.60556 -0.101135 0)
(-1.70943 -0.114427 0)
(-1.81801 -0.137167 0)
(-1.93459 -0.169592 0)
(-2.04697 -0.193319 0)
(-2.13603 -0.219099 0)
(-2.18839 0.209723 0)
(-2.18957 0.147525 0)
(-2.20202 0.146913 0)
(-2.22669 0.131744 0)
(-2.2526 0.107761 0)
(-2.28071 0.118218 0)
(-2.32119 0.109211 0)
(-2.3511 0.190355 0)
(-2.37059 0.268027 0)
(-2.40379 -0.47906 0)
(-2.47831 -0.448475 0)
(-2.58126 -0.400402 0)
(-2.72048 -0.389977 0)
(-2.90008 -0.402486 0)
(-3.11738 -0.407524 0)
(-3.30644 -0.438169 0)
(-3.40099 -0.0699813 0)
(-3.43021 0.17041 0)
(-3.56205 0.219673 0)
(-3.70646 0.214672 0)
(-3.8471 0.209255 0)
(-3.98485 0.199497 0)
(-4.14818 0.139944 0)
(-4.3573 0.05455 0)
(-4.58106 -0.116793 0)
(-4.80779 -0.332867 0)
(-5.09794 -0.409739 0)
(-5.39224 -0.343533 0)
(-5.42553 0.653583 0)
(-5.44223 0.568305 0)
(-5.43563 0.599012 0)
(-5.40541 0.575398 0)
(-5.34165 0.560209 0)
(-5.25012 0.606367 0)
(-5.12616 0.688522 0)
(-4.99926 0.804475 0)
(-4.93009 0.928835 0)
(-4.77828 0.573628 0)
(-4.72205 -0.792487 0)
(-4.57626 -0.754644 0)
(-4.44508 -0.347994 0)
(-4.37913 0.279207 0)
(-4.33998 -0.637941 0)
(-4.22977 -0.645406 0)
(-4.156 -0.545809 0)
(-4.07879 -0.424866 0)
(-4.1852 -0.177357 0)
(-4.178 0.566135 0)
(-4.13906 0.417015 0)
(-4.06625 0.345444 0)
(-4.07977 0.287173 0)
(-4.18025 0.248024 0)
(-4.33907 0.147855 0)
(-4.58071 0.113811 0)
(-4.86977 0.167821 0)
(-5.19976 0.196864 0)
(-5.55083 0.21282 0)
(-5.93226 0.205465 0)
(-6.32521 0.153998 0)
(-6.71106 0.0860132 0)
(-7.08321 0.0147349 0)
(-7.44332 -0.0379806 0)
(-7.80834 -0.0573766 0)
(-8.18154 -0.05868 0)
(-8.54554 -0.0432184 0)
(-8.8837 -0.024652 0)
(-9.19331 -0.0147276 0)
(-9.45782 -0.0155688 0)
(-9.66736 -0.0172675 0)
(-9.82524 -0.0338764 0)
(-9.93216 -0.0614493 0)
(-9.98979 -0.0969219 0)
(-9.99383 -0.191364 0)
(-9.96971 -0.235083 0)
(-9.94978 -0.251891 0)
(-9.95978 -0.277141 0)
(-9.99252 -0.303796 0)
(-10.0318 -0.322955 0)
(-10.0423 -0.350581 0)
(-9.94046 -0.403599 0)
(-9.76017 -0.417764 0)
(-9.58485 -0.396477 0)
(-9.42955 -0.37184 0)
(-9.29094 -0.353108 0)
(-9.16054 -0.339257 0)
(-9.02834 -0.327307 0)
(-8.8831 -0.315883 0)
(-8.71443 -0.300875 0)
(-8.52064 -0.276908 0)
(-8.30861 -0.243526 0)
(-8.08395 -0.208686 0)
(-7.84564 -0.209884 0)
(-7.59258 -0.211134 0)
(-7.31903 -0.198007 0)
(-7.01974 -0.165185 0)
(-6.68267 -0.101419 0)
(-6.30811 0.0433762 0)
(-5.97195 0.36293 0)
(-5.77439 0.71409 0)
(-5.48313 0.789285 0)
(-5.17999 0.74215 0)
(-4.89218 0.497237 0)
(-4.54973 0.21081 0)
(-4.13868 0.0472751 0)
(-3.71244 -0.035019 0)
(-3.27523 -0.0817863 0)
(-2.83434 -0.111062 0)
(-2.38529 -0.138245 0)
(-1.92583 -0.194304 0)
(-1.51961 -0.385934 0)
(-1.08972 -0.403714 0)
(-0.660586 -0.403216 0)
(-0.230008 -0.387397 0)
(0.16803 -0.263872 0)
(0.537815 -0.136677 0)
(0.883902 -0.0407919 0)
(1.18762 0.0477497 0)
(1.4436 0.124783 0)
(1.66149 0.186171 0)
(1.83971 0.228462 0)
(1.98997 0.22814 0)
(2.09939 0.123677 0)
(2.17924 0.0317159 0)
(2.1882 -0.0284238 0)
(2.1648 -0.0270403 0)
(2.11102 -0.0175457 0)
(2.02499 -0.0304284 0)
(1.92334 -0.0696213 0)
(1.81894 -0.10759 0)
(1.70571 -0.127892 0)
(1.57697 -0.124955 0)
(1.42464 -0.101718 0)
(1.24644 -0.0665684 0)
(1.05312 -0.0546873 0)
(0.880618 -0.121343 0)
(0.807626 -0.273794 0)
(0.789193 -0.332762 0)
(0.802231 -0.262589 0)
(0.798534 -0.0361125 0)
(0.701405 0.115414 0)
(0.548533 0.155542 0)
(0.382414 0.169486 0)
(0.205198 0.177826 0)
(0.00889543 0.163307 0)
(-0.201773 0.0972354 0)
(-0.439163 0.057406 0)
(-0.715332 0.0310506 0)
(-1.03943 0.00699116 0)
(-1.41274 -0.016889 0)
(-1.80528 -0.0853268 0)
(-2.16103 -0.177671 0)
(-2.50728 -0.195742 0)
(-2.84951 -0.195785 0)
(-3.15809 -0.226622 0)
(-3.42523 -0.245115 0)
(-3.65837 -0.244927 0)
(-3.86494 -0.211552 0)
(-4.045 -0.0974105 0)
(-4.14495 0.0905256 0)
(-4.24309 0.180303 0)
(-4.23892 0.283193 0)
(-4.18679 0.269602 0)
(-4.07847 0.254306 0)
(-3.92878 0.237922 0)
(-3.74478 0.221495 0)
(-3.53914 0.202139 0)
(-3.31944 0.178496 0)
(-3.09364 0.153464 0)
(-2.87134 0.124458 0)
(-2.65397 0.0850957 0)
(-2.44527 0.0466799 0)
(-2.25314 -0.00953183 0)
(-2.05357 -0.0683209 0)
(-1.85417 -0.0879362 0)
(-1.63187 -0.0960927 0)
(-1.49058 -0.135507 0)
(-1.4227 -0.124634 0)
(-1.37731 -0.0791099 0)
(-1.36171 -0.158226 0)
(-1.36781 -0.205177 0)
(-1.37562 -0.220242 0)
(-1.41015 -0.215276 0)
(-1.46524 -0.223226 0)
(-1.52552 -0.231396 0)
(-1.59169 -0.228599 0)
(-1.67689 -0.2182 0)
(-1.78579 -0.209484 0)
(-1.91534 -0.204874 0)
(-2.06136 -0.204598 0)
(-2.21574 -0.204833 0)
(-2.372 -0.1981 0)
(-2.52711 -0.183849 0)
(-2.67387 -0.162015 0)
(-2.83815 -0.141547 0)
(-3.03711 -0.0757355 0)
(-3.2625 -0.0461166 0)
(-3.4921 -0.0310569 0)
(-3.69838 -0.00882829 0)
(-3.89103 0.0173301 0)
(-4.0745 0.0430368 0)
(-4.25868 0.0656358 0)
(-4.43742 0.0712575 0)
(-4.58807 0.0632518 0)
(-4.69845 0.0489462 0)
(-4.77087 0.0409912 0)
(-4.81303 0.0308095 0)
(-4.8306 0.0252703 0)
(-4.84091 0.0317766 0)
(-4.86192 0.0443344 0)
(-4.9116 0.0639686 0)
(-4.98872 0.0731302 0)
(-5.05446 0.0478264 0)
(-5.08878 0.0349768 0)
(-5.10655 0.0278824 0)
(-5.10682 -0.0106834 0)
(-5.07446 -0.0424462 0)
(-5.01108 -0.0726361 0)
(-4.91136 -0.0951599 0)
(-4.78065 -0.104072 0)
(-4.62828 -0.0937865 0)
(-4.46995 -0.0635716 0)
(-4.31228 -0.0312338 0)
(-4.15388 -0.0186914 0)
(-3.99677 -0.00621657 0)
(-3.84085 5.92068e-06 0)
(-3.68758 0.00402342 0)
(-3.53625 0.00151908 0)
(-3.39224 -0.00711348 0)
(-3.26814 -0.0090814 0)
(-3.17646 0.00182998 0)
(-3.12401 0.0137838 0)
(-3.11032 0.0211596 0)
(-3.1192 0.0341202 0)
(-3.149 0.0610377 0)
(-3.2128 0.0854521 0)
(-3.30441 0.103383 0)
(-3.41965 0.123387 0)
(-3.56086 0.147381 0)
(-3.72546 0.165888 0)
(-3.90217 0.177831 0)
(-4.08484 0.18925 0)
(-4.27452 0.200688 0)
(-4.46358 0.198227 0)
(-4.63682 0.185763 0)
(-4.79822 0.187658 0)
(-4.96089 0.191972 0)
(-5.12511 0.189606 0)
(-5.27947 0.172019 0)
(-5.41473 0.135824 0)
(-5.50422 0.0691276 0)
(-5.59566 0.0465255 0)
(-5.66403 0.00622711 0)
(-5.69863 -0.0238107 0)
(-5.71272 -0.0447412 0)
(-5.69468 -0.0684988 0)
(-5.64168 -0.0937783 0)
(-5.54952 -0.118363 0)
(-5.41824 -0.134282 0)
(-5.25589 -0.142496 0)
(-5.06581 -0.156905 0)
(-4.85786 -0.160354 0)
(-4.64748 -0.160024 0)
(-4.43035 -0.169047 0)
(-4.19442 -0.176776 0)
(-3.95093 -0.16886 0)
(-3.71582 -0.154749 0)
(-3.49234 -0.139836 0)
(-3.28121 -0.124509 0)
(-3.06029 -0.0851546 0)
(-2.87261 -0.00567361 0)
(-2.70203 0.0246239 0)
(-2.52757 0.0338425 0)
(-2.356 0.0370521 0)
(-2.18486 0.028956 0)
(-2.0041 0.0115905 0)
(-1.82592 0.00216856 0)
(-1.65625 -0.0102405 0)
(-1.49409 -0.0196225 0)
(-1.34807 -0.0224091 0)
(-1.21658 -0.0302635 0)
(-1.09292 -0.0392864 0)
(-0.975215 -0.0506841 0)
(-0.862209 -0.0589962 0)
(-0.756433 -0.0648951 0)
(-0.660949 -0.0628332 0)
(-0.584642 -0.046477 0)
(-0.534649 -0.0207892 0)
(-0.510887 0.00266462 0)
(-0.512135 0.0145428 0)
(-0.529992 0.0226113 0)
(-0.552607 0.0230735 0)
(-0.582633 0.0339401 0)
(-0.631357 0.0510396 0)
(-0.703059 0.0737578 0)
(-0.800052 0.093972 0)
(-0.916059 0.109116 0)
(-1.05101 0.128605 0)
(-1.20497 0.14246 0)
(-1.37316 0.156674 0)
(-1.55643 0.168788 0)
(-1.74312 0.166817 0)
(-1.91789 0.159265 0)
(-2.08912 0.167387 0)
(-2.27061 0.178291 0)
(-2.45951 0.181572 0)
(-2.64666 0.175362 0)
(-2.82694 0.170317 0)
(-3.00934 0.169534 0)
(-3.18781 0.155452 0)
(-3.35977 0.14483 0)
(-3.52183 0.128468 0)
(-3.67393 0.112955 0)
(-3.81863 0.104393 0)
(-3.95052 0.0721545 0)
(-4.04722 0.0338052 0)
(-4.11982 0.0169303 0)
(-4.19481 0.0375884 0)
(-4.27549 0.0215125 0)
(-4.34443 0.0104135 0)
(-4.3954 -0.006115 0)
(-4.41735 -0.015671 0)
(-4.41869 -0.0179826 0)
(-4.40624 -0.0227879 0)
(-4.3751 -0.0180291 0)
(-4.32579 -0.00611479 0)
(-4.25242 0.00750243 0)
(-4.19508 0.0971492 0)
(-4.10629 0.154135 0)
(-4.02071 0.190566 0)
(-3.91941 0.202925 0)
(-3.80553 0.211589 0)
(-3.68371 0.216252 0)
(-3.55936 0.218692 0)
(-3.43675 0.220521 0)
(-3.3231 0.221131 0)
(-3.21758 0.215352 0)
(-3.11307 0.202696 0)
(-3.00598 0.183523 0)
(-2.88619 0.157783 0)
(-2.7677 0.144282 0)
(-2.66654 0.128651 0)
(-2.57212 0.107094 0)
(-2.48291 0.0834884 0)
(-2.39898 0.0609107 0)
(-2.32165 0.0394941 0)
(-2.25882 0.0282867 0)
(-2.21086 0.012479 0)
(-2.17785 0.00796753 0)
(-2.1679 -0.00514541 0)
(-2.15885 -0.00846823 0)
(-2.15609 -0.0178497 0)
(-2.1469 -0.0268862 0)
(-2.13239 -0.0282445 0)
(-2.11818 -0.0206741 0)
(-2.1135 -0.00561869 0)
(-2.11655 0.00994173 0)
(-2.14371 0.0344827 0)
(-2.19608 0.0726431 0)
(-2.2574 0.0662676 0)
(-2.30013 0.0546108 0)
(-2.33286 0.0538277 0)
(-2.36056 0.0604781 0)
(-2.39237 0.0724724 0)
(-2.43435 0.0889259 0)
(-2.49383 0.108757 0)
(-2.56821 0.119839 0)
(-2.64316 0.120446 0)
(-2.70866 0.111485 0)
(-2.75504 0.100329 0)
(-2.78863 0.0984737 0)
(-2.82206 0.103677 0)
(-2.8638 0.113979 0)
(-2.91946 0.120621 0)
(-2.97256 0.109762 0)
(-3.01088 0.0999086 0)
(-3.04215 0.0954084 0)
(-3.0731 0.0965515 0)
(-3.11029 0.096393 0)
(-3.14305 0.0835816 0)
(-3.16461 0.0734609 0)
(-3.18081 0.0654386 0)
(-3.19015 0.0547364 0)
(-3.19121 0.0454597 0)
(-3.18521 0.0400986 0)
(-3.17807 0.0273297 0)
(-3.16083 0.0154253 0)
(-3.13949 0.00769142 0)
(-3.11666 0.00179629 0)
(-3.09185 -0.00436275 0)
(-3.06686 -0.0102979 0)
(-3.04192 -0.0163976 0)
(-3.01566 -0.0228397 0)
(-2.98729 -0.0308209 0)
(-2.95548 -0.0376116 0)
(-2.92098 -0.0440452 0)
(-2.88382 -0.0494561 0)
(-2.84441 -0.054619 0)
(-2.80162 -0.0605245 0)
(-2.75438 -0.0660008 0)
(-2.70375 -0.0685219 0)
(-2.65364 -0.0666459 0)
(-2.60554 -0.0657445 0)
(-2.55261 -0.0561014 0)
(-2.50058 -0.0231742 0)
(-2.45429 -0.00571806 0)
(-2.41157 0.00731947 0)
(-2.36543 0.0128726 0)
(-2.31712 0.0135593 0)
(-2.26604 0.0117009 0)
(-2.21322 0.0096907 0)
(-2.16202 0.0103103 0)
(-2.11576 0.0133594 0)
(-2.07793 0.0182403 0)
(-2.04824 0.0203448 0)
(-2.0232 0.0207974 0)
(-2.00143 0.020325 0)
(-1.9814 0.0181285 0)
(-1.96066 0.0134623 0)
(-1.93683 0.00640462 0)
(-1.90806 -0.00172167 0)
(-1.87443 -0.00530272 0)
(-1.84691 0.00329164 0)
(-1.83577 0.0134103 0)
(-1.83564 0.0142315 0)
(-1.84141 0.0160189 0)
(-1.85127 0.0158231 0)
(-1.86344 0.0141474 0)
(-1.87629 0.0116525 0)
(-1.88951 0.00969314 0)
(-1.90339 0.00844388 0)
(-1.91802 0.00692633 0)
(-1.93257 0.00474263 0)
(-1.94691 0.00330885 0)
(-1.96311 0.00363042 0)
(-1.98239 0.00446086 0)
(-2.00464 0.00538864 0)
(-2.02964 0.00583703 0)
(-2.05669 0.00588973 0)
(-2.08553 0.00591243 0)
(-2.11591 0.00554379 0)
(-2.14684 0.004449 0)
(-2.17776 0.00335954 0)
(-2.20834 0.00284654 0)
(-2.2403 0.00304918 0)
(-2.27329 0.00307276 0)
(-2.30706 0.0032473 0)
(-2.34168 0.00327779 0)
(-2.37676 0.00313211 0)
(-2.4119 0.00287303 0)
(-2.44671 0.00271354 0)
(-2.48118 0.00279378 0)
(-2.51548 0.00295589 0)
(-2.54955 0.00309935 0)
(-2.58323 0.00321955 0)
(-2.61638 0.00334259 0)
(-2.6489 0.00350666 0)
(-2.68079 0.00373234 0)
(-2.71204 0.00421287 0)
(-2.74259 0.00492244 0)
(-2.77237 0.00576035 0)
(-2.80134 0.00674473 0)
(-2.82941 0.00785818 0)
(-2.85631 0.0091159 0)
(-2.8821 0.0105189 0)
(-2.90696 0.0121167 0)
(-2.93063 0.0139697 0)
(-2.95308 0.0160419 0)
(-2.97416 0.0182733 0)
(-2.99376 0.0206174 0)
(-3.01166 0.0223728 0)
(-3.0264 0.02598 0)
(-3.0383 0.0261341 0)
(-3.04631 0.0269539 0)
(-3.04968 0.0285678 0)
(-3.04694 0.0276101 0)
(-3.03451 0.021183 0)
(-3.00966 0.0147075 0)
(-2.97524 0.011552 0)
(-2.93604 0.0144827 0)
(-2.90415 0.0245393 0)
(-2.8814 0.0241906 0)
(-0.0573899 0.0551061 0)
(-0.20108 0.0757141 0)
(-0.369188 0.11413 0)
(-0.559425 0.0868346 0)
(-0.75268 0.0781891 0)
(-0.947195 0.0734646 0)
(-1.13395 0.065424 0)
(-1.31308 0.0597908 0)
(-1.48834 0.0586293 0)
(-1.66267 0.0600267 0)
(-1.83677 0.0602717 0)
(-2.00788 0.0573583 0)
(-2.1716 0.0536395 0)
(-2.32446 0.0541338 0)
(-2.46513 0.0621072 0)
(-2.59286 0.081101 0)
(-2.7085 0.102193 0)
(-2.81156 0.0980463 0)
(-2.90556 0.0495762 0)
(-2.95581 -0.129234 0)
(-3.08972 -0.11658 0)
(-3.23875 -0.103999 0)
(-3.40633 -0.0849642 0)
(-3.58587 -0.0891515 0)
(-3.7506 -0.0780467 0)
(-3.85901 -0.0721279 0)
(-3.8924 -0.115626 0)
(-3.86758 -0.165488 0)
(-3.9139 0.181023 0)
(-4.16364 0.258192 0)
(-4.37541 0.263163 0)
(-4.56667 0.308362 0)
(-4.75681 0.380838 0)
(-4.98803 0.41179 0)
(-5.27588 0.239151 0)
(-5.6317 0.00433378 0)
(-6.02835 -0.0438989 0)
(-6.42635 0.0215518 0)
(-6.86222 0.0363105 0)
(-7.31041 0.0179126 0)
(-7.71785 0.03181 0)
(-7.9963 0.133004 0)
(-8.14486 0.20306 0)
(-8.22454 0.305451 0)
(-8.29094 0.411846 0)
(-8.34628 0.474334 0)
(-8.43841 0.27026 0)
(-8.54216 -0.273883 0)
(-8.76449 -0.256527 0)
(-8.8983 -0.308993 0)
(-8.93417 -0.349467 0)
(-8.90146 -0.382944 0)
(-8.79164 -0.459888 0)
(-8.60135 -0.543109 0)
(-8.3596 -0.576603 0)
(-8.11287 -0.54631 0)
(-7.94142 -0.553846 0)
(-7.92596 0.165482 0)
(-7.97235 0.0158317 0)
(-7.9027 -0.101288 0)
(-7.85369 -0.287068 0)
(-7.85939 0.102877 0)
(-7.92712 0.102031 0)
(-7.971 0.0714871 0)
(-7.99142 0.101375 0)
(-8.00047 0.130156 0)
(-8.08116 -0.411889 0)
(-8.35539 -0.418776 0)
(-8.68789 -0.311964 0)
(-9.08614 -0.185793 0)
(-9.54382 -0.0173012 0)
(-10.0788 0.155957 0)
(-10.7096 0.274621 0)
(-11.408 0.327293 0)
(-12.1349 0.346276 0)
(-12.8663 0.375595 0)
(-13.5871 0.427672 0)
(-14.2517 0.453239 0)
(-14.8313 0.476635 0)
(-15.3391 0.486612 0)
(-15.8012 0.503826 0)
(-16.2488 0.527502 0)
(-16.6896 0.527362 0)
(-17.1111 0.485601 0)
(-17.5036 0.429764 0)
(-17.8655 0.374461 0)
(-18.1837 0.294534 0)
(-18.4571 0.216048 0)
(-18.6884 0.157446 0)
(-18.8611 0.0912019 0)
(-18.9463 0.0188035 0)
(-18.9535 -0.00563364 0)
(-18.8625 0.0211677 0)
(-18.6426 0.0720456 0)
(-18.3058 0.11765 0)
(-17.9089 0.148314 0)
(-17.5134 0.128846 0)
(-17.1385 0.0786757 0)
(-16.8487 -0.103987 0)
(-16.5248 -0.128074 0)
(-16.1864 -0.103268 0)
(-15.8216 -0.0827054 0)
(-15.4363 -0.0707765 0)
(-15.0339 -0.0714257 0)
(-14.6165 -0.084133 0)
(-14.1842 -0.112204 0)
(-13.7347 -0.149811 0)
(-13.268 -0.18496 0)
(-12.7881 -0.211568 0)
(-12.2999 -0.234751 0)
(-11.8089 -0.250895 0)
(-11.3188 -0.269609 0)
(-10.8294 -0.296506 0)
(-10.3396 -0.336882 0)
(-9.84432 -0.397084 0)
(-9.28787 -0.433348 0)
(-8.62784 -0.424823 0)
(-7.85578 -0.4394 0)
(-7.03155 -0.598419 0)
(-6.18002 -0.659035 0)
(-5.40874 -0.714518 0)
(-4.77145 -0.727076 0)
(-4.25587 -0.711656 0)
(-3.79076 -0.70375 0)
(-3.33392 -0.698516 0)
(-2.88462 -0.681278 0)
(-2.43005 -0.698797 0)
(-1.91886 -0.850454 0)
(-1.21042 -0.992767 0)
(-0.387016 -1.01016 0)
(0.434305 -0.911325 0)
(1.21168 -0.792376 0)
(1.97612 -0.771902 0)
(2.75496 -0.758202 0)
(3.51685 -0.724973 0)
(4.20644 -0.670042 0)
(4.80369 -0.633201 0)
(5.3214 -0.607438 0)
(5.76535 -0.551704 0)
(6.14624 -0.473319 0)
(6.44091 -0.30322 0)
(6.58094 -0.0668352 0)
(6.64281 0.0830466 0)
(6.62241 0.150728 0)
(6.55726 0.203837 0)
(6.44072 0.280451 0)
(6.24639 0.338077 0)
(5.99978 0.394488 0)
(5.7018 0.445877 0)
(5.35295 0.497576 0)
(4.94915 0.540919 0)
(4.49229 0.571328 0)
(3.98396 0.566269 0)
(3.41818 0.538217 0)
(2.77628 0.622927 0)
(2.06445 0.691125 0)
(1.36201 0.605106 0)
(0.848599 0.375522 0)
(0.592776 0.208895 0)
(0.390526 0.262995 0)
(0.15881 0.29318 0)
(-0.104027 0.314882 0)
(-0.394709 0.347261 0)
(-0.709183 0.370106 0)
(-1.03572 0.402496 0)
(-1.37002 0.450711 0)
(-1.7092 0.496642 0)
(-2.04074 0.536776 0)
(-2.39532 0.538512 0)
(-2.78915 0.507817 0)
(-3.18586 0.483389 0)
(-3.49501 0.428747 0)
(-3.74383 0.364376 0)
(-3.9649 0.309941 0)
(-4.15314 0.256789 0)
(-4.30751 0.206676 0)
(-4.42256 0.145522 0)
(-4.49679 0.0773566 0)
(-4.53283 -0.00298273 0)
(-4.51038 -0.084494 0)
(-4.44864 -0.185613 0)
(-4.33604 -0.253669 0)
(-4.19095 -0.313147 0)
(-4.00832 -0.358273 0)
(-3.79703 -0.390585 0)
(-3.5634 -0.413882 0)
(-3.31411 -0.4221 0)
(-3.05814 -0.417625 0)
(-2.80021 -0.412771 0)
(-2.5491 -0.392691 0)
(-2.3103 -0.383171 0)
(-2.08792 -0.39498 0)
(-1.86396 -0.389612 0)
(-1.6655 -0.378695 0)
(-1.46892 -0.342263 0)
(-1.32002 -0.20917 0)
(-1.32983 -0.0721016 0)
(-1.41922 -0.032298 0)
(-1.51966 -0.0314808 0)
(-1.63472 -0.00286764 0)
(-1.77159 0.0418816 0)
(-1.93224 0.0641009 0)
(-2.10889 0.0723168 0)
(-2.30011 0.0925457 0)
(-2.50719 0.126558 0)
(-2.73005 0.158089 0)
(-2.96344 0.183049 0)
(-3.20532 0.197472 0)
(-3.44643 0.19841 0)
(-3.68606 0.197187 0)
(-3.92184 0.198782 0)
(-4.14262 0.209347 0)
(-4.33178 0.239188 0)
(-4.60909 0.222241 0)
(-4.96607 0.202961 0)
(-5.32277 0.188626 0)
(-5.66359 0.174832 0)
(-5.98598 0.167928 0)
(-6.28823 0.166082 0)
(-6.57373 0.171516 0)
(-6.83957 0.150979 0)
(-7.07917 0.113981 0)
(-7.28932 0.0671566 0)
(-7.47595 0.0316481 0)
(-7.63864 -0.00233668 0)
(-7.77742 -0.0216564 0)
(-7.9002 -0.0152681 0)
(-8.01082 0.00953779 0)
(-8.10801 0.0548966 0)
(-8.20126 0.0641815 0)
(-8.27289 0.0373834 0)
(-8.31883 0.00448106 0)
(-8.34973 -0.00502151 0)
(-8.34845 -0.0183723 0)
(-8.29364 -0.0446107 0)
(-8.18071 -0.0809115 0)
(-8.02878 -0.116562 0)
(-7.86241 -0.14765 0)
(-7.69557 -0.16744 0)
(-7.53882 -0.176786 0)
(-7.39883 -0.18804 0)
(-7.26919 -0.191695 0)
(-7.14367 -0.195251 0)
(-7.02618 -0.195485 0)
(-6.92211 -0.194352 0)
(-6.83297 -0.191039 0)
(-6.76258 -0.168938 0)
(-6.71878 -0.127261 0)
(-6.70647 -0.0751362 0)
(-6.7283 -0.011908 0)
(-6.80178 0.0306528 0)
(-6.92209 0.0523824 0)
(-7.08265 0.0834274 0)
(-7.27983 0.123957 0)
(-7.5102 0.154064 0)
(-7.76873 0.182655 0)
(-8.0546 0.21231 0)
(-8.36244 0.23044 0)
(-8.68109 0.235413 0)
(-9.00585 0.238782 0)
(-9.33761 0.242337 0)
(-9.6667 0.227601 0)
(-9.97581 0.206972 0)
(-10.2564 0.199322 0)
(-10.4929 0.205872 0)
(-10.6676 0.199951 0)
(-10.7761 0.187358 0)
(-10.8213 0.155859 0)
(-10.8068 0.145713 0)
(-10.7068 0.157095 0)
(-10.5434 0.116779 0)
(-10.3365 0.0923011 0)
(-10.1051 0.0662843 0)
(-9.85095 0.0304562 0)
(-9.57626 -0.0140714 0)
(-9.28035 -0.0633657 0)
(-8.96199 -0.106154 0)
(-8.62486 -0.14318 0)
(-8.26809 -0.175032 0)
(-7.89555 -0.18589 0)
(-7.52176 -0.187931 0)
(-7.15293 -0.205715 0)
(-6.7859 -0.227874 0)
(-6.41811 -0.227936 0)
(-6.05256 -0.219366 0)
(-5.69311 -0.208778 0)
(-5.35 -0.202787 0)
(-5.02964 -0.21842 0)
(-4.81031 -0.205122 0)
(-4.66397 -0.220066 0)
(-4.50823 -0.237377 0)
(-4.33929 -0.24268 0)
(-4.15779 -0.255582 0)
(-3.96667 -0.272143 0)
(-3.77381 -0.261704 0)
(-3.58681 -0.255257 0)
(-3.40676 -0.24016 0)
(-3.23968 -0.218115 0)
(-3.08428 -0.206279 0)
(-2.94033 -0.195574 0)
(-2.80834 -0.189706 0)
(-2.68836 -0.179813 0)
(-2.5811 -0.169781 0)
(-2.48745 -0.149044 0)
(-2.42293 -0.124757 0)
(-2.40339 -0.10598 0)
(-2.41827 -0.0796667 0)
(-2.4685 -0.0603721 0)
(-2.55292 -0.0463328 0)
(-2.65586 -0.0442956 0)
(-2.77411 -0.0270371 0)
(-2.91558 -0.00419939 0)
(-3.08193 0.0246231 0)
(-3.27377 0.0488601 0)
(-3.48569 0.0670607 0)
(-3.71918 0.0901678 0)
(-3.97493 0.105445 0)
(-4.24881 0.121193 0)
(-4.54243 0.132773 0)
(-4.84969 0.121309 0)
(-5.15765 0.102616 0)
(-5.46364 0.107976 0)
(-5.76288 0.11875 0)
(-6.04507 0.121506 0)
(-6.30109 0.115845 0)
(-6.52972 0.110468 0)
(-6.73715 0.11938 0)
(-6.91036 0.114231 0)
(-7.05324 0.110858 0)
(-7.17393 0.104171 0)
(-7.26853 0.0968386 0)
(-7.34586 0.0937942 0)
(-7.39888 0.0733427 0)
(-7.40505 0.041456 0)
(-7.36951 0.029932 0)
(-7.33586 0.0346181 0)
(-7.28537 0.0417429 0)
(-7.1765 0.0254424 0)
(-7.07059 0.000953427 0)
(-6.95417 -0.0295488 0)
(-6.79645 -0.0514431 0)
(-6.61841 -0.0681856 0)
(-6.44998 -0.0855218 0)
(-6.26807 -0.108376 0)
(-6.04241 -0.121195 0)
(-5.85281 -0.137954 0)
(-5.74026 -0.174237 0)
(-5.64833 -0.188387 0)
(-5.53249 -0.215763 0)
(-5.39758 -0.233429 0)
(-5.24874 -0.241421 0)
(-5.0912 -0.243321 0)
(-4.92878 -0.236665 0)
(-4.76768 -0.220285 0)
(-4.61029 -0.211773 0)
(-4.45742 -0.207573 0)
(-4.31037 -0.209468 0)
(-4.16562 -0.220505 0)
(-4.03088 -0.192233 0)
(-3.90932 -0.173583 0)
(-3.79889 -0.16043 0)
(-3.70146 -0.146141 0)
(-3.61688 -0.132141 0)
(-3.54428 -0.112659 0)
(-3.49148 -0.0827582 0)
(-3.44417 -0.0653239 0)
(-3.4226 -0.0260611 0)
(-3.40738 -0.0104581 0)
(-3.40629 -0.00136842 0)
(-3.41346 0.000696115 0)
(-3.42467 -0.00285618 0)
(-3.4387 -0.00448272 0)
(-3.45295 0.00161902 0)
(-3.46545 0.0124698 0)
(-3.47973 0.0217096 0)
(-3.47917 0.0594148 0)
(-3.54659 0.0713129 0)
(-3.68042 0.0655597 0)
(-3.82303 0.0495788 0)
(-3.9712 0.0390566 0)
(-4.11929 0.0382039 0)
(-4.26869 0.0448599 0)
(-4.41904 0.0578169 0)
(-4.57203 0.0793289 0)
(-4.72758 0.0864102 0)
(-4.87994 0.0815133 0)
(-5.02889 0.0654325 0)
(-5.16875 0.0424564 0)
(-5.30065 0.0360763 0)
(-5.42877 0.0417923 0)
(-5.55394 0.0565376 0)
(-5.67984 0.0693896 0)
(-5.79715 0.0541387 0)
(-5.89935 0.0428873 0)
(-5.99167 0.0397798 0)
(-6.07526 0.0459399 0)
(-6.15448 0.0531813 0)
(-6.22257 0.042276 0)
(-6.27596 0.0351186 0)
(-6.31956 0.031033 0)
(-6.35114 0.0246142 0)
(-6.36986 0.0187277 0)
(-6.37914 0.0160805 0)
(-6.37828 0.0141851 0)
(-6.36494 0.00735267 0)
(-6.33938 0.0087747 0)
(-6.30264 0.00850443 0)
(-6.25656 0.00889588 0)
(-6.20234 0.0109689 0)
(-6.13962 0.0123578 0)
(-6.06976 0.0120938 0)
(-5.99413 0.0108499 0)
(-5.91419 0.00903511 0)
(-5.82985 0.00669467 0)
(-5.74247 0.00446583 0)
(-5.65304 0.00109454 0)
(-5.56117 -0.00438028 0)
(-5.46626 -0.00975239 0)
(-5.36879 -0.0114482 0)
(-5.27123 -0.00820504 0)
(-5.1766 -0.00971212 0)
(-5.08368 -0.0189409 0)
(-5.0238 -0.0424434 0)
(-4.99859 -0.0316553 0)
(-4.96418 -0.0505682 0)
(-4.91308 -0.0617612 0)
(-4.85225 -0.0705468 0)
(-4.78569 -0.0767397 0)
(-4.71706 -0.0796057 0)
(-4.64922 -0.0773185 0)
(-4.58334 -0.0721601 0)
(-4.52142 -0.062277 0)
(-4.46366 -0.0568795 0)
(-4.40959 -0.0537982 0)
(-4.35915 -0.0517578 0)
(-4.31211 -0.0519591 0)
(-4.26811 -0.05512 0)
(-4.22692 -0.0605234 0)
(-4.18865 -0.067959 0)
(-4.15099 -0.070225 0)
(-4.11771 -0.0558889 0)
(-4.09164 -0.0389948 0)
(-4.06994 -0.0320869 0)
(-4.05503 -0.0259558 0)
(-4.0441 -0.022711 0)
(-4.03722 -0.0215381 0)
(-4.03376 -0.0215625 0)
(-4.03339 -0.0216026 0)
(-4.03563 -0.0212798 0)
(-4.04056 -0.0209761 0)
(-4.04768 -0.0219988 0)
(-4.05701 -0.0219559 0)
(-4.06867 -0.0187339 0)
(-4.08317 -0.0156959 0)
(-4.09995 -0.0125991 0)
(-4.119 -0.0100848 0)
(-4.14006 -0.00816264 0)
(-4.16298 -0.00617393 0)
(-4.18773 -0.00482281 0)
(-4.2139 -0.0046047 0)
(-4.24124 -0.00468477 0)
(-4.26913 -0.0038358 0)
(-4.29868 -0.00215208 0)
(-4.32896 -0.00103147 0)
(-4.35997 0.000357788 0)
(-4.39161 0.00141813 0)
(-4.42362 0.00213545 0)
(-4.45588 0.0023488 0)
(-4.48814 0.00222426 0)
(-4.52027 0.00242258 0)
(-4.5522 0.00276178 0)
(-4.58375 0.00297989 0)
(-4.61477 0.00308708 0)
(-4.6451 0.00308418 0)
(-4.67456 0.00308695 0)
(-4.70302 0.00319226 0)
(-4.73036 0.00321969 0)
(-4.75643 0.00308561 0)
(-4.78109 0.00289598 0)
(-4.80419 0.00265678 0)
(-4.82559 0.0022834 0)
(-4.84515 0.00159159 0)
(-4.86271 0.0012216 0)
(-4.87804 0.000521639 0)
(-4.89103 -0.000253202 0)
(-4.90153 -0.00113461 0)
(-4.90929 -0.00224358 0)
(-4.91432 -0.00352305 0)
(-4.91655 -0.0056107 0)
(-4.9151 -0.0094964 0)
(-4.90987 -0.0116756 0)
(-4.90164 -0.0163803 0)
(-4.88897 -0.0212185 0)
(-4.87183 -0.0287199 0)
(-4.85096 -0.041224 0)
(-4.82562 -0.0532843 0)
(-4.79608 -0.0605449 0)
(-4.76196 -0.0608892 0)
(-4.72787 -0.0480869 0)
(-4.68617 -0.0194639 0)
(-0.0706695 0.113581 0)
(-0.248553 0.148859 0)
(-0.427337 0.218472 0)
(-0.625272 0.196721 0)
(-0.821927 0.201277 0)
(-1.02279 0.203417 0)
(-1.22364 0.194991 0)
(-1.42187 0.184437 0)
(-1.61618 0.176745 0)
(-1.8072 0.17311 0)
(-1.99544 0.16781 0)
(-2.17819 0.154649 0)
(-2.3516 0.135983 0)
(-2.51448 0.11695 0)
(-2.66812 0.102567 0)
(-2.81066 0.093552 0)
(-2.93583 0.0822159 0)
(-3.03245 0.0414257 0)
(-3.08537 -0.0447521 0)
(-3.1951 0.0328838 0)
(-3.35733 0.121023 0)
(-3.53773 0.15297 0)
(-3.71991 0.180741 0)
(-3.91488 0.170408 0)
(-4.12898 0.119815 0)
(-4.31809 -0.0187965 0)
(-4.5052 -0.100819 0)
(-4.73974 -0.107728 0)
(-4.95501 0.0812903 0)
(-5.17555 0.183621 0)
(-5.39927 0.178693 0)
(-5.62039 0.197079 0)
(-5.81983 0.272622 0)
(-5.99027 0.357918 0)
(-6.18772 0.447283 0)
(-6.45907 0.543421 0)
(-6.79759 0.599951 0)
(-7.1399 0.706653 0)
(-7.54787 0.756059 0)
(-8.03009 0.717102 0)
(-8.52009 0.548675 0)
(-8.90992 0.322 0)
(-9.21917 0.196336 0)
(-9.49134 0.166719 0)
(-9.67976 0.122994 0)
(-9.73301 0.0875819 0)
(-9.70693 0.131897 0)
(-9.81086 0.334668 0)
(-10.0872 0.331206 0)
(-10.2462 0.115691 0)
(-10.3458 -0.0338061 0)
(-10.3169 -0.159567 0)
(-10.2708 -0.312396 0)
(-10.1916 -0.409065 0)
(-10.0919 -0.402188 0)
(-10.0223 -0.294307 0)
(-9.95722 -0.211676 0)
(-9.82168 -0.254936 0)
(-9.71258 -0.412815 0)
(-9.64515 -0.390298 0)
(-9.67188 -0.164837 0)
(-9.73852 -0.231545 0)
(-9.84934 -0.237128 0)
(-9.93075 -0.299402 0)
(-10.0074 -0.239157 0)
(-10.0155 -0.0391688 0)
(-10.2682 0.402075 0)
(-10.8313 0.59295 0)
(-11.4426 0.664649 0)
(-12.0673 0.759183 0)
(-12.7063 0.883108 0)
(-13.3542 1.01656 0)
(-14.013 1.16126 0)
(-14.6926 1.26722 0)
(-15.3839 1.28432 0)
(-16.0695 1.27797 0)
(-16.7434 1.23155 0)
(-17.367 1.07044 0)
(-17.9406 0.915059 0)
(-18.4679 0.790288 0)
(-18.9523 0.734204 0)
(-19.3731 0.733449 0)
(-19.7112 0.718598 0)
(-19.9567 0.676978 0)
(-20.1241 0.61565 0)
(-20.2453 0.542699 0)
(-20.3049 0.44098 0)
(-20.2965 0.350702 0)
(-20.2752 0.228907 0)
(-20.2405 0.104862 0)
(-20.1337 -0.0215658 0)
(-19.9466 -0.146305 0)
(-19.7809 -0.335877 0)
(-19.5241 -0.505274 0)
(-19.1332 -0.628179 0)
(-18.6433 -0.669777 0)
(-18.1227 -0.677687 0)
(-17.649 -0.637813 0)
(-17.2882 -0.670337 0)
(-16.9844 -0.724891 0)
(-16.6511 -0.737741 0)
(-16.2934 -0.750632 0)
(-15.9085 -0.764147 0)
(-15.499 -0.784316 0)
(-15.0669 -0.811807 0)
(-14.6137 -0.854034 0)
(-14.1395 -0.90485 0)
(-13.6449 -0.948538 0)
(-13.1342 -0.975972 0)
(-12.6123 -0.993523 0)
(-12.0828 -1.00484 0)
(-11.5487 -1.0208 0)
(-11.009 -1.03894 0)
(-10.465 -1.06852 0)
(-9.90984 -1.13177 0)
(-9.3131 -1.35415 0)
(-8.5395 -1.69434 0)
(-7.5161 -1.90661 0)
(-6.41475 -2.03833 0)
(-5.33608 -1.94567 0)
(-4.31972 -1.72306 0)
(-3.35394 -1.44229 0)
(-2.39353 -1.25315 0)
(-1.41254 -1.16557 0)
(-0.390042 -1.12609 0)
(0.647945 -1.09026 0)
(1.61995 -1.11634 0)
(2.46682 -1.284 0)
(3.18098 -1.48304 0)
(3.84753 -1.61919 0)
(4.52151 -1.66709 0)
(5.23625 -1.66564 0)
(5.97211 -1.61796 0)
(6.72661 -1.54762 0)
(7.51784 -1.37526 0)
(8.3017 -1.10566 0)
(9.06986 -0.85205 0)
(9.81273 -0.654131 0)
(10.4938 -0.481598 0)
(11.08 -0.359972 0)
(11.467 -0.245697 0)
(11.6302 -0.127746 0)
(11.6362 -0.00675857 0)
(11.5848 0.0740304 0)
(11.5567 0.181306 0)
(11.5162 0.315093 0)
(11.3962 0.397877 0)
(11.1924 0.453991 0)
(10.8759 0.519714 0)
(10.4406 0.626719 0)
(9.88275 0.755607 0)
(9.20738 0.892544 0)
(8.43248 1.00236 0)
(7.61245 1.0477 0)
(6.84342 0.990851 0)
(6.20202 0.896362 0)
(5.66335 0.765485 0)
(5.1885 0.602464 0)
(4.70123 0.549002 0)
(4.14519 0.618551 0)
(3.44183 0.655726 0)
(2.62085 0.679611 0)
(1.77194 0.747589 0)
(0.967962 0.805103 0)
(0.258568 0.870708 0)
(-0.358354 0.97198 0)
(-0.919079 1.04905 0)
(-1.43902 1.09538 0)
(-1.914 1.1071 0)
(-2.34539 1.08899 0)
(-2.74618 1.0002 0)
(-3.08894 0.838859 0)
(-3.37982 0.715444 0)
(-3.61829 0.60289 0)
(-3.80229 0.474018 0)
(-3.91008 0.310508 0)
(-3.89568 0.121169 0)
(-3.77016 -0.0411461 0)
(-3.60034 -0.217383 0)
(-3.34825 -0.373463 0)
(-3.0491 -0.550291 0)
(-2.68573 -0.669027 0)
(-2.27596 -0.748542 0)
(-1.81967 -0.791399 0)
(-1.32491 -0.808357 0)
(-0.793736 -0.813235 0)
(-0.228511 -0.795165 0)
(0.357868 -0.752428 0)
(0.952558 -0.703081 0)
(1.52469 -0.629366 0)
(2.02795 -0.57706 0)
(2.40783 -0.574132 0)
(2.63419 -0.565922 0)
(2.72129 -0.523987 0)
(2.69097 -0.398079 0)
(2.60711 -0.228369 0)
(2.47417 -0.0924691 0)
(2.32118 0.0374686 0)
(2.1259 0.0691594 0)
(1.92725 0.136087 0)
(1.6741 0.210115 0)
(1.34396 0.251098 0)
(0.95224 0.267789 0)
(0.524711 0.305921 0)
(0.0712247 0.369661 0)
(-0.407784 0.429639 0)
(-0.90966 0.478253 0)
(-1.42974 0.517056 0)
(-1.96022 0.543192 0)
(-2.49428 0.580156 0)
(-3.04079 0.639451 0)
(-3.62169 0.712587 0)
(-4.22589 0.747025 0)
(-4.7023 0.69364 0)
(-5.07257 0.672099 0)
(-5.40908 0.622308 0)
(-5.73462 0.575218 0)
(-6.04696 0.542446 0)
(-6.3401 0.518071 0)
(-6.61892 0.509362 0)
(-6.87908 0.463026 0)
(-7.11533 0.396285 0)
(-7.32283 0.315392 0)
(-7.50923 0.255631 0)
(-7.66696 0.191132 0)
(-7.80151 0.145948 0)
(-7.91833 0.134285 0)
(-8.02147 0.142642 0)
(-8.11432 0.179367 0)
(-8.20663 0.168567 0)
(-8.27413 0.117347 0)
(-8.32335 0.0640426 0)
(-8.36129 0.0210162 0)
(-8.3811 -0.0332898 0)
(-8.377 -0.132741 0)
(-8.37103 -0.225108 0)
(-8.34528 -0.285088 0)
(-8.31125 -0.316212 0)
(-8.27046 -0.320793 0)
(-8.23286 -0.300992 0)
(-8.2009 -0.276634 0)
(-8.16956 -0.266783 0)
(-8.1435 -0.255687 0)
(-8.12508 -0.235281 0)
(-8.11739 -0.209007 0)
(-8.11719 -0.179913 0)
(-8.12655 -0.131444 0)
(-8.13838 -0.0665453 0)
(-8.17329 0.00821918 0)
(-8.19211 0.0985709 0)
(-8.27036 0.182516 0)
(-8.42594 0.258564 0)
(-8.62618 0.337049 0)
(-8.84441 0.413018 0)
(-9.07877 0.473792 0)
(-9.32399 0.531208 0)
(-9.5746 0.5893 0)
(-9.8234 0.624539 0)
(-10.0538 0.637982 0)
(-10.2602 0.650212 0)
(-10.4504 0.661082 0)
(-10.6194 0.634543 0)
(-10.7611 0.587163 0)
(-10.8896 0.5419 0)
(-10.9787 0.474339 0)
(-10.9923 0.39174 0)
(-10.9675 0.297884 0)
(-10.9274 0.205344 0)
(-10.8693 0.0857173 0)
(-10.7618 -0.0366343 0)
(-10.6167 -0.153924 0)
(-10.4258 -0.229998 0)
(-10.2079 -0.290359 0)
(-9.96578 -0.357114 0)
(-9.70021 -0.42555 0)
(-9.41414 -0.504283 0)
(-9.10308 -0.57277 0)
(-8.77227 -0.630683 0)
(-8.42369 -0.690689 0)
(-8.05247 -0.722655 0)
(-7.67164 -0.720448 0)
(-7.28901 -0.734452 0)
(-6.91212 -0.736405 0)