/*--------------------------------*- C++ -*----------------------------------*\
| =========                 |                                                 |
| \\      /  F ield         | OpenFOAM: The Open Source CFD Toolbox           |
|  \\    /   O peration     | Version:  v1812                                 |
|   \\  /    A nd           | Web:      www.OpenFOAM.com                      |
|    \\/     M anipulation  |                                                 |
\*---------------------------------------------------------------------------*/
FoamFile
{
    version     2.0;
    format      ascii;
    class       volScalarField;
    location    "0.15";
    object      p;
}
// * * * * * * * * * * * * * * * * * * * * * * * * * * * * * * * * * * * * * //

dimensions      [1 -1 -2 0 0 0 0];


internalField   nonuniform List<scalar> 
100
(
300548
299779
299399
299187
298905
298615
298319
298006
297678
297334
296973
296594
296196
295776
295334
294868
294376
293856
293306
292723
292105
291449
290751
290008
289216
288369
287463
286492
285449
284326
283115
281805
280386
278843
277160
275319
273298
271070
268601
265853
262774
259299
255346
250798
245495
239195
231501
221685
208186
187244
147911
118961
102866
92417.6
84333.8
77731.4
72045
67109.9
62817.1
59068
55647.2
52574.7
49810.8
47333.6
45019.3
42909
40970.7
39202.8
37532.4
35997.3
34562.9
33239
31967.5
30875.1
29264.3
29592.5
65458.6
146119
157591
158594
160072
161190
162231
163505
164883
166049
167160
168271
169171
169833
170371
170742
170992
171364
171912
172626
173366
173967
174390
174190
)
;

boundaryField
{
    inlet
    {
        type            fixedValue;
        value           uniform 300000;
    }
    outlet
    {
        type            fixedValue;
        value           uniform 175000;
    }
    upperWall
    {
        type            zeroGradient;
    }
    lowerWall
    {
        type            zeroGradient;
    }
    frontAndBack
    {
        type            empty;
    }
}


// ************************************************************************* //
