/*--------------------------------*- C++ -*----------------------------------*\
| =========                 |                                                 |
| \\      /  F ield         | OpenFOAM: The Open Source CFD Toolbox           |
|  \\    /   O peration     | Version:  v1812                                 |
|   \\  /    A nd           | Web:      www.OpenFOAM.com                      |
|    \\/     M anipulation  |                                                 |
\*---------------------------------------------------------------------------*/
FoamFile
{
    version     2.0;
    format      ascii;
    class       volScalarField;
    location    "0.15";
    object      rho;
}
// * * * * * * * * * * * * * * * * * * * * * * * * * * * * * * * * * * * * * //

dimensions      [1 -3 0 0 0 0 0];


internalField   nonuniform List<scalar> 
100
(
2.11026
2.10548
2.10334
2.10234
2.10092
2.09946
2.09797
2.0964
2.09475
2.09302
2.09121
2.0893
2.0873
2.08518
2.08296
2.08061
2.07813
2.0755
2.07273
2.06979
2.06666
2.06335
2.05982
2.05605
2.05204
2.04775
2.04315
2.03821
2.03291
2.02719
2.02102
2.01434
2.00709
1.99919
1.99056
1.98111
1.97071
1.95921
1.94645
1.9322
1.91619
1.89805
1.87733
1.85337
1.82528
1.79167
1.75026
1.69681
1.62214
1.50474
1.27135
1.08891
0.981985
0.909057
0.851932
0.803439
0.761012
0.723416
0.690299
0.660269
0.632825
0.607669
0.584847
0.563668
0.543945
0.525569
0.50862
0.492694
0.477693
0.463577
0.450389
0.437927
0.425985
0.415386
0.399893
0.403067
0.630591
1.09338
1.1558
1.16256
1.17089
1.17571
1.18085
1.1881
1.19558
1.20095
1.20664
1.21282
1.21736
1.22057
1.22356
1.22555
1.22669
1.22865
1.23142
1.23501
1.2388
1.24194
1.24419
1.24148
)
;

boundaryField
{
    inlet
    {
        type            calculated;
        value           uniform 2.10642;
    }
    outlet
    {
        type            calculated;
        value           uniform 1.24725;
    }
    upperWall
    {
        type            calculated;
        value           nonuniform List<scalar> 
100
(
2.11026
2.10548
2.10334
2.10234
2.10092
2.09946
2.09797
2.0964
2.09475
2.09302
2.09121
2.0893
2.0873
2.08518
2.08296
2.08061
2.07813
2.0755
2.07273
2.06979
2.06666
2.06335
2.05982
2.05605
2.05204
2.04775
2.04315
2.03821
2.03291
2.02719
2.02102
2.01434
2.00709
1.99919
1.99056
1.98111
1.97071
1.95921
1.94645
1.9322
1.91619
1.89805
1.87733
1.85337
1.82528
1.79167
1.75026
1.69681
1.62214
1.50474
1.27135
1.08891
0.981985
0.909057
0.851932
0.803439
0.761012
0.723416
0.690299
0.660269
0.632825
0.607669
0.584847
0.563668
0.543945
0.525569
0.50862
0.492694
0.477693
0.463577
0.450389
0.437927
0.425985
0.415386
0.399893
0.403067
0.630591
1.09338
1.1558
1.16256
1.17089
1.17571
1.18085
1.1881
1.19558
1.20095
1.20664
1.21282
1.21736
1.22057
1.22356
1.22555
1.22669
1.22865
1.23142
1.23501
1.2388
1.24194
1.24419
1.24148
)
;
    }
    lowerWall
    {
        type            calculated;
        value           nonuniform List<scalar> 
100
(
2.11026
2.10548
2.10334
2.10234
2.10092
2.09946
2.09797
2.0964
2.09475
2.09302
2.09121
2.0893
2.0873
2.08518
2.08296
2.08061
2.07813
2.0755
2.07273
2.06979
2.06666
2.06335
2.05982
2.05605
2.05204
2.04775
2.04315
2.03821
2.03291
2.02719
2.02102
2.01434
2.00709
1.99919
1.99056
1.98111
1.97071
1.95921
1.94645
1.9322
1.91619
1.89805
1.87733
1.85337
1.82528
1.79167
1.75026
1.69681
1.62214
1.50474
1.27135
1.08891
0.981985
0.909057
0.851932
0.803439
0.761012
0.723416
0.690299
0.660269
0.632825
0.607669
0.584847
0.563668
0.543945
0.525569
0.50862
0.492694
0.477693
0.463577
0.450389
0.437927
0.425985
0.415386
0.399893
0.403067
0.630591
1.09338
1.1558
1.16256
1.17089
1.17571
1.18085
1.1881
1.19558
1.20095
1.20664
1.21282
1.21736
1.22057
1.22356
1.22555
1.22669
1.22865
1.23142
1.23501
1.2388
1.24194
1.24419
1.24148
)
;
    }
    frontAndBack
    {
        type            empty;
    }
}


// ************************************************************************* //
