/*--------------------------------*- C++ -*----------------------------------*\
| =========                 |                                                 |
| \\      /  F ield         | OpenFOAM: The Open Source CFD Toolbox           |
|  \\    /   O peration     | Version:  v1812                                 |
|   \\  /    A nd           | Web:      www.OpenFOAM.com                      |
|    \\/     M anipulation  |                                                 |
\*---------------------------------------------------------------------------*/
FoamFile
{
    version     2.0;
    format      ascii;
    class       volScalarField;
    location    "0.15";
    object      T;
}
// * * * * * * * * * * * * * * * * * * * * * * * * * * * * * * * * * * * * * //

dimensions      [0 0 0 1 0 0 0];


internalField   nonuniform List<scalar> 
100
(
496.069
495.922
495.798
495.681
495.55
495.414
495.273
495.125
494.969
494.806
494.634
494.454
494.264
494.063
493.852
493.63
493.394
493.145
492.881
492.601
492.304
491.988
491.651
491.292
490.908
490.497
490.057
489.583
489.073
488.523
487.928
487.282
486.58
485.813
484.974
484.052
483.035
481.907
480.649
479.24
477.648
475.836
473.754
471.33
468.465
465.005
460.696
455.059
447.02
433.421
405.225
380.519
364.866
354.101
344.795
336.983
329.743
323.119
316.96
311.598
306.284
301.352
296.651
292.489
288.276
284.369
280.572
277.143
273.666
270.466
267.293
264.369
261.383
258.893
254.893
255.722
361.562
465.479
474.911
475.152
476.174
477.53
478.523
479.338
480.352
481.591
482.526
483.254
484.03
484.643
484.99
485.259
485.515
485.8
486.256
486.856
487.447
487.898
488.2
488.707
)
;

boundaryField
{
    inlet
    {
        type            totalTemperature;
        gamma           1.4;
        T0              uniform 500;
        value           uniform 496.067;
    }
    outlet
    {
        type            zeroGradient;
    }
    upperWall
    {
        type            zeroGradient;
    }
    lowerWall
    {
        type            zeroGradient;
    }
    frontAndBack
    {
        type            empty;
    }
}


// ************************************************************************* //
