/*--------------------------------*- C++ -*----------------------------------*\
| =========                 |                                                 |
| \\      /  F ield         | OpenFOAM: The Open Source CFD Toolbox           |
|  \\    /   O peration     | Version:  v1812                                 |
|   \\  /    A nd           | Web:      www.OpenFOAM.com                      |
|    \\/     M anipulation  |                                                 |
\*---------------------------------------------------------------------------*/
FoamFile
{
    version     2.0;
    format      ascii;
    class       volVectorField;
    location    "0.15";
    object      U;
}
// * * * * * * * * * * * * * * * * * * * * * * * * * * * * * * * * * * * * * //

dimensions      [0 1 -1 0 0 0 0];


internalField   nonuniform List<vector> 
100
(
(88.902 0.000119571 0)
(90.5624 0.000119571 2.18864e-15)
(91.927 0.00011957 0)
(93.2034 0.00011957 -2.37593e-15)
(94.604 0.00011957 0)
(96.0353 0.000119571 -2.43894e-15)
(97.5039 0.00011957 0)
(99.0234 0.000119571 -2.50855e-15)
(100.592 0.00011957 -2.54567e-15)
(102.212 0.000119571 -2.58364e-15)
(103.887 0.00011957 0)
(105.62 0.000119571 -2.66302e-15)
(107.413 0.00011957 0)
(109.271 0.000119571 0)
(111.196 0.000119571 -2.79154e-15)
(113.193 0.00011957 0)
(115.266 0.000119572 -5.76837e-15)
(117.419 0.00011957 0)
(119.658 0.000119568 -2.98305e-15)
(121.988 0.000119566 -3.035e-15)
(124.414 0.0001196 -3.08874e-15)
(126.944 0.000119553 0)
(129.585 0.000119477 -3.20196e-15)
(132.343 0.000119691 0)
(135.229 0.000119859 -3.32351e-15)
(138.251 0.000118911 0)
(141.42 0.000119155 0)
(144.748 0.000121859 0)
(148.248 0.00011888 -3.59526e-15)
(151.935 0.000114418 0)
(155.825 0.000125588 -3.74759e-15)
(159.938 0.00012471 0)
(164.295 0.000103317 0)
(168.921 0.000127844 0)
(173.845 0.000135993 -4.09138e-15)
(179.1 8.63939e-05 -4.18648e-15)
(184.725 0.000139882 0)
(190.768 0.000139869 0)
(197.284 5.9587e-05 0)
(204.344 0.000182069 0)
(212.032 9.85809e-05 0)
(220.457 0.000104189 0)
(229.76 0.000223361 0)
(240.134 -0.000694486 0)
(251.846 0.00129744 5.23038e-15)
(265.301 0.00801192 0)
(281.16 -0.0218289 -5.48697e-15)
(300.649 -0.0628519 0)
(326.442 0.295355 0)
(365.969 0.185979 0)
(436.43 -3.21232 0)
(489.929 2.36477 0)
(521.112 4.65001 0)
(541.605 -0.902594 4.4133e-15)
(558.258 -3.00583 0)
(572.314 -2.13674 3.87664e-15)
(584.957 -1.49928 0)
(596.198 1.47668 0)
(606.324 2.57687 0)
(615.322 1.21654 0)
(623.924 0.852593 0)
(631.817 -1.18048 0)
(639.123 -1.95978 0)
(645.765 -0.888764 0)
(652.269 -0.812283 2.54581e-15)
(658.287 0.806162 0)
(663.948 1.39785 2.37931e-15)
(669.205 0.790589 0)
(674.396 0.904019 2.19745e-15)
(679.188 -0.444496 0)
(683.781 -0.867826 0)
(688.101 -0.739272 0)
(692.468 -0.94283 1.93945e-15)
(696.062 0.0664893 0)
(701.879 0.500294 1.50805e-15)
(700.532 0.569921 0)
(527.374 -1.91717 2.13559e-15)
(270.81 -2.30538 0)
(226.603 12.3833 -3.19233e-15)
(220.335 4.70408 0)
(214.584 -3.48176 5.86373e-15)
(208.982 -8.06845 0)
(204.025 -7.06063 2.80158e-15)
(199.999 -2.72374 2.74756e-15)
(196.673 2.75992 -2.73756e-15)
(192.746 5.11012 2.69787e-15)
(189.373 3.77258 0)
(186.542 0.306739 0)
(183.058 -2.6755 2.58305e-15)
(179.131 -2.83643 0)
(175.556 -0.853258 2.51034e-15)
(172.067 1.32122 2.48784e-15)
(168.584 1.75164 2.45502e-15)
(165.577 0.497523 0)
(162.617 -0.842002 2.38391e-15)
(159.708 -0.874375 2.35395e-15)
(157.297 0.0343963 2.32575e-15)
(155.318 0.513912 0)
(153.965 0.0766111 -2.19581e-15)
(151.61 -0.0196634 0)
)
;

boundaryField
{
    inlet
    {
        type            zeroGradient;
    }
    outlet
    {
        type            zeroGradient;
    }
    upperWall
    {
        type            slip;
    }
    lowerWall
    {
        type            slip;
    }
    frontAndBack
    {
        type            empty;
    }
}


// ************************************************************************* //
