/*--------------------------------*- C++ -*----------------------------------*\
| =========                 |                                                 |
| \\      /  F ield         | OpenFOAM: The Open Source CFD Toolbox           |
|  \\    /   O peration     | Version:  v1812                                 |
|   \\  /    A nd           | Web:      www.OpenFOAM.com                      |
|    \\/     M anipulation  |                                                 |
\*---------------------------------------------------------------------------*/
FoamFile
{
    version     2.0;
    format      ascii;
    class       volScalarField;
    location    "1";
    object      p;
}
// * * * * * * * * * * * * * * * * * * * * * * * * * * * * * * * * * * * * * //

dimensions      [1 -1 -2 0 0 0 0];


internalField   nonuniform List<scalar> 
20400
(
106034
106034
106034
106035
106035
106036
106036
106037
106038
106039
106041
106043
106046
106049
106053
106057
106061
106065
106070
106074
106077
106080
106082
106083
106083
106082
106080
106078
106075
106072
106069
106066
106063
106060
106058
106055
106052
106049
106045
106039
106031
106021
106003
105988
105975
105953
105931
105903
105873
105840
105809
105780
105755
105738
105724
105719
105722
105733
105754
105783
105822
105869
105920
105975
106033
106089
106145
106197
106244
106287
106324
106355
106381
106401
106417
106428
106436
106439
106442
106443
106441
106438
106433
106428
106422
106415
106408
106400
106393
106386
106379
106373
106366
106360
106355
106350
106345
106340
106336
106333
106329
106326
106324
106321
106319
106317
106315
106313
106311
106310
106309
106308
106308
106307
106307
106306
106306
106305
106303
106300
106293
106286
106269
106253
106231
106206
106185
106157
106130
106098
106071
106048
106032
106023
106024
106033
106053
106077
106104
106137
106162
106192
106220
106247
106271
106290
106303
106311
106314
106313
106308
106300
106289
106278
106263
106250
106234
106220
106205
106191
106177
106163
106150
106137
106125
106113
106103
106093
106084
106075
106069
106062
106056
106049
106043
106036
106029
106021
106011
106001
105990
105978
105965
105950
105933
105913
105891
105867
105843
105818
105800
105778
105758
105739
105723
105706
105692
105680
105670
105662
105657
105652
105650
105650
105651
105652
105654
105657
105660
105665
105669
105673
105677
105680
105682
105683
105683
105681
105678
105674
105668
105661
105653
105644
105633
105622
105610
105598
105585
105571
105557
105542
105527
105512
105497
105482
105466
105451
105435
105419
105402
105386
105369
105352
105334
105316
105299
105281
105264
105247
105230
105213
105196
105180
105163
105146
105128
105111
105093
105075
105057
105038
105019
105001
104981
104961
104940
104918
104896
104872
104847
104822
104797
104773
104748
104730
104708
104688
104669
104652
104636
104622
104610
104598
104590
104582
104577
104573
104568
104563
104558
104553
104547
104540
104533
104524
104514
104503
104491
104477
104463
104448
104431
104414
104396
104377
104358
104338
104318
104297
104276
104255
104234
104213
104191
104170
104149
104127
104106
104085
104064
104043
104022
104002
103981
103960
103939
103918
103897
103875
103853
103831
103809
103786
103764
103741
103718
103695
103673
103650
103629
103608
103587
103567
103548
103529
103511
103494
103477
103461
103444
103429
103413
103398
103383
103368
103352
103337
103322
103307
103292
103276
103261
103245
103230
103214
103198
103182
103166
103149
103133
103117
103100
103083
103067
103050
103033
103016
102999
102982
102965
102948
102931
102914
102898
102881
102864
102847
102830
102813
102797
102780
102763
102747
102730
102714
102697
102681
102665
102649
102632
102616
102600
102585
102569
102553
102537
102522
102506
102491
102475
102460
102445
102430
102415
102400
102385
102370
102355
102340
102326
102311
102297
102282
102268
102253
102239
102225
102211
102197
102183
102169
102155
102141
102127
102114
102100
102087
102073
102060
102046
102033
102020
102006
101993
101980
101967
101954
101941
101928
101915
101902
101890
101877
101864
101852
101839
101826
101814
101801
101789
101777
101764
101752
101740
101728
101715
101703
101691
101679
101667
101655
101643
101631
101619
101607
101595
101584
101572
101560
101548
101537
101525
101513
101502
101490
101478
101467
101455
101444
101432
101421
101409
101398
101387
101375
101364
101352
101342
101330
106033
106034
106034
106034
106035
106035
106036
106037
106038
106040
106042
106044
106047
106050
106054
106058
106062
106067
106071
106075
106078
106081
106082
106083
106082
106081
106079
106076
106074
106070
106068
106066
106063
106061
106058
106056
106053
106050
106045
106038
106029
106024
106014
106003
105978
105958
105930
105902
105868
105834
105799
105765
105736
105717
105704
105703
105709
105726
105751
105785
105824
105866
105912
105960
106012
106065
106117
106167
106215
106258
106297
106331
106360
106383
106403
106418
106431
106438
106442
106442
106439
106436
106431
106426
106420
106413
106406
106399
106392
106385
106378
106372
106365
106360
106354
106349
106344
106340
106336
106333
106329
106326
106324
106321
106319
106317
106315
106313
106311
106310
106309
106308
106308
106307
106307
106307
106306
106305
106303
106300
106295
106286
106274
106262
106242
106220
106184
106152
106116
106088
106061
106042
106029
106021
106019
106025
106036
106057
106084
106115
106154
106189
106221
106248
106270
106287
106300
106308
106311
106310
106306
106298
106288
106276
106263
106250
106233
106219
106205
106191
106177
106164
106150
106138
106125
106114
106102
106092
106083
106075
106068
106061
106056
106049
106043
106036
106029
106021
106011
106002
105991
105979
105966
105951
105934
105917
105897
105876
105853
105830
105801
105776
105754
105735
105717
105702
105690
105680
105671
105663
105656
105651
105648
105646
105646
105647
105651
105654
105659
105664
105669
105673
105677
105680
105681
105682
105682
105680
105678
105673
105667
105661
105652
105643
105633
105622
105610
105598
105585
105571
105557
105542
105527
105512
105497
105482
105466
105451
105435
105419
105403
105386
105369
105352
105334
105317
105299
105281
105263
105247
105229
105213
105196
105179
105162
105146
105129
105112
105093
105075
105055
105036
105016
104997
104977
104956
104936
104915
104894
104873
104851
104829
104806
104782
104759
104731
104707
104685
104665
104647
104631
104618
104607
104598
104589
104582
104576
104570
104565
104561
104556
104551
104545
104539
104531
104523
104513
104502
104490
104477
104462
104447
104430
104413
104395
104377
104357
104338
104318
104297
104276
104255
104234
104213
104191
104170
104148
104127
104106
104085
104064
104043
104022
104002
103981
103960
103939
103918
103897
103876
103854
103832
103809
103787
103764
103741
103718
103695
103673
103650
103629
103608
103587
103567
103548
103529
103511
103494
103477
103460
103444
103429
103413
103398
103383
103367
103352
103337
103322
103307
103292
103276
103261
103245
103230
103214
103198
103182
103166
103149
103133
103116
103100
103083
103067
103050
103033
103016
102999
102982
102965
102948
102931
102914
102898
102881
102864
102847
102830
102813
102796
102780
102763
102747
102730
102714
102697
102681
102665
102649
102632
102616
102600
102585
102569
102553
102537
102522
102506
102491
102475
102460
102445
102430
102415
102400
102385
102370
102355
102340
102326
102311
102297
102282
102268
102253
102239
102225
102211
102197
102183
102169
102155
102141
102127
102114
102100
102087
102073
102060
102046
102033
102020
102006
101993
101980
101967
101954
101941
101928
101915
101902
101890
101877
101864
101852
101839
101826
101814
101801
101789
101777
101764
101752
101740
101728
101715
101703
101691
101679
101667
101655
101643
101631
101619
101607
101595
101584
101572
101560
101548
101537
101525
101513
101502
101490
101478
101467
101455
101444
101432
101421
101409
101398
101387
101375
101364
101352
101342
101330
106033
106033
106033
106034
106034
106034
106035
106035
106036
106037
106039
106041
106043
106047
106050
106054
106059
106063
106067
106072
106075
106078
106080
106081
106081
106081
106079
106077
106075
106073
106070
106066
106064
106061
106059
106057
106054
106052
106048
106044
106037
106025
106010
105995
105978
105955
105925
105891
105849
105808
105770
105742
105723
105708
105695
105688
105690
105701
105719
105746
105785
105834
105892
105952
106012
106073
106132
106187
106237
106282
106321
106353
106380
106402
106418
106429
106436
106439
106441
106441
106438
106435
106430
106424
106418
106411
106404
106397
106390
106383
106376
106370
106364
106358
106352
106348
106343
106339
106335
106332
106328
106326
106323
106321
106318
106316
106315
106313
106311
106310
106309
106308
106308
106307
106307
106307
106306
106306
106304
106302
106298
106291
106278
106262
106238
106210
106179
106146
106111
106079
106049
106026
106008
105996
106001
106012
106030
106053
106080
106112
106144
106176
106208
106237
106261
106281
106295
106303
106307
106305
106301
106293
106283
106272
106259
106246
106231
106217
106203
106188
106174
106161
106149
106136
106124
106113
106102
106092
106083
106075
106068
106061
106056
106049
106044
106037
106029
106021
106012
106002
105991
105980
105968
105954
105937
105917
105895
105870
105844
105820
105796
105774
105752
105733
105716
105701
105687
105674
105664
105656
105651
105648
105646
105645
105646
105647
105650
105653
105657
105661
105666
105671
105675
105678
105680
105682
105682
105680
105677
105673
105667
105660
105652
105643
105633
105622
105610
105597
105584
105571
105557
105542
105527
105512
105497
105482
105466
105451
105435
105419
105403
105386
105369
105352
105334
105317
105299
105281
105264
105246
105229
105212
105196
105179
105163
105145
105128
105110
105093
105075
105057
105040
105021
105003
104983
104964
104943
104922
104899
104875
104850
104824
104799
104774
104749
104726
104705
104684
104665
104648
104632
104617
104605
104594
104586
104579
104573
104569
104564
104560
104555
104550
104545
104538
104531
104522
104512
104501
104489
104476
104462
104446
104430
104413
104395
104376
104357
104337
104317
104297
104276
104255
104234
104212
104191
104170
104148
104127
104106
104085
104064
104043
104022
104002
103981
103960
103939
103918
103897
103876
103854
103832
103809
103787
103764
103741
103718
103695
103672
103650
103628
103607
103586
103566
103547
103529
103510
103493
103476
103460
103444
103428
103413
103397
103382
103367
103352
103337
103322
103307
103292
103276
103261
103245
103230
103214
103198
103182
103166
103149
103133
103116
103100
103083
103066
103050
103033
103016
102999
102982
102965
102948
102931
102914
102897
102881
102864
102847
102830
102813
102796
102780
102763
102747
102730
102714
102697
102681
102665
102648
102632
102616
102600
102584
102569
102553
102537
102522
102506
102491
102475
102460
102445
102430
102415
102400
102385
102370
102355
102340
102326
102311
102297
102282
102268
102253
102239
102225
102211
102197
102183
102169
102155
102141
102127
102114
102100
102086
102073
102060
102046
102033
102020
102006
101993
101980
101967
101954
101941
101928
101915
101902
101890
101877
101864
101852
101839
101826
101814
101801
101789
101777
101764
101752
101740
101728
101715
101703
101691
101679
101667
101655
101643
101631
101619
101607
101595
101584
101572
101560
101548
101537
101525
101513
101502
101490
101478
101467
101455
101444
101432
101421
101409
101398
101387
101375
101364
101352
101341
101330
106033
106033
106033
106033
106034
106034
106034
106035
106036
106038
106039
106042
106045
106048
106052
106056
106060
106065
106069
106073
106076
106079
106080
106081
106079
106077
106075
106072
106069
106067
106066
106066
106062
106062
106061
106060
106058
106056
106052
106045
106037
106028
106016
105997
105969
105936
105895
105851
105810
105772
105737
105703
105671
105647
105637
105640
105652
105672
105700
105735
105774
105821
105872
105928
105987
106048
106107
106163
106215
106261
106302
106336
106365
106388
106407
106420
106429
106435
106438
106438
106435
106431
106426
106420
106414
106407
106400
106393
106386
106379
106373
106366
106360
106355
106350
106345
106341
106337
106333
106330
106327
106324
106322
106320
106318
106316
106314
106313
106311
106310
106309
106308
106308
106308
106308
106308
106308
106307
106306
106304
106300
106293
106280
106262
106236
106205
106168
106130
106091
106057
106027
106003
105987
105976
105975
105983
105998
106023
106053
106089
106127
106164
106198
106227
106252
106271
106285
106294
106298
106298
106293
106286
106276
106265
106252
106239
106225
106211
106197
106184
106170
106157
106144
106132
106121
106110
106100
106091
106083
106075
106068
106062
106056
106050
106044
106037
106030
106021
106012
106003
105992
105981
105968
105953
105936
105916
105893
105867
105841
105815
105789
105766
105744
105724
105707
105693
105680
105670
105661
105653
105647
105642
105639
105638
105638
105640
105644
105648
105653
105659
105664
105669
105673
105677
105679
105680
105681
105679
105676
105672
105666
105660
105652
105642
105632
105621
105610
105597
105584
105570
105556
105542
105527
105512
105497
105482
105466
105451
105435
105419
105403
105386
105370
105352
105335
105317
105299
105281
105264
105246
105229
105212
105195
105178
105161
105145
105128
105111
105093
105075
105056
105037
105017
104998
104978
104958
104937
104916
104894
104872
104848
104823
104798
104772
104747
104722
104697
104675
104654
104636
104620
104607
104597
104588
104580
104574
104569
104564
104560
104556
104552
104547
104542
104536
104528
104520
104511
104500
104488
104475
104460
104445
104429
104412
104394
104375
104356
104336
104316
104296
104275
104254
104233
104212
104190
104169
104148
104126
104105
104084
104063
104043
104022
104001
103981
103960
103939
103918
103897
103876
103854
103832
103809
103787
103764
103740
103717
103694
103671
103649
103627
103606
103585
103565
103546
103527
103509
103492
103475
103459
103443
103428
103412
103397
103382
103367
103352
103337
103322
103307
103292
103276
103261
103245
103230
103214
103198
103182
103166
103149
103133
103117
103100
103083
103067
103050
103033
103016
102999
102982
102965
102948
102931
102914
102897
102881
102864
102847
102830
102813
102796
102780
102763
102747
102730
102714
102697
102681
102665
102648
102632
102616
102600
102584
102569
102553
102537
102522
102506
102491
102475
102460
102445
102430
102415
102400
102385
102370
102355
102340
102326
102311
102296
102282
102268
102253
102239
102225
102211
102197
102183
102169
102155
102141
102127
102114
102100
102086
102073
102060
102046
102033
102019
102006
101993
101980
101967
101954
101941
101928
101915
101902
101890
101877
101864
101852
101839
101826
101814
101801
101789
101777
101764
101752
101740
101727
101715
101703
101691
101679
101667
101655
101643
101631
101619
101607
101595
101584
101572
101560
101548
101536
101525
101513
101502
101490
101478
101467
101455
101444
101432
101421
101409
101398
101386
101375
101364
101352
101341
101330
106032
106032
106032
106032
106032
106032
106032
106032
106033
106034
106035
106037
106040
106043
106047
106052
106056
106061
106066
106071
106075
106077
106079
106080
106079
106078
106075
106073
106070
106067
106065
106063
106063
106062
106061
106061
106060
106058
106054
106050
106041
106028
106008
105981
105946
105902
105856
105811
105765
105721
105683
105654
105633
105618
105606
105606
105615
105631
105657
105691
105736
105789
105848
105912
105977
106041
106103
106162
106215
106263
106304
106338
106367
106389
106406
106418
106427
106431
106433
106432
106430
106426
106421
106415
106409
106402
106395
106388
106381
106374
106368
106362
106356
106351
106346
106341
106337
106334
106330
106327
106325
106322
106320
106318
106317
106315
106314
106312
106311
106310
106309
106308
106308
106308
106308
106308
106308
106308
106307
106305
106301
106292
106278
106255
106224
106189
106149
106110
106070
106034
106001
105976
105958
105948
105950
105960
105979
106003
106034
106068
106105
106142
106177
106209
106235
106256
106272
106281
106286
106286
106282
106275
106266
106255
106243
106229
106216
106202
106188
106175
106162
106150
106138
106126
106115
106106
106097
106089
106081
106075
106069
106063
106057
106051
106045
106039
106032
106023
106013
106003
105992
105980
105967
105951
105932
105909
105884
105857
105830
105804
105780
105757
105737
105718
105701
105686
105673
105662
105653
105646
105641
105637
105635
105634
105635
105637
105640
105644
105648
105654
105659
105665
105670
105674
105677
105679
105679
105678
105675
105671
105666
105659
105651
105642
105631
105620
105609
105596
105583
105569
105555
105541
105526
105511
105496
105481
105466
105450
105434
105419
105403
105386
105369
105352
105335
105317
105299
105281
105263
105245
105228
105211
105195
105178
105162
105144
105127
105110
105093
105076
105058
105039
105021
105001
104982
104961
104939
104917
104893
104869
104844
104818
104791
104765
104739
104715
104692
104671
104652
104634
104618
104605
104593
104584
104577
104571
104565
104561
104557
104554
104550
104545
104540
104534
104527
104518
104509
104498
104486
104473
104459
104444
104428
104410
104393
104374
104355
104335
104315
104295
104274
104253
104232
104211
104189
104168
104147
104126
104104
104084
104063
104042
104021
104001
103980
103960
103939
103918
103897
103876
103854
103832
103809
103786
103763
103740
103716
103693
103670
103647
103625
103604
103583
103563
103544
103526
103508
103491
103474
103458
103442
103427
103412
103397
103382
103367
103352
103337
103322
103307
103292
103276
103261
103246
103230
103214
103198
103182
103166
103150
103133
103117
103100
103083
103067
103050
103033
103016
102999
102982
102965
102948
102931
102914
102897
102881
102864
102847
102830
102813
102796
102780
102763
102746
102730
102713
102697
102681
102665
102648
102632
102616
102600
102584
102569
102553
102537
102522
102506
102491
102475
102460
102445
102430
102414
102399
102385
102370
102355
102340
102326
102311
102296
102282
102268
102253
102239
102225
102211
102197
102183
102169
102155
102141
102127
102114
102100
102086
102073
102059
102046
102033
102019
102006
101993
101980
101967
101954
101941
101928
101915
101902
101890
101877
101864
101851
101839
101826
101814
101801
101789
101777
101764
101752
101740
101727
101715
101703
101691
101679
101667
101655
101643
101631
101619
101607
101595
101583
101572
101560
101548
101536
101525
101513
101501
101490
101478
101467
101455
101444
101432
101421
101409
101398
101386
101375
101364
101352
101341
101330
106032
106032
106032
106031
106032
106031
106031
106031
106032
106033
106034
106036
106039
106042
106046
106050
106055
106060
106065
106069
106073
106076
106078
106078
106076
106074
106071
106068
106065
106062
106061
106060
106060
106061
106061
106062
106062
106060
106057
106051
106040
106022
105995
105957
105910
105862
105812
105761
105713
105670
105633
105601
105579
105566
105562
105568
105580
105600
105628
105664
105708
105759
105817
105881
105947
106015
106080
106141
106197
106247
106289
106325
106355
106378
106396
106409
106418
106423
106426
106425
106422
106419
106413
106408
106401
106395
106388
106381
106374
106368
106362
106356
106351
106346
106341
106337
106333
106330
106327
106324
106322
106320
106318
106317
106315
106314
106312
106312
106310
106309
106309
106308
106308
106307
106307
106307
106307
106307
106306
106304
106299
106288
106272
106246
106213
106174
106131
106087
106045
106007
105973
105947
105929
105917
105916
105926
105943
105969
106003
106041
106081
106121
106158
106190
106218
106239
106256
106265
106271
106272
106268
106262
106253
106242
106230
106218
106204
106191
106177
106164
106151
106139
106128
106118
106108
106098
106090
106083
106078
106072
106068
106063
106058
106053
106047
106040
106033
106024
106014
106003
105992
105979
105964
105947
105926
105901
105874
105847
105819
105793
105768
105745
105724
105706
105690
105677
105665
105655
105646
105639
105633
105628
105626
105624
105626
105628
105632
105637
105643
105649
105655
105661
105667
105671
105674
105676
105677
105676
105673
105669
105664
105657
105649
105640
105630
105619
105607
105595
105582
105568
105554
105540
105525
105510
105495
105480
105464
105449
105433
105418
105402
105386
105369
105352
105334
105316
105298
105280
105262
105245
105227
105210
105194
105177
105161
105145
105129
105112
105094
105076
105057
105038
105019
105000
104980
104959
104937
104914
104891
104866
104840
104813
104786
104759
104733
104707
104682
104660
104640
104623
104608
104595
104585
104576
104569
104564
104559
104556
104552
104549
104545
104541
104536
104530
104523
104515
104506
104495
104484
104471
104457
104441
104425
104408
104391
104372
104353
104333
104313
104293
104272
104251
104230
104209
104188
104167
104145
104124
104103
104082
104062
104041
104020
104000
103980
103959
103939
103918
103897
103875
103854
103831
103809
103786
103762
103738
103715
103691
103668
103645
103623
103602
103581
103561
103542
103524
103507
103490
103473
103457
103442
103426
103411
103396
103381
103367
103352
103337
103322
103307
103292
103277
103261
103246
103230
103214
103198
103182
103166
103150
103133
103117
103100
103084
103067
103050
103033
103016
102999
102982
102965
102948
102931
102914
102898
102881
102864
102847
102830
102813
102796
102780
102763
102746
102730
102713
102697
102681
102664
102648
102632
102616
102600
102584
102568
102553
102537
102521
102506
102491
102475
102460
102445
102430
102414
102399
102384
102370
102355
102340
102325
102311
102296
102282
102268
102253
102239
102225
102211
102197
102183
102169
102155
102141
102127
102114
102100
102086
102073
102059
102046
102033
102019
102006
101993
101980
101967
101954
101941
101928
101915
101902
101889
101877
101864
101851
101839
101826
101814
101801
101789
101777
101764
101752
101740
101727
101715
101703
101691
101679
101667
101655
101643
101631
101619
101607
101595
101583
101572
101560
101548
101536
101525
101513
101501
101490
101478
101467
101455
101444
101432
101421
101409
101398
101386
101375
101364
101352
101341
101330
106031
106031
106031
106031
106030
106029
106029
106028
106028
106029
106029
106031
106033
106036
106040
106044
106049
106054
106059
106064
106069
106072
106074
106076
106075
106073
106071
106067
106064
106062
106060
106060
106060
106061
106062
106063
106063
106061
106057
106048
106033
106007
105969
105922
105871
105817
105762
105708
105659
105616
105581
105555
105538
105526
105523
105528
105539
105559
105587
105624
105670
105725
105788
105857
105928
105999
106068
106132
106189
106240
106283
106319
106348
106371
106389
106401
106409
106414
106415
106415
106412
106409
106404
106398
106392
106386
106379
106373
106366
106360
106354
106349
106344
106339
106335
106331
106328
106325
106323
106320
106318
106317
106315
106314
106313
106312
106311
106310
106309
106309
106308
106307
106307
106307
106306
106306
106306
106305
106304
106301
106294
106282
106263
106233
106196
106153
106108
106063
106019
105979
105944
105918
105900
105889
105889
105899
105917
105942
105975
106012
106053
106095
106134
106168
106197
106220
106237
106247
106254
106255
106251
106246
106237
106227
106216
106204
106191
106177
106164
106151
106139
106127
106116
106106
106097
106089
106081
106075
106071
106067
106064
106060
106057
106053
106048
106041
106035
106026
106015
106003
105991
105976
105960
105940
105917
105890
105862
105833
105805
105779
105755
105734
105714
105697
105682
105668
105657
105647
105638
105631
105626
105622
105619
105618
105619
105621
105625
105630
105636
105642
105649
105656
105662
105667
105671
105673
105674
105673
105671
105667
105662
105655
105647
105638
105628
105617
105605
105592
105579
105566
105552
105537
105523
105508
105493
105478
105462
105447
105432
105416
105400
105384
105367
105351
105333
105315
105297
105279
105261
105243
105226
105209
105193
105177
105161
105145
105129
105112
105096
105079
105061
105043
105023
105003
104982
104960
104937
104913
104888
104862
104834
104807
104779
104751
104725
104700
104677
104656
104636
104619
104604
104592
104581
104573
104566
104561
104556
104552
104549
104546
104542
104538
104533
104527
104520
104512
104503
104492
104481
104468
104454
104439
104422
104406
104388
104369
104350
104331
104311
104290
104270
104249
104228
104207
104186
104164
104143
104122
104101
104080
104060
104039
104019
103998
103978
103958
103937
103917
103896
103874
103853
103830
103807
103784
103760
103737
103713
103689
103666
103643
103621
103600
103579
103560
103541
103523
103505
103488
103472
103456
103441
103426
103411
103396
103381
103367
103352
103337
103322
103307
103292
103277
103262
103246
103230
103215
103199
103182
103166
103150
103134
103117
103100
103084
103067
103050
103033
103016
102999
102982
102965
102948
102931
102914
102898
102881
102864
102847
102830
102813
102796
102780
102763
102746
102730
102713
102697
102681
102664
102648
102632
102616
102600
102584
102568
102553
102537
102521
102506
102490
102475
102460
102445
102429
102414
102399
102384
102370
102355
102340
102325
102311
102296
102282
102267
102253
102239
102225
102211
102197
102183
102169
102155
102141
102127
102114
102100
102086
102073
102059
102046
102033
102019
102006
101993
101980
101967
101954
101941
101928
101915
101902
101889
101877
101864
101851
101839
101826
101814
101801
101789
101777
101764
101752
101740
101727
101715
101703
101691
101679
101667
101655
101643
101631
101619
101607
101595
101583
101572
101560
101548
101536
101525
101513
101501
101490
101478
101467
101455
101444
101432
101421
101409
101398
101386
101375
101364
101352
101341
101330
106031
106030
106031
106030
106029
106028
106028
106027
106027
106027
106027
106028
106030
106032
106035
106039
106043
106048
106053
106058
106062
106066
106070
106072
106072
106072
106070
106067
106065
106062
106061
106061
106061
106062
106063
106064
106063
106061
106056
106044
106022
105988
105943
105890
105835
105775
105715
105660
105610
105569
105536
105512
105497
105488
105488
105495
105507
105527
105554
105589
105634
105688
105751
105821
105895
105970
106042
106108
106168
106220
106265
106302
106332
106355
106373
106386
106395
106400
106402
106402
106400
106396
106391
106386
106380
106374
106368
106362
106356
106350
106345
106340
106336
106331
106328
106324
106322
106319
106317
106316
106314
106313
106312
106312
106311
106310
106309
106309
106308
106308
106307
106307
106306
106305
106305
106304
106303
106302
106300
106296
106288
106274
106252
106220
106181
106136
106089
106042
105996
105956
105921
105893
105874
105862
105862
105871
105889
105915
105949
105987
106029
106071
106111
106146
106176
106199
106217
106227
106234
106236
106233
106228
106220
106211
106200
106188
106175
106162
106149
106136
106124
106112
106102
106092
106083
106076
106070
106065
106061
106058
106056
106055
106053
106050
106046
106041
106035
106026
106015
106002
105989
105973
105954
105933
105906
105878
105849
105820
105792
105765
105741
105720
105701
105684
105670
105658
105647
105637
105629
105621
105615
105611
105608
105607
105608
105611
105615
105621
105628
105635
105643
105651
105658
105663
105667
105670
105671
105670
105668
105664
105659
105652
105644
105635
105625
105614
105602
105589
105576
105563
105549
105534
105520
105505
105490
105475
105460
105444
105429
105413
105397
105381
105365
105348
105331
105313
105295
105277
105260
105242
105225
105208
105192
105176
105161
105145
105130
105113
105096
105079
105061
105043
105024
105003
104982
104960
104936
104911
104885
104858
104830
104802
104773
104745
104718
104693
104669
104647
104628
104611
104597
104585
104575
104566
104560
104555
104551
104548
104544
104541
104538
104534
104529
104523
104516
104508
104499
104488
104477
104464
104450
104435
104419
104402
104384
104366
104347
104327
104307
104287
104266
104246
104225
104204
104183
104161
104140
104119
104099
104078
104057
104037
104017
103996
103976
103956
103935
103915
103894
103873
103851
103829
103806
103783
103759
103735
103711
103687
103664
103641
103619
103598
103577
103558
103539
103521
103504
103487
103471
103456
103440
103425
103411
103396
103381
103367
103352
103337
103322
103307
103292
103277
103262
103246
103231
103215
103199
103183
103166
103150
103134
103117
103101
103084
103067
103050
103033
103016
103000
102983
102966
102949
102931
102914
102897
102881
102864
102847
102830
102813
102796
102779
102763
102746
102730
102713
102697
102681
102664
102648
102632
102616
102600
102584
102568
102553
102537
102521
102506
102490
102475
102460
102445
102429
102414
102399
102384
102369
102355
102340
102325
102311
102296
102282
102267
102253
102239
102225
102211
102196
102182
102169
102155
102141
102127
102113
102100
102086
102073
102059
102046
102033
102019
102006
101993
101980
101967
101954
101941
101928
101915
101902
101889
101877
101864
101851
101839
101826
101814
101801
101789
101777
101764
101752
101740
101727
101715
101703
101691
101679
101667
101655
101643
101631
101619
101607
101595
101583
101572
101560
101548
101536
101525
101513
101501
101490
101478
101467
101455
101444
101432
101421
101409
101398
101386
101375
101364
101352
101341
101330
106031
106030
106030
106029
106028
106027
106026
106024
106023
106022
106022
106022
106023
106024
106026
106028
106032
106036
106041
106046
106051
106056
106061
106066
106069
106071
106072
106072
106071
106069
106068
106067
106067
106068
106068
106067
106065
106061
106053
106037
106008
105970
105916
105860
105797
105733
105671
105615
105565
105526
105495
105473
105460
105453
105453
105460
105472
105491
105517
105552
105597
105653
105718
105792
105869
105948
106023
106091
106153
106206
106251
106288
106318
106341
106359
106371
106380
106384
106387
106387
106384
106381
106377
106372
106366
106361
106355
106349
106344
106339
106334
106330
106326
106322
106319
106317
106314
106313
106311
106310
106310
106309
106309
106308
106308
106308
106308
106307
106307
106306
106306
106305
106305
106304
106303
106302
106301
106299
106295
106290
106281
106265
106242
106208
106165
106119
106070
106022
105976
105935
105899
105872
105853
105842
105841
105850
105867
105892
105924
105963
106005
106048
106089
106125
106155
106179
106196
106207
106214
106216
106213
106209
106201
106192
106182
106171
106158
106146
106133
106120
106108
106096
106086