/*--------------------------------*- C++ -*----------------------------------*\
| =========                 |                                                 |
| \\      /  F ield         | OpenFOAM: The Open Source CFD Toolbox           |
|  \\    /   O peration     | Version:  v1812                                 |
|   \\  /    A nd           | Web:      www.OpenFOAM.com                      |
|    \\/     M anipulation  |                                                 |
\*---------------------------------------------------------------------------*/
FoamFile
{
    version     2.0;
    format      ascii;
    class       surfaceScalarField;
    location    "1";
    object      phi;
}
// * * * * * * * * * * * * * * * * * * * * * * * * * * * * * * * * * * * * * //

dimensions      [1 0 -1 0 0 0 0];
oriented        oriented;


internalField   nonuniform List<scalar> 
40240
(
-0.000106223
9.31215e-05
-0.00011369
-5.60861e-06
-6.81525e-06
-0.000119947
0.00021945
-0.000239252
0.000531675
-0.000325155
0.000832176
-0.000313378
0.00109553
-0.000276192
0.00129477
-0.000212061
0.00142195
-0.000139974
0.00148335
-7.4198e-05
0.00151506
-4.45022e-05
0.00155062
-4.83707e-05
0.00161557
-7.77966e-05
0.0017444
-0.000141722
0.00196837
-0.000236938
0.00231208
-0.000356783
0.0027961
-0.000497257
0.00343059
-0.000647928
0.00421594
-0.000799043
0.0051362
-0.00093431
0.00616157
-0.00103975
0.00724719
-0.00110051
0.00833052
-0.00109853
0.00933898
-0.00102426
0.0102091
-0.000886501
0.0108634
-0.00067083
0.0112966
-0.000450554
0.011414
-0.000134746
0.0113517
4.38794e-05
0.0110153
0.000317981
0.010548
0.000448227
0.00999209
0.000536807
0.00944272
0.000530167
0.00897024
0.000453276
0.00865922
0.000292021
0.00862199
1.88221e-05
0.00884722
-0.000243104
0.00942281
-0.000592893
0.0102722
-0.000865741
0.011295
-0.00103737
0.0122889
-0.00100801
0.0125972
-0.000321018
0.0122096
0.00037092
0.0110882
0.00110605
0.0103658
0.000701658
0.00849047
0.00185334
0.00548212
0.00298657
0.00172931
0.0037344
-0.00269421
0.00440732
-0.00808918
0.00538083
-0.0141067
0.00600415
-0.0203409
0.00622238
-0.0263476
0.00599662
-0.031908
0.00555264
-0.0369282
0.00501349
-0.0411828
0.00425055
-0.0446828
0.0034984
-0.0472965
0.00261365
-0.0490317
0.00173754
-0.0499168
0.000888508
-0.0500174
0.000106779
-0.0493186
-0.000693917
-0.0479403
-0.00137149
-0.0457204
-0.00221373
-0.0430052
-0.00270885
-0.0399238
-0.00307536
-0.0365609
-0.00335736
-0.033001
-0.00355479
-0.0293554
-0.0036412
-0.0257014
-0.00365016
-0.0221046
-0.00359367
-0.0186235
-0.00347825
-0.0152874
-0.00333346
-0.0121375
-0.00314707
-0.00915866
-0.00297605
-0.00639661
-0.00275871
-0.00392626
-0.00246691
-0.0020441
-0.00187817
-0.000425663
-0.00161395
0.00134464
-0.00176509
0.00305977
-0.00170924
0.00464996
-0.00158354
0.00607225
-0.00141485
0.00734618
-0.001266
0.00847438
-0.00111992
0.00946689
-0.000984231
0.0103313
-0.000856387
0.0110753
-0.000736751
0.0117056
-0.000624209
0.0122284
-0.000518053
0.0126505
-0.000418963
0.0129765
-0.000325155
0.0132153
-0.000240795
0.0133698
-0.000159096
0.0134607
-9.81254e-05
0.0134664
-1.54434e-05
0.0134293
2.51457e-05
0.0133505
6.50633e-05
0.0132382
9.73133e-05
0.0130948
0.00012749
0.0129045
0.000173748
0.0127008
0.000187384
0.0124902
0.000194981
0.0122778
0.00019789
0.0120614
0.000203336
0.0118597
0.000189931
0.0116685
0.000180975
0.0115098
0.000149833
0.0113868
0.000115497
0.0113181
6.22215e-05
0.0113054
7.44878e-06
0.0113518
-5.11175e-05
0.0114799
-0.000131847
0.0116973
-0.000220328
0.0120141
-0.000318774
0.0124519
-0.000438957
0.013033
-0.000581528
0.013759
-0.000725902
0.0145693
-0.000809283
0.0153808
-0.00081027
0.0160526
-0.000669781
0.0163113
-0.000255954
0.0159598
0.000353404
0.0144889
0.001469
0.0121037
0.00238308
0.00912063
0.00297837
0.00635647
0.00275854
0.00301732
0.00333236
-0.000599499
0.0036082
-0.0046744
0.00406856
-0.00871869
0.00403808
-0.0123129
0.00359259
-0.0151443
0.00283029
-0.0171143
0.00197351
-0.018133
0.00102429
-0.0182142
9.19477e-05
-0.0171381
-0.00106538
-0.015389
-0.00173395
-0.0129853
-0.00238545
-0.0104052
-0.00256156
-0.00763316
-0.00275404
-0.00432279
-0.00329497
-0.000817232
-0.00349077
0.00308572
-0.00388919
0.0070744
-0.00397726
0.0108331
-0.00374881
0.0142675
-0.00342656
0.0172868
-0.00301234
0.0198231
-0.00253021
0.0218637
-0.0020348
0.0233618
-0.00149171
0.024352
-0.000983522
0.0248761
-0.00051428
0.0249951
-0.000107471
0.0248262
0.000185599
0.0242681
0.000577026
0.0234264
0.000865161
0.0224715
0.000981275
0.0214281
0.00107261
0.0203539
0.00110464
0.0192838
0.00110052
0.0182524
0.00106051
0.0172715
0.00100789
0.0163558
0.00094068
0.0155316
0.000846757
0.0148207
0.000731631
0.0142506
0.000589338
0.0138331
0.000436292
0.0135903
0.000260088
0.0135361
7.12722e-05
0.0136162
-6.4003e-05
0.0138556
-0.00022291
0.0141913
-0.000319859
0.0145936
-0.00038634
0.0150606
-0.000451052
0.0154719
-0.000395192
0.0157842
-0.00029572
0.0159839
-0.000182987
0.0160368
-3.53053e-05
0.0160389
1.55106e-05
0.0160239
3.36258e-05
0.0160275
1.57083e-05
0.0160009
4.68595e-05
0.0158023
0.00021966
0.0152456
0.000578069
0.0141795
0.00108772
0.0126817
0.00151957
0.0108446
0.00186004
0.00885884
0.00200536
0.00703479
0.00184524
0.0055108
0.00154643
0.00386704
0.00167092
0.00231104
0.00158348
0.000915282
0.00142505
-0.000301307
0.00124619
-0.0014465
0.00117685
-0.00242978
0.00101655
-0.00322172
0.000827628
-0.0038575
0.000673363
-0.00431526
0.000497208
-0.00465616
0.000382272
-0.00478508
0.000170855
-0.00477083
3.08345e-05
-0.00455242
-0.000172753
-0.0041308
-0.000374462
-0.00358856
-0.000493702
-0.00322874
-0.00031046
-0.00265344
-0.000524581
-0.0018421
-0.000759591
-0.000930192
-0.000859208
7.24687e-05
-0.000949158
0.00121706
-0.00109044
0.00246602
-0.00119422
0.00373432
-0.00121318
0.00501309
-0.00122345
0.00626411
-0.00119555
0.00748545
-0.00116587
0.00865184
-0.00111107
0.00974835
-0.00104143
0.0107646
-0.000961461
0.0116891
-0.000870274
0.0125175
-0.000774531
0.0132457
-0.000674819
0.0138736
-0.00057532
0.0144036
-0.000478102
0.0148399
-0.000384917
0.0151887
-0.000298064
0.0154571
-0.00021798
0.0156545
-0.000147449
0.015789
-8.44652e-05
0.0158814
-4.22617e-05
0.0159242
7.53673e-06
0.015952
2.30477e-05
0.0159626
4.11457e-05
0.0159674
4.80119e-05
0.0159712
5.03141e-05
0.0159746
5.23871e-05
0.0159747
5.67484e-05
0.0159648
6.83703e-05
0.0159359
8.8769e-05
0.0158817
0.000115407
0.0157987
0.000145603
0.0156871
0.000175169
0.0155544
0.000196968
0.0154124
0.000206989
0.0152836
0.000194079
0.015182
0.000167349
0.0151477
0.000100474
0.0151583
5.64827e-05
0.0152598
-3.45015e-05
0.0154352
-0.000108009
0.015707
-0.000203966
0.0160491
-0.000273855
0.0164361
-0.000318214
0.016811
-0.00030566
0.0171318
-0.000250989
0.0173918
-0.000189565
0.0175854
-0.000122701
0.0177102
-5.30545e-05
0.0178059
-2.28035e-05
0.0178067
7.21329e-05
0.0177678
0.000112553
0.0176714
0.000170528
0.0175029
0.000243039
0.0172619
0.000316026
0.0169415
0.000395779
0.0165172
0.000499932
0.0159524
0.000640834
0.0152094
0.000819126
0.0142727
0.00101288
0.0131326
0.0012168
0.0118164
0.00139226
0.0103409
0.00155267
0.00878731
0.00162807
0.00729426
0.0015676
0.00613397
0.0012367
0.00480749
0.00140629
0.00348608
0.00140167
0.00227725
0.00129029
0.00122437
0.001135
0.000336821
0.000970413
-0.000357637
0.000778255
-0.000764521
0.000491943
-0.000827926
0.000150737
-0.00058786
-0.000151905
-0.000193253
-0.000304773
0.000244022
-0.000347486
0.000878686
-0.000544311
0.00175783
-0.000788483
0.0027925
-0.000943667
0.00394475
-0.00106112
0.00518151
-0.00114558
0.00647464
-0.00120204
0.00779577
-0.00123023
0.00911898
-0.00123259
0.0104203
-0.00121106
0.011681
-0.00117083
0.0128847
-0.00111452
0.0140196
-0.00104621
0.0150762
-0.000968673
0.0160485
-0.000884916
0.0169323
-0.000797279
0.0177262
-0.000707939
0.0184302
-0.00061862
0.0190459
-0.000530919
0.0195764
-0.00044608
0.0200257
-0.000365195
0.0203989
-0.000289361
0.020702
-0.000219255
0.0209419
-0.000156031
0.021126
-9.99462e-05
0.0212621
-5.15907e-05
0.0213578
-1.06189e-05
0.0214169
2.65608e-05
0.0214511
5.23525e-05
0.0214633
7.5304e-05
0.021457
9.44437e-05
0.0214528
9.27747e-05
0.0214495
9.25192e-05
0.0214546
8.47708e-05
0.0214688
7.59593e-05
0.0214923
6.72436e-05
0.0215228
6.0646e-05
0.0215526
6.1641e-05
0.0215781
6.62412e-05
0.0215832
8.68152e-05
0.0215728
0.000102035
0.0215247
0.000139722
0.021435
0.000180855
0.0212951
0.000230944
0.0211034
0.000282366
0.0208597
0.000334111
0.020564
0.000385789
0.0202121
0.000441579
0.0198067
0.000494774
0.0193636
0.000532182
0.0188966
0.000555749
0.0184171
0.000567887
0.0179373
0.000568068
0.0174693
0.000555953
0.017027
0.000530175
0.0166232
0.000491456
0.0162676
0.000443207
0.0159676
0.000387522
0.0157248
0.000330331
0.0155441
0.000267995
0.0154178
0.000213674
0.0153539
0.00015104
0.0153385
0.000102513
0.0153682
5.69057e-05
0.0154416
1.3075e-05
0.0155545
-2.68172e-05
0.0156997
-5.92974e-05
0.0158724
-8.71794e-05
0.0160673
-0.000109626
0.0162796
-0.000127448
0.016505
-0.000140846
0.0167393
-0.000150247
0.0169792
-0.000156183
0.0172218
-0.000159385
0.0174644
-0.000159853
0.0177047
-0.00015797
0.0179408
-0.000154208
0.0181711
-0.000148931
0.0183944
-0.000142449
0.0186098
-0.000135038
0.0188166
-0.000126945
0.0190143
-0.000118383
0.0192026
-0.00010952
0.0193814
-0.000100508
0.0195506
-9.14657e-05
0.0197103
-8.24934e-05
0.0198606
-7.36607e-05
0.0200018
-6.50346e-05
0.020134
-5.666e-05
0.0202575
-4.85915e-05
0.0203728
-4.08493e-05
0.0204801
-3.34725e-05
0.0205799
-2.64618e-05
0.0206724
-1.98406e-05
0.0207581
-1.3621e-05
0.0208374
-7.81702e-06
0.0209108
-2.44228e-06
0.0209786
2.49181e-06
0.0210414
6.97425e-06
0.0210995
1.10074e-05
0.0211533
1.46192e-05
0.0212033
1.78865e-05
0.0212498
2.07964e-05
0.0212931
2.33449e-05
0.0213336
2.55521e-05
0.0213715
2.74324e-05
0.0214073
2.90122e-05
0.0214411
3.03213e-05
0.0214732
3.13865e-05
0.0215038
3.22343e-05
0.0215332
3.28892e-05
0.0215614
3.33746e-05
0.0215886
3.3713e-05
0.021615
3.39235e-05
0.0216406
3.40247e-05
0.0216655
3.40345e-05
0.0216899
3.39684e-05
0.0217137
3.38411e-05
0.0217371
3.3665e-05
0.02176
3.34506e-05
0.0217825
3.32075e-05
0.0218046
3.29423e-05
0.0218263
3.26618e-05
0.0218477
3.23711e-05
0.0218687
3.20741e-05
0.0218893
3.17764e-05
0.0219095
3.14777e-05
0.0219294
3.1179e-05
0.021949
3.08805e-05
0.0219681
3.05823e-05
0.0219869
3.02868e-05
0.0220053
2.99909e-05
0.0220234
2.96923e-05
0.0220411
2.9391e-05
0.0220585
2.90875e-05
0.0220754
2.87828e-05
0.0220921
2.84707e-05
0.0221084
2.81532e-05
0.0221244
2.78311e-05
0.02214
2.75022e-05
0.0221553
2.7169e-05
0.0221704
2.68295e-05
0.0221851
2.64872e-05
0.0221995
2.61408e-05
0.0222136
2.5792e-05
0.0222274
2.54399e-05
0.0222409
2.5087e-05
0.0222541
2.47356e-05
0.0222671
2.4387e-05
0.0222797
2.40398e-05
0.0222921
2.3694e-05
0.0223042
2.33528e-05
0.0223159
2.30137e-05
0.0223274
2.26785e-05
0.0223386
2.23514e-05
0.0223495
2.20302e-05
0.02236
2.17132e-05
0.0223703
2.14019e-05
0.0223802
2.10965e-05
0.0223899
2.07987e-05
0.0223992
2.05054e-05
0.0224082
2.0214e-05
0.0224168
1.99267e-05
0.0224252
1.96455e-05
0.0224332
1.93693e-05
0.0224409
1.90968e-05
0.0224482
1.88261e-05
0.0224552
1.85564e-05
0.022462
1.82882e-05
0.0224683
1.80248e-05
0.0224744
1.7762e-05
0.0224801
1.74979e-05
0.0224856
1.72318e-05
0.0224907
1.69662e-05
0.0224955
1.67006e-05
0.0225
1.64366e-05
0.0225042
1.61726e-05
0.022508
1.59078e-05
0.0225116
1.56412e-05
0.0225149
1.53763e-05
0.0225179
1.51148e-05
0.0225206
1.48574e-05
0.0225231
1.46052e-05
0.0225252
1.43571e-05
0.022527
1.41133e-05
0.0225284
1.38741e-05
0.0225296
1.36421e-05
0.0225305
1.34459e-05
0.022531
1.32292e-05
0.0225312
1.30181e-05
0.0225309
1.29047e-05
0.0225305
1.2627e-05
0.0225294
1.26229e-05
0.0225281
1.24049e-05
0.0225263
1.24167e-05
0.0225239
1.25434e-05
0.0225213
1.21787e-05
0.0225182
1.23831e-05
0.0225147
1.22447e-05
0.0225107
1.23385e-05
0.0225061
1.25941e-05
0.0225012
1.28028e-05
0.0224952
1.36831e-05
0.0224885
1.43535e-05
0.0224797
1.64383e-05
0.0224685
1.90149e-05
0.0224529
2.34248e-05
0.0224319
2.87374e-05
0.0224022
3.7255e-05
0.0223695
3.97469e-05
0.0223332
4.27588e-05
0.0223083
2.98344e-05
0.0222957
1.49209e-05
-3.28057e-05
-3.60853e-05
0.000116176
7.06861e-05
-0.000125356
0.00052372
-0.000585886
0.00115879
-0.000887184
0.00188478
-0.00106395
0.0025907
-0.00103205
0.0032332
-0.000931413
0.00377107
-0.000762597
0.00423154
-0.000613069
0.0046376
-0.000492861
0.00499558
-0.000415061
0.00533432
-0.000399709
0.0057048
-0.000460854
0.00615965
-0.000609193
0.00673417
-0.000824183
0.00747027
-0.00110577
0.00840171
-0.00144172
0.00954596
-0.00180538
0.0109075
-0.00217405
0.0124738
-0.00251433
0.0142133
-0.00279325
0.0160836
-0.00298538
0.018006
-0.00303578
0.019876
-0.00290975
0.0215948
-0.00262121
0.0230955
-0.00218775
0.0242621
-0.00163405
0.0250578
-0.000947714
0.0252788
-0.000195027
0.0251482
0.000430023
0.0245882
0.000989185
0.0237839
0.00132176
0.0227448
0.0015499
0.0216392
0.00153949
0.0206534
0.00125828
0.0199069
0.000746254
0.0195589
8.62629e-05
0.0194845
-0.000536195
0.0194013
-0.000800013
0.0188359
-0.000486802
0.0175502
0.000265002
0.0162753
0.000941365
0.0145814
0.00204896
0.0114485
0.00421743
0.00535005
0.00677389
-0.00246133
0.00963709
-0.0116896
0.0121929
-0.0222054
0.0142314
-0.0331902
0.0153758
-0.0434857
0.0156596
-0.0526251
0.0151269
-0.0603344
0.0139159
-0.0663324
0.0119812
-0.0708203
0.0100283
-0.0738947
0.00807634
-0.0758653
0.00621198
-0.0767726
0.00439768
-0.0767215
0.0025557
-0.0756823
0.000692951
-0.073798
-0.000999282
-0.0713745
-0.00232014
-0.0686015
-0.00347022
-0.0653718
-0.00460374
-0.0617562
-0.00583188
-0.0576369
-0.00683041
-0.0532508
-0.00746394
-0.0486467
-0.00796447
-0.0438932
-0.0083123
-0.0390736
-0.00846575
-0.0342504
-0.00847933
-0.0295032
-0.00834789
-0.0248885
-0.00810105
-0.0204585
-0.00777258
-0.0162373
-0.00737792
-0.0122577
-0.0069658
-0.00848295
-0.00654386
-0.00482313
-0.00613687
-0.000979356
-0.00573165
0.00271569
-0.00531768
0.00580405
-0.00486132
0.00856328
-0.00447506
0.0110957
-0.00412076
0.0134731
-0.00379478
0.015688
-0.00348106
0.0177556
-0.0031851
0.0196759
-0.00289946
0.0214548
-0.00262783
0.0230959
-0.00236762
0.0246027
-0.00211837
0.0259779
-0.0018783
0.0272231
-0.0016476
0.0283389
-0.00142328
0.0293251
-0.00120871
0.0301835
-0.000999387
0.0309117
-0.000808978
0.0315132
-0.00060112
0.0319787
-0.000426788
0.0323175
-0.000263021
0.0325428
-0.000119873
0.0326087
6.76477e-05
0.0325929
0.000190862
0.03249
0.00028677
0.0323044
0.000373311
0.0320544
0.000438156
0.0317557
0.000490391
0.03144
0.000492693
0.0311104
0.000496402
0.0307906
0.000454736
0.0305066
0.000384332
0.030268
0.000285811
0.0300894
0.000171582
0.0299908
3.35913e-05
0.0299655
-0.000119416
0.0300058
-0.0002723
0.0300876
-0.000410476
0.0301711
-0.000530074
0.0302251
-0.000640209
0.0302212
-0.000724381
0.0300856
-0.000674503
0.02959
-0.000314298
0.0283722
0.000551098
0.0262188
0.0019019
0.0230807
0.00349658
0.019198
0.00535335
0.0145155
0.00706553
0.00900895
0.00848113
0.00230597
0.009457
-0.00428549
0.0099173
-0.010312
0.00963038
-0.0151249
0.00887734
-0.0187481
0.00765775
-0.0211884
0.0060328
-0.0226015
0.00424434
-0.0230513
0.00242657
-0.0229176
0.00089747
-0.0219368
-0.000879518
-0.0202018
-0.0027879
-0.0174882
-0.00442996
-0.0138803
-0.00597612
-0.00931474
-0.00710581
-0.00383277
-0.00821463
0.00189223
-0.00899714
0.00785234
-0.00942978
0.0135936
-0.00961168
0.0191584
-0.00952352
0.0246294
-0.00920385
0.0298911
-0.0086758
0.0348654
-0.00797752
0.0394463
-0.00710468
0.043582
-0.00616682
0.0472164
-0.00512394
0.0503027
-0.00406903
0.0527923
-0.00300217
0.0545811
-0.0018941
0.0554145
-0.000643473
0.0555462
0.00045103
0.055192
0.001229
0.0542187
0.00196832
0.0526409
0.00266878
0.0506201
0.00314827
0.0482668
0.00348007
0.0456863
0.00366975
0.043016
0.00370828
0.0404085
0.00357886
0.0379901
0.00329533
0.0358639
0.00288665
0.0340979
0.00238251
0.0327239
0.00183612
0.0317586
0.0012491
0.0311641
0.000688125
0.0309481
0.000172962
0.0309584
-0.000212125
0.0312279
-0.000571319
0.0316612
-0.000802888
0.0321916
-0.000966117
0.0327203
-0.000909691
0.0331178
-0.000679313
0.0332419
-0.000293498
0.0331185
0.000102107
0.0326042
0.000544297
0.0316498
0.00100298
0.0301944
0.00148666
0.028216
0.00204196
0.0257506
0.00270324
0.0228819
0.00346653
0.0197427
0.0042477
0.0164172
0.00486655
0.013071
0.00522661
0.00976399
0.00533547
0.00640688
0.0052236
0.00308011
0.00489678
0.000381009
0.00439362
-0.0018285
0.00381911
-0.00362198
0.00324643
-0.00505686
0.00271144
-0.00603476
0.00218626
-0.00664559
0.00165998
-0.00699682
0.00121317
-0.00714643
0.000858766
-0.00718859
0.000576827
-0.00707248
0.000305241
-0.00678799
-7.27009e-05
-0.00630184
-0.000412484
-0.00564915
-0.000780794
-0.00485818
-0.00111872
-0.00384579
-0.00145748
-0.00230694
-0.00179917
-0.00062185
-0.00215757
0.00114328
-0.00247098
0.00307818
-0.00273873
0.00515151
-0.00296574
0.00726205
-0.00314307
0.00939587
-0.00326888
0.0115641
-0.00332133
0.0137534
-0.00335182
0.0159176
-0.00329807
0.0180409
-0.003227
0.0200901
-0.00309767
0.0220396
-0.00292822
0.0238708
-0.00272978
0.0255657
-0.00250231
0.0271085
-0.00225474
0.0284875
-0.00199159
0.029693
-0.00171923
0.03072
-0.00144421
0.0315653
-0.00117021
0.0322315
-0.000905554
0.0327212
-0.000650151
0.0330482
-0.000418112
0.0332197
-0.000199952
0.0332622
-2.99952e-05
0.0332218
0.000101357
0.0330995
0.000197906
0.0329151
0.000277809
0.032685
0.000330311
0.0324279
0.000359902
0.0321538
0.000379683
0.0318643
0.00040064
0.0315542
0.000434523
0.0312143
0.000486125
0.0308315
0.000557337
0.0304001
0.000637918
0.029926
0.000711958
0.0294276
0.000759534
0.028933
0.000766793
0.0284804
0.000712628
0.0281171
0.000597183
0.0278712
0.000413304
0.0278015
0.000193733
0.0278573
-2.23947e-05
0.028091
-0.000273559
0.0284673
-0.000511989
0.0289697
-0.000707594
0.0295679
-0.000847364
0.0302734
-0.000941589
0.0310364
-0.000944233
0.0317734
-0.000856192
0.0323925
-0.000671292
0.03282
-0.000409879
0.0329418
-7.15969e-05
0.0328562
0.000228654
0.032419
0.000622639
0.0316305
0.00103242
0.0305453
0.00140179
0.0292029
0.00173254
0.0276243
0.00204925
0.0258275
0.00237225
0.023839
0.00270543
0.0217057
0.0030291
0.0194358
0.00335983
0.0170369
0.00369266
0.0145794
0.00392714
0.0121233
0.0040846
0.0096592
0.00417009
0.00712321
0.00418162
0.00439373
0.0040452
0.00210883
0.00376982
0.00020316
0.00338754
-0.00129849
0.00287284
-0.00236796
0.00228664
-0.00285993
0.00154428
-0.00298961
0.000992033
-0.00286988
0.000457529
-0.00251159
-0.000120896
-0.00187109
-0.000704902
-0.000883113
-0.00120417
0.000605054
-0.00174561
0.00231949
-0.00216742
0.00416321
-0.00254022
0.00615467
-0.00284248
0.00826223
-0.00307558
0.0104542
-0.00324398
0.0126988
-0.00335281
0.0149633
-0.00340074
0.0172194
-0.00339459
0.0194407
-0.00333822
0.0216046
-0.00324081
0.0236917
-0.00310788
0.0256855
-0.00294657
0.0275723
-0.00276245
0.029341
-0.00256111
0.0309831
-0.00234732
0.0324922
-0.00212544
0.0338638
-0.00189952
0.0350958
-0.00167303
0.0361878
-0.00144904
0.0371406
-0.00123048
0.0379574
-0.00101993
0.0386433
-0.000819975
0.0392046
-0.000633124
0.0396499
-0.000461895
0.0399891
-0.000308046
0.0402299
-0.000169249
0.0403804
-4.22566e-05
0.0404453
6.92802e-05
0.0404434
0.000159664
0.0404069
0.000214577
0.0403357
0.000248016
0.0402448
0.000267952
0.0401414
0.000273435
0.0400345
0.000269141
0.0399274
0.000261819
0.0398175
0.000258698
0.0396986
0.000269502
0.0395562
0.000298653
0.0393772
0.000356543
0.0391367
0.000433538
0.038822
0.000545632
0.0384163
0.000677657
0.0379113
0.000826955
0.0373003
0.000984061
0.0365813
0.0011434
0.0357621
0.00129511
0.0348682
0.00142525
0.0339247
0.00152774
0.0329445
0.00160158
0.0319488
0.00164037
0.030967
0.00163834
0.0300286
0.00159491
0.0291596
0.00151324
0.0283797
0.00139816
0.0277025
0.00125654
0.0271376
0.00109592
0.0266881
0.000924622
0.0263561
0.000749674
0.026134
0.000577485
0.0260203
0.000414452
0.0259974
0.00026101
0.0260506
0.000136026
0.026184
9.77679e-06
0.0263882
-0.000105343
0.0266527
-0.000205908
0.0269687
-0.000290163
0.0273262
-0.000359991
0.0277168
-0.000415893
0.0281325
-0.000459282
0.0285664
-0.000491227
0.0290121
-0.000512928
0.0294639
-0.000525466
0.0299159
-0.000529315
0.0303643
-0.000526576
0.030806
-0.000518455
0.0312382
-0.000505753
0.0316588
-0.000489257
0.0320658
-0.000469722
0.0324578
-0.00044785
0.0328339
-0.000424266
0.0331932
-0.000399504
0.0335355
-0.000374024
0.0338604
-0.000348206
0.0341681
-0.000322372
0.0344586
-0.000296781
0.0347323
-0.000271637
0.0349895
-0.000247109
0.0352308
-0.000223324
0.0354567
-0.000200418
0.0356679
-0.000178474
0.035865
-0.000157567
0.0360487
-0.000137742
0.0362199
-0.000119087
0.0363792
-0.00010163
0.0365276
-8.54623e-05
0.0366659
-7.05896e-05
0.0367948
-5.68765e-05
0.036915
-4.41729e-05
0.0370268
-3.24464e-05
0.0371311
-2.18532e-05
0.0372287
-1.25275e-05
0.0373205
-4.37333e-06
0.0374071
2.74118e-06
0.0374892
8.90203e-06
0.0375672
1.41687e-05
0.0376417
1.86242e-05
0.0377133
2.23352e-05
0.0377822
2.53727e-05
0.0378489
2.78163e-05
0.0379137
2.97399e-05
0.0379769
3.12111e-05
0.0380387
3.22938e-05
0.0380993
3.30421e-05
0.0381589
3.35073e-05
0.0382177
3.37373e-05
0.0382757
3.37741e-05
0.038333
3.36569e-05
0.0383898
3.34199e-05
0.038446
3.30919e-05
0.0385017
3.26981e-05
0.0385569
3.22564e-05
0.0386117
3.17843e-05
0.038666
3.1295e-05
0.0387198
3.07994e-05
0.0387732
3.03088e-05
0.0388261
2.98246e-05
0.0388785
2.93486e-05
0.0389304
2.88814e-05
0.0389819
2.8422e-05
0.0390328
2.79743e-05
0.0390832
2.75321e-05
0.0391331
2.709e-05
0.0391825
2.66466e-05
0.0392313
2.62019e-05
0.0392797
2.57581e-05
0.0393275
2.53025e-05
0.0393748
2.4836e-05
0.0394217
2.43614e-05
0.039468
2.38751e-05
0.0395138
2.33816e-05
0.0395592
2.28774e-05
0.0396041
2.23696e-05
0.0396484
2.18573e-05
0.0396924
2.13443e-05
0.0397358
2.08298e-05
0.0397787
2.03181e-05
0.0398212
1.98136e-05
0.0398632
1.9321e-05
0.0399046
1.88395e-05
0.0399456
1.83681e-05
0.039986
1.79141e-05
0.040026
1.74734e-05
0.0400653
1.70478e-05
0.0401042
1.66456e-05
0.0401424
1.62635e-05
0.0401801
1.58984e-05
0.0402172
1.55533e-05
0.0402538
1.52284e-05
0.0402897
1.49264e-05
0.040325
1.46422e-05
0.0403596
1.43699e-05
0.0403936
1.41117e-05
0.040427
1.38706e-05
0.0404597
1.36437e-05
0.0404918
1.34294e-05
0.0405232
1.32253e-05
0.040554
1.30287e-05
0.040584
1.28371e-05
0.0406134
1.26555e-05
0.0406422
1.24772e-05
0.0406702
1.22986e-05
0.0406976
1.21168e-05
0.0407244
1.19355e-05
0.0407505
1.17507e-05
0.0407759
1.1565e-05
0.0408007
1.13761e-05
0.0408249
1.11841e-05
0.0408484
1.09879e-05
0.0408714
1.07921e-05
0.0408936
1.05993e-05
0.0409153
1.04091e-05
0.0409364
1.02242e-05
0.0409568
1.00426e-05
0.0409766
9.8658e-06
0.0409958
9.69469e-06
0.0410144
9.54135e-06
0.0410324
9.40515e-06
0.0410498
9.27527e-06
0.0410665
9.14821e-06
0.0410827
9.07227e-06
0.0410982
8.93309e-06
0.0411131
8.99074e-06
0.0411274
8.94504e-06
0.0411411
8.99744e-06
0.0411543
9.10189e-06
0.0411668
9.02837e-06
0.0411789
9.12952e-06
0.0411904
9.14597e-06
0.0412014
9.32165e-06
0.041212
9.66039e-06
0.0412222
9.93109e-06
0.041232
1.10906e-05
0.0412412
1.22692e-05
0.041249
1.57918e-05
0.0412554
1.99682e-05
0.0412567
2.96632e-05
0.0412536
3.944e-05
0.0412456
5.29069e-05
0.0412312
6.16616e-05
0.0412145
6.68811e-05
0.0411993
5.13926e-05
0.0412073
1.05447e-05
-7.93901e-05
3.25437e-05
7.07303e-05
0.000368443
-0.000474088
0.00101097
-0.00124117
0.00185241
-0.0017413
0.00277111
-0.00199529
0.00366642
-0.00193995
0.00447597
-0.00175352
0.00517351
-0.00147267
0.00576611
-0.00121818
0.00623957
-0.000978831
0.00665149
-0.000839478
0.00706892
-0.00082965
0.00748632
-0.000890798
0.00796365
-0.0010992
0.00858558
-0.0014585
0.00938553
-0.0019182
0.0103956
-0.00246438
0.0116422
-0.00306467
0.0131385
-0.00368323
0.0148773
-0.0042663
0.0168329
-0.00476224
0.0189478
-0.00511424
0.021161
-0.0052632
0.0233773
-0.00514097
0.0255284
-0.00478789
0.0275195
-0.00419489
0.0292422
-0.00337339
0.0306334
-0.00235612
0.0316578
-0.0012374
0.0321343
-6.49771e-05
0.032063
0.00104018
0.031431
0.0019344
0.0304358
0.00252562
0.0291982
0.00275721
0.0277728
0.00266351
0.026246
0.00225289
0.0247133
0.00159976
0.0232038
0.00095549
0.0218374
0.000549631
0.0205135
0.000822417
0.018489
0.00227497
0.0143459
0.00506764
0.00755677
0.0088153
-0.00145377
0.0131977
-0.0124011
0.0176916
-0.024512
0.0217235
-0.0368176
0.0244781
-0.0482291
0.0256242
-0.0580108
0.0251385
-0.065572
0.023202
-0.0708435
0.0203808
-0.0742091
0.0172655
-0.0763896
0.0141457
-0.0779261
0.01155
-0.078883
0.00901902
-0.0792977
0.00661583
-0.0791097
0.00420285
-0.0782772
0.00171861
-0.0768885
-0.000694298
-0.0749055
-0.00297764
-0.0721224
-0.00509345
-0.0684492
-0.00712988
-0.0641076
-0.00892877
-0.059436
-0.0104861
-0.054537
-0.011713
-0.0492949
-0.0126916
-0.0438769
-0.0133702
-0.0384133
-0.0137664
-0.0329861
-0.0138866
-0.0276748
-0.0137873
-0.0225199
-0.0135027
-0.017558
-0.0130655
-0.0128139
-0.0125223
-0.00829247
-0.0119079
-0.00402371
-0.0112462
-4.47095e-05
-0.0105369
0.00359675
-0.00979449
0.00688487
-0.00903739
0.00985683
-0.00830845
0.0126974
-0.0077214
0.0154314
-0.00722927
0.0180032
-0.00671277
0.0204234
-0.00623469
0.0226885
-0.00576452
0.0248123
-0.00532504
0.0268033
-0.00490399
0.0286702
-0.00450567
0.0304203
-0.00412542
0.0320619
-0.00376239
0.033601
-0.00341432
0.0350431
-0.00308125
0.0363924
-0.00275897
0.0376526
-0.00244966
0.0388275
-0.00214939
0.0399143
-0.00186537
0.0409191
-0.00157076
0.0418263
-0.00129516
0.0426367
-0.00103213
0.043328
-0.000768855
0.0439122
-0.000475122
0.0443717
-0.000230508
0.0446973
-5.99803e-06
0.0448765
0.000220384
0.0449046
0.000428758
0.0448553
0.000551562
0.0447102
0.000645668
0.0444955
0.000713706
0.0442188
0.000725788
0.0438933
0.000697355
0.0435397
0.000622522
0.0431676
0.000523444
0.0427848
0.000392939
0.0424041
0.000234819
0.042037
6.6211e-05
0.0416594
-6.20398e-05
0.041197
-9.50465e-05
0.0405474
-1.32004e-05
0.0396068
0.000201228
0.0382178
0.000707934
0.0362379
0.00166384
0.0334969
0.0032935
0.0297507
0.00565279
0.024645
0.00860867
0.0184518
0.011549
0.0115716
0.0139451
0.00465078
0.0153988
-0.00172803
0.0158303
-0.0072413
0.0154238
-0.011898
0.0142802
-0.0156387
0.0126127
-0.018468
0.0104827
-0.0205573
0.00812203
-0.0218918
0.00558008
-0.0222648
0.00280656
-0.0213142
-4.26084e-05
-0.0193584
-0.00282033
-0.0166645
-0.00546313
-0.0131873
-0.00788506
-0.00899583
-0.010142
-0.00415336
-0.0119207
0.00106197
-0.0134002
0.00655521
-0.0144585
0.0123382
-0.0151799
0.0183252
-0.0155664
0.0243863
-0.0155551
0.0303825
-0.0151727
0.0361682
-0.0144369
0.0416747
-0.0134605
0.0468419
-0.0122528
0.051622
-0.010933
0.0559946
-0.0094872
0.0599321
-0.008002
0.0633841
-0.00645242
0.0662793
-0.00478975
0.0686971
-0.00306385
0.0706627
-0.00151888
0.0719049
-1.61233e-05
0.072338
0.00153669
0.0720991
0.00291166
0.071172
0.004082
0.0695355
0.00512685
0.0672665
0.00595353
0.0644922
0.00650202
0.0613247
0.00677075
0.0579258
0.00672252
0.0544954
0.00634764
0.0512169
0.00569305
0.0482509
0.00483521
0.0457131
0.00381961
0.0436813
0.00275197
0.0421726
0.00171112
0.0411807
0.000805777
0.0406345
-2.65928e-06
0.0404973
-0.000644958
0.0405606
-0.00101081
0.0407817
-0.00111674
0.0409707
-0.000856626
0.0409778
-0.000290556
0.0405901
0.000499459
0.0395848
0.00155997
0.0378731
0.00272638
0.0355112
0.00386131
0.032552
0.00501522
0.028982
0.00628881
0.0247965
0.00766913
0.0201552
0.00890722
0.0153187
0.00972154
0.0106571
0.00990725
0.00650425
0.00950943
0.00309905
0.00865321
0.000405789
0.00761441
-0.0016874
0.00651067
-0.00329006
0.00544679
-0.00446139
0.00444402
-0.00528253
0.00356023
-0.00590068
0.00283366
-0.00641276
0.00220271
-0.00673326
0.0015666
-0.0067774
0.000937672
-0.00651904
0.000355464
-0.00597807
-0.000196753
-0.00526696
-0.000742762
-0.00436308
-0.00127372
-0.00328639
-0.00181279
-0.00200314
-0.002355
-0.000527234
-0.00288451
0.00111124
-0.00338676
0.00290969
-0.00390281
0.00486602
-0.00437186
0.006994
-0.00480901
0.00924838
-0.00516007
0.0116206
-0.0054531
0.014079
-0.00566307
0.0165918
-0.00576838
0.0191294
-0.00582175
0.0216438
-0.00574327
0.02412
-0.00563246
0.0265299
-0.0054355
0.0288516
-0.00517696
0.0310656
-0.00486968
0.0331555
-0.00451752
0.0351029
-0.00412681
0.0368926
-0.00370576
0.0385094
-0.00326031
0.0399395
-0.0027988
0.0411707
-0.0023263
0.0421912
-0.00185179
0.0429931
-0.00137899
0.0435654
-0.000918905
0.0439176
-0.000482837
0.0440395
-8.48467e-05
0.0439886
0.000216154
0.0437678
0.000480616
0.0434088
0.000696307
0.0429283
0.000868793
0.0423551
0.000990299
0.0417194
0.00107049
0.041044
0.0011297
0.0403412
0.00119118
0.0396092
0.00127333
0.0388408
0.00138307
0.0380283
0.00150905
0.0371744
0.00162661
0.0362946
0.00170219
0.035424
0.0017024
0.0346045
0.00159862
0.0338862
0.00138299
0.0333042
0.00106331
0.0328937
0.000672483
0.0326991
0.000240624
0.0326935
-0.000199408
0.0328589
-0.00060865
0.0332097
-0.000989645
0.0337558
-0.00132439
0.0343992
-0.00151587
0.0348706
-0.00134624
0.0352872
-0.00120328
0.0355962
-0.000910238
0.0357775
-0.00052079
0.0358239
-4.60147e-05
0.0356423
0.000482496
0.0352156
0.00112246
0.0344792
0.00184262
0.0333675
0.00258754
0.0318786
0.00329579
0.0300365
0.00396614
0.0278652
0.00461847
0.0253727
0.00527279
0.0225443
0.00593214
0.0194204
0.00655818
0.0161274
0.00705995
0.0127547
0.00737445
0.00945665
0.0074581
0.00641237
0.00729059
0.00381448
0.00685812
0.00168746
0.00625075
3.16611e-05
0.00550419
-0.00118225
0.00468078
-0.00197148
0.00374202
-0.002458
0.00285498
-0.00276767
0.00193733
-0.00273292
0.00104265
-0.00214498
-4.52234e-05
-0.00114724
-0.00103183
0.000188349
-0.00195278
0.0018242
-0.0027512
0.00361495
-0.00344693
0.00559661
-0.00405904
0.00774425
-0.00459712
0.0100371
-0.00504394
0.0124395
-0.00538602
0.0149174
-0.0056293
0.0174365
-0.00577877
0.0199675
-0.00583802
0.0224837
-0.00581635
0.0249619
-0.00572138
0.027381
-0.00556415
0.029723
-0.00535325
0.0319721
-0.00509843
0.0341156
-0.0048079
0.0361426
-0.00448962
0.0380446
-0.00415044
0.0398147
-0.00379666
0.0414478
-0.00343402
0.0429403
-0.00306736
0.0442898
-0.00270099
0.045495
-0.00233895
0.0465555
-0.0019849
0.0474722
-0.00164247
0.0482471
-0.0013156
0.0488841
-0.00100819
0.0493874
-0.000722011
0.0497583
-0.000453653
0.0500023
-0.000202999
0.0501143
3.86119e-05
0.050116