/*--------------------------------*- C++ -*----------------------------------*\
| =========                 |                                                 |
| \\      /  F ield         | OpenFOAM: The Open Source CFD Toolbox           |
|  \\    /   O peration     | Version:  v1812                                 |
|   \\  /    A nd           | Web:      www.OpenFOAM.com                      |
|    \\/     M anipulation  |                                                 |
\*---------------------------------------------------------------------------*/
FoamFile
{
    version     2.0;
    format      ascii;
    class       volScalarField;
    location    "1";
    object      T;
}
// * * * * * * * * * * * * * * * * * * * * * * * * * * * * * * * * * * * * * //

dimensions      [0 0 0 1 0 0 0];


internalField   nonuniform List<scalar> 
20400
(
294.727
294.723
294.717
294.71
294.704
294.7
294.696
294.694
294.693
294.692
294.693
294.695
294.698
294.703
294.709
294.717
294.726
294.736
294.747
294.759
294.772
294.786
294.801
294.816
294.833
294.85
294.869
294.89
294.912
294.937
294.964
294.996
295.03
295.067
295.1
295.123
295.128
295.12
295.089
295.027
294.935
294.835
294.778
294.794
294.907
295.14
295.443
295.716
295.915
296.032
296.097
296.134
296.16
296.181
296.2
296.217
296.235
296.256
296.279
296.307
296.338
296.376
296.413
296.456
296.498
296.54
296.579
296.615
296.647
296.673
296.691
296.7
296.704
296.698
296.685
296.662
296.629
296.583
296.545
296.523
296.494
296.452
296.402
296.347
296.291
296.237
296.188
296.146
296.116
296.099
296.096
296.11
296.146
296.202
296.277
296.368
296.47
296.578
296.686
296.792
296.892
296.983
297.061
297.124
297.171
297.205
297.227
297.241
297.25
297.258
297.268
297.28
297.294
297.309
297.321
297.328
297.329
297.323
297.304
297.272
297.225
297.169
297.102
297.038
296.973
296.913
296.861
296.812
296.77
296.729
296.694
296.664
296.641
296.62
296.608
296.599
296.601
296.606
296.615
296.631
296.64
296.656
296.673
296.691
296.713
296.735
296.758
296.777
296.795
296.805
296.806
296.802
296.779
296.735
296.661
296.563
296.435
296.285
296.116
295.94
295.769
295.615
295.485
295.384
295.312
295.268
295.248
295.246
295.261
295.291
295.335
295.384
295.441
295.502
295.566
295.631
295.696
295.76
295.822
295.88
295.935
295.982
296.02
296.049
296.07
296.087
296.102
296.117
296.133
296.145
296.164
296.179
296.194
296.207
296.22
296.231
296.241
296.25
296.26
296.268
296.278
296.286
296.294
296.301
296.307
296.311
296.312
296.314
296.311
296.308
296.301
296.294
296.283
296.271
296.257
296.243
296.228
296.214
296.201
296.19
296.182
296.179
296.179
296.186
296.199
296.218
296.243
296.274
296.309
296.347
296.387
296.426
296.463
296.496
296.523
296.541
296.549
296.548
296.539
296.519
296.489
296.451
296.406
296.358
296.31
296.263
296.22
296.18
296.144
296.111
296.083
296.059
296.038
296.02
296.002
295.985
295.968
295.951
295.933
295.914
295.893
295.871
295.849
295.826
295.802
295.777
295.75
295.721
295.692
295.664
295.636
295.609
295.584
295.562
295.538
295.522
295.504
295.488
295.473
295.459
295.446
295.435
295.426
295.416
295.411
295.405
295.402
295.399
295.397
295.396
295.395
295.395
295.396
295.398
295.401
295.406
295.412
295.42
295.431
295.444
295.46
295.478
295.5
295.524
295.551
295.579
295.608
295.638
295.669
295.698
295.726
295.751
295.774
295.794
295.808
295.816
295.818
295.818
295.816
295.812
295.804
295.793
295.78
295.766
295.75
295.731
295.711
295.69
295.669
295.649
295.628
295.608
295.587
295.566
295.546
295.525
295.506
295.487
295.47
295.453
295.438
295.424
295.411
295.398
295.387
295.377
295.366
295.357
295.348
295.34
295.333
295.326
295.32
295.314
295.308
295.302
295.296
295.29
295.284
295.278
295.271
295.264
295.257
295.249
295.241
295.233
295.225
295.216
295.207
295.198
295.188
295.178
295.168
295.157
295.147
295.136
295.125
295.113
295.102
295.09
295.079
295.067
295.055
295.043
295.031
295.019
295.007
294.994
294.982
294.97
294.958
294.945
294.933
294.921
294.908
294.896
294.884
294.872
294.86
294.848
294.836
294.824
294.812
294.8
294.788
294.776
294.764
294.753
294.741
294.73
294.718
294.707
294.695
294.684
294.673
294.662
294.65
294.639
294.628
294.617
294.606
294.596
294.585
294.574
294.563
294.553
294.542
294.531
294.521
294.511
294.5
294.49
294.479
294.469
294.459
294.449
294.439
294.429
294.419
294.409
294.399
294.389
294.379
294.369
294.359
294.35
294.34
294.33
294.321
294.311
294.302
294.292
294.283
294.273
294.264
294.254
294.245
294.236
294.227
294.217
294.208
294.199
294.19
294.181
294.172
294.162
294.153
294.144
294.135
294.126
294.117
294.108
294.099
294.09
294.081
294.072
294.063
294.054
294.045
294.036
294.026
294.017
294.007
293.996
293.985
293.972
293.957
293.94
293.919
293.893
293.861
293.824
293.781
293.734
293.685
293.634
293.583
293.545
293.534
293.534
294.714
294.71
294.704
294.698
294.695
294.692
294.69
294.689
294.688
294.688
294.688
294.69
294.692
294.696
294.7
294.706
294.713
294.721
294.731
294.741
294.751
294.763
294.774
294.785
294.797
294.809
294.822
294.838
294.855
294.876
294.9
294.928
294.96
294.996
295.033
295.068
295.089
295.091
295.079
295.035
294.955
294.878
294.866
294.94
295.163
295.494
295.788
295.986
296.095
296.135
296.145
296.145
296.143
296.143
296.141
296.152
296.165
296.191
296.224
296.267
296.32
296.38
296.447
296.52
296.599
296.682
296.766
296.85
296.931
297.009
297.085
297.157
297.224
297.283
297.335
297.377
297.408
297.429
297.444
297.457
297.459
297.45
297.425
297.385
297.33
297.262
297.181
297.09
296.99
296.883
296.772
296.662
296.557
296.46
296.375
296.305
296.254
296.223
296.211
296.214
296.237
296.285
296.352
296.429
296.509
296.589
296.668
296.744
296.818
296.889
296.956
297.021
297.083
297.142
297.197
297.244
297.277
297.294
297.294
297.281
297.244
297.183
297.105
297.029
296.958
296.896
296.834
296.783
296.735
296.696
296.663
296.636
296.617
296.602
296.593
296.589
296.587
296.587
296.59
296.588
296.593
296.593
296.589
296.583
296.569
296.553
296.539
296.532
296.532
296.538
296.547
296.561
296.574
296.582
296.581
296.571
296.542
296.491
296.414
296.311
296.183
296.041
295.893
295.747
295.612
295.495
295.401
295.33
295.284
295.263
295.261
295.268
295.294
295.337
295.392
295.457
295.529
295.604
295.678
295.752
295.824
295.893
295.954
296.005
296.044
296.076
296.105
296.134
296.164
296.198
296.225
296.256
296.289
296.324
296.358
296.394
296.431
296.467
296.505
296.542
296.579
296.616
296.651
296.684
296.714
296.74
296.766
296.788
296.805
296.815
296.819
296.818
296.809
296.794
296.771
296.742
296.707
296.667
296.623
296.576
296.528
296.478
296.43
296.385
296.344
296.309
296.281
296.263
296.254
296.254
296.26
296.275
296.299
296.328
296.359
296.39
296.419
296.443
296.455
296.455
296.449
296.431
296.401
296.362
296.316
296.268
296.22
296.174
296.132
296.093
296.058
296.028
296.003
295.981
295.962
295.946
295.931
295.917
295.903
295.888
295.87
295.85
295.83
295.809
295.787
295.764
295.739
295.713
295.688
295.663
295.641
295.622
295.606
295.591
295.58
295.564
295.553
295.543
295.535
295.527
295.521
295.516
295.515
295.513
295.512
295.509
295.504
295.499
295.494
295.488
295.48
295.471
295.46
295.447
295.434
295.419
295.404
295.39
295.376
295.362
295.351
295.34
295.332
295.327
295.326
295.328
295.336
295.35
295.37
295.395
295.423
295.455
295.49
295.527
295.565
295.598
295.626
295.647
295.666
295.683
295.694
295.699
295.7
295.698
295.69
295.676
295.659
295.64
295.619
295.597
295.575
295.552
295.529
295.506
295.484
295.461
295.438
295.416
295.395
295.375
295.356
295.338
295.322
295.306
295.293
295.28
295.268
295.256
295.246
295.236
295.229
295.222
295.217
295.211
295.207
295.202
295.198
295.193
295.189
295.184
295.18
295.175
295.169
295.164
295.158
295.152
295.145
295.138
295.131
295.123
295.115
295.107
295.098
295.089
295.079
295.069
295.059
295.049
295.038
295.028
295.017
295.006
294.994
294.983
294.971
294.959
294.947
294.936
294.924
294.911
294.899
294.887
294.875
294.863
294.851
294.838
294.826
294.814
294.802
294.79
294.777
294.765
294.753
294.741
294.729
294.717
294.705
294.693
294.682
294.67
294.658
294.646
294.635
294.623
294.612
294.6
294.589
294.578
294.566
294.555
294.544
294.533
294.522
294.511
294.5
294.489
294.478
294.467
294.457
294.446
294.435
294.425
294.414
294.404
294.393
294.383
294.372
294.362
294.352
294.342
294.332
294.321
294.311
294.301
294.291
294.281
294.271
294.262
294.252
294.242
294.232
294.222
294.213
294.203
294.194
294.184
294.175
294.165
294.156
294.146
294.137
294.128
294.118
294.109
294.1
294.09
294.081
294.072
294.063
294.054
294.045
294.035
294.026
294.017
294.008
293.999
293.99
293.981
293.972
293.963
293.953
293.944
293.934
293.924
293.914
293.903
293.89
293.876
293.86
293.841
293.817
293.789
293.756
293.719
293.678
293.633
293.585
293.54
293.516
293.517
294.693
294.69
294.686
294.685
294.686
294.687
294.688
294.688
294.688
294.688
294.689
294.689
294.691
294.693
294.697
294.702
294.709
294.718
294.727
294.738
294.75
294.761
294.772
294.781
294.79
294.799
294.808
294.818
294.829
294.843
294.86
294.881
294.907
294.937
294.974
295.013
295.043
295.053
295.046
295.015
294.973
294.965
295.046
295.297
295.636
295.892
296.027
296.071
296.081
296.07
296.028
295.981
295.933
295.889
295.852
295.826
295.815
295.814
295.844
295.896
295.969
296.062
296.169
296.286
296.404
296.522
296.641
296.758
296.873
296.985
297.095
297.2
297.302
297.401
297.498
297.591
297.684
297.773
297.86
297.944
298.026
298.105
298.176
298.235
298.278
298.3
298.304
298.293
298.256
298.188
298.09
297.968
297.82
297.649
297.454
297.241
297.016
296.786
296.559
296.344
296.152
295.993
295.875
295.8
295.766
295.761
295.776
295.824
295.909
296.017
296.14
296.276
296.426
296.588
296.757
296.925
297.076
297.19
297.251
297.262
297.246
297.196
297.109
297.015
296.929
296.856
296.793
296.75
296.721
296.703
296.689
296.686
296.694
296.708
296.733
296.759
296.78
296.791
296.793
296.784
296.761
296.724
296.677
296.622
296.563
296.501
296.438
296.371
296.305
296.252
296.213
296.193
296.189
296.196
296.216
296.249
296.288
296.314
296.316
296.31
296.292
296.254
296.193
296.106
295.996
295.873
295.747
295.623
295.509
295.411
295.335
295.289
295.276
295.282
295.305
295.352
295.42
295.502
295.59
295.677
295.762
295.844
295.921
295.988
296.042
296.084
296.124
296.165
296.209
296.258
296.313
296.372
296.437
296.507
296.582
296.66
296.741
296.821
296.903
296.986
297.071
297.155
297.237
297.318
297.395
297.468
297.536
297.598
297.65
297.693
297.724
297.743
297.748
297.742
297.724
297.692
297.647
297.589
297.52
297.44
297.35
297.253
297.148
297.039
296.928
296.816
296.706
296.601
296.505
296.421
296.352
296.301
296.266
296.247
296.242
296.245
296.26
296.286
296.316
296.341
296.353
296.353
296.345
296.324
296.29
296.245
296.196
296.146
296.099
296.056
296.018
295.986
295.96
295.938
295.922
295.907
295.895
295.883
295.871
295.859
295.845
295.831
295.815
295.799
295.782
295.764
295.744
295.723
295.703
295.686
295.673
295.664
295.658
295.654
295.652
295.653
295.657
295.663
295.67
295.678
295.686
295.691
295.695
295.698
295.7
295.701
295.7
295.699
295.695
295.69
295.682
295.672
295.659
295.643
295.623
295.6
295.572
295.541
295.506
295.467
295.425
295.381
295.337
295.294
295.253
295.214
295.18
295.15
295.127
295.112
295.107
295.109
295.121
295.149
295.189
295.236
295.285
295.333
295.384
295.434
295.483
295.527
295.562
295.586
295.598
295.599
295.595
295.584
295.566
295.543
295.517
295.489
295.461
295.432
295.403
295.373
295.344
295.314
295.284
295.255
295.227
295.201
295.176
295.153
295.132
295.113
295.095
295.079
295.065
295.053
295.044
295.036
295.031
295.026
295.023
295.021
295.019
295.019
295.018
295.018
295.019
295.019
295.019
295.019
295.018
295.017
295.016
295.014
295.012
295.009
295.005
295.001
294.996
294.991
294.985
294.979
294.972
294.965
294.957
294.949
294.94
294.931
294.922
294.913
294.903
294.893
294.882
294.872
294.861
294.85
294.839
294.828
294.816
294.805
294.793
294.781
294.77
294.758
294.746
294.734
294.722
294.71
294.698
294.686
294.675
294.663
294.651
294.639
294.627
294.615
294.603
294.592
294.58
294.568
294.557
294.545
294.534
294.522
294.511
294.499
294.488
294.477
294.466
294.454
294.443
294.432
294.421
294.41
294.399
294.388
294.377
294.367
294.356
294.345
294.335
294.324
294.314
294.303
294.293
294.282
294.272
294.262
294.251
294.241
294.231
294.221
294.211
294.201
294.191
294.181
294.171
294.161
294.151
294.141
294.132
294.122
294.112
294.103
294.093
294.083
294.074
294.064
294.055
294.045
294.036
294.027
294.017
294.008
293.999
293.989
293.98
293.971
293.962
293.952
293.943
293.934
293.925
293.916
293.906
293.897
293.888
293.878
293.869
293.859
293.849
293.838
293.827
293.815
293.801
293.785
293.766
293.744
293.718
293.688
293.655
293.619
293.578
293.54
293.527
293.532
294.674
294.675
294.678
294.684
294.691
294.698
294.704
294.707
294.708
294.707
294.707
294.707
294.708
294.711
294.716
294.724
294.734
294.747
294.762
294.775
294.785
294.793
294.798
294.803
294.807
294.812
294.818
294.825
294.834
294.845
294.857
294.872
294.892
294.917
294.949
294.986
295.015
295.026
295.022
295.012
295.023
295.125
295.384
295.711
295.925
296.004
296.016
295.995
295.922
295.818
295.699
295.582
295.476
295.39
295.343
295.329
295.359
295.442
295.546
295.672
295.814
295.969
296.131
296.293
296.451
296.6
296.736
296.858
296.966
297.063
297.15
297.232
297.313
297.394
297.479
297.567
297.662
297.761
297.866
297.977
298.09
298.201
298.311
298.418
298.523
298.623
298.718
298.805
298.877
298.925
298.943
298.939
298.91
298.84
298.725
298.567
298.365
298.121
297.834
297.51
297.16
296.797
296.437
296.098
295.798
295.546
295.359
295.247
295.209
295.213
295.252
295.348
295.505
295.72
295.988
296.299
296.627
296.926
297.135
297.226
297.23
297.194
297.103
296.99
296.891
296.817
296.769
296.752
296.744
296.763
296.804
296.861
296.929
296.996
297.054
297.101
297.132
297.151
297.156
297.143
297.112
297.06
296.987
296.892
296.778
296.649
296.511
296.373
296.243
296.12
296.008
295.914
295.843
295.803
295.796
295.803
295.829
295.876
295.939
296.008
296.071
296.113
296.121
296.112
296.092
296.052
295.99
295.903
295.797
295.679
295.557
295.447
295.369
295.335
295.335
295.353
295.402
295.479
295.573
295.669
295.76
295.845
295.923
295.992
296.048
296.093
296.135
296.18
296.235
296.301
296.378
296.465
296.564
296.673
296.79
296.914
297.043
297.177
297.313
297.45
297.586
297.721
297.852
297.979
298.101
298.217
298.325
298.423
298.511
298.588
298.653
298.705
298.742
298.762
298.767
298.759
298.734
298.69
298.629
298.549
298.453
298.339
298.209
298.065
297.909
297.741
297.565
297.384
297.201
297.021
296.849
296.691
296.552
296.436
296.344
296.278
296.236
296.217
296.216
296.222
296.236
296.248
296.249
296.243
296.223
296.189
296.143
296.092
296.043
295.999
295.962
295.934
295.913
295.898
295.888
295.88
295.873
295.867
295.86
295.852
295.843
295.832
295.819
295.805
295.79
295.775
295.76
295.746
295.734
295.729
295.728
295.732
295.742
295.755
295.77
295.786
295.801
295.816
295.828
295.838
295.844
295.847
295.849
295.848
295.846
295.842
295.837
295.831
295.825
295.818
295.811
295.803
295.794
295.785
295.775
295.763
295.749
295.732
295.711
295.685
295.654
295.616
295.571
295.517
295.455
295.387
295.313
295.236
295.159
295.086
295.02
294.964
294.921
294.896
294.889
294.892
294.909
294.945
294.999
295.067
295.144
295.227
295.309
295.384
295.445
295.486
295.506
295.508
295.504
295.488
295.462
295.429
295.392
295.354
295.314
295.273
295.231
295.189
295.147
295.105
295.063
295.023
294.985
294.949
294.916
294.885
294.857
294.832
294.81
294.791
294.776
294.764
294.754
294.748
294.744
294.743
294.743
294.745
294.748
294.753
294.759
294.765
294.772
294.78
294.787
294.795
294.802
294.809
294.815
294.82
294.825
294.829
294.832
294.834
294.836
294.836
294.836
294.835
294.834
294.831
294.827
294.823
294.819
294.814
294.808
294.801
294.795
294.787
294.78
294.771
294.763
294.754
294.745
294.735
294.726
294.716
294.705
294.695
294.684
294.674
294.663
294.652
294.64
294.629
294.618
294.607
294.595
294.584
294.572
294.561
294.549
294.538
294.526
294.514
294.503
294.491
294.48
294.468
294.457
294.445
294.434
294.423
294.411
294.4
294.389
294.378
294.367
294.355
294.344
294.333
294.322
294.311
294.301
294.29
294.279
294.268
294.258
294.247
294.236
294.226
294.215
294.205
294.195
294.184
294.174
294.164
294.153
294.143
294.133
294.123
294.113
294.103
294.093
294.083
294.073
294.063
294.053
294.044
294.034
294.024
294.014
294.005
293.995
293.986
293.976
293.966
293.957
293.948
293.938
293.929
293.919
293.91
293.901
293.891
293.882
293.873
293.864
293.854
293.845
293.836
293.826
293.817
293.807
293.798
293.788
293.778
293.767
293.756
293.744
293.73
293.715
293.698
293.678
293.656
293.632
293.604
293.572
293.544
293.543
293.553
294.666
294.672
294.686
294.704
294.723
294.738
294.748
294.753
294.753
294.752
294.751
294.751
294.752
294.757
294.766
294.779
294.792
294.803
294.809
294.809
294.808
294.803
294.797
294.792
294.793
294.796
294.804
294.816
294.831
294.847
294.862
294.878
294.898
294.922
294.95
294.98
295.002
295.01
295.016
295.04
295.146
295.402
295.718
295.915
295.969
295.972
295.896
295.763
295.59
295.409
295.25
295.13
295.061
295.041
295.059
295.161
295.295
295.488
295.731
296.019
296.336
296.66
296.974
297.262
297.515
297.726
297.894
298.021
298.109
298.164
298.195
298.204
298.201
298.188
298.172
298.158
298.15
298.152
298.167
298.197
298.244
298.306
298.383
298.472
298.571
298.68
298.795
298.912
299.024
299.13
299.227
299.313
299.379
299.411
299.412
299.39
299.327
299.21
299.036
298.799
298.498
298.134
297.713
297.248
296.759
296.275
295.825
295.432
295.117
294.901
294.804
294.8
294.842
294.974
295.222
295.591
296.054
296.541
296.941
297.158
297.207
297.181
297.089
296.96
296.852
296.788
296.767
296.775
296.816
296.893
296.992
297.095
297.19
297.265
297.323
297.366
297.394
297.41
297.415
297.407
297.381
297.333
297.257
297.151
297.015
296.85
296.665
296.466
296.264
296.072
295.896
295.741
295.61
295.504
295.431
295.399
295.4
295.416
295.457
295.523
295.611
295.709
295.806
295.896
295.957
295.978
295.972
295.955
295.919
295.856
295.765
295.651
295.534
295.447
295.411
295.413
295.44
295.503
295.595
295.694
295.786
295.866
295.938
296
296.049
296.09
296.129
296.173
296.226
296.294
296.378
296.487
296.617
296.763
296.922
297.092
297.27
297.452
297.635
297.817
297.994
298.164
298.325
298.476
298.616
298.746
298.864
298.971
299.069
299.159
299.24
299.315
299.381
299.438
299.486
299.522
299.543
299.547
299.537
299.507
299.452
299.374
299.274
299.148
298.999
298.828
298.636
298.426
298.2
297.961
297.715
297.465
297.221
296.988
296.776
296.592
296.441
296.329
296.252
296.204
296.177
296.164
296.156
296.146
296.129
296.102
296.062
296.014
295.965
295.922
295.889
295.869
295.859
295.858
295.86
295.865
295.867
295.867
295.865
295.861
295.854
295.844
295.834
295.822
295.811
295.801
295.792
295.787
295.788
295.794
295.807
295.825
295.848
295.872
295.894
295.913
295.927
295.936
295.941
295.942
295.939
295.933
295.924
295.915
295.905
295.894
295.882
295.868
295.855
295.841
295.83
295.819
295.809
295.801
295.793
295.787
295.781
295.775
295.769
295.761
295.75
295.736
295.718
295.696
295.668
295.63
295.58
295.517
295.44
295.351
295.252
295.148
295.041
294.937
294.844
294.768
294.718
294.699
294.7
294.716
294.76
294.834
294.934
295.047
295.163
295.267
295.348
295.397
295.415
295.414
295.402
295.374
295.332
295.283
295.229
295.174
295.118
295.061
295.004
294.947
294.89
294.835
294.782
294.731
294.683
294.639
294.598
294.56
294.526
294.496
294.47
294.448
294.43
294.415
294.404
294.396
294.392
294.39
294.391
294.394
294.4
294.408
294.419
294.43
294.444
294.458
294.473
294.489
294.505
294.52
294.536
294.551
294.565
294.578
294.591
294.603
294.613
294.622
294.631
294.637
294.643
294.648
294.652
294.655
294.656
294.657
294.657
294.657
294.655
294.652
294.649
294.645
294.641
294.636
294.63
294.624
294.617
294.61
294.602
294.594
294.586
294.577
294.568
294.559
294.55
294.54
294.53
294.52
294.509
294.499
294.488
294.477
294.466
294.455
294.444
294.433
294.422
294.41
294.399
294.388
294.377
294.365
294.354
294.343
294.331
294.32
294.309
294.298
294.287
294.276
294.265
294.254
294.243
294.232
294.221
294.21
294.199
294.188
294.178
294.167
294.156
294.146
294.135
294.125
294.114
294.104
294.093
294.083
294.073
294.063
294.052
294.042
294.032
294.022
294.012
294.002
293.992
293.982
293.972
293.962
293.952
293.942
293.932
293.923
293.913
293.903
293.894
293.884
293.875
293.865
293.855
293.846
293.837
293.827
293.818
293.808
293.799
293.79
293.78
293.771
293.761
293.752
293.743
293.733
293.723
293.713
293.703
293.693
293.682
293.671
293.659
293.645
293.631
293.615
293.598
293.578
293.556
293.538
293.542
293.557
294.672
294.687
294.715
294.747
294.778
294.802
294.816
294.823
294.823
294.821
294.819
294.819
294.822
294.829
294.837
294.841
294.837
294.828
294.81
294.78
294.742
294.704
294.677
294.666
294.67
294.684
294.708
294.74
294.776
294.813
294.847
294.876
294.903
294.93
294.957
294.98
294.994
295.005
295.032
295.126
295.362
295.679
295.884
295.937
295.931
295.829
295.641
295.419
295.205
295.032
294.921
294.871
294.867
294.954
295.1
295.32
295.633
296.021
296.469
296.952
297.44
297.902
298.317
298.673
298.966
299.198
299.376
299.507
299.596
299.651
299.672
299.663
299.636
299.591
299.532
299.465
299.393
299.32
299.25
299.187
299.132
299.09
299.06
299.046
299.046
299.06
299.092
299.14
299.202
299.276
299.361
299.452
299.547
299.637
299.712
299.758
299.767
299.755
299.711
299.615
299.457
299.224
298.911
298.513
298.034
297.485
296.892
296.288
295.718
295.228
294.859
294.648
294.593
294.621
294.752
295.052
295.534
296.135
296.702
297.062
297.175
297.159
297.072
296.933
296.821
296.771
296.771
296.815
296.91
297.036
297.164
297.275
297.362
297.42
297.46
297.487
297.504
297.514
297.519
297.515
297.501
297.467
297.406
297.309
297.17
296.988
296.771
296.527
296.277
296.032
295.802
295.6
295.43
295.294
295.187
295.111
295.069
295.061
295.069
295.096
295.149
295.23
295.337
295.46
295.588
295.706
295.801
295.857
295.867
295.857
295.827
295.768
295.677
295.575
295.502
295.481
295.493
295.539
295.626
295.729
295.823
295.897
295.956
296.005
296.045
296.078
296.109
296.144
296.191
296.255
296.343
296.458
296.602
296.775
296.974
297.186
297.407
297.628
297.845
298.052
298.245
298.42
298.578
298.719
298.844
298.954
299.056
299.15
299.238
299.322
299.403
299.483
299.56
299.637
299.711
299.782
299.85
299.914
299.971
300.014
300.036
300.037
300.02
299.968
299.883
299.768
299.621
299.443
299.235
299
298.74
298.459
298.16
297.852
297.543
297.245
296.966
296.719
296.514
296.359
296.251
296.178
296.125
296.083
296.048
296.011
295.966
295.916
295.864
295.82
295.791
295.779
295.779
295.787
295.809
295.835
295.859
295.876
295.884
295.884
295.88
295.873
295.864
295.855
295.847
295.843
295.843
295.846
295.857
295.876
295.901
295.929
295.957
295.98
295.997
296.007
296.01
296.008
296.003
295.996
295.989
295.981
295.973
295.964
295.951
295.933
295.912
295.887
295.859
295.83
295.8
295.771
295.743
295.719
295.698
295.683
295.675
295.673
295.675
295.681
295.69
295.7
295.708
295.711
295.71
295.705
295.692
295.668
295.634
295.59
295.53
295.451
295.354
295.239
295.111
294.979
294.849
294.731
294.634
294.569
294.547
294.553
294.586
294.66
294.774
294.912
295.054
295.177
295.263
295.306
295.314
295.306
295.278
295.231
295.17
295.102
295.031
294.959
294.889
294.819
294.751
294.684
294.619
294.557
294.498
294.442
294.39
294.342
294.298
294.257
294.22
294.187
294.157
294.13
294.106
294.086
294.068
294.053
294.04
294.031
294.025
294.023
294.023
294.025
294.031
294.041
294.054
294.07
294.088
294.107
294.129
294.152
294.175
294.199
294.223
294.246
294.269
294.292
294.313
294.333
294.352
294.369
294.386
294.401
294.415
294.427
294.438
294.448
294.456
294.464
294.47
294.475
294.479
294.482
294.484
294.485
294.486
294.485
294.484
294.481
294.478
294.474
294.47
294.465
294.46
294.454
294.447
294.44
294.433
294.425
294.416
294.407
294.398
294.389
294.379
294.369
294.359
294.349
294.338
294.327
294.317
294.306
294.295
294.284
294.273
294.262
294.251
294.24
294.228
294.217
294.206
294.195
294.184
294.173
294.162
294.151
294.14
294.13
294.119
294.108
294.097
294.087
294.076
294.065
294.055
294.044
294.034
294.023
294.013
294.002
293.992
293.981
293.971
293.961
293.951
293.94
293.93
293.92
293.91
293.9
293.89
293.88
293.87
293.86
293.85
293.84
293.83
293.82
293.811
293.801
293.791
293.782
293.772
293.762
293.753
293.743
293.734
293.724
293.715
293.705
293.696
293.686
293.677
293.667
293.658
293.648
293.638
293.628
293.618
293.608
293.597
293.586
293.575
293.563
293.55
293.536
293.52
293.511
293.518
293.536
294.691
294.717
294.759
294.807
294.849
294.88
294.898
294.905
294.905
294.902
294.899
294.897
294.895
294.889
294.876
294.853
294.812
294.747
294.668
294.592
294.53
294.49
294.477
294.487
294.512
294.55
294.596
294.649
294.705
294.761
294.815
294.863
294.902
294.934
294.959
294.975
294.988
295.012
295.085
295.281
295.597
295.837
295.912
295.909
295.8
295.585
295.332
295.098
294.924
294.827
294.794
294.795
294.884
295.03
295.283
295.644
296.107
296.656
297.255
297.859
298.422
298.916
299.329
299.666
299.938
300.158
300.334
300.471
300.575
300.646
300.689
300.703
300.695
300.668
300.625
300.568
300.502
300.427
300.348
300.268
300.187
300.109
300.034
299.966
299.905
299.853
299.81
299.779
299.758
299.75
299.752
299.766
299.796
299.842
299.899
299.96
300.01
300.035
300.034
300.017
299.965
299.861
299.688
299.431
299.075
298.615
298.053
297.405
296.707
296.008
295.375
294.893
294.629
294.565
294.604
294.782
295.183
295.793
296.457
296.943
297.131
297.131
297.055
296.912
296.797
296.755
296.768
296.842
296.972
297.119
297.249
297.349
297.418
297.46
297.487
297.507
297.52
297.53
297.537
297.537
297.529
297.506
297.46
297.378
297.245
297.056
296.815
296.542
296.245
295.951
295.683
295.457
295.278
295.143
295.042
294.966
294.908
294.866
294.844
294.843
294.852
294.88
294.935
295.021
295.137
295.277
295.432
295.575
295.687
295.757
295.774
295.761
295.724
295.658
295.585
295.543
295.544
295.574
295.649
295.752
295.848
295.918
295.966
296.002
296.031
296.052
296.07
296.09
296.123
296.178
296.263
296.383
296.541
296.735
296.958
297.204
297.457
297.704
297.936
298.146
298.333
298.496
298.637
298.758
298.859
298.943
299.01
299.065
299.115
299.166
299.222
299.289
299.368
299.462
299.566
299.68
299.796
299.909
300.013
300.108
300.192
300.262
300.318
300.356
300.365
300.351
300.299
300.203
300.067
299.893
299.682
299.433
299.151
298.837
298.497
298.14
297.776
297.419
297.083
296.786
296.54
296.35
296.214
296.116
296.039
295.97
295.902
295.834
295.768
295.71
295.672
295.658
295.66
295.678
295.72
295.775
295.829
295.872
295.901
295.915
295.918
295.915
295.91
295.904
295.901
295.902
295.908
295.922
295.943
295.97
295.999
296.026
296.048
296.062
296.067
296.067
296.063
296.058
296.053
296.052
296.052
296.052
296.051
296.044
296.03
296.007
295.974
295.933
295.886
295.835
295.782
295.729
295.676
295.626
295.581
295.542
295.511
295.492
295.483
295.484
295.488
295.499
295.516
295.54
295.567
295.596
295.622
295.64
295.646
295.644
295.632
295.604
295.558
295.493
295.407
295.298
295.166
295.016
294.862
294.715
294.586
294.487
294.437
294.436
294.462
294.537
294.663
294.818
294.973
295.098
295.174
295.201
295.199
295.177
295.131
295.066
294.99
294.911
294.833
294.757
294.683
294.61
294.54
294.473
294.409
294.348
294.291
294.239
294.19
294.146
294.104
294.064
294.028
293.993
293.959
293.927
293.897
293.866
293.837
293.808
293.781
293.754
293.729
293.707
293.687
293.672
293.661
293.657
293.657
293.659
293.668
293.682
293.701
293.724
293.75
293.777
293.807
293.838
293.869
293.901
293.933
293.964
293.995
294.024
294.052
294.08
294.105
294.13
294.152
294.174
294.194
294.212
294.229
294.245
294.259
294.272
294.284
294.294
294.303
294.31
294.316
294.322
294.326
294.329
294.332
294.333
294.333
294.333
294.331
294.328
294.325
294.321
294.316
294.31
294.304
294.297
294.289
294.281
294.273
294.264
294.254
294.245
294.235
294.225
294.215
294.204
294.194
294.183
294.172
294.161
294.151
294.14
294.129
294.118
294.107
294.096
294.085
294.074
294.063
294.052
294.042
294.031
294.02
294.009
293.999
293.988
293.977
293.967
293.956
293.946
293.935
293.925
293.914
293.904
293.894
293.883
293.873
293.863
293.852
293.842
293.832
293.822
293.811
293.801
293.791
293.781
293.771
293.761
293.751
293.741
293.731
293.721
293.711
293.702
293.692
293.682
293.672
293.663
293.653
293.644
293.634
293.624
293.615
293.605
293.596
293.586
293.576
293.566
293.557
293.547
293.537
293.527
293.516
293.506
293.496
293.484
293.472
293.47
293.479
293.496
294.72
294.755
294.813
294.876
294.928
294.964
294.982
294.988
294.985
294.978
294.968
294.953
294.93
294.895
294.836
294.747
294.636
294.524
294.43
294.365
294.328
294.314
294.328
294.362
294.411
294.47
294.535
294.6
294.665
294.73
294.793
294.85
294.896
294.93
294.952
294.968
294.99
295.042
295.189
295.48
295.765
295.889
295.9
295.81
295.593
295.322
295.071
294.894
294.8
294.766
294.761
294.804
294.917
295.114
295.43
295.88
296.454
297.115
297.799
298.439
298.992
299.443
299.802
300.091
300.332
300.537
300.713
300.864
300.991
301.094
301.172
301.227
301.258
301.265
301.257
301.233
301.195
301.147
301.089
301.026
300.958
300.886
300.813
300.74
300.667
300.596
300.528
300.464
300.404
300.348
300.3
300.26
300.231
300.216
300.213
300.217
300.232
300.25
300.259
300.256
300.242
300.201
300.119
299.976
299.752
299.426
298.982
298.412
297.727
296.96
296.168
295.448
294.918
294.668
294.645
294.726
295.011
295.552
296.237
296.811
297.078
297.1
297.038
296.899
296.777
296.737
296.755
296.829
296.958
297.104
297.23
297.322
297.381
297.409
297.417
297.424
297.432
297.45
297.476
297.497
297.504
297.497
297.467
297.395
297.267
297.074
296.812
296.491
296.146
295.818
295.538
295.322
295.167
295.062
294.986
294.926
294.876
294.834
294.796
294.763
294.741
294.737
294.743
294.766
294.818
294.903
295.023
295.177
295.347
295.504
295.621
295.682
295.685
295.665
295.623
295.584
295.577
295.596
295.657
295.754
295.852
295.922
295.964
295.991
296.007
296.014
296.015
296.019
296.036
296.078
296.156
296.276
296.44
296.648
296.891