/*--------------------------------*- C++ -*----------------------------------*\
| =========                 |                                                 |
| \\      /  F ield         | OpenFOAM: The Open Source CFD Toolbox           |
|  \\    /   O peration     | Version:  v1812                                 |
|   \\  /    A nd           | Web:      www.OpenFOAM.com                      |
|    \\/     M anipulation  |                                                 |
\*---------------------------------------------------------------------------*/
FoamFile
{
    version     2.0;
    format      ascii;
    class       volVectorField;
    location    "1";
    object      U;
}
// * * * * * * * * * * * * * * * * * * * * * * * * * * * * * * * * * * * * * //

dimensions      [0 1 -1 0 0 0 0];


internalField   nonuniform List<vector> 
20400
(
(-0.014477 0.0100219 0)
(-0.0417247 -0.000928014 0)
(-0.0178103 -0.0209414 0)
(0.0291163 -0.0288504 0)
(0.124548 -0.0325209 0)
(0.214898 -0.0295695 0)
(0.309385 -0.02717 0)
(0.379795 -0.0245242 0)
(0.434874 -0.0333064 0)
(0.464404 -0.0486975 0)
(0.47832 -0.0643281 0)
(0.487612 -0.0764291 0)
(0.503708 -0.0889368 0)
(0.534653 -0.0983524 0)
(0.591457 -0.107326 0)
(0.681733 -0.113281 0)
(0.813925 -0.118296 0)
(0.991785 -0.119737 0)
(1.21853 -0.11866 0)
(1.48957 -0.113808 0)
(1.80064 -0.105077 0)
(2.13601 -0.0922584 0)
(2.48243 -0.0754007 0)
(2.8174 -0.0561008 0)
(3.11325 -0.0310148 0)
(3.36062 0.00455488 0)
(3.52609 0.0350871 0)
(3.62591 0.0661619 0)
(3.63984 0.0440102 0)
(3.5577 0.0696362 0)
(3.44203 0.0513995 0)
(3.27207 0.0288979 0)
(3.10262 0.00795967 0)
(2.93621 -0.015476 0)
(2.8163 -0.0328597 0)
(2.75013 -0.0465201 0)
(2.78018 -0.0406571 0)
(2.92461 -0.0513658 0)
(3.13098 -0.0469869 0)
(3.45652 -0.0443396 0)
(3.75347 -0.187137 0)
(4.03265 -0.415401 0)
(4.00028 -0.635232 0)
(3.61349 -0.450967 0)
(3.46732 0.0533309 0)
(3.0521 0.357065 0)
(2.23504 0.605204 0)
(1.14633 0.695326 0)
(-0.150779 0.614956 0)
(-1.71822 0.517438 0)
(-3.56869 0.504575 0)
(-5.52045 0.562424 0)
(-7.51599 0.535539 0)
(-9.34037 0.412181 0)
(-11.0746 0.238462 0)
(-12.5435 0.107196 0)
(-13.791 0.0660601 0)
(-14.7762 0.0717173 0)
(-15.4719 0.136867 0)
(-15.905 0.224737 0)
(-16.084 0.365638 0)
(-15.9522 0.576516 0)
(-15.6332 0.826956 0)
(-15.0255 1.08096 0)
(-14.2339 1.2944 0)
(-13.2882 1.3419 0)
(-12.2583 1.38347 0)
(-11.1387 1.36877 0)
(-9.98407 1.31827 0)
(-8.81066 1.23602 0)
(-7.64859 1.12636 0)
(-6.51364 0.999364 0)
(-5.42142 0.845418 0)
(-4.38349 0.683732 0)
(-3.4021 0.481541 0)
(-2.48803 0.285363 0)
(-1.64633 0.0435133 0)
(-0.943423 -0.137192 0)
(-0.404204 -0.292106 0)
(0.142517 -0.258915 0)
(0.706931 -0.189994 0)
(1.22967 -0.138372 0)
(1.71391 -0.0949151 0)
(2.14143 -0.0705073 0)
(2.52633 -0.0529207 0)
(2.86366 -0.041861 0)
(3.16017 -0.0336427 0)
(3.41646 -0.0271623 0)
(3.63572 -0.0214475 0)
(3.8198 -0.0161415 0)
(3.97067 -0.0111859 0)
(4.09068 -0.00648772 0)
(4.18123 -0.00245269 0)
(4.24561 0.00139285 0)
(4.28458 0.00405396 0)
(4.30481 0.00826059 0)
(4.29991 0.00774846 0)
(4.28216 0.00790557 0)
(4.25347 0.0085998 0)
(4.21486 0.00923115 0)
(4.16289 0.0129448 0)
(4.10025 0.0130464 0)
(4.03598 0.0123635 0)
(3.96879 0.0118041 0)
(3.9013 0.0107367 0)
(3.83388 0.00923554 0)
(3.77276 0.00948139 0)
(3.71524 0.00729576 0)
(3.6716 0.00674738 0)
(3.64051 0.00299182 0)
(3.62579 -0.00102031 0)
(3.63171 -0.00645638 0)
(3.66147 -0.0183042 0)
(3.71652 -0.0329972 0)
(3.80292 -0.0486864 0)
(3.92297 -0.068176 0)
(4.0866 -0.0889357 0)
(4.29553 -0.106903 0)
(4.54156 -0.122236 0)
(4.8031 -0.144153 0)
(5.0309 -0.181842 0)
(5.21011 -0.251995 0)
(5.20807 -0.35642 0)
(4.85208 -0.386236 0)
(4.26842 -0.206007 0)
(3.38934 0.196796 0)
(2.48566 0.5733 0)
(1.51756 0.629205 0)
(0.372732 0.545866 0)
(-0.81679 0.359857 0)
(-2.16925 0.265474 0)
(-3.35655 0.242441 0)
(-4.41572 0.261361 0)
(-5.17857 0.310409 0)
(-5.64787 0.36059 0)
(-5.86067 0.417366 0)
(-5.64675 0.385629 0)
(-5.23774 0.208764 0)
(-4.52634 -0.020372 0)
(-3.75248 -0.392807 0)
(-2.90631 -0.587223 0)
(-1.90497 -0.640791 0)
(-0.830764 -0.616052 0)
(0.361794 -0.477547 0)
(1.62521 -0.374974 0)
(2.874 -0.287735 0)
(4.01271 -0.218477 0)
(5.05823 -0.160598 0)
(5.93985 -0.112844 0)
(6.67197 -0.0724403 0)
(7.23921 -0.0340172 0)
(7.64112 -0.00528955 0)
(7.87578 0.0165961 0)
(7.99336 0.031558 0)
(7.98529 0.0359167 0)
(7.85102 0.0486155 0)
(7.63032 0.0610892 0)
(7.33964 0.0575789 0)
(7.01839 0.0489489 0)
(6.67687 0.0351809 0)
(6.3309 0.0295794 0)
(5.99348 0.0294509 0)
(5.67008 0.031038 0)
(5.36722 0.0328691 0)
(5.08732 0.0334472 0)
(4.84416 0.032716 0)
(4.63811 0.0280649 0)
(4.48212 0.0241836 0)
(4.37866 0.0171052 0)
(4.32521 0.007117 0)
(4.33109 0.0047876 0)
(4.38856 -0.01769 0)
(4.48163 -0.0241948 0)
(4.59709 -0.0274719 0)
(4.7396 -0.027914 0)
(4.88181 -0.0309836 0)
(4.99783 -0.0396317 0)
(5.08122 -0.0463374 0)
(5.12556 -0.0417951 0)
(5.13638 -0.0550092 0)
(5.13071 -0.0542725 0)
(5.13197 -0.0612323 0)
(5.13527 -0.09107 0)
(5.10152 -0.143163 0)
(4.98264 -0.221507 0)
(4.72201 -0.305259 0)
(4.29878 -0.306978 0)
(3.7781 -0.192894 0)
(3.1571 -0.0247764 0)
(2.54212 0.220972 0)
(2.02214 0.33546 0)
(1.50627 0.356975 0)
(0.992466 0.328676 0)
(0.513589 0.28171 0)
(0.100858 0.212046 0)
(-0.279074 0.135319 0)
(-0.622558 0.10719 0)
(-0.912625 0.121123 0)
(-1.13206 0.146309 0)
(-1.3246 0.183504 0)
(-1.42895 0.223991 0)
(-1.53265 0.253893 0)
(-1.54226 0.285004 0)
(-1.49328 0.27804 0)
(-1.40102 0.227929 0)
(-1.22813 0.118915 0)
(-1.09751 -0.0524244 0)
(-0.962037 -0.11297 0)
(-0.715088 -0.157113 0)
(-0.448829 -0.168206 0)
(-0.135284 -0.170643 0)
(0.204065 -0.143896 0)
(0.592686 -0.122608 0)
(0.999423 -0.106771 0)
(1.40206 -0.0950033 0)
(1.81918 -0.0831457 0)
(2.20267 -0.0745831 0)
(2.59858 -0.0652512 0)
(2.95351 -0.0579224 0)
(3.29901 -0.0504509 0)
(3.60754 -0.0438438 0)
(3.89152 -0.0376881 0)
(4.14095 -0.0320741 0)
(4.36005 -0.0269943 0)
(4.54644 -0.0223894 0)
(4.7029 -0.0182907 0)
(4.82997 -0.0146782 0)
(4.93024 -0.0117015 0)
(5.00693 -0.00911439 0)
(5.06082 -0.00687851 0)
(5.09939 -0.00472191 0)
(5.1225 -0.00139943 0)
(5.13474 -0.00241545 0)
(5.14274 -0.00169652 0)
(5.14614 -0.00157547 0)
(5.14846 -0.00138055 0)
(5.15061 -0.0014518 0)
(5.15217 -0.00222377 0)
(5.15121 -0.00317101 0)
(5.14511 -0.00412577 0)
(5.13215 -0.0043706 0)
(5.11001 -0.00354232 0)
(5.07904 -0.0020497 0)
(5.03898 0.000145115 0)
(4.99603 0.00212126 0)
(4.95039 0.00289625 0)
(4.9166 0.00152965 0)
(4.8905 -0.00310024 0)
(4.88662 -0.00208332 0)
(4.90851 -0.0174168 0)
(4.95118 -0.0270042 0)
(5.02534 -0.0379146 0)
(5.12397 -0.0493433 0)
(5.24242 -0.0624246 0)
(5.36647 -0.0814532 0)
(5.4794 -0.0890237 0)
(5.57502 -0.0746181 0)
(5.65294 -0.0352468 0)
(5.70213 0.0275964 0)
(5.74035 0.0993927 0)
(5.75721 0.188297 0)
(5.75126 0.240369 0)
(5.72749 0.264809 0)
(5.68005 0.261547 0)
(5.61501 0.227873 0)
(5.52559 0.16097 0)
(5.40844 0.0637289 0)
(5.25124 -0.0536012 0)
(5.04205 -0.173639 0)
(4.76857 -0.271857 0)
(4.43425 -0.32777 0)
(4.02958 -0.316602 0)
(3.58402 -0.216646 0)
(3.09592 -0.0731921 0)
(2.58938 0.139762 0)
(2.18213 0.294233 0)
(1.77095 0.343361 0)
(1.34789 0.341083 0)
(0.923454 0.309482 0)
(0.574436 0.252857 0)
(0.246167 0.183702 0)
(0.00683839 0.130885 0)
(-0.186051 0.13573 0)
(-0.267736 0.179647 0)
(-0.230891 0.16522 0)
(-0.120231 0.114176 0)
(0.00634761 0.0127268 0)
(0.173135 -0.0395145 0)
(0.430666 -0.0532843 0)
(0.735233 -0.0521743 0)
(1.09331 -0.0465876 0)
(1.47729 -0.042871 0)
(1.8893 -0.0384881 0)
(2.31159 -0.0355828 0)
(2.74124 -0.0327315 0)
(3.16627 -0.030652 0)
(3.58221 -0.0290108 0)
(3.98201 -0.0276402 0)
(4.36186 -0.026296 0)
(4.71793 -0.0247442 0)
(5.04791 -0.0228572 0)
(5.35006 -0.020578 0)
(5.62352 -0.0179477 0)
(5.868 -0.015047 0)
(6.08379 -0.01204 0)
(6.27156 -0.00902436 0)
(6.43254 -0.00611386 0)
(6.56794 -0.00339369 0)
(6.67998 -0.000900678 0)
(6.76995 0.00130849 0)
(6.84127 0.00321498 0)
(6.89484 0.00481797 0)
(6.93491 0.00612171 0)
(6.96187 0.00744653 0)
(6.9786 0.00765123 0)
(6.98838 0.00904511 0)
(6.99016 0.00945612 0)
(6.99001 0.00857172 0)
(6.99043 0.00816514 0)
(6.99195 0.00744096 0)
(6.99597 0.00676165 0)
(7.00369 0.00601316 0)
(7.01307 0.00521051 0)
(7.02489 0.00449995 0)
(7.03333 0.0029641 0)
(7.04121 0.00248863 0)
(7.04119 1.03429e-06 0)
(7.03088 1.29711e-05 0)
(7.01066 -0.000544175 0)
(6.97345 0.000795968 0)
(6.92064 0.0037388 0)
(6.85037 0.00768875 0)
(6.76342 0.0106949 0)
(6.65889 0.0100974 0)
(6.53603 0.00971672 0)
(6.39827 0.0131421 0)
(6.25069 0.017537 0)
(6.09701 0.0213811 0)
(5.94124 0.0237285 0)
(5.78724 0.0241875 0)
(5.63931 0.0236549 0)
(5.5018 0.0227762 0)
(5.37855 0.021636 0)
(5.27199 0.0202105 0)
(5.18427 0.0187578 0)
(5.1153 0.0168903 0)
(5.06658 0.0156441 0)
(5.03541 0.0125797 0)
(5.02209 0.0105726 0)
(5.02589 0.00884126 0)
(5.0439 0.00710746 0)
(5.07526 0.00537092 0)
(5.11784 0.00400444 0)
(5.17073 0.00275487 0)
(5.23147 0.00174125 0)
(5.29888 0.000921962 0)
(5.37123 0.000351906 0)
(5.44724 9.66814e-06 0)
(5.52562 -5.04821e-05 0)
(5.60538 0.000159783 0)
(5.68563 0.000521433 0)
(5.76551 0.000968721 0)
(5.84434 0.00145129 0)
(5.92154 0.00193413 0)
(5.99667 0.0023971 0)
(6.06938 0.00282525 0)
(6.1394 0.00321194 0)
(6.20654 0.00355558 0)
(6.27066 0.00385351 0)
(6.3317 0.00411386 0)
(6.38961 0.0043369 0)
(6.44441 0.00453165 0)
(6.49611 0.00469956 0)
(6.54479 0.00485114 0)
(6.5905 0.00498865 0)
(6.63333 0.0051217 0)
(6.6734 0.00524584 0)
(6.7108 0.00537274 0)
(6.74566 0.00549493 0)
(6.77809 0.00561267 0)
(6.80823 0.00573739 0)
(6.8362 0.00587408 0)
(6.86215 0.00603866 0)
(6.88621 0.00624011 0)
(6.90852 0.0064719 0)
(6.92924 0.00671921 0)
(6.94851 0.00695883 0)
(6.96644 0.00717171 0)
(6.98316 0.00734859 0)
(6.99878 0.0074862 0)
(7.01341 0.00759219 0)
(7.02716 0.00767649 0)
(7.04014 0.00774284 0)
(7.05243 0.00779218 0)
(7.06412 0.00782543 0)
(7.07529 0.00784458 0)
(7.086 0.00785127 0)
(7.09631 0.00784746 0)
(7.10626 0.00783468 0)
(7.11592 0.00781439 0)
(7.12531 0.00778779 0)
(7.13446 0.00775602 0)
(7.14341 0.00771976 0)
(7.15217 0.00768016 0)
(7.16076 0.00763765 0)
(7.1692 0.00759281 0)
(7.1775 0.00754621 0)
(7.18566 0.00749791 0)
(7.19369 0.00744842 0)
(7.20159 0.00739768 0)
(7.20937 0.00734588 0)
(7.21703 0.00729308 0)
(7.22457 0.00723935 0)
(7.23198 0.00718472 0)
(7.23927 0.00712899 0)
(7.24644 0.00707242 0)
(7.25349 0.00701498 0)
(7.26041 0.00695666 0)
(7.26722 0.00689742 0)
(7.27389 0.00683715 0)
(7.28045 0.00677589 0)
(7.28689 0.0067136 0)
(7.29321 0.0066498 0)
(7.29942 0.00658492 0)
(7.30551 0.00651895 0)
(7.3115 0.00645163 0)
(7.31737 0.00638332 0)
(7.32313 0.00631373 0)
(7.3288 0.00624344 0)
(7.33435 0.00617176 0)
(7.33981 0.00609944 0)
(7.34517 0.00602617 0)
(7.35043 0.0059518 0)
(7.35559 0.00587663 0)
(7.36065 0.00580076 0)
(7.36561 0.00572418 0)
(7.37048 0.0056469 0)
(7.37525 0.00556944 0)
(7.37992 0.00549146 0)
(7.38448 0.00541279 0)
(7.38895 0.00533395 0)
(7.39332 0.00525468 0)
(7.39758 0.00517553 0)
(7.40174 0.00509622 0)
(7.40579 0.00501659 0)
(7.40974 0.00493741 0)
(7.41358 0.00485815 0)
(7.41731 0.00477951 0)
(7.42094 0.00470061 0)
(7.42445 0.00462121 0)
(7.42785 0.00454205 0)
(7.43115 0.00446353 0)
(7.43433 0.00438542 0)
(7.43741 0.00430671 0)
(7.44037 0.00422765 0)
(7.44323 0.00414865 0)
(7.44597 0.00406973 0)
(7.44861 0.00399047 0)
(7.45114 0.00391061 0)
(7.45356 0.00382981 0)
(7.45588 0.00374792 0)
(7.4581 0.00366545 0)
(7.46021 0.0035819 0)
(7.46222 0.00349833 0)
(7.46413 0.00341389 0)
(7.46593 0.00332818 0)
(7.46764 0.00324125 0)
(7.46925 0.00315332 0)
(7.47076 0.00306449 0)
(7.47216 0.00297519 0)
(7.47347 0.00288455 0)
(7.47467 0.00279174 0)
(7.47576 0.00269674 0)
(7.47675 0.00260203 0)
(7.47763 0.00250295 0)
(7.47837 0.00240187 0)
(7.47904 0.00230297 0)
(7.47956 0.00218019 0)
(7.47993 0.00208075 0)
(7.48022 0.0019612 0)
(7.48017 0.00185002 0)
(7.48023 0.00178244 0)
(7.48001 0.00165482 0)
(7.47958 0.00158351 0)
(7.47911 0.00146133 0)
(7.47835 0.00132939 0)
(7.4774 0.00120414 0)
(7.47627 0.00104971 0)
(7.47472 0.000915744 0)
(7.47283 0.000678375 0)
(7.47032 0.000577326 0)
(7.46684 0.000492989 0)
(7.46232 0.000493638 0)
(7.45553 0.000518651 0)
(7.44777 0.00164342 0)
(7.43491 0.000848739 0)
(7.42714 0.00342594 0)
(7.41021 0.000826985 0)
(7.41554 -0.00125983 0)
(7.38733 -0.00594033 0)
(-0.0104417 0.0387531 0)
(-0.0126921 -0.0123951 0)
(0.0942271 -0.106987 0)
(0.262569 -0.161464 0)
(0.489008 -0.185505 0)
(0.712005 -0.165434 0)
(0.930532 -0.136158 0)
(1.11727 -0.0980261 0)
(1.27588 -0.0478533 0)
(1.41219 0.00246733 0)
(1.53536 0.0317672 0)
(1.64608 0.0401566 0)
(1.75913 0.0350711 0)
(1.89081 0.00729558 0)
(2.05434 -0.0390033 0)
(2.26255 -0.0999921 0)
(2.52797 -0.170579 0)
(2.85859 -0.245777 0)
(3.25808 -0.319468 0)
(3.724 -0.385253 0)
(4.25245 -0.436789 0)
(4.82501 -0.46919 0)
(5.43391 -0.473087 0)
(6.03547 -0.447362 0)
(6.61008 -0.396821 0)
(7.12062 -0.317029 0)
(7.55286 -0.23213 0)
(7.85919 -0.106721 0)
(8.04957 -0.00650897 0)
(8.06206 0.107141 0)
(7.93219 0.189352 0)
(7.71371 0.257927 0)
(7.42136 0.27053 0)
(7.07591 0.249603 0)
(6.74001 0.176962 0)
(6.46413 0.0429982 0)
(6.27467 -0.0975952 0)
(6.21778 -0.256812 0)
(6.22073 -0.368234 0)
(6.1189 -0.432556 0)
(5.77395 -0.369935 0)
(5.37215 -0.0421384 0)
(4.93655 0.301807 0)
(4.19828 0.84929 0)
(2.71481 1.42568 0)
(0.433923 1.98516 0)
(-2.24363 2.48187 0)
(-5.42194 2.95376 0)
(-8.88413 3.25597 0)
(-12.3093 3.40011 0)
(-15.4257 3.29498 0)
(-18.1387 2.99191 0)
(-20.3582 2.61805 0)
(-22.0168 2.29901 0)
(-23.2898 2.01519 0)
(-24.0537 1.68536 0)
(-24.572 1.35778 0)
(-24.7324 1.00031 0)
(-24.5051 0.660846 0)
(-24.0223 0.351226 0)
(-23.3034 0.0482479 0)
(-22.4795 -0.281454 0)
(-21.4995 -0.573375 0)
(-20.4106 -0.953342 0)
(-19.1603 -1.23725 0)
(-17.7846 -1.43252 0)
(-16.3443 -1.59931 0)
(-14.8369 -1.72639 0)
(-13.301 -1.80334 0)
(-11.7529 -1.84493 0)
(-10.2158 -1.85411 0)
(-8.71807 -1.83593 0)
(-7.26173 -1.7997 0)
(-5.88534 -1.74419 0)
(-4.5549 -1.68614 0)
(-3.33346 -1.61379 0)
(-2.11451 -1.54683 0)
(-0.967057 -1.45523 0)
(0.319993 -1.37076 0)
(1.35092 -1.19394 0)
(2.31168 -1.02106 0)
(3.14234 -0.887527 0)
(3.94012 -0.767713 0)
(4.67038 -0.667057 0)
(5.35878 -0.577211 0)
(5.99542 -0.497544 0)
(6.58717 -0.426377 0)
(7.13298 -0.362594 0)
(7.63499 -0.304893 0)
(8.09392 -0.252165 0)
(8.51057 -0.204119 0)
(8.88557 -0.159396 0)
(9.21897 -0.1195 0)
(9.51114 -0.0809607 0)
(9.7628 -0.0521237 0)
(9.97285 -0.0129202 0)
(10.1425 0.0081098 0)
(10.2703 0.0286983 0)
(10.3586 0.0453665 0)
(10.4124 0.0615969 0)
(10.4191 0.0840415 0)
(10.3992 0.0920391 0)
(10.3554 0.0976274 0)
(10.2891 0.100314 0)
(10.2038 0.105154 0)
(10.1088 0.0994591 0)
(10.0087 0.0946047 0)
(9.90691 0.0789183 0)
(9.81258 0.0601897 0)
(9.73178 0.0321165 0)
(9.66603 0.0049799 0)
(9.62167 -0.0249151 0)
(9.60166 -0.0607903 0)
(9.60809 -0.0982582 0)
(9.63338 -0.139855 0)
(9.66323 -0.189675 0)
(9.68661 -0.249147 0)
(9.69981 -0.306837 0)
(9.67471 -0.335705 0)
(9.56811 -0.317142 0)
(9.2962 -0.230087 0)
(8.74995 -0.0229024 0)
(7.89649 0.290047 0)
(6.7809 0.84085 0)
(5.40778 1.34113 0)
(3.79386 1.7516 0)
(1.82315 2.06441 0)
(-0.319671 2.1944 0)
(-2.3495 2.16994 0)
(-4.08163 1.98531 0)
(-5.44944 1.71562 0)
(-6.42014 1.38556 0)
(-7.05319 1.0225 0)
(-7.38114 0.689705 0)
(-7.41772 0.340885 0)
(-7.22494 0.0111496 0)
(-6.77641 -0.433807 0)
(-6.06075 -0.821463 0)
(-5.0289 -1.23848 0)
(-3.74797 -1.62825 0)
(-2.09171 -1.97955 0)
(-0.327543 -2.23225 0)
(1.56718 -2.29071 0)
(3.44163 -2.19177 0)
(5.23642 -2.00477 0)
(7.00833 -1.7901 0)
(8.7206 -1.58725 0)
(10.3606 -1.36869 0)
(11.8911 -1.13703 0)
(13.2764 -0.911359 0)
(14.5253 -0.673165 0)
(15.6017 -0.452192 0)
(16.4925 -0.245644 0)
(17.1857 -0.0653989 0)
(17.6234 0.0739845 0)
(17.7972 0.261643 0)
(17.7484 0.401873 0)
(17.5147 0.473291 0)
(17.101 0.53812 0)
(16.5203 0.578457 0)
(15.8169 0.593179 0)
(15.023 0.579287 0)
(14.1773 0.554291 0)
(13.329 0.517927 0)
(12.5212 0.463954 0)
(11.7924 0.395996 0)
(11.1672 0.314526 0)
(10.6656 0.227282 0)
(10.2878 0.128063 0)
(10.0424 0.0337829 0)
(9.90281 -0.0424603 0)
(9.87027 -0.10663 0)
(9.92639 -0.148861 0)
(10.0415 -0.17699 0)
(10.199 -0.208757 0)
(10.3744 -0.176463 0)
(10.5221 -0.122886 0)
(10.626 -0.0597084 0)
(10.6265 0.00299411 0)
(10.5127 0.0374697 0)
(10.2835 0.0436314 0)
(9.90037 0.0332098 0)
(9.35324 0.0527352 0)
(8.64236 0.141683 0)
(7.79089 0.318797 0)
(6.83153 0.580517 0)
(5.80433 0.811356 0)
(4.72443 0.989543 0)
(3.66467 1.0814 0)
(2.60889 1.12378 0)
(1.51314 1.09889 0)
(0.551481 1.00654 0)
(-0.234575 0.854859 0)
(-0.873507 0.71946 0)
(-1.39603 0.610164 0)
(-1.78943 0.509235 0)
(-2.04242 0.404667 0)
(-2.20052 0.30846 0)
(-2.28068 0.242954 0)
(-2.31818 0.16634 0)
(-2.30367 0.114009 0)
(-2.2369 0.0337258 0)
(-2.10854 -0.025562 0)
(-1.92837 -0.111652 0)
(-1.68694 -0.200603 0)
(-1.40855 -0.292969 0)
(-0.996833 -0.399674 0)
(-0.462797 -0.480161 0)
(0.0802603 -0.580565 0)
(0.67831 -0.628579 0)
(1.32509 -0.680651 0)
(2.00167 -0.681652 0)
(2.68104 -0.67916 0)
(3.37732 -0.651996 0)
(4.07336 -0.634987 0)
(4.7829 -0.605361 0)
(5.46067 -0.580428 0)
(6.14195 -0.545924 0)
(6.77806 -0.506829 0)
(7.38988 -0.464705 0)
(7.95429 -0.418751 0)
(8.47558 -0.371564 0)
(8.94441 -0.323274 0)
(9.3599 -0.275423 0)
(9.71852 -0.228874 0)
(10.0197 -0.184265 0)
(10.2632 -0.142529 0)
(10.4494 -0.103897 0)
(10.5832 -0.0692776 0)
(10.6632 -0.0390562 0)
(10.7048 -0.0174624 0)
(10.7058 0.00393706 0)
(10.6768 0.0138508 0)
(10.6315 0.0221122 0)
(10.5666 0.0256247 0)
(10.4908 0.0265137 0)
(10.4079 0.0272184 0)
(10.3193 0.02938 0)
(10.2247 0.0354473 0)
(10.1217 0.0459539 0)
(10.0066 0.0590481 0)
(9.87632 0.0730986 0)
(9.73091 0.086152 0)
(9.57423 0.0950008 0)
(9.4141 0.0977274 0)
(9.26164 0.090867 0)
(9.12815 0.0770527 0)
(9.03324 0.0487625 0)
(8.97263 0.0240313 0)
(8.97101 -0.00740253 0)
(9.02583 -0.0376498 0)
(9.1236 -0.0770069 0)
(9.2677 -0.104874 0)
(9.44548 -0.121095 0)
(9.65626 -0.108103 0)
(9.89543 -0.0757114 0)
(10.136 -0.0529548 0)
(10.3608 -0.0364295 0)
(10.5206 -0.0303904 0)
(10.6281 -0.0393368 0)
(10.6331 -0.0374193 0)
(10.538 -0.0388624 0)
(10.3455 -0.0278216 0)
(10.0423 -0.00061292 0)
(9.65273 0.0365536 0)
(9.18188 0.0867577 0)
(8.63766 0.156601 0)
(8.02674 0.248583 0)
(7.36017 0.360514 0)
(6.65333 0.478014 0)
(5.8954 0.607207 0)
(5.11561 0.720088 0)
(4.31522 0.812537 0)
(3.52275 0.859923 0)
(2.72495 0.882446 0)
(1.86395 0.878213 0)
(1.04034 0.807879 0)
(0.38288 0.69234 0)
(-0.185142 0.572638 0)
(-0.585102 0.485469 0)
(-0.867091 0.419854 0)
(-0.968969 0.329038 0)
(-0.963717 0.165809 0)
(-0.890322 -0.00331362 0)
(-0.713605 -0.168299 0)
(-0.461895 -0.309588 0)
(-0.047907 -0.438871 0)
(0.477928 -0.482038 0)
(1.05009 -0.541543 0)
(1.67063 -0.584963 0)
(2.33692 -0.615143 0)
(3.03216 -0.63275 0)
(3.75252 -0.639891 0)
(4.48251 -0.635829 0)
(5.21585 -0.622064 0)
(5.94136 -0.599317 0)
(6.65254 -0.57002 0)
(7.34183 -0.535303 0)
(8.00387 -0.496935 0)
(8.63358 -0.456051 0)
(9.22709 -0.41381 0)
(9.78117 -0.371055 0)
(10.2935 -0.328518 0)
(10.7622 -0.286777 0)
(11.1863 -0.246282 0)
(11.5654 -0.207396 0)
(11.8997 -0.17048 0)
(12.1897 -0.135903 0)
(12.437 -0.103916 0)
(12.6429 -0.0749892 0)
(12.8103 -0.0492485 0)
(12.9415 -0.0269341 0)
(13.0401 -0.00798992 0)
(13.1084 0.00932048 0)
(13.1477 0.021467 0)
(13.1641 0.0322599 0)
(13.161 0.0405153 0)
(13.1443 0.0406325 0)
(13.1228 0.0405062 0)
(13.0943 0.0371184 0)
(13.0631 0.0330819 0)
(13.0313 0.0291774 0)
(12.9984 0.0263338 0)
(12.9637 0.027003 0)
(12.9232 0.0298143 0)
(12.8731 0.0394046 0)
(12.8064 0.0478684 0)
(12.7175 0.0650669 0)
(12.6019 0.0842709 0)
(12.4548 0.106415 0)
(12.2744 0.128267 0)
(12.0591 0.149481 0)
(11.8095 0.170644 0)
(11.5312 0.195272 0)
(11.2331 0.219085 0)
(10.9208 0.233696 0)
(10.5994 0.24158 0)
(10.2779 0.244674 0)
(9.96557 0.243186 0)
(9.67164 0.237266 0)
(9.40351 0.226114 0)
(9.16672 0.209474 0)
(8.96476 0.188757 0)
(8.80035 0.164882 0)
(8.67309 0.140262 0)
(8.58391 0.113465 0)
(8.52811 0.0899545 0)
(8.50416 0.0625268 0)
(8.51243 0.0424253 0)
(8.54628 0.0223352 0)
(8.60318 0.00329318 0)
(8.68118 -0.0140996 0)
(8.7774 -0.0283238 0)
(8.88888 -0.0404945 0)
(9.01252 -0.0503123 0)
(9.14576 -0.0580847 0)
(9.2861 -0.063925 0)
(9.43137 -0.0680385 0)
(9.57969 -0.0706248 0)
(9.72905 -0.0721736 0)
(9.87786 -0.0725715 0)
(10.025 -0.0719392 0)
(10.1696 -0.070461 0)
(10.3107 -0.0682862 0)
(10.4478 -0.0655467 0)
(10.5802 -0.062363 0)
(10.7076 -0.0588453 0)
(10.8296 -0.0550916 0)
(10.9461 -0.0511777 0)
(11.057 -0.0471782 0)
(11.1623 -0.0431467 0)
(11.2619 -0.0391341 0)
(11.356 -0.0351728 0)
(11.4446 -0.0312996 0)
(11.5279 -0.0275359 0)
(11.6061 -0.0239122 0)
(11.6794 -0.0204336 0)
(11.748 -0.017125 0)
(11.812 -0.013982 0)
(11.8718 -0.0110151 0)
(11.9276 -0.0082362 0)
(11.9797 -0.00565217 0)
(12.0283 -0.00327354 0)
(12.0737 -0.00111045 0)
(12.1162 0.00083369 0)
(12.1559 0.00256371 0)
(12.1929 0.00408758 0)
(12.2276 0.00546604 0)
(12.2603 0.00670035 0)
(12.2911 0.00779038 0)
(12.3203 0.00873968 0)
(12.3482 0.0095494 0)
(12.3748 0.0102311 0)
(12.4003 0.010799 0)
(12.4249 0.0112643 0)
(12.4487 0.0116378 0)
(12.4718 0.0119298 0)
(12.4943 0.0121499 0)
(12.5164 0.0123076 0)
(12.538 0.0124107 0)
(12.5592 0.0124671 0)
(12.5802 0.0124845 0)
(12.6008 0.0124695 0)
(12.6213 0.0124283 0)
(12.6415 0.0123662 0)
(12.6616 0.0122877 0)
(12.6814 0.012197 0)
(12.7011 0.0120969 0)
(12.7207 0.0119903 0)
(12.7401 0.0118795 0)
(12.7593 0.0117663 0)
(12.7784 0.011653 0)
(12.7973 0.0115396 0)
(12.8161 0.0114265 0)
(12.8347 0.0113139 0)
(12.8531 0.0112017 0)
(12.8714 0.011091 0)
(12.8895 0.0109804 0)
(12.9074 0.0108689 0)
(12.9251 0.0107566 0)
(12.9427 0.0106437 0)
(12.9601 0.0105305 0)
(12.9773 0.0104145 0)
(12.9944 0.0102965 0)
(13.0113 0.0101767 0)
(13.028 0.0100544 0)
(13.0446 0.00993035 0)
(13.061 0.00980401 0)
(13.0772 0.00967655 0)
(13.0933 0.00954777 0)
(13.1092 0.00941811 0)
(13.1249 0.00928726 0)
(13.1405 0.00915644 0)
(13.1559 0.00902652 0)
(13.1712 0.00889819 0)
(13.1863 0.00877075 0)
(13.2012 0.00864421 0)
(13.216 0.00851982 0)
(13.2305 0.00839657 0)
(13.2449 0.00827542 0)
(13.2592 0.00815798 0)
(13.2732 0.00804333 0)
(13.287 0.00793056 0)
(13.3007 0.00782043 0)
(13.3141 0.00771307 0)
(13.3274 0.00760894 0)
(13.3404 0.0075068 0)
(13.3532 0.00740525 0)
(13.3659 0.00730563 0)
(13.3783 0.00720883 0)
(13.3905 0.00711415 0)
(13.4024 0.00702084 0)
(13.4142 0.00692811 0)
(13.4257 0.00683598 0)
(13.437 0.00674459 0)
(13.4481 0.00665527 0)
(13.459 0.00656612 0)
(13.4696 0.0064764 0)
(13.48 0.00638594 0)
(13.4902 0.006296 0)
(13.5002 0.00620641 0)
(13.5099 0.00611768 0)
(13.5195 0.00602927 0)
(13.5288 0.00594049 0)
(13.5379 0.00585117 0)
(13.5468 0.00576303 0)
(13.5555 0.00567684 0)
(13.564 0.00559283 0)
(13.5722 0.00551152 0)
(13.5803 0.00543215 0)
(13.5882 0.00535518 0)
(13.5958 0.00528118 0)
(13.6033 0.00521157 0)
(13.6105 0.00515688 0)
(13.6176 0.00509492 0)
(13.6244 0.00503879 0)
(13.631 0.00502156 0)
(13.6375 0.00493891 0)
(13.6437 0.00497961 0)
(13.6497 0.00492593 0)
(13.6554 0.00496246 0)
(13.6611 0.0050518 0)
(13.6664 0.0049368 0)
(13.6716 0.00505227 0)
(13.6766 0.0050312 0)
(13.6814 0.00513208 0)
(13.686 0.00528279 0)
(13.6904 0.00544114 0)
(13.6944 0.0058919 0)
(13.6983 0.00628831 0)
(13.7016 0.00727531 0)
(13.7042 0.00849074 0)
(13.7058 0.0105234 0)
(13.7052 0.0129327 0)
(13.7035 0.0163877 0)
(13.698 0.0179095 0)
(13.6937 0.0179668 0)
(13.6844 0.0133894 0)
(13.6915 0.00718955 0)
(13.6754 -0.0128142 0)
(0.00245858 0.0310792 0)
(0.049199 -0.0947272 0)
(0.210637 -0.288598 0)
(0.447363 -0.41009 0)
(0.738081 -0.474864 0)
(1.02686 -0.449863 0)
(1.30028 -0.392211 0)
(1.53759 -0.311091 0)
(1.74277 -0.251851 0)
(1.91478 -0.20916 0)
(2.05263 -0.183501 0)
(2.18663 -0.178807 0)
(2.32234 -0.203052 0)
(2.46177 -0.254783 0)
(2.63678 -0.334196 0)
(2.86304 -0.440317 0)
(3.15016 -0.57026 0)
(3.50907 -0.714465 0)
(3.94595 -0.863384 0)
(4.46096 -1.00176 0)
(5.05105 -1.11505 0)
(5.69962 -1.19086 0)
(6.39146 -1.20942 0)
(7.10063 -1.14999 0)
(7.79412 -1.02342 0)
(8.45897 -0.846169 0)
(9.05258 -0.622347 0)
(9.55324 -0.357008 0)
(9.9307 -0.0671068 0)
(10.1961 0.167144 0)
(10.2692 0.374282 0)
(10.1343 0.490705 0)
(9.86534 0.600825 0)
(9.50533 0.608474 0)
(9.08114 0.510605 0)
(8.61067 0.329931 0)
(8.12999 0.0818112 0)
(7.65643 -0.139132 0)
(7.17071 -0.213344 0)
(6.72448 -0.0245134 0)
(6.24912 0.422351 0)
(5.28767 1.14323 0)
(3.51078 1.97703 0)
(0.985495 2.85496 0)
(-2.20417 3.73062 0)
(-5.90614 4.71118 0)
(-9.80888 5.56166 0)
(-13.6329 6.00672 0)
(-17.0403 6.04906 0)
(-19.8424 5.77274 0)
(-21.9214 5.33235 0)
(-23.3316 4.78837 0)
(-24.2079 4.07933 0)
(-24.7873 3.39728 0)
(-25.2146 2.71322 0)
(-25.4328 2.06826 0)
(-25.4731 1.44705 0)
(-25.285 0.815306 0)
(-24.9315 0.157184 0)
(-24.3723 -0.51075 0)
(-23.6201 -1.20946 0)
(-22.5694 -1.92721 0)
(-21.2774 -2.60343 0)
(-19.816 -3.18424 0)
(-18.284 -3.6021 0)
(-16.6497 -3.88307 0)
(-14.9341 -4.08461 0)
(-13.1885 -4.20575 0)
(-11.4403 -4.24567 0)
(-9.71911 -4.22113 0)
(-8.0409 -4.13352 0)
(-6.42111 -3.99511 0)
(-4.86372 -3.81722 0)
(-3.38413 -3.61023 0)
(-1.96885 -3.38292 0)
(-0.654514 -3.15332 0)
(0.580079 -2.89841 0)
(1.68075 -2.63383 0)
(2.69202 -2.29108 0)
(3.60456 -2.10311 0)
(4.52334 -1.97855 0)
(5.36588 -1.84541 0)
(6.17601 -1.71744 0)
(6.92688 -1.58284 0)
(7.63515 -1.45259 0)
(8.29684 -1.32358 0)
(8.91806 -1.19944 0)
(9.49967 -1.07974 0)
(10.0444 -0.965011 0)
(10.5539 -0.855012 0)
(11.0301 -0.749983 0)
(11.4747 -0.649108 0)
(11.8884 -0.553142 0)
(12.2731 -0.461774 0)
(12.6285 -0.376891 0)
(12.9549 -0.291305 0)
(13.2523 -0.214268 0)
(13.5169 -0.143822 0)
(13.7496 -0.0821949 0)
(13.9403 0.000221422 0)
(14.1003 0.0489191 0)
(14.2193 0.0919933 0)
(14.2945 0.131665 0)
(14.3301 0.16366 0)
(14.322 0.18688 0)
(14.2866 0.192516 0)
(14.2303 0.198392 0)
(14.1541 0.187865 0)
(14.0623 0.163135 0)
(13.9592 0.130138 0)
(13.8492 0.0873447 0)
(13.7356 0.0338935 0)
(13.6202 -0.0238558 0)
(13.5086 -0.080694 0)
(13.3978 -0.127217 0)
(13.2713 -0.159352 0)
(13.0994 -0.180723 0)
(12.8479 -0.191628 0)
(12.4746 -0.150518 0)
(11.9271 0.0156072 0)
(11.1703 0.40694 0)
(10.1488 1.0509 0)
(8.74395 1.89754 0)
(6.92824 2.74835 0)
(4.82827 3.43381 0)
(2.60745 3.86286 0)
(0.461569 4.00157 0)
(-1.43742 3.96607 0)
(-3.08229 3.75473 0)
(-4.42429 3.44736 0)
(-5.51592 2.99475 0)
(-6.28463 2.42883 0)
(-6.89188 1.75961 0)
(-7.19629 0.908204 0)
(-7.08053 -0.0564983 0)
(-6.57773 -0.953018 0)
(-5.82408 -1.75937 0)
(-4.81415 -2.33915 0)
(-3.57723 -2.84697 0)
(-2.11156 -3.12192 0)
(-0.4952 -3.37345 0)
(1.21856 -3.57404 0)
(3.02235 -3.75599 0)
(4.90914 -3.89549 0)
(6.83347 -3.93006 0)
(8.7676 -3.84477 0)
(10.6458 -3.63225 0)
(12.4509 -3.34027 0)
(14.1554 -2.97158 0)
(15.7345 -2.57378 0)
(17.1993 -2.14339 0)
(18.5274 -1.71143 0)
(19.7123 -1.28199 0)
(20.7391 -0.833389 0)
(21.5711 -0.323926 0)
(22.2831 0.0921088 0)
(22.8214 0.393701 0)
(23.1233 0.707771 0)
(23.159 1.01802 0)
(22.9465 1.24709 0)
(22.5239 1.43172 0)
(21.8925 1.57438 0)
(21.0815 1.64909 0)
(20.1268 1.63636 0)
(19.0697 1.54401 0)
(17.9713 1.38047 0)
(16.8928 1.15988 0)
(15.8893 0.907585 0)
(15.0058 0.636817 0)
(14.2705 0.374462 0)
(13.7086 0.134262 0)
(13.2964 -0.0404875 0)
(13.0635 -0.204802 0)
(12.9363 -0.306446 0)
(12.9357 -0.359908 0)
(13.0053 -0.344622 0)
(13.0694 -0.258395 0)
(13.1228 -0.109189 0)
(13.0631 0.0456854 0)
(12.8348 0.225056 0)
(12.3977 0.430201 0)
(11.7458 0.67233 0)
(10.8975 0.968924 0)
(9.85924 1.32759 0)
(8.62421 1.74633 0)
(7.21309 2.1354 0)
(5.69483 2.42882 0)
(4.1663 2.527 0)
(2.74769 2.4609 0)
(1.53178 2.23381 0)
(0.557635 1.94827 0)
(-0.208581 1.66425 0)
(-0.805222 1.41835 0)
(-1.25004 1.1911 0)
(-1.57405 0.997607 0)
(-1.79988 0.841281 0)
(-1.98894 0.701267 0)
(-2.13636 0.530491 0)
(-2.2018 0.338075 0)
(-2.16433 0.138065 0)
(-2.02357 -0.0624543 0)
(-1.82107 -0.257231 0)
(-1.5599 -0.437789 0)
(-1.23854 -0.599684 0)
(-0.858474 -0.736172 0)
(-0.409143 -0.833902 0)
(0.0945494 -0.877897 0)
(0.649871 -0.960446 0)
(1.25542 -1.03829 0)
(1.9153 -1.13642 0)
(2.62411 -1.21428 0)
(3.37099 -1.29714 0)
(4.1512 -1.3559 0)
(4.95635 -1.38948 0)
(5.76798 -1.40402 0)
(6.59169 -1.38053 0)
(7.38502 -1.34681 0)
(8.1821 -1.2896 0)
(8.93888 -1.21621 0)
(9.67196 -1.1317 0)
(10.3627 -1.03657 0)
(11.012 -0.933844 0)
(11.6115 -0.825552 0)
(12.1576 -0.71381 0)
(12.6455 -0.601042 0)
(13.0709 -0.488328 0)
(13.4311 -0.378868 0)
(13.7208 -0.272067 0)
(13.9428 -0.174216 0)
(14.0868 -0.0799883 0)
(14.1711 -0.00461353 0)
(14.182 0.0520303 0)
(14.1304 0.0961321 0)
(14.0365 0.1344 0)
(13.9021 0.160354 0)
(13.734 0.175768 0)
(13.5419 0.185755 0)
(13.3337 0.195097 0)
(13.1151 0.208188 0)
(12.8869 0.226837 0)
(12.6478 0.253955 0)
(12.3953 0.285282 0)
(12.1284 0.313811 0)
(11.8498 0.331009 0)
(11.5674 0.331019 0)
(11.2945 0.304919 0)
(11.0444 0.252621 0)
(10.8346 0.173433 0)
(10.6721 0.0807986 0)
(10.5682 -0.00945454 0)
(10.5332 -0.107793 0)
(10.5641 -0.192925 0)
(10.6531 -0.261833 0)
(10.7997 -0.305326 0)
(10.9992 -0.332553 0)
(11.1826 -0.340893 0)
(11.3228 -0.308679 0)
(11.4525 -0.241152 0)
(11.5291 -0.142578 0)
(11.5765 -0.0199452 0)
(11.5548 0.0948693 0)
(11.4511 0.241544 0)
(11.2664 0.405376 0)
(10.9647 0.569484 0)
(10.5431 0.733939 0)
(10.0051 0.903529 0)
(9.35675 1.0829 0)
(8.60539 1.27315 0)
(7.7478 1.46811 0)
(6.78628 1.67191 0)
(5.75069 1.84874 0)
(4.67301 1.94448 0)
(3.59367 1.95908 0)
(2.56651 1.91847 0)
(1.64817 1.80467 0)
(0.891055 1.63928 0)
(0.269927 1.46079 0)
(-0.191966 1.28668 0)
(-0.534367 1.06984 0)
(-0.726818 0.835748 0)
(-0.861276 0.574711 0)
(-0.934935 0.328748 0)
(-0.818496 0.00999165 0)
(-0.547528 -0.281742 0)
(-0.168809 -0.542536 0)
(0.322843 -0.753571 0)
(0.881234 -0.918899 0)
(1.49016 -1.08307 0)
(2.1626 -1.22187 0)
(2.88145 -1.33725 0)
(3.64461 -1.42521 0)
(4.43548 -1.48515 0)
(5.24673 -1.51908 0)
(6.06549 -1.52718 0)
(6.8844 -1.51294 0)
(7.69428 -1.47834 0)
(8.48865 -1.42715 0)
(9.26072 -1.3619 0)
(10.0053 -1.28563 0)
(10.7176 -1.20081 0)
(11.3938 -1.10981 0)
(12.031 -1.01468 0)
(12.6266 -0.917219 0)
(13.1787 -0.819042 0)
(13.686 -0.721494 0)
(14.1476 -0.625741 0)
(14.5629 -0.532824 0)
(14.9317 -0.443623 0)
(15.2543 -0.359054 0)
(15.531 -0.279942 0)
(15.763 -0.207261 0)
(15.9515 -0.141629 0)
(16.0977 -0.0816827 0)
(16.2037 -0.0269492 0)
(16.2676 0.0233755 0)
(16.2959 0.0632821 0)
(16.2847 0.0870814 0)
(16.2457 0.10398 0)
(16.1878 0.114507 0)