/*--------------------------------*- C++ -*----------------------------------*\
| =========                 |                                                 |
| \\      /  F ield         | OpenFOAM: The Open Source CFD Toolbox           |
|  \\    /   O peration     | Version:  v1812                                 |
|   \\  /    A nd           | Web:      www.OpenFOAM.com                      |
|    \\/     M anipulation  |                                                 |
\*---------------------------------------------------------------------------*/
FoamFile
{
    version     2.0;
    format      ascii;
    class       volScalarField;
    location    "0.7";
    object      p;
}
// * * * * * * * * * * * * * * * * * * * * * * * * * * * * * * * * * * * * * //

dimensions      [1 -1 -2 0 0 0 0];


internalField   nonuniform List<scalar> 
20400
(
106782
106783
106783
106785
106785
106786
106787
106787
106789
106790
106793
106795
106800
106804
106809
106814
106820
106825
106830
106834
106838
106840
106841
106840
106838
106834
106831
106826
106822
106817
106813
106809
106806
106803
106800
106796
106794
106790
106785
106778
106767
106757
106736
106722
106707
106685
106663
106635
106605
106574
106545
106518
106498
106484
106476
106477
106488
106508
106537
106573
106621
106669
106724
106778
106834
106887
106938
106984
107027
107064
107097
107124
107147
107166
107181
107193
107201
107206
107209
107211
107213
107213
107211
107209
107206
107202
107198
107194
107189
107185
107180
107176
107172
107168
107164
107161
107158
107155
107152
107149
107146
107144
107142
107138
107137
107135
107132
107127
107120
107107
107090
107071
107047
107027
107002
106981
106955
106935
106921
106911
106910
106915
106928
106944
106957
106977
106995
107016
107034
107052
107069
107083
107094
107102
107108
107112
107114
107113
107112
107109
107105
107100
107094
107088
107081
107074
107067
107059
107051
107043
107035
107027
107019
107011
107003
106995
106987
106980
106972
106965
106958
106952
106946
106939
106934
106928
106923
106917
106911
106906
106899
106893
106885
106877
106868
106859
106849
106838
106827
106816
106804
106791
106778
106763
106748
106731
106712
106692
106673
106652
106635
106614
106595
106574
106556
106536
106519
106504
106491
106482
106475
106471
106471
106473
106479
106487
106496
106507
106517
106528
106535
106544
106551
106558
106563
106566
106566
106565
106561
106555
106548
106539
106529
106517
106505
106491
106477
106462
106447
106431
106415
106399
106383
106366
106349
106333
106316
106299
106282
106265
106247
106230
106213
106196
106178
106161
106143
106125
106108
106090
106072
106054
106035
106017
105999
105980
105961
105943
105924
105905
105885
105866
105847
105827
105807
105787
105767
105747
105726
105706
105685
105664
105643
105622
105600
105579
105557
105535
105513
105491
105469
105447
105424
105401
105378
105355
105332
105309
105286
105262
105238
105215
105191
105167
105142
105118
105094
105069
105045
105020
104995
104970
104945
104920
104895
104870
104844
104819
104793
104768
104742
104716
104691
104665
104639
104613
104587
104561
104535
104509
104483
104456
104430
104404
104378
104352
104326
104299
104273
104247
104221
104195
104168
104142
104116
104090
104064
104038
104012
103986
103960
103934
103909
103883
103857
103832
103806
103781
103756
103730
103705
103680
103655
103630
103605
103581
103556
103532
103507
103483
103459
103435
103411
103387
103364
103340
103317
103294
103270
103247
103225
103202
103179
103157
103135
103113
103091
103069
103047
103026
103004
102983
102962
102941
102920
102900
102879
102859
102839
102819
102799
102780
102760
102741
102722
102703
102684
102665
102647
102628
102610
102592
102574
102556
102539
102521
102504
102487
102470
102453
102436
102420
102403
102387
102371
102355
102339
102323
102308
102292
102277
102262
102247
102232
102217
102202
102188
102173
102159
102145
102130
102116
102102
102089
102075
102061
102048
102035
102021
102008
101995
101982
101969
101956
101943
101931
101918
101906
101893
101881
101869
101856
101844
101832
101820
101808
101797
101785
101773
101761
101750
101738
101727
101715
101704
101692
101681
101670
101659
101648
101636
101625
101614
101603
101592
101581
101571
101560
101549
101538
101527
101517
101506
101495
101485
101474
101464
101453
101443
101432
101422
101411
101401
101391
101380
101370
101360
101350
101340
101329
106782
106783
106783
106784
106785
106785
106786
106787
106789
106791
106793
106796
106800
106805
106810
106816
106821
106826
106831
106835
106838
106840
106840
106839
106837
106833
106829
106825
106821
106816
106813
106810
106807
106804
106801
106798
106795
106791
106785
106776
106767
106761
106749
106736
106711
106689
106662
106633
106600
106567
106534
106502
106477
106460
106455
106461
106477
106503
106537
106578
106622
106667
106716
106765
106816
106865
106913
106958
106999
107037
107071
107100
107126
107147
107165
107180
107192
107201
107208
107211
107211
107211
107209
107207
107204
107200
107196
107192
107188
107183
107179
107175
107171
107167
107163
107160
107157
107154
107151
107150
107146
107144
107142
107140
107138
107135
107133
107128
107121
107110
107097
107078
107056
107026
106998
106969
106948
106931
106920
106913
106908
106910
106916
106929
106949
106971
106994
107016
107036
107054
107069
107082
107093
107101
107107
107111
107113
107113
107111
107108
107104
107099
107094
107088
107081
107074
107067
107059
107051
107043
107035
107027
107020
107012
107004
106996
106988
106980
106973
106965
106958
106952
106945
106939
106934
106928
106922
106917
106911
106905
106899
106893
106885
106877
106869
106861
106850
106840
106829
106818
106805
106792
106778
106763
106748
106732
106716
106699
106680
106661
106636
106614
106592
106571
106549
106531
106514
106500
106487
106478
106471
106469
106469
106472
106475
106481
106489
106499
106510
106520
106534
106544
106553
106559
106563
106566
106566
106564
106561
106555
106548
106539
106529
106517
106505
106491
106477
106462
106447
106431
106415
106399
106383
106366
106349
106332
106316
106299
106282
106264
106247
106230
106213
106195
106178
106161
106143
106125
106107
106090
106072
106054
106035
106017
105999
105980
105961
105943
105924
105905
105885
105866
105846
105827
105807
105787
105767
105747
105726
105706
105685
105664
105643
105622
105600
105579
105557
105535
105513
105491
105469
105446
105424
105401
105378
105355
105332
105309
105285
105262
105238
105214
105191
105166
105142
105118
105094
105069
105044
105020
104995
104970
104945
104920
104895
104869
104844
104819
104793
104768
104742
104716
104690
104665
104639
104613
104587
104561
104535
104509
104483
104456
104430
104404
104378
104352
104325
104299
104273
104247
104221
104194
104168
104142
104116
104090
104064
104038
104012
103986
103960
103934
103909
103883
103857
103832
103806
103781
103756
103730
103705
103680
103655
103630
103605
103581
103556
103532
103507
103483
103459
103435
103411
103387
103364
103340
103317
103293
103270
103247
103225
103202
103179
103157
103135
103113
103091
103069
103047
103026
103004
102983
102962
102941
102920
102900
102879
102859
102839
102819
102799
102780
102760
102741
102722
102703
102684
102665
102647
102628
102610
102592
102574
102556
102539
102521
102504
102487
102470
102453
102436
102420
102403
102387
102371
102355
102339
102323
102308
102292
102277
102262
102247
102232
102217
102202
102188
102173
102159
102145
102130
102116
102102
102089
102075
102061
102048
102035
102021
102008
101995
101982
101969
101956
101943
101931
101918
101906
101893
101881
101869
101856
101844
101832
101820
101808
101797
101785
101773
101761
101750
101738
101727
101715
101704
101692
101681
101670
101659
101648
101636
101625
101614
101603
101592
101581
101571
101560
101549
101538
101527
101517
101506
101495
101485
101474
101464
101453
101443
101432
101422
101411
101401
101391
101380
101370
101360
101350
101340
101330
106781
106782
106782
106783
106783
106784
106784
106784
106785
106787
106790
106793
106797
106802
106807
106812
106818
106823
106828
106833
106836
106838
106839
106838
106836
106832
106829
106824
106820
106815
106811
106808
106806
106804
106802
106799
106797
106793
106789
106784
106774
106760
106744
106729
106709
106686
106656
106621
106580
106538
106500
106471
106457
106445
106438
106439
106449
106468
106496
106535
106583
106638
106699
106759
106817
106874
106927
106977
107021
107060
107093
107122
107146
107165
107180
107191
107199
107204
107207
107208
107209
107209
107207
107205
107202
107198
107194
107190
107185
107181
107177
107173
107169
107165
107162
107158
107156
107153
107150
107148
107146
107144
107141
107139
107138
107137
107135
107132
107125
107114
107097
107075
107049
107022
106992
106964
106938
106917
106901
106890
106892
106900
106912
106928
106945
106966
106986
107008
107028
107048
107064
107079
107090
107099
107105
107109
107111
107111
107109
107107
107103
107098
107093
107087
107080
107073
107066
107058
107050
107043
107034
107026
107019
107011
107003
106995
106987
106980
106972
106965
106958
106952
106946
106940
106934
106928
106922
106917
106911
106906
106899
106893
106885
106877
106869
106858
106848
106838
106827
106816
106804
106793
106780
106766
106751
106734
106716
106696
106675
106654
106633
106612
106591
106569
106549
106530
106512
106497
106484
106476
106468
106463
106461
106464
106470
106479
106488
106499
106511
106522
106532
106542
106550
106557
106562
106565
106566
106565
106561
106556
106548
106539
106529
106517
106505
106491
106477
106462
106447
106431
106415
106399
106383
106366
106349
106332
106315
106298
106281
106264
106247
106230
106213
106195
106178
106160
106143
106125
106107
106090
106072
106053
106035
106017
105999
105980
105961
105943
105924
105904
105885
105866
105846
105827
105807
105787
105767
105746
105726
105705
105685
105664
105643
105622
105600
105579
105557
105535
105513
105491
105469
105446
105424
105401
105378
105355
105332
105309
105285
105262
105238
105214
105190
105166
105142
105118
105094
105069
105044
105020
104995
104970
104945
104920
104895
104869
104844
104819
104793
104767
104742
104716
104690
104664
104639
104613
104587
104561
104535
104509
104482
104456
104430
104404
104378
104352
104325
104299
104273
104247
104221
104194
104168
104142
104116
104090
104064
104038
104012
103986
103960
103934
103909
103883
103857
103832
103806
103781
103755
103730
103705
103680
103655
103630
103605
103581
103556
103532
103507
103483
103459
103435
103411
103387
103363
103340
103317
103293
103270
103247
103224
103202
103179
103157
103135
103112
103090
103069
103047
103025
103004
102983
102962
102941
102920
102900
102879
102859
102839
102819
102799
102780
102760
102741
102722
102703
102684
102665
102647
102628
102610
102592
102574
102556
102539
102521
102504
102487
102470
102453
102436
102420
102403
102387
102371
102355
102339
102323
102308
102292
102277
102262
102247
102232
102217
102202
102188
102173
102159
102144
102130
102116
102102
102089
102075
102061
102048
102035
102021
102008
101995
101982
101969
101956
101943
101931
101918
101906
101893
101881
101869
101856
101844
101832
101820
101808
101797
101785
101773
101761
101750
101738
101727
101715
101704
101692
101681
101670
101659
101648
101636
101625
101614
101603
101592
101581
101571
101560
101549
101538
101527
101517
101506
101495
101485
101474
101464
101453
101443
101432
101422
101411
101401
101391
101380
101370
101360
101350
101340
101330
106781
106781
106781
106782
106782
106782
106782
106783
106785
106787
106790
106793
106798
106804
106809
106815
106821
106826
106831
106835
106837
106838
106838
106836
106832
106827
106822
106818
106814
106812
106810
106807
106805
106805
106804
106803
106801
106798
106792
106784
106775
106764
106749
106728
106699
106663
106622
106576
106533
106494
106460
106429
106402
106379
106378
106393
106413
106446
106484
106528
106577
106630
106685
106742
106799
106855
106908
106957
107002
107041
107075
107105
107130
107150
107167
107180
107190
107197
107202
107204
107205
107204
107202
107200
107197
107193
107190
107186
107181
107177
107173
107169
107165
107162
107159
107156
107153
107150
107148
107146
107144
107142
107141
107138
107137
107137
107135
107132
107126
107114
107096
107071
107042
107009
106977
106947
106922
106902
106889
106878
106876
106882
106892
106909
106931
106954
106979
107003
107025
107044
107061
107075
107087
107095
107102
107106
107108
107108
107107
107104
107100
107096
107090
107084
107078
107071
107064
107056
107048
107041
107033
107025
107017
107009
107001
106993
106986
106979
106971
106965
106958
106952
106946
106940
106934
106929
106923
106918
106912
106906
106900
106893
106886
106878
106870
106861
106852
106842
106831
106819
106807
106794
106780
106765
106749
106732
106715
106695
106675
106653
106630
106607
106584
106561
106540
106520
106502
106486
106472
106462
106455
106452
106453
106456
106461
106468
106478
106489
106502
106515
106528
106539
106549
106557
106562
106565
106567
106565
106561
106556
106549
106540
106529
106518
106505
106491
106477
106462
106447
106431
106415
106399
106382
106366
106349
106332
106315
106298
106281
106264
106247
106230
106212
106195
106178
106160
106143
106125
106107
106089
106071
106053
106035
106017
105998
105980
105961
105942
105923
105904
105885
105866
105846
105827
105807
105787
105767
105746
105726
105705
105685
105664
105643
105621
105600
105579
105557
105535
105513
105491
105469
105446
105424
105401
105378
105355
105332
105309
105285
105262
105238
105214
105190
105166
105142
105118
105093
105069
105044
105020
104995
104970
104945
104920
104895
104869
104844
104818
104793
104767
104742
104716
104690
104664
104638
104613
104587
104561
104535
104508
104482
104456
104430
104404
104378
104351
104325
104299
104273
104247
104220
104194
104168
104142
104116
104090
104064
104038
104012
103986
103960
103934
103908
103883
103857
103832
103806
103781
103755
103730
103705
103680
103655
103630
103605
103580
103556
103531
103507
103483
103459
103435
103411
103387
103363
103340
103317
103293
103270
103247
103224
103202
103179
103157
103134
103112
103090
103069
103047
103025
103004
102983
102962
102941
102920
102900
102879
102859
102839
102819
102799
102779
102760
102741
102722
102703
102684
102665
102647
102628
102610
102592
102574
102556
102539
102521
102504
102487
102470
102453
102436
102420
102403
102387
102371
102355
102339
102323
102308
102292
102277
102262
102247
102232
102217
102202
102187
102173
102159
102144
102130
102116
102102
102089
102075
102061
102048
102034
102021
102008
101995
101982
101969
101956
101943
101931
101918
101906
101893
101881
101869
101856
101844
101832
101820
101808
101797
101785
101773
101761
101750
101738
101727
101715
101704
101692
101681
101670
101659
101648
101636
101625
101614
101603
101592
101581
101571
101560
101549
101538
101527
101517
101506
101495
101485
101474
101464
101453
101443
101432
101422
101411
101401
101391
101380
101370
101360
101350
101339
101330
106779
106780
106780
106780
106779
106779
106778
106778
106779
106781
106784
106788
106794
106799
106806
106812
106819
106824
106830
106834
106837
106838
106837
106835
106831
106826
106821
106816
106811
106807
106805
106804
106804
106804
106804
106804
106803
106801
106796
106790
106778
106762
106740
106711
106673
106628
106579
106532
106484
106439
106399
106369
106351
106338
106335
106346
106365
106395
106435
106484
106540
106601
106665
106729
106792
106851
106906
106957
107003
107043
107078
107107
107131
107151
107167
107179
107188
107193
107197
107198
107199
107199
107197
107195
107191
107188
107184
107180
107176
107172
107168
107165
107161
107158
107155
107152
107150
107147
107145
107143
107142
107140
107138
107137
107136
107134
107133
107129
107122
107108
107087
107059
107026
106993
106959
106928
106899
106877
106862
106855
106856
106864
106878
106896
106918
106942
106966
106991
107014
107034
107053
107068
107080
107090
107097
107101
107104
107104
107103
107101
107097
107092
107087
107081
107075
107068
107060
107053
107045
107037
107029
107021
107013
107005
106998
106990
106983
106976
106969
106963
106957
106951
106945
106940
106935
106930
106924
106919
106913
106907
106901
106895
106887
106879
106870
106860
106850
106839
106828
106817
106805
106792
106779
106764
106748
106730
106711
106690
106669
106646
106624
106600
106577
106555
106533
106512
106493
106477
106463
106453
106445
106441
106440
106444
106451
106460
106472
106484
106498
106511
106524
106535
106546
106554
106561
106564
106566
106565
106562
106557
106549
106540
106530
106518
106505
106491
106477
106462
106446
106431
106414
106398
106382
106365
106348
106331
106315
106298
106281
106264
106246
106229
106212
106195
106177
106160
106142
106125
106107
106089
106071
106053
106035
106017
105998
105980
105961
105942
105923
105904
105885
105866
105846
105827
105807
105787
105767
105746
105726
105705
105685
105664
105643
105621
105600
105579
105557
105535
105513
105491
105469
105446
105424
105401
105378
105355
105332
105309
105285
105262
105238
105214
105190
105166
105142
105118
105093
105069
105044
105019
104995
104970
104945
104920
104894
104869
104844
104818
104793
104767
104742
104716
104690
104664
104638
104612
104586
104560
104534
104508
104482
104456
104430
104404
104378
104351
104325
104299
104273
104246
104220
104194
104168
104142
104116
104090
104064
104038
104012
103986
103960
103934
103908
103883
103857
103831
103806
103781
103755
103730
103705
103680
103655
103630
103605
103580
103556
103531
103507
103483
103459
103435
103411
103387
103363
103340
103316
103293
103270
103247
103224
103202
103179
103157
103134
103112
103090
103068
103047
103025
103004
102983
102962
102941
102920
102900
102879
102859
102839
102819
102799
102779
102760
102741
102721
102702
102684
102665
102646
102628
102610
102592
102574
102556
102539
102521
102504
102487
102470
102453
102436
102420
102403
102387
102371
102355
102339
102323
102308
102292
102277
102262
102247
102232
102217
102202
102187
102173
102159
102144
102130
102116
102102
102089
102075
102061
102048
102034
102021
102008
101995
101982
101969
101956
101943
101931
101918
101906
101893
101881
101869
101856
101844
101832
101820
101808
101796
101785
101773
101761
101750
101738
101727
101715
101704
101692
101681
101670
101659
101648
101636
101625
101614
101603
101592
101581
101571
101560
101549
101538
101527
101517
101506
101495
101485
101474
101464
101453
101443
101432
101422
101411
101401
101391
101380
101370
101360
101350
101339
101330
106778
106779
106779
106778
106777
106776
106776
106776
106777
106779
106783
106787
106792
106798
106805
106811
106817
106823
106829
106833
106836
106837
106835
106832
106826
106821
106814
106809
106804
106802
106800
106800
106801
106802
106803
106805
106805
106803
106799
106790
106776
106754
106723
106681
106632
106580
106527
106473
106422
106378
106338
106308
106286
106279
106286
106302
106330
106366
106411
106462
106518
106579
106642
106707
106771
106832
106889
106942
106988
107030
107065
107095
107120
107140
107156
107169
107178
107184
107189
107191
107192
107191
107189
107187
107184
107180
107177
107173
107169
107166
107162
107159
107156
107153
107150
107148
107146
107144
107142
107141
107139
107137
107136
107134
107133
107131
107129
107124
107115
107100
107076
107046
107011
106975
106938
106906
106878
106857
106842
106832
106832
106840
106854
106875
106900
106926
106954
106980
107005
107027
107045
107061
107074
107084
107091
107095
107098
107099
107098
107096
107092
107088
107083
107077
107071
107064
107056
107049
107041
107033
107025
107016
107008
107001
106993
106985
106978
106971
106965
106959
106953
106948
106943
106938
106934
106930
106925
106920
106914
106909
106902
106896
106889
106881
106872
106863
106853
106842
106831
106818
106806
106792
106777
106761
106745
106726
106707
106686
106664
106641
106616
106592
106567
106543
106520
106498
106478
106461
106446
106435
106428
106425
106425
106429
106435
106445
106457
106471
106486
106501
106516
106530
106542
106552
106559
106563
106566
106565
106562
106557
106549
106540
106530
106518
106505
106491
106476
106461
106446
106430
106414
106397
106381
106364
106347
106331
106314
106297
106280
106263
106246
106229
106212
106194
106177
106160
106142
106125
106107
106089
106071
106053
106035
106017
105998
105980
105961
105942
105923
105904
105885
105866
105846
105826
105807
105787
105767
105746
105726
105705
105685
105664
105643
105621
105600
105578
105557
105535
105513
105491
105469
105446
105424
105401
105378
105355
105332
105309
105285
105262
105238
105214
105190
105166
105142
105118
105093
105069
105044
105019
104995
104970
104945
104920
104894
104869
104844
104818
104793
104767
104741
104716
104690
104664
104638
104612
104586
104560
104534
104508
104482
104456
104430
104404
104377
104351
104325
104299
104273
104246
104220
104194
104168
104142
104116
104090
104064
104037
104012
103986
103960
103934
103908
103882
103857
103831
103806
103780
103755
103730
103705
103680
103655
103630
103605
103580
103556
103531
103507
103483
103458
103434
103411
103387
103363
103340
103316
103293
103270
103247
103224
103201
103179
103157
103134
103112
103090
103068
103047
103025
103004
102983
102962
102941
102920
102899
102879
102859
102839
102819
102799
102779
102760
102741
102721
102702
102684
102665
102646
102628
102610
102592
102574
102556
102538
102521
102504
102487
102470
102453
102436
102420
102403
102387
102371
102355
102339
102323
102308
102292
102277
102262
102246
102232
102217
102202
102187
102173
102159
102144
102130
102116
102102
102089
102075
102061
102048
102034
102021
102008
101995
101982
101969
101956
101943
101931
101918
101906
101893
101881
101869
101856
101844
101832
101820
101808
101796
101785
101773
101761
101750
101738
101727
101715
101704
101692
101681
101670
101659
101648
101636
101625
101614
101603
101592
101581
101571
101560
101549
101538
101527
101517
101506
101495
101485
101474
101464
101453
101443
101432
101422
101411
101401
101390
101380
101370
101360
101350
101339
101330
106777
106778
106776
106777
106774
106773
106772
106771
106772
106774
106777
106781
106786
106792
106798
106805
106812
106818
106824
106829
106832
106834
106833
106830
106825
106819
106812
106806
106801
106798
106796
106797
106799
106800
106803
106805
106805
106803
106797
106786
106766
106736
106694
106644
106589
106532
106474
106416
106363
106316
106277
106251
106233
106228
106236
106253
106282
106320
106368
106423
106485
106552
106621
106690
106758
106822
106881
106935
106983
107024
107060
107089
107114
107134
107149
107161
107170
107175
107179
107181
107181
107181
107179
107177
107174
107171
107168
107165
107161
107158
107155
107152
107149
107147
107144
107142
107141
107139
107138
107137
107136
107134
107132
107130
107129
107126
107123
107116
107105
107088
107061
107028
106991
106953
106916
106882
106852
106830
106815
106808
106809
106818
106834
106855
106881
106909
106938
106966
106992
107015
107035
107052
107065
107076
107083
107089
107091
107093
107092
107090
107087
107083
107078
107072
107066
107059
107051
107044
107036
107027
107019
107011
107003
106994
106987
106979
106972
106966
106959
106954
106948
106944
106939
106935
106932
106928
106924
106920
106915
106909
106903
106897
106890
106882
106873
106863
106853
106842
106830
106818
106805
106791
106775
106759
106741
106722
106701
106679
106656
106632
106608
106583
106557
106533
106509
106486
106466
106447
106432
106420
106412
106408
106408
106412
106420
106431
106445
106460
106476
106493
106508
106523
106536
106547
106556
106561
106564
106564
106561
106556
106549
106540
106529
106517
106504
106490
106475
106460
106444
106429
106412
106396
106380
106363
106346
106330
106313
106296
106279
106262
106245
106228
106211
106194
106177
106159
106142
106124
106107
106089
106071
106053
106035
106017
105998
105980
105961
105942
105923
105904
105885
105866
105846
105826
105807
105787
105766
105746
105726
105705
105684
105664
105643
105621
105600
105578
105557
105535
105513
105491
105468
105446
105423
105401
105378
105355
105332
105308
105285
105261
105238
105214
105190
105166
105142
105118
105093
105069
105044
105019
104994
104970
104945
104919
104894
104869
104844
104818
104793
104767
104741
104716
104690
104664
104638
104612
104586
104560
104534
104508
104482
104456
104430
104404
104377
104351
104325
104299
104272
104246
104220
104194
104168
104142
104116
104089
104063
104037
104011
103986
103960
103934
103908
103882
103857
103831
103806
103780
103755
103730
103705
103679
103654
103630
103605
103580
103556
103531
103507
103482
103458
103434
103410
103387
103363
103340
103316
103293
103270
103247
103224
103201
103179
103156
103134
103112
103090
103068
103047
103025
103004
102983
102962
102941
102920
102899
102879
102859
102839
102819
102799
102779
102760
102740
102721
102702
102683
102665
102646
102628
102610
102592
102574
102556
102538
102521
102504
102487
102470
102453
102436
102419
102403
102387
102371
102355
102339
102323
102307
102292
102277
102261
102246
102231
102217
102202
102187
102173
102159
102144
102130
102116
102102
102089
102075
102061
102048
102034
102021
102008
101995
101982
101969
101956
101943
101931
101918
101906
101893
101881
101869
101856
101844
101832
101820
101808
101796
101785
101773
101761
101750
101738
101727
101715
101704
101692
101681
101670
101659
101647
101636
101625
101614
101603
101592
101581
101571
101560
101549
101538
101527
101517
101506
101495
101485
101474
101464
101453
101443
101432
101422
101411
101401
101390
101380
101370
101359
101350
101339
101330
106777
106776
106776
106774
106773
106771
106770
106769
106770
106771
106774
106777
106781
106787
106793
106799
106806
106812
106818
106823
106826
106829
106829
106827
106823
106818
106811
106805
106800
106796
106795
106795
106797
106800
106802
106804
106804
106800
106792
106776
106750
106710
106661
106604
106544
106481
106418
106358
106304
106258
106221
106198
106183
106183
106196
106216
106249
106289
106338
106395
106458
106525
106596
106667
106736
106802
106863
106918
106966
107008
107044
107074
107099
107119
107134
107147
107156
107162
107166
107169
107169
107169
107167
107165
107163
107160
107157
107154
107151
107148
107146
107143
107141
107139
107137
107136
107135
107134
107133
107133
107132
107131
107129
107127
107124
107121
107116
107108
107095
107076
107046
107012
106974
106934
106896
106862
106833
106810
106794
106786
106787
106796
106813
106836
106864
106894
106925
106955
106982
107006
107026
107043
107057
107068
107076
107081
107084
107086
107085
107084
107081
107077
107072
107067
107060
107053
107046
107038
107030
107021
107013
107004
106996
106987
106979
106972
106965
106958
106952
106946
106941
106937
106933
106930
106927
106924
106921
106917
106913
106909
106904
106898
106891
106884
106875
106866
106855
106844
106832
106818
106804
106789
106773
106756
106737
106717
106696
106673
106649
106624
106599
106572
106545
106519
106494
106469
106447
106428
106411
106399
106391
106387
106387
106391
106400
106411
106426
106443
106461
106480
106498
106515
106530
106542
106552
106558
106562
106563
106560
106555
106548
106539
106528
106516
106503
106489
106474
106458
106443
106427
106411
106394
106378
106361
106345
106328
106312
106295
106278
106261
106244
106227
106210
106193
106176
106159
106141
106124
106106
106089
106071
106053
106035
106016
105998
105980
105961
105942
105923
105904
105885
105866
105846
105826
105807
105787
105766
105746
105726
105705
105684
105664
105642
105621
105600
105578
105557
105535
105513
105491
105468
105446
105423
105401
105378
105355
105332
105308
105285
105261
105238
105214
105190
105166
105142
105117
105093
105069
105044
105019
104994
104969
104944
104919
104894
104869
104844
104818
104793
104767
104741
104716
104690
104664
104638
104612
104586
104560
104534
104508
104482
104456
104430
104403
104377
104351
104325
104299
104272
104246
104220
104194
104168
104142
104115
104089
104063
104037
104011
103985
103960
103934
103908
103882
103857
103831
103806
103780
103755
103730
103704
103679
103654
103630
103605
103580
103555
103531
103507
103482
103458
103434
103410
103387
103363
103339
103316
103293
103270
103247
103224
103201
103179
103156
103134
103112
103090
103068
103047
103025
103004
102982
102961
102941
102920
102899
102879
102859
102838
102819
102799
102779
102760
102740
102721
102702
102683
102665
102646
102628
102610
102592
102574
102556
102538
102521
102504
102486
102469
102453
102436
102419
102403
102387
102371
102355
102339
102323
102307
102292
102277
102261
102246
102231
102217
102202
102187
102173
102159
102144
102130
102116
102102
102088
102075
102061
102048
102034
102021
102008
101995
101982
101969
101956
101943
101931
101918
101906
101893
101881
101869
101856
101844
101832
101820
101808
101796
101785
101773
101761
101750
101738
101727
101715
101704
101692
101681
101670
101659
101647
101636
101625
101614
101603
101592
101581
101571
101560
101549
101538
101527
101517
101506
101495
101485
101474
101464
101453
101443
101432
101422
101411
101401
101390
101380
101370
101360
101349
101340
101329
106776
106776
106774
106773
106771
106769
106767
106766
106765
106766
106767
106769
106772
106776
106781
106787
106793
106799
106806
106812
106817
106821
106824
106825
106823
106820
106816
106811
106806
106802
106800
106800
106801
106802
106803
106804
106801
106796
106785
106764
106729
106684
106629
106568
106502
106435
106369
106307
106254
106209
106175
106153
106140
106142
106155
106177
106209
106251
106302
106361
106427
106499
106573
106648
106721
106789
106851
106907
106955
106997
107033
107062
107086
107106
107121
107133
107142
107148
107152
107154
107155
107154
107153
107152
107150
107147
107145
107142
107139
107137
107135
107133
107131
107130
107129
107128
107128
107128
107128
107127
107127
107126
107125
107123
107119
107115
107109
107100
107084
107064
107032
106996
106957
106917
106877
106842
106811
106789
106774
106766
106768
106777
106795
106818
106846
106878
106910
106942
106970
106995
107016
107034
107048
107059
107068
107073
107077
107079
107079
107077
107075
107071
107066
107060
107054
107047
107039
107031
107023
107014
107005
106996
106987
106979
106971
106963
106956
106949
106943
106938
106933
106929
106926