/*--------------------------------*- C++ -*----------------------------------*\
| =========                 |                                                 |
| \\      /  F ield         | OpenFOAM: The Open Source CFD Toolbox           |
|  \\    /   O peration     | Version:  v1812                                 |
|   \\  /    A nd           | Web:      www.OpenFOAM.com                      |
|    \\/     M anipulation  |                                                 |
\*---------------------------------------------------------------------------*/
FoamFile
{
    version     2.0;
    format      ascii;
    class       surfaceScalarField;
    location    "0.7";
    object      phi;
}
// * * * * * * * * * * * * * * * * * * * * * * * * * * * * * * * * * * * * * //

dimensions      [1 0 -1 0 0 0 0];
oriented        oriented;


internalField   nonuniform List<scalar> 
40240
(
-0.000167284
0.000155606
-0.000161056
-1.7815e-05
0.000122816
-0.000295373
0.000693954
-0.00058255
0.00143927
-0.000756667
0.00215158
-0.000723583
0.00271115
-0.000570835
0.00306904
-0.000369118
0.00313748
-7.97812e-05
0.00305786
6.8283e-05
0.0028455
0.000200775
0.00264398
0.000190003
0.00250511
0.000127025
0.00249862
-5.33871e-06
0.00265601
-0.00016967
0.00302471
-0.000381146
0.00362562
-0.000613873
0.00444384
-0.000831583
0.00547285
-0.00104299
0.00667314
-0.00121482
0.00799637
-0.00133848
0.00935853
-0.00137792
0.0106782
-0.00133607
0.0118735
-0.00121243
0.0128162
-0.000960018
0.0134597
-0.000661664
0.0136338
-0.000192123
0.0135554
5.95311e-05
0.0130509
0.00048591
0.0122936
0.000738158
0.0113647
0.000909687
0.0104222
0.000923221
0.00955954
0.000843668
0.00885498
0.000686005
0.00841277
0.000424167
0.00836159
3.36574e-05
0.00864542
-0.000301298
0.00935801
-0.000730231
0.0103365
-0.000997029
0.0114497
-0.00113341
0.0123411
-0.000914079
0.0124331
-0.000118424
0.0117198
0.000685905
0.0106974
0.00099598
0.00978924
0.000882144
0.0076684
0.00209856
0.00459755
0.00305051
0.000798603
0.00378097
-0.00381492
0.00459562
-0.00950932
0.00567858
-0.0159068
0.00638231
-0.0226216
0.00670045
-0.0290983
0.00646381
-0.0351003
0.0059893
-0.0403102
0.0051988
-0.0446834
0.00436343
-0.0479943
0.00330187
-0.0501393
0.00213789
-0.0513482
0.00120216
-0.0516284
0.000275069
-0.0510575
-0.000576392
-0.0496801
-0.00138221
-0.0477471
-0.00193838
-0.0451678
-0.00258478
-0.0422042
-0.00296959
-0.0390716
-0.00313908
-0.0357412
-0.00333747
-0.0323302
-0.00341845
-0.0289001
-0.00343799
-0.0255072
-0.00340102
-0.0221967
-0.00331891
-0.0189962
-0.00320886
-0.0159262
-0.00307817
-0.0130035
-0.00293024
-0.0102199
-0.00279065
-0.00760394
-0.00262197
-0.00516627
-0.00244294
-0.00309553
-0.00207504
-0.00151511
-0.00158402
9.01011e-05
-0.0016081
0.00187912
-0.0017912
0.00360017
-0.00172247
0.00519787
-0.00159838
0.00666759
-0.00147003
0.00800316
-0.0013355
0.00921426
-0.00121098
0.0103042
-0.00108966
0.0112786
-0.00097421
0.0121404
-0.000861496
0.0128945
-0.000753727
0.013545
-0.000650155
0.0140973
-0.000551722
0.0145528
-0.000454674
0.0149157
-0.000361586
0.0151889
-0.000271402
0.0153774
-0.000186194
0.0154748
-9.45347e-05
0.0154914
-1.38588e-05
0.0154359
5.80811e-05
0.0152801
0.000157586
0.0150288
0.000252375
0.0147614
0.000267444
0.0144874
0.00027293
0.0143875
9.82824e-05
0.0145055
-0.000120328
0.014935
-0.000431209
0.015478
-0.000544955
0.015876
-0.000399005
0.0159464
-7.34997e-05
0.0152644
0.000679927
0.0136197
0.00163901
0.0111112
0.00250158
0.00808665
0.00301687
0.0054178
0.00266412
0.00242201
0.00298486
-0.000780131
0.00318835
-0.00413667
0.00334204
-0.00718196
0.00303255
-0.00953631
0.002342
-0.0110904
0.00154524
-0.0118602
0.000762253
-0.0118799
1.50636e-05
-0.0109663
-0.000920065
-0.00963591
-0.00133382
-0.00849391
-0.00114577
-0.00689934
-0.00159747
-0.0048519
-0.00205072
-0.00266763
-0.00218771
-0.000416813
-0.00225453
0.00196408
-0.00238475
0.00438703
-0.00242748
0.00666786
-0.00228573
0.00876477
-0.00210224
0.010653
-0.00189363
0.0123302
-0.00168273
0.013787
-0.00146215
0.0150327
-0.00125105
0.0160833
-0.00105577
0.0169452
-0.000866699
0.0176252
-0.00068466
0.0181382
-0.000517531
0.0184958
-0.000361678
0.0187312
-0.000239479
0.0188455
-0.000118089
0.0188592
-1.77687e-05
0.0187582
9.73096e-05
0.0185284
0.000225603
0.0182159
0.000308618
0.0178391
0.000372881
0.017395
0.000440508
0.0168947
0.000497287
0.0163497
0.000542809
0.0157792
0.000569639
0.0151967
0.000583002
0.0146132
0.000585748
0.0140415
0.000575701
0.0135009
0.000546254
0.0130084
0.000499979
0.0125813
0.000436727
0.0122242
0.000368501
0.0119488
0.000288147
0.0117465
0.000216424
0.0116383
0.000123377
0.0116175
3.73343e-05
0.011697
-6.26396e-05
0.0118651
-0.000150448
0.0121256
-0.000242678
0.0124534
-0.000309868
0.0128474
-0.000376104
0.0133018
-0.000436774
0.0137482
-0.000429154
0.0141531
-0.000387905
0.0144901
-0.000319894
0.0147443
-0.000236956
0.0148954
-0.000133563
0.0149468
-3.37453e-05
0.0149347
2.9924e-05
0.014866
8.6917e-05
0.0147446
0.00014025
0.0145906
0.000173406
0.0144169
0.000193964
0.0142147
0.00022304
0.0139579
0.00027816
0.0136131
0.000366836
0.0131402
0.000495444
0.0124672
0.000696131
0.0115263
0.000964724
0.0103333
0.00121751
0.00890582
0.00145282
0.0073199
0.00161258
0.0061198
0.00122777
0.00462995
0.00151864
0.00291403
0.00174586
0.00115315
0.0017921
-0.000630182
0.00181558
-0.002533
0.00193725
-0.00439878
0.0019024
-0.00613228
0.00177228
-0.00767391
0.00158211
-0.00898136
0.00135069
-0.0100549
0.00111711
-0.0107482
0.00074001
-0.0111014
0.000401574
-0.0111269
7.62766e-05
-0.0107424
-0.00033289
-0.00999615
-0.000692448
-0.00894096
-0.00100078
-0.0076682
-0.00121776
-0.00624817
-0.0013645
-0.00486057
-0.00133211
-0.00360487
-0.00120002
-0.00213424
-0.0014155
-0.000611005
-0.00146829
0.000973645
-0.00153056
0.00260496
-0.00157759
0.00414922
-0.00149139
0.00559791
-0.00139616
0.00689664
-0.00124624
0.00806677
-0.0011176
0.00908605
-0.000966232
0.00997643
-0.000836815
0.0107347
-0.000703843
0.011376
-0.000585866
0.0119065
-0.000473958
0.0123403
-0.000376038
0.0126894
-0.000289894
0.0129655
-0.000215664
0.0131781
-0.000150626
0.0133375
-9.60584e-05
0.0134529
-5.05577e-05
0.0135321
-1.29255e-05
0.013581
1.89506e-05
0.0136088
4.14272e-05
0.0136171
6.25359e-05
0.0136155
7.37182e-05
0.0136052
8.39605e-05
0.0135889
9.10826e-05
0.0135693
9.57591e-05
0.0135485
9.8384e-05
0.0135279
9.95029e-05
0.0135088
9.93856e-05
0.0134922
9.82678e-05
0.0134787
9.64122e-05
0.0134689
9.40223e-05
0.013464
9.04872e-05
0.013463
8.78583e-05
0.0134669
8.4069e-05
0.0134759
8.03006e-05
0.0134899
7.6489e-05
0.0135095
7.21789e-05
0.0135341
6.85586e-05
0.0135647
6.36761e-05
0.0136002
5.9966e-05
0.0136408
5.60574e-05
0.0136868
5.19102e-05
0.0137378
4.80954e-05
0.0137936
4.44098e-05
0.0138541
4.09898e-05
0.013919
3.77375e-05
0.0139881
3.46837e-05
0.0140612
3.1833e-05
0.0141381
2.91837e-05
0.0142187
2.6736e-05
0.0143026
2.44788e-05
0.0143896
2.24217e-05
0.0144797
2.05543e-05
0.0145726
1.8881e-05
0.014668
1.73978e-05
0.0147658
1.61023e-05
0.0148658
1.49866e-05
0.0149679
1.40417e-05
0.0150717
1.32584e-05
0.0151773
1.26268e-05
0.0152844
1.21378e-05
0.0153928
1.17809e-05
0.0155025
1.1546e-05
0.0156133
1.14208e-05
0.0157251
1.13969e-05
0.0158379
1.14624e-05
0.0159514
1.16078e-05
0.0160657
1.18224e-05
0.0161806
1.20983e-05
0.0162961
1.24245e-05
0.0164121
1.27966e-05
0.0165285
1.3205e-05
0.0166455
1.36412e-05
0.0167627
1.41011e-05
0.0168804
1.45737e-05
0.0169983
1.50583e-05
0.0171166
1.55496e-05
0.0172351
1.60451e-05
0.0173539
1.65426e-05
0.0174729
1.70405e-05
0.0175922
1.75376e-05
0.0177116
1.80333e-05
0.0178312
1.85282e-05
0.0179509
1.90199e-05
0.0180708
1.951e-05
0.0181908
1.9999e-05
0.0183109
2.04871e-05
0.0184311
2.09751e-05
0.0185513
2.14617e-05
0.0186715
2.19481e-05
0.0187918
2.2435e-05
0.018912
2.29216e-05
0.0190322
2.34095e-05
0.0191523
2.38977e-05
0.0192723
2.43862e-05
0.0193922
2.48756e-05
0.0195119
2.53638e-05
0.0196315
2.58524e-05
0.0197509
2.63415e-05
0.01987
2.68303e-05
0.0199889
2.73184e-05
0.0201075
2.78056e-05
0.0202259
2.82933e-05
0.0203439
2.87813e-05
0.0204615
2.92678e-05
0.0205788
2.97511e-05
0.0206956
3.02328e-05
0.020812
3.07128e-05
0.020928
3.11893e-05
0.0210435
3.16642e-05
0.0211585
3.21374e-05
0.021273
3.26067e-05
0.0213869
3.3073e-05
0.0215002
3.35358e-05
0.0216129
3.3994e-05
0.021725
3.44499e-05
0.0218365
3.49024e-05
0.0219473
3.53493e-05
0.0220574
3.57931e-05
0.0221667
3.62322e-05
0.0222754
3.66662e-05
0.0223832
3.70962e-05
0.0224903
3.75219e-05
0.0225966
3.79441e-05
0.022702
3.83593e-05
0.0228066
3.87677e-05
0.0229104
3.91705e-05
0.0230132
3.9568e-05
0.0231151
3.9961e-05
0.0232161
4.03468e-05
0.0233162
4.07272e-05
0.0234152
4.11025e-05
0.0235133
4.14699e-05
0.0236104
4.18314e-05
0.0237065
4.21852e-05
0.0238015
4.25317e-05
0.0238955
4.2873e-05
0.0239884
4.32081e-05
0.0240802
4.35341e-05
0.0241709
4.38522e-05
0.0242605
4.41624e-05
0.0243489
4.44653e-05
0.0244363
4.47618e-05
0.0245224
4.50508e-05
0.0246074
4.5331e-05
0.0246912
4.56022e-05
0.0247739
4.58648e-05
0.0248553
4.61202e-05
0.0249355
4.63672e-05
0.0250145
4.66056e-05
0.0250923
4.68364e-05
0.0251688
4.70589e-05
0.0252441
4.7271e-05
0.0253182
4.74727e-05
0.025391
4.76669e-05
0.0254625
4.78532e-05
0.0255328
4.80308e-05
0.0256018
4.81977e-05
0.0256695
4.83544e-05
0.0257359
4.85034e-05
0.0258011
4.86422e-05
0.025865
4.87712e-05
0.0259276
4.88908e-05
0.025989
4.90022e-05
0.026049
4.91056e-05
0.0261078
4.91977e-05
0.0261653
4.92796e-05
0.0262216
4.93509e-05
0.0262765
4.94125e-05
0.0263302
4.94651e-05
0.0263827
4.95086e-05
0.0264338
4.95434e-05
0.0264837
4.95677e-05
0.0265324
4.95816e-05
0.0265798
4.95859e-05
0.026626
4.95797e-05
0.026671
4.95639e-05
0.0267147
4.95383e-05
0.0267572
4.9503e-05
0.0267985
4.94579e-05
0.0268387
4.94048e-05
0.0268776
4.9341e-05
0.0269154
4.92667e-05
0.0269519
4.9184e-05
0.0269874
4.9092e-05
0.0270217
4.89914e-05
0.0270548
4.88807e-05
0.0270869
4.8759e-05
0.0271178
4.86283e-05
0.0271477
4.84883e-05
0.0271764
4.83404e-05
0.0272041
4.81835e-05
0.0272308
4.80165e-05
0.0272564
4.78408e-05
0.027281
4.76573e-05
0.0273046
4.74636e-05
0.0273271
4.72603e-05
0.0273487
4.70485e-05
0.0273694
4.68289e-05
0.0273891
4.66031e-05
0.0274079
4.63689e-05
0.0274257
4.61256e-05
0.0274427
4.58734e-05
0.0274587
4.56139e-05
0.027474
4.53466e-05
0.0274883
4.50712e-05
0.0275018
4.4788e-05
0.0275146
4.44982e-05
0.0275265
4.42023e-05
0.0275376
4.38979e-05
0.027548
4.35863e-05
0.0275576
4.32702e-05
0.0275665
4.29445e-05
0.0275747
4.261e-05
0.0275822
4.22717e-05
0.027589
4.19299e-05
0.0275951
4.15819e-05
0.0276006
4.12237e-05
0.0276055
4.08603e-05
0.0276098
4.04904e-05
0.0276134
4.01109e-05
0.0276165
3.97281e-05
0.0276191
3.93467e-05
0.0276211
3.89642e-05
0.0276226
3.85692e-05
0.0276235
3.81628e-05
0.027624
3.77508e-05
0.027624
3.73409e-05
0.0276235
3.69345e-05
0.0276226
3.65172e-05
0.0276213
3.60855e-05
0.0276195
3.56814e-05
0.0276174
3.52051e-05
0.0276149
3.47856e-05
0.0276119
3.43364e-05
0.0276087
3.38413e-05
0.027605
3.35018e-05
0.0276012
3.29679e-05
0.0275969
3.25905e-05
0.0275924
3.20814e-05
0.0275876
3.16422e-05
0.0275825
3.12041e-05
0.0275772
3.07373e-05
0.0275715
3.02737e-05
0.0275657
2.97884e-05
0.0275596
2.93579e-05
0.0275534
2.8896e-05
0.0275468
2.842e-05
0.0275401
2.79582e-05
0.0275333
2.749e-05
0.0275262
2.70102e-05
0.027519
2.654e-05
0.0275116
2.60494e-05
0.0275042
2.5583e-05
0.0274965
2.50937e-05
0.0274888
2.4609e-05
0.027481
2.41404e-05
0.027473
2.36628e-05
0.0274649
2.319e-05
0.0274568
2.27365e-05
0.0274485
2.22795e-05
0.0274401
2.18548e-05
0.0274316
2.14566e-05
0.0274228
2.10998e-05
0.027414
2.07375e-05
0.0274049
2.03923e-05
0.0273958
2.00035e-05
0.0273865
1.96265e-05
0.0273773
1.91949e-05
0.027368
1.88319e-05
0.0273588
1.84455e-05
0.0273496
1.8235e-05
0.0273405
1.79035e-05
0.0273315
1.78435e-05
0.0273228
1.75705e-05
0.0273137
1.81498e-05
0.0273046
1.83501e-05
0.0272936
2.03836e-05
0.0272811
2.19516e-05
0.0272654
2.52323e-05
0.0272461
2.86062e-05
0.0272231
3.18974e-05
0.0272011
3.0441e-05
0.027179
2.97525e-05
0.0271656
1.97154e-05
0.027172
-3.09036e-06
-6.71318e-05
-4.67058e-05
0.000190909
0.000229681
-0.000305461
0.00115273
-0.00122957
0.00248836
-0.00192922
0.00396093
-0.00224021
0.00533808
-0.00211165
0.00648932
-0.00173294
0.00734478
-0.00123543
0.00798231
-0.000728165
0.00833517
-0.000295422
0.00847444
5.04389e-05
0.00847588
0.000177861
0.00848598
0.000105572
0.00861028
-0.000141077
0.00898067
-0.000551922
0.00963605
-0.00104886
0.0105925
-0.00158308
0.0118604
-0.00211282
0.0134355
-0.00263194
0.0152818
-0.00307564
0.0173561
-0.00342795
0.0195877
-0.00362529
0.0218448
-0.00360951
0.0240113
-0.00339589
0.0259666
-0.00293281
0.0275463
-0.00225945
0.0287361
-0.00140033
0.0291679
-0.000391117
0.0290776
0.000556659
0.0283891
0.00140709
0.0272046
0.00207427
0.025611
0.00249665
0.0238138
0.00262064
0.0220437
0.00243612
0.0205564
0.00189194
0.0194889
0.00108211
0.0190138
0.000154983
0.018912
-0.000647419
0.0188093
-0.000914936
0.0181335
-0.00047996
0.0168363
0.00035786
0.0155974
0.00109062
0.0137499
0.00250117
0.0100455
0.00466615
0.00371544
0.00718464
-0.00414161
0.0099312
-0.0136253
0.0125144
-0.0245295
0.0146659
-0.0360304
0.0160783
-0.0469273
0.0165576
-0.05673
0.0161665
-0.0650299
0.0149814
-0.0714593
0.0128754
-0.0759589
0.0104697
-0.0789391
0.00815977
-0.0804283
0.00583258
-0.0806981
0.00355093
-0.0799002
0.00131884
-0.0780112
-0.00070689
-0.0754603
-0.00229914
-0.0724913
-0.00356924
-0.0692442
-0.00465412
-0.0656135
-0.00559488
-0.0616585
-0.0065663
-0.0573768
-0.00727867
-0.0529482
-0.00759562
-0.0484253
-0.00788856
-0.0438557
-0.00801624
-0.0392773
-0.00804436
-0.0347416
-0.00796387
-0.0302974
-0.00778935
-0.0259781
-0.00755295
-0.021814
-0.00726567
-0.0178234
-0.00694284
-0.0140142
-0.00662046
-0.0103686
-0.00628655
-0.00684622
-0.00598277
-0.00327804
-0.00565943
0.000463479
-0.00534077
0.00391489
-0.00507208
0.006899
-0.00478482
0.00966596
-0.00449603
0.0122948
-0.00423024
0.0147996
-0.00397414
0.0171799
-0.00371132
0.019432
-0.00345586
0.0215555
-0.0032034
0.02355
-0.00295658
0.0254156
-0.00271319
0.0271523
-0.00247561
0.0287602
-0.00224317
0.0302409
-0.00201791
0.0315938
-0.00179419
0.0328196
-0.00157552
0.0339171
-0.0013591
0.0348868
-0.00114818
0.0357195
-0.000921379
0.0363787
-0.000669131
0.0367608
-0.000320925
0.0368466
7.43827e-05
0.0367376
0.000363785
0.0362735
0.000734434
0.0355101
0.0010395
0.0344795
0.00113165
0.0333302
0.00103091
0.0320896
0.000810686
0.0306996
0.000845596
0.0288769
0.00142451
0.026318
0.00248612
0.0229528
0.00404653
0.0188324
0.00575795
0.0140579
0.00727204
0.00875332
0.00831352
0.00273205
0.00867272
-0.00274002
0.00844595
-0.0072349
0.00767413
-0.0105082
0.00660594
-0.0125709
0.00508726
-0.0137868
0.00355062
-0.0142743
0.00202529
-0.0142631
0.000745748
-0.0135734
-0.000678613
-0.0122834
-0.00221358
-0.0102711
-0.00334763
-0.00708285
-0.00433546
-0.00349899
-0.00518295
0.000230376
-0.0057829
0.00415809
-0.00612002
0.00818093
-0.00628346
0.0120815
-0.00629428
0.0158005
-0.00615683
0.0194025
-0.00589958
0.022853
-0.00556556
0.0261072
-0.0051613
0.0291323
-0.00472192
0.0318994
-0.0042432
0.0344055
-0.0037709
0.036643
-0.00330657
0.0386227
-0.0028588
0.0403407
-0.0024144
0.0417979
-0.00198538
0.0430049
-0.00157819
0.0439722
-0.00121521
0.0447079
-0.000861135
0.0451721
-0.000488643
0.0453454
-8.17471e-05
0.0453322
0.000233237
0.0451236
0.000512668
0.0446869
0.000805242
0.0440111
0.00111227
0.043124
0.00138059
0.0420468
0.00161639
0.0407978
0.00181544
0.0394057
0.00197238
0.0379087
0.00208075
0.0363543
0.0021291
0.0347958
0.00210489
0.0332904
0.00200707
0.0318884
0.00184238
0.0306262
0.00163647
0.0295258
0.00139612
0.0286202
0.00113124
0.0279331
0.000822161
0.0274742
0.000510747
0.0272266
0.000201782
0.0271739
-7.90914e-05
0.0272616
-0.000310144
0.0275667
-0.000593623
0.0280259
-0.000813501
0.0286064
-0.000995538
0.0292235
-0.00102542
0.0297993
-0.000944284
0.0302605
-0.000762861
0.0305782
-0.000537034
0.0307526
-0.000289749
0.0307832
-4.65509e-05
0.0306351
0.000195395
0.0302104
0.000528927
0.0295062
0.000861948
0.0285309
0.00116638
0.0272958
0.00144741
0.0258057
0.0017321
0.0240729
0.00203071
0.0221273
0.00233296
0.0200018
0.00264243
0.0177437
0.00297674
0.0153768
0.00335502
0.0129323
0.00368613
0.010411
0.00399909
0.00774163
0.00430715
0.00439571
0.00460017
0.00106825
0.00487389
-0.00211396
0.00495785
-0.00521108
0.00492064
-0.00812769
0.00476663
-0.010653
0.0044984
-0.0128005
0.00408832
-0.0145632
0.00357552
-0.015893
0.0029551
-0.0167906
0.00229482
-0.0170823
0.00145668
-0.0169479
0.000657198
-0.0163493
-0.000142892
-0.015461
-0.000755058
-0.0143508
-0.00138336
-0.0129371
-0.00204317
-0.0112
-0.00267268
-0.00921668
-0.00313352
-0.00699823
-0.00351442
-0.0044437
-0.00381727
-0.00153211
-0.00404235
0.00131965
-0.00419831
0.00414223
-0.00422297
0.0068315
-0.00415341
0.00936058
-0.00404166
0.0117193
-0.00378688
0.0139572
-0.00357194
0.0160209
-0.00324925
0.0178983
-0.00293705
0.0195738
-0.00258555
0.0210482
-0.00225638
0.0223211
-0.00192283
0.0234047
-0.00161557
0.024313
-0.00132797
0.0250619
-0.00106981
0.0256648
-0.000836561
0.0261392
-0.000632579
0.0265054
-0.000457948
0.0267784
-0.000308573
0.0269711
-0.000181279
0.0270949
-7.30275e-05
0.0271618
1.73537e-05
0.0271818
8.84334e-05
0.027172
0.000141083
0.0271382
0.000177743
0.0270859
0.000208003
0.0270195
0.000230652
0.0269438
0.000246138
0.0268628
0.00025547
0.0267799
0.000260002
0.0266978
0.000260593
0.0266184
0.000258133
0.0265434
0.000253262
0.0264743
0.000246345
0.0264115
0.00023785
0.0263571
0.00022818
0.0263109
0.000217516
0.0262738
0.000205944
0.0262463
0.00019381
0.0262282
0.000181437
0.0262209
0.000168265
0.0262224
0.000155997
0.0262336
0.000143672
0.0262545
0.000131314
0.0262856
0.000118201
0.0263258
0.000106463
0.0263753
9.47628e-05
0.0264333
8.39542e-05
0.0264997
7.35588e-05
0.026574
6.38062e-05
0.0266557
5.4662e-05
0.0267445
4.61327e-05
0.0268399
3.82139e-05
0.0269416
3.088e-05
0.0270491
2.41341e-05
0.0271619
1.79605e-05
0.0272799
1.23594e-05
0.0274025
7.31032e-06
0.0275294
2.79656e-06
0.0276603
-1.20383e-06
0.0277948
-4.71399e-06
0.0279327
-7.76038e-06
0.0280736
-1.03721e-05
0.0282172
-1.258e-05
0.0283633
-1.44116e-05
0.0285117
-1.58993e-05
0.0286621
-1.70741e-05
0.0288144
-1.79656e-05
0.0289683
-1.86057e-05
0.0291238
-1.90237e-05
0.0292806
-1.92459e-05
0.0294387
-1.93055e-05
0.0295979
-1.92222e-05
0.0297582
-1.90245e-05
0.0299194
-1.8728e-05
0.0300816
-1.83584e-05
0.0302447
-1.79238e-05
0.0304085
-1.74488e-05
0.0305732
-1.69391e-05
0.0307386
-1.64081e-05
0.0309046
-1.58605e-05
0.0310714
-1.53042e-05
0.0312389
-1.47429e-05
0.0314069
-1.418e-05
0.0315756
-1.36189e-05
0.0317449
-1.30587e-05
0.0319148
-1.25048e-05
0.0320852
-1.19544e-05
0.0322561
-1.14053e-05
0.0324276
-1.08581e-05
0.0325996
-1.03105e-05
0.032772
-9.76367e-06
0.0329449
-9.21553e-06
0.0331182
-8.66336e-06
0.0332919
-8.10791e-06
0.0334659
-7.54691e-06
0.0336403
-6.98181e-06
0.033815
-6.41225e-06
0.0339899
-5.8361e-06
0.0341651
-5.25723e-06
0.0343405
-4.67414e-06
0.0345161
-4.08552e-06
0.0346918
-3.49329e-06
0.0348677
-2.89776e-06
0.0350437
-2.29976e-06
0.0352197
-1.69695e-06
0.0353958
-1.0884e-06
0.0355718
-4.77582e-07
0.0357478
1.33116e-07
0.0359238
7.45716e-07
0.0360997
1.35946e-06
0.0362754
1.97177e-06
0.036451
2.58678e-06
0.0366264
3.20528e-06
0.0368016
3.82374e-06
0.0369766
4.44219e-06
0.0371513
5.06015e-06
0.0373257
5.67587e-06
0.0374997
6.29305e-06
0.0376734
6.91089e-06
0.0378466
7.52403e-06
0.0380195
8.1368e-06
0.0381918
8.74756e-06
0.0383637
9.35596e-06
0.0385351
9.96343e-06
0.0387059
1.05689e-05
0.0388762
1.11746e-05
0.0390458
1.17753e-05
0.0392149
1.237e-05
0.0393832
1.29605e-05
0.0395509
1.35479e-05
0.0397178
1.41344e-05
0.039884
1.47154e-05
0.0400494
1.52939e-05
0.0402141
1.58706e-05
0.0403779
1.64404e-05
0.0405408
1.70069e-05
0.0407029
1.75678e-05
0.040864
1.81227e-05
0.0410243
1.86747e-05
0.0411836
1.92241e-05
0.0413418
1.97657e-05
0.0414991
2.03004e-05
0.0416554
2.08289e-05
0.0418106
2.13519e-05
0.0419647
2.18714e-05
0.0421178
2.23854e-05
0.0422697
2.28923e-05
0.0424205
2.33909e-05
0.0425701
2.38819e-05
0.0427186
2.43679e-05
0.0428658
2.48466e-05
0.0430119
2.53185e-05
0.0431567
2.57847e-05
0.0433002
2.62446e-05
0.0434425
2.66949e-05
0.0435835
2.71338e-05
0.0437232
2.75662e-05
0.0438616
2.79931e-05
0.0439986
2.84134e-05
0.0441343
2.88229e-05
0.0442687
2.92211e-05
0.0444017
2.96135e-05
0.0445333
2.99967e-05
0.0446635
3.03702e-05
0.0447923
3.07345e-05
0.0449197
3.10913e-05
0.0450456
3.14427e-05
0.0451702
3.17823e-05
0.0452933
3.21109e-05
0.0454149
3.24278e-05
0.0455351
3.27341e-05
0.0456539
3.30319e-05
0.0457711
3.33217e-05
0.045887
3.36035e-05
0.0460013
3.38744e-05
0.0461141
3.41332e-05
0.0462255
3.43815e-05
0.0463354
3.46179e-05
0.0464438
3.48443e-05
0.0465507
3.50602e-05
0.0466562
3.52655e-05
0.0467601
3.54597e-05
0.0468626
3.56465e-05
0.0469636
3.58217e-05
0.0470631
3.59845e-05
0.0471611
3.61375e-05
0.0472577
3.62804e-05
0.0473527
3.64145e-05
0.0474463
3.65372e-05
0.0475385
3.66451e-05
0.0476291
3.67415e-05
0.0477184
3.68267e-05
0.0478062
3.69033e-05
0.0478925
3.69708e-05
0.0479774
3.70266e-05
0.0480609
3.70712e-05
0.0481429
3.71069e-05
0.0482236
3.71293e-05
0.0483028
3.71385e-05
0.0483807
3.71365e-05
0.0484572
3.71246e-05
0.0485323
3.71071e-05
0.048606
3.70801e-05
0.0486784
3.70421e-05
0.0487494
3.69912e-05
0.0488191
3.69305e-05
0.0488875
3.68594e-05
0.0489545
3.67773e-05
0.0490203
3.66851e-05
0.0490848
3.65848e-05
0.049148
3.64775e-05
0.04921
3.63597e-05
0.0492707
3.6232e-05
0.0493301
3.60977e-05
0.0493883
3.59501e-05
0.0494454
3.57905e-05
0.0495012
3.56252e-05
0.0495558
3.54537e-05
0.0496093
3.52739e-05
0.0496616
3.50803e-05
0.0497127
3.48793e-05
0.0497628
3.46709e-05
0.0498117
3.44481e-05
0.0498595
3.42178e-05
0.0499062
3.39878e-05
0.0499519
3.37574e-05
0.0499965
3.35111e-05
0.05004
3.32477e-05
0.0500825
3.29744e-05
0.050124
3.27022e-05
0.0501645
3.24305e-05
0.0502041
3.21516e-05
0.0502426
3.18526e-05
0.0502802
3.15517e-05
0.0503168
3.12391e-05
0.0503525
3.09073e-05
0.0503873
3.05754e-05
0.0504211
3.02308e-05
0.0504541
2.99068e-05
0.0504862
2.95637e-05
0.0505175
2.92323e-05
0.0505479
2.88676e-05
0.0505775
2.85032e-05
0.0506063
2.81406e-05
0.0506343
2.77691e-05
0.0506615
2.74e-05
0.0506879
2.70058e-05
0.0507136
2.66314e-05
0.0507385
2.62399e-05
0.0507627
2.58258e-05
0.0507862
2.54168e-05
0.050809
2.49935e-05
0.0508311
2.45397e-05
0.0508526
2.40779e-05
0.0508735
2.35839e-05
0.0508938
2.30833e-05
0.0509135
2.25568e-05
0.0509327
2.20197e-05
0.0509514
2.14737e-05
0.0509696
2.09136e-05
0.0509873
2.03421e-05
0.0510046
1.97784e-05
0.0510214
1.91987e-05
0.0510378
1.86536e-05
0.0510538
1.81155e-05
0.0510695
1.76195e-05
0.0510848
1.70745e-05
0.0510998
1.65281e-05
0.0511145
1.58493e-05
0.0511292
1.51681e-05
0.0511437
1.43104e-05
0.0511583
1.35468e-05
0.0511731
1.26265e-05
0.051188
1.19042e-05
0.0512035
1.08076e-05
0.0512196
1.00946e-05
0.0512368
8.72107e-06
0.0512548
8.59397e-06
0.0512741
7.8153e-06
0.0512937
9.83564e-06
0.0513136
1.14068e-05
0.0513321
1.64125e-05
0.0513494
2.11109e-05
0.0513645
2.64642e-05
0.0513767
2.77584e-05
0.0513962
1.94589e-05
0.051414
1.05291e-05
0.0514675
-5.02206e-05
-0.000162405
8.24189e-05
9.75109e-05
0.00078244
-0.00101625
0.00209001
-0.00254776
0.00380507
-0.00365481
0.00553456
-0.00398019
0.0071547
-0.00374224
0.00849126
-0.00307995
0.00946659
-0.00222128
0.0101145
-0.00138662
0.0105021
-0.000693772
0.0107421
-0.000200418
0.0108839
2.50911e-05
0.0110416
-6.33162e-05
0.011249
-0.000359782
0.011571
-0.000885664
0.0121351
-0.00162458
0.0131186
-0.00257913
0.0144723
-0.00347939
0.016196
-0.00436915
0.0182564
-0.00515015
0.0205955
-0.00578179
0.0231201
-0.00616521
0.0257366
-0.00624199
0.0283198
-0.00599576
0.0307262
-0.00535638
0.0328624
-0.00441337
0.0345997
-0.00315583
0.0358858
-0.001696
0.0365689
-0.000145534
0.0365167
0.00143939
0.0357664
0.00280413
0.0343962
0.00384616
0.0326098
0.0043859
0.0305561
0.00446858
0.0283659
0.00406074
0.0262179
0.00320899
0.0242625
0.00208943
0.0225137
0.00108006
0.0210884
0.000487545
0.0196754
0.000906674
0.0172918
0.00270783
0.0125899
0.00575326
0.00546703
0.00958422
-0.00372894
0.0138296
-0.0148202
0.0182508
-0.0271255
0.022216
-0.0397914
0.0251603
-0.051734
0.0265884
-0.0621626
0.0264856
-0.0704366
0.0248093
-0.076368
0.0220735
-0.080056
0.0186458
-0.0821961
0.0149915
-0.0836054
0.0118516
-0.0843046
0.00882952
-0.0843018
0.00580036
-0.0835702
0.0027894
-0.0820706
-0.000209321
-0.0799256
-0.00288012
-0.0771059
-0.00514582
-0.0735404
-0.00716236
-0.0693576
-0.00886391
-0.0646614
-0.0103191
-0.0598315
-0.0114256
-0.0548989
-0.0122424
-0.0497495
-0.0127783
-0.0445587
-0.0131148
-0.0394006
-0.0132122
-0.0343437
-0.0131416
-0.0294182
-0.0129319
-0.0246399
-0.0126121
-0.020032
-0.0122067
-0.0156008
-0.0117438
-0.0113515
-0.0112397
-0.00730704
-0.0107122
-0.00346982
-0.0101702
0.000125984
-0.00962322
0.00350852
-0.00908383
0.00667621
-0.0085464
0.00963013
-0.00806101
0.0125106
-0.00769705
0.0153187
-0.00733225
0.0180271
-0.00696326
0.0206144
-0.00658285
0.0230863
-0.00620168
0.0254423
-0.00582465
0.0276841
-0.00545301
0.0298162
-0.00508758
0.0318417
-0.00472804
0.0337618
-0.00437765
0.0355771
-0.00403415
0.0372906
-0.00370094
0.0389037
-0.00337204
0.0404176
-0.0030518
0.0418338
-0.002738
0.0431558
-0.00243542
0.0443824
-0.00211774
0.0454905
-0.00175318
0.0464757
-0.00128868
0.0473252
-0.000763894
0.0477813
-8.53839e-05
0.0478115
0.000708088
0.0473602
0.00149385
0.0462274
0.00226787
0.044398
0.00286449
0.0419158
0.00329763
0.0388963
0.00386933
0.0353164
0.00500868
0.0308802
0.00692597
0.0254685
0.00946185
0.0193148
0.0119126
0.0129041
0.0136806
0.00686115
0.0143515
0.00156588
0.0139598
-0.00293428
0.0129379
-0.00658504
0.0113169
-0.0093246
0.00933744
-0.0113781
0.00713418
-0.0126565
0.00482216
-0.0129406
0.00230613
-0.0120272
-0.000168482
-0.0102579
-0.00244718
-0.00797892
-0.00449007
-0.00511357
-0.00620849
-0.00180461
-0.00763837
0.00179955
-0.00878033
0.0056157
-0.0095919
0.00967062
-0.0101688
0.0138308
-0.010439
0.0180183
-0.0104805
0.0221638
-0.0103047
0.0262149
-0.00995708
0.030112
-0.00947248
0.0338118
-0.00887414
0.0372953
-0.00822203
0.0405457
-0.00751234
0.0435647
-0.00681002
0.0463434
-0.00610617
0.048899
-0.00543587
0.0512267
-0.00476385
0.0533285
-0.00410856
0.0552119
-0.0034821
0.0568733
-0.00289601
0.0583038
-0.0023095
0.0594952
-0.00169651
0.0604846
-0.0010858
0.0612383
-0.000533126
0.0617031
3.70866e-05
0.0618641
0.00063511
0.0617641
0.00120441
0.0613939
0.00174425
0.0607337
0.00227096
0.059771
0.00277319
0.05852
0.00321894
0.056999
0.00359754
0.0552315
0.00389253
0.0532547
0.00407795
0.0511241
0.00413426
0.0489029
0.00406064
0.0466706
0.00386655
0.0445156
0.00354984
0.0425146
0.003133
0.0407018
0.00263902
0.0391424
0.00207837
0.0378685
0.00148662
0.036876
0.000927638
0.0362047
0.00037993
0.035821
-0.000186869
0.0357384
-0.000705037
0.0358388
-0.00106816
0.0361612
-0.00132083
0.0365513
-0.00130987
0.036936
-0.00112668
0.0372105
-0.000792937
0.037256
-0.000317768
0.0370057
0.000220891
0.036394
0.000823134
0.0354815
0.00145694
0.0342829
0.00207609
0.0328035
0.00266195
0.0310582
0.00320953
0.0290666
0.00374139
0.0268175
0.00429791
0.0242926
0.0048767
0.0214488
0.00550561
0.0182686
0.00617693
0.0148335
0.00681013
0.0111713
0.00736906
0.00737841
0.00781331
0.00358967
0.00811851
5.9987e-06
0.00820736
-0.00328831
0.00819275
-0.00632534
0.00802046
-0.00906346
0.00768575
-0.0114501
0.007182
-0.0134435
0.00652241
-0.0150416
0.0057195
-0.0162185
0.00478781
-0.0169419
0.0037166
-0.0172514
0.00264524
-0.0173609
0.00160941
-0.0171762
0.000519241
-0.0165296
-0.000737241
-0.0153006
-0.00192671
-0.0135575
-0.0030644
-0.0114887
-0.00404465
-0.00916394
-0.0049247
-0.00656078
-0.00565881
-0.00373517
-0.00625657
-0.000791671
-0.00667247
0.00219693
-0.00693776
0.00519844
-0.00710266
0.00822689
-0.00715123
0.0112053
-0.00703069
0.0141139
-0.0068506
0.0168664
-0.0064437
0.0194717
-0.00608667
0.0218747
-0.00556744
0.0240695
-0.00505236
0.0260336
-0.00447483
0.0277705
-0.00392253
0.0292836
-0.00336834
0.0305812
-0.00284832
0.0316703
-0.00235445
0.0325637
-0.0019045
0.0332874
-0.00150364
0.0338626
-0.00115165
0.0343037
-0.000842428
0.0346283
-0.000575713
0.0348528
-0.000347341
0.0349927
-0.000153022
0.035062
9.55221e-06
0.0350744
0.000139338
0.0350456
0.00023498
0.0349843
0.000305927
0.0348982
0.000362644
0.0347935
0.00040561
0.0346754
0.000435999
0.034549
0.000455396
0.0344182
0.000465956
0.0342863
0.000469166
0.0341563
0.000466431
0.0340308
0.000458692
0.0339116
0.000446912
0.0338002
0.000432138
0.0336979
0.000414743
0.0336057
0.000395452
0.0335243
0.000374473
0.0334544
0.000352324
0.0333963
0.000329453
0.0333501
0.000305756
0.0333163
0.000282457
0.0332947
0.00025919
0.033285
0.000236283
0.0332861
0.000213733
0.0332989
0.000191481
0.0333228
0.000170056
0.0333573
0.000149746
0.033402
0.000130462
0.0334563
0.000112373
0.0335196
9.54131e-05
0.0335914
7.96233e-05
0.0336711
6.49718e-05
0.0337582
5.14323e-05
0.0338522
3.89979e-05
0.0339525
2.76191e-05
0.0340587
1.72904e-05
0.0341704
7.9713e-06
0.0342869
-3.77516e-07
0.0344081
-7.80999e-06
0.0345333
-1.43723e-05
0.0346623
-2.01048e-05
0.0347948
-2.50637e-05
0.0349303
-2.93035e-05
0.0350686
-3.28835e-05
0.0352094
-3.58599e-05
0.0353525
-3.82967e-05
0.0354976
-4.02398e-05
0.0356446
-4.17532e-05
0.0357932
-4.28845e-05
0.0359434
-4.36808e-05
0.0360949
-4.41959e-05
0.0362477
-4.44707e-05
0.0364016
-4.45472e-05
0.0365566
-4.44566e-05
0.0367127
-4.42398e-05
0.0368697
-4.3913e-05
0.0370275
-4.35204e-05
0.0371863
-4.30717e-05
0.0373458
-4.25883e-05
0.0375062
-4.20819e-05
0.0376673
-4.15626e-05
0.0378292
-4.1039e-05
0.0379919
-4.05158e-05
0.0381553
-3.99972e-05
0.0383193
-3.94811e-05
0.0384841
-3.89732e-05
0.0386495
-3.84699e-05
0.0388156
-3.79698e-05
0.0389823
-3.74721e-05
0.0391496
-3.69721e-05
0.0393174
-3.64719e-05
0.0394858
-3.5969e-05
0.0396547
-3.54594e-05
0.0398242
-3.49442e-05
0.0399941
-3.44198e-05
0.0401644
-3.38877e-05
0.0403351
-3.33474e-05
0.0405063
-3.27967e-05
0.0406778
-3.22402e-05
0.0408496
-3.16763e-05
0.0410217
-3.11028e-05
0.041194
-3.05216e-05
0.0413666
-2.99343e-05
0.0415394
-2.93434e-05
0.0417124
-2.8745e-05
0.0418856
-2.81369e-05
0.0420588
-2.75216e-05
0.0422322
-2.69033e-05