/*--------------------------------*- C++ -*----------------------------------*\
| =========                 |                                                 |
| \\      /  F ield         | OpenFOAM: The Open Source CFD Toolbox           |
|  \\    /   O peration     | Version:  v1812                                 |
|   \\  /    A nd           | Web:      www.OpenFOAM.com                      |
|    \\/     M anipulation  |                                                 |
\*---------------------------------------------------------------------------*/
FoamFile
{
    version     2.0;
    format      ascii;
    class       volScalarField;
    location    "0.7";
    object      T;
}
// * * * * * * * * * * * * * * * * * * * * * * * * * * * * * * * * * * * * * //

dimensions      [0 0 0 1 0 0 0];


internalField   nonuniform List<scalar> 
20400
(
295.746
295.713
295.661
295.608
295.562
295.526
295.501
295.485
295.478
295.476
295.48
295.488
295.501
295.517
295.537
295.558
295.582
295.607
295.632
295.658
295.683
295.708
295.734
295.76
295.788
295.818
295.851
295.888
295.927
295.971
296.021
296.073
296.124
296.168
296.202
296.228
296.25
296.278
296.324
296.405
296.539
296.741
297.005
297.305
297.608
297.879
298.108
298.266
298.366
298.431
298.474
298.494
298.503
298.509
298.513
298.519
298.528
298.541
298.559
298.579
298.605
298.634
298.668
298.705
298.744
298.783
298.82
298.856
298.889
298.918
298.943
298.965
298.982
298.993
298.998
298.997
298.988
298.971
298.95
298.931
298.911
298.882
298.845
298.804
298.759
298.71
298.657
298.6
298.539
298.472
298.401
298.323
298.24
298.15
298.055
297.955
297.853
297.755
297.665
297.588
297.523
297.471
297.429
297.395
297.363
297.326
297.278
297.215
297.139
297.047
296.952
296.856
296.764
296.681
296.603
296.533
296.467
296.41
296.363
296.32
296.289
296.263
296.248
296.241
296.237
296.24
296.248
296.264
296.283
296.306
296.331
296.359
296.387
296.414
296.441
296.467
296.494
296.52
296.545
296.572
296.599
296.628
296.658
296.692
296.729
296.77
296.817
296.868
296.923
296.98
297.037
297.09
297.137
297.175
297.201
297.214
297.215
297.207
297.185
297.151
297.111
297.066
297.018
296.967
296.917
296.869
296.824
296.785
296.752
296.727
296.711
296.704
296.702
296.704
296.71
296.719
296.731
296.746
296.761
296.778
296.794
296.81
296.826
296.84
296.854
296.866
296.876
296.886
296.896
296.905
296.916
296.925
296.935
296.942
296.949
296.954
296.957
296.961
296.964
296.968
296.972
296.975
296.981
296.988
296.997
297.007
297.018
297.032
297.047
297.065
297.082
297.103
297.126
297.153
297.181
297.214
297.248
297.283
297.318
297.352
297.384
297.415
297.442
297.468
297.49
297.509
297.525
297.539
297.55
297.558
297.565
297.569
297.572
297.572
297.57
297.568
297.564
297.56
297.555
297.549
297.542
297.534
297.526
297.517
297.507
297.498
297.487
297.476
297.465
297.453
297.442
297.429
297.417
297.404
297.391
297.378
297.364
297.351
297.337
297.323
297.309
297.294
297.28
297.265
297.25
297.235
297.22
297.205
297.189
297.174
297.158
297.142
297.126
297.11
297.094
297.077
297.061
297.044
297.027
297.011
296.993
296.976
296.959
296.942
296.924
296.907
296.889
296.871
296.853
296.835
296.817
296.798
296.78
296.762
296.743
296.724
296.706
296.687
296.668
296.649
296.63
296.611
296.591
296.572
296.553
296.533
296.514
296.494
296.475
296.455
296.435
296.415
296.396
296.376
296.356
296.336
296.316
296.296
296.276
296.256
296.236
296.216
296.196
296.176
296.155
296.135
296.115
296.095
296.075
296.055
296.035
296.015
295.995
295.975
295.955
295.935
295.915
295.895
295.875
295.855
295.835
295.816
295.796
295.776
295.757
295.737
295.718
295.698
295.679
295.66
295.641
295.621
295.602
295.583
295.565
295.546
295.527
295.508
295.49
295.471
295.453
295.435
295.417
295.399
295.381
295.363
295.345
295.328
295.31
295.293
295.275
295.258
295.241
295.224
295.207
295.191
295.174
295.158
295.141
295.125
295.109
295.093
295.077
295.061
295.046
295.03
295.015
295
294.985
294.97
294.955
294.94
294.926
294.911
294.897
294.883
294.869
294.855
294.841
294.827
294.814
294.8
294.787
294.774
294.761
294.748
294.735
294.722
294.71
294.697
294.685
294.673
294.661
294.649
294.637
294.625
294.614
294.602
294.591
294.579
294.568
294.557
294.546
294.535
294.524
294.514
294.503
294.492
294.482
294.472
294.461
294.451
294.441
294.431
294.421
294.412
294.402
294.392
294.382
294.373
294.363
294.354
294.345
294.335
294.326
294.317
294.308
294.299
294.29
294.281
294.272
294.264
294.255
294.246
294.238
294.229
294.22
294.212
294.203
294.195
294.187
294.178
294.17
294.162
294.154
294.145
294.137
294.129
294.121
294.112
294.104
294.096
294.088
294.08
294.071
294.063
294.055
294.046
294.038
294.029
294.019
294.01
293.999
293.987
293.972
293.955
293.934
293.909
293.878
293.842
293.801
293.754
293.704
293.651
293.598
293.545
293.493
293.448
293.418
293.4
295.666
295.624
295.562
295.503
295.455
295.423
295.403
295.394
295.394
295.398
295.406
295.417
295.431
295.447
295.465
295.484
295.503
295.523
295.542
295.561
295.58
295.599
295.618
295.637
295.659
295.684
295.712
295.745
295.785
295.831
295.883
295.94
296
296.058
296.11
296.154
296.191
296.229
296.283
296.374
296.532
296.785
297.12
297.506
297.858
298.121
298.298
298.372
298.39
298.392
298.358
298.302
298.235
298.169
298.106
298.052
298.01
297.984
297.972
297.982
298.01
298.056
298.115
298.188
298.274
298.369
298.466
298.567
298.667
298.765
298.858
298.944
299.022
299.092
299.154
299.206
299.251
299.287
299.319
299.346
299.36
299.358
299.339
299.302
299.246
299.174
299.09
298.994
298.889
298.776
298.661
298.546
298.433
298.324
298.22
298.124
298.034
297.951
297.87
297.79
297.711
297.632
297.555
297.486
297.425
297.37
297.315
297.248
297.162
297.056
296.941
296.826
296.715
296.605
296.499
296.396
296.301
296.211
296.128
296.051
295.978
295.913
295.859
295.815
295.782
295.756
295.741
295.735
295.738
295.75
295.772
295.802
295.836
295.875
295.917
295.961
296.005
296.048
296.091
296.132
296.173
296.211
296.249
296.285
296.323
296.362
296.404
296.45
296.499
296.553
296.612
296.675
296.74
296.806
296.87
296.93
296.984
297.028
297.06
297.077
297.081
297.078
297.065
297.035
296.992
296.94
296.883
296.822
296.761
296.704
296.657
296.625
296.609
296.606
296.607
296.614
296.628
296.648
296.672
296.699
296.726
296.754
296.782
296.809
296.836
296.861
296.885
296.91
296.935
296.963
296.989
297.015
297.04
297.064
297.087
297.109
297.13
297.15
297.166
297.181
297.193
297.204
297.214
297.219
297.219
297.211
297.196
297.176
297.152
297.124
297.098
297.071
297.047
297.027
297.011
297.001
296.997
296.997
297.006
297.025
297.053
297.086
297.124
297.162
297.2
297.237
297.271
297.302
297.33
297.355
297.377
297.396
297.412
297.424
297.433
297.44
297.446
297.45
297.452
297.453
297.452
297.45
297.447
297.442
297.437
297.431
297.424
297.416
297.408
297.399
297.39
297.38
297.369
297.358
297.347
297.335
297.323
297.31
297.297
297.284
297.271
297.257
297.243
297.229
297.214
297.199
297.184
297.169
297.154
297.138
297.123
297.107
297.091
297.075
297.058
297.042
297.025
297.008
296.991
296.974
296.957
296.94
296.922
296.905
296.887
296.869
296.851
296.833
296.815
296.797
296.778
296.76
296.741
296.722
296.703
296.685
296.666
296.646
296.627
296.608
296.589
296.569
296.55
296.53
296.51
296.49
296.471
296.451
296.431
296.411
296.391
296.371
296.35
296.33
296.31
296.29
296.269
296.249
296.229
296.208
296.188
296.167
296.147
296.126
296.106
296.085
296.065
296.044
296.024
296.003
295.983
295.962
295.942
295.922
295.901
295.881
295.86
295.84
295.82
295.8
295.779
295.759
295.739
295.719
295.699
295.679
295.659
295.639
295.62
295.6
295.58
295.561
295.541
295.522
295.503
295.483
295.464
295.445
295.426
295.407
295.389
295.37
295.351
295.333
295.314
295.296
295.278
295.26
295.242
295.224
295.206
295.189
295.171
295.154
295.137
295.119
295.102
295.085
295.069
295.052
295.035
295.019
295.003
294.987
294.971
294.955
294.939
294.923
294.908
294.892
294.877
294.862
294.847
294.832
294.817
294.802
294.788
294.774
294.759
294.745
294.731
294.717
294.704
294.69
294.676
294.663
294.65
294.637
294.624
294.611
294.598
294.585
294.573
294.56
294.548
294.536
294.524
294.512
294.5
294.488
294.477
294.465
294.454
294.442
294.431
294.42
294.409
294.398
294.387
294.377
294.366
294.355
294.345
294.334
294.324
294.314
294.304
294.294
294.284
294.274
294.264
294.254
294.245
294.235
294.225
294.216
294.207
294.197
294.188
294.179
294.169
294.16
294.151
294.142
294.133
294.124
294.116
294.107
294.098
294.089
294.081
294.072
294.063
294.055
294.046
294.038
294.03
294.021
294.013
294.004
293.996
293.987
293.979
293.971
293.962
293.954
293.946
293.937
293.928
293.92
293.911
293.902
293.892
293.882
293.87
293.857
293.842
293.824
293.802
293.776
293.745
293.71
293.669
293.626
293.579
293.532
293.482
293.432
293.39
293.369
295.528
295.476
295.405
295.342
295.299
295.274
295.264
295.265
295.271
295.282
295.297
295.314
295.332
295.351
295.369
295.387
295.405
295.422
295.439
295.457
295.474
295.491
295.509
295.527
295.547
295.568
295.592
295.619
295.652
295.691
295.738
295.794
295.856
295.923
295.99
296.053
296.113
296.178
296.267
296.414
296.66
297.033
297.488
297.907
298.167
298.274
298.294
298.286
298.189
298.046
297.861
297.659
297.458
297.265
297.083
296.923
296.787
296.687
296.626
296.606
296.617
296.665
296.737
296.831
296.944
297.075
297.219
297.375
297.542
297.716
297.897
298.084
298.273
298.462
298.65
298.833
299.007
299.17
299.317
299.446
299.559
299.657
299.737
299.801
299.851
299.879
299.877
299.844
299.764
299.641
299.488
299.307
299.102
298.884
298.664
298.455
298.264
298.099
297.964
297.857
297.772
297.701
297.636
297.57
297.503
297.433
297.361
297.281
297.181
297.056
296.913
296.765
296.618
296.475
296.334
296.201
296.076
295.962
295.857
295.762
295.681
295.61
295.542
295.474
295.405
295.335
295.266
295.2
295.14
295.09
295.054
295.035
295.032
295.041
295.066
295.105
295.153
295.207
295.266
295.33
295.397
295.465
295.533
295.599
295.664
295.728
295.79
295.85
295.909
295.969
296.031
296.096
296.166
296.24
296.32
296.405
296.493
296.582
296.67
296.755
296.834
296.902
296.953
296.977
296.979
296.967
296.931
296.87
296.79
296.699
296.611
296.539
296.496
296.481
296.481
296.488
296.506
296.536
296.575
296.618
296.664
296.71
296.758
296.805
296.85
296.895
296.942
296.995
297.053
297.117
297.185
297.259
297.337
297.419
297.504
297.593
297.68
297.766
297.848
297.927
298.001
298.066
298.12
298.159
298.181
298.186
298.169
298.132
298.073
297.993
297.891
297.77
297.631
297.481
297.328
297.182
297.053
296.944
296.858
296.793
296.748
296.72
296.707
296.708
296.727
296.762
296.807
296.856
296.904
296.953
297
297.043
297.083
297.118
297.149
297.176
297.199
297.22
297.239
297.254
297.267
297.277
297.286
297.292
297.296
297.299
297.3
297.299
297.298
297.295
297.292
297.287
297.281
297.275
297.268
297.26
297.251
297.242
297.232
297.221
297.21
297.199
297.187
297.174
297.161
297.148
297.134
297.12
297.105
297.091
297.076
297.06
297.045
297.029
297.013
296.996
296.98
296.963
296.946
296.929
296.912
296.895
296.877
296.86
296.842
296.824
296.806
296.788
296.77
296.751
296.733
296.714
296.695
296.676
296.657
296.638
296.619
296.6
296.581
296.561
296.542
296.522
296.502
296.483
296.463
296.443
296.423
296.403
296.383
296.362
296.342
296.322
296.301
296.281
296.261
296.24
296.22
296.199
296.178
296.158
296.137
296.116
296.096
296.075
296.054
296.034
296.013
295.992
295.971
295.951
295.93
295.909
295.889
295.868
295.847
295.827
295.806
295.786
295.765
295.745
295.724
295.704
295.684
295.663
295.643
295.623
295.603
295.583
295.563
295.543
295.523
295.503
295.484
295.464
295.444
295.425
295.406
295.386
295.367
295.348
295.329
295.31
295.292
295.273
295.254
295.236
295.217
295.199
295.181
295.163
295.145
295.127
295.109
295.092
295.074
295.057
295.04
295.023
295.006
294.989
294.972
294.955
294.939
294.923
294.906
294.89
294.874
294.858
294.842
294.827
294.811
294.796
294.781
294.766
294.751
294.736
294.721
294.706
294.692
294.677
294.663
294.649
294.635
294.621
294.607
294.594
294.58
294.567
294.554
294.54
294.527
294.515
294.502
294.489
294.476
294.464
294.452
294.439
294.427
294.415
294.403
294.392
294.38
294.368
294.357
294.345
294.334
294.323
294.312
294.301
294.29
294.279
294.268
294.258
294.247
294.237
294.226
294.216
294.206
294.195
294.185
294.175
294.165
294.155
294.146
294.136
294.126
294.117
294.107
294.097
294.088
294.079
294.069
294.06
294.051
294.042
294.033
294.024
294.015
294.006
293.997
293.988
293.979
293.97
293.961
293.953
293.944
293.935
293.927
293.918
293.91
293.901
293.892
293.884
293.875
293.867
293.858
293.85
293.841
293.832
293.823
293.814
293.805
293.795
293.784
293.772
293.759
293.744
293.726
293.706
293.681
293.653
293.621
293.586
293.549
293.51
293.468
293.423
293.389
293.383
295.378
295.323
295.257
295.206
295.177
295.166
295.166
295.171
295.181
295.194
295.211
295.229
295.249
295.27
295.291
295.312
295.332
295.354
295.376
295.399
295.421
295.443
295.465
295.484
295.504
295.523
295.543
295.564
295.589
295.619
295.655
295.701
295.756
295.821
295.893
295.971
296.054
296.156
296.306
296.561
296.962
297.467
297.917
298.154
298.214
298.22
298.115
297.918
297.633
297.303
296.951
296.605
296.288
296.008
295.793
295.633
295.534
295.488
295.478
295.515
295.575
295.654
295.752
295.864
295.987
296.119
296.259
296.406
296.557
296.715
296.879
297.05
297.23
297.419
297.619
297.829
298.049
298.276
298.51
298.748
298.989
299.231
299.465
299.685
299.879
300.041
300.174
300.275
300.343
300.373
300.362
300.293
300.148
299.935
299.664
299.345
298.996
298.643
298.316
298.041
297.836
297.698
297.609
297.549
297.499
297.447
297.386
297.305
297.193
297.046
296.872
296.689
296.513
296.345
296.192
296.061
295.951
295.861
295.784
295.712
295.647
295.584
295.514
295.439
295.356
295.263
295.164
295.058
294.947
294.833
294.714
294.603
294.508
294.436
294.389
294.368
294.366
294.377
294.406
294.451
294.508
294.574
294.648
294.728
294.813
294.902
294.992
295.083
295.173
295.263
295.35
295.435
295.52
295.608
295.698
295.792
295.892
295.999
296.112
296.232
296.358
296.487
296.615
296.731
296.824
296.873
296.878
296.861
296.807
296.713
296.597
296.484
296.403
296.368
296.365
296.374
296.402
296.449
296.51
296.575
296.643
296.708
296.772
296.836
296.905
296.98
297.067
297.167
297.284
297.418
297.568
297.733
297.907
298.087
298.269
298.451
298.621
298.769
298.894
299.003
299.092
299.159
299.201
299.23
299.25
299.267
299.28
299.29
299.291
299.278
299.244
299.181
299.08
298.932
298.73
298.478
298.192
297.882
297.569
297.273
297.014
296.801
296.638
296.52
296.438
296.386
296.361
296.356
296.368
296.402
296.453
296.51
296.567
296.623
296.678
296.73
296.778
296.824
296.866
296.904
296.939
296.97
296.998
297.022
297.044
297.062
297.078
297.091
297.103
297.112
297.119
297.125
297.129
297.132
297.133
297.133
297.132
297.13
297.127
297.123
297.117
297.111
297.103
297.095
297.086
297.077
297.066
297.055
297.043
297.031
297.018
297.004
296.99
296.976
296.961
296.945
296.93
296.914
296.897
296.881
296.864
296.847
296.83
296.812
296.795
296.777
296.759
296.741
296.722
296.704
296.685
296.667
296.648
296.629
296.61
296.591
296.572
296.552
296.533
296.513
296.494
296.474
296.454
296.434
296.414
296.394
296.374
296.354
296.334
296.313
296.293
296.272
296.252
296.231
296.211
296.19
296.169
296.149
296.128
296.107
296.086
296.065
296.045
296.024
296.003
295.982
295.961
295.94
295.919
295.898
295.877
295.856
295.835
295.815
295.794
295.773
295.752
295.731
295.711
295.69
295.67
295.649
295.628
295.608
295.588
295.567
295.547
295.527
295.507
295.487
295.467
295.447
295.427
295.407
295.387
295.368
295.348
295.329
295.31
295.29
295.271
295.252
295.233
295.215
295.196
295.177
295.159
295.141
295.122
295.104
295.086
295.068
295.05
295.033
295.015
294.998
294.98
294.963
294.946
294.929
294.912
294.896
294.879
294.862
294.846
294.83
294.814
294.798
294.782
294.766
294.751
294.735
294.72
294.705
294.69
294.675
294.66
294.645
294.63
294.616
294.602
294.587
294.573
294.559
294.546
294.532
294.518
294.505
294.491
294.478
294.465
294.452
294.439
294.426
294.413
294.401
294.388
294.376
294.364
294.352
294.34
294.328
294.316
294.304
294.292
294.281
294.269
294.258
294.247
294.236
294.225
294.214
294.203
294.192
294.181
294.171
294.16
294.15
294.139
294.129
294.119
294.109
294.098
294.088
294.078
294.069
294.059
294.049
294.039
294.03
294.02
294.011
294.001
293.992
293.982
293.973
293.964
293.955
293.945
293.936
293.927
293.918
293.909
293.9
293.891
293.883
293.874
293.865
293.856
293.847
293.839
293.83
293.821
293.813
293.804
293.795
293.787
293.778
293.769
293.76
293.752
293.743
293.733
293.724
293.714
293.703
293.691
293.678
293.663
293.647
293.628
293.607
293.582
293.556
293.528
293.498
293.465
293.429
293.408
293.411
295.252
295.206
295.157
295.127
295.116
295.117
295.123
295.131
295.142
295.155
295.17
295.187
295.207
295.229
295.253
295.279
295.306
295.334
295.362
295.39
295.417
295.444
295.471
295.496
295.52
295.54
295.557
295.573
295.59
295.61
295.637
295.672
295.718
295.776
295.848
295.933
296.039
296.185
296.425
296.829
297.379
297.878
298.114
298.155
298.129
297.964
297.655
297.25
296.794
296.34
295.928
295.592
295.343
295.178
295.088
295.05
295.044
295.095
295.157
295.236
295.331
295.442
295.567
295.701
295.841
295.984
296.127
296.268
296.407
296.543
296.678
296.818
296.962
297.113
297.273
297.443
297.624
297.814
298.014
298.223
298.437
298.662
298.899
299.144
299.395
299.649
299.901
300.144
300.365
300.546
300.679
300.753
300.765
300.729
300.606
300.379
300.046
299.62
299.132
298.634
298.188
297.848
297.631
297.517
297.462
297.425
297.381
297.312
297.199
297.032
296.829
296.62
296.425
296.257
296.123
296.029
295.954
295.894
295.855
295.829
295.808
295.78
295.739
295.68
295.596
295.486
295.351
295.195
295.025
294.849
294.679
294.514
294.355
294.201
294.063
293.954
293.872
293.82
293.797
293.796
293.806
293.833
293.876
293.932
294
294.077
294.163
294.258
294.358
294.465
294.576
294.689
294.802
294.914
295.026
295.14
295.255
295.375
295.5
295.634
295.778
295.935
296.104
296.284
296.464
296.622
296.728
296.767
296.757
296.707
296.605
296.471
296.353
296.289
296.277
296.287
296.325
296.393
296.48
296.57
296.656
296.737
296.82
296.91
297.012
297.134
297.279
297.452
297.657
297.89
298.148
298.417
298.684
298.929
299.131
299.291
299.413
299.489
299.52
299.526
299.506
299.468
299.428
299.4
299.387
299.395
299.426
299.476
299.543
299.62
299.697
299.766
299.818
299.849
299.864
299.834
299.721
299.516
299.219
298.846
298.422
297.977
297.545
297.152
296.814
296.54
296.329
296.176
296.07
296.004
295.972
295.967
295.975
296.005
296.053
296.111
296.171
296.232
296.293
296.355
296.414
296.47
296.523
296.573
296.618
296.66
296.699
296.734
296.765
296.794
296.82
296.843
296.864
296.882
296.899
296.913
296.926
296.937
296.946
296.953
296.959
296.963
296.966
296.967
296.967
296.965
296.962
296.958
296.953
296.946
296.938
296.929
296.919
296.908
296.897
296.884
296.871
296.857
296.842
296.827
296.811
296.795
296.779
296.762
296.745
296.728
296.71
296.692
296.674
296.656
296.637
296.619
296.6
296.581
296.562
296.543
296.524
296.505
296.485
296.466
296.446
296.426
296.406
296.386
296.366
296.346
296.326
296.306
296.285
296.265
296.244
296.224
296.203
296.182
296.162
296.141
296.12
296.099
296.078
296.057
296.036
296.015
295.994
295.973
295.952
295.931
295.909
295.888
295.867
295.846
295.825
295.804
295.783
295.762
295.741
295.719
295.698
295.678
295.657
295.636
295.615
295.594
295.573
295.553
295.532
295.511
295.491
295.471
295.45
295.43
295.41
295.39
295.37
295.35
295.33
295.31
295.29
295.271
295.251
295.232
295.213
295.193
295.174
295.155
295.137
295.118
295.099
295.081
295.062
295.044
295.026
295.008
294.99
294.972
294.955
294.937
294.92
294.902
294.885
294.868
294.851
294.834
294.818
294.801
294.785
294.768
294.752
294.736
294.72
294.704
294.689
294.673
294.658
294.643
294.627
294.612
294.598
294.583
294.568
294.554
294.539
294.525
294.511
294.497
294.483
294.469
294.455
294.442
294.428
294.415
294.401
294.388
294.375
294.362
294.35
294.337
294.324
294.312
294.3
294.287
294.275
294.263
294.251
294.239
294.228
294.216
294.204
294.193
294.181
294.17
294.159
294.148
294.137
294.126
294.115
294.104
294.094
294.083
294.073
294.062
294.052
294.042
294.031
294.021
294.011
294.001
293.991
293.981
293.971
293.962
293.952
293.942
293.933
293.923
293.914
293.904
293.895
293.886
293.876
293.867
293.858
293.849
293.84
293.831
293.821
293.812
293.803
293.795
293.786
293.777
293.768
293.759
293.75
293.742
293.733
293.724
293.715
293.707
293.698
293.689
293.68
293.671
293.662
293.653
293.643
293.633
293.623
293.612
293.6
293.587
293.573
293.557
293.54
293.521
293.501
293.48
293.454
293.428
293.418
293.424
295.164
295.132
295.103
295.094
295.097
295.105
295.115
295.125
295.136
295.148
295.162
295.179
295.199
295.224
295.253
295.286
295.319
295.351
295.384
295.418
295.457
295.5
295.542
295.58
295.611
295.633
295.645
295.651
295.654
295.659
295.67
295.691
295.728
295.78
295.85
295.941
296.066
296.273
296.639
297.199
297.777
298.067
298.116
298.069
297.857
297.475
296.976
296.438
295.937
295.522
295.223
295.039
294.943
294.908
294.901
294.942
294.995
295.077
295.192
295.348
295.543
295.77
296.015
296.263
296.503
296.722
296.916
297.083
297.227
297.348
297.452
297.54
297.618
297.69
297.762
297.837
297.922
298.019
298.133
298.267
298.422
298.595
298.785
298.989
299.206
299.433
299.667
299.902
300.134
300.363
300.589
300.796
300.957
301.042
301.047
300.999
300.846
300.553
300.106
299.53
298.893
298.299
297.846
297.575
297.45
297.398
297.362
297.306
297.198
297.023
296.8
296.572
296.372
296.217
296.111
296.039
295.995
295.982
295.988
295.998
296.007
296.009
295.996
295.963
295.902
295.806
295.673
295.505
295.306
295.085
294.849
294.61
294.38
294.169
293.977
293.802
293.651
293.532
293.443
293.382
293.35
293.343
293.348
293.365
293.396
293.441
293.497
293.566
293.645
293.735
293.836
293.947
294.066
294.192
294.323
294.456
294.591
294.73
294.872
295.019
295.174
295.342
295.526
295.732
295.958
296.194
296.413
296.573
296.643
296.639
296.59
296.482
296.346
296.247
296.216
296.226
296.271
296.359
296.473
296.589
296.696
296.8
296.909
297.034
297.183
297.365
297.588
297.854
298.159
298.492
298.83
299.143
299.393
299.553
299.625
299.608
299.523
299.419
299.279
299.091
298.875
298.66
298.478
298.338
298.247
298.205
298.217
298.284
298.405
298.582
298.81
299.082
299.381
299.678
299.933
300.128
300.254
300.308
300.313
300.246
300.043
299.704
299.267
298.765
298.235
297.716
297.237
296.815
296.457
296.166
295.937
295.766
295.645
295.57
295.534
295.523
295.527
295.547
295.589
295.647
295.711
295.777
295.845
295.914
295.983
296.049
296.113
296.174
296.231
296.286
296.337
296.384
296.429
296.471
296.509
296.545
296.579
296.61
296.639
296.665
296.689
296.711
296.731
296.749
296.764
296.777
296.789
296.798
296.805
296.81
296.813
296.814
296.813
296.81
296.806
296.8
296.792
296.783
296.773
296.762
296.75
296.736
296.722
296.707
296.692
296.676
296.659
296.642
296.625
296.607
296.589
296.571
296.552
296.534
296.515
296.496
296.477
296.458
296.438
296.419
296.399
296.379
296.36
296.34
296.32
296.3
296.279
296.259
296.239
296.218
296.198
296.177
296.156
296.135
296.115
296.094
296.073
296.052
296.031
296.009
295.988
295.967
295.946
295.925
295.903
295.882
295.861
295.839
295.818
295.797
295.775
295.754
295.733
295.711
295.69
295.669
295.648
295.626
295.605
295.584
295.563
295.542
295.521
295.5
295.479
295.458
295.438
295.417
295.396
295.376
295.355
295.335
295.315
295.294
295.274
295.254
295.234
295.215
295.195
295.175
295.156
295.136
295.117
295.098
295.079
295.06
295.041
295.022
295.004
294.986
294.967
294.949
294.931
294.913
294.895
294.878
294.86
294.843
294.825
294.808
294.791
294.774
294.757
294.741
294.724
294.708
294.692
294.676
294.66
294.644
294.628
294.612
294.597
294.582
294.566
294.551
294.536
294.522
294.507
294.492
294.478
294.463
294.449
294.435
294.421
294.407
294.393
294.38
294.366
294.353
294.339
294.326
294.313
294.3
294.287
294.275
294.262
294.249
294.237
294.225
294.212
294.2
294.188
294.176
294.164
294.153
294.141
294.129
294.118
294.107
294.095
294.084
294.073
294.062
294.051
294.04
294.029
294.019
294.008
293.997
293.987
293.976
293.966
293.956
293.946
293.935
293.925
293.915
293.905
293.896
293.886
293.876
293.866
293.857
293.847
293.837
293.828
293.819
293.809
293.8
293.79
293.781
293.772
293.763
293.753
293.744
293.735
293.726
293.717
293.708
293.699
293.69
293.681
293.672
293.663
293.655
293.646
293.637
293.628
293.619
293.61
293.601
293.593
293.584
293.574
293.565
293.555
293.545
293.535
293.524
293.513
293.501
293.488
293.475
293.461
293.445
293.426
293.408
293.408
293.416
295.111
295.091
295.08
295.086
295.099
295.115
295.128
295.139
295.149
295.16
295.174
295.193
295.218
295.249
295.283
295.314
295.343
295.374
295.413
295.463
295.522
295.584
295.645
295.698
295.74
295.765
295.774
295.77
295.761
295.75
295.745
295.748
295.765
295.806
295.874
295.974
296.138
296.436
296.944
297.583
297.989
298.08
298.047
297.822
297.401
296.844
296.257
295.729
295.327
295.074
294.948
294.905
294.897
294.927
294.967
295.042
295.148
295.31
295.545
295.855
296.227
296.637
297.052
297.443
297.795
298.101
298.357
298.564
298.729
298.857
298.954
299.027
299.08
299.119
299.15
299.175
299.198
299.222
299.249
299.283
299.325
299.377
299.439
299.513
299.601
299.703
299.823
299.963
300.126
300.309
300.508
300.715
300.921
301.103
301.223
301.26
301.237
301.129
300.866
300.406
299.758
299.01
298.308
297.794
297.513
297.398
297.345
297.291
297.192
297.021
296.793
296.556
296.355
296.212
296.119
296.069
296.054
296.063
296.088
296.118
296.149
296.173
296.183
296.177
296.146
296.077
295.962
295.8
295.595
295.356
295.092
294.813
294.532
294.258
294.003
293.777
293.58
293.41
293.274
293.168
293.091
293.041
293.015
293.01
293.014
293.027
293.052
293.088
293.135
293.193
293.263
293.345
293.441
293.549
293.67
293.801
293.942
294.089
294.244
294.405
294.572
294.749
294.941
295.153
295.392
295.662
295.949
296.221
296.424
296.518
296.517
296.469
296.361
296.244
296.185
296.188
296.231
296.334
296.476
296.624
296.761
296.895
297.038
297.208
297.416
297.673
297.982
298.339
298.725
299.107
299.436
299.662
299.748
299.7
299.592
299.408
299.128
298.77
298.374
297.994
297.664
297.402
297.201
297.052
296.948
296.885
296.86
296.876
296.935
297.042
297.203
297.425
297.716
298.086
298.531
299.039
299.567
300.054
300.414
300.622
300.698
300.697
300.606
300.356
299.957
299.458
298.9
298.323
297.761
297.237
296.764
296.35
295.999
295.71
295.48
295.302
295.17
295.083
295.036
295.02
295.021
295.035
295.072
295.128
295.195
295.267
295.342
295.419
295.497
295.574
295.65
295.724
295.795
295.864
295.93
295.993
296.053
296.11
296.164
296.216
296.265
296.312
296.356
296.397
296.436
296.471
296.505
296.535
296.562
296.587
296.608
296.627
296.642
296.655
296.665
296.672
296.676
296.677
296.676
296.673
296.669
296.662
296.653
296.643
296.631
296.618
296.604
296.589
296.574
296.558
296.541
296.523
296.506
296.488
296.469
296.451
296.432
296.413
296.394
296.375
296.355
296.336
296.316
296.296
296.276
296.256
296.236
296.216
296.196
296.175
296.155
296.134
296.113
296.093
296.072
296.051
296.03
296.009
295.988
295.967
295.945
295.924
295.903
295.882
295.86
295.839
295.817
295.796
295.774
295.753
295.731
295.71
295.688
295.667
295.645
295.624
295.602
295.581
295.56
295.538
295.517
295.496
295.474
295.453
295.432
295.411
295.39
295.369
295.348
295.327
295.307
295.286
295.265
295.245
295.225
295.204
295.184
295.164
295.144
295.124
295.104
295.085
295.065
295.046
295.027
295.007
294.988
294.969
294.951
294.932
294.914
294.895
294.877
294.859
294.841
294.823
294.805
294.788
294.77
294.753
294.736
294.719
294.702
294.685
294.669
294.652
294.636
294.62
294.604
294.588
294.572
294.556
294.541
294.525
294.51
294.495
294.48
294.465
294.45
294.436
294.421
294.407
294.393
294.378
294.364
294.35
294.337
294.323
294.309
294.296
294.283
294.269
294.256
294.243
294.23
294.218
294.205
294.192
294.18
294.167
294.155
294.143
294.131
294.119
294.107
294.095
294.083
294.072
294.06
294.049
294.037
294.026
294.015
294.004
293.993
293.982
293.971
293.96
293.949
293.938
293.928
293.917
293.907
293.896
293.886
293.876
293.866
293.856
293.846
293.836
293.826
293.816
293.806
293.796
293.786
293.777
293.767
293.758
293.748
293.739
293.729
293.72
293.71
293.701
293.692
293.683
293.673
293.664
293.655
293.646
293.637
293.628
293.619
293.61
293.601
293.592
293.583
293.574
293.565
293.556
293.547
293.538
293.529
293.52
293.511
293.502
293.493
293.484
293.474
293.465
293.455
293.445
293.434
293.423
293.412
293.4
293.387
293.376
293.379
293.389
295.08
295.071
295.076
295.094
295.119
295.139
295.153
295.163
295.173
295.185
295.203
295.227
295.253
295.28
295.303
295.324
295.352
295.392
295.447
295.513
295.582
295.654
295.728
295.798
295.857
295.894
295.906
295.899
295.883
295.862
295.842
295.832
295.837
295.864
295.928
296.047
296.27
296.679
297.301
297.852
298.04
298.046
297.856
297.434
296.853
296.228
295.671
295.266
295.032
294.933
294.907
294.914
294.938
294.987
295.049
295.146
295.324
295.618
296.047
296.592
297.202
297.812
298.374
298.865
299.275
299.605
299.868
300.071
300.226
300.34
300.42
300.474
300.507
300.524
300.529
300.527
300.521
300.513
300.506
300.501
300.499
300.501
300.508
300.519
300.536
300.558
300.585
300.619
300.66
300.713
300.78
300.868
300.982
301.125
301.279
301.396
301.436
301.417
301.315
301.046
300.544
299.815
298.969
298.207
297.694
297.445
297.343
297.276
297.183
297.025
296.805
296.569
296.364
296.219
296.132
296.098
296.097
296.111
296.143
296.185
296.233
296.279
296.311
296.322
296.315
296.276
296.188
296.046
295.85
295.608
295.331
295.03
294.717
294.405
294.104
293.827
293.582
293.375
293.201
293.064
292.958
292.881
292.827
292.796
292.785
292.785
292.79
292.802
292.822
292.852
292.89
292.939
293
293.073
293.162
293.265
293.383
293.516
293.663
293.822
293.993
294.175
294.371
294.584
294.823
295.097
295.407
295.741
296.056
296.29
296.397
296.398
296.35
296.254
296.176
296.164
296.198
296.303
296.471
296.661
296.842
297.016
297.204
297.427
297.701
298.033
298.42
298.842
299.259
299.609
299.825
299.869
299.768