/*--------------------------------*- C++ -*----------------------------------*\
| =========                 |                                                 |
| \\      /  F ield         | OpenFOAM: The Open Source CFD Toolbox           |
|  \\    /   O peration     | Version:  v1812                                 |
|   \\  /    A nd           | Web:      www.OpenFOAM.com                      |
|    \\/     M anipulation  |                                                 |
\*---------------------------------------------------------------------------*/
FoamFile
{
    version     2.0;
    format      ascii;
    class       volVectorField;
    location    "0.7";
    object      U;
}
// * * * * * * * * * * * * * * * * * * * * * * * * * * * * * * * * * * * * * //

dimensions      [0 1 -1 0 0 0 0];


internalField   nonuniform List<vector> 
20400
(
(-0.0259752 0.0171991 0)
(-0.0630606 -0.00184424 0)
(-0.00409941 -0.0409706 0)
(0.123035 -0.0611968 0)
(0.345118 -0.0689983 0)
(0.566286 -0.061262 0)
(0.775113 -0.0507509 0)
(0.912197 -0.0399881 0)
(0.992615 -0.0478102 0)
(0.994014 -0.0768237 0)
(0.924547 -0.076512 0)
(0.878393 -0.0875962 0)
(0.81244 -0.0936127 0)
(0.790434 -0.10586 0)
(0.816969 -0.120192 0)
(0.900876 -0.127068 0)
(1.05639 -0.131308 0)
(1.27978 -0.12563 0)
(1.57369 -0.119911 0)
(1.92793 -0.108919 0)
(2.32632 -0.0988348 0)
(2.75724 -0.0892677 0)
(3.17797 -0.073726 0)
(3.57907 -0.0527478 0)
(3.92066 -0.0197354 0)
(4.1649 0.00767811 0)
(4.31131 0.053019 0)
(4.32979 0.03524 0)
(4.21868 0.0629868 0)
(4.02899 0.0612314 0)
(3.75722 0.0512794 0)
(3.46199 0.030155 0)
(3.17825 -0.0020498 0)
(2.92832 -0.0295051 0)
(2.75021 -0.042509 0)
(2.65829 -0.0533089 0)
(2.69595 -0.0458303 0)
(2.87429 -0.0615671 0)
(3.12387 -0.0577783 0)
(3.48037 -0.067332 0)
(3.78916 -0.223354 0)
(4.00176 -0.465533 0)
(3.84972 -0.606822 0)
(3.51225 -0.287438 0)
(3.32809 0.12015 0)
(2.81435 0.424153 0)
(1.97179 0.614089 0)
(0.849506 0.6861 0)
(-0.465426 0.578065 0)
(-2.14544 0.472942 0)
(-4.06999 0.431212 0)
(-6.203 0.466512 0)
(-8.30835 0.436563 0)
(-10.3229 0.288543 0)
(-12.1354 0.0654743 0)
(-13.6423 -0.0768583 0)
(-14.9014 -0.151651 0)
(-15.7724 -0.147991 0)
(-16.302 -0.11478 0)
(-16.5797 -0.0383995 0)
(-16.5435 0.242493 0)
(-16.1442 0.369438 0)
(-15.6535 0.582095 0)
(-14.9089 0.882897 0)
(-14.01 1.04888 0)
(-13.0275 1.14432 0)
(-11.9902 1.20657 0)
(-10.9017 1.2269 0)
(-9.80606 1.21238 0)
(-8.70851 1.16566 0)
(-7.6354 1.09462 0)
(-6.59003 1.00011 0)
(-5.58747 0.883087 0)
(-4.62484 0.746248 0)
(-3.71581 0.580084 0)
(-2.84583 0.396772 0)
(-2.04746 0.178836 0)
(-1.31072 -0.0294184 0)
(-0.735082 -0.24461 0)
(-0.242581 -0.287689 0)
(0.322425 -0.23555 0)
(0.872078 -0.173648 0)
(1.40899 -0.126021 0)
(1.89488 -0.095731 0)
(2.34509 -0.0743179 0)
(2.75067 -0.0613015 0)
(3.11825 -0.0516559 0)
(3.44748 -0.0441291 0)
(3.74014 -0.0373948 0)
(3.99751 -0.0311334 0)
(4.22085 -0.024954 0)
(4.41197 -0.0187461 0)
(4.57158 -0.0122166 0)
(4.70129 -0.00555648 0)
(4.80042 0.000807695 0)
(4.8738 0.00619003 0)
(4.91602 0.00929691 0)
(4.93603 0.00863908 0)
(4.9283 0.00730726 0)
(4.8902 0.00708238 0)
(4.82744 0.00959431 0)
(4.73768 -0.0166982 0)
(4.66778 -0.045206 0)
(4.5838 -0.070546 0)
(4.58665 -0.0699697 0)
(4.69498 -0.0894412 0)
(4.83056 -0.113312 0)
(4.99405 -0.143058 0)
(5.07384 -0.202657 0)
(4.97215 -0.264626 0)
(4.58556 -0.296477 0)
(3.9324 -0.125966 0)
(3.04157 0.167935 0)
(2.14465 0.498445 0)
(1.25569 0.49793 0)
(0.260727 0.386889 0)
(-0.772678 0.221319 0)
(-1.80486 0.17476 0)
(-2.64846 0.179142 0)
(-3.29918 0.227508 0)
(-3.63401 0.26742 0)
(-3.80005 0.304745 0)
(-3.61409 0.251043 0)
(-3.26918 0.0863675 0)
(-2.87097 -0.237791 0)
(-2.47432 -0.349902 0)
(-1.8524 -0.409412 0)
(-1.19611 -0.418878 0)
(-0.486332 -0.406195 0)
(0.240142 -0.318323 0)
(1.01007 -0.243442 0)
(1.75488 -0.189662 0)
(2.45007 -0.153732 0)
(3.08105 -0.123962 0)
(3.64987 -0.0999892 0)
(4.14291 -0.0794422 0)
(4.57981 -0.0623578 0)
(4.93433 -0.0480597 0)
(5.2454 -0.0349727 0)
(5.48784 -0.0238407 0)
(5.67913 -0.0146948 0)
(5.81831 -0.00706027 0)
(5.91231 -0.00139983 0)
(5.96968 0.00420668 0)
(5.99347 0.00744112 0)
(5.97993 0.0112108 0)
(5.92648 0.0195274 0)
(5.84123 0.0246191 0)
(5.73483 0.0255798 0)
(5.60491 0.0227436 0)
(5.45674 0.017589 0)
(5.29139 0.0139546 0)
(5.115 0.0112238 0)
(4.93262 0.00930882 0)
(4.74759 0.00785761 0)
(4.56451 0.00705379 0)
(4.38713 0.00646284 0)
(4.22339 0.00687995 0)
(4.07611 0.00693985 0)
(3.95185 0.00862872 0)
(3.85018 0.00811293 0)
(3.77438 0.00604336 0)
(3.7248 -9.33621e-05 0)
(3.70053 -0.00209495 0)
(3.7111 -0.00639556 0)
(3.75165 -0.0100634 0)
(3.81903 -0.0215791 0)
(3.91261 -0.0234155 0)
(4.02627 -0.0262212 0)
(4.16133 -0.0263615 0)
(4.30597 -0.0287413 0)
(4.44065 -0.0352771 0)
(4.55906 -0.0449898 0)
(4.65405 -0.0583138 0)
(4.71755 -0.0724301 0)
(4.75366 -0.0740416 0)
(4.76061 -0.066899 0)
(4.74546 -0.0524792 0)
(4.71792 -0.0269352 0)
(4.67427 0.000646045 0)
(4.62255 0.0210875 0)
(4.56197 0.0232815 0)
(4.48931 -0.00265975 0)
(4.39549 -0.0531111 0)
(4.26648 -0.125043 0)
(4.08954 -0.213767 0)
(3.83107 -0.296626 0)
(3.48207 -0.295789 0)
(3.07711 -0.202831 0)
(2.574 -0.0189683 0)
(2.14635 0.236719 0)
(1.73383 0.318135 0)
(1.19842 0.349629 0)
(0.648548 0.339449 0)
(0.08468 0.29292 0)
(-0.501556 0.229493 0)
(-1.11273 0.189853 0)
(-1.6771 0.16628 0)
(-2.2174 0.14887 0)
(-2.65339 0.127213 0)
(-3.04839 0.112229 0)
(-3.33296 0.109326 0)
(-3.49265 0.138389 0)
(-3.56722 0.188107 0)
(-3.49662 0.249988 0)
(-3.32564 0.296039 0)
(-3.01517 0.287654 0)
(-2.66407 0.195647 0)
(-2.21831 0.0769774 0)
(-1.77334 -0.111841 0)
(-1.35718 -0.252531 0)
(-0.926106 -0.297547 0)
(-0.429312 -0.296064 0)
(0.0479024 -0.255533 0)
(0.580287 -0.19305 0)
(1.07633 -0.14516 0)
(1.56228 -0.108603 0)
(1.99472 -0.082933 0)
(2.39665 -0.0681797 0)
(2.74259 -0.0540359 0)
(3.05222 -0.044479 0)
(3.31443 -0.034673 0)
(3.54062 -0.027316 0)
(3.72812 -0.0205156 0)
(3.88375 -0.0149602 0)
(4.00962 -0.00969716 0)
(4.11066 -0.00570597 0)
(4.18974 -0.00324676 0)
(4.25008 -0.00146955 0)
(4.29485 0.000297312 0)
(4.32691 0.00189068 0)
(4.348 0.00334308 0)
(4.36116 0.00431355 0)
(4.36765 0.00546032 0)
(4.36944 0.00568067 0)
(4.36813 0.00609917 0)
(4.36423 0.00642684 0)
(4.35928 0.0066518 0)
(4.35342 0.00679672 0)
(4.34736 0.00687322 0)
(4.34162 0.00689897 0)
(4.33647 0.00688357 0)
(4.33217 0.00684767 0)
(4.32925 0.00678897 0)
(4.32715 0.00667102 0)
(4.32662 0.0066245 0)
(4.32798 0.0065256 0)
(4.33051 0.00642823 0)
(4.33485 0.00635412 0)
(4.34081 0.00622898 0)
(4.3484 0.00627526 0)
(4.35788 0.00608786 0)
(4.36909 0.00597248 0)
(4.38187 0.00588938 0)
(4.39638 0.00589349 0)
(4.41256 0.00586153 0)
(4.43033 0.0058489 0)
(4.44964 0.00582809 0)
(4.4704 0.00580331 0)
(4.49257 0.00578396 0)
(4.51607 0.00577254 0)
(4.54084 0.00577202 0)
(4.56681 0.00578331 0)
(4.59392 0.00580756 0)
(4.62209 0.00584424 0)
(4.65127 0.00589384 0)
(4.6814 0.00595531 0)
(4.7124 0.00602635 0)
(4.74421 0.00610588 0)
(4.77678 0.00619258 0)
(4.81004 0.0062865 0)
(4.84394 0.00638423 0)
(4.87841 0.00648558 0)
(4.91342 0.00658728 0)
(4.94891 0.00669122 0)
(4.98485 0.00679526 0)
(5.02118 0.00690152 0)
(5.05786 0.00700786 0)
(5.09488 0.00711514 0)
(5.13219 0.00722171 0)
(5.16976 0.00732875 0)
(5.20757 0.00743227 0)
(5.24559 0.00753635 0)
(5.28382 0.00763608 0)
(5.32221 0.00773663 0)
(5.36077 0.00783485 0)
(5.39948 0.00793531 0)
(5.43833 0.00803685 0)
(5.4773 0.00814126 0)
(5.51639 0.00824856 0)
(5.55558 0.00835935 0)
(5.59489 0.0084726 0)
(5.63428 0.00858902 0)
(5.67377 0.00870656 0)
(5.71334 0.00882518 0)
(5.75299 0.00894298 0)
(5.79271 0.00905961 0)
(5.83249 0.00917408 0)
(5.87234 0.00928592 0)
(5.91223 0.00939406 0)
(5.95217 0.00949876 0)
(5.99215 0.00959969 0)
(6.03216 0.00969713 0)
(6.07219 0.00979093 0)
(6.11223 0.00988147 0)
(6.15228 0.00996847 0)
(6.19233 0.0100526 0)
(6.23237 0.0101337 0)
(6.2724 0.0102123 0)
(6.31239 0.0102882 0)
(6.35236 0.0103612 0)
(6.39227 0.0104323 0)
(6.43214 0.0105002 0)
(6.47195 0.0105663 0)
(6.51169 0.0106298 0)
(6.55135 0.0106915 0)
(6.59093 0.0107511 0)
(6.63041 0.0108089 0)
(6.66979 0.0108658 0)
(6.70906 0.0109212 0)
(6.74821 0.0109765 0)
(6.78723 0.0110312 0)
(6.82611 0.0110867 0)
(6.86485 0.0111424 0)
(6.90344 0.0111988 0)
(6.94187 0.0112554 0)
(6.98013 0.0113126 0)
(7.01821 0.01137 0)
(7.0561 0.0114276 0)
(7.0938 0.0114852 0)
(7.1313 0.0115422 0)
(7.16859 0.0115992 0)
(7.20566 0.0116551 0)
(7.24251 0.0117106 0)
(7.27913 0.0117647 0)
(7.3155 0.0118183 0)
(7.35163 0.0118704 0)
(7.3875 0.0119216 0)
(7.42311 0.0119713 0)
(7.45845 0.0120198 0)
(7.49351 0.0120669 0)
(7.52829 0.0121128 0)
(7.56278 0.012157 0)
(7.59697 0.0122002 0)
(7.63085 0.0122417 0)
(7.66443 0.0122817 0)
(7.69769 0.0123203 0)
(7.73062 0.0123573 0)
(7.76323 0.0123925 0)
(7.7955 0.0124263 0)
(7.82744 0.0124586 0)
(7.85902 0.0124892 0)
(7.89026 0.0125184 0)
(7.92113 0.0125458 0)
(7.95165 0.0125717 0)
(7.9818 0.0125959 0)
(8.01158 0.0126182 0)
(8.04098 0.012639 0)
(8.07 0.0126578 0)
(8.09864 0.0126746 0)
(8.12689 0.0126898 0)
(8.15475 0.0127029 0)
(8.18221 0.0127142 0)
(8.20928 0.0127237 0)
(8.23594 0.0127316 0)
(8.2622 0.0127375 0)
(8.28805 0.0127414 0)
(8.3135 0.0127436 0)
(8.33853 0.0127438 0)
(8.36315 0.0127422 0)
(8.38735 0.0127386 0)
(8.41114 0.0127334 0)
(8.4345 0.0127265 0)
(8.45745 0.0127173 0)
(8.47998 0.0127065 0)
(8.50209 0.0126936 0)
(8.52378 0.012679 0)
(8.54504 0.0126626 0)
(8.56588 0.0126442 0)
(8.5863 0.0126239 0)
(8.6063 0.0126017 0)
(8.62587 0.0125776 0)
(8.64503 0.0125517 0)
(8.66377 0.012524 0)
(8.68208 0.0124942 0)
(8.69998 0.0124626 0)
(8.71747 0.012429 0)
(8.73454 0.0123939 0)
(8.7512 0.0123569 0)
(8.76744 0.0123183 0)
(8.78328 0.0122778 0)
(8.79871 0.0122352 0)
(8.81374 0.0121908 0)
(8.82837 0.0121448 0)
(8.8426 0.0120972 0)
(8.85644 0.0120477 0)
(8.86989 0.0119967 0)
(8.88294 0.0119439 0)
(8.89562 0.0118893 0)
(8.90791 0.0118329 0)
(8.91982 0.0117748 0)
(8.93136 0.0117155 0)
(8.94254 0.0116546 0)
(8.95335 0.0115923 0)
(8.96379 0.0115287 0)
(8.97388 0.0114632 0)
(8.98363 0.0113964 0)
(8.99302 0.011328 0)
(9.00207 0.011258 0)
(9.01079 0.0111865 0)
(9.01917 0.0111135 0)
(9.02723 0.011039 0)
(9.03496 0.0109632 0)
(9.04238 0.0108857 0)
(9.04948 0.0108068 0)
(9.05628 0.0107262 0)
(9.06278 0.0106443 0)
(9.06898 0.0105609 0)
(9.0749 0.0104762 0)
(9.08053 0.0103902 0)
(9.08588 0.0103031 0)
(9.09095 0.0102142 0)
(9.09576 0.0101254 0)
(9.10031 0.0100332 0)
(9.1046 0.00994144 0)
(9.10864 0.00984937 0)
(9.11243 0.009754 0)
(9.11599 0.00965665 0)
(9.11931 0.0095582 0)
(9.1224 0.00946187 0)
(9.12527 0.00936211 0)
(9.12792 0.00926333 0)
(9.13036 0.00916448 0)
(9.1326 0.00906135 0)
(9.13464 0.00895734 0)
(9.13649 0.00885181 0)
(9.13814 0.00874859 0)
(9.13961 0.00864499 0)
(9.14091 0.00853878 0)
(9.14203 0.00843088 0)
(9.14299 0.00832265 0)
(9.14379 0.00821488 0)
(9.14443 0.00810545 0)
(9.14492 0.00799646 0)
(9.14527 0.00788438 0)
(9.14549 0.00776865 0)
(9.14555 0.0076563 0)
(9.14551 0.00754006 0)
(9.14529 0.00741339 0)
(9.145 0.00730347 0)
(9.14459 0.00717322 0)
(9.14404 0.00706847 0)
(9.14342 0.00693466 0)
(9.14269 0.00681647 0)
(9.14185 0.00669328 0)
(9.14091 0.00656437 0)
(9.13991 0.00643966 0)
(9.13881 0.0063103 0)
(9.13761 0.00618163 0)
(9.13636 0.00604644 0)
(9.13502 0.00591095 0)
(9.1336 0.00578393 0)
(9.13213 0.00564434 0)
(9.13059 0.00550952 0)
(9.12899 0.00537108 0)
(9.12734 0.00522938 0)
(9.12564 0.00508404 0)
(9.12389 0.00493945 0)
(9.12209 0.00479385 0)
(9.12026 0.00464178 0)
(9.11838 0.0044871 0)
(9.11646 0.00432877 0)
(9.1145 0.0041675 0)
(9.1125 0.00399305 0)
(9.11046 0.00381243 0)
(9.10837 0.00362386 0)
(9.10622 0.00344035 0)
(9.10401 0.00326094 0)
(9.10173 0.00309568 0)
(9.09941 0.00294116 0)
(9.09703 0.00280542 0)
(9.09462 0.00266211 0)
(9.09216 0.00251471 0)
(9.08968 0.00235193 0)
(9.08711 0.00218332 0)
(9.08451 0.00204578 0)
(9.08177 0.00190126 0)
(9.07903 0.0017549 0)
(9.07602 0.00172738 0)
(9.07285 0.00147578 0)
(9.06914 0.00156495 0)
(9.06471 0.00150598 0)
(9.05954 0.00171074 0)
(9.05276 0.002013 0)
(9.04566 0.00175293 0)
(9.0363 0.00218917 0)
(9.03064 0.00110353 0)
(9.01984 0.000459873 0)
(9.02438 -0.00187099 0)
(9.01665 -0.00778097 0)
(-0.0162077 0.0653186 0)
(0.00169092 -0.0373697 0)
(0.211526 -0.229699 0)
(0.568876 -0.364298 0)
(1.02911 -0.409094 0)
(1.4755 -0.361193 0)
(1.88211 -0.266198 0)
(2.2002 -0.160302 0)
(2.42962 -0.00568159 0)
(2.59283 0.0897284 0)
(2.66383 0.158391 0)
(2.69064 0.164996 0)
(2.68789 0.142604 0)
(2.70291 0.0853344 0)
(2.78658 0.00581798 0)
(2.94818 -0.101561 0)
(3.20617 -0.221812 0)
(3.55889 -0.333 0)
(4.01077 -0.436869 0)
(4.55576 -0.520977 0)
(5.17421 -0.580511 0)
(5.86524 -0.598138 0)
(6.57033 -0.58267 0)
(7.27875 -0.533705 0)
(7.93098 -0.434019 0)
(8.50054 -0.310426 0)
(8.92867 -0.120119 0)
(9.22702 0.00988239 0)
(9.28464 0.199415 0)
(9.13898 0.330706 0)
(8.83316 0.43389 0)
(8.39172 0.464532 0)
(7.85282 0.453765 0)
(7.28605 0.395742 0)
(6.76276 0.262359 0)
(6.36075 0.058296 0)
(6.09647 -0.125191 0)
(6.02056 -0.317601 0)
(6.0184 -0.4187 0)
(5.88461 -0.461858 0)
(5.54067 -0.315615 0)
(5.14848 0.0451317 0)
(4.71924 0.43409 0)
(3.85143 0.974544 0)
(2.19649 1.48404 0)
(-0.0646286 2.07205 0)
(-2.84345 2.53113 0)
(-6.10029 3.03695 0)
(-9.72711 3.34857 0)
(-13.3229 3.5984 0)
(-16.6391 3.57397 0)
(-19.5665 3.31595 0)
(-21.9217 2.90137 0)
(-23.7003 2.54153 0)
(-24.8771 2.1651 0)
(-25.6328 1.78858 0)
(-25.9447 1.34316 0)
(-25.8332 0.880358 0)
(-25.3381 0.520973 0)
(-24.6088 0.189849 0)
(-23.7174 -0.186446 0)
(-22.7128 -0.512873 0)
(-21.6051 -0.759473 0)
(-20.3886 -1.07781 0)
(-19.0647 -1.3032 0)
(-17.6611 -1.42209 0)
(-16.2299 -1.54831 0)
(-14.7708 -1.62216 0)
(-13.3071 -1.66688 0)
(-11.8463 -1.68439 0)
(-10.4097 -1.67975 0)
(-9.00648 -1.66083 0)
(-7.649 -1.63025 0)
(-6.34396 -1.5902 0)
(-5.0946 -1.54894 0)
(-3.9031 -1.49776 0)
(-2.75108 -1.45641 0)
(-1.62906 -1.39357 0)
(-0.454771 -1.32315 0)
(0.714928 -1.26292 0)
(1.73469 -1.1157 0)
(2.64695 -0.971463 0)
(3.51739 -0.853667 0)
(4.33551 -0.756731 0)
(5.11944 -0.668297 0)
(5.85846 -0.591876 0)
(6.5577 -0.522802 0)
(7.21432 -0.460818 0)
(7.82933 -0.403437 0)
(8.40252 -0.350784 0)
(8.93399 -0.301871 0)
(9.42428 -0.256632 0)
(9.87345 -0.212922 0)
(10.282 -0.171682 0)
(10.649 -0.131767 0)
(10.9765 -0.093856 0)
(11.2584 -0.0511587 0)
(11.4964 -0.0112414 0)
(11.6596 0.0250541 0)
(11.7431 0.0773655 0)
(11.7343 0.122315 0)
(11.6292 0.149911 0)
(11.4298 0.173104 0)
(11.1391 0.1034 0)
(10.7914 -0.0186494 0)
(10.4159 -0.166873 0)
(9.98641 -0.209317 0)
(9.48093 -0.123411 0)
(8.77604 0.0477035 0)
(7.83072 0.411803 0)
(6.65698 0.906056 0)
(5.22458 1.34485 0)
(3.6447 1.6658 0)
(1.84268 1.92917 0)
(-0.0218847 1.93625 0)
(-1.58478 1.82361 0)
(-2.83628 1.53724 0)
(-3.69288 1.19466 0)
(-4.19726 0.845799 0)
(-4.49645 0.543564 0)
(-4.57478 0.255674 0)
(-4.45034 -0.00763821 0)
(-4.10361 -0.382115 0)
(-3.6144 -0.676692 0)
(-2.75676 -0.993178 0)
(-1.67215 -1.21287 0)
(-0.521815 -1.42513 0)
(0.692658 -1.46318 0)
(1.95465 -1.46361 0)
(3.21556 -1.39329 0)
(4.4158 -1.29012 0)
(5.57578 -1.15499 0)
(6.69386 -1.0269 0)
(7.75518 -0.906215 0)
(8.75386 -0.795101 0)
(9.66776 -0.685943 0)
(10.5125 -0.585276 0)
(11.2555 -0.494483 0)
(11.9322 -0.407894 0)
(12.5182 -0.32482 0)
(13.0247 -0.248212 0)
(13.4491 -0.176149 0)
(13.7964 -0.119314 0)
(14.0688 -0.0618121 0)
(14.2654 -0.0134282 0)
(14.3759 0.0446406 0)
(14.4057 0.106704 0)
(14.367 0.147266 0)
(14.2648 0.182596 0)
(14.0906 0.223549 0)
(13.8458 0.262044 0)
(13.5377 0.293829 0)
(13.1718 0.314714 0)
(12.7556 0.327199 0)
(12.2997 0.333069 0)
(11.8175 0.330417 0)
(11.3248 0.31543 0)
(10.8394 0.288472 0)
(10.3782 0.25084 0)
(9.95533 0.208197 0)
(9.58081 0.159833 0)
(9.25991 0.117935 0)
(9.00806 0.0684656 0)
(8.82117 0.0218163 0)
(8.71049 -0.0306147 0)
(8.65284 -0.075337 0)
(8.65816 -0.111921 0)
(8.72842 -0.143839 0)
(8.84748 -0.172022 0)
(9.01225 -0.200443 0)
(9.20343 -0.193041 0)
(9.39251 -0.168052 0)
(9.559 -0.129499 0)
(9.68515 -0.0823205 0)
(9.76309 -0.0253375 0)
(9.80235 0.0299283 0)
(9.78337 0.0553786 0)
(9.68588 0.0764738 0)
(9.50913 0.0884524 0)
(9.2429 0.0881162 0)
(8.8931 0.0836858 0)
(8.46119 0.0882424 0)
(7.94886 0.114678 0)
(7.36457 0.16302 0)
(6.71598 0.235675 0)
(6.01868 0.344836 0)
(5.28214 0.503308 0)
(4.51955 0.652141 0)
(3.71703 0.793773 0)
(2.90876 0.912482 0)
(1.94965 1.04259 0)
(0.857446 1.10771 0)
(-0.161124 1.1446 0)
(-1.1704 1.11593 0)
(-2.1338 1.06095 0)
(-3.0052 0.97386 0)
(-3.75503 0.866932 0)
(-4.37184 0.751687 0)
(-4.88621 0.626713 0)
(-5.2193 0.509119 0)
(-5.45819 0.398746 0)
(-5.47923 0.261001 0)
(-5.33011 0.134806 0)
(-5.09431 0.00949168 0)
(-4.77067 -0.152324 0)
(-4.37464 -0.316964 0)
(-3.86359 -0.486569 0)
(-3.26888 -0.624907 0)
(-2.58996 -0.747079 0)
(-1.84596 -0.863537 0)
(-0.945282 -0.947384 0)
(-0.0391009 -0.994668 0)
(0.878474 -0.971191 0)
(1.75163 -0.919372 0)
(2.59186 -0.852857 0)
(3.36899 -0.771157 0)
(4.10128 -0.7068 0)
(4.79083 -0.620183 0)
(5.42148 -0.546906 0)
(5.98888 -0.468412 0)
(6.49484 -0.402185 0)
(6.93444 -0.337171 0)
(7.31357 -0.279923 0)
(7.63342 -0.2264 0)
(7.90075 -0.179718 0)
(8.11908 -0.139325 0)
(8.29354 -0.104501 0)
(8.43005 -0.0733229 0)
(8.53456 -0.0469833 0)
(8.61102 -0.0253148 0)
(8.66419 -0.00744622 0)
(8.69623 0.00750838 0)
(8.71343 0.0181875 0)
(8.71665 0.0280159 0)
(8.7099 0.0333406 0)
(8.6977 0.0382485 0)
(8.67994 0.041562 0)
(8.65865 0.0437427 0)
(8.63498 0.0449383 0)
(8.61006 0.0454245 0)
(8.58495 0.0453277 0)
(8.56034 0.0447546 0)
(8.53684 0.0438379 0)
(8.51499 0.042634 0)
(8.49505 0.0409794 0)
(8.47746 0.0396054 0)
(8.46247 0.0378164 0)
(8.45034 0.0359557 0)
(8.441 0.0341049 0)
(8.43501 0.0320382 0)
(8.43164 0.0301894 0)
(8.43184 0.0279112 0)
(8.43532 0.0261211 0)
(8.44167 0.0242195 0)
(8.45127 0.0221459 0)
(8.46383 0.0203077 0)
(8.47943 0.0184855 0)
(8.49788 0.0168273 0)
(8.51906 0.0152465 0)
(8.54286 0.0137659 0)
(8.56914 0.0123816 0)
(8.59777 0.0110931 0)
(8.62861 0.00989905 0)
(8.66154 0.00879284 0)
(8.69642 0.00777909 0)
(8.73313 0.00685104 0)
(8.77154 0.00601158 0)
(8.81154 0.00525934 0)
(8.853 0.00459462 0)
(8.89582 0.00401518 0)
(8.93988 0.00351643 0)
(8.98509 0.00309553 0)
(9.03134 0.00274805 0)
(9.07854 0.00247073 0)
(9.12662 0.00225653 0)
(9.17548 0.00210166 0)
(9.22506 0.00199852 0)
(9.27529 0.00194433 0)
(9.32612 0.00193232 0)
(9.37748 0.00195915 0)
(9.42934 0.00201857 0)
(9.48164 0.0021092 0)
(9.53436 0.00222314 0)
(9.58745 0.00236141 0)
(9.64091 0.00251632 0)
(9.6947 0.00268571 0)
(9.7488 0.0028652 0)
(9.8032 0.00305024 0)
(9.85788 0.0032394 0)
(9.91284 0.00343025 0)
(9.96805 0.00362106 0)
(10.0235 0.00381136 0)
(10.0792 0.00399991 0)
(10.1352 0.00418704 0)
(10.1914 0.00437265 0)
(10.2478 0.00455785 0)
(10.3044 0.00474179 0)
(10.3612 0.00492581 0)
(10.4182 0.00511041 0)
(10.4755 0.00529623 0)
(10.5329 0.00548361 0)
(10.5905 0.00567215 0)
(10.6483 0.00586226 0)
(10.7062 0.00605429 0)
(10.7643 0.00624776 0)
(10.8226 0.00644341 0)
(10.881 0.00664051 0)
(10.9395 0.0068391 0)
(10.9981 0.00703912 0)
(11.0569 0.00723975 0)
(11.1157 0.00744173 0)
(11.1746 0.00764474 0)
(11.2337 0.00784878 0)
(11.2928 0.00805324 0)
(11.3519 0.00825822 0)
(11.4111 0.00846416 0)
(11.4703 0.00867089 0)
(11.5296 0.00887771 0)
(11.5889 0.00908337 0)
(11.6482 0.00928884 0)
(11.7075 0.00949337 0)
(11.7668 0.00969652 0)
(11.8261 0.00989844 0)
(11.8853 0.0100993 0)
(11.9445 0.0102978 0)
(12.0036 0.0104947 0)
(12.0627 0.0106894 0)
(12.1217 0.0108817 0)
(12.1806 0.0110725 0)
(12.2395 0.0112615 0)
(12.2982 0.011448 0)
(12.3568 0.0116328 0)
(12.4153 0.0118156 0)
(12.4737 0.0119961 0)
(12.5319 0.0121751 0)
(12.5899 0.0123522 0)
(12.6478 0.0125281 0)
(12.7055 0.0127011 0)
(12.763 0.0128714 0)
(12.8204 0.0130395 0)
(12.8775 0.0132055 0)
(12.9344 0.0133699 0)
(12.9911 0.0135315 0)
(13.0476 0.0136911 0)
(13.1038 0.0138488 0)
(13.1598 0.0140034 0)
(13.2155 0.0141557 0)
(13.2709 0.0143051 0)
(13.3261 0.0144518 0)
(13.381 0.0145966 0)
(13.4355 0.0147391 0)
(13.4898 0.014878 0)
(13.5438 0.0150138 0)
(13.5974 0.0151466 0)
(13.6507 0.0152766 0)
(13.7037 0.0154043 0)
(13.7563 0.0155293 0)
(13.8086 0.0156508 0)
(13.8605 0.015769 0)
(13.912 0.0158839 0)
(13.9632 0.0159962 0)
(14.0139 0.0161053 0)
(14.0643 0.0162113 0)
(14.1143 0.0163144 0)
(14.1639 0.0164144 0)
(14.2131 0.0165104 0)
(14.2619 0.0166024 0)
(14.3102 0.0166916 0)
(14.3581 0.0167779 0)
(14.4056 0.016861 0)
(14.4527 0.01694 0)
(14.4993 0.017015 0)
(14.5454 0.0170871 0)
(14.5911 0.0171555 0)
(14.6364 0.01722 0)
(14.6812 0.017281 0)
(14.7255 0.017339 0)
(14.7694 0.017394 0)
(14.8128 0.0174447 0)
(14.8557 0.0174914 0)
(14.8982 0.0175341 0)
(14.9401 0.0175731 0)
(14.9816 0.0176087 0)
(15.0226 0.0176409 0)
(15.0631 0.0176699 0)
(15.1031 0.0176948 0)
(15.1427 0.0177159 0)
(15.1817 0.0177331 0)
(15.2203 0.0177463 0)
(15.2583 0.0177558 0)
(15.2959 0.0177616 0)
(15.333 0.0177637 0)
(15.3695 0.0177621 0)
(15.4056 0.0177575 0)
(15.4412 0.0177487 0)
(15.4763 0.0177358 0)
(15.5109 0.0177196 0)
(15.545 0.0176999 0)
(15.5786 0.017677 0)
(15.6117 0.0176501 0)
(15.6443 0.0176188 0)
(15.6765 0.017584 0)
(15.7081 0.0175454 0)
(15.7393 0.0175039 0)
(15.7699 0.0174587 0)
(15.8001 0.0174097 0)
(15.8298 0.0173572 0)
(15.8591 0.0173019 0)
(15.8878 0.0172425 0)
(15.9161 0.0171794 0)
(15.9439 0.0171131 0)
(15.9713 0.0170437 0)
(15.9981 0.0169721 0)
(16.0246 0.0168973 0)
(16.0505 0.016819 0)
(16.076 0.0167373 0)
(16.1011 0.0166528 0)
(16.1257 0.0165653 0)
(16.1499 0.0164746 0)
(16.1736 0.0163808 0)
(16.1969 0.0162845 0)
(16.2197 0.016186 0)
(16.2422 0.0160837 0)
(16.2642 0.0159793 0)
(16.2858 0.0158727 0)
(16.3069 0.0157619 0)
(16.3277 0.0156482 0)
(16.348 0.0155336 0)
(16.368 0.0154177 0)
(16.3875 0.0152982 0)
(16.4067 0.0151753 0)
(16.4254 0.0150497 0)
(16.4438 0.0149211 0)
(16.4618 0.0147897 0)
(16.4795 0.0146572 0)
(16.4967 0.0145257 0)
(16.5136 0.0143928 0)
(16.5301 0.0142543 0)
(16.5463 0.0141117 0)
(16.5621 0.013967 0)
(16.5776 0.0138234 0)
(16.5927 0.0136812 0)
(16.6075 0.0135347 0)
(16.622 0.0133814 0)
(16.6361 0.0132412 0)
(16.6499 0.0130813 0)
(16.6634 0.0129234 0)
(16.6766 0.0127681 0)
(16.6895 0.0126008 0)
(16.702 0.0124771 0)
(16.7143 0.0123035 0)
(16.7263 0.0121553 0)
(16.738 0.0119869 0)
(16.7494 0.0118366 0)
(16.7605 0.0116813 0)
(16.7714 0.0115108 0)
(16.782 0.0113647 0)
(16.7923 0.0111918 0)
(16.8024 0.0110354 0)
(16.8122 0.0108883 0)
(16.8217 0.0107249 0)
(16.8311 0.0105599 0)
(16.8401 0.0104031 0)
(16.849 0.0102371 0)
(16.8576 0.010076 0)
(16.8661 0.00990679 0)
(16.8743 0.00975119 0)
(16.8823 0.00958328 0)
(16.8901 0.00941824 0)
(16.8978 0.00926262 0)
(16.9053 0.00910343 0)
(16.9126 0.00894765 0)
(16.9197 0.00880123 0)
(16.9267 0.0086578 0)
(16.9336 0.00853079 0)
(16.9403 0.00841869 0)
(16.9469 0.0083238 0)
(16.9534 0.00822503 0)
(16.9597 0.00812905 0)
(16.9659 0.00801118 0)
(16.9721 0.00789121 0)
(16.9782 0.00774842 0)
(16.9843 0.0076363 0)
(16.9903 0.0075141 0)
(16.9964 0.00747678 0)
(17.0024 0.0073632 0)
(17.0085 0.00738239 0)
(17.0148 0.00729996 0)
(17.0211 0.00756902 0)
(17.0276 0.0077466 0)
(17.034 0.00863334 0)
(17.0403 0.00937563 0)
(17.0462 0.0107598 0)
(17.051 0.0121979 0)
(17.056 0.013815 0)
(17.0586 0.0128491 0)
(17.0641 0.0130144 0)
(17.0674 0.00863369 0)
(17.082 -0.000901433 0)
(17.093 -0.0278492 0)
(0.0069554 0.0441206 0)
(0.11797 -0.211705 0)
(0.426685 -0.598903 0)
(0.922714 -0.873998 0)
(1.48288 -0.974633 0)
(2.01767 -0.895128 0)
(2.49236 -0.7096 0)
(2.85287 -0.483548 0)
(3.11015 -0.297536 0)
(3.27476 -0.143991 0)
(3.36286 -0.0221695 0)
(3.42761 0.0269515 0)
(3.48389 0.00263965 0)
(3.53576 -0.0825403 0)
(3.61385 -0.225768 0)
(3.74641 -0.397914 0)
(3.99673 -0.595326 0)
(4.37019 -0.803089 0)
(4.85771 -1.01298 0)
(5.46054 -1.1965 0)
(6.15701 -1.34466 0)
(6.9351 -1.43301 0)
(7.74695 -1.42601 0)
(8.57945 -1.33542 0)
(9.37377 -1.14844 0)
(10.0953 -0.87998 0)
(10.7236 -0.559197 0)
(11.1932 -0.163586 0)
(11.5322 0.17656 0)
(11.6587 0.491448 0)
(11.5081 0.74721 0)
(11.1517 0.943386 0)
(10.6423 1.02369 0)
(10.0299 0.976259 0)
(9.35649 0.786937 0)
(8.66752 0.499268 0)
(8.02637 0.139011 0)
(7.45568 -0.155141 0)
(6.91381 -0.237446 0)
(6.4596 0.0072079 0)
(5.9346 0.537365 0)
(4.80663 1.3109 0)
(2.89979 2.15434 0)
(0.284003 2.95717 0)
(-2.95869 3.89313 0)
(-6.71941 4.80687 0)
(-10.7136 5.72682 0)
(-14.6764 6.22614 0)
(-18.2693 6.4007 0)
(-21.2841 6.15417 0)
(-23.5609 5.72499 0)
(-25.1561 5.1385 0)
(-26.0452 4.35525 0)
(-26.5831 3.51882 0)
(-26.9496 2.71606 0)
(-27.0062 1.90844 0)
(-26.8988 1.13473 0)
(-26.5058 0.350211 0)
(-25.9013 -0.406971 0)
(-25.0967 -1.11708 0)
(-24.0585 -1.77778 0)
(-22.8116 -2.3881 0)
(-21.3861 -2.95916 0)
(-19.847 -3.38678 0)
(-18.2989 -3.68709 0)
(-16.6818 -3.84785 0)
(-15.0319 -3.96427 0)
(-13.3833 -4.01109 0)
(-11.7553 -4.00999 0)
(-10.1669 -3.95734 0)
(-8.62139 -3.86414 0)
(-7.12654 -3.73993 0)
(-5.68719 -3.59105 0)
(-4.30336 -3.42406 0)
(-2.97955 -3.24898 0)
(-1.72254 -3.06854 0)
(-0.529933 -2.87509 0)
(0.580891 -2.66934 0)
(1.63565 -2.41133 0)
(2.60462 -2.167 0)
(3.54904 -2.06781 0)
(4.45646 -1.98193 0)
(5.34915 -1.88553 0)
(6.19551 -1.7765 0)
(7.01 -1.65917 0)
(7.78427 -1.53913 0)
(8.52266 -1.41893 0)
(9.22343 -1.30044 0)
(9.88807 -1.18424 0)
(10.5169 -1.07177 0)
(11.1103 -0.963325 0)
(11.6692 -0.860077 0)
(12.194 -0.760367 0)
(12.6857 -0.665147 0)
(13.1449 -0.573529 0)
(13.5739 -0.486321 0)
(13.9722 -0.396408 0)
(14.3414 -0.296183 0)
(14.6651 -0.153292 0)
(14.9508 0.000364559 0)
(15.1743 0.114515 0)
(15.2622 0.27162 0)
(15.1801 0.401785 0)
(14.9077 0.489584 0)
(14.4287 0.51771 0)
(13.738 0.507991 0)
(12.8493 0.568361 0)
(11.7928 0.83848 0)
(10.5314 1.36553 0)
(8.97039 2.10727 0)
(7.13903 2.83285 0)
(5.1328 3.40684 0)
(3.13824 3.68447 0)
(1.33475 3.59347 0)
(-0.227572 3.3911 0)
(-1.51713 3.051 0)
(-2.56238 2.68204 0)
(-3.30818 2.17906 0)
(-3.89016 1.57767 0)
(-4.16878 0.793143 0)
(-4.03398 -0.045675 0)
(-3.57561 -0.781954 0)
(-2.92432 -1.37417 0)
(-2.09193 -1.74586 0)
(-1.09693 -1.94673 0)
(-0.00119244 -2.14324 0)
(1.17072 -2.27776 0)
(2.41622 -2.41137 0)
(3.71611 -2.4737 0)
(5.0346 -2.49656 0)
(6.35046 -2.46003 0)
(7.64443 -2.37996 0)
(8.90077 -2.25469 0)
(10.0982 -2.09179 0)
(11.2365 -1.91048 0)
(12.2958 -1.71426 0)
(13.2965 -1.5221 0)
(14.2044 -1.33385 0)
(15.0572 -1.15612 0)
(15.8308 -0.98158 0)
(16.5359 -0.814121 0)
(17.1707 -0.656776 0)
(17.7369 -0.514014 0)
(18.2334 -0.376697 0)
(18.6542 -0.225157 0)
(18.9996 -0.0627338 0)
(19.2874 0.0561215 0)
(19.4904 0.171468 0)
(19.6058 0.29718 0)
(19.6209 0.429119 0)
(19.5424 0.54583 0)
(19.3797 0.653067 0)
(19.1253 0.751773 0)
(18.7786 0.837099 0)
(18.3444 0.903071 0)
(17.8282 0.943524 0)
(17.2392 0.953063 0)
(16.5924 0.929393 0)
(15.9064 0.873424 0)
(15.2032 0.794363 0)
(14.5091 0.696122 0)
(13.8516 0.575098 0)
(13.2488 0.429839 0)
(12.7119 0.281421 0)
(12.263 0.140668 0)
(11.9029 0.0146324 0)
(11.6287 -0.0915198 0)
(11.4654 -0.218257 0)
(11.3736 -0.311715 0)
(11.3805 -0.37637 0)
(11.4583 -0.38794 0)
(11.5713 -0.354834 0)
(11.6911 -0.285145 0)
(11.8002 -0.201238 0)
(11.8639 -0.112463 0)
(11.8266 -0.0403064 0)
(11.6813 0.0490537 0)
(11.4406 0.17514 0)
(11.108 0.310439 0)
(10.6837 0.446831 0)
(10.1714 0.586086 0)
(9.57868 0.733439 0)
(8.90566 0.899043 0)
(8.14687 1.07532 0)
(7.2957 1.27493 0)
(6.33642 1.49527 0)
(5.28348 1.7021 0)
(4.15389 1.86816 0)
(2.96337 1.97365 0)
(1.75249 2.02657 0)
(0.571848 1.99245 0)
(-0.525853 1.96294 0)
(-1.53552 1.91309 0)
(-2.46431 1.85362 0)
(-3.28576 1.76276 0)
(-3.99124 1.64083 0)
(-4.57356 1.47047 0)
(-5.0201 1.2631 0)
(-5.34763 1.01867 0)
(-5.50577 0.771383 0)
(-5.56999 0.485359 0)
(-5.57915 0.216995 0)
(-5.43267 -0.136538 0)
(-5.14141 -0.508939 0)
(-4.64171 -0.876609 0)
(-4.0327 -1.17407 0)
(-3.31825 -1.41506 0)
(-2.53161 -1.58061 0)
(-1.65094 -1.69917 0)
(-0.728914 -1.7404 0)
(0.23006 -1.73391 0)
(1.17987 -1.73478 0)
(2.15521 -1.74032 0)
(3.10597 -1.71284 0)
(4.05664 -1.67382 0)
(4.95278 -1.56959 0)
(5.81053 -1.47978 0)
(6.60506 -1.34929 0)
(7.3415 -1.22024 0)
(8.00201 -1.07599 0)
(8.59424 -0.93897 0)
(9.1118 -0.800626 0)
(9.56194 -0.672952 0)
(9.94388 -0.554625 0)
(10.2627 -0.448428 0)
(10.5231 -0.351396 0)
(10.7338 -0.266045 0)
(10.8999 -0.194295 0)
(11.0259 -0.132442 0)
(11.1174 -0.079266 0)
(11.1798 -0.0337396 0)
(11.2168 0.00440706 0)
(11.2344 0.0349871 0)
(11.2343 0.0564297 0)
(11.2211 0.07245 0)
(11.1996 0.0852411 0)
(11.1714 0.0951031 0)
(11.1381 0.101913 0)
(11.1013 0.106111 0)
(11.0624 0.108223 0)
(11.0225 0.108613 0)
(10.9827 0.107693 0)
(10.9437 0.10571 0)
(10.9064 0.102867 0)
(10.8714 0.099367 0)
(10.8389 0.0952422 0)
(10.8095 0.0907123 0)
(10.7835 0.0858187 0)
(10.7608 0.0805989 0)
(10.742 0.0753551 0)
(10.7269 0.0696276 0)
(10.7155 0.064526 0)
(10.7081 0.0591655 0)
(10.7042 0.0538797 0)
(10.7045 0.0483387 0)
(10.7088 0.0432609 0)
(10.7164 0.0382751 0)
(10.7275 0.0336136 0)
(10.7418 0.0291313 0)
(10.7594 0.0249256 0)
(10.7798 0.020981 0)
(10.8031 0.0173013 0)
(10.8291 0.0138853 0)
(10.8575 0.0107246 0)
(10.8882 0.00781817 0)
(10.9211 0.00516348 0)
(10.956 0.00275789 0)
(10.9926 0.000591716 0)
(11.031 -0.00134569 0)
(11.0709 -0.00306689 0)
(11.1122 -0.00458236 0)
(11.1548 -0.0059038 0)
(11.1986 -0.00704426 0)
(11.2435 -0.00801715 0)
(11.2893 -0.00883139 0)
(11.336 -0.0095021 0)
(11.3835 -0.0100403 0)
(11.4318 -0.0104606 0)
(11.4806 -0.0107747 0)
(11.5301 -0.0109967 0)
(11.5801 -0.0111359 0)
(11.6306 -0.0112099 0)
(11.6815 -0.0112229 0)
(11.7329 -0.0111919 0)
(11.7846 -0.0111193 0)
(11.8367 -0.0110178 0)
(11.8892 -0.0108888 0)
(11.942 -0.0107421 0)
(11.9951 -0.0105798 0)
(12.0485 -0.0104073 0)
(12.1021 -0.0102256 0)
(12.1561 -0.0100387 0)
(12.2104 -0.00984744 0)
(12.2649 -0.0096538 0)
(12.3197 -0.00945965 0)
(12.3747 -0.00926514 0)
(12.43 -0.00907284 0)
(12.4855 -0.00888223 0)
(12.5413 -0.00869257 0)
(12.5973 -0.00850474 0)
(12.6536 -0.00831781 0)
(12.71 -0.00813222 0)
(12.7667 -0.00794721 0)
(12.8235 -0.00776155 0)
(12.8806 -0.00757533 0)
(12.9378 -0.00738781 0)
(12.9952 -0.00719926 0)
(13.0528 -0.00700952 0)
(13.1105 -0.0068174 0)
(13.1684 -0.00662439 0)
(13.2264 -0.00643012 0)
(13.2846 -0.00623372 0)
(13.3429 -0.00603616 0)
(13.4012 -0.00583727 0)
(13.4597 -0.00563747 0)
(13.5182 -0.00543589 0)
(13.5769 -0.00523189 0)
(13.6356 -0.00502697 0)
(13.6943 -0.00482163 0)
(13.7531 -0.00461536 0)
(13.812 -0.00440805 0)