/*--------------------------------*- C++ -*----------------------------------*\
| =========                 |                                                 |
| \\      /  F ield         | OpenFOAM: The Open Source CFD Toolbox           |
|  \\    /   O peration     | Version:  v1812                                 |
|   \\  /    A nd           | Web:      www.OpenFOAM.com                      |
|    \\/     M anipulation  |                                                 |
\*---------------------------------------------------------------------------*/
FoamFile
{
    version     2.0;
    format      ascii;
    class       volScalarField;
    location    "0.2";
    object      p;
}
// * * * * * * * * * * * * * * * * * * * * * * * * * * * * * * * * * * * * * //

dimensions      [1 -1 -2 0 0 0 0];


internalField   nonuniform List<scalar> 
100
(
300548
299779
299399
299187
298905
298615
298319
298006
297678
297334
296973
296594
296196
295776
295334
294868
294376
293856
293306
292723
292105
291449
290751
290008
289216
288369
287463
286492
285449
284326
283115
281805
280386
278843
277160
275319
273298
271070
268601
265853
262774
259299
255346
250798
245495
239195
231501
221685
208184
187241
147914
118960
102892
92346.7
84404.3
77719.7
72023.8
67099.1
62863.9
59040.7
55642.1
52566.4
49842
47315.6
45020.1
42897.8
40991.9
39193.4
37534.8
35985.5
34576
33235.7
31971.4
30864.1
29268.8
29600.5
65531.2
146141
156783
158360
160000
161179
162423
163924
165334
166493
167536
168398
168956
169434
169948
170389
170799
171310
171932
172741
173612
174367
174813
174439
)
;

boundaryField
{
    inlet
    {
        type            fixedValue;
        value           uniform 300000;
    }
    outlet
    {
        type            fixedValue;
        value           uniform 175000;
    }
    upperWall
    {
        type            zeroGradient;
    }
    lowerWall
    {
        type            zeroGradient;
    }
    frontAndBack
    {
        type            empty;
    }
}


// ************************************************************************* //
