/*--------------------------------*- C++ -*----------------------------------*\
| =========                 |                                                 |
| \\      /  F ield         | OpenFOAM: The Open Source CFD Toolbox           |
|  \\    /   O peration     | Version:  v1812                                 |
|   \\  /    A nd           | Web:      www.OpenFOAM.com                      |
|    \\/     M anipulation  |                                                 |
\*---------------------------------------------------------------------------*/
FoamFile
{
    version     2.0;
    format      ascii;
    class       volScalarField;
    location    "0.2";
    object      rho;
}
// * * * * * * * * * * * * * * * * * * * * * * * * * * * * * * * * * * * * * //

dimensions      [1 -3 0 0 0 0 0];


internalField   nonuniform List<scalar> 
100
(
2.11026
2.10548
2.10334
2.10234
2.10092
2.09946
2.09797
2.0964
2.09475
2.09302
2.09121
2.0893
2.0873
2.08518
2.08296
2.08061
2.07813
2.0755
2.07273
2.06979
2.06666
2.06335
2.05982
2.05605
2.05204
2.04775
2.04315
2.03821
2.03291
2.02719
2.02102
2.01434
2.00709
1.99919
1.99056
1.98111
1.97071
1.95921
1.94645
1.9322
1.91619
1.89805
1.87733
1.85337
1.82528
1.79167
1.75026
1.69681
1.62213
1.50475
1.27122
1.08923
0.981555
0.909345
0.851999
0.803298
0.760892
0.723673
0.69025
0.660157
0.63279
0.607831
0.584809
0.563595
0.543922
0.52567
0.508616
0.492643
0.477659
0.463632
0.450413
0.437904
0.425947
0.415387
0.399929
0.403121
0.631305
1.09331
1.1517
1.16159
1.16987
1.17524
1.18213
1.19071
1.1977
1.20307
1.20873
1.21351
1.2161
1.21855
1.22145
1.22369
1.22572
1.22842
1.23151
1.23561
1.24002
1.24396
1.2464
1.2426
)
;

boundaryField
{
    inlet
    {
        type            calculated;
        value           uniform 2.10642;
    }
    outlet
    {
        type            calculated;
        value           uniform 1.24659;
    }
    upperWall
    {
        type            calculated;
        value           nonuniform List<scalar> 
100
(
2.11026
2.10548
2.10334
2.10234
2.10092
2.09946
2.09797
2.0964
2.09475
2.09302
2.09121
2.0893
2.0873
2.08518
2.08296
2.08061
2.07813
2.0755
2.07273
2.06979
2.06666
2.06335
2.05982
2.05605
2.05204
2.04775
2.04315
2.03821
2.03291
2.02719
2.02102
2.01434
2.00709
1.99919
1.99056
1.98111
1.97071
1.95921
1.94645
1.9322
1.91619
1.89805
1.87733
1.85337
1.82528
1.79167
1.75026
1.69681
1.62213
1.50475
1.27122
1.08923
0.981555
0.909345
0.851999
0.803298
0.760892
0.723673
0.69025
0.660157
0.63279
0.607831
0.584809
0.563595
0.543922
0.52567
0.508616
0.492643
0.477659
0.463632
0.450413
0.437904
0.425947
0.415387
0.399929
0.403121
0.631305
1.09331
1.1517
1.16159
1.16987
1.17524
1.18213
1.19071
1.1977
1.20307
1.20873
1.21351
1.2161
1.21855
1.22145
1.22369
1.22572
1.22842
1.23151
1.23561
1.24002
1.24396
1.2464
1.2426
)
;
    }
    lowerWall
    {
        type            calculated;
        value           nonuniform List<scalar> 
100
(
2.11026
2.10548
2.10334
2.10234
2.10092
2.09946
2.09797
2.0964
2.09475
2.09302
2.09121
2.0893
2.0873
2.08518
2.08296
2.08061
2.07813
2.0755
2.07273
2.06979
2.06666
2.06335
2.05982
2.05605
2.05204
2.04775
2.04315
2.03821
2.03291
2.02719
2.02102
2.01434
2.00709
1.99919
1.99056
1.98111
1.97071
1.95921
1.94645
1.9322
1.91619
1.89805
1.87733
1.85337
1.82528
1.79167
1.75026
1.69681
1.62213
1.50475
1.27122
1.08923
0.981555
0.909345
0.851999
0.803298
0.760892
0.723673
0.69025
0.660157
0.63279
0.607831
0.584809
0.563595
0.543922
0.52567
0.508616
0.492643
0.477659
0.463632
0.450413
0.437904
0.425947
0.415387
0.399929
0.403121
0.631305
1.09331
1.1517
1.16159
1.16987
1.17524
1.18213
1.19071
1.1977
1.20307
1.20873
1.21351
1.2161
1.21855
1.22145
1.22369
1.22572
1.22842
1.23151
1.23561
1.24002
1.24396
1.2464
1.2426
)
;
    }
    frontAndBack
    {
        type            empty;
    }
}


// ************************************************************************* //
