/*--------------------------------*- C++ -*----------------------------------*\
| =========                 |                                                 |
| \\      /  F ield         | OpenFOAM: The Open Source CFD Toolbox           |
|  \\    /   O peration     | Version:  v1812                                 |
|   \\  /    A nd           | Web:      www.OpenFOAM.com                      |
|    \\/     M anipulation  |                                                 |
\*---------------------------------------------------------------------------*/
FoamFile
{
    version     2.0;
    format      ascii;
    class       volScalarField;
    location    "0.2";
    object      T;
}
// * * * * * * * * * * * * * * * * * * * * * * * * * * * * * * * * * * * * * //

dimensions      [0 0 0 1 0 0 0];


internalField   nonuniform List<scalar> 
100
(
496.069
495.922
495.798
495.681
495.55
495.414
495.273
495.125
494.969
494.806
494.634
494.454
494.264
494.063
493.852
493.63
493.394
493.145
492.881
492.601
492.304
491.988
491.651
491.292
490.908
490.497
490.057
489.583
489.073
488.523
487.928
487.282
486.58
485.813
484.974
484.052
483.035
481.907
480.649
479.24
477.648
475.836
473.754
471.33
468.465
465.005
460.697
455.059
447.018
433.411
405.276
380.404
365.115
353.718
345.056
336.991
329.699
322.953
317.219
311.507
306.272
301.224
296.856
292.416
288.293
284.241
280.719
277.105
273.704
270.344
267.379
264.356
261.438
258.8
254.909
255.757
361.554
465.579
474.158
474.851
476.372
477.689
478.573
479.516
480.814
482.024
482.771
483.343
483.916
484.307
484.625
484.991
485.351
485.735
486.277
486.942
487.656
488.228
488.518
488.964
)
;

boundaryField
{
    inlet
    {
        type            totalTemperature;
        gamma           1.4;
        T0              uniform 500;
        value           uniform 496.067;
    }
    outlet
    {
        type            zeroGradient;
    }
    upperWall
    {
        type            zeroGradient;
    }
    lowerWall
    {
        type            zeroGradient;
    }
    frontAndBack
    {
        type            empty;
    }
}


// ************************************************************************* //
