/*--------------------------------*- C++ -*----------------------------------*\
| =========                 |                                                 |
| \\      /  F ield         | OpenFOAM: The Open Source CFD Toolbox           |
|  \\    /   O peration     | Version:  v1812                                 |
|   \\  /    A nd           | Web:      www.OpenFOAM.com                      |
|    \\/     M anipulation  |                                                 |
\*---------------------------------------------------------------------------*/
FoamFile
{
    version     2.0;
    format      ascii;
    class       volVectorField;
    location    "0.2";
    object      U;
}
// * * * * * * * * * * * * * * * * * * * * * * * * * * * * * * * * * * * * * //

dimensions      [0 1 -1 0 0 0 0];


internalField   nonuniform List<vector> 
100
(
(88.902 0.000119571 0)
(90.5624 0.000119571 2.18864e-15)
(91.927 0.000119571 0)
(93.2034 0.000119571 -2.37593e-15)
(94.604 0.000119571 0)
(96.0353 0.000119571 -2.43894e-15)
(97.5039 0.000119571 0)
(99.0234 0.000119571 -2.50855e-15)
(100.592 0.000119571 -2.54567e-15)
(102.212 0.000119571 -2.58364e-15)
(103.887 0.000119571 0)
(105.62 0.00011957 -2.66302e-15)
(107.413 0.000119572 0)
(109.271 0.00011957 0)
(111.196 0.000119572 -2.79154e-15)
(113.193 0.000119571 0)
(115.266 0.00011957 -5.76837e-15)
(117.419 0.000119571 0)
(119.658 0.000119575 -2.98305e-15)
(121.988 0.000119569 -3.035e-15)
(124.414 0.000119546 -3.08874e-15)
(126.944 0.000119607 0)
(129.585 0.000119638 -3.20196e-15)
(132.343 0.000119386 0)
(135.229 0.000119439 -3.32351e-15)
(138.251 0.000120339 0)
(141.42 0.00011938 0)
(144.748 0.000117461 0)
(148.248 0.00012176 -3.59526e-15)
(151.935 0.000123021 0)
(155.825 0.00011164 -3.74759e-15)
(159.938 0.000119778 0)
(164.295 0.000133984 0)
(168.921 0.000104141 0)
(173.845 0.000114613 -4.09138e-15)
(179.1 0.000149057 -4.18648e-15)
(184.725 8.6712e-05 0)
(190.768 0.000123356 0)
(197.284 0.000162071 0)
(204.344 4.95088e-05 0)
(212.032 0.000167173 0)
(220.457 0.000111739 0)
(229.76 0.000206487 0)
(240.134 0.000273009 0)
(251.846 -0.00262636 5.23038e-15)
(265.301 0.00293369 0)
(281.16 0.0290383 -5.48699e-15)
(300.648 -0.0623401 0)
(326.445 -0.217517 0)
(365.981 0.916364 0)
(436.306 0.321248 0)
(490.219 -4.97879 0)
(520.762 0.925065 0)
(541.895 4.42777 4.41762e-15)
(558.092 1.68454 0)
(572.343 -0.122655 3.87341e-15)
(584.942 -1.82703 0)
(596.333 -3.09588 0)
(606.15 -0.693499 0)
(615.398 0.661568 0)
(623.893 1.36784 0)
(631.917 2.30626 0)
(638.993 0.456038 0)
(645.83 -0.430788 0)
(652.229 -0.958817 2.55961e-15)
(658.38 -1.83213 0)
(663.853 -0.457473 2.36592e-15)
(669.246 0.0267345 0)
(674.351 0.635586 2.21067e-15)
(679.268 1.4331 0)
(683.722 0.513863 0)
(688.126 0.349389 0)
(692.423 -0.361237 1.94923e-15)
(696.123 -0.976455 0)
(701.854 -0.542017 1.50953e-15)
(700.482 -0.147244 0)
(527.171 -4.12216 2.13684e-15)
(271.656 4.67763 0)
(224.243 10.9253 -3.13929e-15)
(220.091 1.05112 0)
(214.411 -6.78094 5.87392e-15)
(208.785 -8.54636 0)
(204.429 -5.70275 2.7839e-15)
(201.082 -0.152633 2.75725e-15)
(197.472 4.63126 -2.74555e-15)
(193.453 5.18885 2.68859e-15)
(190.046 2.6119 0)
(186.748 -1.29445 0)
(182.626 -3.2913 2.5872e-15)
(178.559 -2.35795 0)
(174.876 0.113777 2.51484e-15)
(171.227 1.81685 2.49048e-15)
(167.981 1.50573 2.45479e-15)
(165.432 -0.0535179 0)
(162.85 -1.08797 2.38473e-15)
(160.336 -0.66674 2.34686e-15)
(157.93 0.318311 2.3207e-15)
(155.722 0.467161 0)
(154.027 0.0218411 -2.20358e-15)
(151.542 -0.0653143 0)
)
;

boundaryField
{
    inlet
    {
        type            zeroGradient;
    }
    outlet
    {
        type            zeroGradient;
    }
    upperWall
    {
        type            slip;
    }
    lowerWall
    {
        type            slip;
    }
    frontAndBack
    {
        type            empty;
    }
}


// ************************************************************************* //
