/*--------------------------------*- C++ -*----------------------------------*\
| =========                 |                                                 |
| \\      /  F ield         | OpenFOAM: The Open Source CFD Toolbox           |
|  \\    /   O peration     | Version:  v1812                                 |
|   \\  /    A nd           | Web:      www.OpenFOAM.com                      |
|    \\/     M anipulation  |                                                 |
\*---------------------------------------------------------------------------*/
FoamFile
{
    version     2.0;
    format      ascii;
    class       surfaceScalarField;
    location    "0.001";
    object      phi;
}
// * * * * * * * * * * * * * * * * * * * * * * * * * * * * * * * * * * * * * //

dimensions      [1 0 -1 0 0 0 0];
oriented        oriented;


internalField   nonuniform List<scalar> 
16762
(
0.0423011
6.73642e-19
0.0423011
-9.5661e-18
0.0423011
8.59457e-18
0.0423011
-2.80242e-17
0.0423011
-2.70232e-17
0.0423011
-5.68137e-17
0.0423011
-1.71664e-17
0.0423011
-2.27794e-17
0.0423011
-2.10504e-17
0.0423011
-2.40611e-17
0.0423011
-3.09956e-17
0.0423011
-3.02715e-17
0.0423011
-2.73653e-17
0.0423011
-1.60503e-17
0.0423011
-1.16124e-17
0.0423011
4.41191e-17
0.0423011
4.15608e-17
0.0423011
5.65141e-17
0.0423011
1.04676e-16
0.0423011
7.95918e-17
0.0423011
9.81439e-17
0.0423011
9.14698e-17
0.0423011
6.95409e-17
0.0423011
4.02639e-17
0.0423011
6.45602e-17
0.0423011
6.83434e-17
0.0423011
9.35414e-17
0.0423011
6.54666e-17
0.0423011
6.79499e-17
0.0423011
4.02318e-17
0.0423011
5.80639e-17
0.0423011
1.75504e-16
0.0423011
1.96792e-14
0.0423011
4.03177e-13
0.0423011
9.48499e-11
0.0423011
1.57668e-09
0.0423007
4.70518e-07
9.02475e-06
0.0422915
0.0423011
-4.64933e-18
0.0423011
-1.03411e-17
0.0423011
-3.43882e-17
0.0423011
-3.26239e-17
0.0423011
-4.07152e-17
0.0423011
-2.68672e-17
0.0423011
-3.41496e-17
0.0423011
-3.01716e-17
0.0423011
-3.39951e-17
0.0423011
-3.24148e-17
0.0423011
-2.5452e-17
0.0423011
-1.89598e-17
0.0423011
-2.89125e-17
0.0423011
-2.0377e-17
0.0423011
-1.08598e-17
0.0423011
-1.09522e-17
0.0423011
-4.64659e-18
0.0423011
9.91184e-18
0.0423011
3.03109e-17
0.0423011
4.29694e-17
0.0423011
3.91779e-17
0.0423011
5.80802e-17
0.0423011
6.01586e-17
0.0423011
6.38774e-17
0.0423011
4.82522e-17
0.0423011
5.94525e-17
0.0423011
5.47613e-17
0.0423011
6.89741e-17
0.0423011
9.44798e-17
0.0423011
7.93703e-17
0.0423011
7.38386e-17
0.0423011
2.19529e-16
0.0423011
7.31344e-15
0.0423011
4.90171e-13
0.0423011
2.24719e-11
0.0423011
1.43958e-09
0.0423015
5.22797e-08
3.32353e-06
0.0423074
0.0423011
-3.2805e-18
0.0423011
-1.95895e-17
0.0423011
1.08921e-17
0.0423011
-1.33107e-17
0.0423011
-3.74802e-17
0.0423011
-2.88869e-17
0.0423011
-3.89414e-17
0.0423011
-5.57246e-17
0.0423011
-4.24624e-17
0.0423011
-3.08851e-17
0.0423011
-2.4781e-17
0.0423011
-2.00345e-17
0.0423011
-2.69675e-17
0.0423011
-1.96499e-17
0.0423011
-2.12292e-17
0.0423011
-1.73109e-17
0.0423011
-1.24944e-17
0.0423011
-1.2479e-17
0.0423011
-1.78174e-18
0.0423011
2.79797e-17
0.0423011
3.94652e-17
0.0423011
3.3587e-17
0.0423011
3.0855e-17
0.0423011
3.01052e-17
0.0423011
4.01621e-17
0.0423011
4.22464e-17
0.0423011
5.87807e-17
0.0423011
5.72649e-17
0.0423011
7.27637e-17
0.0423011
7.04929e-17
0.0423011
8.58605e-17
0.0423011
9.72127e-17
0.0423011
8.99133e-16
0.0423011
1.11417e-13
0.0423011
1.77768e-12
0.0423011
2.12021e-10
0.0423012
2.39157e-09
3.44332e-07
0.0423042
0.0423011
-2.60931e-19
0.0423011
5.14074e-18
0.0423011
-5.86914e-18
0.0423011
-7.55038e-19
0.0423011
1.71302e-17
0.0423011
-1.18447e-18
0.0423011
-1.19493e-17
0.0423011
-2.22223e-17
0.0423011
-2.86128e-17
0.0423011
-5.17355e-17
0.0423011
-4.01675e-17
0.0423011
-4.64859e-17
0.0423011
-3.9364e-17
0.0423011
-5.779e-17
0.0423011
-2.98224e-17
0.0423011
-3.73268e-17
0.0423011
-3.0072e-17
0.0423011
-1.3673e-17
0.0423011
-9.97628e-19
0.0423011
-2.72432e-18
0.0423011
-1.33327e-18
0.0423011
1.59454e-17
0.0423011
7.7023e-18
0.0423011
1.79399e-17
0.0423011
3.74326e-17
0.0423011
5.47535e-17
0.0423011
6.62818e-17
0.0423011
4.49296e-17
0.0423011
5.18468e-17
0.0423011
6.13425e-17
0.0423011
4.21393e-17
0.0423011
5.94178e-17
0.0423011
9.38727e-17
0.0423011
1.0915e-14
0.0423011
3.87555e-14
0.0423011
1.51224e-11
0.0423011
4.17278e-11
2.08009e-08
0.0423015
0.0423011
4.49333e-18
0.0423011
1.01648e-17
0.0423011
-1.84561e-17
0.0423011
-1.59103e-17
0.0423011
-3.29395e-18
0.0423011
8.95389e-18
0.0423011
4.10072e-18
0.0423011
-1.561e-17
0.0423011
-2.44506e-17
0.0423011
-1.90976e-17
0.0423011
-2.47216e-17
0.0423011
-2.57214e-17
0.0423011
-1.87396e-17
0.0423011
-1.40815e-17
0.0423011
-2.36576e-17
0.0423011
-2.69643e-17
0.0423011
-2.01244e-17
0.0423011
-5.27541e-17
0.0423011
-3.39173e-17
0.0423011
-2.87299e-17
0.0423011
-1.02311e-17
0.0423011
-2.61996e-17
0.0423011
-8.91916e-18
0.0423011
1.37964e-17
0.0423011
1.01001e-17
0.0423011
3.66549e-18
0.0423011
9.14901e-18
0.0423011
3.13241e-17
0.0423011
3.89766e-17
0.0423011
5.00782e-17
0.0423011
6.44092e-17
0.0423011
5.21566e-17
0.0423011
3.11032e-17
0.0423011
4.88444e-16
0.0423011
7.4834e-17
0.0423011
6.21429e-13
0.0423011
6.94041e-13
8.41552e-10
0.0423011
0.0423011
-8.58074e-18
0.0423011
-1.07452e-17
0.0423011
-1.86813e-18
0.0423011
-2.49823e-18
0.0423011
-6.95461e-18
0.0423011
-5.01905e-18
0.0423011
8.85666e-18
0.0423011
-9.70351e-19
0.0423011
-2.3647e-18
0.0423011
-8.56982e-18
0.0423011
-1.32793e-19
0.0423011
5.03561e-18
0.0423011
-2.52709e-17
0.0423011
-7.7198e-18
0.0423011
-1.69897e-17
0.0423011
1.33234e-18
0.0423011
-1.17737e-17
0.0423011
-8.35325e-18
0.0423011
-2.56631e-17
0.0423011
-2.92365e-17
0.0423011
-2.74185e-17
0.0423011
-1.64727e-17
0.0423011
-2.61584e-17
0.0423011
-7.09687e-18
0.0423011
1.46868e-18
0.0423011
-5.39352e-19
0.0423011
-9.81237e-18
0.0423011
-5.72409e-18
0.0423011
-1.12565e-17
0.0423011
7.50762e-19
0.0423011
1.41791e-17
0.0423011
1.99681e-17
0.0423011
2.35056e-17
0.0423011
3.48941e-17
0.0423011
-4.42922e-17
0.0423011
1.75937e-14
0.0423011
1.972e-14
2.53823e-11
0.0423011
0.0423011
-2.58552e-18
0.0423011
-1.15785e-18
0.0423011
3.96859e-18
0.0423011
7.92847e-18
0.0423011
-1.1794e-17
0.0423011
-3.62572e-17
0.0423011
-1.70818e-17
0.0423011
2.08719e-17
0.0423011
4.25972e-18
0.0423011
1.59034e-17
0.0423011
6.45092e-18
0.0423011
3.23375e-18
0.0423011
8.34206e-18
0.0423011
-1.01684e-17
0.0423011
-1.18131e-17
0.0423011
-1.91171e-17
0.0423011
-3.95532e-17
0.0423011
-2.56305e-17
0.0423011
-4.06359e-17
0.0423011
-4.93743e-17
0.0423011
-4.85062e-17
0.0423011
-2.00622e-17
0.0423011
9.23652e-19
0.0423011
1.7822e-18
0.0423011
-6.26043e-18
0.0423011
5.69503e-18
0.0423011
5.22534e-18
0.0423011
1.33102e-18
0.0423011
7.50784e-18
0.0423011
9.90733e-18
0.0423011
1.26743e-17
0.0423011
6.50409e-18
0.0423011
2.21113e-17
0.0423011
7.85906e-18
0.0423011
-1.47981e-17
0.0423011
2.92095e-16
0.0423011
3.96039e-16
6.23589e-13
0.0423011
0.0423011
4.42639e-18
0.0423011
2.45597e-17
0.0423011
3.77874e-19
0.0423011
-1.29549e-18
0.0423011
-3.36226e-18
0.0423011
9.36525e-18
0.0423011
-1.83424e-18
0.0423011
-3.73874e-18
0.0423011
1.06656e-17
0.0423011
-1.20954e-17
0.0423011
5.68845e-18
0.0423011
3.54168e-17
0.0423011
1.71156e-17
0.0423011
3.51224e-19
0.0423011
1.89578e-18
0.0423011
-1.64563e-17
0.0423011
-2.30501e-17
0.0423011
-2.59659e-17
0.0423011
-2.04426e-17
0.0423011
-6.49664e-18
0.0423011
-2.02828e-17
0.0423011
-6.95436e-18
0.0423011
-2.6036e-17
0.0423011
-1.73876e-17
0.0423011
-3.82049e-17
0.0423011
-1.01508e-17
0.0423011
-1.47019e-17
0.0423011
-1.86373e-18
0.0423011
2.47666e-18
0.0423011
3.62173e-18
0.0423011
2.0322e-18
0.0423011
2.08996e-17
0.0423011
-1.91063e-18
0.0423011
3.90627e-18
0.0423011
1.23327e-17
0.0423011
2.27087e-17
0.0423011
-6.16845e-17
1.35603e-14
0.0423011
0.0423011
3.8241e-18
0.0423011
-3.40567e-19
0.0423011
1.56601e-17
0.0423011
4.56602e-18
0.0423011
1.73015e-17
0.0423011
1.61383e-17
0.0423011
8.6352e-18
0.0423011
9.96206e-18
0.0423011
2.39467e-18
0.0423011
1.1447e-17
0.0423011
-7.23272e-19
0.0423011
-2.3576e-17
0.0423011
1.12764e-17
0.0423011
9.63297e-19
0.0423011
-4.00954e-18
0.0423011
-1.59273e-17
0.0423011
-2.27287e-17
0.0423011
-2.57156e-17
0.0423011
-1.8983e-18
0.0423011
-2.31899e-17
0.0423011
-1.14741e-17
0.0423011
-1.38265e-17
0.0423011
-2.86914e-18
0.0423011
-2.61446e-17
0.0423011
-1.27383e-17
0.0423011
-2.18671e-17
0.0423011
-1.96413e-17
0.0423011
-3.19842e-17
0.0423011
-2.99352e-17
0.0423011
2.79442e-17
0.0423011
-3.33464e-18
0.0423011
2.00138e-18
0.0423011
5.45872e-18
0.0423011
6.15482e-18
0.0423011
-4.5109e-18
0.0423011
2.86536e-18
0.0423011
-2.00345e-17
2.141e-16
0.0423011
0.0423011
-1.26139e-17
0.0423011
-1.08261e-17
0.0423011
-1.68753e-17
0.0423011
1.55656e-17
0.0423011
3.28718e-17
0.0423011
1.67928e-17
0.0423011
7.14483e-18
0.0423011
1.04494e-17
0.0423011
-1.18136e-17
0.0423011
-3.06674e-18
0.0423011
1.37352e-17
0.0423011
-1.17599e-18
0.0423011
9.61184e-19
0.0423011
1.5345e-17
0.0423011
-4.54635e-19
0.0423011
-4.56238e-18
0.0423011
-1.72531e-17
0.0423011
-1.90174e-17
0.0423011
-1.95493e-17
0.0423011
-1.70039e-17
0.0423011
-1.01552e-17
0.0423011
-1.54998e-17
0.0423011
3.32277e-18
0.0423011
-7.71942e-18
0.0423011
6.59988e-19
0.0423011
7.7582e-19
0.0423011
3.87071e-18
0.0423011
-2.10692e-18
0.0423011
-1.70389e-17
0.0423011
-1.84515e-17
0.0423011
-1.18127e-17
0.0423011
-1.56686e-17
0.0423011
3.78368e-18
0.0423011
-1.45343e-17
0.0423011
-3.93707e-18
0.0423011
7.46842e-19
0.0423011
-4.53839e-18
-1.39384e-17
0.0423011
0.0423011
6.98463e-18
0.0423011
-1.59154e-17
0.0423011
-1.34289e-17
0.0423011
-1.55274e-17
0.0423011
-3.29119e-19
0.0423011
5.35808e-18
0.0423011
6.72884e-18
0.0423011
-5.50501e-20
0.0423011
1.91615e-17
0.0423011
7.73723e-18
0.0423011
-1.71637e-17
0.0423011
-1.20944e-17
0.0423011
-1.46809e-17
0.0423011
-1.48709e-17
0.0423011
-1.09168e-17
0.0423011
2.36254e-18
0.0423011
2.26643e-18
0.0423011
-1.24494e-17
0.0423011
-3.83856e-17
0.0423011
4.19524e-19
0.0423011
-1.17019e-17
0.0423011
-8.64376e-18
0.0423011
-3.86247e-18
0.0423011
-5.60997e-18
0.0423011
-1.28019e-17
0.0423011
-2.02032e-17
0.0423011
-1.31706e-17
0.0423011
-2.37996e-17
0.0423011
-7.3532e-18
0.0423011
-1.34843e-17
0.0423011
-8.23198e-18
0.0423011
2.08749e-18
0.0423011
-2.22421e-17
0.0423011
3.67962e-18
0.0423011
1.01944e-17
0.0423011
1.8416e-17
0.0423011
1.0243e-17
4.05606e-18
0.0423011
0.0423011
-5.69009e-18
0.0423011
1.096e-17
0.0423011
-1.24445e-18
0.0423011
2.29996e-17
0.0423011
1.52166e-17
0.0423011
2.20856e-18
0.0423011
4.41917e-18
0.0423011
-2.93718e-18
0.0423011
-4.87314e-18
0.0423011
-8.8686e-18
0.0423011
-4.76254e-19
0.0423011
-6.17112e-18
0.0423011
9.56859e-18
0.0423011
9.35798e-18
0.0423011
2.94801e-17
0.0423011
1.51566e-17
0.0423011
7.62368e-18
0.0423011
-2.39186e-17
0.0423011
-2.49122e-17
0.0423011
-6.09138e-17
0.0423011
-2.00049e-17
0.0423011
-1.87202e-17
0.0423011
-2.61936e-17
0.0423011
-1.8295e-17
0.0423011
-2.01034e-17
0.0423011
-2.79256e-17
0.0423011
-1.32455e-17
0.0423011
1.06887e-17
0.0423011
-9.59242e-18
0.0423011
-1.77641e-17
0.0423011
-3.22993e-17
0.0423011
-6.95064e-18
0.0423011
2.29473e-17
0.0423011
1.87477e-17
0.0423011
2.09666e-17
0.0423011
3.48845e-17
0.0423011
1.13669e-17
2.27402e-17
0.0423011
0.0423011
9.81014e-18
0.0423011
-1.31784e-18
0.0423011
1.23205e-18
0.0423011
-1.80822e-17
0.0423011
-2.65143e-17
0.0423011
-3.00291e-18
0.0423011
4.00214e-18
0.0423011
5.58214e-18
0.0423011
1.36558e-17
0.0423011
1.51023e-17
0.0423011
-6.37468e-18
0.0423011
-9.21387e-19
0.0423011
-8.07621e-18
0.0423011
1.89866e-18
0.0423011
-9.75509e-18
0.0423011
-2.68804e-17
0.0423011
1.59103e-18
0.0423011
-7.40288e-18
0.0423011
-1.95203e-17
0.0423011
-6.54779e-18
0.0423011
-2.06476e-18
0.0423011
-7.1742e-18
0.0423011
-1.05466e-18
0.0423011
-5.99441e-18
0.0423011
-7.65342e-18
0.0423011
-3.67794e-18
0.0423011
-4.45179e-18
0.0423011
-3.27526e-18
0.0423011
1.1723e-17
0.0423011
-1.80128e-17
0.0423011
2.30569e-18
0.0423011
-5.84253e-18
0.0423011
1.44654e-17
0.0423011
4.67064e-17
0.0423011
2.15513e-17
0.0423011
7.90505e-18
0.0423011
1.22915e-17
1.07965e-17
0.0423011
0.0423011
-3.19158e-18
0.0423011
-4.48414e-18
0.0423011
-2.80104e-18
0.0423011
-5.11237e-19
0.0423011
8.54055e-18
0.0423011
-6.31836e-18
0.0423011
-6.06673e-18
0.0423011
-5.8119e-19
0.0423011
-3.20464e-19
0.0423011
-2.59347e-18
0.0423011
-1.75326e-18
0.0423011
-5.27256e-18
0.0423011
1.87839e-17
0.0423011
3.93331e-18
0.0423011
-3.66519e-18
0.0423011
-1.15708e-17
0.0423011
-1.87818e-17
0.0423011
2.30335e-18
0.0423011
6.60873e-18
0.0423011
8.06915e-18
0.0423011
9.98338e-18
0.0423011
-5.69991e-18
0.0423011
-6.39258e-18
0.0423011
3.57542e-18
0.0423011
1.20919e-17
0.0423011
-2.64714e-17
0.0423011
-1.73124e-17
0.0423011
-1.17701e-17
0.0423011
-7.54644e-18
0.0423011
2.33632e-17
0.0423011
2.88067e-17
0.0423011
2.64747e-17
0.0423011
5.50173e-17
0.0423011
-2.4541e-17
0.0423011
5.25416e-17
0.0423011
4.7687e-18
0.0423011
4.18128e-18
6.39559e-18
0.0423011
0.0423011
6.5245e-18
0.0423011
4.14781e-18
0.0423011
-9.9098e-18
0.0423011
-3.01366e-18
0.0423011
-4.1938e-18
0.0423011
4.1972e-18
0.0423011
-1.18925e-18
0.0423011
-1.19157e-17
0.0423011
-7.87746e-18
0.0423011
2.96728e-18
0.0423011
4.45935e-18
0.0423011
1.49966e-17
0.0423011
-3.51227e-18
0.0423011
-1.58477e-18
0.0423011
-3.82426e-18
0.0423011
-2.64572e-17
0.0423011
-1.13439e-17
0.0423011
1.58152e-17
0.0423011
1.46494e-17
0.0423011
1.0036e-17
0.0423011
-8.87958e-18
0.0423011
-1.95757e-18
0.0423011
-5.19645e-18
0.0423011
-4.22502e-18
0.0423011
-1.67684e-17
0.0423011
2.89567e-18
0.0423011
-1.13543e-19
0.0423011
5.41628e-18
0.0423011
1.91851e-17
0.0423011
1.40751e-17
0.0423011
-6.64817e-18
0.0423011
2.9641e-18
0.0423011
-3.38033e-17
0.0423011
-2.19378e-17
0.0423011
-2.64809e-17
0.0423011
-4.94499e-18
0.0423011
-8.88043e-18
-2.00665e-18
0.0423011
0.0423011
-4.28327e-19
0.0423011
-1.32778e-17
0.0423011
3.72692e-18
0.0423011
-3.7758e-18
0.0423011
1.47235e-17
0.0423011
5.15175e-19
0.0423011
6.99153e-19
0.0423011
-1.99874e-18
0.0423011
-2.40832e-17
0.0423011
-1.85454e-17
0.0423011
1.96791e-17
0.0423011
3.70824e-18
0.0423011
5.62203e-18
0.0423011
1.1941e-18
0.0423011
-1.0169e-17
0.0423011
1.1024e-17
0.0423011
-1.98997e-18
0.0423011
-7.88149e-18
0.0423011
1.22919e-17
0.0423011
1.5638e-17
0.0423011
1.65988e-18
0.0423011
-1.48201e-18
0.0423011
-1.49576e-17
0.0423011
-1.12655e-17
0.0423011
-1.1624e-17
0.0423011
8.85125e-18
0.0423011
4.39797e-19
0.0423011
9.87917e-18
0.0423011
3.22031e-17
0.0423011
2.68249e-17
0.0423011
-1.35601e-17
0.0423011
1.69292e-17
0.0423011
6.196e-18
0.0423011
-8.89325e-18
0.0423011
-1.53354e-17
0.0423011
-1.08383e-17
0.0423011
-1.37154e-17
-1.52503e-17
0.0423011
0.0423011
-5.68548e-18
0.0423011
9.30417e-18
0.0423011
5.3915e-18
0.0423011
-4.11155e-19
0.0423011
-7.84534e-18
0.0423011
3.16216e-18
0.0423011
8.53604e-18
0.0423011
-4.24194e-18
0.0423011
1.38186e-17
0.0423011
-3.75127e-18
0.0423011
-2.19286e-17
0.0423011
-7.43019e-18
0.0423011
-1.13663e-17
0.0423011
1.06303e-17
0.0423011
9.05746e-18
0.0423011
-1.04577e-17
0.0423011
1.26192e-18
0.0423011
1.08554e-18
0.0423011
4.0852e-19
0.0423011
-1.84872e-18
0.0423011
1.67185e-17
0.0423011
8.20417e-19
0.0423011
-3.40931e-19
0.0423011
-3.60625e-17
0.0423011
1.60341e-17
0.0423011
-6.75839e-18
0.0423011
9.86516e-18
0.0423011
2.09318e-17
0.0423011
-1.86075e-17
0.0423011
-1.35379e-17
0.0423011
2.19766e-17
0.0423011
-2.35684e-17
0.0423011
-1.69893e-17
0.0423011
1.22551e-17
0.0423011
1.13656e-18
0.0423011
-1.14176e-17
0.0423011
-7.91191e-18
2.6518e-17
0.0423011
0.0423011
1.95249e-18
0.0423011
5.11304e-18
0.0423011
1.84092e-17
0.0423011
2.53007e-18
0.0423011
2.55554e-18
0.0423011
-2.27638e-18
0.0423011
-3.11377e-17
0.0423011
-3.62551e-18
0.0423011
6.73552e-19
0.0423011
1.20824e-17
0.0423011
6.38084e-18
0.0423011
-2.52682e-17
0.0423011
-1.58546e-17
0.0423011
-2.58456e-17
0.0423011
-1.01756e-17
0.0423011
-1.43593e-18
0.0423011
3.24275e-18
0.0423011
9.2237e-19
0.0423011
2.15906e-17
0.0423011
-1.8163e-18
0.0423011
-1.72258e-17
0.0423011
-1.42625e-17
0.0423011
-3.20125e-17
0.0423011
4.70495e-18
0.0423011
-1.23843e-17
0.0423011
-2.51933e-17
0.0423011
-2.76585e-17
0.0423011
-3.4052e-17
0.0423011
-3.62945e-17
0.0423011
-3.43449e-17
0.0423011
-2.0016e-17
0.0423011
-5.35719e-18
0.0423011
-2.29102e-18
0.0423011
-2.67907e-18
0.0423011
1.43094e-17
0.0423011
1.2007e-17
0.0423011
2.95294e-17
8.38072e-18
0.0423011
0.0423011
-1.35439e-18
0.0423011
-2.91379e-18
0.0423011
-9.5454e-19
0.0423011
-1.7749e-18
0.0423011
-5.03895e-18
0.0423011
6.82689e-19
0.0423011
1.99506e-17
0.0423011
-7.67567e-20
0.0423011
2.37279e-18
0.0423011
1.42124e-18
0.0423011
2.25297e-17
0.0423011
1.82991e-17
0.0423011
9.10638e-18
0.0423011
1.46281e-18
0.0423011
2.50449e-18
0.0423011
1.21315e-17
0.0423011
-9.89524e-19
0.0423011
-3.69327e-18
0.0423011
-6.04277e-18
0.0423011
1.92238e-18
0.0423011
7.49659e-18
0.0423011
9.82052e-18
0.0423011
3.89424e-17
0.0423011
-7.33049e-18
0.0423011
-1.38564e-17
0.0423011
-3.52532e-19
0.0423011
6.32423e-19
0.0423011
5.83682e-18
0.0423011
7.57763e-18
0.0423011
1.23825e-18
0.0423011
-8.17246e-19
0.0423011
6.44113e-18
0.0423011
2.20385e-17
0.0423011
3.3534e-18
0.0423011
8.14934e-18
0.0423011
1.94072e-17
0.0423011
1.13647e-17
1.60568e-17
0.0423011
0.0423011
-1.57281e-18
0.0423011
2.78102e-18
0.0423011
-1.29471e-17
0.0423011
-7.81454e-18
0.0423011
-2.09473e-18
0.0423011
6.29647e-18
0.0423011
7.90186e-19
0.0423011
1.07124e-17
0.0423011
3.37133e-18
0.0423011
2.7151e-18
0.0423011
-1.81758e-17
0.0423011
1.24559e-17
0.0423011
-5.50378e-18
0.0423011
1.13258e-17
0.0423011
-6.98387e-18
0.0423011
-9.48295e-18
0.0423011
-7.63166e-19
0.0423011
7.34769e-18
0.0423011
7.90874e-18
0.0423011
1.5009e-17
0.0423011
1.84719e-17
0.0423011
3.03476e-18
0.0423011
-1.23107e-18
0.0423011
3.86588e-18
0.0423011
-8.04669e-18
0.0423011
-2.31734e-17
0.0423011
-6.65316e-18
0.0423011
-6.54586e-18
0.0423011
-4.29897e-18
0.0423011
-1.9067e-17
0.0423011
-1.50679e-17
0.0423011
1.49124e-17
0.0423011
6.52708e-18
0.0423011
2.74192e-17
0.0423011
5.15582e-18
0.0423011
9.64091e-18
0.0423011
-2.44053e-19
9.02916e-18
0.0423011
0.0423011
-6.74397e-18
0.0423011
1.06506e-17
0.0423011
-5.14963e-18
0.0423011
-4.05907e-18
0.0423011
4.38516e-18
0.0423011
-2.28069e-17
0.0423011
-1.22511e-17
0.0423011
-1.4808e-17
0.0423011
-6.50215e-18
0.0423011
-2.32557e-18
0.0423011
9.65737e-18
0.0423011
-7.49135e-18
0.0423011
2.78485e-17
0.0423011
7.02785e-18
0.0423011
2.01136e-17
0.0423011
-3.82762e-19
0.0423011
-2.22226e-17
0.0423011
1.86957e-18
0.0423011
-8.04279e-18
0.0423011
-3.86277e-18
0.0423011
1.82522e-17
0.0423011
6.82414e-18
0.0423011
-5.74519e-18
0.0423011
-2.94538e-18
0.0423011
2.38146e-18
0.0423011
6.58861e-18
0.0423011
-7.32281e-18
0.0423011
-1.78705e-17
0.0423011
1.9984e-18
0.0423011
1.67083e-17
0.0423011
1.60575e-17
0.0423011
1.02886e-17
0.0423011
8.73599e-18
0.0423011
5.25066e-18
0.0423011
-2.79024e-17
0.0423011
-1.82878e-17
0.0423011
-2.6914e-17
-1.55885e-17
0.0423011
0.0423011
8.9476e-18
0.0423011
-2.55045e-17
0.0423011
7.76182e-18
0.0423011
-5.50605e-18
0.0423011
-8.3516e-18
0.0423011
-1.01923e-17
0.0423011
-8.74151e-18
0.0423011
4.10414e-18
0.0423011
-1.10501e-18
0.0423011
-7.51718e-19
0.0423011
4.80522e-18
0.0423011
-8.15523e-18
0.0423011
-3.51101e-18
0.0423011
-2.76811e-18
0.0423011
-4.87604e-18
0.0423011
-6.18923e-18
0.0423011
2.0806e-19
0.0423011
-3.65093e-18
0.0423011
2.35978e-17
0.0423011
7.32694e-18
0.0423011
-1.47313e-17
0.0423011
-3.99041e-19
0.0423011
-7.71028e-18
0.0423011
-5.71609e-18
0.0423011
5.20328e-18
0.0423011
3.83741e-18
0.0423011
9.94689e-18
0.0423011
5.42752e-18
0.0423011
8.87575e-18
0.0423011
1.362e-17
0.0423011
2.42699e-17
0.0423011
1.36947e-17
0.0423011
-6.9055e-18
0.0423011
9.33329e-20
0.0423011
1.05125e-18
0.0423011
-1.2913e-17
0.0423011
7.69015e-18
-1.76307e-17
0.0423011
0.0423011
-6.28008e-18
0.0423011
7.9298e-18
0.0423011
-1.16276e-17
0.0423011
1.14365e-18
0.0423011
-7.76654e-18
0.0423011
-1.63295e-18
0.0423011
-8.59108e-18
0.0423011
-3.01794e-18
0.0423011
2.91386e-18
0.0423011
3.20586e-18
0.0423011
1.16894e-18
0.0423011
1.43311e-17
0.0423011
-6.61718e-18
0.0423011
-3.31221e-18
0.0423011
-1.14914e-17
0.0423011
4.96166e-18
0.0423011
1.57829e-17
0.0423011
1.59355e-17
0.0423011
-1.22941e-17
0.0423011
-2.61743e-18
0.0423011
-8.21564e-19
0.0423011
-2.47746e-17
0.0423011
4.16558e-17
0.0423011
1.8821e-17
0.0423011
1.23927e-17
0.0423011
3.52048e-17
0.0423011
9.24128e-18
0.0423011
1.15143e-17
0.0423011
1.14821e-17
0.0423011
-9.9978e-18
0.0423011
6.83029e-18
0.0423011
1.14483e-17
0.0423011
1.36197e-17
0.0423011
-1.12252e-17
0.0423011
7.7909e-20
0.0423011
3.14414e-18
0.0423011
-2.17439e-17
1.44579e-17
0.0423011
0.0423011
5.96701e-18
0.0423011
-4.08449e-18
0.0423011
9.16255e-18
0.0423011
5.64491e-18
0.0423011
1.9478e-17
0.0423011
-1.35926e-18
0.0423011
-1.23276e-17
0.0423011
-9.17519e-18
0.0423011
-4.07555e-18
0.0423011
-1.3134e-18
0.0423011
-1.70709e-19
0.0423011
-4.08165e-18
0.0423011
4.41007e-18
0.0423011
-1.18841e-17
0.0423011
2.83677e-18
0.0423011
-4.49085e-18
0.0423011
-4.49061e-18
0.0423011
-3.06675e-17
0.0423011
-1.01823e-17
0.0423011
-3.54391e-17
0.0423011
-7.11677e-20
0.0423011
1.04153e-17
0.0423011
-6.28718e-18
0.0423011
2.25017e-17
0.0423011
1.42968e-17
0.0423011
4.3954e-18
0.0423011
2.07176e-18
0.0423011
1.1339e-17
0.0423011
9.32537e-18
0.0423011
-4.03188e-19
0.0423011
-5.23293e-18
0.0423011
-9.12454e-18
0.0423011
-3.1514e-17
0.0423011
-2.73278e-17
0.0423011
-4.0162e-18
0.0423011
-2.16094e-18
0.0423011
4.13586e-18
1.33974e-17
0.0423011
0.0423011
3.17135e-18
0.0423011
1.05718e-18
0.0423011
4.62553e-18
0.0423011
3.20202e-18
0.0423011
-2.55026e-18
0.0423011
5.62652e-18
0.0423011
4.44264e-18
0.0423011
-1.22211e-17
0.0423011
3.51017e-18
0.0423011
-8.54371e-18
0.0423011
3.15451e-18
0.0423011
1.26818e-17
0.0423011
-4.88668e-18
0.0423011
-8.58333e-18
0.0423011
4.32848e-18
0.0423011
-3.48359e-19
0.0423011
-1.25108e-17
0.0423011
-5.29703e-18
0.0423011
-1.80863e-17
0.0423011
1.41736e-18
0.0423011
-6.86399e-18
0.0423011
-2.77717e-18
0.0423011
-1.35673e-18
0.0423011
-4.22836e-17
0.0423011
-3.91412e-17
0.0423011
-1.12653e-17
0.0423011
2.69771e-17
0.0423011
-6.87385e-18
0.0423011
-2.79237e-17
0.0423011
-2.04832e-18
0.0423011
-2.58526e-18
0.0423011
-1.18455e-17
0.0423011
-2.52056e-17
0.0423011
-8.14569e-18
0.0423011
-3.97032e-18
0.0423011
9.15505e-19
0.0423011
-9.11101e-19
-3.06627e-17
0.0423011
0.0423011
3.91744e-18
0.0423011
1.82125e-18
0.0423011
6.97595e-19
0.0423011
4.80553e-18
0.0423011
-2.69938e-20
0.0423011
8.48844e-18
0.0423011
4.50336e-18
0.0423011
1.58096e-17
0.0423011
-9.19651e-19
0.0423011
1.20732e-18
0.0423011
2.92027e-18
0.0423011
-1.75332e-17
0.0423011
-2.62242e-17
0.0423011
-2.69372e-17
0.0423011
-5.30499e-18
0.0423011
4.3247e-17
0.0423011
1.37202e-17
0.0423011
7.72477e-18
0.0423011
6.10155e-18
0.0423011
-6.26642e-20
0.0423011
2.16529e-17
0.0423011
7.84815e-18
0.0423011
1.03126e-17
0.0423011
1.22973e-17
0.0423011
1.78713e-17
0.0423011
-1.7443e-17
0.0423011
-2.17678e-17
0.0423011
-6.08537e-18
0.0423011
1.86749e-17
0.0423011
2.33596e-17
0.0423011
-7.32544e-18
0.0423011
3.71746e-19
0.0423011
9.0861e-18
0.0423011
1.27186e-17
0.0423011
-1.70431e-18
0.0423011
3.44707e-18
0.0423011
1.64136e-18
2.00536e-18
0.0423011
0.0423011
-1.29832e-17
0.0423011
-2.56933e-19
0.0423011
-2.0889e-18
0.0423011
-1.18487e-17
0.0423011
6.29142e-19
0.0423011
-1.96854e-18
0.0423011
-8.10674e-18
0.0423011
-2.16538e-17
0.0423011
-7.91183e-18
0.0423011
6.79152e-18
0.0423011
-9.74227e-18
0.0423011
7.89075e-18
0.0423011
-2.01885e-18
0.0423011
2.51989e-17
0.0423011
5.06612e-17
0.0423011
-2.28112e-18
0.0423011
4.09535e-18
0.0423011
9.47071e-18
0.0423011
1.321e-17
0.0423011
1.95724e-17
0.0423011
2.26349e-18
0.0423011
2.33729e-17
0.0423011
9.62078e-18
0.0423011
-2.5146e-19
0.0423011
6.98896e-18
0.0423011
-7.38391e-18
0.0423011
-2.33394e-18
0.0423011
5.9144e-18
0.0423011
-3.88361e-19
0.0423011
-4.26329e-18
0.0423011
4.68355e-18
0.0423011
-5.98781e-18
0.0423011
1.34783e-18
0.0423011
-1.72975e-18
0.0423011
2.56035e-17
0.0423011
1.32101e-18
0.0423011
6.15572e-18
-3.84171e-18
0.0423011
0.0423011
2.71365e-18
0.0423011
8.14432e-18
0.0423011
2.48716e-17
0.0423011
6.25558e-18
0.0423011
-1.95616e-18
0.0423011
-9.18375e-18
0.0423011
1.08817e-17
0.0423011
-9.38939e-19
0.0423011
1.10763e-17
0.0423011
7.23478e-18
0.0423011
1.64453e-17
0.0423011
2.72029e-17
0.0423011
3.45424e-17
0.0423011
3.5814e-17
0.0423011
1.26901e-17
0.0423011
1.55269e-17
0.0423011
2.53035e-17
0.0423011
-5.64861e-18
0.0423011
1.343e-17
0.0423011
1.5902e-18
0.0423011
4.64969e-18
0.0423011
2.49304e-18
0.0423011
1.01984e-17
0.0423011
1.50161e-18
0.0423011
1.85757e-19
0.0423011
-6.2706e-18
0.0423011
1.68279e-18
0.0423011
1.18968e-17
0.0423011
-2.16948e-17
0.0423011
-5.53086e-18
0.0423011
-5.69351e-18
0.0423011
-6.93062e-18
0.0423011
-6.21586e-18
0.0423011
-2.92866e-17
0.0423011
-2.93064e-18
0.0423011
4.6581e-18
0.0423011
-1.48115e-17
5.68063e-18
0.0423011
0.0423011
9.27665e-18
0.0423011
6.34556e-19
0.0423011
-1.55301e-18
0.0423011
-3.32902e-18
0.0423011
-1.74192e-18
0.0423011
8.56348e-18
0.0423011
1.93015e-18
0.0423011
-1.14339e-18
0.0423011
-2.63943e-18
0.0423011
2.07714e-19
0.0423011
2.61942e-17
0.0423011
3.72009e-17
0.0423011
3.82075e-17
0.0423011
1.99812e-17
0.0423011
9.18345e-18
0.0423011
1.67336e-17
0.0423011
1.74808e-17
0.0423011
2.80396e-17
0.0423011
1.97653e-17
0.0423011
4.36453e-17
0.0423011
2.76662e-18
0.0423011
1.82902e-17
0.0423011
-3.52748e-17
0.0423011
1.27773e-17
0.0423011
1.12646e-17
0.0423011
1.13804e-17
0.0423011
6.01703e-18
0.0423011
1.26307e-17
0.0423011
-4.97904e-18
0.0423011
-2.73562e-17
0.0423011
-1.25822e-17
0.0423011
1.71414e-17
0.0423011
-1.80271e-17
0.0423011
6.80214e-18
0.0423011
-2.80913e-18
0.0423011
-4.16e-18
0.0423011
7.16024e-19
2.65126e-17
0.0423011
0.0423011
2.2362e-18
0.0423011
1.0729e-17
0.0423011
-1.3489e-18
0.0423011
-8.21111e-18
0.0423011
2.12819e-17
0.0423011
2.24439e-17
0.0423011
-1.73563e-18
0.0423011
7.45634e-18
0.0423011
1.53515e-17
0.0423011
2.43755e-17
0.0423011
-2.23298e-19
0.0423011
-1.22743e-17
0.0423011
2.60467e-18
0.0423011
1.07679e-17
0.0423011
1.76772e-18
0.0423011
4.07309e-17
0.0423011
2.5334e-17
0.0423011
4.57591e-17
0.0423011
3.26605e-17
0.0423011
1.46297e-17
0.0423011
7.51836e-18
0.0423011
-1.85626e-17
0.0423011
-2.60552e-17
0.0423011
-1.92286e-17
0.0423011
-3.49588e-17
0.0423011
-3.30964e-17
0.0423011
-4.77045e-18
0.0423011
-2.7759e-18
0.0423011
1.67309e-17
0.0423011
1.78336e-17
0.0423011
1.67301e-18
0.0423011
-6.34617e-18
0.0423011
2.99501e-17
0.0423011
-2.07533e-17
0.0423011
-3.76277e-17
0.0423011
-2.28339e-17
0.0423011
5.92785e-18
2.12677e-17
0.0423011
0.0423011
6.34479e-18
0.0423011
-3.40186e-18
0.0423011
-1.4902e-17
0.0423011
-1.62861e-17
0.0423011
-3.16433e-17
0.0423011
4.18007e-18
0.0423011
1.1279e-17
0.0423011
1.03516e-17
0.0423011
2.80966e-17
0.0423011
2.55714e-17
0.0423011
2.49359e-17
0.0423011
9.0249e-18
0.0423011
-1.37469e-17
0.0423011
1.94914e-17
0.0423011
1.16646e-17
0.0423011
-3.10889e-18
0.0423011
1.80101e-17
0.0423011
2.72311e-17
0.0423011
2.78688e-17
0.0423011
2.47508e-17
0.0423011
7.51159e-18
0.0423011
-1.54076e-17
0.0423011
-3.33619e-17
0.0423011
-1.36278e-17
0.0423011
-1.49485e-17
0.0423011
-2.94892e-18
0.0423011
-1.80245e-17
0.0423011
-5.29545e-18
0.0423011
6.10415e-19
0.0423011
3.39284e-17
0.0423011
-3.55784e-18
0.0423011
-3.01447e-17
0.0423011
-2.57962e-17
0.0423011
-1.29638e-17
0.0423011
-1.95892e-17
0.0423011
-8.09659e-18
0.0423011
-7.13543e-18
-1.63991e-17
0.0423011
0.0423011
-3.02633e-18
0.0423011
-1.80845e-17
0.0423011
4.05755e-18
0.0423011
2.20364e-17
0.0423011
2.51636e-17
0.0423011
7.8872e-18
0.0423011
1.67693e-17
0.0423011
1.973e-17
0.0423011
1.50902e-17
0.0423011
-3.19641e-18
0.0423011
-5.16646e-18
0.0423011
1.38914e-17
0.0423011
7.57714e-18
0.0423011
6.84664e-18
0.0423011
1.83749e-17
0.0423011
1.16984e-17
0.0423011
1.99952e-17
0.0423011
1.46033e-17
0.0423011
1.46338e-18
0.0423011
-2.49295e-17
0.0423011
-6.21165e-18
0.0423011
1.48145e-19
0.0423011
4.91025e-18
0.0423011
-8.855e-18
0.0423011
-9.03219e-18
0.0423011
-6.32293e-18
0.0423011
-3.35343e-18
0.0423011
1.75009e-18
0.0423011
1.60021e-18
0.0423011
-6.85208e-18
0.0423011
8.66956e-19
0.0423011
-1.46346e-17
0.0423011
-3.33106e-17
0.0423011
-9.65995e-18
0.0423011
-2.78843e-19
0.0423011
-2.57074e-17
0.0423011
-1.92037e-17
-2.19661e-18
0.0423011
0.0423011
-3.06988e-18
0.0423011
-1.22726e-17
0.0423011
1.12814e-17
0.0423011
1.31713e-17
0.0423011
4.72065e-18
0.0423011
-7.08776e-19
0.0423011
-5.23228e-18
0.0423011
1.63276e-18
0.0423011
5.57451e-18
0.0423011
1.15038e-17
0.0423011
9.61721e-18
0.0423011
-3.99953e-18
0.0423011
1.14933e-17
0.0423011
1.20657e-17
0.0423011
1.33382e-17
0.0423011
8.01977e-18
0.0423011
8.59407e-18
0.0423011
3.97108e-18
0.0423011
-4.5894e-18
0.0423011
1.73796e-19
0.0423011
-1.21359e-17
0.0423011
-2.79256e-18
0.0423011
8.70057e-19
0.0423011
-2.1426e-17
0.0423011
-1.36495e-17
0.0423011
4.52793e-18
0.0423011
9.55784e-18
0.0423011
-5.92025e-18
0.0423011
-2.51179e-17
0.0423011
-2.96113e-17
0.0423011
-2.30114e-19
0.0423011
-7.0431e-18
0.0423011
3.54316e-18
0.0423011
-9.4729e-18
0.0423011
5.15219e-18
0.0423011
1.1091e-17
0.0423011
4.82035e-19
-4.0202e-18
0.0423011
0.0423011
2.46743e-17
0.0423011
2.0985e-19
0.0423011
2.21119e-18
0.0423011
6.99787e-18
0.0423011
1.65821e-17
0.0423011
6.21695e-18
0.0423011
7.63642e-18
0.0423011
-2.22126e-17
0.0423011
2.67514e-17
0.0423011
6.3781e-18
0.0423011
6.80255e-18
0.0423011
1.01059e-17
0.0423011
4.63051e-17
0.0423011
1.2174e-17
0.0423011
1.30328e-17
0.0423011
2.00512e-17
0.0423011
-5.67047e-18
0.0423011
-8.59608e-18
0.0423011
-2.26948e-18
0.0423011
6.39085e-18
0.0423011
4.35422e-18
0.0423011
7.5529e-18
0.0423011
-2.8615e-18
0.0423011
2.20608e-17
0.0423011
6.76346e-18
0.0423011
4.57119e-18
0.0423011
-1.36313e-17
0.0423011
-7.6865e-18
0.0423011
-9.15213e-18
0.0423011
-7.93396e-18
0.0423011
-1.73465e-17
0.0423011
3.64927e-18
0.0423011
-2.29277e-17
0.0423011
1.01625e-17
0.0423011
-2.86406e-18
0.0423011
2.83198e-18
0.0423011
1.61476e-17
1.58813e-17
0.0423011
0.0423011
-7.45914e-18
0.0423011
-3.52976e-18
0.0423011
1.72286e-18
0.0423011
1.31561e-18
0.0423011
1.03459e-17
0.0423011
2.8441e-17
0.0423011
6.42003e-18
0.0423011
-2.51392e-19