/*--------------------------------*- C++ -*----------------------------------*\
| =========                 |                                                 |
| \\      /  F ield         | OpenFOAM: The Open Source CFD Toolbox           |
|  \\    /   O peration     | Version:  v1812                                 |
|   \\  /    A nd           | Web:      www.OpenFOAM.com                      |
|    \\/     M anipulation  |                                                 |
\*---------------------------------------------------------------------------*/
FoamFile
{
    version     2.0;
    format      ascii;
    class       volVectorField;
    location    "0.001";
    object      U;
}
// * * * * * * * * * * * * * * * * * * * * * * * * * * * * * * * * * * * * * //

dimensions      [0 1 -1 0 0 0 0];


internalField   nonuniform List<vector> 
8475
(
(851.84 3.95703e-14 0)
(851.84 -9.54721e-14 0)
(851.84 -6.66765e-14 0)
(851.84 -5.73996e-14 0)
(851.84 -2.56496e-13 0)
(851.84 -5.09878e-13 0)
(851.84 -2.34177e-13 0)
(851.84 -3.35363e-13 0)
(851.84 -4.87456e-13 0)
(851.84 -5.82602e-13 0)
(851.84 -5.55202e-13 0)
(851.84 -5.30815e-13 0)
(851.84 -4.08279e-13 0)
(851.84 -5.28366e-13 0)
(851.84 -3.76187e-13 0)
(851.84 2.78281e-14 0)
(851.84 5.53475e-13 0)
(851.84 8.27525e-13 0)
(851.84 1.79314e-12 0)
(851.84 1.66911e-12 0)
(851.84 2.68178e-12 0)
(851.84 2.79006e-12 0)
(851.84 2.78909e-12 0)
(851.84 2.46821e-12 0)
(851.84 2.58624e-12 0)
(851.84 2.64441e-12 0)
(851.84 2.91593e-12 0)
(851.84 3.01981e-12 0)
(851.84 3.08333e-12 0)
(851.84 2.81424e-12 0)
(851.84 2.38199e-12 0)
(851.84 8.54269e-13 0)
(851.84 2.47806e-10 0)
(851.84 -1.26018e-08 0)
(851.84 1.35723e-06 0)
(851.84 -7.70475e-05 0)
(851.832 0.00757511 0)
(851.362 -0.433522 0)
(851.84 -4.39576e-14 0)
(851.84 -1.351e-13 0)
(851.84 -2.44492e-13 0)
(851.84 -6.66137e-13 0)
(851.84 -7.39813e-13 0)
(851.84 -8.84879e-13 0)
(851.84 -5.82349e-13 0)
(851.84 -5.59307e-13 0)
(851.84 -6.70117e-13 0)
(851.84 -6.81937e-13 0)
(851.84 -5.7334e-13 0)
(851.84 -6.86823e-13 0)
(851.84 -6.10248e-13 0)
(851.84 -4.91613e-13 0)
(851.84 -3.31358e-13 0)
(851.84 7.95001e-14 0)
(851.84 2.11205e-13 0)
(851.84 1.71513e-13 0)
(851.84 8.18371e-13 0)
(851.84 9.67081e-13 0)
(851.84 9.21504e-13 0)
(851.84 1.10439e-12 0)
(851.84 1.41444e-12 0)
(851.84 1.35194e-12 0)
(851.84 1.38529e-12 0)
(851.84 1.28351e-12 0)
(851.84 1.29351e-12 0)
(851.84 1.48921e-12 0)
(851.84 1.92061e-12 0)
(851.84 1.43849e-12 0)
(851.84 1.23854e-12 0)
(851.84 3.78349e-12 0)
(851.84 1.54011e-10 0)
(851.84 1.07432e-08 0)
(851.84 5.31631e-07 0)
(851.84 4.49527e-05 0)
(851.837 0.00134706 0)
(851.725 0.195695 0)
(851.84 6.26036e-14 0)
(851.84 -1.93476e-13 0)
(851.84 -9.8431e-14 0)
(851.84 -5.0106e-13 0)
(851.84 -7.9642e-13 0)
(851.84 -7.70969e-13 0)
(851.84 -7.42075e-13 0)
(851.84 -7.47657e-13 0)
(851.84 -6.25991e-13 0)
(851.84 -5.52359e-13 0)
(851.84 -5.8477e-13 0)
(851.84 -4.48459e-13 0)
(851.84 -5.35915e-13 0)
(851.84 -4.03e-13 0)
(851.84 -3.1753e-13 0)
(851.84 -2.8657e-13 0)
(851.84 -1.76631e-13 0)
(851.84 -2.52486e-14 0)
(851.84 -1.39505e-13 0)
(851.84 3.01884e-13 0)
(851.84 8.46201e-13 0)
(851.84 9.68857e-13 0)
(851.84 7.80951e-13 0)
(851.84 8.99081e-13 0)
(851.84 8.51163e-13 0)
(851.84 8.30864e-13 0)
(851.84 1.13072e-12 0)
(851.84 7.84831e-13 0)
(851.84 1.45555e-12 0)
(851.84 1.50032e-12 0)
(851.84 1.45072e-12 0)
(851.84 2.73549e-12 0)
(851.84 4.22743e-11 0)
(851.84 5.25916e-09 0)
(851.84 1.08503e-07 0)
(851.84 1.36656e-05 0)
(851.84 0.000219804 0)
(851.823 0.0302568 0)
(851.84 -1.13324e-13 0)
(851.84 -9.88209e-14 0)
(851.84 -8.81435e-14 0)
(851.84 -6.9226e-14 0)
(851.84 -1.31824e-13 0)
(851.84 -1.03122e-13 0)
(851.84 -4.2504e-13 0)
(851.84 -5.79082e-13 0)
(851.84 -6.25148e-13 0)
(851.84 -7.54407e-13 0)
(851.84 -6.55048e-13 0)
(851.84 -6.25874e-13 0)
(851.84 -5.62974e-13 0)
(851.84 -6.21162e-13 0)
(851.84 -5.63428e-13 0)
(851.84 -4.98416e-13 0)
(851.84 -3.89523e-13 0)
(851.84 -2.61891e-13 0)
(851.84 8.09268e-14 0)
(851.84 1.77292e-13 0)
(851.84 3.45715e-13 0)
(851.84 3.85025e-13 0)
(851.84 4.53415e-13 0)
(851.84 3.57891e-13 0)
(851.84 7.38027e-13 0)
(851.84 1.13036e-12 0)
(851.84 1.30838e-12 0)
(851.84 1.33111e-12 0)
(851.84 1.18882e-12 0)
(851.84 1.41394e-12 0)
(851.84 1.10481e-12 0)
(851.84 1.59399e-12 0)
(851.84 5.0525e-13 0)
(851.84 1.12322e-09 0)
(851.84 1.21837e-09 0)
(851.84 2.02248e-06 0)
(851.84 1.93929e-06 0)
(851.839 0.00315665 0)
(851.84 5.62768e-14 0)
(851.84 2.40667e-13 0)
(851.84 -1.10481e-13 0)
(851.84 -1.13542e-13 0)
(851.84 6.13286e-14 0)
(851.84 1.29662e-13 0)
(851.84 -2.29865e-14 0)
(851.84 -2.97298e-13 0)
(851.84 -5.12188e-13 0)
(851.84 -7.83677e-13 0)
(851.84 -9.09813e-13 0)
(851.84 -8.48582e-13 0)
(851.84 -6.50477e-13 0)
(851.84 -6.71193e-13 0)
(851.84 -7.21251e-13 0)
(851.84 -1.04027e-12 0)
(851.84 -7.94411e-13 0)
(851.84 -6.82364e-13 0)
(851.84 -4.10441e-13 0)
(851.84 -2.5427e-13 0)
(851.84 -2.2493e-13 0)
(851.84 -2.03434e-13 0)
(851.84 -1.00299e-13 0)
(851.84 3.49346e-13 0)
(851.84 3.80652e-13 0)
(851.84 2.15639e-14 0)
(851.84 6.60427e-13 0)
(851.84 8.11095e-13 0)
(851.84 1.05876e-12 0)
(851.84 1.1364e-12 0)
(851.84 9.88362e-13 0)
(851.84 1.22775e-12 0)
(851.84 1.35375e-12 0)
(851.84 9.95292e-11 0)
(851.84 -1.51298e-10 0)
(851.84 1.30869e-07 0)
(851.84 -6.68358e-08 0)
(851.84 0.000180143 0)
(851.84 6.95593e-15 0)
(851.84 -1.07349e-13 0)
(851.84 -7.37423e-14 0)
(851.84 1.92929e-14 0)
(851.84 -8.40437e-15 0)
(851.84 -1.07944e-14 0)
(851.84 1.13068e-13 0)
(851.84 -9.9677e-14 0)
(851.84 -2.37217e-13 0)
(851.84 -2.9759e-13 0)
(851.84 -2.40563e-13 0)
(851.84 -3.44745e-13 0)
(851.84 -3.15625e-13 0)
(851.84 -1.88643e-13 0)
(851.84 -2.73026e-13 0)
(851.84 -3.06482e-13 0)
(851.84 -3.81875e-13 0)
(851.84 -5.09255e-13 0)
(851.84 -5.32148e-13 0)
(851.84 -6.08289e-13 0)
(851.84 -4.80499e-13 0)
(851.84 -4.64331e-13 0)
(851.84 -5.10952e-13 0)
(851.84 -1.94952e-13 0)
(851.84 1.77269e-13 0)
(851.84 1.29536e-13 0)
(851.84 -2.06656e-13 0)
(851.84 -7.80349e-14 0)
(851.84 -1.65598e-13 0)
(851.84 -2.34219e-14 0)
(851.84 4.99016e-13 0)
(851.84 4.05987e-13 0)
(851.84 6.63501e-13 0)
(851.84 3.21552e-12 0)
(851.84 -1.1297e-11 0)
(851.84 5.3286e-09 0)
(851.84 -4.3559e-09 0)
(851.84 7.38337e-06 0)
(851.84 -1.03792e-13 0)
(851.84 -1.72126e-13 0)
(851.84 3.20899e-14 0)
(851.84 -1.84342e-13 0)
(851.84 -2.41567e-13 0)
(851.84 -2.81821e-13 0)
(851.84 -1.3653e-13 0)
(851.84 5.25195e-14 0)
(851.84 7.21003e-14 0)
(851.84 9.52512e-14 0)
(851.84 2.07181e-13 0)
(851.84 1.35536e-13 0)
(851.84 -2.60297e-13 0)
(851.84 -2.41836e-13 0)
(851.84 -3.9018e-13 0)
(851.84 -4.10084e-13 0)
(851.84 -3.66646e-13 0)
(851.84 -3.23356e-13 0)
(851.84 -5.58001e-13 0)
(851.84 -6.95517e-13 0)
(851.84 -5.75579e-13 0)
(851.84 -4.89702e-13 0)
(851.84 -3.29941e-13 0)
(851.84 -9.72554e-14 0)
(851.84 2.6076e-14 0)
(851.84 4.42409e-13 0)
(851.84 -1.17329e-14 0)
(851.84 -8.56298e-15 0)
(851.84 -2.26767e-13 0)
(851.84 1.35019e-13 0)
(851.84 2.75678e-13 0)
(851.84 3.46872e-13 0)
(851.84 4.77212e-13 0)
(851.84 7.62994e-13 0)
(851.84 -7.39149e-13 0)
(851.84 1.53717e-10 0)
(851.84 -4.42727e-11 0)
(851.84 2.28104e-07 0)
(851.84 -9.26391e-14 0)
(851.84 3.31957e-13 0)
(851.84 -3.04474e-14 0)
(851.84 5.70067e-14 0)
(851.84 -3.86713e-13 0)
(851.84 -5.62762e-13 0)
(851.84 -2.44661e-13 0)
(851.84 3.9347e-15 0)
(851.84 5.57918e-14 0)
(851.84 5.95428e-14 0)
(851.84 1.55673e-13 0)
(851.84 7.07594e-13 0)
(851.84 4.84592e-13 0)
(851.84 7.03016e-17 0)
(851.84 6.74309e-14 0)
(851.84 -3.27577e-13 0)
(851.84 -4.97469e-13 0)
(851.84 -5.31896e-13 0)
(851.84 -5.61673e-13 0)
(851.84 -5.01676e-13 0)
(851.84 -5.27186e-13 0)
(851.84 -3.26554e-13 0)
(851.84 -2.95118e-13 0)
(851.84 -3.23359e-13 0)
(851.84 -3.65724e-13 0)
(851.84 -2.50114e-13 0)
(851.84 -1.39783e-13 0)
(851.84 -9.37557e-14 0)
(851.84 2.15303e-14 0)
(851.84 5.03485e-14 0)
(851.84 7.89251e-14 0)
(851.84 6.97194e-14 0)
(851.84 -2.66192e-14 0)
(851.84 9.39324e-14 0)
(851.84 -4.14633e-14 0)
(851.84 1.4685e-12 0)
(851.84 -4.26586e-12 0)
(851.84 5.79723e-09 0)
(851.84 1.20808e-13 0)
(851.84 1.05592e-13 0)
(851.84 1.53484e-13 0)
(851.84 1.12431e-13 0)
(851.84 2.6415e-13 0)
(851.84 3.74547e-13 0)
(851.84 2.52757e-13 0)
(851.84 2.06116e-13 0)
(851.84 8.29718e-14 0)
(851.84 -4.04186e-14 0)
(851.84 -3.8045e-14 0)
(851.84 -2.62516e-13 0)
(851.84 9.97304e-14 0)
(851.84 -1.22992e-14 0)
(851.84 -1.24067e-13 0)
(851.84 -2.18856e-13 0)
(851.84 -3.31641e-13 0)
(851.84 -4.86493e-13 0)
(851.84 -3.01757e-13 0)
(851.84 -2.72648e-13 0)
(851.84 -2.75299e-13 0)
(851.84 -2.96529e-13 0)
(851.84 -3.04451e-13 0)
(851.84 -3.83383e-13 0)
(851.84 -3.81514e-13 0)
(851.84 -6.08841e-13 0)
(851.84 -4.33149e-13 0)
(851.84 -4.14944e-13 0)
(851.84 -2.46416e-13 0)
(851.84 1.10151e-13 0)
(851.84 1.60906e-13 0)
(851.84 6.43491e-14 0)
(851.84 1.28857e-14 0)
(851.84 2.79342e-13 0)
(851.84 2.18203e-13 0)
(851.84 2.34073e-13 0)
(851.84 -1.53216e-12 0)
(851.84 1.32066e-10 0)
(851.84 -4.72346e-14 0)
(851.84 -1.08585e-13 0)
(851.84 3.26595e-14 0)
(851.84 1.42927e-13 0)
(851.84 3.257e-13 0)
(851.84 2.76362e-13 0)
(851.84 1.51871e-13 0)
(851.84 1.31577e-13 0)
(851.84 5.16458e-14 0)
(851.84 6.43957e-15 0)
(851.84 5.51451e-14 0)
(851.84 -1.58642e-13 0)
(851.84 1.24427e-13 0)
(851.84 1.20025e-13 0)
(851.84 1.50461e-14 0)
(851.84 -8.66607e-14 0)
(851.84 -3.58584e-13 0)
(851.84 -4.31762e-13 0)
(851.84 -2.83419e-13 0)
(851.84 -3.89425e-13 0)
(851.84 -1.55589e-13 0)
(851.84 -2.84186e-13 0)
(851.84 5.31194e-14 0)
(851.84 -2.56517e-13 0)
(851.84 -1.88963e-13 0)
(851.84 -1.28745e-13 0)
(851.84 -3.69041e-13 0)
(851.84 -4.08476e-13 0)
(851.84 -4.54755e-13 0)
(851.84 -2.61542e-13 0)
(851.84 -2.53797e-13 0)
(851.84 7.8869e-14 0)
(851.84 4.00972e-14 0)
(851.84 -4.14878e-14 0)
(851.84 -2.77054e-13 0)
(851.84 -8.55321e-14 0)
(851.84 -1.75795e-13 0)
(851.84 1.02717e-12 0)
(851.84 -1.72128e-14 0)
(851.84 -2.32996e-13 0)
(851.84 -3.53104e-13 0)
(851.84 -1.28919e-13 0)
(851.84 -7.18552e-15 0)
(851.84 9.92461e-14 0)
(851.84 1.466e-13 0)
(851.84 1.33081e-13 0)
(851.84 3.93227e-15 0)
(851.84 1.2828e-13 0)
(851.84 1.15241e-14 0)
(851.84 -2.37115e-13 0)
(851.84 -3.5758e-13 0)
(851.84 -1.50219e-13 0)
(851.84 -5.54817e-14 0)
(851.84 -1.63633e-13 0)
(851.84 -1.30858e-13 0)
(851.84 -4.47398e-13 0)
(851.84 -4.20088e-13 0)
(851.84 -2.74918e-13 0)
(851.84 -2.76745e-13 0)
(851.84 -1.5212e-13 0)
(851.84 -6.51235e-14 0)
(851.84 -7.34511e-14 0)
(851.84 -6.33032e-15 0)
(851.84 -2.3147e-13 0)
(851.84 -2.11433e-17 0)
(851.84 -1.93941e-13 0)
(851.84 -1.98226e-13 0)
(851.84 -3.4558e-13 0)
(851.84 -6.8469e-14 0)
(851.84 -1.72996e-13 0)
(851.84 -2.73373e-14 0)
(851.84 -1.9818e-13 0)
(851.84 5.63704e-14 0)
(851.84 -7.23689e-14 0)
(851.84 -6.06883e-14 0)
(851.84 -3.74608e-13 0)
(851.84 2.72452e-14 0)
(851.84 1.77582e-13 0)
(851.84 -4.83549e-14 0)
(851.84 1.27866e-13 0)
(851.84 2.16006e-13 0)
(851.84 1.0888e-13 0)
(851.84 1.72514e-13 0)
(851.84 1.105e-14 0)
(851.84 3.50832e-14 0)
(851.84 -2.42679e-14 0)
(851.84 -2.80662e-13 0)
(851.84 -1.83846e-13 0)
(851.84 -2.75227e-13 0)
(851.84 -2.82019e-13 0)
(851.84 1.83086e-14 0)
(851.84 4.2761e-13 0)
(851.84 1.10307e-13 0)
(851.84 -2.06175e-13 0)
(851.84 -6.18169e-13 0)
(851.84 -5.51538e-13 0)
(851.84 -4.9539e-13 0)
(851.84 -3.17792e-13 0)
(851.84 -3.11311e-13 0)
(851.84 -3.68314e-13 0)
(851.84 -3.34502e-13 0)
(851.84 -6.04038e-13 0)
(851.84 -3.683e-13 0)
(851.84 -1.77665e-13 0)
(851.84 -2.35306e-13 0)
(851.84 -3.64902e-13 0)
(851.84 -2.63737e-13 0)
(851.84 -7.69088e-14 0)
(851.84 1.69807e-13 0)
(851.84 3.32803e-13 0)
(851.84 3.55062e-13 0)
(851.84 4.426e-13 0)
(851.84 3.39603e-13 0)
(851.84 3.92017e-13 0)
(851.84 1.43027e-14 0)
(851.84 -1.89978e-14 0)
(851.84 1.4535e-13 0)
(851.84 -5.00736e-14 0)
(851.84 -2.10151e-13 0)
(851.84 2.34657e-14 0)
(851.84 -2.14776e-14 0)
(851.84 4.08161e-14 0)
(851.84 4.60902e-14 0)
(851.84 1.01088e-13 0)
(851.84 2.20817e-14 0)
(851.84 3.52987e-15 0)
(851.84 6.91786e-14 0)
(851.84 1.51565e-13 0)
(851.84 5.65431e-14 0)
(851.84 -2.4361e-13 0)
(851.84 9.07271e-14 0)
(851.84 -1.86178e-13 0)
(851.84 -4.73505e-13 0)
(851.84 -5.47154e-13 0)
(851.84 -3.04905e-13 0)
(851.84 -3.48974e-13 0)
(851.84 -2.54446e-13 0)
(851.84 -6.4358e-14 0)
(851.84 -3.20083e-13 0)
(851.84 -2.3461e-13 0)
(851.84 -1.05817e-13 0)
(851.84 -3.47957e-14 0)
(851.84 -9.9146e-14 0)
(851.84 -3.31397e-13 0)
(851.84 -4.87622e-13 0)
(851.84 -2.87399e-13 0)
(851.84 1.8766e-13 0)
(851.84 5.88132e-13 0)
(851.84 4.93406e-13 0)
(851.84 3.78992e-13 0)
(851.84 2.79201e-13 0)
(851.84 2.11974e-13 0)
(851.84 1.14066e-15 0)
(851.84 8.1736e-15 0)
(851.84 -3.91266e-14 0)
(851.84 -9.41304e-14 0)
(851.84 -9.55723e-14 0)
(851.84 -1.25538e-13 0)
(851.84 -1.31468e-13 0)
(851.84 1.56403e-14 0)
(851.84 1.48498e-14 0)
(851.84 -7.45543e-14 0)
(851.84 -4.47303e-14 0)
(851.84 -4.69059e-14 0)
(851.84 2.99096e-13 0)
(851.84 2.41448e-13 0)
(851.84 5.17004e-14 0)
(851.84 -1.46807e-13 0)
(851.84 -3.18797e-13 0)
(851.84 -8.34336e-14 0)
(851.84 -1.40332e-13 0)
(851.84 -2.44505e-14 0)
(851.84 -3.34483e-14 0)
(851.84 -1.4774e-13 0)
(851.84 4.5818e-14 0)
(851.84 1.0066e-13 0)
(851.84 1.02042e-13 0)
(851.84 -1.58966e-13 0)
(851.84 -1.19675e-13 0)
(851.84 -5.32863e-14 0)
(851.84 6.75144e-14 0)
(851.84 4.34685e-13 0)
(851.84 4.47089e-13 0)
(851.84 5.39102e-13 0)
(851.84 7.06607e-13 0)
(851.84 6.921e-13 0)
(851.84 7.24296e-13 0)
(851.84 2.27767e-13 0)
(851.84 1.49627e-13 0)
(851.84 1.99852e-13 0)
(851.84 1.26886e-14 0)
(851.84 1.49159e-14 0)
(851.84 -9.56476e-14 0)
(851.84 -1.33146e-14 0)
(851.84 -4.71217e-14 0)
(851.84 -9.3477e-14 0)
(851.84 -1.44781e-14 0)
(851.84 -1.00676e-13 0)
(851.84 -9.67632e-15 0)
(851.84 6.86422e-14 0)
(851.84 8.28696e-15 0)
(851.84 2.0177e-14 0)
(851.84 -1.0585e-13 0)
(851.84 -5.60653e-14 0)
(851.84 -2.05429e-13 0)
(851.84 -2.4534e-13 0)
(851.84 -3.77138e-13 0)
(851.84 1.4845e-13 0)
(851.84 2.04077e-13 0)
(851.84 1.79696e-13 0)
(851.84 -1.24388e-13 0)
(851.84 -6.23045e-14 0)
(851.84 -7.08163e-14 0)
(851.84 -1.01988e-13 0)
(851.84 -1.01116e-13 0)
(851.84 -1.02721e-13 0)
(851.84 -2.02552e-14 0)
(851.84 4.67134e-14 0)
(851.84 9.33431e-14 0)
(851.84 1.74155e-13 0)
(851.84 3.32557e-14 0)
(851.84 7.43451e-14 0)
(851.84 -5.40654e-13 0)
(851.84 -4.93456e-13 0)
(851.84 -3.91298e-13 0)
(851.84 3.43206e-14 0)
(851.84 5.57733e-14 0)
(851.84 6.73347e-14 0)
(851.84 3.73209e-15 0)
(851.84 -7.97715e-14 0)
(851.84 -2.3076e-14 0)
(851.84 -9.30075e-14 0)
(851.84 8.25222e-14 0)
(851.84 1.59381e-14 0)
(851.84 -8.60993e-14 0)
(851.84 -1.68065e-13 0)
(851.84 -1.55807e-13 0)
(851.84 -1.46973e-13 0)
(851.84 1.11336e-13 0)
(851.84 3.00193e-13 0)
(851.84 2.81179e-14 0)
(851.84 2.79148e-14 0)
(851.84 -1.6583e-13 0)
(851.84 -1.47787e-13 0)
(851.84 -1.2472e-15 0)
(851.84 -2.86858e-14 0)
(851.84 1.79449e-13 0)
(851.84 2.7329e-13 0)
(851.84 2.6551e-13 0)
(851.84 6.83246e-14 0)
(851.84 -2.95649e-13 0)
(851.84 -2.14637e-13 0)
(851.84 -2.89814e-13 0)
(851.84 1.5602e-13 0)
(851.84 -9.6409e-14 0)
(851.84 3.55029e-14 0)
(851.84 6.0949e-13 0)
(851.84 2.71653e-13 0)
(851.84 -1.22926e-13 0)
(851.84 1.14183e-13 0)
(851.84 -1.27741e-13 0)
(851.84 -3.51119e-13 0)
(851.84 -4.15378e-13 0)
(851.84 -2.93805e-13 0)
(851.84 -2.90615e-13 0)
(851.84 -4.09226e-13 0)
(851.84 -3.47964e-14 0)
(851.84 -9.54154e-15 0)
(851.84 4.0177e-14 0)
(851.84 -1.40095e-14 0)
(851.84 -1.05681e-13 0)
(851.84 3.71723e-14 0)
(851.84 9.7216e-14 0)
(851.84 8.54975e-14 0)
(851.84 -1.6132e-13 0)
(851.84 -3.11177e-13 0)
(851.84 -2.98761e-13 0)
(851.84 -1.2861e-13 0)
(851.84 -1.1198e-13 0)
(851.84 -7.60806e-15 0)
(851.84 2.20328e-14 0)
(851.84 -4.274e-14 0)
(851.84 2.99033e-15 0)
(851.84 7.83868e-15 0)
(851.84 3.3554e-13 0)
(851.84 1.64199e-13 0)
(851.84 5.43003e-15 0)
(851.84 -2.80216e-14 0)
(851.84 -1.73378e-13 0)
(851.84 -1.78407e-13 0)
(851.84 3.60124e-13 0)
(851.84 1.40156e-13 0)
(851.84 2.41868e-13 0)
(851.84 3.37468e-13 0)
(851.84 4.24657e-13 0)
(851.84 4.97123e-13 0)
(851.84 4.39055e-13 0)
(851.84 5.31223e-14 0)
(851.84 7.46679e-14 0)
(851.84 2.55306e-13 0)
(851.84 8.05719e-15 0)
(851.84 -1.20338e-13 0)
(851.84 -2.35897e-13 0)
(851.84 1.16622e-13 0)
(851.84 -1.10285e-13 0)
(851.84 1.45219e-13 0)
(851.84 1.52475e-13 0)
(851.84 1.57479e-13 0)
(851.84 3.01482e-14 0)
(851.84 7.4242e-14 0)
(851.84 -1.05654e-13 0)
(851.84 -5.30495e-15 0)
(851.84 1.36036e-13 0)
(851.84 3.99503e-13 0)
(851.84 7.69744e-14 0)
(851.84 -2.823e-13 0)
(851.84 -2.30699e-13 0)
(851.84 -1.98724e-13 0)
(851.84 -6.10113e-14 0)
(851.84 -1.26553e-13 0)
(851.84 1.26124e-13 0)
(851.84 -1.57024e-14 0)
(851.84 1.6572e-13 0)
(851.84 -1.37278e-13 0)
(851.84 -2.46803e-13 0)
(851.84 -3.98334e-13 0)
(851.84 -4.18845e-13 0)
(851.84 -3.75537e-13 0)
(851.84 -3.12818e-13 0)
(851.84 -3.39923e-13 0)
(851.84 -3.07052e-13 0)
(851.84 -3.77405e-13 0)
(851.84 -4.60129e-13 0)
(851.84 -3.49631e-13 0)
(851.84 -1.58115e-13 0)
(851.84 -3.16115e-13 0)
(851.84 -4.00267e-13 0)
(851.84 -1.06639e-13 0)
(851.84 2.41486e-14 0)
(851.84 1.47672e-13 0)
(851.84 5.13777e-13 0)
(851.84 4.34559e-13 0)
(851.84 1.04394e-13 0)
(851.84 -4.61101e-14 0)
(851.84 1.21134e-13 0)
(851.84 -1.8812e-14 0)
(851.84 -2.81574e-14 0)
(851.84 -1.42277e-13 0)
(851.84 -5.4263e-14 0)
(851.84 -1.46186e-13 0)
(851.84 4.57297e-14 0)
(851.84 1.26768e-13 0)
(851.84 2.08138e-13 0)
(851.84 4.39929e-13 0)
(851.84 1.72158e-13 0)
(851.84 -1.96646e-13 0)
(851.84 -3.79489e-14 0)
(851.84 3.03529e-14 0)
(851.84 5.23916e-14 0)
(851.84 8.19617e-14 0)
(851.84 1.87771e-15 0)
(851.84 -1.88806e-14 0)
(851.84 -5.37274e-14 0)
(851.84 9.65703e-14 0)
(851.84 4.75683e-13 0)
(851.84 1.82774e-13 0)
(851.84 -1.35676e-13 0)
(851.84 -2.53548e-13 0)
(851.84 -2.42013e-13 0)
(851.84 -2.3233e-13 0)
(851.84 -3.34968e-13 0)
(851.84 -3.66182e-13 0)
(851.84 -1.19969e-13 0)
(851.84 4.82378e-14 0)
(851.84 1.63976e-13 0)
(851.84 6.26864e-14 0)
(851.84 1.3833e-13 0)
(851.84 2.70021e-13 0)
(851.84 2.37119e-13 0)
(851.84 2.68099e-13 0)
(851.84 -7.18634e-14 0)
(851.84 -1.11129e-13 0)
(851.84 -1.42992e-13 0)
(851.84 -7.59229e-14 0)
(851.84 -1.41851e-13 0)
(851.84 3.86127e-14 0)
(851.84 1.90363e-13 0)
(851.84 1.82939e-13 0)
(851.84 1.06842e-13 0)
(851.84 -8.21728e-14 0)
(851.84 4.8604e-14 0)
(851.84 2.8807e-13 0)
(851.84 1.31534e-13 0)
(851.84 2.29644e-13 0)
(851.84 -9.21675e-15 0)
(851.84 3.476e-14 0)
(851.84 -5.08552e-14 0)
(851.84 1.81085e-13 0)
(851.84 2.12144e-13 0)
(851.84 2.51626e-13 0)
(851.84 5.28411e-13 0)
(851.84 1.10737e-13 0)
(851.84 8.7718e-14 0)
(851.84 -1.64032e-14 0)
(851.84 -2.9629e-13 0)
(851.84 -2.1648e-13 0)
(851.84 -2.5333e-13 0)
(851.84 -1.08569e-13 0)
(851.84 -1.8683e-13 0)
(851.84 -3.13842e-14 0)
(851.84 -4.76983e-14 0)
(851.84 1.89889e-13 0)
(851.84 2.60351e-13 0)
(851.84 3.38791e-13 0)
(851.84 3.97485e-13 0)
(851.84 4.70501e-13 0)
(851.84 1.1489e-13 0)
(851.84 4.00246e-13 0)
(851.84 1.03436e-14 0)
(851.84 1.21593e-13 0)
(851.84 -1.02624e-13 0)
(851.84 -7.67763e-14 0)
(851.84 4.56719e-14 0)
(851.84 -7.9632e-14 0)
(851.84 -1.66037e-13 0)
(851.84 -1.32003e-13 0)
(851.84 -3.81469e-14 0)
(851.84 4.1205e-14 0)
(851.84 -4.39588e-14 0)
(851.84 -1.22353e-13 0)
(851.84 1.14576e-13 0)
(851.84 1.25278e-13 0)
(851.84 2.08299e-13 0)
(851.84 -6.09009e-14 0)
(851.84 -1.41084e-13 0)
(851.84 -1.81413e-14 0)
(851.84 -1.23558e-13 0)
(851.84 1.40952e-13 0)
(851.84 1.36547e-13 0)
(851.84 2.0481e-13 0)
(851.84 -4.58556e-14 0)
(851.84 3.86887e-14 0)
(851.84 2.15396e-14 0)
(851.84 -1.05599e-13 0)
(851.84 -3.67457e-14 0)
(851.84 -1.7066e-13 0)
(851.84 9.47082e-14 0)
(851.84 9.11295e-14 0)
(851.84 1.92006e-13 0)
(851.84 1.88405e-13 0)
(851.84 2.27259e-13 0)
(851.84 1.64029e-13 0)
(851.84 -2.4473e-13 0)
(851.84 -2.98828e-13 0)
(851.84 -3.96641e-13 0)
(851.84 -2.22762e-13 0)
(851.84 5.51173e-14 0)
(851.84 -9.81474e-15 0)
(851.84 -6.31871e-14 0)
(851.84 -1.4707e-13 0)
(851.84 -1.76111e-13 0)
(851.84 -1.66143e-13 0)
(851.84 -1.88807e-13 0)
(851.84 -3.21425e-14 0)
(851.84 -9.49251e-14 0)
(851.84 -4.70955e-14 0)
(851.84 1.31163e-13 0)
(851.84 -1.72545e-13 0)
(851.84 5.67562e-14 0)
(851.84 3.73657e-14 0)
(851.84 4.88461e-14 0)
(851.84 3.09598e-14 0)
(851.84 -8.06653e-14 0)
(851.84 -1.22358e-13 0)
(851.84 1.57275e-14 0)
(851.84 -5.99006e-14 0)
(851.84 -4.23576e-14 0)
(851.84 -1.10722e-14 0)
(851.84 -2.0033e-13 0)
(851.84 -1.49881e-13 0)
(851.84 -1.77131e-14 0)
(851.84 1.24416e-13 0)
(851.84 2.04496e-13 0)
(851.84 4.22841e-14 0)
(851.84 3.55039e-13 0)
(851.84 4.90692e-13 0)
(851.84 4.16258e-13 0)
(851.84 3.87854e-13 0)
(851.84 1.62662e-13 0)
(851.84 1.22604e-14 0)
(851.84 -6.12696e-14 0)
(851.84 -2.43982e-13 0)
(851.84 -5.65052e-14 0)
(851.84 -3.35975e-13 0)
(851.84 1.71889e-14 0)
(851.84 3.17805e-14 0)
(851.84 -1.50579e-14 0)
(851.84 -7.74741e-14 0)
(851.84 -2.3248e-13 0)
(851.84 -2.18426e-13 0)
(851.84 -1.41869e-13 0)
(851.84 3.15731e-14 0)
(851.84 5.01866e-14 0)
(851.84 -7.22145e-14 0)
(851.84 -2.05993e-14 0)
(851.84 3.31087e-15 0)
(851.84 -2.62758e-13 0)
(851.84 -8.88721e-14 0)
(851.84 -1.64649e-13 0)
(851.84 -3.58911e-14 0)
(851.84 1.59639e-13 0)
(851.84 1.60804e-13 0)
(851.84 3.92212e-14 0)
(851.84 2.72742e-14 0)
(851.84 -1.74019e-13 0)
(851.84 -9.95113e-14 0)
(851.84 3.10274e-13 0)
(851.84 2.55557e-13 0)
(851.84 3.226e-13 0)
(851.84 3.52124e-13 0)
(851.84 1.69675e-13 0)
(851.84 2.35091e-13 0)
(851.84 1.37204e-13 0)
(851.84 5.08095e-14 0)
(851.84 2.84483e-13 0)
(851.84 2.51166e-13 0)
(851.84 1.98407e-13 0)
(851.84 -8.3739e-14 0)
(851.84 -5.81844e-14 0)
(851.84 -1.05907e-13 0)
(851.84 -2.07742e-13 0)
(851.84 7.53962e-14 0)
(851.84 -6.77016e-14 0)
(851.84 -4.8972e-14 0)
(851.84 7.71475e-15 0)
(851.84 9.42582e-14 0)
(851.84 1.56442e-13 0)
(851.84 4.54404e-15 0)
(851.84 -2.27308e-13 0)
(851.84 -2.04642e-13 0)
(851.84 -7.19589e-15 0)
(851.84 2.23527e-14 0)
(851.84 -1.72928e-14 0)
(851.84 8.14225e-14 0)
(851.84 1.33317e-13 0)
(851.84 -1.11051e-13 0)
(851.84 -5.49386e-14 0)
(851.84 -1.41794e-13 0)
(851.84 -8.79236e-14 0)
(851.84 -2.4636e-13 0)
(851.84 -2.59772e-13 0)
(851.84 -2.66058e-13 0)
(851.84 9.3813e-14 0)
(851.84 -2.5576e-14 0)
(851.84 7.26191e-14 0)
(851.84 3.2824e-13 0)
(851.84 2.25041e-13 0)
(851.84 2.25524e-13 0)
(851.84 8.1833e-14 0)
(851.84 1.56766e-13 0)
(851.84 1.50909e-13 0)
(851.84 -1.34516e-13 0)
(851.84 -9.22848e-15 0)
(851.84 -1.21469e-13 0)
(851.84 -1.85027e-14 0)
(851.84 -1.39104e-13 0)
(851.84 1.30309e-14 0)
(851.84 1.37308e-13 0)
(851.84 9.42294e-14 0)
(851.84 2.7029e-13 0)
(851.84 7.26806e-14 0)
(851.84 -9.71682e-14 0)
(851.84 3.30966e-13 0)
(851.84 1.48029e-13 0)
(851.84 1.05882e-13 0)
(851.84 -1.49186e-14 0)
(851.84 1.77345e-14 0)
(851.84 -9.97646e-14 0)
(851.84 -4.81425e-14 0)
(851.84 -1.20354e-13 0)
(851.84 1.46454e-13 0)
(851.84 3.16153e-13 0)
(851.84 1.94124e-13 0)
(851.84 7.93313e-14 0)
(851.84 1.43394e-14 0)
(851.84 4.06284e-15 0)
(851.84 -8.96217e-14 0)
(851.84 -4.31102e-13 0)
(851.84 -2.92165e-13 0)
(851.84 -1.92398e-13 0)
(851.84 -1.90398e-13 0)
(851.84 -6.64908e-14 0)
(851.84 -2.04187e-13 0)
(851.84 -3.25303e-13 0)
(851.84 -3.59235e-13 0)
(851.84 -2.6907e-14 0)
(851.84 1.09472e-13 0)
(851.84 -1.74032e-13 0)
(851.84 -2.42029e-13 0)
(851.84 -2.17856e-13 0)
(851.84 -2.50786e-13 0)
(851.84 -3.28519e-13 0)
(851.84 -6.07141e-13 0)
(851.84 -4.20462e-13 0)
(851.84 -1.94673e-13 0)
(851.84 -1.46017e-13 0)
(851.84 -1.16342e-13 0)
(851.84 -1.56299e-13 0)
(851.84 6.65083e-14 0)
(851.84 7.8615e-14 0)
(851.84 -5.93174e-14 0)
(851.84 1.17349e-13 0)
(851.84 6.00859e-14 0)
(851.84 1.46345e-13 0)
(851.84 1.43154e-13 0)
(851.84 3.86239e-14 0)
(851.84 8.09471e-14 0)
(851.84 9.22051e-14 0)
(851.84 -7.09605e-14 0)
(851.84 -2.79442e-13 0)
(851.84 -3.78294e-13 0)
(851.84 -3.6184e-13 0)
(851.84 1.66027e-13 0)
(851.84 6.75526e-13 0)
(851.84 2.32624e-13 0)
(851.84 2.96002e-13 0)
(851.84 -5.49344e-14 0)
(851.84 2.80114e-13 0)
(851.84 2.40438e-13 0)
(851.84 2.29726e-13 0)
(851.84 2.58388e-13 0)
(851.84 5.17157e-14 0)
(851.84 9.52798e-15 0)
(851.84 -3.55396e-13 0)
(851.84 -1.56651e-13 0)
(851.84 -5.88169e-14 0)
(851.84 -1.4191e-13 0)
(851.84 1.22653e-13 0)
(851.84 -3.44891e-14 0)
(851.84 -3.30502e-14 0)
(851.84 -1.26244e-13 0)
(851.84 -1.04363e-13 0)
(851.84 -2.3389e-13 0)
(851.84 -2.65353e-14 0)
(851.84 1.07036e-13 0)
(851.84 -1.12413e-13 0)
(851.84 -1.45887e-13 0)
(851.84 -6.62177e-14 0)
(851.84 -1.22137e-13 0)
(851.84 -2.05719e-13 0)
(851.84 -7.7375e-14 0)
(851.84 -6.22641e-14 0)
(851.84 4.13177e-16 0)
(851.84 2.48749e-14 0)
(851.84 -3.69817e-15 0)
(851.84 -6.60659e-15 0)
(851.84 -1.60334e-14 0)
(851.84 -2.61413e-13 0)
(851.84 -1.04327e-13 0)
(851.84 -3.4856e-14 0)
(851.84 2.32108e-13 0)
(851.84 1.23201e-13 0)
(851.84 2.38865e-13 0)
(851.84 5.74818e-14 0)
(851.84 2.53941e-13 0)
(851.84 5.10355e-14 0)
(851.84 2.14509e-13 0)
(851.84 3.49427e-13 0)
(851.84 2.57988e-13 0)
(851.84 2.03018e-13 0)
(851.84 1.57531e-13 0)
(851.84 -1.55376e-13 0)
(851.84 -2.36853e-13 0)
(851.84 2.11841e-14 0)
(851.84 3.5539e-13 0)
(851.84 2.76751e-13 0)
(851.84 1.85325e-13 0)
(851.84 -1.36793e-13 0)
(851.84 3.26188e-14 0)
(851.84 1.61682e-13 0)
(851.84 2.28316e-13 0)
(851.84 1.75351e-13 0)
(851.84 6.374e-14 0)
(851.84 2.24942e-13 0)
(851.84 3.7794e-14 0)
(851.84 2.78847e-13 0)
(851.84 2.3975e-13 0)
(851.84 1.9726e-13 0)
(851.84 -1.67035e-14 0)
(851.84 -8.33805e-14 0)
(851.84 -2.78315e-14 0)
(851.84 -1.53827e-13 0)
(851.84 1.41726e-14 0)
(851.84 1.25722e-13 0)
(851.84 2.80501e-13 0)
(851.84 3.84393e-13 0)
(851.84 6.4641e-13 0)
(851.84 7.84414e-13 0)
(851.84 8.01052e-13 0)
(851.84 3.77904e-13 0)
(851.84 2.78946e-13 0)
(851.84 2.57777e-13 0)
(851.84 1.26597e-13 0)
(851.84 4.37859e-14 0)
(851.84 5.17117e-14 0)
(851.84 1.28513e-13 0)
(851.84 2.04223e-13 0)
(851.84 5.08757e-14 0)
(851.84 -2.05824e-14 0)
(851.84 -8.56383e-14 0)
(851.84 -4.02053e-14 0)
(851.84 1.81075e-13 0)
(851.84 -7.43502e-14 0)
(851.84 -1.86927e-14 0)
(851.84 9.2492e-14 0)
(851.84 3.05067e-14 0)
(851.84 -5.20827e-14 0)
(851.84 -1.26396e-13 0)
(851.84 1.3059e-13 0)
(851.84 1.3113e-13 0)
(851.84 1.17467e-15 0)
(851.84 -1.31521e-13 0)
(851.84 2.67465e-14 0)
(851.84 8.4396e-14 0)
(851.84 9.10922e-14 0)
(851.84 1.1905e-13 0)
(851.84 9.01458e-14 0)
(851.84 1.52688e-13 0)
(851.84 1.04225e-13 0)
(851.84 7.30424e-14 0)
(851.84 -1.72155e-14 0)
(851.84 5.03578e-14 0)
(851.84 4.10808e-13 0)
(851.84 6.37438e-13 0)
(851.84 6.35307e-13 0)
(851.84 4.88716e-13 0)
(851.84 2.11717e-13 0)
(851.84 2.80433e-13 0)
(851.84 3.47574e-13 0)
(851.84 3.88674e-13 0)
(851.84 4.20549e-13 0)
(851.84 4.13023e-13 0)
(851.84 3.42218e-13 0)
(851.84 2.22602e-13 0)
(851.84 1.43129e-13 0)
(851.84 1.27342e-13 0)
(851.84 3.72463e-13 0)
(851.84 1.1188e-13 0)
(851.84 7.0328e-14 0)
(851.84 1.82238e-13 0)
(851.84 -3.98444e-13 0)
(851.84 -2.99259e-13 0)
(851.84 -3.02667e-13 0)
(851.84 -9.65333e-14 0)
(851.84 -1.86773e-13 0)
(851.84 -1.82177e-13 0)
(851.84 -2.01199e-13 0)
(851.84 -2.19083e-13 0)
(851.84 -2.90554e-13 0)
(851.84 5.57668e-13 0)
(851.84 4.98037e-14 0)
(851.84 1.54126e-13 0)
(851.84 1.76475e-14 0)
(851.84 -1.01348e-13 0)
(851.84 8.05659e-14 0)
(851.84 1.82673e-13 0)
(851.84 3.89212e-14 0)
(851.84 2.33654e-14 0)
(851.84 1.20437e-14 0)
(851.84 1.14584e-13 0)
(851.84 1.74628e-13 0)
(851.84 8.20614e-14 0)
(851.84 1.75239e-13 0)
(851.84 2.59047e-13 0)
(851.84 6.79957e-14 0)
(851.84 3.44591e-13 0)
(851.84 4.94112e-13 0)
(851.84 6.63677e-13 0)
(851.84 6.90594e-13 0)
(851.84 4.11781e-13 0)
(851.84 9.4042e-14 0)
(851.84 -2.76526e-13 0)
(851.84 -5.48003e-13 0)
(851.84 -3.18702e-13 0)
(851.84 -4.77764e-13 0)
(851.84 -8.69143e-14 0)
(851.84 -5.8538e-14 0)
(851.84 -7.65277e-15 0)
(851.84 2.39835e-13 0)
(851.84 2.49434e-13 0)
(851.84 6.9009e-14 0)
(851.84 4.93298e-14 0)
(851.84 2.35223e-13 0)
(851.84 1.65877e-14 0)
(851.84 -2.22754e-13 0)
(851.84 -1.36994e-13 0)
(851.84 1.48131e-13 0)
(851.84 5.92211e-13 0)
(851.84 5.997e-14 0)
(851.84 8.30383e-16 0)
(851.84 -1.96707e-13 0)
(851.84 -2.20578e-13 0)
(851.84 -1.62562e-13 0)
(851.84 -1.67821e-13 0)
(851.84 3.69129e-14 0)
(851.84 8.62702e-14 0)
(851.84 3.96804e-13 0)
(851.84 5.44178e-13 0)
(851.84 3.73959e-13 0)
(851.84 -1.09051e-14 0)
(851.84 -7.5171e-16 0)
(851.84 2.36099e-13 0)
(851.84 1.8088e-13 0)
(851.84 2.2208e-13 0)
(851.84 2.87058e-13 0)
(851.84 7.10139e-13 0)
(851.84 5.11019e-13 0)
(851.84 4.42315e-13 0)
(851.84 1.07398e-13 0)
(851.84 -3.33871e-13 0)
(851.84 -5.11288e-13 0)
(851.84 -4.37509e-13 0)
(851.84 -6.93676e-13 0)
(851.84 -3.97631e-13 0)
(851.84 -2.72464e-13 0)
(851.84 -1.02463e-13 0)
(851.84 3.85997e-13 0)
(851.84 2.01806e-13 0)
(851.84 3.9143e-15 0)
(851.84 -1.02962e-13 0)
(851.84 -1.40431e-13 0)
(851.84 -7.75618e-14 0)
(851.84 -4.05007e-13 0)
(851.84 -3.18134e-13 0)
(851.84 1.70914e-14 0)
(851.84 -2.35543e-13 0)
(851.84 -2.66641e-14 0)
(851.84 -1.68283e-13 0)
(851.84 8.7819e-14 0)
(851.84 1.80384e-13 0)
(851.84 3.274e-14 0)
(851.84 3.04195e-13 0)
(851.84 3.68748e-13 0)
(851.84 4.16303e-13 0)
(851.84 4.9056e-13 0)
(851.84 1.11154e-13 0)
(851.84 7.47968e-14 0)
(851.84 1.85189e-13 0)
(851.84 1.69547e-13 0)
(851.84 1.89791e-13 0)
(851.84 3.29565e-13 0)
(851.84 2.56243e-13 0)
(851.84 4.24289e-13 0)
(851.84 3.01381e-13 0)
(851.84 1.75773e-13 0)
(851.84 -4.05668e-14 0)
(851.84 -9.38942e-14 0)
(851.84 -1.17878e-13 0)
(851.84 -2.31785e-14 0)
(851.84 -1.36356e-13 0)
(851.84 -1.74354e-13 0)
(851.84 -1.61336e-13 0)
(851.84 -1.2572e-14 0)
(851.84 8.83299e-15 0)
(851.84 -4.98119e-14 0)
(851.84 1.28959e-13 0)
(851.84 -1.47827e-13 0)
(851.84 -3.93246e-13 0)
(851.84 -7.09777e-13 0)
(851.84 -4.26167e-13 0)
(851.84 -3.69406e-13 0)
(851.84 -4.7953e-13 0)
(851.84 -2.93259e-13 0)
(851.84 -3.07046e-13 0)
(851.84 -1.30117e-13 0)
(851.84 -2.13725e-13 0)
(851.84 7.40611e-14 0)
(851.84 3.21552e-13 0)
(851.84 3.46881e-13 0)
(851.84 1.57896e-13 0)
(851.84 3.1695e-13 0)
(851.84 3.63669e-13 0)
(851.84 2.39345e-13 0)
(851.84 1.67592e-13 0)
(851.84 1.67571e-13 0)
(851.84 -5.91863e-15 0)
(851.84 1.11297e-13 0)
(851.84 1.38029e-13 0)
(851.84 1.9898e-13 0)
(851.84 2.40134e-13 0)
(851.84 1.85118e-13 0)
(851.84 1.08318e-13 0)
(851.84 -7.42859e-14 0)
(851.84 -1.19847e-13 0)
(851.84 -1.85268e-13 0)
(851.84 -1.09738e-13 0)
(851.84 -1.45955e-13 0)
(851.84 -2.12313e-13 0)
(851.84 -1.22852e-13 0)
(851.84 -1.49254e-13 0)
(851.84 -3.94427e-15 0)
(851.84 6.61791e-15 0)
(851.84 -9.98347e-14 0)
(851.84 -3.16643e-13 0)