/*--------------------------------*- C++ -*----------------------------------*\
| =========                 |                                                 |
| \\      /  F ield         | OpenFOAM: The Open Source CFD Toolbox           |
|  \\    /   O peration     | Version:  v1812                                 |
|   \\  /    A nd           | Web:      www.OpenFOAM.com                      |
|    \\/     M anipulation  |                                                 |
\*---------------------------------------------------------------------------*/
FoamFile
{
    version     2.0;
    format      ascii;
    class       volScalarField;
    location    "0.7";
    object      p;
}
// * * * * * * * * * * * * * * * * * * * * * * * * * * * * * * * * * * * * * //

dimensions      [1 -1 -2 0 0 0 0];


internalField   nonuniform List<scalar> 
20400
(
106438
106437
106438
106440
106442
106441
106442
106442
106444
106445
106446
106448
106451
106455
106460
106465
106471
106477
106484
106492
106500
106509
106519
106529
106540
106552
106563
106575
106588
106598
106608
106619
106631
106642
106650
106657
106666
106672
106678
106686
106691
106692
106696
106693
106704
106720
106725
106729
106730
106731
106731
106730
106734
106736
106737
106739
106744
106749
106757
106770
106787
106809
106831
106854
106888
106910
106945
106983
107022
107070
107111
107149
107189
107227
107263
107297
107327
107354
107378
107398
107414
107425
107431
107433
107433
107434
107431
107427
107421
107395
107378
107346
107323
107305
107289
107277
107252
107217
107181
107162
107136
107109
107077
107055
107031
107003
106973
106944
106926
106903
106881
106859
106844
106825
106807
106790
106775
106762
106745
106732
106724
106705
106688
106675
106665
106656
106648
106644
106644
106633
106626
106623
106620
106618
106618
106618
106618
106618
106625
106628
106638
106649
106661
106669
106684
106700
106717
106730
106747
106763
106786
106810
106835
106850
106873
106894
106915
106940
106967
106987
107011
107036
107060
107082
107108
107128
107152
107182
107203
107226
107244
107267
107284
107305
107325
107343
107361
107371
107386
107395
107398
107398
107417
107418
107411
107422
107420
107420
107418
107416
107417
107416
107414
107411
107410
107410
107407
107401
107401
107401
107397
107392
107391
107387
107379
107373
107367
107359
107345
107337
107322
107305
107287
107268
107247
107225
107202
107179
107153
107126
107100
107074
107046
107017
106987
106959
106928
106899
106869
106838
106809
106777
106748
106717
106689
106662
106636
106612
106585
106561
106538
106514
106493
106473
106453
106435
106418
106403
106386
106375
106360
106351
106340
106330
106321
106314
106307
106301
106293
106289
106286
106284
106280
106276
106272
106270
106271
106270
106273
106270
106268
106270
106265
106268
106266
106267
106271
106264
106266
106260
106257
106264
106262
106255
106255
106241
106245
106245
106230
106226
106207
106197
106217
106182
106177
106152
106141
106130
106120
106095
106085
106056
106032
106019
105980
105953
105921
105893
105867
105845
105803
105778
105728
105698
105651
105599
105550
105500
105453
105407
105376
105310
105251
105193
105138
105084
105036
104958
104883
104820
104751
104699
104622
104539
104458
104390
104318
104249
104173
104113
104018
103935
103847
103774
103711
103618
103525
103446
103367
103294
103216
103154
103053
102964
102894
102814
102754
102673
102591
102533
102450
102405
102310
102231
102178
102115
102057
101998
101947
101891
101844
101782
101733
101669
101636
101591
101550
101511
101475
101447
101418
101396
101365
101342
101309
101299
101279
101269
101258
101249
101238
101234
101230
101232
101226
101229
101236
101243
101246
101260
101271
101292
101309
101308
101341
101358
101383
101407
101426
101458
101482
101516
101542
101571
101602
101635
101668
101698
101732
101765
101803
101837
101869
101901
101936
101974
102010
102044
102075
102111
102144
102175
102207
102240
102268
102295
102329
102362
102387
102418
102441
102469
102498
102517
102542
102563
102580
102595
102619
102636
102653
102665
102670
102686
102694
102700
102704
102715
102712
102715
102712
102711
102707
102708
102701
102689
102679
102666
102654
102631
102613
102601
102570
102550
102523
102497
102464
102432
102398
102361
102334
102284
102249
102199
102158
102114
102069
102022
101971
101917
101868
101809
101759
101702
101653
101589
101536
101471
101416
101365
106441
106441
106442
106441
106442
106441
106441
106442
106444
106445
106448
106450
106453
106457
106461
106466
106472
106478
106485
106492
106501
106510
106519
106528
106537
106547
106556
106567
106579
106589
106595
106601
106618
106635
106641
106646
106664
106670
106684
106693
106715
106726
106737
106758
106758
106771
106781
106789
106794
106801
106806
106810
106812
106810
106807
106808
106816
106818
106821
106825
106830
106835
106850
106872
106912
106935
106971
107000
107027
107057
107085
107112
107141
107170
107198
107226
107252
107277
107300
107320
107336
107347
107354
107356
107356
107356
107355
107363
107332
107330
107326
107327
107316
107313
107300
107313
107193
107257
107198
107169
107143
107115
107084
107058
107031
107002
106977
106950
106932
106908
106885
106864
106845
106826
106809
106793
106778
106767
106755
106743
106719
106693
106677
106664
106654
106644
106636
106633
106638
106633
106629
106627
106621
106620
106618
106619
106621
106622
106626
106628
106637
106649
106663
106673
106687
106706
106724
106739
106752
106756
106774
106790
106810
106841
106869
106889
106910
106934
106960
106979
107004
107032
107058
107083
107111
107129
107151
107180
107201
107226
107248
107273
107284
107303
107322
107338
107354
107366
107381
107390
107399
107401
107414
107416
107436
107441
107444
107447
107447
107446
107445
107440
107435
107428
107422
107418
107412
107404
107397
107401
107395
107388
107383
107372
107363
107355
107346
107335
107325
107315
107306
107296
107285
107270
107250
107226
107203
107179
107155
107129
107101
107067
107037
107008
106980
106953
106923
106893
106865
106836
106807
106777
106749
106724
106699
106672
106633
106604
106581
106559
106535
106511
106493
106473
106456
106435
106418
106405
106391
106377
106359
106348
106342
106334
106328
106319
106303
106290
106289
106285
106284
106285
106281
106277
106275
106276
106273
106264
106265
106267
106265
106273
106269
106275
106264
106259
106265
106261
106269
106262
106267
106254
106259
106252
106257
106249
106239
106241
106226
106229
106216
106199
106202
106179
106180
106155
106150
106127
106105
106090
106076
106052
106030
106020
105980
105956
105922
105903
105866
105828
105799
105769
105721
105685
105652
105599
105559
105502
105459
105414
105354
105301
105259
105206
105136
105075
105014
104942
104891
104834
104754
104683
104615
104542
104467
104396
104332
104241
104160
104090
104006
103949
103859
103775
103689
103607
103527
103458
103381
103300
103203
103128
103049
102979
102902
102830
102739
102662
102605
102520
102445
102380
102318
102247
102189
102126
102068
102021
101935
101878
101833
101764
101732
101681
101644
101600
101561
101527
101491
101467
101398
101379
101350
101328
101322
101309
101294
101280
101232
101235
101248
101232
101208
101219
101238
101237
101223
101237
101264
101267
101254
101278
101308
101329
101358
101344
101367
101401
101443
101474
101468
101498
101547
101590
101595
101614
101665
101714
101744
101751
101786
101831
101878
101922
101958
101981
101984
102028
102069
102105
102129
102163
102201
102245
102280
102320
102343
102336
102374
102420
102462
102469
102481
102505
102542
102569
102598
102624
102634
102618
102636
102654
102659
102692
102704
102713
102704
102694
102699
102714
102726
102726
102701
102686
102694
102695
102669
102653
102658
102653
102610
102580
102555
102553
102538
102496
102467
102446
102413
102353
102314
102274
102255
102213
102174
102113
102047
102008
101960
101909
101872
101820
101775
101698
101632
101576
101539
101485
101410
101352
106434
106436
106434
106434
106436
106437
106438
106438
106437
106439
106441
106443
106446
106449
106453
106457
106462
106467
106473
106479
106486
106494
106503
106515
106525
106536
106548
106559
106568
106579
106596
106610
106615
106621
106637
106657
106664
106679
106687
106695
106705
106713
106721
106733
106745
106755
106760
106764
106763
106765
106764
106763
106765
106761
106754
106747
106745
106742
106748
106757
106765
106789
106802
106820
106840
106863
106884
106920
106945
106973
106999
107028
107060
107094
107130
107169
107207
107245
107281
107313
107341
107363
107380
107392
107400
107404
107403
107399
107398
107382
107369
107348
107324
107302
107283
107251
107257
107208
107170
107149
107120
107118
107089
107060
107027
106993
106986
106956
106934
106909
106886
106865
106846
106827
106810
106794
106782
106770
106757
106749
106732
106710
106697
106685
106674
106665
106659
106657
106649
106621
106617
106619
106618
106616
106617
106618
106617
106617
106621
106622
106634
106648
106662
106678
106680
106685
106707
106722
106731
106755
106780
106794
106808
106838
106877
106895
106911
106932
106954
106976
106998
107022
107048
107072
107104
107133
107154
107183
107208
107222
107238
107262
107282
107300
107319
107335
107350
107362
107376
107385
107392
107399
107413
107416
107418
107427
107430
107432
107431
107430
107431
107428
107427
107425
107418
107414
107409
107404
107396
107393
107391
107386
107382
107373
107365
107357
107346
107335
107322
107307
107291
107275
107260
107244
107229
107214
107198
107181
107161
107140
107115
107084
107054
107024
106995
106967
106939
106911
106870
106834
106806
106775
106747
106716
106690
106664
106636
106611
106583
106560
106539
106517
106494
106472
106452
106436
106419
106403
106385
106374
106361
106352
106340
106327
106317
106312
106306
106302
106296
106290
106286
106281
106277
106274
106272
106271
106270
106269
106273
106270
106267
106265
106265
106266
106265
106269
106268
106264
106264
106262
106257
106264
106258
106256
106254
106249
106239
106239
106235
106226
106216
106198
106205
106182
106174
106154
106147
106126
106115
106088
106075
106050
106027
106005
105993
105954
105923
105906
105862
105841
105793
105761
105719
105686
105640
105609
105555
105506
105462
105406
105365
105299
105258
105207
105134
105074
105019
104946
104895
104826
104750
104688
104609
104554
104467
104395
104330
104244
104165
104096
104011
103941
103861
103772
103696
103610
103537
103453
103377
103293
103209
103137
103057
102978
102897
102819
102743
102675
102597
102523
102450
102382
102322
102246
102183
102120
102061
102002
101944
101888
101840
101777
101737
101678
101635
101590
101551
101512
101477
101447
101416
101395
101364
101344
101311
101294
101275
101268
101263
101251
101236
101232
101234
101233
101225
101227
101238
101242
101242
101259
101276
101293
101302
101308
101339
101361
101391
101408
101420
101455
101484
101525
101540
101564
101604
101645
101667
101690
101730
101771
101810
101835
101860
101893
101935
101973
102016
102050
102080
102112
102153
102186
102211
102230
102262
102289
102330
102369
102394
102415
102433
102471
102507
102528
102540
102554
102575
102592
102622
102638
102656
102670
102685
102680
102678
102695
102707
102723
102723
102713
102699
102706
102710
102717
102701
102688
102684
102675
102647
102623
102618
102608
102581
102546
102515
102499
102464
102425
102396
102367
102343
102296
102242
102189
102157
102117
102073
102029
101979
101924
101857
101802
101757
101705
101662
101597
101531
101468
101421
101373
106444
106444
106445
106445
106446
106446
106447
106447
106448
106449
106451
106454
106457
106460
106465
106469
106475
106481
106488
106495
106504
106513
106522
106533
106543
106555
106566
106578
106588
106599
106611
106623
106632
106641
106652
106663
106670
106679
106694
106707
106716
106721
106724
106734
106744
106756
106763
106768
106767
106766
106761
106754
106751
106748
106741
106742
106746
106744
106752
106755
106769
106784
106799
106822
106851
106873
106911
106951
106988
107032
107072
107113
107154
107192
107227
107260
107289
107316
107341
107363
107383
107399
107412
107420
107424
107424
107419
107411
107402
107386
107372
107352
107330
107307
107280
107267
107255
107214
107183
107160
107132
107105
107078
107053
107028
107000
106976
106947
106923
106898
106875
106854
106835
106816
106799
106784
106769
106753
106735
106725
106720
106702
106688
106676
106666
106658
106651
106648
106642
106630
106626
106622
106620
106619
106616
106616
106616
106619
106628
106637
106635
106632
106650
106664
106669
106685
106710
106718
106726
106763
106794
106812
106825
106832
106866
106889
106910
106926
106941
106968
106993
107017
107044
107071
107092
107135
107161
107180
107202
107223
107244
107266
107285
107305
107323
107340
107355
107368
107381
107390
107397
107404
107414
107417
107414
107418
107417
107417
107415
107413
107413
107409
107413
107407
107402
107399
107395
107391
107386
107386
107387
107381
107379
107378
107377
107373
107366
107357
107348
107333
107317
107301
107283
107263
107242
107220
107196
107166
107140
107116
107092
107067
107039
107011
106982
106955
106927
106899
106868
106836
106807
106776
106747
106717
106688
106662
106637
106617
106590
106564
106538
106513
106493
106469
106455
106437
106419
106404
106386
106375
106363
106351
106340
106326
106318
106309
106312
106303
106297
106289
106285
106280
106276
106275
106271
106269
106270
106271
106273
106272
106262
106266
106264
106264
106269
106269
106269
106259
106264
106260
106255
106262
106270
106248
106248
106245
106244
106248
106222
106220
106214
106210
106195
106182
106176
106153
106140
106135
106119
106098
106078
106054
106035
106016
105978
105955
105922
105896
105872
105841
105805
105770
105727
105690
105651
105594
105555
105503
105457
105404
105362
105317
105251
105196
105136
105083
105014
104955
104888
104826
104751
104687
104620
104539
104468
104394
104317
104250
104174
104094
104018
103934
103853
103771
103696
103620
103530
103452
103368
103292
103217
103136
103055
102975
102893
102814
102754
102674
102597
102527
102456
102387
102311
102244
102183
102116
102051
101991
101953
101893
101841
101779
101726
101681
101635
101591
101548
101508
101470
101439
101424
101398
101365
101336
101312
101292
101273
101265
101264
101257
101233
101233
101234
101235
101225
101226
101240
101243
101242
101257
101276
101294
101299
101312
101330
101368
101391
101404
101423
101448
101490
101522
101540
101564
101608
101643
101666
101694
101726
101771
101809
101833
101860
101895
101929
101973
102019
102053
102078
102112
102149
102184
102205
102232
102264
102293
102325
102369
102399
102416
102434
102471
102500
102527
102541
102555
102577
102595
102614
102648
102660
102668
102683
102683
102686
102689
102707
102718
102723
102716
102707
102701
102712
102715
102700
102688
102682
102671
102648
102625
102618
102603
102581
102547
102519
102497
102466
102428
102394
102371
102333
102294
102244
102194
102151
102116
102073
102028
101979
101918
101863
101806
101754
101707
101650
101597
101531
101471
101421
101368
106448
106448
106449
106450
106450
106449
106450
106451
106451
106452
106454
106455
106458
106461
106465
106469
106475
106481
106488
106496
106504
106513
106523
106534
106544
106556
106568
106581
106592
106603
106614
106625
106637
106647
106654
106661
106669
106679
106689
106699
106706
106711
106717
106726
106735
106740
106740
106739
106736
106734
106730
106722
106718
106711
106700
106701
106703
106704
106710
106717
106734
106753
106778
106806
106841
106866
106897
106928
106967
107014
107061
107109
107158
107206
107250
107289
107322
107349
107372
107391
107406
107417
107425
107430
107432
107431
107429
107422
107412
107394
107378
107356
107338
107310
107289
107266
107249
107210
107179
107153
107126
107104
107078
107053
107027
107001
106979
106952
106929
106907
106885
106865
106846
106828
106811
106795
106780
106764
106750
106736
106721
106700
106685
106672
106661
106651
106643
106639
106637
106629
106625
106618
106616
106614
106613
106613
106615
106614
106611
106612
106621
106633
106651
106659
106673
106698
106724
106740
106739
106738
106779
106798
106812
106823
106860
106887
106906
106927
106948
106985
107014
107039
107060
107082
107106
107126
107149
107176
107199
107223
107244
107266
107286
107306
107323
107341
107356
107370
107382
107390
107397
107405
107411
107414
107412
107413
107412
107410
107408
107405
107403
107400
107399
107399
107397
107397
107394
107394
107388
107385
107379
107370
107364
107361
107356
107349
107343
107336
107330
107319
107307
107293
107280
107265
107250
107235
107214
107185
107159
107132
107105
107076
107047
107018
106987
106959
106928
106895
106865
106836
106806
106776
106747
106718
106690
106662
106634
106610
106584
106560
106536
106513
106491
106475
106455
106437
106421
106405
106389
106376
106362
106349
106341
106333
106324
106314
106307
106300
106295
106287
106284
106284
106283
106278
106274
106273
106270
106268
106270
106267
106265
106270
106269
106271
106264
106266
106266
106263
106267
106264
106261
106261
106261
106254
106252
106248
106243
106239
106232
106224
106216
106204
106199
106183
106176
106159
106148
106125
106110
106089
106071
106048
106028
106005
105986
105957
105928
105903
105863
105832
105793
105762
105718
105683
105641
105601
105558
105510
105462
105412
105358
105306
105253
105200
105135
105075
105013
104951
104894
104826
104753
104685
104612
104548
104473
104398
104325
104243
104167
104091
104013
103941
103858
103775
103694
103613
103537
103457
103376
103297
103211
103133
103052
102982
102902
102827
102744
102670
102601
102522
102452
102377
102319
102255
102189
102124
102063
102002
101946
101888
101836
101772
101737
101690
101647
101601
101559
101519
101481
101450
101416
101391
101357
101335
101322
101302
101287
101267
101255
101243
101242
101233
101227
101224
101232
101232
101232
101239
101254
101261
101271
101280
101305
101321
101342
101360
101377
101404
101432
101460
101482
101507
101544
101576
101600
101629
101666
101704
101735
101763
101793
101834
101874
101904
101941
101971
102008
102037
102074
102110
102140
102169
102204
102246
102273
102303
102329
102360
102383
102419
102448
102468
102493
102509
102546
102569
102586
102604
102618
102635
102649
102660
102667
102692
102696
102708
102707
102711
102705
102717
102715
102719
102706
102700
102697
102692
102676
102662
102654
102640
102615
102595
102565
102555
102528
102496
102465
102435
102406
102363
102325
102282
102253
102202
102163
102113
102067
102017
101963
101913
101872
101812
101762
101701
101644
101585
101536
101477
101411
101358
106455
106454
106455
106456
106456
106456
106456
106455
106456
106457
106458
106459
106462
106465
106469
106473
106478
106484
106492
106499
106508
106517
106527
106538
106549
106561
106573
106587
106599
106610
106619
106630
106644
106654
106663
106675
106682
106693
106706
106715
106719
106722
106725
106733
106737
106738
106734
106732
106726
106721
106716
106708
106708
106693
106684
106685
106692
106693
106700
106705
106736
106757
106783
106812
106855
106890
106925
106958
106994
107030
107067
107102
107135
107174
107214
107254
107294
107329
107359
107382
107399
107411
107419
107424
107424
107419
107411
107403
107393
107377
107360
107341
107321
107299
107275
107257
107241
107209
107183
107157
107130
107106
107078
107052
107024
106997
106970
106942
106915
106892
106870
106850
106831
106812
106795
106779
106765
106753
106741
106730
106719
106700
106687
106673
106662
106651
106643
106637
106632
106623
106618
106613
106612
106611
106611
106611
106611
106611
106615
106620
106629
106647
106662
106672
106675
106680
106698
106718
106728
106739
106777
106798
106819
106838
106880
106912
106936
106951
106965
106983
107003
107024
107044
107068
107094
107122
107148
107174
107200
107225
107247
107269
107289
107308
107328
107346
107361
107374
107385
107390
107396
107404
107407
107410
107410
107411
107408
107410
107406
107404
107398
107397
107395
107394
107395
107396
107393
107393
107393
107392
107387
107383
107379
107375
107366
107356
107346
107336
107325
107311
107296
107280
107261
107242
107225
107209
107188
107167
107143
107119
107094
107068
107041
107013
106984
106958
106932
106901
106870
106840
106810
106780
106751
106723
106696
106669
106642
106616
106588
106563
106539
106516
106495
106472
106455
106438
106421
106405
106390
106377
106364
106351
106341
106330
106322
106312
106309
106301
106297
106291
106286
106282
106277
106276
106274
106272
106270
106271
106270
106270
106266
106266
106269
106269
106267
106267
106268
106263
106263
106262
106260
106261
106261
106252
106250
106246
106242
106239
106228
106221
106215
106206
106196
106182
106172
106159
106148
106130
106113
106095
106076
106054
106033
106011
105981
105954
105929
105904
105868
105834
105801
105767
105725
105686
105646
105599
105555
105508
105461
105408
105359
105308
105252
105199
105137
105078
105015
104954
104888
104824
104753
104685
104617
104543
104469
104397
104325
104247
104170
104092
104015
103935
103854
103775
103695
103616
103535
103453
103374
103294
103213
103134
103054
102979
102898
102820
102747
102672
102601
102525
102453
102385
102318
102244
102183
102119
102058
102000
101944
101888
101835
101782
101735
101682
101636
101593
101553
101514
101477
101446
101417
101391
101363
101337
101318
101297
101280
101269
101257
101249
101239
101233
101230
101231
101227
101230
101236
101243
101248
101259
101272
101289
101302
101318
101337
101361
101385
101406
101428
101454
101485
101515
101541
101570
101603
101636
101666
101697
101731
101766
101803
101835
101866
101900
101935
101973
102011
102045
102077
102111
102144
102179
102208
102237
102268
102298
102328
102362
102393
102418
102442
102470
102495
102522
102543
102561
102583
102601
102618
102638
102654
102666
102677
102686
102694
102699
102708
102714
102718
102716
102715
102710
102710
102708
102699
102689
102680
102668
102652
102634
102618
102598
102577
102549
102523
102497
102466
102433
102400
102367
102328
102291
102247
102201
102159
102118
102071
102022
101972
101918
101866
101810
101757
101704
101645
101590
101532
101473
101417
101362
106464
106460
106463
106462
106463
106460
106461
106461
106461
106461
106462
106462
106464
106467
106470
106474
106479
106485
106492
106500
106509
106518
106528
106540
106551
106563
106575
106589
106601
106613
106624
106634
106647
106658
106669
106676
106686
106699
106710
106720
106723
106725
106727
106731
106732
106730
106726
106722
106715
106710
106700
106688
106681
106679
106657
106666
106654
106673
106669
106671
106705
106692
106735
106756
106792
106833
106873
106921
106966
107016
107064
107109
107151
107183
107214
107245
107275
107304
107331
107357
107380
107398
107412
107422
107431
107434
107425
107414
107401
107384
107365
107345
107325
107302
107281
107257
107231
107201
107175
107148
107122
107097
107073
107050
107025
107000
106976
106949
106926
106905
106882
106860
106840
106822
106803
106785
106769
106753
106737
106721
106707
106687
106675
106663
106653
106644
106638
106632
106625
106619
106614
106610
106607
106606
106606
106606
106607
106610
106620
106624
106625
106629
106642
106652
106662
106680
106703
106719
106736
106757
106795
106816
106836
106852
106862
106887
106910
106929
106943
106969
106998
107022
107052
107088
107118
107142
107166
107186
107209
107235
107257
107277
107297
107317
107335
107352
107365
107377
107384
107387
107392
107400
107400
107404
107403
107403
107404
107399
107401
107395
107388
107390
107384
107393
107375
107376
107370
107370
107368
107367
107368
107366
107365
107365
107361
107355
107349
107344
107336
107329
107321
107308
107288
107267
107245
107223
107199
107175
107149
107123
107096
107068
107039
107010
106980
106949
106919
106891
106862
106832
106803
106773
106745
106717
106690
106663
106636
106611
106586
106562
106539
106516
106495
106475
106457
106440
106422
106406
106391
106377
106364
106352
106341
106331
106324
106315
106309
106301
106296
106290
106286
106283
106280
106276
106274
106273
106271
106269
106270
106270
106267
106268
106267
106269
106266
106267
106268
106264
106264
106263
106261
106261
106261
106254
106250
106247
106242
106239
106230
106222
106215
106205
106197
106183
106172
106158
106146
106127
106110
106092
106074
106051
106031
106008
105982
105955
105927
105901
105865
105832
105797
105764
105722
105685
105645
105600
105555
105508
105461
105411
105359
105305
105252
105198
105137
105077
105015
104953
104889
104824
104754
104685
104616
104544
104471
104397
104323
104245
104169
104092
104014
103936
103856
103775
103695
103616
103535
103454
103374
103293
103213
103133
103054
102978
102899
102823
102746
102671
102599
102523
102453
102384
102319
102248
102184
102121
102063
102002
101943
101887
101835
101782
101734
101685
101639
101596
101555
101518
101482
101449
101416
101389
101361
101337
101318
101298
101284
101268
101255
101246
101240
101232
101229
101228
101228
101232
101234
101240
101249
101260
101273
101286
101303
101321
101339
101361
101381
101406
101431
101456
101483
101511
101541
101571
101601
101633
101666
101700
101733
101765
101798
101834
101868
101902
101938
101972
102007
102041
102076
102110
102143
102176
102208
102240
102270
102301
102330
102361
102389
102418
102446
102470
102496
102519
102544
102566
102585
102604
102619
102636
102651
102665
102676
102687
102695
102704
102709
102714
102714
102717
102717
102715
102710
102704
102699
102691
102679
102667
102653
102638
102617
102598
102575
102552
102526
102497
102467
102435
102403
102365
102328
102289
102249
102205
102163
102116
102069
102020
101970
101918
101867
101812
101758
101702
101646
101588
101532
101474
101413
101359
106472
106468
106470
106469
106469
106467
106468
106467
106467
106467
106468
106469
106470
106472
106475
106479
106483
106489
106496
106504
106512
106521
106532
106544
106555
106568
106581
106595
106608
106620
106635
106647
106660
106671
106680
106689
106697
106701
106720
106722
106726
106726
106726
106726
106725
106721
106715
106709
106701
106695
106687
106675
106672
106645
106647
106635
106652
106659
106672
106677
106674
106730
106761
106774
106804
106832
106869
106910
106947
106979
107016
107061
107109
107156
107200
107239
107271
107300
107326
107348
107367
107381
107389
107389
107391
107396
107396
107390
107381
107368
107353
107336
107318
107297
107278
107259
107236
107208
107183
107159
107133
107107
107077
107045
107014
106989
106962
106937
106914
106893
106873
106853
106834
106815
106798
106781
106766
106752
106738
106723
106709
106691
106676
106663
106651
106641
106633
106626
106619
106612
106607
106603
106601
106600
106600
106601
106601
106600
106606
106608
106616
106628
106642
106654
106673
106694
106717
106733
106743
106756
106772
106790
106816
106833
106850
106875
106907
106933
106952
106984
107019
107046
107065
107091
107111
107125
107151
107170
107196
107227
107255
107274
107292
107311
107329
107345
107356
107366
107373
107378
107383
107392
107399
107398
107398
107397
107393
107393
107387
107386
107380
107380
107376
107371
107374
107374
107374
107371
107368
107366
107364
107361
107357
107354
107347
107339
107330
107319
107309
107301
107293
107281
107267
107251
107233
107215
107194
107172
107148
107124
107098
107072
107046
107020
106992
106963
106932
106901
106870
106840
106811
106781
106752
106723
106695
106668
106642
106614
106586
106561
106538
106515
106495
106474
106455
106439
106422
106407
106391
106378
106365
106353
106343
106331
106323
106315
106309
106302
106297
106291
106286
106283
106279
106277
106274
106272
106271
106270
106269
106270
106268
106267
106268
106269
106267
106267
106267
106264
106264
106263
106261
106260
106260
106254
106250
106246
106242
106238
106229
106222
106214
106205
106196
106183
106172
106158
106146
106129
106111
106094
106075
106053
106031
106008
105982
105955
105928
105901
105867
105833
105799
105765
105724
105685
105644
105600
105555
105508
105461
105410
105359
105306
105251
105198
105137
105077
105016
104953
104888
104823
104754
104685
104616
104544
104471
104397
104323
104246
104169
104092
104014
103935
103855
103775
103695
103615
103535
103453
103373
103294
103213
103134
103054
102977
102898
102821
102746
102671
102601
102524
102452
102385
102319
102247
102184
102120
102060
102001
101942
101887
101834
101781
101733
101684
101637
101595
101554
101517
101481
101448
101417
101389
101362
101337
101317
101298
101282
101267
101255
101246
101240
101232
101229
101228
101228
101230
101234
101242
101250
101259
101271
101286
101303
101320
101339
101361
101382
101405
101430
101456
101483
101512
101540
101570
101601
101633
101665
101698
101732
101765
101801
101834
101867
101902
101937
101972
102008
102042
102076
102110
102143
102177
102209
102239
102270
102301
102330
102361
102390
102418
102445
102471
102497
102521
102544
102564
102585
102604
102620
102636
102653
102666
102677
102687
102696
102703
102709
102714
102717
102718
102717
102716
102712
102706
102700
102690
102681
102668
102654
102637
102619
102599
102577
102552
102526
102498
102467
102436
102402
102367
102329
102291
102249
102206
102162
102118
102070
102021
101971
101919
101866
101812
101758
101702
101646
101589
101531
101473
101415
101359
106481
106477
106479
106477
106477
106475
106475
106473
106473
106472
106472
106472
106473
106475
106477
106481
106485
106490
106497
106505
106514
106524
106534
106546
106558
106570
106584
106598
106611
106626
106640
106654
106670
106682
106693
106704
106713
106719
106729
106736
106738
106738
106737
106736
106732
106725
106714
106707
106695
106689
106673
106668
106649
106648
106616
106628
106616
106632
106643
106636
106653
106686
106710
106760
106778
106824
106866
106913
106964
107008
107045
107078
107111
107145
107179
107214
107250
107284
107315
107341
107364
107382
107395
107401
107400
107397
107390
107381
107370
107354
107338
107320
107299
107278
107255
107236
107218
107194
107171
107147
107122
107099
107073
107052
107023
106999
106974
106951
106929
106903
106878
106856
106836
106817
106797
106778
106759
106742
106725
106710
106696
106681
106669
106656
106645
106635
106627
106618
106611
106604
106598
106595
106592
106591
106591
106591
106592
106596
106604
106611
106625
106639
106651
106654
106668
106679
106696
106710
106726
106739
106760
106788
106814
106838
106862
106889
106917
106947
106967
106973
107002
107027
107045