/*--------------------------------*- C++ -*----------------------------------*\
| =========                 |                                                 |
| \\      /  F ield         | OpenFOAM: The Open Source CFD Toolbox           |
|  \\    /   O peration     | Version:  v1812                                 |
|   \\  /    A nd           | Web:      www.OpenFOAM.com                      |
|    \\/     M anipulation  |                                                 |
\*---------------------------------------------------------------------------*/
FoamFile
{
    version     2.0;
    format      ascii;
    class       surfaceScalarField;
    location    "0.7";
    object      phi;
}
// * * * * * * * * * * * * * * * * * * * * * * * * * * * * * * * * * * * * * //

dimensions      [1 0 -1 0 0 0 0];
oriented        oriented;


internalField   nonuniform List<scalar> 
40240
(
-0.000243176
0.000285288
-0.000397172
0.00019584
-0.000453767
9.80981e-05
-0.000436632
2.54565e-05
-0.000330218
-6.28716e-05
-0.000237461
-4.71777e-05
-0.000173756
-1.69463e-05
-0.000132703
7.77554e-06
-0.000113457
3.22739e-05
-0.000122076
6.4023e-05
-0.000153895
9.18146e-05
-0.00019395
0.000103112
-0.000226969
9.96341e-05
-0.000239687
8.29375e-05
-0.000226834
6.00776e-05
-0.000181589
3.03543e-05
-0.000109908
6.55699e-06
-1.65698e-05
-1.20172e-05
9.47397e-05
-2.66972e-05
0.00023007
-4.7207e-05
0.000403724
-8.19211e-05
0.000623868
-0.000124739
0.000907672
-0.000185199
0.00124746
-0.000238417
0.00165286
-0.000300177
0.00214386
-0.000380901
0.0027113
-0.000455197
0.0033418
-0.000521824
0.00403066
-0.00057583
0.00476798
-0.000607212
0.00555462
-0.00064371
0.00639596
-0.000722481
0.00730015
-0.000805011
0.00823233
-0.000815218
0.00907523
-0.000700035
0.00971456
-0.00050769
0.0100479
-0.00020533
0.0101193
5.17007e-05
0.010366
-0.000127925
0.0106758
-0.000189641
0.010742
5.12454e-05
0.0106958
0.000159597
0.0102699
0.000539368
0.00946838
0.000911003
0.00891481
0.000668666
0.00828687
0.000744249
0.00763304
0.000770029
0.00682994
0.000917475
0.00567739
0.00126252
0.00411081
0.00167048
0.00211403
0.00209596
-0.000216187
0.00242589
-0.00271589
0.0025919
-0.00538052
0.00275417
-0.00829673
0.00300186
-0.0114541
0.0032371
-0.0147742
0.00339152
-0.0182455
0.00353632
-0.0216911
0.0035064
-0.0248289
0.00319483
-0.0275181
0.0027437
-0.0297131
0.00224572
-0.0315748
0.00190603
-0.0331365
0.00160364
-0.0342738
0.00116714
-0.035033
0.000783151
-0.0351487
0.000133604
-0.0353744
0.000235493
-0.0353965
2.33261e-05
-0.034979
-0.000425657
-0.0338741
-0.00112239
-0.0322646
-0.00163521
-0.0303107
-0.0019879
-0.0281293
-0.00222336
-0.0257815
-0.00239713
-0.0233024
-0.00253663
-0.0207289
-0.00263978
-0.0180973
-0.00270721
-0.0154447
-0.00273694
-0.012811
-0.00272368
-0.0102351
-0.0026669
-0.00776151
-0.0025652
-0.00545171
-0.0024069
-0.00334315
-0.00222432
-0.00143193
-0.00205781
0.000311611
-0.00191249
0.00189693
-0.00175439
0.00334999
-0.00161955
0.00453139
-0.00130321
0.00542611
-0.00102024
0.006058
-0.000758529
0.00649193
-0.00058033
0.0067071
-0.000362007
0.0067004
-0.00014044
0.006838
-0.000291486
0.007034
-0.000369257
0.00721776
-0.000363105
0.00695532
7.80171e-05
0.00671168
6.08743e-05
0.00659103
-6.0719e-05
0.00661494
-0.000204932
0.00649816
-6.29598e-05
0.00641295
-9.26854e-05
0.00630797
-7.26498e-05
0.00631121
-0.000181214
0.00624774
-0.000110252
0.00595829
0.000117951
0.00564621
0.000142937
0.00531296
0.000168953
0.00503373
0.00011926
0.00485739
2.28268e-05
0.00481478
-0.000104863
0.00490542
-0.000232081
0.0052071
-0.000436299
0.00565156
-0.000571691
0.00617034
-0.000638762
0.00675805
-0.000700797
0.00738819
-0.000735331
0.00793348
-0.000642898
0.00843664
-0.000595537
0.00888067
-0.000530243
0.00893681
-0.00013492
0.00888872
-2.51441e-05
0.00883953
-1.80669e-05
0.00884446
-5.84975e-05
0.00897516
-0.000180627
0.00922394
-0.000290305
0.00956823
-0.000377623
0.00992425
-0.000378422
0.00993621
-2.49229e-05
0.00987787
5.1851e-05
0.00973987
0.000137352
0.0095227
0.000226425
0.00923447
0.000308414
0.00887573
0.000387839
0.00841245
0.00050017
0.00783962
0.000618128
0.00719477
0.000698744
0.00664627
0.000610905
0.00621782
0.000499604
0.00602323
0.000273399
0.00595287
0.000155976
0.00588548
0.000160259
0.00570344
0.000285951
0.00559325
0.000216336
0.00552173
0.00019035
0.00547802
0.000167894
0.00530379
0.000308407
0.00503147
0.000411318
0.00486456
0.000306997
0.0048841
0.000126118
0.0051477
-0.000114178
0.00534272
-4.8975e-05
0.00551127
-8.32499e-06
0.00550607
0.000168155
0.00543038
0.000242861
0.00537787
0.000221956
0.00547369
7.60457e-05
0.00571838
-7.0244e-05
0.00596788
-7.75861e-05
0.00626894
-0.000126774
0.00670346
-0.000261372
0.00721931
-0.000344245
0.00772871
-0.000339012
0.00813156
-0.000234484
0.00840329
-0.000105494
0.00861829
-5.15238e-05
0.00872934
5.08726e-05
0.00904957
-0.000160377
0.00935591
-0.000149577
0.0095969
-8.69315e-05
0.00975418
-1.05908e-05
0.0098309
6.56965e-05
0.00997947
-9.51253e-06
0.0101656
-5.3885e-05
0.0103085
-1.77728e-05
0.0103507
7.49572e-05
0.010356
0.000108926
0.0103679
9.58909e-05
0.0102246
0.000242998
0.009756
0.00056324
0.00950899
0.000327161
0.00892654
0.000659111
0.00811969
0.000873519
0.00724547
0.000934669
0.00614897
0.00114496
0.00505105
0.00113512
0.00400783
0.00107326
0.00299729
0.00103144
0.00205494
0.000955673
0.00124591
0.000816371
0.000507175
0.000738772
-0.000246836
0.000742724
-0.00106734
0.000795346
-0.00185634
0.000753793
-0.0025487
0.000654501
-0.00314675
0.000555233
-0.00355695
0.000357978
-0.00367711
4.55372e-05
-0.00377081
1.69854e-05
-0.00384517
-1.633e-05
-0.00388385
-6.37576e-05
-0.00386841
-0.000124891
-0.00361546
-0.000374089
-0.00323079
-0.000514806
-0.00273925
-0.00062992
-0.002104
-0.000779742
-0.00143604
-0.000817633
-0.000908727
-0.000679943
-0.00031285
-0.000750688
0.000392416
-0.000871057
0.00110917
-0.000891362
0.00181486
-0.000888847
0.00249402
-0.000870789
0.00312784
-0.000830156
0.00372784
-0.000799077
0.00430404
-0.000775507
0.00481629
-0.000716132
0.00520201
-0.000593391
0.00547344
-0.000481949
0.00570292
-0.000441043
0.00597075
-0.000479803
0.00622686
-0.000467599
0.00644068
-0.000423853
0.00661328
-0.000380554
0.00672675
-0.00031814
0.00673245
-0.000207629
0.00681084
-0.000274873
0.00696095
-0.00034225
0.0071082
-0.000333323
0.00718932
-0.000261301
0.00718009
-0.000165537
0.0071286
-0.000116244
0.007015
-4.45458e-05
0.00690634
-4.04342e-05
0.00684802
-7.95688e-05
0.00683419
-0.000114564
0.00684482
-0.000130353
0.00680302
-6.83105e-05
0.00669167
1.18756e-05
0.00654138
6.04074e-05
0.00640205
6.15516e-05
0.00628643
4.99999e-05
0.00619666
3.55409e-05
0.00611175
4.75505e-05
0.00604942
3.06041e-05
0.00600151
3.17286e-05
0.00597443
2.29988e-05
0.00594319
4.1438e-05
0.00592798
3.52595e-05
0.0058951
6.54766e-05
0.00587933
5.85433e-05
0.00592722
7.71768e-06
0.00600669
-1.26361e-05
0.00607188
1.30089e-05
0.00617783
-1.34472e-05
0.00630699
-2.79932e-05
0.00642756
-1.03181e-05
0.00650061
4.99816e-05
0.00659487
3.83872e-05
0.00673312
4.30677e-06
0.00683857
4.73577e-05
0.00699664
4.24073e-06
0.00704041
0.000127586
0.00713484
8.58874e-05
0.00728157
4.49287e-05
0.00752674
-4.58845e-05
0.00778539
-5.17227e-05
0.00789336
0.000108042
0.00817133
-5.09153e-05
0.00841401
-8.50576e-06
0.00855665
9.96512e-05
0.00878757
2.02258e-05
0.009009
4.04824e-05
0.0093426
-6.62552e-05
0.00977166
-0.0001581
0.00993356
0.000119068
0.0102294
-1.02781e-05
0.0104257
9.7415e-05
0.0106888
3.58441e-05
0.0109095
8.15055e-05
0.0110695
0.000146441
0.0115456
-0.000166417
0.0119565
-9.57698e-05
0.0121157
0.000159671
0.0124303
9.8662e-06
0.01261
0.000152109
0.0131388
-0.000195472
0.0136029
-0.000122804
0.0137623
0.000179486
0.0140573
3.84989e-05
0.0143893
3.18575e-06
0.0147948
-5.21102e-05
0.015223
-7.89049e-05
0.0153854
0.000192869
0.0156594
8.46276e-05
0.0160235
-4.96238e-06
0.0164805
-0.000100451
0.0167116
0.000122202
0.0171608
-0.000101275
0.0174703
7.50664e-05
0.0180273
-0.000204992
0.018448
-5.52137e-05
0.0191985
-0.000401264
0.0193479
0.000206219
0.0193806
0.000321303
0.0194805
0.00025582
0.0197951
3.76224e-05
0.0202464
-9.6201e-05
0.0205463
5.00845e-05
0.0210827
-0.000184391
0.0213983
3.3248e-05
0.0219916
-0.000247799
0.0223076
2.99997e-05
0.0230814
-0.00043548
0.0233271
8.9445e-05
0.0233511
0.000312275
0.0233733
0.000315993
0.0235244
0.000186376
0.0238208
3.63061e-05
0.0241771
-2.92483e-05
0.0249594
-0.00046423
0.0250099
0.000268948
0.0250968
0.00023553
0.0254738
-5.57288e-05
0.0261819
-0.0003988
0.0264844
1.9224e-05
0.0270919
-0.00030717
0.0270634
0.000328023
0.0270045
0.000346851
0.0272638
2.31321e-05
0.0275792
-4.2073e-05
0.0284935
-0.000652296
0.0284137
0.000347822
0.0283488
0.000327283
0.0282421
0.00036617
0.0282802
0.000215635
0.0288082
-0.000278244
0.0294554
-0.000412765
0.0297524
-6.90881e-05
0.030219
-0.000252071
0.0300301
0.000404836
0.0299631
0.000276402
0.0300941
7.67446e-05
0.0303605
-6.75049e-05
0.030901
-0.000353772
0.0307929
0.000287439
0.0305688
0.000430402
0.0304419
0.000308229
0.030739
-0.000116623
0.0312795
-0.000377468
0.0315988
-0.000156308
0.0316765
7.17363e-05
0.0315569
0.000271628
0.0313593
0.000343642
0.0312738
0.000226806
0.0314456
-2.69874e-05
0.0316597
-9.15771e-05
0.0315793
0.000193864
0.0317818
-0.000113052
0.0320897
-0.000221437
0.0324408
-0.000210196
0.0320671
0.000504366
0.0318213
0.000357917
0.0314879
0.000433636
0.031298
0.000283377
0.0311814
0.000205058
0.0311361
0.000135472
0.0316287
-0.000393762
0.032109
-0.00038056
0.0322537
-4.15921e-05
0.0326144
-0.000269668
0.0321632
0.000543009
0.0319273
0.00032446
0.0316118
0.000403895
0.0313373
0.000363954
0.0311644
0.000265117
0.0311367
0.000113356
0.0311184
0.000102179
0.0311707
4.25176e-05
0.0313109
-5.4002e-05
0.0313876
8.95279e-06
0.0314814
-1.33482e-05
0.0311538
0.000413183
0.0310012
0.000221412
0.030904
0.000158979
0.0308174
0.000153672
0.0308296
6.77354e-05
0.0308342
7.6775e-05
0.0308422
6.76423e-05
0.0307628
0.000151832
0.0306077
0.000222662
0.0305684
0.000110853
0.0305283
0.000101803
0.030441
0.000151651
0.0302389
0.000259881
0.0302091
9.43475e-05
0.0301206
0.000141362
0.0300159
0.000160623
0.0298268
0.000238699
0.0297708
0.000111399
0.0297855
4.52264e-05
0.0296663
0.000188836
0.0294876
0.000216618
0.0292612
0.000260427
0.0292364
7.76422e-05
0.0292548
2.37209e-05
0.0291603
0.000139181
0.0290577
0.000139808
0.028899
0.000195729
0.0288535
9.09683e-05
0.0288539
2.81537e-05
0.0288277
5.38838e-05
0.0286491
0.000211096
0.0285143
0.000167389
0.0284932
5.21542e-05
0.0284196
0.000101606
0.0283502
9.42905e-05
0.0281944
0.000180092
0.028158
6.07719e-05
0.0281606
1.07797e-05
0.0280893
9.17375e-05
0.0280441
5.91035e-05
0.0277494
0.000310694
0.0275162
0.000253568
0.0275405
-7.75434e-06
0.0276798
-0.000122622
0.0276973
-7.54054e-06
0.0276606
4.34562e-05
0.027593
7.99338e-05
0.0275583
4.90374e-05
0.0275363
3.24636e-05
0.0274612
8.78207e-05
0.027446
2.56291e-05
0.0272888
0.000170973
0.0269721
0.00033101
0.0268885
9.54831e-05
0.026965
-6.37895e-05
0.0270661
-9.61311e-05
0.027082
-1.40531e-06
0.0270353
5.54873e-05
0.0269987
5.05856e-05
0.0270405
-2.95033e-05
0.0270662
-1.77699e-05
0.027036
3.60388e-05
0.0270279
1.20481e-05
0.0268374
0.000193577
0.0265304
0.000310206
0.0265252
1.82219e-05
0.0267568
-0.000233968
0.0270016
-0.000253903
0.0270209
-2.26393e-05
0.0269631
4.88754e-05
0.0269382
2.53058e-05
0.0269244
7.07421e-06
0.0268735
5.07502e-05
0.0268278
3.92711e-05
0.026881
-5.88079e-05
0.0269354
-6.45313e-05
0.0269536
-2.36815e-05
0.0269392
-1.0862e-05
0.026905
3.21749e-05
0.0269228
-1.94126e-05
0.0269833
-6.3117e-05
0.0270775
-8.9246e-05
0.0270651
2.52033e-06
0.0270731
-1.75877e-05
0.0271285
-6.66194e-05
0.0271763
-5.87811e-05
0.0271306
2.70177e-05
0.0271183
-2.18964e-06
0.0271996
-8.65866e-05
0.0272852
-8.95974e-05
0.0273433
-5.52613e-05
0.0273371
-1.6281e-06
0.0273719
-4.24649e-05
0.0274406
-7.40558e-05
0.0274574
-2.45819e-05
0.0274942
-3.66986e-05
0.0275453
-5.58158e-05
0.0276537
-0.000110197
0.0277169
-6.07847e-05
0.0278013
-7.78263e-05
0.027751
5.31074e-05
0.0276959
6.32509e-05
0.0278307
-0.00013268
0.0280386
-0.000204585
0.0281626
-0.00012022
0.0281789
-1.50073e-05
0.028208
-2.39741e-05
0.0282631
-4.9894e-05
0.028216
4.45559e-05
0.0282017
2.20191e-05
0.0283129
-0.000109778
0.0284224
-0.000107073
0.0285397
-0.000112366
0.0286121
-7.21731e-05
0.0286705
-5.94998e-05
0.0288249
-0.000156093
-8.43546e-05
-2.47284e-05
0.000353514
-2.78284e-05
0.000241177
2.41306e-05
9.06638e-05
0.000142928
-5.03192e-05
0.000314752
-0.00018926
0.000516404
-0.000203789
0.000727621
-0.000181149
0.000933419
-0.000148544
0.00113403
-0.000116342
0.00131034
-5.74421e-05
0.00146524
-8.05345e-06
0.00159943
3.08601e-05
0.0017306
3.43579e-05
0.00187303
1.03891e-05
0.00204158
-3.5588e-05
0.00224025
-9.25742e-05
0.00247824
-0.000152962
0.00276495
-0.000217219
0.00310762
-0.000284709
0.00351414
-0.00036568
0.00398734
-0.000463327
0.00450699
-0.000548687
0.00505016
-0.000629905
0.00559357
-0.000681728
0.00615268
-0.000753097
0.00675979
-0.000869146
0.0074059
-0.000981164
0.00807674
-0.00109301
0.00878014
-0.00118206
0.00952904
-0.00120849
0.0102831
-0.00120683
0.0109588
-0.00128263
0.011603
-0.00142556
0.01226
-0.00136553
0.0127749
-0.00100208
0.013052
-0.000638051
0.0131916
-0.000210088
0.0131392
0.000225097
0.0129488
0.000178579
0.012681
0.000200163
0.0124059
0.000449233
0.0118734
0.000814309
0.0110168
0.00151869
0.00982135
0.0022266
0.00772429
0.0028877
0.00505842
0.00353561
0.00207424
0.00387591
-0.00123067
0.00433948
-0.00493712
0.00508026
-0.0090248
0.00586416
-0.0135254
0.00669831
-0.018433
0.00743225
-0.0236799
0.00793502
-0.0291386
0.00830552
-0.0345063
0.00845775
-0.0394092
0.00821853
-0.0436698
0.0077219
-0.0474654
0.00739885
-0.050828
0.00693655
-0.0536804
0.00611512
-0.0559006
0.00502599
-0.0574902
0.00388004
-0.0582413
0.0026871
-0.058318
0.00171433
-0.0578146
0.000697088
-0.0567874
-0.000214789
-0.0553897
-0.00123641
-0.053504
-0.00162662
-0.0515026
-0.00196027
-0.0494505
-0.00246743
-0.0473375
-0.00323201
-0.0450764
-0.00389977
-0.0425992
-0.00447542
-0.0398871
-0.00495348
-0.0369391
-0.00536973
-0.0337595
-0.00574877
-0.0303744
-0.00606622
-0.0268263
-0.00630641
-0.0231693
-0.00645486
-0.0194593
-0.00650244
-0.0157628
-0.00643562
-0.0121724
-0.00623215
-0.00877689
-0.00588484
-0.00568844
-0.00541623
-0.00298145
-0.00489408
-0.000646783
-0.00439712
0.00138565
-0.00394188
0.00308202
-0.00347478
0.00423111
-0.00258474
0.00519889
-0.00208116
0.00586993
-0.00153008
0.00660939
-0.00142045
0.00730258
-0.00119371
0.00839025
-0.00139473
0.00978997
-0.00186328
0.0107723
-0.00153411
0.0101532
7.4238e-05
0.011096
-0.00104932
0.0123882
-0.00141285
0.0133974
-0.00124865
0.0139666
-0.000952908
0.0142603
-0.000533911
0.01428
-0.00028452
0.014315
-0.000283577
0.0142968
-0.000340107
0.0141121
-9.73854e-05
0.014021
4.01878e-05
0.0139998
2.2838e-06
0.01424
-0.000228859
0.0147466
-0.000542328
0.0153698
-0.000749439
0.0160366
-0.00091394
0.0167797
-0.00111075
0.0176308
-0.00141476
0.0186735
-0.00173346
0.0199692
-0.00204546
0.0215618
-0.00239654
0.0234003
-0.00266759
0.0251677
-0.0024968
0.026314
-0.00182512
0.0264519
-0.000746401
0.0265475
-0.000297302
0.0267318
-0.000271047
0.02705
-0.000389883
0.0275116
-0.000563498
0.0280417
-0.000744719
0.0285794
-0.000851824
0.0291194
-0.000934089
0.0296215
-0.000886942
0.0300021
-0.000406265
0.030262
-0.000206811
0.0302961
0.000109354
0.0302578
0.000275655
0.0300383
0.000545827
0.029536
0.000916783
0.0287893
0.00128211
0.0278819
0.00157037
0.0268676
0.00176646
0.0258127
0.00173081
0.0247408
0.00164372
0.023844
0.00124968
0.0231475
0.00093911
0.0225712
0.0008228
0.0219135
0.00103114
0.0212898
0.000939733
0.0208602
0.000729844
0.0205585
0.000584823
0.0202146
0.000776993
0.0197493
0.00101075
0.0188131
0.00138107
0.0179509
0.00112895
0.0173229
0.000659787
0.016989
0.000433636
0.0169562
0.000181389
0.016934
0.00035004
0.0166572
0.000682099
0.0161948
0.00085028
0.0157553
0.000682974
0.0154355
0.000418831
0.0151992
0.000324918
0.0151866
5.96971e-05
0.0155921
-0.000495287
0.0163927
-0.000973639
0.0173769
-0.0011524
0.0182709
-0.000957801
0.0187204
-0.000391129
0.0189385
-0.000106805
0.0190383
0.000112713
0.0190932
-5.56196e-05
0.0193554
-0.000255878
0.0196408
-0.000220413
0.0197417
4.10282e-05
0.0196762
0.00026713
0.0192857
0.000519204
0.0186902
0.000672598
0.0179694
0.000826877
0.0171448
0.0010166
0.0162143
0.00115245
0.0152492
0.0011688
0.0141468
0.0014446
0.0128632
0.00193529
0.0112633
0.00200903
0.00967492
0.00232627
0.00809506
0.00252003
0.00689491
0.00218646
0.00575155
0.0023333
0.00452584
0.00240137
0.003228
0.00240313
0.00186774
0.00241368
0.000517163
0.00232022
-0.000748105
0.00208809
-0.00194945
0.00193918
-0.0030854
0.00186601
-0.00412681
0.00181079
-0.00495669
0.0015492
-0.00552752
0.00118794
-0.00590932
0.000899189
-0.00614338
0.000544607
-0.00619046
3.02002e-05
-0.00600187
-0.000239696
-0.00550503
-0.000600816
-0.00486091
-0.000804155
-0.00421016
-0.000879389
-0.0036952
-0.00100323
-0.00322427
-0.0011099
-0.00270081
-0.00128648
-0.00210063
-0.00152056
-0.00140288
-0.00166643
-0.000555758
-0.00168395
0.000425579
-0.00190164
0.00157743
-0.00220193
0.00291555
-0.00241387
0.00440664
-0.0025714
0.0059615
-0.00262385
0.0074827
-0.00255585
0.00895173
-0.00247444
0.0104146
-0.00244483
0.0118744
-0.00238444
0.0132543
-0.00218364
0.0144007
-0.00184179
0.015113
-0.00136842
0.015466
-0.00104769
0.0156692
-0.000884584
0.0158461
-0.000813704
0.0160515
-0.00079802
0.0163106
-0.00078716
0.0165483
-0.00065308
0.0167553
-0.000684139
0.0170167
-0.000800223
0.0173028
-0.000810097
0.0175763
-0.000718427
0.0178418
-0.000606428
0.0182036
-0.000645705
0.0186766
-0.000676335
0.0191446
-0.000657683
0.0192782
-0.000355446
0.0191304
-9.94698e-05
0.0186007
0.000278018
0.0180514
0.000370771
0.0176588
0.000304041
0.0173602
0.000268626
0.0171848
0.000158891
0.0171428
2.45197e-05
0.0171335
-7.51105e-06
0.0171444
-2.07047e-06
0.017109
3.48179e-05
0.0170271
9.66688e-05
0.017034
1.25627e-05
0.0170583
2.79487e-05
0.0170712
4.30223e-05
0.0169989
0.000166092
0.0169446
0.000156036
0.0169842
2.52382e-05
0.0172837
-0.000244372
0.0177794
-0.000403329
0.0180517
-0.000192792
0.0180011
0.000120888
0.0177892
0.000306416
0.0176105
0.000348779
0.0175485
0.000235065
0.0175808
0.000117042
0.0176631
0.000120446
0.017913
-8.13433e-05
0.0182787
-6.77795e-05
0.0187179
-0.000174649
0.0191512
-0.000197165
0.0193302
-2.88938e-05
0.019295
0.000190594
0.0193123
0.000308516
0.019382
0.000107033
0.0196243
-1.52306e-05
0.0199381
2.67524e-05
0.0205373
-0.00032842
0.0210834
-0.000242134
0.0212654
1.65002e-05
0.0212533
0.000126803
0.0215048
0.000149001
0.0217981
-1.63986e-05
0.0219697
0.000217165
0.0225028
-0.000200183
0.0230066
-0.000121588
0.0233127
0.000146383
0.02346
-2.36256e-06
0.0238387
-0.000156367
0.0240631
0.00025754
0.0245875
-0.000190525
0.0249996
6.97226e-05
0.0252115
-7.47625e-05
0.025631
-0.000201744
0.0258763
0.000274886
0.0264332
-0.000182021
0.0268171
-3.90346e-05
0.0270757
3.89422e-05
0.0274726
-0.000122471
0.0277313
0.000285083
0.0283767
-0.000202679
0.0291132
-0.00038186
0.0295861
-0.000219245
0.0298471
0.000216643
0.029955
0.000148489
0.0301541
0.000241178
0.0304723
-0.000163041
0.0309127
-0.000132176
0.0312002
-0.000339041
0.0317196
4.26644e-05
0.0321208
0.000273316
0.0327685
-3.47806e-05
0.033527
-0.000360407
0.0339643
-0.000186088
0.0342197
0.000144234
0.0343564
2.89375e-05
0.0346013
0.000140416
0.0348788
-0.000183616
0.0353523
-0.000103267
0.03561
-0.000356861
0.0360886
-5.21201e-05
0.036312
0.000425289
0.0367795
0.000185488
0.0374793
-0.000178111
0.0381258
-0.000288213
0.0383599
5.72112e-05
0.0384223
-0.000203256
0.0386659
0.000346026
0.0393109
-9.16662e-05
0.0396754
-0.000111998
0.0397459
-0.000162948
0.0401701
-9.56697e-05
0.04046
-0.000309002
0.0407446
0.000371293
0.0411245
0.000230656
0.0415208
-0.000109254
0.0417529
-4.73267e-06
0.041791
-0.000430371
0.0421592
0.000244824
0.0425495
0.000196728
0.0432268
-5.10634e-05
0.0440782
-0.000383065
0.0441879
-0.000145554
0.0441515
-0.00014592
0.0443142
-7.3142e-06
0.0444478
-0.000161426
0.0447717
0.00030063
0.0452893
-3.11069e-05
0.0455963
-3.9966e-05
0.0456034
0.000118302
0.0454801
-4.46591e-05
0.0456761
0.000277299
0.0461591
0.000130885
0.0469068
-0.000256561
0.0473068
-0.000347999
0.0471645
-6.94523e-05
0.0471494
2.02396e-05
0.0471988
0.000174391
0.0473098
0.000311812
0.0478439
-4.37382e-05
0.0484323
-0.000228242
0.0484169
0.000115638
0.0482431
0.000217014
0.0484344
0.000126321
0.0483524
7.50534e-05
0.0480692
0.000168677
0.0480363
-6.20765e-05
0.0482455
0.000412728
0.0483452
0.000364679
0.0486432
0.000232384
0.0492001
-0.000180286
0.050135
-0.000641899
0.0508421
-0.000481795
0.0505609
-2.14713e-05
0.0500151
0.000265307
0.0496313
0.000440999
0.049342
0.00010858
0.0494276
0.000542117
0.0494646
0.000374776
0.0496332
0.000319373
0.049958
0.000124243
0.0504968
-0.000183386
0.0512596
-0.00056274
0.0521278
-0.000680766
0.0525371
-0.000288486
0.0520745
0.000486671
0.0513742
0.000782892
0.0508509
0.00061245
0.0507981
0.000553578
0.0509792
0.000108833
0.0516277
-0.000430352
0.0524811
-0.000638818
0.0527406
-0.000132384
0.052401
0.000490369
0.052085
0.000461626
0.0522341
8.5029e-05
0.0522955
0.000219684
0.0520055
0.000464954
0.051766
0.000407146
0.051924
6.07958e-05
0.0521449
8.57186e-05
0.0519669
0.000326725
0.051842
0.000323548
0.0520367
2.50759e-05
0.0522159
9.90513e-05
0.0518587
0.000508937
0.0514794
0.000486403
0.0516451
8.49332e-05
0.0522454
-0.000331259
0.052731
-0.000186146
0.0524089
0.000435678
0.0520873
0.000403889
0.0520759
0.00020785
0.0525418
-0.00028646
0.0529476
-0.00017889
0.052672
0.00037146
0.0523983
0.000356812
0.0525359
-4.51814e-05
0.0527718
2.08497e-06
0.0524958
0.000467855
0.0521851
0.000391494
0.0520966
0.000228866
0.0522825
-5.5096e-05
0.0525544
-6.74951e-05
0.0521981
0.00043927
0.0517982
0.000430234
0.0517683
0.000153241
0.0521687
-0.000325803
0.0530523
-0.000557009
0.0538824
-0.00055704
0.0539333
-6.53177e-05
0.0531691
0.000662752
0.0525571
0.000620771
0.0524615
0.000149385
0.0524068
0.000156748
0.0519984
0.000475221
0.0515785
0.000464403
0.0514261
0.000261591
0.0516438
-0.000177362
0.0523323
-0.000496288
0.0531618
-0.000479288
0.0534137
-0.000153419
0.0528486
0.000517152
0.0522676
0.000493385
0.0523207
-3.32676e-05
0.0525845
-0.000195118
0.0525483
9.22008e-05
0.0519771
0.00055578
0.051467
0.000497069
0.0514747
3.87491e-05
0.0517821
-0.00029355
0.0526225
-0.000640141
0.0536115
-0.00067715
0.0539189
-0.000315849
0.0534938
0.000175402
0.0525659
0.000676574
0.0517543
0.000785637
0.0513567
0.000440381
0.0514826
-9.89761e-05
0.0520872
-0.000600467
0.0526391
-0.000502315
0.0526445
1.52032e-05
0.052087
0.000494099
0.0515654
0.000445119
0.0515629
-2.97974e-05
0.0521027
-0.000530826
0.052587
-0.000466504
0.0524765
8.11075e-05
0.0522525
0.000154347
0.0522118
-4.0645e-05
0.0523511
-0.000143257
0.0522617
5.65404e-05
0.0521356
4.75886e-05
0.0524055
-0.000337318
0.0527206
-0.000300911
0.052671
2.49717e-05
0.0521023
0.00047508
0.0516661
0.000345366
0.051805
-0.000190675
0.0520501
-0.000251961
0.0520845
-9.17707e-05
0.0521322
-0.000125072
0.0525226
-0.000416417
0.0528793
-0.000394722
0.0526806
0.000128023
0.0521674
0.000404838
0.0518711
0.000243759
0.0521158
-0.000309884
0.052845
-0.000667577
0.0534856
-0.000568941
0.0534987
-0.000159424
0.0528616
0.000443853
0.0521389
0.000609753
0.0517652
0.000357565
0.0517061
5.02822e-05
0.0521386
-0.000478108
0.0529116
-0.000718433
0.0535482
-0.000608193
0.0534778
-5.01584e-05
0.0531482
0.000231506
0.0529614
8.37034e-05
0.0532377
-0.000338859
0.0535605
-0.000385261
0.0534897
-9.15119e-05
-4.55244e-05
0.00014945
0.000248189
0.000260563
0.000173848
0.000413752
-1.96977e-05
0.000583757
-0.000176789
0.000784795
-0.000350834
0.00109636
-0.000471678
0.00143021
-0.000467913
0.00171515
-0.000383552
0.00190898
-0.000256385
0.00208636
-0.000178275
0.00226059
-0.000122271
0.00243058
-7.52653e-05
0.00260452
-7.17691e-05
0.00278706
-0.000100568
0.00298387
-0.000157402
0.00319589
-0.000226716
0.00342616
-0.000302623
0.00367709
-0.000384667
0.00394945
-0.000470716
0.00424358
-0.000570769
0.00456099
-0.000689044
0.0048973
-0.000790491
0.00526179
-0.000895868
0.00573885
-0.00105553
0.00629454
-0.00120462
0.00689101
-0.00136593
0.00753444
-0.00151665
0.00823211
-0.00165533
0.00894001
-0.00175228
0.0096133
-0.00179397
0.0102893
-0.00182581
0.0110144
-0.0018593
0.0117128
-0.00189564
0.0122589
-0.00176725
0.0126841
-0.00140459
0.0129909
-0.000856715
0.0131497
-0.000257192
0.0131487
0.000345252
0.0128702
0.000577954
0.0122229
0.000963225
0.0111265
0.00166173
0.00938505
0.00267396
0.00694298
0.00408028
0.00388893
0.00540331
0.000339416
0.00656224
-0.00373097
0.00773164
-0.00838607
0.00865369
-0.0134708
0.00954289
-0.0188971
0.0106192
-0.0244505
0.011525
-0.030009
0.0123621
-0.0354536
0.0129816
-0.0406088
0.0131914
-0.0454548
0.013251
-0.049875
0.0129754
-0.0536143
0.0120497
-0.0565268
0.0107212
-0.0586274
0.00957859
-0.059834
0.00821538
-0.0604139
0.0067625
-0.0606633
0.0053423
-0.0605221
0.00379823
-0.0602319
0.00245464
-0.0598494
0.00139333
-0.0592369
0.000155456
-0.0582634
-0.00112161
-0.057042
-0.00240218
-0.0550774
-0.00355049
-0.052801
-0.00420594
-0.0504599
-0.00478531
-0.0481207
-0.00555322
-0.0456982
-0.00630881
-0.0430861
-0.00707923
-0.0402132
-0.00782213
-0.0370504
-0.00853166
-0.0335912
-0.00920977
-0.0298646
-0.00979833
-0.0259296
-0.0102513
-0.0218636
-0.0105362
-0.0177525
-0.0106339
-0.0136846
-0.0105274
-0.00972907
-0.0102161
-0.00592832
-0.00972398
-0.00233626
-0.00906493
0.000976065
-0.00828795
0.00395171
-0.00747978
0.00656196
-0.00667252
0.00881971
-0.00585781
0.0109627
-0.00485757
0.0128289
-0.00408812
0.0145528
-0.00339248
0.0161265
-0.00319136
0.0174748
-0.0027142
0.0186996
-0.00278914
0.0195019
-0.00283116
0.0202112
-0.00241054
0.0214174
-0.00130608
0.0214726
-0.00128415
0.0213648
-0.00148205
0.0211506
-0.00121395
0.0210406
-0.00101324
0.0212527
-0.000925472
0.0217228
-0.000935401
0.0219642
-0.000706501
0.0217421
-0.000293209
0.0215533
-8.04155e-05
0.0218099
-0.000390495
0.0224736
-0.000834205
0.0233447
-0.00126507
0.0243073
-0.00166369
0.0253209
-0.00191612
0.0263777
-0.00211615
0.0275054
-0.00237674
0.0286859
-0.00272459
0.0299326
-0.003099
0.0312528
-0.00347425
0.0326515
-0.00389312
0.0340027
-0.0041036
0.0352078
-0.00377616
0.0361922
-0.00287506
0.0370633
-0.00167796
0.0381164
-0.001407
0.0392634
-0.00146769
0.0405131
-0.00168079
0.0418836
-0.00196473
0.0433551
-0.00223545
0.0448209
-0.00232522
0.0459507
-0.0020589
0.0461982
-0.00111779
0.0460743
-0.000260035
0.0457444
0.000149364
0.045506
0.000376395
0.0453349
0.000480591
0.045187
0.000730814
0.0449466
0.00119509
0.0444991
0.00176906
0.0437191
0.0023967
0.0426385
0.00290274
0.0414389
0.00300131
0.0403442
0.00281771
0.0396914
0.00199132
0.0394736
0.00125017
0.0394459
0.000944006
0.0394415
0.00112637
0.0387614
0.00169583
0.0368562
0.00273244
0.0345701
0.0029666
0.0322772
0.00317794
0.0304417
0.00297064
0.0291216
0.0028369
0.0278217
0.00257
0.0264592
0.00216796
0.0255974
0.00144318
0.0255242
0.000402537
0.0256324
0.000399523
0.0256225
0.000851914
0.0255192
0.00112328
0.0250697
0.00129908
0.0242312
0.00143241
0.023147
0.00158279
0.0221861
0.00119921
0.0215071
0.000361137
0.0211532
-0.000443003
0.0210854
-0.000910493
0.0210974
-0.000798358
0.0215355
-0.00065887
0.0222141
-0.000621195
0.0228941
-0.000405752
0.0233097
-0.000313272
0.0233316
-0.000125364
0.0231981
6.65656e-05
0.0229574
0.000429194
0.0225004
0.000863503
0.0218242
0.00133138
0.0209501
0.00167549
0.0199191
0.00198022
0.0187097
0.00234145
0.0173139
0.00265928
0.0158323
0.00275649
0.0142846
0.00309175
0.01267
0.00364406
0.0110051
0.00375912
0.00954606
0.00386262
0.00808336
0.00404967
0.00646139
0.00386361
0.00486812
0.00396956
0.00330431
0.00400241
0.00177238
0.00396457
0.000267935
0.00393728
-0.00110422
0.00370456
-0.0022583
0.00324796
-0.00326424
0.00294143
-0.00407434
0.00266313
-0.00468955
0.00240644
-0.00518992
0.00202272
-0.00558767
0.00154095
-0.00591422
0.00116502
-0.00613625
0.000706078
-0.00621888
4.9795e-05
-0.0060548
-0.000468477
-0.00542751
-0.00130029
-0.00440506
-0.00190877
-0.00319213
-0.00218562
-0.0020009
-0.00229822
-0.000830034
-0.00239261
0.00037645
-0.00261236
0.00162302
-0.00289301
0.00292613
-0.00310003
0.00425419
-0.00314599
0.00556084
-0.00334642
0.00684682
-0.00363169
0.00817418
-0.00388808
0.00955656
-0.00410391
0.0109625
-0.00418458
0.0123531
-0.00410988
0.0137179
-0.00401172
0.0150799
-0.00398923
0.0164854
-0.00397851
0.0179086
-0.00379959
0.0192765
-0.00340639
0.0205053
-0.00279758
0.0215294
-0.00227418
0.0224598
-0.00201783
0.0233605
-0.00191693
0.0242706
-0.00190983
0.0251934
-0.00190932
0.0259963
-0.00165444
0.0263704
-0.00125725
0.0263366
-0.000964566
0.0260958
-0.000758884
0.025837
-0.000644199
0.0256741
-0.00062179
0.0255392
-0.00068135
0.025479
-0.000782628
0.0253837
-0.000713469
0.0252771
-0.000393447
0.0251377
-9.54281e-05
0.0250263
0.000265142
0.0249672
0.000317879
0.0249452
0.000223578
0.024978
0.000143983
0.0250044
5.30965e-05
0.0248967
6.5382e-05
0.0246472
0.00018718
0.02454
6.30104e-05
0.0244643
8.03367e-05
0.0244472
9.73183e-05
0.0243751
7.91199e-05
0.0242893
0.000116356
0.0242223
0.000129936
0.0242154
0.000206492
0.0243071
0.000106012
0.0243632
2.16727e-05
0.0242425
-5.86908e-05
0.0241945
-0.000277998
0.0241479
-5.71902e-05
0.0242039
0.000165887
0.0242484
0.000374508
0.024432
0.000286615
0.0246776
0.000122985
0.0249626
-2.50509e-05
0.0251223
0.000110459
0.025157
4.60403e-05
0.0252041
5.77475e-05
0.0253101
-9.97999e-05
0.0253798
-7.35116e-05
0.0255442
7.41769e-06
0.0257884
0.000154549
0.0260459
0.000265587
0.0264418
-6.27251e-05
0.0268307
-0.00017033
0.0270507
5.05492e-05
0.0270985
-0.000123189
0.0273349
-0.000217537
0.0276326
-1.55371e-05
0.0277736
0.000257511
0.0281886
1.21871e-05
0.028581
-0.000121929
0.0289322
0.000163082
0.0290633
-3.24391e-05
0.0293644
-0.000121101
0.0295691
0.000247235
0.0299796
-0.000103769
0.0303297
-0.000187193
0.0308336
7.21472e-05
0.0310451
-7.73075e-05
0.0313529
9.1883e-05
0.0317395
-0.000133118
0.0320606
-0.000180075
0.0325684
0.000101148
0.0328057
-7.98527e-05
0.0331558
-4.6576e-05
0.0334426
9.48646e-05
0.0339254