/*--------------------------------*- C++ -*----------------------------------*\
| =========                 |                                                 |
| \\      /  F ield         | OpenFOAM: The Open Source CFD Toolbox           |
|  \\    /   O peration     | Version:  v1812                                 |
|   \\  /    A nd           | Web:      www.OpenFOAM.com                      |
|    \\/     M anipulation  |                                                 |
\*---------------------------------------------------------------------------*/
FoamFile
{
    version     2.0;
    format      ascii;
    class       volScalarField;
    location    "0.7";
    object      T;
}
// * * * * * * * * * * * * * * * * * * * * * * * * * * * * * * * * * * * * * //

dimensions      [0 0 0 1 0 0 0];


internalField   nonuniform List<scalar> 
20400
(
296.548
296.512
296.45
296.371
296.286
296.196
296.112
296.033
295.964
295.905
295.859
295.825
295.806
295.8
295.808
295.827
295.856
295.895
295.942
295.994
296.05
296.105
296.158
296.202
296.232
296.241
296.232
296.204
296.159
296.104
296.05
296.012
296.016
296.055
296.143
296.293
296.512
296.789
297.109
297.446
297.773
298.071
298.313
298.443
298.433
298.304
298.005
297.591
297.138
296.714
296.353
296.067
295.852
295.692
295.577
295.497
295.445
295.411
295.391
295.38
295.376
295.378
295.382
295.388
295.4
295.404
295.413
295.423
295.434
295.449
295.457
295.461
295.465
295.466
295.464
295.46
295.453
295.444
295.432
295.418
295.402
295.382
295.357
295.329
295.299
295.269
295.236
295.202
295.167
295.117
295.074
295.024
294.981
294.949
294.924
294.9
294.861
294.837
294.811
294.794
294.778
294.763
294.745
294.733
294.72
294.703
294.692
294.683
294.683
294.682
294.681
294.679
294.68
294.68
294.681
294.685
294.691
294.7
294.708
294.721
294.744
294.767
294.801
294.849
294.909
294.985
295.078
295.19
295.316
295.44
295.561
295.677
295.786
295.887
295.982
296.071
296.158
296.244
296.336
296.425
296.519
296.614
296.707
296.789
296.863
296.918
296.955
296.974
296.988
296.999
297.012
297.025
297.032
297.026
297.016
296.996
296.974
296.957
296.945
296.932
296.929
296.932
296.938
296.948
296.965
296.981
297.005
297.036
297.064
297.096
297.125
297.159
297.189
297.224
297.259
297.294
297.329
297.359
297.394
297.424
297.447
297.469
297.507
297.527
297.542
297.569
297.583
297.595
297.605
297.614
297.625
297.632
297.636
297.64
297.646
297.653
297.659
297.665
297.676
297.686
297.694
297.701
297.711
297.719
297.723
297.73
297.738
297.748
297.755
297.77
297.777
297.782
297.788
297.794
297.801
297.808
297.819
297.831
297.844
297.855
297.866
297.877
297.884
297.888
297.889
297.89
297.887
297.887
297.886
297.883
297.878
297.868
297.86
297.85
297.843
297.835
297.827
297.82
297.807
297.795
297.784
297.774
297.764
297.753
297.74
297.728
297.721
297.713
297.702
297.695
297.684
297.682
297.677
297.67
297.664
297.659
297.656
297.653
297.648
297.646
297.648
297.647
297.645
297.64
297.64
297.641
297.641
297.641
297.643
297.644
297.644
297.647
297.644
297.647
297.645
297.647
297.651
297.649
297.652
297.648
297.645
297.649
297.65
297.648
297.649
297.639
297.64
297.641
297.634
297.632
297.618
297.607
297.624
297.601
297.598
297.58
297.57
297.559
297.551
297.535
297.529
297.508
297.486
297.477
297.45
297.431
297.405
297.382
297.36
297.342
297.312
297.294
297.256
297.229
297.193
297.154
297.118
297.079
297.042
297.004
296.975
296.926
296.883
296.838
296.793
296.747
296.706
296.648
296.594
296.545
296.487
296.44
296.38
296.319
296.257
296.202
296.145
296.086
296.024
295.973
295.902
295.839
295.772
295.711
295.653
295.581
295.511
295.45
295.386
295.326
295.259
295.208
295.13
295.064
295.009
294.945
294.89
294.825
294.764
294.719
294.647
294.61
294.535
294.479
294.436
294.386
294.34
294.291
294.249
294.205
294.164
294.115
294.081
294.035
294.009
293.974
293.942
293.911
293.885
293.863
293.836
293.816
293.795
293.782
293.759
293.753
293.741
293.729
293.717
293.713
293.714
293.713
293.704
293.708
293.713
293.717
293.717
293.726
293.737
293.751
293.755
293.772
293.794
293.8
293.828
293.836
293.857
293.883
293.907
293.934
293.949
293.978
294.007
294.035
294.057
294.082
294.115
294.147
294.176
294.199
294.23
294.263
294.295
294.324
294.351
294.381
294.409
294.44
294.472
294.504
294.529
294.553
294.584
294.617
294.643
294.664
294.689
294.713
294.737
294.771
294.792
294.811
294.833
294.852
294.877
294.899
294.913
294.924
294.941
294.954
294.969
294.982
294.989
295.005
295.015
295.019
295.02
295.028
295.03
295.037
295.037
295.034
295.029
295.031
295.029
295.02
295.01
295.001
294.996
294.977
294.96
294.949
294.929
294.916
294.894
294.871
294.846
294.822
294.793
294.76
294.739
294.701
294.674
294.633
294.596
294.556
294.517
294.478
294.435
294.388
294.345
294.293
294.244
294.192
294.151
294.1
294.057
294.003
293.96
293.912
296.466
296.426
296.353
296.263
296.168
296.072
295.984
295.906
295.839
295.783
295.741
295.711
295.694
295.69
295.698
295.718
295.749
295.79
295.84
295.897
295.96
296.023
296.085
296.139
296.181
296.202
296.201
296.187
296.162
296.132
296.105
296.106
296.142
296.222
296.341
296.507
296.731
296.994
297.288
297.577
297.852
298.078
298.25
298.299
298.202
297.923
297.49
297.009
296.573
296.215
295.94
295.737
295.59
295.484
295.413
295.377
295.369
295.371
295.382
295.399
295.418
295.44
295.472
295.514
295.574
295.622
295.676
295.719
295.761
295.803
295.839
295.866
295.884
295.891
295.887
295.872
295.849
295.817
295.777
295.733
295.684
295.633
295.579
295.524
295.469
295.419
295.371
295.332
295.266
295.225
295.189
295.158
295.12
295.093
295.067
295.043
294.964
294.978
294.942
294.927
294.916
294.905
294.889
294.881
294.871
294.855
294.843
294.83
294.833
294.833
294.833
294.832
294.827
294.816
294.8
294.78
294.758
294.733
294.698
294.666
294.631
294.598
294.576
294.561
294.552
294.547
294.55
294.566
294.605
294.666
294.756
294.87
294.995
295.131
295.269
295.402
295.519
295.618
295.704
295.779
295.864
295.971
296.105
296.256
296.416
296.573
296.706
296.793
296.84
296.858
296.882
296.909
296.943
296.986
297.011
297.01
296.997
296.975
296.95
296.922
296.902
296.888
296.879
296.877
296.883
296.895
296.914
296.944
296.972
297.007
297.045
297.089
297.124
297.165
297.207
297.25
297.292
297.332
297.376
297.415
297.453
297.487
297.524
297.554
297.596
297.625
297.651
297.675
297.695
297.714
297.731
297.739
297.742
297.74
297.739
297.739
297.741
297.74
297.74
297.747
297.746
297.742
297.739
297.73
297.719
297.709
297.696
297.682
297.667
297.651
297.639
297.625
297.61
297.591
297.571
297.552
297.539
297.535
297.541
297.557
297.577
297.591
297.602
297.611
297.618
297.626
297.635
297.646
297.657
297.667
297.675
297.676
297.677
297.679
297.682
297.693
297.699
297.704
297.703
297.699
297.692
297.686
297.681
297.672
297.667
297.659
297.654
297.648
297.642
297.637
297.632
297.628
297.625
297.62
297.618
297.617
297.612
297.607
297.607
297.605
297.606
297.605
297.603
297.602
297.603
297.605
297.605
297.601
297.603
297.605
297.603
297.608
297.605
297.608
297.606
297.605
297.61
297.608
297.612
297.607
297.61
297.605
297.609
297.605
297.606
297.6
297.597
297.599
297.589
297.588
297.578
297.569
297.572
297.557
297.554
297.532
297.527
297.513
297.501
297.492
297.48
297.459
297.443
297.434
297.405
297.383
297.355
297.337
297.311
297.288
297.267
297.241
297.202
297.174
297.147
297.108
297.073
297.028
296.99
296.957
296.913
296.874
296.837
296.792
296.736
296.69
296.644
296.588
296.545
296.496
296.433
296.378
296.326
296.267
296.204
296.146
296.091
296.021
295.961
295.907
295.84
295.791
295.714
295.647
295.582
295.519
295.452
295.393
295.328
295.265
295.19
295.132
295.07
295.01
294.944
294.884
294.815
294.755
294.705
294.637
294.577
294.526
294.476
294.416
294.368
294.317
294.266
294.226
294.161
294.12
294.084
294.03
294.002
293.958
293.926
293.89
293.858
293.831
293.8
293.782
293.733
293.724
293.702
293.681
293.671
293.659
293.644
293.636
293.61
293.613
293.617
293.603
293.592
293.602
293.611
293.611
293.606
293.618
293.635
293.64
293.636
293.657
293.681
293.693
293.717
293.714
293.736
293.765
293.793
293.818
293.82
293.85
293.886
293.919
293.93
293.952
293.993
294.026
294.052
294.065
294.098
294.133
294.168
294.202
294.231
294.258
294.27
294.312
294.341
294.368
294.391
294.422
294.453
294.487
294.511
294.541
294.566
294.571
294.609
294.643
294.669
294.681
294.697
294.72
294.749
294.767
294.786
294.807
294.826
294.819
294.836
294.852
294.86
294.885
294.887
294.891
294.891
294.89
294.898
294.907
294.909
294.909
294.898
294.893
294.895
294.895
294.88
294.868
294.867
294.861
294.829
294.814
294.798
294.788
294.769
294.742
294.719
294.696
294.669
294.627
294.602
294.569
294.545
294.502
294.471
294.43
294.38
294.345
294.304
294.254
294.214
294.163
294.123
294.065
294.014
293.963
293.919
293.868
293.815
293.765
296.299
296.251
296.16
296.049
295.935
295.827
295.732
295.653
295.589
295.541
295.506
295.485
295.478
295.482
295.499
295.527
295.568
295.619
295.681
295.751
295.826
295.904
295.98
296.05
296.102
296.129
296.141
296.146
296.151
296.177
296.236
296.33
296.451
296.599
296.778
296.981
297.189
297.407
297.618
297.806
297.942
298.018
298.027
297.929
297.646
297.185
296.672
296.221
295.875
295.625
295.462
295.385
295.37
295.379
295.406
295.441
295.503
295.587
295.699
295.831
295.977
296.144
296.306
296.473
296.64
296.801
296.941
297.066
297.168
297.265
297.351
297.422
297.477
297.51
297.522
297.506
297.463
297.389
297.285
297.154
296.999
296.823
296.637
296.451
296.273
296.113
295.973
295.853
295.754
295.666
295.599
295.542
295.488
295.45
295.424
295.395
295.363
295.313
295.298
295.298
295.295
295.314
295.311
295.309
295.3
295.292
295.302
295.309
295.331
295.351
295.371
295.39
295.407
295.414
295.407
295.387
295.356
295.305
295.225
295.121
295.005
294.908
294.834
294.769
294.706
294.638
294.562
294.481
294.392
294.291
294.243
294.227
294.228
294.255
294.327
294.438
294.566
294.68
294.77
294.827
294.881
294.954
295.07
295.245
295.465
295.73
296.027
296.284
296.443
296.53
296.577
296.615
296.678
296.775
296.883
296.946
296.968
296.967
296.949
296.918
296.882
296.847
296.816
296.79
296.779
296.781
296.79
296.815
296.851
296.891
296.937
296.993
297.05
297.108
297.166
297.226
297.285
297.342
297.402
297.458
297.511
297.566
297.628
297.679
297.729
297.783
297.83
297.876
297.918
297.964
298.017
298.054
298.079
298.091
298.102
298.118
298.13
298.146
298.165
298.18
298.186
298.181
298.171
298.15
298.124
298.091
298.047
297.992
297.929
297.862
297.794
297.721
297.645
297.569
297.496
297.429
297.368
297.316
297.273
297.242
297.217
297.196
297.18
297.167
297.158
297.157
297.168
297.195
297.221
297.248
297.276
297.295
297.312
297.327
297.352
297.384
297.418
297.448
297.466
297.48
297.491
297.498
297.503
297.508
297.511
297.514
297.516
297.518
297.518
297.521
297.522
297.526
297.526
297.525
297.526
297.53
297.534
297.537
297.539
297.539
297.54
297.54
297.54
297.54
297.541
297.543
297.545
297.546
297.551
297.55
297.55
297.549
297.55
297.552
297.553
297.556
297.557
297.554
297.555
297.554
297.551
297.556
297.554
297.552
297.552
297.548
297.541
297.542
297.538
297.533
297.526
297.512
297.518
297.501
297.495
297.479
297.473
297.459
297.45
297.431
297.422
297.403
297.385
297.369
297.357
297.327
297.303
297.287
297.255
297.237
297.202
297.176
297.145
297.117
297.082
297.056
297.014
296.976
296.939
296.896
296.862
296.811
296.778
296.736
296.679
296.631
296.586
296.529
296.489
296.434
296.374
296.323
296.26
296.215
296.146
296.087
296.033
295.966
295.903
295.847
295.78
295.724
295.659
295.588
295.525
295.457
295.398
295.33
295.267
295.2
295.132
295.074
295.009
294.947
294.88
294.817
294.754
294.7
294.637
294.578
294.517
294.462
294.413
294.352
294.301
294.249
294.198
294.15
294.104
294.058
294.018
293.969
293.939
293.892
293.857
293.819
293.786
293.752
293.725
293.703
293.678
293.659
293.636
293.62
293.595
293.58
293.565
293.56
293.553
293.545
293.536
293.534
293.534
293.535
293.53
293.532
293.54
293.545
293.547
293.562
293.574
293.588
293.598
293.605
293.631
293.647
293.671
293.688
293.7
293.731
293.751
293.786
293.802
293.824
293.856
293.887
293.908
293.931
293.965
293.996
294.027
294.051
294.075
294.103
294.136
294.167
294.201
294.231
294.259
294.288
294.32
294.347
294.37
294.389
294.418
294.439
294.471
294.5
294.522
294.544
294.563
294.594
294.62
294.638
294.652
294.666
294.686
294.697
294.718
294.733
294.748
294.761
294.775
294.773
294.777
294.79
294.798
294.808
294.81
294.804
294.8
294.803
294.804
294.807
294.798
294.79
294.785
294.776
294.758
294.741
294.734
294.722
294.701
294.678
294.656
294.638
294.606
294.579
294.555
294.529
294.506
294.468
294.425
294.387
294.356
294.319
294.282
294.243
294.199
294.152
294.098
294.053
294.008
293.958
293.914
293.857
293.805
293.752
293.71
293.639
296.077
296.015
295.9
295.759
295.62
295.493
295.391
295.313
295.258
295.222
295.203
295.2
295.208
295.229
295.263
295.309
295.367
295.438
295.52
295.61
295.707
295.805
295.899
295.98
296.041
296.083
296.118
296.168
296.252
296.387
296.566
296.772
296.98
297.172
297.34
297.487
297.62
297.733
297.801
297.804
297.768
297.678
297.523
297.246
296.816
296.326
295.896
295.592
295.422
295.363
295.362
295.404
295.468
295.575
295.723
295.928
296.177
296.45
296.75
297.042
297.328
297.591
297.828
298.045
298.249
298.419
298.58
298.726
298.857
298.987
299.113
299.233
299.349
299.453
299.54
299.609
299.651
299.661
299.622
299.532
299.388
299.181
298.913
298.593
298.237
297.863
297.494
297.156
296.863
296.621
296.437
296.293
296.172
296.082
296.011
295.958
295.902
295.836
295.814
295.813
295.819
295.837
295.858
295.879
295.894
295.905
295.928
295.96
296
296.037
296.075
296.115
296.158
296.196
296.226
296.225
296.211
296.171
296.099
295.996
295.882
295.771
295.682
295.6
295.516
295.419
295.297
295.145
294.957
294.751
294.56
294.388
294.233
294.087
293.962
293.9
293.888
293.898
293.923
293.948
293.966
293.999
294.08
294.222
294.432
294.724
295.068
295.404
295.675
295.878
296.011
296.111
296.215
296.35
296.546
296.73
296.85
296.889
296.885
296.872
296.841
296.804
296.766
296.725
296.684
296.671
296.662
296.675
296.711
296.763
296.828
296.905
296.986
297.07
297.154
297.237
297.317
297.399
297.486
297.572
297.659
297.748
297.845
297.939
298.028
298.12
298.212
298.305
298.392
298.496
298.623
298.732
298.813
298.871
298.93
298.995
299.056
299.123
299.206
299.278
299.331
299.362
299.383
299.391
299.381
299.351
299.298
299.221
299.128
299.018
298.904
298.775
298.622
298.445
298.25
298.049
297.848
297.657
297.488
297.342
297.217
297.109
297.013
296.929
296.855
296.792
296.74
296.708
296.699
296.704
296.722
296.744
296.77
296.8
296.84
296.889
296.942
297
297.046
297.086
297.122
297.152
297.184
297.208
297.233
297.252
297.268
297.287
297.302
297.318
297.331
297.342
297.356
297.367
297.381
297.391
297.407
297.417
297.426
297.431
297.441
297.448
297.454
297.461
297.464
297.468
297.474
297.479
297.484
297.486
297.484
297.49
297.492
297.494
297.497
297.498
297.498
297.494
297.499
297.497
297.495
297.5
297.503
297.489
297.49
297.49
297.489
297.489
297.472
297.472
297.469
297.465
297.451
297.442
297.439
297.423
297.415
297.407
297.392
297.376
297.362
297.345
297.331
297.315
297.288
297.27
297.245
297.226
297.203
297.177
297.147
297.121
297.089
297.061
297.029
296.986
296.956
296.915
296.879
296.836
296.799
296.762
296.712
296.671
296.622
296.577
296.52
296.474
296.423
296.374
296.315
296.262
296.206
296.144
296.086
296.027
295.967
295.91
295.845
295.781
295.721
295.657
295.593
295.527
295.464
295.401
295.33
295.268
295.202
295.137
295.073
295.007
294.944
294.881
294.816
294.753
294.7
294.634
294.573
294.515
294.457
294.401
294.343
294.289
294.238
294.183
294.131
294.082
294.048
293.998
293.956
293.907
293.867
293.831
293.794
293.757
293.722
293.689
293.66
293.634
293.62
293.599
293.571
293.55
293.531
293.515
293.502
293.493
293.49
293.483
293.466
293.469
293.471
293.47
293.463
293.466
293.476
293.479
293.48
293.494
293.509
293.522
293.529
293.542
293.558
293.588
293.603
293.616
293.635
293.659
293.692
293.715
293.732
293.755
293.792
293.817
293.837
293.865
293.894
293.93
293.957
293.979
294.004
294.034
294.064
294.099
294.134
294.161
294.185
294.217
294.248
294.275
294.294
294.32
294.347
294.372
294.396
294.43
294.453
294.47
294.49
294.521
294.544
294.564
294.578
294.593
294.611
294.627
294.641
294.666
294.676
294.684
294.698
294.7
294.704
294.71
294.724
294.73
294.733
294.728
294.724
294.722
294.729
294.73
294.719
294.712
294.706
294.696
294.677
294.665
294.657
294.641
294.621
294.597
294.576
294.557
294.528
294.499
294.473
294.453
294.418
294.386
294.345
294.305
294.271
294.239
294.198
294.159
294.117
294.065
294.019
293.97
293.925
293.88
293.826
293.777
293.723
293.672
293.629
293.557
295.822
295.746
295.607
295.437
295.273
295.131
295.026
294.955
294.913
294.896
294.897
294.913
294.943
294.985
295.04
295.107
295.187
295.28
295.385
295.499
295.618
295.736
295.845
295.94
296.016
296.086
296.178
296.319
296.527
296.791
297.071
297.319
297.502
297.607
297.667
297.704
297.72
297.713
297.639
297.466
297.252
297.024
296.755
296.402
295.994
295.63
295.397
295.313
295.313
295.388
295.49
295.661
295.898
296.186
296.522
296.907
297.294
297.651
297.968
298.217
298.41
298.553
298.676
298.788
298.894
298.99
299.087
299.185
299.292
299.414
299.546
299.688
299.84
299.999
300.16
300.316
300.462
300.6
300.735
300.85
300.92
300.933
300.882
300.745
300.524
300.222
299.847
299.422
298.979
298.544
298.148
297.793
297.473
297.198
296.969
296.775
296.611
296.466
296.378
296.336
296.321
296.324
296.338
296.363
296.39
296.417
296.452
296.489
296.532
296.575
296.618
296.664
296.715
296.768
296.817
296.856
296.872
296.863
296.835
296.786
296.721
296.651
296.586
296.52
296.445
296.351
296.23
296.074
295.877
295.649
295.418
295.184
294.94
294.677
294.402
294.149
293.942
293.773
293.635
293.525
293.451
293.431
293.445
293.493
293.601
293.783
294.021
294.293
294.564
294.829
295.112
295.351
295.573
295.798
296.067
296.341
296.565
296.692
296.734
296.751
296.747
296.738
296.721
296.697
296.658
296.609
296.564
296.566
296.588
296.641
296.72
296.82
296.932
297.05
297.166
297.281
297.395
297.512
297.638
297.768
297.903
298.044
298.196
298.353
298.512
298.669
298.83
298.992
299.14
299.312
299.515
299.705
299.86
299.979
300.094
300.216
300.327
300.435
300.554
300.664
300.746
300.807
300.864
300.91
300.933
300.932
300.907
300.859
300.791
300.701
300.598
300.478
300.328
300.142
299.914
299.643
299.334
299.017
298.72
298.438
298.163
297.898
297.643
297.4
297.167
296.95
296.753
296.588
296.458
296.361
296.289
296.234
296.199
296.188
296.199
296.233
296.281
296.339
296.403
296.47
296.539
296.602
296.659
296.712
296.756
296.802
296.847
296.89
296.926
296.962
296.994
297.025
297.059
297.091
297.121
297.15
297.18
297.206
297.232
297.254
297.276
297.298
297.314
297.328
297.344
297.359
297.371
297.382
297.395
297.402
297.408
297.417
297.422
297.428
297.428
297.434
297.437
297.437
297.44
297.438
297.438
297.439
297.442
297.436
297.434
297.431
297.428
297.427
297.422
297.415
297.409
297.401
297.397
297.386
297.38
297.366
297.357
297.341
297.33
297.315
297.301
297.283
297.268
297.251
297.235
297.21
297.187
297.166
297.136
297.112
297.083
297.059
297.024
296.996
296.964
296.931
296.896
296.857
296.818
296.778
296.736
296.697
296.654
296.61
296.558
296.511
296.462
296.413
296.365
296.309
296.251
296.198
296.141
296.089
296.026
295.964
295.904
295.84
295.78
295.72
295.658
295.598
295.53
295.463
295.399
295.334
295.273
295.205
295.139
295.075
295.007
294.945
294.879
294.821
294.754
294.693
294.628
294.569
294.512
294.449
294.391
294.331
294.282
294.227
294.173
294.12
294.069
294.021
293.976
293.93
293.888
293.838
293.808
293.767
293.73
293.692
293.658
293.626
293.596
293.573
293.547
293.527
293.5
293.481
293.469
293.452
293.439
293.425
293.417
293.409
293.408
293.4
293.396
293.395
293.401
293.401
293.402
293.409
293.42
293.428
293.436
293.445
293.465
293.476
293.495
293.511
293.527
293.55
293.57
293.594
293.615
293.637
293.667
293.693
293.714
293.74
293.771
293.8
293.827
293.851
293.877
293.911
293.942
293.967
293.998
294.025
294.057
294.084
294.114
294.143
294.168
294.195
294.223
294.256
294.276
294.301
294.324
294.352
294.373
294.403
294.425
294.442
294.464
294.48
294.509
294.526
294.541
294.556
294.568
294.583
294.597
294.607
294.614
294.633
294.635
294.644
294.646
294.651
294.648
294.655
294.654
294.656
294.646
294.644
294.641
294.637
294.625
294.614
294.607
294.594
294.575
294.56
294.537
294.526
294.502
294.477
294.451
294.426
294.401
294.366
294.338
294.302
294.274
294.23
294.197
294.157
294.119
294.078
294.032
293.987
293.948
293.893
293.85
293.798
293.752
293.7
293.653
293.599
293.545
293.482
295.565
295.477
295.315
295.121
294.939
294.793
294.694
294.637
294.615
294.62
294.644
294.684
294.737
294.802
294.879
294.968
295.07
295.183
295.309
295.443
295.581
295.714
295.835
295.944
296.052
296.187
296.378
296.638
296.952
297.275
297.543
297.703
297.737
297.696
297.623
297.565
297.516
297.419
297.199
296.889
296.581
296.29
295.997
295.7
295.447
295.309
295.276
295.323
295.42
295.62
295.906
296.274
296.707
297.15
297.586
297.971
298.241
298.385
298.444
298.456
298.43
298.381
298.335
298.302
298.284
298.282
298.301
298.339
298.406
298.506
298.642
298.815
299.023
299.267
299.544
299.845
300.159
300.465
300.743
300.985
301.193
301.362
301.499
301.61
301.656
301.636
301.53
301.342
301.087
300.77
300.407
300.008
299.578
299.138
298.7
298.288
297.905
297.555
297.277
297.078
296.951
296.881
296.839
296.822
296.821
296.829
296.851
296.883
296.92
296.962
297.007
297.056
297.111
297.171
297.233
297.291
297.338
297.372
297.381
297.372
297.35
297.317
297.283
297.242
297.188
297.117
297.022
296.897
296.739
296.55
296.344
296.117
295.862
295.567
295.232
294.87
294.511
294.185
293.915
293.693
293.525
293.401
293.289
293.204
293.19
293.209
293.283
293.419
293.613
293.864
294.176
294.489
294.795
295.082
295.386
295.706
296.028
296.294
296.457
296.523
296.544
296.558
296.577
296.606
296.614
296.597
296.546
296.499
296.505
296.546
296.625
296.743
296.885
297.04
297.199
297.357
297.515
297.678
297.855
298.042
298.238
298.445
298.663
298.892
299.126
299.355
299.584
299.805
300.004
300.214
300.443
300.657
300.841
300.986
301.111
301.23
301.337
301.427
301.512
301.589
301.65
301.703
301.756
301.805
301.843
301.872
301.893
301.904
301.905
301.893
301.868
301.827
301.762
301.664
301.526
301.336
301.082
300.791
300.492
300.188
299.871
299.54
299.194
298.833
298.457
298.07
297.675
297.295
296.955
296.66
296.404
296.186
296.003
295.858
295.755
295.69
295.656
295.652
295.672
295.724
295.791
295.859
295.927
295.99
296.055
296.124
296.195
296.267
296.336
296.4
296.458
296.513
296.569
296.625
296.683
296.738
296.794
296.844
296.895
296.943
296.988
297.029
297.066
297.102
297.135
297.167
297.197
297.226
297.251
297.274
297.291
297.31
297.327
297.34
297.349
297.358
297.366
297.368
297.374
297.378
297.379
297.382
297.384
297.378
297.377
297.376
297.373
297.371
297.363
297.358
297.354
297.347
297.339
297.329
297.321
297.311
297.303
297.288
297.274
297.26
297.246
297.229
297.213
297.196
297.173
297.152
297.132
297.112
297.083
297.056
297.029
297.002
296.969
296.939
296.908
296.871
296.836
296.799
296.761
296.719
296.679
296.638
296.594
296.552
296.503
296.455
296.404
296.355
296.302
296.252
296.194
296.139
296.085
296.025
295.966
295.907
295.848
295.784
295.721
295.659
295.597
295.533
295.469
295.404
295.339
295.275
295.209
295.143
295.078
295.012
294.946
294.882
294.818
294.757
294.692
294.628
294.568
294.507
294.449
294.387
294.328
294.273
294.219
294.16
294.11
294.056
294.006
293.958
293.912
293.867
293.824
293.781
293.744
293.702
293.664
293.628
293.595
293.562
293.533
293.507
293.483
293.462
293.439
293.418
293.403
293.386
293.372
293.363
293.353
293.346
293.339
293.335
293.333
293.334
293.331
293.334
293.339
293.345
293.35
293.36
293.37
293.384
293.396
293.41
293.426
293.445
293.464
293.482
293.502
293.524
293.549
293.573
293.595
293.62
293.648
293.676
293.701
293.728
293.757
293.785
293.815
293.842
293.868
293.897
293.926
293.956
293.988
294.016
294.044
294.073
294.101
294.13
294.155
294.18
294.206
294.23
294.254
294.282
294.306
294.328
294.35
294.373
294.394
294.416
294.434
294.451
294.468
294.482
294.495
294.511
294.525
294.536
294.546
294.554
294.562
294.566
294.573
294.577
294.581
294.581
294.581
294.577
294.576
294.574
294.567
294.56
294.553
294.543
294.53
294.516
294.503
294.486
294.468
294.446
294.425
294.403
294.377
294.35
294.322
294.294
294.262
294.231
294.195
294.156
294.121
294.085
294.046
294.004
293.961
293.916
293.873
293.824
293.778
293.731
293.679
293.631
293.582
293.531
293.483
293.414
295.332
295.231
295.051
294.84
294.653
294.514
294.434
294.402
294.407
294.437
294.486
294.549
294.624
294.71
294.807
294.914
295.032
295.161
295.301
295.447
295.594
295.738
295.874
296.015
296.187
296.424
296.735
297.087
297.422
297.685
297.828
297.825
297.691
297.499
297.328
297.199
297.082
296.9
296.604
296.263
295.959
295.697
295.479
295.331
295.273
295.272
295.322
295.466
295.721
296.098
296.564
297.073
297.565
297.956
298.191
298.29
298.301
298.263
298.093
297.832
297.523
297.199
297.012
296.911
296.849
296.829
296.857
296.927
297.029
297.166
297.343
297.562
297.825
298.126
298.469
298.846
299.246
299.658
300.069
300.467
300.841
301.179
301.467
301.69
301.866
302
302.082
302.104
302.087
302.01
301.872
301.681
301.433
301.126
300.766
300.357
299.908
299.439
298.985
298.578
298.246
297.992
297.802
297.672
297.589
297.535
297.505
297.496
297.503
297.525
297.557
297.598
297.648
297.709
297.774
297.838
297.894
297.938
297.965
297.975
297.971
297.957
297.937
297.908
297.867
297.811
297.734
297.632
297.501
297.346
297.171
296.971
296.737
296.459
296.131
295.756
295.352
294.947
294.571
294.233
293.936
293.685
293.479
293.308
293.165
293.046
293.001
293.011
293.069
293.193
293.392
293.631
293.905
294.193
294.497
294.856
295.26
295.664
295.978
296.148
296.205
296.232
296.281
296.383
296.502
296.552
296.546
296.5
296.464
296.48
296.536
296.644
296.804
297.001
297.216
297.434
297.65
297.872
298.109
298.36
298.624
298.896
299.174
299.461
299.746
300.016
300.276
300.511
300.718
300.915
301.104
301.272
301.405
301.512
301.579
301.643
301.692
301.731
301.765
301.797
301.83
301.863
301.901
301.941
301.982
302.025
302.07
302.118
302.165
302.212
302.258
302.294
302.317
302.332
302.333
302.304
302.225
302.101
301.941
301.75
301.525
301.264
300.963
300.621
300.235
299.804
299.334
298.851
298.379
297.922
297.477
297.045
296.636
296.261
295.936
295.667
295.452
295.293
295.192
295.139
295.117
295.116
295.131
295.168
295.217
295.28
295.356
295.444
295.535
295.624
295.708
295.788
295.868
295.949
296.035
296.121
296.205
296.286
296.367
296.445
296.521
296.592
296.659
296.722
296.783
296.843
296.9
296.954
297.007
297.055
297.096
297.135
297.168
297.2
297.225
297.248
297.268
297.282
297.295
297.305
297.313
297.32
297.325
297.323
297.323
297.322
297.32
297.319
297.313
297.307
297.302
297.295
297.288
297.278
297.27
297.259
297.249
297.234
297.221
297.207
297.194
297.176
297.16
297.142
297.122
297.1
297.078
297.057
297.028
297.003
296.975
296.949
296.916
296.886
296.854
296.818
296.783
296.745
296.707
296.667
296.626
296.583
296.541
296.497
296.448
296.4
296.351
296.301
296.25
296.197
296.14
296.085
296.029
295.972
295.912
295.852
295.792
295.729
295.668
295.605
295.542
295.479
295.414
295.349
295.284
295.22
295.154
295.088
295.022
294.956
294.891
294.826
294.762
294.7
294.635
294.573
294.511
294.45
294.391
294.329
294.272
294.215
294.162
294.104
294.051
293.999
293.952
293.902
293.854
293.809
293.766
293.723
293.683
293.643
293.605
293.57
293.536
293.506
293.477
293.451
293.424
293.402
293.379
293.359
293.343
293.327
293.315
293.302
293.293
293.286
293.281
293.275
293.272
293.272
293.273
293.276
293.278
293.283
293.291
293.3
293.311
293.322
293.336
293.351
293.366
293.384
293.401
293.422
293.442
293.464
293.486
293.51
293.534
293.56
293.585
293.611
293.639
293.668
293.695
293.722
293.749
293.779
293.807
293.835
293.865
293.893
293.923
293.952
293.98
294.008
294.036
294.064
294.091
294.118
294.142
294.167
294.192
294.217
294.24
294.264
294.287
294.308
294.329
294.349
294.37
294.387
294.404
294.419
294.431
294.446
294.458
294.47
294.48
294.489
294.496
294.503
294.507
294.512
294.512
294.515
294.515
294.513
294.509
294.505
294.501
294.494
294.485
294.475
294.463
294.451
294.434
294.419
294.4
294.381
294.359
294.336
294.31
294.284
294.257
294.226
294.196
294.163
294.129
294.092
294.057
294.018
293.979
293.938
293.895
293.851
293.806
293.76
293.714
293.667
293.619
293.57
293.521
293.47
293.421
293.355
295.132
295.02
294.828
294.611
294.432
294.316
294.267
294.266
294.302
294.36
294.433
294.516
294.609
294.712
294.823
294.944
295.074
295.213
295.36
295.51
295.661
295.813
295.973
296.165
296.423
296.766
297.164
297.537
297.81
297.939
297.929
297.755
297.486
297.2
296.959
296.766
296.586
296.356
296.068
295.769
295.535
295.371
295.284
295.266
295.283
295.35
295.507
295.795
296.203
296.706
297.241
297.723
298.06
298.199
298.226
298.122
297.924
297.607
297.242
296.85
296.477
296.197
296.028
295.958
295.949
295.99
296.069
296.18
296.318
296.479
296.677
296.921
297.214
297.552
297.933
298.349
298.79
299.243
299.694
300.129
300.537
300.91
301.242
301.53
301.78
301.992
302.157
302.279
302.366
302.402
302.399
302.367
302.291
302.169
302.003
301.789
301.524
301.212
300.868
300.501
300.134
299.788
299.478
299.218
299.018
298.865
298.743
298.656
298.602
298.577
298.57
298.572
298.588
298.62
298.663
298.707
298.745
298.773
298.787
298.787
298.778
298.756
298.726
298.687
298.638
298.575
298.494
298.393
298.272
298.134
297.979
297.801
297.589
297.334
297.026
296.662
296.251
295.809
295.369
294.936
294.537
294.181
293.874
293.602
293.368
293.178
293.045
292.934
292.875
292.881
292.923
293.02
293.188
293.413
293.698
294.057
294.483
294.931
295.314
295.574
295.71
295.785
295.862
296.004
296.212
296.395
296.477
296.478
296.46
296.454
296.478
296.549
296.692
296.911
297.184
297.483
297.778
298.069
298.367
298.678
298.997
299.319
299.637
299.947
300.241
300.506
300.74
300.933
301.086
301.214
301.316
301.394
301.447
301.478
301.492
301.489