/*--------------------------------*- C++ -*----------------------------------*\
| =========                 |                                                 |
| \\      /  F ield         | OpenFOAM: The Open Source CFD Toolbox           |
|  \\    /   O peration     | Version:  v1812                                 |
|   \\  /    A nd           | Web:      www.OpenFOAM.com                      |
|    \\/     M anipulation  |                                                 |
\*---------------------------------------------------------------------------*/
FoamFile
{
    version     2.0;
    format      ascii;
    class       volVectorField;
    location    "0.7";
    object      U;
}
// * * * * * * * * * * * * * * * * * * * * * * * * * * * * * * * * * * * * * //

dimensions      [0 1 -1 0 0 0 0];


internalField   nonuniform List<vector> 
20400
(
(-0.0445838 0.0716101 0)
(-0.10471 0.0641952 0)
(-0.140181 0.0335487 0)
(-0.148507 0.0101925 0)
(-0.123671 -0.0177702 0)
(-0.089103 -0.0126826 0)
(-0.0652848 -0.00284666 0)
(-0.0485303 0.0048959 0)
(-0.0376568 0.0125155 0)
(-0.0354868 0.0224824 0)
(-0.0432935 0.0303641 0)
(-0.0552281 0.0340079 0)
(-0.0673497 0.0326778 0)
(-0.0757523 0.0275535 0)
(-0.0760226 0.0199023 0)
(-0.0656554 0.0105855 0)
(-0.0466155 0.00317468 0)
(-0.0201246 -0.00260819 0)
(0.0126219 -0.00706095 0)
(0.0518649 -0.0133057 0)
(0.100986 -0.0240303 0)
(0.163731 -0.0373825 0)
(0.243893 -0.0556783 0)
(0.343883 -0.0716457 0)
(0.462251 -0.0904014 0)
(0.604775 -0.113001 0)
(0.773868 -0.130926 0)
(0.964946 -0.142578 0)
(1.17503 -0.150402 0)
(1.40128 -0.151986 0)
(1.64329 -0.15067 0)
(1.90261 -0.14997 0)
(2.17987 -0.151263 0)
(2.47172 -0.149726 0)
(2.75539 -0.126016 0)
(2.99074 -0.0878839 0)
(3.15369 -0.088376 0)
(3.21881 -0.0295428 0)
(3.26277 -0.168566 0)
(3.35692 -0.311235 0)
(3.44257 -0.370997 0)
(3.43893 -0.426279 0)
(3.37848 -0.332654 0)
(3.13158 -0.195942 0)
(2.97524 0.210361 0)
(2.75562 0.236523 0)
(2.54864 0.246598 0)
(2.31332 0.293313 0)
(2.00014 0.4018 0)
(1.56351 0.530104 0)
(0.99471 0.663069 0)
(0.303382 0.765369 0)
(-0.468473 0.74839 0)
(-1.28537 0.7042 0)
(-2.17032 0.703912 0)
(-3.13462 0.701736 0)
(-4.16173 0.665679 0)
(-5.23673 0.637509 0)
(-6.33534 0.609889 0)
(-7.38095 0.591382 0)
(-8.30442 0.567056 0)
(-9.07781 0.545264 0)
(-9.71708 0.46612 0)
(-10.2633 0.326839 0)
(-10.6808 0.12793 0)
(-10.9868 -0.0452534 0)
(-11.1182 -0.196048 0)
(-11.167 -0.125587 0)
(-11.2094 -0.0907403 0)
(-11.1502 -0.169147 0)
(-10.8931 -0.268001 0)
(-10.4547 -0.288 0)
(-9.88842 -0.259862 0)
(-9.23214 -0.195419 0)
(-8.5146 -0.108777 0)
(-7.75026 -0.011361 0)
(-6.95068 0.0840045 0)
(-6.12735 0.162425 0)
(-5.29178 0.212151 0)
(-4.45623 0.227721 0)
(-3.63322 0.195523 0)
(-2.83649 0.121037 0)
(-2.08084 0.0331341 0)
(-1.38556 -0.0666274 0)
(-0.752301 -0.173047 0)
(-0.17857 -0.267032 0)
(0.345791 -0.321458 0)
(0.823591 -0.321223 0)
(1.24162 -0.408931 0)
(1.56479 -0.292394 0)
(1.82501 -0.23441 0)
(1.97846 -0.0793774 0)
(2.11305 0.107905 0)
(2.11632 0.357692 0)
(2.10888 0.473568 0)
(2.17954 0.533525 0)
(2.25088 -0.67587 0)
(2.29577 0.64509 0)
(2.15118 0.694648 0)
(2.07109 0.594624 0)
(2.0909 0.367658 0)
(2.0867 -0.0447628 0)
(2.0371 -0.269728 0)
(1.99205 -0.126616 0)
(1.99247 0.0808415 0)
(1.98241 0.0683497 0)
(1.95904 -0.179764 0)
(1.82732 -0.239986 0)
(1.7302 -0.144679 0)
(1.63979 -0.0687456 0)
(1.56337 -0.0547404 0)
(1.52343 -0.072327 0)
(1.52956 -0.100269 0)
(1.59617 -0.154347 0)
(1.71806 -0.188892 0)
(1.87085 -0.205284 0)
(2.04512 -0.216493 0)
(2.23921 -0.235924 0)
(2.42783 -0.230191 0)
(2.59228 -0.194456 0)
(2.7554 -0.100782 0)
(2.83796 0.059676 0)
(2.82954 0.112852 0)
(2.8074 0.114714 0)
(2.79947 0.103132 0)
(2.82338 0.0787705 0)
(2.88556 0.0647744 0)
(2.98125 0.054383 0)
(3.08841 -0.00347892 0)
(3.15942 -0.0133101 0)
(3.14872 -0.0210613 0)
(3.11791 -0.00233505 0)
(3.06587 0.0430912 0)
(2.98502 0.0794974 0)
(2.88401 0.114119 0)
(2.7539 0.139395 0)
(2.59017 0.160986 0)
(2.39819 0.182502 0)
(2.20531 0.169682 0)
(2.04884 0.136103 0)
(1.94546 0.0731857 0)
(1.90832 0.0226074 0)
(1.89464 -0.00389837 0)
(1.84451 -0.0114255 0)
(1.80497 -0.0860342 0)
(1.76921 -0.0812476 0)
(1.75391 -0.0599012 0)
(1.73251 0.0258454 0)
(1.65173 0.0954404 0)
(1.57652 0.13759 0)
(1.54981 0.154959 0)
(1.59551 0.15494 0)
(1.67919 0.195548 0)
(1.74284 0.0879589 0)
(1.76904 -0.0035218 0)
(1.73537 -0.0443299 0)
(1.71938 -0.140914 0)
(1.7087 -0.250145 0)
(1.77722 -0.332399 0)
(1.86389 -0.325411 0)
(1.94808 -0.291132 0)
(2.05882 -0.211148 0)
(2.21217 -0.146309 0)
(2.37631 -0.133176 0)
(2.5286 -0.115535 0)
(2.62577 -0.0375688 0)
(2.70616 -0.00488817 0)
(2.75624 0.0500041 0)
(2.82517 -0.016867 0)
(2.92243 -0.0856867 0)
(3.01294 -0.0773117 0)
(3.07992 -0.0533646 0)
(3.10736 -0.00382698 0)
(3.14634 -0.000150155 0)
(3.20184 0.0223534 0)
(3.24972 0.0623434 0)
(3.2834 0.0824913 0)
(3.2946 0.0347953 0)
(3.2872 -0.100441 0)
(3.29931 -0.302481 0)
(3.17167 -0.35718 0)
(3.06593 -0.506532 0)
(2.94498 -0.325339 0)
(2.68247 -0.098976 0)
(2.47975 0.293059 0)
(2.12668 0.35624 0)
(1.77769 0.356313 0)
(1.43793 0.336828 0)
(1.1135 0.322872 0)
(0.800739 0.298707 0)
(0.523297 0.254749 0)
(0.278503 0.229547 0)
(0.0423368 0.229985 0)
(-0.208882 0.21431 0)
(-0.465387 0.193366 0)
(-0.701087 0.163709 0)
(-0.904868 0.134761 0)
(-1.07433 0.0782381 0)
(-1.14977 0.000979172 0)
(-1.19967 0.0319193 0)
(-1.20056 0.152151 0)
(-1.23277 0.234383 0)
(-1.24531 0.195307 0)
(-1.20774 0.0337165 0)
(-1.09331 -0.0590584 0)
(-0.952377 -0.106484 0)
(-0.772082 -0.121392 0)
(-0.561607 -0.120626 0)
(-0.370535 -0.125997 0)
(-0.199366 -0.173819 0)
(0.0142612 -0.149246 0)
(0.239474 -0.0922886 0)
(0.464466 -0.0307468 0)
(0.685098 0.0110159 0)
(0.897045 0.00645879 0)
(1.092 -0.0496319 0)
(1.27768 -0.110925 0)
(1.45254 -0.148712 0)
(1.59816 -0.157644 0)
(1.70273 -0.14069 0)
(1.78429 -0.124542 0)
(1.86123 -0.0739736 0)
(1.94774 -0.022538 0)
(2.02344 0.0299909 0)
(2.08531 0.0843142 0)
(2.13462 0.14478 0)
(2.15021 0.1908 0)
(2.16256 0.148066 0)
(2.19431 0.0542031 0)
(2.24721 -0.00293806 0)
(2.28835 -0.0297861 0)
(2.30177 -0.0457039 0)
(2.29143 -0.0623476 0)
(2.26444 -0.0775821 0)
(2.22788 -0.0836847 0)
(2.19671 -0.074146 0)
(2.1864 -0.0170301 0)
(2.19326 0.0165631 0)
(2.18959 0.0303696 0)
(2.1628 0.0442715 0)
(2.12208 0.059059 0)
(2.07099 0.0569297 0)
(2.03471 0.015842 0)
(2.00402 -0.0105628 0)
(1.97179 -0.00743906 0)
(1.95239 0.0251236 0)
(1.92877 0.0193655 0)
(1.9242 -0.0101723 0)
(1.91113 -0.0299232 0)
(1.90349 -0.00192718 0)
(1.89645 0.0531141 0)
(1.88371 0.0304256 0)
(1.88889 -0.0253813 0)
(1.91536 -0.0439132 0)
(1.93799 -0.0594285 0)
(1.97265 -0.0454299 0)
(2.00228 0.0268655 0)
(2.04046 0.0976751 0)
(2.07611 0.110157 0)
(2.10753 0.0936204 0)
(2.13853 0.0058876 0)
(2.17344 -0.0977402 0)
(2.23191 -0.0865793 0)
(2.2564 0.00722076 0)
(2.27195 -0.0276509 0)
(2.31545 -0.0502633 0)
(2.38564 -0.0153526 0)
(2.45894 0.100425 0)
(2.51733 0.206215 0)
(2.60149 0.128144 0)
(2.64714 -0.091132 0)
(2.72244 -0.184614 0)
(2.78278 -0.14986 0)
(2.87358 -0.1437 0)
(2.92993 0.0507964 0)
(3.06312 0.22093 0)
(3.16415 0.321522 0)
(3.22324 -0.0829505 0)
(3.30721 -0.323575 0)
(3.40846 -0.303399 0)
(3.4919 -0.168487 0)
(3.52751 0.339272 0)
(3.66851 0.287052 0)
(3.76504 -0.115858 0)
(3.86288 -0.418827 0)
(3.97588 -0.302839 0)
(4.01625 0.395092 0)
(4.17108 0.373729 0)
(4.27587 -0.228742 0)
(4.39537 -0.544943 0)
(4.52504 -0.376192 0)
(4.50259 0.444812 0)
(4.67787 0.548195 0)
(4.84535 -0.00484972 0)
(4.91578 -0.592986 0)
(5.00053 -0.561696 0)
(5.12732 -0.431468 0)
(5.19143 0.192053 0)
(5.3344 0.656341 0)
(5.44922 0.600412 0)
(5.56667 0.514389 0)
(5.71953 0.67146 0)
(5.85252 0.85061 0)
(6.12945 0.779428 0)
(6.21058 -0.469047 0)
(6.23556 -0.819042 0)
(6.24257 -0.723012 0)
(6.35731 -0.587341 0)
(6.40944 0.136401 0)
(6.56601 0.78093 0)
(6.73956 0.726154 0)
(6.84516 0.384145 0)
(6.99225 0.721098 0)
(7.13805 1.04877 0)
(7.41185 0.93709 0)
(7.50607 -0.221237 0)
(7.5378 -1.0164 0)
(7.53654 -0.933865 0)
(7.58591 -0.744166 0)
(7.61204 -0.0844744 0)
(7.7496 0.803514 0)
(8.05576 0.536171 0)
(8.08862 -0.732316 0)
(8.11736 -0.714488 0)
(8.14055 0.133328 0)
(8.31752 0.826845 0)
(8.53055 1.15841 0)
(8.77945 0.590903 0)
(8.78328 -0.965883 0)
(8.75001 -0.928628 0)
(8.76545 0.0663179 0)
(8.89625 1.04201 0)
(9.22484 0.898491 0)
(9.29596 -0.763746 0)
(9.23219 -1.08365 0)
(9.19774 -0.902934 0)
(9.17388 -0.595104 0)
(9.26645 0.17512 0)
(9.45948 0.811081 0)
(9.65133 1.15484 0)
(9.84704 0.486808 0)
(9.87827 -0.819354 0)
(9.79607 -0.878343 0)
(9.76435 -0.0905436 0)
(9.88199 0.966086 0)
(10.1164 0.467074 0)
(10.1031 -0.922068 0)
(10.025 -0.914694 0)
(9.95649 -0.615826 0)
(10.0202 0.0836476 0)
(10.1104 0.737518 0)
(10.3177 0.998708 0)
(10.4599 -0.0429582 0)
(10.3882 -0.996451 0)
(10.3186 -0.830251 0)
(10.269 -0.310709 0)
(10.3187 0.656281 0)
(10.4382 0.281236 0)
(10.4128 -0.265895 0)
(10.4405 0.350822 0)
(10.4648 0.977503 0)
(10.6355 1.10221 0)
(10.7678 -0.445938 0)
(10.5481 -1.15737 0)
(10.4284 -1.05382 0)
(10.3634 -0.820299 0)
(10.3398 -0.524543 0)
(10.2789 -0.274326 0)
(10.3463 0.19859 0)
(10.5814 0.590676 0)
(10.662 0.99924 0)
(10.8123 0.778142 0)
(10.8243 -0.73087 0)
(10.6222 -1.16096 0)
(10.5229 -1.09056 0)
(10.4332 -0.976822 0)
(10.3588 -0.787633 0)
(10.3377 -0.541269 0)
(10.338 -0.428712 0)
(10.3408 -0.187011 0)
(10.3674 0.347138 0)
(10.4187 0.660663 0)
(10.4662 0.296662 0)
(10.4724 -0.61693 0)
(10.3275 -0.78796 0)
(10.2814 -0.564546 0)
(10.257 -0.395509 0)
(10.2461 -0.00606493 0)
(10.2573 0.501788 0)
(10.2709 0.298814 0)
(10.247 -0.245678 0)
(10.2019 0.104282 0)
(10.1747 0.502299 0)
(10.1663 0.20017 0)
(10.1435 -0.35329 0)
(10.0833 -0.024551 0)
(10.0547 0.402142 0)
(10.0468 0.0814854 0)
(10.0079 -0.383082 0)
(9.93844 -0.0104331 0)
(9.91093 0.532464 0)
(9.8875 0.349215 0)
(9.93952 -0.322078 0)
(9.85629 -0.406051 0)
(9.72034 -0.186096 0)
(9.72502 0.368698 0)
(9.72217 0.373743 0)
(9.73052 -0.0542772 0)
(9.67465 -0.352355 0)
(9.60361 -0.1643 0)
(9.5914 0.296196 0)
(9.57921 0.232182 0)
(9.57832 -0.205544 0)
(9.51872 -0.161504 0)
(9.49924 0.281528 0)
(9.45807 0.394305 0)
(9.45067 0.0172216 0)
(9.41566 -0.350377 0)
(9.36176 -0.105874 0)
(9.33911 0.306816 0)
(9.32834 0.27171 0)
(9.3382 -0.155618 0)
(9.30076 -0.301803 0)
(9.24393 -0.244523 0)
(9.1242 -0.168218 0)
(9.09729 0.00439782 0)
(9.12803 0.229092 0)
(9.16525 0.283404 0)
(9.15814 0.0602688 0)
(9.12301 0.115044 0)
(9.12764 0.329932 0)
(9.10858 0.359439 0)
(9.08906 0.0254429 0)
(9.07266 -0.296044 0)
(9.04148 -0.285211 0)
(8.94898 -0.213739 0)
(8.85812 -0.0501796 0)
(8.89355 0.229906 0)
(8.93712 0.20156 0)
(8.94585 -0.080282 0)
(8.93195 -0.209479 0)
(8.89834 0.055726 0)
(8.91491 0.261442 0)
(8.93456 0.226442 0)
(8.92148 -0.0945011 0)
(8.91508 -0.235226 0)
(8.88262 -0.21942 0)
(8.78409 -0.165443 0)
(8.71811 -0.0592006 0)
(8.76301 0.0900048 0)
(8.86978 0.136284 0)
(8.91547 0.233992 0)
(8.89719 0.265092 0)
(8.87887 -0.054707 0)
(8.87263 -0.223424 0)
(8.86005 -0.169232 0)
(8.83748 0.0713233 0)
(8.84946 0.233996 0)
(8.87505 0.222344 0)
(8.87737 -0.0687117 0)
(8.87631 -0.242698 0)
(8.86125 -0.18001 0)
(8.85636 0.0856194 0)
(8.87316 0.220558 0)
(8.90824 0.0137841 0)
(8.9201 -0.0549454 0)
(8.91829 0.132803 0)
(8.93565 0.120397 0)
(8.95016 -0.153411 0)
(8.952 -0.181937 0)
(8.92345 0.0819838 0)
(8.94928 0.215511 0)
(9.00172 0.1714 0)
(9.00366 -0.108668 0)
(9.01769 -0.180075 0)
(9.02401 0.0292678 0)
(9.05117 -0.053504 0)
(9.06099 -0.203243 0)
(9.08184 -0.135162 0)
(9.06571 0.119056 0)
(9.11332 0.21156 0)
(9.1628 0.130319 0)
(9.17136 -0.142834 0)
(9.18414 -0.228244 0)
(9.15338 -0.160549 0)
(9.16799 0.0294257 0)
(9.23359 0.148277 0)
(9.3095 0.180549 0)
(9.33015 0.236802 0)
(9.32621 0.0462247 0)
(9.36793 -0.123313 0)
(9.36073 -0.217982 0)
(9.34383 -0.153375 0)
(9.35444 0.0922694 0)
(9.41322 0.218443 0)
(9.47187 0.106447 0)
(9.49097 -0.153933 0)
(9.53154 -0.133942 0)
(9.52388 0.0829832 0)
(9.6152 0.204129 0)
(-0.00772239 0.1128 0)
(-0.0100282 0.0755252 0)
(-0.00592923 0.040413 0)
(0.0247551 0.00841997 0)
(0.0703768 -0.0258047 0)
(0.132921 -0.0211732 0)
(0.198376 -0.0121748 0)
(0.265082 -0.00397335 0)
(0.329673 0.00500081 0)
(0.389911 0.0183188 0)
(0.442001 0.0326676 0)
(0.488336 0.0365309 0)
(0.530417 0.0364137 0)
(0.573959 0.0312642 0)
(0.623403 0.0230806 0)
(0.68188 0.0127458 0)
(0.751424 0.00412793 0)
(0.83511 -0.00276201 0)
(0.935509 -0.00816765 0)
(1.05492 -0.0151605 0)
(1.19528 -0.0264831 0)
(1.35395 -0.0406212 0)
(1.52356 -0.0612807 0)
(1.69731 -0.0786926 0)
(1.87257 -0.0991591 0)
(2.05759 -0.127247 0)
(2.25763 -0.155446 0)
(2.46828 -0.180764 0)
(2.68681 -0.19841 0)
(2.916 -0.210102 0)
(3.15462 -0.235004 0)
(3.387 -0.267791 0)
(3.59541 -0.287383 0)
(3.80138 -0.278732 0)
(3.9926 -0.241809 0)
(4.13116 -0.181948 0)
(4.20462 -0.0667439 0)
(4.20925 0.016854 0)
(4.17458 -0.0266483 0)
(4.08974 -0.0316277 0)
(4.02446 0.0766253 0)
(3.8843 0.15973 0)
(3.67739 0.358966 0)
(3.36456 0.553149 0)
(2.82553 0.704562 0)
(2.04056 0.74479 0)
(1.13767 0.675726 0)
(0.13369 0.671282 0)
(-0.982289 0.770087 0)
(-2.2202 0.904887 0)
(-3.58074 1.0505 0)
(-5.0716 1.16142 0)
(-6.68094 1.23964 0)
(-8.37653 1.31325 0)
(-10.0954 1.38921 0)
(-11.7228 1.46344 0)
(-13.1736 1.51841 0)
(-14.4478 1.54991 0)
(-15.5875 1.48498 0)
(-16.5751 1.28451 0)
(-17.3796 1.04505 0)
(-17.9732 0.7996 0)
(-18.358 0.664703 0)
(-18.4962 0.571755 0)
(-18.4293 0.450413 0)
(-18.1588 0.335921 0)
(-17.7948 0.118273 0)
(-17.2507 0.131382 0)
(-16.6338 0.0289657 0)
(-15.9884 -0.132275 0)
(-15.3366 -0.37498 0)
(-14.6405 -0.562747 0)
(-13.8861 -0.703107 0)
(-13.0597 -0.810746 0)
(-12.1599 -0.905232 0)
(-11.1866 -0.99649 0)
(-10.1444 -1.08321 0)
(-9.04452 -1.16383 0)
(-7.90246 -1.23541 0)
(-6.73596 -1.29416 0)
(-5.56345 -1.32386 0)
(-4.41138 -1.3143 0)
(-3.30592 -1.27469 0)
(-2.2825 -1.2126 0)
(-1.36713 -1.14023 0)
(-0.57139 -1.0654 0)
(0.11431 -0.984778 0)
(0.713344 -0.899706 0)
(1.1264 -0.616661 0)
(1.49474 -0.500066 0)
(1.73741 -0.361724 0)
(1.96557 -0.382691 0)
(2.19337 -0.364007 0)
(2.46303 -0.470408 0)
(2.82822 -0.653958 0)
(3.24109 -0.639593 0)
(3.2769 0.276599 0)
(3.27859 -0.506999 0)
(3.72125 -0.581377 0)
(4.07737 -0.524845 0)
(4.3632 -0.37572 0)
(4.45079 0.00678427 0)
(4.50969 0.157981 0)
(4.52279 0.0608429 0)
(4.52217 -0.165145 0)
(4.46907 -0.114562 0)
(4.45353 0.207369 0)
(4.42535 0.286872 0)
(4.45692 0.238662 0)
(4.58114 0.147833 0)
(4.76418 0.0772354 0)
(4.96891 0.0175458 0)
(5.19291 -0.0423291 0)
(5.44333 -0.119079 0)
(5.74424 -0.169719 0)
(6.11501 -0.195042 0)
(6.57042 -0.223024 0)
(7.11355 -0.223818 0)
(7.68212 -0.166043 0)
(8.14934 -0.168574 0)
(8.36288 -0.229553 0)
(8.38618 -0.148374 0)
(8.43492 -0.130052 0)
(8.5155 -0.132099 0)
(8.64202 -0.150948 0)
(8.79872 -0.20822 0)
(8.96586 -0.263471 0)
(9.13812 -0.306636 0)
(9.33078 -0.239509 0)
(9.42891 -0.00300409 0)
(9.55586 0.0562941 0)
(9.60707 0.0926576 0)
(9.60918 0.101666 0)
(9.57184 0.11771 0)
(9.45987 0.132852 0)
(9.26556 0.181326 0)
(9.00809 0.238735 0)
(8.70439 0.271428 0)
(8.37896 0.224449 0)
(8.04225 0.18441 0)
(7.72973 0.102139 0)
(7.47609 0.0809961 0)
(7.27484 0.121577 0)
(7.09257 0.220145 0)
(6.8825 0.271584 0)
(6.71314 0.250487 0)
(6.60421 0.20485 0)
(6.50147 0.199246 0)
(6.37386 0.180673 0)
(6.16187 0.0400013 0)
(5.84974 -0.103346 0)
(5.63722 -0.266743 0)
(5.45096 -0.260993 0)
(5.37941 -0.0994878 0)
(5.42592 0.0944563 0)
(5.36316 0.177989 0)
(5.23888 0.256086 0)
(5.085 0.273226 0)
(4.96519 0.250515 0)
(4.86778 0.22068 0)
(4.81103 0.149659 0)
(4.87567 0.0049336 0)
(5.08234 -0.0874827 0)
(5.36801 -0.0924312 0)
(5.66866 -0.0508148 0)
(5.88232 -0.0313524 0)
(5.98163 -0.0242959 0)
(6.03235 -0.00343548 0)
(6.05907 -0.0711317 0)
(6.10415 -0.0280874 0)
(6.19408 0.000140591 0)
(6.26257 0.0268769 0)
(6.26616 0.0305935 0)
(6.18751 -0.00539949 0)
(6.02884 -0.0339255 0)
(5.81986 -0.0313664 0)
(5.57613 -1.46705e-05 0)
(5.29681 0.0307063 0)
(4.99406 0.0560665 0)
(4.66696 0.155781 0)
(4.30164 0.30598 0)
(3.83014 0.315477 0)
(3.33294 0.453915 0)
(2.83006 0.534542 0)
(2.38073 0.491987 0)
(2.01233 0.548297 0)
(1.63392 0.563722 0)
(1.23334 0.552397 0)
(0.809443 0.533395 0)
(0.376961 0.486126 0)
(-0.0376924 0.403604 0)
(-0.427832 0.345065 0)
(-0.79915 0.32031 0)
(-1.14625 0.320465 0)
(-1.44597 0.281713 0)
(-1.6683 0.233527 0)
(-1.82124 0.193155 0)
(-1.9263 0.124868 0)
(-1.96922 0.0130652 0)
(-1.94509 0.00142821 0)
(-1.82826 -0.0427944 0)
(-1.6487 -0.105995 0)
(-1.43793 -0.164375 0)
(-1.25694 -0.252276 0)
(-1.10022 -0.301609 0)
(-0.943115 -0.358847 0)
(-0.765932 -0.427603 0)
(-0.558413 -0.463525 0)
(-0.311259 -0.460371 0)
(-0.0193838 -0.508039 0)
(0.316688 -0.585656 0)
(0.713881 -0.629026 0)
(1.16431 -0.649311 0)
(1.65115 -0.618737 0)
(2.14054 -0.53331 0)
(2.614 -0.432129 0)
(3.08063 -0.354353 0)
(3.54675 -0.285542 0)
(3.99879 -0.20994 0)
(4.40326 -0.160367 0)
(4.70739 -0.151161 0)
(4.8765 -0.221119 0)
(4.9634 -0.258319 0)
(5.02553 -0.276629 0)
(5.08626 -0.296665 0)
(5.16394 -0.311748 0)
(5.24504 -0.28936 0)
(5.31997 -0.298042 0)
(5.39456 -0.254175 0)
(5.48375 -0.193315 0)
(5.57618 -0.127712 0)
(5.65746 -0.058339 0)
(5.76175 -0.0151172 0)
(5.89279 0.0449464 0)
(6.05008 0.054263 0)
(6.16195 0.0265733 0)
(6.16446 -0.054724 0)
(6.04041 -0.0961305 0)
(5.86581 -0.0663728 0)
(5.71976 -0.0300474 0)
(5.61269 -0.0156285 0)
(5.53279 -0.0157484 0)
(5.49959 0.0151555 0)
(5.49253 0.0282843 0)
(5.49705 0.0382351 0)
(5.49418 -0.0020884 0)
(5.47 0.00237025 0)
(5.45632 0.0240281 0)
(5.46915 0.0562997 0)
(5.48442 0.0240511 0)
(5.46934 -0.0051352 0)
(5.44017 0.00372137 0)
(5.44005 0.028771 0)
(5.4976 0.0345908 0)
(5.62608 0.0675479 0)
(5.76552 0.036714 0)
(5.80578 -0.0419075 0)
(5.74 -0.0975396 0)
(5.68067 -0.0606321 0)
(5.63712 -0.0566761 0)
(5.62918 -0.00567896 0)
(5.65662 0.10297 0)
(5.71259 0.0667321 0)
(5.8121 0.0683094 0)
(5.93806 0.0726627 0)
(6.08332 0.06853 0)
(6.19642 -0.00886836 0)
(6.20056 -0.103977 0)
(6.19537 -0.0906971 0)
(6.21301 -0.115103 0)
(6.24644 0.0500948 0)
(6.34919 0.178676 0)
(6.49728 0.111937 0)
(6.7009 0.118343 0)
(6.83024 -0.0663681 0)
(6.8276 -0.221027 0)
(6.86384 -0.137749 0)
(6.96119 0.037159 0)
(7.0281 0.24148 0)
(7.13802 0.192024 0)
(7.33622 0.149737 0)
(7.41962 -0.127743 0)
(7.50924 -0.238619 0)
(7.59218 0.00790775 0)
(7.69061 0.301004 0)
(7.84956 0.172767 0)
(7.936 -0.137688 0)
(8.05869 -0.282224 0)
(8.1508 0.0481123 0)
(8.26621 0.354961 0)
(8.45392 0.20998 0)
(8.50727 -0.205632 0)
(8.64884 -0.30153 0)
(8.76847 -0.0405998 0)
(8.85931 0.370971 0)
(9.01046 0.297796 0)
(9.2696 0.200077 0)
(9.42229 -0.134069 0)
(9.55417 -0.241855 0)
(9.60905 -0.301535 0)
(9.66409 -0.197092 0)
(9.73887 -0.382718 0)
(9.8761 -0.377347 0)
(9.98753 -0.489597 0)
(10.0731 0.283384 0)
(10.2654 0.475545 0)
(10.4439 0.40365 0)
(10.7042 0.25483 0)
(10.8732 -0.0958147 0)
(10.9678 -0.29674 0)
(11.0406 -0.353999 0)
(11.1124 -0.139532 0)
(11.1849 -0.390841 0)
(11.3294 -0.390637 0)
(11.4458 -0.518977 0)
(11.5484 0.120381 0)
(11.6817 0.511295 0)
(11.8077 0.476097 0)
(12.0046 0.350906 0)
(12.2449 0.0578002 0)
(12.3509 -0.319562 0)
(12.4056 -0.392806 0)
(12.4578 0.38356 0)
(12.6572 0.36557 0)
(12.8144 -0.0731075 0)
(12.8598 -0.45786 0)
(12.9458 -0.407877 0)
(13.1111 -0.347484 0)
(13.134 0.466625 0)
(13.2985 0.477766 0)
(13.4063 -0.00776518 0)
(13.5267 -0.380718 0)
(13.5721 -0.564526 0)
(13.5843 0.400812 0)
(13.766 0.501389 0)
(13.9463 0.456196 0)
(14.2568 0.297836 0)
(14.4201 -0.18326 0)
(14.3911 -0.443891 0)
(14.4258 -0.415558 0)
(14.4735 -0.281506 0)
(14.5509 0.448072 0)
(14.7505 0.400696 0)
(14.8765 0.0623489 0)
(14.9113 -0.353566 0)
(14.89 -0.314562 0)
(14.8631 0.417337 0)
(15.0324 0.489364 0)
(15.2781 0.340565 0)
(15.4843 -0.0655262 0)
(15.5078 -0.392318 0)
(15.4732 -0.397809 0)
(15.4709 0.0373106 0)
(15.5225 0.450325 0)
(15.6477 0.415731 0)
(15.8865 0.213822 0)
(15.9435 -0.228127 0)
(15.8757 -0.143514 0)
(15.9188 0.186253 0)
(16.0002 -0.173737 0)
(15.9087 -0.394995 0)
(15.8507 -0.459006 0)
(15.8606 0.365225 0)
(15.9352 0.539121 0)
(16.0272 0.535712 0)
(16.1569 0.398096 0)
(16.4055 0.261011 0)
(16.7476 0.169212 0)
(16.8338 -0.238311 0)
(16.6518 -0.348562 0)
(16.5041 -0.33182 0)
(16.3903 -0.383994 0)
(16.3303 0.469486 0)
(16.385 0.533417 0)
(16.431 0.542595 0)
(16.5194 0.490816 0)
(16.6643 0.38793 0)
(16.8747 0.24088 0)
(17.1569 0.192765 0)
(17.4072 0.0999355 0)
(17.3995 -0.149423 0)
(17.1754 -0.214514 0)
(16.9384 -0.123577 0)
(16.8637 0.366668 0)
(16.9099 0.383587 0)
(17.0412 0.269937 0)
(17.3168 0.209896 0)
(17.5325 0.0488147 0)
(17.47 -0.154943 0)
(17.3329 -0.0876885 0)
(17.3399 0.160199 0)
(17.4281 0.0613651 0)
(17.3434 -0.144926 0)
(17.2105 -0.0419529 0)
(17.2481 0.2022 0)
(17.3419 0.13409 0)
(17.3202 -0.109682 0)
(17.2191 0.0257071 0)
(17.2823 0.22708 0)
(17.3806 0.119146 0)
(17.326 -0.152051 0)
(17.1417 -0.124148 0)
(17.1001 0.198488 0)
(17.2572 0.267693 0)
(17.4986 0.201855 0)
(17.5164 -0.10616 0)
(17.3467 -0.143568 0)
(17.2539 0.0718405 0)
(17.3545 0.211881 0)
(17.5701 0.165448 0)
(17.5779 -0.0805358 0)
(17.4257 -0.0972624 0)
(17.3741 0.103588 0)
(17.4967 0.178301 0)
(17.5218 -0.0314251 0)
(17.3661 -0.147848 0)
(17.2386 0.0335502 0)
(17.2989 0.195271 0)
(17.424 0.13633 0)
(17.4016 -0.101261 0)
(17.2086 -0.122998 0)
(17.121 0.0921921 0)
(17.1952 0.154011 0)
(17.4072 0.258887 0)
(17.7248 0.202992 0)
(17.8957 0.00552531 0)
(17.7626 -0.170685 0)
(17.4617 -0.129116 0)
(17.3596 -0.0107362 0)
(17.3407 -0.0149442 0)
(17.2746 -0.123512 0)
(17.0972 -0.14249 0)
(16.9859 0.0202965 0)
(17.0012 0.138451 0)
(17.159 0.203268 0)
(17.4265 0.264397 0)
(17.6596 0.0821843 0)
(17.5887 -0.149886 0)
(17.312 -0.138548 0)
(17.2121 0.0318268 0)
(17.3185 0.135244 0)
(17.3809 0.00218616 0)
(17.2555 -0.138137 0)
(17.0293 -0.118099 0)
(16.9439 0.0561385 0)
(17.0062 0.107657 0)
(17.1864 0.199249 0)
(17.5177 0.242559 0)
(17.7662 0.0462526 0)
(17.7267 -0.161796 0)
(17.4616 -0.186793 0)
(17.1892 -0.116132 0)
(16.9706 -0.103763 0)
(16.9157 0.0440895 0)
(17.0458 0.108417 0)
(17.2582 0.105639 0)
(17.3648 -0.00788799 0)
(17.2603 -0.147007 0)
(17.0449 -0.138868 0)
(16.949 0.0155454 0)
(17.0569 0.117498 0)
(17.2461 0.104948 0)
(17.3354 -0.0481896 0)
(17.2365 -0.145759 0)
(17.172 -0.0576046 0)
(17.2054 0.032948 0)
(17.241 -0.0734555 0)
(17.1806 -0.0972308 0)
(17.1806 0.0397508 0)
(17.3062 0.115918 0)
(17.4017 -0.0348054 0)
(17.2819 -0.15299 0)
(17.0646 -0.133415 0)
(17.0121 0.0218543 0)
(17.1157 0.0938565 0)
(17.1785 -0.031695 0)
(17.1752 -0.0091027 0)
(17.25 0.0878499 0)
(17.415 0.0575082 0)
(17.4526 -0.0801186 0)
(17.3123 -0.162618 0)
(17.1465 -0.0975787 0)
(17.1394 0.0311042 0)
(17.3331 0.132822 0)
(17.5939 0.110956 0)
(17.7202 -0.0708501 0)
(17.6004 -0.180265 0)
(17.3661 -0.146966 0)
(17.1866 -0.120945 0)
(17.1156 -0.0427609 0)
(17.1821 0.0346242 0)
(17.395 0.123896 0)
(17.6651 0.0916246 0)
(17.7755 -0.0892732 0)
(17.6915 -0.165071 0)
(17.5772 -0.114896 0)
(17.6013 0.0319234 0)
(17.7505 0.0449832 0)
(17.8054 -0.111287 0)
(17.7697 -0.138361 0)
(0.0474153 0.0993033 0)
(0.0645105 0.0697112 0)
(0.104787 0.0136921 0)
(0.160215 -0.033466 0)
(0.213332 -0.0811957 0)
(0.299681 -0.0910364 0)
(0.402982 -0.08367 0)
(0.501715 -0.0681492 0)
(0.579271 -0.0571901 0)
(0.635385 -0.03536 0)
(0.691919 -0.019693 0)
(0.746396 -0.00506622 0)
(0.801631 -0.00417166 0)
(0.858508 -0.0127199 0)
(0.91871 -0.0293774 0)
(0.983733 -0.0495393 0)
(1.05417 -0.0712742 0)
(1.13087 -0.0946264 0)
(1.21457 -0.119072 0)
(1.30506 -0.147867 0)
(1.40217 -0.182159 0)
(1.50747 -0.211823 0)
(1.61934 -0.241509 0)
(1.75144 -0.287743 0)
(1.9186 -0.329548 0)
(2.10205 -0.376899 0)
(2.29866 -0.422143 0)
(2.51111 -0.463906 0)
(2.73582 -0.494282 0)
(2.95886 -0.508353 0)
(3.1732 -0.523263 0)
(3.39411 -0.546134 0)
(3.62238 -0.558696 0)
(3.8346 -0.521714 0)
(3.99261 -0.41626 0)
(4.11815 -0.269305 0)
(4.17474 -0.0803785 0)
(4.22767 0.0922194 0)
(4.17069 0.16524 0)
(4.01875 0.281835 0)
(3.74571 0.463632 0)
(3.28937 0.676547 0)
(2.62036 0.945824 0)
(1.73429 1.21516 0)
(0.674971 1.51214 0)
(-0.53103 1.87224 0)
(-1.9284 2.11247 0)
(-3.47638 2.32331 0)
(-5.14197 2.5813 0)
(-6.88305 2.81879 0)
(-8.63985 3.07706 0)
(-10.383 3.29632 0)
(-12.0672 3.39237 0)
(-13.6523 3.4032 0)
(-15.1308 3.29929 0)
(-16.4345 3.01066 0)
(-17.4803 2.65398 0)
(-18.2918 2.44559 0)
(-18.8416 2.23682 0)
(-19.1443 1.94919 0)
(-19.2665 1.57506 0)
(-19.2889 1.21367 0)
(-19.224 0.807898 0)
(-19.1104 0.482332 0)
(-18.9908 0.124336 0)
(-18.7137 -0.230445 0)
(-18.3998 -0.603168 0)
(-17.8755 -0.871338 0)
(-17.1856 -1.05177 0)
(-16.4485 -1.24441 0)
(-15.7092 -1.49585 0)
(-14.9508 -1.72736 0)
(-14.1482 -1.95712 0)
(-13.2712 -2.18274 0)
(-12.3056 -2.405 0)
(-11.2468 -2.62259 0)
(-10.0977 -2.81737 0)
(-8.87279 -2.97317 0)
(-7.59468 -3.0779 0)
(-6.28981 -3.12498 0)
(-4.98653 -3.12051 0)
(-3.7101 -3.05962 0)
(-2.47827 -2.9323 0)
(-1.30541 -2.74734 0)
(-0.211744 -2.51997 0)
(0.78425 -2.2721 0)
(1.66654 -2.00549 0)
(2.43894 -1.70683 0)
(3.11251 -1.32725 0)
(3.75993 -1.01586 0)
(4.30791 -0.724175 0)
(4.84717 -0.57858 0)
(5.29208 -0.393968 0)
(5.71279 -0.409031 0)
(6.03754 -0.508479 0)
(6.25141 -0.402787 0)
(6.53453 -0.23398 0)
(6.7928 -0.177584 0)
(6.7697 -0.325216 0)
(6.72178 -0.274603 0)
(6.64871 -0.267283 0)
(6.66196 -0.377062 0)
(6.81031 -0.374723 0)
(6.94315 -0.256141 0)
(6.95128 -0.0506763 0)
(6.8364 0.0475133 0)
(6.81015 -0.21515 0)
(7.00524 -0.346393 0)
(7.25279 -0.445351 0)
(7.54718 -0.537053 0)
(7.86436 -0.579417 0)
(8.19446 -0.60953 0)
(8.54467 -0.663461 0)
(8.91232 -0.771366 0)
(9.29661 -0.914491 0)
(9.70283 -1.07306 0)
(10.1309 -1.23994 0)
(10.5687 -1.3698 0)
(11.007 -1.2811 0)
(11.375 -0.877492 0)
(11.5471 -0.216517 0)
(11.9047 -0.019181 0)
(12.2613 -0.0132042 0)
(12.639 -0.075457 0)
(13.0503 -0.157854 0)
(13.4975 -0.213561 0)
(13.9563 -0.229361 0)
(14.3664 -0.241921 0)
(14.5938 -0.28897 0)
(14.611 -0.238408 0)
(14.5111 -0.173549 0)
(14.4441 -0.0225578 0)
(14.3632 0.0697756 0)
(14.3239 0.206274 0)
(14.2824 0.407167 0)
(14.1811 0.574618 0)
(13.9832 0.69034 0)
(13.692 0.77724 0)
(13.3319 0.806153 0)
(12.9645 0.805751 0)
(12.6725 0.660471 0)
(12.5399 0.496173 0)
(12.5179 0.383328 0)
(12.53 0.422074 0)
(12.4415 0.314712 0)
(12.0274 0.174965 0)
(11.3522 0.136615 0)
(10.6435 0.258817 0)
(9.96106 0.402789 0)
(9.50804 0.782245 0)
(9.06848 0.803588 0)
(8.65112 0.706453 0)
(8.25169 0.57547 0)
(8.1058 0.228595 0)
(8.14808 0.147351 0)
(8.18017 0.263987 0)
(8.14688 0.283814 0)
(8.06623 0.18022 0)
(7.85559 0.0624918 0)
(7.53673 0.0365738 0)
(7.19827 -0.0572711 0)
(6.93987 -0.256233 0)
(6.78396 -0.433134 0)
(6.71081 -0.507824 0)
(6.67909 -0.409693 0)
(6.74132 -0.160902 0)
(6.94429 -0.0355304 0)
(7.15529 0.0537674 0)
(7.35497 0.0107591 0)
(7.41378 -0.105033 0)
(7.3833 -0.104669 0)
(7.33521 -0.00668698 0)
(7.22205 0.0981751 0)
(7.0438 0.22135 0)
(6.79228 0.311253 0)
(6.48965 0.396135 0)
(6.13663 0.495757 0)
(5.72282 0.584134 0)
(5.262 0.616063 0)
(4.78072 0.721469 0)
(4.28988 0.889399 0)
(3.75895 0.917247 0)
(3.26598 0.977524 0)
(2.80566 1.04035 0)
(2.31576 0.968968 0)
(1.80065 1.00219 0)
(1.29943 1.00704 0)
(0.808717 0.991455 0)
(0.32513 0.984113 0)
(-0.137298 0.930951 0)
(-0.535627 0.825526 0)
(-0.87853 0.759779 0)
(-1.16908 0.712072 0)
(-1.40009 0.6709 0)
(-1.58066 0.578959 0)
(-1.71511 0.451585 0)
(-1.83813 0.345196 0)
(-1.93087 0.206045 0)
(-1.98096 0.0105088 0)
(-1.97886 -0.12822 0)
(-1.85366 -0.343421 0)
(-1.57041 -0.47073 0)
(-1.20885 -0.499543 0)
(-0.824944 -0.488559 0)
(-0.450119 -0.48857 0)
(-0.0710769 -0.540582 0)
(0.317226 -0.631317 0)
(0.722029 -0.705494 0)
(1.14552 -0.722842 0)
(1.56499 -0.821662 0)
(1.97327 -0.947834 0)
(2.38853 -1.05094 0)
(2.81939 -1.13757 0)
(3.26449 -1.18783 0)
(3.71001 -1.20206 0)
(4.14792 -1.21625 0)
(4.58032 -1.23111 0)
(5.02231 -1.21481 0)
(5.4774 -1.11321 0)
(5.92658 -0.910729 0)
(6.32901 -0.618641 0)
(6.68122 -0.378954 0)
(6.99865 -0.264838 0)
(7.29366 -0.215442 0)
(7.58316 -0.195643 0)
(7.87792 -0.181424 0)
(8.15173 -0.121626 0)
(8.36118 -0.129601 0)
(8.42633 -0.24718 0)
(8.36978 -0.305935 0)
(8.28733 -0.303821 0)
(8.21967 -0.296061 0)
(8.17593 -0.349064 0)
(8.15084 -0.412204 0)
(8.115 -0.397562 0)
(8.11208 -0.215896 0)
(8.04891 -0.0117889 0)
(8.04148 0.217879 0)
(8.00112 0.247873 0)
(7.98145 0.189921 0)
(7.99413 0.167623 0)
(8.01099 0.111531 0)
(8.00772 0.00469542 0)
(7.94049 -0.0239575 0)
(7.87743 -0.0360265 0)
(7.85314 0.021763 0)
(7.84053 0.054256 0)
(7.83706 -0.0133085 0)
(7.8011 -0.0344183 0)
(7.76944 0.00243608 0)
(7.76734 0.0958169 0)
(7.78854 0.0900091 0)
(7.82378 -0.0099926 0)
(7.80891 -0.165099 0)
(7.7703 -0.279771 0)
(7.7488 -0.135048 0)
(7.75029 0.0933493 0)
(7.77547 0.250487 0)
(7.8187 0.243554 0)
(7.88701 0.178328 0)
(7.96466 0.0716317 0)
(8.04949 -0.0138228 0)
(8.07084 -0.0959198 0)
(8.08489 -0.0888055 0)
(8.10298 -0.14852 0)
(8.14113 -0.156778 0)
(8.17914 -0.0163112 0)
(8.21922 0.177036 0)
(8.32488 0.243004 0)
(8.44086 0.138473 0)
(8.53911 -0.0371102 0)
(8.66893 -0.116986 0)
(8.69376 -0.251198 0)
(8.75812 -0.213714 0)
(8.81065 0.050894 0)
(8.89622 0.228835 0)
(9.00439 0.173276 0)
(9.09457 -0.0270453 0)
(9.25207 -0.0506228 0)
(9.31394 -0.227869 0)
(9.40689 -0.171604 0)
(9.46162 0.176524 0)
(9.58375 0.15186 0)
(9.66825 -0.0796218 0)
(9.83198 -0.0589003 0)
(9.94141 -0.207143 0)
(9.99355 0.124266 0)
(10.1438 0.137756 0)
(10.2376 -0.121696 0)
(10.3897 -0.0814866 0)
(10.5082 -0.221774 0)
(10.5549 0.103568 0)
(10.6894 0.214476 0)
(10.797 -0.0334211 0)
(11.0121 -0.0924995 0)
(11.1248 -0.281887 0)
(11.2581 -0.305036 0)
(11.3485 -0.0351273 0)
(11.4406 0.261518 0)
(11.5763 0.250942 0)
(11.7258 0.242399 0)
(11.8463 0.152919 0)
(11.9451 0.167789 0)
(12.0422 0.113978 0)
(12.1274 -0.136659 0)
(12.3595 -0.153463 0)
(12.5179 -0.250994 0)
(12.6443 -0.316706 0)
(12.7579 -0.0450933 0)
(12.8668 0.25944 0)
(12.9827 0.211745 0)
(13.115 0.145337 0)
(13.249 0.135161 0)
(13.3328 0.186083 0)
(13.4169 0.119879 0)
(13.4966 -0.0851123 0)
(13.7083 -0.0973657 0)
(13.8863 -0.177474 0)
(14.0134 -0.276491 0)
(14.1442 -0.181756 0)
(14.2028 0.221358 0)
(14.2817 0.123312 0)
(14.438 -0.0470896 0)
(14.6193 -0.237978 0)
(14.7323 -0.0185355 0)
(14.7957 0.166391 0)
(14.9093 0.194042 0)
(14.9716 0.0510479 0)
(15.1311 -0.0836219 0)
(15.3331 -0.157745 0)
(15.456 -0.0563756 0)
(15.4941 0.21994 0)
(15.5192 0.112278 0)
(15.6076 -0.0971292 0)
(15.8282 -0.182361 0)