/*--------------------------------*- C++ -*----------------------------------*\
| =========                 |                                                 |
| \\      /  F ield         | OpenFOAM: The Open Source CFD Toolbox           |
|  \\    /   O peration     | Version:  v1812                                 |
|   \\  /    A nd           | Web:      www.OpenFOAM.com                      |
|    \\/     M anipulation  |                                                 |
\*---------------------------------------------------------------------------*/
FoamFile
{
    version     2.0;
    format      ascii;
    class       volScalarField;
    location    "1.3";
    object      p;
}
// * * * * * * * * * * * * * * * * * * * * * * * * * * * * * * * * * * * * * //

dimensions      [1 -1 -2 0 0 0 0];


internalField   nonuniform List<scalar> 
20400
(
105360
105359
105358
105356
105354
105351
105347
105342
105337
105332
105326
105320
105313
105306
105299
105292
105284
105277
105270
105262
105255
105248
105241
105235
105228
105221
105215
105209
105203
105197
105192
105186
105180
105175
105169
105163
105158
105153
105147
105140
105135
105131
105126
105120
105115
105108
105103
105098
105088
105086
105086
105083
105079
105078
105078
105076
105075
105073
105072
105072
105073
105075
105078
105083
105088
105094
105102
105110
105120
105132
105145
105161
105180
105199
105220
105244
105273
105297
105327
105360
105389
105420
105451
105481
105511
105540
105567
105593
105617
105639
105658
105676
105691
105705
105718
105727
105735
105745
105754
105757
105758
105760
105762
105763
105764
105764
105765
105766
105767
105770
105777
105783
105786
105791
105795
105802
105808
105813
105816
105818
105821
105822
105821
105818
105814
105811
105809
105804
105799
105795
105789
105782
105774
105767
105761
105754
105745
105735
105725
105716
105708
105699
105690
105682
105673
105665
105656
105647
105637
105629
105622
105618
105613
105607
105600
105593
105586
105582
105577
105575
105561
105558
105551
105545
105539
105535
105529
105524
105519
105516
105513
105513
105515
105513
105516
105503
105503
105503
105498
105495
105496
105496
105496
105493
105487
105483
105480
105481
105451
105441
105435
105429
105420
105407
105395
105386
105378
105374
105370
105359
105361
105363
105363
105369
105372
105383
105395
105404
105414
105425
105438
105450
105459
105467
105474
105478
105481
105484
105483
105483
105480
105479
105477
105472
105469
105464
105469
105453
105446
105435
105423
105409
105397
105381
105366
105352
105339
105328
105314
105296
105281
105264
105248
105232
105216
105199
105183
105169
105153
105140
105128
105115
105104
105094
105086
105078
105072
105065
105058
105051
105044
105036
105028
105021
105013
105005
104997
104989
104979
104970
104961
104952
104943
104930
104917
104916
104907
104899
104889
104878
104867
104856
104846
104837
104825
104812
104797
104784
104770
104755
104738
104722
104706
104689
104671
104656
104630
104608
104585
104561
104543
104519
104494
104469
104448
104424
104396
104383
104325
104294
104251
104223
104195
104155
104129
104085
104039
104005
103959
103921
103879
103841
103798
103758
103723
103678
103634
103590
103546
103503
103460
103416
103373
103329
103285
103242
103198
103155
103112
103071
103030
102991
102955
102921
102886
102850
102808
102773
102731
102710
102683
102655
102627
102601
102580
102558
102532
102522
102486
102467
102452
102439
102423
102412
102406
102393
102395
102354
102337
102330
102319
102311
102305
102296
102291
102284
102279
102269
102264
102262
102260
102266
102243
102234
102225
102224
102222
102216
102213
102206
102204
102200
102203
102198
102191
102191
102188
102183
102181
102178
102177
102176
102175
102173
102172
102168
102165
102161
102160
102158
102156
102154
102153
102152
102153
102149
102142
102144
102135
102148
102148
102146
102147
102144
102141
102141
102140
102140
102140
102139
102139
102138
102137
102136
102134
102133
102131
102129
102128
102125
102124
102128
102131
102119
102111
102105
102095
102088
102080
102072
102065
102056
102048
102039
102030
102021
102014
102005
101997
101989
101969
101957
101938
101930
101918
101907
101894
101878
101863
101849
101832
101821
101805
101793
101774
101752
101744
101728
101711
101694
101676
101656
101641
101623
101605
101587
101574
101559
101543
101523
101502
101483
101463
101443
101424
101410
101391
101378
101353
101336
105358
105358
105355
105352
105348
105344
105340
105335
105330
105324
105317
105311
105304
105297
105289
105281
105273
105265
105257
105248
105241
105233
105226
105219
105213
105207
105199
105193
105187
105181
105174
105168
105163
105158
105153
105147
105143
105139
105136
105131
105128
105125
105122
105120
105118
105116
105115
105114
105108
105107
105106
105105
105105
105105
105105
105106
105106
105105
105103
105099
105093
105091
105093
105095
105098
105103
105110
105117
105126
105138
105151
105168
105184
105203
105222
105245
105273
105296
105326
105355
105383
105414
105444
105474
105504
105533
105562
105589
105615
105639
105661
105682
105701
105718
105733
105745
105756
105763
105769
105773
105776
105779
105780
105781
105781
105780
105779
105777
105774
105771
105768
105763
105764
105768
105766
105765
105765
105767
105769
105771
105776
105777
105782
105792
105800
105805
105809
105809
105806
105802
105796
105789
105781
105773
105766
105758
105748
105738
105728
105719
105710
105701
105692
105683
105676
105669
105663
105658
105653
105648
105640
105628
105614
105603
105595
105588
105582
105578
105572
105569
105564
105560
105554
105548
105539
105534
105529
105525
105521
105515
105508
105503
105504
105505
105501
105494
105493
105503
105500
105497
105499
105495
105475
105475
105471
105467
105462
105439
105432
105437
105433
105430
105427
105422
105415
105407
105404
105396
105389
105376
105370
105366
105363
105371
105370
105372
105377
105381
105388
105395
105405
105416
105426
105436
105445
105457
105467
105476
105481
105485
105487
105483
105473
105467
105463
105461
105460
105441
105444
105438
105426
105414
105404
105389
105373
105357
105340
105325
105308
105291
105274
105257
105241
105226
105211
105196
105181
105166
105152
105141
105133
105127
105118
105111
105104
105096
105088
105081
105073
105066
105059
105052
105045
105038
105032
105025
105018
105011
105004
104996
104988
104980
104971
104960
104951
104933
104920
104907
104894
104881
104868
104856
104843
104832
104821
104814
104800
104789
104776
104764
104751
104736
104722
104705
104686
104667
104661
104640
104596
104571
104548
104525
104499
104474
104445
104424
104397
104364
104334
104303
104265
104246
104187
104147
104118
104084
104031
104001
103957
103923
103884
103850
103801
103752
103712
103671
103635
103592
103548
103505
103462
103416
103372
103328
103285
103241
103197
103155
103113
103072
103032
102991
102950
102913
102876
102841
102801
102766
102739
102708
102681
102653
102626
102600
102577
102553
102527
102509
102514
102475
102457
102443
102432
102425
102418
102390
102390
102368
102347
102340
102328
102320
102314
102307
102303
102297
102267
102259
102254
102252
102246
102241
102237
102242
102225
102220
102220
102218
102219
102222
102214
102190
102183
102189
102193
102199
102198
102189
102186
102182
102177
102171
102166
102161
102161
102159
102156
102159
102160
102158
102155
102153
102151
102147
102142
102136
102124
102150
102150
102134
102136
102139
102141
102134
102152
102151
102152
102153
102154
102155
102156
102156
102156
102156
102156
102156
102155
102152
102149
102145
102145
102123
102113
102099
102108
102110
102103
102098
102092
102086
102079
102071
102061
102052
102044
102034
102018
101990
101977
101972
101956
101957
101951
101943
101917
101890
101884
101874
101870
101861
101853
101836
101789
101779
101757
101754
101730
101716
101702
101687
101675
101663
101652
101637
101623
101608
101576
101541
101532
101516
101493
101487
101472
101458
101442
101420
101377
101361
101350
101349
105362
105361
105360
105358
105355
105352
105347
105343
105338
105332
105326
105320
105313
105306
105300
105293
105285
105277
105270
105262
105254
105246
105239
105231
105223
105217
105211
105204
105198
105193
105188
105182
105177
105172
105167
105162
105159
105155
105150
105145
105141
105137
105132
105126
105121
105117
105112
105109
105101
105100
105093
105087
105083
105080
105079
105079
105080
105080
105080
105082
105086
105091
105097
105103
105108
105113
105119
105126
105134
105144
105154
105168
105183
105201
105222
105246
105276
105300
105327
105356
105383
105411
105439
105467
105494
105521
105548
105573
105597
105619
105639
105658
105675
105690
105703
105712
105722
105726
105723
105729
105729
105731
105731
105731
105730
105729
105728
105726
105725
105722
105722
105729
105740
105746
105752
105758
105763
105770
105775
105779
105784
105789
105792
105793
105793
105791
105789
105787
105784
105780
105776
105771
105764
105756
105749
105742
105735
105728
105720
105712
105704
105696
105688
105680
105672
105665
105658
105650
105644
105638
105632
105624
105616
105610
105604
105600
105598
105596
105588
105572
105557
105552
105549
105543
105538
105535
105530
105524
105518
105513
105510
105504
105506
105517
105527
105521
105505
105498
105495
105492
105492
105480
105474
105480
105476
105470
105463
105464
105465
105465
105456
105444
105433
105425
105413
105404
105388
105379
105371
105359
105356
105351
105353
105363
105368
105375
105389
105400
105412
105422
105429
105434
105441
105449
105458
105464
105471
105478
105484
105488
105490
105491
105487
105480
105475
105470
105469
105467
105430
105415
105410
105400
105391
105377
105366
105351
105332
105316
105297
105280
105264
105247
105232
105216
105201
105186
105172
105159
105146
105134
105125
105116
105106
105098
105089
105081
105074
105067
105061
105055
105050
105045
105040
105033
105027
105020
105012
105005
104997
104989
104980
104971
104961
104952
104942
104931
104918
104906
104893
104881
104868
104855
104843
104830
104816
104801
104784
104769
104754
104740
104724
104707
104687
104668
104650
104639
104638
104619
104596
104572
104552
104528
104500
104480
104448
104413
104391
104382
104323
104300
104257
104234
104194
104149
104119
104080
104047
104004
103958
103919
103878
103842
103803
103759
103721
103682
103634
103590
103547
103501
103458
103414
103370
103327
103283
103241
103197
103155
103114
103074
103033
102992
102950
102910
102872
102838
102801
102771
102739
102704
102681
102656
102625
102598
102576
102554
102521
102500
102507
102473
102455
102440
102427
102424
102419
102394
102382
102372
102350
102340
102329
102320
102313
102304
102297
102299
102285
102276
102271
102265
102254
102241
102245
102253
102240
102234
102213
102207
102205
102203
102196
102198
102202
102198
102188
102180
102181
102178
102177
102174
102170
102165
102161
102165
102165
102160
102156
102154
102152
102149
102147
102145
102144
102142
102139
102136
102135
102141
102134
102138
102145
102146
102148
102140
102145
102145
102144
102145
102145
102146
102147
102147
102147
102147
102147
102146
102145
102144
102142
102138
102140
102134
102128
102123
102119
102112
102099
102093
102086
102079
102072
102064
102056
102047
102037
102026
102019
102010
102000
101990
101974
101956
101934
101930
101919
101911
101897
101881
101861
101847
101827
101822
101807
101796
101777
101752
101745
101730
101714
101696
101672
101657
101640
101622
101603
101590
101575
101558
101543
101525
101506
101478
101461
101439
101426
101411
101391
101382
101354
101331
105365
105363
105362
105360
105358
105354
105350
105345
105340
105334
105328
105321
105315
105307
105300
105293
105285
105277
105270
105262
105255
105247
105240
105232
105225
105219
105212
105206
105201
105195
105189
105184
105179
105174
105168
105162
105158
105153
105147
105142
105138
105134
105128
105123
105120
105117
105115
105115
105110
105109
105105
105102
105098
105095
105094
105090
105087
105084
105081
105081
105081
105082
105084
105087
105090
105096
105103
105110
105121
105132
105142
105157
105168
105187
105200
105219
105236
105262
105286
105314
105341
105369
105398
105427
105456
105485
105515
105544
105572
105599
105625
105650
105672
105692
105709
105723
105733
105745
105752
105756
105759
105761
105761
105761
105761
105761
105760
105760
105761
105762
105767
105773
105777
105781
105787
105795
105804
105811
105816
105815
105810
105806
105803
105800
105797
105794
105793
105790
105786
105782
105778
105774
105769
105762
105758
105751
105744
105736
105727
105719
105710
105702
105693
105685
105676
105669
105660
105651
105643
105633
105623
105614
105608
105601
105594
105589
105585
105584
105576
105569
105563
105555
105552
105549
105537
105531
105527
105524
105521
105520
105517
105515
105502
105498
105502
105502
105487
105481
105484
105486
105484
105480
105490
105499
105500
105492
105481
105476
105467
105456
105446
105427
105411
105401
105395
105387
105375
105368
105366
105356
105350
105349
105348
105354
105362
105370
105387
105401
105418
105436
105447
105455
105464
105471
105478
105483
105487
105490
105490
105486
105478
105479
105480
105478
105474
105469
105459
105446
105430
105420
105416
105405
105395
105384
105375
105363
105352
105340
105324
105307
105289
105268
105252
105234
105217
105199
105184
105170
105155
105141
105130
105118
105108
105098
105089
105081
105073
105065
105058
105052
105047
105040
105032
105026
105019
105012
105004
104996
104987
104978
104969
104959
104949
104939
104929
104918
104906
104895
104883
104872
104860
104849
104838
104826
104818
104810
104799
104787
104774
104761
104749
104734
104714
104695
104677
104662
104636
104618
104597
104575
104543
104514
104491
104480
104452
104420
104394
104368
104325
104292
104255
104225
104199
104156
104120
104087
104039
104006
103956
103918
103876
103832
103808
103765
103722
103680
103636
103589
103544
103499
103456
103411
103367
103324
103281
103238
103196
103154
103113
103075
103035
102996
102957
102919
102882
102847
102812
102776
102736
102700
102686
102660
102633
102607
102582
102560
102537
102519
102501
102474
102452
102436
102423
102416
102409
102400
102387
102361
102344
102336
102327
102324
102307
102295
102277
102291
102294
102279
102270
102264
102256
102251
102239
102223
102210
102213
102211
102208
102205
102200
102194
102210
102197
102189
102182
102180
102181
102182
102180
102179
102177
102175
102169
102171
102170
102167
102163
102157
102152
102150
102149
102148
102147
102147
102143
102147
102141
102140
102133
102138
102149
102147
102148
102142
102145
102141
102140
102139
102138
102138
102137
102136
102135
102134
102132
102131
102129
102124
102122
102118
102119
102129
102123
102117
102111
102100
102090
102084
102077
102070
102062
102055
102046
102038
102027
102017
102013
102014
101999
101987
101976
101955
101937
101920
101917
101913
101901
101878
101856
101845
101829
101811
101816
101800
101781
101753
101745
101731
101711
101692
101673
101658
101641
101623
101603
101581
101573
101566
101550
101524
101505
101479
101461
101438
101420
101408
101401
101380
101355
101330
105369
105366
105365
105363
105360
105357
105353
105348
105343
105337
105331
105324
105317
105310
105303
105295
105287
105279
105271
105264
105257
105250
105243
105236
105230
105223
105217
105211
105205
105200
105195
105190
105184
105178
105173
105168
105164
105158
105152
105146
105141
105135
105127
105121
105118
105110
105105
105105
105102
105099
105094
105091
105091
105094
105096
105095
105093
105090
105086
105085
105084
105085
105087
105089
105091
105098
105101
105107
105117
105126
105136
105150
105162
105180
105199
105220
105251
105277
105306
105340
105372
105404
105438
105470
105501
105533
105563
105589
105613
105633
105651
105668
105685
105701
105717
105729
105738
105748
105756
105758
105760
105760
105757
105753
105750
105748
105746
105746
105748
105751
105758
105765
105771
105778
105789
105798
105809
105818
105829
105836
105834
105832
105828
105823
105818
105814
105811
105807
105802
105796
105790
105784
105775
105763
105747
105736
105729
105721
105714
105706
105699
105692
105685
105677
105670
105664
105658
105650
105643
105638
105631
105623
105615
105607
105600
105592
105585
105579
105571
105564
105558
105549
105544
105539
105533
105529
105523
105520
105513
105508
105504
105503
105502
105504
105511
105511
105514
105510
105506
105509
105517
105516
105501
105492
105491
105487
105471
105458
105451
105449
105439
105428
105422
105414
105406
105392
105375
105365
105350
105341
105356
105354
105352
105360
105369
105374
105376
105380
105392
105409
105422
105436
105448
105460
105470
105478
105483
105490
105495
105495
105492
105490
105485
105477
105470
105463
105457
105447
105439
105438
105436
105426
105414
105400
105384
105371
105359
105345
105327
105307
105285
105261
105245
105226
105210
105192
105179
105165
105151
105137
105125
105113
105102
105093
105084
105075
105067
105060
105052
105046
105041
105035
105028
105022
105015
105008
105000
104992
104984
104976
104967
104958
104949
104939
104928
104918
104908
104898
104888
104876
104865
104853
104841
104826
104811
104794
104778
104762
104748
104735
104724
104713
104701
104687
104673
104660
104641
104619
104601
104586
104556
104528
104506
104480
104454
104422
104389
104366
104325
104294
104257
104224
104190
104152
104116
104075
104042
104016
103970
103929
103884
103846
103799
103755
103717
103674
103635
103591
103545
103500
103458
103414
103370
103328
103283
103240
103198
103155
103114
103074
103034
102994
102955
102917
102880
102841
102801
102775
102747
102718
102685
102652
102625
102594
102568
102549
102527
102508
102489
102465
102448
102432
102415
102398
102391
102386
102379
102363
102347
102340
102334
102331
102315
102305
102303
102294
102289
102282
102274
102264
102254
102250
102244
102237
102228
102227
102229
102229
102218
102210
102206
102200
102196
102192
102192
102190
102192
102192
102191
102187
102183
102180
102178
102169
102165
102165
102164
102163
102161
102159
102158
102156
102154
102152
102151
102147
102142
102143
102140
102143
102143
102143
102140
102142
102147
102146
102145
102145
102145
102145
102146
102145
102146
102145
102144
102143
102143
102141
102138
102135
102133
102129
102123
102113
102108
102107
102097
102090
102083
102076
102068
102061
102052
102043
102035
102025
102015
102004
101990
101979
101962
101961
101945
101933
101917
101904
101887
101876
101869
101854
101836
101820
101805
101790
101768
101756
101740
101723
101708
101684
101684
101666
101650
101630
101610
101591
101574
101556
101536
101517
101497
101491
101470
101448
101429
101409
101391
101368
101354
101340
105374
105370
105369
105367
105365
105362
105357
105352
105346
105340
105333
105326
105319
105311
105304
105296
105288
105280
105273
105266
105259
105251
105245
105238
105231
105225
105219
105213
105207
105201
105196
105191
105186
105181
105176
105169
105165
105159
105154
105149
105146
105143
105138
105134
105130
105121
105117
105114
105104
105098
105094
105089
105085
105082
105080
105077
105073
105070
105065
105064
105062
105061
105064
105063
105068
105072
105077
105080
105090
105100
105113
105128
105148
105168
105189
105215
105235
105255
105280
105311
105343
105379
105417
105455
105493
105531
105569
105602
105633
105659
105682
105702
105718
105731
105741
105750
105756
105764
105770
105773
105774
105775
105773
105772
105770
105769
105767
105766
105766
105767
105768
105769
105770
105773
105780
105779
105773
105776
105785
105795
105801
105805
105808
105808
105807
105805
105804
105801
105798
105794
105790
105784
105779
105774
105763
105753
105744
105735
105725
105716
105707
105698
105690
105681
105672
105664
105656
105645
105632
105622
105618
105612
105606
105599
105593
105587
105582
105578
105572
105564
105557
105549
105545
105538
105531
105524
105519
105515
105511
105510
105508
105509
105512
105517
105520
105516
105514
105512
105494
105488
105486
105492
105484
105477
105478
105483
105477
105468
105464
105461
105456
105440
105427
105411
105391
105373
105365
105360
105344
105336
105350
105351
105351
105365
105374
105385
105393
105402
105412
105420
105430
105440
105449
105457
105464
105470
105475
105477
105480
105483
105483
105484
105481
105479
105475
105472
105474
105471
105451
105439
105428
105420
105406
105386
105366
105352
105344
105332
105317
105303
105287
105267
105251
105233
105217
105196
105182
105166
105151
105136
105122
105111
105100
105091
105082
105074
105068
105061
105055
105049
105043
105037
105030
105024
105017
105009
105002
104993
104985
104976
104967
104958
104948
104939
104928
104917
104907
104898
104889
104879
104869
104859
104849
104840
104829
104817
104804
104790
104775
104759
104743
104726
104708
104690
104672
104659
104624
104596
104577
104568
104545
104521
104498
104474
104450
104418
104391
104368
104327
104297
104263
104227
104193
104153
104118
104082
104041
104004
103963
103923
103883
103842
103800
103757
103716
103673
103632
103592
103547
103503
103461
103418
103375
103334
103288
103243
103200
103156
103112
103071
103029
102989
102951
102914
102877
102839
102803
102775
102740
102713
102688
102654
102631
102604
102577
102554
102529
102508
102489
102470
102453
102439
102425
102410
102397
102383
102372
102357
102341
102324
102312
102305
102301
102293
102287
102281
102275
102270
102264
102261
102250
102248
102243
102238
102228
102222
102214
102212
102208
102204
102201
102200
102202
102204
102204
102200
102191
102186
102183
102176
102171
102173
102171
102167
102167
102167
102167
102165
102162
102157
102153
102150
102147
102147
102145
102143
102142
102140
102137
102139
102141
102141
102141
102139
102139
102138
102138
102138
102137
102137
102138
102137
102137
102133
102129
102127
102130
102132
102131
102130
102129
102127
102122
102118
102112
102107
102099
102092
102085
102078
102069
102060
102049
102041
102031
102023
102014
102005
101994
101981
101970
101958
101944
101928
101917
101907
101894
101877
101862
101850
101834
101819
101806
101792
101775
101757
101743
101728
101711
101693
101674
101658
101641
101625
101608
101589
101573
101557
101542
101523
101502
101481
101464
101444
101426
101408
101393
101374
101354
101334
105381
105375
105374
105374
105372
105369
105364
105358
105352
105345
105339
105332
105324
105315
105307
105299
105290
105282
105275
105267
105260
105252
105246
105239
105233
105227
105221
105215
105209
105204
105199
105194
105189
105184
105179
105174
105170
105164
105157
105151
105147
105144
105140
105135
105130
105126
105121
105118
105110
105104
105098
105092
105087
105083
105079
105074
105070
105066
105061
105059
105058
105058
105057
105058
105060
105067
105072
105075
105085
105094
105108
105128
105146
105171
105199
105224
105254
105281
105312
105345
105378
105411
105446
105481
105510
105534
105554
105579
105608
105636
105663
105687
105708
105725
105738
105748
105754
105759
105764
105763
105762
105760
105758
105758
105757
105757
105758
105761
105764
105767
105772
105776
105782
105786
105794
105800
105804
105804
105805
105805
105805
105805
105804
105802
105799
105795
105792
105788
105783
105777
105769
105760
105753
105749
105745
105739
105732
105725
105717
105709
105702
105695
105687
105680
105673
105665
105660
105654
105643
105633
105624
105615
105606
105598
105589
105580
105573
105566
105561
105555
105549
105542
105538
105533
105528
105522
105515
105512
105507
105503
105504
105503
105502
105505
105506
105503
105502
105490
105491
105489
105491
105494
105496
105496
105492
105490
105488
105481
105465
105444
105435
105419
105404
105395
105387
105364
105361
105354
105336
105342
105334
105327
105332
105326
105340
105352
105363
105381
105398
105413
105428
105442
105454
105463
105470
105476
105482
105488
105491
105489
105486
105484
105483
105482
105479
105458
105450
105444
105436
105418
105410
105408
105400
105387
105374
105366
105358
105346
105328
105309
105287
105265
105244
105225
105204
105183
105166
105150
105137
105123
105112
105102
105092
105083
105075
105067
105061
105055
105049
105044
105038
105033
105027
105021
105015
105007
105000
104993
104984
104976
104967
104958
104949
104939
104928
104918
104908
104898
104887
104868
104852
104839
104826
104814
104803
104793
104785
104775
104765
104753
104740
104727
104712
104696
104680
104666
104640
104616
104598
104573
104550
104525
104500
104472
104438
104410
104384
104362
104325
104293
104261
104227
104190
104154
104117
104080
104042
104007
103963
103921
103881
103840
103797
103758
103718
103676
103636
103596
103558
103514
103472
103428
103381
103336
103287
103236
103190
103147
103106
103065
103026
102986
102949
102912
102876
102840
102806
102774
102739
102713
102675
102642
102617
102595
102569
102547
102524
102504
102485
102465
102449
102435
102424
102412
102401
102392
102383
102374
102361
102345
102333
102324
102314
102303
102295
102287
102278
102270
102263
102256
102249
102243
102238
102234
102226
102223
102219
102216
102216
102220
102216
102207
102198
102194
102192
102185
102178
102181
102178
102173
102170
102179
102180
102175
102168
102162
102158
102153
102154
102150
102147
102146
102145
102146
102145
102144
102141
102140
102140
102139
102140
102141
102141
102141
102140
102141
102142
102143
102143
102145
102146
102144
102146
102146
102144
102142
102142
102139
102136
102133
102127
102119
102115
102113
102109
102105
102098
102092
102086
102080
102071
102063
102054
102046
102037
102027
102016
102003
101991
101980
101968
101957
101944
101931
101917
101905
101891
101878
101863
101850
101836
101821
101805
101790
101773
101757
101742
101726
101710
101692
101677
101661
101644
101627
101610
101593
101575
101556
101539
101520
101502
101485
101467
101447
101429
101409
101391
101371
101353
101337
105388
105381
105378
105379
105377
105373
105368
105362
105355
105348
105342
105335
105327
105319
105311
105303
105294
105286
105278
105270
105262
105255
105248
105241
105235
105229
105224
105218
105213
105208
105204
105200
105194
105188
105184
105179
105176
105172
105165
105161
105152
105150
105143
105138
105133
105127
105121
105116
105109
105102
105096
105089
105083
105079
105074
105069
105064
105060
105054
105052
105050
105045
105047
105051
105048
105053
105058
105065
105070
105084
105095
105090
105122
105128
105152
105180
105211
105243
105280
105320
105361
105401
105441
105487
105529
105566
105594
105621
105647
105669
105687
105703
105717
105732
105746
105756
105761
105765
105770
105772
105773
105772
105770
105766
105763
105760
105756
105753
105750
105747
105748
105749
105744
105743
105748
105763
105774
105783
105791
105797
105801
105804
105804
105802
105800
105798
105795
105791
105787
105782
105777
105771
105763
105754
105746
105738
105730
105722
105714
105706
105698
105689
105681
105672
105662
105651
105644
105639
105633
105626
105619
105611
105604
105597
105591
105583
105574
105566
105558
105550
105543
105533
105528
105522
105518
105512
105506
105504
105499
105497
105495
105494
105495
105499
105501
105501
105495
105496
105488
105485
105490
105498
105498
105494
105490
105479
105473
105462
105449
105433
105425
105418
105407
105400
105388
105367
105356
105345
105335
105332
105331
105331
105330
105340
105354
105356
105364
105378
105390
105402
105415
105428
105440
105450
105458
105464
105469
105474
105479
105482
105481
105480
105477
105475
105472
105463
105458
105453
105444
105439
105429
105427
105421
105410
105392
105369
105350
105335
105315
105287
105260
105246
105227
105202
105187
105172
105161
105146
105136
105120
105111
105100
105088
105080
105072
105065
105059
105054
105049
105044
105039
105034
105029
105023
105016
105009
105002
104994
104987
104977
104967
104958
104949
104940
104930
104921
104912
104903
104891
104878
104867
104855
104843
104831
104818
104805
104791
104777
104763
104749
104732
104716
104697
104674
104652
104640
104627
104607
104589
104569
104547
104524
104500
104471
104445
104418
104386
104361
104325
104293
104260
104226
104191
104154
104116
104079
104041
104002
103961
103920
103880
103840
103802
103760
103725
103687
103641
103594
103548
103504
103460
103416
103366
103320
103273
103222
103187
103144
103103
103064
103027
102987
102948
102910
102873
102839
102806
102774
102741
102714
102685
102651
102626
102598
102573
102549
102526
102506
102487
102467
102449
102434
102418
102401
102386
102367
102356
102347
102337
102328
102320
102312
102306
102297
102292
102285
102279
102274
102270
102264
102256
102250
102244
102239
102232
102226
102217
102212
102206
102202
102196
102190
102186
102188
102188
102183
102178
102190
102195
102191
102181
102173
102169
102163
102155
102157
102154
102144
102152
102154
102152
102149
102143
102143
102141
102139
102137
102137
102136
102136
102137
102138
102137
102138
102137
102137
102137
102138
102138
102140
102138
102132
102132
102137
102137
102136
102137
102136
102135
102133
102131
102127
102123
102118
102113
102107
102100
102093
102085
102075
102065
102059
102053
102044
102035
102025
102015
102004
101993
101981
101969
101957
101944
101931
101917
101905
101892
101878
101863
101849
101835
101820
101805
101790
101774
101758
101742
101727
101710
101693
101676
101660
101643
101626
101609
101592
101574
101556
101539
101521
101502
101483
101465
101447
101428
101409
101391
101373
101354
101335
105397
105388
105389
105388
105386
105382
105376
105370
105362
105355
105347
105339
105330
105320
105312
105304
105295
105286
105279
105271
105263
105256
105249
105243
105236
105231
105226
105220
105215
105210
105206
105203
105197
105193
105190
105184
105180
105175
105169
105164
105159
105151
105148
105140
105135
105129
105122
105116
105109
105102
105096
105089
105083
105077
105072
105065
105060
105054
105047
105041
105037
105037
105036
105039
105040
105049
105050
105052
105071
105085
105089
105115
105132
105152
105171
105187
105217
105245
105277
105311
105347
105379
105409
105439
105480
105520
105560
105596
105628
105657
105682
105703
105720
105734
105747
105757
105763
105765
105767
105766
105766
105765
105764
105762
105762
105761
105762
105762
105763
105763
105764
105764
105763
105766
105772
105773
105774
105777
105780
105784
105786
105788
105787
105787
105785
105783
105780
105776
105772
105768
105765
105761
105756
105750
105743
105736
105728
105721
105713
105706
105699
105691
105683
105676
105668
105659
105649
105639
105629
105620
105611
105602
105594
105586
105580
105574
105568
105560
105553
105547
105541
105533
105526