/*--------------------------------*- C++ -*----------------------------------*\
| =========                 |                                                 |
| \\      /  F ield         | OpenFOAM: The Open Source CFD Toolbox           |
|  \\    /   O peration     | Version:  v1812                                 |
|   \\  /    A nd           | Web:      www.OpenFOAM.com                      |
|    \\/     M anipulation  |                                                 |
\*---------------------------------------------------------------------------*/
FoamFile
{
    version     2.0;
    format      ascii;
    class       surfaceScalarField;
    location    "1.3";
    object      phi;
}
// * * * * * * * * * * * * * * * * * * * * * * * * * * * * * * * * * * * * * //

dimensions      [1 0 -1 0 0 0 0];
oriented        oriented;


internalField   nonuniform List<scalar> 
40240
(
8.13712e-05
-0.000104922
0.000146752
-8.92331e-05
0.000211823
-8.91028e-05
0.000267386
-8.04149e-05
0.000336259
-9.46226e-05
0.000407932
-9.79416e-05
0.000460743
-8.03976e-05
0.00050019
-6.82177e-05
0.000539293
-6.92336e-05
0.000576606
-6.86474e-05
0.000607838
-6.34392e-05
0.000638059
-6.34343e-05
0.000672595
-6.88806e-05
0.000706763
-7.00966e-05
0.000738681
-7.02012e-05
0.00076031
-6.26114e-05
0.000773693
-5.69639e-05
0.000786862
-5.88434e-05
0.000819692
-8.05672e-05
0.000871222
-0.000101176
0.000939666
-0.000120148
0.001034
-0.000148069
0.00116407
-0.000185719
0.0013359
-0.000229474
0.0015444
-0.000266335
0.001771
-0.000286441
0.00201188
-0.000300987
0.00226241
-0.000310933
0.00252303
-0.000321978
0.00278794
-0.000328136
0.00305973
-0.000336805
0.00333279
-0.000338633
0.00360746
-0.000339864
0.0038854
-0.000344323
0.0041632
-0.000347339
0.00442668
-0.000336268
0.00468262
-0.000329237
0.00488272
-0.00027431
0.00495449
-0.000147663
0.00502667
-0.000147758
0.0051397
-0.000188782
0.00531915
-0.000255201
0.00547969
-0.000236938
0.00553337
-0.000129697
0.00551593
-5.83443e-05
0.00547876
-3.87786e-05
0.00533707
6.74391e-05
0.00515891
0.000105598
0.0050585
2.15586e-05
0.0047673
0.000219517
0.0044122
0.000282661
0.00397222
0.000366601
0.00342547
0.000476246
0.00283343
0.000523616
0.00223384
0.00053277
0.00159387
0.000574565
0.000861977
0.000669034
-7.6056e-07
0.000800193
-0.00102053
0.000958689
-0.0021816
0.00110431
-0.00347705
0.00124004
-0.00488386
0.0013549
-0.00634625
0.00141313
-0.00781163
0.00141987
-0.00926782
0.00141418
-0.0106918
0.0013853
-0.0120885
0.00136133
-0.0134984
0.00137798
-0.0149076
0.00138026
-0.0162971
0.00136383
-0.017633
0.00131335
-0.0188356
0.00118303
-0.0198928
0.00104095
-0.0207907
0.000884923
-0.0215213
0.000721059
-0.0220672
0.000539627
-0.0224334
0.000361845
-0.0227082
0.000273648
-0.0228274
0.000120453
-0.0228048
-1.86782e-05
-0.0225857
-0.000212218
-0.0221731
-0.000402881
-0.0215792
-0.000581667
-0.0208406
-0.000723589
-0.0199842
-0.000838524
-0.0190428
-0.000920874
-0.0180699
-0.000949717
-0.0170942
-0.000949908
-0.0161171
-0.000948626
-0.0151549
-0.000931222
-0.0142268
-0.000894554
-0.0133508
-0.000840313
-0.0125379
-0.00077532
-0.0118191
-0.000679676
-0.0112424
-0.000535067
-0.0108604
-0.000338265
-0.0105944
-0.000221043
-0.010298
-0.000250323
-0.0100227
-0.000227697
-0.0099196
-5.24328e-05
-0.00992824
5.74084e-05
-0.0100644
0.000190323
-0.0102948
0.000284814
-0.0105716
0.000332135
-0.0108649
0.000349378
-0.0111474
0.000339516
-0.0113917
0.000302252
-0.011574
0.000241164
-0.0116686
0.0001542
-0.0116862
7.81662e-05
-0.0115829
-4.27946e-05
-0.0112889
-0.00023388
-0.01088
-0.000348987
-0.0101908
-0.000630607
-0.00930917
-0.000823106
-0.00822694
-0.00102411
-0.00695931
-0.00121011
-0.00562053
-0.00128318
-0.00432762
-0.00123871
-0.00308386
-0.0011922
-0.00186358
-0.00116831
-0.000701785
-0.00111361
0.000345269
-0.00100227
0.0012434
-0.000856332
0.00205069
-0.000768109
0.0028571
-0.000770151
0.00370901
-0.000819285
0.00453593
-0.000798174
0.00534646
-0.000785483
0.00615159
-0.000783793
0.00693827
-0.000769451
0.00768702
-0.000735903
0.00840175
-0.000705763
0.0091101
-0.000703404
0.00980537
-0.000694123
0.0104469
-0.000647041
0.0110192
-0.000582113
0.0115436
-0.000538424
0.012045
-0.000519162
0.0125365
-0.000513422
0.0130256
-0.000515229
0.0135145
-0.00051932
0.0140015
-0.000521739
0.0144816
-0.000519233
0.0149402
-0.000502415
0.0153514
-0.000459847
0.0156735
-0.000375781
0.0158892
-0.000274035
0.0160229
-0.000196225
0.0161338
-0.00017733
0.0162999
-0.000235818
0.0165673
-0.000341947
0.0168591
-0.000371419
0.0170562
-0.000279784
0.017124
-0.000153463
0.0171223
-8.70775e-05
0.0171179
-8.71191e-05
0.0171768
-0.000154557
0.0172649
-0.000186753
0.0172013
-3.86024e-05
0.0170056
0.000103313
0.0165908
0.00030896
0.0160597
0.000424178
0.0154793
0.00047248
0.0149025
0.000469427
0.0143363
0.000457278
0.0137284
0.000497545
0.0130843
0.000532542
0.0124404
0.000530036
0.0118513
0.000473549
0.0113745
0.000359559
0.0110932
0.000164015
0.0109669
1.06903e-05
0.0109524
-0.000103886
0.010827
1.16177e-05
0.0105216
0.000195997
0.0100715
0.00033593
0.00966871
0.000289775
0.00926939
0.000288808
0.00904182
0.00012528
0.00901592
-7.65108e-05
0.00900817
-8.90032e-05
0.00906703
-0.000152442
0.00901346
-3.67011e-05
0.0088105
0.000118006
0.00858409
0.000143923
0.00841603
9.1952e-05
0.00832511
3.51256e-05
0.0080693
0.000165911
0.00704645
0.000958697
0.00564492
0.00134171
0.00432929
0.00126179
0.0030934
0.00118729
0.00174851
0.00130299
0.000278242
0.0014357
-0.00115448
0.00140221
-0.00244186
0.00126189
-0.00366892
0.00120484
-0.00483873
0.00115263
-0.00600163
0.00115259
-0.00690119
0.000896996
-0.00755389
0.000657283
-0.00805731
0.000514165
-0.00838319
0.000343333
-0.00856365
0.00020192
-0.00852703
-4.39063e-06
-0.00808726
-0.000404643
-0.00740456
-0.000640426
-0.00661743
-0.000738842
-0.00573939
-0.000823131
-0.00467655
-0.00100172
-0.00343436
-0.00117618
-0.0021262
-0.00123761
-0.000817287
-0.00123408
0.000450078
-0.00118913
0.00166487
-0.00113371
0.0028447
-0.00109639
0.00396677
-0.0010371
0.00495713
-0.000902956
0.0058215
-0.000773943
0.00658318
-0.000667543
0.00730992
-0.000628695
0.00804465
-0.000634259
0.0087655
-0.000619404
0.00949091
-0.000621729
0.0102269
-0.000634387
0.0107368
-0.000408041
0.0112865
-0.000439066
0.0118517
-0.00046048
0.012421
-0.000454998
0.0127864
-0.000250842
0.0129551
-5.21534e-05
0.013014
5.92207e-05
0.0129506
0.00018204
0.0127375
0.000333347
0.0125417
0.000318675
0.0124986
0.000168772
0.0125157
0.000111039
0.0125212
0.000120895
0.0123251
0.000321567
0.0118577
0.000592003
0.0112422
0.000739426
0.010615
0.000748057
0.0100266
0.000707928
0.00949326
0.000650732
0.00898176
0.000627233
0.00850232
0.000592663
0.00806987
0.000542979
0.00765736
0.000522616
0.00724591
0.00052142
0.00684708
0.000507697
0.00646706
0.000489209
0.00620316
0.000369184
0.0060533
0.000252321
0.00597938
0.000173889
0.00596435
0.000114685
0.00600684
5.49351e-05
0.00612023
-1.72807e-05
0.00625792
-4.51767e-05
0.00637389
-2.66261e-05
0.0064318
3.01049e-05
0.00643437
8.23807e-05
0.00641992
9.62006e-05
0.00637513
0.000123434
0.00630985
0.000140952
0.00622772
0.00015533
0.00612101
0.000177186
0.00599627
0.000193188
0.00583199
0.00023138
0.00562051
0.000275919
0.00538489
0.000295487
0.00513874
0.000306162
0.00489739
0.000307365
0.00464786
0.000282029
0.0043924
0.000310939
0.00427714
0.000177598
0.0041264
0.000208654
0.00394791
0.00023645
0.00376736
0.000235122
0.00360696
0.000213135
0.00349696
0.000161249
0.00346655
7.69128e-05
0.00348669
2.43399e-05
0.0035985
-6.56371e-05
0.00374562
-9.18778e-05
0.00392615
-0.000132879
0.00414643
-0.000172228
0.00439212
-0.000197292
0.0046435
-0.000201997
0.00486625
-0.000173522
0.00507116
-0.000155933
0.00534015
-0.00022019
0.00574677
-0.000357588
0.006292
-0.000495602
0.00690346
-0.000560888
0.00736385
-0.000408272
0.00742779
-9.35061e-06
0.00765824
-0.000172663
0.00802702
-0.000309373
0.00847449
-0.000384582
0.00903105
-0.000491041
0.00964076
-0.000541607
0.0103089
-0.000597076
0.010908
-0.000528792
0.0115456
-0.000562645
0.0122904
-0.000661561
0.0132564
-0.000886391
0.0137062
-0.000367439
0.0142709
-0.000482277
0.0147199
-0.000361624
0.0149352
-0.000125212
0.0151297
-0.000106037
0.0155859
-0.000357343
0.0160196
-0.000332533
0.0162075
-8.2257e-05
0.01675
-0.000434248
0.0169724
-0.000111262
0.0170669
2.02757e-05
0.0172638
-7.81537e-05
0.0176242
-0.000239884
0.0180437
-0.000294751
0.0182855
-0.000113392
0.0185577
-0.000141213
0.0188179
-0.000129564
0.0189297
2.3874e-05
0.0191894
-0.000123006
0.0193628
-3.41241e-05
0.0194366
6.56502e-05
0.0195286
4.87592e-05
0.0196083
6.21962e-05
0.0196288
0.00012232
0.0195908
0.000181515
0.0195053
0.000229782
0.0193447
0.00030462
0.0191239
0.000365428
0.0188465
0.000421974
0.0184918
0.000499428
0.0180733
0.000564141
0.0176098
0.000609681
0.0171423
0.00061428
0.0167197
0.000568934
0.016392
0.000474887
0.0162252
0.000313165
0.0161556
0.000213687
0.0161115
0.000186124
0.0159874
0.000264896
0.0158091
0.000330838
0.0153728
0.000577553
0.0151264
0.000388239
0.0145461
0.000723643
0.0141857
0.000500122
0.0139431
0.00038272
0.013785
0.000297769
0.0137562
0.000169417
0.0138858
1.04404e-05
0.0143292
-0.000304611
0.0148838
-0.000419906
0.015295
-0.000280852
0.0153723
5.97569e-05
0.0155442
-3.95758e-05
0.0158885
-0.0002141
0.0162634
-0.000245574
0.016366
2.56336e-05
0.0167844
-0.000293373
0.0170362
-0.000130542
0.017936
-0.000780964
0.0184258
-0.00037346
0.018381
0.000157587
0.018437
5.66231e-05
0.0186218
-7.49365e-05
0.0188765
-0.000146638
0.0191977
-0.000214967
0.0196809
-0.000377536
0.0202765
-0.000492552
0.0208544
-0.000472831
0.0213131
-0.000353296
0.0217842
-0.000373775
0.0222324
-0.000350428
0.0227981
-0.000470989
0.0235694
-0.000677735
0.0242287
-0.000571323
0.0244836
-0.000162196
0.0245677
-3.93143e-06
0.0240999
0.000553008
0.0238345
0.000349007
0.0238464
7.61341e-05
0.0238726
5.54264e-05
0.0239341
1.80096e-05
0.0239265
8.57496e-05
0.0238598
0.000147323
0.0239674
-2.72229e-05
0.0240738
-3.06343e-05
0.0241368
1.01747e-05
0.0241567
5.13042e-05
0.0241117
0.000116422
0.0240425
0.000137484
0.023908
0.000203085
0.0236343
0.000340032
0.023319
0.000381651
0.0230548
0.000330951
0.0228818
0.00023969
0.0228097
0.000138812
0.0227564
0.000119087
0.022604
0.000215495
0.0223675
0.000297718
0.0221088
0.000317491
0.0218102
0.000357806
0.0214355
0.000433017
0.0210037
0.000486211
0.0205651
0.000490302
0.0201177
0.000496413
0.019671
0.000493683
0.0192638
0.000452376
0.0189666
0.000340961
0.0187784
0.00023062
0.0185821
0.000239734
0.0184627
0.000160557
0.0181559
0.000345035
0.01796
0.000230788
0.0179143
7.96127e-05
0.0179244
1.98895e-05
0.0179571
-6.44339e-06
0.0180699
-8.97228e-05
0.0180755
1.56131e-05
0.0176499
0.0004411
0.0172719
0.000391608
0.0170419
0.000241684
0.0169595
9.1092e-05
0.0169549
9.92259e-06
0.0169724
-1.47006e-05
0.0170263
-5.44126e-05
0.0171075
-8.54214e-05
0.0172005
-0.000101249
0.0173017
-0.00011355
0.0174053
-0.000120024
0.0175096
-0.000124477
0.0176068
-0.000120969
0.0177118
-0.000131821
0.0178165
-0.000134185
0.0179234
-0.000139665
0.0180833
-0.000195168
0.018405
-0.000361071
0.0186045
-0.000241403
0.0189534
-0.00039829
0.0191475
-0.000247759
0.0192449
-0.000155614
0.0192727
-8.72041e-05
0.0192978
-8.66205e-05
0.0193234
-8.92716e-05
0.0193518
-9.39378e-05
0.0193839
-9.95544e-05
0.019408
-9.39109e-05
0.0194269
-9.12043e-05
0.0194301
-7.86389e-05
0.0193902
-3.75878e-05
0.0193173
-6.52985e-06
0.0193413
-0.000105222
0.0194752
-0.000217028
0.019655
-0.000264865
0.0197253
-0.000157554
0.0197566
-0.000118558
0.0195936
7.24012e-05
0.0194732
2.69306e-05
0.0192859
9.45566e-05
0.01922
-2.73628e-05
0.0192923
-0.000166333
0.0193025
-0.000107521
0.0192169
-1.15342e-05
0.019177
-5.74254e-05
0.0190008
8.15949e-05
0.0187162
0.000193585
0.0185951
2.93884e-05
0.0186276
-0.000121604
0.0186643
-0.000126232
0.0186143
-3.93477e-05
0.0184642
6.16261e-05
0.0184307
-5.33891e-05
0.0184306
-8.47508e-05
0.0184012
-5.51588e-05
0.0183254
-3.15727e-06
0.0180877
0.000162034
0.0180138
-1.95723e-06
0.0178562
8.70556e-05
0.017645
0.000145029
0.0173379
0.000244546
0.0171666
0.000111878
0.0172265
-0.000116556
0.0174531
-0.000280527
0.0175991
-0.000196023
0.0176061
-5.59375e-05
0.0175318
3.11624e-05
0.0174914
-9.66447e-06
0.0174242
4.21844e-05
0.0172371
0.000157469
0.017102
0.000109809
0.0171216
-4.07292e-05
0.0172326
-0.000124549
0.0173204
-9.99558e-05
0.0173817
-6.58388e-05
-1.83577e-05
0.000117814
-0.000244732
0.000172635
-0.000165761
0.000259564
-0.000196684
0.000333481
-0.000175792
0.000414507
-0.000198389
0.000493761
-0.000200449
0.000571783
-0.000183452
0.000651627
-0.000174342
0.0007349
-0.000180202
0.00081972
-0.000182507
0.000904664
-0.000178509
0.000992743
-0.000182708
0.00108503
-0.000193746
0.0011795
-0.000199017
0.00127878
-0.000206282
0.00138212
-0.000205432
0.00149128
-0.000208247
0.00160567
-0.000217696
0.00173335
-0.000254847
0.00187015
-0.000286643
0.00201543
-0.000316539
0.0021689
-0.000355478
0.00232902
-0.000402471
0.00249687
-0.000453813
0.0027109
-0.000537267
0.00299902
-0.000630954
0.00331132
-0.000674139
0.00362987
-0.000693604
0.00395845
-0.000714299
0.00429253
-0.000721947
0.00462874
-0.000731204
0.00495059
-0.00072414
0.0052517
-0.00071233
0.00553334
-0.000698614
0.00578609
-0.000668423
0.005998
-0.000614597
0.0061914
-0.000593227
0.00630964
-0.000465246
0.00638786
-0.000299982
0.0064282
-0.000262486
0.00645022
-0.000285249
0.00645615
-0.000335066
0.00643646
-0.000292115
0.0063657
-0.000133318
0.00623743
-4.98937e-06
0.00605945
6.48061e-05
0.0058419
0.000210658
0.00556987
0.000303142
0.00524519
0.000275208
0.00464892
0.000742717
0.00360452
0.00125457
0.00220114
0.00169818
0.00056751
0.00203982
-0.00117113
0.0021937
-0.00290472
0.00219936
-0.00456867
0.00217333
-0.00615248
0.00218933
-0.00768094
0.00226758
-0.00926978
0.00248961
-0.0111216
0.00290169
-0.0134058
0.00347256
-0.0160625
0.00396176
-0.0189264
0.00422986
-0.0218554
0.00430464
-0.0247517
0.00426918
-0.0275192
0.0041142
-0.0301091
0.00391529
-0.0325144
0.00375034
-0.0346605
0.00349615
-0.0365003
0.00317665
-0.0380288
0.00281777
-0.0392394
0.00237275
-0.0402107
0.00199419
-0.0409497
0.00160876
-0.0414299
0.00118902
-0.0416156
0.000715796
-0.0415599
0.0002989
-0.0414936
0.000202398
-0.0413294
-4.64982e-05
-0.0409242
-0.00042409
-0.0403536
-0.000780167
-0.0396169
-0.00113395
-0.0387288
-0.00146152
-0.0377175
-0.00172385
-0.0365967
-0.00194525
-0.0353849
-0.00211574
-0.0341382
-0.00217693
-0.0329121
-0.00215362
-0.0317301
-0.00210564
-0.0306095
-0.00202446
-0.0295274
-0.00194736
-0.0284472
-0.00188924
-0.0273235
-0.00186559
-0.0261614
-0.00180566
-0.0250024
-0.00165529
-0.0239106
-0.00138903
-0.0229453
-0.00114352
-0.0221573
-0.000993087
-0.0216062
-0.000731511
-0.0211913
-0.000418254
-0.0208513
-0.000232946
-0.0205342
-7.41499e-05
-0.020212
1.59737e-05
-0.0198731
4.77421e-05
-0.0195016
3.33758e-05
-0.0190855
-2.01234e-05
-0.01862
-0.000106155
-0.0181041
-0.000217091
-0.0175391
-0.000352815
-0.0169133
-0.000489363
-0.0162143
-0.00068451
-0.015373
-0.00101742
-0.0141937
-0.0014701
-0.012611
-0.00215695
-0.0108325
-0.00254717
-0.00910171
-0.00270009
-0.00749886
-0.00276043
-0.00599652
-0.00273434
-0.00459337
-0.00259317
-0.00326503
-0.00247349
-0.00199488
-0.00239472
-0.00082193
-0.00224427
0.000440314
-0.00222449
0.00212879
-0.00250813
0.00427498
-0.00288199
0.00669491
-0.00316129
0.00917917
-0.00327837
0.0115349
-0.00313387
0.0136554
-0.00288984
0.0155168
-0.00263248
0.0171437
-0.00238693
0.0185826
-0.00216827
0.0199008
-0.00202031
0.0211773
-0.0019789
0.0224347
-0.0019547
0.0236478
-0.00186915
0.024784
-0.00173155
0.0258603
-0.00163227
0.026903
-0.00158298
0.0279284
-0.00156414
0.0289385
-0.00155474
0.0299361
-0.0015502
0.0309335
-0.0015562
0.0319532
-0.00157993
0.0330205
-0.00161475
0.0341531
-0.00164194
0.0353447
-0.00162152
0.0365861
-0.00157335
0.0378339
-0.00150633
0.0389691
-0.00137919
0.0397979
-0.00113778
0.0402272
-0.000850355
0.0403757
-0.000601812
0.0404565
-0.000444218
0.0405818
-0.000365373
0.040775
-0.000370738
0.0410237
-0.000430474
0.0412361
-0.000466016
0.0413763
-0.000428327
0.0413902
-0.000156673
0.0412922
9.97235e-05
0.0410885
0.00040529
0.0407406
0.000662934
0.0401818
0.000920711
0.0393218
0.00121948
0.0382638
0.00140526
0.0370907
0.00155986
0.0358671
0.0016441
0.0345966
0.00168555
0.0332274
0.00172558
0.0317875
0.00168143
0.0304594
0.00137422
0.0294816
0.000872302
0.0286794
0.000584537
0.0277415
0.000832443
0.026582
0.00124041
0.0256993
0.00111071
0.0250912
0.000786383
0.0245679
0.000699424
0.0241311
0.000455995
0.0237776
0.000172867
0.0232087
0.000366973
0.0219347
0.00102164
0.020316
0.00148678
0.0186798
0.00166488
0.0171011
0.00164209
0.0155564
0.00155794
0.0133787
0.00213524
0.0109891
0.00248561
0.00901126
0.00286937
0.00725864
0.00303015
0.0056365
0.00282783
0.0041274
0.00264664
0.00262085
0.00276516
0.00108645
0.0029309
-0.000369119
0.00282221
-0.00163736
0.00249815
-0.00284977
0.00238923
-0.0040155
0.00229699
-0.00513673
0.00225564
-0.00599897
0.00174891
-0.00651583
0.00117053
-0.00664004
0.000643118
-0.00652875
0.000241646
-0.00619904
-0.000113202
-0.00571909
-0.00046161
-0.00499227
-0.00110388
-0.00401434
-0.00158201
-0.00286084
-0.00184855
-0.00158264
-0.0020502
-0.000129324
-0.00239616
0.00152501
-0.00276465
0.00332356
-0.00296396
0.00521714
-0.00304963
0.00720317
-0.00309161
0.00935678
-0.00319925
0.0115833
-0.00323141
0.0137641
-0.00312299
0.0157971
-0.00283769
0.017637
-0.0025141
0.0191768
-0.00210574
0.0202984
-0.00164887
0.0210337
-0.00126643
0.0216243
-0.00110433
0.0222332
-0.00112477
0.0227928
-0.00109242
0.0232137
-0.000723589
0.0234213
-0.000534658
0.0239239
-0.000860911
0.0245114
-0.000930596
0.0249078
-0.000536057
0.0250889
-0.000120949
0.0251375
0.000125744
0.0250604
0.00037456
0.0246881
0.000823884
0.0239113
0.00121557
0.0227897
0.00141419
0.0215426
0.00148475
0.0202669
0.00152312
0.0189413
0.00177416
0.0175828
0.00207583
0.0162201
0.00222708
0.0149412
0.00214924
0.0137875
0.0019827
0.0127729
0.00178464
0.0118552
0.00166263
0.0110181
0.00154457
0.0102459
0.00142728
0.00958109
0.0012984
0.00912339
0.00108812
0.00887438
0.000868822
0.00877516
0.00069688
0.00864482
0.000605973
0.00848987
0.000512181
0.00832913
0.000437351
0.00817293
0.00037164
0.0080382
0.000287537
0.00791791
0.000197105
0.00780508
0.000158419
0.00769816
0.000170137
0.00758557
0.000230466
0.00746149
0.000288451
0.00732345
0.000316616
0.007174
0.000351158
0.00701208
0.000378892
0.00683291
0.000408177
0.00663187
0.000449412
0.00641346
0.000481123
0.0061751
0.000538324
0.00591798
0.000599503
0.00564608
0.000630294
0.00536355
0.000651116
0.00507717
0.000654717
0.00477934
0.000649623
0.00449128
0.000655688
0.00411472
0.000606106
0.00379953
0.000575313
0.00357427
0.000512445
0.00341467
0.000446702
0.00332582
0.000353671
0.00331332
0.00022444
0.00337544
6.48085e-05
0.00348473
-3.96006e-05
0.00362245
-0.000163268
0.00379985
-0.000231163
0.0040898
-0.000374067
0.00438535
-0.000420684
0.00468237
-0.000446792
0.00500576
-0.000479346
0.00538209
-0.000504545
0.00582522
-0.000553604
0.00634626
-0.00069501
0.00696148
-0.000925644
0.00764017
-0.00112597
0.00836984
-0.00124073
0.00931214
-0.00129832
0.0109528
-0.00159751
0.0126274
-0.00178802
0.0135924
-0.00121586
0.0144633
-0.0011945
0.0154965
-0.00146025
0.0167395
-0.00171877
0.0180397
-0.00182857
0.0191363
-0.0015584
0.0199864
-0.00133694
0.0209051
-0.00150014
0.0218568
-0.00176104
0.022989
-0.00141739
0.0242114
-0.00162436
0.0254673
-0.00153741
0.026634
-0.00120189
0.0273732
-0.000758148
0.0273794
-0.000268625
0.0273742
-0.000226967
0.0276244
-0.00023045
0.0278177
-0.000520949
0.0279569
-0.000139484
0.0280694
2.29049e-05
0.0284341
-0.000323148
0.0291791
-0.000864593
0.0301751
-0.00116565
0.031105
-0.000911534
0.0314155
-0.000328702
0.0313863
3.00881e-05
0.0313839
0.000157782
0.0313939
6.71356e-06
0.0316201
-0.000121852
0.0318521
-2.85214e-05
0.031984
5.73112e-05
0.0320269
0.000161846
0.0320315
0.000258488
0.0318059
0.000549488
0.031241
0.000938037
0.0304353
0.00125365
0.0295624
0.0013825
0.0287198
0.00140879
0.0279278
0.00143533
0.0272192
0.00141744
0.0266116
0.00136213
0.0261109
0.00126027
0.025671
0.00115342
0.0252293
0.00106039
0.0247133
0.000972637
0.0241272
0.000942575
0.0235245
0.000931453
0.0228703
0.00106129
0.0221989
0.00115082
0.0214209
0.00149968
0.0208878
0.00106244
0.020786
0.000967801
0.0208683
0.000558684
0.0210273
0.000365325
0.0212396
0.000225814
0.0215201
2.93787e-05
0.0218469
-0.0001766
0.0221356
-0.000456545
0.0223784
-0.000531481
0.0226686
-0.000435814
0.023039
-0.000173786
0.0239178
-0.000789572
0.0250308
-0.00119923
0.026366
-0.00145329
0.0278053
-0.00128708
0.0290012
-0.00136405
0.0293866
-0.000394031
0.0297734
-0.00104869
0.0302278
-0.000714036
0.0307752
-0.000276036
0.0315773
-0.000634076
0.032524
-0.000912604
0.0335725
-0.00108858
0.0347796
-0.00131643
0.036253
-0.00174537
0.037914
-0.00205109
0.0395164
-0.0019678
0.0403121
-0.00106467
0.0402535
-0.000222906
0.0401692
-0.000168724
0.0403199
-0.000525764
0.0405379
-0.000799431
0.0408567
-0.000799017
0.041144
-0.000359062
0.041301
-6.42879e-05
0.0414827
0.000462535
0.041528
0.000391399
0.0415243
0.000163242
0.0415905
7.02931e-05
0.0417336
-4.2615e-05
0.0421801
-0.000281309
0.0427143
-0.000306256
0.0427277
2.2394e-05
0.042054
0.00072306
0.0416259
0.000506378
0.0412867
0.000465572
0.041256
0.000225864
0.0414309
3.05044e-05
0.0415328
0.00017207
0.0414996
0.00043546
0.0412762
0.0006704
0.040857
0.000815232
0.0402215
0.000939218
0.0393664
0.00105741
0.0383843
0.00116596
0.0374051
0.00125771
0.0366056
0.0011597
0.0358853
0.00109611
0.035251
0.00105052
0.0347718
0.000970081
0.0343674
0.000944034
0.0339384
0.000969375
0.0334654
0.0010171
0.0329827
0.00102224
0.0325139
0.000965694
0.0319715
0.000926398
0.0312559
0.000989737
0.0304593
0.00107948
0.0301325
0.000523247
0.0301994
0.000319296
0.0303111
0.000156811
0.0300982
0.00032409
0.0294265
0.000721703
0.0286578
0.000788917
0.0280593
0.000533025
0.0278352
0.000260122
0.0278587
0.000436909
0.0278493
0.000417191
0.0278506
0.000252183
0.0279064
4.45766e-05
0.0280261
-0.000104011
0.02821
-0.000195432
0.0284413
-0.000286047
0.0287088
-0.000356824
0.0290098
-0.000409988
0.0293506
-0.000465898
0.029736
-0.000520935
0.0301811
-0.0005892
0.0306826
-0.000646228
0.0312465
-0.000722901
0.0319215
-0.0008393
0.0327101
-0.00096092
0.0333221
-0.000843617
0.0333265
-0.000397645
0.0331644
-0.000118629
0.0329802
-0.000258575
0.0330547
-0.000368141
0.0334167
-0.000571264
0.0337437
-0.000472644
0.0340201
-0.000423434
0.0342874
-0.000419425
0.0345934
-0.000465065
0.0349427
-0.000516207
0.0353055
-0.00052656
0.0356596
-0.000517068
0.036047
-0.000541146
0.0365428
-0.000612638
0.0370244
-0.000571837
0.0371796
-0.000350371
0.0368957
-1.81717e-05
0.0363028
0.000240934
0.0357546
0.000300421
0.0354582
8.86156e-05
0.0356098
-0.000169359
0.0361427
-0.000598315
0.0366233
-0.000477961
0.0365996
-0.000104559
0.0359822
0.000359539
0.0354904
0.000285645
0.0353402
4.57232e-05
0.0355104
-0.000321114
0.0361528
-0.000649872
0.036905
-0.000653204
0.0371343
-0.000302529
0.0366424
0.000278518
0.0356877
0.000739623
0.0351388
0.000420583
0.0350978
1.75333e-05
0.0348149
0.000141362
0.0341543
0.000491207
0.0337108
0.000300644
0.033319
0.000309817
0.0332556
0.00015143
0.0332405
-5.84004e-05
0.0334434
-0.000183973
0.033972
-0.000449674
0.0347844
-0.000630269
0.0353949
-0.000557493
0.0353714
-0.000158076
0.0346509
0.000388589
0.0337883
0.000618116
0.0331376
0.000551985
0.0327938
0.000336033
0.0328372
-9.03065e-05
0.0332508
-0.000404346
0.0340034
-0.000623284
0.0347405
-0.000648842
0.0348966
-0.000221762
0.0344747
0.000280297
0.0340007
0.000364963
0.0339429
-8.20167e-06
-7.11846e-05
9.09687e-05
-0.000359251
0.000105479
-0.000205191
0.000138054
-0.000252347
0.000182993
-0.000244121
0.000240838
-0.000281364
0.000290128
-0.00027596
0.000333036
-0.000253649
0.000372619
-0.000242275
0.000414263
-0.000251193
0.000449228
-0.000248143
0.000469403
-0.000230605
0.000479507
-0.000225879
0.0004845
-0.000233462
0.000491347
-0.000242294
0.000525886
-0.000279497
0.000609225
-0.00032987
0.00072966
-0.000372084
0.000865818
-0.000399318
0.00103334
-0.00046982
0.00123558
-0.000538183
0.00147152
-0.000603505
0.00174424
-0.000680808
0.00204861
-0.000761169
0.00235421
-0.000815782
0.00262716
-0.000869531
0.00289945
-0.000963814
0.00319328
-0.00102744
0.00350344
-0.00106285
0.00382461
-0.00109705
0.00414747
-0.00110982
0.00447284
-0.00112243
0.00479354
-0.00110861
0.00509805
-0.00108002
0.0053768
-0.00104457
0.00562553
-0.000988888
0.00584604
-0.00090829
0.00602857
-0.00084859
0.00615563
-0.000666143
0.00620021
-0.000419493
0.00616913
-0.000307391
0.00604932
-0.000241928
0.00588173
-0.000244049
0.00565508
-0.000142163
0.00531962
0.000125847
0.00484989
0.000388765
0.00429275
0.000545938
0.00367996
0.000747887
0.00296997
0.000938008
0.00211812
0.00105463
0.00123107
0.00155777
3.67993e-05
0.00237805
-0.001734
0.00339713
-0.00408055
0.00431545
-0.00688321
0.0049264
-0.00991575
0.00516276
-0.013005
0.00519496
-0.0160926
0.00521069
-0.0191735
0.00528439
-0.0222396
0.00549373
-0.0251999
0.00580153
-0.0279912
0.00620569
-0.0305927
0.00650814
-0.0330086
0.00659357
-0.0352937
0.00654038
-0.0375348
0.00646405
-0.0397374
0.00627337
-0.0418749
0.0060128
-0.0439152
0.00575428
-0.0457915
0.00533856
-0.0474727
0.00482714
-0.0489208
0.00423822
-0.0500929
0.00352021
-0.0509633
0.00284279
-0.0514778
0.00210399
-0.051592
0.00128649
-0.0513764
0.000487229
-0.0507074
-0.000381077
-0.0497194
-0.000794188
-0.0486162
-0.001156
-0.0474359
-0.0016081
-0.0462523
-0.00196485
-0.0450713
-0.00231303
-0.0438776
-0.0026504
-0.0426612
-0.00293255
-0.0413976
-0.00319774
-0.0400567
-0.00344242
-0.0386525
-0.00356399
-0.0372355
-0.0035503
-0.035832
-0.00348618
-0.0344646
-0.0033665
-0.033121
-0.00326369
-0.031785
-0.00319599
-0.0304217
-0.00319734
-0.0290263
-0.00316673
-0.0276145
-0.00302945
-0.026219
-0.0027445
-0.0249121
-0.00240903
-0.0239737
-0.00188481
-0.0234321
-0.00122478
-0.0229308
-0.000869169
-0.0224233
-0.00068921
-0.0219136
-0.000530451
-0.0214003
-0.000442603
-0.0208798
-0.000416412
-0.0203459
-0.000442721
-0.0197925
-0.000514797
-0.0192114
-0.000627313
-0.0185958
-0.00077189
-0.017941
-0.000946021
-0.0172287
-0.00113938
-0.0164293
-0.00142065
-0.0151931
-0.00218788
-0.0131712
-0.00342802
-0.0106141
-0.00464989
-0.00783223
-0.00526617
-0.00508684
-0.00538246
-0.00247597
-0.00530966
-1.84067e-06
-0.00514811
0.00233866
-0.00487577
0.00458997
-0.00466885
0.00685843
-0.00460991
0.00921417
-0.00455149
0.01162
-0.00458557
0.013992
-0.00484039
0.0162839
-0.00513915
0.0184659
-0.00531295
0.0205538
-0.0053407
0.0225655
-0.00512696
0.024512
-0.0048241
0.0263932
-0.0045063
0.0281709
-0.00416135
0.0298076
-0.00380397
0.0312875
-0.00350108
0.0326355
-0.00333047
0.0338935
-0.00321931
0.0351191
-0.00310462
0.0363623
-0.00298862
0.0376078
-0.00289621
0.0388341
-0.00283181
0.0400371
-0.00279398
0.0412179
-0.00276705
0.0423758
-0.00274412
0.0435105
-0.00273126
0.0446258
-0.00273984
0.0457291
-0.00276739
0.0468242
-0.00279149
0.0478908
-0.00274801
0.0489051
-0.00265185
0.0498744
-0.0025429
0.0507965
-0.0023708
0.0516944
-0.00210757
0.0525923
-0.00182358
0.0535368
-0.0016228
0.0545949
-0.00158248
0.0558186
-0.00167277
0.0572192
-0.00185892
0.0586979
-0.00200362
0.0599237
-0.00178978
0.0604566
-0.00106803
0.0604527
-0.000273667
0.0599739
0.000468671
0.0592151
0.0010509
0.058437
0.0013252
0.0577058
0.00153523
0.0569629
0.00184681
0.0561024
0.0021501
0.055023
0.00252329
0.0536278
0.00292279
0.0519069
0.00328945
0.0499618
0.00355297
0.0479612
0.00356337
0.0461972
0.00301873
0.0449888
0.00196736
0.0443367
0.00112489
0.0438916
0.00116552
0.043107
0.00190653
0.0412548
0.00284283
0.0384922
0.00343502
0.0355066
0.00356987
0.0328074
0.00304519
0.030589
0.00228314
0.028691
0.00215468
0.0267134
0.00289552
0.0247883
0.00331184
0.0228361
0.00352029
0.0207884
0.00360198
0.0187961
0.00347119
0.0171405
0.00372245
0.015818
0.00373815
0.0146935
0.00392375
0.0134563
0.00419971
0.0118608
0.00436128
0.00995683
0.0044963
0.00790436
0.00476869
0.00583088
0.0049593
0.00379774
0.00481368
0.00176693
0.00449236
-7.4034e-05
0.00419791
-0.00165025
0.00384905
-0.00293284
0.00351491
-0.00387519
0.00267501
-0.00442771
0.00171699
-0.00438092
0.000598054
-0.0037232
-0.000410088
-0.00256287
-0.00126372
-0.0011055
-0.00189898
0.000731055
-0.00291559
0.00291085
-0.00373128
0.00527122
-0.00417267
0.00756376
-0.00430132
0.00961674
-0.0044031
0.011463
-0.00455848
0.0132508
-0.00469205
0.0150782
-0.00480982
0.0169652
-0.0049044
0.0188451
-0.00499763
0.0206914
-0.00498914
0.0224733
-0.00480912
0.0241482
-0.00440994
0.0256465
-0.0039032
0.0269286
-0.00327446
0.0280399
-0.00264409
0.0289962
-0.00210557
0.0298298
-0.00182158
0.0306032
-0.00178154
0.0312711
-0.00164706
0.0319115
-0.00125233
0.032156
-0.000672729
0.0320185
-0.000630851
0.0314582
-0.000251449
0.0307334
0.000297122
0.0300074
0.000713402
0.0293709
0.000873145
0.0288397
0.00102061
0.0282777
0.00150513
0.0273731
0.00223935
0.0259734
0.00293666
0.0242428
0.00334125
0.0223525
0.00353964
0.0204605
0.00379434
0.0186853
0.00397779
0.017028
0.00400995
0.015538
0.00376218
0.0142113
0.00343105
0.0130456
0.00307006
0.0120072
0.00281952
0.011121
0.00254715
0.0103669
0.00229584
0.00972047
0.00205801
0.00917485
0.00174468
0.00873012
0.00142581
0.00832652
0.00120946
0.0079266
0.00111342
0.00755376
0.000990805
0.00721551
0.000879115
0.00691616
0.000772465
0.00665765
0.000644377
0.00641875
0.000530011
0.00619176
0.000475769
0.00601134
0.000443668
0.00589295
0.000442971
0.00580475
0.000453304
0.00571986
0.000478661
0.00559163
0.000560895
0.00542139
0.000624263
0.0052125
0.000693069
0.00498124
0.000752725
0.00476243
0.00076949
0.00457637
0.000792842
0.00442033
0.000823058
0.00427039
0.000845021
0.00412337
0.00086051
0.00398225
0.000854944
0.00385249
0.000838705
0.00374063
0.000829881
0.00360788
0.000799923
0.00346176
0.000775783
0.00335707
0.000671698
0.00329802
0.00055923
0.00328639
0.000418174
0.00329925
0.000262979
0.00335035
6.42922e-05
0.0035006
-0.000138908
0.00379516
-0.000400026
0.00428539
-0.000668004
0.0049178
-0.000951278
0.00564917
-0.00110012
0.00649624
-0.00124247
0.0074571
-0.00138838