/*--------------------------------*- C++ -*----------------------------------*\
| =========                 |                                                 |
| \\      /  F ield         | OpenFOAM: The Open Source CFD Toolbox           |
|  \\    /   O peration     | Version:  v1812                                 |
|   \\  /    A nd           | Web:      www.OpenFOAM.com                      |
|    \\/     M anipulation  |                                                 |
\*---------------------------------------------------------------------------*/
FoamFile
{
    version     2.0;
    format      ascii;
    class       volScalarField;
    location    "1.3";
    object      rho;
}
// * * * * * * * * * * * * * * * * * * * * * * * * * * * * * * * * * * * * * //

dimensions      [1 -3 0 0 0 0 0];


internalField   nonuniform List<scalar> 
20400
(
1.2475
1.24752
1.24754
1.24756
1.24759
1.2476
1.24759
1.24755
1.24749
1.2474
1.24727
1.2471
1.2469
1.24667
1.24641
1.24612
1.24581
1.24549
1.24517
1.24484
1.24451
1.24418
1.24386
1.24354
1.24323
1.24291
1.2426
1.24229
1.24198
1.24167
1.24135
1.24104
1.24071
1.24039
1.24007
1.23973
1.2394
1.23908
1.23875
1.23842
1.23814
1.23788
1.23763
1.23738
1.23713
1.23687
1.23665
1.23642
1.23617
1.23602
1.23592
1.23583
1.23579
1.23583
1.23592
1.23601
1.2361
1.23616
1.23618
1.23616
1.23609
1.23597
1.23582
1.23565
1.23546
1.2353
1.23516
1.23505
1.23498
1.23496
1.23499
1.23507
1.23518
1.23533
1.2355
1.23571
1.23597
1.23621
1.23652
1.23686
1.23718
1.23753
1.23788
1.23824
1.23859
1.23893
1.23925
1.23955
1.23985
1.24012
1.24037
1.24061
1.24083
1.24102
1.24121
1.24135
1.24146
1.24162
1.24178
1.24188
1.24198
1.24207
1.24216
1.24225
1.24233
1.24242
1.2425
1.24258
1.24267
1.24277
1.2429
1.24301
1.24309
1.24317
1.24323
1.24329
1.24333
1.24335
1.24336
1.24336
1.24337
1.24337
1.24336
1.24335
1.24336
1.24339
1.24343
1.24344
1.24344
1.24346
1.24348
1.2435
1.24352
1.24355
1.24357
1.2436
1.2436
1.24359
1.24359
1.2436
1.24362
1.24363
1.24365
1.24366
1.24368
1.2437
1.24372
1.24375
1.24377
1.24381
1.24387
1.24394
1.244
1.24404
1.24408
1.24411
1.24415
1.24422
1.24428
1.24438
1.24439
1.24448
1.24455
1.24459
1.24462
1.24462
1.24459
1.24452
1.24443
1.24432
1.24418
1.24402
1.24384
1.24358
1.24334
1.24295
1.24268
1.24241
1.24209
1.24181
1.24157
1.24133
1.24111
1.24087
1.24064
1.24045
1.2403
1.24021
1.2399
1.23979
1.23973
1.23968
1.23961
1.23952
1.23945
1.23939
1.23937
1.23938
1.2394
1.23937
1.23944
1.23951
1.23958
1.23969
1.23982
1.24006
1.24036
1.24064
1.24094
1.24122
1.24149
1.24175
1.24196
1.24212
1.24224
1.24231
1.24235
1.24236
1.24232
1.24224
1.2421
1.24195
1.24174
1.24148
1.24117
1.24082
1.24052
1.24
1.23957
1.23909
1.23865
1.23823
1.23793
1.23768
1.23752
1.23742
1.2374
1.23745
1.23751
1.23756
1.23764
1.23771
1.23777
1.23781
1.23784
1.23785
1.23786
1.23788
1.23788
1.23789
1.23791
1.23792
1.23794
1.23796
1.23799
1.23802
1.23807
1.2381
1.23812
1.23815
1.23817
1.23819
1.23821
1.23824
1.23827
1.2383
1.23832
1.23834
1.23836
1.23836
1.23837
1.23836
1.23836
1.23831
1.23826
1.2383
1.23828
1.23825
1.2382
1.23814
1.23807
1.238
1.23793
1.23786
1.23776
1.23764
1.2375
1.23737
1.23722
1.23705
1.23685
1.23666
1.23646
1.23625
1.23602
1.23581
1.23548
1.23518
1.23489
1.23458
1.23431
1.23398
1.23363
1.23328
1.23296
1.23261
1.23224
1.23202
1.23142
1.23105
1.2306
1.23029
1.23
1.22962
1.22939
1.22901
1.22862
1.22833
1.22795
1.22765
1.22731
1.22702
1.22669
1.22637
1.22611
1.22575
1.22539
1.22503
1.22467
1.22432
1.22396
1.22359
1.22322
1.22283
1.22244
1.22205
1.22164
1.22124
1.22084
1.22044
1.22005
1.21966
1.21931
1.21895
1.2186
1.21823
1.21781
1.21746
1.21703
1.21679
1.21649
1.21619
1.21591
1.21563
1.21541
1.21517
1.21491
1.21478
1.21441
1.2142
1.21404
1.21389
1.21373
1.21359
1.21352
1.21336
1.21341
1.21305
1.21286
1.21279
1.21268
1.21259
1.21253
1.21243
1.21238
1.21231
1.21226
1.21216
1.2121
1.21206
1.21201
1.21205
1.21182
1.2117
1.21158
1.21156
1.21153
1.21145
1.2114
1.21133
1.2113
1.21126
1.21127
1.21122
1.21114
1.21113
1.2111
1.21105
1.21103
1.211
1.21099
1.21098
1.21096
1.21094
1.21093
1.21089
1.21087
1.21083
1.21083
1.21081
1.2108
1.21079
1.21078
1.21078
1.21078
1.21075
1.21068
1.21069
1.2106
1.21071
1.21071
1.21068
1.21068
1.21065
1.2106
1.21059
1.21056
1.21055
1.21053
1.21052
1.2105
1.21048
1.21045
1.21043
1.2104
1.21036
1.21033
1.21029
1.21027
1.21022
1.2102
1.21022
1.21023
1.21011
1.21002
1.20994
1.20984
1.20976
1.20968
1.20959
1.20951
1.20942
1.20933
1.20924
1.20915
1.20906
1.20898
1.2089
1.20882
1.20873
1.20854
1.20843
1.20824
1.20816
1.20805
1.20795
1.20783
1.20767
1.20752
1.20737
1.20722
1.20713
1.207
1.20688
1.2067
1.20648
1.20641
1.20627
1.20612
1.20595
1.20576
1.20558
1.20544
1.20529
1.20512
1.20495
1.20486
1.20473
1.20459
1.20441
1.20422
1.20405
1.20388
1.2037
1.20355
1.20345
1.2033
1.20319
1.20296
1.20283
1.24757
1.24759
1.24758
1.24758
1.24759
1.24758
1.24755
1.2475
1.24741
1.2473
1.24714
1.24696
1.24674
1.24649
1.24621
1.24591
1.24559
1.24526
1.24492
1.24458
1.24424
1.2439
1.24357
1.24323
1.24291
1.24258
1.24225
1.24192
1.24159
1.24125
1.24092
1.24059
1.24027
1.23996
1.23965
1.23933
1.23903
1.23872
1.23843
1.23815
1.2379
1.23767
1.23745
1.23726
1.23707
1.23688
1.2367
1.23655
1.23636
1.23624
1.23615
1.2361
1.23609
1.23613
1.23619
1.23625
1.23628
1.23628
1.23621
1.23608
1.23589
1.23569
1.23549
1.2353
1.23514
1.23503
1.23497
1.23495
1.23499
1.23507
1.23519
1.23535
1.23553
1.23574
1.23597
1.23623
1.23655
1.23683
1.23719
1.23756
1.23793
1.23832
1.23871
1.23909
1.23947
1.23984
1.24019
1.24052
1.24084
1.24115
1.24146
1.24176
1.24205
1.2423
1.24252
1.24269
1.24285
1.243
1.24314
1.24326
1.24339
1.24352
1.24364
1.24376
1.24388
1.24399
1.24411
1.24422
1.24434
1.24446
1.24457
1.24466
1.24478
1.24488
1.24488
1.24482
1.24473
1.24465
1.24457
1.24449
1.24444
1.24433
1.24432
1.24445
1.24458
1.24468
1.24474
1.24469
1.24461
1.24454
1.24448
1.24444
1.24443
1.24444
1.24447
1.24449
1.2445
1.24449
1.24449
1.24449
1.24449
1.24449
1.2445
1.24451
1.24452
1.24453
1.24454
1.24456
1.2446
1.24465
1.24469
1.24471
1.24472
1.24474
1.24477
1.2448
1.24481
1.24482
1.24477
1.24475
1.24472
1.24469
1.24467
1.24466
1.24464
1.24465
1.24465
1.24464
1.2446
1.24452
1.24442
1.24431
1.24423
1.24409
1.24386
1.24356
1.24329
1.24309
1.24276
1.24241
1.24207
1.24167
1.24114
1.24081
1.24048
1.24018
1.23991
1.23954
1.23936
1.23931
1.23919
1.23909
1.23901
1.23892
1.2388
1.23867
1.2386
1.23849
1.23839
1.23824
1.23814
1.23807
1.238
1.23804
1.23803
1.23809
1.23825
1.23845
1.23871
1.23896
1.23924
1.23956
1.23989
1.24021
1.24052
1.24086
1.24116
1.24145
1.24171
1.24193
1.24205
1.24207
1.24199
1.24188
1.24173
1.24152
1.24125
1.24077
1.24043
1.23995
1.23942
1.23889
1.23845
1.23806
1.23781
1.23765
1.23753
1.23752
1.23755
1.23761
1.23769
1.23778
1.23787
1.23795
1.23802
1.23806
1.23811
1.23814
1.23817
1.23822
1.23829
1.23836
1.2384
1.23844
1.23847
1.23848
1.2385
1.23851
1.23852
1.23853
1.23854
1.23856
1.23858
1.23861
1.23864
1.23867
1.2387
1.23873
1.23874
1.23876
1.23877
1.23876
1.23875
1.23872
1.2387
1.23861
1.23855
1.23848
1.23842
1.23835
1.23828
1.23821
1.23813
1.23806
1.23799
1.23795
1.23784
1.23775
1.23764
1.23753
1.2374
1.23726
1.23712
1.23695
1.23675
1.23653
1.23643
1.23621
1.23574
1.23544
1.23515
1.23484
1.23447
1.23409
1.23365
1.23329
1.23287
1.23239
1.23199
1.23158
1.2311
1.23082
1.23018
1.22974
1.22943
1.22909
1.22861
1.22836
1.22799
1.22772
1.22742
1.22718
1.22679
1.22638
1.22608
1.22578
1.22552
1.22518
1.22483
1.22448
1.22413
1.22374
1.22336
1.22298
1.2226
1.22221
1.2218
1.2214
1.221
1.2206
1.2202
1.21979
1.21938
1.21899
1.2186
1.21823
1.21781
1.21744
1.21713
1.21677
1.21647
1.21617
1.21588
1.21558
1.21532
1.21505
1.21475
1.21455
1.21457
1.21418
1.21394
1.21377
1.21363
1.21353
1.21346
1.21319
1.21319
1.213
1.21283
1.21276
1.21266
1.21258
1.21251
1.21244
1.21242
1.21239
1.21214
1.2121
1.21208
1.21209
1.21205
1.21201
1.21197
1.21201
1.21186
1.21181
1.21181
1.21178
1.21178
1.21178
1.21168
1.21144
1.21137
1.21142
1.21147
1.21151
1.21148
1.21139
1.21135
1.21131
1.21126
1.2112
1.21115
1.2111
1.21111
1.21108
1.21106
1.21109
1.2111
1.21108
1.21106
1.21105
1.21104
1.21101
1.21096
1.21091
1.2108
1.21104
1.21104
1.21088
1.21089
1.2109
1.21092
1.21084
1.211
1.21099
1.211
1.21101
1.21101
1.21101
1.21101
1.211
1.21099
1.21098
1.21096
1.21094
1.21092
1.21087
1.21083
1.21077
1.21076
1.21054
1.21043
1.21029
1.21036
1.21036
1.21029
1.21023
1.21016
1.2101
1.21002
1.20994
1.20984
1.20974
1.20966
1.20956
1.20941
1.20914
1.20901
1.20896
1.2088
1.20881
1.20876
1.20868
1.20844
1.20817
1.2081
1.20801
1.20798
1.2079
1.20783
1.20765
1.2072
1.20708
1.20688
1.20686
1.20666
1.20651
1.20637
1.20624
1.20614
1.20605
1.20596
1.20582
1.20569
1.20555
1.20526
1.20491
1.20482
1.20468
1.20449
1.20445
1.20434
1.20422
1.20409
1.20389
1.20348
1.20333
1.20326
1.20333
1.24777
1.24777
1.24778
1.24777
1.24776
1.24773
1.24767
1.24759
1.24747
1.24733
1.24714
1.24693
1.24668
1.24641
1.24612
1.24581
1.24549
1.24515
1.24482
1.24447
1.24413
1.24378
1.24342
1.24306
1.24269
1.24233
1.24197
1.24161
1.24125
1.24089
1.24054
1.24021
1.2399
1.2396
1.23931
1.23902
1.23874
1.23846
1.2382
1.23794
1.23771
1.2375
1.2373
1.23709
1.2369
1.23672
1.23656
1.23641
1.23623
1.23612
1.23596
1.23583
1.23576
1.23571
1.23568
1.23563
1.23556
1.23547
1.23536
1.23525
1.23516
1.23507
1.235
1.23497
1.23496
1.23499
1.23506
1.23514
1.23526
1.23543
1.23562
1.23586
1.23612
1.23642
1.23677
1.23714
1.23756
1.23795
1.23837
1.23881
1.23925
1.2397
1.24014
1.24056
1.24098
1.24138
1.24175
1.2421
1.24244
1.24277
1.24311
1.24346
1.24379
1.24409
1.24433
1.24451
1.24468
1.24478
1.24482
1.24497
1.24512
1.24529
1.24546
1.24563
1.24581
1.24598
1.24617
1.24636
1.24657
1.24678
1.24702
1.24731
1.24758
1.24775
1.24784
1.24787
1.24788
1.24786
1.24783
1.24779
1.24775
1.2477
1.24764
1.24765
1.24768
1.24772
1.24771
1.2476
1.24741
1.24717
1.24693
1.24673
1.24661
1.24652
1.24648
1.24648
1.24651
1.24653
1.24654
1.24656
1.24656
1.24657
1.24657
1.24656
1.24655
1.24653
1.24648
1.24642
1.24638
1.24638
1.24643
1.2465
1.24659
1.24669
1.2468
1.24689
1.24696
1.24693
1.24679
1.24651
1.24624
1.24604
1.24587
1.24568
1.24552
1.2454
1.24528
1.24516
1.24506
1.24497
1.24489
1.24479
1.24476
1.24477
1.24472
1.24445
1.24408
1.24376
1.24342
1.24305
1.24265
1.24208
1.24151
1.24107
1.24058
1.24011
1.2397
1.23941
1.23916
1.23892
1.23863
1.23832
1.23805
1.23781
1.23755
1.23731
1.23703
1.23684
1.23669
1.23651
1.23644
1.23637
1.23639
1.23649
1.23657
1.23668
1.23685
1.23703
1.23723
1.23742
1.23758
1.23773
1.23791
1.23812
1.23835
1.23859
1.23888
1.23924
1.23968
1.24017
1.24066
1.2411
1.24146
1.24172
1.24188
1.24191
1.24187
1.2417
1.24108
1.24055
1.24002
1.23941
1.23885
1.23835
1.23804
1.23785
1.23769
1.23764
1.23765
1.23771
1.23781
1.2379
1.23803
1.23813
1.23824
1.23832
1.23841
1.23849
1.23855
1.23861
1.23868
1.23873
1.23875
1.23877
1.23877
1.23877
1.23877
1.23876
1.23876
1.23876
1.23877
1.23878
1.2388
1.23881
1.23882
1.23883
1.23884
1.23884
1.23883
1.23882
1.23881
1.23878
1.23875
1.23872
1.23869
1.23864
1.23857
1.23851
1.23845
1.23838
1.23832
1.23826
1.2382
1.23814
1.23808
1.23802
1.23794
1.23787
1.23779
1.23771
1.23762
1.23752
1.23739
1.23728
1.23716
1.2371
1.23714
1.23704
1.23688
1.23669
1.23652
1.23626
1.23592
1.23561
1.23514
1.23461
1.23415
1.23377
1.233
1.23256
1.2319
1.23142
1.23083
1.23023
1.2298
1.22933
1.22894
1.22848
1.22804
1.22769
1.22736
1.22708
1.22681
1.22649
1.22623
1.22595
1.22558
1.22525
1.22492
1.22456
1.22422
1.22386
1.22349
1.22311
1.22273
1.22234
1.22194
1.22154
1.22114
1.22074
1.22033
1.2199
1.21946
1.21903
1.21861
1.21822
1.21781
1.21745
1.21707
1.21667
1.21638
1.21607
1.21569
1.21535
1.21506
1.21479
1.2144
1.21414
1.21413
1.21377
1.21353
1.21332
1.21313
1.21304
1.21297
1.21272
1.2126
1.21253
1.21235
1.21228
1.21218
1.21209
1.21201
1.2119
1.21185
1.21192
1.2119
1.21193
1.21197
1.21202
1.212
1.21196
1.21206
1.21217
1.21211
1.21209
1.21193
1.21187
1.21184
1.2118
1.21173
1.21174
1.21177
1.21173
1.21162
1.21154
1.21153
1.2115
1.21148
1.21146
1.21142
1.21137
1.21134
1.21138
1.21138
1.21134
1.21131
1.21129
1.21128
1.21127
1.21127
1.21126
1.21127
1.21127
1.21126
1.21124
1.21125
1.21132
1.21127
1.2113
1.21136
1.21137
1.21139
1.2113
1.21135
1.21135
1.21135
1.21137
1.21137
1.21138
1.21138
1.21137
1.21137
1.21136
1.21134
1.21133
1.2113
1.21126
1.21122
1.21116
1.21115
1.21107
1.21099
1.21091
1.21086
1.21077
1.21064
1.21057
1.21049
1.21041
1.21033
1.21025
1.21016
1.21007
1.20996
1.20986
1.20978
1.20969
1.20959
1.2095
1.20935
1.20919
1.20898
1.20895
1.20885
1.20877
1.20864
1.20849
1.20831
1.20818
1.208
1.20795
1.20781
1.20769
1.20752
1.20728
1.20722
1.20708
1.20693
1.20676
1.20654
1.20641
1.20627
1.2061
1.20593
1.20581
1.20567
1.20551
1.20537
1.2052
1.20504
1.20479
1.20464
1.20446
1.20435
1.20422
1.20405
1.20396
1.20372
1.20352
1.24802
1.248
1.24799
1.24796
1.24791
1.24783
1.24774
1.2476
1.24743
1.24723
1.247
1.24674
1.24646
1.24616
1.24584
1.24551
1.24517
1.24482
1.24448
1.24412
1.24375
1.24337
1.24298
1.24257
1.24217
1.24176
1.24135
1.24094
1.24055
1.24016
1.23981
1.23949
1.23921
1.23894
1.23869
1.23844
1.2382
1.23796
1.23774
1.23754
1.23736
1.23721
1.23705
1.2369
1.23677
1.23664
1.23652
1.23639
1.23619
1.23603
1.23587
1.23574
1.23561
1.23549
1.23537
1.23522
1.23508
1.23495
1.23483
1.23474
1.23468
1.23466
1.23468
1.23472
1.2348
1.23492
1.23508
1.23526
1.23549
1.23574
1.23601
1.23633
1.23664
1.23703
1.23739
1.23781
1.23822
1.23872
1.2392
1.23975
1.24028
1.24083
1.24137
1.24191
1.24244
1.24294
1.24342
1.24386
1.24429
1.24471
1.24515
1.2456
1.24605
1.24646
1.2468
1.24707
1.24727
1.24748
1.24763
1.24776
1.24792
1.24808
1.24825
1.24841
1.24855
1.24868
1.24881
1.24892
1.24904
1.24914
1.24925
1.24935
1.24942
1.24948
1.24956
1.24964
1.24974
1.24983
1.2499
1.24993
1.24993
1.24996
1.25
1.25007
1.25016
1.25027
1.2504
1.25048
1.25049
1.25044
1.25035
1.25021
1.25006
1.24997
1.24992
1.24989
1.24987
1.24987
1.24988
1.24989
1.24989
1.24988
1.24986
1.24982
1.24977
1.24968
1.24955
1.2494
1.24927
1.24916
1.2491
1.24914
1.24926
1.24939
1.24952
1.24965
1.24969
1.24964
1.24946
1.24922
1.24895
1.24867
1.24842
1.24815
1.24776
1.24738
1.24702
1.24669
1.24644
1.24624
1.24607
1.24592
1.24566
1.24542
1.24516
1.24483
1.24438
1.24406
1.24385
1.24361
1.24327
1.24279
1.24232
1.24177
1.24113
1.24046
1.2398
1.23924
1.2387
1.2382
1.23776
1.23729
1.23688
1.23658
1.23636
1.23617
1.23602
1.23598
1.23601
1.236
1.23605
1.23617
1.2363
1.23653
1.23676
1.23698
1.23726
1.23746
1.23766
1.23784
1.23791
1.23794
1.23798
1.238
1.23799
1.23798
1.23797
1.23801
1.23806
1.23816
1.23835
1.23876
1.2393
1.2399
1.24053
1.24113
1.24155
1.24166
1.24148
1.24121
1.24076
1.24012
1.2395
1.23895
1.23856
1.23836
1.23825
1.23821
1.23822
1.23827
1.23834
1.2384
1.23852
1.23862
1.23873
1.23883
1.23894
1.23905
1.23913
1.23919
1.23925
1.23928
1.2393
1.2393
1.23927
1.23924
1.2392
1.23916
1.23911
1.23907
1.23904
1.239
1.23895
1.23892
1.23888
1.23883
1.23878
1.23873
1.23867
1.23861
1.23855
1.23848
1.23841
1.23835
1.23828
1.23819
1.23809
1.23801
1.23791
1.23783
1.23775
1.23768
1.23763
1.23759
1.23759
1.23761
1.23762
1.23763
1.23763
1.23764
1.23766
1.23767
1.23764
1.23761
1.23759
1.23759
1.23749
1.23746
1.23742
1.23738
1.23722
1.23709
1.23699
1.23696
1.23674
1.23639
1.23602
1.23552
1.23482
1.23417
1.23343
1.23275
1.23211
1.23137
1.23071
1.23009
1.22937
1.22882
1.22824
1.2278
1.22737
1.22698
1.22683
1.22653
1.22622
1.22593
1.22563
1.2253
1.22498
1.22464
1.22431
1.22395
1.22359
1.22322
1.22284
1.22246
1.22207
1.22167
1.22127
1.22088
1.22046
1.22004
1.21961
1.21918
1.21875
1.21833
1.2179
1.21746
1.21698
1.21655
1.21632
1.21597
1.2156
1.21525
1.21492
1.21461
1.21431
1.21405
1.21378
1.21345
1.21317
1.21293
1.21274
1.2126
1.21246
1.21233
1.21218
1.2119
1.21171
1.21161
1.21151
1.21145
1.21127
1.21112
1.21094
1.2111
1.21119
1.21116
1.2112
1.21129
1.21138
1.21152
1.21159
1.21158
1.21158
1.21173
1.21182
1.21187
1.21191
1.21191
1.21189
1.21204
1.21192
1.21183
1.21176
1.21174
1.21175
1.21176
1.21175
1.21173
1.21172
1.21171
1.21167
1.21169
1.21169
1.21167
1.21164
1.21161
1.21159
1.21159
1.21162
1.21164
1.21167
1.21171
1.21171
1.21177
1.21176
1.21179
1.21176
1.21183
1.21194
1.21193
1.21196
1.21192
1.21195
1.21193
1.21194
1.21195
1.21196
1.21197
1.21198
1.21197
1.21197
1.21195
1.21192
1.21189
1.21185
1.21176
1.21171
1.21163
1.21159
1.21161
1.21151
1.21141
1.2113
1.21117
1.21105
1.21097
1.21088
1.21079
1.21069
1.2106
1.21049
1.21038
1.21025
1.21013
1.21008
1.21008
1.20994
1.20983
1.20972
1.20953
1.20937
1.20921
1.2092
1.20917
1.20907
1.20887
1.20867
1.20858
1.20843
1.20828
1.20833
1.20819
1.20802
1.20776
1.20769
1.20757
1.2074
1.20722
1.20705
1.20691
1.20677
1.20662
1.20644
1.20624
1.20617
1.20611
1.20597
1.20573
1.20556
1.20532
1.20516
1.20498
1.20481
1.20471
1.20466
1.20448
1.20426
1.20402
1.2483
1.24825
1.24822
1.24815
1.24805
1.24793
1.24777
1.24757
1.24734
1.24708
1.2468
1.2465
1.24619
1.24586
1.24552
1.24517
1.24482
1.24446
1.24409
1.24371
1.24331
1.24289
1.24245
1.24199
1.24152
1.24105
1.24059
1.24015
1.23975
1.23938
1.23906
1.2388
1.23857
1.23836
1.23817
1.238
1.23783
1.23766
1.23749
1.23735
1.23723
1.23713
1.23699
1.23687
1.23675
1.23657
1.23635
1.23611
1.23579
1.23549
1.23524
1.23507
1.23496
1.23488
1.23478
1.23467
1.23458
1.23451
1.23446
1.23445
1.23447
1.23453
1.23463
1.23475
1.23488
1.23507
1.23525
1.23546
1.23571
1.23599
1.23629
1.23664
1.23699
1.23741
1.23786
1.23835
1.23895
1.23952
1.24013
1.24079
1.24146
1.24214
1.24282
1.24348
1.24412
1.24475
1.24533
1.24584
1.2463
1.24671
1.24708
1.24743
1.24778
1.24812
1.24842
1.24866
1.24884
1.249
1.24912
1.24919
1.24926
1.24931
1.24933
1.24934
1.24934
1.24934
1.24933
1.24931
1.2493
1.24928
1.24929
1.24927
1.24922
1.24916
1.24915
1.24916
1.24922
1.24931
1.24945
1.2496
1.24973
1.24988
1.25004
1.2502
1.2504
1.25061
1.25086
1.25112
1.25138
1.25162
1.25183
1.252
1.25213
1.25224
1.25232
1.25245
1.25259
1.25272
1.25285
1.25296
1.25304
1.25311
1.25315
1.25316
1.25313
1.25305
1.25294
1.25278
1.25263
1.25254
1.25248
1.25246
1.25251
1.25259
1.25267
1.25274
1.25269
1.25257
1.25237
1.25212
1.25187
1.25161
1.25136
1.25108
1.25071
1.25025
1.24971
1.2492
1.24873
1.24834
1.24803
1.24775
1.24744
1.24703
1.24652
1.24585
1.24527
1.24484
1.24458
1.24444
1.24429
1.24392
1.24325
1.24246
1.24161
1.24074
1.23982
1.23901
1.23831
1.23774
1.23722
1.2368
1.23653
1.23634
1.23625
1.23617
1.23611
1.23622
1.23636
1.23662
1.23713
1.23751
1.23787
1.23827
1.23865
1.23895
1.23919
1.2394
1.23963
1.23986
1.23999
1.24009
1.24012
1.24009
1.23997
1.23975
1.23942
1.239
1.23854
1.23812
1.23782
1.23773
1.23773
1.23785
1.23827
1.23897
1.23989
1.24074
1.24134
1.24156
1.24148
1.24111
1.24051
1.23983
1.23924
1.23891
1.23876
1.23866
1.23861
1.23861
1.23861
1.23862
1.23871
1.23879
1.23889
1.23898
1.23912
1.23924
1.23934
1.23942
1.2395
1.23954
1.23957
1.23957
1.23954
1.23949
1.23943
1.23936
1.23926
1.23918
1.2391
1.23902
1.23893
1.23884
1.23875
1.23866
1.23855
1.23845
1.23833
1.2382
1.23808
1.23795
1.23784
1.23772
1.23758
1.23745
1.23731
1.23716
1.23702
1.23687
1.23672
1.2366
1.23647
1.23635
1.23625
1.23614
1.23607
1.23602
1.236
1.23602
1.23608
1.23617
1.23627
1.23637
1.23648
1.23661
1.2367
1.23677
1.23693
1.23714
1.23721
1.23728
1.23737
1.23741
1.2374
1.23731
1.23718
1.23701
1.23661
1.23618
1.23555
1.23486
1.23409
1.23326
1.23243
1.23151
1.23065
1.22991
1.22909
1.22838
1.22773
1.22727
1.22677
1.22636
1.22607
1.22579
1.22556
1.2253
1.225
1.2247
1.2244
1.22408
1.22373
1.22338
1.22299
1.22261
1.22222
1.22181
1.22141
1.22098
1.22056
1.22011
1.21966
1.21922
1.21876
1.21829
1.2178
1.21744
1.21705
1.21666
1.21623
1.2158
1.21543
1.21501
1.21466
1.21438
1.21409
1.21382
1.21357
1.21327
1.21304
1.21282
1.2126
1.21236
1.21223
1.21211
1.21198
1.21179
1.21159
1.21148
1.21137
1.21127
1.21107
1.21091
1.21082
1.21068
1.21058
1.21048
1.2104
1.21032
1.21035
1.21051
1.21069
1.21088
1.21105
1.21128
1.21152
1.21173
1.21181
1.21189
1.21196
1.21198
1.21201
1.21201
1.21203
1.21203
1.21207
1.21208
1.21207
1.21204
1.21201
1.212
1.212
1.21193
1.21192
1.21194
1.21197
1.21199
1.21201
1.21204
1.21209
1.21213
1.21217
1.21222
1.21227
1.2123
1.21232
1.2124
1.21244
1.21251
1.21256
1.2126
1.21262
1.21268
1.21276
1.21279
1.21284
1.21289
1.21295
1.213
1.21304
1.21307
1.2131
1.21311
1.21311
1.2131
1.21309
1.21304
1.21297
1.21289
1.21279
1.21265
1.21249
1.21229
1.21215
1.21205
1.21191
1.2118
1.21169
1.21159
1.21147
1.21135
1.2112
1.21105
1.21089
1.21073
1.21058
1.21043
1.21027
1.21015
1.20998
1.20996
1.20982
1.20972
1.20957
1.20946
1.20931
1.20923
1.20918
1.20906
1.20891
1.20878
1.20865
1.20852
1.20833
1.20825
1.20813
1.20799
1.20786
1.20766
1.20769
1.20756
1.20744
1.20727
1.20711
1.20695
1.2068
1.20665
1.20647
1.2063
1.20614
1.2061
1.20593
1.20575
1.20559
1.20541
1.20525
1.20505
1.20492
1.20484
1.24859
1.24851
1.24844
1.24834
1.24818
1.24799
1.24775
1.24748
1.24718
1.24686
1.24652
1.24618
1.24584
1.24549
1.24515
1.24479
1.24443
1.24406
1.24368
1.24327
1.24282
1.24234
1.24182
1.24128
1.24073
1.2402
1.23971
1.23928
1.2389
1.23858
1.23834
1.23816
1.23802
1.2379
1.23779
1.23768
1.23759
1.23748
1.2374
1.23732
1.23728
1.23724
1.23717
1.23708
1.23692
1.23664
1.23631
1.23588
1.23535
1.23491
1.2346
1.23439
1.23424
1.23413
1.23405
1.23399
1.23395
1.23395
1.23396
1.23401
1.23409
1.23418
1.23432
1.23444
1.23461
1.23478
1.23498
1.23517
1.23543
1.2357
1.236
1.23634
1.23671
1.2371
1.23752
1.23799
1.23845
1.23894
1.23953
1.2402
1.24091
1.24168
1.24247
1.24327
1.24406
1.24483
1.24558
1.24626
1.24688
1.24742
1.2479
1.24831
1.24866
1.24894
1.24917
1.24935
1.24947
1.24958
1.24965
1.24968
1.24968
1.24966
1.2496
1.24952
1.24943
1.24932
1.2492
1.24907
1.24894
1.24882
1.24869
1.24854
1.24838
1.24822
1.24808
1.24787
1.24761
1.24743
1.24732
1.24726
1.24721
1.24721
1.24725
1.24733
1.2475
1.24774
1.24807
1.2485
1.24903
1.24964
1.25033
1.25105
1.25174
1.25233
1.25279
1.25319
1.25357
1.25391
1.25423
1.25454
1.25485
1.25513
1.25535
1.25552
1.25563
1.25566
1.25562
1.25551
1.25537
1.25527
1.25525
1.25525
1.25527
1.25529
1.25531
1.25532
1.25526
1.25517
1.25499
1.25476
1.25455
1.25434
1.25414
1.25387
1.25351
1.25306
1.25255
1.25204
1.25155
1.25112
1.25073
1.25034
1.24989
1.2493
1.2485
1.24747
1.2465
1.24577
1.24526
1.24498
1.24472
1.2444
1.24378
1.24295
1.24206
1.24118
1.24025
1.23938
1.23863
1.23799
1.23743
1.23692
1.23659
1.2364
1.23628
1.23635
1.23667
1.23713
1.23757
1.2381
1.23883
1.23936
1.23979
1.24027
1.24064
1.24099
1.24126
1.24151
1.24174
1.24192
1.24209
1.24223
1.24233
1.2424
1.24239
1.2423
1.2421
1.24173
1.2412
1.24055
1.23981
1.23905
1.23827
1.23764
1.23735
1.23737
1.23771
1.23848
1.2395
1.2406
1.24129
1.24135
1.24107
1.24048
1.23979
1.23932
1.23916
1.23905
1.239
1.23902
1.23904
1.23905
1.2391
1.23913
1.23919
1.2392
1.23927
1.23933
1.2394
1.23948
1.23955
1.23964
1.23969
1.23973
1.23974
1.2397
1.23965
1.23957
1.23947
1.23935
1.23922
1.23908
1.23893
1.23878
1.23862
1.23845
1.23827
1.23808
1.23789
1.2377
1.2375
1.23732
1.23714
1.23697
1.23679
1.23662
1.23645
1.23629
1.23613
1.23598
1.23584
1.23572
1.2356
1.2355
1.23539
1.23529
1.23519
1.2351
1.23503
1.23496
1.23491
1.23488
1.23488
1.23491
1.23495
1.23508
1.23505
1.2351
1.23529
1.23561
1.23584
1.23609
1.23637
1.23665
1.23694
1.23715
1.23734
1.23749
1.23742
1.23736
1.23714
1.23675
1.23626
1.23559
1.23482
1.23393
1.23288
1.23178
1.23066
1.22959
1.2286
1.22773
1.22702
1.2265
1.22607
1.2257
1.22543
1.2252
1.22494
1.22469
1.22443
1.22415
1.22384
1.22351
1.22313
1.22273
1.22234
1.22191
1.22147
1.22105
1.22059
1.22014
1.21969
1.21925
1.21879
1.21832
1.21785
1.21747
1.21702
1.21666
1.21632
1.21589
1.21557
1.21522
1.21488
1.21458
1.21428
1.21402
1.21379
1.21356
1.21335
1.21318
1.213
1.21282
1.21265
1.21247
1.2123
1.2121
1.2119
1.21168
1.2115
1.21135
1.21122
1.21104
1.21088
1.21071
1.21052
1.21034
1.21014
1.20999
1.20981
1.20978
1.20977
1.20984
1.20993
1.21012
1.21036
1.21068
1.211
1.21129
1.21153
1.21175
1.21195
1.21211
1.21222
1.21224
1.21221
1.2122
1.21219
1.21216
1.21214
1.21219
1.21221
1.21221
1.21225
1.21229
1.21234
1.21236
1.21239
1.21241
1.21245
1.21251
1.21257
1.21266
1.21274
1.21282
1.21291
1.213
1.21308
1.21319
1.21331
1.21339
1.21346
1.21352
1.21359
1.21365
1.21374
1.21383
1.21392
1.214
1.21408
1.21413
1.21418
1.21418
1.21417
1.21419
1.21425
1.2143
1.21428
1.21425
1.21418
1.21406
1.2139
1.2137
1.21348
1.21329
1.21309
1.21293
1.21279
1.21265
1.21251
1.21235
1.21214
1.21195
1.21173
1.2115
1.21128
1.21106
1.21085
1.21065
1.21049
1.21034
1.21018
1.21001
1.2099
1.2098
1.20968
1.20953
1.20939
1.20929
1.20917
1.20905
1.20895
1.20885
1.20872
1.20858
1.20848
1.20838
1.20827
1.20814
1.208
1.2079
1.20779
1.20769
1.20757
1.20745
1.20733
1.20723
1.20712
1.20698
1.20683
1.20667
1.20656
1.20641
1.20628
1.20614
1.20604
1.2059
1.20573
1.20558
1.24888
1.24877
1.24865
1.2485
1.24828
1.24801
1.24769
1.24734
1.24697
1.24659
1.24623
1.24586
1.2455
1.24514
1.24478
1.24442
1.24404
1.24365
1.24323
1.24277
1.24225
1.24169
1.2411
1.24049
1.23989
1.23934
1.23886
1.23846
1.23816
1.23793
1.23779
1.23771
1.23766
1.23764
1.23761
1.23759
1.23757
1.23753
1.23747
1.23742
1.23741
1.23739
1.23732
1.23717
1.23689
1.2365
1.23601
1.23545
1.23484
1.23433
1.23398
1.23376
1.23363
1.23356
1.23351
1.23349
1.23351
1.23356
1.23362
1.23372
1.23382
1.23395
1.23408
1.23422
1.23437
1.23457
1.23475
1.23491
1.23512
1.23531
1.23551
1.23577
1.23598
1.23624
1.23655
1.23685
1.23721
1.23758
1.23803
1.23856
1.23917
1.23984
1.24059
1.24141
1.24221
1.243
1.24378
1.24461
1.24544
1.24625
1.247
1.24766
1.24824
1.24869
1.24903
1.24928
1.24942
1.24946
1.24947
1.2494
1.24932
1.24922
1.24912
1.24901
1.2489
1.24879
1.24869
1.2486
1.24852
1.24843
1.24836
1.24827
1.24816
1.24801
1.24786
1.24765
1.24738
1.24705
1.24667
1.24629
1.24591
1.24557
1.24526
1.24501
1.24486
1.2448
1.24484
1.24501
1.24531
1.24574
1.24631
1.24702
1.24788
1.24883
1.2498
1.25074
1.25166
1.25255
1.25339
1.25415
1.25481
1.25537
1.25585
1.25625
1.25658
1.25687
1.25709
1.25723
1.25728
1.25728
1.25727
1.25726
1.25723
1.2572
1.25716
1.25709
1.25699
1.25687
1.25675
1.25661
1.25646
1.2563
1.25617
1.25596
1.25568
1.25532
1.2549
1.25451
1.25409
1.25366
1.25326
1.2528
1.25226
1.25159
1.25071
1.24959
1.2484
1.24732
1.24669
1.24621
1.24577
1.24524
1.24457
1.24377
1.2429
1.24205
1.2412
1.2403
1.23932
1.23832
1.23753
1.23689
1.23658
1.23654
1.23667
1.23694
1.23757
1.23825
1.23883
1.23956
1.24006
1.24048
1.24092
1.24119
1.24156
1.24189
1.24215
1.24245
1.24274
1.24301
1.24328
1.24352
1.24374
1.24392
1.24406
1.24414
1.24416
1.24406
1.2438
1.24336
1.24278
1.2421
1.2413
1.24039
1.23931
1.23799
1.23718
1.23711
1.2375
1.23857
1.24001
1.24097
1.24121
1.24104
1.2407
1.24028
1.23997
1.2398
1.23965
1.23957
1.23953
1.2395
1.23949
1.23948
1.23943
1.23935
1.2393
1.23927
1.23928
1.2393
1.23937
1.23944
1.23952
1.23958
1.23963
1.23965
1.23965
1.23961
1.23953
1.23942
1.23928
1.23911
1.23893
1.23872
1.2385
1.23828
1.23804
1.23781
1.23757
1.23734
1.23711
1.2369
1.23672
1.23653
1.23635
1.23619
1.23604
1.23589
1.23573
1.23553
1.23535
1.23521
1.23508
1.23495
1.23484
1.23474
1.23466
1.23459
1.23452
1.23447
1.23442
1.23439
1.23437
1.23437
1.23439
1.23446
1.23444
1.23447
1.2346
1.23471
1.23489
1.23512
1.23539
1.23567
1.23593
1.23626
1.2366
1.23695
1.23717
1.2374
1.23755
1.2376
1.2375
1.23721
1.23677
1.2362
1.23542
1.23443
1.23317
1.23179
1.23037
1.22902
1.22788
1.227
1.22636
1.22587
1.22546
1.22514
1.22492
1.22468
1.22446
1.2242
1.22387
1.22353
1.22312
1.22269
1.22225
1.22184
1.22143
1.221
1.22057
1.22013
1.2197
1.21926
1.21882
1.21838
1.21795
1.21754
1.21711
1.21676
1.21632
1.21593
1.21563
1.21538
1.2151
1.21486
1.21462
1.21441
1.21423
1.21404
1.21388
1.21374
1.21362
1.2135
1.21339
1.2133
1.21319
1.21308
1.21294
1.21277
1.21262
1.21248
1.21233
1.21215
1.21199
1.21179
1.21155
1.21126
1.21092
1.21054
1.21016
1.20981
1.20954
1.20935
1.20924
1.20922
1.20929
1.20952
1.20987
1.21031
1.21069
1.21102
1.21131
1.21162
1.21187
1.21201
1.21208
1.21222
1.2123
1.21233
1.21237
1.2125
1.21255
1.21256
1.21255
1.21256
1.21258
1.21261
1.21269
1.21275
1.21282
1.21292
1.21303
1.21316
1.21328
1.21341
1.21351
1.21365
1.21379
1.21392
1.21406
1.21419
1.21431
1.21442
1.21453
1.21465
1.21478
1.21492
1.21505
1.2152
1.21532
1.2154
1.2155
1.21556
1.21559
1.21564
1.21569
1.21572
1.21575
1.21575
1.21569
1.21558
1.21548
1.21536
1.21517
1.21495
1.21471
1.2145
1.21432
1.21417
1.21401
1.21386
1.21369
1.21348
1.21322
1.21291
1.21254
1.21217
1.21182
1.21152
1.21124
1.21101
1.21078
1.21058
1.21039
1.21022
1.21005
1.20989
1.20973
1.20958
1.20943
1.20928
1.20913
1.20899
1.20885
1.20873
1.20861
1.20851
1.20841
1.20829
1.20821
1.20812
1.20803
1.20794
1.20785
1.20776
1.20767
1.20757
1.20747
1.20737
1.20727
1.20719
1.2071
1.20698
1.20689
1.20677
1.20668
1.20656
1.20645
1.2064
1.24913
1.24898
1.24881
1.24859
1.24829
1.24793
1.24753
1.24711
1.24668
1.24626
1.24588
1.24551
1.24514
1.24478
1.24443
1.24407
1.24367
1.24324
1.24278
1.24224
1.24165
1.241
1.24033
1.23967
1.23906
1.23854
1.23812
1.23781
1.23761
1.23749
1.23745
1.23747
1.23751
1.23755
1.23761
1.23765
1.2377
1.23771
1.2377
1.2377
1.23765
1.23764
1.23752
1.23727
1.23685
1.23626
1.2356
1.2349
1.23425
1.23374
1.23339
1.23318
1.23307
1.23301
1.23301
1.23304
1.23311
1.23319
1.23328
1.2334
1.23351
1.2336
1.23375
1.2339
1.23399
1.23414
1.23426
1.23438
1.23446
1.23456
1.23458
1.23442
1.23457
1.23448
1.23457
1.23469
1.23486
1.23506
1.23532
1.23565
1.23606
1.23654
1.23712
1.23784
1.23864
1.2395
1.24038
1.24132
1.24229
1.24328
1.24427
1.24522
1.24614
1.247
1.24774
1.24833
1.24873
1.24896
1.2491
1.24914
1.24914
1.24909
1.24899
1.24888
1.24876
1.24863
1.24849
1.24836
1.24823
1.24809
1.24798
1.24785
1.24765
1.24745
1.24723
1.24703
1.24675
1.24638
1.24596
1.2455
1.245
1.24451
1.24402
1.24357
1.24317
1.24285
1.24269
1.24265
1.24269
1.24286
1.24315
1.24358
1.24415
1.24486
1.2457
1.24665
1.24771
1.24886
1.25006
1.25128
1.25248
1.2536
1.25462
1.25551
1.25623
1.25678
1.25721
1.25755
1.25782
1.25802
1.25817
1.25826
1.2583
1.2583
1.25829
1.25823
1.25813
1.25801
1.25789
1.25776
1.25764
1.25749
1.25736
1.25718
1.25698
1.25673
1.25646
1.25621
1.2559
1.25558
1.25521
1.2548
1.25433
1.25377
1.25303
1.25208
1.25093
1.24985
1.24883
1.248
1.24725
1.24648
1.24556
1.2446
1.24376
1.24296
1.24219
1.24129
1.2402
1.23901
1.23799
1.23729