/*--------------------------------*- C++ -*----------------------------------*\
| =========                 |                                                 |
| \\      /  F ield         | OpenFOAM: The Open Source CFD Toolbox           |
|  \\    /   O peration     | Version:  v1812                                 |
|   \\  /    A nd           | Web:      www.OpenFOAM.com                      |
|    \\/     M anipulation  |                                                 |
\*---------------------------------------------------------------------------*/
FoamFile
{
    version     2.0;
    format      ascii;
    class       volScalarField;
    location    "1.3";
    object      T;
}
// * * * * * * * * * * * * * * * * * * * * * * * * * * * * * * * * * * * * * //

dimensions      [0 0 0 1 0 0 0];


internalField   nonuniform List<scalar> 
20400
(
294.574
294.57
294.562
294.551
294.539
294.528
294.519
294.514
294.515
294.522
294.536
294.558
294.588
294.624
294.666
294.713
294.764
294.818
294.874
294.932
294.99
295.048
295.106
295.163
295.219
295.275
295.331
295.388
295.445
295.503
295.562
295.622
295.683
295.743
295.805
295.868
295.932
295.996
296.058
296.116
296.171
296.221
296.267
296.311
296.354
296.396
296.438
296.477
296.51
296.539
296.565
296.577
296.576
296.564
296.541
296.514
296.489
296.47
296.462
296.467
296.486
296.519
296.565
296.619
296.678
296.736
296.792
296.842
296.886
296.923
296.954
296.981
297.005
297.025
297.043
297.061
297.078
297.09
297.102
297.112
297.117
297.12
297.121
297.122
297.122
297.122
297.121
297.12
297.118
297.114
297.108
297.101
297.093
297.084
297.076
297.069
297.062
297.053
297.041
297.023
297.005
296.988
296.97
296.953
296.935
296.917
296.9
296.882
296.865
296.849
296.837
296.827
296.817
296.812
296.81
296.815
296.823
296.83
296.837
296.843
296.848
296.852
296.851
296.843
296.829
296.814
296.799
296.785
296.771
296.753
296.732
296.707
296.681
296.656
296.631
296.607
296.58
296.553
296.526
296.499
296.472
296.444
296.416
296.388
296.36
296.331
296.301
296.27
296.237
296.203
296.172
296.143
296.115
296.087
296.059
296.032
296.004
295.977
295.947
295.918
295.877
295.844
295.812
295.783
295.761
295.748
295.74
295.741
295.749
295.766
295.793
295.83
295.879
295.935
296.001
296.056
296.121
296.186
296.245
296.306
296.367
296.424
296.478
296.524
296.563
296.597
296.624
296.647
296.637
296.638
296.635
296.629
296.619
296.605
296.59
296.575
296.562
296.546
296.53
296.508
296.495
296.483
296.469
296.456
296.435
296.408
296.372
296.328
296.287
296.25
296.22
296.193
296.17
296.154
296.144
296.138
296.138
296.142
296.152
296.169
296.194
296.228
296.27
296.322
296.384
296.455
296.541
296.618
296.705
296.786
296.86
296.919
296.961
296.975
296.97
296.952
296.921
296.88
296.826
296.763
296.701
296.637
296.577
296.52
296.468
296.418
296.372
296.328
296.284
296.243
296.204
296.166
296.131
296.098
296.067
296.037
296.011
295.984
295.958
295.932
295.906
295.88
295.852
295.825
295.797
295.768
295.738
295.709
295.68
295.653
295.626
295.601
295.577
295.551
295.527
295.514
295.496
295.48
295.463
295.447
295.432
295.419
295.407
295.398
295.388
295.379
295.37
295.366
295.362
295.361
295.36
295.36
295.362
295.365
295.369
295.377
295.383
295.391
295.396
295.402
295.415
295.427
295.439
295.455
295.471
295.485
295.495
295.511
295.493
295.493
295.481
295.475
295.463
295.441
295.423
295.392
295.355
295.326
295.286
295.251
295.212
295.175
295.134
295.095
295.059
295.019
294.98
294.941
294.901
294.864
294.827
294.791
294.758
294.725
294.695
294.666
294.638
294.612
294.588
294.565
294.545
294.526
294.51
294.496
294.483
294.468
294.449
294.435
294.418
294.417
294.411
294.401
294.392
294.382
294.378
294.371
294.362
294.363
294.349
294.344
294.34
294.338
294.334
294.335
294.336
294.334
294.331
294.301
294.294
294.293
294.289
294.286
294.286
294.283
294.283
294.279
294.276
294.272
294.273
294.276
294.281
294.288
294.278
294.284
294.285
294.288
294.29
294.29
294.293
294.292
294.292
294.291
294.295
294.296
294.296
294.297
294.296
294.293
294.293
294.291
294.291
294.291
294.291
294.291
294.29
294.288
294.286
294.283
294.282
294.279
294.276
294.273
294.272
294.271
294.271
294.268
294.262
294.269
294.264
294.273
294.275
294.276
294.279
294.277
294.28
294.285
294.288
294.29
294.294
294.296
294.3
294.303
294.306
294.309
294.312
294.315
294.318
294.321
294.325
294.327
294.331
294.337
294.343
294.338
294.337
294.337
294.333
294.332
294.331
294.329
294.327
294.324
294.322
294.318
294.315
294.31
294.307
294.303
294.3
294.297
294.286
294.28
294.27
294.267
294.259
294.251
294.245
294.237
294.231
294.223
294.212
294.203
294.19
294.183
294.174
294.163
294.155
294.143
294.132
294.125
294.116
294.103
294.093
294.08
294.068
294.055
294.044
294.031
294.018
294.004
293.989
293.976
293.961
293.944
293.928
293.912
293.893
293.884
293.867
293.849
294.555
294.552
294.544
294.534
294.524
294.515
294.509
294.508
294.513
294.524
294.542
294.568
294.6
294.639
294.683
294.732
294.785
294.84
294.897
294.955
295.014
295.073
295.133
295.193
295.253
295.313
295.372
295.432
295.494
295.556
295.618
295.679
295.739
295.799
295.859
295.919
295.981
296.043
296.102
296.156
296.207
296.254
296.297
296.338
296.379
296.419
296.457
296.492
296.518
296.546
296.565
296.576
296.576
296.566
296.552
296.539
296.533
296.533
296.543
296.562
296.592
296.635
296.686
296.738
296.786
296.827
296.861
296.884
296.901
296.914
296.923
296.929
296.933
296.935
296.937
296.938
296.94
296.937
296.934
296.929
296.919
296.911
296.903
296.895
296.889
296.885
296.881
296.878
296.874
296.867
296.857
296.843
296.828
296.815
296.805
296.798
296.79
296.776
296.759
296.74
296.718
296.695
296.67
296.643
296.615
296.586
296.554
296.521
296.486
296.45
296.414
296.38
296.354
296.339
296.336
296.347
296.366
296.391
296.417
296.442
296.467
296.497
296.512
296.51
296.501
296.491
296.488
296.499
296.511
296.517
296.514
296.502
296.482
296.457
296.431
296.405
296.377
296.349
296.322
296.296
296.27
296.244
296.217
296.192
296.167
296.146
296.126
296.107
296.085
296.058
296.025
295.987
295.948
295.911
295.88
295.855
295.835
295.824
295.817
295.814
295.808
295.802
295.79
295.775
295.756
295.74
295.726
295.717
295.714
295.716
295.721
295.732
295.755
295.79
295.835
295.886
295.946
296.022
296.093
296.169
296.254
296.339
296.409
296.488
296.557
296.618
296.668
296.692
296.715
296.741
296.758
296.772
296.783
296.792
296.799
296.808
296.816
296.821
296.825
296.825
296.832
296.839
296.845
296.858
296.858
296.849
296.826
296.787
296.746
296.705
296.666
296.621
296.57
296.52
296.472
296.428
296.383
296.337
296.288
296.25
296.225
296.21
296.202
296.209
296.236
296.28
296.341
296.403
296.494
296.589
296.685
296.774
296.852
296.904
296.919
296.914
296.892
296.854
296.799
296.736
296.669
296.6
296.535
296.472
296.414
296.359
296.307
296.258
296.21
296.168
296.129
296.095
296.062
296.032
296.004
295.978
295.953
295.929
295.905
295.882
295.859
295.835
295.811
295.786
295.76
295.733
295.706
295.681
295.655
295.631
295.607
295.584
295.561
295.538
295.516
295.49
295.467
295.446
295.425
295.405
295.386
295.368
295.351
295.336
295.322
295.31
295.297
295.287
295.278
295.271
295.264
295.257
295.249
295.242
295.236
295.235
295.241
295.236
295.225
295.226
295.229
295.239
295.253
295.274
295.297
295.326
295.348
295.369
295.381
295.393
295.398
295.412
295.397
295.391
295.383
295.368
295.333
295.308
295.272
295.24
295.202
295.165
295.12
295.075
295.036
294.992
294.952
294.909
294.869
294.831
294.795
294.755
294.72
294.687
294.656
294.627
294.599
294.574
294.551
294.531
294.512
294.494
294.478
294.464
294.453
294.443
294.428
294.42
294.416
294.415
294.411
294.402
294.396
294.392
294.39
294.387
294.384
294.382
294.391
294.375
294.378
294.38
294.382
294.385
294.383
294.369
294.368
294.351
294.335
294.328
294.32
294.316
294.314
294.312
294.305
294.295
294.269
294.257
294.248
294.241
294.231
294.227
294.226
294.229
294.217
294.215
294.215
294.216
294.22
294.228
294.23
294.219
294.217
294.22
294.221
294.227
294.232
294.229
294.229
294.228
294.225
294.222
294.219
294.216
294.217
294.215
294.212
294.214
294.214
294.212
294.209
294.206
294.204
294.2
294.196
294.191
294.185
294.201
294.2
294.193
294.197
294.201
294.204
294.203
294.215
294.215
294.215
294.217
294.219
294.222
294.225
294.227
294.23
294.234
294.237
294.241
294.244
294.246
294.249
294.251
294.256
294.244
294.243
294.236
294.245
294.249
294.247
294.247
294.246
294.244
294.243
294.24
294.236
294.233
294.23
294.226
294.218
294.201
294.195
294.194
294.184
294.186
294.181
294.176
294.162
294.149
294.15
294.141
294.137
294.129
294.125
294.118
294.093
294.092
294.08
294.073
294.055
294.048
294.045
294.033
294.021
294.01
294.002
293.991
293.983
293.972
293.951
293.934
293.93
293.92
293.9
293.89
293.876
293.862
293.848
293.834
293.807
293.797
293.784
293.764
294.517
294.515
294.512
294.506
294.502
294.499
294.501
294.508
294.521
294.541
294.567
294.6
294.639
294.684
294.734
294.787
294.842
294.9
294.958
295.018
295.078
295.14
295.203
295.267
295.332
295.4
295.468
295.537
295.607
295.677
295.745
295.808
295.868
295.925
295.98
296.036
296.093
296.148
296.2
296.247
296.29
296.329
296.363
296.395
296.427
296.458
296.485
296.509
296.53
296.555
296.574
296.587
296.593
296.596
296.602
296.615
296.633
296.655
296.682
296.712
296.747
296.782
296.815
296.841
296.856
296.862
296.864
296.863
296.857
296.845
296.829
296.81
296.79
296.767
296.745
296.724
296.705
296.682
296.657
296.632
296.603
296.576
296.549
296.524
296.501
296.483
296.469
296.455
296.442
296.425
296.401
296.371
296.338
296.309
296.288
296.273
296.261
296.246
296.228
296.208
296.176
296.139
296.099
296.058
296.014
295.969
295.921
295.87
295.817
295.76
295.704
295.654
295.62
295.597
295.591
295.6
295.616
295.636
295.658
295.678
295.701
295.728
295.751
295.752
295.743
295.729
295.728
295.745
295.783
295.831
295.877
295.907
295.918
295.917
295.906
295.886
295.862
295.836
295.809
295.784
295.76
295.737
295.715
295.693
295.674
295.66
295.651
295.644
295.634
295.618
295.591
295.553
295.509
295.466
295.427
295.392
295.371
295.373
295.384
295.405
295.427
295.46
295.493
295.519
295.543
295.564
295.578
295.588
295.596
295.605
295.614
295.622
295.634
295.662
295.705
295.749
295.794
295.851
295.921
296
296.098
296.201
296.317
296.441
296.548
296.641
296.721
296.793
296.856
296.913
296.958
296.997
297.033
297.066
297.097
297.127
297.15
297.169
297.184
297.191
297.202
297.205
297.205
297.207
297.204
297.199
297.193
297.181
297.168
297.152
297.134
297.112
297.088
297.06
297.028
296.988
296.939
296.873
296.786
296.679
296.567
296.463
296.367
296.286
296.234
296.212
296.217
296.252
296.298
296.38
296.495
296.613
296.719
296.8
296.844
296.847
296.833
296.799
296.745
296.681
296.613
296.541
296.471
296.4
296.334
296.27
296.211
296.155
296.103
296.055
296.013
295.976
295.943
295.915
295.89
295.868
295.849
295.831
295.814
295.797
295.78
295.762
295.744
295.723
295.702
295.68
295.658
295.637
295.616
295.595
295.574
295.555
295.534
295.514
295.495
295.475
295.455
295.436
295.416
295.397
295.376
295.355
295.333
295.31
295.284
295.258
295.231
295.206
295.181
295.159
295.136
295.112
295.086
295.061
295.037
295.019
295.006
294.977
294.953
294.931
294.915
294.908
294.91
294.929
294.949
294.979
295.025
295.089
295.106
295.149
295.186
295.234
295.263
295.278
295.296
295.299
295.299
295.287
295.263
295.236
295.2
295.163
295.12
295.072
295.026
294.981
294.932
294.888
294.845
294.8
294.759
294.721
294.685
294.652
294.621
294.592
294.565
294.542
294.521
294.503
294.486
294.472
294.459
294.448
294.44
294.436
294.43
294.431
294.43
294.426
294.43
294.436
294.439
294.443
294.448
294.452
294.453
294.457
294.478
294.467
294.474
294.482
294.489
294.502
294.505
294.494
294.488
294.478
294.456
294.446
294.438
294.435
294.436
294.434
294.427
294.414
294.38
294.347
294.321
294.295
294.267
294.241
294.227
294.221
294.199
294.187
294.167
294.164
294.165
294.166
294.165
294.169
294.173
294.172
294.169
294.167
294.169
294.169
294.17
294.169
294.167
294.164
294.159
294.162
294.162
294.158
294.154
294.151
294.147
294.142
294.137
294.132
294.127
294.121
294.116
294.11
294.105
294.108
294.101
294.101
294.107
294.108
294.11
294.106
294.111
294.11
294.108
294.107
294.106
294.107
294.108
294.11
294.111
294.114
294.117
294.121
294.124
294.128
294.133
294.137
294.145
294.148
294.151
294.152
294.156
294.156
294.151
294.15
294.149
294.148
294.146
294.145
294.143
294.141
294.136
294.132
294.129
294.125
294.119
294.113
294.103
294.091
294.078
294.075
294.068
294.063
294.054
294.045
294.031
294.023
294.008
294.005
293.997
293.993
293.982
293.967
293.961
293.951
293.942
293.93
293.915
293.904
293.89
293.877
293.865
293.857
293.846
293.837
293.829
293.817
293.803
293.782
293.768
293.749
293.738
293.726
293.711
293.704
293.683
293.665
294.468
294.468
294.469
294.469
294.473
294.481
294.493
294.512
294.537
294.568
294.605
294.648
294.695
294.746
294.801
294.859
294.918
294.979
295.041
295.104
295.17
295.239
295.311
295.386
295.463
295.542
295.622
295.702
295.78
295.855
295.924
295.985
296.039
296.087
296.132
296.176
296.221
296.264
296.301
296.334
296.364
296.39
296.412
296.434
296.457
296.478
296.502
296.532
296.566
296.602
296.631
296.654
296.672
296.691
296.717
296.744
296.769
296.792
296.813
296.832
296.847
296.856
296.858
296.856
296.844
296.831
296.813
296.79
296.765
296.735
296.701
296.664
296.622
296.581
296.534
296.487
296.436
296.389
296.339
296.29
296.239
296.188
296.138
296.09
296.047
296.01
295.98
295.954
295.93
295.905
295.875
295.837
295.794
295.752
295.719
295.694
295.672
295.658
295.644
295.623
295.593
295.558
295.521
295.485
295.45
295.417
295.386
295.358
295.334
295.313
295.299
295.293
295.287
295.284
295.284
295.286
295.288
295.288
295.284
295.273
295.258
295.242
295.224
295.201
295.17
295.135
295.1
295.072
295.06
295.061
295.073
295.094
295.113
295.117
295.115
295.106
295.088
295.066
295.041
295.016
294.991
294.97
294.951
294.936
294.924
294.926
294.932
294.942
294.949
294.948
294.933
294.9
294.855
294.804
294.756
294.71
294.69
294.696
294.717
294.754
294.801
294.847
294.896
294.951
295.011
295.084
295.159
295.225
295.279
295.322
295.355
295.383
295.41
295.456
295.527
295.607
295.671
295.73
295.79
295.851
295.927
296.029
296.17
296.327
296.482
296.621
296.748
296.867
296.971
297.06
297.137
297.198
297.249
297.294
297.331
297.353
297.355
297.346
297.332
297.307
297.277
297.246
297.21
297.173
297.139
297.11
297.093
297.081
297.082
297.092
297.105
297.118
297.134
297.152
297.172
297.19
297.202
297.202
297.189
297.155
297.087
296.99
296.864
296.714
296.553
296.394
296.266
296.206
296.203
296.24
296.335
296.454
296.576
296.678
296.744
296.759
296.753
296.729
296.682
296.622
296.556
296.482
296.409
296.332
296.258
296.184
296.116
296.051
295.991
295.936
295.89
295.849
295.816
295.79
295.77
295.754
295.741
295.731
295.722
295.715
295.707
295.699
295.688
295.678
295.667
295.658
295.647
295.636
295.626
295.615
295.604
295.592
295.581
295.569
295.557
295.546
295.535
295.525
295.514
295.503
295.489
295.474
295.455
295.432
295.408
295.381
295.347
295.313
295.276
295.237
295.196
295.151
295.103
295.056
295.01
294.967
294.919
294.873
294.824
294.775
294.721
294.669
294.628
294.605
294.578
294.571
294.588
294.633
294.677
294.741
294.812
294.891
294.969
295.025
295.081
295.135
295.174
295.212
295.21
295.207
295.189
295.158
295.127
295.079
295.03
294.98
294.928
294.874
294.824
294.775
294.732
294.69
294.652
294.618
294.586
294.556
294.53
294.506
294.486
294.471
294.458
294.448
294.441
294.436
294.435
294.436
294.439
294.443
294.444
294.446
294.461
294.471
294.482
294.493
294.503
294.513
294.52
294.531
294.544
294.548
294.554
294.564
294.574
294.588
294.599
294.607
294.608
294.599
294.596
294.596
294.596
294.601
294.597
294.598
294.592
294.59
294.577
294.543
294.508
294.469
294.423
294.373
294.324
294.279
294.242
294.214
294.187
294.163
294.146
294.133
294.122
294.131
294.121
294.119
294.117
294.116
294.117
294.118
294.116
294.115
294.113
294.11
294.104
294.103
294.101
294.097
294.091
294.083
294.074
294.065
294.057
294.048
294.039
294.03
294.019
294.012
293.999
293.99
293.977
293.976
293.978
293.974
293.971
293.964
293.964
293.958
293.954
293.948
293.943
293.939
293.936
293.934
293.933
293.934
293.935
293.939
293.944
293.949
293.957
293.966
293.979
294
294.007
294.016
294.023
294.025
294.025
294.027
294.028
294.029
294.031
294.033
294.036
294.038
294.038
294.037
294.038
294.042
294.034
294.027
294.019
294.004
293.99
293.98
293.976
293.972
293.961
293.944
293.93
293.92
293.909
293.895
293.896
293.884
293.871
293.853
293.846
293.834
293.819
293.807
293.796
293.783
293.769
293.755
293.74
293.727
293.72
293.715
293.704
293.685
293.671
293.655
293.64
293.621
293.608
293.597
293.59
293.572
293.553
293.541
294.413
294.416
294.422
294.432
294.446
294.468
294.494
294.528
294.567
294.611
294.66
294.713
294.768
294.826
294.885
294.945
295.007
295.07
295.136
295.205
295.279
295.359
295.445
295.536
295.63
295.725
295.817
295.904
295.984
296.056
296.118
296.167
296.207
296.24
296.27
296.298
296.325
296.35
296.372
296.39
296.404
296.414
296.422
296.436
296.454
296.477
296.514
296.573
296.639
296.703
296.749
296.781
296.808
296.836
296.865
296.888
296.904
296.913
296.915
296.915
296.907
296.894
296.876
296.854
296.827
296.8
296.768
296.734
296.699
296.66
296.617
296.573
296.522
296.471
296.417
296.359
296.304
296.242
296.176
296.111
296.043
295.973
295.904
295.836
295.771
295.712
295.659
295.61
295.567
295.528
295.49
295.454
295.418
295.385
295.356
295.333
295.316
295.306
295.299
295.29
295.279
295.267
295.254
295.241
295.231
295.226
295.225
295.228
295.235
295.247
295.266
295.29
295.32
295.353
295.385
295.408
295.424
295.43
295.426
295.409
295.375
295.333
295.285
295.232
295.173
295.11
295.042
294.969
294.895
294.823
294.757
294.699
294.644
294.586
294.521
294.462
294.407
294.355
294.305
294.258
294.217
294.182
294.153
294.13
294.117
294.119
294.127
294.143
294.157
294.163
294.16
294.142
294.109
294.069
294.029
293.991
293.985
293.994
294.019
294.059
294.101
294.138
294.18
294.233
294.305
294.4
294.51
294.621
294.716
294.794
294.856
294.916
294.987
295.089
295.231
295.39
295.534
295.626
295.678
295.719
295.776
295.861
295.979
296.142
296.34
296.54
296.713
296.87
297.018
297.15
297.248
297.318
297.366
297.389
297.387
297.369
297.331
297.279
297.204
297.116
297.033
296.937
296.846
296.772
296.707
296.65
296.599
296.559
296.536
296.53
296.534
296.551
296.579
296.62
296.676
296.75
296.845
296.962
297.087
297.191
297.253
297.269
297.256
297.203
297.084
296.893
296.658
296.425
296.26
296.207
296.218
296.279
296.389
296.511
296.607
296.65
296.652
296.637
296.597
296.542
296.479
296.411
296.343
296.272
296.201
296.128
296.06
295.992
295.928
295.869
295.817
295.772
295.737
295.71
295.691
295.678
295.672
295.669
295.669
295.671
295.674
295.677
295.68
295.682
295.685
295.687
295.69
295.695
295.701
295.707
295.712
295.715
295.718
295.72
295.722
295.725
295.73
295.735
295.741
295.746
295.747
295.745
295.739
295.727
295.71
295.686
295.658
295.626
295.589
295.549
295.504
295.452
295.393
295.33
295.265
295.196
295.122
295.041
294.952
294.862
294.76
294.665
294.58
294.499
294.426
294.357
294.298
294.272
294.252
294.266
294.311
294.385
294.471
294.561
294.659
294.763
294.874
294.977
295.045
295.098
295.128
295.13
295.118
295.09
295.05
294.997
294.94
294.881
294.821
294.764
294.714
294.668
294.627
294.591
294.557
294.526
294.499
294.475
294.457
294.443
294.432
294.425
294.422
294.422
294.424
294.429
294.432
294.446
294.459
294.47
294.48
294.489
294.503
294.513
294.524
294.537
294.545
294.553
294.562
294.565
294.572
294.58
294.586
294.593
294.606
294.619
294.633
294.632
294.634
294.641
294.65
294.664
294.669
294.679
294.695
294.702
294.712
294.716
294.714
294.703
294.669
294.619
294.557
294.491
294.425
294.364
294.309
294.259
294.207
294.167
294.139
294.115
294.098
294.085
294.079
294.073
294.071
294.069
294.067
294.063
294.059
294.054
294.049
294.038
294.03
294.024
294.017
294.007
293.996
293.983
293.97
293.955
293.938
293.922
293.906
293.887
293.868
293.851
293.833
293.822
293.811
293.8
293.789
293.781
293.775
293.763
293.751
293.737
293.724
293.713
293.703
293.695
293.689
293.685
293.682
293.681
293.685
293.69
293.697
293.71
293.727
293.748
293.77
293.79
293.811
293.83
293.837
293.844
293.85
293.855
293.86
293.869
293.879
293.892
293.905
293.916
293.924
293.927
293.927
293.925
293.917
293.917
293.905
293.897
293.885
293.875
293.863
293.852
293.843
293.828
293.813
293.8
293.787
293.776
293.757
293.743
293.727
293.71
293.697
293.677
293.671
293.651
293.635
293.616
293.599
293.583
293.569
293.555
293.541
293.527
293.509
293.5
293.48
293.46
293.444
293.429
293.416
293.402
293.389
293.37
294.358
294.365
294.379
294.4
294.429
294.466
294.51
294.559
294.614
294.672
294.732
294.793
294.854
294.915
294.977
295.039
295.102
295.168
295.239
295.315
295.401
295.496
295.601
295.71
295.822
295.931
296.031
296.118
296.192
296.251
296.294
296.323
296.343
296.357
296.369
296.377
296.386
296.395
296.402
296.405
296.405
296.406
296.41
296.423
296.45
296.491
296.558
296.651
296.752
296.841
296.903
296.941
296.965
296.983
296.996
297.002
297.002
296.992
296.977
296.96
296.937
296.911
296.885
296.856
296.827
296.796
296.764
296.728
296.693
296.657
296.621
296.584
296.548
296.511
296.472
296.432
296.377
296.314
296.246
296.173
296.094
296.011
295.928
295.846
295.764
295.687
295.616
295.549
295.487
295.431
295.382
295.34
295.304
295.273
295.247
295.229
295.218
295.213
295.214
295.216
295.22
295.226
295.234
295.249
295.268
295.29
295.315
295.342
295.371
295.402
295.435
295.473
295.515
295.561
295.613
295.66
295.706
295.756
295.808
295.85
295.877
295.89
295.889
295.87
295.827
295.764
295.682
295.575
295.441
295.284
295.107
294.923
294.748
294.593
294.456
294.333
294.22
294.113
294.011
293.913
293.817
293.728
293.65
293.587
293.538
293.507
293.493
293.488
293.485
293.481
293.474
293.458
293.437
293.414
293.39
293.371
293.373
293.385
293.409
293.438
293.469
293.497
293.531
293.575
293.639
293.726
293.832
293.942
294.044
294.141
294.23
294.324
294.439
294.591
294.789
295.018
295.246
295.412
295.483
295.533
295.589
295.679
295.808
295.984
296.199
296.424
296.627
296.811
296.977
297.125
297.243
297.321
297.365
297.365
297.339
297.271
297.171
297.046
296.897
296.745
296.611
296.484
296.384
296.31
296.245
296.195
296.152
296.117
296.09
296.07
296.058
296.051
296.051
296.059
296.08
296.118
296.18
296.275
296.408
296.571
296.749
296.934
297.114
297.26
297.316
297.305
297.228
297.033
296.734
296.436
296.24
296.205
296.233
296.318
296.424
296.497
296.516
296.508
296.479
296.434
296.383
296.326
296.269
296.207
296.149
296.089
296.033
295.973
295.913
295.853
295.795
295.744
295.701
295.666
295.641
295.625
295.619
295.62
295.627
295.639
295.653
295.67
295.687
295.704
295.723
295.742
295.762
295.784
295.807
295.829
295.849
295.867
295.882
295.896
295.908
295.92
295.932
295.945
295.957
295.964
295.969
295.972
295.972
295.971
295.966
295.956
295.942
295.923
295.9
295.871
295.836
295.794
295.745
295.688
295.625
295.558
295.469
295.376
295.278
295.175
295.054
294.928
294.798
294.663
294.526
294.387
294.265
294.165
294.065
293.993
293.95
293.944
293.962
294.011
294.093
294.203
294.339
294.495
294.649
294.793
294.915
295.007
295.059
295.062
295.049
295.014
294.964
294.905
294.838
294.774
294.715
294.663
294.615
294.575
294.538
294.505
294.478
294.454
294.434
294.421
294.411
294.405
294.404
294.406
294.411
294.418
294.424
294.436
294.444
294.456
294.468
294.471
294.484
294.491
294.497
294.503
294.506
294.508
294.51
294.509
294.51
294.513
294.515
294.517
294.519
294.523
294.533
294.537
294.542
294.546
294.554
294.57
294.591
294.61
294.632
294.658
294.686
294.717
294.748
294.778
294.789
294.789
294.778
294.747
294.695
294.63
294.551
294.466
294.378
294.297
294.228
294.17
294.128
294.097
294.072
294.051
294.034
294.024
294.015
294.004
293.994
293.988
293.977
293.965
293.955
293.945
293.935
293.922
293.907
293.888
293.868
293.845
293.821
293.797
293.773
293.748
293.722
293.696
293.668
293.646
293.626
293.605
293.586
293.568
293.55
293.532
293.511
293.489
293.466
293.446
293.427
293.412
293.402
293.391
293.381
293.371
293.365
293.359
293.36
293.365
293.379
293.4
293.429
293.463
293.498
293.531
293.556
293.576
293.59
293.601
293.611
293.625
293.641
293.665
293.692
293.722
293.752
293.778
293.797
293.809
293.815
293.817
293.816
293.811
293.806
293.801
293.793
293.781
293.77
293.759
293.745
293.731
293.718
293.703
293.684
293.665
293.648
293.629
293.608
293.587
293.565
293.544
293.522
293.501
293.478
293.456
293.436
293.417
293.398
293.376
293.354
293.332
293.312
293.289
293.268
293.248
293.232
293.212
293.193
293.171
294.31
294.32
294.344
294.381
294.426
294.481
294.543
294.61
294.679
294.75
294.819
294.885
294.948
295.011
295.073
295.135
295.2
295.27
295.349
295.437
295.539
295.653
295.776
295.903
296.027
296.142
296.24
296.317
296.375
296.412
296.432
296.438
296.435
296.429
296.421
296.412
296.404
296.398
296.394
296.388
296.379
296.375
296.378
296.403
296.456
296.536
296.641
296.767
296.893
296.996
297.063
297.1
297.117
297.124
297.125
297.115
297.097
297.074
297.046
297.017
296.987
296.956
296.924
296.892
296.861
296.834
296.805
296.776
296.753
296.734
296.723
296.72
296.719
296.725
296.731
296.73
296.728
296.716
296.694
296.659
296.609
296.54
296.459
296.363
296.252
296.13
296.002
295.877
295.757
295.644
295.542
295.451
295.376
295.315
295.27
295.241
295.226
295.229
295.24
295.254
295.269
295.287
295.307
295.33
295.356
295.382
295.409
295.437
295.466
295.494
295.525
295.559
295.599
295.646
295.706
295.772
295.846
295.927
296.017
296.109
296.198
296.28
296.351
296.403
296.432
296.435
296.417
296.366
296.282
296.162
296.004
295.808
295.586
295.35
295.11
294.87
294.635
294.405
294.187
293.987
293.811
293.659
293.528
293.414
293.315
293.229
293.161
293.111
293.072
293.043
293.019
292.998
292.979
292.964
292.951
292.94
292.943
292.951
292.966
292.982
293
293.016
293.04
293.074
293.125
293.194
293.272
293.354
293.439
293.528
293.623
293.727
293.854
294.019
294.23
294.484
294.76
294.983
295.135
295.244
295.352
295.485
295.652
295.843
296.038
296.234
296.432
296.627
296.818
296.997
297.161
297.269
297.301
297.287
297.232
297.102
296.943
296.762
296.572
296.413
296.269
296.15
296.06
295.98
295.929
295.886
295.854
295.832
295.811
295.789
295.769
295.749
295.731
295.712
295.698
295.696
295.71
295.749
295.82
295.921
296.05
296.207
296.393
296.609
296.86
297.116
297.29
297.288
297.171
296.865
296.499
296.261
296.182
296.187
296.232
296.307
296.36
296.366
296.352
296.317
296.266
296.211
296.155
296.102
296.056
296.016
295.981
295.943
295.904
295.86
295.813
295.765
295.72
295.678
295.644
295.617
295.6
295.593
295.597
295.607
295.626
295.65
295.679
295.71
295.744
295.778
295.813
295.848
295.882
295.915
295.943
295.966
295.987
296.003
296.014
296.025
296.033
296.04
296.045
296.044
296.04
296.036
296.032
296.028
296.024
296.019
296.014
296.005
295.991
295.973
295.948
295.916
295.879
295.834
295.783
295.729
295.659
295.583
295.502
295.405
295.296
295.173
295.037
294.89
294.732
294.575
294.421
294.275
294.119
293.975
293.846
293.739
293.661
293.628
293.628
293.657
293.737
293.873
294.049
294.259
294.484
294.691
294.846
294.943
294.986
294.984
294.968
294.931
294.877
294.809
294.743
294.681
294.625
294.579
294.536
294.497
294.469
294.446
294.428
294.413
294.404
294.397
294.395
294.396
294.398
294.403
294.409
294.417
294.422
294.431
294.429
294.428
294.428
294.426
294.421
294.415
294.407
294.399
294.39
294.38
294.372
294.366
294.362
294.356
294.352
294.347
294.347
294.348
294.346
294.342
294.344
294.351
294.361
294.371
294.388
294.412
294.444
294.492
294.556
294.628
294.7
294.768
294.82
294.854
294.859
294.853
294.823
294.761
294.675
294.58
294.475
294.37
294.271
294.187
294.12
294.068
294.027
294.002
293.976
293.954
293.935
293.929
293.918
293.902
293.886
293.868
293.85
293.829
293.81
293.787
293.762
293.734
293.704
293.673
293.642
293.61
293.575
293.54
293.505
293.471
293.44
293.41
293.382
293.356
293.328
293.3
293.271
293.24
293.209
293.18
293.152
293.127
293.11
293.095
293.079
293.065
293.051
293.036
293.023
293.012
293.01
293.013
293.026
293.05
293.083
293.123
293.163
293.198
293.223
293.241
293.253
293.267
293.284
293.309
293.345
293.393
293.448
293.504
293.554
293.595
293.626
293.652
293.669
293.682
293.689
293.695
293.695
293.695
293.693
293.691
293.686
293.679
293.671
293.661
293.646
293.631
293.613
293.594
293.573
293.548
293.524
293.499
293.472
293.445
293.417
293.389
293.361
293.332
293.304
293.275
293.246
293.217
293.188
293.157
293.129
293.098
293.071
293.042
293.017
292.982
294.271
294.286
294.32
294.373
294.438
294.512
294.592
294.675
294.758
294.837
294.911
294.979
295.043
295.104
295.166
295.231
295.3
295.377
295.467
295.571
295.69
295.824
295.965
296.103
296.23
296.34
296.425
296.483
296.518
296.531
296.528
296.512
296.488
296.461
296.436
296.412
296.391
296.375
296.36
296.347
296.334
296.33
296.34
296.386
296.474
296.596
296.741
296.891
297.029
297.134
297.2
297.232
297.242
297.242
297.231
297.208
297.178
297.145
297.109
297.075
297.04
297.005
296.975
296.95
296.922
296.9
296.882
296.874
296.869
296.883
296.911
296.936
296.989
297.028
297.076
297.124
297.171
297.214
297.255
297.287
297.307
297.303
297.278
297.234
297.161
297.057
296.926
296.778
296.617
296.443
296.26
296.076
295.898
295.736
295.597
295.489
295.409
295.363
295.345
295.339
295.343
295.354
295.369
295.387
295.407
295.428
295.45
295.472
295.495
295.519
295.547
295.58
295.613
295.659
295.726
295.813
295.913
296.025
296.147
296.275
296.404
296.529
296.646
296.75
296.839
296.908
296.938
296.936
296.914
296.863
296.778
296.657
296.5
296.307
296.084
295.833
295.56
295.267
294.96
294.649
294.346
294.06
293.798
293.566
293.369
293.211
293.09
292.995
292.917
292.85
292.795
292.755
292.725
292.705
292.693
292.682
292.683
292.687
292.693
292.7
292.71
292.718
292.734
292.757
292.792
292.835
292.88
292.934
292.994
293.062
293.143
293.236
293.348
293.49
293.671
293.893
294.147
294.403
294.618
294.809
294.999
295.203
295.424
295.639
295.827
295.988
296.153
296.339
296.56
296.799
297.022
297.17
297.199
297.18
297.105
296.949