/*--------------------------------*- C++ -*----------------------------------*\
| =========                 |                                                 |
| \\      /  F ield         | OpenFOAM: The Open Source CFD Toolbox           |
|  \\    /   O peration     | Version:  v1812                                 |
|   \\  /    A nd           | Web:      www.OpenFOAM.com                      |
|    \\/     M anipulation  |                                                 |
\*---------------------------------------------------------------------------*/
FoamFile
{
    version     2.0;
    format      ascii;
    class       volVectorField;
    location    "1.3";
    object      U;
}
// * * * * * * * * * * * * * * * * * * * * * * * * * * * * * * * * * * * * * //

dimensions      [0 1 -1 0 0 0 0];


internalField   nonuniform List<vector> 
20400
(
(0.0141241 -0.0147667 0)
(0.0366492 -0.011768 0)
(0.0572165 -0.00707155 0)
(0.0766254 -0.00152654 0)
(0.0962764 -0.00143938 0)
(0.119578 0.000605245 0)
(0.139688 0.0082057 0)
(0.153768 0.0151136 0)
(0.166483 0.0176648 0)
(0.178904 0.01928 0)
(0.189962 0.0209137 0)
(0.199758 0.0208943 0)
(0.210119 0.0193278 0)
(0.221224 0.0186334 0)
(0.231971 0.0189086 0)
(0.240645 0.0208129 0)
(0.246394 0.021851 0)
(0.250574 0.0198702 0)
(0.257463 0.0142273 0)
(0.271701 0.00961691 0)
(0.291043 0.00644374 0)
(0.31717 0.00214547 0)
(0.353309 -0.00269379 0)
(0.401785 -0.00714751 0)
(0.463457 -0.00837952 0)
(0.533766 -0.00355151 0)
(0.608874 0.00629786 0)
(0.68808 0.0144022 0)
(0.770621 0.0211591 0)
(0.855459 0.0280216 0)
(0.94219 0.0343648 0)
(1.03026 0.0411222 0)
(1.11867 0.0463302 0)
(1.20794 0.0495534 0)
(1.29819 0.0525136 0)
(1.38533 0.0596359 0)
(1.46898 0.0615446 0)
(1.54386 0.0675562 0)
(1.59029 0.0829427 0)
(1.61122 0.0557132 0)
(1.64068 0.0301423 0)
(1.68655 -0.0045019 0)
(1.74875 -0.0197908 0)
(1.78722 -0.0551511 0)
(1.79201 -0.0958871 0)
(1.7782 -0.156677 0)
(1.74912 -0.14881 0)
(1.69876 -0.148319 0)
(1.64972 -0.162049 0)
(1.60306 -0.00503349 0)
(1.48801 0.0912788 0)
(1.35758 0.117324 0)
(1.19772 0.152876 0)
(1.01206 0.168759 0)
(0.818997 0.17219 0)
(0.619092 0.185572 0)
(0.397285 0.215754 0)
(0.140838 0.257297 0)
(-0.166661 0.273397 0)
(-0.520187 0.216507 0)
(-0.914803 0.104875 0)
(-1.35031 -0.0105675 0)
(-1.81637 -0.0837552 0)
(-2.29269 -0.094939 0)
(-2.76689 -0.032593 0)
(-3.23167 0.075662 0)
(-3.68707 0.172735 0)
(-4.14207 0.230423 0)
(-4.60032 0.240124 0)
(-5.05412 0.202992 0)
(-5.4953 0.124118 0)
(-5.90421 0.0323944 0)
(-6.27043 -0.00350409 0)
(-6.58847 0.00633424 0)
(-6.85554 0.0873869 0)
(-7.05266 0.216934 0)
(-7.19687 0.284662 0)
(-7.30488 0.294415 0)
(-7.37223 0.243912 0)
(-7.38972 0.207709 0)
(-7.3444 0.125456 0)
(-7.23921 0.0319837 0)
(-7.07174 -0.0504167 0)
(-6.8527 -0.112733 0)
(-6.59287 -0.16185 0)
(-6.30027 -0.19953 0)
(-5.98913 -0.22313 0)
(-5.67354 -0.237333 0)
(-5.35739 -0.246546 0)
(-5.04329 -0.248807 0)
(-4.7375 -0.261927 0)
(-4.44606 -0.272594 0)
(-4.17321 -0.278337 0)
(-3.92541 -0.268501 0)
(-3.71376 -0.235365 0)
(-3.55949 -0.18792 0)
(-3.4569 -0.163858 0)
(-3.36795 -0.160518 0)
(-3.26807 -0.142017 0)
(-3.20753 -0.0969503 0)
(-3.1907 -0.076688 0)
(-3.2159 -0.0443704 0)
(-3.27783 -0.0242127 0)
(-3.35966 -0.0191577 0)
(-3.45111 -0.0205058 0)
(-3.54342 -0.0255136 0)
(-3.62785 -0.030895 0)
(-3.69609 -0.0316349 0)
(-3.74297 -0.0230259 0)
(-3.75994 0.00379407 0)
(-3.74485 0.00553777 0)
(-3.66417 0.0898381 0)
(-3.59614 0.327218 0)
(-3.39381 0.438037 0)
(-3.12809 0.397125 0)
(-2.82374 0.239346 0)
(-2.44808 0.0731004 0)
(-2.02379 -0.0265719 0)
(-1.59945 -0.0766962 0)
(-1.19266 -0.113259 0)
(-0.796052 -0.143044 0)
(-0.412888 -0.152743 0)
(-0.0559852 -0.1429 0)
(0.260473 -0.0842595 0)
(0.530477 0.0284852 0)
(0.785829 0.141893 0)
(1.05384 0.229943 0)
(1.32514 0.294517 0)
(1.58942 0.309294 0)
(1.84895 0.297696 0)
(2.1058 0.303081 0)
(2.35287 0.333208 0)
(2.58711 0.370879 0)
(2.81556 0.393979 0)
(3.0453 0.381989 0)
(3.26848 0.289697 0)
(3.44842 0.113617 0)
(3.62361 -0.0156736 0)
(3.79208 -0.079987 0)
(3.95366 -0.118746 0)
(4.11165 -0.169565 0)
(4.26808 -0.232795 0)
(4.42412 -0.296029 0)
(4.57932 -0.348345 0)
(4.73037 -0.383566 0)
(4.87098 -0.398203 0)
(4.99008 -0.392131 0)
(5.07785 -0.369944 0)
(5.1344 -0.33673 0)
(5.17133 -0.297432 0)
(5.21323 -0.240047 0)
(5.28409 -0.151302 0)
(5.37726 -0.0337017 0)
(5.4603 0.0934293 0)
(5.50162 0.213968 0)
(5.50805 0.301022 0)
(5.50329 0.345159 0)
(5.51208 0.31485 0)
(5.54136 0.201715 0)
(5.55897 -0.0124332 0)
(5.49744 -0.0733819 0)
(5.39756 -0.0185095 0)
(5.24655 0.0376305 0)
(5.06829 0.0903131 0)
(4.88201 0.130594 0)
(4.69806 0.129195 0)
(4.51074 0.11566 0)
(4.3091 0.108202 0)
(4.1011 0.129732 0)
(3.9042 0.177734 0)
(3.73258 0.229572 0)
(3.60871 0.25285 0)
(3.5252 0.203723 0)
(3.52212 -0.0228552 0)
(3.53075 -0.279744 0)
(3.43525 -0.386073 0)
(3.29372 -0.321317 0)
(3.18307 -0.145205 0)
(3.05875 -0.0198853 0)
(2.94633 -0.00254949 0)
(2.90657 -0.0311331 0)
(2.89624 0.0240729 0)
(2.91063 0.132018 0)
(2.92698 0.199172 0)
(2.87673 0.252572 0)
(2.79169 0.251884 0)
(2.70034 0.157166 0)
(2.73211 -0.508117 0)
(2.64833 -0.674172 0)
(2.46177 -0.383061 0)
(2.04803 -0.180199 0)
(1.60338 -0.106286 0)
(1.1963 -0.0336773 0)
(0.784487 0.0702424 0)
(0.329015 0.169457 0)
(-0.145798 0.254511 0)
(-0.576756 0.402357 0)
(-0.988 0.384398 0)
(-1.37127 0.367636 0)
(-1.75512 0.366116 0)
(-2.08633 0.283157 0)
(-2.33108 0.206711 0)
(-2.51835 0.161722 0)
(-2.65347 0.107564 0)
(-2.74137 0.0611651 0)
(-2.77732 -0.00830153 0)
(-2.69142 -0.134683 0)
(-2.49707 -0.206856 0)
(-2.25846 -0.236935 0)
(-1.99041 -0.264736 0)
(-1.68006 -0.322429 0)
(-1.30694 -0.376731 0)
(-0.894475 -0.394524 0)
(-0.473772 -0.392178 0)
(-0.0562283 -0.37695 0)
(0.339161 -0.28955 0)
(0.724749 -0.244279 0)
(1.09796 -0.242696 0)
(1.43733 -0.247 0)
(1.73588 -0.238406 0)
(1.99836 -0.218355 0)
(2.23865 -0.169619 0)
(2.47245 -0.0876249 0)
(2.70771 -0.00502092 0)
(2.93878 0.0736428 0)
(3.16908 0.125873 0)
(3.39455 0.148402 0)
(3.5289 -0.115287 0)
(3.72763 -0.241522 0)
(3.91967 -0.185152 0)
(4.07356 -0.147226 0)
(4.1593 -0.109639 0)
(4.20254 -0.0816905 0)
(4.20494 -0.0373939 0)
(4.15424 -0.00133124 0)
(4.08398 0.0129574 0)
(4.04261 0.0345652 0)
(4.04158 0.0488168 0)
(4.04895 0.0461672 0)
(4.02136 0.00743678 0)
(3.90957 -0.0601593 0)
(3.73362 -0.133776 0)
(3.5315 -0.18224 0)
(3.33455 -0.202589 0)
(3.15361 -0.206379 0)
(2.98524 -0.207151 0)
(2.82466 -0.213457 0)
(2.67676 -0.222131 0)
(2.53331 -0.175623 0)
(2.4161 -0.060032 0)
(2.27808 -0.00539778 0)
(2.14884 -0.0326619 0)
(2.04533 -0.0733352 0)
(1.97903 -0.107698 0)
(1.94376 -0.13012 0)
(1.92646 -0.143579 0)
(1.93084 -0.157615 0)
(1.95767 -0.178792 0)
(1.99894 -0.194234 0)
(2.04043 -0.198965 0)
(2.06914 -0.193131 0)
(2.07909 -0.188291 0)
(2.07642 -0.190782 0)
(2.06668 -0.185667 0)
(2.04861 -0.181295 0)
(2.02477 -0.176679 0)
(1.99427 -0.167312 0)
(1.95644 -0.15399 0)
(1.91119 -0.130795 0)
(1.85034 -0.106579 0)
(1.77744 -0.0905358 0)
(1.69946 -0.0754561 0)
(1.62105 -0.0618269 0)
(1.53795 -0.0507965 0)
(1.45162 -0.00495344 0)
(1.39976 0.060685 0)
(1.35872 0.0726969 0)
(1.30377 0.0775987 0)
(1.24593 0.075245 0)
(1.19077 0.0675848 0)
(1.14515 0.0512447 0)
(1.1208 0.0247212 0)
(1.11936 0.0058562 0)
(1.14222 -0.012277 0)
(1.19345 -0.00313763 0)
(1.23394 0.0634256 0)
(1.30463 0.0937703 0)
(1.3799 0.110657 0)
(1.46235 0.131779 0)
(1.54082 0.174395 0)
(1.60373 0.231479 0)
(1.68164 0.264198 0)
(1.79212 0.274429 0)
(1.94676 0.27959 0)
(2.13507 0.299503 0)
(2.32821 0.390125 0)
(2.39726 0.568725 0)
(2.46845 0.358982 0)
(2.49017 -0.28442 0)
(2.6618 -0.417346 0)
(2.83858 -0.418932 0)
(3.02306 -0.334093 0)
(3.23817 -0.31897 0)
(3.46738 -0.230853 0)
(3.65352 0.108404 0)
(3.81488 0.55125 0)
(4.14698 0.639769 0)
(4.36599 0.838318 0)
(4.59862 0.372544 0)
(4.67112 -0.269571 0)
(4.81492 -0.369935 0)
(4.90716 -0.347877 0)
(4.95244 0.0606878 0)
(5.14819 0.331292 0)
(5.23828 0.54999 0)
(5.43555 0.320669 0)
(5.45925 -0.557699 0)
(5.54103 -0.744462 0)
(5.59026 -0.571356 0)
(5.65959 -0.344321 0)
(5.80764 -0.258218 0)
(5.93818 -0.243652 0)
(5.9977 -0.07252 0)
(6.10919 0.0937654 0)
(6.15579 0.315014 0)
(6.24404 0.187838 0)
(6.27608 -0.0896732 0)
(6.33564 -0.119258 0)
(6.36438 -0.0921988 0)
(6.39941 -0.0521026 0)
(6.41477 0.0167575 0)
(6.41598 0.0600508 0)
(6.39448 0.082539 0)
(6.35516 0.098935 0)
(6.29354 0.109983 0)
(6.21411 0.114804 0)
(6.1131 0.129023 0)
(5.98821 0.137831 0)
(5.84586 0.146353 0)
(5.69502 0.151025 0)
(5.55066 0.165196 0)
(5.42866 0.196745 0)
(5.35008 0.227506 0)
(5.31194 0.225249 0)
(5.2967 0.219104 0)
(5.27572 0.228407 0)
(5.21429 0.233812 0)
(5.14698 -0.268686 0)
(5.00517 -0.743906 0)
(4.78836 -0.559125 0)
(4.77401 0.697911 0)
(4.62762 0.753837 0)
(4.56028 0.721971 0)
(4.52412 0.695714 0)
(4.54029 0.66012 0)
(4.64416 0.633627 0)
(4.79768 0.593085 0)
(4.99609 0.583172 0)
(5.03838 -0.58978 0)
(5.08947 -0.593809 0)
(5.17739 -0.571492 0)
(5.30648 -0.488988 0)
(5.3751 -0.369448 0)
(5.44574 -0.493663 0)
(5.56857 -0.583624 0)
(5.68788 0.258474 0)
(5.97923 0.775895 0)
(6.1265 -0.550259 0)
(6.0503 -0.799871 0)
(6.10639 -0.850548 0)
(6.18776 -0.840631 0)
(6.2818 -0.792838 0)
(6.41279 -0.681218 0)
(6.57961 -0.529871 0)
(6.81377 -0.437918 0)
(6.9736 -0.153047 0)
(7.09575 0.251597 0)
(7.25402 0.547913 0)
(7.4083 0.767133 0)
(7.64713 0.902197 0)
(7.88592 1.03586 0)
(8.0344 1.15697 0)
(8.13803 0.14859 0)
(8.10135 -0.788364 0)
(7.89462 -0.907851 0)
(7.86427 -0.987588 0)
(7.87608 -0.994033 0)
(7.89356 -0.886198 0)
(7.92178 -0.608093 0)
(7.86634 -0.287578 0)
(7.89353 0.112331 0)
(7.92389 0.416067 0)
(7.95909 0.58516 0)
(7.9929 0.0169301 0)
(7.96855 -0.402577 0)
(7.9434 -0.294118 0)
(7.93652 -0.113719 0)
(7.86264 0.0147128 0)
(7.75338 0.0445427 0)
(7.65634 0.0624174 0)
(7.58196 0.0968745 0)
(7.535 0.147391 0)
(7.53219 0.245774 0)
(7.50476 0.364533 0)
(7.42983 0.407305 0)
(7.34218 0.414429 0)
(7.24966 0.356207 0)
(7.15058 0.24457 0)
(7.00936 0.201181 0)
(6.86634 0.185484 0)
(6.72033 0.180464 0)
(6.57276 0.174202 0)
(6.43162 0.162495 0)
(6.31219 0.158339 0)
(6.22884 0.196927 0)
(6.17525 0.255235 0)
(6.11809 0.320609 0)
(6.07211 0.0519482 0)
(5.96533 -0.0764574 0)
(5.92704 0.133748 0)
(5.91743 0.14874 0)
(5.92852 0.160231 0)
(5.95667 0.27219 0)
(5.97422 0.557043 0)
(5.96549 -0.298299 0)
(5.77923 -0.467857 0)
(5.66855 -0.484595 0)
(5.6157 -0.501033 0)
(5.60133 -0.514976 0)
(5.60454 -0.520627 0)
(5.61613 -0.534123 0)
(5.63933 -0.549488 0)
(5.66834 -0.561998 0)
(5.70057 -0.571028 0)
(5.73494 -0.57354 0)
(5.77048 -0.566915 0)
(5.80486 -0.546175 0)
(5.83652 -0.510179 0)
(5.87519 -0.45782 0)
(5.89816 -0.392157 0)
(5.96358 -0.358837 0)
(6.00863 -0.178015 0)
(6.11211 -0.0180126 0)
(6.23934 -0.128749 0)
(6.28932 -0.387536 0)
(6.34173 -0.477631 0)
(6.36832 -0.475892 0)
(6.3763 -0.471809 0)
(6.38632 -0.466464 0)
(6.3954 -0.454534 0)
(6.40714 -0.428842 0)
(6.41494 -0.388238 0)
(6.42428 -0.339597 0)
(6.42714 -0.287985 0)
(6.4282 -0.233974 0)
(6.39347 -0.175391 0)
(6.38932 -0.074941 0)
(6.40935 0.0743558 0)
(6.46801 0.165919 0)
(6.51598 0.214666 0)
(6.55104 0.163745 0)
(6.52769 -0.101572 0)
(6.46325 -0.304591 0)
(6.3959 -0.201381 0)
(6.36647 0.00239798 0)
(6.36477 0.196988 0)
(6.39241 0.23544 0)
(6.38641 0.00753512 0)
(6.35868 -0.242049 0)
(6.32075 -0.23158 0)
(6.24095 -0.169119 0)
(6.16048 -0.0700274 0)
(6.15814 0.110322 0)
(6.18618 0.167343 0)
(6.18463 0.222812 0)
(6.14142 0.0193427 0)
(6.09355 0.173791 0)
(6.12299 0.268694 0)
(6.10688 0.423611 0)
(6.08833 0.117089 0)
(6.0721 -0.363698 0)
(5.98788 -0.468189 0)
(5.94515 -0.389872 0)
(5.90208 -0.270331 0)
(5.81343 -0.183786 0)
(5.71065 -0.154492 0)
(5.68857 -0.0378395 0)
(5.74789 0.0633751 0)
(5.83291 0.113642 0)
(5.84824 0.203403 0)
(5.83487 0.0545031 0)
(5.82 -0.249729 0)
(5.79948 -0.250071 0)
(5.76451 -0.197349 0)
(5.69111 -0.155482 0)
(5.67869 -0.0697526 0)
(5.69376 0.0962824 0)
(5.74173 0.154588 0)
(5.77623 -0.0106475 0)
(5.78628 -0.177132 0)
(0.0348937 -0.0539939 0)
(0.0440941 -0.0401011 0)
(0.0703206 -0.0463032 0)
(0.0954075 -0.0410129 0)
(0.119624 -0.0468666 0)
(0.145926 -0.0474255 0)
(0.170713 -0.0412354 0)
(0.196058 -0.0377977 0)
(0.222262 -0.0388834 0)
(0.249297 -0.0391976 0)
(0.276536 -0.0378164 0)
(0.304308 -0.0384439 0)
(0.333288 -0.0411754 0)
(0.363342 -0.0424036 0)
(0.394495 -0.0436553 0)
(0.427123 -0.0423233 0)
(0.461358 -0.0419101 0)
(0.497571 -0.043882 0)
(0.536267 -0.0534216 0)
(0.579043 -0.0619299 0)
(0.624618 -0.0698623 0)
(0.672866 -0.0806738 0)
(0.723703 -0.0941983 0)
(0.776446 -0.109215 0)
(0.836896 -0.121756 0)
(0.918518 -0.130422 0)
(1.01633 -0.138949 0)
(1.11801 -0.143571 0)
(1.22239 -0.14788 0)
(1.3293 -0.150269 0)
(1.43763 -0.154017 0)
(1.54443 -0.15486 0)
(1.6453 -0.154235 0)
(1.73947 -0.153485 0)
(1.82637 -0.152019 0)
(1.90113 -0.146325 0)
(1.96773 -0.141192 0)
(2.02365 -0.118521 0)
(2.04694 -0.0718413 0)
(2.07117 -0.0655279 0)
(2.08281 -0.0758775 0)
(2.08593 -0.0944488 0)
(2.08443 -0.0846059 0)
(2.07416 -0.041899 0)
(2.03953 -0.0132414 0)
(1.98657 0.00386335 0)
(1.9267 0.0457863 0)
(1.84602 0.0674635 0)
(1.73821 0.0501001 0)
(1.61333 0.19706 0)
(1.33888 0.304465 0)
(0.938737 0.330376 0)
(0.447323 0.339779 0)
(-0.0983226 0.33476 0)
(-0.66041 0.330169 0)
(-1.2102 0.350473 0)
(-1.73605 0.394262 0)
(-2.24168 0.45223 0)
(-2.74598 0.555994 0)
(-3.29646 0.730287 0)
(-3.96299 0.933049 0)
(-4.76632 1.08555 0)
(-5.66547 1.11076 0)
(-6.60443 1.03678 0)
(-7.54775 0.908148 0)
(-8.4642 0.757192 0)
(-9.33123 0.644563 0)
(-10.1409 0.598162 0)
(-10.8787 0.582907 0)
(-11.5234 0.59008 0)
(-12.068 0.604439 0)
(-12.511 0.585291 0)
(-12.8627 0.525119 0)
(-13.141 0.435632 0)
(-13.3426 0.309669 0)
(-13.4505 0.155025 0)
(-13.4645 0.0394887 0)
(-13.4292 -0.00322808 0)
(-13.3964 -0.0480035 0)
(-13.2942 -0.0970621 0)
(-13.1317 -0.149673 0)
(-12.9164 -0.196197 0)
(-12.6498 -0.242781 0)
(-12.3392 -0.281495 0)
(-11.9918 -0.313488 0)
(-11.6118 -0.335123 0)
(-11.2113 -0.338203 0)
(-10.8097 -0.332274 0)
(-10.4186 -0.327679 0)
(-10.0447 -0.318932 0)
(-9.68758 -0.29354 0)
(-9.33768 -0.260289 0)
(-8.98089 -0.223326 0)
(-8.6109 -0.179643 0)
(-8.23497 -0.124951 0)
(-7.87341 -0.0517481 0)
(-7.54075 -0.00652765 0)
(-7.2566 -0.02542 0)
(-7.03678 -0.0268435 0)
(-6.88465 0.0348127 0)
(-6.76161 0.0766356 0)
(-6.65763 0.122507 0)
(-6.55335 0.152165 0)
(-6.44581 0.166156 0)
(-6.33143 0.168891 0)
(-6.20375 0.16069 0)
(-6.06128 0.14115 0)
(-5.90277 0.111184 0)
(-5.72884 0.0705095 0)
(-5.53666 0.0301618 0)
(-5.32107 -0.0180159 0)
(-5.08027 -0.103942 0)
(-4.74938 -0.200327 0)
(-4.31254 -0.388301 0)
(-3.76635 -0.534586 0)
(-3.2023 -0.64411 0)
(-2.6668 -0.716867 0)
(-2.16815 -0.732743 0)
(-1.70124 -0.70089 0)
(-1.2632 -0.673067 0)
(-0.842019 -0.656926 0)
(-0.449948 -0.611223 0)
(-0.0592692 -0.617647 0)
(0.408042 -0.734709 0)
(1.02721 -0.857233 0)
(1.7619 -0.95274 0)
(2.5534 -1.00044 0)
(3.32983 -0.947395 0)
(4.04872 -0.864312 0)
(4.68798 -0.791231 0)
(5.24899 -0.748908 0)
(5.74196 -0.72907 0)
(6.1845 -0.723527 0)
(6.6011 -0.722872 0)
(7.01129 -0.689716 0)
(7.41152 -0.577835 0)
(7.78024 -0.402285 0)
(8.13612 -0.280035 0)
(8.4786 -0.22201 0)
(8.81166 -0.191464 0)
(9.13913 -0.158002 0)
(9.46171 -0.118205 0)
(9.78205 -0.078268 0)
(10.106 -0.0433253 0)
(10.4412 -0.0116688 0)
(10.7949 0.0212856 0)
(11.168 0.0643 0)
(11.5581 0.108542 0)
(11.9576 0.134595 0)
(12.3422 0.124698 0)
(12.6642 0.0556678 0)
(12.8689 -0.0662701 0)
(12.9544 -0.170988 0)
(12.9843 -0.213554 0)
(13.0198 -0.231485 0)
(13.0703 -0.261144 0)
(13.1397 -0.299371 0)
(13.2207 -0.322422 0)
(13.2969 -0.263148 0)
(13.2975 -0.0243414 0)
(13.3017 0.119447 0)
(13.2439 0.19144 0)
(13.1497 0.214813 0)
(13.004 0.203242 0)
(12.776 0.16627 0)
(12.4655 0.159201 0)
(12.1077 0.195529 0)
(11.7228 0.224931 0)
(11.3217 0.207067 0)
(10.8996 0.129686 0)
(10.4486 0.00907987 0)
(10.0058 -0.136716 0)
(9.62662 -0.188198 0)
(9.33062 -0.0589121 0)
(9.09209 0.213941 0)
(8.75142 0.439555 0)
(8.39696 0.468514 0)
(8.17563 0.297503 0)
(7.98932 0.189053 0)
(7.83704 0.075234 0)
(7.71628 -0.0155627 0)
(7.57092 -0.0599633 0)
(7.2716 -0.183351 0)
(6.80091 -0.148129 0)
(6.28335 -0.0913989 0)
(5.76681 -0.0735754 0)
(5.25306 -0.056599 0)
(4.67577 0.220089 0)
(3.92473 0.534402 0)
(3.23414 0.833394 0)
(2.62671 0.932677 0)
(2.08055 0.875968 0)
(1.57693 0.807903 0)
(1.09039 0.827827 0)
(0.600375 0.862703 0)
(0.10756 0.817726 0)
(-0.32243 0.672369 0)
(-0.724613 0.618605 0)
(-1.10656 0.572816 0)
(-1.48477 0.549687 0)
(-1.80593 0.408737 0)
(-2.02211 0.264498 0)
(-2.13611 0.184018 0)
(-2.13524 0.136981 0)
(-2.05238 0.0734994 0)
(-1.92296 -0.0388313 0)
(-1.74414 -0.229123 0)
(-1.4581 -0.364227 0)
(-1.1102 -0.437301 0)
(-0.716041 -0.489825 0)
(-0.278089 -0.569454 0)
(0.224013 -0.636774 0)
(0.782892 -0.648433 0)
(1.37839 -0.62496 0)
(2.00167 -0.58501 0)
(2.66838 -0.589695 0)
(3.37542 -0.548439 0)
(4.08572 -0.459452 0)
(4.76037 -0.340032 0)
(5.38355 -0.255722 0)
(5.92626 -0.203661 0)
(6.35977 -0.224311 0)
(6.65739 -0.294732 0)
(6.86741 -0.345777 0)
(7.05926 -0.395211 0)
(7.25439 -0.426039 0)
(7.42855 -0.326352 0)
(7.49172 -0.180231 0)
(7.62195 -0.0925554 0)
(7.81755 -0.120104 0)
(7.98304 -0.0419463 0)
(8.07205 0.0337555 0)
(8.1186 0.071741 0)
(8.1187 0.108661 0)
(8.04179 0.160907 0)
(7.85161 0.146878 0)
(7.54773 0.0632668 0)
(7.16217 0.0302002 0)
(6.75375 0.0336088 0)
(6.33475 0.128231 0)
(5.905 0.253549 0)
(5.46317 0.330882 0)
(5.03403 0.344798 0)
(4.64045 0.330912 0)
(4.29054 0.304779 0)
(3.97862 0.292603 0)
(3.69528 0.278778 0)
(3.43591 0.262639 0)
(3.20196 0.24323 0)
(3.02011 0.209407 0)
(2.90605 0.188703 0)
(2.8476 0.189663 0)
(2.8152 0.155886 0)
(2.76801 0.122077 0)
(2.71651 0.0975833 0)
(2.66436 0.0776475 0)
(2.61709 0.0540825 0)
(2.57802 0.0280745 0)
(2.53919 0.0176359 0)
(2.50248 0.0224818 0)
(2.4682 0.0408452 0)
(2.43066 0.0593634 0)
(2.38725 0.0661066 0)
(2.34104 0.076188 0)
(2.29061 0.0836222 0)
(2.23548 0.0906762 0)
(2.17419 0.100946 0)
(2.10601 0.108701 0)
(2.03252 0.124265 0)
(1.95278 0.141592 0)
(1.8671 0.149706 0)
(1.77776 0.154787 0)
(1.68526 0.155932 0)
(1.5913 0.15632 0)
(1.49649 0.16208 0)
(1.38963 0.142952 0)
(1.27633 0.124193 0)
(1.19061 0.1091 0)
(1.12841 0.0961036 0)
(1.08626 0.07997 0)
(1.06643 0.057361 0)
(1.07624 0.0248705 0)
(1.10808 -0.00149429 0)
(1.14649 -0.034367 0)
(1.20008 -0.0518697 0)
(1.26977 -0.104942 0)
(1.37083 -0.132309 0)
(1.46512 -0.152861 0)
(1.5653 -0.17226 0)
(1.67891 -0.189927 0)
(1.81252 -0.220344 0)
(1.9678 -0.277097 0)
(2.14949 -0.352885 0)
(2.36038 -0.414124 0)
(2.59007 -0.442497 0)
(2.85247 -0.423123 0)
(3.26071 -0.301005 0)
(3.82823 -0.202412 0)
(4.2422 -0.015262 0)
(4.54006 0.00512748 0)
(4.8474 -0.0411546 0)
(5.21858 -0.0953672 0)
(5.63373 -0.128348 0)
(6.03781 -0.139902 0)
(6.36047 -0.331429 0)
(6.60424 -0.606038 0)
(6.93994 -0.742032 0)
(7.28585 -0.602068 0)
(7.67054 -0.374752 0)
(8.04729 -0.0416624 0)
(8.44557 0.100393 0)
(8.79359 0.112653 0)
(8.93865 -0.192482 0)
(8.90009 -0.288458 0)
(8.94195 -0.27427 0)
(9.02636 -0.329446 0)
(9.06116 0.171361 0)
(9.11916 0.318183 0)
(9.19313 0.198972 0)
(9.36868 0.029768 0)
(9.66838 -0.0307459 0)
(9.98676 0.0421227 0)
(10.2084 -0.0351515 0)
(10.2494 -0.0937853 0)
(10.2345 -0.111396 0)
(10.2407 -0.131206 0)
(10.264 0.0187287 0)
(10.3605 0.072306 0)
(10.4254 0.0550209 0)
(10.4556 0.0466363 0)
(10.4683 0.0514186 0)
(10.4356 0.0591314 0)
(10.3065 0.0723291 0)
(10.0848 0.0993309 0)
(9.81287 0.121619 0)
(9.53635 0.143681 0)
(9.27272 0.171801 0)
(9.03 0.196689 0)
(8.8171 0.213648 0)
(8.63771 0.215123 0)
(8.48601 0.192736 0)
(8.34427 0.145468 0)
(8.19582 0.065647 0)
(8.01363 0.0261515 0)
(7.81939 0.0180992 0)
(7.62065 0.0493907 0)
(7.38575 0.0698812 0)
(7.18291 0.309098 0)
(6.94753 0.409798 0)
(6.84765 0.479975 0)
(6.81859 -0.00601962 0)
(6.88325 -0.0744578 0)
(6.95269 -0.109543 0)
(7.03156 -0.167455 0)
(7.14557 -0.23367 0)
(7.22869 -0.364994 0)
(7.33296 -0.383128 0)
(7.42564 -0.308453 0)
(7.50702 0.234911 0)
(7.74373 0.172609 0)
(8.06209 0.094309 0)
(8.46654 0.056251 0)
(8.91802 0.144014 0)
(9.35509 0.0605668 0)
(9.62306 0.175586 0)
(9.70783 -0.478316 0)
(9.90607 -0.487974 0)
(10.0129 0.307532 0)
(10.2822 0.357952 0)
(10.5704 0.329628 0)
(10.9017 0.300058 0)
(11.2748 0.255334 0)
(11.7122 0.129403 0)
(12.2257 0.00878815 0)
(12.7679 -0.0263612 0)
(13.1896 -0.0846331 0)
(13.3218 -0.283859 0)
(13.2447 -0.397261 0)
(13.2695 -0.553298 0)
(13.3286 -0.705319 0)
(13.4449 -0.704685 0)
(13.5706 -0.561416 0)
(13.5891 -0.069944 0)
(13.656 0.562701 0)
(13.7139 0.53149 0)
(13.7021 0.445705 0)
(13.7216 0.442504 0)
(13.742 0.377166 0)
(13.8399 0.287057 0)
(14.0336 0.195832 0)
(14.1435 -0.0341297 0)
(14.0152 -0.16977 0)
(13.7954 -0.231973 0)
(13.6657 0.00176828 0)
(13.6208 0.203989 0)
(13.649 0.178093 0)
(13.6956 0.142754 0)
(13.711 0.153051 0)
(13.6653 0.157569 0)
(13.5594 0.129853 0)
(13.3885 0.0745226 0)
(13.143 0.0139879 0)
(12.8397 -0.0244257 0)
(12.5112 -0.026721 0)
(12.2195 -0.00332588 0)
(11.9725 0.00274163 0)
(11.7437 0.0354293 0)
(11.5646 0.112869 0)
(11.4182 0.149385 0)
(11.2813 0.155691 0)
(11.1316 0.159596 0)
(10.9725 0.159904 0)
(10.8145 0.145385 0)
(10.6516 0.0978324 0)
(10.4504 0.0337208 0)
(10.2017 0.0170642 0)
(10.0071 -0.0404499 0)
(9.96213 0.137358 0)
(9.99584 0.132948 0)
(9.9889 -0.0172011 0)
(9.83083 -0.0452508 0)
(9.59038 -0.055996 0)
(9.37039 -0.126202 0)
(9.23334 -0.172646 0)
(9.19533 0.29655 0)
(9.20107 0.322504 0)
(9.19608 0.27034 0)
(9.2013 0.214126 0)
(9.23494 0.185946 0)
(9.28748 0.179555 0)
(9.35613 0.169299 0)
(9.43868 0.163726 0)
(9.53258 0.164035 0)
(9.63854 0.164829 0)
(9.75858 0.166038 0)
(9.89555 0.164802 0)
(10.0528 0.161331 0)
(10.2284 0.14366 0)
(10.4313 0.121686 0)
(10.6657 0.0936968 0)
(10.9137 0.0597403 0)
(11.0236 -0.108399 0)
(10.9952 -0.129398 0)
(10.9252 -0.165268 0)
(10.8793 0.0300389 0)
(10.9732 0.11653 0)
(11.0995 0.149523 0)
(11.1988 0.150166 0)
(11.2886 0.149071 0)
(11.3837 0.144846 0)
(11.4931 0.133541 0)
(11.6126 0.121582 0)
(11.7318 0.103391 0)
(11.8536 0.0893796 0)
(11.9985 0.087775 0)
(12.1686 0.079229 0)
(12.2971 -0.0148922 0)
(12.2731 -0.14795 0)
(12.1048 -0.211648 0)
(11.9179 -0.182112 0)
(11.7492 -0.144503 0)
(11.721 0.0756658 0)
(11.8632 0.152489 0)
(12.0555 0.136919 0)
(12.1586 -0.0143144 0)
(12.0228 -0.177451 0)
(11.8091 -0.159274 0)
(11.6988 -0.0161628 0)
(11.7084 0.0828614 0)
(11.8576 0.145846 0)
(12.0998 0.18181 0)
(12.2942 0.0603294 0)
(12.239 -0.117981 0)
(11.9815 -0.141311 0)
(11.708 -0.133529 0)
(11.6251 0.023917 0)
(11.6061 -0.115193 0)
(11.4312 -0.16774 0)
(11.2392 -0.217944 0)
(11.0807 -0.0659505 0)
(11.0353 0.239465 0)
(11.0223 0.216374 0)
(11.0564 0.226683 0)
(11.1797 0.202164 0)
(11.404 0.21519 0)
(11.6653 0.14234 0)
(11.7791 -0.0360194 0)
(11.6264 -0.179772 0)
(11.3513 -0.15364 0)
(11.1051 -0.122612 0)
(10.9203 -0.0238409 0)
(10.8846 0.114393 0)
(10.9709 0.143124 0)
(11.1669 0.179006 0)
(11.4262 0.138831 0)
(11.597 0.0237945 0)
(11.5451 -0.11615 0)
(11.3643 -0.137311 0)
(11.2538 -0.0327432 0)
(11.3015 0.0837964 0)
(0.0266287 -0.097741 0)
(0.0310619 -0.060368 0)
(0.0382518 -0.0729433 0)
(0.052513 -0.0687199 0)
(0.0674432 -0.0793094 0)
(0.0854334 -0.0823529 0)
(0.0998013 -0.0799006 0)
(0.113089 -0.0783939 0)
(0.125871 -0.0819507 0)
(0.138595 -0.0824007 0)
(0.147227 -0.0790492 0)
(0.152557 -0.079837 0)
(0.154518 -0.0830889 0)
(0.15644 -0.0831148 0)
(0.162842 -0.0825843 0)
(0.182204 -0.0808344 0)
(0.215346 -0.0846823 0)
(0.257204 -0.091752 0)
(0.304565 -0.112715 0)
(0.364678 -0.131175 0)
(0.43531 -0.152173 0)
(0.516823 -0.180205 0)
(0.609252 -0.212057 0)
(0.708724 -0.23698 0)
(0.802711 -0.260113 0)
(0.888711 -0.29057 0)
(0.980649 -0.309232 0)
(1.07857 -0.319005 0)
(1.1807 -0.328692 0)
(1.28499 -0.332592 0)
(1.38971 -0.336915 0)
(1.49427 -0.334268 0)
(1.59553 -0.32828 0)
(1.69023 -0.321482 0)
(1.77645 -0.30742 0)
(1.85092 -0.283561 0)
(1.9211 -0.268897 0)
(1.9744 -0.215855 0)
(1.99878 -0.144282 0)
(2.00425 -0.111548 0)
(1.97525 -0.0926737 0)
(1.92639 -0.0938824 0)
(1.86085 -0.0635085 0)
(1.77912 0.0188449 0)
(1.64814 0.0989574 0)
(1.47695 0.141079 0)
(1.28965 0.200342 0)
(1.07775 0.250288 0)
(0.81226 0.267617 0)
(0.525891 0.41183 0)
(0.218717 0.678989 0)
(-0.257697 0.975832 0)
(-0.934486 1.16691 0)
(-1.77587 1.20886 0)
(-2.7214 1.14418 0)
(-3.71103 1.05007 0)
(-4.71009 0.984719 0)
(-5.70844 0.962444 0)
(-6.70402 0.999916 0)
(-7.68411 1.10462 0)
(-8.61292 1.29191 0)
(-9.48637 1.45632 0)
(-10.2996 1.58549 0)
(-11.0602 1.67588 0)
(-11.793 1.73262 0)
(-12.5142 1.72653 0)
(-13.2163 1.66264 0)
(-13.894 1.57284 0)
(-14.5277 1.42215 0)
(-15.1002 1.23575 0)
(-15.6063 1.0408 0)
(-16.022 0.834997 0)
(-16.3546 0.685347 0)
(-16.582 0.545592 0)
(-16.6944 0.404652 0)
(-16.6735 0.2522 0)
(-16.5099 0.116697 0)
(-16.2195 0.0909909 0)
(-15.8781 -0.00417168 0)
(-15.5077 -0.146162 0)
(-15.1194 -0.276069 0)
(-14.7339 -0.40214 0)
(-14.3463 -0.517725 0)
(-13.9521 -0.610256 0)
(-13.5485 -0.690089 0)
(-13.1249 -0.754983 0)
(-12.6773 -0.782638 0)
(-12.219 -0.778356 0)
(-11.7614 -0.764207 0)
(-11.3125 -0.738577 0)
(-10.8734 -0.718302 0)
(-10.4396 -0.710734 0)
(-10.0031 -0.722842 0)
(-9.55693 -0.72219 0)
(-9.10288 -0.68421 0)
(-8.65309 -0.60363 0)
(-8.21522 -0.51933 0)
(-7.84439 -0.431838 0)
(-7.60985 -0.311911 0)
(-7.45289 -0.204578 0)
(-7.28529 -0.146014 0)
(-7.12178 -0.0954048 0)
(-6.95578 -0.0676308 0)
(-6.78879 -0.0588458 0)
(-6.61813 -0.0658426 0)
(-6.44254 -0.086366 0)
(-6.25954 -0.118541 0)
(-6.06643 -0.159822 0)
(-5.86121 -0.209648 0)
(-5.64074 -0.2629 0)
(-5.38265 -0.340954 0)
(-5.0783 -0.588604 0)
(-4.56683 -0.994103 0)
(-3.82847 -1.37589 0)
(-2.95722 -1.54633 0)
(-2.06773 -1.54667 0)
(-1.21114 -1.48028 0)
(-0.395818 -1.41701 0)
(0.3756 -1.32896 0)
(1.11063 -1.24479 0)
(1.83429 -1.16895 0)
(2.57469 -1.07491 0)
(3.3392 -0.995639 0)
(4.1075 -0.99527 0)
(4.85332 -1.08347 0)
(5.56974 -1.15796 0)
(6.25472 -1.18671 0)
(6.91311 -1.14161 0)
(7.54841 -1.06014 0)
(8.16402 -0.956864 0)
(8.75225 -0.831675 0)
(9.29999 -0.705817 0)
(9.80064 -0.615729 0)
(10.2565 -0.591895 0)
(10.6754 -0.608645 0)
(11.073 -0.655602 0)
(11.4678 -0.716069 0)
(11.868 -0.752221 0)
(12.2647 -0.764377 0)
(12.6543 -0.771926 0)
(13.0367 -0.786394 0)
(13.412 -0.808283 0)
(13.7799 -0.836495 0)
(14.1408 -0.871445 0)
(14.4964 -0.910421 0)
(14.8493 -0.945513 0)
(15.1975 -0.959864 0)
(15.5324 -0.958924 0)
(15.853 -0.930565 0)
(16.1636 -0.840632 0)
(16.4525 -0.652121 0)
(16.7278 -0.410349 0)
(17.0178 -0.205357 0)
(17.342 -0.0834498 0)
(17.7088 -0.0252528 0)
(18.1279 -0.00559611 0)
(18.5885 -0.00812497 0)
(19.0243 -0.0100287 0)
(19.3172 -0.0302035 0)
(19.4076 -0.0602257 0)
(19.3216 -0.0372986 0)
(19.1269 0.0748781 0)
(18.8809 0.202099 0)
(18.6385 0.351214 0)
(18.4238 0.554316 0)
(18.161 0.672074 0)
(17.8504 0.734068 0)
(17.4533 0.759991 0)
(16.952 0.798992 0)
(16.3659 0.899587 0)
(15.7359 0.996921 0)
(15.1135 0.969587 0)
(14.6288 0.729044 0)
(14.3608 0.445975 0)
(14.1811 0.373979 0)
(13.9858 0.421985 0)
(13.57 0.296154 0)
(12.8201 0.220154 0)
(11.8956 0.244366 0)
(10.9826 0.184987 0)
(10.1973 0.0921361 0)
(9.51245 0.204298 0)
(8.94696 0.679578 0)
(8.30664 0.968148 0)
(7.68241 1.09706 0)
(7.03961 1.14496 0)
(6.38101 1.12843 0)
(5.79658 1.2219 0)
(5.31533 1.20615 0)
(4.92182 1.15566 0)
(4.54609 1.1291 0)
(4.09451 1.01932 0)
(3.52471 0.939096 0)
(2.88394 0.993032 0)
(2.21902 1.07117 0)
(1.55587 1.05627 0)
(0.900369 1.01549 0)
(0.271574 1.02128 0)
(-0.278165 1.02505 0)
(-0.753756 1.03303 0)
(-1.12266 0.857668 0)
(-1.37989 0.584712 0)
(-1.47673 0.241258 0)
(-1.34604 -0.048224 0)
(-1.02314 -0.219044 0)
(-0.587469 -0.304013 0)
(-0.0675538 -0.502989 0)
(0.586049 -0.65565 0)
(1.32266 -0.745137 0)
(2.08015 -0.82482 0)
(2.78241 -0.985857 0)
(3.4042 -1.18222 0)
(3.9902 -1.31711 0)
(4.57395 -1.40553 0)
(5.17437 -1.47297 0)
(5.78245 -1.52701 0)
(6.38213 -1.56713 0)
(6.96875 -1.55686 0)
(7.52639 -1.45506 0)
(8.03947 -1.29268 0)
(8.48807 -1.05718 0)
(8.85966 -0.750774 0)
(9.17332 -0.461447 0)
(9.47038 -0.336116 0)
(9.73113 -0.317295 0)
(9.96702 -0.285347 0)
(10.161 -0.158119 0)
(10.3129 -0.119778 0)
(10.3536 -0.395781 0)
(10.2169 -0.416961 0)
(10.0272 -0.247455 0)
(9.80462 -0.0835202 0)
(9.58321 0.0124268 0)
(9.38837 0.106507 0)
(9.23584 0.279327 0)
(9.00437 0.451731 0)
(8.62666 0.603611 0)
(8.11514 0.70629 0)
(7.52754 0.783975 0)
(6.91733 0.903353 0)
(6.32619 1.00099 0)
(5.76917 1.02941 0)
(5.25899 0.969883 0)
(4.80423 0.880873 0)
(4.40354 0.784987 0)
(4.04585 0.721892 0)
(3.73423 0.658763 0)
(3.46961 0.598567 0)
(3.24136 0.538881 0)
(3.04887 0.45459 0)
(2.89109 0.370572 0)
(2.75635 0.303423 0)
(2.62423 0.260732 0)
(2.49951 0.217485 0)
(2.38457 0.182312 0)
(2.28064 0.152279 0)
(2.19134 0.116215 0)
(2.11284 0.0826072 0)
(2.0368 0.0692104 0)
(1.96886 0.0709366 0)
(1.9195 0.0930626 0)
(1.8898 0.116846 0)
(1.86064 0.13348 0)
(1.8272 0.145327 0)
(1.77802 0.157561 0)
(1.71689 0.169834 0)
(1.64592 0.18612 0)
(1.57233 0.197939 0)
(1.50689 0.21814 0)
(1.45296 0.239478 0)
(1.40335 0.249728 0)
(1.35535 0.256542 0)
(1.30855 0.25702 0)
(1.26493 0.253058 0)
(1.22538 0.250809 0)
(1.18733 0.23301 0)
(1.13986 0.218471 0)
(1.09934 0.191135 0)
(1.07064 0.162888 0)
(1.05959 0.124001 0)
(1.06362 0.0784497 0)
(1.06816 0.0206674 0)
(1.10216 -0.0395624 0)
(1.17144 -0.11132 0)
(1.3029 -0.167836 0)
(1.4865 -0.206797 0)
(1.70756 -0.202425 0)
(1.96182 -0.198124 0)
(2.25392 -0.19881 0)
(2.57688 -0.194031 0)
(2.90828 -0.191065 0)
(3.21132 -0.226891 0)
(3.44708 -0.315378 0)
(3.62343 -0.393099 0)
(3.76786 -0.446509 0)
(3.93057 -0.514102 0)
(4.09196 -0.866648 0)
(4.53667 -1.06183 0)
(5.02094 -0.919367 0)
(5.53882 -0.92054 0)
(6.05217 -0.997717 0)
(6.56474 -1.03767 0)
(7.05646 -1.01117 0)
(7.55682 -0.790728 0)
(8.06842 -0.50134 0)
(8.55041 -0.429161 0)
(8.92415 -0.464713 0)
(9.16162 -0.323441 0)
(9.32128 -0.660541 0)
(9.54367 -0.802145 0)
(9.78724 -0.697631 0)
(10.0708 -0.459788 0)
(10.2176 -0.0235079 0)
(10.4328 0.0433118 0)
(10.6325 0.0371353 0)
(10.8179 -0.0828078 0)
(11.0149 -0.137693 0)
(11.1462 -0.154147 0)
(11.1598 -0.261706 0)
(11.1372 -0.442022 0)
(11.1291 -0.543013 0)
(11.1509 -0.442081 0)
(11.2206 -0.139689 0)
(11.4095 0.0582398 0)
(11.6167 0.129956 0)
(11.8002 0.0738651 0)
(11.8552 -0.0664624 0)
(11.8724 -0.0432104 0)
(11.8834 0.00516122 0)
(11.8305 0.0515958 0)
(11.6974 0.089304 0)
(11.5201 0.213233 0)
(11.2882 0.375735 0)