/*--------------------------------*- C++ -*----------------------------------*\
| =========                 |                                                 |
| \\      /  F ield         | OpenFOAM: The Open Source CFD Toolbox           |
|  \\    /   O peration     | Version:  v1812                                 |
|   \\  /    A nd           | Web:      www.OpenFOAM.com                      |
|    \\/     M anipulation  |                                                 |
\*---------------------------------------------------------------------------*/
FoamFile
{
    version     2.0;
    format      ascii;
    class       volScalarField;
    location    "0.3";
    object      p;
}
// * * * * * * * * * * * * * * * * * * * * * * * * * * * * * * * * * * * * * //

dimensions      [1 -1 -2 0 0 0 0];


internalField   nonuniform List<scalar> 
20400
(
100701
100701
100702
100703
100698
100711
100704
100721
100717
100732
100736
100748
100760
100767
100783
100791
100805
100817
100842
100840
100855
100872
100889
100900
100921
100918
100939
100941
100958
100955
100978
100967
100990
100981
101004
100995
101012
101004
101021
101014
101031
101027
101045
101047
101065
101080
101101
101123
101157
101176
101214
101242
101288
101316
101332
101364
101386
101424
101447
101456
101481
101506
101521
101528
101523
101535
101521
101512
101503
101472
101450
101436
101396
101365
101330
101292
101249
101208
101163
101117
101069
101019
100968
100915
100863
100809
100756
100703
100653
100603
100553
100508
100460
100416
100371
100328
100286
100244
100204
100167
100131
100099
100065
100035
100004
99974.4
99946.3
99918.5
99893
99871.1
99850.7
99838.1
99824.7
99818.1
99812.2
99810.9
99810.2
99812.4
99816
99822.5
99829.6
99840.2
99851.7
99866.3
99882.5
99901.3
99921.2
99942.9
99966.9
99993.2
100021
100050
100081
100112
100144
100177
100213
100250
100289
100330
100373
100416
100457
100497
100536
100575
100614
100653
100692
100733
100773
100812
100851
100890
100930
100969
101005
101043
101078
101110
101144
101175
101204
101234
101264
101293
101320
101344
101367
101388
101406
101419
101431
101439
101445
101449
101451
101452
101452
101451
101449
101445
101439
101431
101422
101411
101398
101383
101366
101346
101324
101301
101276
101251
101226
101199
101172
101145
101119
101092
101065
101039
101013
100988
100961
100934
100906
100878
100849
100821
100793
100767
100743
100720
100698
100677
100659
100641
100624
100608
100594
100581
100570
100561
100555
100550
100546
100543
100541
100540
100540
100541
100544
100549
100555
100564
100575
100587
100601
100616
100634
100652
100671
100692
100714
100737
100761
100785
100810
100836
100861
100886
100910
100934
100957
100981
101004
101028
101052
101076
101101
101125
101148
101171
101192
101213
101232
101251
101267
101282
101297
101310
101323
101336
101347
101356
101364
101371
101375
101378
101381
101383
101384
101384
101383
101379
101374
101368
101360
101352
101343
101333
101323
101312
101301
101289
101277
101264
101251
101237
101222
101207
101192
101177
101163
101149
101137
101127
101117
101109
101101
101093
101085
101077
101069
101061
101054
101047
101041
101035
101031
101027
101023
101020
101018
101016
101015
101014
101014
101014
101015
101017
101018
101020
101022
101025
101027
101029
101031
101033
101035
101037
101039
101041
101043
101045
101048
101050
101053
101056
101059
101062
101064
101067
101070
101073
101077
101080
101084
101088
101092
101096
101100
101104
101108
101112
101115
101119
101123
101127
101130
101134
101137
101140
101142
101145
101147
101151
101154
101158
101161
101166
101170
101174
101179
101183
101187
101190
101193
101195
101198
101200
101202
101204
101205
101207
101207
101208
101209
101209
101209
101210
101210
101210
101209
101209
101209
101210
101210
101211
101211
101212
101213
101213
101213
101214
101214
101215
101216
101218
101219
101221
101223
101225
101227
101229
101230
101232
101235
101237
101239
101242
101245
101247
101250
101253
101256
101259
101262
101265
101267
101270
101272
101274
101276
101278
101279
101281
101282
101283
101284
101285
101285
101285
101286
101286
101285
101285
101284
101282
101281
101280
101278
101276
101275
101273
101271
101270
101268
101266
101265
101264
101263
101262
101261
101261
101261
101260
101261
101261
101262
101262
101263
101265
101267
101269
101271
101273
101277
101280
101283
101287
101291
101295
101299
101304
101308
101312
101318
101326
100704
100701
100707
100708
100717
100712
100717
100713
100716
100732
100730
100747
100751
100767
100770
100791
100796
100817
100827
100842
100850
100888
100882
100908
100909
100938
100924
100960
100940
100979
100957
100997
100973
101003
100986
101011
100993
101019
101004
101028
101025
101032
101040
101048
101063
101075
101091
101115
101149
101178
101212
101253
101291
101328
101346
101369
101398
101427
101437
101455
101483
101496
101521
101520
101520
101531
101514
101507
101500
101466
101448
101420
101385
101354
101322
101279
101238
101194
101151
101104
101057
101007
100956
100906
100852
100800
100748
100696
100647
100595
100550
100504
100461
100414
100375
100329
100290
100246
100210
100169
100138
100100
100073
100036
100010
99977.8
99952.1
99922.5
99899.2
99873.5
99856.4
99840.1
99830.2
99821.5
99819.8
99814.7
99817.7
99816.6
99822.6
99825.7
99833.8
99842.3
99855
99868.4
99885.7
99903.2
99923.8
99945
99969.1
99994.3
100021
100050
100081
100112
100144
100177
100213
100250
100289
100330
100372
100414
100456
100497
100537
100577
100617
100655
100694
100734
100774
100814
100853
100892
100931
100968
101004
101040
101076
101110
101143
101175
101205
101236
101264
101293
101320
101344
101366
101386
101403
101418
101429
101437
101443
101447
101449
101450
101449
101448
101446
101441
101435
101427
101418
101407
101394
101379
101362
101344
101322
101299
101274
101249
101223
101198
101171
101145
101118
101092
101065
101039
101013
100986
100960
100932
100904
100876
100848
100820
100793
100767
100742
100719
100697
100677
100657
100640
100622
100607
100593
100581
100571
100562
100555
100550
100546
100543
100541
100540
100539
100541
100543
100548
100555
100564
100575
100587
100602
100617
100634
100652
100672
100693
100714
100737
100761
100786
100811
100836
100861
100886
100910
100934
100958
100981
101005
101028
101053
101077
101101
101125
101148
101171
101192
101213
101232
101251
101267
101283
101297
101310
101323
101336
101347
101356
101364
101370
101375
101378
101381
101382
101383
101383
101381
101379
101374
101367
101360
101351
101343
101333
101323
101312
101301
101289
101277
101264
101251
101237
101223
101208
101193
101178
101164
101150
101138
101127
101118
101109
101102
101093
101085
101077
101069
101061
101054
101047
101041
101036
101031
101027
101023
101020
101018
101016
101015
101014
101014
101014
101015
101017
101019
101020
101023
101025
101027
101030
101032
101034
101036
101038
101040
101042
101044
101046
101048
101051
101054
101057
101059
101062
101065
101067
101070
101073
101077
101080
101084
101088
101092
101096
101100
101104
101108
101111
101116
101119
101123
101126
101130
101134
101137
101140
101143
101145
101148
101151
101155
101158
101163
101167
101171
101175
101180
101184
101188
101191
101195
101197
101199
101201
101204
101205
101207
101208
101209
101210
101211
101211
101211
101211
101211
101211
101211
101211
101211
101211
101211
101212
101213
101213
101214
101214
101214
101215
101215
101216
101217
101218
101220
101222
101224
101226
101228
101229
101231
101233
101236
101238
101240
101243
101246
101248
101251
101254
101257
101260
101263
101265
101268
101270
101273
101274
101276
101278
101279
101280
101282
101283
101284
101284
101285
101285
101285
101285
101285
101284
101283
101282
101281
101279
101277
101276
101274
101272
101271
101269
101268
101266
101265
101263
101262
101261
101261
101260
101260
101260
101260
101261
101261
101262
101263
101265
101266
101269
101271
101274
101277
101281
101284
101288
101291
101295
101300
101303
101308
101312
101318
101327
100695
100697
100694
100702
100716
100713
100727
100721
100725
100724
100729
100747
100757
100763
100781
100784
100802
100809
100829
100838
100861
100862
100891
100889
100916
100912
100938
100932
100961
100945
100983
100962
100995
100974
101012
100993
101019
101005
101018
101007
101021
101020
101027
101036
101044
101066
101086
101124
101133
101163
101180
101219
101241
101293
101327
101347
101394
101410
101447
101443
101487
101489
101534
101521
101526
101541
101521
101501
101512
101464
101456
101436
101396
101357
101335
101279
101252
101201
101167
101111
101072
101015
100970
100913
100863
100808
100756
100704
100652
100607
100551
100511
100456
100417
100367
100330
100279
100244
100194
100168
100125
100100
100059
100038
99993.5
99981.1
99937.2
99928
99888.2
99873.6
99843.2
99840.6
99816.9
99823.3
99805.9
99816.7
99805.3
99818.6
99813.2
99827.8
99826.9
99843.5
99849
99868.7
99882.7
99904.5
99922.5
99945.6
99968.1
99996.1
100023
100052
100083
100115
100144
100177
100213
100251
100290
100331
100373
100415
100457
100495
100538
100575
100616
100655
100694
100736
100776
100815
100853
100893
100932
100970
101005
101043
101079
101112
101146
101177
101206
101236
101265
101294
101321
101346
101368
101389
101406
101420
101432
101440
101446
101450
101452
101452
101452
101451
101448
101444
101438
101431
101421
101409
101396
101380
101363
101343
101321
101298
101274
101249
101223
101197
101171
101145
101119
101093
101067
101040
101013
100987
100960
100932
100904
100876
100848
100820
100792
100766
100742
100718
100697
100676
100658
100639
100623
100607
100593
100581
100570
100561
100554
100549
100545
100543
100541
100540
100540
100541
100544
100549
100555
100564
100574
100586
100601
100617
100634
100652
100671
100692
100713
100735
100759
100783
100807
100833
100858
100883
100908
100932
100956
100979
101003
101028
101052
101076
101100
101125
101148
101170
101191
101212
101232
101250
101267
101283
101297
101311
101323
101335
101346
101355
101364
101370
101374
101377
101379
101381
101382
101382
101380
101377
101372
101366
101359
101350
101342
101332
101322
101311
101300
101288
101276
101263
101250
101236
101221
101207
101191
101177
101162
101149
101137
101127
101117
101108
101099
101091
101082
101075
101067
101059
101053
101046
101040
101034
101029
101025
101021
101018
101016
101014
101013
101012
101012
101012
101013
101014
101016
101018
101020
101022
101025
101027
101030
101031
101034
101035
101037
101039
101041
101043
101046
101049
101052
101054
101057
101060
101063
101065
101068
101071
101075
101079
101082
101087
101090
101095
101098
101103
101106
101110
101114
101117
101121
101125
101128
101132
101135
101139
101141
101144
101146
101150
101153
101157
101161
101165
101169
101174
101178
101182
101186
101190
101193
101195
101197
101199
101201
101203
101204
101205
101206
101207
101208
101208
101209
101209
101209
101209
101208
101208
101208
101209
101209
101210
101210
101211
101212
101212
101212
101212
101213
101214
101215
101216
101218
101219
101221
101223
101225
101227
101229
101231
101233
101235
101238
101241
101243
101246
101249
101252
101255
101258
101261
101264
101266
101269
101271
101273
101275
101277
101278
101279
101281
101282
101283
101284
101284
101285
101285
101285
101285
101284
101283
101282
101281
101279
101278
101276
101274
101273
101271
101270
101268
101267
101265
101264
101263
101262
101262
101261
101261
101261
101261
101261
101262
101263
101264
101265
101267
101268
101271
101273
101276
101279
101282
101286
101289
101293
101297
101303
101306
101310
101315
101324
100698
100692
100703
100696
100694
100708
100710
100729
100737
100743
100756
100748
100756
100762
100769
100786
100794
100814
100825
100842
100853
100871
100876
100902
100904
100927
100923
100954
100943
100974
100964
100995
100974
100999
100991
101015
101007
101007
101007
101006
101012
101008
101002
101028
101032
101054
101080
101106
101129
101171
101185
101222
101274
101292
101317
101339
101363
101436
101440
101457
101459
101489
101542
101513
101514
101544
101506
101514
101503
101477
101442
101440
101399
101364
101339
101287
101244
101202
101161
101111
101066
101014
100963
100912
100858
100805
100753
100699
100653
100595
100557
100500
100461
100408
100373
100318
100291
100234
100207
100157
100136
100085
100079
100020
100017
99958.4
99965.3
99909.8
99907.4
99856.4
99862.5
99822.9
99837.1
99806.7
99823.8
99803
99817.6
99807.6
99822.2
99817.9
99835.4
99832.5
99857.5
99859.6
99887.6
99901.3
99927.4
99942.6
99971.1
99994.5
100026
100051
100086
100115
100144
100175
100214
100248
100290
100333
100371
100415
100457
100496
100532
100577
100618
100656
100697
100738
100778
100818
100856
100895
100935
100972
101005
101043
101080
101113
101149
101180
101209
101238
101267
101294
101322
101347
101369
101389
101406
101421
101433
101441
101446
101451
101453
101453
101453
101451
101448
101444
101438
101430
101420
101409
101395
101379
101362
101342
101322
101297
101274
101248
101224
101198
101170
101145
101120
101095
101069
101041
101015
100988
100959
100932
100905
100875
100848
100819
100792
100766
100742
100719
100697
100676
100658
100640
100622
100607
100593
100580
100570
100561
100554
100548
100544
100541
100539
100538
100538
100539
100542
100547
100554
100563
100573
100586
100600
100616
100633
100652
100671
100691
100712
100734
100756
100781
100806
100829
100854
100880
100906
100929
100954
100978
101001
101026
101050
101073
101098
101125
101147
101169
101190
101211
101231
101250
101267
101282
101297
101310
101321
101333
101345
101353
101362
101368
101373
101376
101377
101379
101379
101379
101377
101374
101370
101364
101357
101349
101341
101331
101320
101310
101299
101288
101276
101263
101250
101235
101221
101206
101192
101177
101163
101150
101138
101127
101118
101108
101101
101091
101083
101074
101067
101059
101052
101046
101039
101035
101030
101026
101022
101019
101017
101015
101014
101013
101013
101013
101014
101015
101017
101019
101021
101023
101026
101028
101030
101033
101035
101037
101039
101040
101042
101045
101047
101050
101052
101055
101058
101061
101063
101066
101069
101072
101075
101080
101083
101087
101091
101095
101100
101104
101107
101111
101115
101119
101123
101126
101130
101134
101138
101141
101144
101147
101149
101152
101156
101160
101165
101169
101173
101177
101181
101185
101189
101193
101196
101199
101201
101203
101204
101206
101207
101208
101209
101210
101211
101211
101212
101212
101212
101212
101211
101211
101211
101212
101212
101213
101213
101214
101215
101215
101215
101215
101216
101216
101217
101219
101220
101222
101224
101225
101227
101229
101230
101232
101235
101237
101239
101242
101244
101247
101250
101253
101256
101258
101261
101264
101267
101269
101271
101273
101274
101276
101277
101279
101280
101281
101282
101283
101283
101284
101284
101284
101284
101283
101282
101281
101280
101278
101277
101275
101273
101272
101270
101269
101267
101266
101265
101264
101263
101262
101261
101261
101261
101260
101261
101261
101262
101263
101264
101265
101267
101269
101271
101274
101277
101281
101284
101287
101291
101294
101299
101302
101308
101312
101317
101326
100686
100691
100681
100692
100687
100690
100712
100698
100740
100721
100758
100748
100757
100759
100774
100779
100795
100808
100825
100837
100861
100872
100890
100891
100914
100919
100937
100939
100959
100960
100977
100976
100991
100991
100991
100989
101002
100986
100999
100990
100999
100991
101011
100997
101031
101046
101071
101081
101121
101147
101162
101220
101240
101281
101314
101330
101343
101441
101449
101453
101464
101501
101513
101517
101512
101548
101524
101507
101496
101485
101437
101443
101401
101371
101327
101287
101244
101203
101162
101114
101069
101017
100967
100914
100858
100809
100751
100706
100646
100606
100542
100508
100453
100415
100363
100328
100276
100245
100189
100164
100118
100099
100046
100050
99985
99987.2
99932.1
99936.2
99881
99880.2
99830.3
99848.2
99806.3
99829.4
99798.9
99818.6
99801.9
99817.6
99809.2
99826.3
99820.4
99846.2
99839.7
99873.6
99872.6
99910.4
99918.4
99949.3
99963
100001
100020
100055
100089
100118
100145
100177
100210
100248
100291
100330
100371
100416
100458
100493
100537
100571
100618
100659
100698
100741
100784
100821
100858
100898
100939
100975
101005
101045
101083
101114
101153
101184
101212
101241
101269
101295
101323
101348
101370
101392
101409
101423
101435
101443
101449
101453
101455
101455
101455
101453
101450
101445
101439
101431
101422
101410
101396
101380
101362
101344
101320
101298
101270
101246
101222
101197
101169
101146
101119
101099
101071
101043
101015
100988
100959
100933
100903
100876
100846
100818
100789
100766
100742
100719
100696
100677
100656
100639
100620
100607
100591
100579
100568
100560
100553
100547
100543
100541
100539
100538
100538
100539
100542
100547
100554
100562
100573
100584
100599
100615
100633
100650
100671
100689
100710
100732
100752
100775
100802
100826
100849
100878
100903
100928
100953
100978
100998
101024
101048
101071
101097
101122
101147
101167
101186
101208
101230
101249
101267
101281
101296
101309
101320
101332
101342
101352
101359
101366
101370
101374
101375
101377
101377
101376
101374
101372
101367
101362
101355
101347
101338
101328
101319
101308
101298
101286
101275
101261
101248
101234
101218
101205
101191
101177
101162
101151
101138
101128
101118
101109
101099
101091
101081
101074
101066
101059
101052
101045
101039
101033
101029
101025
101021
101017
101016
101014
101013
101012
101012
101012
101013
101014
101016
101018
101020
101022
101024
101026
101029
101031
101033
101035
101037
101039
101041
101043
101045
101048
101051
101054
101057
101059
101062
101065
101068
101071
101074
101079
101083
101086
101090
101095
101099
101104
101107
101111
101115
101119
101122
101126
101130
101135
101138
101142
101146
101148
101151
101153
101156
101160
101165
101170
101174
101178
101181
101186
101189
101193
101197
101199
101201
101203
101205
101206
101208
101209
101210
101211
101211
101212
101212
101212
101212
101212
101212
101212
101212
101212
101213
101213
101214
101214
101215
101215
101215
101215
101216
101217
101217
101218
101220
101222
101224
101225
101227
101228
101230
101232
101233
101236
101238
101241
101243
101246
101249
101252
101255
101257
101260
101262
101265
101267
101269
101271
101273
101274
101276
101277
101278
101280
101281
101281
101282
101282
101283
101283
101282
101282
101281
101280
101279
101278
101276
101274
101273
101272
101270
101269
101267
101266
101265
101264
101263
101262
101261
101261
101261
101261
101261
101262
101262
101263
101265
101266
101267
101269
101272
101274
101278
101279
101284
101287
101291
101295
101298
101304
101307
101311
101318
101324
100680
100673
100688
100684
100694
100686
100689
100706
100700
100719
100713
100737
100745
100761
100767
100779
100789
100808
100823
100842
100850
100870
100885
100900
100916
100926
100939
100953
100963
100968
100976
100981
100984
100989
100991
100998
100998
100984
100985
100978
100974
100994
100948
101004
100999
101032
101046
101082
101106
101132
101180
101155
101208
101270
101302
101323
101357
101395
101471
101441
101465
101489
101504
101496
101536
101519
101539
101505
101489
101473
101461
101420
101406
101367
101343
101272
101241
101199
101158
101111
101067
101017
100962
100915
100854
100806
100752
100698
100651
100595
100553
100500
100457
100404
100369
100314
100286
100228
100198
100147
100122
100079
100076
100025
100013
99951.2
99966
99908.2
99909.2
99853.6
99861.2
99814.5
99834.8
99803.9
99820.5
99799.2
99815.5
99803.2
99820.9
99810.4
99835.5
99822.7
99861.4
99849.3
99892.6
99890.7
99933.3
99936.1
99969.9
99993.9
100030
100056
100091
100119
100148
100175
100215
100245
100290
100332
100365
100416
100459
100497
100530
100578
100618
100658
100702
100741
100787
100826
100865
100900
100942
100971
101005
101058
101079
101116
101156
101189
101221
101244
101270
101298
101322
101350
101371
101394
101412
101424
101436
101445
101451
101455
101457
101456
101456
101454
101451
101446
101439
101432
101422
101410
101396
101379
101361
101339
101322
101296
101269
101240
101226
101202
101169
101145
101124
101100
101078
101040
101017
100989
100959
100933
100905
100873
100847
100814
100788
100764
100743
100716
100698
100673
100658
100638
100622
100605
100590
100577
100569
100558
100552
100547
100542
100539
100537
100536
100536
100538
100541
100546
100552
100562
100571
100583
100596
100616
100631
100650
100668
100691
100709
100728
100749
100770
100796
100820
100845
100872
100899
100924
100953
100976
100995
101022
101046
101068
101092
101123
101148
101163
101183
101207
101226
101249
101263
101279
101294
101308
101317
101328
101341
101347
101357
101363
101367
101370
101373
101374
101374
101373
101372
101368
101364
101358
101352
101345
101336
101327
101317
101307
101295
101285
101273
101261
101247
101233
101219
101203
101190
101175
101164
101151
101139
101128
101118
101108
101100
101089
101080
101073
101065
101058
101051
101044
101037
101033
101028
101024
101020
101016
101015
101013
101012
101012
101011
101011
101012
101014
101015
101017
101019
101021
101023
101026
101027
101030
101033
101035
101037
101038
101040
101043
101045
101047
101050
101053
101056
101059
101062
101064
101067
101070
101074
101078
101082
101086
101089
101094
101100
101103
101106
101111
101116
101119
101123
101127
101131
101135
101140
101144
101148
101152
101153
101155
101158
101163
101168
101172
101177
101181
101185
101188
101192
101196
101199
101202
101204
101206
101207
101209
101210
101211
101212
101213
101214
101214
101214
101214
101215
101215
101214
101213
101214
101215
101215
101215
101216
101216
101217
101217
101217
101217
101217
101218
101218
101219
101221
101223
101224
101225
101227
101228
101230
101232
101233
101236
101238
101241
101243
101246
101248
101251
101254
101257
101259
101262
101264
101266
101268
101270
101271
101273
101274
101276
101277
101278
101279
101280
101281
101281
101281
101281
101281
101281
101280
101279
101278
101277
101275
101273
101272
101270
101270
101268
101267
101266
101265
101264
101263
101262
101262
101261
101261
101261
101261
101262
101263
101264
101265
101266
101267
101270
101272
101275
101277
101281
101283
101289
101292
101295
101298
101303
101308
101313
101318
101325
100662
100667
100662
100670
100678
100683
100679
100686
100690
100702
100708
100719
100737
100744
100762
100771
100786
100799
100815
100831
100849
100862
100885
100899
100914
100934
100939
100951
100958
100967
100975
100975
100984
100984
100992
100983
100988
100952
100983
100951
100977
100923
100982
100957
101006
100990
101032
101066
101092
101127
101150
101165
101194
101272
101250
101293
101314
101389
101438
101459
101462
101484
101510
101478
101519
101544
101491
101559
101471
101448
101450
101456
101393
101363
101344
101270
101251
101192
101153
101111
101063
101012
100963
100911
100858
100804
100747
100702
100645
100600
100541
100504
100449
100408
100360
100319
100270
100234
100184
100153
100111
100090
100051
100051
99991.3
99979.1
99930.2
99934
99883.3
99875.6
99826.9
99849.4
99801.7
99831.1
99791.6
99822.2
99797.1
99819
99805
99826.1
99815.7
99846.6
99836.3
99874.4
99861.9
99914.8
99911.7
99959.9
99950.1
99995.3
100023
100065
100091
100121
100145
100179
100212
100243
100291
100331
100365
100419
100454
100497
100539
100571
100623
100660
100701
100746
100785
100836
100866
100904
100950
100971
101012
101062
101084
101119
101163
101188
101225
101253
101272
101299
101326
101348
101376
101395
101412
101428
101438
101447
101454
101457
101459
101459
101458
101456
101453
101448
101441
101433
101423
101411
101396
101377
101356
101342
101319
101296
101267
101243
101225
101203
101175
101150
101116
101109
101078
101039
101014
100992
100961
100934
100902
100874
100844
100813
100784
100765
100741
100719
100694
100675
100654
100640
100621
100605
100588
100578
100567
100557
100550
100546
100541
100538
100536
100535
100535
100537
100540
100544
100552
100559
100571
100580
100596
100611
100630
100647
100670
100687
100708
100726
100746
100766
100790
100815
100839
100865
100894
100923
100950
100976
100995
101021
101043
101062
101098
101115
101141
101165
101178
101199
101227
101246
101262
101277
101292
101307
101315
101327
101337
101344
101355
101361
101363
101368
101370
101370
101371
101370
101368
101365
101361
101356
101350
101343
101335
101325
101316
101304
101294
101283
101272
101258
101245
101231
101217
101203
101189
101174
101162
101152
101141
101128
101117
101108
101098
101089
101077
101073
101064
101057
101052
101041
101038
101032
101025
101023
101019
101015
101013
101011
101011
101011
101010
101010
101011
101013
101014
101016
101017
101019
101022
101024
101027
101028
101031
101034
101035
101037
101039
101041
101043
101046
101048
101052
101055
101058
101061
101062
101066
101069
101072
101079
101081
101084
101088
101094
101099
101103
101106
101110
101115
101118
101124
101128
101131
101137
101140
101145
101149
101153
101156
101156
101160
101164
101169
101174
101179
101182
101186
101189
101193
101197
101200
101203
101205
101206
101208
101210
101211
101212
101214
101215
101215
101216
101216
101216
101216
101216
101215
101214
101215
101216
101217
101216
101217
101217
101218
101217
101217
101218
101218
101218
101219
101220
101221
101222
101224
101225
101226
101228
101229
101231
101232
101235
101237
101239
101242
101244
101247
101250
101253
101255
101258
101260
101262
101264
101266
101268
101270
101271
101272
101274
101275
101276
101277
101278
101279
101280
101280
101280
101280
101279
101278
101278
101277
101276
101274
101273
101272
101270
101269
101268
101266
101266
101265
101264
101264
101263
101262
101262
101261
101261
101261
101263
101263
101264
101266
101267
101269
101270
101273
101275
101278
101281
101285
101287
101292
101296
101298
101304
101309
101313
101318
101324
100661
100644
100668
100655
100660
100666
100675
100674
100678
100687
100691
100702
100715
100731
100748
100764
100778
100795
100809
100827
100843
100862
100891
100900
100919
100924
100934
100944
100957
100963
100973
100979
100979
100990
100984
100991
100982
100976
100963
100966
100924
100941
100901
100975
100926
101016
101003
101020
101034
101134
101184
101112
101192
101205
101261
101306
101335
101359
101412
101466
101459
101463
101511
101465
101511
101520
101518
101508
101512
101413
101479
101455
101363
101385
101300
101304
101217
101208
101119
101112
101048
101009
100953
100910
100852
100803
100748
100695
100645
100592
100546
100495
100447
100397
100361
100310
100273
100224
100188
100138
100117
100066
100074
100026
100013
99956.8
99950.9
99908.6
99904.9
99845.6
99862.4
99816.9
99836.3
99791.4
99829.9
99793.6
99819.1
99798.8
99823.3
99808
99837.7
99824.6
99860.6
99846.1
99896.3
99879.2
99939.7
99936.6
99985.5
99972.6
100029
100060
100099
100124
100149
100172
100215
100243
100291
100335
100370
100412
100456
100499
100537
100581
100622
100657
100707
100751
100787
100840
100872
100912
100952
100984
101019
101062
101095
101124
101159
101192
101224
101255
101282
101303
101327
101355
101376
101399
101416
101430
101441
101449
101456
101460
101461
101461
101460
101458
101454
101449
101443
101435
101424
101411
101394
101375
101357
101338
101321
101295
101269
101244
101228
101206
101172
101145
101131
101107
101073
101041
101017
100987
100964
100934
100902
100874
100842
100811
100785
100758
100744
100720
100695
100674
100656
100637
100621
100603
100588
100576
100565
100556
100549
100543
100540
100536
100534
100534
100534
100535
100538
100543
100549
100559
100566
100579
100592
100610
100626
100646
100665
100688
100705
100724
100740
100763
100784
100810
100838
100858
100886
100921
100946
100970
100995
101021
101035
101061
101087
101116
101142
101157
101177
101200
101221
101244
101262
101270
101287
101304
101312
101325
101335
101341
101352
101357
101361
101365
101365
101367
101368
101367
101365
101362
101358
101353
101348
101340
101333
101324
101312
101303
101292
101282
101269
101257
101243
101231
101216
101202
101187
101173
101163
101151
101142
101130
101116
101105
101099
101088
101075
101072
101064
101056
101047
101043
101035
101032
101025
101020
101018
101014
101011
101010
101010
101009
101009
101009
101010
101011
101013
101014
101016
101018
101020
101022
101025
101027
101030
101032
101034
101036
101037
101039
101042
101045
101047
101051
101054
101057
101058
101061
101064
101068
101072
101077
101081
101084
101088
101092
101100
101103
101104
101110
101115
101117
101127
101131
101132
101137
101142
101145
101152
101156
101157
101160
101163
101167
101172
101177
101181
101186
101187
101192
101196
101200
101202
101205
101207
101209
101211
101213
101214
101215
101216
101217
101218
101218
101218
101219
101219
101218
101218
101217
101216
101218
101219
101218
101218
101219
101219
101218
101219
101220
101219
101219
101220
101220
101222
101223
101224
101225
101226
101228
101229
101230
101232
101234
101237
101238
101241
101244
101246
101249
101251
101254
101256
101258
101260
101263
101264
101267
101268
101269
101271
101272
101273
101275
101276
101277
101277
101278
101278
101278
101278
101278
101277
101276
101276
101274
101273
101272
101270
101269
101268
101267
101266
101265
101264
101265
101264
101263
101262
101262
101262
101261
101262
101263
101264
101265
101266
101267
101270
101272
101273
101276
101279
101282
101286
101289
101292
101296
101299
101303
101310
101313
101318
101324
100636
100643
100628
100647
100636
100648
100653
100658
100666
100673
100682
100685
100706
100713
100739
100749
100772
100783
100799
100826
100846
100871
100880
100899
100903
100927
100932
100945
100949
100964
100965
100975
100981
100982
100997
100946
100986
100938
100955
100909
100942
100913
100938
100941
100972
100946
101016
101014
101027
101140
101128
101161
101144
101197
101222
101325
101295
101336
101429
101439
101471
101438
101501
101495
101493
101509
101516
101512
101499
101455
101466
101364
101417
101316
101356
101250
101294
101137
101160
101061
101055
100998
100949
100905
100849
100800
100743
100694
100638
100592
100536
100499
100441
100399
100351
100308
100265
100223
100176
100141
100107
100078
100045
100038
99989.3
99979.8
99932.4
99920.5
99876.2
99878.6
99833.7
99844.4
99803.1
99825.3
99788.1
99822.7
99793
99822.5
99798.2
99836.3
99814.7
99854.6
99833.2
99882.6
99853.3
99923.3
99897.7
99972.5
99954.2
100020
99995.1
100071
100087
100128
100149