/*--------------------------------*- C++ -*----------------------------------*\
| =========                 |                                                 |
| \\      /  F ield         | OpenFOAM: The Open Source CFD Toolbox           |
|  \\    /   O peration     | Version:  v1812                                 |
|   \\  /    A nd           | Web:      www.OpenFOAM.com                      |
|    \\/     M anipulation  |                                                 |
\*---------------------------------------------------------------------------*/
FoamFile
{
    version     2.0;
    format      ascii;
    class       surfaceScalarField;
    location    "0.3";
    object      phi;
}
// * * * * * * * * * * * * * * * * * * * * * * * * * * * * * * * * * * * * * //

dimensions      [1 0 -1 0 0 0 0];
oriented        oriented;


internalField   nonuniform List<scalar> 
40240
(
-0.00114936
0.000183824
-0.00255771
0.000446947
-0.00377972
0.000258991
-0.00529076
0.000555085
-0.00665577
0.00041799
-0.00783907
0.000239274
-0.00892362
0.000145646
-0.00964412
-0.000219578
-0.0105167
-6.94022e-05
-0.0111205
-0.000330242
-0.0119679
-8.33673e-05
-0.0126979
-0.000203731
-0.013473
-0.000136491
-0.0141981
-0.000170799
-0.0147774
-0.000285087
-0.0154123
-0.000218487
-0.0158587
-0.00037962
-0.0164625
-0.000211614
-0.0169174
-0.000357591
-0.0171582
-0.000559419
-0.0172017
-0.000733115
-0.0177406
-0.000212438
-0.0179887
-0.000490826
-0.0188153
0.000117952
-0.0193552
-0.000150001
-0.0203809
0.000346697
-0.0210154
-3.04182e-05
-0.022197
0.00059001
-0.0230737
0.000285967
-0.0248113
0.00115115
-0.0261416
0.000762086
-0.0284453
0.00176221
-0.0304006
0.00144075
-0.0334068
0.00249829
-0.0360199
0.00212233
-0.0397414
0.00323979
-0.0429746
0.00280437
-0.0472618
0.00388923
-0.0512235
0.00352931
-0.0558544
0.00423615
-0.0601431
0.00390466
-0.0642992
0.00376988
-0.0681349
0.00347271
-0.071089
0.00264913
-0.0734566
0.00209534
-0.0748503
0.00113709
-0.075739
0.000642174
-0.0760887
0.000107236
-0.0759763
-0.000341772
-0.0755074
-0.000670414
-0.0749397
-0.000750385
-0.0741495
-0.000950172
-0.0731503
-0.00112825
-0.071536
-0.00174659
-0.0703852
-0.0013318
-0.0680789
-0.00244204
-0.0658391
-0.00236435
-0.0623447
-0.0036486
-0.0593126
-0.00308178
-0.0564033
-0.002939
-0.0536389
-0.00277618
-0.0504351
-0.00322818
-0.0472369
-0.00321442
-0.0442832
-0.00291286
-0.0418886
-0.00235205
-0.0393423
-0.00252394
-0.0372183
-0.0020499
-0.0351614
-0.00195709
-0.0328929
-0.00216805
-0.0310038
-0.00178355
-0.0290124
-0.00187399
-0.0270842
-0.00180555
-0.0252978
-0.00165531
-0.0236167
-0.00152712
-0.0218244
-0.00162941
-0.0202847
-0.00135285
-0.0187187
-0.00136536
-0.0173412
-0.00115719
-0.0159426
-0.00116711
-0.0147663
-0.000936673
-0.0135588
-0.000969832
-0.012577
-0.000745182
-0.0115734
-0.00076788
-0.0107689
-0.000573072
-0.0099359
-0.000600108
-0.00930294
-0.000397575
-0.00861265
-0.00044889
-0.00809745
-0.000267921
-0.0075326
-0.000311192
-0.0070844
-0.000185538
-0.00661179
-0.000205895
-0.00619872
-0.000142727
-0.0058863
-4.0266e-05
-0.00563149
1.85211e-05
-0.00545765
9.7306e-05
-0.0053064
0.00011573
-0.00519088
0.000143327
-0.00506394
0.000126784
-0.00496154
0.000138193
-0.00483584
9.79128e-05
-0.00478276
0.000157612
-0.00469139
9.59929e-05
-0.00465806
0.000136455
-0.00459222
9.09523e-05
-0.00456764
0.000114465
-0.00454941
0.000125899
-0.00455131
0.000111644
-0.00456148
0.000106832
-0.0045957
0.000120234
-0.00461714
0.000102806
-0.00467685
0.00014365
-0.00469069
7.43803e-05
-0.00474172
0.000115519
-0.00476696
8.29482e-05
-0.00479817
9.25785e-05
-0.00480521
6.53904e-05
-0.00481915
7.29817e-05
-0.00481835
4.97882e-05
-0.00483548
5.75292e-05
-0.00484654
3.82968e-05
-0.0048823
5.30451e-05
-0.00490423
2.7131e-05
-0.00496005
3.9384e-05
-0.00502213
2.14935e-05
-0.00510968
2.16205e-05
-0.00519241
-5.84294e-07
-0.00530931
1.47089e-05
-0.00544339
2.11797e-05
-0.00559882
3.01637e-05
-0.00575126
1.60743e-05
-0.00591299
1.24928e-05
-0.0060571
-1.60727e-05
-0.00618364
-4.75823e-05
-0.00631976
-5.05996e-05
-0.00649513
-2.24558e-05
-0.00669455
-1.14707e-05
-0.00689913
-2.39624e-05
-0.00711613
-2.56241e-05
-0.00736866
-4.78308e-06
-0.00761809
-1.6958e-05
-0.00783687
-5.1079e-05
-0.0080421
-6.36541e-05
-0.00825851
-4.63002e-05
-0.008492
-2.08485e-05
-0.00871284
-2.46406e-05
-0.00895015
-6.41659e-06
-0.00919258
-5.5615e-06
-0.0094546
6.59508e-06
-0.00970408
-1.75395e-05
-0.00991261
-6.83789e-05
-0.01012
-7.43533e-05
-0.0103736
-2.87801e-05
-0.0106648
1.52063e-05
-0.0109437
1.32481e-05
-0.0111638
-3.43404e-05
-0.0113639
-4.7286e-05
-0.0115532
-4.99208e-05
-0.0116892
-9.85254e-05
-0.0118335
-8.74142e-05
-0.0119995
-6.00687e-05
-0.0121378
-7.80458e-05
-0.0122871
-5.32868e-05
-0.0124715
-1.63152e-06
-0.0126416
3.34702e-06
-0.0127695
-2.00335e-05
-0.0128487
-4.98715e-05
-0.0129245
-3.5109e-05
-0.0129922
-2.63476e-05
-0.0130281
-4.53038e-05
-0.0130193
-8.2675e-05
-0.0129995
-8.43873e-05
-0.0129963
-6.85154e-05
-0.012998
-6.01139e-05
-0.0130054
-5.31838e-05
-0.0130049
-5.86103e-05
-0.0129853
-6.39057e-05
-0.0129533
-6.36664e-05
-0.0129148
-5.61262e-05
-0.0128718
-4.96028e-05
-0.0128133
-5.41422e-05
-0.0127293
-6.55394e-05
-0.0126179
-7.67817e-05
-0.0124868
-7.86235e-05
-0.0123411
-7.57076e-05
-0.0121855
-6.77822e-05
-0.0120181
-6.1349e-05
-0.0118373
-5.9096e-05
-0.011631
-6.76528e-05
-0.0114078
-6.81031e-05
-0.0111689
-6.79606e-05
-0.0109418
-4.19677e-05
-0.0107165
-2.66021e-05
-0.0105017
-1.14388e-05
-0.0102698
-2.38315e-05
-0.0100165
-4.23981e-05
-0.00974591
-5.12953e-05
-0.00946903
-5.3525e-05
-0.00918718
-5.80844e-05
-0.00892177
-4.06799e-05
-0.0086666
-3.41059e-05
-0.00843758
-1.06799e-05
-0.00821844
-6.45236e-06
-0.00798823
-2.10346e-05
-0.00774188
-3.95307e-05
-0.0075122
-2.21854e-05
-0.00726875
-3.96315e-05
-0.00704693
-2.02477e-05
-0.00682146
-2.70287e-05
-0.00660635
-2.28921e-05
-0.00640315
-1.4621e-05
-0.00623615
1.59307e-05
-0.00605635
-3.07576e-06
-0.00587524
-1.1404e-05
-0.00569278
-2.23515e-05
-0.00553229
-1.32935e-05
-0.00539906
-1.53247e-06
-0.00525753
-2.7401e-05
-0.00510614
-5.14743e-05
-0.0049839
-3.72679e-05
-0.00488128
-2.64368e-05
-0.00481336
1.24643e-07
-0.00477491
2.57783e-05
-0.00475151
3.675e-05
-0.00472966
3.35615e-05
-0.00469728
1.64304e-05
-0.00466461
6.99238e-06
-0.00464296
8.26329e-06
-0.00464235
1.85938e-05
-0.00465415
1.85235e-05
-0.00466471
9.66042e-06
-0.0046698
-1.2246e-06
-0.00467747
-4.33054e-06
-0.00469338
-3.56621e-06
-0.00471731
-2.95231e-06
-0.00475347
2.5174e-06
-0.00479953
5.92046e-06
-0.00486233
1.42156e-05
-0.0049436
2.05581e-05
-0.00504026
2.063e-05
-0.0051456
1.27785e-05
-0.00525747
3.20483e-06
-0.00537964
3.85845e-08
-0.00551416
3.39536e-06
-0.0056575
8.11632e-06
-0.00580106
9.76426e-06
-0.00593786
9.31564e-06
-0.0060611
4.9131e-06
-0.00617663
6.48977e-06
-0.00628236
7.12192e-06
-0.00638645
1.11465e-05
-0.00648984
1.50999e-05
-0.00659727
1.8992e-05
-0.00670439
1.69319e-05
-0.00681077
1.16791e-05
-0.00692298
1.00664e-05
-0.00704152
7.89705e-06
-0.00715707
-3.42308e-06
-0.00729411
1.44838e-05
-0.00742908
1.06805e-05
-0.00756161
1.17823e-05
-0.00767355
-3.31081e-06
-0.00777946
-3.91902e-06
-0.00788381
1.2803e-06
-0.00797392
-8.46981e-06
-0.00806318
-6.19186e-06
-0.00814863
-9.67458e-06
-0.00823979
-5.48603e-06
-0.00830873
-2.96088e-05
-0.00836438
-4.29097e-05
-0.00843159
-2.86043e-05
-0.00849209
-2.86036e-05
-0.00856086
-1.1088e-05
-0.00863909
9.28348e-06
-0.00869548
-2.27175e-06
-0.0087468
9.68806e-07
-0.00879554
6.14929e-06
-0.00881523
-1.34339e-05
-0.00881974
-1.89432e-05
-0.00882188
-1.24247e-05
-0.00882181
-4.17132e-06
-0.00882148
4.80567e-06
-0.00881515
6.18871e-06
-0.00879557
7.84083e-07
-0.00875794
-1.32406e-05
-0.00871154
-2.06312e-05
-0.00866338
-2.25076e-05
-0.00862554
-1.38087e-05
-0.00859419
-7.2248e-06
-0.00856202
-5.55355e-06
-0.00852094
-8.60423e-06
-0.00846638
-1.50129e-05
-0.00839848
-1.97995e-05
-0.00832256
-2.01973e-05
-0.00824869
-1.11666e-05
-0.00817462
-6.42049e-06
-0.00810554
1.48574e-06
-0.00802565
-5.83088e-06
-0.00794488
-2.59256e-06
-0.00784505
-1.62817e-05
-0.00773003
-2.52508e-05
-0.00761272
-2.08938e-05
-0.00748201
-3.06736e-05
-0.00736693
-1.50256e-05
-0.00724998
-2.12645e-05
-0.00715035
-1.16233e-05
-0.00704647
-2.51337e-05
-0.00696084
-1.66279e-05
-0.00687228
-2.64636e-05
-0.00679095
-2.20335e-05
-0.00670264
-2.98697e-05
-0.00661542
-2.31294e-05
-0.00651455
-3.26783e-05
-0.00641512
-2.70586e-05
-0.00630192
-3.75157e-05
-0.00619735
-2.97419e-05
-0.00609794
-2.69079e-05
-0.00600632
-2.35319e-05
-0.00592768
-1.66107e-05
-0.00586442
-8.75764e-06
-0.00580842
-9.72752e-06
-0.00575614
-1.33615e-05
-0.00570168
-2.13846e-05
-0.0056412
-3.18308e-05
-0.00557867
-3.79661e-05
-0.00551605
-4.17855e-05
-0.00546733
-3.18666e-05
-0.00542908
-2.41777e-05
-0.00538882
-2.85958e-05
-0.00534922
-2.94999e-05
-0.00530926
-3.07724e-05
-0.0052667
-3.60116e-05
-0.0052345
-2.83873e-05
-0.00520967
-2.45855e-05
-0.0051886
-2.57729e-05
-0.00516228
-3.62912e-05
-0.00513857
-3.95438e-05
-0.00511511
-4.5245e-05
-0.00509681
-4.61686e-05
-0.00508458
-4.62578e-05
-0.0050825
-4.21499e-05
-0.0050872
-4.07724e-05
-0.00510184
-3.51922e-05
-0.0051232
-3.23714e-05
-0.00514783
-3.20552e-05
-0.0051713
-3.55948e-05
-0.00519517
-3.73337e-05
-0.00521959
-3.89638e-05
-0.0052513
-3.39146e-05
-0.00528692
-3.23385e-05
-0.00533142
-2.61596e-05
-0.00537433
-3.06009e-05
-0.00542091
-2.95078e-05
-0.0054625
-3.78947e-05
-0.00550652
-3.82478e-05
-0.00554744
-4.47086e-05
-0.00559178
-4.31167e-05
-0.00563906
-4.27423e-05
-0.00568822
-4.28272e-05
-0.00573364
-4.85167e-05
-0.00578074
-4.85749e-05
-0.00582593
-5.22249e-05
-0.00586955
-5.5012e-05
-0.00591286
-5.65434e-05
-0.00595422
-5.85028e-05
-0.00599591
-5.81679e-05
-0.00603308
-6.19548e-05
-0.00607559
-5.59826e-05
-0.00611128
-6.08528e-05
-0.00615233
-5.35426e-05
-0.00618531
-5.90075e-05
-0.00621752
-5.84546e-05
-0.00623766
-7.0309e-05
-0.00626875
-5.91263e-05
-0.00629206
-6.74765e-05
-0.00632328
-5.88618e-05
-0.00634739
-6.6818e-05
-0.00638113
-5.62691e-05
-0.00640746
-6.42064e-05
-0.00643396
-6.33362e-05
-0.00644596
-7.76358e-05
-0.00646557
-6.77956e-05
-0.00647712
-7.42376e-05
-0.00649678
-6.25996e-05
-0.0065078
-6.88707e-05
-0.00651998
-6.66441e-05
-0.00652202
-7.58126e-05
-0.00652337
-7.6035e-05
-0.00651599
-8.3943e-05
-0.00651109
-8.08276e-05
-0.00649995
-8.42046e-05
-0.00649017
-8.04909e-05
-0.00647558
-8.22798e-05
-0.00645528
-8.54094e-05
-0.00643422
-8.40055e-05
-0.00641458
-7.99275e-05
-0.00638819
-8.47649e-05
-0.00636825
-7.69794e-05
-0.00634447
-7.91972e-05
-0.00632771
-7.08605e-05
-0.00630387
-7.69198e-05
-0.00628578
-6.91117e-05
-0.00625847
-7.69693e-05
-0.00623907
-6.86164e-05
-0.00621121
-7.60388e-05
-0.00618987
-6.95198e-05
-0.00616276
-7.43653e-05
-0.00614128
-6.85234e-05
-0.00611509
-7.16273e-05
-0.00609345
-6.60326e-05
-0.00606667
-7.09697e-05
-0.00604683
-6.43045e-05
-0.00602592
-6.78326e-05
-0.0060129
-6.16837e-05
-0.00599815
-6.54359e-05
-0.00598587
-6.30234e-05
-0.00597395
-6.24307e-05
-0.00596291
-6.06072e-05
-0.00594977
-6.12845e-05
-0.00593578
-6.04299e-05
-0.00591656
-6.49534e-05
-0.00589681
-6.38998e-05
-0.00587566
-6.52066e-05
-0.00585695
-6.2601e-05
-0.00583865
-6.14212e-05
-0.00582308
-5.77531e-05
-0.00581188
-5.21436e-05
-0.00580169
-4.95355e-05
-0.00578988
-4.92138e-05
-0.00577654
-4.87412e-05
-0.00576203
-4.75533e-05
-0.00574771
-4.45547e-05
-0.00572889
-4.66436e-05
-0.00571253
-4.13173e-05
-0.00569303
-4.17356e-05
-0.00567553
-3.62192e-05
-0.00565455
-3.70433e-05
-0.00563599
-3.12087e-05
-0.00561535
-3.08875e-05
-0.00559732
-2.51253e-05
-0.00557799
-2.42057e-05
-0.00556138
-1.88133e-05
-0.00554112
-1.98593e-05
-0.0055256
-1.28196e-05
-0.00550369
-1.66492e-05
-0.005487
-9.27343e-06
-0.00546633
-1.10432e-05
-0.00544712
-8.38353e-06
-0.00542696
-7.31808e-06
-0.00540511
-6.79251e-06
-0.00538381
-3.45504e-06
-0.00536065
-2.81918e-06
-0.00533849
4.78164e-07
-0.00531465
6.77244e-07
-0.00529182
3.20641e-06
-0.00526706
2.34493e-06
-0.00524452
4.75587e-06
-0.00522247
4.84944e-06
-0.0052033
6.86587e-06
-0.00518594
7.16404e-06
-0.00517187
8.95125e-06
-0.00515877
8.65143e-06
-0.00514855
1.04479e-05
-0.00513806
9.45307e-06
-0.00513058
1.13729e-05
-0.00512448
1.1987e-05
-0.00512151
1.38747e-05
-0.00512127
1.4904e-05
-0.00512307
1.51211e-05
-0.0051265
1.45764e-05
-0.00513252
1.48529e-05
-0.0051407
1.47031e-05
-0.00515155
1.50164e-05
-0.00516433
1.47735e-05
-0.00517918
1.4779e-05
-0.00519547
1.43698e-05
-0.00521211
1.31934e-05
-0.00523178
1.44688e-05
-0.00524866
1.07828e-05
-0.0052699
1.40586e-05
-0.00529083
1.2065e-05
-0.00531609
1.51526e-05
-0.00534391
1.66395e-05
-0.00537718
2.12768e-05
-0.00541412
2.4129e-05
-0.00545067
2.33787e-05
-0.00548493
2.0287e-05
-0.0055085
9.45761e-06
-0.00552566
3.35761e-06
-0.00552395
-1.4616e-05
-0.0055134
-2.38098e-05
-0.00547295
-5.32096e-05
-0.00541365
-7.08798e-05
-0.00534263
-8.17754e-05
-0.00525656
-9.33723e-05
-0.00516603
-9.73442e-05
-0.00507554
-9.77101e-05
-0.00498621
-9.44861e-05
-0.00486996
-0.000119494
-0.0047967
-7.51886e-05
-0.000100573
-0.00166921
0.000885482
-0.00325871
0.00107268
-0.00524495
0.00128829
-0.00683088
0.00118245
-0.00854416
0.00116875
-0.00998693
0.000739174
-0.01168
0.000876477
-0.013051
0.000234062
-0.0147838
0.000726192
-0.0161732
0.000123966
-0.0179083
0.000694787
-0.0192971
0.00020514
-0.020732
0.000424592
-0.0219179
7.72384e-05
-0.023245
0.000191859
-0.0243233
-4.00388e-05
-0.025625
0.000124923
-0.0265091
-0.000143749
-0.0278276
0.000149297
-0.0289798
-0.000215348
-0.03056
7.9935e-05
-0.0312933
-0.000234232
-0.0331514
0.000635177
-0.034394
0.000641352
-0.036753
0.00151262
-0.0380588
0.00098078
-0.0406841
0.0019463
-0.0423454
0.00163015
-0.0455666
0.0028918
-0.0476727
0.00266352
-0.0515259
0.00405073
-0.0543407
0.00403049
-0.0586186
0.00521439
-0.0620426
0.00540753
-0.0667495
0.00634674
-0.0703738
0.00640275
-0.0750906
0.00708496
-0.078856
0.00718569
-0.0831083
0.00739514
-0.0865542
0.00730466
-0.089879
0.006872
-0.092833
0.00633643
-0.0948377
0.00512165
-0.096905
0.00438947
-0.097763
0.00265865
-0.0987667
0.00188159
-0.0989303
0.00054942
-0.0992451
0.000177709
-0.0986588
-0.00114621
-0.0981719
-0.00138487
-0.0965933
-0.00250681
-0.0951107
-0.00260285
-0.0929396
-0.00345896
-0.0906627
-0.00416914
-0.0882048
-0.00393207
-0.0859348
-0.0048913
-0.0823772
-0.00608859
-0.0783645
-0.00776373
-0.0742699
-0.00724995
-0.0711878
-0.0060638
-0.067536
-0.00645887
-0.0636201
-0.00713691
-0.0597263
-0.00711443
-0.0562955
-0.00633928
-0.0531379
-0.00548123
-0.0497235
-0.00588458
-0.0465652
-0.00511692
-0.0438324
-0.00461004
-0.0408713
-0.00502785
-0.038188
-0.00434843
-0.0356775
-0.00427374
-0.032959
-0.00440902
-0.0306117
-0.00386022
-0.0283982
-0.00359307
-0.0262499
-0.00360771
-0.0240916
-0.00331795
-0.0222526
-0.00300987
-0.0203531
-0.0028396
-0.0186795
-0.00261289
-0.0170381
-0.0023399
-0.0156439
-0.00212832
-0.0142415
-0.00191336
-0.0131185
-0.00165793
-0.011928
-0.0015354
-0.0110243
-0.00127199
-0.0100705
-0.00112061
-0.0093371
-0.000941574
-0.00851253
-0.000848744
-0.00793563
-0.000636398
-0.00734575
-0.000520941
-0.00698662
-0.000300787
-0.00664122
-0.000219916
-0.006343
-6.48937e-05
-0.00607484
2.16578e-05
-0.00580376
9.92209e-05
-0.00561019
0.000189498
-0.0053844
0.000178856
-0.00526245
0.000249978
-0.00512245
0.000232307
-0.00508674
0.000282203
-0.00497662
0.000255924
-0.00495961
0.000279847
-0.00485938
0.000221268
-0.00486192
0.000258227
-0.00481193
0.000219594
-0.00482887
0.000251206
-0.00480699
0.0002112
-0.00483579
0.000226214
-0.00485245
0.000214453
-0.00491475
0.000248818
-0.00491403
0.000230714
-0.00497246
0.000214136
-0.00498516
0.000194983
-0.00501024
0.000169982
-0.00505548
0.000194462
-0.0050854
0.000151423
-0.00511973
0.00016388
-0.00514082
0.000113649
-0.00517593
0.00012398
-0.00517795
8.27968e-05
-0.00519356
8.32407e-05
-0.00522533
5.51149e-05
-0.00526946
5.88533e-05
-0.00534021
4.66324e-05
-0.00541752
2.5114e-05
-0.00550396
7.74286e-06
-0.00560293
1.15596e-05
-0.00572556
3.32099e-05
-0.00585775
3.58206e-05
-0.00599404
1.584e-05
-0.00614004
9.15264e-06
-0.00628305
-3.13681e-05
-0.00641964
-8.28971e-05
-0.00657527
-8.12654e-05
-0.0067645
-3.12934e-05
-0.00695436
-3.27765e-05
-0.00717775
-3.07724e-05
-0.00739345
-5.34548e-05
-0.00765704
-1.75416e-06
-0.00791071
-3.12948e-05
-0.0081596
-7.34087e-05
-0.00839812
-9.41129e-05
-0.00863449
-7.25978e-05
-0.00890256
-9.39566e-06
-0.00913503
-4.02376e-05
-0.00942092
3.13804e-05
-0.00967793
3.33834e-06
-0.00995164
2.27473e-05
-0.0102279
-7.6353e-06
-0.010495
-7.77612e-05
-0.0107548
-9.60937e-05
-0.0110454
-1.73998e-05
-0.0113454
4.15356e-05
-0.0116285
3.0177e-05
-0.0118783
-3.89003e-05
-0.0121037
-6.77902e-05
-0.0123212
-6.90485e-05
-0.0125099
-0.000142493
-0.0126904
-0.00013635
-0.012893
-8.07057e-05
-0.0130761
-0.000109658
-0.0132677
-6.27641e-05
-0.0134633
8.37924e-06
-0.0136437
1.65853e-05
-0.0137997
-9.96995e-06
-0.013919
-5.99767e-05
-0.0140224
-4.21295e-05
-0.0141064
-3.65534e-05
-0.0141703
-6.21069e-05
-0.0141994
-0.00012366
-0.0142154
-0.000130701
-0.0142393
-0.000107286
-0.0142623
-9.58881e-05
-0.0142811
-9.01765e-05
-0.0142935
-9.80986e-05
-0.0142919
-0.000109014
-0.0142775
-0.000107661
-0.0142478
-9.91938e-05
-0.0142082
-9.22364e-05
-0.014154
-9.93026e-05
-0.0140766
-0.000119848
-0.0139775
-0.000136886
-0.0138565
-0.000143329
-0.0137191
-0.000140009
-0.0135613
-0.00013612
-0.0133886
-0.0001259
-0.0132017
-0.000124418
-0.0129874
-0.000153149
-0.0127759
-0.000126572
-0.0125236
-0.000156958
-0.0122991
-8.45904e-05
-0.0120433
-9.16539e-05
-0.011808
-4.59623e-05
-0.0115366
-8.96616e-05
-0.0112878
-8.15036e-05
-0.0110027
-0.000121131
-0.0107383
-9.9093e-05
-0.0104349
-0.000136642
-0.0101711
-8.12411e-05
-0.00987464
-0.000108872
-0.00963143
-3.65325e-05
-0.00938364
-4.04467e-05
-0.0091435
-5.17606e-05
-0.00887431
-0.000102136
-0.00861813
-7.08805e-05
-0.00833913
-0.000115094
-0.0080965
-6.13528e-05
-0.00783499
-9.02865e-05
-0.00760985
-5.58993e-05
-0.00737118
-6.24471e-05
-0.00718288
1.03268e-05
-0.00697938
-3.13383e-05
-0.0067743
-4.6831e-05
-0.00654656
-8.82207e-05
-0.00637626
-3.54145e-05
-0.0062024
-4.15663e-05
-0.00605433
-5.89867e-05
-0.00588492
-0.000119918
-0.00576244
-7.37049e-05
-0.00562694
-8.28262e-05
-0.0055511
-7.97602e-06
-0.00548814
2.62285e-05
-0.0054401
4.77424e-05
-0.0053981
4.58677e-05
-0.00535795
2.33622e-05
-0.00531949
6.88052e-06
-0.00528729
5.22615e-06
-0.00526831
1.74883e-05
-0.00526154
1.80855e-05
-0.00525889
4.9671e-06
-0.00525587
-1.20537e-05
-0.00525945
-1.56574e-05
-0.00527188
-1.31544e-05
-0.00529359
-1.05172e-05
-0.00532674
-1.14927e-07
-0.00537058
8.51693e-06
-0.00542782
2.14883e-05
-0.00550247
3.2747e-05
-0.00559122
3.2358e-05
-0.00569433
2.26264e-05
-0.00580856
8.69897e-06
-0.00593681
6.1149e-06
-0.0060743
9.88874e-06
-0.00622025
1.86773e-05
-0.00636414
2.03928e-05
-0.00650553
2.33234e-05
-0.00663541
1.59155e-05
-0.00675818
1.8894e-05
-0.0068736
2.38928e-05
-0.00698677
2.9719e-05
-0.00709921
3.64793e-05
-0.00721798
4.60608e-05
-0.00732899
3.54994e-05
-0.00744815
3.45458e-05
-0.00756673
2.54309e-05
-0.00769578
2.56385e-05
-0.00783204
1.27578e-05
-0.00799952
5.93054e-05
-0.00814114
2.58162e-05
-0.0083044
5.27587e-05
-0.00842771
3.35586e-06
-0.00854752
5.59452e-06
-0.0086566
5.83507e-06
-0.00876108
-8.45097e-07
-0.00886366
1.20736e-06
-0.00896323
-5.51172e-06
-0.00906157
-2.98137e-06
-0.00912992
-5.97479e-05
-0.00921817
-5.30773e-05
-0.00930554
-3.66638e-05
-0.0093878
-3.62717e-05
-0.0094816
3.06524e-06
-0.00955801
1.55852e-05
-0.00963609
1.75643e-05
-0.00969293
7.89841e-06
-0.00974529
1.76002e-05
-0.00977907
-1.29934e-05
-0.00980091
-1.88033e-05
-0.0098173
-1.04023e-05
-0.00982451
-7.18113e-07
-0.00982556
9.00736e-06
-0.00981646
7.58439e-06
-0.00979904
-8.46123e-07
-0.00977387
-1.94581e-05
-0.00974453
-2.91784e-05
-0.0097126
-3.56299e-05
-0.00968638
-2.36809e-05
-0.00965975
-1.02196e-05
-0.00963171
-5.49398e-06
-0.00959727
-8.33158e-06
-0.00955092
-2.0572e-05
-0.00949358
-2.83677e-05
-0.00942922
-2.76644e-05
-0.00935939
-1.81088e-05
-0.00929217
-5.57567e-06
-0.00921893
-1.0099e-06
-0.00914707
-2.41993e-06
-0.00905901
-1.2286e-05
-0.00896471
-2.56264e-05
-0.00885894
-4.01516e-05
-0.00873841
-4.38533e-05
-0.00862806
-3.92531e-05
-0.00850775
-3.5772e-05
-0.00840976
-2.32012e-05
-0.00830252
-3.12587e-05
-0.0082061
-4.2573e-05
-0.00810572
-4.87244e-05
-0.00802296
-4.49963e-05
-0.00792361
-6.14742e-05
-0.00783851
-5.68285e-05
-0.0077319
-6.51421e-05
-0.00762813
-7.08786e-05
-0.00752008
-6.32387e-05
-0.00739302
-9.21131e-05
-0.00728212
-6.71597e-05
-0.00717034
-6.65402e-05
-0.00707484
-5.18456e-05
-0.00699014
-4.09562e-05
-0.006927
-1.62719e-05
-0.00685277
-3.71853e-05
-0.00679296
-3.58618e-05
-0.00672005
-6.12714e-05
-0.00665616
-6.71327e-05
-0.00658674
-8.27069e-05
-0.00652916
-7.92538e-05
-0.00647227
-7.12495e-05
-0.00642511
-5.74162e-05
-0.00637803
-6.41061e-05
-0.00633243
-6.51103e-05
-0.00628049
-7.42111e-05
-0.00623914
-7.16154e-05
-0.00618874
-7.52801e-05
-0.00615363
-6.04221e-05
-0.00611889
-6.57661e-05
-0.00609101
-7.45341e-05
-0.00606533
-8.09267e-05
-0.00604661
-8.56504e-05
-0.00603291
-8.7069e-05
-0.00602752
-8.54112e-05
-0.00602725
-8.17459e-05
-0.00603563
-7.72847e-05
-0.00604801
-7.22036e-05
-0.00606518
-6.86964e-05
-0.00608419
-6.95758e-05
-0.00610656
-7.23628e-05
-0.0061295
-7.56141e-05
-0.0061588
-7.31565e-05
-0.00618976
-6.85893e-05
-0.00622931
-6.12024e-05
-0.00626623
-5.94813e-05
-0.00631003
-5.99352e-05
-0.00634939
-6.60241e-05
-0.0063903
-7.60622e-05
-0.00643797
-7.22651e-05
-0.00647613
-9.16145e-05
-0.00652806
-7.89045e-05
-0.00656775
-9.35206e-05
-0.00662564
-7.69339e-05
-0.0066641
-0.000104343
-0.0067285
-8.02909e-05
-0.00677399
-0.000104652
-0.00683561
-9.26842e-05
-0.0068679
-0.000123819
-0.00693112
-9.49964e-05
-0.00696504
-0.000123561
-0.0070255
-0.000101423
-0.00705864
-0.000121865
-0.007115
-0.000102044
-0.00713829
-0.000126035
-0.00718962
-0.000100744
-0.00721313
-0.000125492
-0.00725642
-0.000116793
-0.00727168
-0.00013423
-0.00731396
-0.000116023
-0.00733316
-0.000131523
-0.00737772
-0.00011325
-0.00740161
-0.000123883
-0.00745063
-0.000105488
-0.0074724
-0.000132412
-0.00751521
-0.000123461
-0.00752603
-0.00014554
-0.0075577
-0.000127537
-0.007564
-0.000139916
-0.00758796
-0.000124727
-0.0075911
-0.000141639
-0.00761216
-0.000132558
-0.0076145
-0.000149739
-0.00762757
-0.000146271
-0.00762275
-0.000160002
-0.00762791
-0.000152096
-0.00762563
-0.000153102
-0.0076212
-0.000153573
-0.00761123
-0.000159298
-0.00759734
-0.000158672
-0.00757349
-0.000163956
-0.0075592
-0.000156292
-0.00752984
-0.000163293
-0.00751482
-0.000149746
-0.00748166
-0.000158157
-0.00746459
-0.000145973
-0.00742951
-0.000155301
-0.00741367
-0.000142634
-0.00738017
-0.000151417
-0.00736556
-0.000139932
-0.00733467
-0.000147246
-0.00731818
-0.000138492
-0.00728837
-0.000144998
-0.00727265
-0.000134608
-0.00724149
-0.000142721
-0.00722324
-0.000132649
-0.0071908
-0.000142238
-0.0071779
-0.00012689
-0.00715257
-0.000135648
-0.00714371
-0.000125069
-0.00712752
-0.000129793
-0.00712019
-0.000120339
-0.00710378
-0.000126489
-0.0070929
-0.000120427
-0.00707274
-0.000126778
-0.00705784
-0.000124046
-0.00703454
-0.000131765
-0.00702251
-0.000120329
-0.00700135
-0.000126846
-0.0069885
-0.00011712
-0.00697588
-0.000112142
-0.00696465
-0.000104005
-0.00695649
-9.6941e-05
-0.00694613
-9.69687e-05
-0.0069341
-9.53047e-05
-0.00692438
-8.97718e-05
-0.00691022
-8.89614e-05
-0.00689849
-8.57456e-05
-0.00688237
-8.19779e-05
-0.00686997
-7.59755e-05
-0.0068526
-7.21118e-05
-0.00683968
-6.57716e-05
-0.00682199
-6.09328e-05
-0.00680805
-5.42804e-05
-0.00679107
-4.84243e-05
-0.00677628
-4.26316e-05
-0.00675899
-3.76494e-05
-0.00674611
-3.15743e-05
-0.00672599
-2.95085e-05
-0.0067114
-2.47764e-05
-0.00669036
-2.14225e-05
-0.00667164
-1.84746e-05
-0.00665188
-1.51089e-05
-0.00662993
-1.42135e-05
-0.00660883
-1.0922e-05
-0.00658541
-8.03047e-06
-0.00656304
-4.34324e-06
-0.00653796
-1.51296e-06
-0.00651464
2.00369e-06
-0.00648912
4.02165e-06
-0.00646428
4.71165e-06
-0.00643948
7.48176e-06
-0.00641704
9.48025e-06
-0.00639566
1.18521e-05
-0.00637766
1.35054e-05
-0.00636163
1.66302e-05
-0.00634685
1.63288e-05
-0.00633506
1.99893e-05
-0.00632349
1.85177e-05
-0.00631553
2.29517e-05
-0.00630651
2.18527e-05
-0.00630146
2.62745e-05
-0.00629606
2.49296e-05
-0.00629449
2.6905e-05
-0.00629539
2.68969e-05
-0.00629858
2.70876e-05
-0.00630427
2.71747e-05
-0.00631135
2.64748e-05
-0.00632086
2.61944e-05
-0.0063322
2.60371e-05
-0.00634453
2.47679e-05
-0.00635978
2.47438e-05
-0.00637231
2.20361e-05
-0.00638958
2.17651e-05
-0.00640183
1.91975e-05
-0.00642004
2.11103e-05
-0.00643694
2.17519e-05
-0.00645536
2.3547e-05
-0.00647369
2.70987e-05
-0.00649148
2.85651e-05
-0.00650831
2.62957e-05
-0.00651369
1.15749e-05
-0.00652435
6.82086e-06
-0.00651334
-2.10819e-05
-0.00651626
-2.51344e-05
-0.00648635
-6.67525e-05
-0.00646797
-8.44281e-05
-0.00641888
-0.000131217
-0.00636431
-0.000147193
-0.00630318
-0.000162024
-0.00621065
-0.000197971
-0.00613126
-0.00018352
-0.0059866
-0.000244016
-0.00591087
-0.000198491
-0.00578806
-0.000200317
-0.000184372
-0.00142031
0.0013386
-0.00327165
0.0019604
-0.00469213
0.00174695
-0.00637992
0.00191536
-0.007934
0.00175993
-0.00998049
0.00183793
-0.0117329
0.00168434
-0.0141117
0.00167476
-0.0159998
0.00168446
-0.0181686
0.00131177
-0.0198101
0.00143894
-0.0214786
0.000944334
-0.0229272
0.000945937
-0.0245049
0.000764393
-0.0258753
0.00066544
-0.0273847
0.000609383
-0.0287796
0.000601383
-0.0304014
0.000660129
-0.0317669
0.000683596
-0.0336599
0.000900493
-0.0350442
0.000707269
-0.0373879
0.00138047
-0.0391833
0.00166431
-0.0418648
0.00260949
-0.0436667
0.00262295
-0.0467049
0.00335764
-0.0489376
0.00354996
-0.0525989
0.00467602
-0.0552624
0.00494289
-0.0594358
0.00625882
-0.0625333
0.00656108
-0.0670076
0.00797572
-0.0704242
0.00809431
-0.0749312
0.00941904
-0.0783807
0.00932813
-0.0825259
0.0100305
-0.0856855
0.00978747
-0.0890289
0.0101385
-0.0917564
0.00968747
-0.0943077
0.00948943
-0.096542
0.00876229
-0.0980875
0.00749338
-0.0997564
0.00648142
-0.100559
0.00481459
-0.101509
0.00330319
-0.101819
0.00193255
-0.102259
0.000761518
-0.10191
-0.000414927
-0.101981
-0.00129202
-0.10076
-0.00279833
-0.0999727
-0.00347738
-0.0978639
-0.00489043
-0.0955721
-0.00592387
-0.0928879
-0.00697047
-0.0906573
-0.00633035
-0.0876643
-0.00811287
-0.083546
-0.0103306
-0.0792
-0.0122667
-0.0752573
-0.0112605
-0.0720763
-0.00932034
-0.0678965
-0.010703
-0.063836
-0.0111596
-0.0596709
-0.011229
-0.0567256
-0.00921577
-0.053368
-0.00877506
-0.0496931
-0.00953391
-0.0464153
-0.00831512
-0.0436564
-0.0072731
-0.0401473
-0.00842158
-0.0376994
-0.00667267
-0.0347805
-0.00707034
-0.0319415
-0.00715163
-0.0296567
-0.00602476
-0.0274102
-0.00563575
-0.0248526
-0.00602806
-0.0231032
-0.00484274
-0.0208442
-0.00504111
-0.0192739
-0.00418194
-0.0173096
-0.0043438
-0.0159756
-0.00343144
-0.0143147
-0.00355295
-0.0132263
-0.0027668
-0.0118782
-0.00277323
-0.010969
-0.00221556
-0.00990973
-0.00209272
-0.009152
-0.00164576
-0.00830725
-0.00154291
-0.00771748
-0.00119073
-0.00711047
-0.000990471
-0.0067473
-0.000623985
-0.00633109
-0.000449112
-0.00604196
-0.00023834
-0.00571202
-0.000111376
-0.00543651
2.02086e-05
-0.0052033
0.000145304
-0.00497311
0.000236183
-0.00482341
0.000293478
-0.00463462
0.000314973
-0.00457814
0.000400317
-0.00448762
0.000393006
-0.00447501
0.000468262
-0.00438083
0.000396328
-0.0043469
0.000395747
-0.00426113
0.000356128
-0.00418136
0.000362366
-0.00425346
0.000358736
-0.00424192
0.000336879
-0.00431937
0.000366043
-0.00442763
0.000374237
-0.00448685
0.000392663
-0.00450193
0.000334718
-0.00455737
0.000349215
-0.00458925
0.000286165
-0.00465307
0.000309754
-0.00467568
0.000257084
-0.00473164
0.000269946
-0.004748
0.000232142
-0.00479726
0.00021679
-0.00480742
0.000178832
-0.00485174
0.000165485
-0.00488733
0.000120762
-0.00495264
0.00010262
-0.00496929
5.67803e-05
-0.00500998
4.4391e-05
-0.00510475
5.13919e-05
-0.00518889
-5.91571e-06
-0.00529368
2.32944e-05
-0.00540352
3.30872e-05
-0.00556668
6.7628e-05
-0.00570987
1.87524e-05
-0.0058606
1.06309e-05
-0.00599712
-5.29192e-05
-0.00613191
-0.000116362
-0.00628219
-0.000120675
-0.00645329
-5.59457e-05
-0.00671128
1.14308e-05
-0.0068514
-0.000117182
-0.00714232
-1.2221e-05
-0.00736703
-3.73943e-05
-0.00764639
-2.42683e-05
-0.00790481
-8.50987e-05
-0.00810808
-0.000159649
-0.00835988
-8.18003e-05
-0.0085572
-6.50852e-05
-0.00890868
6.50259e-05
-0.00910277
-2.57165e-05
-0.00940724
5.09951e-05
-0.00971178
6.57596e-05
-0.0100022
1.19679e-05
-0.0102614
-9.96269e-05
-0.0105077
-0.000130566
-0.010799
-1.18937e-05
-0.0111146
7.68579e-05
-0.0114118
6.52772e-05
-0.0116659
-4.7838e-05
-0.0118798
-0.000100913
-0.0121017
-8.22385e-05
-0.0122769
-0.000198753
-0.0124543
-0.000188184
-0.0126755
-8.62118e-05
-0.012859
-0.000144683
-0.0130555
-7.45426e-05
-0.0132566
1.65831e-05
-0.0134472
3.27934e-05
-0.0136034
-9.47581e-06
-0.0137208
-7.70773e-05
-0.0138326
-4.43159e-05
-0.0139334
-3.62628e-05
-0.0140013
-7.84959e-05
-0.0140304
-0.000164836
-0.0140433
-0.000180304
-0.0140711
-0.00014276
-0.014109
-0.000117593
-0.0141434
-0.000110724
-0.0141582
-0.00013439
-0.0141559
-0.000155557
-0.0141387
-0.000149909
-0.0141169
-0.0001352
-0.0140867
-0.00012557
-0.01404
-0.000136074
-0.0139762
-0.000157785
-0.0138804
-0.000191255
-0.0137777
-0.000187651
-0.0136442
-0.000195333
-0.0134968
-0.000189483
-0.0133271
-0.000186501
-0.0131399
-0.000181386
-0.0129378
-0.000202424
-0.0127053
-0.000195457
-0.0124863
-0.000195384
-0.0122367
-0.000147093
-0.012006
-0.000126466
-0.0117607
-8.6106e-05
-0.0115313
-0.000108549
-0.0112511
-0.000146166
-0.0109904
-0.000167022
-0.0106942
-0.000177598
-0.0104384
-0.000170679
-0.0101314
-0.000165422
-0.00987783
-0.000142561
-0.00960585
-9.58951e-05
-0.00939077
-4.56449e-05
-0.00912571
-0.000109098
-0.00887305
-0.000148694
-0.00858742
-0.000150208
-0.00833753
-0.000161908
-0.00806395
-0.000132471
-0.0078384
-0.000118094
-0.00757667
-0.000122842
-0.0073684
-8.12255e-05
-0.00717345
5.79912e-08
-0.00697618
-4.98741e-05
-0.00673917
-0.000112933
-0.0065489
-0.000117994
-0.00635063
-8.36115e-05
-0.00620234
-5.52738e-05
-0.00602641