/*--------------------------------*- C++ -*----------------------------------*\
| =========                 |                                                 |
| \\      /  F ield         | OpenFOAM: The Open Source CFD Toolbox           |
|  \\    /   O peration     | Version:  v1812                                 |
|   \\  /    A nd           | Web:      www.OpenFOAM.com                      |
|    \\/     M anipulation  |                                                 |
\*---------------------------------------------------------------------------*/
FoamFile
{
    version     2.0;
    format      ascii;
    class       volScalarField;
    location    "0.3";
    object      rho;
}
// * * * * * * * * * * * * * * * * * * * * * * * * * * * * * * * * * * * * * //

dimensions      [1 -3 0 0 0 0 0];


internalField   nonuniform List<scalar> 
20400
(
1.2013
1.20132
1.20138
1.20149
1.20157
1.20201
1.2023
1.20317
1.20388
1.20506
1.20604
1.20718
1.20817
1.20904
1.20985
1.21051
1.21113
1.2117
1.21228
1.21252
1.21288
1.21328
1.21357
1.21381
1.21405
1.21419
1.21455
1.2147
1.21496
1.21493
1.21512
1.21495
1.21523
1.21511
1.21529
1.21525
1.21543
1.21547
1.21563
1.21551
1.21558
1.21568
1.21596
1.21599
1.21624
1.21645
1.21661
1.21673
1.21707
1.21723
1.21782
1.21822
1.2189
1.21918
1.21935
1.21975
1.22017
1.22058
1.22087
1.22092
1.22144
1.22178
1.22213
1.22212
1.22238
1.22267
1.22276
1.22287
1.22307
1.22286
1.22282
1.22281
1.22245
1.22223
1.22199
1.22172
1.22139
1.22098
1.22048
1.21991
1.21935
1.21874
1.21813
1.21747
1.21682
1.2161
1.21541
1.21464
1.21392
1.21312
1.21232
1.2115
1.21062
1.20974
1.20882
1.20787
1.20692
1.20594
1.20499
1.20405
1.20311
1.20222
1.20132
1.20045
1.1996
1.19876
1.19798
1.19722
1.19652
1.19587
1.19527
1.19477
1.19428
1.1939
1.19357
1.1933
1.19306
1.19289
1.19275
1.19265
1.19258
1.19256
1.19255
1.19259
1.19266
1.19276
1.19288
1.19304
1.19323
1.19345
1.19369
1.19396
1.19424
1.19452
1.1948
1.19509
1.1954
1.19572
1.19604
1.19638
1.19675
1.1971
1.19744
1.19777
1.1981
1.19841
1.19872
1.19904
1.19936
1.1997
1.20004
1.20036
1.20067
1.201
1.20134
1.20167
1.20198
1.2023
1.20259
1.20287
1.20315
1.20341
1.20366
1.20392
1.20418
1.20443
1.20467
1.20488
1.20508
1.20528
1.20543
1.20555
1.20564
1.20571
1.20576
1.2058
1.20581
1.20581
1.2058
1.20579
1.20576
1.20572
1.20566
1.20558
1.2055
1.2054
1.20528
1.20515
1.20501
1.20485
1.20466
1.20446
1.20426
1.20405
1.20384
1.20362
1.2034
1.20318
1.20295
1.20273
1.2025
1.20227
1.20206
1.20185
1.20162
1.2014
1.20116
1.20093
1.20068
1.20044
1.20019
1.19997
1.19976
1.19957
1.19939
1.19921
1.19905
1.19891
1.19875
1.19862
1.19849
1.19836
1.19826
1.19818
1.19813
1.19809
1.19806
1.19804
1.19802
1.19801
1.19801
1.19803
1.19805
1.19809
1.19814
1.19821
1.1983
1.19841
1.19853
1.19867
1.19881
1.19897
1.19913
1.1993
1.19948
1.19968
1.19988
1.20008
1.2003
1.20051
1.20072
1.20093
1.20114
1.20135
1.20155
1.20175
1.20195
1.20215
1.20236
1.20255
1.20276
1.20296
1.20315
1.20334
1.20352
1.2037
1.20387
1.20403
1.20417
1.20429
1.20441
1.20452
1.20463
1.20474
1.20484
1.20492
1.205
1.20505
1.20509
1.20511
1.20513
1.20515
1.20515
1.20515
1.20514
1.2051
1.20506
1.20499
1.20493
1.20485
1.20477
1.20468
1.2046
1.2045
1.2044
1.2043
1.20419
1.20408
1.20396
1.20384
1.20371
1.20359
1.20346
1.20333
1.2032
1.20308
1.20298
1.20288
1.20279
1.20271
1.20264
1.20257
1.20249
1.20242
1.20235
1.20229
1.20223
1.20217
1.20212
1.20208
1.20204
1.20202
1.20199
1.20197
1.20194
1.20192
1.2019
1.2019
1.20189
1.2019
1.20191
1.20192
1.20193
1.20195
1.20196
1.20198
1.202
1.20202
1.20204
1.20205
1.20206
1.20207
1.20208
1.20209
1.20211
1.20213
1.20215
1.20217
1.20219
1.20222
1.20224
1.20226
1.20228
1.20231
1.20233
1.20236
1.20238
1.20241
1.20244
1.20247
1.2025
1.20253
1.20256
1.2026
1.20263
1.20266
1.20269
1.20272
1.20275
1.20279
1.20282
1.20285
1.20287
1.2029
1.20292
1.20294
1.20296
1.20299
1.20301
1.20304
1.20307
1.2031
1.20313
1.20316
1.20319
1.20323
1.20325
1.20328
1.2033
1.20331
1.20333
1.20334
1.20335
1.20337
1.20337
1.20338
1.20338
1.20339
1.20339
1.20339
1.20339
1.20339
1.20338
1.20338
1.20337
1.20337
1.20337
1.20337
1.20337
1.20338
1.20339
1.2034
1.2034
1.20341
1.20341
1.20341
1.20342
1.20343
1.20343
1.20345
1.20347
1.20348
1.2035
1.20352
1.20353
1.20355
1.20357
1.20359
1.2036
1.20362
1.20364
1.20366
1.20368
1.2037
1.20373
1.20375
1.20377
1.2038
1.20382
1.20384
1.20386
1.20387
1.20389
1.2039
1.20392
1.20393
1.20395
1.20396
1.20398
1.20399
1.20401
1.20402
1.20403
1.20403
1.20404
1.20404
1.20403
1.20402
1.20401
1.20399
1.20396
1.20394
1.20391
1.20388
1.20385
1.20382
1.2038
1.20377
1.20375
1.20373
1.20371
1.20369
1.20367
1.20366
1.20365
1.20363
1.20361
1.2036
1.20358
1.20357
1.20358
1.20358
1.20359
1.20361
1.20364
1.20368
1.20374
1.20382
1.20393
1.20406
1.20421
1.20437
1.20451
1.20463
1.20472
1.20479
1.20485
1.2049
1.20498
1.20507
1.20133
1.20132
1.20144
1.20149
1.20177
1.20194
1.20245
1.20299
1.20385
1.205
1.20597
1.20717
1.20814
1.2091
1.20981
1.21054
1.21118
1.21174
1.21223
1.21259
1.21294
1.21347
1.21365
1.214
1.21408
1.21447
1.21458
1.21495
1.21492
1.21534
1.21511
1.21537
1.21522
1.21549
1.21532
1.21557
1.21544
1.21573
1.21568
1.21573
1.21578
1.2158
1.21612
1.21609
1.21639
1.21647
1.2166
1.21673
1.21701
1.21739
1.21784
1.21856
1.21897
1.21957
1.21962
1.22015
1.2205
1.22105
1.22097
1.22137
1.22166
1.22205
1.22227
1.22234
1.22247
1.22299
1.22277
1.2231
1.22313
1.22308
1.22292
1.22279
1.22238
1.22225
1.22195
1.22168
1.22133
1.22095
1.22043
1.21992
1.21931
1.21873
1.21807
1.21748
1.21675
1.21612
1.21536
1.21469
1.21387
1.21312
1.21233
1.21155
1.21068
1.20983
1.2089
1.208
1.20702
1.20611
1.20512
1.20422
1.20325
1.20239
1.20146
1.20063
1.19972
1.19897
1.1981
1.19742
1.19665
1.19605
1.19539
1.19494
1.19441
1.19406
1.19371
1.19345
1.19318
1.19302
1.19285
1.19276
1.19264
1.19264
1.1926
1.19265
1.1927
1.19279
1.19291
1.19307
1.19325
1.19347
1.1937
1.19396
1.19424
1.19452
1.19481
1.19509
1.1954
1.19572
1.19605
1.19638
1.19674
1.19709
1.19744
1.19779
1.19812
1.19845
1.19875
1.19907
1.19938
1.19972
1.20005
1.20038
1.2007
1.20103
1.20134
1.20167
1.20197
1.20228
1.20258
1.20286
1.20315
1.20342
1.20368
1.20394
1.20419
1.20444
1.20467
1.20488
1.20508
1.20526
1.20541
1.20553
1.20562
1.20569
1.20574
1.20578
1.20579
1.20579
1.20578
1.20576
1.20573
1.20568
1.20562
1.20554
1.20546
1.20535
1.20524
1.20512
1.20497
1.20483
1.20463
1.20445
1.20423
1.20403
1.20381
1.20362
1.20339
1.20317
1.20294
1.20272
1.20249
1.20227
1.20205
1.20184
1.20161
1.2014
1.20115
1.20092
1.20067
1.20044
1.20019
1.19997
1.19976
1.19956
1.19937
1.1992
1.19903
1.19889
1.19873
1.19861
1.19848
1.19836
1.19827
1.19819
1.19813
1.19809
1.19806
1.19804
1.19802
1.19801
1.19801
1.19802
1.19804
1.19809
1.19814
1.19822
1.19831
1.19842
1.19854
1.19867
1.19882
1.19897
1.19914
1.19931
1.19949
1.19968
1.19988
1.20009
1.2003
1.20051
1.20072
1.20094
1.20114
1.20135
1.20155
1.20176
1.20196
1.20215
1.20236
1.20256
1.20276
1.20297
1.20316
1.20334
1.20353
1.2037
1.20387
1.20403
1.20416
1.20429
1.20441
1.20452
1.20463
1.20474
1.20484
1.20492
1.205
1.20505
1.20509
1.20511
1.20513
1.20514
1.20514
1.20514
1.20512
1.20509
1.20505
1.20499
1.20493
1.20485
1.20478
1.20469
1.2046
1.2045
1.2044
1.2043
1.20419
1.20408
1.20397
1.20385
1.20372
1.2036
1.20346
1.20333
1.20321
1.2031
1.20299
1.20289
1.20281
1.20273
1.20265
1.20258
1.2025
1.20244
1.20235
1.2023
1.20223
1.20219
1.20213
1.20209
1.20206
1.20203
1.202
1.20197
1.20195
1.20193
1.20191
1.2019
1.2019
1.2019
1.20191
1.20192
1.20194
1.20195
1.20197
1.20199
1.20201
1.20203
1.20205
1.20206
1.20207
1.20208
1.20209
1.20211
1.20212
1.20214
1.20216
1.20218
1.20221
1.20223
1.20225
1.20227
1.2023
1.20231
1.20234
1.20236
1.20239
1.20241
1.20244
1.20247
1.2025
1.20253
1.20257
1.2026
1.20264
1.20266
1.2027
1.20273
1.20277
1.20279
1.20283
1.20285
1.20289
1.2029
1.20294
1.20295
1.20298
1.20299
1.20303
1.20305
1.20309
1.20312
1.20315
1.20318
1.20321
1.20324
1.20328
1.2033
1.20333
1.20334
1.20335
1.20336
1.20338
1.20338
1.2034
1.2034
1.20341
1.20341
1.20342
1.20341
1.20342
1.2034
1.20341
1.2034
1.2034
1.20339
1.20339
1.20339
1.2034
1.2034
1.20341
1.20341
1.20342
1.20342
1.20343
1.20343
1.20343
1.20344
1.20345
1.20346
1.20348
1.2035
1.20352
1.20353
1.20355
1.20357
1.20358
1.2036
1.20362
1.20364
1.20366
1.20368
1.2037
1.20372
1.20374
1.20377
1.20379
1.20381
1.20383
1.20385
1.20387
1.20389
1.2039
1.20391
1.20392
1.20394
1.20395
1.20397
1.20398
1.204
1.20401
1.20402
1.20403
1.20404
1.20404
1.20404
1.20403
1.20402
1.20401
1.20399
1.20396
1.20394
1.20391
1.20388
1.20385
1.20382
1.20379
1.20377
1.20375
1.20373
1.20371
1.20369
1.20368
1.20366
1.20365
1.20363
1.20361
1.2036
1.20358
1.20358
1.20358
1.20359
1.2036
1.20362
1.20365
1.20369
1.20375
1.20383
1.20394
1.20407
1.20422
1.20438
1.20452
1.20464
1.20474
1.2048
1.20487
1.20491
1.20498
1.20509
1.20126
1.20131
1.20126
1.20141
1.20177
1.20203
1.20262
1.20324
1.20396
1.20491
1.20595
1.20719
1.20824
1.2092
1.20996
1.21069
1.21127
1.21187
1.21231
1.21268
1.21312
1.21332
1.21378
1.21399
1.21434
1.21439
1.21478
1.2148
1.21522
1.21519
1.21538
1.21516
1.21551
1.21536
1.21557
1.21556
1.21559
1.21556
1.21562
1.2155
1.21545
1.2156
1.21568
1.21594
1.21597
1.2163
1.21643
1.21675
1.21677
1.2171
1.21752
1.21795
1.21841
1.21872
1.21923
1.2196
1.22054
1.22038
1.22109
1.22091
1.22186
1.22165
1.22255
1.22226
1.22265
1.22293
1.22297
1.22271
1.22329
1.22263
1.22299
1.22272
1.2225
1.22201
1.22205
1.22143
1.22151
1.22103
1.22089
1.22017
1.21978
1.21904
1.21853
1.21779
1.21719
1.21643
1.21581
1.21501
1.2143
1.21349
1.21267
1.21184
1.21103
1.21007
1.20932
1.20821
1.20748
1.20634
1.2056
1.20445
1.20378
1.20264
1.20202
1.20089
1.20025
1.19928
1.19861
1.19775
1.19716
1.19636
1.19585
1.19521
1.19483
1.19432
1.19407
1.19365
1.19348
1.19318
1.1931
1.19289
1.19286
1.19274
1.19277
1.19272
1.19283
1.19282
1.193
1.19309
1.19331
1.19348
1.19374
1.19398
1.19429
1.19457
1.19482
1.19514
1.19541
1.19577
1.19605
1.19642
1.19676
1.19712
1.19748
1.19777
1.19819
1.19843
1.19879
1.19908
1.19941
1.19975
1.2001
1.20038
1.20071
1.20103
1.20138
1.20169
1.20199
1.20232
1.20262
1.20289
1.20319
1.20344
1.20369
1.20394
1.2042
1.20445
1.20469
1.2049
1.2051
1.20529
1.20544
1.20556
1.20566
1.20573
1.20578
1.20581
1.20583
1.20582
1.20582
1.2058
1.20577
1.20573
1.20567
1.20558
1.2055
1.20539
1.20528
1.20514
1.205
1.20481
1.20465
1.20443
1.20424
1.20402
1.20381
1.20359
1.20339
1.20316
1.20295
1.20272
1.20251
1.20228
1.20207
1.20183
1.20163
1.20138
1.20117
1.20091
1.20068
1.20042
1.20019
1.19996
1.19977
1.19955
1.19937
1.19919
1.19905
1.19888
1.19874
1.1986
1.19848
1.19836
1.19826
1.19818
1.19813
1.19809
1.19806
1.19803
1.19802
1.19801
1.19802
1.19802
1.19805
1.19809
1.19814
1.19822
1.1983
1.19841
1.19853
1.19867
1.19882
1.19897
1.19914
1.1993
1.19948
1.19966
1.19988
1.20006
1.20029
1.20048
1.20071
1.20089
1.20113
1.20133
1.20155
1.20173
1.20195
1.20215
1.20235
1.20256
1.20276
1.20297
1.20315
1.20334
1.20351
1.2037
1.20386
1.20402
1.20417
1.20428
1.20441
1.20452
1.20462
1.20474
1.20483
1.20493
1.20499
1.20504
1.20508
1.20511
1.20511
1.20513
1.20513
1.20513
1.20511
1.20508
1.20503
1.20498
1.20491
1.20485
1.20476
1.20468
1.20459
1.2045
1.20439
1.20429
1.20419
1.20409
1.20397
1.20384
1.20372
1.20358
1.20346
1.20332
1.2032
1.20308
1.20298
1.20288
1.20281
1.20271
1.20265
1.20256
1.20251
1.20242
1.20238
1.2023
1.20225
1.20218
1.20212
1.20209
1.20206
1.20203
1.202
1.20197
1.20195
1.20192
1.2019
1.2019
1.2019
1.2019
1.20191
1.20192
1.20193
1.20194
1.20196
1.20199
1.20201
1.20203
1.20204
1.20205
1.20206
1.20207
1.20208
1.20209
1.20211
1.20213
1.20215
1.20217
1.20219
1.20222
1.20224
1.20227
1.20228
1.20232
1.20233
1.20237
1.20239
1.20243
1.20245
1.20249
1.20251
1.20255
1.20258
1.20262
1.20264
1.20268
1.2027
1.20274
1.20277
1.2028
1.20283
1.20287
1.20289
1.20292
1.20294
1.20296
1.20298
1.203
1.20303
1.20307
1.20311
1.20312
1.20316
1.20317
1.2032
1.20322
1.20327
1.20329
1.20332
1.20332
1.20334
1.20334
1.20336
1.20337
1.20338
1.20339
1.20339
1.2034
1.2034
1.20341
1.2034
1.2034
1.20339
1.20339
1.20338
1.20339
1.20338
1.20339
1.20339
1.2034
1.2034
1.20341
1.20341
1.20342
1.20341
1.20342
1.20342
1.20343
1.20344
1.20346
1.20347
1.20349
1.2035
1.20352
1.20354
1.20355
1.20357
1.20359
1.20361
1.20362
1.20365
1.20366
1.20369
1.20371
1.20374
1.20375
1.20378
1.2038
1.20383
1.20385
1.20388
1.20388
1.20391
1.20391
1.20392
1.20394
1.20395
1.20397
1.20399
1.20401
1.20402
1.20403
1.20404
1.20405
1.20405
1.20405
1.20405
1.20404
1.20403
1.20401
1.20399
1.20396
1.20394
1.2039
1.20388
1.20384
1.20382
1.20379
1.20378
1.20375
1.20374
1.20372
1.2037
1.20369
1.20368
1.20366
1.20365
1.20363
1.20362
1.2036
1.20361
1.20361
1.20363
1.20364
1.20367
1.20371
1.20376
1.20385
1.20393
1.20407
1.20421
1.20437
1.20451
1.20464
1.20473
1.20482
1.20486
1.20491
1.20496
1.20507
1.2014
1.2013
1.2015
1.20137
1.20151
1.20197
1.20259
1.20331
1.2044
1.20511
1.20634
1.20711
1.20822
1.20908
1.21009
1.2107
1.21143
1.21179
1.21228
1.21264
1.21304
1.21333
1.2137
1.21406
1.21426
1.21446
1.21457
1.21485
1.21498
1.21521
1.21508
1.2152
1.21518
1.21535
1.21538
1.21547
1.21545
1.21523
1.21539
1.21516
1.2152
1.21507
1.21515
1.21549
1.21543
1.21571
1.21581
1.21607
1.21606
1.21683
1.21693
1.21778
1.21738
1.2175
1.21764
1.21874
1.21865
1.21969
1.21949
1.22041
1.22031
1.22125
1.22135
1.22156
1.22157
1.22252
1.22199
1.22233
1.22228
1.22217
1.22191
1.22254
1.22199
1.22209
1.22165
1.22142
1.22125
1.22124
1.22089
1.22061
1.22006
1.21956
1.21894
1.21836
1.21768
1.21704
1.21632
1.21566
1.21489
1.21411
1.21327
1.21251
1.21157
1.21091
1.20988
1.20922
1.2081
1.20745
1.20629
1.20563
1.20453
1.20382
1.20286
1.20211
1.20115
1.20048
1.19953
1.19891
1.19805
1.19747
1.19668
1.19626
1.19559
1.19527
1.19474
1.19448
1.19405
1.19387
1.19356
1.19345
1.19323
1.1932
1.19304
1.19311
1.193
1.19315
1.1931
1.19329
1.19336
1.19362
1.19377
1.19405
1.1943
1.19461
1.19486
1.19512
1.19555
1.19573
1.19613
1.19644
1.19678
1.19716
1.19749
1.19784
1.19809
1.19853
1.19881
1.19914
1.19944
1.19982
1.20012
1.20047
1.20075
1.20108
1.20141
1.20174
1.20202
1.20234
1.20265
1.20291
1.20321
1.20348
1.20372
1.20397
1.20423
1.20447
1.2047
1.20491
1.20511
1.2053
1.20545
1.20557
1.20566
1.20574
1.20579
1.20583
1.20584
1.20584
1.20583
1.20581
1.20578
1.20575
1.20567
1.2056
1.2055
1.20541
1.20528
1.20517
1.205
1.20485
1.20465
1.20447
1.20423
1.20404
1.20382
1.20364
1.2034
1.20319
1.20296
1.20277
1.20254
1.2023
1.20208
1.20189
1.20163
1.20143
1.20117
1.20095
1.20069
1.20044
1.20018
1.19998
1.19977
1.19957
1.19937
1.1992
1.19905
1.19892
1.19875
1.19862
1.19848
1.19838
1.19827
1.1982
1.19814
1.1981
1.19806
1.19803
1.19801
1.19801
1.19801
1.19802
1.19805
1.19809
1.19815
1.19822
1.19831
1.19842
1.19855
1.19868
1.19883
1.19897
1.19914
1.1993
1.19948
1.19965
1.19984
1.20009
1.20028
1.20051
1.20066
1.2009
1.20109
1.20133
1.20154
1.20175
1.20193
1.20215
1.20235
1.20252
1.20275
1.20297
1.20317
1.20333
1.20352
1.20368
1.20386
1.20403
1.20417
1.20428
1.2044
1.20452
1.20463
1.20473
1.20485
1.20489
1.20499
1.20503
1.20508
1.2051
1.20512
1.20511
1.20512
1.20511
1.20509
1.20506
1.20504
1.20497
1.20492
1.20484
1.20478
1.20468
1.20461
1.2045
1.20441
1.20429
1.20421
1.2041
1.20399
1.20388
1.20372
1.20362
1.20346
1.20334
1.20321
1.20312
1.203
1.20294
1.20284
1.20277
1.20267
1.20262
1.20252
1.20248
1.2024
1.20234
1.20227
1.20219
1.20215
1.20212
1.20212
1.20209
1.20205
1.20201
1.20199
1.20196
1.20195
1.20195
1.20195
1.20196
1.20196
1.20197
1.20198
1.202
1.20202
1.20204
1.20207
1.20208
1.2021
1.20209
1.20211
1.20211
1.20213
1.20214
1.20216
1.20217
1.2022
1.20221
1.20224
1.20226
1.20228
1.20231
1.20234
1.20236
1.20239
1.20241
1.20244
1.20246
1.2025
1.20253
1.20255
1.20259
1.20263
1.20266
1.20269
1.20273
1.20276
1.2028
1.20283
1.20286
1.20288
1.20293
1.20296
1.20299
1.203
1.20303
1.20304
1.20307
1.20309
1.20314
1.20318
1.20322
1.20322
1.20326
1.20325
1.20329
1.20332
1.20336
1.20339
1.20341
1.2034
1.20342
1.20342
1.20344
1.20345
1.20345
1.20346
1.20346
1.20347
1.20347
1.20348
1.20347
1.20347
1.20346
1.20346
1.20345
1.20345
1.20345
1.20346
1.20346
1.20347
1.20348
1.20348
1.20349
1.20349
1.20349
1.20349
1.2035
1.20351
1.20352
1.20354
1.20355
1.20357
1.20358
1.2036
1.20361
1.20363
1.20364
1.20366
1.20369
1.2037
1.20372
1.20374
1.20376
1.20378
1.20381
1.20382
1.20385
1.20387
1.2039
1.20391
1.20393
1.20393
1.20395
1.20395
1.20397
1.20398
1.204
1.20402
1.20403
1.20405
1.20406
1.20407
1.20408
1.20408
1.20408
1.20408
1.20407
1.20405
1.20404
1.20401
1.20399
1.20397
1.20394
1.2039
1.20388
1.20385
1.20383
1.20381
1.20379
1.20377
1.20376
1.20374
1.20373
1.20372
1.20371
1.20369
1.20368
1.20366
1.20366
1.20365
1.20366
1.20367
1.20369
1.20372
1.20375
1.20383
1.20388
1.204
1.20409
1.20427
1.20439
1.20454
1.20464
1.20475
1.20481
1.20489
1.20495
1.20501
1.20512
1.20136
1.20147
1.2013
1.20151
1.20145
1.20198
1.20266
1.20352
1.20452
1.20539
1.20646
1.20751
1.20825
1.20937
1.21015
1.21093
1.21138
1.21194
1.21228
1.21263
1.21288
1.21329
1.2135
1.21383
1.21398
1.21424
1.21428
1.21443
1.21461
1.21481
1.21471
1.21483
1.21495
1.21507
1.21502
1.21531
1.21541
1.21525
1.21539
1.21533
1.2151
1.21499
1.21526
1.215
1.21508
1.21483
1.215
1.21487
1.21577
1.21577
1.21648
1.21565
1.21523
1.21499
1.21645
1.2162
1.21672
1.21711
1.21791
1.2181
1.21909
1.21898
1.21938
1.21956
1.22053
1.22048
1.22077
1.22057
1.22107
1.22074
1.22117
1.22125
1.22182
1.22146
1.22167
1.22139
1.22142
1.22124
1.22125
1.22089
1.22066
1.22021
1.2197
1.21925
1.21856
1.21799
1.21726
1.21664
1.2159
1.21517
1.21431
1.21349
1.21277
1.21189
1.21125
1.21025
1.20959
1.20857
1.20783
1.20685
1.20613
1.20516
1.20451
1.20357
1.20282
1.20192
1.2013
1.20036
1.19975
1.19887
1.19835
1.19752
1.19708
1.19648
1.19614
1.19557
1.19527
1.19481
1.19459
1.19423
1.19409
1.19379
1.19376
1.19356
1.19362
1.19345
1.19356
1.19348
1.19368
1.19372
1.19397
1.1941
1.19447
1.19462
1.19486
1.19525
1.19551
1.1959
1.19615
1.19655
1.19681
1.19722
1.19755
1.19779
1.19822
1.19842
1.19889
1.19918
1.19954
1.19986
1.20027
1.20054
1.20083
1.20116
1.20151
1.20184
1.20205
1.20245
1.20269
1.20295
1.20327
1.20356
1.20376
1.20405
1.20425
1.20451
1.20473
1.20496
1.20514
1.20533
1.20548
1.20559
1.20571
1.20577
1.20584
1.20587
1.20589
1.20588
1.20587
1.20585
1.20584
1.20578
1.20573
1.20564
1.20556
1.20544
1.20535
1.20517
1.20506
1.20487
1.20474
1.20448
1.2043
1.20402
1.20392
1.20368
1.20346
1.2032
1.20301
1.20283
1.20261
1.20231
1.20214
1.20191
1.20173
1.20145
1.20125
1.20097
1.20074
1.20043
1.2002
1.19999
1.19982
1.19957
1.19941
1.19922
1.19911
1.19894
1.1988
1.19864
1.19853
1.19841
1.19833
1.19823
1.19818
1.19813
1.1981
1.19807
1.19805
1.19805
1.19805
1.19806
1.19809
1.19814
1.19818
1.19826
1.19833
1.19845
1.19857
1.19873
1.19885
1.19901
1.19915
1.19933
1.19946
1.19965
1.19982
1.20003
1.20032
1.20049
1.20074
1.2009
1.20115
1.20131
1.2016
1.20179
1.20196
1.20218
1.20235
1.20255
1.20276
1.20299
1.2032
1.2034
1.20348
1.20372
1.20388
1.20408
1.20419
1.2043
1.20442
1.20455
1.20464
1.20479
1.20484
1.20494
1.20497
1.20506
1.20509
1.20513
1.20514
1.20515
1.20513
1.20512
1.20509
1.20507
1.20501
1.205
1.20492
1.20487
1.20476
1.2047
1.2046
1.20453
1.20441
1.20434
1.20423
1.20414
1.20402
1.20387
1.20377
1.20363
1.20352
1.20336
1.20325
1.20314
1.20308
1.20298
1.20291
1.20279
1.20272
1.20263
1.20258
1.2025
1.20245
1.20236
1.20228
1.20223
1.20218
1.20219
1.20215
1.20213
1.20209
1.20204
1.20202
1.202
1.20199
1.20199
1.202
1.202
1.202
1.20201
1.20202
1.20204
1.20207
1.2021
1.20211
1.20213
1.20212
1.20214
1.20213
1.20215
1.20216
1.20218
1.2022
1.20222
1.20222
1.20225
1.20227
1.2023
1.20232
1.20234
1.20237
1.2024
1.20242
1.20246
1.20248
1.20252
1.20255
1.20257
1.20261
1.20264
1.20269
1.20271
1.20275
1.20278
1.20283
1.20285
1.20289
1.20291
1.20294
1.20298
1.20302
1.20304
1.20307
1.20308
1.20311
1.20312
1.20315
1.20318
1.20324
1.20327
1.20332
1.2033
1.20333
1.20332
1.20337
1.2034
1.20344
1.20345
1.20347
1.20346
1.20348
1.20349
1.20351
1.20351
1.20352
1.20353
1.20353
1.20354
1.20354
1.20354
1.20354
1.20353
1.20352
1.20352
1.20352
1.20353
1.20353
1.20353
1.20353
1.20354
1.20354
1.20355
1.20354
1.20355
1.20355
1.20356
1.20357
1.20358
1.20359
1.20361
1.20363
1.20364
1.20365
1.20367
1.20367
1.20369
1.20371
1.20373
1.20375
1.20376
1.20379
1.2038
1.20383
1.20384
1.20387
1.20389
1.20392
1.20393
1.20396
1.20396
1.20399
1.20397
1.204
1.204
1.20402
1.20404
1.20406
1.20408
1.20409
1.20411
1.20411
1.20412
1.20413
1.20413
1.20413
1.20412
1.20411
1.20409
1.20408
1.20406
1.20404
1.20401
1.20399
1.20395
1.20392
1.2039
1.20388
1.20386
1.20385
1.20383
1.20382
1.20381
1.2038
1.20379
1.20378
1.20376
1.20376
1.20374
1.20374
1.20375
1.20376
1.20378
1.2038
1.20385
1.2039
1.20398
1.20405
1.20418
1.20427
1.20443
1.20453
1.20465
1.20474
1.20484
1.20491
1.20497
1.20506
1.20514
1.20144
1.20134
1.20159
1.20149
1.20187
1.20199
1.20286
1.2037
1.20475
1.20571
1.20671
1.20761
1.20876
1.20952
1.21042
1.21098
1.21153
1.21195
1.21236
1.21258
1.21284
1.21298
1.21344
1.21354
1.21381
1.21387
1.21411
1.21419
1.21462
1.21464
1.21483
1.21483
1.2152
1.21523
1.21535
1.21552
1.21579
1.21538
1.21549
1.21529
1.21518
1.2149
1.21442
1.21441
1.21398
1.21404
1.21385
1.2147
1.21471
1.2156
1.21436
1.21347
1.21241
1.21365
1.21376
1.2141
1.2133
1.21448
1.21528
1.21605
1.21563
1.21622
1.21623
1.21728
1.21772
1.21774
1.21806
1.21882
1.21845
1.21921
1.21912
1.22015
1.2202
1.22104
1.22112
1.22107
1.2212
1.22128
1.22124
1.22119
1.22109
1.22074
1.22056
1.22001
1.21964
1.21904
1.21844
1.21777
1.21718
1.21645
1.21564
1.21496
1.21408
1.2134
1.2126
1.2119
1.21106
1.21033
1.20948
1.20874
1.20787
1.20724
1.20638
1.20579
1.2048
1.20413
1.20325
1.20265
1.20173
1.20113
1.20026
1.19972
1.1989
1.19851
1.19783
1.19746
1.1968
1.19648
1.19594
1.19565
1.19519
1.19504
1.19461
1.19456
1.19424
1.19427
1.19405
1.1941
1.19393
1.19419
1.19412
1.1944
1.19454
1.19473
1.19496
1.19517
1.1957
1.19589
1.19634
1.19661
1.19686
1.19724
1.19757
1.19789
1.19812
1.19861
1.19888
1.19931
1.19959
1.19996
1.20037
1.20067
1.20105
1.20129
1.20169
1.20183
1.20221
1.20261
1.20278
1.20303
1.20341
1.20363
1.20399
1.20411
1.20439
1.20455
1.20482
1.205
1.20519
1.20538
1.20555
1.20563
1.20575
1.20581
1.20587
1.20593
1.20594
1.20594
1.20593
1.20592
1.20589
1.20586
1.20578
1.20571
1.2056
1.20552
1.20536
1.20526
1.20507
1.20496
1.20475
1.20459
1.20428
1.20411
1.20398
1.20381
1.20342
1.20328
1.20307
1.20294
1.2027
1.20239
1.20219
1.20205
1.20174
1.20158
1.20129
1.20103
1.20074
1.20047
1.20022
1.20008
1.19984
1.19965
1.19946
1.19933
1.19918
1.19904
1.19884
1.19873
1.19856
1.19849
1.19839
1.1983
1.19824
1.19819
1.19812
1.19811
1.1981
1.1981
1.1981
1.19811
1.19814
1.19817
1.19824
1.1983
1.1984
1.19847
1.19862
1.19877
1.19893
1.19905
1.19924
1.19937
1.19955
1.19964
1.19985
1.20001
1.20026
1.20055
1.20071
1.20103
1.20113
1.20139
1.20161
1.20186
1.20201
1.20223
1.20245
1.20257
1.2028
1.20303
1.20332
1.20338
1.20362
1.20374
1.20397
1.20413
1.20427
1.20436
1.20448
1.20459
1.20469
1.20479
1.20495
1.20495
1.20504
1.20508
1.20514
1.20517
1.20521
1.20519
1.20517
1.20514
1.20512
1.20508
1.20507
1.205
1.20497
1.20489
1.20482
1.20473
1.20466
1.20455
1.20448
1.20437
1.2043
1.20418
1.20407
1.20395
1.20381
1.2037
1.20355
1.20343
1.20331
1.20327
1.20313
1.20307
1.20294
1.20285
1.20277
1.2027
1.20261
1.20256
1.20247
1.20239
1.20235
1.20228
1.20229
1.20225
1.20222
1.20218
1.20213
1.20208
1.20208
1.20205
1.20206
1.20207
1.20206
1.20206
1.20206
1.20207
1.20209
1.20211
1.20215
1.20216
1.20219
1.20219
1.2022
1.20219
1.20221
1.20222
1.20223
1.20224
1.20227
1.20228
1.2023
1.20231
1.20234
1.20236
1.20239
1.2024
1.20244
1.20246
1.20249
1.20252
1.20255
1.20259
1.20261
1.20266
1.20267
1.20272
1.20276
1.20279
1.20281
1.20286
1.20291
1.20294
1.20295
1.20299
1.20301
1.20306
1.20309
1.20314
1.20315
1.20319
1.20318
1.20322
1.20323
1.20328
1.20331
1.20337
1.20339
1.20345
1.20342
1.20345
1.20345
1.2035
1.20352
1.20356
1.20356
1.20358
1.20357
1.2036
1.2036
1.20362
1.20363
1.20363
1.20364
1.20365
1.20365
1.20365
1.20365
1.20364
1.20363
1.20362
1.20362
1.20363
1.20363
1.20363
1.20363
1.20364
1.20365
1.20364
1.20364
1.20364
1.20365
1.20365
1.20366
1.20367
1.20368
1.2037
1.20371
1.20372
1.20374
1.20375
1.20375
1.20378
1.20379
1.20381
1.20382
1.20384
1.20385
1.20388
1.2039
1.20392
1.20393
1.20397
1.20398
1.20401
1.20402
1.20406
1.20405
1.20407
1.20405
1.20408
1.20409
1.20411
1.20413
1.20414
1.20416
1.20417
1.20419
1.20419
1.2042
1.2042
1.2042
1.2042
1.20419
1.20418
1.20416
1.20415
1.20412
1.20411
1.20408
1.20405
1.20402
1.204
1.20397
1.20396
1.20394
1.20393
1.20392
1.20391
1.20391
1.20389
1.20388
1.20388
1.20386
1.20387
1.20386
1.20387
1.20388
1.20389
1.20392
1.20396
1.20403
1.20407
1.20418
1.20423
1.20436
1.20444
1.20458
1.20466
1.20476
1.20487
1.20494
1.20505
1.20511
1.20521
1.20134
1.20146
1.20136
1.2015
1.20171
1.20228
1.20269
1.20369
1.20465
1.20589
1.20677
1.20794
1.20882
1.20969
1.21035
1.21094
1.21141
1.21186
1.21215
1.21256
1.21268
1.21299
1.21316
1.21342
1.21354
1.21389
1.2138
1.21429
1.21448
1.21492
1.21486
1.21518
1.21523
1.2155
1.21542
1.21544
1.21554
1.21536
1.21539
1.21511
1.21497
1.21438
1.21398
1.21339
1.21333
1.21291
1.2137
1.21375
1.21462
1.21407
1.21347
1.21132
1.21215
1.21181
1.21221
1.21059
1.21082
1.21172
1.21317
1.21252
1.21241
1.21262
1.21375
1.21297
1.2139
1.2141
1.21495
1.21567
1.21602
1.21599
1.21738
1.21761
1.21863
1.21909
1.21983
1.22025
1.22058
1.2212
1.22116
1.22138
1.22126
1.22128
1.2209
1.22096
1.22034
1.22023
1.21952
1.2191
1.2184
1.21777
1.21703
1.21639
1.2157
1.21492
1.2143
1.21348
1.21287
1.21214
1.21147
1.21068
1.21009
1.20922
1.20872
1.208
1.20735
1.20637
1.20582
1.20493
1.20438
1.20341
1.20288
1.20202
1.20148
1.20071
1.20024
1.19953
1.19911
1.19842
1.198
1.19736
1.197
1.1964
1.19616
1.19565
1.19555
1.19507
1.19505
1.19479
1.19473
1.19454
1.19478
1.1946
1.19482
1.19494
1.19501
1.19542
1.19559
1.19598
1.19639
1.19674
1.19694
1.19734
1.19757
1.19787
1.19832
1.19854
1.19911
1.19933
1.19976
1.20013
1.20043
1.20096
1.20115
1.20153
1.20188
1.20201
1.20227
1.20284
1.20291
1.20328
1.20357
1.2038
1.20407
1.20439
1.20444
1.20475
1.20487
1.20513
1.20528
1.20546
1.20559
1.20578
1.20581
1.20589
1.20595
1.20599
1.20602
1.20603
1.20602
1.20601
1.20599
1.20594
1.20589
1.2058
1.20572
1.20558
1.20549
1.20527
1.20518
1.205
1.20487
1.2046
1.20443
1.20418
1.20407
1.20382
1.20359
1.20334
1.20314
1.20307
1.20288
1.20244
1.20232
1.2021
1.20187
1.2016
1.20135
1.20104
1.20081
1.2005
1.20032
1.20012
1.19995
1.19973
1.1996
1.19942
1.19926
1.1991
1.19894
1.19878
1.19866
1.19854
1.19849
1.19838
1.19832
1.19826
1.1982
1.19818
1.19818
1.19817
1.19817
1.19818
1.19821
1.19826
1.19831
1.1984
1.19844
1.19855
1.19865
1.19883
1.19898
1.19915
1.1993
1.19951
1.19962
1.1998
1.19985
1.20006
1.20022
1.20051
1.20078
1.20097
1.20127
1.20143
1.20166
1.20193
1.20206
1.20237
1.20251
1.20271
1.20291
1.20306
1.20325
1.20356
1.20362
1.20383
1.204
1.20421
1.20434
1.20451
1.20457
1.20469
1.20474
1.20489
1.20498
1.20504
1.20511
1.20518
1.20517
1.20525
1.20527
1.20527
1.20524
1.2052
1.20517
1.20515
1.20509
1.20508
1.20502
1.20497
1.20487
1.2048
1.2047
1.20463
1.20453
1.20446
1.20434
1.20425
1.20412
1.20399
1.20388
1.20374
1.20363
1.20348
1.20341
1.20332
1.20326
1.2031
1.20301
1.20291
1.20284
1.20274
1.20263
1.20261
1.2025
1.20244
1.20239
1.20237
1.20237
1.20233
1.20225
1.20223
1.20217
1.20214
1.20213
1.20214
1.20214
1.20215
1.20213
1.20211
1.20212
1.20214
1.20215
1.20219
1.20221
1.20224
1.20224
1.20226
1.20225
1.20226
1.20226
1.20231
1.20231
1.20232
1.20233
1.20235
1.20236
1.20239
1.2024
1.20245
1.20246
1.20248
1.20252
1.20252
1.20256
1.2026
1.20262
1.20268
1.2027
1.20271
1.20275
1.2028
1.20285
1.20287
1.20291
1.20293
1.203
1.203
1.20306
1.20306
1.2031
1.20315
1.20317
1.2032
1.20326
1.20326
1.2033
1.20328
1.20333
1.20336
1.20341
1.20344
1.2035
1.20351
1.20356
1.20354
1.20357
1.20358
1.20363
1.20365
1.20368
1.20368
1.2037
1.2037
1.20372
1.20373
1.20374
1.20375
1.20376
1.20376
1.20377
1.20377
1.20377
1.20377
1.20375
1.20374
1.20374
1.20375
1.20375
1.20375
1.20374
1.20375
1.20375
1.20375
1.20375
1.20375
1.20375
1.20376
1.20376
1.20377
1.20378
1.2038
1.20381
1.20382
1.20383
1.20384
1.20385
1.20386
1.20388
1.20389
1.20391
1.20391
1.20394
1.20395
1.20398
1.20399
1.20403
1.20403
1.20407
1.20408
1.20411
1.20412
1.20415
1.20413
1.20416
1.20415
1.20417
1.20419
1.2042
1.20423
1.20424
1.20426
1.20426
1.20428
1.20428
1.20429
1.20429
1.20429
1.20428
1.20427
1.20426
1.20425
1.20423
1.20421
1.2042
1.20417
1.20415
1.20411
1.20409
1.20408
1.20407
1.20406
1.20405
1.20404
1.20404
1.20403
1.20402
1.20402
1.20402
1.20401
1.20401
1.20401
1.20403
1.20405
1.20408
1.20411
1.20414
1.20423
1.20427
1.20436
1.2044
1.20452
1.2046
1.20472
1.20481
1.20489
1.20502
1.20508
1.20518
1.20526
1.20146
1.20122
1.20159
1.20138
1.20166
1.20203
1.20278
1.20347
1.20451
1.20561
1.20675
1.20771
1.20878
1.20949
1.21027
1.21084
1.2114
1.21176
1.21213
1.21229
1.21256
1.21283
1.21321
1.2132
1.21358
1.21351
1.21398
1.21428
1.2148
1.21471
1.21514
1.21516
1.21543
1.21538
1.21542
1.21541
1.21561
1.2154
1.21522
1.21473
1.21462
1.21365
1.21302
1.21281
1.21206
1.21324
1.21269
1.21346
1.21274
1.21388
1.21224
1.21166
1.21102
1.21124
1.20959
1.20942
1.2094
1.21015
1.20962
1.20948
1.20858
1.20906
1.20962
1.20908
1.20946
1.2102
1.21078
1.21186
1.21249
1.21257
1.21395
1.2149
1.21549
1.21625
1.21785
1.21793
1.21957
1.21982
1.22083
1.22136
1.22127
1.22132
1.22128
1.22114
1.2212
1.22079
1.22064
1.22005
1.21953
1.21889
1.21832
1.21778
1.21714
1.2165
1.21578
1.21516
1.21456
1.214
1.21333
1.2127
1.212
1.21136
1.21092
1.21034
1.20964
1.20905
1.20813
1.20767
1.20678
1.20619
1.2054
1.2049
1.20401
1.20352
1.20265
1.20226
1.20144
1.20098
1.20017
1.19968
1.19895
1.19851
1.19779
1.19749
1.19679
1.19662
1.19603
1.19591
1.19559
1.19554
1.19513
1.19534
1.195
1.1952
1.1954
1.19538
1.19587
1.19594
1.19647
1.19685
1.19704
1.19738
1.19762
1.19797
1.19826
1.19879
1.19913
1.19946
1.19988
1.20026
1.20059
1.20105
1.20136
1.20168
1.20202
1.2022
1.20251
1.20282
1.20321
1.20341
1.20377
1.20396
1.20424
1.20447
1.20476
1.20484
1.20509
1.20523
1.20544
1.20558
1.20577
1.20586
1.20599
1.20598
1.20604
1.20608
1.20611
1.20611
1.20612
1.20611
1.20608
1.20605
1.20598
1.20592
1.20579
1.2057
1.20552
1.20541
1.2052
1.20511
1.20492
1.20476