/*--------------------------------*- C++ -*----------------------------------*\
| =========                 |                                                 |
| \\      /  F ield         | OpenFOAM: The Open Source CFD Toolbox           |
|  \\    /   O peration     | Version:  v1812                                 |
|   \\  /    A nd           | Web:      www.OpenFOAM.com                      |
|    \\/     M anipulation  |                                                 |
\*---------------------------------------------------------------------------*/
FoamFile
{
    version     2.0;
    format      ascii;
    class       volScalarField;
    location    "0.3";
    object      T;
}
// * * * * * * * * * * * * * * * * * * * * * * * * * * * * * * * * * * * * * //

dimensions      [0 0 0 1 0 0 0];


internalField   nonuniform List<scalar> 
20400
(
292.38
292.374
292.363
292.338
292.306
292.234
292.143
291.983
291.798
291.554
291.33
291.09
290.885
290.698
290.548
290.413
290.305
290.204
290.137
290.074
290.032
289.983
289.962
289.938
289.939
289.899
289.872
289.842
289.83
289.828
289.848
289.858
289.856
289.859
289.881
289.867
289.873
289.838
289.85
289.859
289.892
289.854
289.842
289.839
289.83
289.824
289.847
289.882
289.899
289.913
289.882
289.868
289.836
289.849
289.854
289.851
289.815
289.827
289.823
289.838
289.786
289.777
289.736
289.756
289.683
289.646
289.587
289.534
289.462
289.422
289.369
289.331
289.303
289.266
289.222
289.178
289.134
289.115
289.104
289.107
289.102
289.104
289.103
289.11
289.113
289.131
289.143
289.174
289.201
289.249
289.297
289.361
289.434
289.518
289.609
289.711
289.817
289.931
290.045
290.166
290.286
290.408
290.529
290.649
290.766
290.884
290.991
291.096
291.192
291.285
291.373
291.458
291.537
291.611
291.676
291.738
291.793
291.842
291.887
291.93
291.968
292.004
292.039
292.073
292.104
292.133
292.162
292.187
292.211
292.233
292.254
292.276
292.297
292.319
292.343
292.369
292.397
292.429
292.463
292.5
292.536
292.573
292.609
292.644
292.68
292.717
292.755
292.791
292.826
292.861
292.896
292.931
292.967
293.001
293.034
293.066
293.097
293.128
293.157
293.185
293.212
293.238
293.263
293.287
293.31
293.332
293.353
293.372
293.388
293.402
293.416
293.428
293.437
293.444
293.449
293.453
293.455
293.457
293.459
293.46
293.46
293.459
293.457
293.453
293.447
293.438
293.428
293.416
293.402
293.386
293.368
293.348
293.327
293.305
293.281
293.257
293.234
293.211
293.189
293.167
293.145
293.124
293.101
293.077
293.054
293.03
293.006
292.982
292.96
292.937
292.916
292.895
292.875
292.854
292.836
292.82
292.804
292.788
292.775
292.763
292.754
292.746
292.739
292.733
292.727
292.721
292.718
292.715
292.714
292.712
292.712
292.713
292.715
292.719
292.725
292.733
292.742
292.752
292.763
292.775
292.789
292.804
292.821
292.839
292.858
292.878
292.899
292.92
292.941
292.963
292.985
293.005
293.025
293.043
293.062
293.08
293.1
293.121
293.141
293.163
293.183
293.204
293.225
293.244
293.262
293.278
293.294
293.308
293.323
293.337
293.35
293.362
293.372
293.382
293.39
293.396
293.402
293.406
293.411
293.414
293.417
293.419
293.421
293.421
293.421
293.419
293.416
293.412
293.406
293.4
293.393
293.386
293.379
293.371
293.363
293.354
293.345
293.335
293.325
293.314
293.302
293.291
293.279
293.267
293.256
293.246
293.236
293.229
293.223
293.218
293.212
293.207
293.201
293.195
293.189
293.183
293.177
293.171
293.165
293.159
293.154
293.15
293.146
293.144
293.142
293.142
293.142
293.142
293.142
293.142
293.143
293.144
293.146
293.148
293.15
293.152
293.154
293.155
293.158
293.161
293.164
293.167
293.17
293.172
293.174
293.176
293.178
293.181
293.183
293.186
293.188
293.19
293.193
293.196
293.199
293.202
293.206
293.209
293.213
293.217
293.221
293.225
293.229
293.232
293.236
293.239
293.242
293.245
293.248
293.251
293.254
293.257
293.26
293.262
293.264
293.266
293.269
293.272
293.276
293.279
293.284
293.288
293.293
293.298
293.303
293.307
293.311
293.315
293.319
293.322
293.326
293.329
293.332
293.334
293.337
293.339
293.341
293.342
293.343
293.344
293.345
293.346
293.347
293.348
293.349
293.349
293.349
293.349
293.35
293.35
293.351
293.351
293.352
293.352
293.352
293.352
293.352
293.353
293.353
293.354
293.355
293.356
293.357
293.358
293.359
293.361
293.362
293.364
293.365
293.368
293.37
293.372
293.375
293.378
293.381
293.384
293.387
293.39
293.393
293.396
293.399
293.402
293.405
293.407
293.409
293.411
293.411
293.411
293.411
293.41
293.41
293.409
293.408
293.408
293.408
293.408
293.408
293.408
293.409
293.411
293.412
293.414
293.416
293.419
293.421
293.423
293.425
293.426
293.427
293.428
293.428
293.429
293.43
293.431
293.432
293.435
293.438
293.442
293.446
293.449
293.451
293.451
293.451
293.451
293.449
293.445
293.437
293.425
293.407
293.385
293.358
293.331
293.308
293.29
293.281
293.276
293.274
293.274
293.272
293.272
292.378
292.376
292.363
292.353
292.311
292.254
292.146
292.004
291.803
291.57
291.329
291.09
290.866
290.683
290.521
290.408
290.268
290.194
290.104
290.064
290.001
289.984
289.923
289.915
289.897
289.888
289.823
289.837
289.786
289.798
289.792
289.842
289.811
289.833
289.824
289.836
289.816
289.821
289.789
289.848
289.828
289.842
289.788
289.818
289.788
289.804
289.819
289.856
289.887
289.881
289.873
289.819
289.828
289.794
289.831
289.772
289.773
289.723
289.771
289.728
289.739
289.682
289.701
289.683
289.654
289.559
289.563
289.466
289.438
289.356
289.339
289.292
289.288
289.231
289.211
289.151
289.12
289.081
289.083
289.07
289.079
289.073
289.084
289.08
289.099
289.1
289.131
289.142
289.195
289.225
289.284
289.338
289.422
289.491
289.599
289.682
289.806
289.896
290.032
290.129
290.272
290.37
290.516
290.612
290.753
290.844
290.979
291.058
291.178
291.249
291.359
291.423
291.523
291.581
291.663
291.712
291.786
291.821
291.881
291.914
291.964
291.991
292.037
292.063
292.104
292.131
292.162
292.186
292.212
292.232
292.253
292.274
292.295
292.318
292.341
292.369
292.396
292.428
292.462
292.5
292.535
292.571
292.609
292.641
292.676
292.713
292.755
292.789
292.826
292.858
292.895
292.93
292.967
293
293.034
293.065
293.097
293.126
293.155
293.184
293.212
293.238
293.263
293.287
293.31
293.331
293.352
293.372
293.388
293.401
293.415
293.427
293.437
293.443
293.449
293.451
293.454
293.456
293.458
293.458
293.458
293.458
293.456
293.451
293.446
293.437
293.427
293.414
293.401
293.383
293.367
293.345
293.326
293.302
293.281
293.256
293.234
293.209
293.189
293.166
293.146
293.123
293.101
293.076
293.054
293.027
293.006
292.98
292.96
292.936
292.916
292.893
292.874
292.853
292.836
292.819
292.803
292.787
292.775
292.762
292.753
292.746
292.74
292.733
292.727
292.721
292.718
292.715
292.714
292.712
292.712
292.713
292.715
292.719
292.725
292.733
292.742
292.752
292.763
292.775
292.789
292.804
292.821
292.839
292.858
292.878
292.899
292.919
292.942
292.963
292.985
293.005
293.025
293.043
293.062
293.081
293.1
293.121
293.142
293.163
293.184
293.204
293.225
293.244
293.262
293.278
293.294
293.308
293.323
293.338
293.351
293.362
293.372
293.382
293.389
293.396
293.401
293.406
293.41
293.414
293.417
293.419
293.42
293.421
293.42
293.419
293.416
293.412
293.406
293.4
293.393
293.387
293.378
293.371
293.362
293.354
293.344
293.334
293.324
293.312
293.302
293.29
293.279
293.267
293.256
293.245
293.237
293.228
293.223
293.216
293.212
293.204
293.201
293.192
293.189
293.18
293.176
293.168
293.164
293.158
293.152
293.148
293.144
293.142
293.141
293.141
293.141
293.141
293.141
293.141
293.142
293.143
293.145
293.147
293.148
293.15
293.151
293.154
293.156
293.16
293.163
293.166
293.169
293.171
293.173
293.175
293.177
293.18
293.182
293.185
293.186
293.19
293.191
293.196
293.197
293.202
293.204
293.209
293.211
293.216
293.219
293.224
293.227
293.231
293.233
293.238
293.24
293.244
293.246
293.25
293.252
293.256
293.257
293.261
293.262
293.266
293.268
293.272
293.274
293.278
293.282
293.287
293.293
293.298
293.302
293.307
293.31
293.314
293.318
293.321
293.325
293.328
293.331
293.334
293.335
293.338
293.339
293.341
293.341
293.343
293.343
293.345
293.346
293.347
293.347
293.348
293.348
293.348
293.348
293.349
293.349
293.351
293.35
293.351
293.351
293.351
293.351
293.352
293.352
293.353
293.353
293.355
293.355
293.357
293.358
293.36
293.361
293.362
293.364
293.366
293.369
293.371
293.374
293.376
293.38
293.382
293.386
293.388
293.392
293.394
293.398
293.399
293.404
293.405
293.409
293.409
293.41
293.41
293.41
293.409
293.408
293.407
293.407
293.406
293.406
293.406
293.406
293.407
293.408
293.409
293.411
293.412
293.415
293.417
293.42
293.422
293.424
293.425
293.426
293.426
293.427
293.427
293.428
293.429
293.431
293.433
293.437
293.44
293.445
293.447
293.449
293.45
293.45
293.449
293.447
293.444
293.435
293.425
293.407
293.385
293.357
293.33
293.306
293.289
293.277
293.273
293.271
293.272
293.271
293.27
292.37
292.366
292.37
292.354
292.309
292.235
292.134
291.966
291.802
291.57
291.332
291.084
290.862
290.648
290.516
290.35
290.262
290.14
290.091
290.028
289.99
289.945
289.916
289.862
289.856
289.835
289.816
289.794
289.778
289.737
289.799
289.793
289.803
289.781
289.84
289.785
289.855
289.822
289.845
289.84
289.891
289.854
289.856
289.821
289.835
289.819
289.847
289.88
289.9
289.908
289.856
289.867
289.819
289.894
289.872
289.841
289.751
289.835
289.769
289.803
289.703
289.759
289.674
289.706
289.625
289.605
289.536
289.541
289.437
289.455
289.347
289.353
289.293
289.297
289.223
289.211
289.115
289.083
289.019
289.031
289.01
289.023
289.014
289.028
289.027
289.049
289.048
289.089
289.108
289.172
289.205
289.288
289.323
289.442
289.476
289.635
289.665
289.835
289.872
290.069
290.106
290.31
290.342
290.552
290.579
290.777
290.811
290.993
291.022
291.175
291.209
291.357
291.381
291.523
291.535
291.669
291.676
291.788
291.793
291.886
291.891
291.97
291.979
292.049
292.061
292.129
292.136
292.183
292.195
292.234
292.251
292.276
292.29
292.313
292.339
292.358
292.396
292.418
292.464
292.495
292.532
292.567
292.599
292.641
292.663
292.712
292.744
292.788
292.82
292.857
292.888
292.933
292.966
293.002
293.031
293.065
293.094
293.122
293.153
293.185
293.21
293.238
293.263
293.288
293.308
293.329
293.351
293.372
293.388
293.4
293.413
293.428
293.437
293.443
293.446
293.45
293.452
293.455
293.456
293.457
293.456
293.455
293.452
293.451
293.442
293.436
293.423
293.413
293.396
293.385
293.362
293.349
293.325
293.307
293.281
293.259
293.233
293.212
293.188
293.168
293.145
293.124
293.097
293.078
293.049
293.03
293.002
292.983
292.955
292.938
292.916
292.895
292.871
292.855
292.837
292.821
292.802
292.789
292.774
292.764
292.754
292.746
292.739
292.733
292.725
292.721
292.716
292.715
292.713
292.711
292.711
292.712
292.714
292.718
292.725
292.731
292.742
292.751
292.762
292.774
292.789
292.804
292.821
292.84
292.857
292.878
292.895
292.919
292.934
292.962
292.979
293.008
293.021
293.041
293.058
293.082
293.098
293.12
293.14
293.159
293.182
293.202
293.224
293.243
293.262
293.278
293.294
293.309
293.323
293.339
293.351
293.362
293.372
293.378
293.388
293.393
293.401
293.406
293.41
293.413
293.416
293.417
293.419
293.419
293.419
293.417
293.416
293.41
293.406
293.398
293.393
293.384
293.379
293.369
293.363
293.353
293.344
293.331
293.32
293.311
293.298
293.29
293.276
293.267
293.254
293.245
293.234
293.228
293.217
293.216
293.204
293.204
293.19
293.191
293.177
293.175
293.167
293.165
293.162
293.152
293.148
293.14
293.137
293.136
293.136
293.137
293.137
293.136
293.135
293.135
293.135
293.137
293.14
293.142
293.144
293.144
293.146
293.147
293.152
293.154
293.16
293.162
293.166
293.167
293.169
293.17
293.174
293.175
293.179
293.18
293.184
293.185
293.189
293.189
293.193
293.194
293.199
293.2
293.206
293.208
293.214
293.216
293.221
293.223
293.228
293.23
293.234
293.237
293.24
293.244
293.246
293.249
293.251
293.255
293.257
293.26
293.262
293.267
293.268
293.272
293.273
293.283
293.285
293.297
293.298
293.306
293.306
293.311
293.313
293.32
293.321
293.327
293.327
293.33
293.332
293.334
293.336
293.336
293.338
293.337
293.339
293.339
293.342
293.342
293.343
293.343
293.343
293.343
293.344
293.344
293.345
293.345
293.346
293.346
293.346
293.346
293.346
293.346
293.347
293.347
293.349
293.349
293.351
293.351
293.354
293.354
293.357
293.358
293.359
293.363
293.363
293.368
293.368
293.373
293.374
293.379
293.38
293.385
293.386
293.391
293.391
293.397
293.397
293.403
293.404
293.406
293.406
293.406
293.405
293.404
293.404
293.403
293.403
293.402
293.402
293.402
293.402
293.402
293.403
293.405
293.405
293.408
293.408
293.413
293.413
293.418
293.418
293.421
293.421
293.422
293.422
293.422
293.423
293.424
293.425
293.428
293.43
293.436
293.438
293.443
293.444
293.444
293.445
293.444
293.443
293.436
293.433
293.417
293.406
293.379
293.357
293.326
293.303
293.284
293.273
293.266
293.268
293.267
293.268
293.267
292.345
292.351
292.337
292.349
292.306
292.236
292.093
291.973
291.73
291.576
291.316
291.11
290.862
290.673
290.452
290.352
290.202
290.175
290.087
290.05
289.984
289.969
289.893
289.882
289.842
289.859
289.821
289.844
289.78
289.814
289.817
289.877
289.821
289.856
289.824
289.871
289.854
289.906
289.867
289.92
289.925
289.947
289.913
289.902
289.929
289.925
289.976
289.991
290.057
289.995
290.011
289.916
290.159
290.181
290.218
290.022
290.109
290.07
290.132
289.961
289.99
289.855
289.983
289.848
289.849
289.709
289.727
289.669
289.649
289.6
289.561
289.407
289.421
289.297
289.33
289.237
289.154
289.034
289.003
288.926
288.928
288.897
288.896
288.889
288.897
288.896
288.917
288.917
288.97
288.99
289.079
289.095
289.208
289.212
289.36
289.36
289.548
289.541
289.741
289.755
289.957
289.982
290.196
290.206
290.427
290.42
290.671
290.659
290.86
290.853
291.065
291.05
291.255
291.243
291.423
291.427
291.573
291.589
291.707
291.721
291.827
291.826
291.936
291.927
292.035
292.038
292.126
292.124
292.19
292.196
292.252
292.257
292.295
292.307
292.328
292.357
292.363
292.419
292.443
292.495
292.521
292.558
292.596
292.626
292.672
292.694
292.743
292.775
292.82
292.846
292.89
292.921
292.964
292.996
293.03
293.059
293.086
293.116
293.15
293.183
293.211
293.237
293.263
293.287
293.306
293.327
293.35
293.371
293.387
293.401
293.413
293.426
293.438
293.442
293.447
293.447
293.451
293.453
293.455
293.454
293.454
293.449
293.45
293.444
293.442
293.428
293.421
293.403
293.396
293.372
293.362
293.335
293.326
293.297
293.281
293.248
293.228
293.205
293.189
293.164
293.145
293.124
293.1
293.066
293.048
293.018
293.002
292.971
292.954
292.932
292.916
292.888
292.871
292.852
292.838
292.818
292.802
292.78
292.772
292.758
292.751
292.739
292.735
292.728
292.723
292.714
292.713
292.71
292.71
292.707
292.707
292.708
292.71
292.715
292.719
292.73
292.736
292.748
292.756
292.771
292.784
292.803
292.817
292.838
292.856
292.876
292.895
292.906
292.932
292.943
292.979
292.996
293.024
293.034
293.057
293.072
293.097
293.115
293.136
293.16
293.179
293.201
293.217
293.242
293.256
293.278
293.291
293.306
293.322
293.338
293.35
293.36
293.367
293.377
293.381
293.394
293.396
293.403
293.406
293.409
293.41
293.414
293.415
293.416
293.415
293.415
293.409
293.409
293.399
293.397
293.385
293.382
293.368
293.368
293.356
293.352
293.336
293.327
293.315
293.3
293.298
293.279
293.275
293.261
293.256
293.239
293.233
293.216
293.214
293.202
293.204
293.189
293.19
293.175
293.174
293.164
293.162
293.162
293.153
293.148
293.134
293.13
293.127
293.128
293.128
293.13
293.13
293.127
293.125
293.124
293.125
293.128
293.13
293.132
293.132
293.133
293.133
293.138
293.14
293.148
293.15
293.156
293.157
293.16
293.159
293.163
293.163
293.169
293.169
293.174
293.175
293.178
293.179
293.182
293.182
293.187
293.188
293.194
293.196
293.2
293.206
293.207
293.212
293.215
293.219
293.221
293.225
293.225
293.231
293.233
293.238
293.238
293.243
293.245
293.251
293.251
293.256
293.258
293.262
293.261
293.266
293.267
293.281
293.283
293.297
293.298
293.303
293.303
293.307
293.309
293.318
293.318
293.322
293.322
293.324
293.326
293.327
293.328
293.328
293.329
293.329
293.331
293.332
293.334
293.334
293.335
293.334
293.335
293.335
293.336
293.336
293.337
293.337
293.337
293.337
293.338
293.337
293.338
293.338
293.34
293.339
293.341
293.341
293.343
293.343
293.347
293.347
293.349
293.351
293.352
293.357
293.357
293.362
293.363
293.368
293.368
293.373
293.374
293.379
293.379
293.384
293.384
293.391
293.392
293.397
293.397
293.397
293.397
293.396
293.396
293.394
293.394
293.393
293.393
293.392
293.392
293.392
293.392
293.393
293.393
293.396
293.396
293.398
293.399
293.404
293.405
293.41
293.41
293.411
293.411
293.411
293.412
293.412
293.413
293.415
293.416
293.42
293.421
293.428
293.429
293.433
293.433
293.433
293.433
293.43
293.429
293.416
293.413
293.39
293.38
293.346
293.327
293.3
293.285
293.273
293.268
293.264
293.261
293.263
293.261
292.318
292.308
292.32
292.303
292.302
292.181
292.08
291.829
291.711
291.443
291.293
291.011
290.86
290.594
290.45
290.279
290.215
290.119
290.086
290.038
290.048
289.981
289.984
289.906
289.936
289.89
289.93
289.9
289.914
289.87
289.943
289.912
289.925
289.898
289.91
289.836
289.847
289.84
289.843
289.833
289.914
289.916
289.912
289.932
290.008
290.114
290.146
290.206
290.105
290.178
290.052
290.415
290.574
290.749
290.496
290.601
290.515
290.699
290.535
290.501
290.295
290.428
290.366
290.335
290.09
290.203
290.065
290.068
289.917
289.963
289.725
289.72
289.465
289.466
289.291
289.243
289.114
289.039
288.919
288.866
288.793
288.752
288.729
288.685
288.688
288.68
288.688
288.705
288.709
288.77
288.79
288.888
288.901
288.999
289.006
289.142
289.147
289.303
289.32
289.483
289.522
289.699
289.703
289.94
289.933
290.156
290.147
290.384
290.372
290.584
290.564
290.819
290.802
291.016
291.011
291.206
291.23
291.388
291.418
291.554
291.572
291.72
291.709
291.857
291.84
291.991
291.988
292.098
292.088
292.191
292.184
292.254
292.263
292.311
292.333
292.33
292.361
292.38
292.441
292.457
292.513
292.543
292.585
292.631
292.654
292.704
292.723
292.776
292.798
292.846
292.871
292.912
292.95
292.984
293.018
293.041
293.079
293.097
293.147
293.175
293.21
293.23
293.262
293.276
293.306
293.319
293.347
293.364
293.385
293.399
293.412
293.425
293.434
293.441
293.442
293.446
293.447
293.45
293.45
293.449
293.446
293.445
293.439
293.44
293.43
293.426
293.408
293.405
293.378
293.373
293.337
293.337
293.299
293.297
293.253
293.239
293.21
293.207
293.175
293.162
293.133
293.125
293.086
293.064
293.023
293.016
292.978
292.966
292.938
292.931
292.901
292.886
292.859
292.852
292.824
292.815
292.783
292.774
292.754
292.753
292.735
292.73
292.718
292.718
292.709
292.706
292.701
292.702
292.699
292.698
292.697
292.698
292.701
292.703
292.712
292.716
292.731
292.733
292.749
292.755
292.779
292.789
292.815
292.825
292.854
292.869
292.888
292.905
292.909
292.937
292.944
292.99
293.003
293.035
293.039
293.062
293.08
293.102
293.129
293.148
293.174
293.187
293.212
293.22
293.254
293.262
293.284
293.29
293.315
293.329
293.346
293.35
293.36
293.36
293.375
293.38
293.393
293.392
293.397
293.395
293.398
293.4
293.406
293.407
293.408
293.405
293.405
293.394
293.394
293.382
293.382
293.367
293.367
293.352
293.352
293.336
293.33
293.313
293.302
293.297
293.277
293.273
293.257
293.257
293.241
293.237
293.212
293.208
293.196
293.199
293.187
293.187
293.17
293.168
293.158
293.158
293.156
293.149
293.144
293.125
293.121
293.115
293.115
293.116
293.118
293.118
293.116
293.112
293.11
293.11
293.112
293.114
293.117
293.117
293.117
293.116
293.119
293.12
293.13
293.132
293.14
293.141
293.146
293.146
293.147
293.147
293.153
293.154
293.159
293.16
293.164
293.164
293.167
293.166
293.17
293.17
293.176
293.178
293.182
293.187
293.189
293.195
293.196
293.203
293.204
293.207
293.207
293.213
293.213
293.221
293.222
293.228
293.229
293.235
293.237
293.243
293.243
293.247
293.249
293.254
293.253
293.26
293.26
293.275
293.279
293.292
293.291
293.295
293.294
293.3
293.302
293.31
293.309
293.311
293.311
293.313
293.314
293.314
293.315
293.314
293.315
293.315
293.317
293.318
293.32
293.319
293.32
293.32
293.321
293.321
293.323
293.323
293.323
293.323
293.324
293.323
293.324
293.324
293.325
293.324
293.326
293.326
293.328
293.328
293.33
293.331
293.333
293.335
293.335
293.339
293.339
293.346
293.346
293.35
293.351
293.357
293.358
293.362
293.362
293.366
293.366
293.372
293.372
293.381
293.38
293.383
293.382
293.382
293.382
293.38
293.38
293.379
293.379
293.377
293.377
293.376
293.376
293.376
293.376
293.378
293.378
293.379
293.379
293.382
293.382
293.389
293.389
293.393
293.393
293.394
293.394
293.394
293.395
293.395
293.396
293.398
293.398
293.404
293.404
293.411
293.412
293.413
293.413
293.413
293.412
293.405
293.402
293.387
293.383
293.355
293.347
293.317
293.303
293.284
293.273
293.266
293.257
293.256
293.252
293.252
292.282
292.288
292.272
292.285
292.218
292.168
291.966
291.812
291.539
291.362
291.101
290.954
290.702
290.563
290.367
290.268
290.165
290.116
290.063
290.064
290.025
290.051
289.983
290.004
289.983
289.997
289.978
290
289.924
289.934
289.912
289.925
289.846
289.854
289.83
289.812
289.745
289.806
289.78
289.806
289.823
289.945
289.931
290.091
290.181
290.261
290.346
290.247
290.314
290.177
290.609
290.749
291.157
291.039
291.105
291.083
291.371
291.199
291.223
290.956
291.123
291.052
291.093
290.818
290.828
290.775
290.756
290.477
290.519
290.292
290.282
289.916
289.865
289.555
289.465
289.275
289.156
289.02
288.908
288.789
288.684
288.626
288.511
288.507
288.418
288.424
288.41
288.417
288.421
288.434
288.506
288.513
288.6
288.61
288.7
288.708
288.825
288.835
288.95
288.981
289.117
289.143
289.339
289.334
289.539
289.52
289.774
289.753
289.976
289.959
290.191
290.185
290.443
290.449
290.661
290.69
290.897
290.94
291.122
291.161
291.347
291.348
291.565
291.542
291.747
291.733
291.911
291.908
292.048
292.055
292.178
292.185
292.253
292.287
292.314
292.342
292.328
292.371
292.39
292.449
292.485
292.54
292.584
292.616
292.658
292.677
292.728
292.74
292.797
292.82
292.855
292.894
292.916
292.957
292.984
293.034
293.041
293.096
293.115
293.161
293.185
293.226
293.231
293.269
293.277
293.32
293.324
293.36
293.373
293.395
293.405
293.419
293.425
293.436
293.44
293.439
293.439
293.438
293.439
293.437
293.436
293.429
293.429
293.422
293.421
293.407
293.405
293.379
293.374
293.336
293.339
293.301
293.3
293.257
293.25
293.221
293.22
293.185
293.175
293.135
293.133
293.095
293.079
293.032
293.022
292.985
292.974
292.945
292.94
292.907
292.894
292.861
292.856
292.826
292.818
292.779
292.772
292.748
292.748
292.728
292.725
292.704
292.703
292.695
292.692
292.687
292.69
292.686
292.683
292.681
292.68
292.682
292.684
292.69
292.691
292.706
292.708
292.727
292.726
292.746
292.752
292.781
292.783
292.819
292.828
292.862
292.872
292.895
292.906
292.909
292.94
292.943
292.994
293.005
293.034
293.041
293.06
293.084
293.099
293.134
293.148
293.184
293.184
293.211
293.212
293.252
293.253
293.28
293.288
293.312
293.324
293.338
293.339
293.347
293.347
293.364
293.37
293.378
293.376
293.376
293.375
293.381
293.386
293.392
293.393
293.392
293.384
293.383
293.373
293.372
293.361
293.36
293.345
293.345
293.328
293.326
293.306
293.301
293.288
293.276
293.268
293.251
293.249
293.235
293.233
293.205
293.203
293.188
293.19
293.181
293.179
293.164
293.161
293.151
293.151
293.15
293.14
293.137
293.115
293.111
293.102
293.102
293.102
293.103
293.102
293.101
293.096
293.093
293.093
293.094
293.097
293.099
293.098
293.098
293.096
293.097
293.097
293.106
293.108
293.119
293.119
293.125
293.125
293.128
293.128
293.131
293.133
293.138
293.138
293.143
293.144
293.148
293.148
293.15
293.15
293.154
293.156
293.16
293.165
293.166
293.172
293.173
293.182
293.183
293.188
293.187
293.191
293.191
293.201
293.202
293.21
293.211
293.216
293.216
293.226
293.226
293.232
293.229
293.234
293.237
293.244
293.241
293.249
293.249
293.266
293.268
293.279
293.279
293.283
293.28
293.286
293.287
293.293
293.292
293.294
293.293
293.295
293.295
293.296
293.296
293.295
293.296
293.296
293.298
293.298
293.3
293.3
293.301
293.301
293.303
293.303
293.304
293.304
293.304
293.304
293.305
293.305
293.305
293.305
293.306
293.306
293.308
293.308
293.309
293.31
293.312
293.314
293.315
293.318
293.317
293.323
293.324
293.33
293.33
293.334
293.335
293.34
293.341
293.344
293.345
293.348
293.347
293.353
293.355
293.362
293.361
293.362
293.362
293.361
293.361
293.359
293.359
293.358
293.358
293.356
293.355
293.354
293.354
293.354
293.354
293.355
293.355
293.356
293.355
293.359
293.36
293.366
293.367
293.369
293.369
293.37
293.37
293.37
293.37
293.37
293.371
293.374
293.373
293.379
293.379
293.385
293.385
293.386
293.386
293.382
293.381
293.371
293.368
293.349
293.347
293.323
293.319
293.294
293.282
293.27
293.254
293.252
293.241
293.24
293.237
292.257
292.241
292.249
292.239
292.214
292.09
291.976
291.755
291.535
291.27
291.073
290.824
290.662
290.477
290.37
290.252
290.183
290.113
290.092
290.039
290.059
290.025
290.049
290.026
290.042
290.015
290.052
289.968
289.943
289.865
289.903
289.828
289.838
289.774
289.817
289.788
289.777
289.717
289.798
289.773
289.882
289.868
290.133
290.201
290.357
290.412
290.345
290.426
290.297
290.526
290.737
291.297
291.181
291.487
291.328
291.839
291.846
291.846
291.637
291.854
291.889
291.901
291.704
291.8
291.695
291.718
291.363
291.385
291.047
290.99
290.663
290.625
290.201
290.007
289.776
289.464
289.332
289.016
288.915
288.745
288.633
288.485
288.434
288.271
288.266
288.139
288.142
288.112
288.116
288.134
288.14
288.187
288.192
288.26
288.269
288.347
288.35
288.421
288.436
288.536
288.554
288.7
288.709
288.881
288.863
289.062
289.052
289.278
289.262
289.473
289.46
289.732
289.725
289.995
289.994
290.254
290.284
290.515
290.575
290.791
290.849
291.086
291.115
291.35
291.336
291.608
291.604
291.808
291.794
291.972
291.993
292.162
292.185
292.242
292.295
292.295
292.347
292.343
292.382
292.416
292.464
292.526
292.569
292.622
292.634
292.675
292.684
292.738
292.756
292.796
292.836
292.852
292.892
292.912
292.96
292.991
293.047
293.051
293.098
293.108
293.165
293.18
293.223
293.226
293.27
293.273
293.322
293.323
293.368
293.378
293.395
293.396
293.415
293.423
293.43
293.43
293.427
293.424
293.422
293.421
293.416
293.414
293.407
293.406
293.397
293.396
293.373
293.371
293.332
293.336
293.3
293.3
293.259
293.248
293.223
293.223
293.196
293.184
293.133
293.13
293.088
293.083
293.04
293.028
292.995
292.983
292.951
292.945
292.916
292.899
292.857
292.853
292.825
292.816
292.773
292.763
292.739
292.738
292.721
292.714
292.693
292.692
292.676
292.671
292.669
292.669
292.669
292.665
292.661
292.659
292.659
292.66
292.664
292.665
292.674
292.674
292.697
292.698
292.719
292.72
292.738
292.744
292.776
292.774
292.807
292.816
292.862
292.872
292.901
292.902
292.908
292.934
292.946
292.991
293.015
293.025
293.045
293.047
293.078
293.083
293.138
293.152
293.18
293.173
293.197
293.206
293.247
293.25
293.267
293.269
293.298
293.311
293.323
293.319
293.328
293.33
293.347
293.349
293.355
293.352
293.352
293.354
293.363
293.368
293.371
293.368
293.368
293.358
293.356
293.348
293.348
293.335
293.334
293.316
293.314
293.295
293.294
293.276
293.271
293.26
293.247
293.239
293.225
293.221
293.202
293.195
293.179
293.18
293.169
293.167
293.156
293.152
293.144
293.14
293.141
293.133
293.132
293.105
293.097
293.086
293.088
293.088
293.089
293.085
293.082
293.075
293.073
293.071
293.074
293.077
293.079
293.078
293.078
293.074
293.074
293.073
293.081
293.082
293.093
293.094
293.1
293.1
293.103
293.106
293.107
293.11
293.113
293.114
293.119
293.119
293.124
293.125
293.126
293.128
293.129
293.131
293.134
293.14
293.142
293.148
293.148
293.155
293.158
293.165
293.163
293.168
293.167
293.175
293.178
293.188
293.187
293.193
293.197
293.203
293.203
293.212
293.211
293.217
293.215
293.221
293.224
293.23
293.229
293.236
293.236
293.25
293.253
293.261
293.26
293.262
293.26
293.265
293.267
293.271
293.27
293.271
293.27
293.271
293.272
293.272
293.271
293.271
293.272
293.272
293.273
293.273
293.275
293.277
293.278
293.278
293.279
293.279
293.28
293.28
293.281
293.281
293.281
293.281
293.281
293.282
293.283
293.283
293.285
293.285
293.286
293.288
293.289
293.292
293.293
293.296
293.296
293.303
293.304
293.309
293.309
293.314
293.315
293.32
293.319
293.323
293.323
293.326
293.325
293.332
293.332
293.337
293.336
293.337
293.336
293.335
293.335
293.334
293.333
293.332
293.331
293.329
293.329
293.328
293.328
293.327
293.327
293.327
293.327
293.328
293.327
293.331
293.332
293.338
293.338
293.34
293.34
293.34
293.34
293.34
293.34
293.34
293.34
293.342
293.342
293.348
293.348
293.351
293.351
293.351
293.351
293.347
293.345
293.331
293.329
293.316
293.316
293.294
293.289
293.27
293.256
293.253
293.235
293.233
293.223
293.222
292.223
292.235
292.212
292.224
292.172
292.099
291.945
291.774
291.533
291.294
291.029
290.831
290.61
290.485
290.348
290.257
290.161
290.124
290.079
290.09
290.072
290.062
290.056
290.082
290.045
290.078
289.993
289.952
289.865
289.903
289.83
289.841
289.778
289.821
289.794
289.818
289.742
289.775
289.782
289.907
289.812
290.094
290.131
290.393
290.431
290.409
290.501
290.364
290.577
290.592
291.128
291.06
291.446
291.428
291.991
292.16
292.25
292.135
292.418
292.607
292.806
292.701
292.704
292.701
292.74
292.589
292.445
292.153
292.015
291.711
291.568
291.272
290.865
290.748
290.12
290.113
289.476
289.39
288.896
288.752
288.588
288.466
288.316
288.224
288.045
288.002
287.88
287.868
287.849
287.849
287.852
287.833
287.845
287.854
287.919
287.921
287.958
287.95
288.004
288.011
288.117
288.121
288.251
288.249
288.379
288.359
288.56
288.548
288.75
288.721
288.958
288.946
289.216
289.204
289.524
289.513
289.785
289.837
290.103
290.177
290.44
290.508
290.789
290.819
291.136
291.127
291.448
291.466
291.688
291.661
291.926
291.964
292.163
292.186
292.212
292.284
292.289
292.353
292.364
292.401
292.456
292.494
292.561
292.602
292.642
292.642
292.678
292.7
292.74
292.776
292.802
292.842
292.862
292.898
292.93
292.981
293.008
293.056
293.055
293.092
293.105
293.156
293.177
293.215
293.222
293.263
293.271
293.318
293.327
293.358
293.361
293.38
293.384
293.409
293.412
293.415
293.412
293.408
293.403
293.401
293.397
293.391
293.389
293.381
293.38
293.365
293.361
293.332
293.33
293.298
293.297