/*--------------------------------*- C++ -*----------------------------------*\
| =========                 |                                                 |
| \\      /  F ield         | OpenFOAM: The Open Source CFD Toolbox           |
|  \\    /   O peration     | Version:  v1812                                 |
|   \\  /    A nd           | Web:      www.OpenFOAM.com                      |
|    \\/     M anipulation  |                                                 |
\*---------------------------------------------------------------------------*/
FoamFile
{
    version     2.0;
    format      ascii;
    class       volVectorField;
    location    "0.3";
    object      U;
}
// * * * * * * * * * * * * * * * * * * * * * * * * * * * * * * * * * * * * * //

dimensions      [0 1 -1 0 0 0 0];


internalField   nonuniform List<vector> 
20400
(
(-0.207403 0.00411779 0)
(-0.580131 -0.071313 0)
(-1.10248 -0.107809 0)
(-1.42131 -0.116533 0)
(-2.0762 -0.0725718 0)
(-2.28021 -0.0150647 0)
(-2.88838 0.00701343 0)
(-2.944 0.149382 0)
(-3.45267 0.133489 0)
(-3.45007 0.265108 0)
(-3.95271 0.235444 0)
(-3.94472 0.232108 0)
(-4.46252 0.281183 0)
(-4.46116 0.247154 0)
(-4.89915 0.343591 0)
(-4.88294 0.271898 0)
(-5.28392 0.314913 0)
(-5.2001 0.256554 0)
(-5.5936 0.256583 0)
(-5.5665 0.169274 0)
(-5.70798 0.0235145 0)
(-5.64586 -0.0529881 0)
(-6.03119 0.0347278 0)
(-5.83835 -0.0381558 0)
(-6.48657 -0.122325 0)
(-6.26891 -0.283388 0)
(-7.05551 -0.0542076 0)
(-6.79424 -0.266402 0)
(-7.72489 0.033076 0)
(-7.5069 -0.249651 0)
(-8.71107 0.107374 0)
(-8.57435 -0.286199 0)
(-10.0053 0.171685 0)
(-10.0684 -0.253536 0)
(-11.8159 0.231471 0)
(-11.948 -0.15935 0)
(-14.0813 0.35948 0)
(-14.2326 -0.0114543 0)
(-16.7669 0.421105 0)
(-16.9955 0.0720717 0)
(-19.6555 0.41266 0)
(-19.9346 0.213875 0)
(-22.2397 0.336199 0)
(-22.5869 0.194216 0)
(-24.0102 0.164202 0)
(-24.2927 0.094511 0)
(-24.8224 0.0588805 0)
(-24.9745 -0.0552097 0)
(-24.9889 -0.22225 0)
(-24.9927 -0.30727 0)
(-24.6006 -0.438858 0)
(-24.6533 -0.46005 0)
(-24.0078 -0.320427 0)
(-23.9931 -0.385641 0)
(-23.0455 -0.266715 0)
(-23.0704 -0.112272 0)
(-21.5866 0.0101667 0)
(-21.5097 0.0533153 0)
(-19.4967 0.408025 0)
(-19.3866 0.107322 0)
(-17.598 0.218207 0)
(-17.499 0.279813 0)
(-15.5505 0.641128 0)
(-15.3709 0.453515 0)
(-13.7254 0.37133 0)
(-13.642 0.318683 0)
(-12.2059 0.540999 0)
(-12.1339 0.347922 0)
(-10.8455 0.467538 0)
(-10.7284 0.347257 0)
(-9.54433 0.497114 0)
(-9.40663 0.499827 0)
(-8.35798 0.521741 0)
(-8.18021 0.416154 0)
(-7.26394 0.533125 0)
(-7.02543 0.418411 0)
(-6.25762 0.521479 0)
(-6.00396 0.408196 0)
(-5.36289 0.475527 0)
(-5.10421 0.363669 0)
(-4.58196 0.427221 0)
(-4.33711 0.320483 0)
(-3.92363 0.37311 0)
(-3.70329 0.281997 0)
(-3.37761 0.315815 0)
(-3.18592 0.237838 0)
(-2.93233 0.267927 0)
(-2.76499 0.199722 0)
(-2.56385 0.213231 0)
(-2.41759 0.124764 0)
(-2.25826 0.0945179 0)
(-2.11347 0.0864662 0)
(-1.99837 0.0304095 0)
(-1.90144 0.0163388 0)
(-1.83717 -0.0399517 0)
(-1.78166 -0.0461559 0)
(-1.74057 -0.0826475 0)
(-1.70292 -0.0761162 0)
(-1.66176 -0.0991678 0)
(-1.63227 -0.088404 0)
(-1.59708 -0.111234 0)
(-1.58035 -0.0893515 0)
(-1.55302 -0.11834 0)
(-1.54317 -0.0921126 0)
(-1.52393 -0.11353 0)
(-1.52158 -0.0973991 0)
(-1.51691 -0.110607 0)
(-1.52279 -0.0978021 0)
(-1.5291 -0.108743 0)
(-1.54186 -0.0926126 0)
(-1.55563 -0.101642 0)
(-1.56883 -0.086095 0)
(-1.58057 -0.0942758 0)
(-1.59404 -0.0806738 0)
(-1.60514 -0.0872377 0)
(-1.61045 -0.0686172 0)
(-1.6127 -0.0694251 0)
(-1.61532 -0.0430353 0)
(-1.61666 -0.0370514 0)
(-1.62369 -0.00756096 0)
(-1.62959 -0.00143064 0)
(-1.64132 0.0203144 0)
(-1.65207 0.0236114 0)
(-1.67493 0.035907 0)
(-1.69798 0.0324888 0)
(-1.7281 0.040641 0)
(-1.76048 0.0337207 0)
(-1.80229 0.0375798 0)
(-1.85109 0.0349514 0)
(-1.90138 0.0437072 0)
(-1.95454 0.0452338 0)
(-2.00501 0.0511413 0)
(-2.05011 0.0514665 0)
(-2.09315 0.0504628 0)
(-2.14483 0.0509179 0)
(-2.20731 0.0503115 0)
(-2.27461 0.0532478 0)
(-2.34408 0.0508657 0)
(-2.42168 0.0498146 0)
(-2.50569 0.0499405 0)
(-2.58318 0.0522216 0)
(-2.65274 0.049703 0)
(-2.72219 0.0395977 0)
(-2.79688 0.036379 0)
(-2.87249 0.0291363 0)
(-2.94782 0.0111644 0)
(-3.02655 0.00478182 0)
(-3.11023 0.00524732 0)
(-3.19535 0.0127574 0)
(-3.27046 0.0280936 0)
(-3.33833 0.0218022 0)
(-3.41401 0.0135525 0)
(-3.5039 0.000458643 0)
(-3.59931 -0.00250277 0)
(-3.6804 0.0108998 0)
(-3.74911 0.0154695 0)
(-3.81351 0.0216633 0)
(-3.86642 0.0299739 0)
(-3.91133 0.0188282 0)
(-3.96297 0.0162255 0)
(-4.01276 0.0158233 0)
(-4.05903 0.00530125 0)
(-4.11296 -0.0080795 0)
(-4.17203 -0.012303 0)
(-4.22109 -0.0072421 0)
(-4.25399 0.00157216 0)
(-4.27831 -0.00291055 0)
(-4.30153 0.00037582 0)
(-4.31945 0.00682858 0)
(-4.32237 0.0138765 0)
(-4.31664 0.0145798 0)
(-4.31192 0.0112063 0)
(-4.31158 0.00813475 0)
(-4.31322 0.00655764 0)
(-4.31447 0.00784499 0)
(-4.31057 0.0102364 0)
(-4.30164 0.0102898 0)
(-4.29031 0.00913086 0)
(-4.27727 0.00991928 0)
(-4.26067 0.0133421 0)
(-4.2372 0.018407 0)
(-4.20479 0.0241209 0)
(-4.1646 0.0281667 0)
(-4.11881 0.0313046 0)
(-4.0691 0.0318168 0)
(-4.01587 0.0335853 0)
(-3.95848 0.0359488 0)
(-3.89503 0.0398574 0)
(-3.82352 0.0377436 0)
(-3.74852 0.034557 0)
(-3.66949 0.0299406 0)
(-3.59861 0.0269783 0)
(-3.52048 0.0310201 0)
(-3.4553 0.0353253 0)
(-3.36442 0.0439289 0)
(-3.29161 0.0420714 0)
(-3.18512 0.0483744 0)
(-3.11009 0.0372866 0)
(-3.00198 0.0382496 0)
(-2.93275 0.0280077 0)
(-2.83706 0.0299284 0)
(-2.77911 0.021032 0)
(-2.68768 0.0284436 0)
(-2.62752 0.0263629 0)
(-2.52879 0.031259 0)
(-2.47058 0.0306895 0)
(-2.37389 0.0332256 0)
(-2.3189 0.0286573 0)
(-2.22808 0.0274443 0)
(-2.17504 0.0210768 0)
(-2.09891 0.0257522 0)
(-2.05683 0.0210219 0)
(-1.98119 0.0235812 0)
(-1.93588 0.0255323 0)
(-1.86512 0.0302439 0)
(-1.82874 0.0183255 0)
(-1.77202 0.0261257 0)
(-1.73446 0.0253401 0)
(-1.67837 0.0291065 0)
(-1.64959 0.0250357 0)
(-1.61529 0.025075 0)
(-1.6016 0.017103 0)
(-1.5895 0.01706 0)
(-1.58341 0.0125547 0)
(-1.57336 0.0137896 0)
(-1.56316 0.0150174 0)
(-1.55362 0.0172544 0)
(-1.54989 0.0175606 0)
(-1.5521 0.0184592 0)
(-1.55658 0.019325 0)
(-1.55811 0.0214346 0)
(-1.55954 0.0231093 0)
(-1.56421 0.0243706 0)
(-1.57087 0.0236824 0)
(-1.58075 0.0213524 0)
(-1.59444 0.0191846 0)
(-1.61242 0.0172258 0)
(-1.63627 0.0161832 0)
(-1.66595 0.0164343 0)
(-1.69957 0.0183777 0)
(-1.73554 0.0206141 0)
(-1.77434 0.0219385 0)
(-1.81687 0.0208787 0)
(-1.86303 0.0204685 0)
(-1.91056 0.0199868 0)
(-1.95709 0.0213516 0)
(-1.99998 0.0230026 0)
(-2.03958 0.0244441 0)
(-2.07592 0.0244666 0)
(-2.11071 0.0238257 0)
(-2.14446 0.0230687 0)
(-2.17991 0.022457 0)
(-2.21427 0.0241403 0)
(-2.25061 0.02305 0)
(-2.28531 0.0242749 0)
(-2.32457 0.0208213 0)
(-2.362 0.0249268 0)
(-2.40501 0.0178147 0)
(-2.44722 0.0202972 0)
(-2.4957 0.015328 0)
(-2.53034 0.0187343 0)
(-2.5723 0.0105907 0)
(-2.60036 0.0130989 0)
(-2.639 0.0094172 0)
(-2.66161 0.0134433 0)
(-2.69671 0.0102873 0)
(-2.71937 0.0138424 0)
(-2.75163 0.013381 0)
(-2.76732 0.0209749 0)
(-2.7911 0.0162956 0)
(-2.80876 0.0196723 0)
(-2.8333 0.0118094 0)
(-2.85268 0.0129188 0)
(-2.88084 0.00780033 0)
(-2.89202 0.00982178 0)
(-2.91407 0.00917711 0)
(-2.92198 0.00933356 0)
(-2.92707 0.00614298 0)
(-2.92761 0.00711568 0)
(-2.92826 0.00662559 0)
(-2.92806 0.00774704 0)
(-2.92711 0.00941353 0)
(-2.92231 0.0116066 0)
(-2.91431 0.0152272 0)
(-2.89946 0.0163908 0)
(-2.88382 0.0163937 0)
(-2.86918 0.0149631 0)
(-2.85827 0.0122983 0)
(-2.84738 0.0109281 0)
(-2.83645 0.0110808 0)
(-2.81918 0.00983984 0)
(-2.8014 0.00845864 0)
(-2.77444 0.0093944 0)
(-2.75354 0.00837426 0)
(-2.72499 0.0109248 0)
(-2.70557 0.00969526 0)
(-2.67761 0.00733502 0)
(-2.65357 0.00912416 0)
(-2.62306 0.00523787 0)
(-2.5873 0.00704008 0)
(-2.54912 0.00213856 0)
(-2.50946 -9.63639e-05 0)
(-2.46557 0.00159536 0)
(-2.4328 -0.000673786 0)
(-2.38981 -0.00218855 0)
(-2.36536 -0.00395265 0)
(-2.32344 -0.0036166 0)
(-2.3069 -0.00278524 0)
(-2.26513 -0.00263476 0)
(-2.25255 -0.00349434 0)
(-2.20602 -0.00501006 0)
(-2.19458 -0.00382114 0)
(-2.13952 -0.00325949 0)
(-2.12767 -0.00380362 0)
(-2.06713 -0.00140833 0)
(-2.05731 -0.00346174 0)
(-2.00224 0.00107111 0)
(-1.99577 -0.00273137 0)
(-1.95245 -0.00108149 0)
(-1.95025 -0.00721469 0)
(-1.9162 -0.00493887 0)
(-1.91417 -0.0108358 0)
(-1.87924 -0.0104039 0)
(-1.87526 -0.0135355 0)
(-1.83788 -0.0125185 0)
(-1.83428 -0.0158355 0)
(-1.80745 -0.0123474 0)
(-1.80671 -0.0147514 0)
(-1.78054 -0.0110598 0)
(-1.77987 -0.0132158 0)
(-1.75323 -0.0125505 0)
(-1.75206 -0.0131296 0)
(-1.73349 -0.0108349 0)
(-1.73289 -0.0124718 0)
(-1.71947 -0.0133021 0)
(-1.71557 -0.0143573 0)
(-1.70472 -0.0149633 0)
(-1.69981 -0.0162235 0)
(-1.69374 -0.0162134 0)
(-1.6915 -0.0157592 0)
(-1.69201 -0.0151996 0)
(-1.69493 -0.0145968 0)
(-1.70178 -0.0132727 0)
(-1.70826 -0.0128155 0)
(-1.71755 -0.0128306 0)
(-1.72372 -0.0137319 0)
(-1.73381 -0.0134886 0)
(-1.74012 -0.0141605 0)
(-1.75529 -0.0125243 0)
(-1.76308 -0.0127284 0)
(-1.7845 -0.0121431 0)
(-1.79092 -0.0117677 0)
(-1.81517 -0.012182 0)
(-1.81849 -0.00951224 0)
(-1.8446 -0.0105289 0)
(-1.84594 -0.00847123 0)
(-1.87505 -0.00963537 0)
(-1.8766 -0.00817016 0)
(-1.90706 -0.0105208 0)
(-1.90794 -0.00869641 0)
(-1.93752 -0.0113583 0)
(-1.93848 -0.00919103 0)
(-1.96617 -0.0127993 0)
(-1.96726 -0.0097852 0)
(-1.9935 -0.0132251 0)
(-1.9945 -0.00990965 0)
(-2.01948 -0.0132164 0)
(-2.0211 -0.00949808 0)
(-2.04471 -0.0127104 0)
(-2.04672 -0.00878076 0)
(-2.06665 -0.0119187 0)
(-2.06739 -0.00792772 0)
(-2.08312 -0.0118023 0)
(-2.08465 -0.00810664 0)
(-2.10106 -0.0118248 0)
(-2.10262 -0.00781285 0)
(-2.12032 -0.0103945 0)
(-2.12223 -0.00800715 0)
(-2.13837 -0.0115676 0)
(-2.13896 -0.00921686 0)
(-2.14868 -0.013181 0)
(-2.14983 -0.0100858 0)
(-2.15859 -0.0112297 0)
(-2.1603 -0.00916068 0)
(-2.16683 -0.0106737 0)
(-2.1673 -0.00967262 0)
(-2.16912 -0.0112107 0)
(-2.16682 -0.0114571 0)
(-2.166 -0.0126288 0)
(-2.16162 -0.0116929 0)
(-2.15951 -0.0124369 0)
(-2.15453 -0.0130971 0)
(-2.15025 -0.0144151 0)
(-2.14089 -0.0140019 0)
(-2.13792 -0.016005 0)
(-2.12532 -0.0141189 0)
(-2.12321 -0.0158097 0)
(-2.10985 -0.0129576 0)
(-2.10907 -0.0150432 0)
(-2.09614 -0.0127769 0)
(-2.0956 -0.0149089 0)
(-2.08138 -0.0124823 0)
(-2.08068 -0.0144816 0)
(-2.06596 -0.0114699 0)
(-2.06498 -0.0131207 0)
(-2.04971 -0.00980952 0)
(-2.04862 -0.0119061 0)
(-2.0335 -0.00914338 0)
(-2.03276 -0.0113574 0)
(-2.01724 -0.00958007 0)
(-2.01671 -0.0111302 0)
(-2.00309 -0.0096386 0)
(-2.00323 -0.010891 0)
(-1.99386 -0.0100833 0)
(-1.99384 -0.0106802 0)
(-1.98559 -0.00986813 0)
(-1.98576 -0.0105069 0)
(-1.97787 -0.00995035 0)
(-1.97803 -0.0110063 0)
(-1.96694 -0.0117118 0)
(-1.96678 -0.0125009 0)
(-1.95285 -0.0137155 0)
(-1.95206 -0.0133527 0)
(-1.94116 -0.0149322 0)
(-1.9394 -0.013761 0)
(-1.9321 -0.0142174 0)
(-1.93124 -0.0127337 0)
(-1.92464 -0.0142887 0)
(-1.92386 -0.0148109 0)
(-1.9154 -0.0148088 0)
(-1.91417 -0.0164441 0)
(-1.90517 -0.015517 0)
(-1.90252 -0.0170819 0)
(-1.89363 -0.0150382 0)
(-1.89013 -0.0166926 0)
(-1.88125 -0.0145574 0)
(-1.87688 -0.0160281 0)
(-1.8683 -0.0136204 0)
(-1.86376 -0.0148582 0)
(-1.85568 -0.0126075 0)
(-1.85137 -0.0138859 0)
(-1.84392 -0.0119195 0)
(-1.83855 -0.0132338 0)
(-1.83312 -0.0116283 0)
(-1.82479 -0.012563 0)
(-1.8217 -0.0115428 0)
(-1.81099 -0.0122687 0)
(-1.80854 -0.0115513 0)
(-1.79709 -0.0123549 0)
(-1.7941 -0.0116785 0)
(-1.78274 -0.0122085 0)
(-1.77871 -0.0119217 0)
(-1.76803 -0.0126978 0)
(-1.76287 -0.0127309 0)
(-1.75279 -0.013346 0)
(-1.74702 -0.0132779 0)
(-1.73808 -0.0133965 0)
(-1.73231 -0.0131645 0)
(-1.72553 -0.013057 0)
(-1.72076 -0.0125463 0)
(-1.71608 -0.012339 0)
(-1.71227 -0.0119013 0)
(-1.709 -0.0115926 0)
(-1.70584 -0.0106148 0)
(-1.70382 -0.0103373 0)
(-1.70233 -0.00966285 0)
(-1.70156 -0.00921878 0)
(-1.70206 -0.00863962 0)
(-1.70302 -0.0083504 0)
(-1.70426 -0.00819409 0)
(-1.7073 -0.00771926 0)
(-1.70954 -0.00738433 0)
(-1.71473 -0.0069333 0)
(-1.71789 -0.00703409 0)
(-1.72476 -0.00664604 0)
(-1.7289 -0.0066169 0)
(-1.73586 -0.00670581 0)
(-1.74183 -0.00649428 0)
(-1.74726 -0.00731009 0)
(-1.75582 -0.00625013 0)
(-1.7614 -0.00609398 0)
(-1.77266 -0.00512996 0)
(-1.78011 -0.0044004 0)
(-1.79427 -0.00378071 0)
(-1.80437 -0.0050104 0)
(-1.81743 -0.00833637 0)
(-1.82643 -0.0113421 0)
(-1.83256 -0.0144808 0)
(-1.83639 -0.015327 0)
(-1.83204 -0.0178489 0)
(-1.83031 -0.016643 0)
(-1.80032 -0.0156708 0)
(-1.79631 -0.017319 0)
(-1.74844 -0.0116635 0)
(-1.74363 -0.0185322 0)
(-1.68644 -0.0074736 0)
(-1.6821 -0.0139472 0)
(-1.62348 -0.0232666 0)
(-1.60956 -0.0215841 0)
(-1.56389 -0.0234248 0)
(-0.225424 0.181314 0)
(-0.875325 0.217608 0)
(-1.28761 0.224591 0)
(-2.12697 0.229332 0)
(-2.372 0.254612 0)
(-3.25006 0.0760196 0)
(-3.36003 0.0784348 0)
(-4.33025 -0.132383 0)
(-4.33681 -0.0945783 0)
(-5.40161 -0.16558 0)
(-5.35033 -0.149048 0)
(-6.42807 -0.117959 0)
(-6.34786 -0.18705 0)
(-7.29213 -0.109738 0)
(-7.20005 -0.281395 0)
(-8.07699 -0.142219 0)
(-7.96012 -0.298064 0)
(-8.87252 -0.145922 0)
(-8.64573 -0.300032 0)
(-9.64585 -0.271516 0)
(-9.48796 -0.359113 0)
(-10.4879 -0.0213089 0)
(-10.1536 -0.254396 0)
(-11.5432 0.101634 0)
(-11.1492 -0.0344494 0)
(-12.8775 0.323727 0)
(-12.2374 -0.003435 0)
(-14.3211 0.433949 0)
(-13.6498 0.090954 0)
(-16.0712 0.715951 0)
(-15.4631 0.302599 0)
(-18.1904 1.0226 0)
(-17.7019 0.606862 0)
(-20.5994 1.31543 0)
(-20.3421 0.9106 0)
(-23.2943 1.55183 0)
(-23.112 1.14944 0)
(-25.9786 1.72707 0)
(-25.9664 1.42618 0)
(-28.4793 1.77173 0)
(-28.4887 1.58181 0)
(-30.4972 1.46487 0)
(-30.5236 1.36134 0)
(-31.8257 0.998678 0)
(-31.8726 0.812058 0)
(-32.4194 0.424796 0)
(-32.5068 0.239237 0)
(-32.5578 0.0406446 0)
(-32.6406 -0.0899613 0)
(-32.2432 -0.173651 0)
(-32.2507 -0.210437 0)
(-31.2209 -0.206425 0)
(-31.2113 -0.342734 0)
(-29.8016 -0.521289 0)
(-29.7351 -0.397903 0)
(-28.1771 -0.86658 0)
(-28.1258 -0.784115 0)
(-25.822 -1.39416 0)
(-25.5735 -1.11585 0)
(-23.3308 -1.11162 0)
(-23.2561 -0.979708 0)
(-20.9161 -1.32687 0)
(-20.6615 -1.19549 0)
(-18.5431 -1.2399 0)
(-18.3168 -0.863572 0)
(-16.406 -1.06476 0)
(-16.1832 -0.784955 0)
(-14.371 -0.831204 0)
(-14.2998 -0.807116 0)
(-12.5092 -0.787117 0)
(-12.4392 -0.693645 0)
(-10.8709 -0.893701 0)
(-10.6973 -0.649014 0)
(-9.35809 -0.740343 0)
(-9.23016 -0.641617 0)
(-7.95907 -0.686804 0)
(-7.82188 -0.555628 0)
(-6.74369 -0.603758 0)
(-6.59313 -0.489406 0)
(-5.66314 -0.512539 0)
(-5.52625 -0.416848 0)
(-4.74829 -0.427725 0)
(-4.62457 -0.339144 0)
(-3.99395 -0.348657 0)
(-3.87841 -0.271725 0)
(-3.37953 -0.259115 0)
(-3.27319 -0.20536 0)
(-2.87242 -0.201609 0)
(-2.75903 -0.147576 0)
(-2.48407 -0.123224 0)
(-2.37527 -0.0767487 0)
(-2.24839 -0.058849 0)
(-2.14464 -0.00917398 0)
(-2.06155 0.00536484 0)
(-1.96152 0.0459692 0)
(-1.9 0.0483277 0)
(-1.81995 0.0705619 0)
(-1.7738 0.0570599 0)
(-1.72435 0.080724 0)
(-1.70544 0.061928 0)
(-1.67643 0.0921225 0)
(-1.65683 0.0624197 0)
(-1.6418 0.0842589 0)
(-1.62066 0.0603338 0)
(-1.61827 0.0738246 0)
(-1.61235 0.0656773 0)
(-1.61352 0.0719483 0)
(-1.61313 0.0586325 0)
(-1.62429 0.0733145 0)
(-1.63978 0.0590809 0)
(-1.64879 0.078451 0)
(-1.66079 0.0470871 0)
(-1.66724 0.0657003 0)
(-1.68706 0.0410383 0)
(-1.69259 0.060736 0)
(-1.70523 0.0358051 0)
(-1.7128 0.0504978 0)
(-1.71509 0.0268145 0)
(-1.72764 0.0394194 0)
(-1.72635 0.0196276 0)
(-1.74187 0.0306876 0)
(-1.74672 0.0128077 0)
(-1.76271 0.0231691 0)
(-1.77793 0.0107079 0)
(-1.8069 0.0152083 0)
(-1.82891 0.000606799 0)
(-1.86555 0.010721 0)
(-1.89468 0.00876795 0)
(-1.946 0.0149189 0)
(-1.98159 0.00538206 0)
(-2.03735 0.00379853 0)
(-2.07708 -0.006347 0)
(-2.13066 -0.0190701 0)
(-2.17155 -0.0197868 0)
(-2.23681 -0.00823763 0)
(-2.29402 -0.00467033 0)
(-2.36414 -0.00861467 0)
(-2.43969 -0.0101953 0)
(-2.51099 -0.00137105 0)
(-2.60995 -0.00676473 0)
(-2.67818 -0.0209608 0)
(-2.77317 -0.0253263 0)
(-2.8401 -0.0180127 0)
(-2.9301 -0.0047513 0)
(-3.01214 -0.00837234 0)
(-3.0913 0.00463858 0)
(-3.19525 0.00305101 0)
(-3.26362 0.00576754 0)
(-3.37579 -0.00235693 0)
(-3.44381 -0.0227222 0)
(-3.55237 -0.0255255 0)
(-3.6206 -0.00823613 0)
(-3.7401 0.0101448 0)
(-3.81666 0.00790567 0)
(-3.9224 -0.0121279 0)
(-3.98271 -0.0171631 0)
(-4.07249 -0.0201068 0)
(-4.1233 -0.0397644 0)
(-4.19805 -0.0334049 0)
(-4.2465 -0.0224335 0)
(-4.32399 -0.0283153 0)
(-4.37184 -0.0186294 0)
(-4.44708 0.00114723 0)
(-4.49751 0.00385711 0)
(-4.56336 -0.00574089 0)
(-4.59851 -0.017164 0)
(-4.64238 -0.0119882 0)
(-4.66603 -0.00969354 0)
(-4.6962 -0.0174928 0)
(-4.70527 -0.0328887 0)
(-4.71574 -0.0349251 0)
(-4.71912 -0.0280129 0)
(-4.72861 -0.0246708 0)
(-4.73416 -0.0220687 0)
(-4.74002 -0.0250666 0)
(-4.74142 -0.027469 0)
(-4.73813 -0.0274617 0)
(-4.73142 -0.0249073 0)
(-4.72047 -0.0229065 0)
(-4.70458 -0.0249899 0)
(-4.68334 -0.0302449 0)
(-4.65369 -0.0353306 0)
(-4.61747 -0.0364072 0)
(-4.57491 -0.0357809 0)
(-4.52584 -0.0332931 0)
(-4.47234 -0.0313355 0)
(-4.4115 -0.0303722 0)
(-4.34722 -0.0325439 0)
(-4.27531 -0.0327969 0)
(-4.20022 -0.0269175 0)
(-4.12098 -0.0205709 0)
(-4.04139 -0.0108329 0)
(-3.96244 -0.00992753 0)
(-3.8764 -0.0137388 0)
(-3.79356 -0.0215986 0)
(-3.70123 -0.0197956 0)
(-3.61751 -0.0234192 0)
(-3.51491 -0.0230417 0)
(-3.43037 -0.0175092 0)
(-3.32947 -0.0140733 0)
(-3.24736 -0.0063776 0)
(-3.15979 -0.00309098 0)
(-3.08634 -0.00974182 0)
(-2.9945 -0.0164817 0)
(-2.9155 -0.0109704 0)
(-2.81828 -0.0180288 0)
(-2.74012 -0.0111772 0)
(-2.64976 -0.0130773 0)
(-2.57572 -0.0109088 0)
(-2.49245 -0.0055138 0)
(-2.42829 0.00407628 0)
(-2.35751 -0.00241117 0)
(-2.29641 -0.00646206 0)
(-2.21789 -0.0102831 0)
(-2.15645 -0.00914766 0)
(-2.09645 -0.00161608 0)
(-2.04609 -0.0141745 0)
(-1.99018 -0.0207232 0)
(-1.94509 -0.0182772 0)
(-1.89869 -0.0110229 0)
(-1.86567 -0.0020069 0)
(-1.84256 0.00851321 0)
(-1.82464 0.013639 0)
(-1.80861 0.0131492 0)
(-1.79605 0.00627111 0)
(-1.78241 0.00202253 0)
(-1.77075 0.00228825 0)
(-1.76218 0.00589716 0)
(-1.75772 0.00593307 0)
(-1.75655 0.00202307 0)
(-1.75549 -0.00258981 0)
(-1.75462 -0.00365884 0)
(-1.75772 -0.00326402 0)
(-1.76361 -0.00235528 0)
(-1.77267 0.000210693 0)
(-1.78548 0.00207179 0)
(-1.8022 0.00565828 0)
(-1.82354 0.00843507 0)
(-1.85182 0.00856931 0)
(-1.88193 0.00573019 0)
(-1.92029 0.0018913 0)
(-1.95752 0.000981836 0)
(-2.00527 0.00216889 0)
(-2.04782 0.00427096 0)
(-2.10103 0.0046893 0)
(-2.14245 0.00461727 0)
(-2.1935 0.0024733 0)
(-2.22886 0.00358769 0)
(-2.27463 0.00287136 0)
(-2.30627 0.00461139 0)
(-2.34895 0.00575925 0)
(-2.38139 0.00828442 0)
(-2.42548 0.00611441 0)
(-2.45592 0.00397995 0)
(-2.50357 0.00446101 0)
(-2.53615 0.00393353 0)
(-2.58721 -0.000553312 0)
(-2.63 0.00468257 0)
(-2.68933 0.0039842 0)
(-2.72838 0.00447121 0)
(-2.78933 -0.00160675 0)
(-2.81399 -0.000896345 0)
(-2.86793 0.000783528 0)
(-2.887 -0.0029956 0)
(-2.93643 -0.00191851 0)
(-2.95453 -0.00368822 0)
(-3.00125 -0.00205581 0)
(-3.01669 -0.00987538 0)
(-3.05198 -0.015671 0)
(-3.07227 -0.0103449 0)
(-3.10839 -0.010605 0)
(-3.12849 -0.00465295 0)
(-3.16526 0.00324966 0)
(-3.18175 -0.000949822 0)
(-3.2127 0.000680569 0)
(-3.22335 0.00184731 0)
(-3.24297 -0.00457663 0)
(-3.24819 -0.00659682 0)
(-3.25703 -0.00414881 0)
(-3.25935 -0.00143066 0)
(-3.26137 0.00175111 0)
(-3.2596 0.00191736 0)
(-3.25442 -0.000245438 0)
(-3.24992 -0.00555981 0)
(-3.23926 -0.00824842 0)
(-3.22928 -0.00812307 0)
(-3.2196 -0.00492781 0)
(-3.21102 -0.00269829 0)
(-3.20241 -0.00175639 0)
(-3.19152 -0.00299959 0)
(-3.17951 -0.00477167 0)
(-3.16074 -0.00597185 0)
(-3.14326 -0.00641502 0)
(-3.11789 -0.00291452 0)
(-3.09926 -0.00232196 0)
(-3.07208 0.00032898 0)
(-3.05191 -0.00156139 0)
(-3.02304 -0.000568526 0)
(-2.99424 -0.00380256 0)
(-2.96133 -0.00691454 0)
(-2.924 -0.00480808 0)
(-2.88485 -0.00868442 0)
(-2.84956 -0.00371367 0)
(-2.80929 -0.00597399 0)
(-2.78126 -0.00156374 0)
(-2.7408 -0.00576628 0)
(-2.71607 -0.00252179 0)
(-2.67719 -0.00605635 0)
(-2.6567 -0.00409647 0)
(-2.61528 -0.00694592 0)
(-2.59573 -0.00452991 0)
(-2.54695 -0.00893907 0)
(-2.52674 -0.00772804 0)
(-2.47167 -0.0114069 0)
(-2.44874 -0.00942234 0)
(-2.39522 -0.00742514 0)
(-2.37906 -0.00765119 0)
(-2.3312 -0.00306984 0)
(-2.32603 -0.00252338 0)
(-2.28272 -0.000660414 0)
(-2.27948 -0.00254295 0)
(-2.23907 -0.00504179 0)
(-2.23389 -0.00927751 0)
(-2.19517 -0.0112569 0)
(-2.18996 -0.0130897 0)
(-2.15602 -0.00821434 0)
(-2.15328 -0.00579956 0)
(-2.12389 -0.00706271 0)
(-2.12232 -0.00849811 0)
(-2.09141 -0.00846769 0)
(-2.08901 -0.0106371 0)
(-2.06198 -0.00766365 0)
(-2.05763 -0.00598112 0)
(-2.0385 -0.00656594 0)
(-2.0337 -0.00950593 0)
(-2.02107 -0.0109617 0)
(-2.0162 -0.0126702 0)
(-2.00939 -0.012944 0)
(-2.00668 -0.0129186 0)
(-2.0056 -0.0115037 0)
(-2.00687 -0.0108919 0)
(-2.01078 -0.00880987 0)
(-2.015 -0.00806873 0)
(-2.02182 -0.00779159 0)
(-2.02771 -0.00914383 0)
(-2.03639 -0.00960737 0)
(-2.04346 -0.010397 0)
(-2.05578 -0.00828125 0)
(-2.06409 -0.00796019 0)
(-2.08132 -0.00569023 0)
(-2.08879 -0.00717596 0)
(-2.10991 -0.00753019 0)
(-2.11431 -0.0101625 0)
(-2.13963 -0.0120681 0)
(-2.1424 -0.0137159 0)
(-2.16959 -0.0138024 0)
(-2.17213 -0.0134094 0)
(-2.20135 -0.014084 0)
(-2.20418 -0.0155247 0)
(-2.23433 -0.0163118 0)
(-2.23887 -0.0167242 0)
(-2.27023 -0.0184923 0)
(-2.27234 -0.0176708 0)
(-2.30176 -0.019656 0)
(-2.30473 -0.018389 0)
(-2.33291 -0.0207134 0)
(-2.33602 -0.0168846 0)
(-2.36265 -0.0200598 0)
(-2.3645 -0.0153546 0)
(-2.38833 -0.0193347 0)
(-2.38956 -0.0181267 0)
(-2.41048 -0.0234511 0)
(-2.41161 -0.0174594 0)
(-2.4291 -0.0222103 0)
(-2.43096 -0.0165479 0)
(-2.45009 -0.0216233 0)
(-2.45246 -0.0160239 0)
(-2.47409 -0.020749 0)
(-2.47605 -0.0184058 0)
(-2.49566 -0.0249271 0)
(-2.49741 -0.0187116 0)
(-2.51024 -0.0230249 0)
(-2.51162 -0.0167948 0)
(-2.52058 -0.0210408 0)
(-2.52118 -0.0183964 0)
(-2.52865 -0.0231071 0)
(-2.52938 -0.0217667 0)
(-2.53513 -0.025317 0)
(-2.5334 -0.022205 0)
(-2.53579 -0.024074 0)
(-2.53508 -0.0226711 0)
(-2.53421 -0.0235162 0)
(-2.53126 -0.0243854 0)
(-2.52969 -0.0248836 0)
(-2.51957 -0.0217713 0)
(-2.51813 -0.0250657 0)
(-2.50498 -0.0206483 0)
(-2.50433 -0.0231545 0)
(-2.48888 -0.018503 0)
(-2.48757 -0.0226219 0)
(-2.47223 -0.0180241 0)
(-2.47077 -0.0228937 0)
(-2.4558 -0.0181669 0)
(-2.45454 -0.0226269 0)
(-2.44031 -0.0188222 0)
(-2.439 -0.0222842 0)
(-2.42416 -0.0185742 0)
(-2.42332 -0.0214305 0)
(-2.40873 -0.0179811 0)
(-2.40774 -0.0212117 0)
(-2.39167 -0.0176728 0)
(-2.3913 -0.0198404 0)
(-2.37808 -0.0168734 0)
(-2.3779 -0.0192439 0)
(-2.3696 -0.0180665 0)
(-2.36975 -0.0183567 0)
(-2.36206 -0.0172696 0)
(-2.36201 -0.0183042 0)
(-2.35198 -0.0174552 0)
(-2.35179 -0.0195514 0)
(-2.33917 -0.0184191 0)
(-2.33898 -0.0191424 0)
(-2.32772 -0.0184621 0)
(-2.32642 -0.0170392 0)
(-2.31914 -0.0161147 0)
(-2.3181 -0.0139721 0)
(-2.31204 -0.013143 0)
(-2.3119 -0.0129511 0)
(-2.30471 -0.0125245 0)
(-2.30445 -0.0123763 0)
(-2.29714 -0.0109726 0)
(-2.29611 -0.0120839 0)
(-2.28825 -0.00967325 0)
(-2.2865 -0.0105051 0)
(-2.27869 -0.00811969 0)
(-2.27622 -0.00910558 0)
(-2.26868 -0.00659941 0)
(-2.26571 -0.00722103 0)
(-2.25829 -0.00479795 0)
(-2.25526 -0.00516798 0)
(-2.24779 -0.0029653 0)
(-2.2445 -0.00401249 0)
(-2.23851 -0.00144808 0)
(-2.23219 -0.0032863 0)
(-2.22845 -0.00124892 0)
(-2.21808 -0.00183981 0)
(-2.21575 -0.00142641 0)
(-2.20395 -0.00103281 0)
(-2.20132 -0.000853725 0)
(-2.18944 0.000238477 0)
(-2.18588 0.000511036 0)
(-2.17429 0.00155601 0)
(-2.1694 0.00173725 0)
(-2.15872 0.00253586 0)
(-2.15245 0.00233133 0)
(-2.14275 0.00308659 0)
(-2.13615 0.00312118 0)
(-2.12807 0.00362155 0)
(-2.12205 0.00364594 0)
(-2.11615 0.00387022 0)
(-2.11117 0.0038686 0)
(-2.10686 0.004271 0)
(-2.10292 0.00393733 0)
(-2.1001 0.00413033 0)
(-2.09693 0.00465219 0)
(-2.09492 0.00478108 0)
(-2.09324 0.00510924 0)
(-2.09171 0.00507115 0)
(-2.09172 0.00488296 0)
(-2.09264 0.00494269 0)
(-2.09359 0.00494136 0)
(-2.09667 0.0049682 0)
(-2.09814 0.0048884 0)
(-2.10335 0.00481978 0)
(-2.10548 0.00471053 0)
(-2.11207 0.00434732 0)
(-2.11542 0.00480241 0)
(-2.12058 0.00346557 0)
(-2.12633 0.00494423 0)
(-2.12934 0.00394694 0)
(-2.13788 0.00512168 0)
(-2.14096 0.00570882 0)
(-2.1497 0.00770536 0)
(-2.15285 0.00871187 0)
(-2.16115 0.00868102 0)
(-2.16303 0.00852259 0)
(-2.16633 0.00454256 0)
(-2.16693 0.004296 0)
(-2.16249 -0.00347376 0)
(-2.16198 -0.00426417 0)
(-2.14698 -0.0161123 0)
(-2.14625 -0.0224121 0)
(-2.11499 -0.0254385 0)
(-2.1135 -0.0312503 0)
(-2.06544 -0.030653 0)
(-2.0624 -0.0345993 0)
(-1.99626 -0.0313815 0)
(-1.9832 -0.0387505 0)
(-1.93499 -0.0240328 0)
(-1.89908 -0.0312113 0)
(-0.251481 0.370967 0)
(-0.683151 0.495022 0)
(-1.42565 0.494767 0)
(-1.68898 0.549322 0)
(-2.52512 0.451681 0)
(-2.78619 0.441142 0)
(-3.78574 0.435273 0)
(-4.03284 0.354723 0)
(-5.24218 0.439328 0)
(-5.36986 0.345625 0)
(-6.55473 0.37976 0)
(-6.56701 0.241481 0)
(-7.61732 0.257904 0)
(-7.55659 0.140499 0)
(-8.58927 0.189098 0)
(-8.49618 0.106454 0)
(-9.53589 0.144727 0)
(-9.45445 0.0338236 0)
(-10.5315 0.15066 0)
(-10.4592 0.06585 0)
(-11.6194 0.1541 0)
(-11.5013 -0.170364 0)
(-12.9787 0.37814 0)
(-12.8453 0.242724 0)
(-14.5569 0.69505 0)
(-14.2532 0.262981 0)
(-16.3027 0.912098 0)
(-15.988 0.528971 0)
(-18.3937 1.32998 0)
(-18.0699 0.882217 0)
(-20.796 1.7884 0)
(-20.5011 1.41049 0)
(-23.2797 2.18341 0)
(-23.176 1.96904 0)
(-25.8399 2.53878 0)
(-25.7964 2.35732 0)
(-28.2736 2.71109 0)
(-28.1636 2.62587 0)
(-30.2186 2.68201 0)
(-30.2283 2.59768 0)
(-31.7392 2.35758 0)
(-31.7718 2.26144 0)
(-32.7602 1.72056 0)
(-32.8683 1.50173 0)
(-33.2908 0.869403 0)
(-33.4242 0.645332 0)
(-33.5733 0.172167 0)
(-33.5678 0.0833649 0)
(-33.484 -0.436698 0)
(-33.4821 -0.520879 0)
(-32.8169 -1.05751 0)
(-32.7842 -1.02512 0)
(-31.4809 -1.75031 0)
(-31.2409 -1.59574 0)
(-29.8949 -1.97851 0)
(-29.7424 -1.76582 0)
(-27.6376 -3.3903 0)
(-27.1625 -2.92301 0)
(-24.9271 -3.72517 0)
(-24.499 -2.18541 0)
(-22.5035 -3.47819 0)
(-21.9431 -2.70185 0)
(-19.8351 -3.63379 0)
(-19.3553 -2.25158 0)
(-17.6232 -2.84402 0)
(-17.2225 -2.26395 0)
(-15.4229 -2.68261 0)
(-15.0669 -1.69563 0)
(-13.3667 -2.69366 0)
(-13.0982 -1.5819 0)
(-11.4665 -2.27689 0)
(-11.2092 -1.70422 0)
(-9.78408 -1.95795 0)
(-9.65345 -1.38379 0)
(-8.22423 -1.92581 0)
(-8.13648 -1.27081 0)
(-6.90117 -1.57733 0)
(-6.82711 -1.09282 0)
(-5.72978 -1.34012 0)
(-5.68775 -0.920733 0)
(-4.73561 -1.10144 0)
(-4.71968 -0.767767 0)
(-3.92831 -0.855471 0)
(-3.91754 -0.635933 0)
(-3.28 -0.649964 0)
(-3.2739 -0.476544 0)
(-2.74698 -0.480899 0)
(-2.73975 -0.362726 0)
(-2.35107 -0.325572 0)
(-2.32087 -0.211034 0)
(-2.15954 -0.150715 0)
(-2.04035 -0.0641023 0)
(-2.00303 -0.0466925 0)
(-1.82316 0.0386125 0)
(-1.8204 0.0368663 0)
(-1.68688 0.11816 0)
(-1.67041 0.0937443 0)
(-1.58885 0.149921 0)
(-1.57969 0.129145 0)
(-1.54196 0.174904 0)
(-1.54029 0.146131 0)
(-1.51935 0.170988 0)
(-1.50663 0.138861 0)
(-1.49053 0.16173 0)
(-1.49382 0.137791 0)
(-1.4865 0.154012 0)
(-1.49514 0.138277 0)
(-1.49803 0.152876 0)
(-1.50537 0.13593 0)
(-1.51685 0.155874 0)
(-1.55087 0.12098 0)
(-1.55314 0.14552 0)
(-1.57301 0.111654 0)
(-1.58722 0.125708 0)
(-1.60046 0.100447 0)
(-1.61023 0.110106 0)
(-1.61351 0.0847136 0)
(-1.62324 0.0881579 0)
(-1.62313 0.0624074 0)
(-1.63291 0.0674874 0)
(-1.63078 0.0438775 0)
(-1.6558 0.0481372 0)
(-1.65056 0.0249932 0)
(-1.68813 0.0349128 0)
(-1.69377 0.0169105 0)
(-1.74808 0.0270002 0)
(-1.74896 0.00948823 0)
(-1.81465 0.0297279 0)
(-1.81924 0.0217855 0)
(-1.91475 0.0204844 0)
(-1.91652 0.00386112 0)
(-2.00871 -0.0137815 0)
(-2.00618 -0.0381252 0)
(-2.10524 -0.0353975 0)
(-2.11038 -0.017855 0)
(-2.22497 -0.00084104 0)
(-2.27089 -0.021517 0)
(-2.31448 -0.0135574 0)
(-2.45517 -0.000197721 0)
(-2.46465 -0.00674944 0)
(-2.64161 -0.0368736 0)
(-2.64246 -0.0496666 0)
(-2.78865 -0.0218657 0)
(-2.81451 -0.0144899 0)
(-2.9054 0.00786218 0)
(-3.02673 0.00830915 0)
(-3.03521 0.0123555 0)
(-3.2402 0.0255884 0)
(-3.24401 0.0114798 0)
(-3.41857 -0.0278493 0)
(-3.41933 -0.0411806 0)
(-3.59637 0.00706714 0)
(-3.59895 0.0255457 0)
(-3.80034 0.016073 0)
(-3.8005 -0.00739542 0)
(-3.95779 -0.0335937 0)
(-3.95916 -0.0247381 0)
(-4.08472 -0.0668586 0)
(-4.08225 -0.0665386 0)
(-4.20815 -0.0316374 0)
(-4.21463 -0.0494624 0)
(-4.33901 -0.0181559 0)
(-4.34002 0.00405195 0)
(-4.46682 0.011665 0)
(-4.469 0.00374874 0)
(-4.55772 -0.0251101 0)
(-4.55977 -0.0162411 0)
(-4.62477 -0.0146709 0)
(-4.62949 -0.025681 0)
(-4.65545 -0.0548103 0)
(-4.65554 -0.0601724 0)
(-4.66801 -0.0480321 0)
(-4.66794 -0.0424501 0)
(-4.69176 -0.0374508 0)
(-4.69355 -0.044772 0)
(-4.6963 -0.0512617 0)
(-4.69282 -0.0504342 0)
(-4.68727 -0.045875 0)
(-4.67771 -0.0432464 0)
(-4.66633 -0.0463087 0)
(-4.64559 -0.0548761 0)
(-4.62492 -0.0634467 0)
(-4.58252 -0.0647249 0)
(-4.55664 -0.064723 0)
(-4.49338 -0.0626117 0)
(-4.46291 -0.0594719 0)
(-4.37815 -0.0611256 0)
(-4.34519 -0.0609291 0)
(-4.23743 -0.0637322 0)
(-4.20283 -0.0556708 0)
(-4.0817 -0.0454879 0)
(-4.05074 -0.033371 0)
(-3.92152 -0.0307193 0)
(-3.89561 -0.0318773 0)
(-3.7575 -0.0472327 0)
(-3.72471 -0.045581 0)
(-3.57455 -0.0590533 0)
(-3.53965 -0.0480851 0)
(-3.39316 -0.0535312 0)
(-3.34819 -0.0391875 0)
(-3.22082 -0.0282642 0)
(-3.17599 -0.0149742 0)
(-3.06365 -0.0352608 0)
(-3.0148 -0.0367802 0)
(-2.88469 -0.0491684 0)
(-2.83914 -0.0415251 0)
(-2.70877 -0.0420426 0)
(-2.66806 -0.0321688 0)
(-2.54745 -0.0380905 0)
(-2.50655 -0.023773 0)
(-2.40865 -0.00243316 0)
(-2.37471 -0.0114734 0)
(-2.26941 -0.0371409 0)
(-2.2315 -0.0325428 0)
(-2.1363 -0.0256209 0)
(-2.10544 -0.0158827 0)
(-2.02693 -0.0378282 0)
(-2.00015 -0.0439031 0)
(-1.92468 -0.0468259 0)
(-1.9001 -0.0343633 0)
(-1.85265 -0.0108593 0)
(-1.83626 0.00375644 0)
(-1.80759 0.0197457 0)
(-1.79962 0.0238266 0)
(-1.78357 0.00957212 0)
(-1.77746 -0.00014692 0)
(-1.7539 -0.00199267 0)
(-1.7502 0.001858 0)
(-1.73936 0.00392204 0)
(-1.74014 -0.00181308 0)
(-1.73759 -0.0106051 0)
(-1.7375 -0.0128249 0)
(-1.73798 -0.0115431 0)
(-1.74509 -0.00883811 0)
(-1.75103 -0.00355225 0)
(-1.76584 0.00298481 0)
(-1.77801 0.0113389 0)
(-1.80685 0.0137687 0)
(-1.82286 0.0170435 0)
(-1.86931 0.00754063 0)
(-1.88343 0.00590738 0)
(-1.94825 0.00188719 0)
(-1.96185 0.00635931 0)
(-2.04236 0.00875715 0)
(-2.05236 0.0115329 0)
(-2.13895 0.011754 0)