/*--------------------------------*- C++ -*----------------------------------*\
| =========                 |                                                 |
| \\      /  F ield         | OpenFOAM: The Open Source CFD Toolbox           |
|  \\    /   O peration     | Version:  v1812                                 |
|   \\  /    A nd           | Web:      www.OpenFOAM.com                      |
|    \\/     M anipulation  |                                                 |
\*---------------------------------------------------------------------------*/
FoamFile
{
    version     2.0;
    format      ascii;
    class       volScalarField;
    location    "0.8";
    object      p;
}
// * * * * * * * * * * * * * * * * * * * * * * * * * * * * * * * * * * * * * //

dimensions      [1 -1 -2 0 0 0 0];


internalField   nonuniform List<scalar> 
20400
(
96926.1
96926.1
96926.1
96925.9
96925.5
96924.7
96923.7
96922.4
96921.2
96919.6
96918.4
96917.1
96916
96914.9
96913.9
96913
96911.9
96910.8
96909.4
96907.7
96905.7
96903.2
96900.8
96897.2
96893.3
96888.4
96882.3
96875.1
96867.1
96858.6
96850.2
96842.1
96835.3
96830.5
96828.1
96830.1
96836.5
96847.8
96865.5
96889
96918.9
96954.4
96994.1
97036.9
97082.4
97127.9
97172.8
97214.4
97253.5
97281.5
97309.9
97333.4
97353
97367.7
97375.5
97380.5
97381
97379.1
97375.7
97371.3
97366.5
97362.1
97358
97354.4
97350.4
97345.4
97337.7
97327.5
97311.8
97290.2
97265.4
97247.2
97215.6
97186.4
97150.4
97114.5
97074.1
97037.7
97004.6
96976.2
96953.9
96938.9
96929
96930.1
96940.3
96958.1
96983.5
97021.7
97060.6
97107.6
97156.9
97208.3
97259.8
97310.9
97357.9
97404.4
97439.1
97475.9
97508.3
97537.1
97561.7
97582.3
97598
97608.1
97614.3
97616.5
97614.9
97610.4
97603.7
97594.9
97584.9
97573.7
97561.9
97549.4
97537.5
97525.3
97513.8
97502.7
97492.3
97482.5
97473.2
97464.6
97456.5
97449.2
97442.5
97436.8
97431.9
97428
97425.5
97423.7
97423.4
97424.3
97426
97428.7
97432.2
97435.8
97440.4
97444.4
97448.7
97452.6
97456
97458.8
97460.6
97462.1
97462.2
97461
97459.7
97456.5
97453.4
97448.7
97444.1
97438.9
97434.6
97429.8
97425.2
97421.3
97418.6
97416.8
97417.3
97419.6
97424.4
97431.2
97440.7
97453
97468
97484.3
97502.9
97522.3
97542.7
97563.1
97583.5
97602.8
97621.6
97639.3
97655.7
97670.4
97683.5
97695.1
97705.1
97713.7
97721.1
97727.3
97732.6
97736.8
97740.8
97743.6
97746.5
97748.8
97751
97752.8
97754.6
97756.4
97758.2
97760.2
97762.3
97764.6
97767.1
97769.8
97772.8
97776
97779.5
97783.4
97787.6
97792.3
97797.4
97803
97809.1
97815.6
97822.6
97830.1
97837.8
97846.1
97854.4
97863
97871.7
97880.3
97888.9
97897.3
97905.4
97913.1
97920.4
97926.8
97932.8
97937.1
97941
97943
97943.9
97943
97940.7
97937.2
97932.2
97926.4
97920
97913.6
97906.9
97899.9
97893
97887.4
97883
97880.7
97881.3
97884.4
97891.1
97899.5
97910.3
97927.7
97945.6
97964.5
97986.1
98008.9
98033.8
98059.8
98086.9
98114.7
98142.9
98171.3
98199.7
98227.7
98255.1
98281.9
98307.5
98332.2
98355.9
98378.5
98399.6
98419.2
98437.2
98453.8
98468.9
98482.7
98495.3
98506.8
98517
98526.8
98535.2
98543.5
98551.1
98558.4
98565.6
98572.6
98579.7
98586.9
98594.3
98601.9
98609.8
98618.1
98626.8
98635.8
98645.2
98655
98665.2
98675.7
98686.7
98698
98709.6
98721.6
98733.8
98746.4
98759.3
98772.4
98785.8
98799.3
98813.1
98827
98841.2
98855.4
98869.8
98884.2
98898.8
98913.4
98928.1
98942.8
98957.6
98972.4
98987.2
99002.1
99016.9
99031.8
99046.7
99061.6
99076.5
99091.4
99106.2
99121.1
99136
99150.9
99165.8
99180.7
99195.6
99210.5
99225.4
99240.2
99255.1
99270
99284.9
99299.7
99314.6
99329.4
99344.3
99359.1
99373.9
99388.8
99403.6
99418.4
99433.2
99447.9
99462.7
99477.5
99492.2
99506.9
99521.6
99536.3
99551
99565.7
99580.3
99594.9
99609.5
99624.1
99638.6
99653.2
99667.7
99682.2
99696.6
99711.1
99725.5
99739.8
99754.2
99768.5
99782.8
99797.1
99811.3
99825.5
99839.7
99853.8
99867.9
99882
99896
99910
99924
99937.9
99951.7
99965.6
99979.4
99993.1
100007
100021
100034
100048
100061
100075
100088
100102
100115
100128
100142
100155
100168
100181
100194
100207
100220
100233
100246
100259
100272
100285
100297
100310
100322
100335
100347
100360
100372
100385
100397
100409
100421
100434
100446
100458
100470
100482
100494
100505
100517
100529
100541
100552
100564
100575
100587
100598
100610
100621
100633
100644
100655
100666
100678
100689
100700
100711
100722
100733
100744
100755
100766
100776
100787
100798
100809
100819
100830
100841
100851
100862
100873
100883
100894
100904
100915
100925
100936
100946
100956
100967
100977
100988
100998
101008
101019
101029
101039
101050
101060
101070
101081
101091
101101
101112
101122
101132
101142
101153
101163
101174
101184
101194
101205
101215
101225
101236
101246
101257
101267
101278
101288
101299
101309
101321
96926
96926
96925.9
96925.7
96925.1
96924.3
96923.3
96922.1
96920.8
96919.6
96918.5
96917.5
96916.5
96915.5
96914.5
96913.5
96912.4
96911.2
96909.9
96908.4
96906.7
96904.8
96901.7
96898.4
96894
96888.5
96882.4
96875.3
96867.4
96858.7
96849.5
96840.8
96832.7
96827.4
96823.5
96824.9
96831.2
96842.5
96860.9
96884.5
96914.2
96948.4
96987.1
97028.3
97072.3
97116.3
97160.6
97202.7
97241.6
97281.6
97311.4
97336.1
97353.6
97367.5
97375.8
97381.1
97381.6
97379.3
97375.8
97371.2
97366.3
97361.9
97358
97354.8
97351
97345.6
97336.8
97327
97316.6
97302.9
97285.2
97251.7
97221
97183.6
97145.1
97103.3
97064
97025.3
96990.9
96961.4
96939.3
96925.4
96919.1
96926
96935
96951
96973.1
97003.5
97038.9
97080
97124.8
97174.6
97227.2
97279.6
97332.9
97380.9
97432.8
97474.8
97510.9
97540.5
97564.1
97582
97596
97605.5
97611.5
97613.7
97612.4
97608.2
97601.7
97593.1
97583.6
97572.5
97561.9
97548.7
97536.6
97524.6
97513.4
97502.7
97492.4
97482.6
97473.4
97464.7
97456.7
97449.3
97442.6
97436.7
97431.8
97427.7
97425
97423.1
97422.6
97423.5
97425.3
97428
97431.6
97435.7
97440.2
97444.7
97449.1
97453.2
97456.8
97459.8
97461.9
97463.2
97463.6
97462.8
97461.4
97458.6
97455.5
97451.2
97446.6
97441.2
97435.1
97429.3
97424.2
97419.3
97416.3
97413.3
97413
97414.6
97419
97426.1
97436.2
97448.8
97464.2
97481.6
97500.9
97521.2
97542.3
97563.6
97584.4
97604.6
97623.3
97640.8
97656.7
97671.2
97684.1
97695.5
97705.5
97714.2
97721.6
97727.8
97733.2
97737.4
97741.3
97744.3
97747
97749.3
97751.4
97753.2
97755
97756.7
97758.5
97760.4
97762.5
97764.8
97767.2
97769.9
97772.9
97776
97779.5
97783.2
97787.4
97791.9
97797
97802.5
97808.6
97815.2
97822.2
97829.7
97837.5
97845.8
97854.3
97863
97871.7
97880.5
97889.2
97897.7
97906
97913.9
97921.3
97928
97934
97938.8
97942.6
97944.9
97946
97945.4
97943.3
97939.9
97935.3
97929.6
97923.1
97916.1
97909.1
97903.6
97898.5
97895
97892.4
97891.3
97892.3
97894.8
97899.2
97906.3
97915.4
97926.2
97941.8
97960.8
97982.7
98006.2
98031.6
98058.2
98085.8
98114
98142.7
98171.4
98200
98228.3
98256.1
98283.1
98309.3
98334.2
98357.8
98380
98400.9
98420.3
98438.3
98454.9
98470
98483.9
98496.3
98507.7
98518
98527.2
98535.7
98544
98551.6
98558.8
98565.9
98572.8
98579.8
98586.9
98594.2
98601.7
98609.6
98617.9
98626.5
98635.4
98644.8
98654.6
98664.8
98675.3
98686.3
98697.5
98709.2
98721.1
98733.4
98746
98758.9
98772.1
98785.4
98799.1
98812.8
98826.8
98841
98855.2
98869.6
98884.1
98898.6
98913.3
98928
98942.7
98957.5
98972.3
98987.1
99002
99016.8
99031.7
99046.6
99061.5
99076.4
99091.3
99106.2
99121.1
99136
99150.9
99165.7
99180.6
99195.5
99210.4
99225.3
99240.2
99255
99269.9
99284.8
99299.6
99314.5
99329.3
99344.2
99359
99373.8
99388.7
99403.5
99418.3
99433.1
99447.8
99462.6
99477.4
99492.1
99506.8
99521.5
99536.2
99550.9
99565.6
99580.2
99594.8
99609.4
99624
99638.5
99653.1
99667.6
99682.1
99696.5
99711
99725.4
99739.7
99754.1
99768.4
99782.7
99797
99811.2
99825.4
99839.6
99853.7
99867.8
99881.9
99895.9
99909.9
99923.8
99937.8
99951.6
99965.5
99979.3
99993
100007
100020
100034
100048
100061
100075
100088
100102
100115
100128
100142
100155
100168
100181
100194
100207
100220
100233
100246
100259
100272
100284
100297
100310
100322
100335
100347
100360
100372
100385
100397
100409
100421
100433
100446
100458
100470
100482
100493
100505
100517
100529
100541
100552
100564
100575
100587
100598
100610
100621
100633
100644
100655
100666
100678
100689
100700
100711
100722
100733
100744
100755
100766
100776
100787
100798
100809
100819
100830
100841
100851
100862
100873
100883
100894
100904
100915
100925
100936
100946
100956
100967
100977
100988
100998
101008
101019
101029
101039
101050
101060
101070
101081
101091
101101
101111
101122
101132
101142
101153
101163
101173
101184
101194
101205
101215
101225
101236
101246
101257
101267
101278
101288
101299
101309
101321
96926
96926.2
96926
96925.8
96925.2
96924.4
96923.4
96922.3
96921
96919.8
96918.1
96916.9
96915.8
96914.9
96914
96913.2
96912.3
96911.3
96910.1
96908.7
96907
96904.9
96902.5
96899.5
96895.9
96891.1
96884.9
96877.2
96868.2
96857.9
96847
96836.4
96825.8
96819
96813
96813.2
96817.7
96827.3
96844.3
96867
96897
96931.7
96972.4
97015.8
97062.2
97108.6
97154.4
97198.1
97237.8
97273.4
97304.3
97330.1
97349.4
97363.4
97371.6
97376.5
97378
97378
97374.8
97372.4
97365.3
97362
97359.1
97356
97353.3
97349.7
97344.4
97335.8
97319.8
97300.1
97276.2
97249.8
97216.6
97177.6
97135
97091
97049.6
97012.4
96980.9
96954.1
96934.2
96919.6
96908.9
96904.4
96916.2
96934.7
96964.2
96998.5
97039.3
97085.1
97134.9
97186.1
97238.2
97289.4
97339
97385.6
97428.5
97466
97500.4
97529.7
97554.7
97574.7
97590.3
97600.3
97606.7
97609
97607.7
97603.5
97597.1
97588.6
97579
97568
97556.8
97544.8
97533.4
97521.8
97509.8
97498.7
97488.6
97479.3
97470.5
97462.1
97454.2
97447.1
97440.6
97434.9
97430.1
97426.3
97423.7
97422.1
97421.9
97422.9
97424.9
97427.8
97431.5
97435.7
97440.2
97444.9
97449.4
97453.6
97457.4
97460.4
97462.7
97464.1
97464.6
97463.7
97462.2
97459.4
97456
97451.6
97446.8
97441.3
97435.7
97429.8
97424.4
97419
97415.5
97412.3
97411.6
97413
97417.2
97423.9
97433.7
97445.9
97460.9
97477.9
97496.8
97517
97538
97559.3
97580.4
97600.7
97620.1
97638.2
97654.7
97669.6
97682.9
97694.6
97704.8
97713.6
97721.1
97727.4
97732.7
97737.1
97740.8
97744
97746.7
97749.2
97751.1
97752.9
97754.5
97756.3
97758.1
97760.1
97762.2
97764.6
97767.1
97769.8
97772.7
97775.9
97779.4
97783.1
97787.3
97791.8
97796.9
97802.4
97808.5
97815
97822.1
97829.6
97837.5
97845.7
97854.2
97863
97871.8
97880.6
97889.3
97897.9
97906.2
97914.2
97921.7
97928.6
97934.7
97939.7
97943.6
97945.9
97947.1
97946.4
97944.2
97940.7
97935.7
97929.7
97922.5
97914.7
97906.1
97897.8
97889.7
97883.2
97878.3
97875
97875.1
97877.9
97883.8
97893.5
97907.2
97922.6
97939.7
97958.9
97980.5
98003.8
98028.8
98055.1
98082.5
98110.5
98139
98167.8
98196.5
98224.9
98252.9
98280.1
98306.4
98331.7
98355.8
98378.6
98399.8
98419.6
98437.9
98454.6
98469.9
98483.8
98496.5
98507.9
98518.3
98528
98536.2
98544.2
98551.6
98558.9
98565.9
98572.8
98579.7
98586.8
98594
98601.6
98609.5
98617.7
98626.3
98635.3
98644.7
98654.5
98664.7
98675.2
98686.2
98697.5
98709.1
98721.1
98733.4
98746
98758.9
98772
98785.4
98799
98812.8
98826.8
98840.9
98855.2
98869.6
98884.1
98898.6
98913.3
98928
98942.7
98957.5
98972.3
98987.1
99002
99016.8
99031.7
99046.6
99061.5
99076.4
99091.3
99106.2
99121.1
99136
99150.9
99165.7
99180.6
99195.5
99210.4
99225.3
99240.2
99255
99269.9
99284.8
99299.6
99314.5
99329.3
99344.2
99359
99373.8
99388.7
99403.5
99418.3
99433.1
99447.8
99462.6
99477.4
99492.1
99506.8
99521.5
99536.2
99550.9
99565.5
99580.2
99594.8
99609.4
99624
99638.5
99653
99667.5
99682
99696.5
99710.9
99725.3
99739.7
99754.1
99768.4
99782.7
99796.9
99811.2
99825.4
99839.5
99853.7
99867.8
99881.8
99895.9
99909.9
99923.8
99937.7
99951.6
99965.4
99979.2
99993
100007
100020
100034
100048
100061
100075
100088
100102
100115
100128
100142
100155
100168
100181
100194
100207
100220
100233
100246
100259
100272
100284
100297
100310
100322
100335
100347
100360
100372
100385
100397
100409
100421
100433
100445
100458
100470
100481
100493
100505
100517
100529
100541
100552
100564
100575
100587
100598
100610
100621
100633
100644
100655
100666
100677
100689
100700
100711
100722
100733
100744
100755
100765
100776
100787
100798
100809
100819
100830
100841
100851
100862
100873
100883
100894
100904
100915
100925
100936
100946
100956
100967
100977
100988
100998
101008
101019
101029
101039
101050
101060
101070
101080
101091
101101
101111
101122
101132
101142
101153
101163
101173
101184
101194
101205
101215
101225
101236
101246
101257
101267
101278
101288
101299
101309
101321
96926.1
96926.3
96926.1
96925.8
96924.9
96923.9
96922.5
96921.2
96919.9
96918.9
96918.3
96917.7
96916.8
96916
96915.1
96914.2
96913.2
96912.2
96911.1
96909.9
96908.4
96906.7
96904.2
96901.2
96897.1
96891.8
96884.9
96876
96865
96852.7
96839.1
96825.9
96812.7
96803.1
96794.4
96792
96795.6
96806.8
96824.7
96848.1
96877.2
96911
96950.1
96992.7
97038.5
97085.2
97132.6
97177.9
97221.8
97261.9
97296.2
97324
97345.6
97361.3
97371
97376.1
97376.9
97373.7
97371.1
97367.3
97368.3
97358.7
97358.4
97357.6
97355.4
97352
97345.7
97336.5
97323.4
97304.2
97276.7
97240.6
97199.6
97155.3
97110.1
97065
97021.4
96980.2
96943.1
96911.1
96888.3
96872.6
96869.4
96875.1
96885.4
96904.4
96929.6
96962.5
97002.2
97047.9
97098.3
97151.7
97206.8
97261.9
97315.8
97366.8
97414.6
97456.7
97492.5
97522.8
97547
97566.2
97580.8
97590.8
97597.2
97599.9
97598.9
97595
97588.7
97580.5
97570.7
97560.1
97548.8
97536.6
97524.8
97513.5
97502.6
97492.4
97482.3
97472.8
97464.2
97456.5
97449.3
97442.8
97436.8
97431.7
97427.3
97423.9
97421.7
97420.5
97420.7
97422
97424.3
97427.5
97431.4
97435.8
97440.5
97445.3
97450
97454.4
97458.3
97461.5
97463.9
97465.5
97466.1
97465.3
97463.7
97460.9
97457.3
97452.6
97447.2
97441
97434.4
97427.5
97421
97414.7
97410.1
97406.3
97404.7
97405.7
97409.5
97416.1
97425.8
97438.5
97453.9
97471.8
97491.6
97512.7
97534.7
97556.7
97578.3
97599
97618.5
97636.6
97653.1
97668
97681.2
97692.9
97703
97711.8
97719.3
97725.7
97731.2
97735.7
97739.5
97742.6
97745.5
97747.9
97749.9
97751.7
97753.4
97755.4
97757.2
97759.1
97761.3
97763.7
97766.2
97769.1
97772.2
97775.4
97778.9
97782.7
97786.9
97791.6
97796.7
97802.2
97808.3
97814.9
97821.9
97829.4
97837.3
97845.6
97854.1
97863
97872
97880.9
97889.8
97898.5
97907
97915.2
97922.9
97930
97936.3
97941.5
97945.6
97948.1
97949.3
97948.4
97946
97942
97936.5
97929.8
97922.2
97913.9
97905.4
97897.4
97889.8
97883.5
97879.1
97875.5
97875
97877.3
97882.1
97890
97901
97914.8
97931.8
97951.5
97973.8
97997.8
98023.6
98050.6
98078.5
98107.1
98136.1
98165.1
98194
98222.7
98250.8
98278.2
98304.7
98330.1
98354.2
98377.1
98398.4
98418.3
98436.7
98453.6
98469
98483
98495.7
98507.3
98517.8
98527.3
98535.9
98544.2
98551.3
98558.3
98565.2
98572.2
98579.2
98586.2
98593.5
98601.1
98609
98617.2
98625.8
98634.9
98644.3
98654.1
98664.3
98674.9
98685.8
98697.1
98708.8
98720.8
98733.1
98745.7
98758.6
98771.8
98785.2
98798.8
98812.7
98826.7
98840.8
98855.1
98869.5
98884
98898.6
98913.2
98927.9
98942.7
98957.5
98972.3
98987.1
99002
99016.8
99031.7
99046.6
99061.5
99076.4
99091.3
99106.2
99121
99135.9
99150.8
99165.7
99180.6
99195.5
99210.4
99225.2
99240.1
99255
99269.9
99284.7
99299.6
99314.4
99329.3
99344.1
99359
99373.8
99388.6
99403.4
99418.2
99433
99447.8
99462.5
99477.3
99492
99506.7
99521.5
99536.1
99550.8
99565.5
99580.1
99594.7
99609.3
99623.9
99638.4
99653
99667.5
99682
99696.4
99710.9
99725.3
99739.6
99754
99768.3
99782.6
99796.9
99811.1
99825.3
99839.5
99853.6
99867.7
99881.8
99895.8
99909.8
99923.7
99937.6
99951.5
99965.4
99979.2
99992.9
100007
100020
100034
100048
100061
100075
100088
100101
100115
100128
100141
100155
100168
100181
100194
100207
100220
100233
100246
100259
100272
100284
100297
100310
100322
100335
100347
100360
100372
100384
100397
100409
100421
100433
100445
100457
100469
100481
100493
100505
100517
100529
100540
100552
100564
100575
100587
100598
100610
100621
100632
100644
100655
100666
100677
100689
100700
100711
100722
100733
100744
100755
100765
100776
100787
100798
100809
100819
100830
100841
100851
100862
100872
100883
100894
100904
100915
100925
100935
100946
100956
100967
100977
100987
100998
101008
101018
101029
101039
101049
101060
101070
101080
101091
101101
101111
101122
101132
101142
101153
101163
101173
101184
101194
101205
101215
101225
101236
101246
101257
101267
101278
101288
101299
101310
101321
96926.4
96926.7
96926.4
96926
96924.9
96924
96922.6
96921.5
96920.1
96918.9
96917.5
96916.5
96915.6
96915
96914.4
96913.8
96913.2
96912.3
96911.4
96910.3
96909
96907.3
96905.2
96902.3
96898.1
96892.3
96883.9
96873.3
96859.9
96844.4
96826.8
96809.2
96791.9
96778.1
96768.9
96764.6
96769.2
96775.7
96788.9
96809.6
96839.7
96876.2
96918.8
96964.7
97013.6
97063.2
97112.5
97160.1
97203.9
97243.5
97278.1
97307.6
97331.1
97348.8
97361.2
97368.2
97371.7
97371.5
97368.9
97365.7
97360.3
97362.2
97357.4
97357.3
97356.3
97354
97348.8
97338.5
97321.2
97295.9
97262.3
97222.5
97177.2
97129
97080.1
97032.4
96988.2
96949.3
96916.3
96888.6
96868.8
96854.1
96848.1
96852.4
96864.2
96885.5
96913.8
96949.6
96991.2
97037.9
97088.8
97142.4
97197.3
97251.8
97304.6
97354
97399.1
97439.5
97475
97505.5
97530.8
97551.2
97566.8
97577.3
97584
97586.8
97585.9
97582.1
97575.9
97567.7
97558.2
97547.5
97536
97524.3
97512.7
97501.3
97490.3
97480.3
97470.9
97462.4
97454.4
97447
97440.5
97435
97430.1
97426
97422.8
97420.5
97419.1
97418.8
97419.7
97421.5
97424.1
97427.6
97431.6
97436.1
97440.8
97445.6
97450.3
97454.8
97458.7
97462.1
97464.6
97466.2
97466.8
97466
97464.3
97461.4
97457.6
97452.7
97447.1
97440.8
97434
97426.8
97419.8
97413
97407.3
97403.1
97400.2
97400.3
97403.2
97409
97418.1
97430.3
97445.4
97463.2
97483
97504.5
97526.9
97549.5
97571.8
97593.3
97613.5
97632.2
97649.3
97664.7
97678.3
97690.3
97700.6
97709.5
97717
97723.4
97728.7
97733.1
97736.8
97740
97742.8
97745.3
97747.4
97749.3
97751.3
97753.2
97755.2
97757.3
97759.6
97762.2
97764.8
97767.7
97770.8
97774.2
97778
97782.1
97786.4
97791.2
97796.4
97802.1
97808.3
97815
97822.1
97829.6
97837.5
97845.7
97854.1
97862.9
97871.9
97881
97889.9
97898.6
97907.1
97915.4
97923.1
97930.3
97936.7
97942
97946.1
97948.6
97949.6
97948.4
97945.7
97941.1
97935.1
97927.6
97919.1
97909.8
97899.9
97890.3
97881
97873.2
97867.7
97863.6
97863.2
97866.1
97871.7
97880.7
97892.8
97907.7
97925.3
97945.2
97967.3
97991.4
98017.1
98044.1
98072
98100.6
98129.6
98158.8
98187.9
98216.8
98245.2
98273
98299.9
98325.8
98350.4
98373.7
98395.5
98415.7
98434.4
98451.5
98467
98481.1
98493.9
98505.5
98516
98525.6
98534.3
98542.5
98550.1
98557.6
98564.2
98571
98578.1
98585.2
98592.6
98600.3
98608.3
98616.6
98625.4
98634.4
98643.9
98653.8
98664
98674.6
98685.6
98697
98708.7
98720.7
98733
98745.7
98758.6
98771.8
98785.2
98798.8
98812.6
98826.7
98840.8
98855.1
98869.5
98884.1
98898.6
98913.3
98928
98942.7
98957.5
98972.3
98987.2
99002
99016.9
99031.7
99046.6
99061.5
99076.4
99091.3
99106.2
99121.1
99135.9
99150.8
99165.7
99180.6
99195.5
99210.4
99225.2
99240.1
99255
99269.8
99284.7
99299.6
99314.4
99329.3
99344.1
99358.9
99373.8
99388.6
99403.4
99418.2
99433
99447.8
99462.5
99477.3
99492
99506.7
99521.4
99536.1
99550.8
99565.4
99580.1
99594.7
99609.3
99623.8
99638.4
99652.9
99667.4
99681.9
99696.4
99710.8
99725.2
99739.6
99753.9
99768.3
99782.5
99796.8
99811
99825.2
99839.4
99853.5
99867.6
99881.7
99895.7
99909.7
99923.7
99937.6
99951.5
99965.3
99979.1
99992.9
100007
100020
100034
100047
100061
100075
100088
100101
100115
100128
100141
100155
100168
100181
100194
100207
100220
100233
100246
100259
100271
100284
100297
100310
100322
100335
100347
100360
100372
100384
100397
100409
100421
100433
100445
100457
100469
100481
100493
100505
100517
100529
100540
100552
100564
100575
100587
100598
100610
100621
100632
100644
100655
100666
100677
100688
100700
100711
100722
100733
100744
100754
100765
100776
100787
100798
100809
100819
100830
100841
100851
100862
100872
100883
100893
100904
100914
100925
100935
100946
100956
100967
100977
100987
100998
101008
101018
101029
101039
101049
101060
101070
101080
101091
101101
101111
101122
101132
101142
101153
101163
101173
101184
101194
101204
101215
101225
101236
101246
101257
101267
101278
101288
101299
101310
101321
96926.9
96927.1
96926.7
96926.2
96924.9
96923.7
96922.1
96920.7
96919.3
96918.2
96917.4
96916.8
96916.2
96915.6
96915.1
96914.5
96913.9
96913.2
96912.4
96911.4
96910.2
96908.6
96906.3
96903
96897.9
96890.5
96880.4
96866.9
96849.7
96829.9
96807.8
96786.1
96765.5
96748.2
96736
96727.4
96726.9
96737.4
96753.2
96778.1
96808.1
96844.4
96886
96931.8
96981
97031.7
97082.9
97132.4
97179.7
97222.8
97261.2
97293.4
97319.9
97340.1
97354.4
97362.9
97366.6
97366.1
97363.3
97360.6
97358.7
97355.4
97355.1
97354.5
97354.5
97352.1
97346.3
97334.4
97314.3
97284.2
97244.9
97198.7
97148.7
97097.1
97045.5
96995.9
96949.3
96907.6
96872.1
96843.9
96825.2
96812.7
96809.8
96816.1
96827.9
96848.6
96876.2
96911.3
96953.3
97001
97053.5
97109.2
97166.7
97224.1
97279.7
97332.1
97379.9
97422.3
97458.5
97489.2
97514
97533.7
97548.8
97559.2
97565.9
97568.9
97568.1
97564.4
97558.2
97550.2
97540.6
97529.9
97518.6
97507
97495.5
97484.3
97473.8
97464
97455.1
97447.3
97440.4
97434.3
97428.9
97424.3
97420.7
97418.1
97416.3
97415.3
97415.2
97416.1
97417.9
97420.3
97423.6
97427.4
97431.7
97436.2
97440.9
97445.6
97450.3
97454.8
97458.6
97462
97464.5
97466.2
97466.9
97466.2
97464.5
97461.6
97457.6
97452.4
97446.3
97439.2
97431.5
97423.2
97415
97407.1
97399.9
97394.8
97390.7
97389.9
97392.4
97397.7
97406.7
97419.2
97434.9
97453.5
97474.3
97496.7
97520
97543.4
97566.3
97588.2
97608.8
97627.8
97645
97660.5
97674.2
97686.3
97696.7
97705.7
97713.4
97719.9
97725.3
97729.9
97733.6
97736.7
97739.5
97741.8
97743.8
97745.8
97747.8
97749.9
97752.1
97754.4
97757
97759.6
97762.5
97765.5
97768.9
97772.5
97776.1
97780.2
97784.8
97790
97795.5
97801.4
97807.8
97814.7
97822
97829.6
97837.5
97845.7
97854.2
97862.9
97871.9
97880.9
97889.8
97898.5
97906.9
97915.1
97922.8
97929.9
97936.2
97941.5
97945.5
97947.9
97948.7
97947.2
97944.3
97939.5
97933.2
97925.4
97916.3
97906.5
97896.3
97886.5
97877.2
97869.1
97863.3
97858.6
97857.2
97859.1
97863.6
97871.5
97882.8
97897.5
97915.2
97935.7
97958.5
97983.2
98009.6
98037.1
98065.5
98094.5
98123.8
98153.2
98182.4
98211.4
98240
98267.9
98295
98321
98345.9
98369.3
98391.4
98411.8
98430.7
98448
98463.8
98478.1
98491
98502.7
98513.2
98522.8
98531.7
98539.9
98547.6
98555
98562.4
98569.5
98576.3
98583.5
98591.2
98599
98607.2
98615.7
98624.6
98633.8
98643.4
98653.3
98663.6
98674.3
98685.3
98696.7
98708.5
98720.5
98732.9
98745.6
98758.5
98771.7
98785.2
98798.8
98812.7
98826.7
98840.9
98855.2
98869.6
98884.1
98898.7
98913.4
98928.1
98942.8
98957.6
98972.4
98987.2
99002.1
99016.9
99031.8
99046.7
99061.5
99076.4
99091.3
99106.2
99121.1
99136
99150.8
99165.7
99180.6
99195.5
99210.3
99225.2
99240.1
99255
99269.8
99284.7
99299.5
99314.4
99329.2
99344.1
99358.9
99373.7
99388.5
99403.4
99418.1
99432.9
99447.7
99462.5
99477.2
99492
99506.7
99521.4
99536.1
99550.7
99565.4
99580
99594.6
99609.2
99623.8
99638.4
99652.9
99667.4
99681.9
99696.3
99710.7
99725.2
99739.5
99753.9
99768.2
99782.5
99796.7
99811
99825.2
99839.3
99853.5
99867.6
99881.6
99895.7
99909.6
99923.6
99937.5
99951.4
99965.2
99979
99992.8
100007
100020
100034
100047
100061
100074
100088
100101
100115
100128
100141
100155
100168
100181
100194
100207
100220
100233
100246
100259
100271
100284
100297
100309
100322
100335
100347
100360
100372
100384
100397
100409
100421
100433
100445
100457
100469
100481
100493
100505
100517
100529
100540
100552
100564
100575
100587
100598
100610
100621
100632
100644
100655
100666
100677
100688
100699
100711
100722
100733
100743
100754
100765
100776
100787
100798
100808
100819
100830
100841
100851
100862
100872
100883
100893
100904
100914
100925
100935
100946
100956
100967
100977
100987
100998
101008
101018
101029
101039
101049
101060
101070
101080
101091
101101
101111
101122
101132
101142
101153
101163
101173
101184
101194
101204
101215
101225
101236
101246
101257
101267
101278
101288
101299
101310
101321
96927.7
96927.7
96927.2
96926.6
96925.3
96924
96922.2
96920.8
96919.3
96918.2
96917.1
96916.4
96915.8
96915.3
96914.9
96914.5
96914.1
96913.6
96913
96912.2
96911.2
96909.7
96907.3
96903.4
96897.5
96888.8
96875.6
96858.4
96836.7
96812.2
96785.1
96758.3
96733
96710.8
96695.5
96684.2
96681.8
96689.7
96703.6
96728.7
96760.6
96800
96844.7
96893.5
96945.4
96998.7
97052.4
97104.7
97154.2
97199.6
97240
97274.6
97303.1
97325.3
97341.8
97352.5
97359
97361.2
97360.2
97357.5
97354.7
97353.8
97353.5
97352.5
97351.9
97348.6
97341.1
97325.9
97300.7
97265.2
97221
97171.1
97117.7
97063.2
97009.7
96959.9
96914.8
96876
96843.6
96817.8
96800.8
96788.9
96786.3
96793.2
96805.9
96828
96856.8
96892.8
96935
96982.6
97034.6
97089.8
97146.6
97203.3
97258.1
97309.6
97356.6
97398.5
97434.8
97465.6
97491
97511.2
97526.6
97537.2
97543.8
97546.6
97545.7
97541.7
97535.5
97527.3
97517.7
97507.1
97495.9
97484.6
97473.5
97462.9
97453
97443.8
97435.7
97428.6
97422.5
97417.5
97413.7
97410.7
97408.6
97407.4
97407.2
97408
97409.5
97411.9
97414.8
97418.3
97422.3
97426.6
97431.2
97435.8
97440.5
97445.2
97449.7
97454.1
97457.9
97461.2
97463.7
97465.4
97466.2
97465.7
97463.8
97461
97456.9
97451.7
97445.5
97438.2
97430.2
97421.4
97412.3
97403.6
97395.3
97388.9
97383.8
97381.5
97382.8
97387.2
97395.6
97407.4
97422.8
97441.4
97462.5
97485.5
97509.7
97534
97557.9
97580.7
97602
97621.5
97639.2
97655.1
97669.1
97681.4
97692.1
97701.2
97709
97715.5
97721
97725.5
97729.3
97732.5
97735.2
97737.6
97739.8
97741.8
97743.8
97745.9
97748.1
97750.5
97753.1
97755.9
97758.9
97762.3
97765.8
97769.6
97773.6
97778.1
97782.6
97787.6
97793.3
97799.6
97806.4
97813.5
97821.1
97829
97837.2
97845.6
97854.1
97862.8
97871.5
97880.6
97889.7
97898.3
97906.5
97914.4
97921.9
97928.9
97935
97940.1
97943.9
97946.1
97946.7
97944.9
97941.7
97936.4
97929.5
97921
97911.3
97900.7
97889.4
97878.3
97867.9
97858.6
97852
97847
97845.5
97847.7
97852.6
97861.2
97873
97888
97906
97926.7
97949.7
97974.6
98001.1
98028.8
98057.3
98086.3
98115.6
98145.1
98174.4
98203.6
98232.3
98260.5
98287.8
98314.2
98339.4
98363.3
98385.7
98406.5
98425.7
98443.2
98459.2
98473.6
98486.7
98498.5
98509.1
98518.9
98527.8
98536.2
98544.1
98551.8
98559.1
98566.6
98574.2
98581.4
98589
98597.2
98605.6
98614.4
98623.5
98632.9
98642.7
98652.8
98663.2
98674
98685.1
98696.6
98708.4
98720.5
98732.9
98745.6
98758.6
98771.8
98785.3
98798.9
98812.8
98826.8
98841
98855.3
98869.7
98884.3
98898.9
98913.5
98928.2
98942.9
98957.7
98972.5
98987.3
99002.2
99017
99031.9
99046.7
99061.6
99076.5
99091.4
99106.2
99121.1
99136
99150.9
99165.7
99180.6
99195.5
99210.4
99225.2
99240.1
99255
99269.8
99284.7
99299.5
99314.4
99329.2
99344.1
99358.9
99373.7
99388.5
99403.3
99418.1
99432.9
99447.7
99462.5
99477.2
99491.9
99506.7
99521.4
99536
99550.7
99565.4
99580
99594.6
99609.2
99623.8
99638.3
99652.8
99667.3
99681.8
99696.3
99710.7
99725.1
99739.5
99753.8
99768.1
99782.4
99796.7
99810.9
99825.1
99839.3
99853.4
99867.5
99881.6
99895.6
99909.6
99923.6
99937.5
99951.3
99965.2
99979
99992.7
100006
100020
100034
100047
100061
100074
100088
100101
100115
100128
100141
100154
100168
100181
100194
100207
100220
100233
100246
100259
100271
100284
100297
100309
100322
100335
100347
100359
100372
100384
100397
100409
100421
100433
100445
100457
100469
100481
100493
100505
100517
100529
100540
100552
100563
100575
100587
100598
100609
100621
100632
100644
100655
100666
100677
100688
100699
100710
100721
100732
100743
100754
100765
100776
100787
100798
100808
100819
100830
100840
100851
100862
100872
100883
100893
100904
100914
100925
100935
100946
100956
100966
100977
100987
100998
101008
101018
101029
101039
101049
101060
101070
101080
101091
101101
101111
101122
101132
101142
101153
101163
101173
101184
101194
101204
101215
101225
101236
101246
101257
101267
101278
101288
101299
101310
101321
96928.8
96928.8
96928
96927.6
96925.6
96924.4
96922.5
96921
96919.5
96918.3
96917.3
96916.6
96916.2
96915.8
96915.6
96915.3
96915.1
96914.7
96914.4
96913.9
96913
96911.5
96909
96904.5
96897.1
96885.9
96869.9
96849.1
96822.5
96793.2
96761.2
96729.7
96700.1
96673.7
96655.2
96641.8
96639.5
96649.4
96664.8
96691.5
96723.6
96763.1
96807.7
96856.7
96909.3
96964
97019.7
97074.5
97127
97175.6
97219.3
97257.1
97288.6
97313.7
97332.4
97345.7
97353.4
97357
97356.5
97354.5
97352.1
97350.9
97350.6
97349.6
97347.8
97343
97332.9
97314.2
97284.9
97244.8
97196.7
97143
97086.6
97030
96975.2
96924.5
96878.8
96839.9
96807.8
96782.8
96766.5
96755.3
96753.4
96760.7
96773.4
96794.7
96823.1
96858.5
96900.9
96948.9
97002
97058.6
97116.9
97175.3
97231.8
97284.8
97332.8
97375.1
97411.3
97441.6
97466.5
97486
97500.7
97511
97517.2
97519.6
97518.3
97514.1
97507.5
97499.1
97489.3
97478.5
97467.4
97456.3
97445.5
97435.3
97426.1
97417.9
97410.8
97405.1
97400.6
97397.3
97395.1
97393.9
97393.6
97394.3
97395.9
97398.3
97401.5
97405.5
97409.8
97414.6
97419.5
97424.6
97429.7
97434.7
97439.6
97444.3
97448.7
97453
97456.8
97460.2
97462.5
97464.3
97465.2
97464.8
97463
97460.2
97456
97450.6
97443.9
97435.9
97426.9
97417.2
97407
97397.1
97387.7
97380.1
97374.4
97371.2
97371.8
97376
97384.2
97396.2
97412
97431.1
97452.9
97476.6
97501.3
97526.2
97550.5
97573.7
97595.3
97615.2
97633.1
97649.1
97663.3
97675.7
97686.5
97695.8
97703.7
97710.4
97715.9
97720.6
97724.4
97727.7
97730.4
97732.8
97735
97737
97739.2
97741.4
97743.8
97746.3
97749
97751.8
97754.8
97758
97761.5
97765.4
97769.7
97774.3
97779.3
97784.8
97790.4
97796.6
97803.6
97811.1
97819.1
97827.4
97836
97844.7
97853.5
97862.3
97871.2
97880
97889
97897.8
97905.9
97913.5
97920.7
97927.4
97933.2
97938.1
97941.5
97943.5
97943.7
97941.7
97938.2
97932.7
97925.5
97916.7
97906.4
97895.2
97883.4
97871.7
97860.8
97851.1
97843.9
97838.3
97836.1
97837.7
97842.2
97850.5
97862.3
97877.5
97895.9
97917
97940.6
97966
97993
98021
98049.8
98079.1
98108.5
98137.9
98167.2
98196.3
98225
98253.1
98280.5
98307
98332.4
98356.4
98379
98400
98419.3
98437.1
98453.2
98467.8
98481.1
98493
98503.8
98513.7
98522.8
98531.4
98539.5
98547.2
98555.1
98562.7
98570.6
98578.6
98586.4
98594.8
98603.5
98612.6
98622
98631.7
98641.7
98652
98662.6
98673.6
98684.8
98696.4
98708.3
98720.4
98732.9
98745.7
98758.7
98772
98785.4
98799.1
98813
98827.1
98841.2
98855.5
98870
98884.5
98899.1
98913.7
98928.4
98943.1
98957.9
98972.7
98987.5
99002.3
99017.1
99032
99046.8
99061.7
99076.5