/*--------------------------------*- C++ -*----------------------------------*\
| =========                 |                                                 |
| \\      /  F ield         | OpenFOAM: The Open Source CFD Toolbox           |
|  \\    /   O peration     | Version:  v1812                                 |
|   \\  /    A nd           | Web:      www.OpenFOAM.com                      |
|    \\/     M anipulation  |                                                 |
\*---------------------------------------------------------------------------*/
FoamFile
{
    version     2.0;
    format      ascii;
    class       surfaceScalarField;
    location    "0.8";
    object      phi;
}
// * * * * * * * * * * * * * * * * * * * * * * * * * * * * * * * * * * * * * //

dimensions      [1 0 -1 0 0 0 0];
oriented        oriented;


internalField   nonuniform List<scalar> 
40240
(
2.95425e-05
5.10716e-06
0.000155612
-9.13648e-05
0.000412179
-0.00022176
0.000790024
-0.000342932
0.00120967
-0.000384628
0.00162093
-0.000376169
0.00193489
-0.000278809
0.00215155
-0.000181481
0.00220778
-2.1003e-05
0.00218541
5.76069e-05
0.00205093
0.000169768
0.00188413
0.000202121
0.0017005
0.000219003
0.0015453
0.000190614
0.00142815
0.000152624
0.00135986
0.000103809
0.00133688
5.85668e-05
0.00134516
2.73287e-05
0.00136192
1.89554e-05
0.00136112
3.64699e-05
0.00129004
0.000106963
0.00114298
0.000183008
0.00100472
0.000174318
0.000752976
0.000287971
0.000368116
0.000421206
-0.0001398
0.000544322
-0.000900804
0.000797688
-0.00196509
0.00110123
-0.00338794
0.00146022
-0.00519297
0.00184276
-0.00740346
0.00224887
-0.00998638
0.00262158
-0.0128809
0.00293421
-0.0159231
0.00308225
-0.0189879
0.00310603
-0.0218724
0.00292666
-0.0244047
0.00257548
-0.0264477
0.00208724
-0.0278188
0.00141699
-0.0284207
0.000648205
-0.0284173
4.52891e-05
-0.0275836
-0.000785823
-0.0261529
-0.00138102
-0.024041
-0.00206289
-0.0214066
-0.00258494
-0.0183135
-0.00304413
-0.014846
-0.0034202
-0.0111879
-0.0036107
-0.00767344
-0.00347038
-0.00452725
-0.00310284
-0.00126031
-0.00322697
0.00202528
-0.00324765
0.00510298
-0.00304446
0.00764692
-0.00251539
0.00958699
-0.00191597
0.0109392
-0.00133236
0.0118035
-0.000847904
0.0122267
-0.00040912
0.0123411
-0.000100521
0.0123035
5.20086e-05
0.0122186
0.000101416
0.0122513
-1.32101e-05
0.0125585
-0.000285277
0.0131962
-0.000614009
0.0141258
-0.000904801
0.0151769
-0.00102616
0.0162335
-0.00103298
0.0169069
-0.000650416
0.0169177
8.26801e-06
0.0158243
0.00111641
0.0138258
0.00202231
0.0122269
0.00162439
0.00973068
0.00252168
0.00634862
0.00340668
0.00254832
0.00382388
-0.00157325
0.00414281
-0.00628466
0.00473354
-0.0112467
0.00498348
-0.0161758
0.00495158
-0.0208393
0.00468598
-0.0251198
0.00430517
-0.0289182
0.00382312
-0.0320995
0.00320906
-0.0345351
0.00246556
-0.0362202
0.00171703
-0.037163
0.000976329
-0.0373696
0.00024382
-0.0368365
-0.000496586
-0.0356098
-0.00118727
-0.0337377
-0.0018336
-0.0313227
-0.00237542
-0.0284585
-0.00282561
-0.0252522
-0.00316762
-0.0217353
-0.00347951
-0.0180718
-0.00362626
-0.0144065
-0.00362989
-0.0113051
-0.00306546
-0.00779749
-0.00347306
-0.00419528
-0.00356802
-0.000684792
-0.00347738
0.00294168
-0.00359297
0.00653078
-0.00355648
0.00981686
-0.00325308
0.0127972
-0.00294703
0.0154394
-0.00260746
0.017707
-0.00223174
0.0195991
-0.00185489
0.021066
-0.0014267
0.0220994
-0.000990535
0.0227326
-0.000588191
0.0229654
-0.000184467
0.0229446
7.05755e-05
0.022583
0.000414982
0.0218554
0.000782884
0.0209282
0.000985057
0.019841
0.00114596
0.0186462
0.00125397
0.0173946
0.0013104
0.0161215
0.00133139
0.0148497
0.00132917
0.0135908
0.00131523
0.0123566
0.00128957
0.0111582
0.00125305
0.0100025
0.00120984
0.00889563
0.00116073
0.00784257
0.00110698
0.00685499
0.00104153
0.00594455
0.000964927
0.00512606
0.000873234
0.00441453
0.00076681
0.00381879
0.000651475
0.00334462
0.000530318
0.00299475
0.000406321
0.0027622
0.000289142
0.00264079
0.000177863
0.00261569
8.13334e-05
0.00266036
1.08889e-05
0.00276342
-4.81231e-05
0.00289996
-8.26511e-05
0.00304594
-9.31466e-05
0.00318724
-8.93987e-05
0.00329695
-5.89491e-05
0.00336279
-1.56965e-05
0.00336341
4.87739e-05
0.00328266
0.000129791
0.00312203
0.000209226
0.00282535
0.000345066
0.00242884
0.000444641
0.00188019
0.000596641
0.00121655
0.000711593
0.000433719
0.000830689
-0.000402863
0.000884773
-0.00130541
0.000950802
-0.00229247
0.00103595
-0.00332819
0.00108478
-0.00437315
0.00109502
-0.00537737
0.00105456
-0.00631598
0.000990163
-0.00713173
0.000868392
-0.00778983
0.000711422
-0.00825124
0.000516325
-0.00849395
0.000298207
-0.00851317
7.67751e-05
-0.0082743
-0.000181539
-0.00779721
-0.000418328
-0.00708052
-0.000657487
-0.00615961
-0.00086146
-0.00506503
-0.00103503
-0.0038403
-0.00116568
-0.00252961
-0.00125229
-0.00118629
-0.00128603
0.000142745
-0.00127328
0.00149137
-0.0012935
0.00280396
-0.00125863
0.00402857
-0.00117193
0.00514111
-0.00106088
0.00612714
-0.000935219
0.00697831
-0.00080097
0.00769412
-0.000666054
0.00827388
-0.000530066
0.00872638
-0.000402814
0.0090519
-0.000275318
0.00926559
-0.000163174
0.00936697
-4.99824e-05
0.00938893
2.98702e-05
0.00933203
0.000109741
0.00921451
0.000171085
0.00902789
0.000241244
0.00877462
0.000308803
0.00846909
0.000362115
0.00812738
0.000399331
0.00776193
0.000424122
0.00738232
0.000439326
0.00699564
0.0004474
0.00660582
0.000451506
0.00621659
0.000451816
0.00583134
0.000448677
0.00545241
0.000443132
0.00508104
0.00043626
0.00471937
0.000427197
0.00437116
0.000414294
0.00404086
0.000396892
0.00373383
0.000374088
0.0034553
0.000346009
0.00320987
0.000313292
0.00300153
0.000276574
0.00283185
0.000238296
0.00270246
0.00019832
0.0026121
0.000159704
0.00256062
0.000121107
0.002547
8.37159e-05
0.00256664
5.07834e-05
0.00262287
1.48601e-05
0.00271221
-1.77467e-05
0.00282925
-4.47054e-05
0.00297171
-6.93128e-05
0.00313835
-9.25828e-05
0.00332745
-0.000114056
0.00353851
-0.00013504
0.0037671
-0.000151463
0.00400686
-0.000161711
0.00424436
-0.000158401
0.00445531
-0.000131144
0.00462667
-9.11407e-05
0.00471011
-2.39067e-06
0.00470889
8.13953e-05
0.00458141
0.000208424
0.00431239
0.000349826
0.00387504
0.000517928
0.00325455
0.000700979
0.00244052
0.000894367
0.0014462
0.00107462
0.000355615
0.0011709
-0.00074778
0.00118376
-0.00199856
0.00133116
-0.00345059
0.00153265
-0.00499025
0.00162085
-0.00653713
0.00162895
-0.00803319
0.00157855
-0.00945487
0.00150573
-0.0107113
0.00134224
-0.0117509
0.00112656
-0.0125584
0.000896822
-0.0131113
0.000645245
-0.0134247
0.000419638
-0.0135229
0.000195948
-0.013517
9.08186e-05
-0.0133302
-9.02521e-05
-0.0129608
-0.000271652
-0.0124149
-0.000446829
-0.0117115
-0.00060326
-0.0108678
-0.000742372
-0.00990311
-0.000862477
-0.00883678
-0.00096321
-0.00768822
-0.00104464
-0.00647661
-0.00110694
-0.00522058
-0.00115067
-0.00394005
-0.00117462
-0.00265562
-0.00117801
-0.00139338
-0.00115536
-0.000175108
-0.00111125
0.00101723
-0.0010844
0.00216478
-0.00103921
0.00323171
-0.00095827
0.0042005
-0.000859966
0.00506045
-0.000751038
0.00580522
-0.000635841
0.00643362
-0.000519511
0.00694501
-0.00040252
0.00734947
-0.000295753
0.00764335
-0.00018514
0.00784256
-9.0716e-05
0.00794369
7.60627e-06
0.0079702
8.21767e-05
0.00791458
0.000164946
0.0077895
0.000234335
0.00761296
0.000286261
0.00739582
0.0003271
0.0071453
0.000360906
0.00687142
0.000384716
0.00658206
0.000400688
0.00628466
0.000409269
0.00598613
0.000410976
0.00569196
0.000407215
0.00540628
0.000399332
0.0051322
0.000388347
0.00487202
0.000375062
0.00462739
0.000360129
0.00439949
0.000343999
0.0041891
0.00032709
0.0039967
0.000309697
0.0038226
0.000291994
0.00366676
0.000274321
0.00352896
0.000256839
0.00340918
0.000239359
0.00330728
0.000221995
0.00322278
0.000205088
0.00315469
0.000189158
0.00310238
0.000173821
0.00306494
0.00015939
0.00304085
0.000146475
0.003031
0.000132645
0.00303185
0.000122603
0.00304376
0.00011186
0.00306504
0.000102869
0.00309488
9.47248e-05
0.00313205
8.77338e-05
0.00317544
8.18531e-05
0.00322411
7.68863e-05
0.00327718
7.27879e-05
0.00333387
6.9458e-05
0.00339349
6.68094e-05
0.00345542
6.4754e-05
0.00351913
6.32236e-05
0.00358415
6.2151e-05
0.00365008
6.14569e-05
0.00371662
6.10639e-05
0.00378351
6.09096e-05
0.00385056
6.09438e-05
0.0039176
6.11288e-05
0.00398449
6.14402e-05
0.00405113
6.18526e-05
0.00411743
6.23296e-05
0.00418336
6.28413e-05
0.00424888
6.3369e-05
0.00431398
6.39006e-05
0.00437867
6.44241e-05
0.00444293
6.49291e-05
0.0045068
6.54075e-05
0.00457029
6.58531e-05
0.00463343
6.62642e-05
0.00469624
6.66382e-05
0.00475875
6.69748e-05
0.00482099
6.72744e-05
0.00488298
6.75378e-05
0.00494474
6.7766e-05
0.0050063
6.79604e-05
0.00506767
6.81226e-05
0.00512889
6.82547e-05
0.00518996
6.83585e-05
0.00525089
6.84363e-05
0.00531171
6.84899e-05
0.00537243
6.85211e-05
0.00543304
6.85314e-05
0.00549357
6.85224e-05
0.00555401
6.84951e-05
0.00561438
6.84507e-05
0.00567468
6.83896e-05
0.00573491
6.83128e-05
0.00579508
6.82204e-05
0.00585519
6.81129e-05
0.00591525
6.79902e-05
0.00597526
6.78524e-05
0.00603522
6.76992e-05
0.00609514
6.75308e-05
0.00615503
6.7347e-05
0.00621488
6.7148e-05
0.0062747
6.69338e-05
0.00633449
6.67049e-05
0.00639426
6.64616e-05
0.00645402
6.62046e-05
0.00651375
6.59346e-05
0.00657347
6.56526e-05
0.00663317
6.53593e-05
0.00669286
6.50556e-05
0.00675252
6.47423e-05
0.00681217
6.44202e-05
0.00687179
6.40899e-05
0.00693139
6.37519e-05
0.00699095
6.34068e-05
0.00705048
6.30553e-05
0.00710997
6.26977e-05
0.00716942
6.23347e-05
0.00722881
6.19669e-05
0.00728815
6.15948e-05
0.00734742
6.12189e-05
0.00740661
6.08397e-05
0.00746573
6.04576e-05
0.00752476
6.00729e-05
0.00758369
5.96858e-05
0.00764252
5.92967e-05
0.00770123
5.89058e-05
0.00775982
5.85134e-05
0.00781828
5.81196e-05
0.00787659
5.77246e-05
0.00793475
5.73286e-05
0.00799276
5.69317e-05
0.00805059
5.65337e-05
0.00810824
5.61348e-05
0.00816571
5.57351e-05
0.00822298
5.53343e-05
0.00828004
5.49328e-05
0.00833689
5.45306e-05
0.0083935
5.41274e-05
0.00844989
5.37237e-05
0.00850603
5.33195e-05
0.00856192
5.29143e-05
0.00861754
5.25085e-05
0.0086729
5.21019e-05
0.00872797
5.16943e-05
0.00878276
5.12863e-05
0.00883725
5.08776e-05
0.00889143
5.04684e-05
0.0089453
5.00589e-05
0.00899884
4.96487e-05
0.00905204
4.92381e-05
0.00910491
4.88269e-05
0.00915743
4.84148e-05
0.00920958
4.80024e-05
0.00926137
4.75894e-05
0.00931278
4.71757e-05
0.00936381
4.6762e-05
0.00941445
4.63477e-05
0.00946468
4.59327e-05
0.0095145
4.55176e-05
0.00956391
4.5102e-05
0.00961289
4.4686e-05
0.00966143
4.42701e-05
0.00970953
4.38538e-05
0.00975718
4.3437e-05
0.00980437
4.30206e-05
0.00985109
4.26035e-05
0.00989734
4.21863e-05
0.0099431
4.17691e-05
0.00998837
4.13517e-05
0.0100331
4.09336e-05
0.0100774
4.05161e-05
0.0101212
4.0098e-05
0.0101644
3.96802e-05
0.0102071
3.92625e-05
0.0102492
3.88448e-05
0.0102908
3.84268e-05
0.0103319
3.80091e-05
0.0103724
3.75917e-05
0.0104123
3.71743e-05
0.0104517
3.67577e-05
0.0104904
3.63405e-05
0.0105286
3.59239e-05
0.0105662
3.55066e-05
0.0106031
3.50899e-05
0.0106395
3.4673e-05
0.0106752
3.42564e-05
0.0107103
3.38407e-05
0.0107448
3.34238e-05
0.0107786
3.30082e-05
0.0108117
3.25923e-05
0.0108443
3.21762e-05
0.0108761
3.17613e-05
0.0109073
3.13459e-05
0.0109378
3.09311e-05
0.0109676
3.05165e-05
0.0109967
3.01022e-05
0.0110251
2.96885e-05
0.0110528
2.92747e-05
0.0110799
2.88614e-05
0.0111061
2.84486e-05
0.0111317
2.80355e-05
0.0111565
2.7622e-05
0.0111806
2.721e-05
0.011204
2.67965e-05
0.0112266
2.63834e-05
0.0112485
2.59711e-05
0.0112696
2.55587e-05
0.0112899
2.51463e-05
0.0113095
2.47348e-05
0.0113283
2.43211e-05
0.0113463
2.39094e-05
0.0113635
2.34972e-05
0.0113799
2.3085e-05
0.0113956
2.26713e-05
0.0114104
2.2258e-05
0.0114245
2.18419e-05
0.0114377
2.14293e-05
0.0114501
2.10114e-05
0.0114617
2.05998e-05
0.0114726
2.01766e-05
0.0114825
1.97678e-05
0.0114917
1.93353e-05
0.0115
1.89339e-05
0.0115076
1.84811e-05
0.0115142
1.81e-05
0.0115202
1.76043e-05
0.0115251
1.72706e-05
0.0115294
1.67117e-05
0.0115327
1.6431e-05
0.0115353
1.58576e-05
0.0115369
1.54883e-05
0.0115377
1.4969e-05
0.0115376
1.46296e-05
0.0115368
1.41748e-05
0.0115353
1.36268e-05
0.011533
1.30102e-05
0.0115298
1.24944e-05
0.0115255
1.24272e-05
0.011521
1.12551e-05
0.0115157
1.06058e-05
0.0115108
8.68674e-06
0.0115039
8.84355e-06
0.0115052
-1.48632e-06
-3.33116e-06
0.000142675
-0.000102814
0.000540128
-0.000453994
0.00117387
-0.000820565
0.00198108
-0.00111508
0.00284131
-0.00120969
0.00365879
-0.0011584
0.00433925
-0.000923972
0.00481192
-0.000618839
0.00505093
-0.000224679
0.00505684
8.70356e-05
0.00490078
0.000361202
0.00463609
0.000502196
0.00429409
0.000596413
0.00392195
0.00059821
0.00356491
0.000545176
0.00324664
0.000457636
0.0029667
0.000374129
0.00270884
0.000320872
0.00243354
0.00033003
0.00209902
0.000406843
0.00168726
0.000554694
0.00112503
0.00078124
0.000220961
0.0011145
-0.00101205
0.00155724
-0.00261597
0.00206155
-0.00466865
0.00263382
-0.0071466
0.00331265
-0.0100976
0.0040895
-0.0135453
0.00494556
-0.0174505
0.00578561
-0.0216703
0.00650684
-0.0259855
0.00697513
-0.0301982
0.00718623
-0.0340451
0.00696852
-0.0374134
0.0065147
-0.0400304
0.00558451
-0.0418084
0.00439478
-0.0426903
0.00301099
-0.0427323
0.00150175
-0.0419578
-8.39461e-05
-0.0403426
-0.00152664
-0.0380459
-0.00303961
-0.0350439
-0.00433951
-0.0314371
-0.00562623
-0.0272711
-0.00670683
-0.0226037
-0.00766761
-0.0175938
-0.00838523
-0.0122457
-0.00891515
-0.00654054
-0.00913069
-0.000503496
-0.00909695
0.00518784
-0.00887479
0.0104338
-0.00845242
0.0152086
-0.00777817
0.0195645
-0.00683233
0.0233334
-0.00564861
0.0263159
-0.00428342
0.0283661
-0.00287206
0.0295544
-0.00157637
0.0298997
-0.000428585
0.0298668
9.81966e-05
0.0295197
0.000460371
0.0289986
0.000517824
0.0285328
0.00018948
0.0282229
-0.000295151
0.0279689
-0.000641323
0.0274731
-0.000519388
0.0262679
0.000184775
0.0242981
0.0013342
0.0218671
0.0024563
0.0189393
0.00406473
0.0150498
0.00593374
0.00884533
0.00785329
0.00162659
0.00976479
-0.00609973
0.0111579
-0.0142484
0.0119965
-0.0223775
0.0122961
-0.0297686
0.0121475
-0.0361796
0.0114172
-0.0415264
0.0103217
-0.0457827
0.00896587
-0.0490178
0.00756565
-0.0511522
0.00598309
-0.0524218
0.00450616
-0.052646
0.00271659
-0.0524264
0.00152559
-0.0516658
0.000244561
-0.0501759
-0.00121641
-0.0480569
-0.00258589
-0.0454148
-0.00379894
-0.0423109
-0.00490684
-0.0386894
-0.00596594
-0.034521
-0.00696306
-0.0298856
-0.00777311
-0.0249253
-0.00841037
-0.019682
-0.00884203
-0.0141749
-0.00911054
-0.00794092
-0.00927482
-0.00197155
-0.00942047
0.00383963
-0.00936048
0.00957058
-0.00919172
0.0148983
-0.00890774
0.0199194
-0.00856671
0.0247659
-0.00809084
0.0293899
-0.0075641
0.0337663
-0.00697787
0.0378148
-0.00627516
0.0415076
-0.00554239
0.0447884
-0.00470047
0.047617
-0.00380934
0.0499536
-0.00291072
0.0518012
-0.00201225
0.0529152
-0.00101748
0.0532397
0.00012012
0.0530602
0.000998408
0.0523064
0.00178402
0.0509472
0.00255645
0.0490688
0.00318731
0.0467875
0.00364951
0.0441996
0.00397981
0.0414084
0.00418222
0.0385266
0.0042581
0.0356592
0.00421624
0.0328811
0.0040882
0.0302423
0.0039036
0.0277771
0.0036792
0.0255077
0.00342847
0.0234496
0.00315084
0.0216153
0.00285048
0.0200113
0.00252854
0.018647
0.00218308
0.0175168
0.00183454
0.0166074
0.00149371
0.015903
0.00116618
0.0153745
0.00087467
0.0149853
0.000625587
0.0146924
0.000434381
0.0144614
0.000302935
0.01424
0.000234739
0.0139917
0.000226526
0.0136781
0.000280061
0.0132757
0.00037075
0.0127606
0.000511484
0.0121309
0.000667277
0.011376
0.000855212
0.0105139
0.0010421
0.00953055
0.00124188
0.00844881
0.00147571
0.00727425
0.00166775
0.00602999
0.00188926
0.00473432
0.00205542
0.00338646
0.00222685
0.00198042
0.00233914
0.000554056
0.00242605
-0.000814416
0.00245407
-0.00210789
0.00242846
-0.00329973
0.00233845
-0.00434255
0.00214966
-0.00518926
0.00189095
-0.00578853
0.00152338
-0.00607922
0.00105917
-0.00604953
0.000546132
-0.00564795
-4.24941e-05
-0.00488306
-0.000625091
-0.00376481
-0.00123489
-0.00230732
-0.00180884
-0.000542601
-0.00235344
0.00149705
-0.00283085
0.00376475
-0.00323123
0.00621001
-0.0035387
0.0087781
-0.00374775
0.0114275
-0.00386278
0.0141092
-0.00388237
0.0167097
-0.00382243
0.0192025
-0.00368074
0.0215726
-0.00347218
0.0237879
-0.00320795
0.0258187
-0.0029004
0.0276403
-0.00255973
0.0292324
-0.00219824
0.0305825
-0.00182276
0.03168
-0.00144551
0.0325244
-0.00106688
0.0331097
-0.000697223
0.0334625
-0.000352318
0.033593
-5.04407e-05
0.0335793
0.000172669
0.0333998
0.000399784
0.0330431
0.0006473
0.0325109
0.000890713
0.0318467
0.00107692
0.0310851
0.00121245
0.0302513
0.00131053
0.02936
0.00138432
0.0284321
0.00143023
0.0274843
0.00145561
0.0265325
0.00146143
0.0255922
0.0014483
0.0246778
0.00141831
0.0237996
0.00137678
0.0229685
0.00132216
0.0221969
0.00125116
0.0214959
0.0011644
0.0208761
0.00106169
0.0203444
0.000946637
0.0199036
0.000823936
0.019552
0.000698734
0.0192839
0.000577672
0.0190904
0.000463508
0.0189609
0.000361107
0.0188813
0.000272896
0.018837
0.000200127
0.0188187
0.000141048
0.0188095
9.58852e-05
0.0187955
6.76438e-05
0.018764
5.7763e-05
0.0187
6.55382e-05
0.0185927
8.56762e-05
0.0184349
0.000114978
0.0182213
0.000150211
0.0179482
0.000194198
0.0176088
0.00025147
0.0171847
0.000341072
0.0166569
0.000473803
0.0159867
0.000657864
0.0151605
0.000903867
0.0141451
0.00117718
0.0129337
0.00150073
0.0115094
0.00185526
0.0098904
0.00221812
0.00809112
0.00258132
0.00614638
0.00291997
0.00409571
0.00320604
0.00192894
0.00341855
-0.000361598
0.00355531
-0.00257072
0.00362208
-0.00458641
0.00363068
-0.00644516
0.00356266
-0.00811841
0.00338632
-0.00956753
0.00311236
-0.0107441
0.00276826
-0.0117108
0.00239574
-0.0124446
0.00194796
-0.0129299
0.00147156
-0.0131789
0.000983285
-0.0131734
0.000496643
-0.0128149
-7.23462e-05
-0.0120523
-0.000577275
-0.010993
-0.00105472
-0.00968904
-0.00147981
-0.00816349
-0.0018758
-0.00644108
-0.0022287
-0.00454483
-0.00254116
-0.00249801
-0.00281159
-0.000324079
-0.00303919
0.00195311
-0.00322372
0.00430927
-0.00336484
0.006723
-0.00346596
0.00917133
-0.00352423
0.0116285
-0.00353609
0.014073
-0.00350022
0.0164767
-0.0034144
0.0187758
-0.00328265
0.02094
-0.00310159
0.0229568
-0.00287217
0.024799
-0.002598
0.0264399
-0.00228643
0.0278573
-0.00194654
0.0290355
-0.00158996
0.0299688
-0.00122711
0.0306463
-0.000863846
0.0310858
-0.000514829
0.0312871
-0.000181896
0.0313043
9.99182e-05
0.0311571
0.000339496
0.0308626
0.000569929
0.0304641
0.000743348
0.0299719
0.000889275
0.0294061
0.00100384
0.0287935
0.00108469
0.0281542
0.00113542
0.0275069
0.00115975
0.0268667
0.0011617
0.0262449
0.00114558
0.0256493
0.00111616
0.0250856
0.00107695
0.0245577
0.0010307
0.0240683
0.000979646
0.0236186
0.000925481
0.0232095
0.000869464
0.0228409
0.000812635
0.0225123
0.00075575
0.022223
0.000699281
0.021972
0.000643984
0.0217578
0.000590203
0.0215792
0.000537613
0.0214347
0.000486726
0.0213221
0.000438495
0.0212397
0.000392737
0.0211856
0.000349626
0.0211579
0.000309031
0.0211538
0.00027292
0.021168
0.00024112
0.0212021
0.0002117
0.0212533
0.000184339
0.0213201
0.000160211
0.021399
0.000140311
0.0214886
0.000123019
0.0215873
0.000108359
0.0216935
9.61861e-05
0.0218058
8.63287e-05
0.0219229
7.85065e-05
0.0220438
7.24381e-05
0.0221674
6.78787e-05
0.022293
6.46241e-05
0.0224199
6.24775e-05
0.0225476
6.12404e-05
0.0226756
6.07448e-05
0.0228036
6.08581e-05
0.0229312
6.14702e-05
0.0230582
6.24878e-05
0.0231844
6.38136e-05
0.0233096
6.53397e-05
0.0234338
6.69788e-05
0.023557
6.86869e-05
0.023679
7.04376e-05
0.0238
7.21945e-05
0.0239199
7.39188e-05
0.0240388
7.55846e-05
0.0241566
7.7177e-05
0.0242734
7.86865e-05
0.0243893
8.01073e-05
0.0245043
8.14324e-05
0.0246185
8.26596e-05
0.0247318
8.37888e-05
0.0248444
8.48224e-05
0.0249563
8.57642e-05
0.0250676
8.66183e-05
0.0251782
8.73889e-05
0.0252882
8.80808e-05
0.0253977
8.86991e-05
0.0255067
8.92491e-05
0.0256151
8.97355e-05
0.0257231
9.01629e-05
0.0258307
9.05346e-05
0.0259378
9.0854e-05
0.0260446
9.11236e-05
0.0261509
9.13461e-05
0.0262569
9.15233e-05
0.0263625
9.16579e-05
0.0264678
9.17514e-05
0.0265727
9.18061e-05
0.0266774
9.18228e-05
0.0267817
9.18025e-05
0.0268858
9.17457e-05
0.0269895
9.1653e-05
0.027093
9.15245e-05
0.0271962
9.13613e-05
0.0272992
9.11641e-05
0.0274019
9.09343e-05
0.0275044
9.06734e-05
0.0276066
9.03833e-05
0.0277086
9.00657e-05
0.0278103
8.97228e-05
0.0279118
8.93563e-05
0.0280131
8.89683e-05
0.0281141
8.85602e-05
0.0282149
8.81342e-05
0.0283154
8.76916e-05
0.0284157
8.72339e-05
0.0285158
8.67624e-05
0.0286156
8.62791e-05
0.0287152
8.5785e-05
0.0288144
8.52821e-05
0.0289134
8.47714e-05
0.0290121
8.42545e-05
0.0291106
8.37324e-05
0.0292087
8.32063e-05
0.0293065
8.26768e-05
0.0294039
8.21447e-05
0.0295011
8.16106e-05
0.0295979
8.10749e-05
0.0296943
8.05381e-05
0.0297904
8.00005e-05
0.029886
7.94627e-05
0.0299813
7.89248e-05
0.0300762
7.8387e-05
0.0301706
7.78497e-05
0.0302647
7.73124e-05
0.0303583
7.67754e-05
0.0304514
7.62388e-05
0.0305441
7.5702e-05
0.0306363
7.51653e-05
0.030728
7.46293e-05
0.0308192
7.40929e-05
0.0309099
7.35572e-05
0.0310001
7.30222e-05
0.0310898
7.24871e-05
0.0311789
7.19522e-05
0.0312674
7.14173e-05
0.0313555
7.08818e-05
0.0314429
7.03468e-05
0.0315298
6.98119e-05
0.031616
6.92771e-05
0.0317017
6.87431e-05
0.0317867
6.82093e-05
0.0318712
6.76758e-05
0.031955
6.71425e-05
0.0320381
6.66085e-05
0.0321206
6.60748e-05
0.0322025
6.55413e-05
0.0322837
6.50071e-05
0.0323642
6.44739e-05
0.032444
6.3941e-05
0.0325231
6.34074e-05
0.0326015
6.28748e-05
0.0326791
6.23426e-05
0.0327561
6.18099e-05
0.0328323
6.12784e-05
0.0329078
6.07475e-05
0.0329825
6.02161e-05
0.0330564
5.96864e-05
0.0331296
5.91567e-05
0.033202
5.86269e-05
0.0332736
5.80982e-05
0.0333444
5.75701e-05
0.0334144
5.70411e-05
0.0334836
5.65141e-05
0.0335519
5.5987e-05
0.0336195
5.54608e-05
0.0336861
5.49357e-05
0.033752
5.44115e-05
0.0338169
5.38876e-05
0.033881
5.33648e-05
0.0339443
5.28431e-05
0.0340066
5.23218e-05
0.034068
5.18027e-05
0.0341286
5.12833e-05
0.0341882
5.07655e-05
0.0342469
5.02473e-05
0.0343047
4.97305e-05
0.0343616
4.92141e-05
0.0344175
4.86983e-05
0.0344725
4.81853e-05
0.0345265
4.76709e-05
0.0345796
4.71584e-05
0.0346317
4.66479e-05
0.0346828
4.61369e-05
0.0347329
4.56278e-05
0.034782
4.51195e-05
0.0348301
4.46122e-05
0.0348772
4.41061e-05
0.0349233
4.36012e-05
0.0349684
4.30978e-05
0.0350124
4.25953e-05
0.0350554
4.20938e-05
0.0350974
4.15936e-05
0.0351383
4.10945e-05
0.0351782
4.0594e-05
0.035217
4.00965e-05
0.0352547
3.95988e-05
0.0352913
3.9101e-05
0.0353269
3.86052e-05
0.0353613
3.81112e-05
0.0353947
3.76165e-05
0.035427
3.71248e-05
0.0354581
3.66299e-05
0.0354882
3.6138e-05
0.0355171
3.5646e-05
0.0355449
3.51551e-05
0.0355716
3.46616e-05
0.0355972
3.41713e-05
0.0356216
3.36739e-05
0.0356448
3.31848e-05
0.035667
3.26851e-05
0.0356879
3.22002e-05
0.0357077
3.16928e-05
0.0357264
3.12118e-05
0.0357439
3.06923e-05
0.0357603
3.02146e-05
0.0357754
2.9679e-05
0.0357895
2.91845e-05
0.0358023
2.86715e-05
0.0358141
2.80875e-05
0.0358244
2.77172e-05
0.035834
2.68745e-05
0.0358419
2.67751e-05
0.0358489
2.60483e-05
0.0358545
2.55147e-05
0.0358594
2.46355e-05
0.0358627
2.44555e-05
0.0358652
2.36184e-05
0.0358661
2.31395e-05
0.0358657
2.24243e-05
0.0358649
2.17802e-05
0.035863
2.02413e-05
0.0358594
1.97405e-05
0.0358553
1.70625e-05
0.0358523
1.4362e-05
0.0358479
3.38837e-06
1.01419e-06
0.000249223
-0.000317077
0.000852702
-0.00102244
0.00172572
-0.00165842
0.00276767
-0.00212172
0.00383542
-0.00224203
0.00481153
-0.00209902
0.00564402
-0.00172095
0.00627351
-0.00121282
0.00672997
-0.000645626
0.00691456
-6.20545e-05
0.0068462
0.00046503
0.00652932
0.000854553
0.00608611
0.00107512
0.00558287
0.00113698
0.00506686
0.00109676
0.00457525
0.000984884
0.0041177
0.0008674
0.00366425
0.000810124
0.00316508
0.000865074
0.00254656
0.0010613
0.0017022
0.00143508
0.000532105
0.00198746
-0.00102066
0.00270349
-0.00301643
0.00358935
-0.00552212
0.00460366
-0.00861019
0.00575831
-0.012252
0.00699097
-0.016384
0.0082579
-0.0208878
0.00948568
-0.0255994
0.0105333
-0.0302986
0.0112422
-0.0347631
0.0114759
-0.0387829
0.0112421
-0.0421781
0.0103992
-0.0448727
0.00924408
-0.0467768
0.0075231
-0.0479573
0.00560842
-0.0483701
0.00345651
-0.0479851
0.00114873
-0.046847
-0.00119125
-0.044864
-0.00347955
-0.0421806
-0.00569493
-0.0387392
-0.0077542
-0.0346702
-0.00967001
-0.0300016
-0.0113514
-0.0248397
-0.0128066
-0.0192394
-0.0139626
-0.013325
-0.0148058
-0.00719749
-0.0152326
-0.000844376
-0.0154205
0.00558585
-0.015272
0.0119098
-0.0147401
0.0179124
-0.0137427
0.0234152
-0.0122938
0.0282419
-0.0104308
0.0323375
-0.00833551
0.0356469
-0.00614006
0.0381655
-0.00405804
0.0397402
-0.00197263
0.0401145
-0.000252187
0.0398823
0.000707591
0.0390991
0.0013088
0.0378772
0.0014104
0.0361914
0.00138234
0.0341403
0.0013976
0.0318669
0.00174397
0.0292442
0.00280332
0.0257631
0.0048176
0.0206033
0.00762527
0.0138671
0.0108188
0.00586217
0.0139635
-0.00294592
0.0166878
-0.0118693
0.0187154
-0.0203821
0.0196972
-0.0279809
0.0196216
-0.0343183
0.0186597
-0.039315
0.0171711
-0.0432286
0.0153586
-0.0462907
0.0134119
-0.0486315
0.0113352
-0.0502806
0.00924393
-0.0514822
0.00721386
-0.0521328
0.00518652
-0.052292
0.00290725
-0.0513669
0.000633174
-0.0495355
-0.00155319
-0.047174
-0.0035438
-0.0442929
-0.0054318
-0.0408534
-0.00720251
-0.0368492
-0.00887394
-0.0323735
-0.0104047
-0.027531
-0.0117687
-0.022338
-0.0129294
-0.016851
-0.0138615
-0.0111082
-0.0145498
-0.00521287
-0.0149723
0.00067643
-0.015132
0.00639196
-0.0151059
0.012089
-0.0150295
0.017684
-0.0147612
0.0231513
-0.0143525
0.0285286
-0.0139245
0.0337747
-0.0133213
0.0387891
-0.0125672
0.0435771
-0.0117591
0.0480862
-0.0107829
0.0522912
-0.00975191
0.0561654
-0.00858459
0.0596898
-0.00734915
0.0628477
-0.00608856
0.0655584
-0.00474614
0.0677525
-0.00323655
0.0695549
-0.00170399
0.0708258
-0.000285789
0.0714055
0.001204
0.0713133
0.00266131
0.07057
0.00395299
0.0691406
0.00510668
0.0670663
0.00609273
0.0644555
0.00684284
0.0614193
0.00735144
0.0580792
0.00761773
0.0545776
0.00765247
0.0510578
0.00748462
0.0476441
0.00715091
0.0444318
0.0066952
0.0414828
0.0061509
0.0388316
0.00555067
0.0364913
0.00491649
0.0344628
0.00425958
0.0327248
0.00362141
0.0312531
0.00301585
0.0300187
0.00245361
0.0289859
0.00196347
0.0281169
0.00155408
0.0273757
0.00123905
0.0267183
0.00102762
0.0260841
0.000939648
0.0254081
0.00097525
0.0246293
0.00113184
0.023704
0.00136698
0.0226122
0.0016703
0.021365
0.00197641
0.0199673
0.00230994
0.0184635
0.00259906
0.0168658
0.00288984
0.0152231
0.00316729
0.0135416
0.0033975
0.0118577
0.00362075
0.0101739
0.00378616
0.00852028
0.00392733
0.00690297
0.00400352
0.00534678
0.0040293
0.00386825
0.00397995
0.00251333
0.00383084
0.00132706
0.00357309
0.000351303
0.0031745
-0.000366272
0.00265862
-0.000809378
0.00201814
-0.000950453
0.00125368
-0.000762181
0.000413526
-0.00023126
-0.00051498
0.000682202
-0.00147706
0.00196891
-0.00245676
0.00362793
-0.00339954
0.00562503
-0.00427844
0.00792874
-0.00505886
0.0104937
-0.00571701
0.013277
-0.00623918
0.0162343
-0.00661901
0.019308
-0.00684769
0.0224435
-0.00692698
0.0255918
-0.00687882
0.0287103
-0.00670701
0.0317585
-0.00642909
0.0347025
-0.00606164
0.0375121
-0.00562092
0.0401611
-0.0051213
0.0426249
-0.00457695
0.044884
-0.00399936
0.046918
-0.00339999
0.0487113
-0.00278365
0.0502491
-0.00216158
0.0515249
-0.00155739
0.0525418
-0.00100053
0.0532658
-0.000490571
0.0536912
3.02019e-05
0.0538317
0.000559304
0.0537518
0.00102101
0.0534765
0.00140165
0.0530204
0.00171725
0.0523863
0.00199243
0.0515765
0.00224137
0.0506228
0.00243099
0.0495481
0.00257779
0.0483739
0.00268388
0.047116
0.00275566
0.0457971
0.00278824
0.0444417
0.00278503
0.0430797
0.00273935
0.041745
0.00264343
0.0404657
0.0025037
0.0392677
0.00232227
0.0381744
0.00210498
0.037205
0.00186059
0.036373
0.0016001
0.0356852
0.00133654
0.035139
0.0010821
0.0347241
0.00084958
0.0344204
0.000650696
0.0342057
0.000489244
0.0340558
0.000365276
0.0339433
0.000282216
0.0338351
0.000248659
0.0336865
0.000277744
0.0334608
0.000361095
0.0331236
0.000491281
0.0326458
0.000659817
0.0320088
0.00085296
0.0312027
0.00106543
0.0302222
0.00129719
0.0290654
0.00156451
0.0277313
0.00187732
0.0262103
0.00225207
0.0245065
0.00268477
0.0226108
0.00315245
0.0205406
0.00365123
0.0183041
0.00417352
0.0159457
0.00465919
0.0134956
0.00511425
0.0110013
0.00549713
0.00850434
0.00578573
0.00602651
0.00597943
0.00358995
0.00607518
0.00124002
0.00605589
-0.000949859
0.00590524
-0.00291341
0.0056116
-0.00463038
0.00519025
-0.00608353
0.00465298
-0.00724311
0.00401726
-0.00805443
0.00329809
-0.00852931
0.00251518
-0.00865756
0.00169391
-0.00842289
0.000843791
-0.00784606
1.43005e-05
-0.00703656
-0.000785707
-0.00597715
-0.00153836
-0.00466529
-0.00226749
-0.00310367
-0.00294149
-0.00131743
-0.00356158
0.000672951
-0.00411859
0.00284451
-0.00461243
0.00517656
-0.00504391
0.00765004
-0.00541359
0.010249
-0.00572457
0.0129594
-0.00597836
0.0157613
-0.00617256
0.0186331
-0.00630268
0.0215539
-0.00636541
0.0245004
-0.00635709
0.0274479
-0.00627388
0.0303691
-0.0061171
0.0332317
-0.00587833
0.0360023
-0.00555722
0.0386457
-0.00515546
0.0411255
-0.00467901
0.0434046
-0.00413615
0.0454447
-0.00353762
0.0472084
-0.00289468
0.0486664
-0.00222181
0.0497928
-0.00153733
0.05058
-0.000861936
0.0510115
-0.000221541
0.0511151
0.000347289
0.0510004
0.000797148
0.0506682
0.00118887
0.0501412
0.00153055
0.049473
0.00178673
0.0486918
0.00198093
0.0478376
0.00210463
0.0469499
0.00216226
0.0460569
0.0021691
0.0451798
0.00213704
0.0443344
0.00207614
0.0435318
0.00199449
0.0427793
0.00189856
0.0420812
0.00179359
0.0414395
0.00168339
0.0408551
0.00157065
0.0403276
0.00145741
0.039856
0.00134512
0.0394389
0.00123471
0.0390747
0.00112704
0.0387613
0.00102287
0.0384959
0.000922737
0.0382759
0.00082691
0.0380994
0.000735581
0.0379639
0.000649393
0.0378666
0.000568448
0.0378038
0.000493719
0.037773
0.000425891
0.0377716
0.000364891
0.0377934
0.000312615
0.037836
0.000264719
0.0378973
0.000222264
0.0379769
0.000184414
0.0380725
0.000151591
0.0381809
0.000124556
0.0382995
0.000102433
0.0384265
8.45603e-05
0.0385602
7.03135e-05
0.0386994
5.91761e-05
0.0388427
5.07403e-05