/*--------------------------------*- C++ -*----------------------------------*\
| =========                 |                                                 |
| \\      /  F ield         | OpenFOAM: The Open Source CFD Toolbox           |
|  \\    /   O peration     | Version:  v1812                                 |
|   \\  /    A nd           | Web:      www.OpenFOAM.com                      |
|    \\/     M anipulation  |                                                 |
\*---------------------------------------------------------------------------*/
FoamFile
{
    version     2.0;
    format      ascii;
    class       volScalarField;
    location    "0.8";
    object      T;
}
// * * * * * * * * * * * * * * * * * * * * * * * * * * * * * * * * * * * * * //

dimensions      [0 0 0 1 0 0 0];


internalField   nonuniform List<scalar> 
20400
(
287.459
287.442
287.414
287.383
287.354
287.33
287.312
287.301
287.295
287.294
287.297
287.303
287.312
287.324
287.337
287.35
287.363
287.376
287.389
287.403
287.419
287.438
287.46
287.486
287.514
287.545
287.577
287.61
287.643
287.676
287.707
287.737
287.763
287.788
287.81
287.832
287.853
287.875
287.899
287.927
287.956
287.993
288.032
288.077
288.125
288.178
288.234
288.292
288.357
288.419
288.493
288.578
288.681
288.809
288.963
289.147
289.357
289.582
289.805
290.01
290.187
290.337
290.466
290.584
290.702
290.83
290.974
291.131
291.292
291.429
291.53
291.588
291.602
291.598
291.573
291.538
291.489
291.437
291.384
291.333
291.285
291.245
291.208
291.18
291.157
291.141
291.13
291.128
291.131
291.146
291.167
291.196
291.231
291.271
291.313
291.36
291.398
291.439
291.481
291.523
291.561
291.599
291.633
291.659
291.677
291.686
291.683
291.667
291.634
291.586
291.522
291.444
291.349
291.237
291.108
290.966
290.818
290.667
290.515
290.366
290.22
290.078
289.939
289.803
289.668
289.533
289.397
289.261
289.124
288.986
288.849
288.712
288.577
288.444
288.316
288.194
288.082
287.98
287.892
287.818
287.758
287.712
287.679
287.655
287.64
287.631
287.627
287.627
287.629
287.635
287.642
287.651
287.662
287.674
287.688
287.703
287.719
287.737
287.757
287.78
287.804
287.831
287.86
287.893
287.928
287.966
288.008
288.053
288.102
288.153
288.209
288.267
288.328
288.393
288.46
288.528
288.597
288.665
288.731
288.795
288.855
288.912
288.965
289.014
289.059
289.1
289.138
289.174
289.207
289.238
289.266
289.293
289.319
289.344
289.368
289.392
289.416
289.441
289.467
289.495
289.524
289.557
289.593
289.632
289.676
289.723
289.775
289.831
289.891
289.954
290.019
290.087
290.155
290.223
290.288
290.351
290.409
290.462
290.509
290.548
290.579
290.602
290.616
290.622
290.622
290.617
290.608
290.594
290.578
290.56
290.542
290.525
290.508
290.493
290.48
290.467
290.457
290.449
290.443
290.439
290.438
290.443
290.45
290.459
290.471
290.49
290.51
290.531
290.556
290.583
290.613
290.645
290.679
290.714
290.751
290.788
290.825
290.862
290.898
290.933
290.968
291
291.031
291.06
291.087
291.113
291.136
291.158
291.178
291.197
291.214
291.231
291.247
291.262
291.275
291.287
291.299
291.31
291.321
291.331
291.342
291.352
291.362
291.372
291.383
291.393
291.404
291.415
291.426
291.438
291.449
291.461
291.472
291.484
291.496
291.509
291.523
291.537
291.551
291.565
291.579
291.594
291.608
291.622
291.637
291.651
291.665
291.679
291.693
291.708
291.722
291.736
291.75
291.764
291.778
291.792
291.806
291.82
291.834
291.848
291.862
291.876
291.889
291.903
291.917
291.93
291.944
291.958
291.971
291.985
291.999
292.012
292.026
292.039
292.053
292.066
292.08
292.093
292.107
292.12
292.134
292.147
292.16
292.174
292.187
292.201
292.214
292.227
292.241
292.254
292.268
292.281
292.294
292.307
292.321
292.334
292.347
292.361
292.374
292.387
292.4
292.413
292.426
292.44
292.453
292.466
292.479
292.492
292.505
292.518
292.531
292.544
292.557
292.57
292.583
292.595
292.608
292.621
292.634
292.647
292.659
292.672
292.685
292.697
292.71
292.722
292.735
292.747
292.76
292.772
292.784
292.797
292.809
292.821
292.833
292.845
292.858
292.87
292.882
292.894
292.906
292.918
292.929
292.941
292.953
292.965
292.976
292.988
293
293.011
293.023
293.034
293.046
293.057
293.068
293.08
293.091
293.102
293.113
293.125
293.136
293.147
293.158
293.169
293.18
293.19
293.201
293.212
293.223
293.234
293.244
293.255
293.265
293.276
293.286
293.297
293.307
293.318
293.328
293.338
293.349
293.359
293.369
293.379
293.389
293.4
293.41
293.42
293.43
293.44
293.45
293.46
293.469
293.479
293.489
293.499
293.509
293.518
293.528
293.538
293.548
293.557
293.567
293.576
293.586
293.596
293.605
293.615
293.624
293.634
293.643
293.653
293.662
293.672
293.681
293.691
293.7
293.71
293.719
293.728
293.738
293.747
293.757
293.766
293.775
293.785
293.794
293.803
293.811
293.82
293.829
293.839
293.848
293.856
293.864
293.87
293.873
293.871
293.857
293.833
287.414
287.396
287.367
287.336
287.308
287.286
287.271
287.263
287.261
287.263
287.267
287.276
287.287
287.301
287.315
287.33
287.344
287.359
287.375
287.392
287.414
287.44
287.47
287.505
287.541
287.579
287.616
287.651
287.683
287.711
287.732
287.748
287.759
287.768
287.772
287.775
287.779
287.784
287.795
287.813
287.838
287.872
287.913
287.961
288.014
288.072
288.131
288.19
288.245
288.303
288.353
288.401
288.443
288.488
288.541
288.614
288.717
288.856
289.032
289.237
289.459
289.691
289.928
290.165
290.398
290.626
290.853
291.077
291.29
291.462
291.572
291.61
291.6
291.561
291.497
291.411
291.312
291.203
291.09
290.977
290.866
290.761
290.665
290.579
290.504
290.438
290.386
290.352
290.332
290.324
290.33
290.347
290.377
290.413
290.461
290.51
290.566
290.622
290.685
290.752
290.823
290.9
290.983
291.069
291.158
291.25
291.34
291.427
291.505
291.569
291.614
291.633
291.63
291.603
291.542
291.446
291.326
291.19
291.04
290.876
290.708
290.544
290.388
290.241
290.103
289.973
289.848
289.728
289.609
289.491
289.371
289.248
289.119
288.981
288.833
288.675
288.51
288.343
288.182
288.034
287.908
287.807
287.732
287.681
287.65
287.632
287.624
287.624
287.628
287.636
287.647
287.66
287.673
287.687
287.702
287.716
287.732
287.746
287.761
287.777
287.793
287.81
287.828
287.846
287.862
287.876
287.889
287.899
287.908
287.916
287.923
287.93
287.937
287.946
287.956
287.968
287.987
288.016
288.054
288.102
288.16
288.225
288.296
288.371
288.445
288.521
288.598
288.675
288.75
288.823
288.892
288.957
289.02
289.078
289.133
289.183
289.229
289.271
289.309
289.343
289.374
289.402
289.429
289.455
289.482
289.511
289.542
289.577
289.617
289.662
289.714
289.772
289.838
289.911
289.992
290.078
290.166
290.256
290.344
290.428
290.503
290.566
290.613
290.64
290.649
290.647
290.638
290.619
290.592
290.562
290.532
290.502
290.472
290.442
290.411
290.383
290.356
290.33
290.306
290.285
290.266
290.25
290.237
290.228
290.222
290.218
290.222
290.231
290.247
290.268
290.294
290.326
290.362
290.402
290.447
290.495
290.545
290.598
290.653
290.707
290.762
290.814
290.864
290.91
290.951
290.988
291.019
291.045
291.067
291.086
291.101
291.116
291.131
291.145
291.159
291.172
291.184
291.196
291.208
291.22
291.232
291.245
291.258
291.27
291.283
291.295
291.308
291.32
291.333
291.346
291.359
291.372
291.385
291.399
291.412
291.426
291.439
291.453
291.468
291.483
291.5
291.516
291.533
291.549
291.565
291.581
291.596
291.612
291.628
291.643
291.659
291.674
291.689
291.704
291.719
291.734
291.749
291.764
291.778
291.793
291.807
291.822
291.836
291.85
291.864
291.878
291.892
291.906
291.92
291.934
291.947
291.961
291.974
291.988
292.002
292.015
292.028
292.042
292.055
292.069
292.082
292.095
292.109
292.122
292.135
292.148
292.162
292.175
292.188
292.201
292.215
292.228
292.241
292.254
292.267
292.28
292.293
292.306
292.319
292.332
292.345
292.358
292.371
292.384
292.397
292.41
292.423
292.436
292.449
292.462
292.474
292.487
292.5
292.513
292.525
292.538
292.55
292.563
292.576
292.588
292.601
292.613
292.626
292.638
292.65
292.663
292.675
292.687
292.7
292.712
292.724
292.736
292.748
292.76
292.772
292.784
292.796
292.808
292.82
292.832
292.844
292.855
292.867
292.879
292.89
292.902
292.914
292.925
292.937
292.948
292.959
292.971
292.982
292.993
293.004
293.016
293.027
293.038
293.049
293.06
293.071
293.082
293.093
293.103
293.114
293.125
293.136
293.146
293.157
293.168
293.178
293.189
293.199
293.21
293.22
293.23
293.241
293.251
293.261
293.271
293.282
293.292
293.302
293.312
293.322
293.332
293.342
293.352
293.362
293.372
293.382
293.391
293.401
293.411
293.421
293.43
293.44
293.45
293.459
293.469
293.479
293.488
293.498
293.507
293.517
293.526
293.536
293.545
293.555
293.564
293.574
293.583
293.593
293.602
293.611
293.621
293.63
293.64
293.649
293.658
293.668
293.677
293.687
293.696
293.705
293.715
293.724
293.733
293.742
293.751
293.759
293.768
293.777
293.786
293.795
293.803
293.809
293.81
293.803
293.787
287.335
287.314
287.284
287.254
287.23
287.214
287.205
287.202
287.204
287.21
287.219
287.232
287.247
287.264
287.281
287.298
287.316
287.334
287.354
287.38
287.412
287.45
287.494
287.541
287.589
287.635
287.676
287.708
287.729
287.739
287.74
287.735
287.722
287.701
287.673
287.642
287.61
287.58
287.554
287.534
287.524
287.534
287.566
287.618
287.691
287.782
287.887
288.001
288.115
288.219
288.308
288.377
288.427
288.458
288.464
288.46
288.461
288.479
288.53
288.627
288.781
288.996
289.274
289.614
290.001
290.403
290.788
291.127
291.394
291.56
291.613
291.596
291.525
291.409
291.26
291.086
290.896
290.7
290.503
290.312
290.134
289.97
289.823
289.698
289.599
289.525
289.474
289.441
289.423
289.416
289.424
289.441
289.465
289.495
289.529
289.565
289.602
289.64
289.68
289.722
289.769
289.82
289.878
289.945
290.023
290.116
290.225
290.353
290.5
290.666
290.848
291.044
291.243
291.419
291.545
291.614
291.635
291.627
291.587
291.498
291.367
291.209
291.037
290.865
290.704
290.561
290.436
290.327
290.231
290.141
290.053
289.96
289.858
289.74
289.6
289.434
289.237
289.012
288.765
288.508
288.263
288.048
287.878
287.76
287.688
287.652
287.641
287.642
287.651
287.671
287.699
287.731
287.767
287.805
287.845
287.888
287.934
287.982
288.031
288.082
288.132
288.181
288.225
288.262
288.292
288.312
288.321
288.318
288.302
288.272
288.23
288.175
288.112
288.043
287.971
287.901
287.832
287.766
287.707
287.656
287.615
287.586
287.57
287.568
287.578
287.613
287.674
287.755
287.848
287.948
288.053
288.161
288.272
288.386
288.499
288.61
288.716
288.816
288.908
288.99
289.063
289.126
289.179
289.222
289.257
289.285
289.309
289.33
289.351
289.373
289.4
289.433
289.475
289.529
289.596
289.679
289.777
289.889
290.015
290.151
290.291
290.425
290.541
290.627
290.672
290.683
290.676
290.654
290.613
290.562
290.506
290.448
290.387
290.324
290.26
290.195
290.131
290.07
290.01
289.953
289.901
289.853
289.81
289.774
289.744
289.719
289.701
289.689
289.683
289.683
289.689
289.701
289.721
289.748
289.782
289.824
289.875
289.935
290.004
290.082
290.168
290.26
290.357
290.457
290.556
290.652
290.741
290.82
290.886
290.938
290.975
291
291.015
291.024
291.029
291.033
291.035
291.036
291.037
291.039
291.044
291.052
291.063
291.076
291.09
291.103
291.118
291.132
291.147
291.162
291.177
291.192
291.208
291.223
291.239
291.255
291.271
291.287
291.303
291.32
291.337
291.355
291.374
291.394
291.414
291.434
291.454
291.473
291.493
291.512
291.53
291.549
291.567
291.585
291.603
291.621
291.639
291.656
291.673
291.689
291.706
291.722
291.738
291.754
291.769
291.785
291.8
291.815
291.83
291.844
291.859
291.873
291.887
291.901
291.915
291.929
291.942
291.956
291.97
291.983
291.996
292.01
292.023
292.036
292.05
292.063
292.076
292.089
292.102
292.115
292.128
292.141
292.154
292.167
292.18
292.193
292.206
292.219
292.231
292.244
292.257
292.27
292.283
292.295
292.308
292.321
292.333
292.346
292.359
292.371
292.384
292.396
292.409
292.421
292.434
292.446
292.458
292.471
292.483
292.495
292.508
292.52
292.532
292.544
292.556
292.569
292.581
292.593
292.605
292.617
292.629
292.641
292.652
292.664
292.676
292.688
292.7
292.711
292.723
292.735
292.746
292.758
292.769
292.781
292.792
292.804
292.815
292.826
292.838
292.849
292.86
292.871
292.882
292.893
292.904
292.915
292.926
292.937
292.948
292.959
292.97
292.981
292.991
293.002
293.013
293.023
293.034
293.044
293.055
293.065
293.076
293.086
293.097
293.107
293.117
293.127
293.138
293.148
293.158
293.168
293.178
293.188
293.198
293.208
293.218
293.228
293.238
293.247
293.257
293.267
293.277
293.286
293.296
293.306
293.315
293.325
293.335
293.344
293.354
293.363
293.373
293.382
293.392
293.401
293.411
293.42
293.429
293.439
293.448
293.457
293.467
293.476
293.485
293.495
293.504
293.513
293.523
293.532
293.541
293.551
293.56
293.569
293.578
293.588
293.597
293.606
293.616
293.625
293.634
293.643
293.652
293.661
293.669
293.677
293.685
293.691
293.698
293.704
293.701
293.692
287.245
287.223
287.196
287.174
287.158
287.15
287.146
287.147
287.151
287.159
287.171
287.186
287.204
287.223
287.244
287.264
287.286
287.31
287.339
287.377
287.424
287.479
287.54
287.601
287.658
287.707
287.741
287.753
287.751
287.729
287.701
287.652
287.578
287.484
287.374
287.253
287.127
287.008
286.901
286.816
286.762
286.737
286.738
286.778
286.85
286.957
287.103
287.285
287.501
287.743
287.993
288.227
288.412
288.532
288.598
288.615
288.586
288.525
288.484
288.485
288.527
288.648
288.884
289.246
289.726
290.277
290.815
291.251
291.526
291.621
291.598
291.504
291.34
291.126
290.879
290.612
290.341
290.078
289.836
289.617
289.428
289.269
289.144
289.048
288.976
288.926
288.894
288.881
288.882
288.899
288.927
288.963
289.002
289.043
289.083
289.118
289.149
289.175
289.197
289.215
289.231
289.246
289.261
289.277
289.294
289.318
289.352
289.403
289.473
289.569
289.698
289.866
290.075
290.329
290.624
290.924
291.192
291.407
291.566
291.665
291.69
291.675
291.613
291.5
291.351
291.189
291.037
290.907
290.801
290.718
290.651
290.59
290.525
290.447
290.345
290.21
290.03
289.799
289.513
289.181
288.823
288.473
288.166
287.93
287.777
287.701
287.678
287.681
287.7
287.744
287.807
287.88
287.959
288.043
288.132
288.224
288.319
288.413
288.505
288.593
288.676
288.752
288.821
288.883
288.938
288.986
289.024
289.051
289.065
289.065
289.047
289.006
288.943
288.86
288.756
288.634
288.494
288.341
288.178
288.008
287.84
287.679
287.532
287.403
287.291
287.201
287.141
287.117
287.116
287.128
287.163
287.224
287.313
287.423
287.548
287.686
287.833
287.986
288.142
288.297
288.445
288.583
288.709
288.82
288.914
288.992
289.055
289.104
289.142
289.171
289.194
289.217
289.241
289.272
289.313
289.37
289.447
289.547
289.673
289.825
290.002
290.194
290.386
290.55
290.661
290.708
290.709
290.69
290.638
290.56
290.466
290.367
290.262
290.155
290.048
289.944
289.846
289.758
289.683
289.615
289.557
289.508
289.468
289.438
289.415
289.396
289.378
289.362
289.347
289.332
289.318
289.303
289.289
289.276
289.269
289.266
289.271
289.285
289.31
289.351
289.406
289.477
289.565
289.67
289.79
289.924
290.07
290.226
290.384
290.537
290.678
290.797
290.888
290.949
290.981
290.992
290.991
290.984
290.966
290.942
290.917
290.898
290.885
290.877
290.874
290.875
290.879
290.889
290.902
290.916
290.93
290.945
290.96
290.976
290.993
291.009
291.027
291.045
291.063
291.082
291.101
291.122
291.143
291.165
291.189
291.214
291.239
291.264
291.29
291.315
291.34
291.364
291.389
291.413
291.437
291.46
291.483
291.506
291.528
291.55
291.571
291.592
291.612
291.632
291.651
291.67
291.689
291.707
291.724
291.741
291.758
291.774
291.79
291.806
291.822
291.837
291.852
291.866
291.881
291.895
291.909
291.923
291.936
291.95
291.963
291.977
291.99
292.003
292.016
292.029
292.042
292.055
292.068
292.081
292.094
292.107
292.12
292.132
292.145
292.158
292.17
292.183
292.195
292.208
292.22
292.233
292.245
292.258
292.27
292.283
292.295
292.307
292.32
292.332
292.344
292.356
292.368
292.38
292.393
292.405
292.417
292.429
292.441
292.453
292.464
292.476
292.488
292.5
292.512
292.523
292.535
292.547
292.558
292.57
292.582
292.593
292.605
292.616
292.627
292.639
292.65
292.661
292.673
292.684
292.695
292.706
292.718
292.729
292.74
292.751
292.762
292.773
292.784
292.794
292.805
292.816
292.827
292.838
292.848
292.859
292.87
292.88
292.891
292.901
292.912
292.922
292.933
292.943
292.953
292.964
292.974
292.984
292.994
293.004
293.015
293.025
293.035
293.045
293.055
293.065
293.075
293.085
293.094
293.104
293.114
293.124
293.133
293.143
293.153
293.163
293.172
293.182
293.191
293.201
293.21
293.22
293.229
293.239
293.248
293.258
293.267
293.276
293.286
293.295
293.304
293.314
293.323
293.332
293.341
293.351
293.36
293.369
293.378
293.387
293.397
293.406
293.415
293.424
293.433
293.442
293.452
293.461
293.47
293.479
293.488
293.498
293.507
293.516
293.525
293.534
293.543
293.552
293.561
293.568
293.575
293.58
293.587
293.595
293.594
293.59
287.165
287.149
287.133
287.123
287.119
287.118
287.118
287.119
287.122
287.128
287.138
287.152
287.169
287.19
287.213
287.237
287.264
287.297
287.339
287.392
287.458
287.533
287.61
287.681
287.738
287.772
287.78
287.758
287.722
287.654
287.55
287.406
287.226
287.022
286.813
286.617
286.45
286.315
286.212
286.145
286.1
286.072
286.06
286.063
286.089
286.143
286.233
286.368
286.559
286.812
287.131
287.51
287.922
288.307
288.592
288.743
288.799
288.781
288.71
288.634
288.613
288.652
288.803
289.125
289.635
290.275
290.906
291.381
291.603
291.614
291.52
291.331
291.068
290.758
290.425
290.095
289.788
289.514
289.279
289.081
288.92
288.788
288.683
288.601
288.541
288.501
288.483
288.482
288.503
288.541
288.594
288.656
288.723
288.791
288.854
288.907
288.948
288.975
288.992
289
289.004
289.003
288.997
288.985
288.967
288.945
288.926
288.916
288.918
288.934
288.974
289.043
289.147
289.295
289.497
289.767
290.103
290.483
290.866
291.196
291.452
291.633
291.752
291.791
291.775
291.716
291.607
291.471
291.338
291.227
291.143
291.083
291.038
290.993
290.937
290.853
290.726
290.538
290.274
289.928
289.511
289.054
288.607
288.224
287.946
287.79
287.736
287.737
287.763
287.831
287.935
288.059
288.188
288.319
288.448
288.571
288.687
288.792
288.883
288.963
289.033
289.094
289.15
289.203
289.257
289.313
289.37
289.428
289.484
289.535
289.574
289.595
289.593
289.568
289.512
289.429
289.319
289.183
289.021
288.835
288.628
288.407
288.176
287.944
287.715
287.497
287.295
287.116
286.963
286.839
286.752
286.709
286.704
286.713
286.747
286.813
286.912
287.04
287.192
287.364
287.55
287.746
287.943
288.136
288.318
288.484
288.63
288.754
288.855
288.935
288.996
289.043
289.08
289.113
289.148
289.19
289.246
289.323
289.427
289.566
289.742
289.955
290.192
290.425
290.61
290.71
290.732
290.718
290.663
290.56
290.424
290.274
290.12
289.971
289.833
289.713
289.618
289.545
289.497
289.466
289.449
289.442
289.439
289.441
289.446
289.45
289.448
289.438
289.419
289.391
289.356
289.315
289.272
289.228
289.184
289.143
289.106
289.075
289.049
289.026
289.013
289.015
289.034
289.078
289.141
289.223
289.327
289.455
289.608
289.786
289.985
290.198
290.412
290.612
290.779
290.898
290.965
290.99
290.991
290.982
290.957
290.916
290.866
290.813
290.763
290.722
290.694
290.676
290.666
290.662
290.663
290.666
290.674
290.684
290.696
290.708
290.722
290.736
290.753
290.771
290.79
290.811
290.833
290.857
290.882
290.91
290.939
290.97
291.002
291.035
291.068
291.101
291.134
291.167
291.2
291.233
291.265
291.297
291.328
291.359
291.389
291.418
291.446
291.474
291.501
291.527
291.552
291.577
291.6
291.623
291.645
291.666
291.687
291.707
291.726
291.745
291.762
291.78
291.797
291.813
291.829
291.845
291.86
291.875
291.889
291.903
291.917
291.931
291.945
291.958
291.972
291.985
291.998
292.011
292.024
292.037
292.049
292.062
292.075
292.087
292.1
292.113
292.125
292.137
292.15
292.162
292.175
292.187
292.199
292.211
292.224
292.236
292.248
292.26
292.272
292.284
292.296
292.308
292.32
292.332
292.343
292.355
292.367
292.379
292.39
292.402
292.414
292.425
292.437
292.448
292.46
292.471
292.482
292.494
292.505
292.516
292.527
292.539
292.55
292.561
292.572
292.583
292.594
292.605
292.616
292.627
292.638
292.649
292.66
292.67
292.681
292.692
292.702
292.713
292.724
292.734
292.745
292.755
292.766
292.776
292.787
292.797
292.807
292.818
292.828
292.838
292.848
292.859
292.869
292.879
292.889
292.899
292.909
292.919
292.929
292.939
292.949
292.959
292.969
292.978
292.988
292.998
293.008
293.017
293.027
293.037
293.046
293.056
293.065
293.075
293.084
293.094
293.103
293.113
293.122
293.132
293.141
293.15
293.16
293.169
293.178
293.187
293.197
293.206
293.215
293.224
293.233
293.242
293.252
293.261
293.27
293.279
293.288
293.297
293.306
293.315
293.324
293.333
293.342
293.351
293.361
293.37
293.379
293.388
293.397
293.406
293.415
293.424
293.433
293.442
293.451
293.46
293.468
293.476
293.482
293.487
293.493
293.502
293.505
293.502
287.111
287.104
287.103
287.105
287.11
287.113
287.115
287.115
287.116
287.118
287.125
287.136
287.152
287.172
287.196
287.225
287.26
287.304
287.361
287.436
287.524
287.618
287.703
287.768
287.802
287.806
287.771
287.714
287.609
287.448
287.233
286.983
286.73
286.504
286.315
286.173
286.083
286.024
285.986
285.96
285.933
285.908
285.883
285.862
285.844
285.83
285.831
285.864
285.941
286.082
286.3
286.615
287.042
287.566
288.122
288.594
288.872
288.973
288.963
288.898
288.826
288.818
288.897
289.161
289.661
290.338
291.019
291.478
291.623
291.577
291.395
291.109
290.752
290.365
289.983
289.635
289.332
289.077
288.865
288.689
288.543
288.419
288.318
288.239
288.18
288.146
288.132
288.145
288.18
288.234
288.305
288.39
288.486
288.583
288.674
288.75
288.806
288.84
288.856
288.861
288.86
288.851
288.831
288.8
288.758
288.71
288.661
288.614
288.579
288.565
288.569
288.586
288.623
288.686
288.783
288.926
289.131
289.413
289.774
290.197
290.646
291.071
291.416
291.661
291.829
291.921
291.926
291.897
291.818
291.707
291.597
291.508
291.447
291.406
291.373
291.33
291.26
291.138
290.939
290.638
290.229
289.727
289.178
288.651
288.221
287.943
287.821
287.805
287.829
287.908
288.047
288.216
288.388
288.548
288.69
288.812
288.91
288.988
289.048
289.094
289.133
289.167
289.202
289.24
289.285
289.339
289.403
289.475
289.553
289.634
289.715
289.792
289.864
289.913
289.926
289.911
289.864
289.785
289.673
289.527
289.347
289.136
288.898
288.641
288.371
288.095
287.821
287.556
287.306
287.077
286.875
286.702
286.56
286.451
286.383
286.361
286.365
286.39
286.448
286.544
286.679
286.848
287.046
287.267
287.5
287.739
287.971
288.189
288.384
288.551
288.689
288.799
288.884
288.951
289.007
289.06
289.117
289.186
289.276
289.397
289.558
289.766
290.016
290.287
290.531
290.69
290.743
290.736
290.683
290.564
290.388
290.188
289.99
289.815
289.678
289.589
289.547
289.535
289.538
289.565
289.618
289.689
289.767
289.843
289.907
289.955
289.985
289.996
289.99
289.96
289.908
289.836
289.749
289.648
289.537
289.42
289.303
289.19
289.089
289.007
288.943
288.896
288.864
288.849
288.852
288.872
288.911
288.969
289.051
289.159
289.298
289.472
289.681
289.923
290.184
290.445
290.677
290.854
290.965
291.016
291.024
291.011
290.972
290.909
290.833
290.755
290.677
290.604
290.541
290.491
290.454
290.426
290.407
290.396
290.389
290.386
290.385
290.387
290.391
290.4
290.411
290.425
290.442
290.462
290.484
290.511
290.54
290.573
290.608
290.646
290.686
290.728
290.77
290.814
290.858
290.902
290.946
290.991
291.034
291.078
291.121
291.163
291.204
291.244
291.283
291.321
291.358
291.394
291.428
291.461
291.493
291.524
291.553
291.581
291.608
291.634
291.658
291.682
291.704
291.726
291.746
291.766
291.784
291.802
291.82
291.836
291.852
291.868
291.883
291.898
291.912
291.927
291.94
291.954
291.967
291.981
291.994
292.007
292.02
292.032
292.045
292.058
292.07
292.083
292.095
292.107
292.12
292.132
292.144
292.156
292.168
292.18
292.193
292.205
292.216
292.228
292.24
292.252
292.264
292.276
292.287
292.299
292.31
292.322
292.333
292.345
292.356
292.368
292.379
292.39
292.402
292.413
292.424
292.435
292.446
292.457
292.468
292.479
292.49
292.501
292.512
292.523
292.533
292.544
292.555
292.565
292.576
292.587
292.597
292.608
292.618
292.629
292.639
292.65
292.66
292.67
292.681
292.691
292.701
292.711
292.721
292.732
292.742
292.752
292.762
292.772
292.782
292.792
292.802
292.812
292.822
292.832
292.841
292.851
292.861
292.871
292.881
292.89
292.9
292.91
292.919
292.929
292.939
292.948
292.958
292.967
292.977
292.986
292.996
293.005
293.014
293.024
293.033
293.042
293.052
293.061
293.07
293.079
293.089
293.098
293.107
293.116
293.125
293.134
293.144
293.153
293.162
293.171
293.18
293.189
293.198
293.207
293.216
293.225
293.234
293.243
293.252
293.261
293.27
293.279
293.288
293.297
293.306
293.315
293.324
293.333
293.342
293.35
293.36
293.368
293.377
293.386
293.395
293.402
293.409
293.413
293.419
293.428
293.432
293.43
287.085
287.089
287.097
287.11
287.123
287.129
287.13
287.128
287.125
287.125
287.128
287.136
287.151
287.172
287.198
287.232
287.276
287.336
287.416
287.515
287.623
287.723
287.798
287.834
287.834
287.792
287.716
287.585
287.382
287.121
286.838
286.584
286.387
286.268
286.207
286.178
286.167
286.179
286.207
286.219
286.192
286.139
286.062
285.972
285.883
285.813
285.765
285.739
285.723
285.75
285.842
286.013
286.302
286.745
287.343
288.023
288.63
289.008
289.139
289.133
289.085
289.049
289.086
289.284
289.748
290.436
291.126
291.539
291.617
291.514
291.243
290.868
290.438
290.004
289.609
289.27
288.99
288.758
288.563
288.396
288.252
288.127
288.026
287.951
287.899
287.875
287.872
287.896
287.94
288.006
288.09
288.191
288.302
288.418
288.529
288.624
288.691
288.728
288.741
288.741
288.734
288.711
288.67
288.614
288.546
288.475
288.408
288.347
288.299
288.271
288.267
288.272
288.288
288.319
288.369
288.444
288.551
288.705
288.925
289.23
289.628
290.1
290.605
291.086
291.487
291.774
291.966
292.076
292.092
292.07
292.003
291.91
291.822
291.758
291.718
291.688
291.65
291.584
291.458
291.239
290.894
290.415
289.828
289.198
288.62
288.187
287.952
287.885
287.898
287.967
288.115
288.313
288.515
288.689
288.826
288.926
288.992
289.031
289.054
289.067
289.068
289.065
289.064
289.071
289.092
289.131
289.189
289.27
289.372
289.493
289.629
289.767
289.894
290.002
290.088
290.139
290.142
290.122
290.068
289.975
289.84
289.663
289.447
289.197
288.921
288.628
288.327
288.026
287.733
287.455
287.197
286.961
286.75
286.568
286.415
286.29
286.193
286.133
286.117
286.123
286.153
286.218
286.325
286.48
286.677
286.912
287.173
287.448
287.721
287.98
288.214
288.414
288.579
288.711
288.818
288.907
288.989
289.073
289.168
289.286
289.438
289.635
289.883
290.167
290.446
290.655
290.745
290.745
290.701
290.574
290.368
290.124
289.893
289.714
289.608
289.572
289.572
289.608
289.699
289.829
289.98
290.134
290.276
290.397
290.494
290.567
290.615
290.639
290.641
290.622
290.573
290.493
290.388
290.259
290.11
289.944
289.768
289.586
289.407
289.236
289.083
288.953
288.856
288.792
288.757
288.746
288.749
288.763
288.793
288.84
288.91
289.006
289.135
289.304
289.517
289.775
290.067
290.369
290.643
290.858
291.001
291.073
291.083
291.066
291.012
290.924
290.815
290.703
290.596
290.498
290.407
290.325
290.256
290.199
290.152
290.113
290.08
290.054
290.034
290.02
290.011
290.007
290.006
290.009
290.018
290.033
290.054
290.08
290.111
290.147
290.188
290.232
290.28
290.331
290.385
290.44
290.497
290.554
290.613
290.671
290.73
290.788
290.846
290.903
290.959
291.013
291.067
291.119
291.169
291.218
291.265
291.31
291.354
291.396
291.436
291.474
291.51
291.544
291.577
291.608
291.637
291.665
291.691
291.715
291.739
291.761
291.781
291.801
291.82
291.838
291.855
291.871
291.887
291.902
291.917
291.932
291.946
291.959
291.973
291.986
291.999
292.012
292.025
292.038
292.05
292.063
292.075
292.087
292.1
292.112
292.124
292.136
292.148
292.16
292.172
292.184
292.196
292.208
292.219
292.231
292.243
292.254
292.266
292.277
292.289
292.3
292.311
292.323
292.334
292.345
292.356
292.367
292.378
292.389
292.4
292.411
292.422
292.433
292.443
292.454
292.465
292.475
292.486
292.496
292.507
292.517
292.528
292.538
292.548
292.559
292.569
292.579
292.589
292.599
292.61
292.62
292.63
292.64
292.65
292.66
292.67
292.68
292.689
292.699
292.709
292.719
292.729
292.738
292.748
292.758
292.768
292.777
292.787
292.797
292.806
292.816
292.825
292.835
292.844
292.854
292.863
292.873
292.882
292.892
292.901
292.911
292.92
292.929
292.939
292.948
292.957
292.966
292.976
292.985
292.994
293.003
293.013
293.022
293.031
293.04
293.049
293.058
293.067
293.076
293.085
293.094
293.103
293.112
293.121
293.13
293.139
293.148
293.157
293.166
293.175
293.184
293.193
293.202
293.211
293.22
293.229
293.238
293.246
293.255
293.264
293.273
293.282
293.291
293.3
293.309
293.318
293.326
293.335
293.343
293.349
293.353
293.358
293.367
293.372
293.372
287.079
287.09
287.111
287.132
287.147
287.152
287.152
287.148
287.143
287.141
287.142
287.15
287.164
287.187
287.218
287.262
287.322
287.405
287.51
287.629
287.742
287.826
287.868
287.866
287.821
287.735
287.587
287.368
287.089
286.806
286.585
286.455
286.393
286.363
286.427
286.547
286.701
286.825
286.896
286.923
286.879
286.788
286.651
286.479
286.285
286.087
285.908
285.77
285.695
285.661
285.661
285.721
285.862
286.138
286.607
287.28
288.065
288.761
289.175
289.309
289.306
289.285
289.305
289.461
289.882
290.548
291.212
291.568
291.597
291.441
291.091
290.64
290.158
289.706
289.318
289
288.742
288.528
288.343
288.181
288.043
287.927
287.839
287.781
287.749
287.739
287.748
287.778
287.828
287.897
287.984
288.087
288.203
288.323
288.439
288.538
288.605
288.636
288.641
288.636
288.613
288.565
288.494
288.406
288.31
288.222
288.148
288.092
288.056
288.039
288.04
288.046
288.06
288.083
288.116
288.162
288.223
288.307
288.427
288.602
288.855
289.204
289.654
290.184
290.739
291.256
291.677
291.971
292.163
292.26
292.266
292.238
292.173
292.096
292.032
291.99
291.958
291.918
291.846
291.705
291.452
291.052
290.499
289.832
289.144
288.553
288.159
287.992
287.975
288.016
288.139
288.334
288.548
288.734
288.866
288.947
288.988
289.004
289
288.978
288.944
288.912
288.89
288.88
288.883
288.901
288.942
289.008
289.101
289.223
289.374
289.548
289.739
289.93
290.098
290.222
290.293
290.308
290.295
290.249
290.157
290.015
289.822
289.584
289.31
289.01
288.696
288.38
288.072
287.778
287.504
287.254
287.027
286.823
286.639
286.476