/*--------------------------------*- C++ -*----------------------------------*\
| =========                 |                                                 |
| \\      /  F ield         | OpenFOAM: The Open Source CFD Toolbox           |
|  \\    /   O peration     | Version:  v1812                                 |
|   \\  /    A nd           | Web:      www.OpenFOAM.com                      |
|    \\/     M anipulation  |                                                 |
\*---------------------------------------------------------------------------*/
FoamFile
{
    version     2.0;
    format      ascii;
    class       volVectorField;
    location    "0.8";
    object      U;
}
// * * * * * * * * * * * * * * * * * * * * * * * * * * * * * * * * * * * * * //

dimensions      [0 1 -1 0 0 0 0];


internalField   nonuniform List<vector> 
20400
(
(0.00395692 0.00479654 0)
(0.030866 -0.00207858 0)
(0.0958811 -0.0095433 0)
(0.203827 -0.0134583 0)
(0.341479 -0.0077582 0)
(0.478768 -0.00236572 0)
(0.607514 0.0103295 0)
(0.690127 0.0125233 0)
(0.744994 0.0227816 0)
(0.751071 0.0113622 0)
(0.716073 0.00927178 0)
(0.670958 -0.00717186 0)
(0.607646 -0.0125484 0)
(0.552529 -0.0186732 0)
(0.505069 -0.0201153 0)
(0.474218 -0.0208856 0)
(0.458022 -0.0205508 0)
(0.454546 -0.0182059 0)
(0.461683 -0.0188285 0)
(0.464191 -0.0230175 0)
(0.451502 -0.0257627 0)
(0.410095 -0.0116163 0)
(0.365687 0.0352749 0)
(0.303558 0.054375 0)
(0.187074 0.0742967 0)
(0.0404099 0.084028 0)
(-0.176453 0.0918676 0)
(-0.487926 0.101712 0)
(-0.909759 0.109857 0)
(-1.46339 0.120446 0)
(-2.14055 0.123768 0)
(-2.9676 0.123748 0)
(-3.88818 0.12421 0)
(-4.91764 0.127176 0)
(-5.94159 0.134463 0)
(-6.96826 0.132285 0)
(-7.87875 0.116366 0)
(-8.66809 0.0976587 0)
(-9.24164 0.0735691 0)
(-9.58918 0.0541055 0)
(-9.70762 0.0405228 0)
(-9.52215 0.00533311 0)
(-9.16409 -0.00543717 0)
(-8.53036 -0.0336704 0)
(-7.74642 -0.0665704 0)
(-6.7461 -0.126445 0)
(-5.65398 -0.234298 0)
(-4.42271 -0.345217 0)
(-3.19616 -0.536391 0)
(-2.07617 -0.607488 0)
(-0.987305 -0.575873 0)
(0.126011 -0.420456 0)
(1.21054 -0.291895 0)
(2.17915 -0.199791 0)
(2.92434 -0.13809 0)
(3.51019 -0.0827183 0)
(3.86434 -0.0396156 0)
(4.10342 -0.0103559 0)
(4.19424 0.000329163 0)
(4.21852 0.0107531 0)
(4.17923 -0.00501576 0)
(4.17712 -0.0256541 0)
(4.24282 -0.0578979 0)
(4.4066 -0.0902584 0)
(4.67686 -0.117694 0)
(5.02407 -0.147247 0)
(5.37617 -0.210859 0)
(5.7132 -0.347576 0)
(5.83866 -0.577951 0)
(5.61639 -0.649276 0)
(5.05082 -0.362688 0)
(4.47842 0.28143 0)
(3.83383 0.576682 0)
(2.74527 0.753248 0)
(1.53438 0.797434 0)
(0.164525 0.759102 0)
(-1.33872 0.720825 0)
(-3.02832 0.74049 0)
(-4.71605 0.768348 0)
(-6.38559 0.767489 0)
(-7.91192 0.740036 0)
(-9.30631 0.700301 0)
(-10.5302 0.694163 0)
(-11.4655 0.773406 0)
(-12.1898 0.928277 0)
(-12.6388 1.08979 0)
(-12.8623 1.24328 0)
(-12.7933 1.42188 0)
(-12.4489 1.46583 0)
(-11.9243 1.40492 0)
(-11.1768 1.27515 0)
(-10.268 1.05221 0)
(-9.22146 0.789195 0)
(-8.06411 0.44776 0)
(-6.8401 0.103531 0)
(-5.55304 -0.312619 0)
(-4.41517 -0.698359 0)
(-3.29676 -0.781607 0)
(-2.0377 -0.774967 0)
(-0.841487 -0.702989 0)
(0.383395 -0.511237 0)
(1.62144 -0.382184 0)
(2.81028 -0.289873 0)
(3.86626 -0.221854 0)
(4.84909 -0.165163 0)
(5.67323 -0.118819 0)
(6.39435 -0.079245 0)
(6.96444 -0.0414265 0)
(7.39825 -0.0100265 0)
(7.67684 0.0129137 0)
(7.83343 0.0329783 0)
(7.87003 0.0409594 0)
(7.79653 0.0530606 0)
(7.60644 0.0740848 0)
(7.31858 0.0845261 0)
(6.97588 0.0886941 0)
(6.58056 0.0912214 0)
(6.16077 0.0930374 0)
(5.72648 0.0942091 0)
(5.28978 0.0961153 0)
(4.8556 0.0974684 0)
(4.42826 0.0982948 0)
(4.01123 0.0992392 0)
(3.60878 0.100224 0)
(3.22094 0.100547 0)
(2.85258 0.0998687 0)
(2.50305 0.0985968 0)
(2.17846 0.0967603 0)
(1.88543 0.0936387 0)
(1.61914 0.0888142 0)
(1.40262 0.0811452 0)
(1.21608 0.0702626 0)
(1.07723 0.0561924 0)
(0.976451 0.0402572 0)
(0.916596 0.0218066 0)
(0.887589 0.00468894 0)
(0.89064 -0.00935439 0)
(0.920407 -0.0212045 0)
(0.958077 -0.0296661 0)
(1.00804 -0.033336 0)
(1.05359 -0.0348198 0)
(1.09994 -0.0321606 0)
(1.12486 -0.0275936 0)
(1.14609 -0.0235461 0)
(1.11654 -0.0152919 0)
(1.09462 -0.0118621 0)
(0.99333 0.00752618 0)
(0.899799 0.0201703 0)
(0.719226 0.0540736 0)
(0.53228 0.0894488 0)
(0.27291 0.143557 0)
(0.00905023 0.203114 0)
(-0.29088 0.246772 0)
(-0.605792 0.27178 0)
(-0.953968 0.285032 0)
(-1.30183 0.283781 0)
(-1.65278 0.274185 0)
(-1.98131 0.25797 0)
(-2.27677 0.228865 0)
(-2.52774 0.187886 0)
(-2.71871 0.130919 0)
(-2.84187 0.0710718 0)
(-2.8939 0.0154938 0)
(-2.84486 -0.0473017 0)
(-2.72802 -0.0980303 0)
(-2.51751 -0.143425 0)
(-2.2448 -0.177688 0)
(-1.90055 -0.202646 0)
(-1.50849 -0.220247 0)
(-1.07981 -0.234089 0)
(-0.627418 -0.236748 0)
(-0.177277 -0.225261 0)
(0.275429 -0.191101 0)
(0.728205 -0.157177 0)
(1.1571 -0.126503 0)
(1.55365 -0.10177 0)
(1.90873 -0.082228 0)
(2.22107 -0.0666678 0)
(2.48577 -0.0546393 0)
(2.70692 -0.0441121 0)
(2.88098 -0.0361763 0)
(3.01398 -0.0270978 0)
(3.106 -0.0208838 0)
(3.15861 -0.0111499 0)
(3.18344 -0.0075782 0)
(3.17642 0.00294913 0)
(3.14538 0.0103851 0)
(3.09485 0.0178149 0)
(3.0203 0.0242593 0)
(2.92545 0.0297175 0)
(2.8161 0.0342072 0)
(2.69619 0.0380424 0)
(2.57001 0.0414604 0)
(2.44014 0.0443773 0)
(2.30852 0.0470752 0)
(2.17643 0.0495747 0)
(2.04505 0.0518092 0)
(1.9155 0.0539749 0)
(1.78826 0.0561295 0)
(1.66394 0.0578498 0)
(1.54351 0.0588948 0)
(1.42841 0.0591777 0)
(1.3203 0.0581218 0)
(1.2209 0.0557269 0)
(1.13215 0.0522044 0)
(1.05495 0.0478242 0)
(0.991156 0.0428867 0)
(0.940108 0.0371795 0)
(0.902952 0.0311555 0)
(0.879106 0.0240655 0)
(0.866383 0.0170233 0)
(0.867703 0.00974732 0)
(0.88214 0.00189099 0)
(0.907247 -0.00576914 0)
(0.94223 -0.012256 0)
(0.98688 -0.0181953 0)
(1.03913 -0.0245518 0)
(1.10019 -0.0307389 0)
(1.16787 -0.0368946 0)
(1.24288 -0.0420275 0)
(1.32322 -0.0466284 0)
(1.40186 -0.0486983 0)
(1.48367 -0.0486127 0)
(1.53935 -0.0471985 0)
(1.59394 -0.0402768 0)
(1.60568 -0.0380623 0)
(1.57955 -0.0296697 0)
(1.51247 -0.0215281 0)
(1.39271 -0.00934144 0)
(1.2125 0.00722535 0)
(0.969088 0.0367717 0)
(0.662731 0.0873573 0)
(0.304351 0.14409 0)
(-0.0687707 0.17492 0)
(-0.464964 0.119816 0)
(-0.924979 0.0172042 0)
(-1.43766 -0.0841521 0)
(-1.95759 -0.15564 0)
(-2.48211 -0.198787 0)
(-2.97409 -0.205639 0)
(-3.4331 -0.162529 0)
(-3.82021 -0.0904025 0)
(-4.13456 -0.0182486 0)
(-4.36596 0.0448404 0)
(-4.51577 0.0723005 0)
(-4.58902 0.0611747 0)
(-4.60999 0.0232098 0)
(-4.56566 -0.0252619 0)
(-4.47465 -0.0690025 0)
(-4.31283 -0.106171 0)
(-4.10215 -0.136102 0)
(-3.83744 -0.159372 0)
(-3.52972 -0.177032 0)
(-3.1842 -0.190205 0)
(-2.80718 -0.200635 0)
(-2.40612 -0.210524 0)
(-1.98656 -0.217975 0)
(-1.55545 -0.221316 0)
(-1.12033 -0.21992 0)
(-0.686267 -0.213003 0)
(-0.266317 -0.20015 0)
(0.141971 -0.175472 0)
(0.540121 -0.150519 0)
(0.915401 -0.128407 0)
(1.26086 -0.110435 0)
(1.57067 -0.0954934 0)
(1.84303 -0.082356 0)
(2.07524 -0.0699305 0)
(2.2691 -0.0564976 0)
(2.42312 -0.0424121 0)
(2.54251 -0.024595 0)
(2.62535 -0.0147204 0)
(2.67576 0.00621517 0)
(2.69979 0.0132568 0)
(2.69369 0.0168923 0)
(2.66116 0.0212758 0)
(2.61018 0.0283884 0)
(2.54407 0.0341242 0)
(2.46417 0.0389533 0)
(2.3756 0.043525 0)
(2.27987 0.0469168 0)
(2.18043 0.0489665 0)
(2.07932 0.050374 0)
(1.97881 0.0514088 0)
(1.88048 0.0520447 0)
(1.78554 0.0523134 0)
(1.69493 0.0522426 0)
(1.60932 0.0518657 0)
(1.52918 0.051203 0)
(1.45484 0.0502872 0)
(1.38652 0.0491422 0)
(1.32435 0.0477869 0)
(1.26838 0.0462941 0)
(1.21856 0.0446665 0)
(1.17484 0.0428499 0)
(1.13723 0.0409556 0)
(1.10556 0.0390317 0)
(1.07966 0.0370698 0)
(1.0592 0.0349098 0)
(1.04379 0.0329091 0)
(1.03357 0.0306012 0)
(1.02721 0.0283791 0)
(1.02562 0.0273188 0)
(1.02819 0.0256073 0)
(1.03343 0.0243569 0)
(1.04212 0.0232869 0)
(1.05333 0.0222776 0)
(1.06683 0.021381 0)
(1.08231 0.0205896 0)
(1.0994 0.0199074 0)
(1.11785 0.0193281 0)
(1.13741 0.0188463 0)
(1.15784 0.0184532 0)
(1.17896 0.0181348 0)
(1.2006 0.0178813 0)
(1.22261 0.0176817 0)
(1.24487 0.0175302 0)
(1.26729 0.0174217 0)
(1.28979 0.017353 0)
(1.31231 0.0173209 0)
(1.3348 0.0173144 0)
(1.35721 0.0173209 0)
(1.37952 0.0173336 0)
(1.40171 0.01735 0)
(1.42376 0.0173691 0)
(1.44567 0.0173878 0)
(1.46743 0.0174028 0)
(1.48904 0.017413 0)
(1.51051 0.0174194 0)
(1.53185 0.0174227 0)
(1.55306 0.0174224 0)
(1.57415 0.0174179 0)
(1.59513 0.0174084 0)
(1.61601 0.0173929 0)
(1.63679 0.0173709 0)
(1.65749 0.0173425 0)
(1.67812 0.0173077 0)
(1.69868 0.0172666 0)
(1.71917 0.0172194 0)
(1.73961 0.0171661 0)
(1.75999 0.0171068 0)
(1.78033 0.0170415 0)
(1.80063 0.01697 0)
(1.82089 0.0168923 0)
(1.84112 0.0168083 0)
(1.86131 0.0167179 0)
(1.88147 0.0166216 0)
(1.90161 0.0165201 0)
(1.92171 0.0164144 0)
(1.94179 0.0163061 0)
(1.96185 0.0161967 0)
(1.98188 0.0160877 0)
(2.0019 0.0159803 0)
(2.02189 0.0158757 0)
(2.04186 0.0157745 0)
(2.06182 0.0156771 0)
(2.08176 0.0155836 0)
(2.10169 0.0154939 0)
(2.1216 0.0154079 0)
(2.14151 0.0153251 0)
(2.1614 0.015245 0)
(2.18128 0.0151668 0)
(2.20115 0.0150896 0)
(2.22102 0.0150125 0)
(2.24087 0.0149346 0)
(2.26072 0.014855 0)
(2.28055 0.0147731 0)
(2.30038 0.0146884 0)
(2.32019 0.0146007 0)
(2.33999 0.0145099 0)
(2.35977 0.0144162 0)
(2.37954 0.0143197 0)
(2.39929 0.0142208 0)
(2.41902 0.0141198 0)
(2.43873 0.014017 0)
(2.45842 0.0139129 0)
(2.47808 0.0138076 0)
(2.49771 0.0137015 0)
(2.51731 0.0135948 0)
(2.53688 0.0134875 0)
(2.55641 0.0133798 0)
(2.5759 0.0132719 0)
(2.59534 0.0131638 0)
(2.61474 0.0130556 0)
(2.63409 0.0129472 0)
(2.65339 0.0128389 0)
(2.67264 0.0127305 0)
(2.69182 0.012622 0)
(2.71095 0.0125136 0)
(2.73001 0.0124052 0)
(2.749 0.0122967 0)
(2.76793 0.0121883 0)
(2.78678 0.0120799 0)
(2.80555 0.0119715 0)
(2.82424 0.0118632 0)
(2.84285 0.0117549 0)
(2.86138 0.0116467 0)
(2.87981 0.0115384 0)
(2.89816 0.0114302 0)
(2.91641 0.0113221 0)
(2.93456 0.0112139 0)
(2.95261 0.0111059 0)
(2.97056 0.0109979 0)
(2.9884 0.01089 0)
(3.00613 0.0107822 0)
(3.02375 0.0106745 0)
(3.04126 0.0105668 0)
(3.05865 0.0104592 0)
(3.07591 0.0103517 0)
(3.09306 0.0102442 0)
(3.11007 0.0101369 0)
(3.12696 0.0100297 0)
(3.14372 0.00992247 0)
(3.16034 0.00981544 0)
(3.17682 0.00970845 0)
(3.19316 0.00960154 0)
(3.20936 0.00949482 0)
(3.22542 0.00938814 0)
(3.24132 0.00928152 0)
(3.25708 0.00917512 0)
(3.27268 0.00906872 0)
(3.28812 0.00896238 0)
(3.30341 0.00885625 0)
(3.31853 0.00875004 0)
(3.33349 0.00864388 0)
(3.34828 0.00853784 0)
(3.36291 0.00843172 0)
(3.37736 0.00832558 0)
(3.39163 0.00821964 0)
(3.40573 0.00811351 0)
(3.41965 0.00800744 0)
(3.43338 0.00790133 0)
(3.44693 0.00779516 0)
(3.4603 0.00768902 0)
(3.47347 0.00758295 0)
(3.48645 0.00747689 0)
(3.49923 0.0073708 0)
(3.51182 0.00726492 0)
(3.52421 0.00715897 0)
(3.53639 0.00705327 0)
(3.54837 0.0069476 0)
(3.56015 0.00684216 0)
(3.57171 0.00673686 0)
(3.58306 0.00663174 0)
(3.5942 0.00652704 0)
(3.60512 0.00642223 0)
(3.61582 0.00631782 0)
(3.6263 0.00621378 0)
(3.63656 0.00610968 0)
(3.64659 0.00600599 0)
(3.65639 0.00590262 0)
(3.66596 0.00579938 0)
(3.6753 0.00569643 0)
(3.6844 0.0055938 0)
(3.69327 0.00549137 0)
(3.7019 0.00538924 0)
(3.71028 0.00528719 0)
(3.71843 0.00518544 0)
(3.72633 0.0050841 0)
(3.73398 0.0049826 0)
(3.74138 0.00488161 0)
(3.74853 0.0047809 0)
(3.75543 0.00468019 0)
(3.76208 0.00457972 0)
(3.76846 0.00447935 0)
(3.7746 0.00437897 0)
(3.78047 0.00427904 0)
(3.78608 0.00417883 0)
(3.79142 0.00407887 0)
(3.7965 0.00397896 0)
(3.80132 0.00387894 0)
(3.80587 0.00377893 0)
(3.81015 0.00367931 0)
(3.81416 0.00357928 0)
(3.8179 0.00347958 0)
(3.82137 0.0033792 0)
(3.82456 0.00328003 0)
(3.82749 0.00317888 0)
(3.83013 0.0030805 0)
(3.83252 0.00297684 0)
(3.8346 0.00288224 0)
(3.83645 0.00277183 0)
(3.83796 0.00268868 0)
(3.83929 0.00255949 0)
(3.84019 0.00251244 0)
(3.84097 0.00234263 0)
(3.84139 0.00231888 0)
(3.84151 0.00213836 0)
(3.84135 0.00213367 0)
(3.84094 0.00197514 0)
(3.84024 0.00182614 0)
(3.83931 0.00171205 0)
(3.83809 0.00171201 0)
(3.83679 0.00156068 0)
(3.83457 0.00151937 0)
(3.83386 0.00122968 0)
(3.82958 0.00104356 0)
(3.83217 0.00138788 0)
(3.81562 -4.31732e-05 0)
(3.85474 -0.000429724 0)
(0.0171093 -0.0156479 0)
(0.111686 -0.0855248 0)
(0.288762 -0.161646 0)
(0.533852 -0.221799 0)
(0.821581 -0.234416 0)
(1.10412 -0.219179 0)
(1.36223 -0.164072 0)
(1.55812 -0.108643 0)
(1.68229 -0.0271669 0)
(1.73172 0.0245526 0)
(1.69886 0.0919668 0)
(1.62264 0.126338 0)
(1.51845 0.142699 0)
(1.39551 0.132183 0)
(1.27214 0.110438 0)
(1.15716 0.080328 0)
(1.05646 0.0512738 0)
(0.964887 0.0293719 0)
(0.874801 0.0231104 0)
(0.770042 0.0337508 0)
(0.640836 0.0747164 0)
(0.482175 0.140812 0)
(0.232442 0.216869 0)
(-0.137731 0.290303 0)
(-0.613604 0.38419 0)
(-1.24148 0.481664 0)
(-2.01139 0.596784 0)
(-2.93616 0.757981 0)
(-4.02258 0.950673 0)
(-5.27824 1.13421 0)
(-6.66118 1.32037 0)
(-8.11871 1.46806 0)
(-9.57211 1.57038 0)
(-10.9472 1.57234 0)
(-12.1816 1.51701 0)
(-13.2007 1.37239 0)
(-13.9555 1.17455 0)
(-14.4373 0.931825 0)
(-14.624 0.625444 0)
(-14.4595 0.287139 0)
(-14.027 0.022337 0)
(-13.3551 -0.339536 0)
(-12.4481 -0.61468 0)
(-11.3153 -0.943555 0)
(-9.99243 -1.22783 0)
(-8.48878 -1.50518 0)
(-6.82934 -1.75665 0)
(-5.0801 -1.96055 0)
(-3.20257 -2.16556 0)
(-1.19609 -2.25286 0)
(0.804911 -2.15532 0)
(2.66298 -1.906 0)
(4.35403 -1.59213 0)
(5.91249 -1.25144 0)
(7.28214 -0.927541 0)
(8.45257 -0.640665 0)
(9.29414 -0.416866 0)
(9.85787 -0.212176 0)
(10.1371 -0.0545992 0)
(10.1916 0.0192413 0)
(10.1191 0.0623051 0)
(9.97618 0.00796751 0)
(9.81088 -0.124151 0)
(9.69692 -0.279777 0)
(9.61857 -0.408715 0)
(9.49793 -0.442239 0)
(9.20985 -0.419509 0)
(8.65756 -0.207037 0)
(7.90735 0.153704 0)
(7.00638 0.750777 0)
(5.88081 1.32802 0)
(4.14543 1.90211 0)
(1.77214 2.30391 0)
(-0.75397 2.66517 0)
(-3.497 2.80103 0)
(-6.30298 2.76348 0)
(-8.98011 2.60272 0)
(-11.3522 2.38585 0)
(-13.3715 2.14639 0)
(-15.0293 1.88589 0)
(-16.3087 1.64233 0)
(-17.2494 1.40582 0)
(-17.8317 1.15887 0)
(-18.1241 0.877886 0)
(-18.0789 0.569451 0)
(-17.9176 0.272062 0)
(-17.4917 -0.033904 0)
(-16.8749 -0.368853 0)
(-16.0358 -0.677772 0)
(-15.0475 -0.961567 0)
(-13.8897 -1.22045 0)
(-12.5458 -1.47369 0)
(-11.0323 -1.70038 0)
(-9.38589 -1.91963 0)
(-7.62168 -2.10391 0)
(-5.81165 -2.28562 0)
(-3.78674 -2.46747 0)
(-1.67542 -2.59206 0)
(0.306351 -2.55488 0)
(2.2982 -2.45932 0)
(4.19271 -2.26612 0)
(5.94692 -2.02933 0)
(7.64258 -1.75551 0)
(9.25657 -1.54279 0)
(10.808 -1.33977 0)
(12.2465 -1.13508 0)
(13.5757 -0.940037 0)
(14.7746 -0.727475 0)
(15.8273 -0.513574 0)
(16.715 -0.31548 0)
(17.4332 -0.114055 0)
(17.9594 0.0162939 0)
(18.2361 0.198202 0)
(18.2545 0.390311 0)
(18.0683 0.504477 0)
(17.6964 0.605793 0)
(17.1327 0.682639 0)
(16.4144 0.731016 0)
(15.5747 0.758278 0)
(14.6471 0.769141 0)
(13.6695 0.77194 0)
(12.6803 0.766529 0)
(11.7101 0.752268 0)
(10.7803 0.731846 0)
(9.9043 0.707308 0)
(9.09297 0.680242 0)
(8.35111 0.645644 0)
(7.68324 0.602805 0)
(7.09658 0.548651 0)
(6.58248 0.483337 0)
(6.16111 0.410343 0)
(5.80718 0.333455 0)
(5.53152 0.254719 0)
(5.31794 0.181867 0)
(5.16018 0.115414 0)
(5.04133 0.06122 0)
(4.95002 0.0214888 0)
(4.87097 -0.00791363 0)
(4.78768 -0.0236441 0)
(4.69009 -0.0254976 0)
(4.56519 -0.0197725 0)
(4.4104 0.000269488 0)
(4.21116 0.0280197 0)
(3.98312 0.0684455 0)
(3.69882 0.117986 0)
(3.39733 0.171438 0)
(3.03684 0.248242 0)
(2.66565 0.311889 0)
(2.24735 0.398699 0)
(1.82487 0.469528 0)
(1.37237 0.550424 0)
(0.913194 0.619445 0)
(0.426256 0.688628 0)
(-0.0414085 0.729102 0)
(-0.495689 0.746772 0)
(-0.916347 0.743565 0)
(-1.29192 0.708336 0)
(-1.62438 0.653214 0)
(-1.86099 0.563934 0)
(-2.03078 0.444223 0)
(-2.08327 0.306708 0)
(-1.99346 0.145727 0)
(-1.79233 -0.00935818 0)
(-1.46801 -0.1804 0)
(-1.03239 -0.337498 0)
(-0.484178 -0.493418 0)
(0.159335 -0.628608 0)
(0.889413 -0.742717 0)
(1.68727 -0.824695 0)
(2.53632 -0.864016 0)
(3.41696 -0.875284 0)
(4.3201 -0.864029 0)
(5.2139 -0.822713 0)
(6.07247 -0.765428 0)
(6.89447 -0.697019 0)
(7.66906 -0.622266 0)
(8.38632 -0.543402 0)
(9.03758 -0.462235 0)
(9.61497 -0.381436 0)
(10.113 -0.301489 0)
(10.529 -0.225616 0)
(10.8578 -0.151233 0)
(11.1055 -0.0837206 0)
(11.2629 -0.0178921 0)
(11.356 0.0314304 0)
(11.3784 0.0771397 0)
(11.3421 0.110854 0)
(11.2534 0.153286 0)
(11.1041 0.19543 0)
(10.9034 0.229718 0)
(10.6642 0.254164 0)
(10.3961 0.271021 0)
(10.1058 0.281316 0)
(9.79902 0.287029 0)
(9.48267 0.28995 0)
(9.16192 0.290092 0)
(8.8421 0.287664 0)
(8.52853 0.283187 0)
(8.22532 0.277227 0)
(7.93594 0.269606 0)
(7.6645 0.259536 0)
(7.41501 0.246191 0)
(7.19117 0.229793 0)
(6.99594 0.210522 0)
(6.83109 0.18851 0)
(6.69671 0.164068 0)
(6.59176 0.13855 0)
(6.51355 0.11265 0)
(6.45881 0.088267 0)
(6.42383 0.0654134 0)
(6.40294 0.0447642 0)
(6.3932 0.0264318 0)
(6.39075 0.00867571 0)
(6.38917 -0.00683911 0)
(6.38253 -0.0190825 0)
(6.36721 -0.0303112 0)
(6.33894 -0.0395968 0)
(6.29514 -0.0473117 0)
(6.23321 -0.0546765 0)
(6.1516 -0.0593965 0)
(6.04866 -0.0604864 0)
(5.91912 -0.0532449 0)
(5.7588 -0.0338545 0)
(5.55382 -0.00438059 0)
(5.30144 0.0474799 0)
(4.98575 0.10144 0)
(4.60995 0.175971 0)
(4.15606 0.260316 0)
(3.64201 0.359692 0)
(3.05778 0.474396 0)
(2.42314 0.601891 0)
(1.74092 0.729217 0)
(1.02924 0.837194 0)
(0.270263 0.924164 0)
(-0.503924 0.970313 0)
(-1.21494 0.970541 0)
(-1.87906 0.940376 0)
(-2.47371 0.881043 0)
(-3.01265 0.800784 0)
(-3.45545 0.709988 0)
(-3.81736 0.613613 0)
(-4.11156 0.495655 0)
(-4.31791 0.380451 0)
(-4.44648 0.270274 0)
(-4.5013 0.176245 0)
(-4.42502 0.0663628 0)
(-4.23203 -0.0541627 0)
(-3.9143 -0.181608 0)
(-3.51654 -0.296567 0)
(-3.03189 -0.406434 0)
(-2.48116 -0.505392 0)
(-1.86572 -0.59426 0)
(-1.19604 -0.671689 0)
(-0.479563 -0.735443 0)
(0.276145 -0.783095 0)
(1.06234 -0.810662 0)
(1.87146 -0.824004 0)
(2.69607 -0.827106 0)
(3.52827 -0.818976 0)
(4.35832 -0.798501 0)
(5.18114 -0.76541 0)
(5.9791 -0.71427 0)
(6.73449 -0.652153 0)
(7.44317 -0.583045 0)
(8.09704 -0.510154 0)
(8.68709 -0.435186 0)
(9.20484 -0.359867 0)
(9.64452 -0.286292 0)
(10.0007 -0.216393 0)
(10.2756 -0.154815 0)
(10.4621 -0.0983329 0)
(10.5765 -0.0425006 0)
(10.6155 0.00475841 0)
(10.5873 0.0440693 0)
(10.5109 0.101534 0)
(10.3913 0.147838 0)
(10.2399 0.178136 0)
(10.0598 0.201319 0)
(9.85965 0.221518 0)
(9.64741 0.234301 0)
(9.42907 0.242682 0)
(9.21073 0.247555 0)
(8.99666 0.248425 0)
(8.79013 0.245638 0)
(8.59344 0.240194 0)
(8.40821 0.232773 0)
(8.23554 0.223894 0)
(8.07611 0.213977 0)
(7.93026 0.203315 0)
(7.79811 0.192175 0)
(7.67959 0.180748 0)
(7.5745 0.169152 0)
(7.48253 0.157563 0)
(7.40322 0.14611 0)
(7.33617 0.134773 0)
(7.28091 0.123468 0)
(7.23683 0.11246 0)
(7.20313 0.102203 0)
(7.17932 0.0926412 0)
(7.16459 0.0837756 0)
(7.15777 0.0758622 0)
(7.15923 0.0684135 0)
(7.16767 0.0611099 0)
(7.18166 0.0548214 0)
(7.20109 0.0490747 0)
(7.22512 0.0438596 0)
(7.25296 0.0395296 0)
(7.28413 0.0359618 0)
(7.31812 0.0330147 0)
(7.35438 0.0306298 0)
(7.39246 0.0287312 0)
(7.43197 0.0272561 0)
(7.47256 0.0261424 0)
(7.51395 0.0253475 0)
(7.55588 0.0248293 0)
(7.59816 0.0245382 0)
(7.64061 0.0244213 0)
(7.6831 0.0244325 0)
(7.72551 0.0245344 0)
(7.76774 0.024701 0)
(7.80971 0.0249277 0)
(7.85137 0.0252125 0)
(7.89268 0.0255368 0)
(7.93365 0.0258801 0)
(7.97424 0.0262298 0)
(8.01445 0.0265806 0)
(8.05429 0.0269284 0)
(8.09375 0.0272674 0)
(8.13286 0.0275898 0)
(8.17161 0.0278903 0)
(8.21003 0.028167 0)
(8.24814 0.0284193 0)
(8.28594 0.0286483 0)
(8.32345 0.0288557 0)
(8.3607 0.029043 0)
(8.39769 0.0292113 0)
(8.43445 0.0293617 0)
(8.47098 0.0294954 0)
(8.5073 0.0296138 0)
(8.54342 0.0297183 0)
(8.57935 0.0298106 0)
(8.6151 0.0298922 0)
(8.65069 0.0299647 0)
(8.68611 0.0300294 0)
(8.72138 0.0300877 0)
(8.75651 0.0301406 0)
(8.79149 0.0301884 0)
(8.82635 0.030231 0)
(8.86107 0.0302676 0)
(8.89567 0.0302965 0)
(8.93016 0.030316 0)
(8.96453 0.0303242 0)
(8.99879 0.0303191 0)
(9.03294 0.0302995 0)
(9.06699 0.0302642 0)
(9.10094 0.0302127 0)
(9.13479 0.0301449 0)
(9.16855 0.0300611 0)
(9.20222 0.0299618 0)
(9.2358 0.0298478 0)
(9.26929 0.0297203 0)
(9.3027 0.029581 0)
(9.33602 0.0294316 0)
(9.36926 0.0292739 0)
(9.40241 0.02911 0)
(9.43547 0.0289414 0)
(9.46846 0.0287699 0)
(9.50136 0.0285963 0)
(9.53417 0.0284217 0)
(9.56689 0.0282464 0)
(9.59953 0.028071 0)
(9.63207 0.0278955 0)
(9.66453 0.0277199 0)
(9.69688 0.0275442 0)
(9.72914 0.0273683 0)
(9.7613 0.0271922 0)
(9.79335 0.0270158 0)
(9.8253 0.026839 0)
(9.85713 0.0266619 0)
(9.88885 0.0264843 0)
(9.92046 0.0263063 0)
(9.95194 0.026128 0)
(9.98329 0.0259493 0)
(10.0145 0.0257705 0)
(10.0456 0.0255914 0)
(10.0766 0.0254122 0)
(10.1074 0.0252329 0)
(10.138 0.0250533 0)
(10.1686 0.0248737 0)
(10.1989 0.024694 0)
(10.2291 0.0245141 0)
(10.2592 0.0243342 0)
(10.2891 0.0241542 0)
(10.3188 0.023974 0)
(10.3484 0.0237939 0)
(10.3778 0.0236138 0)
(10.407 0.0234336 0)
(10.436 0.0232533 0)
(10.4648 0.0230729 0)
(10.4935 0.0228923 0)
(10.5219 0.0227118 0)
(10.5502 0.0225312 0)
(10.5783 0.0223506 0)
(10.6061 0.0221702 0)
(10.6338 0.0219897 0)
(10.6612 0.0218092 0)
(10.6885 0.0216287 0)
(10.7155 0.021448 0)
(10.7423 0.0212673 0)
(10.7689 0.0210867 0)
(10.7953 0.0209058 0)
(10.8214 0.0207253 0)
(10.8473 0.0205448 0)
(10.873 0.0203639 0)
(10.8985 0.0201834 0)
(10.9237 0.0200029 0)
(10.9486 0.0198223 0)
(10.9733 0.0196421 0)
(10.9978 0.019462 0)
(11.022 0.0192817 0)
(11.046 0.0191021 0)
(11.0697 0.0189223 0)
(11.0931 0.0187426 0)
(11.1163 0.0185634 0)
(11.1392 0.0183843 0)
(11.1619 0.0182051 0)
(11.1843 0.0180266 0)
(11.2064 0.0178482 0)
(11.2282 0.0176701 0)
(11.2497 0.0174925 0)
(11.271 0.0173153 0)
(11.292 0.0171382 0)
(11.3127 0.0169617 0)
(11.3331 0.0167857 0)
(11.3532 0.0166099 0)
(11.373 0.0164349 0)
(11.3925 0.0162599 0)
(11.4117 0.0160854 0)
(11.4306 0.0159107 0)
(11.4492 0.0157366 0)
(11.4675 0.0155625 0)
(11.4854 0.0153887 0)
(11.5031 0.0152156 0)
(11.5204 0.0150419 0)
(11.5374 0.0148689 0)
(11.5541 0.014696 0)
(11.5705 0.0145229 0)
(11.5865 0.0143504 0)
(11.6023 0.0141779 0)
(11.6176 0.0140057 0)
(11.6327 0.0138335 0)
(11.6474 0.0136616 0)
(11.6618 0.01349 0)
(11.6758 0.0133183 0)
(11.6895 0.0131469 0)
(11.7028 0.0129757 0)
(11.7158 0.0128045 0)
(11.7284 0.012633 0)
(11.7407 0.0124623 0)
(11.7526 0.0122909 0)
(11.7642 0.0121195 0)
(11.7754 0.0119486 0)
(11.7862 0.0117777 0)
(11.7967 0.0116069 0)
(11.8068 0.0114367 0)
(11.8165 0.0112653 0)
(11.8259 0.011095 0)
(11.8349 0.0109247 0)
(11.8435 0.0107544 0)
(11.8518 0.0105833 0)
(11.8597 0.0104128 0)
(11.8671 0.0102406 0)
(11.8743 0.0100705 0)
(11.881 0.00989756 0)
(11.8873 0.00972834 0)
(11.8933 0.00955292 0)
(11.8989 0.00938511 0)
(11.9041 0.00920538 0)
(11.9089 0.00904055 0)
(11.9133 0.00885205 0)
(11.9173 0.00869295 0)
(11.921 0.00849195 0)
(11.9241 0.00833845 0)
(11.9272 0.00813461 0)
(11.9294 0.00795692 0)
(11.9317 0.00779982 0)
(11.9332 0.00760454 0)
(11.9345 0.0074046 0)
(11.9355 0.00718054 0)
(11.9359 0.00710488 0)
(11.9359 0.00679306 0)
(11.9356 0.00659039 0)
(11.935 0.00633224 0)
(11.9341 0.00626318 0)
(11.9323 0.00565706 0)
(11.9302 0.00558053 0)
(11.9282 0.00454177 0)
(11.9274 0.00406866 0)
(11.9169 -0.000458379 0)
(11.9436 -0.00110592 0)
(0.0232535 -0.072213 0)
(0.174633 -0.250997 0)
(0.430775 -0.416419 0)
(0.757066 -0.538399 0)
(1.12533 -0.566501 0)
(1.47248 -0.523823 0)
(1.78336 -0.408061 0)
(2.03336 -0.259732 0)
(2.20939 -0.0946159 0)
(2.33507 0.0335459 0)
(2.35585 0.130844 0)
(2.27575 0.184157 0)
(2.14501 0.227046 0)
(1.98251 0.238275 0)
(1.80988 0.227683 0)
(1.6379 0.202824 0)
(1.47757 0.17846 0)
(1.32262 0.166115 0)
(1.15938 0.181846 0)
(0.9695 0.23965 0)
(0.724322 0.347544 0)
(0.38188 0.489646 0)
(-0.0823708 0.647699 0)
(-0.686358 0.854849 0)
(-1.45052 1.08995 0)
(-2.40378 1.36222 0)
(-3.54984 1.67311 0)
(-4.87448 1.98721 0)
(-6.34557 2.3139 0)
(-7.91382 2.63238 0)
(-9.52103 2.87178 0)
(-11.0797 2.98982 0)
(-12.5406 2.99826 0)
(-13.791 2.84485 0)
(-14.8704 2.61342 0)
(-15.6379 2.1908 0)
(-16.1867 1.67116 0)
(-16.4741 1.06925 0)
(-16.4642 0.439106 0)
(-16.19 -0.21208 0)
(-15.6332 -0.848295 0)
(-14.8269 -1.49014 0)
(-13.7786 -2.106 0)
(-12.4906 -2.68591 0)
(-11.0033 -3.18949 0)
(-9.32542 -3.61757 0)
(-7.4977 -3.92754 0)
(-5.53174 -4.14197 0)
(-3.48856 -4.16715 0)
(-1.36862 -4.15435 0)
(0.806719 -4.08748 0)
(2.9782 -3.92695 0)
(5.07371 -3.60532 0)
(7.03753 -3.14028 0)
(8.78653 -2.55185 0)
(10.3076 -1.89603 0)
(11.5528 -1.23628 0)
(12.5429 -0.667937 0)
(13.2276 -0.180786 0)
(13.6175 0.0541301 0)
(13.6352 0.194218 0)
(13.4321 0.273106 0)
(13.1115 0.171509 0)
(12.6398 -0.00833057 0)
(12.011 -0.121526 0)
(11.2666 -0.0412524 0)
(10.4459 0.343191 0)
(9.4504 1.0111 0)
(7.99572 1.85487 0)
(5.93592 2.74764 0)
(3.4125 3.51352 0)
(0.503417 4.07719 0)
(-2.54475 4.59343 0)
(-5.5394 4.89227 0)
(-8.31678 5.01228 0)
(-10.716 4.96153 0)
(-12.6689 4.76594 0)
(-14.1978 4.3924 0)
(-15.3925 3.91694 0)
(-16.3247 3.37043 0)
(-17.0079 2.80694 0)
(-17.4724 2.21194 0)
(-17.839 1.64628 0)
(-17.937 0.994239 0)
(-17.8675 0.167035 0)
(-17.2941 -0.616432 0)
(-16.5891 -1.36892 0)
(-15.6674 -2.02843 0)
(-14.5804 -2.62293 0)
(-13.2935 -3.12838 0)
(-11.8336 -3.56495 0)
(-10.2358 -3.91315 0)
(-8.51627 -4.18011 0)
(-6.68992 -4.35383 0)
(-4.77045 -4.43104 0)
(-2.78352 -4.36845 0)
(-0.768858 -4.16829 0)
(1.20427 -4.01426 0)
(3.14556 -3.95494 0)
(5.07402 -3.86628 0)
(6.95589 -3.79001 0)
(8.7992 -3.71962 0)
(10.6185 -3.59143 0)
(12.3607 -3.38685 0)
(14.0409 -3.14548 0)
(15.6248 -2.84185 0)
(17.1165 -2.52129 0)
(18.5034 -2.15744 0)
(19.7781 -1.77481 0)
(20.9296 -1.38697 0)
(21.9626 -1.00745 0)
(22.8166 -0.545093 0)
(23.5012 -0.0491711 0)
(24.0675 0.317655 0)
(24.4224 0.675726 0)
(24.5295 1.03743 0)
(24.3674 1.34337 0)
(23.9766 1.58701 0)
(23.3657 1.78483 0)
(22.5538 1.93011 0)
(21.5763 2.00881 0)
(20.4733 2.01926 0)
(19.2907 1.97814 0)
(18.0788 1.89932 0)
(16.8836 1.79023 0)
(15.7435 1.65897 0)
(14.684 1.51109 0)
(13.7219 1.35194 0)
(12.866 1.18637 0)
(12.1124 1.01443 0)
(11.4719 0.84708 0)
(10.9168 0.689095 0)
(10.4527 0.541785 0)
(10.0619 0.413656 0)
(9.73292 0.308277 0)
(9.45278 0.230345 0)
(9.20778 0.179759 0)
(8.98025 0.160465 0)
(8.74912 0.168729 0)
(8.49451 0.205011 0)
(8.19752 0.259806 0)
(7.85062 0.335818 0)
(7.44734 0.415828 0)
(7.00117 0.50753 0)
(6.50096 0.590065 0)
(5.9822 0.679448 0)
(5.42722 0.770768 0)
(4.87112 0.848768 0)
(4.29665 0.923301 0)
(3.7317 0.976882 0)
(3.1632 1.02135 0)
(2.61344 1.03656 0)
(2.07322 1.03456 0)
(1.56211 1.01406 0)
(1.08018 0.969799 0)
(0.645845 0.89787 0)
(0.283504 0.782973 0)
(-0.0211055 0.639367 0)
(-0.211248 0.459195 0)
(-0.326728 0.252903 0)
(-0.314096 0.0453544 0)
(-0.184305 -0.179711 0)
(0.0652562 -0.402051 0)
(0.443428 -0.623849 0)
(0.94426 -0.833522 0)
(1.56616 -1.0284 0)
(2.29591 -1.19936 0)
(3.12166 -1.34285 0)
(4.02759 -1.45591 0)
(4.9993 -1.53998 0)
(6.01966 -1.58652 0)
(7.06876 -1.5947 0)
(8.12958 -1.5744 0)
(9.18636 -1.52059 0)
(10.2255 -1.43903 0)
(11.2343 -1.33443 0)
(12.2023 -1.21216 0)
(13.1201 -1.07652 0)
(13.9793 -0.932164 0)
(14.7729 -0.781688 0)
(15.4945 -0.629197 0)
(16.1378 -0.475112 0)
(16.6984 -0.321679 0)
(17.1712 -0.178496 0)
(17.5569 -0.0472058 0)
(17.8575 0.0461397 0)
(18.0585 0.151177 0)
(18.1686 0.264383 0)
(18.1828 0.3774 0)
(18.1195 0.46492 0)
(17.9975 0.531739 0)
(17.818 0.582884 0)
(17.5796 0.625514 0)
(17.2871 0.655525 0)
(16.9504 0.675035 0)
(16.5758 0.684467 0)
(16.1696 0.683254 0)
(15.7383 0.671927 0)
(15.2897 0.653375 0)
(14.8329 0.626645 0)
(14.3789 0.590477 0)
(13.9383 0.545601 0)
(13.5201 0.491874 0)
(13.1329 0.432036 0)
(12.784 0.369616 0)
(12.479 0.30806 0)
(12.2214 0.250839 0)
(12.0121 0.199035 0)
(11.8492 0.154041 0)
(11.7274 0.117175 0)
(11.6396 0.0881945 0)
(11.5782 0.0664307 0)
(11.5345 0.0523658 0)
(11.4985 0.0470257 0)
(11.4565 0.0500892 0)
(11.3953 0.0637271 0)
(11.3026 0.0836531 0)
(11.1676 0.107955 0)
(10.9819 0.13619 0)
(10.7408 0.168048 0)
(10.4412 0.205534 0)
(10.0815 0.256164 0)
(9.66146 0.3247 0)
(9.17736 0.416348 0)
(8.63134 0.530877 0)
(8.01763 0.662229 0)
(7.34506 0.8116 0)
(6.6081 0.97919 0)
(5.82876 1.14571 0)
(5.00899 1.30491 0)
(4.16767 1.4386 0)
(3.31774 1.54038 0)
(2.47103 1.61088 0)
(1.63717 1.66724 0)
(0.819943 1.72209 0)
(0.0522557 1.74989 0)
(-0.66168 1.72967 0)
(-1.28092 1.65627 0)
(-1.82646 1.53632 0)
(-2.27902 1.36775 0)
(-2.61145 1.14686 0)
(-2.83829 0.89327 0)
(-2.95066 0.612647 0)
(-2.92637 0.313297 0)
(-2.77982 0.0252263 0)
(-2.53693 -0.233547 0)
(-2.21476 -0.426791 0)
(-1.80772 -0.599739 0)
(-1.32023 -0.749668 0)
(-0.750565 -0.886835 0)
(-0.110428 -1.00713 0)
(0.595032 -1.11231 0)
(1.35807 -1.20238 0)
(2.17163 -1.27846 0)
(3.03016 -1.34197 0)
(3.92849 -1.39447 0)
(4.86131 -1.43282 0)
(5.8212 -1.45396 0)
(6.8015 -1.45732 0)
(7.79449 -1.4427 0)
(8.79233 -1.4103 0)
(9.78643 -1.36374 0)
(10.7665 -1.2972 0)
(11.7216 -1.2101 0)
(12.6399 -1.10318 0)
(13.5092 -0.979188 0)
(14.317 -0.841445 0)
(15.0503 -0.69447 0)
(15.6964 -0.541538 0)
(16.2431 -0.382509 0)
(16.6821 -0.225266 0)
(17.0066 -0.0749886 0)
(17.2171 0.0543261 0)
(17.3174 0.171513 0)
(17.3086 0.264367 0)
(17.2222 0.333638 0)
(17.0725 0.399997 0)
(16.8678 0.45403 0)
(16.6209 0.488657 0)
(16.3426 0.510783 0)
(16.0466 0.520184 0)
(15.7445 0.518161 0)
(15.4443 0.508007 0)
(15.1522 0.49226 0)
(14.8728 0.472416 0)
(14.6091 0.449691 0)
(14.363 0.425112 0)
(14.1356 0.399423 0)
(13.9275 0.373187 0)
(13.7387 0.346852 0)
(13.5689 0.320743 0)
(13.4178 0.295056 0)
(13.2848 0.270122 0)
(13.1693 0.246059 0)
(13.0705 0.222656 0)
(12.9875 0.200308 0)
(12.9194 0.179411 0)
(12.8656 0.159435 0)
(12.825 0.140526 0)
(12.7969 0.122602 0)
(12.7795 0.106742 0)
(12.7723 0.093011 0)
(12.7754 0.0809482 0)
(12.7861 0.0691369 0)
(12.803 0.0588546 0)
(12.8261 0.0508266 0)
(12.8549 0.043668 0)
(12.8883 0.0375245 0)
(12.9257 0.0324091 0)
(12.9661 0.0282688 0)
(13.0091 0.0249903 0)
(13.0541 0.0224484 0)
(13.1007 0.0205431 0)
(13.1485 0.0191842 0)
(13.1972 0.0182841 0)
(13.2465 0.01776 0)
(13.2961 0.0175499 0)
(13.3458 0.0176116 0)
(13.3955 0.0179048 0)
(13.4451 0.0183928 0)
(13.4944 0.019021 0)
(13.5434 0.0197251 0)
(13.592 0.0204659 0)
(13.6402 0.0212324 0)
(13.6879 0.0220186 0)
(13.7352 0.0228075 0)
(13.782 0.02358 0)
(13.8283 0.0243228 0)
(13.8742 0.0250334 0)
(13.9195 0.02571 0)
(13.9645 0.026351 0)
(14.009 0.0269523 0)