/*--------------------------------*- C++ -*----------------------------------*\
| =========                 |                                                 |
| \\      /  F ield         | OpenFOAM: The Open Source CFD Toolbox           |
|  \\    /   O peration     | Version:  v1812                                 |
|   \\  /    A nd           | Web:      www.OpenFOAM.com                      |
|    \\/     M anipulation  |                                                 |
\*---------------------------------------------------------------------------*/
FoamFile
{
    version     2.0;
    format      ascii;
    class       volScalarField;
    location    "0.3";
    object      p;
}
// * * * * * * * * * * * * * * * * * * * * * * * * * * * * * * * * * * * * * //

dimensions      [1 -1 -2 0 0 0 0];


internalField   nonuniform List<scalar> 
20400
(
100042
100039
100051
100055
100059
100066
100071
100078
100087
100095
100104
100116
100125
100135
100150
100165
100177
100196
100216
100234
100254
100272
100290
100311
100330
100348
100371
100376
100406
100413
100434
100441
100451
100463
100474
100490
100509
100532
100558
100585
100619
100645
100678
100712
100745
100784
100822
100860
100893
100931
100971
101017
101060
101102
101139
101179
101214
101247
101278
101304
101325
101341
101353
101359
101357
101351
101343
101330
101310
101297
101261
101230
101194
101156
101113
101068
101023
100977
100926
100874
100821
100766
100711
100654
100598
100544
100485
100428
100376
100321
100268
100215
100161
100109
100058
100008
99961.8
99916.1
99872
99829.9
99789.9
99752.1
99716.6
99683.5
99653
99625.1
99600.1
99577.8
99558.5
99542.1
99528.6
99518.1
99510.3
99504.7
99502.2
99501.6
99503.9
99509.3
99517.4
99528
99541.2
99557.7
99577.1
99598.9
99623.1
99649.6
99678.2
99709
99741.9
99776.4
99813
99851.2
99891
99932.2
99974.8
100019
100063
100110
100156
100204
100252
100300
100349
100398
100447
100497
100546
100594
100643
100691
100738
100785
100831
100876
100920
100963
101005
101045
101084
101122
101158
101192
101224
101255
101283
101310
101334
101356
101376
101393
101408
101422
101433
101441
101447
101452
101454
101454
101453
101448
101441
101432
101420
101406
101390
101372
101352
101330
101306
101281
101255
101227
101198
101167
101136
101104
101071
101038
101005
100971
100937
100902
100868
100835
100801
100768
100736
100705
100674
100645
100616
100589
100563
100538
100515
100494
100474
100456
100439
100425
100412
100402
100393
100386
100381
100377
100375
100375
100376
100380
100386
100393
100403
100415
100428
100443
100460
100478
100498
100520
100543
100567
100593
100619
100647
100676
100706
100737
100768
100800
100833
100866
100899
100932
100966
100999
101032
101065
101097
101129
101160
101190
101219
101246
101273
101298
101322
101344
101365
101384
101401
101416
101429
101441
101450
101457
101462
101466
101467
101467
101465
101461
101456
101449
101440
101430
101418
101405
101391
101375
101359
101341
101323
101304
101285
101265
101246
101226
101206
101186
101166
101147
101128
101110
101093
101076
101060
101045
101030
101017
101005
100994
100983
100974
100966
100959
100953
100948
100944
100941
100939
100937
100937
100937
100938
100940
100942
100945
100948
100951
100955
100959
100964
100969
100973
100978
100983
100988
100993
100998
101003
101008
101012
101017
101021
101026
101030
101034
101038
101041
101045
101049
101052
101055
101059
101062
101066
101069
101072
101076
101079
101083
101087
101090
101094
101098
101102
101106
101111
101115
101120
101124
101128
101133
101138
101141
101146
101149
101153
101158
101161
101164
101169
101172
101176
101179
101181
101184
101186
101188
101189
101191
101192
101192
101193
101193
101193
101192
101192
101191
101190
101188
101187
101185
101184
101182
101181
101180
101179
101177
101177
101176
101176
101175
101176
101176
101177
101178
101180
101182
101184
101187
101190
101193
101197
101201
101205
101210
101215
101220
101226
101231
101237
101243
101248
101254
101260
101265
101271
101276
101281
101286
101290
101294
101298
101301
101305
101307
101309
101311
101313
101313
101314
101314
101313
101312
101311
101309
101307
101305
101302
101299
101296
101293
101289
101285
101282
101278
101274
101270
101267
101263
101261
101257
101255
101252
101250
101248
101247
101246
101246
101246
101246
101247
101249
101251
101254
101257
101261
101265
101270
101275
101280
101285
101292
101297
101303
101309
101314
101323
100040
100034
100041
100045
100048
100054
100060
100067
100078
100088
100101
100115
100127
100139
100155
100161
100170
100182
100191
100202
100211
100223
100237
100251
100265
100280
100289
100284
100332
100373
100398
100415
100433
100458
100485
100514
100544
100573
100600
100618
100641
100666
100700
100727
100766
100818
100861
100906
100945
100981
101017
101050
101082
101111
101135
101161
101184
101204
101225
101242
101257
101269
101278
101284
101282
101276
101269
101271
101260
101188
101163
101126
101088
101049
101009
100969
100928
100886
100843
100799
100753
100707
100660
100612
100563
100516
100464
100414
100364
100313
100264
100215
100166
100117
100070
100022
99976.9
99932.3
99889
99847.3
99807.4
99769.2
99733.3
99699.5
99668.1
99639.3
99613.1
99589.7
99569.2
99551.6
99537
99525.2
99516.2
99509.9
99506.2
99504.8
99506.3
99511.1
99518.6
99528.9
99542.2
99558.3
99577.6
99599.3
99623.5
99650.1
99678.9
99709.8
99742.8
99777.7
99814.4
99852.8
99892.7
99934.1
99976.9
100021
100066
100112
100159
100206
100254
100303
100352
100401
100450
100499
100549
100597
100646
100694
100741
100788
100833
100878
100922
100965
101007
101047
101086
101123
101159
101193
101225
101255
101284
101310
101334
101356
101375
101393
101408
101420
101431
101439
101445
101449
101451
101452
101450
101445
101438
101428
101416
101402
101386
101367
101347
101325
101302
101277
101250
101222
101193
101163
101131
101099
101067
101033
101000
100966
100932
100898
100864
100830
100797
100764
100732
100700
100670
100640
100612
100585
100559
100535
100512
100490
100471
100453
100436
100422
100410
100399
100390
100384
100378
100375
100373
100373
100375
100379
100385
100393
100402
100414
100427
100443
100460
100478
100498
100520
100543
100567
100593
100620
100648
100677
100706
100737
100769
100801
100833
100866
100900
100933
100966
101000
101033
101066
101098
101130
101161
101191
101220
101247
101274
101299
101323
101345
101366
101385
101402
101417
101430
101441
101450
101458
101463
101466
101468
101467
101465
101462
101456
101449
101440
101430
101418
101405
101390
101375
101358
101341
101322
101303
101284
101264
101244
101224
101204
101184
101164
101145
101126
101108
101090
101073
101057
101042
101028
101014
101002
100991
100980
100971
100963
100956
100950
100945
100940
100937
100935
100934
100933
100933
100934
100936
100938
100941
100944
100948
100951
100956
100960
100965
100970
100974
100979
100984
100989
100994
100999
101004
101009
101013
101018
101022
101026
101030
101034
101038
101041
101045
101048
101052
101055
101058
101062
101065
101068
101072
101075
101079
101082
101086
101090
101094
101097
101102
101105
101110
101115
101119
101125
101129
101132
101137
101141
101153
101159
101161
101159
101160
101167
101179
101183
101185
101187
101189
101191
101193
101195
101196
101198
101198
101199
101199
101199
101198
101198
101197
101196
101194
101193
101192
101190
101188
101187
101186
101184
101183
101182
101181
101181
101181
101181
101181
101182
101183
101184
101186
101188
101191
101194
101197
101201
101205
101209
101213
101218
101223
101229
101234
101239
101245
101251
101256
101262
101267
101272
101277
101282
101287
101291
101295
101299
101302
101305
101308
101310
101311
101313
101313
101314
101314
101313
101312
101311
101310
101308
101305
101303
101300
101297
101294
101291
101287
101284
101281
101277
101274
101271
101268
101265
101263
101260
101258
101257
101256
101255
101254
101254
101254
101255
101256
101258
101260
101262
101265
101268
101272
101277
101281
101286
101291
101299
101297
101300
101303
101307
101318
100029
100015
100027
100033
100040
100045
100053
100062
100075
100088
100101
100116
100132
100142
100164
100188
100210
100231
100253
100277
100301
100324
100351
100376
100402
100421
100429
100417
100432
100436
100455
100464
100471
100475
100477
100487
100503
100521
100544
100596
100610
100634
100650
100675
100702
100740
100764
100792
100823
100850
100879
100905
100932
100958
100980
101006
101032
101060
101089
101118
101147
101174
101201
101224
101243
101257
101267
101269
101260
101254
101233
101211
101184
101154
101118
101081
101038
100974
100919
100865
100811
100756
100702
100646
100591
100543
100483
100429
100373
100320
100267
100215
100161
100110
100058
100010
99964.1
99918.7
99874.8
99831.6
99791.6
99753.5
99717.9
99684.7
99653.9
99626
99600.8
99578.4
99558.9
99542.4
99528.8
99517.8
99510
99505
99501.9
99501.3
99503.5
99509.1
99517.2
99528.1
99541.7
99558.3
99577.4
99599.3
99623.6
99650.2
99679.1
99710
99742.9
99777.9
99814.5
99852.8
99892.7
99934
99976.6
100020
100066
100111
100158
100206
100254
100302
100351
100400
100450
100499
100548
100597
100645
100693
100741
100787
100833
100878
100922
100965
101007
101047
101086
101124
101160
101194
101226
101257
101285
101312
101336
101358
101378
101395
101411
101423
101434
101443
101449
101453
101455
101456
101454
101450
101442
101433
101421
101407
101391
101373
101353
101331
101307
101282
101256
101228
101199
101168
101137
101105
101073
101039
101006
100972
100938
100904
100870
100836
100802
100769
100737
100706
100675
100645
100617
100590
100564
100539
100516
100494
100475
100456
100440
100425
100413
100402
100393
100386
100381
100377
100375
100375
100376
100380
100386
100393
100403
100414
100427
100442
100459
100477
100497
100519
100541
100566
100591
100618
100646
100674
100704
100735
100766
100798
100831
100864
100897
100930
100964
100997
101030
101063
101095
101126
101157
101187
101216
101244
101271
101296
101320
101342
101363
101382
101399
101414
101427
101438
101448
101454
101460
101463
101465
101465
101463
101460
101454
101447
101439
101429
101417
101405
101390
101375
101359
101341
101323
101304
101285
101266
101246
101226
101206
101187
101167
101148
101129
101111
101094
101077
101061
101046
101032
101019
101007
100996
100985
100976
100968
100961
100955
100950
100946
100943
100941
100940
100939
100939
100940
100942
100944
100947
100950
100953
100957
100962
100966
100971
100975
100980
100985
100990
100995
101000
101005
101010
101015
101019
101024
101028
101032
101036
101040
101044
101047
101051
101055
101058
101062
101065
101068
101072
101075
101079
101083
101086
101090
101094
101098
101102
101107
101111
101116
101119
101122
101127
101131
101135
101141
101145
101148
101147
101149
101156
101165
101172
101172
101169
101170
101174
101179
101181
101183
101185
101187
101188
101189
101189
101190
101190
101189
101189
101188
101187
101186
101185
101183
101182
101180
101179
101177
101176
101175
101174
101173
101172
101172
101171
101172
101172
101173
101174
101176
101178
101180
101183
101186
101189
101193
101197
101202
101206
101211
101216
101222
101227
101233
101239
101245
101250
101256
101262
101267
101272
101277
101282
101287
101291
101295
101298
101301
101304
101306
101308
101309
101310
101311
101311
101310
101309
101308
101306
101304
101302
101299
101296
101293
101290
101286
101282
101278
101274
101270
101266
101262
101258
101254
101251
101248
101245
101242
101239
101237
101236
101235
101234
101234
101234
101235
101236
101238
101240
101243
101246
101250
101254
101258
101262
101266
101285
101292
101300
101310
101323
100043
100031
100040
100045
100049
100054
100059
100067
100080
100090
100101
100113
100125
100137
100156
100172
100189
100206
100225
100243
100260
100275
100291
100315
100342
100363
100387
100418
100436
100441
100454
100462
100470
100484
100497
100507
100519
100534
100556
100559
100593
100621
100658
100698
100727
100751
100790
100835
100876
100915
100959
101000
101043
101085
101121
101161
101198
101232
101264
101291
101315
101331
101342
101348
101349
101341
101325
101303
101277
101263
101230
101205
101176
101146
101110
101074
101037
100984
100929
100877
100825
100770
100716
100662
100610
100544
100483
100424
100368
100312
100259
100205
100154
100104
100054
100004
99957.1
99912.5
99868.9
99827.2
99788.9
99751.4
99715.3
99682.7
99652.5
99624.9
99600
99577.9
99558.6
99542.3
99528.9
99518.3
99510.4
99505
99502.3
99501.7
99503.8
99509.1
99517.2
99528
99541.8
99558.1
99577.3
99599.1
99623.5
99650.2
99679.1
99710.1
99743.1
99778
99814.7
99853
99892.9
99934.3
99977
100021
100066
100112
100159
100206
100254
100303
100352
100401
100451
100500
100549
100598
100646
100694
100742
100789
100835
100880
100924
100967
101008
101049
101088
101125
101161
101195
101228
101258
101287
101313
101337
101359
101379
101396
101411
101424
101435
101443
101449
101453
101456
101456
101455
101450
101443
101433
101421
101407
101391
101373
101352
101331
101307
101282
101255
101227
101198
101168
101136
101104
101071
101038
101004
100970
100936
100902
100868
100834
100800
100767
100735
100704
100673
100643
100615
100588
100561
100537
100514
100492
100472
100454
100438
100423
100411
100400
100391
100384
100379
100375
100373
100373
100374
100378
100384
100391
100401
100413
100426
100441
100458
100476
100496
100518
100541
100565
100590
100617
100645
100674
100704
100734
100766
100798
100830
100863
100896
100930
100963
100996
101029
101062
101094
101126
101157
101186
101215
101243
101270
101295
101319
101341
101362
101380
101398
101413
101426
101437
101447
101454
101459
101463
101464
101464
101462
101458
101453
101446
101437
101427
101416
101403
101389
101373
101357
101340
101322
101303
101284
101264
101244
101224
101204
101185
101165
101146
101127
101109
101092
101075
101059
101044
101030
101016
101004
100993
100983
100973
100965
100958
100952
100947
100943
100939
100937
100936
100935
100935
100936
100938
100940
100942
100946
100949
100953
100957
100961
100966
100971
100975
100980
100985
100990
100995
101000
101005
101009
101014
101018
101022
101027
101031
101035
101038
101042
101046
101049
101053
101056
101060
101063
101067
101070
101074
101077
101081
101085
101089
101093
101097
101101
101105
101109
101113
101119
101123
101127
101133
101138
101143
101147
101152
101155
101159
101163
101169
101174
101175
101178
101182
101185
101188
101190
101192
101194
101195
101196
101196
101197
101197
101197
101196
101196
101195
101193
101192
101191
101189
101188
101186
101184
101183
101182
101180
101179
101178
101178
101178
101178
101178
101179
101180
101181
101183
101185
101187
101190
101193
101197
101201
101205
101210
101214
101219
101225
101230
101235
101241
101246
101252
101257
101263
101268
101273
101278
101282
101287
101291
101295
101298
101301
101303
101306
101307
101309
101310
101310
101310
101310
101309
101308
101306
101304
101302
101300
101297
101294
101291
101287
101284
101280
101277
101273
101270
101266
101263
101260
101257
101254
101252
101250
101249
101247
101247
101246
101247
101247
101248
101250
101252
101254
101257
101261
101265
101269
101274
101279
101285
101291
101296
101302
101308
101314
101323
100036
100021
100035
100041
100045
100050
100056
100063
100075
100086
100098
100114
100127
100145
100168
100192
100212
100234
100258
100280
100297
100311
100326
100341
100350
100356
100363
100375
100389
100395
100408
100416
100422
100433
100445
100454
100470
100489
100513
100534
100567
100599
100633
100674
100709
100749
100779
100815
100849
100887
100930
100972
101016
101065
101105
101146
101185
101219
101251
101279
101304
101323
101337
101351
101363
101369
101361
101343
101323
101306
101268
101236
101199
101161
101112
101063
101016
100973
100924
100873
100822
100767
100711
100655
100604
100546
100483
100427
100372
100318
100266
100211
100156
100103
100051
100001
99955.4
99911.2
99868.1
99824
99785.5
99747.7
99712.5
99680.1
99649.6
99622
99597.1
99575
99555.6
99539.1
99525.5
99514.8
99507
99502
99499.7
99499.6
99502.2
99507.8
99516.3
99527.3
99541.2
99557.8
99577.2
99599
99623.4
99650.2
99679.1
99710.2
99743.3
99778.2
99815
99853.4
99893.3
99934.8
99977.5
100022
100067
100113
100160
100207
100255
100304
100353
100402
100452
100501
100550
100599
100648
100696
100743
100790
100836
100881
100925
100968
101010
101051
101090
101127
101163
101197
101230
101260
101289
101315
101339
101361
101381
101398
101413
101426
101437
101445
101451
101455
101458
101458
101456
101452
101444
101435
101423
101408
101392
101374
101354
101332
101308
101283
101256
101228
101199
101168
101137
101105
101072
101039
101005
100971
100937
100902
100868
100834
100801
100768
100735
100704
100673
100643
100615
100587
100561
100537
100513
100492
100472
100454
100437
100423
100410
100399
100390
100383
100378
100374
100372
100372
100373
100377
100383
100390
100399
100411
100424
100439
100456
100474
100494
100515
100538
100562
100588
100615
100642
100671
100701
100731
100763
100795
100827
100860
100893
100926
100960
100993
101026
101058
101090
101122
101153
101183
101211
101239
101266
101291
101315
101337
101358
101376
101394
101409
101422
101434
101443
101450
101456
101459
101461
101461
101459
101455
101450
101443
101435
101425
101414
101401
101387
101372
101356
101338
101320
101302
101283
101263
101244
101224
101204
101185
101165
101146
101128
101110
101092
101076
101060
101045
101030
101017
101005
100994
100983
100974
100966
100959
100953
100948
100943
100940
100938
100937
100936
100936
100937
100938
100940
100943
100946
100949
100953
100957
100961
100966
100971
100975
100980
100985
100990
100995
100999
101004
101009
101013
101018
101022
101026
101030
101034
101038
101042
101045
101049
101053
101056
101060
101064
101067
101071
101075
101078
101082
101086
101090
101094
101098
101103
101107
101112
101116
101121
101126
101130
101135
101140
101145
101149
101153
101158
101162
101167
101171
101173
101177
101180
101184
101187
101189
101192
101194
101196
101197
101198
101198
101199
101199
101199
101198
101197
101196
101195
101194
101192
101191
101189
101187
101186
101184
101183
101182
101180
101180
101179
101178
101178
101179
101179
101180
101181
101183
101185
101187
101190
101193
101197
101201
101205
101209
101214
101219
101224
101229
101234
101239
101245
101250
101256
101261
101266
101271
101276
101280
101285
101289
101292
101296
101299
101301
101304
101305
101307
101308
101308
101308
101308
101307
101306
101305
101303
101301
101298
101296
101293
101290
101287
101283
101280
101276
101273
101269
101266
101263
101260
101257
101255
101252
101250
101249
101248
101247
101247
101247
101248
101249
101250
101252
101255
101258
101261
101265
101270
101275
101280
101285
101291
101297
101303
101309
101316
101323
100031
100013
100030
100036
100041
100045
100049
100057
100068
100079
100089
100102
100115
100127
100148
100166
100183
100205
100221
100245
100268
100290
100312
100329
100339
100346
100351
100359
100369
100371
100381
100394
100398
100411
100427
100442
100462
100480
100507
100532
100570
100606
100649
100695
100728
100768
100810
100849
100892
100929
100972
101007
101047
101082
101109
101142
101178
101206
101233
101257
101278
101293
101302
101306
101311
101315
101313
101304
101292
101276
101245
101219
101188
101158
101119
101070
101025
100977
100924
100871
100816
100760
100705
100648
100595
100545
100480
100422
100366
100311
100258
100208
100154
100102
100052
100003
99954.3
99908.7
99864.5
99822.5
99784.8
99747.4
99710.7
99678.3
99648.3
99620.9
99596.2
99574.3
99555.3
99539.3
99526.2
99516
99508.6
99503.8
99501.6
99501.2
99503.4
99508.6
99516.5
99527.4
99541.2
99557.8
99577.1
99599.1
99623.5
99650.4
99679.4
99710.6
99743.7
99778.8
99815.7
99854.2
99894.3
99935.8
99978.6
100023
100068
100114
100161
100209
100257
100306
100355
100404
100453
100503
100552
100601
100650
100698
100745
100792
100838
100884
100928
100971
101013
101053
101092
101130
101166
101200
101232
101263
101291
101317
101342
101364
101383
101401
101416
101428
101439
101447
101453
101457
101460
101460
101458
101453
101446
101436
101424
101410
101393
101375
101355
101333
101309
101284
101257
101229
101199
101169
101138
101105
101072
101039
101005
100971
100937
100902
100868
100834
100801
100767
100735
100703
100673
100643
100614
100587
100560
100536
100512
100491
100471
100453
100436
100421
100409
100398
100389
100382
100376
100373
100371
100370
100372
100375
100381
100388
100398
100409
100422
100437
100454
100472
100492
100513
100536
100560
100586
100612
100640
100669
100699
100729
100760
100792
100825
100857
100890
100924
100957
100990
101023
101055
101087
101119
101150
101179
101208
101236
101262
101288
101311
101334
101354
101373
101390
101406
101419
101430
101440
101447
101453
101456
101458
101458
101456
101453
101448
101441
101433
101423
101412
101399
101385
101370
101354
101337
101319
101301
101282
101262
101243
101223
101203
101184
101165
101146
101127
101109
101092
101075
101059
101044
101030
101017
101005
100993
100983
100974
100966
100958
100952
100947
100943
100940
100937
100936
100935
100935
100936
100937
100939
100942
100945
100948
100952
100956
100960
100964
100969
100974
100978
100983
100988
100993
100997
101002
101007
101011
101016
101020
101024
101028
101032
101036
101040
101044
101047
101051
101055
101058
101062
101066
101070
101073
101077
101081
101085
101089
101094
101098
101103
101107
101112
101116
101121
101126
101131
101136
101140
101145
101150
101155
101160
101164
101169
101172
101176
101180
101183
101187
101190
101192
101195
101197
101199
101200
101201
101202
101202
101202
101202
101202
101201
101200
101198
101197
101196
101194
101192
101190
101189
101187
101185
101184
101183
101182
101181
101180
101180
101180
101181
101181
101182
101184
101186
101188
101191
101194
101197
101201
101204
101209
101213
101218
101223
101228
101233
101238
101243
101249
101254
101259
101264
101269
101274
101278
101283
101287
101290
101294
101297
101299
101301
101303
101305
101306
101306
101306
101306
101305
101304
101303
101301
101299
101297
101295
101292
101289
101286
101283
101279
101276
101273
101269
101266
101263
101260
101258
101255
101253
101251
101250
101249
101249
101248
101249
101249
101250
101252
101254
101257
101260
101263
101267
101271
101276
101281
101286
101292
101297
101304
101310
101316
101322
100023
100003
100019
100028
100032
100036
100042
100050
100061
100074
100087
100101
100114
100127
100149
100173
100195
100212
100229
100249
100262
100274
100291
100307
100317
100324
100329
100335
100344
100345
100354
100370
100377
100389
100407
100414
100436
100464
100479
100522
100536
100583
100604
100651
100683
100722
100765
100809
100853
100899
100948
100991
101030
101083
101114
101145
101179
101208
101239
101267
101296
101322
101341
101346
101342
101334
101324
101311
101293
101273
101240
101209
101172
101134
101096
101056
101013
100965
100914
100865
100812
100756
100701
100646
100591
100535
100477
100420
100364
100309
100254
100204
100153
100101
100050
100002
99955.2
99909.5
99866.3
99824
99783.5
99745.7
99709.7
99678
99647.1
99620.1
99595.4
99573.6
99554.4
99538.1
99524.8
99514.2
99506.4
99501
99498.1
99498
99500.7
99506.4
99515
99526.4
99540.6
99557.6
99577.2
99599.3
99623.9
99650.8
99679.9
99711.1
99744.4
99779.5
99816.4
99855
99895.2
99936.8
99979.7
100024
100069
100115
100162
100210
100258
100307
100356
100406
100455
100505
100554
100603
100652
100700
100748
100795
100841
100886
100930
100973
101015
101056
101095
101133
101169
101203
101235
101266
101294
101320
101345
101367
101386
101404
101418
101431
101441
101450
101456
101460
101462
101463
101461
101456
101448
101438
101426
101412
101395
101377
101357
101335
101311
101285
101258
101230
101201
101170
101139
101106
101073
101040
101006
100971
100937
100902
100868
100834
100800
100767
100735
100703
100672
100642
100614
100586
100560
100535
100512
100490
100470
100452
100435
100420
100407
100397
100388
100381
100375
100371
100369
100369
100370
100374
100379
100387
100396
100407
100420
100435
100452
100470
100490
100511
100534
100558
100583
100610
100637
100666
100696
100726
100757
100789
100821
100854
100887
100920
100953
100986
101019
101051
101083
101115
101145
101175
101204
101231
101258
101283
101307
101329
101350
101369
101386
101401
101415
101426
101435
101443
101448
101452
101454
101454
101453
101449
101444
101438
101430
101421
101410
101397
101383
101368
101352
101335
101318
101299
101281
101261
101242
101222
101203
101183
101164
101145
101127
101109
101092
101075
101059
101044
101030
101017
101005
100993
100983
100974
100966
100958
100952
100947
100943
100939
100937
100936
100935
100935
100935
100937
100939
100941
100944
100947
100951
100955
100959
100963
100968
100972
100977
100982
100986
100991
100996
101001
101005
101010
101014
101018
101023
101027
101031
101035
101039
101042
101046
101050
101054
101057
101061
101065
101069
101073
101077
101081
101085
101089
101094
101098
101103
101108
101112
101117
101122
101127
101132
101137
101142
101147
101152
101157
101162
101166
101170
101175
101179
101183
101186
101190
101193
101196
101198
101200
101202
101203
101204
101205
101205
101206
101205
101205
101204
101203
101202
101200
101199
101197
101195
101193
101191
101190
101188
101186
101185
101184
101183
101182
101182
101182
101182
101182
101183
101185
101186
101188
101191
101194
101197
101200
101204
101208
101212
101217
101221
101226
101231
101236
101241
101246
101252
101257
101262
101266
101271
101275
101280
101284
101287
101291
101294
101296
101298
101300
101302
101303
101303
101304
101304
101303
101302
101301
101299
101297
101295
101293
101290
101288
101285
101282
101278
101275
101272
101269
101266
101263
101260
101258
101256
101254
101252
101251
101250
101249
101249
101249
101250
101251
101253
101255
101258
101261
101264
101268
101272
101277
101282
101287
101292
101298
101304
101310
101316
101322
100013
99991.5
100007
100018
100023
100027
100032
100041
100053
100066
100079
100094
100107
100120
100136
100155
100178
100201
100222
100239
100254
100265
100279
100290
100299
100307
100311
100315
100328
100330
100335
100355
100351
100376
100384
100407
100434
100456
100495
100524
100565
100593
100638
100671
100712
100744
100781
100817
100858
100897
100943
100977
101022
101055
101087
101113
101147
101178
101207
101230
101248
101272
101295
101310
101319
101321
101317
101307
101292
101271
101242
101215
101181
101142
101098
101054
101009
100959
100908
100859
100804
100751
100698
100641
100588
100534
100474
100416
100361
100305
100253
100200
100148
100096
100046
99997.6
99951.9
99906.7
99863.6
99822.5
99782.6
99745.1
99709.2
99676.8
99646
99618.7
99594
99572.3
99553.5
99537.4
99524.3
99514.1
99506.6
99501.9
99499.7
99499.7
99502.4
99508.3
99516.8
99527.9
99541.7
99558.2
99577.4
99599.4
99624.1
99651.2
99680.4
99711.8
99745.1
99780.4
99817.4
99856.1
99896.4
99938.1
99981.1
100025
100071
100117
100164
100212
100260
100309
100359
100408
100458
100507
100557
100606
100655
100703
100751
100798
100844
100889
100933
100977
101019
101059
101098
101136
101172
101206
101239
101269
101297
101324
101348
101370
101389
101407
101422
101434
101444
101453
101459
101463
101465
101465
101463
101458
101451
101441
101428
101414
101397
101379
101358
101336
101312
101287
101260
101231
101202
101171
101140
101107
101074
101040
101006
100972
100937
100903
100868
100834
100800
100767
100735
100703
100672
100642
100613
100585
100559
100534
100511
100489
100469
100450
100434
100419
100406
100395
100386
100379
100373
100369
100367
100367
100368
100371
100377
100384
100394
100405
100418
100433
100449
100467
100487
100508
100531
100555
100580
100607
100634
100663
100692
100722
100753
100785
100817
100850
100883
100916
100949
100982
101014
101047
101079
101110
101140
101170
101199
101226
101253
101278
101302
101324
101345
101364
101381
101396
101410
101421
101431
101438
101444
101448
101450
101450
101449
101446
101441
101435
101427
101418
101407
101394
101381
101366
101350
101333
101316
101298
101279
101260
101241
101222
101202
101183
101164
101145
101127
101109
101092
101075
101059
101044
101030
101017
101005
100993
100983
100974
100966
100958
100952
100947
100943
100939
100937
100935
100934
100934
100935
100936
100937
100940
100943
100946
100949
100953
100957
100961
100966
100970
100975
100979
100984
100989
100994
100998
101003
101007
101012
101016
101020
101024
101028
101032
101036
101040
101044
101048
101052
101056
101060
101064
101068
101072
101076
101080
101084
101089
101093
101098
101103
101108
101113
101118
101123
101128
101134
101139
101144
101149
101154
101159
101164
101169
101173
101178
101182
101186
101190
101193
101196
101199
101202
101204
101206
101207
101208
101209
101209
101210
101209
101209
101208
101207
101205
101204
101202
101200
101199
101197
101195
101193
101191
101189
101188
101186
101185
101184
101184
101183
101183
101184
101185
101186
101187
101189
101191
101194
101196
101200
101203
101207
101211
101215
101220
101224
101229
101234
101239
101244
101249
101254
101259
101263
101268
101272
101276
101280
101284
101287
101290
101293
101295
101297
101298
101300
101300
101301
101301
101300
101299
101298
101297
101295
101293
101291
101289
101286
101283
101280
101278
101275
101272
101269
101266
101263
101261
101258
101256
101254
101253
101252
101251
101251
101250
101251
101252
101253
101255
101257
101259
101262
101265
101269
101273
101278
101282
101288
101293
101298
101305
101310
101316
101321
100000
99980
99993.9
100005
100009
100012
100019
100027
100038
100052
100064
100081
100096
100114
100137
100149
100171
100187
100205
100224
100237
100249
100260
100270
100277
100286
100290
100292
100302
100301
100318
100324
100345
100353
100380
100385
100402
100440
100459
100500
100535
100573
100612
100653
100700
100739
100772
100806
100859
100899
100949
100997
101034
101090
101109
101123
101157
101187
101222
101254
101275
101288
101299
101306
101310
101308
101301
101289
101272
101251
101221
101193
101163
101130
101089
101046
101002
100952
100902
100852
100799
100747
100692
100635
100580
100524
100467
100411
100355
100302
100249
100197
100147
100095
100044
99995.5
99949.3
99904.1
99860.4
99819.6
99780.4
99743.2
99707.7
99675.3
99645.2
99618
99593.4
99571.6
99552.6
99536.8
99523.5
99513.4
99506.1
99501.6
99499.5
99499.2
99501.3
99506.4
99514.5
99525.7
99539.9
99557
99577
99599.5