/*--------------------------------*- C++ -*----------------------------------*\
| =========                 |                                                 |
| \\      /  F ield         | OpenFOAM: The Open Source CFD Toolbox           |
|  \\    /   O peration     | Version:  v1812                                 |
|   \\  /    A nd           | Web:      www.OpenFOAM.com                      |
|    \\/     M anipulation  |                                                 |
\*---------------------------------------------------------------------------*/
FoamFile
{
    version     2.0;
    format      ascii;
    class       surfaceScalarField;
    location    "0.3";
    object      phi;
}
// * * * * * * * * * * * * * * * * * * * * * * * * * * * * * * * * * * * * * //

dimensions      [1 0 -1 0 0 0 0];
oriented        oriented;


internalField   nonuniform List<scalar> 
40240
(
-0.00139009
0.000438926
-0.00239996
6.29267e-05
-0.00303292
-0.000311787
-0.00356004
-0.000414751
-0.00404791
-0.000447658
-0.00451275
-0.000464336
-0.00502162
-0.000412174
-0.00559875
-0.000334974
-0.00622048
-0.000280337
-0.0069158
-0.000196502
-0.00767574
-0.000120052
-0.00844226
-9.99382e-05
-0.00927483
-2.42051e-05
-0.0101347
2.35493e-05
-0.0108915
-6.7726e-05
-0.0116175
-8.77655e-05
-0.0124535
2.91851e-05
-0.0132811
1.8457e-05
-0.0140001
-6.94147e-05
-0.0146154
-0.000156741
-0.0152502
-0.000125482
-0.01609
9.55167e-05
-0.0170751
0.000254447
-0.0182583
0.000471914
-0.0197963
0.000847624
-0.021721
0.00125653
-0.023746
0.00137674
-0.0249494
0.000584859
-0.0259548
0.000401625
-0.0271607
0.000622415
-0.0289884
0.00126734
-0.0312227
0.00169653
-0.0337758
0.00204166
-0.0366058
0.00234056
-0.0397332
0.00265079
-0.0430732
0.00287288
-0.046496
0.0029672
-0.0498474
0.00290867
-0.0529732
0.00272426
-0.0558279
0.00244031
-0.0583416
0.00211497
-0.0606587
0.00194913
-0.0626986
0.00169557
-0.064488
0.00148059
-0.0660665
0.00128458
-0.0672981
0.000941101
-0.0681884
0.000604272
-0.068884
0.000425969
-0.0695612
0.00042288
-0.0700195
0.000225776
-0.0701322
-0.000102629
-0.0700946
-0.000236624
-0.0697126
-0.000565095
-0.0688046
-0.0010755
-0.067535
-0.00141856
-0.0658564
-0.00181245
-0.0638583
-0.00211556
-0.0615909
-0.0023676
-0.0590517
-0.00262153
-0.0563196
-0.00279704
-0.0534523
-0.0029159
-0.0505156
-0.0029673
-0.0475501
-0.00297714
-0.0446519
-0.00289448
-0.0419265
-0.00269653
-0.0393927
-0.00248114
-0.0370728
-0.00225
-0.0351411
-0.00183854
-0.0331216
-0.00191562
-0.0309762
-0.00202986
-0.0290767
-0.00176659
-0.0274147
-0.00151315
-0.0259034
-0.00134727
-0.0245074
-0.00121735
-0.023249
-0.00106644
-0.0220418
-0.00100403
-0.0207924
-0.00103592
-0.0194736
-0.0010951
-0.0182173
-0.00102577
-0.017062
-0.00091664
-0.0160221
-0.000794343
-0.015121
-0.000647603
-0.0143747
-0.000489241
-0.0138012
-0.000311251
-0.0133387
-0.000197364
-0.0129141
-0.000159747
-0.0126214
-1.89852e-05
-0.0123621
2.42288e-05
-0.0120787
-9.24469e-06
-0.0117968
-5.20721e-06
-0.0114741
-5.07337e-05
-0.0111559
-4.52655e-05
-0.0109191
3.47341e-05
-0.0107544
0.000102447
-0.010635
0.000144969
-0.0105544
0.000179275
-0.0104578
0.000157633
-0.0103492
0.000139657
-0.0102442
0.000136282
-0.0101433
0.000133096
-0.0100457
0.00012762
-0.00995346
0.000124008
-0.00986261
0.000115679
-0.00977479
0.000108087
-0.00968628
9.59702e-05
-0.00959622
8.25824e-05
-0.00950618
6.97229e-05
-0.00941906
5.99287e-05
-0.00933454
4.93459e-05
-0.00925196
3.77704e-05
-0.00917296
2.78581e-05
-0.00909793
1.7147e-05
-0.00902997
8.62616e-06
-0.00895562
1.44129e-05
-0.00889761
-2.53776e-06
-0.00884587
-8.38471e-06
-0.00880775
-1.13654e-05
-0.00878184
-1.43067e-05
-0.00877499
-1.42802e-05
-0.00877742
-1.39055e-05
-0.00879871
-1.4457e-05
-0.00884125
-1.38128e-05
-0.0089012
-1.19566e-05
-0.00897868
-1.0136e-05
-0.00907304
-8.08805e-06
-0.00918503
-6.48743e-06
-0.00931389
-4.54338e-06
-0.00945963
-3.13384e-06
-0.0096211
-1.57034e-06
-0.00979752
1.87079e-06
-0.00998867
7.7936e-07
-0.010193
1.37445e-06
-0.0104099
1.66497e-06
-0.0106386
1.5541e-06
-0.0108775
1.36596e-06
-0.0111266
2.51222e-07
-0.0113828
4.60305e-06
-0.0116516
-8.71039e-06
-0.0119243
-3.08155e-06
-0.0122014
-3.06584e-06
-0.0124861
-5.12628e-06
-0.0127749
-7.39423e-06
-0.013067
-9.25755e-06
-0.0133621
-1.18834e-05
-0.0136587
-1.40743e-05
-0.0139559
-1.65761e-05
-0.0142529
-1.91746e-05
-0.0145485
-2.1919e-05
-0.0148418
-2.47401e-05
-0.0151317
-2.75833e-05
-0.0154176
-2.97912e-05
-0.0156982
-3.37174e-05
-0.0159729
-3.64167e-05
-0.0162402
-3.92837e-05
-0.0164989
-4.15897e-05
-0.0167485
-4.40103e-05
-0.0169879
-4.68924e-05
-0.0172162
-5.00376e-05
-0.0174325
-5.31122e-05
-0.0176356
-5.59462e-05
-0.0178244
-5.87723e-05
-0.0179978
-6.15164e-05
-0.0181549
-6.42883e-05
-0.0182946
-6.70832e-05
-0.0184161
-6.99434e-05
-0.0185186
-7.27987e-05
-0.0186015
-7.55213e-05
-0.0186639
-7.84197e-05
-0.0187067
-8.17952e-05
-0.0187252
-8.50155e-05
-0.0187269
-8.9231e-05
-0.018709
-8.99228e-05
-0.0186677
-9.08415e-05
-0.0186098
-9.28841e-05
-0.0185319
-9.49798e-05
-0.0184363
-9.6356e-05
-0.0183226
-9.81346e-05
-0.0181956
-0.000100022
-0.0180472
-0.000101707
-0.0178735
-0.000102333
-0.01768
-0.000102992
-0.0174687
-0.000103331
-0.0172405
-0.000103366
-0.0169966
-0.000103445
-0.0167374
-0.000102911
-0.0164643
-0.0001023
-0.0161785
-0.000101421
-0.0158813
-0.000100548
-0.0155737
-9.9538e-05
-0.0152572
-9.84107e-05
-0.014933
-9.7045e-05
-0.0146026
-9.54103e-05
-0.0142674
-9.35729e-05
-0.0139286
-9.16997e-05
-0.0135874
-8.97286e-05
-0.013245
-8.76704e-05
-0.0129028
-8.54767e-05
-0.012562
-8.31761e-05
-0.0122239
-8.07621e-05
-0.0118897
-7.82402e-05
-0.0115606
-7.56164e-05
-0.0112377
-7.29111e-05
-0.010922
-7.01509e-05
-0.0106147
-6.73247e-05
-0.0103166
-6.44253e-05
-0.0100288
-6.14699e-05
-0.00975195
-5.85039e-05
-0.00948695
-5.55394e-05
-0.00923447
-5.25633e-05
-0.00899517
-4.95598e-05
-0.00876963
-4.6532e-05
-0.00855832
-4.34905e-05
-0.00836166
-4.04685e-05
-0.00817998
-3.7425e-05
-0.00801358
-3.43999e-05
-0.00786275
-3.14142e-05
-0.00772775
-2.84637e-05
-0.00760865
-2.54777e-05
-0.00750568
-2.26186e-05
-0.00741839
-1.97076e-05
-0.00734686
-1.68892e-05
-0.00729058
-1.42926e-05
-0.00724893
-1.15989e-05
-0.00722103
-8.8466e-06
-0.00720848
-6.5251e-06
-0.0072078
-3.42087e-06
-0.00721502
1.7364e-07
-0.00723473
1.79771e-06
-0.00726943
3.76886e-06
-0.0073176
4.99954e-06
-0.00737601
7.90119e-06
-0.0074457
1.11932e-05
-0.00752776
1.16968e-05
-0.00761954
1.32361e-05
-0.00772026
1.43422e-05
-0.00782952
1.54964e-05
-0.00794627
1.6601e-05
-0.00807011
1.74754e-05
-0.00820007
1.79846e-05
-0.00833559
1.83132e-05
-0.00847614
1.85784e-05
-0.00862093
1.86204e-05
-0.00876943
1.85928e-05
-0.0089211
1.84287e-05
-0.00907542
1.81345e-05
-0.0092319
1.77436e-05
-0.00938991
1.70965e-05
-0.009549
1.64446e-05
-0.00970871
1.56939e-05
-0.00986852
1.48514e-05
-0.0100279
1.40248e-05
-0.0101864
1.30899e-05
-0.0103434
1.20381e-05
-0.0104985
1.10388e-05
-0.0106512
9.89229e-06
-0.0108008
8.72931e-06
-0.010947
7.2582e-06
-0.0110892
5.92798e-06
-0.0112274
4.59204e-06
-0.0113604
2.61561e-06
-0.0114887
2.63763e-07
-0.0116109
-1.25845e-06
-0.0117273
-7.78387e-07
-0.0118369
-1.94684e-06
-0.0119395
-2.94055e-06
-0.0120358
-3.38001e-06
-0.0121238
-4.22457e-06
-0.0122047
-5.3801e-06
-0.012277
-6.20655e-06
-0.0123414
-6.13661e-06
-0.0123972
-7.3136e-06
-0.012445
-8.24134e-06
-0.0124815
-6.51799e-06
-0.0125084
-7.63392e-06
-0.0125268
-8.87063e-06
-0.0125353
-1.70304e-05
-0.0125353
-1.81072e-05
-0.0125295
-1.89696e-05
-0.0125138
-1.5582e-05
-0.0124926
-1.54083e-05
-0.0124607
-1.40626e-05
-0.0124223
-1.70775e-05
-0.0123765
-1.78443e-05
-0.0123225
-1.81812e-05
-0.0122619
-1.91272e-05
-0.0121937
-1.95242e-05
-0.0121179
-2.02155e-05
-0.0120353
-2.1196e-05
-0.0119459
-2.13046e-05
-0.0118505
-2.19522e-05
-0.0117492
-2.27219e-05
-0.0116427
-2.34269e-05
-0.0115317
-2.40687e-05
-0.0114166
-2.47443e-05
-0.011298
-2.54806e-05
-0.0111763
-2.61548e-05
-0.0110523
-2.68065e-05
-0.0109262
-2.74523e-05
-0.0107987
-2.80859e-05
-0.0106703
-2.8699e-05
-0.0105413
-2.92614e-05
-0.0104123
-2.98465e-05
-0.0102835
-3.05128e-05
-0.0101553
-3.12077e-05
-0.0100282
-3.19197e-05
-0.00990238
-3.2581e-05
-0.00977835
-3.31964e-05
-0.00965642
-3.37847e-05
-0.00953687
-3.43469e-05
-0.00941999
-3.4888e-05
-0.00930603
-3.53883e-05
-0.00919525
-3.58208e-05
-0.00908788
-3.61899e-05
-0.00898408
-3.65505e-05
-0.00888394
-3.69297e-05
-0.00878759
-3.72817e-05
-0.00869508
-3.76603e-05
-0.00860643
-3.80708e-05
-0.0085219
-3.84982e-05
-0.00844162
-3.89003e-05
-0.00836583
-3.92822e-05
-0.00829442
-3.96924e-05
-0.00822601
-4.00705e-05
-0.00816169
-4.04214e-05
-0.0081022
-4.07953e-05
-0.00804672
-4.10986e-05
-0.00799551
-4.13421e-05
-0.00794867
-4.15275e-05
-0.00790617
-4.16953e-05
-0.00786802
-4.19121e-05
-0.00783419
-4.21349e-05
-0.00780469
-4.23584e-05
-0.00777951
-4.26309e-05
-0.00775858
-4.29772e-05
-0.00774161
-4.36817e-05
-0.00772905
-4.3943e-05
-0.00772197
-4.31133e-05
-0.00772105
-4.16867e-05
-0.00772143
-4.52403e-05
-0.00772635
-4.52609e-05
-0.00773583
-4.52789e-05
-0.00774975
-4.54692e-05
-0.00776793
-4.57384e-05
-0.00779035
-4.60567e-05
-0.00781696
-4.63968e-05
-0.00784765
-4.67516e-05
-0.00788236
-4.71413e-05
-0.00792097
-4.75402e-05
-0.00796341
-4.79335e-05
-0.00800952
-4.83859e-05
-0.00805912
-4.8896e-05
-0.00811205
-4.94446e-05
-0.0081681
-5.00499e-05
-0.00822693
-5.08356e-05
-0.00828831
-5.17178e-05
-0.00835201
-5.26455e-05
-0.00841771
-5.36382e-05
-0.00848512
-5.47031e-05
-0.00855394
-5.57835e-05
-0.00862381
-5.69684e-05
-0.00869443
-5.80702e-05
-0.00876555
-5.96279e-05
-0.0088367
-6.04992e-05
-0.00890911
-6.32255e-05
-0.0089766
-6.26939e-05
-0.00905046
-6.83977e-05
-0.00911497
-6.57134e-05
-0.00918262
-7.11341e-05
-0.00924696
-7.23213e-05
-0.00930694
-7.32261e-05
-0.00937228
-7.77707e-05
-0.00942642
-7.37054e-05
-0.00947982
-7.47584e-05
-0.00952874
-7.594e-05
-0.00958002
-8.53504e-05
-0.00960994
-7.57082e-05
-0.00964711
-7.85056e-05
-0.00967539
-7.93936e-05
-0.00970519
-8.56048e-05
-0.00973659
-9.40429e-05
-0.00975218
-8.96372e-05
-0.00976481
-8.39931e-05
-0.00978193
-9.54467e-05
-0.00978331
-9.11738e-05
-0.0097861
-9.67209e-05
-0.00978552
-9.71671e-05
-0.00977787
-9.61049e-05
-0.00976929
-9.65667e-05
-0.00975279
-9.85243e-05
-0.00973419
-0.000100279
-0.00971181
-0.000101192
-0.00968509
-0.000101959
-0.00965544
-0.000101387
-0.00962361
-0.000101581
-0.00958973
-0.000101543
-0.00955399
-0.000101732
-0.00951599
-0.000101557
-0.00947659
-0.000100687
-0.00943613
-0.000100782
-0.00939461
-0.000100715
-0.00935183
-0.000101215
-0.00930877
-0.000100905
-0.0092662
-0.00010004
-0.00922455
-9.90475e-05
-0.0091843
-9.77241e-05
-0.00914573
-9.62641e-05
-0.00910851
-9.54688e-05
-0.0090731
-9.44053e-05
-0.00903981
-9.2992e-05
-0.00900839
-9.20544e-05
-0.00897903
-9.09199e-05
-0.00895201
-8.95632e-05
-0.00892749
-8.78403e-05
-0.00890562
-8.60926e-05
-0.00888625
-8.4427e-05
-0.00886927
-8.26653e-05
-0.00885463
-8.08688e-05
-0.00884212
-7.90579e-05
-0.00883151
-7.73165e-05
-0.00882279
-7.54941e-05
-0.00881586
-7.34448e-05
-0.00881046
-7.14751e-05
-0.00880628
-6.94964e-05
-0.00880299
-6.75811e-05
-0.00880038
-6.55579e-05
-0.00879814
-6.35628e-05
-0.00879605
-6.17157e-05
-0.00879394
-5.97075e-05
-0.0087915
-5.77777e-05
-0.00878858
-5.57188e-05
-0.00878489
-5.35422e-05
-0.0087801
-5.1471e-05
-0.00877401
-4.93204e-05
-0.00876642
-4.71027e-05
-0.00875713
-4.49186e-05
-0.00874597
-4.28223e-05
-0.00873282
-4.06061e-05
-0.00871758
-3.84231e-05
-0.00870013
-3.62621e-05
-0.00868041
-3.41101e-05
-0.00865839
-3.19236e-05
-0.00863413
-2.97444e-05
-0.00860758
-2.77357e-05
-0.0085789
-2.57432e-05
-0.00854842
-2.38798e-05
-0.00851622
-2.21301e-05
-0.0084824
-2.04167e-05
-0.00844707
-1.87296e-05
-0.00841041
-1.69873e-05
-0.00837272
-1.51931e-05
-0.00833438
-1.33907e-05
-0.00829566
-1.16351e-05
-0.00825708
-9.92545e-06
-0.00821863
-8.22754e-06
-0.00818077
-6.63659e-06
-0.00814422
-5.11714e-06
-0.00810887
-3.64272e-06
-0.00807536
-2.17735e-06
-0.00804372
-2.61513e-07
-0.00801526
-4.56249e-07
-0.00798705
1.6124e-06
-0.00796246
2.81363e-06
-0.00794104
2.53568e-06
-0.0079221
3.0337e-06
-0.00790622
3.54048e-06
-0.00789347
3.47634e-06
-0.00788405
3.79662e-06
-0.00787786
4.32079e-06
-0.00787624
4.19883e-06
-0.007876
4.7847e-06
-0.00788207
3.1431e-06
-0.00788318
1.04466e-05
-0.0078954
-9.72179e-06
-0.00790009
1.01125e-05
-0.00791295
-1.41314e-05
-0.0079301
-3.71045e-06
-0.00794373
-3.90987e-06
-0.00796147
-4.7769e-06
-0.00798003
-8.61127e-06
-0.00799806
-1.14745e-05
-0.00801449
-1.42463e-05
-0.00802917
-1.75547e-05
-0.00804176
-2.08206e-05
-0.00805093
-2.47979e-05
-0.00805541
-2.99049e-05
-0.00805467
-3.50588e-05
-0.00804749
-4.18254e-05
-0.00803172
-5.04066e-05
-0.00800429
-6.15577e-05
-0.00796097
-7.66728e-05
-0.00789516
-9.65125e-05
-0.0077996
-0.000121612
-0.00766864
-0.000152217
-0.00749227
-0.000192574
-0.00724355
-0.000260188
-0.00699621
-0.00026124
-0.0067672
-0.000236598
-0.00656119
-0.000214178
-0.00641337
-0.000155867
-5.36045e-05
-0.0009596
0.00044375
-0.001756
-9.47074e-05
-0.00238859
-0.000628524
-0.00295755
-0.000792263
-0.00348119
-0.000864455
-0.0039834
-0.000895849
-0.0045237
-0.000797942
-0.00512089
-0.000654301
-0.0057497
-0.000558295
-0.00643409
-0.000406934
-0.00720403
-0.000234097
-0.00806266
-0.000112352
-0.00906321
0.000126702
-0.0101232
0.000239051
-0.0110746
6.95044e-05
-0.012005
3.34491e-05
-0.0129388
0.000160415
-0.0138502
0.000147509
-0.0148189
0.000125318
-0.0159239
0.000186151
-0.0173225
0.00052403
-0.0191388
0.00117285
-0.0214472
0.00183931
-0.024303
0.00262285
-0.0278163
0.00368018
-0.0322158
0.00499694
-0.037936
0.00645836
-0.0452836
0.00732149
-0.0521232
0.0066052
-0.0579111
0.00581034
-0.0634056
0.00620097
-0.0688807
0.00663941
-0.0742351
0.00688785
-0.0791609
0.0067613
-0.0835611
0.00656042
-0.0875112
0.00634008
-0.091194
0.00616879
-0.0946732
0.00593069
-0.0978603
0.00543164
-0.100725
0.00495239
-0.103274
0.00429658
-0.10525
0.0035494
-0.106555
0.00256656
-0.107249
0.00179311
-0.107347
0.00104418
-0.107093
0.000390061
-0.106296
-0.000473892
-0.105001
-0.00114108
-0.103497
-0.00135054
-0.101934
-0.00158492
-0.100275
-0.00198561
-0.0984796
-0.00223618
-0.0965012
-0.00273083
-0.0943087
-0.00343682
-0.0919222
-0.00395484
-0.0892325
-0.00463379
-0.086258
-0.00520587
-0.0830295
-0.00569659
-0.079531
-0.00620188
-0.0758171
-0.00657266
-0.0719453
-0.00683225
-0.0679881
-0.006951
-0.0639804
-0.0069952
-0.0599781
-0.00688959
-0.0561141
-0.00652782
-0.0523707
-0.0061716
-0.0486023
-0.0059433
-0.0446607
-0.00568743
-0.0413184
-0.00516282
-0.0396043
-0.00362683
-0.0379878
-0.0032512
-0.0362769
-0.0030756
-0.0345124
-0.00294738
-0.0327255
-0.00282434
-0.030975
-0.00262262
-0.029272
-0.00250028
-0.0276251
-0.00246519
-0.0260399
-0.00245129
-0.0245397
-0.00228881
-0.023131
-0.00207878
-0.0218218
-0.00184729
-0.0206256
-0.00158048
-0.0195479
-0.00129914
-0.0185978
-0.000988528
-0.0177562
-0.000766507
-0.017007
-0.000632151
-0.0164015
-0.000344898
-0.0159012
-0.000197249
-0.0154841
-0.000142534
-0.015152
-5.69251e-05
-0.0148743
-4.85004e-05
-0.0146645
2.25736e-05
-0.0145272
0.00017264
-0.0144511
0.000297719
-0.0144319
0.000392709
-0.0144449
0.000456574
-0.0144806
0.000448668
-0.014531
0.00043895
-0.0145962
0.000442752
-0.0146709
0.000441507
-0.0147481
0.000429872
-0.0148265
0.000417952
-0.0149016
0.00039652
-0.0149723
0.000373563
-0.0150363
0.000343334
-0.0150922
0.000310016
-0.0151399
0.000276553
-0.0151797
0.00024593
-0.0152116
0.000214552
-0.0152364
0.000182474
-0.0152547
0.000152288
-0.0152693
0.000122817
-0.0152762
9.66233e-05
-0.0152793
8.6269e-05
-0.0152824
5.56596e-05
-0.0152851
3.83153e-05
-0.0152919
2.25597e-05
-0.0153068
1.23361e-05
-0.0153287
4.26204e-06
-0.0153621
-1.59143e-06
-0.015407
-5.47102e-06
-0.0154679
-7.88013e-06
-0.0155442
-8.18851e-06
-0.0156345
-6.41496e-06
-0.015741
-4.70895e-06
-0.0158631
-2.24904e-06
-0.0160017
7.66399e-07
-0.0161566
3.64305e-06
-0.0163274
6.85106e-06
-0.016514
1.22779e-05
-0.0167158
1.30433e-05
-0.0169324
1.55547e-05
-0.0171633
1.78579e-05
-0.0174076
1.974e-05
-0.0176648
2.14474e-05
-0.0179341
2.20553e-05
-0.0182144
2.83802e-05
-0.0185057
1.58176e-05
-0.0188066
2.29299e-05
-0.0191159
2.43271e-05
-0.0194333
2.29929e-05
-0.0197578
2.14791e-05
-0.020088
2.03158e-05
-0.0204236
1.81095e-05
-0.0207633
1.6135e-05
-0.0211062
1.36632e-05
-0.0214513
1.09563e-05
-0.0217975
8.00193e-06
-0.0221436
4.76551e-06
-0.0224887
1.36341e-06
-0.0228315
-1.76083e-06
-0.023171
-6.22879e-06
-0.023506
-9.92071e-06
-0.0238353
-1.38547e-05
-0.024158
-1.73032e-05
-0.0244726
-2.11784e-05
-0.0247779
-2.56681e-05
-0.0250731
-3.06194e-05
-0.0253569
-3.5783e-05
-0.0256282
-4.08542e-05
-0.0258859
-4.60414e-05
-0.0261288
-5.12114e-05
-0.0263559
-5.65477e-05
-0.026566
-6.20648e-05
-0.0267581
-6.77614e-05
-0.0269311
-7.35836e-05
-0.0270841
-7.94905e-05
-0.0272166
-8.54284e-05
-0.0273284
-9.16941e-05
-0.0274197
-9.76031e-05
-0.0274906
-0.000104383
-0.0275393
-0.00010986
-0.0275636
-0.000114311
-0.0275671
-0.000120247
-0.0275585
-0.000124139
-0.0275238
-0.000126062
-0.0274745
-0.000132578
-0.0274067
-0.000136814
-0.027318
-0.000142485
-0.0272011
-0.000144965
-0.0270632
-0.000148705
-0.0269054
-0.000151221
-0.0267287
-0.000153591
-0.0265338
-0.000155856
-0.0263215
-0.000157268
-0.0260929
-0.000158396
-0.0258492
-0.000159265
-0.0255915
-0.000159966
-0.025321
-0.000160443
-0.0250391
-0.00016065
-0.024747
-0.000160476
-0.0244461
-0.000159888
-0.0241376
-0.000158943
-0.0238228
-0.000157855
-0.0235031
-0.000156527
-0.0231797
-0.000154976
-0.022854
-0.00015314
-0.0225272
-0.000151065
-0.0222006
-0.000148738
-0.0218755
-0.00014617
-0.0215531
-0.000143364
-0.0212345
-0.000140325
-0.020921
-0.000137083
-0.0206136
-0.00013363
-0.0203135
-0.000129956
-0.0200215
-0.000126094
-0.0197388
-0.000122101
-0.0194661
-0.00011798
-0.0192043
-0.000113718
-0.0189541
-0.000109293
-0.0187163
-0.000104742
-0.0184914
-0.000100051
-0.0182799
-9.5248e-05
-0.0180823
-9.02641e-05
-0.0178992
-8.51875e-05
-0.0177308
-8.00582e-05
-0.0175776
-7.4846e-05
-0.0174399
-6.9529e-05
-0.0173178
-6.42492e-05
-0.0172112
-5.87915e-05
-0.0171203
-5.35442e-05
-0.0170443
-4.82377e-05
-0.016983
-4.32417e-05
-0.0169355
-3.79927e-05
-0.0169006
-3.37506e-05
-0.0168797
-2.73511e-05
-0.0168701
-2.08443e-05
-0.0168714
-1.49241e-05
-0.016886
-1.13336e-05
-0.0169164
-8.68768e-06
-0.0169567
-2.63026e-06
-0.0170098
2.33689e-06
-0.0170743
5.13069e-06
-0.0171499
9.19554e-06
-0.0172358
1.21147e-05
-0.017331
1.52328e-05
-0.0174348
1.83748e-05
-0.0175467
2.12329e-05
-0.0176661
2.36387e-05
-0.0177923
2.56453e-05
-0.0179249
2.74885e-05
-0.0180632
2.89613e-05
-0.0182067
3.02257e-05
-0.0183548
3.1216e-05
-0.0185071
3.1923e-05
-0.018663
3.23979e-05
-0.018822
3.25903e-05
-0.0189836
3.26602e-05
-0.0191474
3.25666e-05
-0.0193127
3.23566e-05
-0.0194793
3.20863e-05
-0.0196464
3.16336e-05
-0.0198136
3.11436e-05
-0.0199806
3.0465e-05
-0.0201467
2.95864e-05
-0.0203113
2.89729e-05
-0.0204741
2.7398e-05
-0.0206347
2.65472e-05
-0.020792
2.5521e-05
-0.0209461
2.3292e-05
-0.0210961
2.097e-05
-0.0212418
1.93493e-05
-0.0213827
1.98873e-05
-0.0215182
1.87854e-05
-0.0216479
1.78454e-05
-0.0217715
1.67078e-05
-0.0218882
1.61058e-05
-0.0219981
1.43934e-05
-0.0221005
1.3375e-05
-0.0221948
1.29873e-05
-0.0222811
1.14205e-05
-0.0223586
9.97908e-06
-0.0224267
1.31694e-05
-0.0224853
1.13475e-05
-0.0225341
9.46493e-06
-0.0225737
-1.11767e-06
-0.022605
-3.09631e-06
-0.0226277
-4.64045e-06
-0.0226446
-2.31234e-06
-0.0226465
-5.25527e-06
-0.0226435
-4.85747e-06
-0.0226329
-8.63248e-06
-0.0226127
-1.03687e-05
-0.0225846
-1.24956e-05
-0.0225482
-1.54543e-05
-0.0225027
-1.74842e-05
-0.0224488
-2.02204e-05
-0.0223863
-2.30498e-05
-0.0223161
-2.47237e-05
-0.0222382
-2.71238e-05
-0.0221533
-2.98937e-05
-0.0220619
-3.25048e-05
-0.0219644
-3.51076e-05
-0.0218616
-3.77866e-05
-0.0217537
-4.04912e-05
-0.0216416
-4.31302e-05
-0.0215255
-4.57151e-05
-0.0214062
-4.82678e-05
-0.0212841
-5.08026e-05
-0.0211596
-5.32624e-05
-0.0210333
-5.5639e-05
-0.0209058
-5.79827e-05
-0.0207773
-6.03827e-05
-0.0206484
-6.27672e-05
-0.0205195
-6.51052e-05
-0.020391
-6.73187e-05
-0.0202634
-6.94131e-05
-0.0201371
-7.14079e-05
-0.0200123
-7.33008e-05
-0.0198894
-7.50939e-05
-0.0197688
-7.67614e-05
-0.0196507
-7.82768e-05
-0.0195353
-7.96458e-05
-0.019423
-8.09289e-05
-0.0193139
-8.2163e-05
-0.0192081
-8.32855e-05
-0.0191059
-8.43621e-05
-0.0190074
-8.54021e-05
-0.0189129
-8.64083e-05
-0.0188226
-8.72945e-05
-0.0187367
-8.81345e-05
-0.0186553
-8.8951e-05
-0.0185771
-8.95893e-05
-0.018503
-9.02783e-05
-0.0184338
-9.09562e-05
-0.0183689
-9.14214e-05
-0.0183083
-9.18041e-05
-0.0182523
-9.20854e-05
-0.0182008
-9.22983e-05
-0.0181538
-9.2555e-05
-0.0181114
-9.27867e-05
-0.0180737
-9.30059e-05
-0.0180405
-9.32786e-05
-0.0180121
-9.36646e-05
-0.0179881
-9.45822e-05
-0.0179691
-9.46816e-05
-0.017955
-9.35319e-05
-0.0179468
-9.1129e-05
-0.0179436
-9.43522e-05
-0.017944
-9.54677e-05
-0.0179488
-9.57618e-05
-0.0179583
-9.58151e-05
-0.0179725
-9.59123e-05
-0.0179913
-9.61689e-05
-0.0180147
-9.64571e-05
-0.0180426
-9.68287e-05
-0.0180748
-9.72774e-05
-0.0181113
-9.77734e-05
-0.0181518
-9.82984e-05
-0.0181962
-9.89279e-05
-0.0182445
-9.96622e-05
-0.0182963
-0.000100476
-0.0183515
-0.000101399
-0.0184097
-0.000102596
-0.0184708
-0.000104012
-0.0185344
-0.000105532
-0.0186004
-0.000107199
-0.0186683
-0.000108967
-0.0187378
-0.000110912
-0.0188086
-0.000112748
-0.0188807
-0.000115179
-0.0189528
-0.000116709
-0.0190278
-0.000120542
-0.0190983
-0.000119749
-0.0191788
-0.000126318
-0.0192426
-0.000129192
-0.0193026
-0.000130131
-0.0193784
-0.000152539
-0.0194466
-0.000147053
-0.0195218
-0.000155071
-0.0195805
-0.00014512
-0.0196438
-0.00014314
-0.0197177
-0.000158506
-0.0197926
-0.000142736
-0.0198047
-0.000148107
-0.019903
-0.000135569
-0.0199331
-0.000113316
-0.0199182
-0.000185118
-0.0199578
-0.000214339
-0.0200112
-0.000223295
-0.0200735
-0.000251389
-0.0201204
-0.000142599
-0.0200721
-7.60064e-05
-0.0200744
-0.000190735
-0.0200821
-0.000183668
-0.0201011
-0.000192084
-0.0201083
-0.000201801
-0.0200889
-0.000200202
-0.0200679
-0.000198712
-0.0200495
-0.000202351
-0.0200264
-0.000204877
-0.019998
-0.000206206
-0.0199662
-0.000205755
-0.0199323
-0.000206007
-0.0198968
-0.000205893
-0.0198598
-0.00020611
-0.019821
-0.000205199
-0.0197817
-0.000202483
-0.019743
-0.000200621
-0.0197047
-0.000199296
-0.0196662
-0.000199092
-0.0196275
-0.00019834
-0.0195888
-0.00019712
-0.0195498
-0.000195959
-0.0195113
-0.000194215
-0.0194742
-0.000192016
-0.0194381
-0.000190401
-0.0194033
-0.000188416
-0.0193707
-0.000185811
-0.0193402
-0.000183507
-0.019312
-0.00018098
-0.0192856
-0.000178481
-0.0192613
-0.000175617
-0.0192389
-0.000172973
-0.0192181
-0.000170368
-0.0191994
-0.000166995
-0.0191831
-0.000163203
-0.0191696
-0.000159226
-0.0191577
-0.000155696
-0.019147
-0.000152452
-0.0191377
-0.000148998
-0.0191292
-0.000145561
-0.0191215
-0.000142011
-0.0191144
-0.000138125
-0.0191081
-0.000133769
-0.0191029
-0.000129371
-0.019098
-0.000125241
-0.0190933
-0.000121173
-0.0190879
-0.000117283
-0.0190816
-0.000113396
-0.0190745
-0.000109234
-0.0190661
-0.000104988
-0.0190564
-0.000100573
-0.0190452
-9.60496e-05
-0.0190326
-9.15077e-05
-0.0190181
-8.70262e-05
-0.0190019
-8.25411e-05
-0.0189833
-7.81012e-05
-0.0189624
-7.38723e-05
-0.018939
-6.96851e-05
-0.0189134
-6.53419e-05
-0.0188855
-6.09254e-05
-0.0188552
-5.69954e-05
-0.0188224
-5.32974e-05
-0.0187876
-4.96699e-05
-0.0187509
-4.59257e-05
-0.0187124
-4.21015e-05
-0.0186722
-3.83948e-05
-0.0186304
-3.4913e-05
-0.0185871
-3.15968e-05
-0.0185429
-2.84081e-05
-0.0184979
-2.54272e-05
-0.0184525
-2.25949e-05
-0.0184069
-1.97793e-05
-0.0183614
-1.73745e-05
-0.0183164
-1.53447e-05
-0.0182718
-1.37e-05
-0.0182277
-1.22664e-05
-0.0181846
-1.09988e-05
-0.0181416
-1.02298e-05
-0.0181011
-1.0513e-05
-0.0180611
-1.03109e-05
-0.0180215
-1.06363e-05
-0.0179836
-1.16343e-05
-0.0179465
-1.36884e-05
-0.0179093
-1.66204e-05
-0.0178714
-2.03295e-05
-0.0178325
-2.50738e-05
-0.01779
-3.02123e-05
-0.0177463
-3.72395e-05
-0.0176974
-4.44925e-05
-0.0176495
-5.50799e-05
-0.0175896
-6.29941e-05
-0.0175325
-7.52159e-05
-0.0174609
-8.59646e-05
-0.0173822
-9.90158e-05
-0.0172964
-0.000111825
-0.0171998
-0.000126924
-0.0170936
-0.000142358
-0.0169766
-0.00015806
-0.0168485
-0.000173869
-0.0167093
-0.000190021
-0.0165569
-0.000207071
-0.0163918
-0.000224653
-0.0162139
-0.000242795
-0.0160221
-0.000262054
-0.0158161
-0.000282906
-0.0155957
-0.000305717
-0.0153609
-0.000331649
-0.0151094
-0.000361633
-0.0148397
-0.000397136
-0.0145493
-0.000437726
-0.0142436
-0.00047717
-0.0139494
-0.000500457
-0.0137145
-0.000514148
-0.013703
-0.000289905
-0.0136689
-0.000282122
-0.0135887
-0.00030363
-0.013488
-0.000268344
-0.000130352
-0.000720686
0.000208763
-0.00140991
-0.000360466
-0.00206842
-0.000921769
-0.00248902
-0.00131918
-0.0028163
-0.00148233
-0.0032017
-0.00144951
-0.00374002
-0.00119112
-0.00445448
-0.000862179
-0.00524002
-0.000684429
-0.00606721
-0.000479806
-0.00693851
-0.0002504
-0.00782859
-9.75448e-05
-0.00880857
0.000244105
-0.0101119
0.000688687
-0.0116438
0.000747008
-0.0132213
0.000775673
-0.0149442
0.00106496
-0.0169229
0.00132411
-0.0192431
0.00165849
-0.0219689
0.00212592
-0.0251943
0.00297541
-0.0289748
0.00419513
-0.0331749
0.00529672
-0.0375108
0.00624225
-0.0417753
0.0072546
-0.0460935
0.00865598
-0.0510022
0.0107359
-0.0570297
0.0127481
-0.0641955
0.0131781
-0.0715415
0.0125679
-0.0782499
0.0123467
-0.0842615
0.0121074
-0.089636
0.0117522
-0.0943913
0.0110457
-0.0985519
0.0102408
-0.102023
0.00930925
-0.104731
0.00836483
-0.106707
0.00743073
-0.108091
0.0063782
-0.108988
0.00518736
-0.109558
0.00460856
-0.109867
0.00334472
-0.109986
0.0022768
-0.109969
0.00140115
-0.109629
0.000481973
-0.109042
-0.000489541
-0.10834
-0.0014905
-0.10718
-0.00258581
-0.105511
-0.00327114
-0.103738
-0.00359573
-0.101867
-0.00407725
-0.0998799
-0.00442182
-0.0977429
-0.00504252
-0.0954328
-0.00590128
-0.0929752
-0.00654704
-0.0902314
-0.00749105
-0.0871612
-0.00836917
-0.0837919
-0.00914227
-0.080118
-0.00993576
-0.0761889
-0.0105461
-0.0720684
-0.0109781
-0.0678412
-0.0111848
-0.0635733
-0.0112486
-0.0593277
-0.0111024
-0.0551411
-0.0106672
-0.0510511
-0.0101943
-0.0470865
-0.00982935
-0.0433631
-0.00931163
-0.0400312
-0.00837545
-0.0366297
-0.0068991
-0.0331338
-0.00660536
-0.0297282
-0.00632488
-0.0264173
-0.00608754
-0.0231963
-0.00586096
-0.0201521
-0.005469
-0.0173992
-0.0050435
-0.0152514
-0.00439132
-0.0139823
-0.00349209
-0.013042
-0.00299028
-0.01214
-0.00273163
-0.0112039
-0.00252502
-0.0102743
-0.00224484
-0.00941056
-0.00188986
-0.00864077
-0.00148009
-0.00787742
-0.00125119
-0.0069964
-0.00122885
-0.00625917
-0.000801556
-0.00558557
-0.000590926
-0.00497244
-0.00046513
-0.0044466
-0.000297682
-0.00405164
-0.000156682
-0.0039112
0.000166299
-0.00394986
0.000490218
-0.00417752
0.000800484
-0.00454731
0.00103284
-0.00491662
0.00108989
-0.0052485
0.00103935
-0.00556197
0.00100264
-0.00588778
0.00101006
-0.00625308
0.0010411
-0.00662391
0.00102494
-0.00698358
0.00099258
-0.00731483
0.000932921
-0.00761631
0.000869006
-0.0078895
0.000799313
-0.00813209
0.000723635
-0.00834551
0.000649199
-0.00852949
0.000575987
-0.00868333
0.000501483
-0.00880919
0.000427423
-0.00890709
0.000355992
-0.00898034
0.00029005
-0.00903688
0.00023287
-0.00908696
0.000180064
-0.0091158
0.000141086
-0.0091387
0.000106789
-0.00916362
7.76897e-05
-0.00919895
5.70695e-05
-0.00924152
4.1852e-05
-0.00929399
3.05561e-05
-0.00936063
2.36195e-05
-0.0094438
1.95295e-05
-0.00954232
1.92837e-05
-0.00965918
2.14947e-05
-0.00979301
2.5904e-05
-0.00994485
3.06194e-05
-0.0101151
3.66823e-05
-0.0103027
4.25254e-05
-0.0105078
4.82521e-05
-0.0107293
5.38142e-05
-0.0109662
5.92542e-05
-0.0112185
6.41206e-05
-0.0114849
6.84948e-05
-0.0117646
7.22786e-05
-0.0120572
7.52953e-05
-0.012361
7.78888e-05
-0.0126774
7.93923e-05
-0.0129992
8.14898e-05
-0.0133332
8.14971e-05
-0.0136783
8.08936e-05
-0.0140279
8.15473e-05
-0.0143846
8.11819e-05
-0.0147478
8.00622e-05
-0.0151156
7.88606e-05
-0.0154879
7.66646e-05
-0.0158634
7.42456e-05
-0.0162411
7.15882e-05
-0.0166203
6.85864e-05
-0.0169997
6.52954e-05
-0.0173784
6.15717e-05
-0.017755
5.72241e-05
-0.0181287
5.35209e-05
-0.0184978
4.91436e-05
-0.018862
4.42573e-05
-0.0192201
3.94464e-05
-0.0195704
3.40064e-05
-0.0199119
2.83631e-05
-0.0202433
2.24232e-05
-0.0205635
1.58199e-05
-0.0208713
8.7585e-06
-0.0211659
1.4091e-06
-0.0214459
-6.1959e-06
-0.0217102
-1.41965e-05
-0.0219574
-2.25956e-05
-0.0221865
-3.12866e-05
-0.0223964
-4.02473e-05
-0.0225859
-4.96832e-05
-0.0227545
-5.89399e-05
-0.0229016
-6.83841e-05
-0.0230271
-7.78679e-05
-0.0231318
-8.729e-05
-0.0232149
-9.64142e-05
-0.0232766
-0.000104555
-0.0233191
-0.000112968
-0.0233366
-0.000120863
-0.0233377
-0.000127941
-0.0233214
-0.000133526
-0.0232888
-0.000142266
-0.023234
-0.000149606
-0.0231509
-0.000155515
-0.0230478
-0.000161031
-0.022925
-0.000165571
-0.0227836
-0.000170086
-0.0226243
-0.000173849
-0.022448
-0.000177084
-0.0222557
-0.000179677
-0.0220485
-0.000182102
-0.0218275
-0.0001841
-0.021594
-0.000185831
-0.0213491
-0.000187098
-0.0210941
-0.000187927
-0.0208303
-0.000188262
-0.0205589
-0.000188149
-0.0202811
-0.000187874
-0.0199981
-0.000187292
-0.0197113
-0.000186378
-0.0194219
-0.000185043
-0.0191312
-0.000183358
-0.0188405
-0.000181316
-0.0185508
-0.000178946
-0.0182635
-0.000176246
-0.0179797
-0.000173141
-0.0177004
-0.000169727
-0.0174269
-0.000165961
-0.0171602
-0.00016187
-0.0169012
-0.000157513
-0.0166509
-0.000152921
-0.0164101
-0.000148096
-0.0161798
-0.000142987
-0.0159607
-0.00013747
-0.0157534
-0.000131832
-0.0155587
-0.00012586
-0.015377
-0.00011944
-0.015209
-0.000112683
-0.0150552
-0.000105727
-0.0149161
-9.8573e-05
-0.014792
-9.11831e-05
-0.0146832
-8.36358e-05
-0.0145899
-7.58429e-05
-0.0145123
-6.80766e-05
-0.0144501
-6.01265e-05
-0.0144031
-5.23942e-05
-0.0143709
-4.45601e-05
-0.0143534
-3.73571e-05
-0.0143498
-2.83858e-05
-0.0143541
-1.98004e-05
-0.0143756
-1.33211e-05
-0.0144024
-4.73333e-06
-0.0144466
2.8318e-07
-0.0145025
8.65346e-06
-0.0145706
1.5346e-05
-0.0146523
2.10158e-05
-0.0147432
2.76723e-05
-0.0148454
3.34867e-05
-0.0149575
3.82475e-05