/*--------------------------------*- C++ -*----------------------------------*\
| =========                 |                                                 |
| \\      /  F ield         | OpenFOAM: The Open Source CFD Toolbox           |
|  \\    /   O peration     | Version:  v1812                                 |
|   \\  /    A nd           | Web:      www.OpenFOAM.com                      |
|    \\/     M anipulation  |                                                 |
\*---------------------------------------------------------------------------*/
FoamFile
{
    version     2.0;
    format      ascii;
    class       volScalarField;
    location    "0.3";
    object      rho;
}
// * * * * * * * * * * * * * * * * * * * * * * * * * * * * * * * * * * * * * //

dimensions      [1 -3 0 0 0 0 0];


internalField   nonuniform List<scalar> 
20400
(
1.19481
1.19479
1.19491
1.19495
1.19501
1.19508
1.19515
1.19522
1.19531
1.1954
1.19548
1.19561
1.19573
1.1959
1.19621
1.1966
1.19711
1.19786
1.19883
1.20001
1.20139
1.20291
1.20452
1.20615
1.20766
1.209
1.21018
1.21097
1.21176
1.2122
1.21265
1.21292
1.21318
1.21341
1.2136
1.21381
1.21404
1.21431
1.21459
1.21485
1.21516
1.21539
1.21569
1.21602
1.21634
1.21672
1.21711
1.21751
1.21787
1.21831
1.21875
1.21925
1.2197
1.22016
1.22057
1.22099
1.22135
1.22168
1.22198
1.22222
1.22239
1.2225
1.22253
1.22248
1.22232
1.22208
1.22177
1.22138
1.22092
1.22053
1.21991
1.21934
1.2187
1.21799
1.21714
1.21619
1.21516
1.21404
1.21282
1.21154
1.21021
1.20882
1.20743
1.20606
1.20477
1.20357
1.20233
1.20114
1.20002
1.19891
1.1979
1.19698
1.19609
1.19523
1.1945
1.19381
1.19321
1.19266
1.19215
1.19168
1.19127
1.19089
1.19056
1.19025
1.18996
1.1897
1.18946
1.18926
1.1891
1.18895
1.18884
1.18874
1.18868
1.18863
1.18861
1.18861
1.18863
1.18867
1.18874
1.18884
1.18895
1.18909
1.18926
1.18944
1.18965
1.18988
1.19012
1.19039
1.19067
1.19096
1.19128
1.1916
1.19194
1.1923
1.19266
1.19303
1.19341
1.19381
1.19421
1.19461
1.19502
1.19543
1.19585
1.19627
1.19668
1.1971
1.19752
1.19793
1.19834
1.19875
1.19915
1.19955
1.19994
1.20032
1.20069
1.20105
1.20141
1.20175
1.20208
1.20239
1.2027
1.20298
1.20326
1.20351
1.20375
1.20397
1.20417
1.20436
1.20452
1.20466
1.20479
1.2049
1.20498
1.20505
1.2051
1.20513
1.20514
1.20514
1.20512
1.20508
1.20501
1.20493
1.20482
1.2047
1.20456
1.2044
1.20422
1.20403
1.20383
1.20361
1.20338
1.20314
1.20289
1.20263
1.20236
1.20208
1.2018
1.20151
1.20123
1.20093
1.20064
1.20035
1.20006
1.19977
1.19948
1.1992
1.19892
1.19866
1.19839
1.19814
1.1979
1.19766
1.19744
1.19723
1.19704
1.19685
1.19668
1.19653
1.19639
1.19626
1.19616
1.19606
1.19599
1.19593
1.19588
1.19586
1.19584
1.19583
1.19585
1.19588
1.19593
1.19599
1.19607
1.19617
1.19628
1.19641
1.19655
1.19671
1.19688
1.19706
1.19725
1.19746
1.19768
1.1979
1.19814
1.19838
1.19863
1.19889
1.19916
1.19943
1.1997
1.19998
1.20026
1.20054
1.20082
1.2011
1.20138
1.20166
1.20193
1.20219
1.20245
1.2027
1.20295
1.20318
1.2034
1.20361
1.20381
1.20399
1.20416
1.20432
1.20446
1.20459
1.20469
1.20478
1.20486
1.20492
1.20495
1.20498
1.20499
1.20499
1.20496
1.20493
1.20488
1.20481
1.20474
1.20465
1.20454
1.20443
1.2043
1.20417
1.20402
1.20387
1.20372
1.20355
1.20339
1.20322
1.20304
1.20287
1.2027
1.20253
1.20236
1.2022
1.20203
1.20188
1.20173
1.20158
1.20144
1.20131
1.20119
1.20107
1.20097
1.20087
1.20078
1.2007
1.20063
1.20057
1.20051
1.20047
1.20043
1.2004
1.20038
1.20037
1.20036
1.20036
1.20037
1.20038
1.20039
1.20041
1.20044
1.20047
1.2005
1.20053
1.20056
1.2006
1.20064
1.20068
1.20072
1.20076
1.2008
1.20083
1.20087
1.20091
1.20095
1.20098
1.20102
1.20105
1.20108
1.20111
1.20114
1.20117
1.2012
1.20123
1.20125
1.20128
1.2013
1.20133
1.20135
1.20138
1.20141
1.20143
1.20146
1.20149
1.20151
1.20154
1.20157
1.20161
1.20164
1.20166
1.2017
1.20173
1.20177
1.2018
1.20183
1.20187
1.20191
1.20193
1.20197
1.202
1.20202
1.20206
1.20208
1.2021
1.20214
1.20217
1.2022
1.20223
1.20224
1.20226
1.20228
1.20229
1.2023
1.20231
1.20231
1.20232
1.20232
1.20232
1.20232
1.20231
1.2023
1.20229
1.20228
1.20226
1.20225
1.20223
1.20222
1.20221
1.20219
1.20218
1.20217
1.20215
1.20214
1.20213
1.20213
1.20213
1.20212
1.20212
1.20213
1.20213
1.20214
1.20215
1.20217
1.20219
1.20221
1.20224
1.20226
1.20229
1.20232
1.20236
1.2024
1.20244
1.20248
1.20252
1.20256
1.20261
1.20265
1.20269
1.20273
1.20278
1.20282
1.20285
1.20289
1.20293
1.20296
1.20299
1.20302
1.20304
1.20306
1.20308
1.20309
1.2031
1.20311
1.20311
1.20311
1.20311
1.2031
1.20309
1.20307
1.20305
1.20303
1.203
1.20298
1.20295
1.20292
1.20288
1.20285
1.20281
1.20278
1.20274
1.20271
1.20267
1.20264
1.20261
1.20258
1.20255
1.20253
1.2025
1.20248
1.20247
1.20246
1.20245
1.20245
1.20246
1.20247
1.20249
1.20252
1.20257
1.20264
1.20272
1.20281
1.2029
1.20298
1.20303
1.20305
1.20304
1.20303
1.20299
1.20296
1.20295
1.20295
1.20301
1.19477
1.19472
1.19481
1.19488
1.19496
1.19506
1.19516
1.19527
1.19539
1.19552
1.19564
1.19581
1.19597
1.19617
1.19651
1.19691
1.19748
1.19826
1.19927
1.20048
1.20187
1.20346
1.20516
1.20682
1.20832
1.20957
1.21049
1.21104
1.2119
1.21261
1.21311
1.21346
1.21379
1.21417
1.21456
1.21494
1.21532
1.21568
1.21608
1.21637
1.21668
1.21708
1.21755
1.21793
1.21843
1.21906
1.21955
1.22004
1.22049
1.22089
1.2213
1.22166
1.22199
1.2223
1.22254
1.2228
1.22303
1.22323
1.22344
1.22362
1.22379
1.22391
1.22398
1.22402
1.22395
1.22381
1.2236
1.22344
1.22319
1.22236
1.222
1.22153
1.22105
1.22053
1.21994
1.21928
1.21854
1.21772
1.21678
1.21574
1.21455
1.2132
1.21178
1.21035
1.20902
1.20778
1.20651
1.20524
1.20391
1.20256
1.20121
1.1999
1.19867
1.19753
1.19651
1.19558
1.19475
1.19399
1.19332
1.19273
1.1922
1.19171
1.19128
1.19089
1.19055
1.19025
1.18998
1.18974
1.18954
1.18937
1.18923
1.18911
1.18903
1.18897
1.18893
1.18891
1.18892
1.18896
1.18902
1.18911
1.18922
1.18936
1.18952
1.18971
1.18991
1.19014
1.19038
1.19065
1.19093
1.19123
1.19154
1.19187
1.19221
1.19256
1.19292
1.1933
1.19368
1.19407
1.19447
1.19487
1.19528
1.1957
1.19611
1.19653
1.19695
1.19737
1.19778
1.1982
1.19861
1.19901
1.19942
1.19981
1.2002
1.20058
1.20095
1.20131
1.20166
1.202
1.20233
1.20264
1.20295
1.20323
1.2035
1.20376
1.204
1.20421
1.20442
1.2046
1.20476
1.2049
1.20503
1.20513
1.20522
1.20528
1.20533
1.20536
1.20537
1.20537
1.20535
1.20531
1.20524
1.20515
1.20505
1.20492
1.20478
1.20462
1.20444
1.20425
1.20405
1.20383
1.2036
1.20336
1.20311
1.20285
1.20258
1.2023
1.20202
1.20174
1.20145
1.20116
1.20086
1.20057
1.20028
1.19999
1.19971
1.19943
1.19915
1.19888
1.19862
1.19837
1.19812
1.19789
1.19767
1.19746
1.19726
1.19708
1.19691
1.19676
1.19662
1.19649
1.19639
1.1963
1.19622
1.19616
1.19612
1.19609
1.19607
1.19607
1.19608
1.19612
1.19616
1.19623
1.19631
1.19641
1.19652
1.19665
1.19679
1.19695
1.19712
1.1973
1.1975
1.1977
1.19792
1.19815
1.19838
1.19863
1.19888
1.19914
1.1994
1.19967
1.19995
1.20022
1.2005
1.20079
1.20107
1.20135
1.20163
1.2019
1.20217
1.20244
1.2027
1.20295
1.20319
1.20342
1.20365
1.20386
1.20406
1.20424
1.20441
1.20457
1.20471
1.20483
1.20494
1.20503
1.20511
1.20516
1.2052
1.20523
1.20524
1.20523
1.20521
1.20518
1.20512
1.20506
1.20498
1.20489
1.20479
1.20467
1.20455
1.20441
1.20427
1.20411
1.20396
1.20379
1.20362
1.20345
1.20328
1.20311
1.20294
1.20276
1.20259
1.20243
1.20227
1.20211
1.20196
1.20181
1.20167
1.20154
1.20142
1.2013
1.20119
1.2011
1.20101
1.20092
1.20085
1.20079
1.20074
1.20069
1.20065
1.20062
1.2006
1.20059
1.20058
1.20058
1.20059
1.2006
1.20062
1.20064
1.20066
1.20069
1.20072
1.20075
1.20079
1.20082
1.20086
1.2009
1.20094
1.20098
1.20102
1.20106
1.20109
1.20113
1.20117
1.2012
1.20124
1.20127
1.2013
1.20133
1.20136
1.20139
1.20142
1.20145
1.20148
1.2015
1.20153
1.20155
1.20158
1.2016
1.20163
1.20166
1.20168
1.20171
1.20174
1.20177
1.2018
1.20183
1.20185
1.20188
1.2019
1.20195
1.20198
1.20201
1.20206
1.2021
1.20211
1.20216
1.20217
1.20229
1.20234
1.20236
1.20232
1.20232
1.2024
1.20248
1.20252
1.20256
1.20256
1.20258
1.20261
1.20261
1.20262
1.20263
1.20263
1.20264
1.20264
1.20264
1.20263
1.20263
1.20263
1.20261
1.2026
1.20259
1.20257
1.20256
1.20254
1.20252
1.20251
1.2025
1.20248
1.20247
1.20246
1.20246
1.20244
1.20243
1.20244
1.20244
1.20244
1.20244
1.20246
1.20248
1.20249
1.20251
1.20253
1.20256
1.20258
1.2026
1.20264
1.20267
1.20272
1.20275
1.20279
1.20284
1.20288
1.20292
1.20296
1.203
1.20305
1.20309
1.20313
1.20317
1.2032
1.20324
1.20327
1.2033
1.20333
1.20335
1.20338
1.20339
1.20341
1.20341
1.20342
1.20342
1.20342
1.20342
1.20341
1.2034
1.20338
1.20337
1.20335
1.20332
1.2033
1.20327
1.20324
1.20321
1.20318
1.20315
1.20312
1.20309
1.20306
1.20303
1.203
1.20298
1.20295
1.20293
1.2029
1.20289
1.20288
1.20287
1.20287
1.20286
1.20287
1.20288
1.2029
1.20293
1.20297
1.20302
1.20308
1.20316
1.20323
1.20329
1.20334
1.20336
1.20336
1.20334
1.20332
1.20322
1.20318
1.20315
1.20314
1.20323
1.19469
1.1946
1.19477
1.19492
1.1951
1.19527
1.19545
1.19561
1.19578
1.19594
1.19608
1.19626
1.19648
1.19672
1.19719
1.19787
1.19878
1.19991
1.20119
1.20273
1.20452
1.20639
1.20824
1.2099
1.21127
1.21226
1.21288
1.21317
1.21362
1.21391
1.21431
1.21456
1.21475
1.21492
1.21507
1.21526
1.21556
1.21596
1.21634
1.2169
1.21723
1.2175
1.21777
1.21814
1.21849
1.21892
1.2192
1.21949
1.21978
1.22003
1.22029
1.22052
1.22073
1.22091
1.22106
1.22127
1.22151
1.2218
1.22215
1.22254
1.22296
1.22341
1.22386
1.22427
1.22462
1.2249
1.22511
1.22522
1.22525
1.2253
1.22519
1.22507
1.22487
1.22464
1.22432
1.22395
1.22351
1.22283
1.22218
1.22147
1.22064
1.21962
1.21842
1.21709
1.2158
1.21463
1.21342
1.21225
1.21094
1.20946
1.20781
1.20601
1.20413
1.20245
1.20086
1.19941
1.1981
1.19686
1.19572
1.1947
1.19384
1.19308
1.1924
1.19181
1.1913
1.19087
1.19049
1.19017
1.18989
1.18967
1.18949
1.18935
1.18925
1.18918
1.18914
1.18912
1.18913
1.18918
1.18924
1.18934
1.18945
1.18959
1.18976
1.18994
1.19015
1.19038
1.19062
1.19089
1.19117
1.19147
1.19178
1.1921
1.19244
1.19279
1.19316
1.19353
1.19391
1.1943
1.1947
1.1951
1.19551
1.19593
1.19634
1.19676
1.19718
1.19759
1.19801
1.19843
1.19884
1.19924
1.19965
1.20004
1.20043
1.20081
1.20118
1.20154
1.2019
1.20224
1.20257
1.20288
1.20318
1.20347
1.20375
1.204
1.20424
1.20446
1.20467
1.20485
1.20502
1.20516
1.20529
1.2054
1.20548
1.20555
1.2056
1.20563
1.20566
1.20565
1.20564
1.2056
1.20553
1.20545
1.20534
1.20522
1.20508
1.20492
1.20475
1.20456
1.20436
1.20415
1.20392
1.20368
1.20343
1.20317
1.2029
1.20263
1.20235
1.20207
1.20178
1.20149
1.2012
1.20091
1.20062
1.20033
1.20004
1.19976
1.19949
1.19922
1.19896
1.19871
1.19846
1.19823
1.19801
1.1978
1.1976
1.19742
1.19725
1.19709
1.19695
1.19683
1.19672
1.19663
1.19655
1.19649
1.19644
1.19641
1.19639
1.19639
1.1964
1.19643
1.19647
1.19654
1.19662
1.19671
1.19683
1.19695
1.1971
1.19725
1.19742
1.1976
1.19779
1.198
1.19821
1.19844
1.19867
1.19892
1.19917
1.19943
1.19969
1.19996
1.20024
1.20052
1.2008
1.20108
1.20136
1.20164
1.20192
1.20219
1.20247
1.20273
1.20299
1.20324
1.20349
1.20372
1.20394
1.20415
1.20435
1.20454
1.20471
1.20487
1.20501
1.20513
1.20524
1.20533
1.20541
1.20546
1.20551
1.20553
1.20555
1.20554
1.20553
1.20549
1.20544
1.20538
1.2053
1.20522
1.20512
1.205
1.20488
1.20475
1.20461
1.20446
1.2043
1.20414
1.20397
1.20381
1.20364
1.20347
1.2033
1.20313
1.20296
1.2028
1.20264
1.20248
1.20233
1.20219
1.20205
1.20192
1.2018
1.20169
1.20158
1.20149
1.2014
1.20132
1.20125
1.20119
1.20113
1.20109
1.20105
1.20103
1.20101
1.201
1.20099
1.20099
1.201
1.20101
1.20103
1.20105
1.20107
1.2011
1.20113
1.20117
1.2012
1.20124
1.20128
1.20132
1.20136
1.2014
1.20144
1.20148
1.20152
1.20156
1.20159
1.20163
1.20166
1.2017
1.20173
1.20176
1.20179
1.20182
1.20185
1.20188
1.20191
1.20194
1.20196
1.20199
1.20202
1.20205
1.20207
1.2021
1.20213
1.20216
1.20219
1.20222
1.20225
1.20228
1.20232
1.20237
1.20242
1.20244
1.20246
1.2025
1.20254
1.20255
1.20262
1.20265
1.20268
1.20265
1.20267
1.20271
1.20281
1.20288
1.20284
1.20281
1.20284
1.20284
1.20289
1.2029
1.20289
1.20292
1.20294
1.20294
1.20295
1.20295
1.20295
1.20295
1.20294
1.20293
1.20292
1.20292
1.2029
1.20289
1.20287
1.20286
1.20285
1.20284
1.20282
1.20281
1.2028
1.20278
1.20278
1.20276
1.20277
1.20277
1.20276
1.20276
1.20278
1.20279
1.20279
1.20281
1.20283
1.20284
1.20287
1.2029
1.20293
1.20297
1.203
1.20304
1.20307
1.20312
1.20316
1.2032
1.20325
1.2033
1.20335
1.2034
1.20344
1.20348
1.20352
1.20357
1.20361
1.20364
1.20368
1.20371
1.20374
1.20377
1.20379
1.20381
1.20383
1.20384
1.20385
1.20385
1.20385
1.20385
1.20384
1.20383
1.20382
1.2038
1.20378
1.20376
1.20374
1.20371
1.20368
1.20365
1.20361
1.20358
1.20355
1.20351
1.20348
1.20344
1.20341
1.20338
1.20335
1.20332
1.20329
1.20327
1.20325
1.20323
1.20322
1.20321
1.20321
1.20321
1.20322
1.20324
1.20327
1.20331
1.20336
1.20342
1.20348
1.20353
1.20358
1.20362
1.20364
1.20364
1.20363
1.20374
1.20373
1.20373
1.20376
1.20385
1.1949
1.19487
1.1951
1.19535
1.19565
1.19595
1.19619
1.19639
1.19657
1.1967
1.19683
1.19703
1.19728
1.19766
1.19836
1.19929
1.20037
1.2016
1.20301
1.20466
1.20644
1.2081
1.20961
1.21094
1.21199
1.21271
1.21326
1.21376
1.21407
1.21424
1.21445
1.21461
1.21478
1.21502
1.21526
1.21552
1.21586
1.21621
1.21658
1.21686
1.21726
1.21777
1.21826
1.21873
1.2191
1.21935
1.21969
1.22002
1.22023
1.22036
1.22043
1.22039
1.22029
1.22013
1.2199
1.21971
1.21959
1.21958
1.21973
1.22
1.22038
1.22099
1.22174
1.22262
1.22349
1.22427
1.22487
1.22528
1.2255
1.22571
1.22566
1.22565
1.22557
1.22545
1.22526
1.22503
1.22479
1.2244
1.224
1.22363
1.22321
1.22269
1.22206
1.22129
1.22044
1.21945
1.21856
1.21767
1.21672
1.21557
1.21421
1.21254
1.21069
1.20882
1.20706
1.20538
1.20378
1.20216
1.20052
1.19896
1.19757
1.19633
1.19524
1.19428
1.19344
1.19271
1.19205
1.19149
1.191
1.19059
1.19025
1.18998
1.18977
1.18962
1.18951
1.18945
1.18942
1.18944
1.18949
1.18957
1.18968
1.18982
1.18998
1.19016
1.19037
1.1906
1.19085
1.19111
1.19139
1.19169
1.192
1.19233
1.19267
1.19302
1.19338
1.19376
1.19414
1.19453
1.19493
1.19533
1.19574
1.19615
1.19657
1.19698
1.1974
1.19782
1.19824
1.19865
1.19906
1.19947
1.19987
1.20027
1.20065
1.20104
1.20141
1.20177
1.20212
1.20246
1.20279
1.20311
1.20341
1.2037
1.20397
1.20422
1.20446
1.20468
1.20489
1.20507
1.20523
1.20538
1.20551
1.20561
1.2057
1.20577
1.20582
1.20585
1.20587
1.20588
1.20586
1.20582
1.20575
1.20567
1.20557
1.20544
1.20531
1.20515
1.20498
1.20479
1.20459
1.20437
1.20414
1.20391
1.20366
1.2034
1.20313
1.20286
1.20258
1.2023
1.20201
1.20172
1.20143
1.20114
1.20085
1.20057
1.20028
1.2
1.19973
1.19946
1.1992
1.19895
1.19871
1.19848
1.19826
1.19805
1.19785
1.19767
1.1975
1.19734
1.19721
1.19708
1.19697
1.19688
1.19681
1.19675
1.1967
1.19667
1.19665
1.19665
1.19666
1.19669
1.19674
1.1968
1.19688
1.19698
1.19709
1.19721
1.19736
1.19751
1.19768
1.19787
1.19806
1.19827
1.19848
1.19871
1.19895
1.19919
1.19944
1.1997
1.19997
1.20024
1.20052
1.20079
1.20107
1.20136
1.20164
1.20192
1.2022
1.20247
1.20275
1.20301
1.20327
1.20352
1.20377
1.204
1.20422
1.20444
1.20464
1.20482
1.20499
1.20515
1.20529
1.20542
1.20553
1.20562
1.2057
1.20576
1.2058
1.20583
1.20584
1.20584
1.20582
1.20578
1.20573
1.20567
1.2056
1.20551
1.20541
1.2053
1.20517
1.20504
1.2049
1.20475
1.2046
1.20444
1.20427
1.2041
1.20393
1.20376
1.20359
1.20342
1.20326
1.20309
1.20294
1.20278
1.20263
1.20249
1.20235
1.20222
1.2021
1.20199
1.20188
1.20178
1.2017
1.20162
1.20155
1.20149
1.20143
1.20139
1.20135
1.20133
1.20131
1.2013
1.20129
1.20129
1.2013
1.20131
1.20133
1.20135
1.20137
1.2014
1.20143
1.20147
1.2015
1.20154
1.20158
1.20162
1.20166
1.2017
1.20174
1.20178
1.20182
1.20186
1.2019
1.20194
1.20197
1.20201
1.20204
1.20207
1.20211
1.20214
1.20217
1.2022
1.20223
1.20225
1.20228
1.20231
1.20234
1.20237
1.20239
1.20242
1.20245
1.20248
1.20251
1.20254
1.20257
1.20261
1.20264
1.20266
1.20269
1.20273
1.20277
1.20281
1.20284
1.20289
1.20293
1.20297
1.20301
1.20305
1.20306
1.2031
1.20314
1.20317
1.20322
1.20325
1.20326
1.20328
1.20331
1.20334
1.20335
1.20337
1.20338
1.20339
1.20339
1.2034
1.2034
1.2034
1.2034
1.20339
1.20338
1.20337
1.20336
1.20335
1.20333
1.20332
1.2033
1.20329
1.20327
1.20326
1.20325
1.20324
1.20323
1.20322
1.20321
1.20321
1.20321
1.20321
1.20322
1.20323
1.20324
1.20325
1.20327
1.20329
1.20331
1.20334
1.20337
1.20341
1.20344
1.20348
1.20352
1.20356
1.20361
1.20365
1.2037
1.20374
1.20379
1.20383
1.20388
1.20392
1.20397
1.20401
1.20405
1.20409
1.20412
1.20416
1.20419
1.20421
1.20424
1.20426
1.20427
1.20429
1.2043
1.2043
1.2043
1.2043
1.2043
1.20429
1.20428
1.20426
1.20425
1.20423
1.20421
1.20418
1.20416
1.20413
1.2041
1.20407
1.20404
1.20401
1.20398
1.20396
1.20393
1.2039
1.20388
1.20386
1.20384
1.20382
1.20381
1.2038
1.2038
1.2038
1.2038
1.20381
1.20383
1.20385
1.20388
1.20391
1.20396
1.20401
1.20406
1.20412
1.20418
1.20424
1.20429
1.20434
1.20438
1.20439
1.2044
1.2044
1.20439
1.20444
1.19491
1.19492
1.19532
1.19577
1.19627
1.19676
1.19712
1.19734
1.19751
1.19765
1.19785
1.19822
1.19866
1.1993
1.20028
1.2015
1.20276
1.20417
1.20581
1.20758
1.20918
1.21046
1.21149
1.21227
1.21277
1.21305
1.21322
1.21339
1.21356
1.21365
1.2138
1.21391
1.21406
1.21427
1.21456
1.21489
1.21532
1.21577
1.21628
1.21679
1.21735
1.21783
1.21829
1.21869
1.21898
1.21919
1.21921
1.21917
1.21899
1.21871
1.21835
1.21783
1.21723
1.21659
1.21582
1.21504
1.21427
1.21353
1.21294
1.21255
1.21243
1.21253
1.21296
1.2139
1.21517
1.21685
1.21866
1.22047
1.22214
1.22355
1.22441
1.2251
1.22549
1.22563
1.22548
1.22524
1.22496
1.22468
1.22434
1.22402
1.22371
1.22337
1.223
1.22259
1.22216
1.22162
1.22102
1.22046
1.21984
1.21912
1.21825
1.21712
1.21576
1.2143
1.21281
1.21136
1.20991
1.20834
1.20663
1.20481
1.20305
1.20138
1.19986
1.19849
1.19726
1.19614
1.19511
1.19417
1.19333
1.19257
1.1919
1.19134
1.19087
1.19051
1.19023
1.19003
1.1899
1.18984
1.18983
1.18986
1.18994
1.19006
1.19021
1.19039
1.1906
1.19083
1.19107
1.19134
1.19162
1.19192
1.19223
1.19256
1.1929
1.19325
1.19362
1.19399
1.19437
1.19476
1.19516
1.19556
1.19597
1.19638
1.1968
1.19722
1.19764
1.19805
1.19847
1.19888
1.19929
1.1997
1.2001
1.2005
1.20089
1.20127
1.20164
1.202
1.20235
1.20269
1.20302
1.20334
1.20364
1.20393
1.2042
1.20445
1.20469
1.20491
1.20512
1.2053
1.20546
1.20561
1.20573
1.20584
1.20593
1.20599
1.20605
1.20608
1.2061
1.2061
1.20608
1.20604
1.20598
1.20589
1.20579
1.20567
1.20553
1.20538
1.2052
1.20502
1.20482
1.2046
1.20437
1.20414
1.20389
1.20363
1.20336
1.20309
1.20281
1.20253
1.20224
1.20196
1.20167
1.20138
1.20109
1.2008
1.20052
1.20024
1.19997
1.1997
1.19945
1.1992
1.19895
1.19872
1.1985
1.1983
1.1981
1.19792
1.19775
1.1976
1.19746
1.19734
1.19723
1.19714
1.19706
1.197
1.19695
1.19692
1.19691
1.1969
1.19692
1.19695
1.19699
1.19705
1.19713
1.19723
1.19734
1.19747
1.19761
1.19776
1.19793
1.19811
1.1983
1.19851
1.19873
1.19895
1.19919
1.19943
1.19969
1.19994
1.20021
1.20048
1.20076
1.20103
1.20131
1.2016
1.20188
1.20216
1.20244
1.20271
1.20298
1.20325
1.20351
1.20376
1.204
1.20424
1.20446
1.20467
1.20487
1.20506
1.20523
1.20539
1.20553
1.20566
1.20577
1.20587
1.20594
1.206
1.20605
1.20607
1.20609
1.20609
1.20607
1.20604
1.20599
1.20593
1.20586
1.20577
1.20568
1.20556
1.20544
1.20531
1.20517
1.20502
1.20487
1.20471
1.20455
1.20438
1.20421
1.20405
1.20388
1.20371
1.20355
1.20338
1.20323
1.20307
1.20292
1.20278
1.20265
1.20252
1.2024
1.20229
1.20218
1.20209
1.202
1.20192
1.20185
1.20179
1.20174
1.20169
1.20166
1.20163
1.20161
1.2016
1.2016
1.2016
1.2016
1.20162
1.20163
1.20166
1.20168
1.20171
1.20174
1.20178
1.20182
1.20185
1.20189
1.20193
1.20197
1.20201
1.20206
1.2021
1.20214
1.20218
1.20221
1.20225
1.20229
1.20232
1.20236
1.20239
1.20243
1.20246
1.20249
1.20252
1.20255
1.20258
1.20261
1.20264
1.20267
1.2027
1.20273
1.20276
1.20279
1.20282
1.20285
1.20289
1.20292
1.20296
1.20299
1.20303
1.20307
1.20311
1.20314
1.20318
1.20322
1.20326
1.2033
1.20333
1.20337
1.2034
1.20344
1.20348
1.20351
1.20355
1.20357
1.20359
1.20362
1.20365
1.20367
1.20369
1.20371
1.20372
1.20374
1.20375
1.20375
1.20376
1.20376
1.20376
1.20375
1.20375
1.20374
1.20373
1.20371
1.2037
1.20369
1.20367
1.20366
1.20364
1.20363
1.20361
1.2036
1.20358
1.20357
1.20357
1.20356
1.20356
1.20355
1.20356
1.20356
1.20357
1.20358
1.20359
1.20361
1.20363
1.20366
1.20368
1.20371
1.20375
1.20378
1.20382
1.20386
1.20391
1.20395
1.20399
1.20404
1.20409
1.20413
1.20418
1.20423
1.20427
1.20432
1.20436
1.2044
1.20444
1.20448
1.20451
1.20454
1.20457
1.2046
1.20462
1.20464
1.20465
1.20466
1.20467
1.20467
1.20467
1.20467
1.20466
1.20465
1.20464
1.20463
1.20461
1.20459
1.20457
1.20454
1.20452
1.20449
1.20446
1.20443
1.2044
1.20438
1.20435
1.20432
1.2043
1.20427
1.20425
1.20424
1.20422
1.20421
1.2042
1.20419
1.20419
1.2042
1.2042
1.20422
1.20423
1.20426
1.20428
1.20432
1.20436
1.2044
1.20445
1.2045
1.20456
1.20462
1.20468
1.20474
1.20479
1.20483
1.20485
1.20487
1.2049
1.19499
1.19506
1.19567
1.19637
1.19712
1.1978
1.19823
1.19846
1.19861
1.19882
1.1992
1.19983
1.20055
1.20135
1.2025
1.20375
1.20494
1.20629
1.20779
1.20937
1.21066
1.21158
1.21224
1.21264
1.21283
1.21288
1.21292
1.21294
1.21296
1.21291
1.21299
1.21314
1.21332
1.21369
1.21418
1.21472
1.2153
1.21585
1.21642
1.21692
1.21749
1.21794
1.21831
1.21864
1.21876
1.21881
1.21874
1.21856
1.21834
1.21795
1.2175
1.21686
1.21613
1.21525
1.21422
1.21314
1.21199
1.2107
1.20939
1.20809
1.20692
1.20597
1.20528
1.20493
1.20493
1.20574
1.20706
1.20903
1.21145
1.21413
1.21667
1.21931
1.22166
1.2236
1.2248
1.22523
1.22526
1.22505
1.22467
1.22422
1.22378
1.22338
1.22305
1.22273
1.22244
1.22215
1.22172
1.22131
1.22088
1.22039
1.21983
1.21918
1.21836
1.21745
1.2165
1.2155
1.2144
1.2132
1.21182
1.21028
1.20866
1.20697
1.2053
1.20373
1.20226
1.20087
1.19954
1.19827
1.19705
1.1959
1.19483
1.19386
1.19301
1.19229
1.19169
1.19121
1.19084
1.19057
1.1904
1.19032
1.1903
1.19036
1.19047
1.19062
1.19081
1.19103
1.19127
1.19153
1.19182
1.19212
1.19243
1.19276
1.1931
1.19345
1.19382
1.19419
1.19458
1.19497
1.19537
1.19577
1.19618
1.19659
1.19701
1.19743
1.19785
1.19826
1.19868
1.19909
1.1995
1.19991
1.20031
1.20071
1.2011
1.20148
1.20185
1.20221
1.20256
1.2029
1.20323
1.20355
1.20385
1.20414
1.20441
1.20466
1.2049
1.20512
1.20532
1.2055
1.20567
1.20581
1.20593
1.20604
1.20612
1.20619
1.20624
1.20627
1.20629
1.20629
1.20627
1.20623
1.20617
1.20608
1.20598
1.20586
1.20572
1.20556
1.20539
1.2052
1.205
1.20479
1.20456
1.20432
1.20408
1.20382
1.20355
1.20328
1.203
1.20272
1.20243
1.20214
1.20186
1.20157
1.20128
1.20099
1.20071
1.20043
1.20016
1.1999
1.19964
1.19939
1.19915
1.19892
1.1987
1.19849
1.1983
1.19812
1.19795
1.1978
1.19766
1.19754
1.19744
1.19735
1.19727
1.19721
1.19717
1.19713
1.19712
1.19711
1.19713
1.19716
1.1972
1.19727
1.19734
1.19744
1.19755
1.19768
1.19782
1.19797
1.19814
1.19832
1.19851
1.19872
1.19893
1.19916
1.19939
1.19964
1.19989
1.20015
1.20041
1.20069
1.20096
1.20124
1.20152
1.2018
1.20208
1.20236
1.20264
1.20292
1.20319
1.20345
1.20371
1.20396
1.2042
1.20444
1.20466
1.20487
1.20507
1.20526
1.20543
1.20559
1.20573
1.20586
1.20597
1.20607
1.20615
1.20621
1.20625
1.20628
1.2063
1.2063
1.20628
1.20625
1.2062
1.20614
1.20607
1.20599
1.20589
1.20578
1.20566
1.20553
1.20539
1.20525
1.20509
1.20494
1.20478
1.20461
1.20444
1.20428
1.20411
1.20394
1.20378
1.20362
1.20346
1.20331
1.20316
1.20302
1.20289
1.20276
1.20264
1.20253
1.20242
1.20233
1.20224
1.20216
1.20209
1.20203
1.20198
1.20194
1.2019
1.20187
1.20185
1.20184
1.20184
1.20184
1.20184
1.20186
1.20187
1.2019
1.20192
1.20195
1.20198
1.20202
1.20205
1.20209
1.20213
1.20217
1.20221
1.20225
1.2023
1.20234
1.20238
1.20242
1.20246
1.20249
1.20253
1.20257
1.2026
1.20264
1.20267
1.2027
1.20274
1.20277
1.2028
1.20283
1.20286
1.20289
1.20292
1.20295
1.20299
1.20302
1.20305
1.20308
1.20312
1.20315
1.20319
1.20322
1.20326
1.2033
1.20333
1.20337
1.20341
1.20345
1.20349
1.20353
1.20357
1.20361
1.20365
1.20369
1.20373
1.20377
1.2038
1.20383
1.20386
1.20389
1.20392
1.20395
1.20397
1.20399
1.20401
1.20403
1.20404
1.20405
1.20406
1.20406
1.20407
1.20406
1.20406
1.20406
1.20405
1.20404
1.20402
1.20401
1.20399
1.20398
1.20396
1.20394
1.20393
1.20391
1.2039
1.20388
1.20387
1.20386
1.20385
1.20385
1.20384
1.20384
1.20385
1.20385
1.20386
1.20388
1.20389
1.20391
1.20393
1.20396
1.20399
1.20402
1.20405
1.20409
1.20413
1.20417
1.20422
1.20426
1.20431
1.20435
1.2044
1.20445
1.20449
1.20454
1.20458
1.20463
1.20467
1.20471
1.20475
1.20478
1.20481
1.20484
1.20487
1.20489
1.20491
1.20493
1.20494
1.20495
1.20495
1.20496
1.20495
1.20495
1.20494
1.20493
1.20492
1.2049
1.20488
1.20486
1.20484
1.20481
1.20479
1.20476
1.20473
1.20471
1.20468
1.20465
1.20463
1.20461
1.20458
1.20456
1.20455
1.20453
1.20452
1.20451
1.20451
1.2045
1.20451
1.20451
1.20452
1.20454
1.20456
1.20458
1.20461
1.20464
1.20467
1.20472
1.20476
1.20481
1.20486
1.20492
1.20498
1.20502
1.20508
1.20512
1.20516
1.20519
1.19506
1.1952
1.19603
1.19704
1.19807
1.1989
1.19941
1.19963
1.19983
1.20024
1.20099
1.20197
1.20287
1.20372
1.20487
1.20615
1.20736
1.20853
1.20972
1.21078
1.21149
1.21193
1.21222
1.21237
1.21242
1.21232
1.21216
1.212
1.21189
1.21182
1.21193
1.2122
1.21259
1.21307
1.21371
1.21421
1.21482
1.21541
1.21581
1.21637
1.21662
1.21697
1.21705
1.21718
1.21719
1.21715
1.21712
1.21701
1.21689
1.21672
1.21651
1.21616
1.21565
1.21511
1.21423
1.21316
1.21196
1.21057
1.20908
1.20749
1.20589
1.20432
1.20284
1.20147
1.20035
1.19959
1.19924
1.19952
1.20043
1.2021
1.20437
1.20754
1.21132
1.21553
1.21948
1.22243
1.22416
1.22486
1.2249
1.22467
1.22423
1.22369
1.22318
1.22275
1.22239
1.22207
1.22174
1.22142
1.22109
1.22073
1.22031
1.21987
1.21937
1.21878
1.21815
1.2175
1.21678
1.21597
1.21505
1.21398
1.21276
1.21141
1.21
1.20859
1.20717
1.20577
1.20436
1.20295
1.20152
1.20009
1.19869
1.19735
1.19609
1.19494
1.19391
1.19304
1.19232
1.19175
1.19132
1.19103
1.19085
1.19077
1.19078
1.19087
1.19101
1.1912
1.19143
1.19169
1.19197
1.19227
1.19258
1.19291
1.19325
1.19361
1.19397
1.19435
1.19473
1.19513
1.19553
1.19593
1.19634
1.19676
1.19717
1.19759
1.19801
1.19843
1.19885
1.19926
1.19967
1.20008
1.20048
1.20087
1.20126
1.20164
1.20202
1.20238
1.20273
1.20307
1.2034
1.20371
1.20402
1.2043
1.20457
1.20483
1.20507
1.20529
1.20549
1.20567
1.20583
1.20597
1.2061
1.2062
1.20628
1.20635
1.2064
1.20643
1.20645
1.20645
1.20643
1.20638
1.20632
1.20623
1.20613
1.206
1.20586
1.20571
1.20553
1.20535
1.20515
1.20493
1.2047
1.20447
1.20422
1.20396
1.20369
1.20342
1.20314
1.20286
1.20257
1.20228
1.20199
1.2017
1.20142
1.20113
1.20085
1.20057
1.2003
1.20003
1.19977
1.19952
1.19929
1.19906
1.19884
1.19863
1.19844
1.19826
1.19809
1.19794
1.19781
1.19768
1.19758
1.19749
1.19742
1.19736
1.19731
1.19728
1.19727
1.19726
1.19728
1.19731
1.19735
1.19742
1.1975
1.19759
1.1977
1.19783
1.19797
1.19812
1.19829
1.19846
1.19866
1.19886
1.19907
1.1993
1.19953
1.19978
1.20003
1.20029
1.20055
1.20082
1.20109
1.20137
1.20165
1.20193
1.20221
1.20249
1.20277
1.20305
1.20332
1.20358
1.20384
1.20409
1.20433
1.20457
1.20479
1.205
1.2052
1.20539
1.20556
1.20572
1.20586
1.20599
1.2061
1.2062
1.20628
1.20634
1.20638
1.20642
1.20643
1.20643
1.20642
1.20639
1.20634
1.20629
1.20622
1.20614
1.20604
1.20593
1.20581
1.20569
1.20555
1.2054
1.20525
1.2051
1.20494
1.20477
1.20461
1.20444
1.20427
1.20411
1.20395
1.20379
1.20363
1.20348
1.20333
1.20319
1.20306
1.20293
1.20281
1.2027
1.2026
1.2025
1.20242
1.20234
1.20227
1.20221
1.20216
1.20211
1.20208
1.20205
1.20203
1.20202
1.20201
1.20201
1.20202
1.20203
1.20205
1.20207
1.20209
1.20212
1.20215
1.20219
1.20222
1.20226
1.2023
1.20234
1.20238
1.20242
1.20247
1.20251
1.20255
1.20259
1.20263
1.20267
1.2027
1.20274
1.20278
1.20281
1.20285
1.20288
1.20291
1.20295
1.20298
1.20301
1.20304
1.20307
1.2031
1.20314
1.20317
1.2032
1.20324
1.20327
1.20331
1.20334
1.20338
1.20342
1.20346
1.20349
1.20354
1.20358
1.20362
1.20366
1.2037
1.20374
1.20378
1.20383
1.20387
1.20391
1.20394
1.20398
1.20402
1.20405
1.20408
1.20411
1.20414
1.20417
1.20419
1.20422
1.20424
1.20426
1.20427
1.20428
1.20429
1.20429
1.20429
1.20429
1.20429
1.20428
1.20427
1.20426
1.20425
1.20424
1.20422
1.2042
1.20419
1.20417
1.20415
1.20413
1.20412
1.2041
1.20409
1.20408
1.20407
1.20406
1.20406
1.20405
1.20405
1.20406
1.20407
1.20408
1.20409
1.20411
1.20413
1.20415
1.20418
1.20421
1.20424
1.20428
1.20431
1.20435
1.2044
1.20444
1.20448
1.20453
1.20457
1.20462
1.20466
1.20471
1.20475
1.2048
1.20484
1.20488
1.20492
1.20495
1.20499
1.20502
1.20504
1.20507
1.20509
1.20511
1.20512
1.20513
1.20514
1.20514
1.20514
1.20514
1.20513
1.20512
1.20511
1.20509
1.20507
1.20506
1.20503
1.20501
1.20499
1.20496
1.20494
1.20491
1.20489
1.20486
1.20484
1.20481
1.20479
1.20477
1.20476
1.20474
1.20473
1.20472
1.20472
1.20471
1.20472
1.20472
1.20473
1.20474
1.20476
1.20478
1.2048
1.20483
1.20486
1.2049
1.20494
1.20498
1.20503
1.20508
1.20513
1.20517
1.20523
1.20528
1.20533
1.20536
1.19511
1.19536
1.19643
1.19777
1.19906
1.20002
1.20053
1.20082
1.20115
1.20186
1.20297
1.20417
1.20511
1.20589
1.2068
1.20788
1.20896
1.20997
1.21079
1.21136
1.2117
1.21186
1.21196
1.21191
1.21171
1.21143
1.21109
1.21082
1.21078
1.21078
1.21091
1.21131
1.21169
1.21238
1.21294
1.21356
1.21412
1.21452
1.21501
1.21534
1.21551
1.21555
1.21561
1.21554
1.21554
1.2155
1.21551
1.21553
1.21559
1.21561
1.21564
1.21551
1.21533
1.21488
1.21419
1.21323
1.21211
1.21075
1.20919
1.2074
1.20543
1.20346
1.20161
1.19991
1.19841
1.19713
1.19608
1.19529
1.19483
1.19486
1.19554
1.19719
1.19995
1.20397
1.20893
1.21415
1.21881
1.22219
1.22406
1.22468
1.22458
1.2242
1.22368
1.2231
1.22259
1.22215
1.22172
1.22136
1.22105
1.22072
1.22039
1.22001
1.21961
1.21916
1.21869
1.21821
1.21771
1.21714
1.21653
1.21584
1.21503
1.21412
1.2131
1.21203
1.2109
1.20971
1.20847
1.20715
1.20576
1.20428
1.20275
1.2012
1.19965
1.19816
1.19676
1.1955
1.1944
1.19347
1.19272
1.19212
1.19168
1.19139
1.19122
1.19118
1.19124
1.19137
1.19157
1.19181
1.19208
1.19237
1.19269
1.19302
1.19336
1.19372
1.19408
1.19446
1.19485
1.19524
1.19564
1.19605
1.19646
1.19687
1.19729
1.19771
1.19813
1.19855
1.19897
1.19938
1.19979
1.2002
1.2006
1.201
1.20138
1.20177
1.20214
1.2025
1.20285
1.20319
1.20352
1.20384
1.20414
1.20442
1.2047
1.20495
1.20519
1.20541
1.20561
1.20579
1.20595
1.20609
1.20621
1.20632
1.2064
1.20647
1.20651
1.20655
1.20656
1.20656
1.20653
1.20649
1.20642
1.20634
1.20623
1.2061
1.20596
1.2058
1.20563
1.20544
1.20524
1.20502
1.2048
1.20456
1.20431
1.20405
1.20379