/*--------------------------------*- C++ -*----------------------------------*\
| =========                 |                                                 |
| \\      /  F ield         | OpenFOAM: The Open Source CFD Toolbox           |
|  \\    /   O peration     | Version:  v1812                                 |
|   \\  /    A nd           | Web:      www.OpenFOAM.com                      |
|    \\/     M anipulation  |                                                 |
\*---------------------------------------------------------------------------*/
FoamFile
{
    version     2.0;
    format      ascii;
    class       volScalarField;
    location    "0.3";
    object      T;
}
// * * * * * * * * * * * * * * * * * * * * * * * * * * * * * * * * * * * * * //

dimensions      [0 0 0 1 0 0 0];


internalField   nonuniform List<scalar> 
20400
(
292.043
292.039
292.045
292.046
292.046
292.047
292.046
292.048
292.051
292.055
292.059
292.063
292.061
292.048
292.017
291.963
291.875
291.747
291.568
291.337
291.058
290.741
290.408
290.075
289.766
289.496
289.281
289.106
289.003
288.924
288.876
288.83
288.797
288.776
288.763
288.759
288.758
288.76
288.769
288.785
288.809
288.829
288.852
288.872
288.889
288.911
288.927
288.941
288.949
288.957
288.967
288.978
288.994
289.006
289.015
289.03
289.043
289.058
289.076
289.095
289.115
289.137
289.161
289.19
289.223
289.263
289.313
289.368
289.419
289.476
289.52
289.567
289.616
289.676
289.753
289.852
289.969
290.102
290.248
290.404
290.572
290.748
290.924
291.089
291.238
291.375
291.503
291.627
291.746
291.856
291.948
292.017
292.077
292.137
292.168
292.19
292.2
292.202
292.197
292.188
292.174
292.155
292.133
292.112
292.092
292.075
292.06
292.043
292.028
292.016
292.004
291.996
291.989
291.985
291.983
291.982
291.983
291.987
291.994
292.003
292.014
292.027
292.043
292.061
292.081
292.103
292.127
292.153
292.18
292.209
292.239
292.271
292.304
292.338
292.373
292.41
292.447
292.485
292.524
292.564
292.604
292.644
292.685
292.726
292.767
292.808
292.849
292.89
292.93
292.971
293.01
293.049
293.087
293.126
293.163
293.199
293.234
293.268
293.301
293.333
293.363
293.392
293.42
293.446
293.471
293.494
293.515
293.534
293.551
293.567
293.581
293.593
293.603
293.611
293.617
293.622
293.625
293.627
293.627
293.625
293.62
293.613
293.605
293.595
293.583
293.569
293.554
293.537
293.518
293.499
293.478
293.456
293.433
293.409
293.384
293.358
293.332
293.306
293.278
293.251
293.223
293.196
293.168
293.141
293.114
293.087
293.06
293.035
293.01
292.985
292.962
292.94
292.918
292.898
292.879
292.861
292.845
292.83
292.817
292.805
292.794
292.785
292.778
292.772
292.768
292.766
292.764
292.764
292.765
292.769
292.773
292.78
292.788
292.797
292.809
292.822
292.836
292.851
292.868
292.886
292.906
292.926
292.948
292.97
292.994
293.018
293.044
293.07
293.096
293.123
293.151
293.179
293.207
293.235
293.264
293.292
293.32
293.348
293.376
293.403
293.429
293.455
293.48
293.504
293.527
293.548
293.569
293.589
293.607
293.623
293.639
293.652
293.664
293.675
293.683
293.69
293.696
293.699
293.702
293.703
293.702
293.7
293.696
293.691
293.685
293.677
293.669
293.659
293.648
293.636
293.623
293.609
293.595
293.58
293.565
293.549
293.533
293.518
293.502
293.486
293.47
293.455
293.44
293.426
293.412
293.398
293.386
293.374
293.362
293.352
293.342
293.333
293.326
293.318
293.312
293.307
293.303
293.299
293.296
293.294
293.293
293.292
293.293
293.293
293.295
293.297
293.299
293.302
293.305
293.309
293.313
293.317
293.322
293.326
293.331
293.336
293.34
293.345
293.35
293.355
293.36
293.364
293.369
293.374
293.378
293.382
293.387
293.391
293.395
293.399
293.402
293.406
293.41
293.413
293.417
293.421
293.424
293.428
293.431
293.435
293.438
293.442
293.446
293.45
293.454
293.458
293.462
293.466
293.471
293.475
293.48
293.485
293.489
293.493
293.498
293.502
293.507
293.51
293.515
293.519
293.523
293.526
293.53
293.533
293.538
293.541
293.544
293.546
293.548
293.551
293.553
293.554
293.556
293.557
293.558
293.559
293.558
293.559
293.56
293.558
293.558
293.558
293.557
293.557
293.556
293.555
293.555
293.555
293.553
293.553
293.553
293.554
293.554
293.554
293.556
293.557
293.559
293.56
293.562
293.566
293.568
293.571
293.575
293.579
293.583
293.588
293.593
293.598
293.603
293.609
293.614
293.62
293.626
293.632
293.639
293.645
293.65
293.656
293.662
293.668
293.673
293.678
293.683
293.688
293.692
293.696
293.7
293.704
293.707
293.709
293.711
293.713
293.715
293.716
293.716
293.717
293.717
293.717
293.716
293.715
293.714
293.713
293.711
293.709
293.708
293.706
293.703
293.701
293.699
293.697
293.694
293.692
293.69
293.689
293.687
293.685
293.683
293.682
293.681
293.68
293.679
293.678
293.676
293.674
293.67
293.665
293.656
293.646
293.634
293.624
293.62
293.621
293.631
293.648
293.672
293.697
293.72
293.741
293.756
293.766
292.048
292.043
292.039
292.034
292.026
292.018
292.01
292.005
292.004
292.006
292.01
292.013
292.01
291.994
291.957
291.879
291.764
291.608
291.39
291.128
290.818
290.468
290.099
289.742
289.422
289.166
288.971
288.827
288.76
288.707
288.663
288.626
288.6
288.582
288.567
288.557
288.556
288.552
288.535
288.519
288.51
288.488
288.474
288.462
288.453
288.456
288.461
288.472
288.48
288.486
288.493
288.502
288.516
288.527
288.537
288.551
288.562
288.572
288.58
288.586
288.592
288.597
288.603
288.614
288.626
288.641
288.669
288.714
288.741
288.731
288.745
288.749
288.754
288.767
288.793
288.834
288.891
288.966
289.065
289.187
289.34
289.526
289.733
289.935
290.115
290.276
290.431
290.593
290.767
290.947
291.13
291.307
291.462
291.598
291.71
291.796
291.868
291.922
291.959
291.983
291.996
292.004
292.005
292.001
291.994
291.982
291.972
291.961
291.951
291.942
291.933
291.926
291.921
291.917
291.916
291.915
291.917
291.922
291.929
291.938
291.949
291.963
291.979
291.998
292.018
292.04
292.065
292.091
292.119
292.148
292.179
292.211
292.244
292.279
292.315
292.352
292.389
292.428
292.467
292.507
292.547
292.588
292.629
292.67
292.711
292.752
292.793
292.834
292.874
292.915
292.954
292.993
293.032
293.069
293.106
293.142
293.177
293.211
293.244
293.275
293.306
293.335
293.362
293.388
293.412
293.434
293.455
293.474
293.491
293.506
293.52
293.531
293.541
293.548
293.555
293.559
293.562
293.563
293.563
293.56
293.555
293.548
293.539
293.529
293.517
293.503
293.487
293.47
293.452
293.432
293.411
293.388
293.365
293.341
293.316
293.29
293.264
293.237
293.21
293.183
293.155
293.127
293.1
293.072
293.045
293.019
292.992
292.967
292.942
292.918
292.895
292.873
292.852
292.832
292.813
292.795
292.779
292.765
292.752
292.74
292.73
292.721
292.714
292.709
292.705
292.703
292.702
292.702
292.703
292.707
292.712
292.719
292.727
292.737
292.749
292.762
292.776
292.792
292.809
292.827
292.847
292.867
292.889
292.912
292.936
292.96
292.986
293.012
293.038
293.065
293.093
293.121
293.149
293.178
293.206
293.235
293.263
293.291
293.318
293.345
293.372
293.397
293.422
293.446
293.469
293.491
293.511
293.531
293.549
293.565
293.58
293.594
293.606
293.616
293.624
293.631
293.636
293.64
293.642
293.643
293.642
293.64
293.636
293.631
293.625
293.617
293.608
293.598
293.587
293.575
293.562
293.548
293.533
293.518
293.503
293.487
293.471
293.455
293.439
293.423
293.408
293.392
293.377
293.363
293.349
293.335
293.322
293.31
293.299
293.288
293.279
293.27
293.262
293.255
293.248
293.243
293.238
293.235
293.232
293.23
293.228
293.228
293.228
293.229
293.23
293.232
293.235
293.237
293.241
293.244
293.248
293.252
293.257
293.261
293.266
293.271
293.275
293.28
293.285
293.29
293.295
293.299
293.304
293.308
293.313
293.317
293.321
293.325
293.329
293.333
293.337
293.341
293.344
293.348
293.351
293.355
293.358
293.362
293.365
293.368
293.372
293.376
293.379
293.383
293.387
293.391
293.394
293.4
293.404
293.409
293.414
293.418
293.423
293.426
293.431
293.436
293.445
293.449
293.455
293.455
293.46
293.463
293.464
293.477
293.483
293.477
293.481
293.483
293.483
293.49
293.491
293.493
293.494
293.496
293.497
293.498
293.499
293.498
293.497
293.498
293.497
293.497
293.496
293.494
293.496
293.497
293.493
293.493
293.494
293.492
293.492
293.49
293.493
293.495
293.493
293.493
293.496
293.498
293.498
293.5
293.504
293.506
293.509
293.512
293.518
293.522
293.526
293.531
293.534
293.54
293.546
293.55
293.556
293.563
293.569
293.574
293.58
293.584
293.589
293.595
293.601
293.605
293.61
293.615
293.619
293.622
293.625
293.629
293.631
293.634
293.636
293.638
293.639
293.64
293.641
293.641
293.641
293.641
293.64
293.639
293.638
293.637
293.635
293.633
293.631
293.629
293.626
293.624
293.622
293.62
293.617
293.615
293.613
293.612
293.611
293.609
293.606
293.605
293.603
293.602
293.601
293.599
293.596
293.593
293.588
293.581
293.572
293.563
293.555
293.552
293.553
293.56
293.575
293.595
293.62
293.638
293.658
293.675
293.687
293.698
292.034
292.016
292.008
291.99
291.965
291.939
291.917
291.905
291.902
291.902
291.906
291.905
291.897
291.868
291.816
291.722
291.564
291.351
291.103
290.802
290.439
290.056
289.689
289.364
289.111
288.931
288.804
288.701
288.638
288.579
288.541
288.508
288.48
288.452
288.423
288.405
288.381
288.337
288.313
288.329
288.291
288.296
288.28
288.261
288.257
288.265
288.265
288.277
288.297
288.316
288.336
288.357
288.387
288.416
288.442
288.469
288.487
288.496
288.497
288.488
288.471
288.444
288.413
288.383
288.355
288.33
288.308
288.287
288.256
288.228
288.193
288.159
288.126
288.096
288.07
288.049
288.032
288.011
288.005
288.019
288.061
288.144
288.272
288.427
288.577
288.717
288.833
288.955
289.107
289.307
289.55
289.832
290.128
290.383
290.621
290.83
291.015
291.185
291.334
291.455
291.55
291.624
291.685
291.732
291.767
291.791
291.809
291.824
291.835
291.84
291.845
291.847
291.849
291.851
291.852
291.855
291.858
291.864
291.871
291.88
291.892
291.905
291.921
291.94
291.96
291.982
292.006
292.032
292.06
292.09
292.12
292.153
292.186
292.221
292.257
292.293
292.331
292.37
292.409
292.449
292.489
292.53
292.571
292.612
292.653
292.695
292.736
292.777
292.817
292.858
292.898
292.937
292.976
293.013
293.05
293.086
293.121
293.156
293.188
293.22
293.25
293.279
293.307
293.333
293.357
293.38
293.4
293.419
293.436
293.451
293.464
293.476
293.485
293.493
293.498
293.503
293.505
293.506
293.506
293.503
293.497
293.49
293.481
293.47
293.458
293.444
293.428
293.41
293.392
293.371
293.35
293.328
293.304
293.279
293.254
293.228
293.201
293.174
293.146
293.119
293.091
293.062
293.034
293.007
292.979
292.952
292.925
292.899
292.874
292.85
292.826
292.803
292.782
292.762
292.743
292.725
292.708
292.694
292.68
292.668
292.658
292.649
292.642
292.636
292.632
292.629
292.629
292.628
292.63
292.633
292.638
292.644
292.653
292.663
292.674
292.686
292.7
292.716
292.733
292.751
292.77
292.79
292.812
292.834
292.858
292.882
292.907
292.933
292.96
292.987
293.014
293.042
293.07
293.098
293.126
293.155
293.183
293.21
293.238
293.265
293.291
293.316
293.341
293.365
293.388
293.409
293.43
293.449
293.467
293.483
293.498
293.512
293.523
293.533
293.542
293.549
293.554
293.557
293.56
293.561
293.56
293.557
293.554
293.549
293.542
293.535
293.526
293.516
293.505
293.493
293.48
293.466
293.452
293.437
293.422
293.406
293.39
293.374
293.358
293.342
293.327
293.311
293.296
293.282
293.268
293.254
293.241
293.229
293.218
293.207
293.198
293.189
293.181
293.173
293.167
293.161
293.157
293.153
293.15
293.148
293.146
293.146
293.145
293.146
293.147
293.149
293.151
293.154
293.157
293.16
293.164
293.168
293.172
293.176
293.181
293.185
293.19
293.194
293.199
293.204
293.208
293.213
293.217
293.222
293.226
293.23
293.234
293.238
293.242
293.246
293.249
293.253
293.256
293.26
293.263
293.267
293.27
293.274
293.277
293.281
293.284
293.288
293.291
293.295
293.299
293.303
293.308
293.309
293.311
293.314
293.317
293.322
293.327
293.332
293.334
293.339
293.34
293.345
293.345
293.355
293.358
293.36
293.37
293.37
293.367
293.377
293.38
293.384
293.39
293.388
293.39
293.392
293.393
293.394
293.395
293.396
293.396
293.397
293.396
293.396
293.396
293.395
293.395
293.394
293.392
293.39
293.39
293.389
293.388
293.389
293.388
293.389
293.387
293.386
293.388
293.389
293.389
293.39
293.393
293.395
293.397
293.4
293.403
293.406
293.408
293.411
293.416
293.421
293.427
293.431
293.436
293.442
293.447
293.451
293.456
293.462
293.467
293.474
293.479
293.483
293.488
293.494
293.498
293.501
293.505
293.509
293.513
293.516
293.519
293.521
293.523
293.524
293.525
293.526
293.526
293.526
293.526
293.525
293.524
293.522
293.521
293.519
293.516
293.514
293.511
293.508
293.505
293.502
293.499
293.496
293.493
293.489
293.486
293.482
293.479
293.476
293.474
293.471
293.468
293.465
293.462
293.459
293.456
293.452
293.447
293.441
293.434
293.427
293.42
293.416
293.415
293.418
293.425
293.437
293.451
293.48
293.501
293.523
293.544
293.561
292.024
291.998
291.967
291.919
291.859
291.8
291.754
291.73
291.723
291.723
291.721
291.71
291.682
291.625
291.509
291.33
291.117
290.868
290.583
290.236
289.858
289.501
289.189
288.94
288.767
288.656
288.594
288.564
288.541
288.517
288.504
288.488
288.47
288.452
288.433
288.402
288.355
288.317
288.292
288.235
288.236
288.195
288.187
288.188
288.185
288.195
288.225
288.276
288.341
288.424
288.533
288.66
288.807
288.965
289.123
289.28
289.416
289.515
289.57
289.585
289.561
289.463
289.317
289.127
288.923
288.718
288.531
288.371
288.244
288.156
288.073
288.004
287.942
287.883
287.825
287.775
287.728
287.668
287.605
287.545
287.495
287.461
287.455
287.482
287.534
287.576
287.613
287.653
287.718
287.83
288.002
288.241
288.536
288.836
289.114
289.372
289.622
289.883
290.151
290.407
290.633
290.824
290.985
291.122
291.239
291.339
291.425
291.499
291.562
291.615
291.658
291.693
291.722
291.744
291.761
291.775
291.787
291.799
291.811
291.823
291.836
291.85
291.867
291.885
291.906
291.928
291.952
291.978
292.006
292.035
292.066
292.098
292.132
292.166
292.202
292.239
292.277
292.316
292.355
292.395
292.436
292.477
292.518
292.559
292.601
292.642
292.684
292.725
292.765
292.806
292.846
292.885
292.924
292.962
292.999
293.035
293.071
293.105
293.138
293.17
293.2
293.229
293.256
293.282
293.307
293.329
293.35
293.369
293.386
293.401
293.414
293.425
293.434
293.442
293.447
293.451
293.453
293.454
293.453
293.45
293.444
293.437
293.427
293.416
293.403
293.388
293.372
293.354
293.335
293.315
293.293
293.27
293.246
293.221
293.195
293.169
293.141
293.114
293.086
293.057
293.029
293
292.972
292.944
292.916
292.888
292.861
292.834
292.809
292.784
292.76
292.737
292.715
292.695
292.675
292.657
292.641
292.625
292.612
292.6
292.589
292.581
292.573
292.568
292.563
292.561
292.56
292.56
292.561
292.565
292.57
292.576
292.585
292.594
292.606
292.618
292.633
292.648
292.665
292.683
292.702
292.723
292.744
292.766
292.79
292.814
292.839
292.865
292.891
292.918
292.945
292.973
293.001
293.029
293.057
293.085
293.113
293.14
293.168
293.194
293.22
293.246
293.27
293.294
293.316
293.338
293.358
293.377
293.394
293.411
293.425
293.439
293.45
293.46
293.469
293.475
293.48
293.484
293.486
293.486
293.485
293.483
293.479
293.474
293.467
293.46
293.451
293.441
293.429
293.417
293.404
293.39
293.376
293.36
293.345
293.329
293.313
293.297
293.281
293.265
293.249
293.233
293.218
293.203
293.189
293.175
293.162
293.15
293.138
293.127
293.117
293.108
293.1
293.092
293.085
293.08
293.075
293.07
293.067
293.065
293.063
293.062
293.061
293.062
293.062
293.064
293.066
293.068
293.071
293.074
293.077
293.081
293.085
293.089
293.093
293.097
293.101
293.106
293.11
293.114
293.119
293.123
293.127
293.131
293.135
293.139
293.143
293.147
293.15
293.154
293.157
293.161
293.164
293.167
293.17
293.174
293.177
293.18
293.183
293.187
293.19
293.194
293.197
293.201
293.205
293.208
293.212
293.218
293.222
293.227
293.232
293.236
293.24
293.245
293.25
293.253
293.258
293.262
293.267
293.268
293.273
293.28
293.281
293.281
293.286
293.291
293.293
293.295
293.296
293.299
293.301
293.303
293.304
293.305
293.306
293.306
293.306
293.307
293.307
293.306
293.306
293.305
293.304
293.304
293.302
293.301
293.301
293.3
293.298
293.298
293.297
293.297
293.296
293.296
293.296
293.297
293.297
293.298
293.3
293.301
293.303
293.305
293.307
293.31
293.313
293.316
293.32
293.323
293.328
293.332
293.336
293.341
293.345
293.35
293.354
293.359
293.364
293.369
293.373
293.378
293.382
293.386
293.39
293.394
293.397
293.4
293.403
293.406
293.408
293.41
293.412
293.413
293.413
293.414
293.414
293.414
293.413
293.412
293.411
293.409
293.407
293.405
293.403
293.4
293.397
293.394
293.391
293.388
293.385
293.382
293.378
293.375
293.372
293.369
293.366
293.363
293.36
293.358
293.355
293.353
293.351
293.349
293.347
293.345
293.343
293.34
293.337
293.333
293.329
293.326
293.325
293.325
293.327
293.332
293.341
293.351
293.367
293.384
293.403
293.417
292
291.953
291.897
291.805
291.696
291.593
291.519
291.488
291.482
291.48
291.465
291.422
291.351
291.249
291.079
290.852
290.605
290.33
290.006
289.642
289.307
289.042
288.84
288.697
288.606
288.555
288.535
288.528
288.528
288.525
288.527
288.522
288.506
288.484
288.451
288.398
288.344
288.291
288.239
288.178
288.142
288.117
288.107
288.131
288.161
288.226
288.306
288.417
288.56
288.734
288.945
289.186
289.456
289.749
290.047
290.351
290.648
290.92
291.155
291.329
291.43
291.462
291.399
291.211
290.943
290.555
290.104
289.621
289.168
288.786
288.476
288.221
288.026
287.884
287.779
287.699
287.629
287.573
287.511
287.443
287.369
287.293
287.22
287.156
287.11
287.072
287.033
287.006
286.993
287.009
287.066
287.174
287.336
287.532
287.732
287.934
288.15
288.396
288.681
288.988
289.299
289.591
289.856
290.092
290.303
290.495
290.671
290.834
290.985
291.122
291.244
291.351
291.441
291.516
291.577
291.626
291.665
291.698
291.725
291.748
291.769
291.789
291.809
291.829
291.85
291.873
291.897
291.923
291.951
291.98
292.01
292.043
292.076
292.111
292.147
292.184
292.222
292.261
292.3
292.341
292.381
292.422
292.464
292.505
292.547
292.589
292.63
292.672
292.713
292.753
292.793
292.833
292.872
292.91
292.947
292.984
293.019
293.053
293.087
293.119
293.149
293.178
293.206
293.232
293.257
293.279
293.3
293.319
293.336
293.352
293.365
293.376
293.385
293.393
293.398
293.402
293.404
293.405
293.404
293.401
293.395
293.387
293.377
293.366
293.353
293.338
293.321
293.303
293.283
293.262
293.24
293.217
293.193
293.168
293.141
293.115
293.087
293.059
293.031
293.002
292.973
292.944
292.915
292.887
292.858
292.83
292.803
292.776
292.75
292.724
292.7
292.676
292.654
292.633
292.613
292.595
292.578
292.562
292.548
292.536
292.525
292.516
292.508
292.503
292.498
292.495
292.494
292.494
292.495
292.499
292.503
292.51
292.518
292.528
292.539
292.552
292.566
292.582
292.598
292.616
292.636
292.656
292.677
292.7
292.723
292.747
292.772
292.797
292.824
292.85
292.877
292.905
292.933
292.96
292.988
293.016
293.044
293.071
293.099
293.125
293.151
293.176
293.201
293.224
293.247
293.268
293.288
293.307
293.325
293.341
293.356
293.369
293.38
293.39
293.398
293.405
293.41
293.413
293.415
293.416
293.415
293.412
293.408
293.403
293.397
293.389
293.381
293.37
293.359
293.347
293.334
293.32
293.305
293.29
293.275
293.259
293.243
293.227
293.21
293.194
293.178
293.163
293.147
293.132
293.118
293.104
293.091
293.079
293.067
293.056
293.046
293.037
293.028
293.02
293.014
293.008
293.003
292.998
292.995
292.992
292.99
292.989
292.989
292.989
292.989
292.99
292.992
292.994
292.996
292.999
293.002
293.006
293.009
293.013
293.017
293.021
293.025
293.029
293.033
293.037
293.041
293.045
293.049
293.053
293.057
293.06
293.064
293.068
293.071
293.075
293.078
293.081
293.084
293.088
293.091
293.094
293.097
293.1
293.104
293.107
293.11
293.114
293.117
293.121
293.125
293.129
293.133
293.136
293.14
293.144
293.148
293.153
293.157
293.161
293.166
293.17
293.174
293.178
293.182
293.186
293.191
293.193
293.197
293.201
293.204
293.207
293.21
293.213
293.216
293.218
293.22
293.221
293.222
293.223
293.224
293.225
293.225
293.225
293.225
293.225
293.224
293.223
293.223
293.222
293.221
293.22
293.219
293.218
293.217
293.216
293.216
293.215
293.215
293.214
293.214
293.215
293.215
293.216
293.217
293.218
293.22
293.222
293.224
293.226
293.229
293.232
293.235
293.238
293.242
293.246
293.25
293.254
293.258
293.262
293.266
293.27
293.275
293.279
293.283
293.287
293.291
293.295
293.298
293.301
293.305
293.307
293.31
293.312
293.314
293.315
293.317
293.318
293.318
293.318
293.318
293.318
293.317
293.316
293.314
293.313
293.311
293.308
293.306
293.303
293.3
293.297
293.294
293.291
293.288
293.285
293.281
293.278
293.275
293.272
293.269
293.267
293.264
293.262
293.26
293.258
293.256
293.255
293.254
293.253
293.252
293.251
293.25
293.249
293.249
293.248
293.247
293.247
293.248
293.25
293.253
293.258
293.266
293.277
293.293
293.306
291.967
291.898
291.797
291.647
291.475
291.324
291.231
291.197
291.192
291.175
291.112
290.996
290.86
290.702
290.483
290.235
289.996
289.735
289.423
289.113
288.87
288.713
288.621
288.573
288.558
288.565
288.57
288.59
288.614
288.632
288.642
288.642
288.61
288.561
288.49
288.403
288.325
288.246
288.188
288.141
288.116
288.112
288.146
288.201
288.269
288.372
288.506
288.66
288.838
289.035
289.263
289.518
289.807
290.116
290.439
290.793
291.172
291.563
291.958
292.339
292.684
292.96
293.153
293.249
293.265
293.079
292.751
292.249
291.629
290.941
290.246
289.543
288.895
288.351
287.958
287.718
287.585
287.498
287.433
287.388
287.337
287.269
287.188
287.103
287.021
286.944
286.862
286.792
286.733
286.69
286.67
286.681
286.718
286.782
286.864
286.961
287.079
287.233
287.432
287.677
287.955
288.25
288.542
288.824
289.091
289.346
289.595
289.839
290.078
290.311
290.533
290.739
290.925
291.087
291.226
291.343
291.44
291.52
291.585
291.638
291.681
291.716
291.747
291.774
291.799
291.824
291.85
291.876
291.904
291.933
291.964
291.996
292.03
292.064
292.1
292.137
292.175
292.214
292.254
292.294
292.335
292.376
292.417
292.459
292.501
292.543
292.585
292.626
292.667
292.708
292.748
292.788
292.827
292.865
292.903
292.94
292.975
293.01
293.043
293.075
293.106
293.135
293.163
293.189
293.213
293.236
293.257
293.276
293.294
293.309
293.322
293.333
293.343
293.35
293.356
293.36
293.363
293.363
293.362
293.359
293.353
293.345
293.336
293.324
293.311
293.295
293.279
293.26
293.24
293.219
293.197
293.173
293.149
293.123
293.097
293.07
293.042
293.014
292.985
292.956
292.927
292.898
292.869
292.84
292.811
292.783
292.755
292.728
292.701
292.675
292.65
292.627
292.604
292.582
292.562
292.543
292.525
292.509
292.495
292.482
292.471
292.461
292.454
292.447
292.443
292.439
292.438
292.438
292.439
292.442
292.447
292.453
292.461
292.471
292.482
292.495
292.509
292.525
292.542
292.56
292.579
292.6
292.621
292.644
292.667
292.691
292.716
292.741
292.767
292.794
292.821
292.848
292.876
292.903
292.931
292.959
292.987
293.014
293.041
293.067
293.093
293.118
293.143
293.166
293.189
293.21
293.23
293.249
293.267
293.283
293.298
293.311
293.322
293.332
293.34
293.347
293.351
293.355
293.356
293.357
293.356
293.353
293.35
293.344
293.338
293.331
293.322
293.312
293.301
293.288
293.275
293.262
293.247
293.232
293.217
293.201
293.185
293.168
293.152
293.136
293.12
293.104
293.089
293.074
293.06
293.046
293.032
293.02
293.008
292.997
292.987
292.977
292.969
292.961
292.954
292.948
292.943
292.938
292.935
292.932
292.93
292.929
292.928
292.928
292.928
292.929
292.931
292.932
292.935
292.937
292.94
292.943
292.946
292.95
292.954
292.957
292.961
292.965
292.969
292.973
292.977
292.981
292.984
292.988
292.992
292.995
292.999
293.002
293.006
293.009
293.012
293.016
293.019
293.022
293.025
293.028
293.031
293.035
293.038
293.041
293.044
293.048
293.051
293.055
293.059
293.063
293.066
293.071
293.075
293.079
293.083
293.087
293.092
293.096
293.1
293.105
293.109
293.113
293.118
293.122
293.126
293.129
293.133
293.136
293.14
293.143
293.146
293.148
293.151
293.153
293.155
293.156
293.157
293.158
293.159
293.16
293.16
293.16
293.16
293.159
293.159
293.158
293.157
293.156
293.155
293.154
293.153
293.153
293.152
293.151
293.15
293.15
293.149
293.149
293.149
293.149
293.149
293.15
293.151
293.152
293.154
293.156
293.158
293.16
293.162
293.165
293.168
293.171
293.175
293.178
293.182
293.186
293.19
293.193
293.197
293.201
293.205
293.209
293.213
293.217
293.22
293.223
293.226
293.229
293.232
293.235
293.237
293.239
293.24
293.242
293.243
293.243
293.244
293.244
293.244
293.243
293.242
293.241
293.239
293.238
293.236
293.233
293.231
293.228
293.225
293.222
293.219
293.216
293.213
293.21
293.207
293.204
293.201
293.198
293.196
293.193
293.191
293.189
293.187
293.186
293.185
293.184
293.184
293.184
293.184
293.184
293.185
293.186
293.187
293.188
293.189
293.191
293.193
293.195
293.198
293.201
293.206
293.213
293.223
293.233
291.928
291.833
291.676
291.457
291.219
291.028
290.924
290.892
290.877
290.817
290.671
290.474
290.296
290.127
289.913
289.676
289.45
289.216
288.982
288.787
288.655
288.586
288.563
288.575
288.593
288.636
288.687
288.745
288.795
288.815
288.814
288.797
288.726
288.644
288.546
288.446
288.362
288.304
288.253
288.241
288.224
288.274
288.319
288.42
288.51
288.629
288.762
288.912
289.071
289.242
289.43
289.638
289.873
290.152
290.453
290.796
291.182
291.6
292.048
292.514
292.986
293.444
293.859
294.209
294.474
294.636
294.694
294.587
294.312
293.843
293.192
292.337
291.318
290.2
289.15
288.339
287.806
287.506
287.352
287.266
287.218
287.188
287.15
287.093
287.02
286.937
286.847
286.759
286.677
286.607
286.547
286.506
286.48
286.469
286.472
286.487
286.521
286.58
286.673
286.805
286.978
287.188
287.419
287.663
287.912
288.169
288.434
288.71
288.997
289.293
289.592
289.887
290.169
290.433
290.673
290.886
291.07
291.226
291.355
291.461
291.547
291.615
291.669
291.714
291.75
291.782
291.811
291.84
291.868
291.898
291.929
291.961
291.995
292.03
292.066
292.103
292.141
292.179
292.219
292.259
292.3
292.341
292.383
292.425
292.467
292.509
292.55
292.592
292.634
292.675
292.715
292.755
292.794
292.833
292.87
292.907
292.943
292.977
293.011
293.043
293.074
293.103
293.131
293.157
293.182
293.204
293.225
293.245
293.262
293.277
293.291
293.302
293.312
293.319
293.325
293.33
293.332
293.333
293.332
293.329
293.323
293.316
293.306
293.294
293.281
293.266
293.249
293.23
293.21
293.189
293.166
293.142
293.118
293.092
293.065
293.038
293.01
292.982
292.953
292.924
292.895
292.865
292.836
292.807
292.778
292.749
292.721
292.694
292.667
292.641
292.616
292.591
292.568
292.546
292.526
292.506
292.488
292.472
292.457
292.444
292.432
292.422
292.414
292.407
292.402
292.399
292.397
292.396
292.397
292.4
292.405
292.411
292.419
292.428
292.44
292.452
292.467
292.482
292.499
292.517
292.537
292.557
292.578
292.601
292.624
292.648
292.673
292.698
292.724
292.751
292.778
292.805
292.832
292.86
292.888
292.915
292.943
292.97
292.997
293.023
293.049
293.074
293.098
293.122
293.144
293.166
293.186
293.205
293.223
293.239
293.253
293.267
293.278
293.288
293.296
293.303
293.308
293.311
293.313
293.313
293.312
293.31
293.306
293.301
293.295
293.287
293.278
293.268
293.257
293.245
293.232
293.219
293.204
293.189
293.174
293.158
293.142
293.126
293.11
293.094
293.078
293.062
293.047
293.032
293.017
293.003
292.99
292.977
292.966
292.954
292.944
292.934
292.926
292.918
292.911
292.905
292.9
292.895
292.891
292.889
292.886
292.885
292.884
292.884
292.884
292.885
292.887
292.888
292.89
292.893
292.896
292.899
292.902
292.905
292.908
292.912
292.916
292.919
292.923
292.927
292.93
292.934
292.938
292.941
292.945
292.949
292.952
292.955
292.959
292.962
292.965
292.968
292.972
292.975
292.978
292.981
292.984
292.987
292.991
292.994
292.997
293.001
293.004
293.008
293.012
293.016
293.02
293.024
293.028
293.032
293.036
293.041
293.045
293.05
293.054
293.059
293.063
293.067
293.072
293.076
293.079
293.083
293.087
293.091
293.094
293.097
293.1
293.103
293.105
293.107
293.109
293.11
293.111
293.112
293.113
293.113
293.114
293.114
293.113
293.113
293.112
293.111
293.111
293.11
293.109
293.108
293.107
293.106
293.105
293.104
293.103
293.103
293.102
293.102
293.102
293.102
293.103
293.103
293.104
293.106
293.107
293.109
293.111
293.113
293.115
293.118
293.121
293.124
293.127
293.131
293.134
293.138
293.141
293.145
293.149
293.153
293.156
293.16
293.163
293.167
293.17
293.173
293.176
293.179
293.181
293.183
293.185
293.187
293.188
293.19
293.19
293.191
293.191
293.191
293.191
293.19
293.189
293.188
293.187
293.185
293.183
293.181
293.178
293.176
293.173
293.17
293.168
293.165
293.162
293.159
293.156
293.153
293.15
293.148
293.145
293.143
293.141
293.14
293.138
293.137
293.137
293.136
293.137
293.137
293.138
293.139
293.14
293.142
293.144
293.146
293.149
293.152
293.155
293.158
293.162
293.166
293.171
293.176
293.183
293.19
291.885
291.761
291.546
291.253
290.953
290.731
290.622
290.58
290.536
290.398
290.17
289.924
289.735
289.587
289.414
289.211
289.016
288.843
288.707
288.619
288.582
288.575
288.591
288.636
288.708
288.8
288.891
288.967
289.015
289.022
289.005
288.966
288.864
288.771
288.662
288.582
288.525
288.492
288.489
288.494
288.57
288.642
288.758
288.867
288.986
289.087
289.191
289.289
289.392
289.5
289.624
289.754
289.926
290.125
290.382
290.688
291.054
291.471
291.931
292.431
292.959
293.511
294.029
294.489
294.884
295.205
295.451
295.615
295.686
295.618
295.365
294.878
294.101
293.01
291.679
290.299
289.06
288.117
287.533
287.245
287.115
287.052
287.023
286.997
286.964
286.915
286.845
286.763
286.679
286.597
286.524
286.46
286.408
286.364
286.331
286.307
286.294
286.297
286.316
286.362
286.438
286.547
286.682
286.843
287.023
287.224
287.449
287.7
287.979
288.284
288.613
288.957
289.308
289.655
289.986
290.293
290.568
290.81
291.019
291.197
291.345
291.466
291.562
291.636
291.695
291.741
291.779
291.812
291.844
291.874
291.906
291.938
291.972
292.007
292.043
292.08
292.118
292.157
292.197
292.237
292.278
292.319
292.361
292.403
292.445
292.487
292.529
292.57
292.612
292.653
292.694
292.734
292.773
292.812
292.849
292.886
292.922
292.957
292.99
293.023
293.053
293.083
293.111
293.137
293.162
293.185
293.206
293.225
293.242
293.257
293.271
293.282
293.292
293.3
293.306
293.31
293.313
293.314
293.313
293.31
293.305
293.297
293.287
293.276
293.262
293.247
293.23
293.212
293.192
293.17
293.147
293.123
293.098
293.072
293.046