/*--------------------------------*- C++ -*----------------------------------*\
| =========                 |                                                 |
| \\      /  F ield         | OpenFOAM: The Open Source CFD Toolbox           |
|  \\    /   O peration     | Version:  v1812                                 |
|   \\  /    A nd           | Web:      www.OpenFOAM.com                      |
|    \\/     M anipulation  |                                                 |
\*---------------------------------------------------------------------------*/
FoamFile
{
    version     2.0;
    format      ascii;
    class       volVectorField;
    location    "0.3";
    object      U;
}
// * * * * * * * * * * * * * * * * * * * * * * * * * * * * * * * * * * * * * //

dimensions      [0 1 -1 0 0 0 0];


internalField   nonuniform List<vector> 
20400
(
(-0.274036 0.14274 0)
(-0.633128 0.0165115 0)
(-0.906181 -0.106033 0)
(-1.10166 -0.138904 0)
(-1.27301 -0.150354 0)
(-1.43273 -0.155914 0)
(-1.59491 -0.13913 0)
(-1.77676 -0.113982 0)
(-1.97788 -0.0957309 0)
(-2.19677 -0.0671201 0)
(-2.44089 -0.041096 0)
(-2.69692 -0.0343604 0)
(-2.96124 -0.00929751 0)
(-3.24641 0.00688218 0)
(-3.52237 -0.0462228 0)
(-3.76256 -0.148364 0)
(-4.01161 -0.280497 0)
(-4.30556 -0.331572 0)
(-4.55609 -0.462426 0)
(-4.77777 -0.621637 0)
(-4.95911 -0.8066 0)
(-5.21196 -0.935956 0)
(-5.50464 -1.10706 0)
(-5.85288 -1.27832 0)
(-6.29524 -1.4148 0)
(-6.86142 -1.54316 0)
(-7.48658 -1.69204 0)
(-8.09849 -1.73714 0)
(-8.46716 -0.729589 0)
(-8.63759 0.399848 0)
(-9.24197 0.73208 0)
(-9.92609 0.767932 0)
(-10.7166 0.711104 0)
(-11.6006 0.600887 0)
(-12.5804 0.467054 0)
(-13.64 0.28639 0)
(-14.7538 0.183759 0)
(-15.8682 0.158096 0)
(-16.9322 0.228804 0)
(-17.9137 0.288071 0)
(-18.7894 0.332168 0)
(-19.5807 0.368426 0)
(-20.2962 0.323963 0)
(-20.92 0.254088 0)
(-21.4726 0.109362 0)
(-21.923 -0.103796 0)
(-22.2678 -0.254228 0)
(-22.5127 -0.386093 0)
(-22.7266 -0.483211 0)
(-22.9137 -0.509249 0)
(-23.0047 -0.528903 0)
(-23.0205 -0.461106 0)
(-22.9346 -0.381436 0)
(-22.7038 -0.363616 0)
(-22.3393 -0.354384 0)
(-21.8495 -0.394303 0)
(-21.239 -0.352331 0)
(-20.5366 -0.274333 0)
(-19.7449 -0.167482 0)
(-18.8785 -0.0380581 0)
(-17.9595 0.0985737 0)
(-17.0089 0.236621 0)
(-16.043 0.37253 0)
(-15.0807 0.504049 0)
(-14.1662 0.643788 0)
(-13.3081 0.816828 0)
(-12.5201 1.01991 0)
(-11.8224 1.19859 0)
(-11.184 0.972725 0)
(-10.5213 0.706428 0)
(-9.8393 0.685701 0)
(-9.2668 0.749781 0)
(-8.75071 0.776514 0)
(-8.27761 0.788293 0)
(-7.84627 0.790245 0)
(-7.44786 0.767483 0)
(-7.05162 0.712303 0)
(-6.63502 0.642172 0)
(-6.2146 0.597001 0)
(-5.82407 0.563371 0)
(-5.46775 0.532637 0)
(-5.15302 0.50704 0)
(-4.88523 0.486583 0)
(-4.67063 0.469895 0)
(-4.50505 0.441568 0)
(-4.36035 0.393476 0)
(-4.23686 0.324162 0)
(-4.16391 0.207203 0)
(-4.07151 0.102347 0)
(-3.988 -0.0136862 0)
(-3.88936 -0.100707 0)
(-3.78342 -0.166005 0)
(-3.69045 -0.199758 0)
(-3.62704 -0.224663 0)
(-3.58133 -0.240571 0)
(-3.55003 -0.246629 0)
(-3.52253 -0.245165 0)
(-3.48892 -0.241444 0)
(-3.45447 -0.231756 0)
(-3.42147 -0.21822 0)
(-3.3892 -0.202411 0)
(-3.35866 -0.184466 0)
(-3.3289 -0.16591 0)
(-3.29994 -0.147512 0)
(-3.27113 -0.130695 0)
(-3.24182 -0.114916 0)
(-3.21211 -0.0998554 0)
(-3.18283 -0.0854063 0)
(-3.15472 -0.0721526 0)
(-3.12649 -0.0618337 0)
(-3.10027 -0.0504076 0)
(-3.07431 -0.0435652 0)
(-3.04974 -0.0335083 0)
(-3.0272 -0.0264368 0)
(-3.00487 -0.02488 0)
(-2.98527 -0.0205694 0)
(-2.96934 -0.0167522 0)
(-2.95935 -0.0136059 0)
(-2.95294 -0.0106535 0)
(-2.95209 -0.00811885 0)
(-2.95637 -0.00657608 0)
(-2.96678 -0.00498918 0)
(-2.98368 -0.00387814 0)
(-3.00632 -0.0030158 0)
(-3.03474 -0.00245805 0)
(-3.06879 -0.00210147 0)
(-3.10866 -0.00197516 0)
(-3.1542 -0.00203502 0)
(-3.20486 -0.00211157 0)
(-3.26098 -0.00264267 0)
(-3.32183 -0.00335286 0)
(-3.38724 -0.00420708 0)
(-3.45699 -0.00518952 0)
(-3.53068 -0.00629761 0)
(-3.60814 -0.00750209 0)
(-3.68842 -0.00880831 0)
(-3.77267 -0.0101528 0)
(-3.85896 -0.0113153 0)
(-3.94805 -0.0126324 0)
(-4.03905 -0.0140291 0)
(-4.13183 -0.01547 0)
(-4.22615 -0.0169509 0)
(-4.32192 -0.0182028 0)
(-4.41856 -0.01983 0)
(-4.5159 -0.0211941 0)
(-4.61355 -0.0225737 0)
(-4.71118 -0.0238783 0)
(-4.80848 -0.025188 0)
(-4.90512 -0.0264012 0)
(-5.00073 -0.0275046 0)
(-5.09514 -0.0283985 0)
(-5.18785 -0.0294398 0)
(-5.27874 -0.0304401 0)
(-5.36739 -0.0313033 0)
(-5.45333 -0.0316595 0)
(-5.53631 -0.0319356 0)
(-5.6161 -0.031977 0)
(-5.69235 -0.0318321 0)
(-5.76476 -0.0315838 0)
(-5.833 -0.031147 0)
(-5.89669 -0.0306424 0)
(-5.95549 -0.0300255 0)
(-6.00907 -0.0294035 0)
(-6.0571 -0.0287623 0)
(-6.09929 -0.0281626 0)
(-6.13537 -0.0276302 0)
(-6.16508 -0.0271076 0)
(-6.18844 -0.0264799 0)
(-6.20473 -0.0257661 0)
(-6.21449 -0.0251371 0)
(-6.2178 -0.0247297 0)
(-6.21363 -0.0231473 0)
(-6.20356 -0.0219176 0)
(-6.18674 -0.0201931 0)
(-6.16384 -0.0193105 0)
(-6.13471 -0.0180331 0)
(-6.09996 -0.0171039 0)
(-6.06056 -0.0158306 0)
(-6.01548 -0.0147865 0)
(-5.96213 -0.0135235 0)
(-5.90119 -0.012337 0)
(-5.83434 -0.0111886 0)
(-5.76184 -0.0100593 0)
(-5.68402 -0.00898569 0)
(-5.60116 -0.00794106 0)
(-5.5135 -0.00693339 0)
(-5.42148 -0.00597563 0)
(-5.32547 -0.00510057 0)
(-5.22589 -0.00429308 0)
(-5.12313 -0.00356353 0)
(-5.01762 -0.00287497 0)
(-4.90982 -0.00222319 0)
(-4.80018 -0.00160532 0)
(-4.68912 -0.00106311 0)
(-4.57704 -0.000582238 0)
(-4.46435 -0.00016475 0)
(-4.35147 0.000208492 0)
(-4.23883 0.00054152 0)
(-4.12682 0.000838835 0)
(-4.01586 0.00110679 0)
(-3.90634 0.00134704 0)
(-3.79865 0.0015575 0)
(-3.69316 0.00173173 0)
(-3.59019 0.00187894 0)
(-3.4901 0.00201229 0)
(-3.3932 0.00213396 0)
(-3.29978 0.00224025 0)
(-3.21012 0.00233308 0)
(-3.12446 0.00241716 0)
(-3.04303 0.00250378 0)
(-2.96604 0.00259832 0)
(-2.89367 0.00269757 0)
(-2.82607 0.00279929 0)
(-2.76337 0.00290655 0)
(-2.70567 0.00301498 0)
(-2.65308 0.00312593 0)
(-2.60569 0.00324984 0)
(-2.56357 0.003384 0)
(-2.52674 0.00352764 0)
(-2.49519 0.00368076 0)
(-2.4689 0.00382379 0)
(-2.44773 0.00398937 0)
(-2.43148 0.00415063 0)
(-2.42015 0.00432037 0)
(-2.41353 0.00453864 0)
(-2.41052 0.00489741 0)
(-2.41279 0.00349559 0)
(-2.41633 0.0039337 0)
(-2.4251 0.00415184 0)
(-2.43945 0.00394989 0)
(-2.45708 0.00518245 0)
(-2.47842 0.00558509 0)
(-2.50367 0.0058065 0)
(-2.53253 0.00584177 0)
(-2.56449 0.00577949 0)
(-2.59934 0.00558924 0)
(-2.63681 0.00534082 0)
(-2.67668 0.00511403 0)
(-2.71872 0.0047921 0)
(-2.76266 0.00456305 0)
(-2.80834 0.00428266 0)
(-2.85552 0.00395999 0)
(-2.90398 0.00358999 0)
(-2.95355 0.00323522 0)
(-3.00405 0.00283301 0)
(-3.05531 0.00246681 0)
(-3.10714 0.00195057 0)
(-3.15936 0.00150851 0)
(-3.21184 0.00105389 0)
(-3.26439 0.000606579 0)
(-3.31686 0.000175897 0)
(-3.36908 -0.000267613 0)
(-3.42086 -0.000734831 0)
(-3.47205 -0.00119643 0)
(-3.5225 -0.00165409 0)
(-3.57204 -0.00213936 0)
(-3.62042 -0.00260739 0)
(-3.66758 -0.00323854 0)
(-3.71343 -0.00392442 0)
(-3.75774 -0.00397327 0)
(-3.8004 -0.00439104 0)
(-3.8412 -0.00553665 0)
(-3.88012 -0.00598275 0)
(-3.91695 -0.00631507 0)
(-3.95147 -0.00660396 0)
(-3.98382 -0.00683334 0)
(-4.0138 -0.00705538 0)
(-4.04124 -0.00725857 0)
(-4.06611 -0.00743519 0)
(-4.08834 -0.00754237 0)
(-4.10776 -0.00767196 0)
(-4.12432 -0.00774227 0)
(-4.1379 -0.00774565 0)
(-4.14828 -0.00778426 0)
(-4.15588 -0.00776169 0)
(-4.15983 -0.00769782 0)
(-4.16147 -0.00788317 0)
(-4.15959 -0.00761422 0)
(-4.15599 -0.00791407 0)
(-4.15127 -0.00736226 0)
(-4.14225 -0.00699154 0)
(-4.13033 -0.00719214 0)
(-4.11656 -0.00685129 0)
(-4.10013 -0.00648774 0)
(-4.08139 -0.00633212 0)
(-4.06029 -0.00599844 0)
(-4.03674 -0.00564644 0)
(-4.01078 -0.005084 0)
(-3.98267 -0.00451302 0)
(-3.95241 -0.00413935 0)
(-3.92018 -0.00382946 0)
(-3.88615 -0.00349152 0)
(-3.85052 -0.00311612 0)
(-3.81347 -0.00276469 0)
(-3.77516 -0.00243226 0)
(-3.73575 -0.00211555 0)
(-3.69543 -0.00179931 0)
(-3.65437 -0.00149762 0)
(-3.61273 -0.00121038 0)
(-3.57067 -0.000933933 0)
(-3.52835 -0.000665516 0)
(-3.48591 -0.000424897 0)
(-3.44349 -0.000225267 0)
(-3.40118 -5.89034e-05 0)
(-3.35912 7.68884e-05 0)
(-3.31742 0.000197144 0)
(-3.27621 0.000303175 0)
(-3.23562 0.000390664 0)
(-3.19574 0.000458506 0)
(-3.15668 0.000505054 0)
(-3.11852 0.00053456 0)
(-3.08135 0.00055916 0)
(-3.04524 0.000579478 0)
(-3.01028 0.000578486 0)
(-2.97648 0.00055173 0)
(-2.94391 0.000509363 0)
(-2.91258 0.000439344 0)
(-2.88253 0.000339017 0)
(-2.85378 0.000219517 0)
(-2.82638 9.24319e-05 0)
(-2.80047 -4.79568e-05 0)
(-2.77598 -0.000195504 0)
(-2.75278 -0.000346331 0)
(-2.73019 -0.000497103 0)
(-2.7097 -0.000648838 0)
(-2.69056 -0.000794597 0)
(-2.67277 -0.000929893 0)
(-2.65641 -0.00104932 0)
(-2.64148 -0.00116878 0)
(-2.62799 -0.00130145 0)
(-2.61593 -0.00143411 0)
(-2.60531 -0.00156418 0)
(-2.59613 -0.0016997 0)
(-2.58838 -0.00183959 0)
(-2.582 -0.00202871 0)
(-2.57702 -0.00218911 0)
(-2.57362 -0.00207647 0)
(-2.57214 -0.00183408 0)
(-2.57195 -0.00298155 0)
(-2.57282 -0.0027363 0)
(-2.57517 -0.0026834 0)
(-2.57898 -0.00274435 0)
(-2.58425 -0.00283204 0)
(-2.59093 -0.00290933 0)
(-2.59902 -0.00297572 0)
(-2.60849 -0.00303184 0)
(-2.61931 -0.00308006 0)
(-2.63145 -0.00311656 0)
(-2.64488 -0.00313656 0)
(-2.65957 -0.00315741 0)
(-2.67544 -0.00318041 0)
(-2.69245 -0.00319672 0)
(-2.71053 -0.00320879 0)
(-2.7296 -0.00324687 0)
(-2.74956 -0.00328901 0)
(-2.77032 -0.00332483 0)
(-2.79181 -0.00336009 0)
(-2.81391 -0.00339707 0)
(-2.83653 -0.00343249 0)
(-2.85955 -0.00346077 0)
(-2.88289 -0.00351487 0)
(-2.90637 -0.00351356 0)
(-2.93014 -0.00369658 0)
(-2.95341 -0.00361068 0)
(-2.97749 -0.00398568 0)
(-3.00033 -0.0042379 0)
(-3.02301 -0.00345557 0)
(-3.04524 -0.00329552 0)
(-3.0671 -0.00198445 0)
(-3.08861 -0.00311857 0)
(-3.10857 -0.00308368 0)
(-3.12794 -0.00316843 0)
(-3.14609 -0.0044859 0)
(-3.16393 -0.00532765 0)
(-3.17828 -0.00515768 0)
(-3.1934 -0.00915625 0)
(-3.20494 -0.0106018 0)
(-3.21445 -0.0204254 0)
(-3.22511 -0.0212815 0)
(-3.23411 -0.0196724 0)
(-3.24139 -0.0172893 0)
(-3.24918 -0.0210627 0)
(-3.25143 -0.0286825 0)
(-3.25513 -0.0357042 0)
(-3.2559 -0.0369511 0)
(-3.25509 -0.0354632 0)
(-3.25514 -0.0380481 0)
(-3.25184 -0.0391711 0)
(-3.24732 -0.0411819 0)
(-3.24165 -0.0426066 0)
(-3.23485 -0.0431742 0)
(-3.22658 -0.0436614 0)
(-3.21718 -0.0441583 0)
(-3.20693 -0.0446154 0)
(-3.19599 -0.0449548 0)
(-3.18446 -0.0453605 0)
(-3.17233 -0.045547 0)
(-3.15939 -0.0454727 0)
(-3.14613 -0.0457349 0)
(-3.1325 -0.045798 0)
(-3.11852 -0.0461173 0)
(-3.10425 -0.0460836 0)
(-3.09005 -0.0458765 0)
(-3.07607 -0.0456218 0)
(-3.06247 -0.0452357 0)
(-3.04941 -0.0447777 0)
(-3.03685 -0.0446018 0)
(-3.02479 -0.0442834 0)
(-3.0134 -0.0438295 0)
(-3.00267 -0.043575 0)
(-2.99259 -0.0432072 0)
(-2.98323 -0.0428118 0)
(-2.9747 -0.0422444 0)
(-2.96693 -0.0416733 0)
(-2.95998 -0.0411655 0)
(-2.95399 -0.0405962 0)
(-2.94872 -0.0400206 0)
(-2.94419 -0.0394281 0)
(-2.94033 -0.0388613 0)
(-2.93708 -0.0382567 0)
(-2.93443 -0.0375543 0)
(-2.93233 -0.0368848 0)
(-2.93069 -0.0362009 0)
(-2.92938 -0.0355522 0)
(-2.92834 -0.0348366 0)
(-2.92748 -0.0341317 0)
(-2.92667 -0.0334531 0)
(-2.92591 -0.0326876 0)
(-2.92506 -0.0319592 0)
(-2.92408 -0.0311543 0)
(-2.92289 -0.0303183 0)
(-2.92137 -0.0295255 0)
(-2.91945 -0.0286881 0)
(-2.91707 -0.0278265 0)
(-2.91416 -0.0269667 0)
(-2.91065 -0.0261374 0)
(-2.9065 -0.0252396 0)
(-2.90168 -0.0243612 0)
(-2.89615 -0.0234677 0)
(-2.88987 -0.0225685 0)
(-2.88284 -0.0216499 0)
(-2.87506 -0.0207311 0)
(-2.86654 -0.0198618 0)
(-2.85728 -0.0189823 0)
(-2.84737 -0.0180284 0)
(-2.83689 -0.0171071 0)
(-2.82586 -0.0161806 0)
(-2.81433 -0.0152692 0)
(-2.80232 -0.0143764 0)
(-2.78993 -0.0135055 0)
(-2.77725 -0.0126661 0)
(-2.76445 -0.0118982 0)
(-2.75144 -0.0112126 0)
(-2.7391 -0.0105629 0)
(-2.72626 -0.010033 0)
(-2.7139 -0.00960954 0)
(-2.70201 -0.00929112 0)
(-2.69052 -0.00900769 0)
(-2.67984 -0.00877679 0)
(-2.6698 -0.00845897 0)
(-2.66041 -0.00753569 0)
(-2.65183 -0.00848651 0)
(-2.64421 -0.00885299 0)
(-2.63747 -0.00940404 0)
(-2.63184 -0.00999277 0)
(-2.62714 -0.0103797 0)
(-2.62346 -0.0110473 0)
(-2.62106 -0.0121167 0)
(-2.61947 -0.01285 0)
(-2.61969 -0.013755 0)
(-2.62002 -0.0147283 0)
(-2.62262 -0.0142931 0)
(-2.62329 -0.015601 0)
(-2.62769 -0.0176155 0)
(-2.63025 -0.0202155 0)
(-2.63541 -0.0240158 0)
(-2.63948 -0.0293898 0)
(-2.64565 -0.0316384 0)
(-2.65157 -0.0345699 0)
(-2.65762 -0.0371917 0)
(-2.66358 -0.0395796 0)
(-2.66825 -0.0420379 0)
(-2.67296 -0.0443709 0)
(-2.67659 -0.0464165 0)
(-2.67896 -0.0485188 0)
(-2.6796 -0.0503092 0)
(-2.67797 -0.0521591 0)
(-2.67385 -0.0540762 0)
(-2.66641 -0.0564463 0)
(-2.65441 -0.0598509 0)
(-2.63611 -0.0650794 0)
(-2.60929 -0.0726577 0)
(-2.57135 -0.0830579 0)
(-2.52197 -0.100002 0)
(-2.44884 -0.103389 0)
(-2.36697 -0.0738493 0)
(-2.2881 -0.066465 0)
(-2.21486 -0.0446107 0)
(-2.15802 -0.0151465 0)
(-2.11646 0.00516812 0)
(-0.208846 0.150465 0)
(-0.456282 0.027397 0)
(-0.689152 -0.115513 0)
(-0.894442 -0.158306 0)
(-1.07749 -0.179708 0)
(-1.24914 -0.193419 0)
(-1.42322 -0.178039 0)
(-1.61327 -0.147137 0)
(-1.81957 -0.127113 0)
(-2.03777 -0.0901918 0)
(-2.28089 -0.0523079 0)
(-2.55166 -0.0350169 0)
(-2.86122 0.00169156 0)
(-3.20994 0.0363059 0)
(-3.5426 -0.00595534 0)
(-3.85826 0.0155218 0)
(-4.16456 0.0934843 0)
(-4.47238 0.11058 0)
(-4.78187 0.126724 0)
(-5.12505 0.174809 0)
(-5.53468 0.314485 0)
(-6.05427 0.54614 0)
(-6.73342 0.782143 0)
(-7.58106 1.04277 0)
(-8.62273 1.34845 0)
(-9.9127 1.63979 0)
(-11.5782 1.72946 0)
(-13.7248 1.20584 0)
(-16.0789 0.444606 0)
(-18.1471 0.0367822 0)
(-19.9994 0.195819 0)
(-21.7974 0.407973 0)
(-23.5818 0.623333 0)
(-25.2718 0.8423 0)
(-26.7958 1.07503 0)
(-28.1583 1.27461 0)
(-29.4072 1.35508 0)
(-30.5821 1.31752 0)
(-31.6594 1.1813 0)
(-32.6514 1.02259 0)
(-33.5275 0.831516 0)
(-34.2682 0.745538 0)
(-34.7932 0.633174 0)
(-35.1064 0.55282 0)
(-35.234 0.508189 0)
(-35.2031 0.428014 0)
(-35.0024 0.32371 0)
(-34.6373 0.284091 0)
(-34.1621 0.301704 0)
(-33.6488 0.220979 0)
(-33.1159 0.0918423 0)
(-32.5362 0.0133317 0)
(-31.9102 -0.132423 0)
(-31.225 -0.337718 0)
(-30.4666 -0.475909 0)
(-29.6319 -0.616488 0)
(-28.698 -0.735399 0)
(-27.6792 -0.842411 0)
(-26.5755 -0.956279 0)
(-25.3919 -1.04597 0)
(-24.1481 -1.11748 0)
(-22.8663 -1.16576 0)
(-21.5647 -1.2008 0)
(-20.2506 -1.20048 0)
(-18.97 -1.15992 0)
(-17.7291 -1.12399 0)
(-16.5153 -1.10244 0)
(-15.2649 -0.999388 0)
(-14.067 -0.968358 0)
(-13.2401 -0.921015 0)
(-12.7123 -0.817928 0)
(-12.1617 -0.748535 0)
(-11.5958 -0.700898 0)
(-11.0175 -0.659698 0)
(-10.4433 -0.60245 0)
(-9.8825 -0.572684 0)
(-9.33871 -0.573266 0)
(-8.81369 -0.582573 0)
(-8.31309 -0.543594 0)
(-7.84215 -0.491569 0)
(-7.40197 -0.433987 0)
(-6.99737 -0.366919 0)
(-6.62963 -0.294874 0)
(-6.30369 -0.214757 0)
(-6.01533 -0.158446 0)
(-5.75456 -0.128161 0)
(-5.53929 -0.0605159 0)
(-5.36098 -0.027782 0)
(-5.21345 -0.0250911 0)
(-5.09555 -0.0106275 0)
(-4.99969 -0.0164232 0)
(-4.92108 -0.0041772 0)
(-4.86879 0.0341265 0)
(-4.83912 0.0664071 0)
(-4.82393 0.0888592 0)
(-4.83029 0.105766 0)
(-4.84229 0.100556 0)
(-4.85959 0.0961512 0)
(-4.88181 0.0962867 0)
(-4.90774 0.0952843 0)
(-4.93536 0.0927034 0)
(-4.96357 0.0900261 0)
(-4.99107 0.0849751 0)
(-5.01731 0.0799131 0)
(-5.04138 0.0728433 0)
(-5.06283 0.0650382 0)
(-5.08125 0.0572518 0)
(-5.09719 0.0504979 0)
(-5.11004 0.043516 0)
(-5.12047 0.036196 0)
(-5.12829 0.0294765 0)
(-5.13419 0.0226277 0)
(-5.1378 0.0171591 0)
(-5.14092 0.0116896 0)
(-5.14128 0.00842713 0)
(-5.1425 0.00451239 0)
(-5.14206 0.00137172 0)
(-5.14673 -0.00076839 0)
(-5.15281 -0.002116 0)
(-5.16172 -0.00275497 0)
(-5.17441 -0.00324312 0)
(-5.19167 -0.00375037 0)
(-5.21402 -0.00333671 0)
(-5.24128 -0.00287222 0)
(-5.27349 -0.00223927 0)
(-5.3109 -0.00154922 0)
(-5.35361 -0.000776437 0)
(-5.40174 4.88251e-06 0)
(-5.45515 0.000945679 0)
(-5.51382 0.00158548 0)
(-5.57758 0.00256035 0)
(-5.64627 0.00325714 0)
(-5.71972 0.00376504 0)
(-5.79772 0.00412072 0)
(-5.88004 0.00434287 0)
(-5.9664 0.00446047 0)
(-6.05664 0.00426631 0)
(-6.1504 0.00390454 0)
(-6.24743 0.00389985 0)
(-6.34747 0.00393528 0)
(-6.45021 0.00369563 0)
(-6.55531 0.00320824 0)
(-6.6625 0.00271111 0)
(-6.77147 0.00192899 0)
(-6.88193 0.00121548 0)
(-6.99356 0.000387723 0)
(-7.10601 -0.000462566 0)
(-7.21894 -0.00138372 0)
(-7.33198 -0.00235758 0)
(-7.44481 -0.00337494 0)
(-7.557 -0.00420363 0)
(-7.66826 -0.00567722 0)
(-7.77817 -0.00671246 0)
(-7.88638 -0.00790893 0)
(-7.99253 -0.00911069 0)
(-8.09621 -0.0103555 0)
(-8.19702 -0.011809 0)
(-8.29463 -0.0133552 0)
(-8.38867 -0.0148587 0)
(-8.47878 -0.0162892 0)
(-8.5646 -0.0176836 0)
(-8.64577 -0.0189995 0)
(-8.72193 -0.0202734 0)
(-8.79271 -0.0214968 0)
(-8.85778 -0.0226807 0)
(-8.91679 -0.0238241 0)
(-8.96944 -0.0250063 0)
(-9.01548 -0.0264001 0)
(-9.05483 -0.0279316 0)
(-9.08738 -0.0294278 0)
(-9.1134 -0.0313054 0)
(-9.13231 -0.0325198 0)
(-9.14371 -0.0335078 0)
(-9.14905 -0.0351001 0)
(-9.14634 -0.0352056 0)
(-9.13968 -0.036477 0)
(-9.12473 -0.0380736 0)
(-9.10649 -0.0383902 0)
(-9.08099 -0.0400236 0)
(-9.04701 -0.0407119 0)
(-9.00497 -0.0413415 0)
(-8.95647 -0.0418893 0)
(-8.9017 -0.0423544 0)
(-8.84094 -0.0427143 0)
(-8.77437 -0.0429525 0)
(-8.70233 -0.0430735 0)
(-8.62515 -0.0431181 0)
(-8.54323 -0.0431106 0)
(-8.45695 -0.0430596 0)
(-8.36671 -0.0429397 0)
(-8.27293 -0.042724 0)
(-8.17602 -0.0423935 0)
(-8.07641 -0.0419716 0)
(-7.97452 -0.0415198 0)
(-7.87078 -0.04101 0)
(-7.7656 -0.0404475 0)
(-7.65942 -0.0398133 0)
(-7.55264 -0.0391202 0)
(-7.4457 -0.0383647 0)
(-7.33899 -0.0375497 0)
(-7.23293 -0.0366759 0)
(-7.12791 -0.03575 0)
(-7.02432 -0.0347839 0)
(-6.92253 -0.0337686 0)
(-6.82289 -0.0326994 0)
(-6.72576 -0.0315865 0)
(-6.63146 -0.0304437 0)
(-6.54029 -0.0292786 0)
(-6.45253 -0.0280891 0)
(-6.36844 -0.0268612 0)
(-6.28827 -0.0255959 0)
(-6.21224 -0.0243208 0)
(-6.14051 -0.0230221 0)
(-6.07327 -0.0216952 0)
(-6.01068 -0.0203568 0)
(-5.95288 -0.0190097 0)
(-5.9 -0.0176515 0)
(-5.85216 -0.0162814 0)
(-5.8094 -0.0149038 0)
(-5.7718 -0.0135423 0)
(-5.73929 -0.0121723 0)
(-5.71181 -0.0108289 0)
(-5.68926 -0.00953884 0)
(-5.67137 -0.00823006 0)
(-5.65795 -0.00718069 0)
(-5.64847 -0.00550113 0)
(-5.64411 -0.00271545 0)
(-5.64126 -0.0022148 0)
(-5.64402 -0.00182625 0)
(-5.65182 -0.000896412 0)
(-5.66351 0.000380352 0)
(-5.67879 0.00166951 0)
(-5.69806 0.00226118 0)
(-5.72105 0.00307744 0)
(-5.74754 0.00393377 0)
(-5.77719 0.00482138 0)
(-5.80977 0.0054888 0)
(-5.84505 0.00598444 0)
(-5.88286 0.00628095 0)
(-5.923 0.00658091 0)
(-5.96527 0.00686169 0)
(-6.00949 0.00704646 0)
(-6.05545 0.00720466 0)
(-6.10299 0.00729873 0)
(-6.15192 0.00733779 0)
(-6.20208 0.00732393 0)
(-6.2533 0.00721972 0)
(-6.30543 0.00710058 0)
(-6.3583 0.00694004 0)
(-6.41174 0.00675343 0)
(-6.46559 0.00655212 0)
(-6.51969 0.00629356 0)
(-6.57388 0.00601016 0)
(-6.62801 0.0056803 0)
(-6.68189 0.00530436 0)
(-6.7354 0.00494863 0)
(-6.78833 0.00444372 0)
(-6.84054 0.00399936 0)
(-6.89197 0.00368321 0)
(-6.9422 0.00279331 0)
(-6.99125 0.0020946 0)
(-7.03897 0.00237694 0)
(-7.08519 0.00203098 0)
(-7.12974 0.0016128 0)
(-7.1725 0.00122748 0)
(-7.21328 0.00116129 0)
(-7.25206 0.000776142 0)
(-7.28857 0.000348219 0)
(-7.32272 -2.63985e-05 0)
(-7.35446 0.000124125 0)
(-7.38362 -0.000418692 0)
(-7.40996 -0.000834559 0)
(-7.43352 -0.000628695 0)
(-7.45391 -0.00122085 0)
(-7.47137 -0.00164767 0)
(-7.48565 -0.00189582 0)
(-7.49687 -0.00256817 0)
(-7.50593 -0.00307389 0)
(-7.51154 -0.00393913 0)
(-7.51665 -0.00453117 0)
(-7.51626 -0.00413883 0)
(-7.51387 -0.00500875 0)
(-7.50894 -0.00540998 0)
(-7.50137 -0.0059554 0)
(-7.4911 -0.0063881 0)
(-7.47809 -0.00654542 0)
(-7.46222 -0.00703881 0)
(-7.44362 -0.00766591 0)
(-7.42236 -0.0082453 0)
(-7.39859 -0.00877935 0)
(-7.37241 -0.00932196 0)
(-7.34405 -0.00984033 0)
(-7.31365 -0.0103518 0)
(-7.28136 -0.010869 0)
(-7.24737 -0.0114072 0)
(-7.21183 -0.0119299 0)
(-7.17493 -0.0124313 0)
(-7.13684 -0.0129361 0)
(-7.09771 -0.013432 0)
(-7.05772 -0.0139146 0)
(-7.01702 -0.0143798 0)
(-6.97577 -0.0148426 0)
(-6.93412 -0.0153347 0)
(-6.8922 -0.0158288 0)
(-6.85018 -0.0163212 0)
(-6.80819 -0.0167884 0)
(-6.76636 -0.0172285 0)
(-6.72482 -0.0176499 0)
(-6.6837 -0.0180526 0)
(-6.64312 -0.0184363 0)
(-6.60317 -0.0187948 0)
(-6.56396 -0.019119 0)
(-6.52557 -0.0194109 0)
(-6.48809 -0.0196899 0)
(-6.4516 -0.0199664 0)
(-6.41615 -0.0202212 0)
(-6.3818 -0.0204737 0)
(-6.34863 -0.0207301 0)
(-6.31669 -0.0209746 0)
(-6.28604 -0.0212012 0)
(-6.25685 -0.0214243 0)
(-6.22905 -0.0216289 0)
(-6.20262 -0.0218159 0)
(-6.17675 -0.0220063 0)
(-6.15299 -0.0221787 0)
(-6.13064 -0.0223323 0)
(-6.10969 -0.0224533 0)
(-6.09017 -0.0225426 0)
(-6.07214 -0.0226282 0)
(-6.0556 -0.0227223 0)
(-6.04057 -0.0228169 0)
(-6.02706 -0.0229083 0)
(-6.01508 -0.0230159 0)
(-6.00464 -0.0231399 0)
(-5.99573 -0.023399 0)
(-5.98838 -0.0234833 0)
(-5.98269 -0.02318 0)
(-5.97873 -0.0225471 0)
(-5.97659 -0.0236542 0)
(-5.97593 -0.0238397 0)
(-5.97668 -0.0239186 0)
(-5.97887 -0.0239488 0)
(-5.98264 -0.0240262 0)
(-5.98796 -0.024115 0)
(-5.99483 -0.0242159 0)
(-6.0032 -0.0243327 0)
(-6.01304 -0.0244601 0)
(-6.02432 -0.0245985 0)
(-6.03698 -0.0247369 0)
(-6.05098 -0.0249046 0)
(-6.06627 -0.0250977 0)
(-6.08279 -0.0253133 0)
(-6.10046 -0.0255622 0)
(-6.1192 -0.0258862 0)
(-6.13893 -0.0262411 0)
(-6.15957 -0.0266198 0)
(-6.18101 -0.0270304 0)
(-6.20316 -0.0274741 0)
(-6.22589 -0.0279295 0)
(-6.24917 -0.0284339 0)
(-6.27267 -0.0289182 0)
(-6.29686 -0.0295331 0)
(-6.32044 -0.0299773 0)
(-6.34527 -0.0308208 0)
(-6.36999 -0.0314487 0)
(-6.39309 -0.0317619 0)
(-6.41542 -0.0344675 0)
(-6.43526 -0.0363743 0)
(-6.46153 -0.0393558 0)
(-6.48389 -0.0371096 0)
(-6.50538 -0.0366715 0)
(-6.52733 -0.0368365 0)
(-6.54821 -0.0355091 0)
(-6.56594 -0.0353804 0)
(-6.58694 -0.0406838 0)
(-6.60364 -0.0379592 0)
(-6.62633 -0.0362537 0)
(-6.63037 -0.0224714 0)
(-6.63162 -0.0214343 0)
(-6.64736 -0.0298973 0)
(-6.66443 -0.0389642 0)
(-6.67992 -0.0411178 0)
(-6.68789 -0.0313279 0)
(-6.67717 -0.0203948 0)
(-6.67721 -0.0189446 0)
(-6.68284 -0.0222447 0)
(-6.68845 -0.0238954 0)
(-6.68451 -0.0232854 0)
(-6.67821 -0.023072 0)
(-6.67165 -0.0232543 0)
(-6.66479 -0.0234385 0)
(-6.65619 -0.0234362 0)
(-6.64606 -0.0228358 0)
(-6.63504 -0.0225737 0)
(-6.62359 -0.0223711 0)
(-6.61154 -0.0223166 0)
(-6.59912 -0.0220243 0)
(-6.58606 -0.0215622 0)
(-6.57309 -0.0215035 0)
(-6.56036 -0.0213827 0)
(-6.54765 -0.0215131 0)
(-6.53488 -0.0213792 0)
(-6.52207 -0.0210899 0)
(-6.50923 -0.0207638 0)
(-6.49645 -0.0203508 0)
(-6.48397 -0.0199205 0)
(-6.47184 -0.0197074 0)
(-6.46012 -0.0194273 0)
(-6.44901 -0.0190541 0)
(-6.43857 -0.0188439 0)
(-6.42885 -0.0185942 0)
(-6.41984 -0.0182809 0)
(-6.41148 -0.0178321 0)
(-6.40383 -0.0173954 0)
(-6.39635 -0.017011 0)
(-6.38988 -0.0165908 0)
(-6.38406 -0.016174 0)
(-6.37908 -0.0157586 0)
(-6.37477 -0.0153673 0)
(-6.37096 -0.0149607 0)
(-6.36756 -0.0144883 0)
(-6.36449 -0.0140454 0)
(-6.36167 -0.0136074 0)
(-6.35908 -0.0131974 0)
(-6.35675 -0.01277 0)
(-6.35469 -0.0123651 0)
(-6.35282 -0.0120035 0)
(-6.35103 -0.0115919 0)
(-6.34914 -0.0111945 0)
(-6.347 -0.0107783 0)
(-6.34457 -0.0103221 0)
(-6.34176 -0.00989497 0)
(-6.33852 -0.00945256 0)
(-6.33485 -0.00898367 0)
(-6.33068 -0.00852458 0)
(-6.32594 -0.00809021 0)
(-6.3206 -0.0076239 0)
(-6.31458 -0.00715395 0)
(-6.3078 -0.00669458 0)
(-6.30024 -0.00623265 0)
(-6.2919 -0.00575558 0)
(-6.28282 -0.00526546 0)
(-6.27299 -0.00482885 0)
(-6.26235 -0.00438836 0)
(-6.25099 -0.00400658 0)
(-6.23897 -0.00371469 0)
(-6.22635 -0.00345889 0)
(-6.21317 -0.00320352 0)
(-6.19946 -0.00291016 0)
(-6.18528 -0.00255402 0)
(-6.17068 -0.00213651 0)
(-6.15585 -0.00167309 0)
(-6.14067 -0.00113452 0)
(-6.12601 -0.000582703 0)
(-6.11074 4.77111e-05 0)
(-6.09574 0.000746482 0)
(-6.08091 0.00148984 0)
(-6.06631 0.00231748 0)
(-6.05182 0.00321245 0)
(-6.03769 0.00377373 0)
(-6.02398 0.00377887 0)
(-6.01064 0.00500964 0)
(-5.99751 0.00556609 0)
(-5.98491 0.00615987 0)
(-5.97251 0.00683543 0)
(-5.9603 0.00731159 0)
(-5.94804 0.00815369 0)
(-5.93532 0.0090078 0)
(-5.92212 0.0100279 0)
(-5.90774 0.0106265 0)
(-5.89325 0.0113972 0)
(-5.87597 0.0107178 0)
(-5.85985 0.0113771 0)
(-5.83869 0.0123533 0)
(-5.81814 0.0130603 0)
(-5.79321 0.0147907 0)
(-5.76609 0.0161851 0)
(-5.73565 0.0165016 0)
(-5.70202 0.0162407 0)
(-5.66496 0.0161744 0)
(-5.62395 0.0159818 0)
(-5.57943 0.0154144 0)
(-5.53099 0.0147145 0)
(-5.47804 0.0134936 0)
(-5.42085 0.0117101 0)
(-5.35915 0.0095908 0)
(-5.29271 0.00668089 0)
(-5.22155 0.00296795 0)
(-5.14553 -0.00173316 0)
(-5.06444 -0.00775528 0)
(-4.97774 -0.0153101 0)
(-4.88473 -0.0243667 0)
(-4.78552 -0.0344982 0)
(-4.68671 -0.0474876 0)
(-4.5944 -0.0729796 0)
(-4.5554 -0.089211 0)
(-4.5507 -0.0820306 0)
(-4.53019 -0.0824044 0)
(-4.49992 -0.0703504 0)
(-4.46094 -0.0306501 0)
(-0.222369 0.107388 0)
(-0.338008 -0.0808359 0)
(-0.585894 -0.26343 0)
(-0.762342 -0.360224 0)
(-0.88664 -0.390485 0)
(-1.00743 -0.385035 0)
(-1.15889 -0.325187 0)
(-1.36836 -0.255559 0)
(-1.62309 -0.211659 0)
(-1.89116 -0.151704 0)
(-2.17393 -0.0836003 0)
(-2.47311 -0.036716 0)
(-2.7765 0.0610513 0)
(-3.15486 0.164156 0)
(-3.63627 0.134883 0)
(-4.15259 0.0902066 0)
(-4.69956 0.116445 0)
(-5.31071 0.107246 0)
(-6.02149 0.101211 0)
(-6.85379 0.119004 0)
(-7.83189 0.236812 0)
(-8.97684 0.466517 0)
(-10.289 0.699662 0)
(-11.696 0.990039 0)
(-13.1097 1.43136 0)
(-14.5136 2.05474 0)
(-15.9847 2.93269 0)
(-17.7466 3.82672 0)
(-19.9832 3.84189 0)
(-22.3562 3.48776 0)
(-24.6768 3.38698 0)
(-26.7622 3.2948 0)
(-28.6358 3.13133 0)
(-30.2929 2.81272 0)
(-31.7559 2.51729 0)
(-33.0112 2.25925 0)
(-34.0166 2.10325 0)
(-34.7648 1.99065 0)
(-35.34 1.82875 0)
(-35.691 1.64519 0)
(-35.9307 1.42529 0)
(-36.0612 1.14533 0)
(-36.1074 0.805975 0)
(-36.1423 0.524398 0)
(-36.0669 0.259077 0)
(-35.8691 -0.00698795 0)
(-35.6844 -0.329036 0)
(-35.3751 -0.624784 0)
(-34.876 -0.78273 0)
(-34.2971 -0.884761 0)
(-33.6996 -1.03725 0)
(-33.056 -1.14123 0)
(-32.375 -1.32585 0)
(-31.6488 -1.57933 0)
(-30.8547 -1.76673 0)
(-30.0078 -2.04347 0)
(-29.0476 -2.30093 0)
(-27.9848 -2.53532 0)
(-26.8264 -2.78153 0)
(-25.5727 -2.97747 0)
(-24.2469 -3.12527 0)
(-22.8722 -3.21144 0)
(-21.4751 -3.2586 0)
(-20.0762 -3.24091 0)
(-18.6931 -3.13928 0)
(-17.3394 -3.03193 0)
(-16.0175 -2.95224 0)
(-14.7605 -2.81147 0)
(-13.5927 -2.5386 0)
(-12.5436 -2.01473 0)
(-11.3861 -1.76757 0)
(-10.2644 -1.54746 0)
(-9.16957 -1.3615 0)
(-8.10406 -1.20766 0)
(-7.08539 -1.04634 0)
(-6.14117 -0.93978 0)
(-5.33398 -0.890066 0)
(-4.77611 -0.965253 0)
(-4.42342 -0.947182 0)
(-4.12491 -0.904049 0)
(-3.82468 -0.840756 0)
(-3.52112 -0.750986 0)
(-3.22793 -0.648771 0)
(-2.96713 -0.533365 0)
(-2.71657 -0.449074 0)
(-2.45023 -0.31067 0)
(-2.18826 -0.174388 0)
(-1.95512 -0.103958 0)
(-1.74428 -0.0613367 0)
(-1.56006 -0.0131447 0)
(-1.40573 0.000630711 0)
(-1.30876 0.0372086 0)
(-1.29121 0.111425 0)
(-1.34538 0.169916 0)
(-1.45321 0.212361 0)
(-1.57781 0.254896 0)
(-1.69757 0.263785 0)
(-1.80658 0.262505 0)
(-1.91464 0.266696 0)
(-2.03235 0.260803 0)
(-2.15736 0.249363 0)
(-2.28132 0.241826 0)
(-2.39869 0.233864 0)
(-2.50591 0.218807 0)
(-2.6034 0.200044 0)
(-2.69101 0.181237 0)
(-2.7684 0.161928 0)
(-2.83612 0.143505 0)
(-2.89361 0.124621 0)
(-2.94125 0.105538 0)
(-2.97916 0.0877832 0)
(-3.00852 0.0716188 0)
(-3.03113 0.0568975 0)
(-3.04839 0.0437039 0)
(-3.06225 0.0338054 0)
(-3.06995 0.0245642 0)
(-3.07652 0.016712 0)
(-3.08784 0.0108901 0)
(-3.10088 0.00674617 0)
(-3.11658 0.00375498 0)
(-3.13656 0.00153064 0)
(-3.16126 0.000218587 0)
(-3.19144 -6.48662e-05 0)
(-3.22718 0.000365944 0)
(-3.26874 0.00130972 0)
(-3.31617 0.00264318 0)
(-3.36957 0.00430893 0)
(-3.42885 0.00605863 0)
(-3.49421 0.00782727 0)
(-3.56476 0.00962618 0)
(-3.64076 0.0113993 0)
(-3.72191 0.0130686 0)
(-3.80782 0.0145921 0)
(-3.89832 0.0159338 0)
(-3.99292 0.0170808 0)
(-4.09207 0.0180635 0)
(-4.19383 0.0186072 0)
(-4.29975 0.0195703 0)
(-4.40852 0.020049 0)
(-4.52035 0.0201724 0)
(-4.63481 0.0203145 0)
(-4.75159 0.0203257 0)
(-4.87019 0.0201326 0)
(-4.99068 0.0198814 0)
(-5.1126 0.0193894 0)
(-5.23565 0.0187364 0)
(-5.3596 0.0180066 0)
(-5.48407 0.0171444 0)
(-5.60874 0.0161743 0)
(-5.7333 0.0150754 0)
(-5.85724 0.0136775 0)
(-5.9804 0.0127805 0)
(-6.1022 0.0114025 0)
(-6.22238 0.0100044 0)
(-6.34072 0.00847108 0)
(-6.45674 0.00646422 0)
(-6.56995 0.00444366 0)
(-6.68002 0.00235152 0)
(-6.78657 -3.06154e-06 0)
(-6.88921 -0.00239294 0)
(-6.9876 -0.00489035 0)
(-7.08142 -0.00740034 0)
(-7.17024 -0.0100875 0)
(-7.25367 -0.0129241 0)
(-7.33133 -0.0158817 0)
(-7.40286 -0.018926 0)
(-7.46793 -0.0220306 0)
(-7.52621 -0.0251456 0)
(-7.57757 -0.0282752 0)
(-7.6219 -0.0313689 0)
(-7.65922 -0.0343906 0)
(-7.68975 -0.0373317 0)
(-7.71333 -0.0397912 0)
(-7.72957 -0.0425055 0)
(-7.73978 -0.0453578 0)
(-7.74353 -0.0470468 0)
(-7.73906 -0.0486673 0)
(-7.73221 -0.0519171 0)
(-7.71871 -0.0539816 0)
(-7.69513 -0.0559508 0)
(-7.66476 -0.0575654 0)
(-7.62767 -0.0590179 0)
(-7.58442 -0.0603756 0)
(-7.53533 -0.0615511 0)
(-7.48047 -0.0626041 0)
(-7.42026 -0.0635544 0)
(-7.35499 -0.0644037 0)
(-7.28505 -0.0651678 0)
(-7.21079 -0.0658518 0)
(-7.13261 -0.0664057 0)
(-7.05092 -0.0668184 0)
(-6.96611 -0.0670572 0)
(-6.87859 -0.0671509 0)
(-6.78877 -0.0671848 0)
(-6.69704 -0.0671086 0)
(-6.60381 -0.0669207 0)
(-6.5095 -0.0665906 0)
(-6.41452 -0.066141 0)
(-6.31928 -0.0655668 0)
(-6.2242 -0.0648741 0)
(-6.12964 -0.0640582 0)
(-6.03601 -0.0631282 0)
(-5.94367 -0.062084 0)
(-5.85299 -0.0609183 0)
(-5.76434 -0.0596366 0)
(-5.67804 -0.0582509 0)
(-5.59443 -0.0567818 0)
(-5.5138 -0.0552314 0)
(-5.43642 -0.0535877 0)
(-5.36256 -0.0518313 0)
(-5.2925 -0.0500057 0)
(-5.22644 -0.0481058 0)
(-5.16458 -0.0461088 0)
(-5.1071 -0.0440069 0)
(-5.0542 -0.0418242 0)
(-5.00605 -0.0395745 0)
(-4.9628 -0.0372529 0)
(-4.92452 -0.034856 0)
(-4.89136 -0.0324146 0)
(-4.8633 -0.0299004 0)
(-4.84039 -0.0273657 0)
(-4.82248 -0.0248304 0)
(-4.80959 -0.0222636 0)
(-4.80157 -0.0198831 0)
(-4.79725 -0.0171414 0)
(-4.79857 -0.0147155 0)
(-4.80297 -0.0119271 0)
(-4.8106 -0.00958215 0)
(-4.82168 -0.00789907 0)
(-4.83911 -0.00510993 0)
(-4.85966 -0.00241919 0)
(-4.88435 -0.000819009 0)
(-4.91296 0.00172422 0)
(-4.94485 0.00405271 0)