/*--------------------------------*- C++ -*----------------------------------*\
| =========                 |                                                 |
| \\      /  F ield         | OpenFOAM: The Open Source CFD Toolbox           |
|  \\    /   O peration     | Version:  v1812                                 |
|   \\  /    A nd           | Web:      www.OpenFOAM.com                      |
|    \\/     M anipulation  |                                                 |
\*---------------------------------------------------------------------------*/
FoamFile
{
    version     2.0;
    format      ascii;
    class       volScalarField;
    location    "0.15";
    object      p;
}
// * * * * * * * * * * * * * * * * * * * * * * * * * * * * * * * * * * * * * //

dimensions      [1 -1 -2 0 0 0 0];


internalField   nonuniform List<scalar> 
800
(
0.4
0.4
0.4
0.4
0.4
0.4
0.4
0.4
0.4
0.4
0.4
0.4
0.4
0.4
0.4
0.4
0.4
0.4
0.4
0.4
0.4
0.4
0.4
0.4
0.4
0.399999
0.399999
0.399999
0.399998
0.399996
0.399995
0.399992
0.399988
0.399982
0.399973
0.399961
0.399945
0.399922
0.399892
0.399851
0.399798
0.399729
0.39964
0.399527
0.399385
0.399209
0.398993
0.39873
0.398413
0.398036
0.397591
0.397071
0.396469
0.395778
0.394992
0.394105
0.393111
0.392007
0.390788
0.389452
0.387998
0.386424
0.384731
0.38292
0.380992
0.37895
0.376797
0.374536
0.372173
0.369711
0.367155
0.364511
0.361784
0.35898
0.356103
0.353159
0.350153
0.347092
0.343979
0.34082
0.33762
0.334383
0.331113
0.327816
0.324494
0.321152
0.317793
0.314421
0.311038
0.307648
0.304255
0.300859
0.297464
0.294071
0.290683
0.287302
0.28393
0.280568
0.277218
0.273881
0.270559
0.267253
0.263964
0.260694
0.257443
0.254211
0.251001
0.247813
0.244646
0.241503
0.238384
0.235288
0.232218
0.229172
0.226151
0.223157
0.220188
0.217246
0.21433
0.211442
0.20858
0.205745
0.202937
0.200157
0.197405
0.194679
0.191982
0.189312
0.186669
0.184054
0.181467
0.178907
0.176375
0.17387
0.171392
0.168942
0.166519
0.164123
0.161754
0.159412
0.157097
0.154808
0.152546
0.15031
0.1481
0.145917
0.143759
0.141627
0.139521
0.13744
0.135385
0.133354
0.131348
0.129367
0.127411
0.125479
0.123571
0.121687
0.119827
0.117991
0.116177
0.114387
0.11262
0.110876
0.109155
0.107456
0.105779
0.104124
0.102491
0.100879
0.0992892
0.0977203
0.0961724
0.0946453
0.0931388
0.0916527
0.0901868
0.0887409
0.0873148
0.0859083
0.0845212
0.0831533
0.0818044
0.0804742
0.0791627
0.0778696
0.0765947
0.0753378
0.0740987
0.0728773
0.0716732
0.0704865
0.0693167
0.0681639
0.0670277
0.065908
0.0648046
0.0637173
0.062646
0.0615904
0.0605503
0.0595256
0.0585162
0.0575218
0.0565422
0.0555773
0.0546268
0.0536907
0.0527688
0.0518608
0.0509666
0.0500861
0.049219
0.0483653
0.0475246
0.046697
0.0458821
0.0450799
0.0442902
0.0435128
0.0427476
0.0419944
0.041253
0.0405234
0.0398053
0.0390986
0.0384032
0.0377189
0.0370455
0.0363829
0.0357311
0.0350897
0.0344587
0.033838
0.0332275
0.0326268
0.0320361
0.031455
0.0308836
0.0303216
0.0297689
0.0292254
0.028691
0.0281655
0.0276489
0.027141
0.0266417
0.0261509
0.0256685
0.0251943
0.0247282
0.0242702
0.0238201
0.0233778
0.0229432
0.0225163
0.0220968
0.0216847
0.02128
0.0208824
0.0204919
0.0201085
0.0197319
0.0193622
0.0189992
0.0186428
0.018293
0.0179496
0.0176126
0.0172819
0.0169573
0.0166389
0.0163265
0.0160201
0.0157195
0.0154248
0.0151357
0.0148523
0.0145745
0.0143022
0.0140353
0.0137737
0.0135175
0.0132665
0.0130206
0.0127799
0.0125442
0.0123135
0.0120877
0.0118668
0.0116507
0.0114393
0.0112327
0.0110307
0.0108333
0.0106404
0.0104519
0.0102679
0.0100882
0.00991272
0.00974148
0.00957437
0.00941132
0.00925227
0.00909715
0.0089459
0.00879845
0.00865477
0.00851482
0.00837856
0.00824599
0.00811712
0.00799197
0.00787059
0.00775303
0.00763937
0.00752969
0.0074241
0.00732267
0.00722547
0.00713253
0.00704389
0.00695927
0.0068789
0.00680246
0.00672957
0.00665986
0.00659295
0.00652837
0.00646567
0.00640443
0.00634431
0.00628507
0.0062266
0.00616892
0.00611217
0.00605658
0.0060024
0.00594989
0.00589923
0.00585051
0.00580372
0.00575873
0.00571532
0.00567322
0.00563217
0.00559192
0.00555229
0.00551321
0.00547466
0.0054367
0.00539945
0.00536303
0.00532757
0.00529318
0.00525994
0.00522789
0.00519706
0.00516745
0.00513906
0.00511187
0.00508584
0.00506096
0.00503721
0.00501457
0.00499301
0.00497251
0.00495306
0.00493462
0.00491719
0.00490074
0.00488523
0.00487065
0.00485695
0.00484412
0.00483212
0.00482091
0.00481046
0.00480075
0.00479172
0.00478337
0.00477565
0.00476854
0.004762
0.00475601
0.00475054
0.00474557
0.00474107
0.00473701
0.00473339
0.00473016
0.00472732
0.00472484
0.0047227
0.0047209
0.00471941
0.00471822
0.00471734
0.00471675
0.00471644
0.00471644
0.00471675
0.00471734
0.00471822
0.00471941
0.0047209
0.0047227
0.00472484
0.00472732
0.00473016
0.00473339
0.00473701
0.00474107
0.00474557
0.00475054
0.00475601
0.004762
0.00476854
0.00477565
0.00478337
0.00479172
0.00480075
0.00481046
0.00482091
0.00483212
0.00484412
0.00485695
0.00487065
0.00488523
0.00490074
0.00491719
0.00493462
0.00495306
0.00497251
0.00499301
0.00501457
0.00503721
0.00506096
0.00508584
0.00511187
0.00513906
0.00516745
0.00519706
0.00522789
0.00525994
0.00529318
0.00532757
0.00536303
0.00539945
0.0054367
0.00547466
0.00551321
0.00555229
0.00559192
0.00563217
0.00567322
0.00571532
0.00575873
0.00580372
0.00585051
0.00589923
0.00594989
0.0060024
0.00605658
0.00611217
0.00616892
0.0062266
0.00628507
0.00634431
0.00640443
0.00646567
0.00652837
0.00659295
0.00665986
0.00672957
0.00680246
0.0068789
0.00695927
0.00704389
0.00713253
0.00722547
0.00732267
0.0074241
0.00752969
0.00763937
0.00775303
0.00787059
0.00799197
0.00811712
0.00824599
0.00837856
0.00851482
0.00865477
0.00879845
0.0089459
0.00909715
0.00925227
0.00941132
0.00957437
0.00974148
0.00991272
0.0100882
0.0102679
0.0104519
0.0106404
0.0108333
0.0110307
0.0112327
0.0114393
0.0116507
0.0118668
0.0120877
0.0123135
0.0125442
0.0127799
0.0130206
0.0132665
0.0135175
0.0137737
0.0140353
0.0143022
0.0145745
0.0148523
0.0151357
0.0154248
0.0157195
0.0160201
0.0163265
0.0166389
0.0169573
0.0172819
0.0176126
0.0179496
0.018293
0.0186428
0.0189992
0.0193622
0.0197319
0.0201085
0.0204919
0.0208824
0.02128
0.0216847
0.0220968
0.0225163
0.0229432
0.0233778
0.0238201
0.0242702
0.0247282
0.0251943
0.0256685
0.0261509
0.0266417
0.027141
0.0276489
0.0281655
0.028691
0.0292254
0.0297689
0.0303216
0.0308836
0.031455
0.0320361
0.0326268
0.0332275
0.033838
0.0344587
0.0350897
0.0357311
0.0363829
0.0370455
0.0377189
0.0384032
0.0390986
0.0398053
0.0405234
0.041253
0.0419944
0.0427476
0.0435128
0.0442902
0.0450799
0.0458821
0.046697
0.0475246
0.0483653
0.049219
0.0500861
0.0509666
0.0518608
0.0527688
0.0536907
0.0546268
0.0555773
0.0565422
0.0575218
0.0585162
0.0595256
0.0605503
0.0615904
0.062646
0.0637173
0.0648046
0.065908
0.0670277
0.0681639
0.0693167
0.0704865
0.0716732
0.0728773
0.0740987
0.0753378
0.0765947
0.0778696
0.0791627
0.0804742
0.0818044
0.0831533
0.0845212
0.0859083
0.0873148
0.0887409
0.0901868
0.0916527
0.0931388
0.0946453
0.0961724
0.0977203
0.0992892
0.100879
0.102491
0.104124
0.105779
0.107456
0.109155
0.110876
0.11262
0.114387
0.116177
0.117991
0.119827
0.121687
0.123571
0.125479
0.127411
0.129367
0.131348
0.133354
0.135385
0.13744
0.139521
0.141627
0.143759
0.145917
0.1481
0.15031
0.152546
0.154808
0.157097
0.159412
0.161754
0.164123
0.166519
0.168942
0.171392
0.17387
0.176375
0.178907
0.181467
0.184054
0.186669
0.189312
0.191982
0.194679
0.197405
0.200157
0.202937
0.205745
0.20858
0.211442
0.21433
0.217246
0.220188
0.223157
0.226151
0.229172
0.232218
0.235288
0.238384
0.241503
0.244646
0.247813
0.251001
0.254211
0.257443
0.260694
0.263964
0.267253
0.270559
0.273881
0.277218
0.280568
0.28393
0.287302
0.290683
0.294071
0.297464
0.300859
0.304255
0.307648
0.311038
0.314421
0.317793
0.321152
0.324494
0.327816
0.331113
0.334383
0.33762
0.34082
0.343979
0.347092
0.350153
0.353159
0.356103
0.35898
0.361784
0.364511
0.367155
0.369711
0.372173
0.374536
0.376797
0.37895
0.380992
0.38292
0.384731
0.386424
0.387998
0.389452
0.390788
0.392007
0.393111
0.394105
0.394992
0.395778
0.396469
0.397071
0.397591
0.398036
0.398413
0.39873
0.398993
0.399209
0.399385
0.399527
0.39964
0.399729
0.399798
0.399851
0.399892
0.399922
0.399945
0.399961
0.399973
0.399982
0.399988
0.399992
0.399995
0.399996
0.399998
0.399999
0.399999
0.399999
0.4
0.4
0.4
0.4
0.4
0.4
0.4
0.4
0.4
0.4
0.4
0.4
0.4
0.4
0.4
0.4
0.4
0.4
0.4
0.4
0.4
0.4
0.4
0.4
0.4
)
;

boundaryField
{
    sides
    {
        type            zeroGradient;
    }
    empty1
    {
        type            empty;
    }
    empty2
    {
        type            empty;
    }
}


// ************************************************************************* //
