/*--------------------------------*- C++ -*----------------------------------*\
| =========                 |                                                 |
| \\      /  F ield         | OpenFOAM: The Open Source CFD Toolbox           |
|  \\    /   O peration     | Version:  v1812                                 |
|   \\  /    A nd           | Web:      www.OpenFOAM.com                      |
|    \\/     M anipulation  |                                                 |
\*---------------------------------------------------------------------------*/
FoamFile
{
    version     2.0;
    format      ascii;
    class       surfaceScalarField;
    location    "0.15";
    object      phi;
}
// * * * * * * * * * * * * * * * * * * * * * * * * * * * * * * * * * * * * * //

dimensions      [1 0 -1 0 0 0 0];
oriented        oriented;


internalField   nonuniform List<scalar> 
799
(
-0.000799955
-0.000799955
-0.000799955
-0.000799955
-0.000799955
-0.000799955
-0.000799955
-0.000799955
-0.000799955
-0.000799955
-0.000799955
-0.000799955
-0.000799955
-0.000799955
-0.000799955
-0.000799955
-0.000799955
-0.000799955
-0.000799955
-0.000799955
-0.000799955
-0.000799955
-0.000799955
-0.000799954
-0.000799954
-0.000799954
-0.000799953
-0.000799952
-0.00079995
-0.000799947
-0.000799943
-0.000799937
-0.000799928
-0.000799915
-0.000799897
-0.000799872
-0.000799837
-0.000799789
-0.000799725
-0.000799641
-0.000799529
-0.000799385
-0.0007992
-0.000798965
-0.000798671
-0.000798307
-0.000797861
-0.00079732
-0.00079667
-0.000795897
-0.000794987
-0.000793926
-0.0007927
-0.000791294
-0.000789698
-0.000787899
-0.000785887
-0.000783654
-0.000781193
-0.000778498
-0.000775568
-0.000772399
-0.000768993
-0.000765351
-0.000761478
-0.000757377
-0.000753055
-0.00074852
-0.00074378
-0.000738844
-0.000733721
-0.000728422
-0.000722956
-0.000717336
-0.00071157
-0.000705671
-0.000699647
-0.000693511
-0.000687271
-0.000680938
-0.00067452
-0.000668028
-0.000661469
-0.000654852
-0.000648184
-0.000641474
-0.000634728
-0.000627953
-0.000621154
-0.000614341
-0.000607516
-0.000600685
-0.000593851
-0.000587021
-0.000580197
-0.000573385
-0.000566587
-0.000559808
-0.00055305
-0.000546316
-0.000539609
-0.000532932
-0.000526287
-0.000519676
-0.000513102
-0.000506565
-0.000500068
-0.000493612
-0.000487199
-0.00048083
-0.000474506
-0.000468228
-0.000461998
-0.000455816
-0.000449683
-0.0004436
-0.000437568
-0.000431587
-0.000425657
-0.00041978
-0.000413955
-0.000408183
-0.000402465
-0.0003968
-0.000391189
-0.000385632
-0.000380129
-0.00037468
-0.000369286
-0.000363946
-0.000358661
-0.00035343
-0.000348254
-0.000343132
-0.000338064
-0.00033305
-0.000328091
-0.000323186
-0.000318334
-0.000313536
-0.000308791
-0.0003041
-0.000299461
-0.000294876
-0.000290343
-0.000285862
-0.000281433
-0.000277056
-0.000272731
-0.000268456
-0.000264233
-0.00026006
-0.000255938
-0.000251866
-0.000247843
-0.000243869
-0.000239945
-0.000236069
-0.000232241
-0.000228462
-0.00022473
-0.000221045
-0.000217407
-0.000213816
-0.000210271
-0.000206772
-0.000203318
-0.000199909
-0.000196545
-0.000193225
-0.000189949
-0.000186716
-0.000183527
-0.000180381
-0.000177277
-0.000174215
-0.000171194
-0.000168215
-0.000165277
-0.000162379
-0.000159522
-0.000156704
-0.000153925
-0.000151186
-0.000148485
-0.000145822
-0.000143197
-0.00014061
-0.000138059
-0.000135546
-0.000133068
-0.000130627
-0.000128221
-0.000125851
-0.000123515
-0.000121214
-0.000118947
-0.000116713
-0.000114513
-0.000112346
-0.000110212
-0.00010811
-0.000106041
-0.000104002
-0.000101995
-0.00010002
-9.80742e-05
-9.61591e-05
-9.4274e-05
-9.24184e-05
-9.05922e-05
-8.87948e-05
-8.70261e-05
-8.52856e-05
-8.3573e-05
-8.18881e-05
-8.02304e-05
-7.85997e-05
-7.69956e-05
-7.54178e-05
-7.3866e-05
-7.23398e-05
-7.0839e-05
-6.93632e-05
-6.79122e-05
-6.64854e-05
-6.50828e-05
-6.37039e-05
-6.23484e-05
-6.1016e-05
-5.97064e-05
-5.84193e-05
-5.71544e-05
-5.59113e-05
-5.46898e-05
-5.34895e-05
-5.23102e-05
-5.11516e-05
-5.00133e-05
-4.8895e-05
-4.77965e-05
-4.67175e-05
-4.56576e-05
-4.46167e-05
-4.35944e-05
-4.25905e-05
-4.16046e-05
-4.06365e-05
-3.96861e-05
-3.87529e-05
-3.78367e-05
-3.69374e-05
-3.60546e-05
-3.51881e-05
-3.43377e-05
-3.35032e-05
-3.26843e-05
-3.18808e-05
-3.10925e-05
-3.03192e-05
-2.95607e-05
-2.88167e-05
-2.80872e-05
-2.73718e-05
-2.66705e-05
-2.5983e-05
-2.53091e-05
-2.46487e-05
-2.40015e-05
-2.33675e-05
-2.27464e-05
-2.21382e-05
-2.15425e-05
-2.09593e-05
-2.03885e-05
-1.98298e-05
-1.9283e-05
-1.87482e-05
-1.82251e-05
-1.77135e-05
-1.72133e-05
-1.67245e-05
-1.62467e-05
-1.578e-05
-1.53241e-05
-1.4879e-05
-1.44444e-05
-1.40203e-05
-1.36065e-05
-1.32029e-05
-1.28093e-05
-1.24256e-05
-1.20517e-05
-1.16873e-05
-1.13325e-05
-1.09869e-05
-1.06505e-05
-1.03231e-05
-1.00045e-05
-9.69451e-06
-9.39306e-06
-9.09993e-06
-8.81494e-06
-8.53794e-06
-8.26874e-06
-8.0072e-06
-7.75316e-06
-7.50649e-06
-7.26708e-06
-7.03481e-06
-6.80961e-06
-6.59143e-06
-6.38024e-06
-6.17603e-06
-5.9788e-06
-5.78858e-06
-5.60541e-06
-5.42933e-06
-5.26046e-06
-5.0987e-06
-4.94353e-06
-4.79477e-06
-4.65298e-06
-4.51779e-06
-4.38833e-06
-4.26412e-06
-4.1446e-06
-4.02914e-06
-3.91709e-06
-3.80782e-06
-3.70079e-06
-3.59558e-06
-3.49194e-06
-3.38976e-06
-3.28914e-06
-3.19027e-06
-3.09344e-06
-2.99893e-06
-2.90697e-06
-2.81771e-06
-2.73113e-06
-2.6471e-06
-2.56536e-06
-2.4856e-06
-2.40748e-06
-2.33069e-06
-2.255e-06
-2.18029e-06
-2.10652e-06
-2.03377e-06
-1.96216e-06
-1.89185e-06
-1.82298e-06
-1.75568e-06
-1.69003e-06
-1.62605e-06
-1.56373e-06
-1.50301e-06
-1.4438e-06
-1.386e-06
-1.32949e-06
-1.27416e-06
-1.21992e-06
-1.16668e-06
-1.11442e-06
-1.06311e-06
-1.01275e-06
-9.63386e-07
-9.15062e-07
-8.67829e-07
-8.21739e-07
-7.76835e-07
-7.33153e-07
-6.90717e-07
-6.49546e-07
-6.0965e-07
-5.71038e-07
-5.33717e-07
-4.97689e-07
-4.62955e-07
-4.29509e-07
-3.97343e-07
-3.66438e-07
-3.36774e-07
-3.08326e-07
-2.81068e-07
-2.54979e-07
-2.30039e-07
-2.0623e-07
-1.83533e-07
-1.61919e-07
-1.41341e-07
-1.21726e-07
-1.02967e-07
-8.49273e-08
-6.74449e-08
-5.03499e-08
-3.34848e-08
-1.67266e-08
-1.34026e-14
1.67266e-08
3.34847e-08
5.03498e-08
6.74449e-08
8.49273e-08
1.02967e-07
1.21726e-07
1.41341e-07
1.61919e-07
1.83533e-07
2.0623e-07
2.30039e-07
2.54979e-07
2.81068e-07
3.08326e-07
3.36774e-07
3.66438e-07
3.97343e-07
4.29509e-07
4.62955e-07
4.97689e-07
5.33717e-07
5.71038e-07
6.0965e-07
6.49546e-07
6.90717e-07
7.33153e-07
7.76835e-07
8.21739e-07
8.67829e-07
9.15062e-07
9.63386e-07
1.01275e-06
1.0631e-06
1.11442e-06
1.16668e-06
1.21992e-06
1.27416e-06
1.32949e-06
1.386e-06
1.4438e-06
1.50301e-06
1.56373e-06
1.62605e-06
1.69003e-06
1.75568e-06
1.82298e-06
1.89185e-06
1.96216e-06
2.03377e-06
2.10652e-06
2.18029e-06
2.255e-06
2.33069e-06
2.40748e-06
2.4856e-06
2.56536e-06
2.6471e-06
2.73113e-06
2.81771e-06
2.90697e-06
2.99893e-06
3.09344e-06
3.19027e-06
3.28914e-06
3.38976e-06
3.49194e-06
3.59558e-06
3.70079e-06
3.80782e-06
3.91709e-06
4.02914e-06
4.1446e-06
4.26412e-06
4.38833e-06
4.51779e-06
4.65298e-06
4.79477e-06
4.94353e-06
5.0987e-06
5.26046e-06
5.42933e-06
5.60541e-06
5.78858e-06
5.9788e-06
6.17603e-06
6.38024e-06
6.59143e-06
6.80961e-06
7.03481e-06
7.26708e-06
7.50649e-06
7.75316e-06
8.0072e-06
8.26874e-06
8.53794e-06
8.81494e-06
9.09993e-06
9.39306e-06
9.69451e-06
1.00045e-05
1.03231e-05
1.06505e-05
1.09869e-05
1.13325e-05
1.16873e-05
1.20517e-05
1.24256e-05
1.28093e-05
1.32029e-05
1.36065e-05
1.40203e-05
1.44444e-05
1.4879e-05
1.53241e-05
1.578e-05
1.62467e-05
1.67245e-05
1.72133e-05
1.77135e-05
1.82251e-05
1.87482e-05
1.9283e-05
1.98298e-05
2.03885e-05
2.09593e-05
2.15425e-05
2.21382e-05
2.27464e-05
2.33675e-05
2.40015e-05
2.46487e-05
2.53091e-05
2.5983e-05
2.66705e-05
2.73718e-05
2.80872e-05
2.88167e-05
2.95607e-05
3.03192e-05
3.10925e-05
3.18808e-05
3.26843e-05
3.35032e-05
3.43377e-05
3.51881e-05
3.60546e-05
3.69374e-05
3.78367e-05
3.87529e-05
3.96861e-05
4.06365e-05
4.16046e-05
4.25905e-05
4.35944e-05
4.46167e-05
4.56576e-05
4.67175e-05
4.77965e-05
4.8895e-05
5.00133e-05
5.11516e-05
5.23102e-05
5.34895e-05
5.46898e-05
5.59113e-05
5.71544e-05
5.84193e-05
5.97064e-05
6.1016e-05
6.23484e-05
6.37039e-05
6.50828e-05
6.64854e-05
6.79122e-05
6.93632e-05
7.0839e-05
7.23398e-05
7.3866e-05
7.54178e-05
7.69956e-05
7.85997e-05
8.02304e-05
8.18881e-05
8.3573e-05
8.52856e-05
8.70261e-05
8.87948e-05
9.05922e-05
9.24184e-05
9.4274e-05
9.61591e-05
9.80742e-05
0.00010002
0.000101995
0.000104002
0.000106041
0.00010811
0.000110212
0.000112346
0.000114513
0.000116713
0.000118947
0.000121214
0.000123515
0.000125851
0.000128221
0.000130627
0.000133068
0.000135546
0.000138059
0.00014061
0.000143197
0.000145822
0.000148485
0.000151186
0.000153925
0.000156704
0.000159522
0.000162379
0.000165277
0.000168215
0.000171194
0.000174215
0.000177277
0.000180381
0.000183527
0.000186716
0.000189949
0.000193225
0.000196545
0.000199909
0.000203318
0.000206772
0.000210271
0.000213816
0.000217407
0.000221045
0.00022473
0.000228462
0.000232241
0.000236069
0.000239945
0.000243869
0.000247843
0.000251866
0.000255938
0.00026006
0.000264233
0.000268456
0.000272731
0.000277056
0.000281433
0.000285862
0.000290343
0.000294876
0.000299461
0.0003041
0.000308791
0.000313536
0.000318334
0.000323186
0.000328091
0.00033305
0.000338064
0.000343132
0.000348254
0.00035343
0.000358661
0.000363946
0.000369286
0.00037468
0.000380129
0.000385632
0.000391189
0.0003968
0.000402465
0.000408183
0.000413955
0.00041978
0.000425657
0.000431587
0.000437568
0.0004436
0.000449683
0.000455816
0.000461998
0.000468228
0.000474506
0.00048083
0.000487199
0.000493612
0.000500068
0.000506565
0.000513102
0.000519676
0.000526287
0.000532932
0.000539609
0.000546316
0.00055305
0.000559808
0.000566587
0.000573385
0.000580197
0.000587021
0.000593851
0.000600685
0.000607516
0.000614341
0.000621154
0.000627953
0.000634728
0.000641474
0.000648184
0.000654852
0.000661469
0.000668028
0.00067452
0.000680938
0.000687271
0.000693511
0.000699647
0.000705671
0.00071157
0.000717336
0.000722956
0.000728422
0.000733721
0.000738844
0.00074378
0.00074852
0.000753055
0.000757377
0.000761478
0.000765351
0.000768993
0.000772399
0.000775568
0.000778498
0.000781193
0.000783654
0.000785887
0.000787899
0.000789698
0.000791294
0.0007927
0.000793926
0.000794987
0.000795897
0.00079667
0.00079732
0.000797861
0.000798307
0.000798671
0.000798965
0.0007992
0.000799385
0.000799529
0.000799641
0.000799725
0.000799789
0.000799837
0.000799872
0.000799897
0.000799915
0.000799928
0.000799937
0.000799943
0.000799947
0.00079995
0.000799952
0.000799953
0.000799954
0.000799954
0.000799954
0.000799955
0.000799955
0.000799955
0.000799955
0.000799955
0.000799955
0.000799955
0.000799955
0.000799955
0.000799955
0.000799955
0.000799955
0.000799955
0.000799955
0.000799955
0.000799955
0.000799955
0.000799955
0.000799955
0.000799955
0.000799955
0.000799955
0.000799955
)
;

boundaryField
{
    sides
    {
        type            calculated;
        value           nonuniform List<scalar> 2(0.000799955 0.000799955);
    }
    empty1
    {
        type            empty;
        value           nonuniform 0();
    }
    empty2
    {
        type            empty;
        value           nonuniform 0();
    }
}


// ************************************************************************* //
