/*--------------------------------*- C++ -*----------------------------------*\
| =========                 |                                                 |
| \\      /  F ield         | OpenFOAM: The Open Source CFD Toolbox           |
|  \\    /   O peration     | Version:  v1812                                 |
|   \\  /    A nd           | Web:      www.OpenFOAM.com                      |
|    \\/     M anipulation  |                                                 |
\*---------------------------------------------------------------------------*/
FoamFile
{
    version     2.0;
    format      ascii;
    class       volScalarField;
    location    "0.15";
    object      rho;
}
// * * * * * * * * * * * * * * * * * * * * * * * * * * * * * * * * * * * * * //

dimensions      [1 -3 0 0 0 0 0];


internalField   nonuniform List<scalar> 
800
(
0.999943
0.999943
0.999943
0.999943
0.999943
0.999943
0.999943
0.999943
0.999943
0.999943
0.999943
0.999943
0.999943
0.999943
0.999943
0.999943
0.999943
0.999943
0.999943
0.999943
0.999943
0.999943
0.999943
0.999943
0.999943
0.999943
0.999942
0.999941
0.99994
0.999938
0.999935
0.99993
0.999923
0.999914
0.9999
0.99988
0.999853
0.999816
0.999766
0.999699
0.999611
0.999496
0.999347
0.999158
0.998919
0.998623
0.998257
0.99781
0.997272
0.996628
0.995867
0.994974
0.993938
0.992744
0.991382
0.98984
0.988107
0.986175
0.984037
0.981686
0.979118
0.97633
0.973322
0.970092
0.966644
0.962979
0.959103
0.955021
0.950739
0.946264
0.941604
0.936767
0.931761
0.926596
0.921281
0.915824
0.910235
0.904523
0.898695
0.892762
0.886732
0.880611
0.874409
0.868132
0.861788
0.855383
0.848924
0.842417
0.835868
0.829282
0.822667
0.816025
0.809359
0.802676
0.795978
0.789271
0.782557
0.775839
0.769122
0.762407
0.755698
0.748997
0.742306
0.735629
0.728966
0.72232
0.715693
0.709086
0.702501
0.695939
0.689402
0.682891
0.676408
0.669953
0.663527
0.657132
0.650768
0.644436
0.638137
0.631872
0.625641
0.619445
0.613284
0.60716
0.601072
0.595021
0.589007
0.583031
0.577093
0.571193
0.565333
0.559511
0.553728
0.547985
0.542281
0.536617
0.530993
0.525409
0.519865
0.514361
0.508898
0.503475
0.498092
0.49275
0.487449
0.482188
0.476967
0.471787
0.466647
0.461548
0.456489
0.451471
0.446492
0.441554
0.436656
0.431799
0.426981
0.422203
0.417464
0.412766
0.408107
0.403487
0.398907
0.394366
0.389863
0.3854
0.380976
0.37659
0.372242
0.367933
0.363662
0.359429
0.355234
0.351077
0.346957
0.342874
0.338828
0.33482
0.330848
0.326913
0.323014
0.319151
0.315325
0.311534
0.307779
0.304059
0.300375
0.296726
0.293111
0.289531
0.285986
0.282475
0.278998
0.275555
0.272146
0.26877
0.265427
0.262118
0.258841
0.255598
0.252386
0.249207
0.24606
0.242946
0.239862
0.236811
0.233791
0.230802
0.227844
0.224917
0.22202
0.219154
0.216318
0.213513
0.210737
0.207991
0.205274
0.202587
0.199928
0.197299
0.194698
0.192126
0.189582
0.187066
0.184578
0.182118
0.179684
0.177278
0.174899
0.172547
0.170221
0.167921
0.165647
0.163398
0.161175
0.158977
0.156804
0.154656
0.152532
0.150432
0.148356
0.146303
0.144273
0.142267
0.140283
0.138322
0.136383
0.134465
0.13257
0.130696
0.128843
0.127011
0.1252
0.12341
0.121639
0.119889
0.118159
0.116449
0.114758
0.113087
0.111435
0.109802
0.108188
0.106593
0.105017
0.103459
0.10192
0.100399
0.0988968
0.0974128
0.095947
0.0944995
0.09307
0.0916587
0.0902654
0.0888901
0.0875329
0.0861937
0.0848724
0.0835691
0.0822838
0.0810165
0.0797671
0.0785358
0.0773225
0.0761271
0.0749499
0.0737906
0.0726495
0.0715264
0.0704213
0.0693344
0.0682655
0.0672146
0.0661818
0.0651669
0.0641699
0.0631908
0.0622294
0.0612857
0.0603595
0.0594507
0.0585592
0.0576847
0.0568272
0.0559866
0.0551626
0.0543552
0.0535643
0.05279
0.0520322
0.0512911
0.0505669
0.0498599
0.0491704
0.0484987
0.0478454
0.0472108
0.0465958
0.0460008
0.0454247
0.044866
0.0443267
0.0438077
0.0433066
0.0428214
0.0423506
0.0418926
0.0414451
0.0410061
0.0405736
0.0401456
0.0397208
0.0392984
0.0388781
0.0384602
0.0380455
0.0376348
0.0372291
0.0368289
0.0364346
0.0360458
0.0356617
0.0352814
0.0349035
0.0345268
0.0341505
0.033774
0.0333971
0.0330202
0.0326439
0.032269
0.0318965
0.0315269
0.0311608
0.0307984
0.0304391
0.0300824
0.0297269
0.0293711
0.029013
0.0286506
0.0282818
0.0279048
0.0275179
0.0271201
0.026711
0.0262906
0.0258596
0.0254192
0.0249706
0.0245154
0.0240548
0.0235903
0.0231231
0.0226543
0.022185
0.0217165
0.0212498
0.0207864
0.0203276
0.0198745
0.0194286
0.0189909
0.0185627
0.0181455
0.0177408
0.017351
0.0169791
0.0166292
0.016306
0.016015
0.0157616
0.0155505
0.0153846
0.0152639
0.0151849
0.0151406
0.015121
0.0151155
0.0151155
0.015121
0.0151406
0.0151849
0.0152639
0.0153846
0.0155505
0.0157616
0.016015
0.016306
0.0166292
0.0169791
0.017351
0.0177408
0.0181455
0.0185627
0.0189909
0.0194286
0.0198745
0.0203276
0.0207864
0.0212498
0.0217165
0.022185
0.0226543
0.0231231
0.0235903
0.0240548
0.0245154
0.0249706
0.0254192
0.0258596
0.0262906
0.026711
0.0271201
0.0275179
0.0279048
0.0282818
0.0286506
0.029013
0.0293711
0.0297269
0.0300824
0.0304391
0.0307984
0.0311608
0.0315269
0.0318965
0.032269
0.0326439
0.0330202
0.0333971
0.033774
0.0341505
0.0345268
0.0349035
0.0352814
0.0356617
0.0360458
0.0364346
0.0368289
0.0372291
0.0376348
0.0380455
0.0384602
0.0388781
0.0392984
0.0397208
0.0401456
0.0405736
0.0410061
0.0414451
0.0418926
0.0423506
0.0428214
0.0433066
0.0438077
0.0443267
0.044866
0.0454247
0.0460008
0.0465958
0.0472108
0.0478454
0.0484987
0.0491704
0.0498599
0.0505669
0.0512911
0.0520322
0.05279
0.0535643
0.0543552
0.0551626
0.0559866
0.0568272
0.0576847
0.0585592
0.0594507
0.0603595
0.0612857
0.0622294
0.0631908
0.0641699
0.0651669
0.0661818
0.0672146
0.0682655
0.0693344
0.0704213
0.0715264
0.0726495
0.0737906
0.0749499
0.0761271
0.0773225
0.0785358
0.0797671
0.0810165
0.0822838
0.0835691
0.0848724
0.0861937
0.0875329
0.0888901
0.0902654
0.0916587
0.09307
0.0944995
0.095947
0.0974128
0.0988968
0.100399
0.10192
0.103459
0.105017
0.106593
0.108188
0.109802
0.111435
0.113087
0.114758
0.116449
0.118159
0.119889
0.121639
0.12341
0.1252
0.127011
0.128843
0.130696
0.13257
0.134465
0.136383
0.138322
0.140283
0.142267
0.144273
0.146303
0.148356
0.150432
0.152532
0.154656
0.156804
0.158977
0.161175
0.163398
0.165647
0.167921
0.170221
0.172547
0.174899
0.177278
0.179684
0.182118
0.184578
0.187066
0.189582
0.192126
0.194698
0.197299
0.199928
0.202587
0.205274
0.207991
0.210737
0.213513
0.216318
0.219154
0.22202
0.224917
0.227844
0.230802
0.233791
0.236811
0.239862
0.242946
0.24606
0.249207
0.252386
0.255598
0.258841
0.262118
0.265427
0.26877
0.272146
0.275555
0.278998
0.282475
0.285986
0.289531
0.293111
0.296726
0.300375
0.304059
0.307779
0.311534
0.315325
0.319151
0.323014
0.326913
0.330848
0.33482
0.338828
0.342874
0.346957
0.351077
0.355234
0.359429
0.363662
0.367933
0.372242
0.37659
0.380976
0.3854
0.389863
0.394366
0.398907
0.403487
0.408107
0.412766
0.417464
0.422203
0.426981
0.431799
0.436656
0.441554
0.446492
0.451471
0.456489
0.461548
0.466647
0.471787
0.476967
0.482188
0.487449
0.49275
0.498092
0.503475
0.508898
0.514361
0.519865
0.525409
0.530993
0.536617
0.542281
0.547985
0.553728
0.559511
0.565333
0.571193
0.577093
0.583031
0.589007
0.595021
0.601072
0.60716
0.613284
0.619445
0.625641
0.631872
0.638137
0.644436
0.650768
0.657132
0.663527
0.669953
0.676408
0.682891
0.689402
0.695939
0.702501
0.709086
0.715693
0.72232
0.728966
0.735629
0.742306
0.748997
0.755698
0.762407
0.769122
0.775839
0.782557
0.789271
0.795978
0.802676
0.809359
0.816025
0.822667
0.829282
0.835868
0.842417
0.848924
0.855383
0.861788
0.868132
0.874409
0.880611
0.886732
0.892762
0.898695
0.904523
0.910235
0.915824
0.921281
0.926596
0.931761
0.936767
0.941604
0.946264
0.950739
0.955021
0.959103
0.962979
0.966644
0.970092
0.973322
0.97633
0.979118
0.981686
0.984037
0.986175
0.988107
0.98984
0.991382
0.992744
0.993938
0.994974
0.995867
0.996628
0.997272
0.99781
0.998257
0.998623
0.998919
0.999158
0.999347
0.999496
0.999611
0.999699
0.999766
0.999816
0.999853
0.99988
0.9999
0.999914
0.999923
0.99993
0.999935
0.999938
0.99994
0.999941
0.999942
0.999943
0.999943
0.999943
0.999943
0.999943
0.999943
0.999943
0.999943
0.999943
0.999943
0.999943
0.999943
0.999943
0.999943
0.999943
0.999943
0.999943
0.999943
0.999943
0.999943
0.999943
0.999943
0.999943
0.999943
0.999943
0.999943
)
;

boundaryField
{
    sides
    {
        type            calculated;
        value           nonuniform List<scalar> 2(0.999943 0.999943);
    }
    empty1
    {
        type            empty;
    }
    empty2
    {
        type            empty;
    }
}


// ************************************************************************* //
