/*--------------------------------*- C++ -*----------------------------------*\
| =========                 |                                                 |
| \\      /  F ield         | OpenFOAM: The Open Source CFD Toolbox           |
|  \\    /   O peration     | Version:  v1812                                 |
|   \\  /    A nd           | Web:      www.OpenFOAM.com                      |
|    \\/     M anipulation  |                                                 |
\*---------------------------------------------------------------------------*/
FoamFile
{
    version     2.0;
    format      ascii;
    class       volScalarField;
    location    "0.15";
    object      T;
}
// * * * * * * * * * * * * * * * * * * * * * * * * * * * * * * * * * * * * * //

dimensions      [0 0 0 1 0 0 0];


internalField   nonuniform List<scalar> 
800
(
1
1
1
1
1
1
1
1
1
1
1
1
1
1
1
1
1
1
1
1
1
1
1
1
1
1
0.999999
0.999999
0.999998
0.999997
0.999995
0.999993
0.999989
0.999984
0.999976
0.999966
0.999952
0.999932
0.999907
0.999872
0.999828
0.99977
0.999696
0.999603
0.999487
0.999343
0.999167
0.998955
0.998701
0.9984
0.998046
0.997635
0.997162
0.996621
0.996008
0.995319
0.99455
0.993699
0.992762
0.991738
0.990627
0.989426
0.988136
0.986758
0.985292
0.98374
0.982103
0.980384
0.978585
0.976709
0.974758
0.972736
0.970645
0.968489
0.96627
0.963991
0.961657
0.959268
0.95683
0.954343
0.951812
0.949238
0.946624
0.943973
0.941286
0.938567
0.935817
0.933038
0.930232
0.927401
0.924547
0.921671
0.918774
0.915858
0.912924
0.909973
0.907008
0.904028
0.901035
0.89803
0.895013
0.891987
0.888951
0.885906
0.882853
0.879794
0.876728
0.873655
0.870578
0.867496
0.86441
0.86132
0.858226
0.855131
0.852032
0.848932
0.845831
0.842728
0.839625
0.836521
0.833417
0.830313
0.82721
0.824107
0.821006
0.817906
0.814807
0.81171
0.808615
0.805523
0.802433
0.799345
0.796261
0.793179
0.7901
0.787025
0.783954
0.780886
0.777822
0.774762
0.771706
0.768654
0.765607
0.762564
0.759526
0.756493
0.753465
0.750441
0.747423
0.74441
0.741403
0.738401
0.735404
0.732413
0.729428
0.726449
0.723476
0.720509
0.717548
0.714593
0.711645
0.708703
0.705767
0.702838
0.699916
0.697
0.694091
0.691189
0.688294
0.685406
0.682526
0.679652
0.676786
0.673926
0.671075
0.66823
0.665394
0.662565
0.659743
0.656929
0.654124
0.651326
0.648536
0.645753
0.64298
0.640214
0.637456
0.634707
0.631966
0.629233
0.626509
0.623794
0.621087
0.618388
0.615699
0.613018
0.610345
0.607682
0.605027
0.602381
0.599744
0.597116
0.594497
0.591887
0.589285
0.586693
0.584109
0.581535
0.578969
0.576412
0.573864
0.571324
0.568794
0.566272
0.563759
0.561255
0.558759
0.556272
0.553794
0.551325
0.548864
0.546412
0.543969
0.541534
0.539109
0.536692
0.534284
0.531886
0.529496
0.527116
0.524746
0.522385
0.520035
0.517694
0.515364
0.513045
0.510736
0.508439
0.506154
0.50388
0.501619
0.499371
0.497136
0.494914
0.492707
0.490514
0.488336
0.486174
0.484028
0.481898
0.479786
0.477691
0.475614
0.473555
0.471515
0.469495
0.467495
0.465515
0.463557
0.461619
0.459703
0.45781
0.455938
0.45409
0.452265
0.450463
0.448685
0.446931
0.445202
0.443497
0.441816
0.440161
0.438531
0.436925
0.435346
0.433791
0.432262
0.430759
0.429282
0.42783
0.426404
0.425004
0.42363
0.422282
0.42096
0.419665
0.418396
0.417153
0.415936
0.414746
0.413583
0.412447
0.411338
0.410255
0.409201
0.408173
0.407174
0.406202
0.405258
0.404342
0.403455
0.402595
0.401764
0.400962
0.400188
0.399444
0.398729
0.398043
0.397389
0.396765
0.396174
0.395617
0.395096
0.394613
0.39417
0.39377
0.393417
0.393113
0.39286
0.39266
0.392525
0.392474
0.392477
0.39254
0.39267
0.392864
0.393116
0.393422
0.393774
0.394167
0.394596
0.395059
0.395555
0.396088
0.396661
0.397282
0.39796
0.398704
0.399523
0.400425
0.401416
0.402502
0.403682
0.404959
0.406328
0.407788
0.409335
0.410965
0.412677
0.414469
0.41634
0.418291
0.420323
0.422439
0.424642
0.426941
0.429348
0.431878
0.434553
0.437401
0.440456
0.443757
0.447344
0.451261
0.455548
0.460242
0.465374
0.470965
0.477032
0.483583
0.490622
0.498152
0.506174
0.51469
0.523702
0.533215
0.543231
0.55375
0.564766
0.576272
0.588253
0.600691
0.613564
0.626843
0.640495
0.65447
0.668698
0.683072
0.697436
0.711568
0.725177
0.737911
0.74938
0.759209
0.767104
0.772927
0.776751
0.778879
0.779789
0.78002
0.78002
0.779789
0.778879
0.776751
0.772927
0.767104
0.759209
0.74938
0.737911
0.725177
0.711568
0.697436
0.683072
0.668698
0.65447
0.640495
0.626843
0.613564
0.600691
0.588253
0.576272
0.564766
0.55375
0.543231
0.533215
0.523702
0.51469
0.506174
0.498152
0.490622
0.483583
0.477032
0.470965
0.465374
0.460242
0.455548
0.451261
0.447344
0.443757
0.440456
0.437401
0.434553
0.431878
0.429348
0.426942
0.424642
0.422439
0.420323
0.418291
0.41634
0.414469
0.412677
0.410965
0.409335
0.407788
0.406328
0.404959
0.403682
0.402502
0.401416
0.400425
0.399523
0.398704
0.39796
0.397282
0.396661
0.396088
0.395555
0.395059
0.394596
0.394167
0.393774
0.393422
0.393116
0.392864
0.39267
0.39254
0.392477
0.392474
0.392525
0.39266
0.39286
0.393113
0.393417
0.39377
0.39417
0.394613
0.395096
0.395617
0.396174
0.396765
0.397389
0.398043
0.398729
0.399444
0.400188
0.400962
0.401764
0.402595
0.403455
0.404342
0.405258
0.406202
0.407174
0.408173
0.409201
0.410255
0.411338
0.412447
0.413583
0.414746
0.415936
0.417153
0.418396
0.419665
0.42096
0.422282
0.42363
0.425004
0.426404
0.42783
0.429282
0.430759
0.432262
0.433791
0.435346
0.436925
0.438531
0.440161
0.441816
0.443497
0.445202
0.446931
0.448685
0.450463
0.452265
0.45409
0.455938
0.45781
0.459703
0.461619
0.463557
0.465515
0.467495
0.469495
0.471515
0.473555
0.475614
0.477691
0.479786
0.481898
0.484028
0.486174
0.488336
0.490514
0.492707
0.494914
0.497136
0.499371
0.501619
0.50388
0.506154
0.508439
0.510736
0.513045
0.515364
0.517694
0.520035
0.522385
0.524746
0.527116
0.529496
0.531886
0.534284
0.536692
0.539109
0.541534
0.543969
0.546412
0.548864
0.551325
0.553794
0.556272
0.558759
0.561255
0.563759
0.566272
0.568794
0.571324
0.573864
0.576412
0.578969
0.581535
0.584109
0.586693
0.589285
0.591887
0.594497
0.597116
0.599744
0.602381
0.605027
0.607682
0.610345
0.613018
0.615699
0.618388
0.621087
0.623794
0.626509
0.629233
0.631966
0.634707
0.637456
0.640214
0.64298
0.645753
0.648536
0.651326
0.654124
0.656929
0.659743
0.662565
0.665394
0.66823
0.671075
0.673926
0.676786
0.679652
0.682526
0.685406
0.688294
0.691189
0.694091
0.697
0.699916
0.702838
0.705767
0.708703
0.711645
0.714593
0.717548
0.720509
0.723476
0.726449
0.729428
0.732413
0.735404
0.738401
0.741403
0.74441
0.747423
0.750441
0.753465
0.756493
0.759526
0.762564
0.765607
0.768654
0.771706
0.774762
0.777822
0.780886
0.783954
0.787025
0.7901
0.793179
0.796261
0.799345
0.802433
0.805523
0.808615
0.81171
0.814807
0.817906
0.821006
0.824107
0.82721
0.830313
0.833417
0.836521
0.839625
0.842728
0.845831
0.848932
0.852032
0.855131
0.858226
0.86132
0.86441
0.867496
0.870578
0.873655
0.876728
0.879794
0.882853
0.885906
0.888951
0.891987
0.895013
0.89803
0.901035
0.904028
0.907008
0.909973
0.912924
0.915858
0.918774
0.921671
0.924547
0.927401
0.930232
0.933038
0.935817
0.938567
0.941286
0.943973
0.946624
0.949238
0.951812
0.954343
0.95683
0.959268
0.961657
0.963991
0.96627
0.968489
0.970645
0.972736
0.974758
0.976709
0.978585
0.980384
0.982103
0.98374
0.985292
0.986758
0.988136
0.989426
0.990627
0.991738
0.992762
0.993699
0.99455
0.995319
0.996008
0.996621
0.997162
0.997635
0.998046
0.9984
0.998701
0.998955
0.999167
0.999343
0.999487
0.999603
0.999696
0.99977
0.999828
0.999872
0.999907
0.999932
0.999952
0.999966
0.999976
0.999984
0.999989
0.999993
0.999995
0.999997
0.999998
0.999999
0.999999
1
1
1
1
1
1
1
1
1
1
1
1
1
1
1
1
1
1
1
1
1
1
1
1
1
1
)
;

boundaryField
{
    sides
    {
        type            zeroGradient;
    }
    empty1
    {
        type            empty;
    }
    empty2
    {
        type            empty;
    }
}


// ************************************************************************* //
