/*--------------------------------*- C++ -*----------------------------------*\
| =========                 |                                                 |
| \\      /  F ield         | OpenFOAM: The Open Source CFD Toolbox           |
|  \\    /   O peration     | Version:  v1812                                 |
|   \\  /    A nd           | Web:      www.OpenFOAM.com                      |
|    \\/     M anipulation  |                                                 |
\*---------------------------------------------------------------------------*/
FoamFile
{
    version     2.0;
    format      ascii;
    class       volVectorField;
    location    "0.15";
    object      U;
}
// * * * * * * * * * * * * * * * * * * * * * * * * * * * * * * * * * * * * * //

dimensions      [0 1 -1 0 0 0 0];


internalField   nonuniform List<vector> 
800
(
(-2 0 0)
(-2 0 0)
(-2 0 0)
(-2 0 0)
(-2 0 0)
(-2 0 0)
(-2 0 0)
(-2 0 0)
(-2 0 0)
(-2 0 0)
(-2 0 0)
(-2 0 0)
(-2 0 0)
(-2 0 0)
(-2 0 0)
(-2 0 0)
(-2 0 0)
(-2 0 0)
(-2 0 0)
(-2 0 0)
(-2 0 0)
(-2 0 0)
(-2 0 0)
(-2 0 0)
(-2 0 0)
(-2 0 0)
(-2 0 0)
(-2 0 0)
(-2 0 0)
(-2 0 0)
(-1.99999 0 0)
(-1.99999 0 0)
(-1.99998 0 0)
(-1.99998 0 0)
(-1.99997 0 0)
(-1.99995 0 0)
(-1.99993 0 0)
(-1.9999 0 0)
(-1.99986 0 0)
(-1.99981 0 0)
(-1.99974 0 0)
(-1.99965 0 0)
(-1.99954 0 0)
(-1.99939 0 0)
(-1.99921 0 0)
(-1.99898 0 0)
(-1.9987 0 0)
(-1.99835 0 0)
(-1.99794 0 0)
(-1.99745 0 0)
(-1.99686 0 0)
(-1.99618 0 0)
(-1.99538 0 0)
(-1.99447 0 0)
(-1.99342 0 0)
(-1.99224 0 0)
(-1.99092 0 0)
(-1.98944 0 0)
(-1.9878 0 0)
(-1.98599 0 0)
(-1.98402 0 0)
(-1.98187 0 0)
(-1.97956 0 0)
(-1.97707 0 0)
(-1.9744 0 0)
(-1.97156 0 0)
(-1.96855 0 0)
(-1.96538 0 0)
(-1.96203 0 0)
(-1.95853 0 0)
(-1.95487 0 0)
(-1.95105 0 0)
(-1.94709 0 0)
(-1.94299 0 0)
(-1.93875 0 0)
(-1.93438 0 0)
(-1.92989 0 0)
(-1.92527 0 0)
(-1.92054 0 0)
(-1.9157 0 0)
(-1.91075 0 0)
(-1.90571 0 0)
(-1.90057 0 0)
(-1.89534 0 0)
(-1.89002 0 0)
(-1.88462 0 0)
(-1.87915 0 0)
(-1.8736 0 0)
(-1.86798 0 0)
(-1.8623 0 0)
(-1.85655 0 0)
(-1.85074 0 0)
(-1.84488 0 0)
(-1.83896 0 0)
(-1.83299 0 0)
(-1.82698 0 0)
(-1.82091 0 0)
(-1.8148 0 0)
(-1.80865 0 0)
(-1.80246 0 0)
(-1.79623 0 0)
(-1.78996 0 0)
(-1.78366 0 0)
(-1.77733 0 0)
(-1.77096 0 0)
(-1.76457 0 0)
(-1.75814 0 0)
(-1.75169 0 0)
(-1.74521 0 0)
(-1.73871 0 0)
(-1.73218 0 0)
(-1.72563 0 0)
(-1.71906 0 0)
(-1.71246 0 0)
(-1.70584 0 0)
(-1.69921 0 0)
(-1.69255 0 0)
(-1.68588 0 0)
(-1.67919 0 0)
(-1.67248 0 0)
(-1.66576 0 0)
(-1.65902 0 0)
(-1.65227 0 0)
(-1.6455 0 0)
(-1.63871 0 0)
(-1.63192 0 0)
(-1.62511 0 0)
(-1.61829 0 0)
(-1.61145 0 0)
(-1.6046 0 0)
(-1.59775 0 0)
(-1.59088 0 0)
(-1.584 0 0)
(-1.57711 0 0)
(-1.57021 0 0)
(-1.5633 0 0)
(-1.55638 0 0)
(-1.54945 0 0)
(-1.54251 0 0)
(-1.53557 0 0)
(-1.52861 0 0)
(-1.52165 0 0)
(-1.51468 0 0)
(-1.5077 0 0)
(-1.50071 0 0)
(-1.49372 0 0)
(-1.48672 0 0)
(-1.47971 0 0)
(-1.4727 0 0)
(-1.46568 0 0)
(-1.45866 0 0)
(-1.45162 0 0)
(-1.44459 0 0)
(-1.43754 0 0)
(-1.43049 0 0)
(-1.42344 0 0)
(-1.41638 0 0)
(-1.40931 0 0)
(-1.40224 0 0)
(-1.39517 0 0)
(-1.38809 0 0)
(-1.381 0 0)
(-1.37391 0 0)
(-1.36682 0 0)
(-1.35972 0 0)
(-1.35262 0 0)
(-1.34552 0 0)
(-1.33841 0 0)
(-1.3313 0 0)
(-1.32418 0 0)
(-1.31706 0 0)
(-1.30994 0 0)
(-1.30281 0 0)
(-1.29568 0 0)
(-1.28855 0 0)
(-1.28141 0 0)
(-1.27427 0 0)
(-1.26713 0 0)
(-1.25998 0 0)
(-1.25284 0 0)
(-1.24569 0 0)
(-1.23853 0 0)
(-1.23138 0 0)
(-1.22422 0 0)
(-1.21706 0 0)
(-1.2099 0 0)
(-1.20274 0 0)
(-1.19557 0 0)
(-1.1884 0 0)
(-1.18123 0 0)
(-1.17406 0 0)
(-1.16689 0 0)
(-1.15971 0 0)
(-1.15254 0 0)
(-1.14536 0 0)
(-1.13818 0 0)
(-1.131 0 0)
(-1.12382 0 0)
(-1.11663 0 0)
(-1.10945 0 0)
(-1.10226 0 0)
(-1.09508 0 0)
(-1.08789 0 0)
(-1.0807 0 0)
(-1.07351 0 0)
(-1.06632 0 0)
(-1.05913 0 0)
(-1.05194 0 0)
(-1.04475 0 0)
(-1.03755 0 0)
(-1.03036 0 0)
(-1.02317 0 0)
(-1.01597 0 0)
(-1.00878 0 0)
(-1.00158 0 0)
(-0.994389 0 0)
(-0.987195 0 0)
(-0.98 0 0)
(-0.972806 0 0)
(-0.965611 0 0)
(-0.958417 0 0)
(-0.951223 0 0)
(-0.94403 0 0)
(-0.936836 0 0)
(-0.929643 0 0)
(-0.922451 0 0)
(-0.915259 0 0)
(-0.908068 0 0)
(-0.900878 0 0)
(-0.893688 0 0)
(-0.8865 0 0)
(-0.879312 0 0)
(-0.872125 0 0)
(-0.86494 0 0)
(-0.857755 0 0)
(-0.850572 0 0)
(-0.84339 0 0)
(-0.83621 0 0)
(-0.829031 0 0)
(-0.821853 0 0)
(-0.814678 0 0)
(-0.807504 0 0)
(-0.800332 0 0)
(-0.793161 0 0)
(-0.785993 0 0)
(-0.778827 0 0)
(-0.771664 0 0)
(-0.764502 0 0)
(-0.757343 0 0)
(-0.750187 0 0)
(-0.743033 0 0)
(-0.735882 0 0)
(-0.728734 0 0)
(-0.721589 0 0)
(-0.714447 0 0)
(-0.707309 0 0)
(-0.700174 0 0)
(-0.693042 0 0)
(-0.685915 0 0)
(-0.678791 0 0)
(-0.671672 0 0)
(-0.664556 0 0)
(-0.657446 0 0)
(-0.65034 0 0)
(-0.643239 0 0)
(-0.636143 0 0)
(-0.629053 0 0)
(-0.621968 0 0)
(-0.614889 0 0)
(-0.607817 0 0)
(-0.600751 0 0)
(-0.593693 0 0)
(-0.586642 0 0)
(-0.579598 0 0)
(-0.572564 0 0)
(-0.565537 0 0)
(-0.558521 0 0)
(-0.551514 0 0)
(-0.544518 0 0)
(-0.537533 0 0)
(-0.53056 0 0)
(-0.5236 0 0)
(-0.516654 0 0)
(-0.509722 0 0)
(-0.502806 0 0)
(-0.495907 0 0)
(-0.489025 0 0)
(-0.482162 0 0)
(-0.475319 0 0)
(-0.468498 0 0)
(-0.461699 0 0)
(-0.454925 0 0)
(-0.448175 0 0)
(-0.441453 0 0)
(-0.434759 0 0)
(-0.428095 0 0)
(-0.421461 0 0)
(-0.414861 0 0)
(-0.408293 0 0)
(-0.401761 0 0)
(-0.395265 0 0)
(-0.388806 0 0)
(-0.382386 0 0)
(-0.376005 0 0)
(-0.369665 0 0)
(-0.363366 0 0)
(-0.357112 0 0)
(-0.350902 0 0)
(-0.344741 0 0)
(-0.338629 0 0)
(-0.332572 0 0)
(-0.326572 0 0)
(-0.320636 0 0)
(-0.31477 0 0)
(-0.308979 0 0)
(-0.303273 0 0)
(-0.29766 0 0)
(-0.29215 0 0)
(-0.286751 0 0)
(-0.281473 0 0)
(-0.276324 0 0)
(-0.271301 0 0)
(-0.266412 0 0)
(-0.261667 0 0)
(-0.257055 0 0)
(-0.252561 0 0)
(-0.248174 0 0)
(-0.243876 0 0)
(-0.239647 0 0)
(-0.235467 0 0)
(-0.231314 0 0)
(-0.227173 0 0)
(-0.223031 0 0)
(-0.218883 0 0)
(-0.21473 0 0)
(-0.210581 0 0)
(-0.206447 0 0)
(-0.202344 0 0)
(-0.198288 0 0)
(-0.194292 0 0)
(-0.190361 0 0)
(-0.186497 0 0)
(-0.182695 0 0)
(-0.178943 0 0)
(-0.175227 0 0)
(-0.171531 0 0)
(-0.167841 0 0)
(-0.164146 0 0)
(-0.160442 0 0)
(-0.156728 0 0)
(-0.153007 0 0)
(-0.149287 0 0)
(-0.145576 0 0)
(-0.141883 0 0)
(-0.138216 0 0)
(-0.134581 0 0)
(-0.130983 0 0)
(-0.127423 0 0)
(-0.123904 0 0)
(-0.120425 0 0)
(-0.116987 0 0)
(-0.113588 0 0)
(-0.110227 0 0)
(-0.106904 0 0)
(-0.103616 0 0)
(-0.100364 0 0)
(-0.0971446 0 0)
(-0.0939579 0 0)
(-0.0908024 0 0)
(-0.087677 0 0)
(-0.0845803 0 0)
(-0.0815112 0 0)
(-0.0784683 0 0)
(-0.07545 0 0)
(-0.0724549 0 0)
(-0.0694814 0 0)
(-0.066528 0 0)
(-0.063593 0 0)
(-0.0606751 0 0)
(-0.0577727 0 0)
(-0.0548844 0 0)
(-0.052009 0 0)
(-0.0491451 0 0)
(-0.0462917 0 0)
(-0.0434476 0 0)
(-0.0406118 0 0)
(-0.0377833 0 0)
(-0.0349611 0 0)
(-0.0321445 0 0)
(-0.0293327 0 0)
(-0.0265252 0 0)
(-0.0237217 0 0)
(-0.020922 0 0)
(-0.0181259 0 0)
(-0.015333 0 0)
(-0.0125428 0 0)
(-0.00975479 0 0)
(-0.00696788 0 0)
(-0.00418276 0 0)
(-0.00140214 0 0)
(0.00140213 0 0)
(0.00418276 0 0)
(0.00696787 0 0)
(0.00975479 0 0)
(0.0125428 0 0)
(0.015333 0 0)
(0.0181259 0 0)
(0.020922 0 0)
(0.0237217 0 0)
(0.0265252 0 0)
(0.0293327 0 0)
(0.0321445 0 0)
(0.0349611 0 0)
(0.0377833 0 0)
(0.0406118 0 0)
(0.0434476 0 0)
(0.0462917 0 0)
(0.0491451 0 0)
(0.052009 0 0)
(0.0548844 0 0)
(0.0577727 0 0)
(0.0606751 0 0)
(0.063593 0 0)
(0.066528 0 0)
(0.0694814 0 0)
(0.0724549 0 0)
(0.07545 0 0)
(0.0784683 0 0)
(0.0815112 0 0)
(0.0845803 0 0)
(0.087677 0 0)
(0.0908024 0 0)
(0.0939579 0 0)
(0.0971446 0 0)
(0.100364 0 0)
(0.103616 0 0)
(0.106904 0 0)
(0.110227 0 0)
(0.113588 0 0)
(0.116987 0 0)
(0.120425 0 0)
(0.123904 0 0)
(0.127423 0 0)
(0.130982 0 0)
(0.134581 0 0)
(0.138216 0 0)
(0.141883 0 0)
(0.145576 0 0)
(0.149287 0 0)
(0.153007 0 0)
(0.156728 0 0)
(0.160442 0 0)
(0.164146 0 0)
(0.167841 0 0)
(0.171531 0 0)
(0.175227 0 0)
(0.178943 0 0)
(0.182695 0 0)
(0.186497 0 0)
(0.190361 0 0)
(0.194292 0 0)
(0.198288 0 0)
(0.202344 0 0)
(0.206447 0 0)
(0.210581 0 0)
(0.21473 0 0)
(0.218883 0 0)
(0.223031 0 0)
(0.227173 0 0)
(0.231314 0 0)
(0.235467 0 0)
(0.239647 0 0)
(0.243876 0 0)
(0.248174 0 0)
(0.252561 0 0)
(0.257055 0 0)
(0.261667 0 0)
(0.266412 0 0)
(0.271301 0 0)
(0.276324 0 0)
(0.281473 0 0)
(0.286751 0 0)
(0.29215 0 0)
(0.29766 0 0)
(0.303273 0 0)
(0.308979 0 0)
(0.31477 0 0)
(0.320636 0 0)
(0.326572 0 0)
(0.332572 0 0)
(0.338629 0 0)
(0.344741 0 0)
(0.350902 0 0)
(0.357112 0 0)
(0.363366 0 0)
(0.369665 0 0)
(0.376005 0 0)
(0.382386 0 0)
(0.388806 0 0)
(0.395265 0 0)
(0.401761 0 0)
(0.408293 0 0)
(0.414861 0 0)
(0.421461 0 0)
(0.428095 0 0)
(0.434759 0 0)
(0.441453 0 0)
(0.448175 0 0)
(0.454925 0 0)
(0.461699 0 0)
(0.468498 0 0)
(0.475319 0 0)
(0.482162 0 0)
(0.489025 0 0)
(0.495907 0 0)
(0.502806 0 0)
(0.509722 0 0)
(0.516654 0 0)
(0.5236 0 0)
(0.53056 0 0)
(0.537533 0 0)
(0.544518 0 0)
(0.551514 0 0)
(0.558521 0 0)
(0.565537 0 0)
(0.572564 0 0)
(0.579598 0 0)
(0.586642 0 0)
(0.593693 0 0)
(0.600751 0 0)
(0.607817 0 0)
(0.614889 0 0)
(0.621968 0 0)
(0.629053 0 0)
(0.636143 0 0)
(0.643239 0 0)
(0.65034 0 0)
(0.657446 0 0)
(0.664556 0 0)
(0.671672 0 0)
(0.678791 0 0)
(0.685915 0 0)
(0.693042 0 0)
(0.700174 0 0)
(0.707309 0 0)
(0.714447 0 0)
(0.721589 0 0)
(0.728734 0 0)
(0.735882 0 0)
(0.743033 0 0)
(0.750187 0 0)
(0.757343 0 0)
(0.764502 0 0)
(0.771664 0 0)
(0.778827 0 0)
(0.785993 0 0)
(0.793161 0 0)
(0.800332 0 0)
(0.807504 0 0)
(0.814678 0 0)
(0.821853 0 0)
(0.829031 0 0)
(0.83621 0 0)
(0.84339 0 0)
(0.850572 0 0)
(0.857755 0 0)
(0.86494 0 0)
(0.872125 0 0)
(0.879312 0 0)
(0.8865 0 0)
(0.893688 0 0)
(0.900878 0 0)
(0.908068 0 0)
(0.915259 0 0)
(0.922451 0 0)
(0.929643 0 0)
(0.936836 0 0)
(0.94403 0 0)
(0.951223 0 0)
(0.958417 0 0)
(0.965611 0 0)
(0.972806 0 0)
(0.98 0 0)
(0.987195 0 0)
(0.994389 0 0)
(1.00158 0 0)
(1.00878 0 0)
(1.01597 0 0)
(1.02317 0 0)
(1.03036 0 0)
(1.03755 0 0)
(1.04475 0 0)
(1.05194 0 0)
(1.05913 0 0)
(1.06632 0 0)
(1.07351 0 0)
(1.0807 0 0)
(1.08789 0 0)
(1.09508 0 0)
(1.10226 0 0)
(1.10945 0 0)
(1.11663 0 0)
(1.12382 0 0)
(1.131 0 0)
(1.13818 0 0)
(1.14536 0 0)
(1.15254 0 0)
(1.15971 0 0)
(1.16689 0 0)
(1.17406 0 0)
(1.18123 0 0)
(1.1884 0 0)
(1.19557 0 0)
(1.20274 0 0)
(1.2099 0 0)
(1.21706 0 0)
(1.22422 0 0)
(1.23138 0 0)
(1.23853 0 0)
(1.24569 0 0)
(1.25284 0 0)
(1.25998 0 0)
(1.26713 0 0)
(1.27427 0 0)
(1.28141 0 0)
(1.28855 0 0)
(1.29568 0 0)
(1.30281 0 0)
(1.30994 0 0)
(1.31706 0 0)
(1.32418 0 0)
(1.3313 0 0)
(1.33841 0 0)
(1.34552 0 0)
(1.35262 0 0)
(1.35972 0 0)
(1.36682 0 0)
(1.37391 0 0)
(1.381 0 0)
(1.38809 0 0)
(1.39517 0 0)
(1.40224 0 0)
(1.40931 0 0)
(1.41638 0 0)
(1.42344 0 0)
(1.43049 0 0)
(1.43754 0 0)
(1.44459 0 0)
(1.45162 0 0)
(1.45866 0 0)
(1.46568 0 0)
(1.4727 0 0)
(1.47971 0 0)
(1.48672 0 0)
(1.49372 0 0)
(1.50071 0 0)
(1.5077 0 0)
(1.51468 0 0)
(1.52165 0 0)
(1.52861 0 0)
(1.53557 0 0)
(1.54251 0 0)
(1.54945 0 0)
(1.55638 0 0)
(1.5633 0 0)
(1.57021 0 0)
(1.57711 0 0)
(1.584 0 0)
(1.59088 0 0)
(1.59775 0 0)
(1.6046 0 0)
(1.61145 0 0)
(1.61829 0 0)
(1.62511 0 0)
(1.63192 0 0)
(1.63871 0 0)
(1.6455 0 0)
(1.65227 0 0)
(1.65902 0 0)
(1.66576 0 0)
(1.67248 0 0)
(1.67919 0 0)
(1.68588 0 0)
(1.69255 0 0)
(1.69921 0 0)
(1.70584 0 0)
(1.71246 0 0)
(1.71906 0 0)
(1.72563 0 0)
(1.73218 0 0)
(1.73871 0 0)
(1.74521 0 0)
(1.75169 0 0)
(1.75814 0 0)
(1.76457 0 0)
(1.77096 0 0)
(1.77733 0 0)
(1.78366 0 0)
(1.78996 0 0)
(1.79623 0 0)
(1.80246 0 0)
(1.80865 0 0)
(1.8148 0 0)
(1.82091 0 0)
(1.82698 0 0)
(1.83299 0 0)
(1.83896 0 0)
(1.84488 0 0)
(1.85074 0 0)
(1.85655 0 0)
(1.8623 0 0)
(1.86798 0 0)
(1.8736 0 0)
(1.87915 0 0)
(1.88462 0 0)
(1.89002 0 0)
(1.89534 0 0)
(1.90057 0 0)
(1.90571 0 0)
(1.91075 0 0)
(1.9157 0 0)
(1.92054 0 0)
(1.92527 0 0)
(1.92989 0 0)
(1.93438 0 0)
(1.93875 0 0)
(1.94299 0 0)
(1.94709 0 0)
(1.95105 0 0)
(1.95487 0 0)
(1.95853 0 0)
(1.96203 0 0)
(1.96538 0 0)
(1.96855 0 0)
(1.97156 0 0)
(1.9744 0 0)
(1.97707 0 0)
(1.97956 0 0)
(1.98187 0 0)
(1.98402 0 0)
(1.98599 0 0)
(1.9878 0 0)
(1.98944 0 0)
(1.99092 0 0)
(1.99224 0 0)
(1.99342 0 0)
(1.99447 0 0)
(1.99538 0 0)
(1.99618 0 0)
(1.99686 0 0)
(1.99745 0 0)
(1.99794 0 0)
(1.99835 0 0)
(1.9987 0 0)
(1.99898 0 0)
(1.99921 0 0)
(1.99939 0 0)
(1.99954 0 0)
(1.99965 0 0)
(1.99974 0 0)
(1.99981 0 0)
(1.99986 0 0)
(1.9999 0 0)
(1.99993 0 0)
(1.99995 0 0)
(1.99997 0 0)
(1.99998 0 0)
(1.99998 0 0)
(1.99999 0 0)
(1.99999 0 0)
(2 0 0)
(2 0 0)
(2 0 0)
(2 0 0)
(2 0 0)
(2 0 0)
(2 0 0)
(2 0 0)
(2 0 0)
(2 0 0)
(2 0 0)
(2 0 0)
(2 0 0)
(2 0 0)
(2 0 0)
(2 0 0)
(2 0 0)
(2 0 0)
(2 0 0)
(2 0 0)
(2 0 0)
(2 0 0)
(2 0 0)
(2 0 0)
(2 0 0)
(2 0 0)
(2 0 0)
(2 0 0)
(2 0 0)
(2 0 0)
)
;

boundaryField
{
    sides
    {
        type            surfaceNormalFixedValue;
        refValue        uniform 2;
    }
    empty1
    {
        type            empty;
    }
    empty2
    {
        type            empty;
    }
}


// ************************************************************************* //
