/*--------------------------------*- C++ -*----------------------------------*\
| =========                 |                                                 |
| \\      /  F ield         | OpenFOAM: The Open Source CFD Toolbox           |
|  \\    /   O peration     | Version:  v1812                                 |
|   \\  /    A nd           | Web:      www.OpenFOAM.com                      |
|    \\/     M anipulation  |                                                 |
\*---------------------------------------------------------------------------*/
FoamFile
{
    version     2.0;
    format      ascii;
    class       surfaceScalarField;
    location    "0.1";
    object      phi;
}
// * * * * * * * * * * * * * * * * * * * * * * * * * * * * * * * * * * * * * //

dimensions      [1 0 -1 0 0 0 0];
oriented        oriented;


internalField   nonuniform List<scalar> 
128384
(
0.00262501
1.0842e-18
0.00262501
1.0842e-19
0.00262501
-4.33681e-19
0.00262501
4.87891e-19
0.00262501
1.0842e-19
0.00262501
-3.25261e-19
0.00262501
-1.84314e-18
0.00262501
8.67362e-19
0.00262501
2.1684e-19
0.00262501
-1.19262e-18
0.00262501
6.50521e-19
0.00262501
-1.0842e-19
0.00262501
8.13152e-19
0.00262501
8.13152e-19
0.00262501
1.95156e-18
0.00262501
1.89735e-18
0.00262501
1.51788e-18
0.00262501
2.05998e-18
0.00262501
-8.67362e-19
0.00262501
-1.02999e-18
0.00262501
-2.38524e-18
0.00262501
8.13152e-19
0.00262501
1.46367e-18
0.00262501
1.19262e-18
0.00262501
2.05998e-18
0.00262501
1.84314e-18
0.00262501
2.87314e-18
0.00262501
1.68051e-18
0.00262501
1.6263e-18
0.00262501
4.87891e-19
0.00262501
5.42101e-20
0.00262501
-1.57209e-18
0.00262501
-3.25261e-19
0.00262501
-9.75782e-19
0.00262501
-4.33681e-19
0.00262501
1.57209e-18
0.00262501
-5.96311e-19
0.00262501
-6.50521e-19
0.00262501
1.89735e-18
0.00262501
1.95156e-18
0.00262501
2.71051e-19
0.00262501
-8.67362e-19
0.00262501
-1.0842e-19
0.00262501
-3.79471e-19
0.00262501
6.50521e-19
0.00262501
9.21572e-19
0.00262501
-1.02999e-18
0.00262501
7.04731e-19
0.00262501
4.33681e-19
0.00262501
4.33681e-19
0.00262501
2.60209e-18
0.00262501
-5.42101e-19
0.00262501
5.42101e-20
0.00262501
-1.19262e-18
0.00262501
8.67362e-19
0.00262501
-1.13841e-18
0.00262501
-2.05998e-18
0.00262501
-2.60209e-18
0.00262501
-1.84314e-18
0.00262501
-1.19262e-18
0.00262501
-1.0842e-18
0.00262501
1.46367e-18
0.00262501
-3.25261e-19
0.00262501
-5.42101e-20
0.00262501
-1.46367e-18
0.00262501
-1.13841e-18
0.00262501
-2.71051e-19
0.00262501
-8.67362e-19
0.00262501
7.58942e-19
0.00262501
-1.73472e-18
0.00262501
-2.33103e-18
0.00262501
1.19262e-18
0.00262501
3.79471e-19
0.00262501
3.46945e-18
0.00262501
4.22839e-18
0.00262501
1.19262e-18
0.00262501
1.02999e-17
0.00262501
1.4615e-15
0.00262501
1.79141e-13
0.00262499
2.16263e-11
0.00262348
2.51513e-09
0.00251591
2.79456e-07
0.000642002
1.75295e-05
-0.000135015
1.40431e-05
-0.000407309
9.11391e-06
-0.000308433
7.14714e-06
-2.02084e-05
1.22981e-05
0.000176822
2.11481e-05
0.000188774
2.08598e-05
5.50625e-05
2.04976e-05
-9.69437e-05
2.27035e-05
-0.000134687
2.4697e-05
-5.16234e-05
2.58321e-05
6.07903e-05
3.12364e-05
7.42621e-05
3.38024e-05
3.35372e-05
0.00262501
8.13152e-19
0.00262501
-1.6263e-19
0.00262501
-2.71051e-19
0.00262501
7.58942e-19
0.00262501
9.75782e-19
0.00262501
1.6263e-19
0.00262501
5.42101e-19
0.00262501
2.71051e-19
0.00262501
1.40946e-18
0.00262501
1.68051e-18
0.00262501
-2.1684e-19
0.00262501
7.58942e-19
0.00262501
-5.42101e-19
0.00262501
0
0.00262501
-2.27682e-18
0.00262501
2.71051e-18
0.00262501
1.19262e-18
0.00262501
3.25261e-19
0.00262501
1.51788e-18
0.00262501
2.71051e-19
0.00262501
3.46945e-18
0.00262501
1.73472e-18
0.00262501
1.19262e-18
0.00262501
1.68051e-18
0.00262501
3.30682e-18
0.00262501
3.63208e-18
0.00262501
4.49944e-18
0.00262501
3.46945e-18
0.00262501
3.30682e-18
0.00262501
2.71051e-19
0.00262501
1.30104e-18
0.00262501
1.02999e-18
0.00262501
-2.11419e-18
0.00262501
-1.30104e-18
0.00262501
-2.54788e-18
0.00262501
-9.21572e-19
0.00262501
-6.50521e-19
0.00262501
3.79471e-19
0.00262501
-1.0842e-18
0.00262501
0
0.00262501
1.6263e-18
0.00262501
-9.21572e-19
0.00262501
1.0842e-18
0.00262501
1.13841e-18
0.00262501
1.84314e-18
0.00262501
2.76472e-18
0.00262501
1.0842e-18
0.00262501
1.02999e-18
0.00262501
1.24683e-18
0.00262501
8.67362e-19
0.00262501
-1.19262e-18
0.00262501
7.04731e-19
0.00262501
1.73472e-18
0.00262501
9.21572e-19
0.00262501
-1.6263e-19
0.00262501
-4.44523e-18
0.00262501
-4.17418e-18
0.00262501
-1.89735e-18
0.00262501
-2.11419e-18
0.00262501
-1.40946e-18
0.00262501
-2.71051e-19
0.00262501
-1.68051e-18
0.00262501
3.25261e-19
0.00262501
-2.11419e-18
0.00262501
-2.1684e-19
0.00262501
3.79471e-19
0.00262501
3.79471e-19
0.00262501
1.19262e-18
0.00262501
-2.33103e-18
0.00262501
-1.02999e-18
0.00262501
1.0842e-19
0.00262501
-2.54788e-18
0.00262501
2.33103e-18
0.00262501
-1.13841e-18
0.00262501
-1.6263e-19
0.00262501
-4.33681e-19
0.00262501
2.49366e-18
0.00262501
-3.14907e-16
0.00262501
-4.10773e-14
0.00262499
-4.15868e-12
0.00262349
-3.48347e-10
0.00251712
-1.36234e-08
0.000685728
2.53835e-06
-9.07485e-05
1.14813e-05
-0.000362642
2.07303e-05
-0.000269984
2.51459e-05
9.21547e-06
3.56796e-05
0.000207541
3.976e-05
0.000217489
4.65599e-05
8.01491e-05
5.37515e-05
-7.95295e-05
5.75844e-05
-0.000121621
5.93105e-05
-4.45031e-05
6.35469e-05
6.57069e-05
6.77963e-05
7.73279e-05
7.05491e-05
7.2702e-05
0.00262501
2.1684e-19
0.00262501
1.02999e-18
0.00262501
8.67362e-19
0.00262501
-1.6263e-18
0.00262501
-1.02999e-18
0.00262501
7.04731e-19
0.00262501
-5.96311e-19
0.00262501
4.87891e-19
0.00262501
0
0.00262501
-7.04731e-19
0.00262501
3.79471e-19
0.00262501
-3.25261e-19
0.00262501
1.73472e-18
0.00262501
1.30104e-18
0.00262501
7.58942e-19
0.00262501
3.79471e-19
0.00262501
1.0842e-19
0.00262501
3.79471e-19
0.00262501
5.42101e-20
0.00262501
1.13841e-18
0.00262501
-1.6263e-19
0.00262501
2.6563e-18
0.00262501
4.44523e-18
0.00262501
3.90313e-18
0.00262501
2.6563e-18
0.00262501
3.14419e-18
0.00262501
2.11419e-18
0.00262501
2.81893e-18
0.00262501
-4.87891e-19
0.00262501
3.79471e-19
0.00262501
-5.42101e-19
0.00262501
2.1684e-19
0.00262501
-4.33681e-19
0.00262501
-1.51788e-18
0.00262501
-3.41524e-18
0.00262501
-6.50521e-19
0.00262501
-1.0842e-19
0.00262501
1.6263e-18
0.00262501
1.40946e-18
0.00262501
1.6263e-18
0.00262501
1.30104e-18
0.00262501
2.98156e-18
0.00262501
4.33681e-19
0.00262501
1.89735e-18
0.00262501
5.96311e-19
0.00262501
-2.1684e-19
0.00262501
-1.02999e-18
0.00262501
4.87891e-19
0.00262501
-4.87891e-19
0.00262501
5.96311e-19
0.00262501
5.42101e-19
0.00262501
2.71051e-19
0.00262501
1.0842e-19
0.00262501
-3.25261e-19
0.00262501
-2.1684e-19
0.00262501
-1.02999e-18
0.00262501
-3.25261e-19
0.00262501
-1.40946e-18
0.00262501
-3.41524e-18
0.00262501
-2.05998e-18
0.00262501
-3.03577e-18
0.00262501
-3.7405e-18
0.00262501
-1.84314e-18
0.00262501
-1.46367e-18
0.00262501
1.0842e-19
0.00262501
2.71051e-19
0.00262501
-1.0842e-19
0.00262501
-3.25261e-19
0.00262501
-7.58942e-19
0.00262501
4.87891e-19
0.00262501
1.19262e-18
0.00262501
3.30682e-18
0.00262501
8.67362e-19
0.00262501
3.14419e-18
0.00262501
2.1684e-18
0.00262501
5.09575e-18
0.00262501
1.12215e-17
0.00262501
1.876e-15
0.00262501
2.15117e-13
0.00262499
2.41444e-11
0.00262349
2.5933e-09
0.00251681
2.82248e-07
0.000657171
2.1206e-05
-0.000128155
3.69779e-05
-0.000400541
3.86384e-05
-0.000299242
3.98843e-05
-8.35738e-06
5.25301e-05
0.000188021
6.81308e-05
0.00019768
7.80401e-05
6.37839e-05
8.55777e-05
-9.01369e-05
8.91121e-05
-0.000130596
9.34549e-05
-4.95018e-05
9.83787e-05
6.35294e-05
0.000104084
7.56985e-05
0.000109614
0.000112536
0.00262501
-1.35525e-18
0.00262501
1.0842e-19
0.00262501
-4.87891e-19
0.00262501
5.96311e-19
0.00262501
1.46367e-18
0.00262501
-1.73472e-18
0.00262501
2.60209e-18
0.00262501
-2.22261e-18
0.00262501
1.0842e-19
0.00262501
-2.71051e-19
0.00262501
1.19262e-18
0.00262501
1.30104e-18
0.00262501
1.6263e-18
0.00262501
6.50521e-19
0.00262501
1.40946e-18
0.00262501
-1.0842e-19
0.00262501
2.1684e-19
0.00262501
1.30104e-18
0.00262501
9.75782e-19
0.00262501
1.73472e-18
0.00262501
3.25261e-18
0.00262501
1.84314e-18
0.00262501
1.6263e-18
0.00262501
1.30104e-18
0.00262501
2.11419e-18
0.00262501
1.73472e-18
0.00262501
-5.42101e-20
0.00262501
7.04731e-19
0.00262501
2.27682e-18
0.00262501
1.84314e-18
0.00262501
-5.42101e-20
0.00262501
1.40946e-18
0.00262501
2.1684e-19
0.00262501
5.42101e-19
0.00262501
1.24683e-18
0.00262501
1.6263e-18
0.00262501
1.46367e-18
0.00262501
3.03577e-18
0.00262501
3.90313e-18
0.00262501
4.77049e-18
0.00262501
2.60209e-18
0.00262501
2.6563e-18
0.00262501
1.13841e-18
0.00262501
-5.42101e-19
0.00262501
-1.13841e-18
0.00262501
-7.58942e-19
0.00262501
8.13152e-19
0.00262501
1.02999e-18
0.00262501
-3.79471e-19
0.00262501
-1.0842e-18
0.00262501
-1.30104e-18
0.00262501
-1.57209e-18
0.00262501
-1.0842e-18
0.00262501
1.24683e-18
0.00262501
-4.33681e-19
0.00262501
-1.35525e-18
0.00262501
-3.30682e-18
0.00262501
-2.49366e-18
0.00262501
-1.78893e-18
0.00262501
-3.41524e-18
0.00262501
-2.27682e-18
0.00262501
-8.13152e-19
0.00262501
-7.58942e-19
0.00262501
-1.6263e-19
0.00262501
-8.13152e-19
0.00262501
-5.96311e-19
0.00262501
-2.71051e-19
0.00262501
-1.02999e-18
0.00262501
3.79471e-19
0.00262501
8.13152e-19
0.00262501
5.42101e-20
0.00262501
8.13152e-19
0.00262501
-4.33681e-19
0.00262501
9.75782e-19
0.00262501
1.40946e-18
0.00262501
4.01155e-18
0.00262501
2.84061e-17
0.00262501
2.60767e-15
0.00262501
2.33457e-13
0.00262499
2.09092e-11
0.00262351
1.53356e-09
0.00251866
1.47207e-07
0.000693216
2.58921e-05
-0.00010101
7.52551e-05
-0.000369874
6.1324e-05
-0.000267056
6.16496e-05
1.63623e-05
8.15132e-05
0.000210809
0.000100579
0.000219991
0.00011384
8.40116e-05
0.000124601
-7.51379e-05
0.000130422
-0.000116087
0.000134844
-3.8302e-05
0.000140809
6.89054e-05
0.000147846
7.84525e-05
0.000154263
0.000158628
0.00262501
1.57209e-18
0.00262501
2.1684e-19
0.00262501
-2.1684e-19
0.00262501
-1.02999e-18
0.00262501
-1.6263e-18
0.00262501
-5.42101e-19
0.00262501
2.71051e-19
0.00262501
1.84314e-18
0.00262501
1.84314e-18
0.00262501
1.95156e-18
0.00262501
6.50521e-19
0.00262501
-2.1684e-19
0.00262501
5.42101e-19
0.00262501
-3.25261e-19
0.00262501
-2.71051e-19
0.00262501
-4.33681e-19
0.00262501
1.02999e-18
0.00262501
1.78893e-18
0.00262501
9.21572e-19
0.00262501
1.0842e-18
0.00262501
5.42101e-19
0.00262501
3.25261e-19
0.00262501
1.6263e-19
0.00262501
1.19262e-18
0.00262501
1.02999e-18
0.00262501
8.67362e-19
0.00262501
1.57209e-18
0.00262501
5.42101e-19
0.00262501
2.71051e-18
0.00262501
4.01155e-18
0.00262501
2.00577e-18
0.00262501
7.04731e-19
0.00262501
3.90313e-18
0.00262501
3.08998e-18
0.00262501
3.41524e-18
0.00262501
2.43945e-18
0.00262501
3.52366e-18
0.00262501
2.92735e-18
0.00262501
2.54788e-18
0.00262501
2.92735e-18
0.00262501
1.57209e-18
0.00262501
1.30104e-18
0.00262501
1.73472e-18
0.00262501
-9.21572e-19
0.00262501
-9.75782e-19
0.00262501
-2.00577e-18
0.00262501
-4.33681e-18
0.00262501
-6.77626e-18
0.00262501
-1.46367e-18
0.00262501
-3.08998e-18
0.00262501
-2.1684e-18
0.00262501
-2.1684e-18
0.00262501
-2.98156e-18
0.00262501
-6.77626e-18
0.00262501
-2.81893e-18
0.00262501
-2.49366e-18
0.00262501
-4.2826e-18
0.00262501
-1.78893e-18
0.00262501
-2.54788e-18
0.00262501
-1.0842e-18
0.00262501
-1.89735e-18
0.00262501
-2.43945e-18
0.00262501
-3.25261e-19
0.00262501
-1.02999e-18
0.00262501
1.68051e-18
0.00262501
4.87891e-19
0.00262501
-1.6263e-18
0.00262501
1.84314e-18
0.00262501
1.0842e-18
0.00262501
8.67362e-19
0.00262501
1.46367e-18
0.00262501
2.1684e-19
0.00262501
-4.87891e-19
0.00262501
3.25261e-19
0.00262501
3.08998e-18
0.00262501
5.96311e-19
0.00262501
4.92228e-17
0.00262501
4.30423e-15
0.00262501
4.01466e-13
0.00262499
3.79991e-11
0.00262354
3.18667e-09
0.00252026
3.32219e-07
0.000701328
4.56575e-05
-0.000103201
0.000126173
-0.00037034
9.82511e-05
-0.00026063
8.41967e-05
2.53458e-05
0.000112973
0.000215045
0.000138858
0.000220686
0.000156069
8.42892e-05
0.000168194
-7.44455e-05
0.000174491
-0.000115241
0.000179316
-3.76261e-05
0.000185961
6.96635e-05
0.000193763
7.86924e-05
0.000202066
0.000206939
0.00262501
-4.33681e-19
0.00262501
-1.6263e-18
0.00262501
1.95156e-18
0.00262501
1.19262e-18
0.00262501
1.6263e-19
0.00262501
1.02999e-18
0.00262501
-3.25261e-19
0.00262501
1.68051e-18
0.00262501
5.42101e-19
0.00262501
3.79471e-19
0.00262501
-3.25261e-19
0.00262501
-2.49366e-18
0.00262501
-2.27682e-18
0.00262501
-8.13152e-19
0.00262501
5.42101e-20
0.00262501
7.58942e-19
0.00262501
-4.33681e-19
0.00262501
-4.33681e-19
0.00262501
1.0842e-19
0.00262501
-7.04731e-19
0.00262501
-1.78893e-18
0.00262501
-1.78893e-18
0.00262501
-5.42101e-19
0.00262501
5.42101e-19
0.00262501
-9.75782e-19
0.00262501
-1.0842e-18
0.00262501
-1.57209e-18
0.00262501
1.46367e-18
0.00262501
-3.25261e-19
0.00262501
1.46367e-18
0.00262501
1.84314e-18
0.00262501
3.30682e-18
0.00262501
2.11419e-18
0.00262501
2.54788e-18
0.00262501
4.60786e-18
0.00262501
5.31259e-18
0.00262501
2.60209e-18
0.00262501
1.73472e-18
0.00262501
-1.6263e-19
0.00262501
1.6263e-18
0.00262501
1.30104e-18
0.00262501
1.35525e-18
0.00262501
8.67362e-19
0.00262501
7.58942e-19
0.00262501
-1.02999e-18
0.00262501
-2.6563e-18
0.00262501
-7.58942e-19
0.00262501
-2.38524e-18
0.00262501
-2.38524e-18
0.00262501
-3.52366e-18
0.00262501
-7.58942e-19
0.00262501
-1.51788e-18
0.00262501
-2.60209e-18
0.00262501
-1.0842e-18
0.00262501
-2.43945e-18
0.00262501
-3.63208e-18
0.00262501
-2.38524e-18
0.00262501
-2.60209e-18
0.00262501
-3.03577e-18
0.00262501
-3.57787e-18
0.00262501
-1.78893e-18
0.00262501
-1.19262e-18
0.00262501
-7.58942e-19
0.00262501
1.89735e-18
0.00262501
6.50521e-19
0.00262501
4.33681e-19
0.00262501
9.75782e-19
0.00262501
-1.02999e-18
0.00262501
-1.6263e-19
0.00262501
4.87891e-19
0.00262501
2.33103e-18
0.00262501
4.87891e-19
0.00262501
5.96311e-19
0.00262501
3.79471e-19
0.00262501
1.0842e-18
0.00262501
3.08998e-18
0.00262501
6.12574e-17
0.00262501
5.91774e-15
0.00262501
5.29883e-13
0.00262499
4.81301e-11
0.00262359
3.76046e-09
0.00252338
3.83802e-07
0.000740668
6.13901e-05
-8.08043e-05
0.000191351
-0.000351417
0.000138726
-0.000235558
0.000116446
4.83828e-05
0.000150991
0.000232759
0.000182949
0.000233353
0.000205091
9.4186e-05
0.000217438
-6.52633e-05
0.000221859
-0.000106497
0.000226953
-3.02314e-05
0.000234198
7.4944e-05
0.000243561
8.12013e-05
0.000254057
0.000259648
0.00262501
-1.0842e-19
0.00262501
4.33681e-19
0.00262501
4.87891e-19
0.00262501
1.73472e-18
0.00262501
1.0842e-19
0.00262501
5.96311e-19
0.00262501
1.40946e-18
0.00262501
2.1684e-19
0.00262501
-2.1684e-19
0.00262501
5.42101e-19
0.00262501
2.1684e-19
0.00262501
1.6263e-19
0.00262501
-4.87891e-19
0.00262501
-2.1684e-19
0.00262501
-4.87891e-19
0.00262501
1.6263e-19
0.00262501
-1.19262e-18
0.00262501
-3.79471e-19
0.00262501
-2.1684e-18
0.00262501
-3.63208e-18
0.00262501
-1.6263e-18
0.00262501
-1.02999e-18
0.00262501
-1.19262e-18
0.00262501
-1.13841e-18
0.00262501
-1.30104e-18
0.00262501
1.6263e-18
0.00262501
2.1684e-19
0.00262501
-3.25261e-19
0.00262501
-1.89735e-18
0.00262501
5.42101e-20
0.00262501
1.73472e-18
0.00262501
2.60209e-18
0.00262501
4.39102e-18
0.00262501
5.47522e-18
0.00262501
2.92735e-18
0.00262501
3.63208e-18
0.00262501
3.25261e-18
0.00262501
1.30104e-18
0.00262501
1.46367e-18
0.00262501
4.33681e-19
0.00262501
2.33103e-18
0.00262501
4.33681e-19
0.00262501
8.67362e-19
0.00262501
3.25261e-19
0.00262501
5.42101e-19
0.00262501
1.6263e-19
0.00262501
-4.55365e-18
0.00262501
-1.35525e-18
0.00262501
-1.95156e-18
0.00262501
-4.87891e-19
0.00262501
-3.57787e-18
0.00262501
-3.95734e-18
0.00262501
-5.58364e-18
0.00262501
-3.46945e-18
0.00262501
-3.68629e-18
0.00262501
-2.05998e-18
0.00262501
-2.49366e-18
0.00262501
-4.77049e-18
0.00262501
-4.06576e-18
0.00262501
-2.71051e-18
0.00262501
-1.0842e-18
0.00262501
-1.02999e-18
0.00262501
-2.6563e-18
0.00262501
1.24683e-18
0.00262501
1.0842e-18
0.00262501
9.21572e-19
0.00262501
-7.58942e-19
0.00262501
-4.33681e-19
0.00262501
-5.42101e-19
0.00262501
1.24683e-18
0.00262501
-5.42101e-20
0.00262501
2.98156e-18
0.00262501
2.98156e-18
0.00262501
7.58942e-19
0.00262501
1.40946e-18
0.00262501
3.57787e-18
0.00262501
8.47846e-17
0.00262501
7.90844e-15
0.00262501
7.16304e-13
0.00262499
6.57522e-11
0.00262365
5.22983e-09
0.00252716
5.40052e-07
0.000775108
8.31998e-05
-7.64873e-05
0.000274226
-0.000339397
0.000186322
-0.000203222
0.00015245
8.20422e-05
0.000195334
0.000255132
0.000232661
0.000249527
0.000257556
0.000108374
0.00026934
-5.37176e-05
0.000272995
-9.60081e-05
0.000277675
-2.33422e-05
0.00028593
7.87889e-05
0.000296237
8.32248e-05
0.000308227
0.000314291
0.00262501
3.79471e-19
0.00262501
-2.71051e-19
0.00262501
1.19262e-18
0.00262501
1.24683e-18
0.00262501
2.60209e-18
0.00262501
-9.21572e-19
0.00262501
1.0842e-19
0.00262501
4.33681e-19
0.00262501
7.58942e-19
0.00262501
-3.25261e-19
0.00262501
-1.6263e-19
0.00262501
-5.42101e-20
0.00262501
-1.46367e-18
0.00262501
6.50521e-19
0.00262501
8.13152e-19
0.00262501
-3.79471e-19
0.00262501
1.6263e-19
0.00262501
2.71051e-19
0.00262501
9.21572e-19
0.00262501
1.0842e-19
0.00262501
0
0.00262501
1.84314e-18
0.00262501
1.57209e-18
0.00262501
3.79471e-19
0.00262501
8.67362e-19
0.00262501
-1.46367e-18
0.00262501
2.71051e-19
0.00262501
-1.19262e-18
0.00262501
1.68051e-18
0.00262501
-4.87891e-19
0.00262501
8.13152e-19
0.00262501
-3.79471e-19
0.00262501
-1.78893e-18
0.00262501
1.0842e-19
0.00262501
1.0842e-18
0.00262501
2.27682e-18
0.00262501
2.60209e-18
0.00262501
2.81893e-18
0.00262501
2.6563e-18
0.00262501
1.57209e-18
0.00262501
1.13841e-18
0.00262501
1.02999e-18
0.00262501
8.13152e-19
0.00262501
-5.42101e-19
0.00262501
-2.49366e-18
0.00262501
-2.76472e-18
0.00262501
-1.95156e-18
0.00262501
-2.43945e-18
0.00262501
-8.13152e-19
0.00262501
-1.95156e-18
0.00262501
-2.05998e-18
0.00262501
-2.54788e-18
0.00262501
-2.33103e-18
0.00262501
-1.84314e-18
0.00262501
-2.92735e-18
0.00262501
-2.1684e-18
0.00262501
-2.71051e-18
0.00262501
-2.1684e-18
0.00262501
-2.98156e-18
0.00262501
-8.67362e-19
0.00262501
-2.43945e-18
0.00262501
-1.51788e-18
0.00262501
-3.14419e-18
0.00262501
-4.60786e-18
0.00262501
-9.75782e-19
0.00262501
7.04731e-19
0.00262501
1.68051e-18
0.00262501
2.33103e-18
0.00262501
2.71051e-18
0.00262501
1.89735e-18
0.00262501
2.49366e-18
0.00262501
2.22261e-18
0.00262501
2.11419e-18
0.00262501
4.33681e-18
0.00262501
1.35525e-18
0.00262501
8.45678e-18
0.00262501
1.12107e-16
0.00262501
1.0182e-14
0.00262501
9.18582e-13
0.00262499
8.38072e-11
0.00262374
6.52521e-09
0.00253226
6.64473e-07
0.000821025
0.000104346
-5.64363e-05
0.000357238
-0.000305182
0.000238488
-0.000162583
0.000202137
0.000117724
0.000251179
0.000275143
0.000288071
0.000258942
0.000314588
0.000113769
0.000323744
-4.55348e-05
0.000324101
-8.76668e-05
0.000329024
-1.56874e-05
0.00033788
8.44451e-05
0.00035006
8.60038e-05
0.000364559
0.000371306
0.00262501
-4.33681e-19
0.00262501
2.00577e-18
0.00262501
1.6263e-19
0.00262501
1.6263e-19
0.00262501
-2.22261e-18
0.00262501
-2.00577e-18
0.00262501
-4.33681e-19
0.00262501
4.87891e-19
0.00262501
-9.75782e-19
0.00262501
4.33681e-19
0.00262501
3.25261e-19
0.00262501
6.50521e-19
0.00262501
3.25261e-19
0.00262501
-2.71051e-19
0.00262501
1.51788e-18
0.00262501
1.0842e-19
0.00262501
6.50521e-19
0.00262501
1.30104e-18
0.00262501
5.42101e-19
0.00262501
1.24683e-18
0.00262501
5.42101e-19
0.00262501
-2.71051e-19
0.00262501
1.6263e-18
0.00262501
5.42101e-19
0.00262501
1.0842e-18
0.00262501
7.04731e-19
0.00262501
-9.21572e-19
0.00262501
-5.42101e-19
0.00262501
1.0842e-19
0.00262501
-5.42101e-20
0.00262501
-2.49366e-18
0.00262501
-5.42101e-19
0.00262501
-9.75782e-19
0.00262501
1.68051e-18
0.00262501
1.40946e-18
0.00262501
7.04731e-19
0.00262501
-1.6263e-19
0.00262501
3.03577e-18
0.00262501
2.27682e-18
0.00262501
2.49366e-18
0.00262501
1.02999e-18
0.00262501
3.08998e-18
0.00262501
2.71051e-19
0.00262501
0
0.00262501
-8.13152e-19
0.00262501
-5.42101e-19
0.00262501
-2.00577e-18
0.00262501
-1.0842e-18
0.00262501
-1.89735e-18
0.00262501
-3.36103e-18
0.00262501
-2.98156e-18
0.00262501
-4.44523e-18
0.00262501
-1.6263e-18
0.00262501
-2.05998e-18
0.00262501
-1.30104e-18
0.00262501
-5.42101e-19
0.00262501
-2.60209e-18
0.00262501
-1.68051e-18
0.00262501
-2.54788e-18
0.00262501
-3.03577e-18
0.00262501
-2.71051e-18
0.00262501
-2.60209e-18
0.00262501
-2.43945e-18
0.00262501
-2.6563e-18
0.00262501
-9.75782e-19
0.00262501
-1.13841e-18
0.00262501
8.13152e-19
0.00262501
1.24683e-18
0.00262501
7.04731e-19
0.00262501
2.22261e-18
0.00262501
1.84314e-18
0.00262501
-1.0842e-19
0.00262501
7.58942e-19
0.00262501
2.71051e-19
0.00262501
1.13841e-18
0.00262501
6.77626e-18
0.00262501
1.2696e-16
0.00262501
1.20422e-14
0.00262501
1.08973e-12
0.002625
9.97214e-11
0.00262384
7.72817e-09
0.00253852
7.83804e-07
0.000872521
0.000123735
-3.90565e-05
0.00044187
-0.000252456
0.000297072
-0.000111332
0.000263729
0.000165208
0.000313581
0.000305067
0.000346318
0.000277901
0.000372793
0.000128439
0.000379327
-3.02436e-05
0.000377729
-7.33221e-05
0.000381899
-5.0243e-06
0.000391896
9.10556e-05
0.000405951
8.89788e-05
0.000422526
0.00042955
0.00262501
1.0842e-18
0.00262501
-1.35525e-18
0.00262501
-9.75782e-19
0.00262501
-2.81893e-18
0.00262501
-6.50521e-19
0.00262501
-5.42101e-19
0.00262501
-2.71051e-19
0.00262501
-3.79471e-19
0.00262501
1.30104e-18
0.00262501
2.22261e-18
0.00262501
2.22261e-18
0.00262501
1.13841e-18
0.00262501
7.58942e-19
0.00262501
-2.1684e-19
0.00262501
6.50521e-19
0.00262501
5.42101e-19
0.00262501
-1.6263e-19
0.00262501
5.96311e-19
0.00262501
8.67362e-19
0.00262501
3.79471e-19
0.00262501
5.96311e-19
0.00262501
2.38524e-18
0.00262501
1.35525e-18
0.00262501
9.75782e-19
0.00262501
2.71051e-19
0.00262501
-3.79471e-19
0.00262501
7.04731e-19
0.00262501
-1.0842e-19
0.00262501
1.6263e-19
0.00262501
4.33681e-19
0.00262501
-2.1684e-19
0.00262501
-5.42101e-20
0.00262501
5.42101e-19
0.00262501
-5.42101e-20
0.00262501
-9.75782e-19
0.00262501
1.0842e-18
0.00262501
2.6563e-18
0.00262501
8.67362e-19
0.00262501
-9.21572e-19
0.00262501
6.50521e-19
0.00262501
-6.50521e-19
0.00262501
-7.58942e-19
0.00262501
-2.71051e-19
0.00262501
-4.87891e-19
0.00262501
-1.6263e-19
0.00262501
-5.42101e-20
0.00262501
1.0842e-19
0.00262501
-1.19262e-18
0.00262501
-2.60209e-18
0.00262501
-2.54788e-18
0.00262501
-2.22261e-18
0.00262501
4.87891e-19
0.00262501
-7.58942e-19
0.00262501
-2.38524e-18
0.00262501
-3.79471e-19
0.00262501
-6.50521e-19
0.00262501
9.75782e-19
0.00262501
-7.04731e-19
0.00262501
-8.67362e-19
0.00262501
-3.41524e-18
0.00262501
-2.05998e-18
0.00262501
-2.22261e-18
0.00262501
-2.33103e-18
0.00262501
4.33681e-19
0.00262501
-1.30104e-18
0.00262501
-1.6263e-19
0.00262501
-2.71051e-19
0.00262501
8.13152e-19
0.00262501
2.1684e-18
0.00262501
0
0.00262501
5.42101e-20
0.00262501
1.02999e-18
0.00262501
9.21572e-19
0.00262501
0
0.00262501
0
0.00262501
-1.02999e-18
0.00262501
1.49078e-16
0.00262501
1.37451e-14
0.00262501
1.25721e-12
0.002625
1.15947e-10
0.00262397
9.14916e-09
0.00254601
9.39043e-07
0.000947838
0.000142654
2.37355e-05
0.00052714
-0.000192273
0.00037412
-5.98703e-05
0.000334649
0.000217808
0.000387935
0.000328635
0.000409854
0.000285718
0.000432813
0.000129779
0.000435044
-2.12187e-05
0.000430679
-6.35377e-05
0.000433683
3.52756e-06
0.000445569
9.76277e-05
0.000461785
9.19711e-05
0.000481368
0.000488333
0.00262501
-3.79471e-19
0.00262501
5.42101e-20
0.00262501
-4.87891e-19
0.00262501
1.0842e-19
0.00262501
9.21572e-19
0.00262501
-9.75782e-19
0.00262501
7.04731e-19
0.00262501
-1.30104e-18
0.00262501
1.95156e-18
0.00262501
1.51788e-18
0.00262501
2.87314e-18
0.00262501
1.30104e-18
0.00262501
1.95156e-18
0.00262501
1.13841e-18
0.00262501
1.51788e-18
0.00262501
1.95156e-18
0.00262501
-1.68051e-18
0.00262501
-1.84314e-18
0.00262501
-5.42101e-20
0.00262501
-2.1684e-19
0.00262501
5.42101e-20
0.00262501
-5.42101e-20
0.00262501
3.79471e-19
0.00262501
2.05998e-18
0.00262501
1.84314e-18
0.00262501
6.50521e-19
0.00262501
3.79471e-19
0.00262501
7.04731e-19
0.00262501
1.24683e-18
0.00262501
-5.42101e-20
0.00262501
-2.71051e-19
0.00262501
3.25261e-19
0.00262501
-3.25261e-19
0.00262501
-2.54788e-18
0.00262501
7.58942e-19
0.00262501
0
0.00262501
8.13152e-19
0.00262501
1.0842e-18
0.00262501
1.0842e-19
0.00262501
-1.35525e-18
0.00262501
-1.46367e-18
0.00262501
-1.19262e-18
0.00262501
-1.68051e-18
0.00262501
-1.30104e-18
0.00262501
0
0.00262501
-1.78893e-18
0.00262501
-3.41524e-18
0.00262501
-2.98156e-18
0.00262501
-1.68051e-18
0.00262501
-1.57209e-18
0.00262501
1.6263e-19
0.00262501
-1.78893e-18
0.00262501
-6.50521e-19
0.00262501
3.79471e-19
0.00262501
0
0.00262501
-5.42101e-20
0.00262501
1.02999e-18
0.00262501
3.79471e-19
0.00262501
2.38524e-18
0.00262501
1.13841e-18
0.00262501
-2.05998e-18
0.00262501
-6.50521e-19
0.00262501
1.6263e-19
0.00262501
-1.0842e-19
0.00262501
3.79471e-19
0.00262501
-4.33681e-19
0.00262501
4.33681e-19
0.00262501
3.25261e-19
0.00262501
1.6263e-19
0.00262501
5.42101e-19
0.00262501
1.51788e-18
0.00262501
3.57787e-18
0.00262501
1.89735e-18
0.00262501
2.05998e-18
0.00262501
-8.13152e-19
0.00262501
3.14419e-18
0.00262501
1.47018e-16
0.00262501
1.43934e-14
0.00262501
1.32231e-12
0.002625
1.22343e-10
0.00262411
9.70547e-09
0.00255516
1.00887e-06
0.0010466
0.00015255
0.000143733
0.00058295
-7.3018e-05
0.000444676
1.72985e-05
0.000442605
0.000269476
0.000481665
0.000354239
0.000477886
0.000293969
0.000494706
0.000131404
0.000489005
-8.96317e-06
0.000482513
-5.0318e-05
0.000484849
1.46762e-05
0.000499326
0.000105819
0.000517663
9.58073e-05
0.000540367
0.000548514
0.00262501
4.33681e-19
0.00262501
9.21572e-19
0.00262501
1.0842e-19
0.00262501
7.04731e-19
0.00262501
-5.42101e-20
0.00262501
3.36103e-18
0.00262501
9.75782e-19
0.00262501
9.75782e-19
0.00262501
-2.22261e-18
0.00262501
-2.38524e-18
0.00262501
-2.54788e-18
0.00262501
-3.79471e-19
0.00262501
7.58942e-19
0.00262501
1.24683e-18
0.00262501
1.0842e-18
0.00262501
-1.24683e-18
0.00262501
5.42101e-19
0.00262501
8.13152e-19
0.00262501
3.79471e-19
0.00262501
4.87891e-19
0.00262501
-1.24683e-18
0.00262501
3.79471e-19
0.00262501
1.6263e-19
0.00262501
1.0842e-19
0.00262501
1.40946e-18
0.00262501
7.04731e-19
0.00262501
1.6263e-19
0.00262501
-5.42101e-20
0.00262501
1.6263e-19
0.00262501
4.33681e-19
0.00262501
1.19262e-18
0.00262501
-1.0842e-18
0.00262501
5.96311e-19
0.00262501
4.33681e-19
0.00262501
1.0842e-19
0.00262501
2.05998e-18
0.00262501
-2.1684e-19
0.00262501
2.1684e-19
0.00262501
-7.58942e-19
0.00262501
-1.40946e-18
0.00262501
-2.27682e-18
0.00262501
-2.81893e-18
0.00262501
-1.6263e-18
0.00262501
-1.95156e-18
0.00262501
-2.00577e-18
0.00262501
-4.22839e-18
0.00262501
-4.55365e-18
0.00262501
-2.33103e-18
0.00262501
-2.11419e-18
0.00262501
-1.35525e-18
0.00262501
-2.43945e-18
0.00262501
-2.33103e-18
0.00262501
-4.87891e-19
0.00262501
-1.6263e-19
0.00262501
-1.24683e-18
0.00262501
1.57209e-18
0.00262501
-1.0842e-18
0.00262501
1.13841e-18
0.00262501
-3.52366e-18
0.00262501
-5.42101e-19
0.00262501
-1.13841e-18
0.00262501
-1.57209e-18
0.00262501
1.13841e-18
0.00262501
-1.13841e-18
0.00262501
-1.51788e-18
0.00262501
-9.21572e-19
0.00262501
2.71051e-19
0.00262501
5.42101e-19
0.00262501
7.04731e-19
0.00262501
1.57209e-18
0.00262501
1.0842e-18
0.00262501
-1.57209e-18
0.00262501
2.00577e-18
0.00262501
3.30682e-18
0.00262501
1.78893e-18
0.00262501
2.92735e-18
0.00262501
1.33682e-16
0.00262501
1.32178e-14
0.00262501
1.21931e-12
0.002625
1.13345e-10
0.00262427
9.3148e-09
0.00256603
9.88434e-07
0.00119133
0.000146818
0.000308378
0.000624318
8.96132e-05
0.00050256
0.000121553
0.00060642
0.000319153
0.000583988
0.000379553
0.000548565
0.000302618
0.000556714
0.000134174
0.000539605
6.24207e-06
0.000534315
-3.04955e-05
0.000535964
2.89761e-05
0.000554676
0.000115493
0.000574619
9.99662e-05
0.000599443
0.000610107
0.00262501
-6.50521e-19
0.00262501
-5.42101e-20
0.00262501
-3.25261e-19
0.00262501
5.42101e-20
0.00262501
2.00577e-18
0.00262501
-1.30104e-18
0.00262501
-2.71051e-19
0.00262501
-5.42101e-20
0.00262501
-6.50521e-19
0.00262501
-1.95156e-18
0.00262501
-5.42101e-20
0.00262501
5.42101e-20
0.00262501
3.25261e-19
0.00262501
8.13152e-19
0.00262501
8.67362e-19
0.00262501
2.87314e-18
0.00262501
2.81893e-18
0.00262501
1.0842e-19
0.00262501
-2.1684e-19
0.00262501
-2.43945e-18
0.00262501
7.58942e-19
0.00262501
-9.21572e-19
0.00262501
-5.42101e-19
0.00262501
3.79471e-19
0.00262501
-3.79471e-19
0.00262501
2.38524e-18
0.00262501
3.79471e-19
0.00262501
-7.04731e-19
0.00262501
5.42101e-19
0.00262501
1.0842e-18
0.00262501
1.24683e-18
0.00262501
8.13152e-19
0.00262501
1.46367e-18
0.00262501
1.30104e-18
0.00262501
-1.0842e-19
0.00262501
-6.50521e-19
0.00262501
-1.57209e-18
0.00262501
-1.78893e-18
0.00262501
-6.50521e-19
0.00262501
-7.58942e-19
0.00262501
-1.02999e-18
0.00262501
-2.22261e-18
0.00262501
-3.84892e-18
0.00262501
-1.89735e-18
0.00262501
-2.49366e-18
0.00262501
-3.79471e-19
0.00262501
-2.1684e-19
0.00262501
-1.46367e-18
0.00262501
-2.71051e-19
0.00262501
9.75782e-19
0.00262501
7.04731e-19
0.00262501
2.05998e-18
0.00262501
1.40946e-18
0.00262501
1.30104e-18
0.00262501
5.42101e-20
0.00262501
-1.57209e-18
0.00262501
-8.13152e-19
0.00262501
-1.51788e-18
0.00262501
9.75782e-19
0.00262501
-1.57209e-18
0.00262501
-2.92735e-18
0.00262501
-7.04731e-19
0.00262501
-3.1984e-18
0.00262501
-7.04731e-19
0.00262501
9.75782e-19
0.00262501
1.6263e-19
0.00262501
6.50521e-19
0.00262501
-6.50521e-19
0.00262501
1.95156e-18
0.00262501
9.21572e-19
0.00262501
1.73472e-18
0.00262501
2.98156e-18
0.00262501
9.75782e-19
0.00262501
2.1684e-19
0.00262501
-1.0842e-19
0.00262501
1.13841e-18
0.00262501
9.7795e-17
0.00262501
1.08255e-14
0.00262501
1.11681e-12
0.002625
1.04514e-10
0.00262444
8.62758e-09
0.00257773
9.00959e-07
0.00137276
0.000127356
0.000464012
0.000661325
0.000196578
0.000574373
0.000218951
0.000771465
0.000376231
0.000695688
0.000409076
0.000626609
0.00031063
0.00062363
0.000133383
0.000589855
1.44119e-05
0.000586394
-1.16452e-05
0.000587757
4.63538e-05
0.000610609
0.000126122
0.000632678
0.000103816
0.000659374
0.000670556
0.00262501
-2.71051e-19
0.00262501
-3.79471e-19
0.00262501
-1.6263e-19
0.00262501
-6.50521e-19
0.00262501
-1.6263e-18
0.00262501
-2.60209e-18
0.00262501
1.6263e-19
0.00262501