/*--------------------------------*- C++ -*----------------------------------*\
| =========                 |                                                 |
| \\      /  F ield         | OpenFOAM: The Open Source CFD Toolbox           |
|  \\    /   O peration     | Version:  v1812                                 |
|   \\  /    A nd           | Web:      www.OpenFOAM.com                      |
|    \\/     M anipulation  |                                                 |
\*---------------------------------------------------------------------------*/
FoamFile
{
    version     2.0;
    format      ascii;
    class       volVectorField;
    location    "0.1";
    object      U;
}
// * * * * * * * * * * * * * * * * * * * * * * * * * * * * * * * * * * * * * //

dimensions      [0 1 -1 0 0 0 0];


internalField   nonuniform List<vector> 
64512
(
(3 1.60916e-17 0)
(3 -2.08609e-16 0)
(3 -8.62023e-17 0)
(3 1.65958e-16 0)
(3 4.96195e-17 0)
(3 -3.69704e-16 0)
(3 -8.9568e-16 0)
(3 2.25531e-17 0)
(3 3.27046e-16 0)
(3 2.17362e-16 0)
(3 4.90993e-16 0)
(3 6.49632e-16 0)
(3 7.05117e-16 0)
(3 1.03199e-15 0)
(3 1.32741e-15 0)
(3 1.27965e-15 0)
(3 9.5966e-16 0)
(3 1.07929e-15 0)
(3 1.69276e-16 0)
(3 -1.0952e-15 0)
(3 -1.51798e-15 0)
(3 -9.55511e-16 0)
(3 -6.06317e-16 0)
(3 -3.78997e-16 0)
(3 -3.35758e-16 0)
(3 -1.74723e-16 0)
(3 -9.19847e-17 0)
(3 5.47719e-16 0)
(3 6.41597e-16 0)
(3 2.9265e-16 0)
(3 -1.87138e-16 0)
(3 -5.62065e-16 0)
(3 -3.44568e-16 0)
(3 -2.44196e-16 0)
(3 -9.11499e-18 0)
(3 3.32052e-16 0)
(3 1.44784e-16 0)
(3 -1.29572e-16 0)
(3 4.90548e-16 0)
(3 9.29406e-16 0)
(3 6.13094e-16 0)
(3 2.14312e-16 0)
(3 -1.17076e-16 0)
(3 -7.38301e-17 0)
(3 6.53456e-17 0)
(3 8.45281e-17 0)
(3 -1.21441e-16 0)
(3 -1.19718e-16 0)
(3 -3.64559e-16 0)
(3 -5.18099e-16 0)
(3 -3.6669e-16 0)
(3 -6.26763e-16 0)
(3 -6.24963e-16 0)
(3 -8.47119e-16 0)
(3 -4.4658e-16 0)
(3 -6.86771e-16 0)
(3 -6.93006e-16 0)
(3 -1.02692e-15 0)
(3 -1.04607e-15 0)
(3 -9.23337e-16 0)
(3 -8.20432e-16 0)
(3 -3.06137e-16 0)
(3 -7.81329e-16 0)
(3 -1.00186e-15 0)
(3 -1.32814e-15 0)
(3 -1.30147e-15 0)
(3 -6.42551e-16 0)
(3 -1.89979e-16 0)
(3 4.18322e-16 0)
(3 2.53459e-16 0)
(3 1.65403e-16 0)
(3 9.33207e-16 0)
(3 1.5917e-15 0)
(3 2.96312e-15 0)
(3 2.85819e-15 0)
(3 2.43458e-15 0)
(3 2.27178e-15 0)
(3 8.78753e-14 0)
(3 1.06032e-11 0)
(3 1.38864e-09 0)
(2.99983 1.45019e-07 0)
(2.98516 2.28956e-05 0)
(1.54561 0.00233642 0)
(0.40298 0.00471342 0)
(-0.131898 0.00183442 0)
(-0.0758088 0.00165797 0)
(-0.0474926 0.000930584 0)
(0.0431175 0.00119272 0)
(0.0459719 0.00103349 0)
(0.0305225 0.000870566 0)
(-0.0226177 0.000828783 0)
(-0.0368604 0.0005798 0)
(-0.0222712 0.000559906 0)
(0.00743102 0.00104685 0)
(0.025895 0.00156761 0)
(0.00994425 0.0016205 0)
(3 3.57657e-16 0)
(3 -2.86665e-16 0)
(3 -3.71606e-16 0)
(3 4.05427e-16 0)
(3 8.52356e-16 0)
(3 -7.19817e-17 0)
(3 -3.80267e-16 0)
(3 2.18548e-16 0)
(3 8.90549e-16 0)
(3 8.80105e-16 0)
(3 6.13526e-16 0)
(3 7.95524e-16 0)
(3 5.96919e-16 0)
(3 4.5408e-16 0)
(3 9.72302e-16 0)
(3 2.33203e-15 0)
(3 3.05155e-15 0)
(3 2.80606e-15 0)
(3 2.34371e-15 0)
(3 3.62979e-16 0)
(3 9.11986e-16 0)
(3 1.27777e-15 0)
(3 1.54898e-15 0)
(3 1.78447e-15 0)
(3 2.66235e-15 0)
(3 3.62943e-15 0)
(3 4.03165e-15 0)
(3 3.96871e-15 0)
(3 3.96244e-15 0)
(3 2.27149e-15 0)
(3 1.9294e-15 0)
(3 6.9573e-17 0)
(3 -2.84226e-16 0)
(3 -7.76497e-16 0)
(3 -8.00073e-16 0)
(3 1.86147e-16 0)
(3 2.74852e-18 0)
(3 -2.65113e-16 0)
(3 1.38953e-16 0)
(3 6.62256e-16 0)
(3 6.56246e-16 0)
(3 -5.40902e-16 0)
(3 -3.39652e-18 0)
(3 8.79074e-17 0)
(3 1.15865e-15 0)
(3 1.95599e-15 0)
(3 1.53127e-15 0)
(3 1.38525e-15 0)
(3 1.46461e-15 0)
(3 1.40473e-15 0)
(3 1.17104e-15 0)
(3 1.12893e-15 0)
(3 1.73831e-15 0)
(3 9.13258e-16 0)
(3 2.68883e-16 0)
(3 -2.03867e-15 0)
(3 -3.99707e-15 0)
(3 -3.66393e-15 0)
(3 -3.08631e-15 0)
(3 -2.39233e-15 0)
(3 -1.34224e-15 0)
(3 -3.86031e-16 0)
(3 -2.02075e-16 0)
(3 -6.73895e-16 0)
(3 -8.33812e-16 0)
(3 -6.37975e-16 0)
(3 -4.31733e-16 0)
(3 -4.60568e-16 0)
(3 -1.23903e-15 0)
(3 -2.46608e-15 0)
(3 -2.57321e-15 0)
(3 -2.01555e-15 0)
(3 -2.26184e-16 0)
(3 9.34306e-16 0)
(3 1.09988e-15 0)
(3 3.42995e-16 0)
(3 3.28472e-15 0)
(3 3.8854e-13 0)
(3 3.85564e-11 0)
(3 3.80908e-09 0)
(2.99983 3.29066e-07 0)
(2.98526 3.20796e-05 0)
(1.55573 0.00217953 0)
(0.416458 0.00322204 0)
(-0.1222 0.00257359 0)
(-0.0639416 0.00205951 0)
(-0.0388597 0.00359116 0)
(0.050381 0.0056343 0)
(0.0527702 0.00723347 0)
(0.0373565 0.00871775 0)
(-0.0175966 0.0106838 0)
(-0.0331612 0.0120294 0)
(-0.019633 0.0129337 0)
(0.00915987 0.0134375 0)
(0.0268509 0.0137029 0)
(0.0102324 0.013701 0)
(3 1.29944e-16 0)
(3 1.62349e-16 0)
(3 3.88746e-16 0)
(3 1.47245e-16 0)
(3 3.74958e-16 0)
(3 7.15912e-16 0)
(3 6.502e-16 0)
(3 9.44563e-16 0)
(3 9.93581e-16 0)
(3 1.11935e-15 0)
(3 2.33559e-16 0)
(3 6.76178e-16 0)
(3 7.73451e-16 0)
(3 4.34268e-16 0)
(3 5.19886e-17 0)
(3 6.66122e-16 0)
(3 6.46026e-16 0)
(3 4.10922e-16 0)
(3 5.0825e-16 0)
(3 1.01509e-15 0)
(3 1.5281e-15 0)
(3 2.7501e-15 0)
(3 3.26292e-15 0)
(3 3.67483e-15 0)
(3 3.65287e-15 0)
(3 4.19958e-15 0)
(3 4.50288e-15 0)
(3 4.28638e-15 0)
(3 2.26279e-15 0)
(3 7.50127e-16 0)
(3 4.27667e-16 0)
(3 -3.65625e-17 0)
(3 -1.28474e-15 0)
(3 -1.9117e-15 0)
(3 -3.08202e-15 0)
(3 -2.5313e-15 0)
(3 -1.85832e-15 0)
(3 -3.99592e-16 0)
(3 -3.57958e-16 0)
(3 -2.65812e-16 0)
(3 3.64549e-16 0)
(3 5.53048e-16 0)
(3 1.00235e-15 0)
(3 1.7013e-15 0)
(3 1.98741e-15 0)
(3 2.12775e-15 0)
(3 1.51612e-15 0)
(3 1.26783e-15 0)
(3 1.25557e-15 0)
(3 1.17065e-15 0)
(3 1.63283e-16 0)
(3 4.29769e-16 0)
(3 6.12946e-16 0)
(3 2.12161e-16 0)
(3 -6.14569e-16 0)
(3 -2.25012e-15 0)
(3 -3.1011e-15 0)
(3 -2.88972e-15 0)
(3 -3.17416e-15 0)
(3 -3.00382e-15 0)
(3 -2.4102e-15 0)
(3 -3.11215e-15 0)
(3 -2.12792e-15 0)
(3 -1.65371e-15 0)
(3 2.94597e-16 0)
(3 1.82116e-15 0)
(3 1.98719e-15 0)
(3 2.11146e-15 0)
(3 1.0928e-16 0)
(3 -4.29652e-16 0)
(3 5.26549e-16 0)
(3 1.02226e-15 0)
(3 2.91176e-15 0)
(3 2.23956e-15 0)
(3 1.14708e-15 0)
(3 6.74114e-16 0)
(3 6.79033e-15 0)
(3 5.48819e-13 0)
(3 4.92686e-11 0)
(3 4.34372e-09 0)
(2.99983 3.31219e-07 0)
(2.98527 2.86766e-05 0)
(1.55236 0.00170582 0)
(0.406892 0.00287546 0)
(-0.131067 0.00761195 0)
(-0.0739451 0.00942756 0)
(-0.0449981 0.0123357 0)
(0.0459835 0.0142847 0)
(0.0480474 0.0157695 0)
(0.0330527 0.0176707 0)
(-0.0209545 0.0187212 0)
(-0.0357105 0.0198046 0)
(-0.0217336 0.0209684 0)
(0.00831822 0.0214897 0)
(0.0265101 0.0212849 0)
(0.0100313 0.0212425 0)
(3 3.98868e-18 0)
(3 2.08655e-16 0)
(3 2.5768e-16 0)
(3 -1.35504e-16 0)
(3 8.86922e-17 0)
(3 -3.43423e-16 0)
(3 -3.3505e-17 0)
(3 -5.77198e-16 0)
(3 -2.48198e-16 0)
(3 -4.87768e-16 0)
(3 4.28442e-16 0)
(3 6.05791e-16 0)
(3 2.27594e-15 0)
(3 2.07691e-15 0)
(3 1.73966e-15 0)
(3 5.66293e-16 0)
(3 6.80039e-16 0)
(3 4.99084e-16 0)
(3 2.95217e-16 0)
(3 1.07031e-15 0)
(3 1.27655e-15 0)
(3 1.83613e-15 0)
(3 2.11079e-15 0)
(3 2.42041e-15 0)
(3 1.92532e-15 0)
(3 1.15853e-15 0)
(3 4.3001e-16 0)
(3 6.1187e-16 0)
(3 2.30606e-16 0)
(3 1.55971e-17 0)
(3 -3.08253e-17 0)
(3 4.1273e-16 0)
(3 5.05705e-16 0)
(3 1.53138e-16 0)
(3 2.38316e-17 0)
(3 6.59929e-16 0)
(3 1.50205e-15 0)
(3 3.24643e-15 0)
(3 3.33956e-15 0)
(3 3.16677e-15 0)
(3 2.67422e-15 0)
(3 2.86375e-15 0)
(3 1.37118e-15 0)
(3 5.06612e-16 0)
(3 -3.22001e-16 0)
(3 -2.36725e-16 0)
(3 2.17762e-16 0)
(3 5.65219e-16 0)
(3 2.77802e-16 0)
(3 2.77141e-16 0)
(3 1.61591e-16 0)
(3 4.95506e-16 0)
(3 7.53341e-16 0)
(3 1.28588e-15 0)
(3 1.25538e-15 0)
(3 1.77788e-15 0)
(3 1.28704e-15 0)
(3 -5.90111e-16 0)
(3 -1.35427e-15 0)
(3 -2.01495e-15 0)
(3 -3.20128e-15 0)
(3 -3.02458e-15 0)
(3 -2.27214e-15 0)
(3 -1.5664e-15 0)
(3 -1.82503e-15 0)
(3 -1.5254e-15 0)
(3 -1.08555e-15 0)
(3 -1.38982e-15 0)
(3 -1.01799e-15 0)
(3 3.32746e-16 0)
(3 4.349e-16 0)
(3 2.26484e-15 0)
(3 2.52298e-15 0)
(3 2.89391e-15 0)
(3 2.41407e-15 0)
(3 3.08567e-15 0)
(3 1.82153e-14 0)
(3 1.69458e-12 0)
(3 1.65668e-10 0)
(3 1.6527e-08 0)
(2.99983 1.40166e-06 0)
(2.98547 0.000156736 0)
(1.56699 0.0114988 0)
(0.418148 0.0169945 0)
(-0.124981 0.0134517 0)
(-0.0651415 0.0131773 0)
(-0.0376973 0.0172045 0)
(0.0514277 0.0205828 0)
(0.0537733 0.0231682 0)
(0.0381849 0.0254702 0)
(-0.016461 0.0276437 0)
(-0.031977 0.0296543 0)
(-0.0184002 0.0313821 0)
(0.0103126 0.0324459 0)
(0.0276342 0.0327435 0)
(0.0103148 0.032572 0)
(3 2.81143e-16 0)
(3 2.44589e-16 0)
(3 -4.14459e-16 0)
(3 -6.98171e-16 0)
(3 -5.99435e-16 0)
(3 -8.71552e-16 0)
(3 -7.10596e-17 0)
(3 -4.33007e-16 0)
(3 5.14165e-17 0)
(3 2.04993e-18 0)
(3 -5.26633e-17 0)
(3 -4.72005e-18 0)
(3 1.96989e-16 0)
(3 4.58266e-17 0)
(3 9.01544e-17 0)
(3 2.6846e-16 0)
(3 1.85503e-15 0)
(3 3.03146e-15 0)
(3 3.54997e-15 0)
(3 3.09715e-15 0)
(3 3.4091e-15 0)
(3 2.66119e-15 0)
(3 2.24497e-15 0)
(3 1.72643e-15 0)
(3 2.23005e-15 0)
(3 1.77094e-15 0)
(3 2.0068e-15 0)
(3 1.60357e-15 0)
(3 2.55547e-15 0)
(3 2.82219e-15 0)
(3 1.71128e-15 0)
(3 1.33934e-15 0)
(3 2.06723e-15 0)
(3 2.82319e-15 0)
(3 3.25554e-15 0)
(3 2.78458e-15 0)
(3 3.35933e-15 0)
(3 3.71633e-15 0)
(3 4.26754e-15 0)
(3 4.75838e-15 0)
(3 3.79291e-15 0)
(3 2.8352e-15 0)
(3 1.07431e-15 0)
(3 -1.06201e-15 0)
(3 -2.15108e-15 0)
(3 -2.43168e-15 0)
(3 -2.50617e-15 0)
(3 -2.81635e-15 0)
(3 -2.61834e-15 0)
(3 -2.69105e-15 0)
(3 -2.8174e-15 0)
(3 -2.51171e-15 0)
(3 -2.38418e-15 0)
(3 -2.5977e-15 0)
(3 -2.48696e-15 0)
(3 -2.72385e-15 0)
(3 -3.43679e-15 0)
(3 -3.51939e-15 0)
(3 -2.44428e-15 0)
(3 -2.195e-15 0)
(3 -1.6314e-15 0)
(3 -1.66443e-15 0)
(3 -3.9983e-16 0)
(3 -2.00496e-16 0)
(3 2.48351e-16 0)
(3 9.00276e-17 0)
(3 -3.16878e-16 0)
(3 6.53141e-16 0)
(3 6.80181e-16 0)
(3 6.29631e-16 0)
(3 3.65421e-17 0)
(3 -3.46387e-16 0)
(3 -1.07955e-15 0)
(3 -1.60775e-16 0)
(3 9.01017e-16 0)
(3 1.25047e-15 0)
(3 3.37072e-14 0)
(3 3.17144e-12 0)
(3 2.95313e-10 0)
(3 2.80152e-08 0)
(2.99984 2.25751e-06 0)
(2.98578 0.000229508 0)
(1.58265 0.0158773 0)
(0.42253 0.0230296 0)
(-0.12638 0.020611 0)
(-0.06432 0.0193805 0)
(-0.0355144 0.025347 0)
(0.052823 0.0299006 0)
(0.0542104 0.0330255 0)
(0.0386204 0.0363177 0)
(-0.0163561 0.0392828 0)
(-0.031879 0.0416759 0)
(-0.0184289 0.0436242 0)
(0.0105204 0.0444268 0)
(0.0279709 0.044139 0)
(0.0103572 0.0439417 0)
(3 3.61029e-17 0)
(3 -1.02788e-16 0)
(3 6.56695e-16 0)
(3 2.24628e-16 0)
(3 -3.39109e-16 0)
(3 9.73748e-16 0)
(3 6.20928e-16 0)
(3 2.38181e-15 0)
(3 2.02488e-15 0)
(3 1.52729e-15 0)
(3 4.86302e-16 0)
(3 -7.83103e-16 0)
(3 -1.33148e-15 0)
(3 -1.42721e-15 0)
(3 -1.43101e-15 0)
(3 -9.75534e-16 0)
(3 -7.69926e-16 0)
(3 -5.69313e-16 0)
(3 -2.11907e-17 0)
(3 4.14435e-16 0)
(3 7.87357e-17 0)
(3 -9.33864e-18 0)
(3 -4.23224e-16 0)
(3 -1.6158e-16 0)
(3 -2.59625e-16 0)
(3 -2.20888e-16 0)
(3 6.63043e-16 0)
(3 1.19812e-15 0)
(3 2.42079e-15 0)
(3 3.92246e-15 0)
(3 3.07643e-15 0)
(3 2.05727e-15 0)
(3 2.35077e-15 0)
(3 2.73569e-15 0)
(3 3.45149e-15 0)
(3 3.3133e-15 0)
(3 2.87363e-15 0)
(3 2.39556e-15 0)
(3 2.05264e-15 0)
(3 2.71016e-15 0)
(3 1.54163e-15 0)
(3 1.34626e-15 0)
(3 9.71131e-16 0)
(3 5.4822e-16 0)
(3 -5.56223e-16 0)
(3 -1.94684e-15 0)
(3 -3.18778e-15 0)
(3 -4.43979e-15 0)
(3 -4.02825e-15 0)
(3 -3.72892e-15 0)
(3 -2.3285e-15 0)
(3 -2.15942e-15 0)
(3 -2.61809e-15 0)
(3 -3.6248e-15 0)
(3 -3.80025e-15 0)
(3 -3.9468e-15 0)
(3 -4.16581e-15 0)
(3 -3.07291e-15 0)
(3 -2.31273e-15 0)
(3 -1.80697e-15 0)
(3 -1.67043e-15 0)
(3 -1.40377e-15 0)
(3 -7.21334e-16 0)
(3 7.66109e-17 0)
(3 5.26766e-16 0)
(3 1.42299e-15 0)
(3 1.6038e-15 0)
(3 1.87336e-15 0)
(3 1.99504e-15 0)
(3 2.08164e-15 0)
(3 2.06354e-15 0)
(3 1.31369e-15 0)
(3 8.04654e-16 0)
(3 1.31215e-15 0)
(3 2.34905e-15 0)
(3 3.22209e-15 0)
(3 5.54067e-14 0)
(3 5.04479e-12 0)
(3 4.64025e-10 0)
(3 4.34889e-08 0)
(2.99984 3.47447e-06 0)
(2.9863 0.000352411 0)
(1.61293 0.0255858 0)
(0.436613 0.0416341 0)
(-0.120993 0.0320202 0)
(-0.0583451 0.0272858 0)
(-0.0286555 0.0345351 0)
(0.0573559 0.040039 0)
(0.0579452 0.0441833 0)
(0.0415067 0.0476796 0)
(-0.0138724 0.0508047 0)
(-0.0295889 0.0535862 0)
(-0.0166145 0.0558748 0)
(0.0123351 0.0568703 0)
(0.0291453 0.0568854 0)
(0.0105206 0.0563829 0)
(3 -2.57916e-16 0)
(3 -3.00682e-16 0)
(3 1.10592e-16 0)
(3 6.44178e-16 0)
(3 2.56758e-16 0)
(3 7.79502e-16 0)
(3 5.14341e-16 0)
(3 4.44383e-16 0)
(3 2.83648e-16 0)
(3 -9.12649e-17 0)
(3 1.72669e-16 0)
(3 -5.75688e-16 0)
(3 -7.351e-16 0)
(3 -2.97621e-16 0)
(3 -1.32717e-16 0)
(3 3.97924e-16 0)
(3 -5.01751e-16 0)
(3 -1.10679e-15 0)
(3 -2.9105e-15 0)
(3 -3.22661e-15 0)
(3 -4.13092e-15 0)
(3 -3.61626e-15 0)
(3 -3.62983e-15 0)
(3 -2.48363e-15 0)
(3 -2.93006e-15 0)
(3 -2.54554e-15 0)
(3 -3.11807e-15 0)
(3 -1.84465e-15 0)
(3 -1.80471e-15 0)
(3 -1.39715e-16 0)
(3 1.00802e-15 0)
(3 3.34272e-15 0)
(3 3.66494e-15 0)
(3 4.54125e-15 0)
(3 4.55646e-15 0)
(3 4.92243e-15 0)
(3 3.62725e-15 0)
(3 1.89006e-15 0)
(3 1.14671e-15 0)
(3 1.01476e-15 0)
(3 1.62501e-15 0)
(3 1.31582e-15 0)
(3 1.8668e-15 0)
(3 2.3447e-15 0)
(3 1.70215e-15 0)
(3 1.07499e-15 0)
(3 -6.3481e-16 0)
(3 -8.15878e-16 0)
(3 -1.79854e-15 0)
(3 -1.956e-15 0)
(3 -1.72018e-15 0)
(3 -1.9155e-15 0)
(3 -3.51394e-15 0)
(3 -2.53546e-15 0)
(3 -2.18917e-15 0)
(3 -1.46257e-15 0)
(3 -1.12385e-15 0)
(3 -2.28456e-15 0)
(3 -2.74542e-15 0)
(3 -2.41748e-15 0)
(3 -1.52543e-15 0)
(3 -2.4461e-16 0)
(3 -3.46648e-16 0)
(3 1.90426e-15 0)
(3 1.38344e-15 0)
(3 4.35545e-16 0)
(3 -2.02229e-16 0)
(3 -1.76184e-15 0)
(3 -1.20397e-15 0)
(3 -1.65049e-16 0)
(3 5.76586e-16 0)
(3 9.15599e-16 0)
(3 8.93749e-16 0)
(3 2.69879e-16 0)
(3 3.27189e-16 0)
(3 1.65564e-15 0)
(3 7.51433e-14 0)
(3 7.15235e-12 0)
(3 6.5133e-10 0)
(3 6.03161e-08 0)
(2.99985 4.75654e-06 0)
(2.987 0.000474517 0)
(1.65243 0.0347229 0)
(0.450862 0.0581498 0)
(-0.120009 0.0430011 0)
(-0.0512043 0.0354667 0)
(-0.0189591 0.0449975 0)
(0.0632928 0.0519434 0)
(0.0625757 0.0570082 0)
(0.0455002 0.0607311 0)
(-0.0103984 0.0641767 0)
(-0.0268058 0.0674879 0)
(-0.0144148 0.0701146 0)
(0.0137188 0.0711023 0)
(0.0300499 0.0708107 0)
(0.0107334 0.0700453 0)
(3 2.36685e-17 0)
(3 -1.83899e-16 0)
(3 -8.53902e-17 0)
(3 4.70399e-16 0)
(3 4.97707e-16 0)
(3 3.34704e-16 0)
(3 6.13564e-16 0)
(3 6.08364e-16 0)
(3 5.35684e-16 0)
(3 5.28241e-16 0)
(3 2.19887e-16 0)
(3 2.70052e-16 0)
(3 -1.98722e-16 0)
(3 8.77916e-16 0)
(3 6.61244e-16 0)
(3 5.80783e-17 0)
(3 -3.41048e-17 0)
(3 -8.44839e-16 0)
(3 -1.09085e-15 0)
(3 -1.84784e-15 0)
(3 -1.27176e-15 0)
(3 -3.17524e-16 0)
(3 -1.7695e-16 0)
(3 -1.07033e-16 0)
(3 -1.77912e-16 0)
(3 -1.61375e-16 0)
(3 4.1353e-17 0)
(3 -8.55356e-17 0)
(3 2.25035e-16 0)
(3 5.73233e-17 0)
(3 1.79393e-15 0)
(3 1.898e-15 0)
(3 2.36878e-15 0)
(3 3.10956e-15 0)
(3 3.07728e-15 0)
(3 3.22311e-15 0)
(3 3.30853e-15 0)
(3 2.80076e-15 0)
(3 2.96335e-15 0)
(3 2.19786e-15 0)
(3 2.79602e-15 0)
(3 1.79145e-15 0)
(3 1.41882e-15 0)
(3 1.26998e-16 0)
(3 -1.01042e-15 0)
(3 -1.30158e-15 0)
(3 -2.25845e-15 0)
(3 -2.0858e-15 0)
(3 -1.80766e-15 0)
(3 -2.07934e-15 0)
(3 -3.2157e-15 0)
(3 -4.04398e-15 0)
(3 -4.7978e-15 0)
(3 -4.31992e-15 0)
(3 -3.69783e-15 0)
(3 -3.64596e-15 0)
(3 -3.82163e-15 0)
(3 -4.66482e-15 0)
(3 -4.41414e-15 0)
(3 -3.88235e-15 0)
(3 -3.71324e-15 0)
(3 -3.37007e-15 0)
(3 -3.90377e-15 0)
(3 -2.83986e-15 0)
(3 -4.46264e-16 0)
(3 1.16415e-15 0)
(3 1.16183e-15 0)
(3 1.0204e-15 0)
(3 1.09486e-15 0)
(3 1.39981e-15 0)
(3 1.68278e-15 0)
(3 2.43617e-15 0)
(3 2.95214e-15 0)
(3 3.17827e-15 0)
(3 2.99554e-15 0)
(3 3.31955e-15 0)
(3 1.02182e-13 0)
(3 9.43645e-12 0)
(3 8.57455e-10 0)
(3 7.93439e-08 0)
(2.99986 6.22375e-06 0)
(2.98795 0.000618943 0)
(1.70776 0.0465929 0)
(0.469471 0.0827197 0)
(-0.111137 0.0577913 0)
(-0.0404659 0.048123 0)
(-0.00753677 0.0586247 0)
(0.0690691 0.065743 0)
(0.0659736 0.0710877 0)
(0.0475819 0.0745852 0)
(-0.0085347 0.0779061 0)
(-0.0246698 0.0814598 0)
(-0.0124372 0.0843828 0)
(0.015618 0.0854158 0)
(0.0312551 0.0851434 0)
(0.0110065 0.0840801 0)
(3 1.30137e-16 0)
(3 5.19646e-16 0)
(3 6.36838e-16 0)
(3 4.94137e-16 0)
(3 7.41697e-17 0)
(3 -3.89286e-16 0)
(3 -4.40204e-17 0)
(3 5.92839e-16 0)
(3 3.20024e-16 0)
(3 -1.02917e-16 0)
(3 -5.41838e-16 0)
(3 -4.09735e-16 0)
(3 -4.71288e-16 0)
(3 4.06115e-16 0)
(3 7.44275e-16 0)
(3 1.30921e-16 0)
(3 4.80294e-16 0)
(3 6.58601e-16 0)
(3 1.85689e-15 0)
(3 2.13778e-15 0)
(3 2.17834e-15 0)
(3 1.47784e-15 0)
(3 1.4023e-15 0)
(3 8.35138e-16 0)
(3 7.64667e-16 0)
(3 1.99434e-16 0)
(3 4.26225e-16 0)
(3 3.11096e-16 0)
(3 5.49279e-16 0)
(3 -3.09036e-16 0)
(3 -5.01625e-16 0)
(3 -5.12961e-16 0)
(3 -5.68876e-16 0)
(3 1.60836e-16 0)
(3 9.81359e-16 0)
(3 1.33769e-15 0)
(3 1.72103e-15 0)
(3 2.63456e-15 0)
(3 2.58681e-15 0)
(3 1.96698e-15 0)
(3 9.78125e-16 0)
(3 8.89963e-16 0)
(3 1.65019e-17 0)
(3 -1.11604e-15 0)
(3 -2.97332e-15 0)
(3 -2.79426e-15 0)
(3 -2.75256e-15 0)
(3 -2.61948e-15 0)
(3 -2.40993e-15 0)
(3 -2.50985e-15 0)
(3 -2.06694e-15 0)
(3 -2.30271e-15 0)
(3 -1.34033e-15 0)
(3 -1.21668e-15 0)
(3 -1.39321e-15 0)
(3 -1.65711e-15 0)
(3 -2.35747e-15 0)
(3 -1.73311e-15 0)
(3 -1.17735e-15 0)
(3 -1.20593e-15 0)
(3 -1.75759e-15 0)
(3 -1.76128e-15 0)
(3 -2.47459e-15 0)
(3 -2.85597e-15 0)
(3 -1.83908e-15 0)
(3 -4.15159e-16 0)
(3 8.21025e-16 0)
(3 2.32862e-15 0)
(3 2.40473e-15 0)
(3 3.17057e-15 0)
(3 3.27499e-15 0)
(3 2.33135e-15 0)
(3 1.93479e-15 0)
(3 3.03827e-15 0)
(3 3.14415e-15 0)
(3 4.07787e-15 0)
(3 1.22931e-13 0)
(3 1.16099e-11 0)
(3 1.05813e-09 0)
(3 9.80646e-08 0)
(2.99988 7.64312e-06 0)
(2.98913 0.000763104 0)
(1.77942 0.0588378 0)
(0.492439 0.104045 0)
(-0.0978311 0.0737473 0)
(-0.0273372 0.0621543 0)
(0.00742318 0.0740029 0)
(0.0773163 0.0802176 0)
(0.0716968 0.0857931 0)
(0.0522153 0.0888267 0)
(-0.00442403 0.0921342 0)
(-0.0207665 0.0961308 0)
(-0.00913835 0.099456 0)
(0.0180013 0.100736 0)
(0.0325486 0.100444 0)
(0.0113179 0.0990699 0)
(3 1.68293e-16 0)
(3 1.87011e-16 0)
(3 1.00533e-16 0)
(3 -3.94536e-16 0)
(3 -1.5749e-17 0)
(3 -1.41874e-16 0)
(3 -2.65619e-16 0)
(3 -4.52988e-16 0)
(3 -3.20845e-16 0)
(3 9.69105e-16 0)
(3 1.05558e-15 0)
(3 9.65696e-16 0)
(3 3.74522e-16 0)
(3 -4.93331e-16 0)
(3 -4.44772e-17 0)
(3 -2.32729e-16 0)
(3 5.55024e-17 0)
(3 6.78584e-16 0)
(3 3.84632e-16 0)
(3 4.5032e-16 0)
(3 3.16016e-16 0)
(3 -2.12561e-16 0)
(3 4.58293e-16 0)
(3 3.99715e-16 0)
(3 5.16468e-16 0)
(3 4.32628e-16 0)
(3 2.75167e-16 0)
(3 4.8291e-16 0)
(3 -8.67104e-17 0)
(3 -4.07047e-16 0)
(3 -9.94291e-16 0)
(3 -1.04127e-15 0)
(3 -1.04484e-15 0)
(3 -4.27362e-16 0)
(3 -9.53237e-17 0)
(3 -2.55011e-17 0)
(3 1.12716e-15 0)
(3 2.03388e-15 0)
(3 2.24291e-15 0)
(3 2.16904e-15 0)
(3 1.15836e-15 0)
(3 1.32618e-15 0)
(3 1.07074e-15 0)
(3 1.06518e-15 0)
(3 1.0968e-15 0)
(3 1.34275e-15 0)
(3 8.20276e-16 0)
(3 2.24842e-16 0)
(3 -1.46033e-15 0)
(3 -2.35175e-15 0)
(3 -2.61927e-15 0)
(3 -2.59978e-15 0)
(3 -2.30816e-15 0)
(3 -2.99266e-15 0)
(3 -2.65782e-15 0)
(3 -2.11007e-15 0)
(3 -1.85905e-15 0)
(3 -1.65046e-15 0)
(3 -1.8688e-15 0)
(3 -3.6948e-15 0)
(3 -3.49701e-15 0)
(3 -3.29991e-15 0)
(3 -3.39302e-15 0)
(3 -3.084e-15 0)
(3 -2.6372e-15 0)
(3 -7.49262e-16 0)
(3 -7.94807e-16 0)
(3 9.26574e-16 0)
(3 1.39791e-15 0)
(3 1.60073e-15 0)
(3 1.48686e-15 0)
(3 1.08382e-15 0)
(3 7.75416e-16 0)
(3 -1.25289e-16 0)
(3 5.3998e-16 0)
(3 2.12718e-15 0)
(3 1.4018e-13 0)
(3 1.33519e-11 0)
(3 1.22871e-09 0)
(3 1.14237e-07 0)
(2.99989 8.9395e-06 0)
(2.99054 0.000903959 0)
(1.86786 0.0722568 0)
(0.514723 0.130376 0)
(-0.072644 0.0929266 0)
(-0.0153816 0.0812364 0)
(0.0249981 0.09238 0)
(0.0843845 0.0964254 0)
(0.0750068 0.101459 0)
(0.053941 0.103902 0)
(-0.00304522 0.107022 0)
(-0.0181977 0.111123 0)
(-0.00669413 0.114898 0)
(0.020205 0.116375 0)
(0.0337324 0.116123 0)
(0.011505 0.114308 0)
(3 5.23789e-17 0)
(3 -4.3108e-16 0)
(3 -1.12295e-15 0)
(3 -1.09241e-15 0)
(3 -2.37541e-17 0)
(3 -1.10653e-15 0)
(3 -6.96562e-16 0)
(3 -4.39141e-16 0)
(3 1.59672e-15 0)
(3 3.96232e-15 0)
(3 4.34759e-15 0)
(3 3.419e-15 0)
(3 2.17304e-15 0)
(3 1.03468e-15 0)
(3 5.70246e-16 0)
(3 5.96998e-16 0)
(3 -7.24759e-16 0)
(3 -1.08651e-15 0)
(3 -4.14401e-16 0)
(3 4.89895e-16 0)
(3 9.07916e-16 0)
(3 1.6208e-15 0)
(3 2.28291e-15 0)
(3 2.4103e-15 0)
(3 2.34625e-15 0)
(3 1.77693e-15 0)
(3 1.99693e-15 0)
(3 1.66135e-15 0)
(3 2.18372e-15 0)
(3 2.04331e-15 0)
(3 2.05041e-15 0)
(3 1.70165e-15 0)
(3 1.42632e-15 0)
(3 5.20506e-16 0)
(3 5.95353e-16 0)
(3 6.2919e-16 0)
(3 1.76607e-15 0)
(3 9.28903e-16 0)
(3 -4.48082e-17 0)
(3 -6.04566e-16 0)
(3 -9.30946e-16 0)
(3 -1.51097e-15 0)
(3 -1.91426e-15 0)
(3 -2.08534e-15 0)
(3 -1.3587e-15 0)
(3 -1.58836e-15 0)
(3 -1.99182e-15 0)
(3 -2.91311e-15 0)
(3 -3.1562e-15 0)
(3 -2.99305e-15 0)
(3 -2.50979e-15 0)
(3 -1.55522e-15 0)
(3 -8.62395e-16 0)
(3 -1.18782e-15 0)
(3 -3.80475e-16 0)
(3 5.21596e-17 0)
(3 1.60605e-15 0)
(3 9.9087e-16 0)
(3 3.33365e-16 0)
(3 -7.55613e-16 0)
(3 -1.5378e-15 0)
(3 -1.74451e-15 0)
(3 -1.64548e-15 0)
(3 -8.53032e-16 0)
(3 -7.41533e-16 0)
(3 -5.91919e-16 0)
(3 -3.09516e-16 0)
(3 -4.39934e-16 0)
(3 6.17105e-17 0)
(3 -2.13701e-16 0)
(3 1.63804e-16 0)
(3 1.11826e-15 0)
(3 1.20954e-15 0)
(3 9.96982e-16 0)
(3 -2.23712e-16 0)
(3 1.238e-15 0)
(3 1.4355e-13 0)
(3 1.41285e-11 0)
(3 1.31908e-09 0)
(3 1.24244e-07 0)
(2.99991 9.85896e-06 0)
(2.99216 0.00101179 0)
(1.98312 0.0850389 0)
(0.540471 0.155532 0)
(-0.0301757 0.112007 0)
(0.000578709 0.104361 0)
(0.0445794 0.114479 0)
(0.0925838 0.113708 0)
(0.0786101 0.117672 0)
(0.0557931 0.118837 0)
(-0.00121044 0.121871 0)
(-0.0146638 0.125976 0)
(-0.00338997 0.130462 0)
(0.0230686 0.132209 0)
(0.0352443 0.13223 0)
(0.0115936 0.130037 0)
(3 -5.63055e-19 0)
(3 1.646e-16 0)
(3 -2.30021e-17 0)
(3 3.5013e-16 0)
(3 2.56186e-16 0)
(3 7.95823e-16 0)
(3 1.00123e-15 0)
(3 9.33642e-16 0)
(3 7.09314e-16 0)
(3 8.10123e-17 0)
(3 -8.97637e-18 0)
(3 2.10142e-17 0)
(3 1.01892e-15 0)
(3 1.60768e-15 0)
(3 1.78107e-15 0)
(3 1.6953e-15 0)
(3 3.80667e-16 0)
(3 4.33366e-17 0)
(3 5.76426e-16 0)
(3 1.019e-15 0)
(3 2.18829e-16 0)
(3 3.56553e-16 0)
(3 2.81751e-16 0)
(3 3.85482e-16 0)
(3 5.58931e-16 0)
(3 4.03484e-17 0)
(3 -8.8167e-17 0)
(3 -2.68114e-16 0)
(3 2.03311e-16 0)
(3 3.2675e-17 0)
(3 -1.26561e-16 0)
(3 -7.02493e-16 0)
(3 -9.71496e-16 0)
(3 -1.29685e-15 0)
(3 -1.00851e-15 0)
(3 -1.08591e-16 0)
(3 1.58439e-16 0)
(3 1.62831e-16 0)
(3 -3.80111e-16 0)
(3 -1.15902e-15 0)
(3 -1.67827e-15 0)
(3 -1.81085e-15 0)
(3 -1.23236e-15 0)
(3 -1.2809e-15 0)
(3 -1.68153e-15 0)
(3 -2.5589e-15 0)
(3 -4.04263e-15 0)
(3 -3.5085e-15 0)
(3 -3.26732e-15 0)
(3 -2.88252e-15 0)
(3 -2.53446e-15 0)
(3 -2.01706e-15 0)
(3 -1.07407e-15 0)
(3 -1.60368e-16 0)
(3 -4.0728e-16 0)
(3 -8.61209e-17 0)
(3 -4.09063e-16 0)
(3 1.1843e-16 0)
(3 -1.82068e-16 0)
(3 -8.43425e-17 0)
(3 -6.42251e-16 0)
(3 -2.12592e-16 0)
(3 1.08024e-15 0)
(3 7.13632e-16 0)
(3 2.6106e-16 0)
(3 1.36801e-16 0)
(3 4.93191e-16 0)
(3 6.61155e-16 0)
(3 8.32876e-16 0)
(3 1.41693e-15 0)
(3 1.70607e-15 0)
(3 1.84244e-15 0)
(3 2.46314e-15 0)
(3 2.33812e-15 0)
(3 1.9305e-15 0)
(3 2.18411e-15 0)
(3 1.32037e-13 0)
(3 1.32052e-11 0)
(3 1.27075e-09 0)
(3 1.22054e-07 0)
(2.99993 9.92452e-06 0)
(2.99389 0.00104879 0)
(2.12586 0.0917379 0)
(0.583511 0.172597 0)
(0.013694 0.131062 0)
(0.0200006 0.141226 0)
(0.0652354 0.140333 0)
(0.101159 0.132349 0)
(0.0822714 0.134436 0)
(0.0579055 0.133348 0)
(0.00153461 0.1367 0)
(-0.0102046 0.140824 0)
(0.00109341 0.146356 0)
(0.0265345 0.148334 0)
(0.0372424 0.148549 0)
(0.0117042 0.146327 0)
(3 -1.24284e-16 0)
(3 5.09327e-16 0)
(3 7.75301e-16 0)
(3 8.91817e-16 0)
(3 1.49382e-15 0)
(3 2.32022e-15 0)
(3 1.27242e-15 0)
(3 3.74494e-16 0)
(3 -7.61099e-16 0)
(3 -2.30413e-15 0)
(3 -1.67219e-15 0)
(3 -7.99014e-16 0)
(3 3.60055e-16 0)
(3 1.66823e-15 0)
(3 1.49003e-15 0)
(3 1.23931e-15 0)
(3 1.83955e-15 0)
(3 1.62523e-15 0)
(3 3.91431e-16 0)
(3 -9.01061e-16 0)
(3 -7.27827e-16 0)
(3 -6.10607e-16 0)
(3 -2.6253e-16 0)
(3 1.39079e-16 0)
(3 3.85415e-16 0)
(3 1.20931e-15 0)
(3 9.39351e-16 0)
(3 6.36647e-16 0)
(3 3.68755e-16 0)
(3 1.30322e-15 0)
(3 1.86885e-15 0)
(3 1.39062e-15 0)
(3 1.36884e-15 0)
(3 1.50974e-15 0)
(3 9.64691e-16 0)
(3 5.0751e-16 0)
(3 -5.93186e-16 0)
(3 -3.86904e-16 0)
(3 -7.03864e-16 0)
(3 -8.80488e-16 0)
(3 -1.84517e-15 0)
(3 -2.51277e-15 0)
(3 -3.39797e-15 0)
(3 -3.26325e-15 0)
(3 -3.66003e-15 0)
(3 -3.58325e-15 0)
(3 -2.48341e-15 0)
(3 -2.09018e-15 0)
(3 -1.648e-15 0)
(3 -6.443e-16 0)
(3 -7.33716e-16 0)
(3 -2.30507e-16 0)
(3 2.97029e-16 0)
(3 1.32399e-15 0)
(3 9.16055e-16 0)
(3 4.41941e-17 0)
(3 -7.92579e-16 0)
(3 -8.2503e-16 0)
(3 -1.41558e-15 0)
(3 -1.55128e-15 0)
(3 -2.46508e-15 0)
(3 -2.12871e-15 0)
(3 -1.62681e-15 0)
(3 -1.42463e-15 0)
(3 -9.00573e-16 0)
(3 -1.27174e-15 0)
(3 -4.69862e-16 0)
(3 -1.49006e-16 0)
(3 5.4715e-16 0)
(3 9.89309e-16 0)
(3 1.15668e-15 0)
(3 9.25976e-16 0)
(3 1.00002e-15 0)
(3 8.21017e-16 0)
(3 1.01105e-15 0)
(3 2.65552e-15 0)
(3 1.03983e-13 0)
(3 1.06708e-11 0)
(3 1.07445e-09 0)
(3 1.07351e-07 0)
(2.99995 9.10346e-06 0)
(2.99558 0.00100235 0)
(2.28583 0.0926118 0)
(0.645082 0.189883 0)
(0.0574942 0.14782 0)
(0.0448914 0.184731 0)
(0.0849844 0.168982 0)
(0.111386 0.152353 0)
(0.0864086 0.152051 0)
(0.0589864 0.147675 0)
(0.00372303 0.151842 0)
(-0.00549846 0.156025 0)
(0.00536666 0.162771 0)
(0.0302843 0.164903 0)
(0.0395374 0.165156 0)
(0.0120994 0.163005 0)
(3 -2.9116e-16 0)
(3 -2.95742e-16 0)
(3 -6.45687e-16 0)
(3 -9.48363e-16 0)
(3 -9.28521e-16 0)
(3 -1.83644e-15 0)
(3 -2.01052e-15 0)
(3 -2.618e-15 0)
(3 -2.87066e-15 0)
(3 -2.42128e-15 0)
(3 -1.83881e-15 0)
(3 -2.44885e-17 0)
(3 4.55546e-16 0)
(3 3.95269e-16 0)
(3 7.14722e-16 0)
(3 9.04452e-16 0)
(3 3.88512e-16 0)
(3 -7.36693e-16 0)
(3 -9.83714e-16 0)
(3 -1.19748e-15 0)
(3 -5.97652e-16 0)
(3 -9.00833e-16 0)
(3 -8.72312e-16 0)
(3 -3.75311e-16 0)
(3 4.37579e-16 0)
(3 2.06657e-15 0)
(3 2.5155e-15 0)
(3 1.48324e-15 0)
(3 1.11682e-15 0)
(3 1.00858e-15 0)
(3 8.41856e-16 0)
(3 1.3828e-15 0)
(3 1.28083e-15 0)
(3 1.30475e-15 0)
(3 1.10728e-15 0)
(3 -6.63044e-17 0)
(3 -7.86816e-16 0)
(3 -9.51427e-16 0)
(3 -6.658e-17 0)
(3 -9.35735e-16 0)
(3 -1.46579e-15 0)
(3 -2.18362e-15 0)
(3 -3.92119e-15 0)
(3 -3.50924e-15 0)
(3 -3.18086e-15 0)
(3 -1.89719e-15 0)
(3 -6.95846e-16 0)
(3 -2.52971e-16 0)
(3 8.6931e-16 0)
(3 1.54532e-15 0)
(3 2.20774e-15 0)
(3 2.09587e-15 0)
(3 1.79678e-15 0)
(3 5.92237e-16 0)
(3 -1.20272e-15 0)
(3 -1.97334e-15 0)
(3 -1.34938e-15 0)
(3 -2.08834e-15 0)
(3 -1.09416e-15 0)
(3 -9.09919e-16 0)
(3 -1.53311e-15 0)
(3 -1.91692e-15 0)
(3 -1.39914e-15 0)
(3 -1.04465e-15 0)
(3 3.17635e-16 0)
(3 1.07094e-15 0)
(3 2.37183e-15 0)
(3 2.231e-15 0)
(3 3.19743e-15 0)
(3 2.46236e-15 0)
(3 2.44546e-15 0)
(3 2.29413e-15 0)
(3 1.66207e-15 0)
(3 -1.06191e-16 0)
(3 -1.1221e-15 0)
(3 -1.22862e-15 0)
(3 6.62548e-14 0)
(3 7.27913e-12 0)
(3 7.71404e-10 0)
(3 8.17076e-08 0)
(2.99997 7.4302e-06 0)
(2.99713 0.000868316 0)
(2.4638 0.0852761 0)
(0.735035 0.206592 0)
(0.100424 0.170341 0)
(0.0694583 0.225248 0)
(0.105042 0.19955 0)
(0.123411 0.175125 0)
(0.0912108 0.171858 0)
(0.0592911 0.162913 0)
(0.00567477 0.16733 0)
(-0.000409073 0.171665 0)
(0.0104281 0.179462 0)
(0.0345548 0.18196 0)
(0.0417856 0.182234 0)
(0.012562 0.179428 0)
(3 1.18229e-16 0)
(3 -1.00297e-16 0)
(3 2.68219e-16 0)
(3 -2.75902e-16 0)
(3 -1.27274e-15 0)
(3 -1.54661e-15 0)
(3 -8.87695e-16 0)
(3 -5.8802e-16 0)
(3 -1.65874e-15 0)
(3 -8.91406e-16 0)
(3 -3.75448e-16 0)
(3 3.9743e-17 0)
(3 4.33949e-16 0)
(3 8.93409e-16 0)
(3 7.51941e-16 0)
(3 5.17289e-16 0)
(3 -2.31679e-16 0)
(3 3.54412e-16 0)
(3 2.03301e-16 0)
(3 1.44964e-16 0)
(3 -3.92076e-16 0)
(3 -2.24132e-16 0)
(3 6.14887e-16 0)
(3 1.19045e-15 0)
(3 2.54847e-15 0)
(3 3.00357e-15 0)
(3 4.42609e-15 0)
(3 4.53056e-15 0)
(3 3.86808e-15 0)
(3 1.92976e-15 0)
(3 -1.05854e-16 0)
(3 -4.15105e-16 0)
(3 -1.11756e-15 0)
(3 -8.28151e-16 0)
(3 -9.15602e-17 0)
(3 5.83313e-16 0)
(3 7.11952e-16 0)
(3 1.32244e-15 0)
(3 1.33162e-15 0)
(3 9.3923e-16 0)
(3 -2.86986e-16 0)
(3 -1.0308e-15 0)
(3 -1.83638e-15 0)
(3 -1.96428e-15 0)
(3 -1.29121e-15 0)
(3 -9.76818e-16 0)
(3 -7.75276e-16 0)
(3 -7.24337e-16 0)
(3 -1.57124e-16 0)
(3 -6.26395e-16 0)
(3 -5.60744e-16 0)
(3 -6.93268e-16 0)
(3 -2.0426e-15 0)
(3 -3.76202e-15 0)
(3 -3.70908e-15 0)
(3 -3.28617e-15 0)
(3 -2.77283e-15 0)
(3 -2.98354e-15 0)
(3 -2.97793e-15 0)
(3 -2.82708e-15 0)
(3 -8.08665e-16 0)
(3 -1.47879e-15 0)
(3 -5.88378e-16 0)
(3 -1.05798e-15 0)
(3 -8.04874e-16 0)
(3 1.71012e-15 0)
(3 3.18577e-15 0)
(3 4.4029e-15 0)
(3 3.90339e-15 0)
(3 2.87462e-15 0)
(3 1.2403e-15 0)
(3 4.28978e-16 0)
(3 5.41155e-16 0)
(3 1.84086e-16 0)
(3 -9.62232e-16 0)
(3 -1.21886e-15 0)
(3 4.19196e-14 0)
(3 4.27637e-12 0)
(3 4.48191e-10 0)
(3 4.94883e-08 0)
(2.99998 5.04181e-06 0)
(2.99837 0.000637505 0)
(2.64381 0.0692327 0)
(0.85376 0.223382 0)
(0.141827 0.201191 0)
(0.0930612 0.262379 0)
(0.126339 0.230237 0)
(0.137753 0.199853 0)
(0.0984779 0.193605 0)
(0.0607531 0.179289 0)
(0.0105773 0.181945 0)
(0.00650524 0.187423 0)
(0.0179595 0.196209 0)
(0.0401867 0.1995 0)
(0.0444296 0.199837 0)
(0.0131281 0.195987 0)
(3 -1.11937e-16 0)
(3 2.60562e-16 0)
(3 1.11636e-16 0)
(3 -4.41299e-17 0)
(3 3.77869e-17 0)
(3 1.9856e-16 0)
(3 -2.41642e-16 0)
(3 3.22877e-17 0)
(3 5.2512e-16 0)
(3 4.45359e-16 0)
(3 7.23829e-17 0)
(3 -1.22109e-15 0)
(3 -1.18802e-15 0)
(3 -5.41848e-16 0)
(3 -3.24702e-16 0)
(3 1.60952e-17 0)
(3 9.27298e-16 0)
(3 8.68289e-16 0)
(3 -5.4464e-16 0)
(3 -1.27538e-15 0)
(3 -2.43021e-15 0)
(3 -2.37166e-15 0)
(3 -1.32352e-15 0)
(3 -1.66162e-15 0)
(3 -1.81545e-15 0)
(3 -1.50608e-15 0)
(3 -1.56065e-15 0)
(3 1.89195e-16 0)
(3 8.87003e-16 0)
(3 1.11619e-15 0)
(3 8.04183e-16 0)
(3 5.0706e-16 0)
(3 5.97255e-17 0)
(3 -3.69829e-16 0)
(3 1.46625e-16 0)
(3 6.10504e-16 0)
(3 3.84789e-16 0)
(3 -7.86421e-16 0)
(3 -1.56913e-15 0)
(3 -1.19097e-15 0)
(3 -7.79062e-16 0)
(3 1.25919e-16 0)
(3 -3.39769e-16 0)
(3 -5.09847e-16 0)
(3 -5.6269e-16 0)
(3 -9.26593e-16 0)
(3 -1.01527e-15 0)
(3 -9.22848e-16 0)
(3 -5.51466e-16 0)
(3 -1.64048e-15 0)
(3 -2.03572e-15 0)
(3 -1.98024e-15 0)
(3 -2.34697e-15 0)
(3 -2.62943e-15 0)
(3 -1.35619e-15 0)
(3 -7.63305e-16 0)
(3 -6.23161e-16 0)
(3 4.15429e-16 0)
(3 4.92471e-16 0)
(3 1.16222e-15 0)
(3 2.08691e-15 0)
(3 2.47616e-15 0)
(3 1.39283e-15 0)
(3 3.33243e-16 0)
(3 -4.77116e-16 0)
(3 -8.96737e-16 0)
(3 -6.81669e-16 0)
(3 -3.4408e-16 0)
(3 -2.4914e-16 0)
(3 -8.31448e-16 0)
(3 -1.08003e-15 0)
(3 -3.46555e-16 0)
(3 -4.51261e-16 0)
(3 2.13354e-16 0)
(3 8.91112e-16 0)
(3 1.93802e-15 0)
(3 3.2581e-14 0)
(3 2.60471e-12 0)
(3 2.33305e-10 0)