/*--------------------------------*- C++ -*----------------------------------*\
| =========                 |                                                 |
| \\      /  F ield         | OpenFOAM: The Open Source CFD Toolbox           |
|  \\    /   O peration     | Version:  v1812                                 |
|   \\  /    A nd           | Web:      www.OpenFOAM.com                      |
|    \\/     M anipulation  |                                                 |
\*---------------------------------------------------------------------------*/
FoamFile
{
    version     2.0;
    format      ascii;
    class       volVectorField;
    location    "0.005";
    object      U;
}
// * * * * * * * * * * * * * * * * * * * * * * * * * * * * * * * * * * * * * //

dimensions      [0 1 -1 0 0 0 0];


internalField   nonuniform List<vector> 
8475
(
(851.84 1.99256e-13 0)
(851.84 -1.52597e-13 0)
(851.84 -1.84342e-13 0)
(851.84 -3.40969e-13 0)
(851.84 -3.62764e-13 0)
(851.84 -2.8559e-13 0)
(851.84 -1.53408e-13 0)
(851.84 -1.4248e-13 0)
(851.84 -1.71029e-13 0)
(851.84 -4.31069e-13 0)
(851.84 -5.08653e-13 0)
(851.84 -5.69208e-13 0)
(851.84 -5.64477e-13 0)
(851.84 -5.94815e-13 0)
(851.84 -5.24333e-13 0)
(851.84 -3.21958e-13 0)
(851.84 -2.46642e-13 0)
(851.84 -9.58716e-14 0)
(851.84 9.31393e-14 0)
(851.84 5.04013e-13 0)
(851.84 6.39188e-13 0)
(851.84 8.3282e-13 0)
(851.84 8.69674e-13 0)
(851.84 8.6798e-13 0)
(851.84 9.23193e-13 0)
(851.84 1.18663e-12 0)
(851.84 1.44345e-12 0)
(851.84 1.31989e-12 0)
(851.84 1.24287e-12 0)
(851.84 1.04798e-12 0)
(851.84 1.04179e-12 0)
(851.84 -1.33494e-12 0)
(851.84 2.06187e-10 0)
(851.84 -1.10814e-08 0)
(851.84 1.03604e-06 0)
(851.84 -5.80422e-05 0)
(851.833 0.00563492 0)
(851.417 -0.328578 0)
(851.84 1.1313e-13 0)
(851.84 -1.2213e-13 0)
(851.84 -2.27559e-13 0)
(851.84 -2.69485e-13 0)
(851.84 -2.44977e-13 0)
(851.84 -3.06776e-13 0)
(851.84 -3.68561e-13 0)
(851.84 -4.35188e-13 0)
(851.84 -5.51138e-13 0)
(851.84 -6.17277e-13 0)
(851.84 -5.57531e-13 0)
(851.84 -5.96196e-13 0)
(851.84 -6.69104e-13 0)
(851.84 -6.96251e-13 0)
(851.84 -6.04012e-13 0)
(851.84 -3.88871e-13 0)
(851.84 -8.78724e-14 0)
(851.84 3.256e-13 0)
(851.84 6.88296e-13 0)
(851.84 8.74596e-13 0)
(851.84 1.26264e-12 0)
(851.84 1.3778e-12 0)
(851.84 1.6955e-12 0)
(851.84 1.18458e-12 0)
(851.84 1.27891e-12 0)
(851.84 1.3977e-12 0)
(851.84 1.82689e-12 0)
(851.84 1.57974e-12 0)
(851.84 1.43192e-12 0)
(851.84 1.00235e-12 0)
(851.84 8.12337e-13 0)
(851.84 1.70757e-12 0)
(851.84 1.77704e-10 0)
(851.84 4.13334e-09 0)
(851.84 6.74903e-07 0)
(851.84 2.28638e-05 0)
(851.837 0.00221892 0)
(851.695 0.134619 0)
(851.84 4.00605e-14 0)
(851.84 -2.61034e-14 0)
(851.84 -1.95814e-13 0)
(851.84 -1.63173e-13 0)
(851.84 -3.71716e-14 0)
(851.84 -1.64236e-13 0)
(851.84 -5.04943e-13 0)
(851.84 -6.01435e-13 0)
(851.84 -6.4157e-13 0)
(851.84 -5.18546e-13 0)
(851.84 -5.3845e-13 0)
(851.84 -4.76342e-13 0)
(851.84 -5.41288e-13 0)
(851.84 -7.59231e-13 0)
(851.84 -7.87979e-13 0)
(851.84 -8.19021e-13 0)
(851.84 -3.54209e-13 0)
(851.84 -6.98751e-14 0)
(851.84 4.85333e-14 0)
(851.84 2.1167e-13 0)
(851.84 3.07965e-13 0)
(851.84 2.10352e-13 0)
(851.84 9.81765e-13 0)
(851.84 8.34354e-13 0)
(851.84 8.38284e-13 0)
(851.84 9.77586e-13 0)
(851.84 1.09703e-12 0)
(851.84 1.54097e-12 0)
(851.84 1.81773e-12 0)
(851.84 1.60046e-12 0)
(851.84 1.31023e-12 0)
(851.84 2.8613e-12 0)
(851.84 4.00881e-11 0)
(851.84 5.41064e-09 0)
(851.84 9.67141e-08 0)
(851.84 1.6479e-05 0)
(851.839 0.000168127 0)
(851.817 0.039903 0)
(851.84 -8.77234e-14 0)
(851.84 7.7108e-15 0)
(851.84 -3.04756e-13 0)
(851.84 -2.22488e-13 0)
(851.84 -1.28169e-13 0)
(851.84 2.0628e-14 0)
(851.84 -1.47395e-13 0)
(851.84 -3.21844e-13 0)
(851.84 -4.0261e-13 0)
(851.84 -4.20493e-13 0)
(851.84 -5.39389e-13 0)
(851.84 -5.20822e-13 0)
(851.84 -5.28307e-13 0)
(851.84 -3.64155e-13 0)
(851.84 -4.09681e-13 0)
(851.84 -5.33019e-13 0)
(851.84 -6.11997e-13 0)
(851.84 -5.39743e-13 0)
(851.84 -2.76682e-13 0)
(851.84 -2.4813e-13 0)
(851.84 -2.11903e-13 0)
(851.84 -1.1888e-13 0)
(851.84 1.01485e-14 0)
(851.84 4.3058e-13 0)
(851.84 4.57209e-13 0)
(851.84 8.00004e-13 0)
(851.84 8.73634e-13 0)
(851.84 1.04271e-12 0)
(851.84 1.11371e-12 0)
(851.84 1.41525e-12 0)
(851.84 1.19196e-12 0)
(851.84 2.37169e-12 0)
(851.84 3.60213e-12 0)
(851.84 1.42385e-09 0)
(851.84 5.03277e-09 0)
(851.84 2.74733e-06 0)
(851.84 8.48316e-06 0)
(851.838 0.00426593 0)
(851.84 2.17057e-14 0)
(851.84 -1.57503e-13 0)
(851.84 -4.03662e-16 0)
(851.84 4.06825e-14 0)
(851.84 -1.19206e-13 0)
(851.84 -1.60142e-13 0)
(851.84 -6.44932e-14 0)
(851.84 -1.17182e-13 0)
(851.84 -1.09406e-13 0)
(851.84 -2.07252e-13 0)
(851.84 -2.60211e-13 0)
(851.84 -4.84852e-13 0)
(851.84 -3.14239e-13 0)
(851.84 -2.94511e-13 0)
(851.84 -3.96061e-13 0)
(851.84 -4.31212e-13 0)
(851.84 -4.93316e-13 0)
(851.84 -4.25794e-13 0)
(851.84 -5.84338e-13 0)
(851.84 -4.94107e-13 0)
(851.84 -4.86979e-13 0)
(851.84 -5.16164e-13 0)
(851.84 -6.80261e-13 0)
(851.84 -4.7982e-13 0)
(851.84 -4.08348e-14 0)
(851.84 6.20116e-14 0)
(851.84 1.527e-13 0)
(851.84 2.83433e-13 0)
(851.84 3.01525e-13 0)
(851.84 7.9742e-13 0)
(851.84 1.1603e-12 0)
(851.84 1.57969e-12 0)
(851.84 9.55396e-13 0)
(851.84 1.91348e-10 0)
(851.84 -8.39563e-11 0)
(851.84 2.72413e-07 0)
(851.84 1.74553e-07 0)
(851.84 0.000365011 0)
(851.84 -5.3944e-14 0)
(851.84 1.26949e-13 0)
(851.84 2.83922e-13 0)
(851.84 -6.21196e-16 0)
(851.84 -2.5361e-13 0)
(851.84 -3.95228e-13 0)
(851.84 -2.54696e-13 0)
(851.84 -1.11813e-13 0)
(851.84 -1.72367e-13 0)
(851.84 -1.96975e-13 0)
(851.84 -8.75325e-14 0)
(851.84 -1.69556e-13 0)
(851.84 -2.23427e-13 0)
(851.84 -3.81703e-13 0)
(851.84 -3.08562e-13 0)
(851.84 -3.39694e-13 0)
(851.84 -3.12418e-13 0)
(851.84 -1.71329e-13 0)
(851.84 -4.99148e-13 0)
(851.84 -2.37782e-13 0)
(851.84 -4.98114e-13 0)
(851.84 -7.71039e-13 0)
(851.84 -7.37821e-13 0)
(851.84 -6.94009e-13 0)
(851.84 -5.69194e-13 0)
(851.84 -5.58336e-13 0)
(851.84 -3.46385e-13 0)
(851.84 9.14059e-14 0)
(851.84 3.11589e-13 0)
(851.84 4.06469e-13 0)
(851.84 5.48556e-13 0)
(851.84 5.52163e-13 0)
(851.84 6.83026e-13 0)
(851.84 1.67392e-11 0)
(851.84 4.2642e-12 0)
(851.84 1.98596e-08 0)
(851.84 1.75696e-08 0)
(851.84 2.64578e-05 0)
(851.84 -4.7699e-14 0)
(851.84 1.53826e-13 0)
(851.84 2.67099e-13 0)
(851.84 2.53701e-13 0)
(851.84 1.8062e-13 0)
(851.84 3.35707e-14 0)
(851.84 -3.96487e-15 0)
(851.84 -5.00272e-14 0)
(851.84 -2.77556e-13 0)
(851.84 -2.82541e-13 0)
(851.84 -2.06707e-13 0)
(851.84 -1.4342e-13 0)
(851.84 -1.54634e-13 0)
(851.84 -4.25341e-14 0)
(851.84 -9.57061e-14 0)
(851.84 -8.2567e-14 0)
(851.84 -2.65288e-13 0)
(851.84 -4.15787e-13 0)
(851.84 -1.8772e-13 0)
(851.84 -2.65605e-13 0)
(851.84 -5.04326e-13 0)
(851.84 -5.92903e-13 0)
(851.84 -4.87202e-13 0)
(851.84 -4.78522e-13 0)
(851.84 -5.06155e-13 0)
(851.84 -7.61177e-13 0)
(851.84 -3.14489e-13 0)
(851.84 -2.55076e-13 0)
(851.84 2.87007e-13 0)
(851.84 5.90501e-13 0)
(851.84 3.00171e-13 0)
(851.84 2.54324e-13 0)
(851.84 3.34964e-13 0)
(851.84 1.74584e-12 0)
(851.84 1.82863e-12 0)
(851.84 1.32059e-09 0)
(851.84 1.48998e-09 0)
(851.84 1.79922e-06 0)
(851.84 5.34329e-14 0)
(851.84 -7.25388e-14 0)
(851.84 -8.78862e-14 0)
(851.84 -3.95539e-14 0)
(851.84 2.07147e-13 0)
(851.84 2.06208e-13 0)
(851.84 9.90883e-14 0)
(851.84 -1.15016e-13 0)
(851.84 -6.60132e-14 0)
(851.84 -8.0411e-14 0)
(851.84 -1.26308e-13 0)
(851.84 -1.71013e-14 0)
(851.84 9.74783e-14 0)
(851.84 2.49001e-14 0)
(851.84 -5.09562e-14 0)
(851.84 -2.50008e-13 0)
(851.84 -3.56504e-13 0)
(851.84 -4.24366e-13 0)
(851.84 -2.4914e-13 0)
(851.84 -3.91429e-13 0)
(851.84 -4.3581e-13 0)
(851.84 -3.79571e-13 0)
(851.84 -6.0908e-13 0)
(851.84 -7.28434e-13 0)
(851.84 -6.47663e-13 0)
(851.84 -6.60006e-13 0)
(851.84 -7.04483e-13 0)
(851.84 -6.00183e-13 0)
(851.84 -5.19685e-13 0)
(851.84 -4.43389e-13 0)
(851.84 -1.03072e-13 0)
(851.84 -5.48306e-14 0)
(851.84 -9.16099e-14 0)
(851.84 9.76546e-14 0)
(851.84 -3.40731e-13 0)
(851.84 8.6104e-11 0)
(851.84 1.09619e-10 0)
(851.84 1.1905e-07 0)
(851.84 -1.05183e-14 0)
(851.84 8.72553e-14 0)
(851.84 -2.24558e-13 0)
(851.84 -2.55235e-13 0)
(851.84 -1.76929e-13 0)
(851.84 -1.52877e-13 0)
(851.84 -2.11665e-13 0)
(851.84 -3.32373e-13 0)
(851.84 -2.53714e-13 0)
(851.84 -9.03126e-14 0)
(851.84 -1.81461e-13 0)
(851.84 1.76439e-14 0)
(851.84 1.70949e-13 0)
(851.84 -9.19523e-14 0)
(851.84 -4.28657e-14 0)
(851.84 -1.46701e-13 0)
(851.84 -1.13766e-13 0)
(851.84 -1.1503e-13 0)
(851.84 -3.94171e-13 0)
(851.84 -3.34199e-13 0)
(851.84 -3.44008e-13 0)
(851.84 -3.16399e-13 0)
(851.84 -3.38516e-13 0)
(851.84 -6.5089e-13 0)
(851.84 -7.912e-13 0)
(851.84 -5.0817e-13 0)
(851.84 -6.62585e-13 0)
(851.84 -6.9757e-13 0)
(851.84 -8.25785e-13 0)
(851.84 -6.9713e-13 0)
(851.84 -5.98243e-13 0)
(851.84 -4.01211e-13 0)
(851.84 -2.97053e-13 0)
(851.84 -1.12673e-13 0)
(851.84 -1.38679e-13 0)
(851.84 5.77338e-12 0)
(851.84 6.54251e-12 0)
(851.84 7.81496e-09 0)
(851.84 3.1022e-14 0)
(851.84 5.89771e-14 0)
(851.84 9.18304e-14 0)
(851.84 -1.44917e-13 0)
(851.84 -2.84019e-13 0)
(851.84 -2.19688e-13 0)
(851.84 -1.61477e-13 0)
(851.84 -2.53333e-13 0)
(851.84 -1.70737e-13 0)
(851.84 -2.32294e-13 0)
(851.84 -1.73524e-13 0)
(851.84 -6.334e-14 0)
(851.84 -1.67382e-13 0)
(851.84 -9.42223e-14 0)
(851.84 -1.59262e-13 0)
(851.84 -1.73254e-14 0)
(851.84 1.43097e-13 0)
(851.84 -1.72018e-14 0)
(851.84 -1.71047e-13 0)
(851.84 -4.11084e-13 0)
(851.84 -3.92698e-13 0)
(851.84 -4.91486e-13 0)
(851.84 -4.56733e-13 0)
(851.84 -4.99721e-13 0)
(851.84 -5.97153e-13 0)
(851.84 -4.61653e-13 0)
(851.84 -4.61911e-13 0)
(851.84 -5.94406e-13 0)
(851.84 -5.77319e-13 0)
(851.84 -3.12484e-13 0)
(851.84 -4.79594e-13 0)
(851.84 -3.99118e-13 0)
(851.84 -3.05572e-13 0)
(851.84 2.63799e-14 0)
(851.84 -3.35049e-13 0)
(851.84 2.85622e-13 0)
(851.84 4.00647e-13 0)
(851.84 5.13516e-10 0)
(851.84 -1.60152e-14 0)
(851.84 -5.02882e-14 0)
(851.84 1.79492e-14 0)
(851.84 -6.82066e-14 0)
(851.84 -3.62279e-14 0)
(851.84 -2.0896e-14 0)
(851.84 -1.60224e-13 0)
(851.84 -1.4176e-13 0)
(851.84 -1.11403e-13 0)
(851.84 -1.97527e-13 0)
(851.84 -1.12019e-13 0)
(851.84 -2.39804e-13 0)
(851.84 -2.70365e-13 0)
(851.84 -1.73256e-13 0)
(851.84 -1.95319e-13 0)
(851.84 -1.5342e-13 0)
(851.84 -2.49678e-13 0)
(851.84 -2.99085e-13 0)
(851.84 -3.87795e-13 0)
(851.84 -4.84302e-13 0)
(851.84 -4.88361e-13 0)
(851.84 -5.55405e-13 0)
(851.84 -6.73147e-13 0)
(851.84 -6.22722e-13 0)
(851.84 -5.37235e-13 0)
(851.84 -5.95556e-13 0)
(851.84 -4.3634e-13 0)
(851.84 -3.95282e-13 0)
(851.84 -4.24969e-13 0)
(851.84 -2.35133e-13 0)
(851.84 -2.99674e-13 0)
(851.84 -2.92018e-13 0)
(851.84 -3.0124e-13 0)
(851.84 -2.19326e-13 0)
(851.84 -3.55827e-13 0)
(851.84 -2.2619e-13 0)
(851.84 -3.56235e-13 0)
(851.84 3.28278e-11 0)
(851.84 -6.35815e-14 0)
(851.84 -5.10836e-14 0)
(851.84 8.80794e-14 0)
(851.84 2.17894e-13 0)
(851.84 8.99466e-14 0)
(851.84 -4.10073e-14 0)
(851.84 -7.51196e-14 0)
(851.84 -2.57541e-14 0)
(851.84 -8.16196e-15 0)
(851.84 -2.38457e-14 0)
(851.84 1.25936e-14 0)
(851.84 -2.91788e-13 0)
(851.84 -3.46586e-13 0)
(851.84 -2.40888e-13 0)
(851.84 -1.55888e-13 0)
(851.84 -3.11141e-14 0)
(851.84 -2.90771e-13 0)
(851.84 -2.96563e-13 0)
(851.84 -6.51099e-13 0)
(851.84 -5.15713e-13 0)
(851.84 -6.22248e-13 0)
(851.84 -7.02417e-13 0)
(851.84 -5.79533e-13 0)
(851.84 -5.97574e-13 0)
(851.84 -4.20663e-13 0)
(851.84 -5.65098e-13 0)
(851.84 -5.04112e-13 0)
(851.84 -5.64876e-13 0)
(851.84 -4.12637e-13 0)
(851.84 -4.29624e-13 0)
(851.84 -2.43234e-13 0)
(851.84 -2.81477e-13 0)
(851.84 -3.97541e-13 0)
(851.84 -5.18499e-13 0)
(851.84 -5.99665e-13 0)
(851.84 -4.57256e-13 0)
(851.84 -8.34871e-13 0)
(851.84 2.024e-12 0)
(851.84 2.29417e-15 0)
(851.84 1.07723e-13 0)
(851.84 1.30395e-13 0)
(851.84 9.39521e-14 0)
(851.84 2.57954e-14 0)
(851.84 -1.29843e-13 0)
(851.84 -4.45654e-14 0)
(851.84 4.62712e-14 0)
(851.84 8.28375e-15 0)
(851.84 1.52363e-14 0)
(851.84 -1.29958e-13 0)
(851.84 -3.49452e-13 0)
(851.84 -2.04205e-13 0)
(851.84 -1.39406e-13 0)
(851.84 -5.85113e-14 0)
(851.84 7.0189e-14 0)
(851.84 -1.45505e-13 0)
(851.84 -2.23891e-13 0)
(851.84 -2.0902e-13 0)
(851.84 -3.41519e-13 0)
(851.84 -4.32201e-13 0)
(851.84 -5.35846e-13 0)
(851.84 -3.39913e-13 0)
(851.84 -2.59807e-13 0)
(851.84 -3.7715e-13 0)
(851.84 -2.82047e-13 0)
(851.84 -5.04699e-13 0)
(851.84 -7.16009e-13 0)
(851.84 -5.8999e-13 0)
(851.84 -6.76313e-13 0)
(851.84 -4.91587e-13 0)
(851.84 -5.02018e-13 0)
(851.84 -5.05829e-13 0)
(851.84 -5.19286e-13 0)
(851.84 -4.42066e-13 0)
(851.84 -2.85759e-13 0)
(851.84 -3.57929e-13 0)
(851.84 -3.23994e-13 0)
(851.84 -8.84395e-15 0)
(851.84 -3.17914e-14 0)
(851.84 -1.00476e-13 0)
(851.84 -1.60694e-13 0)
(851.84 -1.09596e-13 0)
(851.84 -5.73401e-14 0)
(851.84 1.3547e-14 0)
(851.84 5.66991e-14 0)
(851.84 -1.55951e-13 0)
(851.84 -2.8725e-13 0)
(851.84 -4.46217e-13 0)
(851.84 -3.28924e-13 0)
(851.84 -2.45138e-13 0)
(851.84 1.91056e-14 0)
(851.84 1.6023e-13 0)
(851.84 5.2083e-14 0)
(851.84 -3.36981e-14 0)
(851.84 -1.17656e-13 0)
(851.84 -8.25505e-14 0)
(851.84 -4.51662e-13 0)
(851.84 -3.44944e-13 0)
(851.84 -2.24087e-13 0)
(851.84 -3.91366e-13 0)
(851.84 -1.76747e-13 0)
(851.84 -3.688e-13 0)
(851.84 -3.10991e-13 0)
(851.84 -3.90082e-13 0)
(851.84 -9.62177e-14 0)
(851.84 -1.25594e-13 0)
(851.84 -2.64821e-13 0)
(851.84 -2.64252e-13 0)
(851.84 -3.82683e-13 0)
(851.84 -4.00204e-13 0)
(851.84 -1.88932e-13 0)
(851.84 -3.09141e-13 0)
(851.84 -2.19638e-13 0)
(851.84 -2.79017e-13 0)
(851.84 -3.40894e-13 0)
(851.84 -2.36198e-14 0)
(851.84 -4.82216e-14 0)
(851.84 8.7521e-14 0)
(851.84 -1.4098e-15 0)
(851.84 -7.4571e-14 0)
(851.84 -4.14053e-14 0)
(851.84 -8.78125e-14 0)
(851.84 -1.99577e-13 0)
(851.84 -3.12722e-14 0)
(851.84 -7.52209e-14 0)
(851.84 1.10964e-13 0)
(851.84 1.5791e-13 0)
(851.84 8.31797e-14 0)
(851.84 1.7735e-13 0)
(851.84 1.25454e-13 0)
(851.84 8.78373e-14 0)
(851.84 1.81142e-13 0)
(851.84 -9.8635e-14 0)
(851.84 -4.38275e-13 0)
(851.84 -4.48568e-13 0)
(851.84 -3.81422e-13 0)
(851.84 -3.01474e-13 0)
(851.84 -3.96605e-13 0)
(851.84 -4.82831e-13 0)
(851.84 -3.01885e-13 0)
(851.84 -2.19348e-13 0)
(851.84 -3.1197e-14 0)
(851.84 1.06984e-13 0)
(851.84 -2.44373e-15 0)
(851.84 1.39781e-13 0)
(851.84 2.52993e-14 0)
(851.84 -5.13113e-14 0)
(851.84 2.07011e-14 0)
(851.84 -2.6344e-13 0)
(851.84 -4.40754e-13 0)
(851.84 -4.46247e-13 0)
(851.84 -4.57214e-13 0)
(851.84 -3.96704e-13 0)
(851.84 2.56213e-14 0)
(851.84 -2.09642e-14 0)
(851.84 1.04914e-14 0)
(851.84 5.29432e-14 0)
(851.84 1.74705e-15 0)
(851.84 -1.82808e-13 0)
(851.84 -1.93331e-13 0)
(851.84 -2.17306e-13 0)
(851.84 1.04108e-13 0)
(851.84 5.22273e-13 0)
(851.84 5.39362e-13 0)
(851.84 5.09685e-13 0)
(851.84 1.64769e-13 0)
(851.84 3.40783e-14 0)
(851.84 -1.14549e-13 0)
(851.84 -1.57082e-13 0)
(851.84 1.77881e-13 0)
(851.84 -1.07362e-13 0)
(851.84 -2.90539e-13 0)
(851.84 -3.84209e-14 0)
(851.84 -7.30183e-14 0)
(851.84 -1.86346e-13 0)
(851.84 -2.36845e-13 0)
(851.84 -2.40834e-13 0)
(851.84 -1.10665e-13 0)
(851.84 -2.5934e-13 0)
(851.84 2.29215e-13 0)
(851.84 1.46756e-13 0)
(851.84 2.80596e-13 0)
(851.84 3.75483e-13 0)
(851.84 1.88131e-13 0)
(851.84 6.32998e-14 0)
(851.84 -4.22068e-14 0)
(851.84 -1.58407e-13 0)
(851.84 -1.45898e-13 0)
(851.84 -6.41433e-13 0)
(851.84 -6.1719e-13 0)
(851.84 -4.828e-13 0)
(851.84 -6.56319e-14 0)
(851.84 -7.63959e-14 0)
(851.84 -1.52799e-13 0)
(851.84 -4.57444e-14 0)
(851.84 -1.14844e-14 0)
(851.84 1.98278e-13 0)
(851.84 1.41791e-13 0)
(851.84 1.17957e-13 0)
(851.84 1.86403e-13 0)
(851.84 2.17874e-13 0)
(851.84 3.44521e-13 0)
(851.84 4.35099e-13 0)
(851.84 1.80053e-13 0)
(851.84 9.97296e-14 0)
(851.84 8.00835e-15 0)
(851.84 -4.6196e-14 0)
(851.84 -1.51491e-13 0)
(851.84 4.69881e-14 0)
(851.84 1.06497e-13 0)
(851.84 8.52246e-14 0)
(851.84 -1.68703e-13 0)
(851.84 -1.56935e-13 0)
(851.84 -8.77644e-14 0)
(851.84 4.24819e-15 0)
(851.84 -1.17603e-14 0)
(851.84 -1.1114e-13 0)
(851.84 -2.77343e-14 0)
(851.84 1.4264e-13 0)
(851.84 2.5439e-13 0)
(851.84 -9.87739e-14 0)
(851.84 -1.43334e-13 0)
(851.84 -1.92887e-13 0)
(851.84 -3.28069e-13 0)
(851.84 -1.32027e-13 0)
(851.84 3.85799e-14 0)
(851.84 -2.17779e-13 0)
(851.84 -4.49036e-13 0)
(851.84 -3.91593e-13 0)
(851.84 1.67347e-14 0)
(851.84 1.49626e-13 0)
(851.84 9.64077e-14 0)
(851.84 9.94065e-14 0)
(851.84 1.24109e-13 0)
(851.84 2.80629e-13 0)
(851.84 3.22861e-13 0)
(851.84 1.93458e-13 0)
(851.84 5.59779e-14 0)
(851.84 -6.99863e-14 0)
(851.84 1.01551e-13 0)
(851.84 1.06736e-13 0)
(851.84 2.18276e-13 0)
(851.84 1.60008e-13 0)
(851.84 3.58647e-13 0)
(851.84 -4.52453e-14 0)
(851.84 -1.13314e-13 0)
(851.84 5.78292e-14 0)
(851.84 2.23014e-13 0)
(851.84 -2.27722e-15 0)
(851.84 -3.76207e-14 0)
(851.84 4.04525e-15 0)
(851.84 1.27433e-13 0)
(851.84 6.24929e-14 0)
(851.84 -6.98818e-15 0)
(851.84 1.00242e-13 0)
(851.84 2.19599e-14 0)
(851.84 -1.36823e-14 0)
(851.84 -5.17029e-13 0)
(851.84 -2.88455e-13 0)
(851.84 -3.48771e-13 0)
(851.84 -2.51075e-13 0)
(851.84 -2.47301e-13 0)
(851.84 -1.93506e-13 0)
(851.84 -5.67037e-14 0)
(851.84 1.03142e-13 0)
(851.84 -9.31065e-14 0)
(851.84 -2.75855e-13 0)
(851.84 4.57258e-14 0)
(851.84 -3.9131e-15 0)
(851.84 -3.09287e-14 0)
(851.84 -4.60658e-14 0)
(851.84 -1.64641e-13 0)
(851.84 -2.03054e-13 0)
(851.84 5.24365e-15 0)
(851.84 1.8658e-14 0)
(851.84 -3.92346e-14 0)
(851.84 3.35825e-14 0)
(851.84 -2.2849e-13 0)
(851.84 -1.58119e-13 0)
(851.84 2.35516e-14 0)
(851.84 -3.47928e-15 0)
(851.84 -6.33579e-14 0)
(851.84 -7.88353e-14 0)
(851.84 -6.95622e-14 0)
(851.84 -5.3904e-14 0)
(851.84 -6.52618e-14 0)
(851.84 2.38881e-14 0)
(851.84 4.04413e-14 0)
(851.84 4.80028e-14 0)
(851.84 -7.8426e-14 0)
(851.84 1.0033e-13 0)
(851.84 1.94205e-13 0)
(851.84 9.06704e-14 0)
(851.84 1.9063e-14 0)
(851.84 -4.88586e-14 0)
(851.84 -1.1065e-13 0)
(851.84 -1.12634e-13 0)
(851.84 -2.54195e-13 0)
(851.84 -1.57232e-13 0)
(851.84 -2.25392e-13 0)
(851.84 -2.52762e-13 0)
(851.84 -3.32033e-13 0)
(851.84 -1.64364e-13 0)
(851.84 6.72875e-14 0)
(851.84 -1.3984e-13 0)
(851.84 -8.32957e-14 0)
(851.84 -7.22038e-14 0)
(851.84 4.19713e-14 0)
(851.84 -4.18616e-14 0)
(851.84 -8.01305e-14 0)
(851.84 -9.88721e-14 0)
(851.84 -1.23212e-13 0)
(851.84 1.19325e-13 0)
(851.84 3.39859e-14 0)
(851.84 7.01082e-14 0)
(851.84 5.22224e-14 0)
(851.84 1.5363e-13 0)
(851.84 2.57403e-13 0)
(851.84 1.81068e-13 0)
(851.84 -1.67318e-14 0)
(851.84 -2.07655e-14 0)
(851.84 -1.12887e-13 0)
(851.84 -3.29552e-15 0)
(851.84 2.82627e-14 0)
(851.84 4.13111e-14 0)
(851.84 -5.10393e-14 0)
(851.84 -4.27895e-14 0)
(851.84 5.96884e-14 0)
(851.84 1.53033e-13 0)
(851.84 1.96248e-13 0)
(851.84 1.40389e-13 0)
(851.84 6.92277e-14 0)
(851.84 -9.13031e-14 0)
(851.84 6.50919e-14 0)
(851.84 -7.09593e-13 0)
(851.84 -5.14969e-13 0)
(851.84 -4.47095e-13 0)
(851.84 -3.13461e-13 0)
(851.84 -4.03789e-13 0)
(851.84 -4.12573e-13 0)
(851.84 -3.48153e-13 0)
(851.84 -2.42627e-13 0)
(851.84 -1.2182e-13 0)
(851.84 2.73546e-14 0)
(851.84 5.48563e-14 0)
(851.84 -9.99166e-15 0)
(851.84 -1.13507e-15 0)
(851.84 -8.00823e-14 0)
(851.84 1.13553e-13 0)
(851.84 1.84163e-13 0)
(851.84 9.29523e-14 0)
(851.84 7.67031e-14 0)
(851.84 -1.0016e-14 0)
(851.84 2.74585e-13 0)
(851.84 1.68282e-13 0)
(851.84 1.90709e-13 0)
(851.84 7.10671e-14 0)
(851.84 -5.34706e-15 0)
(851.84 -2.45216e-14 0)
(851.84 9.95421e-14 0)
(851.84 6.7958e-14 0)
(851.84 2.22036e-13 0)
(851.84 2.32794e-13 0)
(851.84 2.2921e-13 0)
(851.84 2.57043e-13 0)
(851.84 3.38299e-13 0)
(851.84 1.04893e-13 0)
(851.84 1.63897e-14 0)
(851.84 2.41374e-13 0)
(851.84 1.37343e-13 0)
(851.84 -5.92953e-14 0)
(851.84 -2.91189e-13 0)
(851.84 -3.56912e-13 0)
(851.84 -3.8654e-13 0)
(851.84 -3.91742e-13 0)
(851.84 -1.51038e-13 0)
(851.84 -1.71439e-13 0)
(851.84 -4.28596e-14 0)
(851.84 -1.80144e-13 0)
(851.84 -2.64576e-13 0)
(851.84 -1.91831e-13 0)
(851.84 1.94664e-14 0)
(851.84 -1.7933e-14 0)
(851.84 -2.02e-13 0)
(851.84 -2.52439e-13 0)
(851.84 -4.91027e-14 0)
(851.84 -3.05319e-14 0)
(851.84 4.46341e-14 0)
(851.84 1.04878e-13 0)
(851.84 2.08304e-14 0)
(851.84 -1.10189e-13 0)
(851.84 -1.70118e-13 0)
(851.84 -8.62785e-14 0)
(851.84 -1.4791e-13 0)
(851.84 -1.73366e-14 0)
(851.84 5.39666e-14 0)
(851.84 5.67311e-14 0)
(851.84 1.09506e-13 0)
(851.84 3.4291e-14 0)
(851.84 -5.26552e-14 0)
(851.84 3.18076e-13 0)
(851.84 2.30971e-13 0)
(851.84 2.76476e-13 0)
(851.84 3.21458e-13 0)
(851.84 3.84333e-13 0)
(851.84 2.69081e-13 0)
(851.84 1.76493e-13 0)
(851.84 4.88591e-14 0)
(851.84 1.65982e-13 0)
(851.84 -3.29502e-14 0)
(851.84 9.49782e-14 0)
(851.84 7.77326e-14 0)
(851.84 1.30727e-14 0)
(851.84 1.74155e-14 0)
(851.84 7.96785e-14 0)
(851.84 1.15323e-13 0)
(851.84 2.4067e-14 0)
(851.84 2.70414e-15 0)
(851.84 -1.44936e-13 0)
(851.84 -2.8611e-15 0)
(851.84 -2.49601e-14 0)
(851.84 -2.74797e-14 0)
(851.84 -2.34795e-14 0)
(851.84 2.1238e-13 0)
(851.84 -3.61661e-14 0)
(851.84 -1.55366e-14 0)
(851.84 4.33139e-14 0)
(851.84 5.498e-15 0)
(851.84 -2.00652e-13 0)
(851.84 -2.11191e-13 0)
(851.84 -2.14327e-13 0)
(851.84 -9.518e-14 0)
(851.84 4.64685e-14 0)
(851.84 9.79211e-14 0)
(851.84 -4.37041e-14 0)
(851.84 -6.78355e-14 0)
(851.84 1.71755e-13 0)
(851.84 8.34237e-14 0)
(851.84 2.05438e-13 0)
(851.84 3.03763e-13 0)
(851.84 3.25859e-13 0)
(851.84 3.22675e-13 0)
(851.84 3.5683e-13 0)
(851.84 3.80109e-13 0)
(851.84 8.91988e-14 0)
(851.84 7.21189e-14 0)
(851.84 4.19329e-14 0)
(851.84 1.74169e-13 0)
(851.84 9.46136e-14 0)
(851.84 -7.21728e-15 0)
(851.84 -1.07509e-13 0)
(851.84 -1.5686e-13 0)
(851.84 6.66073e-14 0)
(851.84 2.13166e-13 0)
(851.84 6.7329e-14 0)
(851.84 2.25366e-13 0)
(851.84 1.90553e-13 0)
(851.84 -6.78913e-15 0)
(851.84 -7.59449e-14 0)
(851.84 1.32032e-13 0)
(851.84 1.70166e-13 0)
(851.84 2.44905e-13 0)
(851.84 3.03079e-13 0)
(851.84 9.6545e-14 0)
(851.84 -5.2341e-14 0)
(851.84 -4.21829e-14 0)
(851.84 -9.14677e-14 0)
(851.84 -5.98406e-14 0)
(851.84 -1.2626e-13 0)
(851.84 -7.00591e-14 0)
(851.84 -2.14058e-13 0)
(851.84 -3.91383e-13 0)
(851.84 -3.1482e-13 0)
(851.84 -1.81624e-13 0)
(851.84 6.44612e-14 0)
(851.84 9.5873e-14 0)
(851.84 -2.27826e-14 0)
(851.84 3.62587e-13 0)
(851.84 1.87506e-13 0)
(851.84 1.30473e-13 0)
(851.84 4.91266e-14 0)
(851.84 8.68179e-14 0)
(851.84 3.90441e-14 0)
(851.84 1.04618e-13 0)
(851.84 1.78408e-13 0)
(851.84 3.58934e-13 0)
(851.84 1.67778e-13 0)
(851.84 7.91681e-15 0)
(851.84 -7.25738e-14 0)
(851.84 4.32667e-14 0)
(851.84 2.1956e-13 0)
(851.84 1.60161e-13 0)
(851.84 4.77778e-13 0)
(851.84 6.23834e-13 0)
(851.84 5.05557e-13 0)
(851.84 2.04406e-14 0)
(851.84 4.99801e-14 0)
(851.84 1.02953e-13 0)
(851.84 -5.47549e-15 0)
(851.84 1.45932e-14 0)
(851.84 7.17566e-14 0)
(851.84 5.90815e-14 0)
(851.84 5.86875e-14 0)
(851.84 1.75941e-13 0)
(851.84 -4.49012e-14 0)
(851.84 -8.97963e-14 0)
(851.84 -8.78779e-14 0)
(851.84 -2.6225e-13 0)
(851.84 -3.91372e-13 0)
(851.84 -5.57635e-13 0)
(851.84 -3.75858e-13 0)
(851.84 -2.0809e-13 0)
(851.84 -2.47e-13 0)
(851.84 -1.59336e-13 0)
(851.84 -1.81174e-13 0)
(851.84 -1.11953e-13 0)
(851.84 -1.39112e-14 0)
(851.84 1.6217e-13 0)
(851.84 1.144e-13 0)
(851.84 9.08174e-14 0)
(851.84 -7.74425e-15 0)
(851.84 -1.07558e-13 0)
(851.84 7.53772e-14 0)
(851.84 6.29123e-14 0)
(851.84 1.26216e-13 0)
(851.84 2.15454e-13 0)
(851.84 3.01625e-13 0)
(851.84 4.39996e-13 0)
(851.84 5.24888e-13 0)
(851.84 2.37932e-13 0)
(851.84 5.57036e-13 0)
(851.84 6.2749e-13 0)
(851.84 6.53411e-13 0)
(851.84 3.55488e-14 0)
(851.84 9.35401e-14 0)
(851.84 -3.40788e-14 0)
(851.84 -7.67488e-14 0)
(851.84 -1.56358e-13 0)
(851.84 -6.94699e-14 0)
(851.84 2.42009e-16 0)
(851.84 1.19696e-13 0)
(851.84 1.94256e-13 0)
(851.84 4.43177e-13 0)
(851.84 9.70763e-14 0)
(851.84 2.27436e-13 0)
(851.84 -2.5587e-13 0)
(851.84 -3.26298e-13 0)
(851.84 -4.77995e-13 0)
(851.84 -5.21765e-13 0)
(851.84 -6.05561e-13 0)
(851.84 -7.0386e-13 0)
(851.84 -1.27786e-13 0)
(851.84 -3.27414e-13 0)
(851.84 -3.94283e-13 0)
(851.84 -1.19626e-13 0)
(851.84 1.69265e-14 0)
(851.84 8.97654e-14 0)
(851.84 3.02989e-13 0)
(851.84 4.92283e-14 0)
(851.84 -9.34953e-14 0)
(851.84 -1.11604e-13 0)
(851.84 -2.04589e-13 0)
(851.84 7.71197e-15 0)
(851.84 3.77514e-13 0)
(851.84 5.63132e-13 0)
(851.84 5.80487e-13 0)
(851.84 4.72974e-13 0)
(851.84 3.93182e-13 0)
(851.84 2.78179e-13 0)
(851.84 2.65864e-13 0)
(851.84 4.82322e-13 0)
(851.84 -6.30744e-14 0)
(851.84 -1.64618e-14 0)
(851.84 -9.68185e-14 0)
(851.84 -7.13195e-16 0)
(851.84 -2.05757e-13 0)
(851.84 -1.03893e-13 0)
(851.84 -7.20224e-14 0)
(851.84 -4.60974e-14 0)
(851.84 2.17862e-13 0)
(851.84 3.33584e-13 0)
(851.84 3.16622e-13 0)
(851.84 2.15917e-13 0)
(851.84 1.13497e-13 0)
(851.84 -5.79596e-15 0)
(851.84 2.46558e-14 0)
(851.84 -2.00592e-13 0)
(851.84 -3.32667e-13 0)
(851.84 -2.6037e-13 0)
(851.84 -2.19857e-13 0)
(851.84 -2.10776e-13 0)
(851.84 -4.04792e-13 0)
(851.84 -4.28123e-13 0)
(851.84 -3.16514e-13 0)
(851.84 6.08974e-14 0)
(851.84 1.07288e-13 0)
(851.84 1.87813e-13 0)
(851.84 2.42078e-13 0)
(851.84 1.6343e-13 0)
(851.84 3.64581e-13 0)
(851.84 3.24429e-13 0)
(851.84 1.17262e-13 0)
(851.84 2.04949e-13 0)
(851.84 1.95293e-13 0)
(851.84 1.92766e-13 0)
(851.84 8.87781e-14 0)
(851.84 -2.12622e-14 0)
(851.84 -1.61772e-13 0)
(851.84 -1.37871e-13 0)
(851.84 -5.80252e-14 0)
(851.84 -1.24728e-13 0)
(851.84 7.78322e-14 0)
(851.84 1.05508e-13 0)
(851.84 4.57829e-14 0)
(851.84 -2.85704e-13 0)
(851.84 -3.3514e-14 0)
(851.84 -1.23908e-14 0)
(851.84 1.60054e-13 0)
(851.84 8.09108e-14 0)
(851.84 2.91171e-13 0)
(851.84 1.75016e-13 0)
(851.84 1.80523e-13 0)
(851.84 2.54305e-13 0)
(851.84 3.70763e-13 0)
(851.84 2.12773e-13 0)
(851.84 2.79127e-13 0)
(851.84 -3.47011e-14 0)
(851.84 -2.89252e-13 0)
(851.84 -2.328e-13 0)
(851.84 -3.11417e-13 0)
(851.84 -3.90222e-13 0)
(851.84 -2.79892e-13 0)
(851.84 -7.97203e-14 0)
(851.84 1.20582e-13 0)
(851.84 3.17233e-13 0)
(851.84 3.4025e-13 0)
(851.84 3.87328e-13 0)
(851.84 4.36135e-13 0)
(851.84 2.74665e-13 0)
(851.84 2.40354e-13 0)
(851.84 -7.62308e-14 0)
(851.84 -2.38438e-13 0)
(851.84 -2.35978e-13 0)
(851.84 -9.41262e-14 0)
(851.84 -1.84335e-13 0)
(851.84 -2.58837e-13 0)
(851.84 -4.31879e-13 0)
(851.84 1.44811e-13 0)
(851.84 -6.76339e-14 0)
(851.84 8.51927e-14 0)
(851.84 2.80916e-13 0)
(851.84 5.73921e-13 0)
(851.84 3.759e-13 0)
(851.84 8.54499e-15 0)
(851.84 -8.96936e-14 0)
(851.84 3.75998e-14 0)
(851.84 1.84076e-13 0)
(851.84 2.16026e-13 0)
(851.84 1.54128e-13 0)
(851.84 1.94225e-13 0)
(851.84 2.79228e-13 0)
(851.84 1.74475e-13 0)
(851.84 3.38025e-13 0)
(851.84 2.71571e-13 0)
(851.84 6.72905e-14 0)
(851.84 -3.97451e-13 0)
(851.84 -3.83926e-13 0)
(851.84 -1.23532e-13 0)
(851.84 -1.2904e-13 0)
(851.84 -6.82798e-14 0)
(851.84 -8.74029e-14 0)
(851.84 6.5331e-14 0)
(851.84 2.23587e-13 0)
(851.84 3.35618e-13 0)
(851.84 3.19177e-13 0)
(851.84 1.59447e-13 0)
(851.84 2.80689e-13 0)
(851.84 3.42369e-13 0)
(851.84 2.47518e-13 0)
(851.84 8.16788e-14 0)
(851.84 -3.85708e-14 0)
(851.84 -3.35169e-14 0)
(851.84 -1.05786e-13 0)
(851.84 -2.95613e-13 0)
(851.84 -4.41836e-13 0)
(851.84 2.05781e-14 0)
(851.84 9.34546e-14 0)
(851.84 1.999e-13 0)
(851.84 2.7304e-13 0)
(851.84 3.09004e-13 0)
(851.84 3.57811e-13 0)
(851.84 2.42879e-13 0)
(851.84 1.55895e-13 0)
(851.84 1.30084e-13 0)
(851.84 9.71581e-14 0)
(851.84 -2.66401e-13 0)
(851.84 -2.80278e-13 0)
(851.84 -3.53725e-13 0)
(851.84 -2.28023e-13 0)
(851.84 -4.43178e-14 0)
(851.84 5.28748e-14 0)
(851.84 5.0124e-14 0)
(851.84 1.36156e-14 0)
(851.84 7.79582e-14 0)
(851.84 4.68153e-14 0)
(851.84 3.17666e-14 0)
(851.84 1.32283e-14 0)
(851.84 3.70996e-14 0)
(851.84 -7.02308e-14 0)
(851.84 -6.70408e-14 0)
(851.84 7.53986e-14 0)
(851.84 1.6121e-13 0)
(851.84 9.8157e-14 0)
(851.84 8.31602e-14 0)
(851.84 1.38165e-13 0)
(851.84 1.46304e-13 0)
(851.84 2.18674e-13 0)
(851.84 7.98349e-14 0)
(851.84 1.13442e-13 0)
(851.84 -1.85955e-13 0)
(851.84 -2.61417e-14 0)
(851.84 -3.62324e-14 0)
(851.84 -7.91913e-15 0)
(851.84 6.46592e-15 0)
(851.84 1.33775e-13 0)
(851.84 9.90059e-14 0)
(851.84 -4.39884e-14 0)
(851.84 -5.9971e-14 0)
(851.84 -1.20288e-13 0)
(851.84 6.01001e-13 0)
(851.84 4.90562e-13 0)
(851.84 -6.50356e-15 0)
(851.84 -3.55399e-13 0)
(851.84 -4.82992e-13 0)
(851.84 -7.38828e-13 0)
(851.84 -5.13334e-13 0)
(851.84 -3.85318e-13 0)
(851.84 -1.53659e-13 0)
(851.84 7.13798e-15 0)
(851.84 -1.68562e-13 0)
(851.84 -1.97964e-13 0)
(851.84 -1.93749e-14 0)
(851.84 1.08807e-13 0)
(851.84 1.95097e-16 0)
(851.84 1.60812e-13 0)
(851.84 1.048e-13 0)
(851.84 2.18794e-14 0)
(851.84 3.21681e-14 0)
(851.84 -2.4069e-14 0)
(851.84 -6.2638e-14 0)
(851.84 5.93407e-14 0)
(851.84 9.27621e-14 0)
(851.84 2.02125e-14 0)
(851.84 -5.50693e-14 0)
(851.84 -3.71e-14 0)
(851.84 4.44846e-14 0)
(851.84 1.99193e-14 0)
(851.84 -5.55982e-14 0)
(851.84 -9.31234e-15 0)
(851.84 6.95684e-14 0)
(851.84 1.82043e-13 0)
(851.84 3.32861e-14 0)
(851.84 6.10895e-14 0)
(851.84 -1.26688e-13 0)
(851.84 -1.62188e-13 0)
(851.84 -1.08527e-13 0)
(851.84 -6.97157e-15 0)
(851.84 1.59066e-13 0)
(851.84 -1.92973e-14 0)
(851.84 -4.01424e-13 0)
(851.84 -4.7778e-13 0)
(851.84 -4.52041e-13 0)
(851.84 -3.6766e-13 0)
(851.84 -1.85902e-13 0)
(851.84 -3.31347e-13 0)
(851.84 -3.59602e-13 0)
(851.84 -4.31338e-13 0)
(851.84 -5.47574e-13 0)
(851.84 -5.65005e-13 0)
(851.84 -2.81033e-13 0)
(851.84 -8.50942e-14 0)
(851.84 1.50328e-13 0)
(851.84 3.22405e-13 0)
(851.84 3.57923e-13 0)
(851.84 1.86721e-13 0)
(851.84 8.11566e-14 0)
(851.84 -2.71723e-14 0)
(851.84 2.34167e-14 0)
(851.84 8.26125e-14 0)
(851.84 3.30587e-14 0)
(851.84 -1.52882e-13 0)
(851.84 -1.59013e-13 0)
(851.84 -5.39105e-14 0)
(851.84 -1.13746e-13 0)
(851.84 -1.08895e-13 0)
(851.84 -1.56325e-13 0)
(851.84 -3.80182e-13 0)
(851.84 -1.27725e-13 0)
(851.84 -1.14031e-13 0)
(851.84 -8.87346e-15 0)
(851.84 -1.00986e-13 0)
(851.84 -2.81827e-13 0)
(851.84 -3.40865e-13 0)
(851.84 -1.77255e-13 0)
(851.84 -7.38914e-14 0)
(851.84 -1.93216e-13 0)
(851.84 -2.67078e-13 0)
(851.84 -3.40995e-13 0)
(851.84 -2.52073e-13 0)
(851.84 -1.12006e-13 0)
(851.84 -5.29623e-14 0)
(851.84 -7.59947e-14 0)
(851.84 -1.74798e-13 0)
(851.84 -4.09278e-13 0)
(851.84 -4.6733e-13 0)
(851.84 -5.55471e-13 0)
(851.84 -4.05267e-13 0)
(851.84 -2.62049e-13 0)
(851.84 -2.2114e-13 0)
(851.84 1.88839e-13 0)
(851.84 3.17253e-13 0)
(851.84 4.21557e-13 0)
(851.84 3.79739e-13 0)
(851.84 4.16121e-13 0)
(851.84 5.01934e-13 0)
(851.84 2.79541e-13 0)