/*--------------------------------*- C++ -*----------------------------------*\
| =========                 |                                                 |
| \\      /  F ield         | OpenFOAM: The Open Source CFD Toolbox           |
|  \\    /   O peration     | Version:  v1812                                 |
|   \\  /    A nd           | Web:      www.OpenFOAM.com                      |
|    \\/     M anipulation  |                                                 |
\*---------------------------------------------------------------------------*/
FoamFile
{
    version     2.0;
    format      ascii;
    class       surfaceScalarField;
    location    "0.002";
    object      phi;
}
// * * * * * * * * * * * * * * * * * * * * * * * * * * * * * * * * * * * * * //

dimensions      [1 0 -1 0 0 0 0];
oriented        oriented;


internalField   nonuniform List<scalar> 
16762
(
0.0423011
-1.38883e-17
0.0423011
-1.78624e-17
0.0423011
-2.01811e-18
0.0423011
-6.66868e-18
0.0423011
-1.65522e-18
0.0423011
-9.28368e-18
0.0423011
-4.24977e-17
0.0423011
-3.22156e-17
0.0423011
-2.6322e-17
0.0423011
-2.7972e-17
0.0423011
-1.56061e-17
0.0423011
-3.41208e-17
0.0423011
-3.50166e-17
0.0423011
-3.05414e-17
0.0423011
6.42774e-19
0.0423011
1.0103e-17
0.0423011
5.68319e-17
0.0423011
3.25399e-17
0.0423011
4.36695e-17
0.0423011
6.28387e-17
0.0423011
8.83502e-17
0.0423011
7.06565e-17
0.0423011
9.36937e-17
0.0423011
8.52739e-17
0.0423011
4.46704e-17
0.0423011
6.07828e-17
0.0423011
1.03948e-16
0.0423011
8.0194e-17
0.0423011
9.04606e-17
0.0423011
5.37012e-17
0.0423011
6.4778e-17
0.0423011
3.01609e-16
0.0423011
1.63322e-14
0.0423011
6.49229e-13
0.0423011
8.12183e-11
0.0423011
2.72832e-09
0.0423007
4.05662e-07
1.45878e-05
0.0422862
0.0423011
1.77341e-18
0.0423011
-1.02698e-17
0.0423011
-2.31781e-17
0.0423011
-6.36595e-18
0.0423011
-1.92525e-17
0.0423011
-2.10769e-17
0.0423011
-2.4198e-17
0.0423011
-1.6208e-17
0.0423011
-1.89776e-17
0.0423011
-9.09313e-18
0.0423011
-2.50464e-17
0.0423011
-1.61499e-17
0.0423011
-3.36668e-17
0.0423011
-3.49713e-17
0.0423011
-3.1594e-17
0.0423011
-1.64375e-17
0.0423011
-1.47206e-17
0.0423011
6.51835e-18
0.0423011
1.31758e-17
0.0423011
2.15122e-17
0.0423011
6.22475e-17
0.0423011
5.1494e-17
0.0423011
6.97277e-17
0.0423011
7.35424e-17
0.0423011
8.05802e-17
0.0423011
7.48863e-17
0.0423011
6.70939e-17
0.0423011
7.21192e-17
0.0423011
7.34533e-17
0.0423011
6.91944e-17
0.0423011
8.08321e-17
0.0423011
2.04848e-16
0.0423011
6.33341e-15
0.0423011
5.46002e-13
0.0423011
2.01102e-11
0.0423011
1.56017e-09
0.0423015
4.7749e-08
3.47114e-06
0.0423126
0.0423011
2.0745e-18
0.0423011
3.93752e-18
0.0423011
-3.3952e-18
0.0423011
-1.73188e-17
0.0423011
-2.28574e-17
0.0423011
-1.67334e-17
0.0423011
-1.02389e-17
0.0423011
-7.41224e-18
0.0423011
-1.60553e-17
0.0423011
-1.55281e-17
0.0423011
-2.6514e-17
0.0423011
-4.59232e-17
0.0423011
-3.41274e-17
0.0423011
-2.14853e-17
0.0423011
-5.41714e-18
0.0423011
-1.76212e-17
0.0423011
-2.43585e-17
0.0423011
-2.95783e-17
0.0423011
-8.90732e-18
0.0423011
6.37858e-18
0.0423011
1.59868e-17
0.0423011
4.23246e-17
0.0423011
4.11514e-17
0.0423011
4.95104e-17
0.0423011
4.85749e-17
0.0423011
5.70582e-17
0.0423011
6.97638e-17
0.0423011
7.90611e-17
0.0423011
8.05313e-17
0.0423011
8.48811e-17
0.0423011
6.40804e-17
0.0423011
1.27825e-16
0.0423011
7.1742e-16
0.0423011
1.19891e-13
0.0423011
1.49842e-12
0.0423011
2.23267e-10
0.0423012
2.05063e-09
3.53287e-07
0.0423043
0.0423011
1.90183e-19
0.0423011
-1.8606e-17
0.0423011
6.60511e-18
0.0423011
6.52926e-18
0.0423011
4.84101e-20
0.0423011
-2.93506e-17
0.0423011
-2.7656e-17
0.0423011
-2.54237e-17
0.0423011
-2.57735e-17
0.0423011
-2.82941e-17
0.0423011
-2.25876e-17
0.0423011
-1.51004e-17
0.0423011
5.19953e-18
0.0423011
7.18803e-18
0.0423011
-1.4105e-17
0.0423011
8.35405e-18
0.0423011
-3.76562e-17
0.0423011
-1.43108e-17
0.0423011
-6.63632e-19
0.0423011
-6.44427e-18
0.0423011
-2.70668e-17
0.0423011
-5.99264e-18
0.0423011
-3.02183e-18
0.0423011
-6.10841e-18
0.0423011
2.14227e-17
0.0423011
4.25996e-17
0.0423011
5.67319e-17
0.0423011
5.05414e-17
0.0423011
5.20032e-17
0.0423011
6.13994e-17
0.0423011
4.21189e-17
0.0423011
7.07435e-17
0.0423011
4.52273e-17
0.0423011
1.14539e-14
0.0423011
3.26899e-14
0.0423011
1.55037e-11
0.0423011
3.91447e-11
2.09698e-08
0.0423015
0.0423011
9.68039e-18
0.0423011
1.93608e-17
0.0423011
-1.59639e-17
0.0423011
5.94976e-18
0.0423011
-3.86195e-19
0.0423011
1.58916e-17
0.0423011
-1.2425e-17
0.0423011
-3.17082e-17
0.0423011
-2.50353e-17
0.0423011
4.65733e-18
0.0423011
-7.64101e-18
0.0423011
-3.94419e-18
0.0423011
-1.58125e-17
0.0423011
-1.36618e-17
0.0423011
-3.34411e-17
0.0423011
-4.77572e-17
0.0423011
-2.70281e-17
0.0423011
-5.00638e-17
0.0423011
-5.092e-17
0.0423011
-5.03858e-17
0.0423011
-1.04304e-17
0.0423011
8.75012e-18
0.0423011
-9.53487e-18
0.0423011
-7.72516e-19
0.0423011
-2.49229e-17
0.0423011
6.13301e-18
0.0423011
3.61338e-17
0.0423011
4.04068e-17
0.0423011
4.15035e-17
0.0423011
3.04874e-18
0.0423011
4.67107e-17
0.0423011
7.37337e-17
0.0423011
1.71399e-17
0.0423011
5.44566e-16
0.0423011
1.08295e-16
0.0423011
6.30111e-13
0.0423011
7.48571e-13
8.43374e-10
0.0423011
0.0423011
-9.49129e-18
0.0423011
-1.9488e-18
0.0423011
4.68991e-18
0.0423011
5.04609e-18
0.0423011
4.31222e-17
0.0423011
1.44532e-17
0.0423011
5.16938e-18
0.0423011
4.46354e-18
0.0423011
2.79422e-17
0.0423011
-1.81593e-17
0.0423011
-2.21426e-18
0.0423011
-1.41676e-17
0.0423011
-4.11374e-17
0.0423011
-4.30314e-17
0.0423011
-1.17887e-17
0.0423011
-1.28822e-17
0.0423011
-1.1779e-17
0.0423011
-4.59004e-18
0.0423011
-2.12045e-17
0.0423011
-3.64569e-17
0.0423011
-4.23133e-17
0.0423011
-2.28359e-17
0.0423011
5.78039e-18
0.0423011
4.22173e-18
0.0423011
-7.75568e-18
0.0423011
-2.18687e-17
0.0423011
-1.56786e-17
0.0423011
2.22248e-17
0.0423011
2.18666e-17
0.0423011
3.83577e-17
0.0423011
2.58041e-17
0.0423011
1.24199e-17
0.0423011
2.48882e-17
0.0423011
2.20234e-17
0.0423011
-4.75348e-17
0.0423011
1.73959e-14
0.0423011
2.2115e-14
2.51283e-11
0.0423011
0.0423011
-6.53867e-18
0.0423011
-9.05013e-18
0.0423011
-9.75791e-18
0.0423011
1.25565e-17
0.0423011
4.51173e-18
0.0423011
9.46261e-18
0.0423011
5.16791e-18
0.0423011
-1.40643e-18
0.0423011
-5.01132e-18
0.0423011
1.47156e-17
0.0423011
3.6044e-18
0.0423011
-1.89354e-17
0.0423011
-2.41075e-18
0.0423011
-9.6662e-18
0.0423011
-8.95077e-18
0.0423011
-4.59953e-17
0.0423011
-5.24759e-18
0.0423011
-1.24527e-18
0.0423011
-2.72529e-19
0.0423011
-2.95433e-17
0.0423011
-2.25457e-17
0.0423011
-2.29309e-17
0.0423011
-2.20961e-17
0.0423011
-4.59254e-17
0.0423011
-1.32954e-17
0.0423011
4.20936e-18
0.0423011
6.54829e-19
0.0423011
-1.5953e-17
0.0423011
-1.16651e-17
0.0423011
-1.72731e-17
0.0423011
1.81431e-18
0.0423011
6.11937e-18
0.0423011
5.38276e-18
0.0423011
-1.2697e-17
0.0423011
-3.16138e-17
0.0423011
2.80482e-16
0.0423011
3.80076e-16
6.04325e-13
0.0423011
0.0423011
4.68878e-18
0.0423011
3.86386e-18
0.0423011
1.67036e-17
0.0423011
3.22235e-18
0.0423011
-2.08624e-17
0.0423011
-1.11833e-17
0.0423011
-3.13944e-18
0.0423011
1.51281e-17
0.0423011
9.80077e-18
0.0423011
3.16673e-18
0.0423011
8.00038e-18
0.0423011
3.5494e-18
0.0423011
6.33418e-18
0.0423011
-1.58879e-18
0.0423011
-9.13712e-18
0.0423011
1.77744e-17
0.0423011
-9.64115e-18
0.0423011
2.27429e-18
0.0423011
-5.11963e-18
0.0423011
2.12028e-18
0.0423011
1.83876e-18
0.0423011
-3.06269e-17
0.0423011
-3.10321e-17
0.0423011
-2.90062e-17
0.0423011
-2.29482e-17
0.0423011
-1.81883e-17
0.0423011
1.24053e-17
0.0423011
-8.53775e-18
0.0423011
-1.87461e-17
0.0423011
-2.6223e-17
0.0423011
-2.28824e-17
0.0423011
-2.73111e-17
0.0423011
-2.89349e-17
0.0423011
2.83157e-18
0.0423011
-2.35697e-17
0.0423011
-2.9182e-17
0.0423011
-3.33242e-17
1.28528e-14
0.0423011
0.0423011
9.81951e-18
0.0423011
1.22723e-17
0.0423011
-1.15978e-17
0.0423011
-7.3087e-18
0.0423011
-1.4123e-17
0.0423011
-9.85897e-18
0.0423011
1.5405e-17
0.0423011
1.28691e-17
0.0423011
9.61607e-18
0.0423011
1.17921e-18
0.0423011
1.24118e-17
0.0423011
1.38576e-17
0.0423011
1.01888e-17
0.0423011
6.44472e-18
0.0423011
4.77693e-18
0.0423011
-6.40169e-18
0.0423011
1.20318e-17
0.0423011
9.12615e-18
0.0423011
1.13385e-17
0.0423011
6.60094e-18
0.0423011
-4.68357e-18
0.0423011
-1.24656e-17
0.0423011
-5.1094e-18
0.0423011
-1.21186e-17
0.0423011
-1.28025e-17
0.0423011
-1.92985e-17
0.0423011
-2.12055e-17
0.0423011
-7.45543e-18
0.0423011
-5.95309e-18
0.0423011
-1.27275e-17
0.0423011
-2.52046e-17
0.0423011
-2.61246e-17
0.0423011
-3.76194e-17
0.0423011
-2.6818e-17
0.0423011
-6.09425e-17
0.0423011
-1.95843e-17
0.0423011
-2.24781e-17
1.99699e-16
0.0423011
0.0423011
3.9231e-19
0.0423011
-3.41195e-17
0.0423011
-8.04595e-18
0.0423011
-1.53049e-17
0.0423011
-2.9971e-18
0.0423011
2.11806e-17
0.0423011
5.98863e-19
0.0423011
4.42768e-18
0.0423011
4.24256e-18
0.0423011
3.49286e-17
0.0423011
1.25784e-17
0.0423011
2.01318e-17
0.0423011
1.39733e-17
0.0423011
9.41418e-18
0.0423011
1.99785e-17
0.0423011
4.00207e-17
0.0423011
1.29337e-17
0.0423011
-3.67793e-18
0.0423011
2.28768e-18
0.0423011
-1.03033e-17
0.0423011
-2.13562e-17
0.0423011
-6.23332e-18
0.0423011
-1.75589e-17
0.0423011
2.97232e-18
0.0423011
-6.33447e-18
0.0423011
3.10079e-19
0.0423011
-4.48349e-17
0.0423011
-5.62136e-18
0.0423011
-6.42756e-18
0.0423011
-8.23369e-18
0.0423011
-6.41557e-18
0.0423011
-4.90547e-19
0.0423011
-4.68281e-19
0.0423011
-2.09203e-18
0.0423011
8.54305e-18
0.0423011
-1.17806e-17
0.0423011
-1.89483e-17
-2.01922e-17
0.0423011
0.0423011
3.20779e-18
0.0423011
1.85079e-17
0.0423011
1.89318e-17
0.0423011
2.08913e-17
0.0423011
1.32658e-17
0.0423011
-2.58201e-19
0.0423011
2.64909e-18
0.0423011
-1.07637e-17
0.0423011
1.48849e-18
0.0423011
-2.33538e-17
0.0423011
-3.13158e-18
0.0423011
-9.43836e-18
0.0423011
-4.21023e-18
0.0423011
2.06846e-17
0.0423011
6.59411e-18
0.0423011
-1.12374e-17
0.0423011
-2.19179e-18
0.0423011
8.16769e-18
0.0423011
6.25102e-18
0.0423011
8.55499e-18
0.0423011
-5.29825e-19
0.0423011
-2.96821e-18
0.0423011
7.67322e-18
0.0423011
-2.06679e-19
0.0423011
2.38008e-17
0.0423011
-1.29033e-17
0.0423011
-4.85415e-18
0.0423011
-8.83678e-18
0.0423011
-1.40831e-17
0.0423011
-1.04837e-17
0.0423011
4.24193e-18
0.0423011
3.65931e-18
0.0423011
-2.29602e-17
0.0423011
-2.63824e-17
0.0423011
-2.40083e-18
0.0423011
-3.60805e-17
0.0423011
-8.43114e-18
-2.04978e-17
0.0423011
0.0423011
-7.29223e-18
0.0423011
7.64623e-18
0.0423011
7.03936e-18
0.0423011
1.66611e-18
0.0423011
2.86631e-17
0.0423011
7.17041e-18
0.0423011
3.08216e-19
0.0423011
-1.19765e-18
0.0423011
-2.0996e-17
0.0423011
-1.05446e-17
0.0423011
-6.85777e-18
0.0423011
9.38188e-18
0.0423011
-6.40848e-18
0.0423011
-7.25172e-18
0.0423011
-1.26087e-18
0.0423011
9.76961e-18
0.0423011
6.97755e-18
0.0423011
2.2828e-18
0.0423011
-1.84878e-18
0.0423011
2.09955e-17
0.0423011
1.47852e-17
0.0423011
2.90822e-18
0.0423011
-1.36725e-17
0.0423011
2.64724e-18
0.0423011
-5.14271e-18
0.0423011
2.75381e-18
0.0423011
9.98939e-18
0.0423011
-8.14568e-18
0.0423011
1.00216e-17
0.0423011
7.63749e-18
0.0423011
-7.71226e-18
0.0423011
-1.25e-17
0.0423011
-2.59116e-18
0.0423011
1.27258e-17
0.0423011
-1.22367e-17
0.0423011
-3.90849e-18
0.0423011
-3.18392e-17
-3.51003e-18
0.0423011
0.0423011
5.34854e-18
0.0423011
-3.62073e-18
0.0423011
1.78107e-17
0.0423011
1.32428e-17
0.0423011
-1.25213e-17
0.0423011
1.76424e-17
0.0423011
2.02306e-17
0.0423011
-1.75628e-17
0.0423011
-6.96997e-18
0.0423011
-1.1643e-17
0.0423011
-1.07793e-17
0.0423011
-1.53809e-18
0.0423011
1.56987e-17
0.0423011
-8.26083e-18
0.0423011
2.08283e-17
0.0423011
1.83985e-17
0.0423011
1.22337e-17
0.0423011
1.15678e-17
0.0423011
-1.08395e-17
0.0423011
-3.19506e-17
0.0423011
-1.91295e-17
0.0423011
2.98534e-18
0.0423011
-8.25269e-18
0.0423011
-1.09547e-17
0.0423011
-6.04511e-18
0.0423011
3.92811e-19
0.0423011
-6.6978e-18
0.0423011
-1.26058e-17
0.0423011
-1.22378e-17
0.0423011
-1.33756e-17
0.0423011
-4.70353e-18
0.0423011
-1.14496e-17
0.0423011
1.77059e-17
0.0423011
1.95498e-18
0.0423011
2.96037e-17
0.0423011
2.48048e-17
0.0423011
-1.09665e-17
-1.58275e-17
0.0423011
0.0423011
-1.51402e-18
0.0423011
-2.32272e-17
0.0423011
-3.90784e-17
0.0423011
-1.78523e-17
0.0423011
-4.43584e-18
0.0423011
-1.19516e-17
0.0423011
-4.30655e-17
0.0423011
-1.78331e-17
0.0423011
-2.44425e-18
0.0423011
-1.67961e-17
0.0423011
-1.70918e-17
0.0423011
-5.94197e-18
0.0423011
8.10373e-18
0.0423011
1.19728e-17
0.0423011
3.08948e-17
0.0423011
1.41542e-17
0.0423011
1.02812e-17
0.0423011
-9.30296e-18
0.0423011
-3.34299e-17
0.0423011
-1.57744e-17
0.0423011
-5.75206e-18
0.0423011
-6.1852e-18
0.0423011
1.32729e-17
0.0423011
2.95174e-18
0.0423011
7.93163e-19
0.0423011
-9.56792e-18
0.0423011
-1.09139e-17
0.0423011
-2.77518e-18
0.0423011
-1.96431e-17
0.0423011
-4.02192e-17
0.0423011
-1.49314e-17
0.0423011
2.68121e-18
0.0423011
-1.29507e-17
0.0423011
-1.12058e-17
0.0423011
-5.88068e-19
0.0423011
2.08864e-18
0.0423011
2.92167e-17
9.26459e-18
0.0423011
0.0423011
-1.46978e-17
0.0423011
-5.69986e-18
0.0423011
3.16361e-18
0.0423011
-9.78768e-19
0.0423011
3.79995e-18
0.0423011
-6.88172e-18
0.0423011
-7.72726e-18
0.0423011
-1.01566e-17
0.0423011
-1.24057e-17
0.0423011
7.71174e-18
0.0423011
-9.68604e-18
0.0423011
-1.56157e-17
0.0423011
-1.73128e-17
0.0423011
-7.99747e-18
0.0423011
-1.7217e-17
0.0423011
1.71872e-18
0.0423011
-1.84735e-18
0.0423011
1.73917e-18
0.0423011
-8.39978e-18
0.0423011
-6.41652e-18
0.0423011
2.42611e-18
0.0423011
-1.58102e-17
0.0423011
-9.50797e-18
0.0423011
1.05784e-17
0.0423011
-2.38616e-17
0.0423011
-6.47846e-18
0.0423011
-1.40642e-17
0.0423011
5.55026e-18
0.0423011
-1.51105e-17
0.0423011
-1.12182e-17
0.0423011
-6.15913e-18
0.0423011
-1.95026e-18
0.0423011
-7.25932e-19
0.0423011
-2.77243e-18
0.0423011
-4.05468e-18
0.0423011
-3.6619e-18
0.0423011
6.06061e-18
6.34105e-18
0.0423011
0.0423011
8.26095e-18
0.0423011
6.01598e-19
0.0423011
-2.19215e-17
0.0423011
-2.50706e-17
0.0423011
-2.6692e-17
0.0423011
-1.59504e-17
0.0423011
4.66154e-18
0.0423011
-4.28393e-18
0.0423011
-1.15428e-17
0.0423011
-8.68602e-18
0.0423011
-8.5883e-18
0.0423011
-2.00402e-18
0.0423011
-1.41195e-17
0.0423011
-3.60492e-18
0.0423011
-1.86462e-17
0.0423011
-2.25973e-17
0.0423011
-1.80159e-17
0.0423011
-2.58441e-17
0.0423011
3.64833e-18
0.0423011
-1.12109e-18
0.0423011
-4.81638e-18
0.0423011
-2.2019e-17
0.0423011
-3.66286e-17
0.0423011
-1.76025e-17
0.0423011
-8.18828e-18
0.0423011
1.3388e-17
0.0423011
3.43359e-19
0.0423011
-2.30361e-17
0.0423011
-3.37153e-17
0.0423011
-1.30362e-17
0.0423011
-1.67615e-17
0.0423011
-5.44301e-18
0.0423011
3.39709e-18
0.0423011
-2.74062e-18
0.0423011
4.73563e-18
0.0423011
8.15506e-18
0.0423011
2.6687e-18
1.27126e-18
0.0423011
0.0423011
2.36314e-18
0.0423011
-3.44537e-18
0.0423011
1.54387e-18
0.0423011
-1.12838e-17
0.0423011
-6.56968e-18
0.0423011
-9.57959e-18
0.0423011
-4.03879e-18
0.0423011
1.47062e-17
0.0423011
1.51492e-19
0.0423011
-4.64238e-18
0.0423011
-3.98978e-18
0.0423011
-7.49877e-18
0.0423011
9.87188e-18
0.0423011
-4.52718e-18
0.0423011
1.79306e-17
0.0423011
9.18729e-18
0.0423011
-1.33622e-19
0.0423011
4.58694e-18
0.0423011
-3.30222e-18
0.0423011
-8.44056e-18
0.0423011
-8.82616e-18
0.0423011
2.63673e-18
0.0423011
-1.30153e-17
0.0423011
-2.08126e-17
0.0423011
-9.83906e-18
0.0423011
-1.36168e-17
0.0423011
-1.30767e-17
0.0423011
-2.76207e-17
0.0423011
-7.31173e-18
0.0423011
1.33412e-17
0.0423011
-3.10308e-18
0.0423011
-2.54968e-18
0.0423011
1.23896e-17
0.0423011
1.91578e-17
0.0423011
9.56571e-18
0.0423011
5.9405e-18
0.0423011
6.79615e-18
2.35683e-17
0.0423011
0.0423011
4.75535e-19
0.0423011
-3.10518e-18
0.0423011
6.75524e-19
0.0423011
-7.39254e-18
0.0423011
2.24802e-18
0.0423011
2.79664e-18
0.0423011
1.50044e-18
0.0423011
-2.04609e-17
0.0423011
-9.10283e-18
0.0423011
-8.33904e-18
0.0423011
1.83043e-18
0.0423011
-9.57442e-18
0.0423011
-2.22714e-17
0.0423011
-2.73998e-17
0.0423011
-2.3401e-17
0.0423011
-7.30667e-18
0.0423011
-3.1328e-17
0.0423011
-1.1957e-17
0.0423011
-5.06034e-18
0.0423011
-7.62097e-18
0.0423011
-2.32417e-18
0.0423011
-1.29133e-17
0.0423011
-2.05569e-17
0.0423011
-2.05833e-17
0.0423011
-1.90154e-17
0.0423011
-2.42239e-17
0.0423011
-3.13882e-17
0.0423011
1.98962e-17
0.0423011
1.7638e-17
0.0423011
-2.27431e-19
0.0423011
4.13852e-18
0.0423011
4.58127e-18
0.0423011
5.84687e-18
0.0423011
1.15574e-17
0.0423011
2.74154e-17
0.0423011
3.04383e-17
0.0423011
3.33603e-17
2.74278e-17
0.0423011
0.0423011
4.82211e-18
0.0423011
-1.40651e-18
0.0423011
-1.89663e-18
0.0423011
2.31847e-17
0.0423011
2.74816e-17
0.0423011
1.90987e-17
0.0423011
-1.0509e-17
0.0423011
9.21478e-18
0.0423011
-9.21835e-18
0.0423011
-4.68716e-18
0.0423011
-1.5593e-17
0.0423011
-2.53272e-17
0.0423011
-2.80438e-17
0.0423011
-2.49636e-17
0.0423011
-1.15994e-17
0.0423011
-2.72104e-17
0.0423011
-1.75009e-17
0.0423011
-7.57808e-18
0.0423011
-1.04912e-17
0.0423011
-3.48001e-18
0.0423011
-2.95753e-17
0.0423011
-7.02365e-18
0.0423011
1.62748e-18
0.0423011
-3.36002e-17
0.0423011
-1.71722e-17
0.0423011
2.11634e-18
0.0423011
1.16958e-17
0.0423011
2.44047e-17
0.0423011
-7.94668e-18
0.0423011
-7.18996e-18
0.0423011
-1.41066e-17
0.0423011
9.40565e-18
0.0423011
-8.17541e-19
0.0423011
1.62762e-17
0.0423011
1.22964e-17
0.0423011
7.8121e-18
0.0423011
2.11735e-17
2.63797e-17
0.0423011
0.0423011
-3.22549e-18
0.0423011
1.15634e-17
0.0423011
3.02936e-17
0.0423011
5.58354e-18
0.0423011
-2.16825e-19
0.0423011
-9.41976e-18
0.0423011
-7.19928e-19
0.0423011
-2.03808e-17
0.0423011
4.02498e-18
0.0423011
-2.87004e-18
0.0423011
-1.44721e-17
0.0423011
4.56487e-18
0.0423011
-4.66834e-18
0.0423011
-2.83721e-17
0.0423011
-2.72371e-17
0.0423011
-6.45827e-17
0.0423011
-1.78502e-17
0.0423011
5.6468e-18
0.0423011
2.49412e-18
0.0423011
-1.19039e-17
0.0423011
2.90357e-17
0.0423011
-2.13342e-17
0.0423011
-6.10252e-18
0.0423011
9.39475e-20
0.0423011
-2.40583e-18
0.0423011
-2.63285e-17
0.0423011
-2.78917e-18
0.0423011
-1.12606e-17
0.0423011
-2.33797e-19
0.0423011
4.60758e-18
0.0423011
8.41351e-18
0.0423011
1.88831e-18
0.0423011
-8.2229e-18
0.0423011
6.20947e-18
0.0423011
1.6513e-17
0.0423011
4.04043e-17
0.0423011
3.90809e-17
2.7101e-17
0.0423011
0.0423011
-6.56684e-18
0.0423011
4.65665e-18
0.0423011
1.36094e-18
0.0423011
4.48182e-18
0.0423011
2.22258e-17
0.0423011
5.82855e-18
0.0423011
5.28139e-18
0.0423011
-3.89815e-18
0.0423011
-1.62398e-18
0.0423011
-6.35268e-18
0.0423011
-3.5039e-18
0.0423011
-2.22837e-17
0.0423011
5.68843e-18
0.0423011
-1.24129e-17
0.0423011
-2.53914e-17
0.0423011
-2.79198e-17
0.0423011
-2.09086e-17
0.0423011
-7.8009e-18
0.0423011
-1.83408e-19
0.0423011
3.24449e-17
0.0423011
6.13582e-18
0.0423011
5.64333e-18
0.0423011
2.25955e-18
0.0423011
4.49271e-18
0.0423011
3.54782e-18
0.0423011
-7.35312e-18
0.0423011
-6.63125e-18
0.0423011
2.91425e-18
0.0423011
-6.02167e-18
0.0423011
1.73325e-17
0.0423011
6.68057e-18
0.0423011
1.73014e-17
0.0423011
1.26088e-17
0.0423011
4.40365e-18
0.0423011
7.73055e-18
0.0423011
-3.95423e-18
0.0423011
2.31037e-17
1.91586e-17
0.0423011
0.0423011
9.51028e-18
0.0423011
2.29799e-18
0.0423011
2.15999e-18
0.0423011
-1.47591e-17
0.0423011
-3.96103e-17
0.0423011
-2.94502e-18
0.0423011
-1.16851e-17
0.0423011
7.50264e-18
0.0423011
2.08345e-17
0.0423011
-6.29384e-20
0.0423011
1.55999e-17
0.0423011
5.75197e-18
0.0423011
-1.43073e-18
0.0423011
1.30102e-17
0.0423011
1.13161e-18
0.0423011
-2.70266e-18
0.0423011
-5.61291e-18
0.0423011
-9.40063e-18
0.0423011
-9.76383e-18
0.0423011
-6.03405e-18
0.0423011
1.17099e-17
0.0423011
-3.37228e-18
0.0423011
-1.08479e-17
0.0423011
-9.72433e-18
0.0423011
-1.60881e-17
0.0423011
-1.20903e-19
0.0423011
2.50498e-17
0.0423011
1.37039e-17
0.0423011
1.86883e-17
0.0423011
-3.08768e-17
0.0423011
-3.28334e-17
0.0423011
-5.99599e-18
0.0423011
-1.48234e-17
0.0423011
8.399e-18
0.0423011
2.62126e-17
0.0423011
3.32457e-17
0.0423011
1.31715e-17
2.44373e-17
0.0423011
0.0423011
-1.128e-17
0.0423011
-2.78553e-17
0.0423011
-7.95385e-18
0.0423011
-3.14834e-18
0.0423011
-1.41531e-17
0.0423011
-2.21533e-17
0.0423011
-8.57701e-18
0.0423011
2.55768e-18
0.0423011
-4.65714e-20
0.0423011
2.14617e-18
0.0423011
1.88136e-18
0.0423011
1.35935e-17
0.0423011
1.445e-18
0.0423011
2.68645e-17
0.0423011
1.64276e-17
0.0423011
3.53869e-17
0.0423011
4.65366e-17
0.0423011
7.30015e-18
0.0423011
-2.70206e-17
0.0423011
-1.49589e-18
0.0423011
-2.14411e-18
0.0423011
1.15845e-17
0.0423011
9.2182e-18
0.0423011
5.64927e-18
0.0423011
1.29516e-18
0.0423011
-1.47626e-17
0.0423011
-2.46555e-17
0.0423011
-2.12909e-17
0.0423011
3.63551e-18
0.0423011
-6.49249e-19
0.0423011
1.76884e-17
0.0423011
7.40517e-18
0.0423011
3.5025e-17
0.0423011
1.68558e-17
0.0423011
2.2958e-17
0.0423011
5.38819e-18
0.0423011
8.55433e-18
1.1379e-18
0.0423011
0.0423011
9.73868e-18
0.0423011
-9.11695e-18
0.0423011
-4.86473e-18
0.0423011
-7.36201e-18
0.0423011
2.65663e-19
0.0423011
-1.44361e-17
0.0423011
-8.65733e-18
0.0423011
-2.85789e-17
0.0423011
2.20138e-18
0.0423011
6.92069e-18
0.0423011
4.54746e-18
0.0423011
-7.67343e-18
0.0423011
1.57e-17
0.0423011
-2.82068e-18
0.0423011
2.21213e-17
0.0423011
6.37528e-17
0.0423011
1.38144e-17
0.0423011
2.05954e-17
0.0423011
3.63817e-17
0.0423011
1.36399e-17
0.0423011
1.00374e-17
0.0423011
1.08186e-17
0.0423011
1.83802e-17
0.0423011
1.78667e-17
0.0423011
1.15033e-17
0.0423011
-4.15537e-18
0.0423011
-2.01449e-18
0.0423011
-8.08851e-18
0.0423011
2.47849e-18
0.0423011
-1.74835e-18
0.0423011
2.39976e-17
0.0423011
2.0404e-17
0.0423011
1.21806e-17
0.0423011
1.58076e-17
0.0423011
-3.22139e-18
0.0423011
2.10087e-17
0.0423011
-1.62131e-18
-2.2557e-17
0.0423011
0.0423011
-1.23663e-18
0.0423011
-1.19566e-17
0.0423011
-4.03379e-17
0.0423011
-1.90288e-17
0.0423011
2.87461e-18
0.0423011
8.92202e-19
0.0423011
-1.96306e-18
0.0423011
3.01784e-18
0.0423011
-2.82206e-18
0.0423011
9.84468e-18
0.0423011
1.23651e-17
0.0423011
-4.51066e-18
0.0423011
-1.52432e-17
0.0423011
-7.95849e-18
0.0423011
5.11124e-18
0.0423011
8.02085e-18
0.0423011
1.45508e-17
0.0423011
2.00245e-17
0.0423011
1.6532e-17
0.0423011
1.6619e-17
0.0423011
1.53006e-17
0.0423011
1.22877e-17
0.0423011
1.19938e-17
0.0423011
-5.83534e-18
0.0423011
4.69278e-18
0.0423011
9.86491e-18
0.0423011
3.51819e-18
0.0423011
5.18799e-18
0.0423011
-3.26954e-18
0.0423011
1.35059e-17
0.0423011
1.24606e-17
0.0423011
4.77918e-18
0.0423011
1.45297e-17
0.0423011
1.50254e-17
0.0423011
-1.4522e-17
0.0423011
-1.8542e-17
0.0423011
-3.04298e-18
2.54661e-17
0.0423011
0.0423011
8.59445e-18
0.0423011
8.75892e-18
0.0423011
2.0647e-17
0.0423011
-4.19295e-20
0.0423011
-9.16863e-18
0.0423011
8.46257e-18
0.0423011
-1.98576e-18
0.0423011
1.5811e-17
0.0423011
5.8663e-18
0.0423011
1.71814e-18
0.0423011
-2.96747e-17
0.0423011
-1.52256e-17
0.0423011
-2.75108e-18
0.0423011
-4.3938e-18
0.0423011
2.43844e-18
0.0423011
1.35402e-17
0.0423011
2.427e-17
0.0423011
1.08505e-17
0.0423011
-1.23539e-18
0.0423011
-6.6596e-19
0.0423011
5.97587e-19
0.0423011
1.27323e-18
0.0423011
7.16123e-18
0.0423011
-6.56525e-18
0.0423011
-4.37427e-18
0.0423011
-1.7489e-17
0.0423011
-2.73208e-17
0.0423011
-9.45256e-18
0.0423011
-3.33218e-17
0.0423011
2.82948e-18
0.0423011
1.40402e-17
0.0423011
4.20518e-18
0.0423011
6.07611e-18
0.0423011
1.08497e-17
0.0423011
2.39466e-17
0.0423011
5.28803e-18
0.0423011
-4.63306e-18
-3.93747e-18
0.0423011
0.0423011
-8.34426e-18
0.0423011
-5.87102e-18
0.0423011
-3.88588e-18
0.0423011
4.16046e-18
0.0423011
-2.99229e-18
0.0423011
1.05435e-17
0.0423011
2.52231e-17
0.0423011
-1.40477e-17
0.0423011
2.82936e-18
0.0423011
6.48931e-18
0.0423011
1.45205e-17
0.0423011
9.9016e-18
0.0423011
1.96534e-17
0.0423011
1.49611e-17
0.0423011
2.57013e-17
0.0423011
1.20024e-17
0.0423011
1.29844e-17
0.0423011
2.72571e-17
0.0423011
2.54462e-17
0.0423011
2.76432e-17
0.0423011
1.70208e-17
0.0423011
1.7492e-17
0.0423011
-2.67446e-18
0.0423011
1.84172e-17
0.0423011
1.60159e-17
0.0423011
1.87172e-17
0.0423011
1.80704e-17
0.0423011
9.63797e-20
0.0423011
1.61028e-17
0.0423011
-1.61808e-17
0.0423011
-2.04743e-17
0.0423011
-1.50379e-17
0.0423011
-2.05073e-17
0.0423011
-7.10098e-18
0.0423011
-3.82677e-18
0.0423011
1.09464e-17
0.0423011
9.67039e-18
4.00707e-18
0.0423011
0.0423011
8.98456e-18
0.0423011
-1.57995e-17
0.0423011
5.13412e-18
0.0423011
1.80677e-17
0.0423011
1.95191e-17
0.0423011
1.95706e-17
0.0423011
9.97588e-18
0.0423011
1.92812e-17
0.0423011
-3.46221e-18
0.0423011
-3.4879e-18
0.0423011
9.07982e-18
0.0423011
1.02102e-17
0.0423011
3.86266e-18
0.0423011
2.74693e-17
0.0423011
3.99653e-17
0.0423011
2.70704e-17
0.0423011
-3.23449e-19
0.0423011
-2.45353e-17
0.0423011
4.02202e-18
0.0423011
1.51085e-17
0.0423011
1.87414e-17
0.0423011
3.10279e-17
0.0423011
2.95793e-17
0.0423011
1.87468e-17
0.0423011
8.445e-18
0.0423011
-1.06614e-17
0.0423011
1.10023e-17
0.0423011
-9.71715e-18
0.0423011
-2.2877e-17
0.0423011
-3.40898e-17
0.0423011
-1.16624e-17
0.0423011
-1.98265e-17
0.0423011
-4.42357e-18
0.0423011
-3.1839e-18
0.0423011
1.62761e-17
0.0423011
1.15156e-17
0.0423011
7.34283e-19
1.53489e-18
0.0423011
0.0423011
7.52356e-19
0.0423011
2.01961e-17
0.0423011
2.00021e-17
0.0423011
2.17222e-17
0.0423011
2.15201e-17
0.0423011
2.7182e-17
0.0423011
1.86894e-17
0.0423011
2.05074e-17
0.0423011
2.29226e-17
0.0423011
2.01415e-17
0.0423011
4.1852e-18
0.0423011
7.25158e-18
0.0423011
3.3204e-17
0.0423011
7.77582e-18
0.0423011
4.19735e-18
0.0423011
6.35719e-18
0.0423011
-1.02573e-17
0.0423011
-2.02056e-18
0.0423011
8.82212e-18
0.0423011
3.17739e-17
0.0423011
1.90618e-17
0.0423011
1.06283e-17
0.0423011
1.01426e-17
0.0423011
1.36826e-17
0.0423011
7.90973e-18
0.0423011
8.66861e-18
0.0423011
-5.81222e-18
0.0423011
-1.78758e-18
0.0423011
1.06986e-17
0.0423011
4.12244e-18
0.0423011
-1.67465e-17
0.0423011
-3.5417e-18
0.0423011
3.16183e-18
0.0423011
4.72091e-18
0.0423011
-1.19672e-17
0.0423011
8.14712e-18
0.0423011
2.76402e-18
9.4383e-18
0.0423011
0.0423011
1.84841e-17
0.0423011
4.43331e-18
0.0423011
5.67849e-19
0.0423011
9.11861e-18
0.0423011
2.03754e-18
0.0423011
1.67335e-18
0.0423011
3.67567e-17
0.0423011
2.82477e-18
0.0423011
4.7413e-18
0.0423011
-4.70282e-18
0.0423011
2.16574e-17
0.0423011
2.23791e-17
0.0423011
1.51263e-18
0.0423011
-1.64702e-17
0.0423011
-1.03347e-17
0.0423011
-2.68076e-17
0.0423011
-2.09454e-17
0.0423011
-3.74042e-18
0.0423011
1.27762e-17
0.0423011
-6.71168e-18
0.0423011
-5.19878e-18
0.0423011
1.41054e-17
0.0423011
6.63538e-19
0.0423011
2.56812e-17
0.0423011
2.77685e-18
0.0423011
1.6475e-17
0.0423011
-1.27783e-19
0.0423011
4.7182e-18
0.0423011
-1.17732e-17
0.0423011
-2.51681e-18
0.0423011
6.78533e-18
0.0423011
1.20179e-17
0.0423011
1.61985e-17
0.0423011
1.74174e-19
0.0423011
8.67234e-18
0.0423011
7.41794e-18
0.0423011
1.13619e-17
5.54026e-18
0.0423011
0.0423011
1.5402e-18
0.0423011
-1.71274e-17
0.0423011
-1.04087e-18
0.0423011
-2.30806e-18
0.0423011
4.03573e-18
0.0423011
7.86672e-18
0.0423011
7.60582e-18
0.0423011
9.3638e-18
0.0423011
2.13169e-17
0.0423011
6.3769e-18
0.0423011
4.06974e-18
0.0423011
7.52426e-18
0.0423011
2.59489e-17
0.0423011
2.76288e-17
0.0423011
-5.08645e-19
0.0423011
-1.52329e-17
0.0423011
-3.31635e-17
0.0423011
-2.54194e-17
0.0423011
-1.4625e-17
0.0423011
2.42966e-17
0.0423011
1.57762e-17
0.0423011
5.62783e-18
0.0423011
1.3957e-17
0.0423011
1.1105e-17
0.0423011
9.67747e-18
0.0423011
3.47931e-18
0.0423011
-2.98615e-18
0.0423011
1.26136e-17
0.0423011
4.72743e-18
0.0423011
7.62033e-18
0.0423011
5.85203e-18
0.0423011
2.46517e-17
0.0423011
1.18849e-17
0.0423011
1.81264e-17
0.0423011
2.52352e-18
0.0423011
-7.66832e-18
0.0423011
1.05235e-17
1.58534e-17
0.0423011
0.0423011
-3.38707e-18
0.0423011
3.28663e-17
0.0423011
1.42851e-17
0.0423011
1.31122e-17
0.0423011
-1.62913e-18
0.0423011
-2.97432e-18
0.0423011
-2.15537e-17
0.0423011
2.60249e-18
0.0423011
-1.36719e-17
0.0423011
-5.82005e-18
0.0423011
1.00798e-17
0.0423011
4.1982e-19
0.0423011
6.2804e-18
0.0423011
3.75338e-17
0.0423011
3.15359e-17
0.0423011
2.81109e-17
0.0423011
8.85473e-18
0.0423011
-6.95954e-18
0.0423011
-3.55635e-17
0.0423011
-3.78372e-17
0.0423011
-2.43764e-17
0.0423011
-3.944e-17
0.0423011
1.04249e-17
0.0423011
5.71514e-18
0.0423011
2.84225e-17
0.0423011
1.81885e-17
0.0423011
-4.91375e-19
0.0423011
-2.76166e-18
0.0423011
-1.26065e-17
0.0423011
-8.3313e-19
0.0423011
2.14475e-17
0.0423011
-1.13214e-18
0.0423011
-6.74797e-18
0.0423011
7.17084e-19
0.0423011
-7.07707e-18
0.0423011
1.16812e-18
0.0423011
2.04902e-18
1.09926e-17
0.0423011
0.0423011
-6.9709e-18
0.0423011
-1.23891e-17
0.0423011
-1.06472e-17
0.0423011
-1.00003e-17
0.0423011
-3.44156e-18
0.0423011
-3.37838e-19
0.0423011
-7.00393e-18
0.0423011
-1.77118e-17
0.0423011
-2.26841e-18
0.0423011
-1.71413e-18
0.0423011
-4.51519e-18
0.0423011
-1.79135e-18
0.0423011
1.37908e-17
0.0423011
5.90995e-18
0.0423011
1.59225e-17
0.0423011
2.11607e-17
0.0423011
1.38364e-17
0.0423011
1.49975e-17
0.0423011
7.79653e-18
0.0423011
2.10591e-18
0.0423011
-1.61397e-17
0.0423011
-4.83837e-18
0.0423011
-9.66226e-18
0.0423011
1.1967e-17
0.0423011
-2.2513e-18
0.0423011
-1.1704e-17
0.0423011
9.3643e-18
0.0423011
-3.40704e-18
0.0423011
1.71056e-17
0.0423011
4.00647e-17
0.0423011
4.4707e-17
0.0423011
2.11538e-17
0.0423011
8.80232e-18
0.0423011
8.12474e-18
0.0423011
5.92894e-18
0.0423011
9.87203e-18
0.0423011
8.52451e-18
-1.83936e-17
0.0423011
0.0423011
-1.9864e-18
0.0423011
-5.74987e-18
0.0423011
7.15338e-18
0.0423011
2.86981e-19
0.0423011
2.61724e-18
0.0423011
-1.01718e-17
0.0423011
-6.29272e-18
0.0423011
-6.39206e-18
0.0423011
-1.44765e-17
0.0423011
8.37808e-18
0.0423011
4.88929e-18
0.0423011
9.95731e-18
0.0423011
4.90643e-19
0.0423011
9.58519e-18
0.0423011
-5.0757e-18
0.0423011
-5.8181e-18
0.0423011
-4.994e-18
0.0423011
-3.97954e-19
0.0423011
9.16638e-18
0.0423011
-1.54648e-18
0.0423011
1.20182e-17
0.0423011
-1.9799e-18
0.0423011
-1.85085e-17
0.0423011
-2.70753e-17
0.0423011
1.13361e-17
0.0423011
-1.72273e-17
0.0423011
-1.12689e-17
0.0423011
2.91027e-18
0.0423011
1.13279e-17
0.0423011
6.6476e-18
0.0423011
-2.16148e-17
0.0423011
4.88057e-19
0.0423011
1.35489e-18
0.0423011
-5.01761e-18
0.0423011
7.56767e-19
0.0423011
1.79158e-17
0.0423011
1.07814e-17
1.60565e-17
0.0423011
0.0423011
-1.57425e-17
0.0423011
-1.75832e-17
0.0423011
8.13056e-18
0.0423011
2.38363e-17
0.0423011
2.01053e-17
0.0423011
3.05786e-18
0.0423011
-3.39482e-18
0.0423011
-4.50214e-18
0.0423011