/*--------------------------------*- C++ -*----------------------------------*\
| =========                 |                                                 |
| \\      /  F ield         | OpenFOAM: The Open Source CFD Toolbox           |
|  \\    /   O peration     | Version:  v1812                                 |
|   \\  /    A nd           | Web:      www.OpenFOAM.com                      |
|    \\/     M anipulation  |                                                 |
\*---------------------------------------------------------------------------*/
FoamFile
{
    version     2.0;
    format      ascii;
    class       volVectorField;
    location    "0.002";
    object      U;
}
// * * * * * * * * * * * * * * * * * * * * * * * * * * * * * * * * * * * * * //

dimensions      [0 1 -1 0 0 0 0];


internalField   nonuniform List<vector> 
8475
(
(851.84 -1.10308e-13 0)
(851.84 -1.08262e-13 0)
(851.84 -4.85168e-14 0)
(851.84 -1.59895e-13 0)
(851.84 -4.02234e-14 0)
(851.84 -9.61012e-14 0)
(851.84 -3.06058e-13 0)
(851.84 -4.55466e-13 0)
(851.84 -4.62943e-13 0)
(851.84 -5.40772e-13 0)
(851.84 -5.94116e-13 0)
(851.84 -5.21837e-13 0)
(851.84 -5.82168e-13 0)
(851.84 -6.83933e-13 0)
(851.84 -3.14111e-13 0)
(851.84 1.30906e-13 0)
(851.84 5.56666e-13 0)
(851.84 7.8438e-13 0)
(851.84 9.87654e-13 0)
(851.84 1.2426e-12 0)
(851.84 2.63289e-12 0)
(851.84 2.61849e-12 0)
(851.84 3.20301e-12 0)
(851.84 3.48218e-12 0)
(851.84 3.33611e-12 0)
(851.84 3.13934e-12 0)
(851.84 3.40425e-12 0)
(851.84 2.85861e-12 0)
(851.84 3.8748e-12 0)
(851.84 2.72684e-12 0)
(851.84 2.51904e-12 0)
(851.84 3.30782e-12 0)
(851.84 1.50367e-10 0)
(851.84 -5.88411e-09 0)
(851.84 9.15841e-07 0)
(851.84 -4.27209e-05 0)
(851.832 0.00514063 0)
(851.352 -0.241174 0)
(851.84 -7.17604e-14 0)
(851.84 -2.01191e-13 0)
(851.84 -1.93049e-13 0)
(851.84 -1.743e-13 0)
(851.84 -2.7082e-13 0)
(851.84 -3.84249e-13 0)
(851.84 -7.94068e-13 0)
(851.84 -7.18433e-13 0)
(851.84 -6.41592e-13 0)
(851.84 -6.30198e-13 0)
(851.84 -4.89734e-13 0)
(851.84 -5.88417e-13 0)
(851.84 -6.92952e-13 0)
(851.84 -6.24208e-13 0)
(851.84 -4.60125e-13 0)
(851.84 -3.11549e-13 0)
(851.84 -1.62229e-13 0)
(851.84 2.30061e-13 0)
(851.84 3.98214e-13 0)
(851.84 6.56699e-13 0)
(851.84 1.04811e-12 0)
(851.84 1.09131e-12 0)
(851.84 1.32365e-12 0)
(851.84 1.54517e-12 0)
(851.84 1.57955e-12 0)
(851.84 1.59054e-12 0)
(851.84 1.44796e-12 0)
(851.84 1.49111e-12 0)
(851.84 1.38312e-12 0)
(851.84 1.31114e-12 0)
(851.84 1.26483e-12 0)
(851.84 3.72488e-12 0)
(851.84 1.28635e-10 0)
(851.84 1.21881e-08 0)
(851.84 4.84834e-07 0)
(851.84 4.78264e-05 0)
(851.837 0.00141664 0)
(851.721 0.191192 0)
(851.84 5.65083e-14 0)
(851.84 7.03861e-15 0)
(851.84 -7.57303e-14 0)
(851.84 -1.80007e-13 0)
(851.84 -3.7577e-13 0)
(851.84 -3.38793e-13 0)
(851.84 -2.64528e-13 0)
(851.84 -2.2428e-13 0)
(851.84 -4.21364e-13 0)
(851.84 -2.54996e-13 0)
(851.84 -5.34823e-13 0)
(851.84 -6.66313e-13 0)
(851.84 -7.46491e-13 0)
(851.84 -7.31031e-13 0)
(851.84 -4.82897e-13 0)
(851.84 -4.23412e-13 0)
(851.84 -3.02531e-13 0)
(851.84 -4.57532e-13 0)
(851.84 -1.31272e-13 0)
(851.84 3.05849e-13 0)
(851.84 5.26281e-13 0)
(851.84 8.6645e-13 0)
(851.84 1.07453e-12 0)
(851.84 9.06182e-13 0)
(851.84 9.95737e-13 0)
(851.84 1.25507e-12 0)
(851.84 1.29017e-12 0)
(851.84 1.42622e-12 0)
(851.84 1.54988e-12 0)
(851.84 1.64596e-12 0)
(851.84 1.68581e-12 0)
(851.84 3.48594e-12 0)
(851.84 2.94068e-11 0)
(851.84 6.05131e-09 0)
(851.84 7.57242e-08 0)
(851.84 1.53101e-05 0)
(851.84 0.000156498 0)
(851.823 0.0328648 0)
(851.84 -1.82205e-14 0)
(851.84 -7.5632e-14 0)
(851.84 -1.08621e-13 0)
(851.84 -1.49211e-13 0)
(851.84 -2.74455e-13 0)
(851.84 -3.02682e-13 0)
(851.84 -3.30093e-13 0)
(851.84 -4.08853e-13 0)
(851.84 -3.10145e-13 0)
(851.84 -3.74761e-13 0)
(851.84 -3.75317e-13 0)
(851.84 -4.46295e-13 0)
(851.84 -2.54414e-13 0)
(851.84 -3.12161e-13 0)
(851.84 -2.4243e-13 0)
(851.84 -1.43741e-13 0)
(851.84 -6.68372e-13 0)
(851.84 -5.14431e-13 0)
(851.84 -2.5243e-13 0)
(851.84 1.94675e-14 0)
(851.84 -3.17262e-13 0)
(851.84 -2.00687e-14 0)
(851.84 5.74902e-14 0)
(851.84 1.04529e-13 0)
(851.84 7.86553e-13 0)
(851.84 8.65184e-13 0)
(851.84 1.44061e-12 0)
(851.84 1.21579e-12 0)
(851.84 1.29614e-12 0)
(851.84 1.27421e-12 0)
(851.84 1.08668e-12 0)
(851.84 1.495e-12 0)
(851.84 -1.31469e-12 0)
(851.84 1.17536e-09 0)
(851.84 3.89107e-10 0)
(851.84 2.06629e-06 0)
(851.84 1.72429e-06 0)
(851.839 0.00316258 0)
(851.84 9.89278e-14 0)
(851.84 1.71746e-13 0)
(851.84 1.10497e-13 0)
(851.84 1.71135e-13 0)
(851.84 7.50768e-14 0)
(851.84 -2.21221e-13 0)
(851.84 -2.79886e-13 0)
(851.84 -5.18921e-13 0)
(851.84 -4.85247e-13 0)
(851.84 -3.04963e-13 0)
(851.84 -2.5744e-13 0)
(851.84 -2.44498e-13 0)
(851.84 -2.42582e-13 0)
(851.84 -1.89979e-13 0)
(851.84 -4.14358e-13 0)
(851.84 -5.36315e-13 0)
(851.84 -6.235e-13 0)
(851.84 -7.25512e-13 0)
(851.84 -6.47431e-13 0)
(851.84 -7.31687e-13 0)
(851.84 -3.71602e-13 0)
(851.84 -8.25314e-14 0)
(851.84 -2.3463e-13 0)
(851.84 -1.45201e-13 0)
(851.84 -4.76436e-13 0)
(851.84 5.93662e-13 0)
(851.84 8.01081e-13 0)
(851.84 9.47361e-13 0)
(851.84 9.1299e-13 0)
(851.84 1.14602e-12 0)
(851.84 9.66915e-13 0)
(851.84 1.45164e-12 0)
(851.84 6.39536e-13 0)
(851.84 1.04128e-10 0)
(851.84 -1.87972e-10 0)
(851.84 1.33988e-07 0)
(851.84 -8.60514e-08 0)
(851.84 0.000181832 0)
(851.84 -5.71752e-14 0)
(851.84 1.56586e-14 0)
(851.84 -8.58536e-14 0)
(851.84 2.49492e-14 0)
(851.84 3.2104e-13 0)
(851.84 3.71472e-13 0)
(851.84 8.74868e-14 0)
(851.84 1.37898e-13 0)
(851.84 1.50725e-13 0)
(851.84 -1.04818e-13 0)
(851.84 -1.33866e-13 0)
(851.84 -1.40076e-13 0)
(851.84 -4.25053e-13 0)
(851.84 -3.4308e-13 0)
(851.84 -3.74231e-13 0)
(851.84 -4.44756e-13 0)
(851.84 -4.22122e-13 0)
(851.84 -6.52743e-13 0)
(851.84 -8.33121e-13 0)
(851.84 -8.52358e-13 0)
(851.84 -7.23398e-13 0)
(851.84 -1.83817e-14 0)
(851.84 2.47485e-14 0)
(851.84 -1.59865e-14 0)
(851.84 -2.78631e-13 0)
(851.84 -3.11416e-13 0)
(851.84 -4.54379e-13 0)
(851.84 6.55761e-15 0)
(851.84 1.9143e-13 0)
(851.84 9.98096e-14 0)
(851.84 3.95538e-13 0)
(851.84 2.24479e-13 0)
(851.84 4.46771e-13 0)
(851.84 4.13873e-12 0)
(851.84 -9.67374e-12 0)
(851.84 5.3514e-09 0)
(851.84 -3.83377e-09 0)
(851.84 7.37463e-06 0)
(851.84 -1.26843e-13 0)
(851.84 -1.61351e-13 0)
(851.84 -9.0107e-14 0)
(851.84 1.72873e-13 0)
(851.84 3.84848e-13 0)
(851.84 2.59088e-13 0)
(851.84 1.16805e-13 0)
(851.84 4.08586e-14 0)
(851.84 -6.33463e-14 0)
(851.84 -4.2871e-15 0)
(851.84 -8.4385e-14 0)
(851.84 -3.62086e-13 0)
(851.84 -1.66973e-13 0)
(851.84 -4.16677e-13 0)
(851.84 -1.39429e-13 0)
(851.84 -3.59856e-13 0)
(851.84 -1.52879e-13 0)
(851.84 4.26671e-14 0)
(851.84 -4.15655e-14 0)
(851.84 -5.13385e-13 0)
(851.84 -6.02065e-13 0)
(851.84 -5.83916e-13 0)
(851.84 -3.83729e-13 0)
(851.84 -2.57943e-13 0)
(851.84 -1.61504e-13 0)
(851.84 -1.6172e-13 0)
(851.84 -1.10271e-13 0)
(851.84 2.93825e-14 0)
(851.84 -3.31975e-14 0)
(851.84 4.19135e-13 0)
(851.84 2.0635e-13 0)
(851.84 2.9412e-13 0)
(851.84 6.83516e-13 0)
(851.84 -3.61066e-13 0)
(851.84 -8.67033e-13 0)
(851.84 1.50354e-10 0)
(851.84 -3.67757e-11 0)
(851.84 2.24677e-07 0)
(851.84 4.76118e-14 0)
(851.84 8.46108e-14 0)
(851.84 2.33878e-13 0)
(851.84 2.62822e-14 0)
(851.84 -1.0771e-13 0)
(851.84 -1.38356e-13 0)
(851.84 6.5371e-14 0)
(851.84 1.38477e-13 0)
(851.84 2.171e-13 0)
(851.84 1.28975e-13 0)
(851.84 2.31211e-13 0)
(851.84 6.34989e-15 0)
(851.84 -2.8009e-14 0)
(851.84 -1.03251e-14 0)
(851.84 -1.24226e-13 0)
(851.84 -7.84893e-14 0)
(851.84 -7.41679e-14 0)
(851.84 -1.03066e-13 0)
(851.84 5.44126e-14 0)
(851.84 -4.61065e-14 0)
(851.84 -1.72428e-13 0)
(851.84 -3.94535e-13 0)
(851.84 -5.26837e-13 0)
(851.84 -6.62159e-13 0)
(851.84 -4.11963e-13 0)
(851.84 -2.72e-13 0)
(851.84 7.30159e-14 0)
(851.84 -2.98612e-13 0)
(851.84 -2.7075e-13 0)
(851.84 -3.93638e-13 0)
(851.84 -3.4379e-13 0)
(851.84 -3.49448e-13 0)
(851.84 -4.74694e-13 0)
(851.84 -2.75564e-13 0)
(851.84 -2.305e-13 0)
(851.84 1.12885e-12 0)
(851.84 -3.75596e-12 0)
(851.84 5.59344e-09 0)
(851.84 1.38649e-13 0)
(851.84 7.9929e-14 0)
(851.84 2.25467e-14 0)
(851.84 6.32036e-14 0)
(851.84 -5.20112e-13 0)
(851.84 -1.4613e-13 0)
(851.84 1.55668e-13 0)
(851.84 3.89302e-13 0)
(851.84 2.05681e-13 0)
(851.84 1.13763e-13 0)
(851.84 1.0918e-13 0)
(851.84 2.74306e-13 0)
(851.84 2.00981e-13 0)
(851.84 7.76677e-14 0)
(851.84 -7.86804e-14 0)
(851.84 4.16606e-14 0)
(851.84 1.80899e-13 0)
(851.84 1.57817e-13 0)
(851.84 8.49288e-14 0)
(851.84 1.95135e-13 0)
(851.84 1.16343e-13 0)
(851.84 -2.95852e-13 0)
(851.84 -4.15815e-13 0)
(851.84 -4.03804e-13 0)
(851.84 -7.63362e-13 0)
(851.84 -4.3665e-13 0)
(851.84 -3.13889e-13 0)
(851.84 -3.67426e-13 0)
(851.84 -3.9889e-13 0)
(851.84 -4.87325e-13 0)
(851.84 -4.86527e-13 0)
(851.84 -6.19499e-13 0)
(851.84 -7.12549e-13 0)
(851.84 -5.20696e-13 0)
(851.84 -6.5184e-13 0)
(851.84 -4.02635e-13 0)
(851.84 -8.6636e-13 0)
(851.84 1.25215e-10 0)
(851.84 -6.53155e-14 0)
(851.84 -2.16309e-13 0)
(851.84 -2.01182e-13 0)
(851.84 -2.28097e-13 0)
(851.84 -1.8898e-13 0)
(851.84 -9.02417e-14 0)
(851.84 3.81852e-14 0)
(851.84 3.88587e-14 0)
(851.84 1.77075e-13 0)
(851.84 4.03259e-13 0)
(851.84 3.33363e-13 0)
(851.84 2.4893e-13 0)
(851.84 2.06484e-13 0)
(851.84 8.31659e-14 0)
(851.84 2.6341e-13 0)
(851.84 3.97172e-13 0)
(851.84 3.05458e-13 0)
(851.84 3.5097e-13 0)
(851.84 4.11143e-13 0)
(851.84 1.15643e-14 0)
(851.84 -1.87272e-13 0)
(851.84 -1.28942e-13 0)
(851.84 -1.87154e-13 0)
(851.84 -1.501e-13 0)
(851.84 1.93025e-14 0)
(851.84 -2.87167e-13 0)
(851.84 -4.75285e-13 0)
(851.84 3.8218e-14 0)
(851.84 -1.47122e-14 0)
(851.84 -1.28494e-13 0)
(851.84 -1.64671e-13 0)
(851.84 -2.79973e-13 0)
(851.84 -3.49269e-13 0)
(851.84 -3.43414e-13 0)
(851.84 -4.8044e-13 0)
(851.84 -3.59871e-13 0)
(851.84 -3.59343e-13 0)
(851.84 6.8245e-13 0)
(851.84 6.90238e-14 0)
(851.84 4.98902e-14 0)
(851.84 4.46255e-14 0)
(851.84 3.93491e-14 0)
(851.84 1.70739e-13 0)
(851.84 1.68494e-13 0)
(851.84 -1.13344e-13 0)
(851.84 -9.03998e-14 0)
(851.84 4.32433e-14 0)
(851.84 -2.9693e-14 0)
(851.84 -1.83355e-14 0)
(851.84 4.72632e-14 0)
(851.84 7.73847e-14 0)
(851.84 3.53044e-13 0)
(851.84 3.3173e-13 0)
(851.84 9.4244e-14 0)
(851.84 -8.83742e-14 0)
(851.84 -1.19254e-13 0)
(851.84 -1.11294e-13 0)
(851.84 -1.54302e-13 0)
(851.84 -2.63193e-13 0)
(851.84 -1.9093e-13 0)
(851.84 -1.00586e-13 0)
(851.84 -5.63874e-14 0)
(851.84 -3.79341e-15 0)
(851.84 -1.25648e-13 0)
(851.84 -5.57882e-13 0)
(851.84 -2.45696e-13 0)
(851.84 -1.60036e-13 0)
(851.84 -1.31364e-13 0)
(851.84 -1.55259e-13 0)
(851.84 -9.40299e-14 0)
(851.84 -3.28773e-13 0)
(851.84 -2.63413e-13 0)
(851.84 8.53195e-14 0)
(851.84 -3.80534e-13 0)
(851.84 -4.1849e-13 0)
(851.84 -5.2009e-13 0)
(851.84 -3.36146e-14 0)
(851.84 2.84339e-13 0)
(851.84 3.42915e-13 0)
(851.84 3.1928e-13 0)
(851.84 4.59136e-13 0)
(851.84 3.74754e-13 0)
(851.84 2.27522e-13 0)
(851.84 -3.53903e-14 0)
(851.84 -1.27122e-13 0)
(851.84 -2.35715e-13 0)
(851.84 -1.89801e-13 0)
(851.84 -5.6493e-15 0)
(851.84 -3.26836e-14 0)
(851.84 -6.71196e-14 0)
(851.84 -9.77552e-14 0)
(851.84 4.38524e-14 0)
(851.84 9.71465e-14 0)
(851.84 8.40093e-14 0)
(851.84 1.70547e-13 0)
(851.84 2.67614e-13 0)
(851.84 2.1629e-13 0)
(851.84 1.00468e-13 0)
(851.84 1.13478e-13 0)
(851.84 9.47527e-14 0)
(851.84 1.52685e-13 0)
(851.84 -2.31896e-13 0)
(851.84 3.4462e-14 0)
(851.84 -2.11318e-13 0)
(851.84 -8.9846e-14 0)
(851.84 4.36406e-14 0)
(851.84 -6.44833e-14 0)
(851.84 -1.4018e-13 0)
(851.84 -1.30976e-13 0)
(851.84 -9.11706e-14 0)
(851.84 -1.94235e-13 0)
(851.84 -2.38427e-13 0)
(851.84 -4.34378e-13 0)
(851.84 -3.77338e-13 0)
(851.84 -2.64755e-14 0)
(851.84 -2.49254e-14 0)
(851.84 1.23602e-13 0)
(851.84 2.70453e-13 0)
(851.84 1.01408e-13 0)
(851.84 2.23497e-14 0)
(851.84 2.82317e-13 0)
(851.84 -1.79257e-14 0)
(851.84 -3.02754e-13 0)
(851.84 -1.97618e-13 0)
(851.84 -1.91963e-13 0)
(851.84 -5.14579e-14 0)
(851.84 -1.33096e-13 0)
(851.84 -7.06745e-14 0)
(851.84 1.14679e-13 0)
(851.84 2.9993e-13 0)
(851.84 4.21787e-13 0)
(851.84 2.78743e-13 0)
(851.84 -1.68543e-14 0)
(851.84 -1.92576e-13 0)
(851.84 -3.68439e-14 0)
(851.84 3.65171e-14 0)
(851.84 -1.82173e-13 0)
(851.84 1.16311e-15 0)
(851.84 8.18509e-15 0)
(851.84 1.15498e-13 0)
(851.84 9.52907e-14 0)
(851.84 -1.13235e-13 0)
(851.84 -8.75095e-14 0)
(851.84 -1.48266e-13 0)
(851.84 -9.30728e-14 0)
(851.84 -1.22899e-13 0)
(851.84 6.6134e-14 0)
(851.84 2.83533e-13 0)
(851.84 3.26793e-13 0)
(851.84 1.72561e-13 0)
(851.84 -2.92111e-13 0)
(851.84 -3.29595e-13 0)
(851.84 1.6278e-14 0)
(851.84 -2.0241e-13 0)
(851.84 -2.34545e-13 0)
(851.84 -2.72301e-13 0)
(851.84 -2.96077e-13 0)
(851.84 -4.04293e-13 0)
(851.84 -6.19808e-13 0)
(851.84 -3.61209e-13 0)
(851.84 -1.84692e-13 0)
(851.84 -3.45662e-13 0)
(851.84 -2.64764e-13 0)
(851.84 -6.01654e-14 0)
(851.84 2.25859e-13 0)
(851.84 3.46712e-13 0)
(851.84 4.3947e-13 0)
(851.84 4.23889e-13 0)
(851.84 2.93323e-13 0)
(851.84 -7.07115e-14 0)
(851.84 -4.32101e-13 0)
(851.84 -3.89096e-13 0)
(851.84 -3.20872e-13 0)
(851.84 -3.99529e-14 0)
(851.84 1.43542e-13 0)
(851.84 4.15989e-14 0)
(851.84 -1.34407e-14 0)
(851.84 -1.43796e-13 0)
(851.84 -1.28891e-13 0)
(851.84 -1.02407e-13 0)
(851.84 -3.25158e-13 0)
(851.84 -3.36978e-13 0)
(851.84 -1.71667e-13 0)
(851.84 5.2336e-14 0)
(851.84 3.15685e-14 0)
(851.84 -9.95171e-14 0)
(851.84 2.78097e-13 0)
(851.84 2.19359e-13 0)
(851.84 2.84559e-13 0)
(851.84 5.24781e-14 0)
(851.84 -1.48446e-14 0)
(851.84 -1.89561e-13 0)
(851.84 -2.16412e-13 0)
(851.84 -1.38777e-13 0)
(851.84 -6.51623e-14 0)
(851.84 -1.11395e-13 0)
(851.84 -2.75276e-13 0)
(851.84 -4.15194e-13 0)
(851.84 -3.3077e-13 0)
(851.84 -1.75882e-13 0)
(851.84 -2.27246e-13 0)
(851.84 -2.49914e-13 0)
(851.84 -1.5039e-13 0)
(851.84 -9.5074e-14 0)
(851.84 -2.42005e-13 0)
(851.84 -2.81648e-13 0)
(851.84 -3.35117e-13 0)
(851.84 -3.34226e-13 0)
(851.84 -2.36021e-13 0)
(851.84 -1.46944e-13 0)
(851.84 -2.03352e-14 0)
(851.84 -1.08687e-13 0)
(851.84 -1.46174e-14 0)
(851.84 6.94809e-14 0)
(851.84 -1.38123e-13 0)
(851.84 -1.57557e-13 0)
(851.84 -1.06074e-13 0)
(851.84 -2.27839e-14 0)
(851.84 -2.6054e-13 0)
(851.84 -3.45128e-13 0)
(851.84 -9.44383e-14 0)
(851.84 2.09778e-14 0)
(851.84 -1.56542e-13 0)
(851.84 -2.01105e-13 0)
(851.84 -1.60952e-13 0)
(851.84 -4.50882e-14 0)
(851.84 1.52317e-13 0)
(851.84 1.04174e-13 0)
(851.84 -7.80212e-15 0)
(851.84 -8.12831e-14 0)
(851.84 -2.71491e-13 0)
(851.84 -2.42013e-13 0)
(851.84 -2.2182e-13 0)
(851.84 -1.12201e-13 0)
(851.84 -1.06971e-13 0)
(851.84 1.57388e-14 0)
(851.84 1.02984e-13 0)
(851.84 -1.57465e-14 0)
(851.84 -1.62506e-13 0)
(851.84 -1.73053e-13 0)
(851.84 -3.09921e-13 0)
(851.84 -2.33888e-13 0)
(851.84 -3.70516e-13 0)
(851.84 -3.35797e-13 0)
(851.84 -3.28033e-13 0)
(851.84 -2.9987e-13 0)
(851.84 -1.15131e-13 0)
(851.84 -1.31138e-13 0)
(851.84 -4.07433e-14 0)
(851.84 -3.47544e-13 0)
(851.84 -4.39159e-13 0)
(851.84 -2.39198e-13 0)
(851.84 -3.22546e-13 0)
(851.84 -1.10812e-13 0)
(851.84 -3.38869e-13 0)
(851.84 -2.32617e-13 0)
(851.84 -3.49919e-13 0)
(851.84 -2.49373e-13 0)
(851.84 -2.90327e-13 0)
(851.84 -1.21038e-13 0)
(851.84 8.76626e-14 0)
(851.84 1.59378e-13 0)
(851.84 -2.18702e-14 0)
(851.84 2.56102e-13 0)
(851.84 9.61844e-14 0)
(851.84 2.04333e-13 0)
(851.84 -1.74271e-14 0)
(851.84 5.07523e-14 0)
(851.84 1.41373e-14 0)
(851.84 -3.23279e-13 0)
(851.84 -6.42721e-13 0)
(851.84 -6.0344e-13 0)
(851.84 -1.75041e-13 0)
(851.84 3.88624e-14 0)
(851.84 -1.07599e-13 0)
(851.84 -6.80617e-15 0)
(851.84 -1.54541e-13 0)
(851.84 -1.71148e-13 0)
(851.84 -1.44734e-13 0)
(851.84 -5.64774e-15 0)
(851.84 2.64548e-13 0)
(851.84 1.30236e-13 0)
(851.84 -1.17113e-13 0)
(851.84 2.73269e-14 0)
(851.84 1.86652e-13 0)
(851.84 1.48301e-13 0)
(851.84 2.72178e-14 0)
(851.84 5.69661e-15 0)
(851.84 -3.93547e-13 0)
(851.84 -4.23956e-13 0)
(851.84 -1.20014e-13 0)
(851.84 -1.34749e-13 0)
(851.84 -1.48038e-13 0)
(851.84 -3.95892e-13 0)
(851.84 -3.66148e-13 0)
(851.84 -1.30262e-13 0)
(851.84 -1.18423e-13 0)
(851.84 -8.38619e-14 0)
(851.84 1.94709e-14 0)
(851.84 1.60149e-13 0)
(851.84 1.29946e-13 0)
(851.84 1.11876e-13 0)
(851.84 -6.45146e-16 0)
(851.84 1.86905e-13 0)
(851.84 2.87036e-14 0)
(851.84 -5.50873e-14 0)
(851.84 9.34125e-14 0)
(851.84 -5.27309e-14 0)
(851.84 -4.95338e-14 0)
(851.84 -1.01707e-13 0)
(851.84 1.81617e-14 0)
(851.84 -8.90207e-14 0)
(851.84 -2.09544e-13 0)
(851.84 -1.46595e-13 0)
(851.84 1.09566e-15 0)
(851.84 -1.77085e-13 0)
(851.84 -2.42628e-13 0)
(851.84 -3.18893e-13 0)
(851.84 -2.94883e-13 0)
(851.84 -9.78961e-14 0)
(851.84 -2.53979e-13 0)
(851.84 -2.73198e-13 0)
(851.84 -6.61912e-14 0)
(851.84 -2.26479e-13 0)
(851.84 -2.19204e-13 0)
(851.84 -3.05784e-13 0)
(851.84 -4.05355e-13 0)
(851.84 -5.07652e-13 0)
(851.84 -4.85524e-13 0)
(851.84 -3.07312e-13 0)
(851.84 -4.35013e-13 0)
(851.84 -3.5649e-14 0)
(851.84 2.80139e-13 0)
(851.84 1.86889e-13 0)
(851.84 2.25056e-13 0)
(851.84 3.32401e-13 0)
(851.84 2.63444e-13 0)
(851.84 5.09545e-13 0)
(851.84 5.21281e-13 0)
(851.84 6.20937e-13 0)
(851.84 6.12128e-13 0)
(851.84 5.6332e-13 0)
(851.84 7.14356e-14 0)
(851.84 -6.92614e-14 0)
(851.84 -2.1277e-13 0)
(851.84 5.34627e-14 0)
(851.84 3.25507e-13 0)
(851.84 3.96042e-13 0)
(851.84 1.20811e-14 0)
(851.84 -4.19344e-14 0)
(851.84 -9.95662e-14 0)
(851.84 -1.91316e-13 0)
(851.84 -1.86462e-13 0)
(851.84 -1.77149e-13 0)
(851.84 -5.75373e-13 0)
(851.84 -5.86598e-13 0)
(851.84 -4.89003e-13 0)
(851.84 -4.21045e-13 0)
(851.84 -4.65458e-13 0)
(851.84 -4.43717e-13 0)
(851.84 -4.44889e-13 0)
(851.84 -1.28853e-13 0)
(851.84 -3.96396e-13 0)
(851.84 -2.58332e-13 0)
(851.84 -1.73681e-13 0)
(851.84 -2.15763e-13 0)
(851.84 -1.3909e-13 0)
(851.84 -2.32809e-13 0)
(851.84 3.33714e-13 0)
(851.84 3.63389e-13 0)
(851.84 1.94681e-14 0)
(851.84 -8.57547e-14 0)
(851.84 -1.20984e-13 0)
(851.84 -1.27773e-14 0)
(851.84 8.48108e-14 0)
(851.84 6.6372e-14 0)
(851.84 3.25747e-13 0)
(851.84 3.86641e-13 0)
(851.84 5.32236e-13 0)
(851.84 5.66295e-13 0)
(851.84 -3.05014e-14 0)
(851.84 4.33675e-14 0)
(851.84 3.41993e-13 0)
(851.84 2.52387e-13 0)
(851.84 2.85746e-14 0)
(851.84 1.21758e-13 0)
(851.84 2.99217e-14 0)
(851.84 -1.04495e-13 0)
(851.84 -1.49013e-13 0)
(851.84 -7.08439e-14 0)
(851.84 -3.55852e-13 0)
(851.84 -4.93084e-14 0)
(851.84 -2.08473e-13 0)
(851.84 -5.21863e-13 0)
(851.84 -4.55301e-13 0)
(851.84 -5.42426e-13 0)
(851.84 -4.23266e-13 0)
(851.84 -6.30861e-14 0)
(851.84 -7.14545e-14 0)
(851.84 -2.05319e-13 0)
(851.84 -1.25724e-13 0)
(851.84 -3.17468e-13 0)
(851.84 -1.53181e-13 0)
(851.84 -1.75846e-13 0)
(851.84 -7.21511e-14 0)
(851.84 -2.30705e-13 0)
(851.84 -7.16314e-14 0)
(851.84 -3.09348e-14 0)
(851.84 3.8752e-15 0)
(851.84 -4.73171e-14 0)
(851.84 9.09192e-14 0)
(851.84 -4.1304e-14 0)
(851.84 -8.28269e-14 0)
(851.84 2.30705e-13 0)
(851.84 2.45869e-13 0)
(851.84 6.13665e-13 0)
(851.84 6.31809e-13 0)
(851.84 6.01128e-13 0)
(851.84 -7.72584e-14 0)
(851.84 1.26619e-13 0)
(851.84 1.07519e-13 0)
(851.84 3.29391e-13 0)
(851.84 2.7799e-13 0)
(851.84 5.43068e-14 0)
(851.84 -8.05402e-14 0)
(851.84 -1.95432e-13 0)
(851.84 -2.18371e-13 0)
(851.84 -1.70952e-13 0)
(851.84 -1.88704e-13 0)
(851.84 -1.32546e-13 0)
(851.84 4.59841e-14 0)
(851.84 -3.35356e-13 0)
(851.84 -6.28583e-13 0)
(851.84 -7.89786e-13 0)
(851.84 -3.82366e-13 0)
(851.84 -2.24059e-13 0)
(851.84 1.75965e-13 0)
(851.84 2.10901e-13 0)
(851.84 1.11155e-13 0)
(851.84 1.56086e-13 0)
(851.84 -2.66563e-14 0)
(851.84 -9.69783e-15 0)
(851.84 -7.88e-14 0)
(851.84 -1.69074e-13 0)
(851.84 -2.62791e-13 0)
(851.84 -1.40715e-13 0)
(851.84 1.20971e-14 0)
(851.84 2.21004e-13 0)
(851.84 1.74975e-13 0)
(851.84 2.42738e-13 0)
(851.84 1.66539e-13 0)
(851.84 2.17955e-14 0)
(851.84 1.34031e-13 0)
(851.84 1.48619e-13 0)
(851.84 4.92435e-13 0)
(851.84 4.35792e-13 0)
(851.84 -3.16139e-14 0)
(851.84 1.68188e-13 0)
(851.84 -7.44956e-14 0)
(851.84 -2.64305e-13 0)
(851.84 -2.16323e-13 0)
(851.84 -1.11611e-13 0)
(851.84 -1.55038e-13 0)
(851.84 -1.56679e-14 0)
(851.84 3.04174e-13 0)
(851.84 3.28574e-14 0)
(851.84 1.3414e-13 0)
(851.84 -7.11851e-14 0)
(851.84 4.24166e-14 0)
(851.84 8.06573e-14 0)
(851.84 -2.4679e-13 0)
(851.84 -3.74289e-13 0)
(851.84 -2.95958e-13 0)
(851.84 -2.2959e-13 0)
(851.84 -8.20003e-14 0)
(851.84 -4.41405e-14 0)
(851.84 1.2886e-13 0)
(851.84 3.92223e-14 0)
(851.84 -1.1117e-13 0)
(851.84 -1.33395e-13 0)
(851.84 -2.49852e-13 0)
(851.84 -5.55478e-14 0)
(851.84 5.35044e-14 0)
(851.84 1.40268e-13 0)
(851.84 5.14874e-14 0)
(851.84 -2.51982e-13 0)
(851.84 -3.71211e-13 0)
(851.84 -1.17087e-13 0)
(851.84 -1.76568e-14 0)
(851.84 1.38119e-13 0)
(851.84 3.18222e-13 0)
(851.84 3.87112e-13 0)
(851.84 3.51595e-13 0)
(851.84 3.64392e-13 0)
(851.84 1.14669e-14 0)
(851.84 -1.33986e-13 0)
(851.84 -4.3218e-14 0)
(851.84 -3.43251e-13 0)
(851.84 -4.59297e-13 0)
(851.84 -3.63673e-13 0)
(851.84 -1.32573e-13 0)
(851.84 1.79832e-13 0)
(851.84 1.25803e-13 0)
(851.84 1.191e-13 0)
(851.84 1.05122e-13 0)
(851.84 2.52374e-13 0)
(851.84 7.27155e-14 0)
(851.84 3.51338e-13 0)
(851.84 3.38773e-13 0)
(851.84 5.7756e-13 0)
(851.84 9.33406e-13 0)
(851.84 -5.11962e-14 0)
(851.84 -4.7075e-13 0)
(851.84 -4.08168e-13 0)
(851.84 -2.56726e-13 0)
(851.84 -1.13081e-13 0)
(851.84 -9.68961e-14 0)
(851.84 -2.18639e-13 0)
(851.84 -1.21679e-13 0)
(851.84 -1.52696e-13 0)
(851.84 -1.04432e-13 0)
(851.84 -7.26633e-14 0)
(851.84 1.58669e-13 0)
(851.84 -2.3607e-13 0)
(851.84 -3.78158e-14 0)
(851.84 1.25927e-13 0)
(851.84 3.93328e-13 0)
(851.84 3.6483e-13 0)
(851.84 5.76852e-13 0)
(851.84 3.00638e-13 0)
(851.84 2.99093e-13 0)
(851.84 1.45015e-13 0)
(851.84 4.36092e-14 0)
(851.84 -1.80929e-13 0)
(851.84 -1.9113e-13 0)
(851.84 5.63916e-14 0)
(851.84 -1.11085e-13 0)
(851.84 -3.78007e-13 0)
(851.84 -2.1486e-13 0)
(851.84 -2.44319e-13 0)
(851.84 -9.64873e-14 0)
(851.84 -5.92307e-14 0)
(851.84 -2.22856e-14 0)
(851.84 -8.77639e-14 0)
(851.84 2.61766e-13 0)
(851.84 2.37733e-13 0)
(851.84 3.08528e-13 0)
(851.84 7.70095e-13 0)
(851.84 6.51525e-13 0)
(851.84 7.20249e-13 0)
(851.84 6.75609e-13 0)
(851.84 3.46959e-13 0)
(851.84 3.13857e-13 0)
(851.84 2.68139e-13 0)
(851.84 2.31951e-13 0)
(851.84 2.82433e-13 0)
(851.84 2.69309e-13 0)
(851.84 -1.93069e-13 0)
(851.84 -2.06623e-13 0)
(851.84 -3.07935e-13 0)
(851.84 -1.43743e-13 0)
(851.84 4.91576e-15 0)
(851.84 4.25476e-13 0)
(851.84 2.28175e-13 0)
(851.84 1.50275e-13 0)
(851.84 1.43453e-13 0)
(851.84 1.88626e-15 0)
(851.84 2.27173e-13 0)
(851.84 7.88633e-14 0)
(851.84 -2.15653e-14 0)
(851.84 5.60802e-14 0)
(851.84 -2.27089e-13 0)
(851.84 -3.51631e-13 0)
(851.84 -2.0952e-13 0)
(851.84 -7.79835e-14 0)
(851.84 -5.33578e-14 0)
(851.84 -8.84963e-14 0)
(851.84 -6.62785e-14 0)
(851.84 5.29242e-15 0)
(851.84 1.72195e-13 0)
(851.84 1.61392e-13 0)
(851.84 -2.34159e-14 0)
(851.84 -1.42994e-13 0)
(851.84 -1.12921e-13 0)
(851.84 1.16968e-13 0)
(851.84 2.52084e-13 0)
(851.84 3.30413e-13 0)
(851.84 3.01845e-13 0)
(851.84 5.41281e-13 0)
(851.84 8.8054e-13 0)
(851.84 7.37515e-13 0)
(851.84 4.79573e-13 0)
(851.84 4.04692e-13 0)
(851.84 1.65912e-13 0)
(851.84 7.64747e-14 0)
(851.84 9.92289e-14 0)
(851.84 5.73472e-14 0)
(851.84 -6.2299e-14 0)
(851.84 6.19726e-14 0)
(851.84 1.76753e-13 0)
(851.84 1.88265e-13 0)
(851.84 2.47195e-13 0)
(851.84 2.99926e-13 0)
(851.84 2.82003e-13 0)
(851.84 -1.07745e-13 0)
(851.84 -5.74534e-14 0)
(851.84 -9.28241e-14 0)
(851.84 -8.97161e-15 0)
(851.84 7.88872e-14 0)
(851.84 1.51305e-13 0)
(851.84 2.72257e-13 0)
(851.84 -7.71585e-14 0)
(851.84 1.30229e-13 0)
(851.84 1.48706e-13 0)
(851.84 -4.7443e-14 0)
(851.84 1.08937e-13 0)
(851.84 3.90585e-14 0)
(851.84 -7.67561e-15 0)
(851.84 -2.99534e-13 0)
(851.84 -4.93034e-13 0)
(851.84 -4.26081e-13 0)
(851.84 -2.96941e-13 0)
(851.84 -7.53694e-14 0)
(851.84 1.31052e-13 0)
(851.84 2.58178e-13 0)
(851.84 3.98422e-13 0)
(851.84 9.42863e-14 0)
(851.84 6.89976e-14 0)
(851.84 -3.2837e-14 0)
(851.84 1.81614e-13 0)
(851.84 4.92636e-14 0)
(851.84 -3.93678e-14 0)
(851.84 4.45054e-15 0)
(851.84 2.33322e-14 0)
(851.84 3.297e-14 0)
(851.84 -6.5458e-14 0)
(851.84 -1.58347e-13 0)
(851.84 2.7309e-13 0)
(851.84 3.23024e-13 0)
(851.84 5.88184e-13 0)
(851.84 5.89243e-13 0)
(851.84 4.55798e-13 0)
(851.84 4.94603e-13 0)
(851.84 -3.24415e-14 0)
(851.84 -1.07295e-13 0)
(851.84 6.09317e-14 0)
(851.84 -7.5577e-14 0)
(851.84 -2.47888e-14 0)
(851.84 -1.03701e-13 0)
(851.84 3.35636e-14 0)
(851.84 -4.92759e-14 0)
(851.84 1.17405e-13 0)
(851.84 3.19184e-13 0)
(851.84 6.04662e-14 0)
(851.84 -1.36841e-15 0)
(851.84 1.05976e-13 0)
(851.84 1.19298e-15 0)
(851.84 1.05954e-13 0)
(851.84 3.00402e-15 0)
(851.84 1.70986e-13 0)
(851.84 4.38572e-13 0)
(851.84 3.55811e-13 0)
(851.84 6.36601e-13 0)
(851.84 6.89377e-13 0)
(851.84 5.9141e-13 0)
(851.84 4.09844e-13 0)
(851.84 2.11533e-13 0)
(851.84 1.64448e-13 0)
(851.84 8.50446e-14 0)
(851.84 2.03293e-13 0)
(851.84 2.98397e-13 0)
(851.84 3.05432e-13 0)
(851.84 1.21239e-13 0)
(851.84 -5.20267e-14 0)
(851.84 -9.18209e-14 0)
(851.84 -2.11593e-13 0)
(851.84 -3.6784e-13 0)
(851.84 -1.99843e-13 0)
(851.84 -1.84809e-13 0)
(851.84 -8.06841e-14 0)
(851.84 -2.15264e-13 0)
(851.84 1.26042e-13 0)
(851.84 -1.17823e-14 0)
(851.84 -6.38538e-14 0)
(851.84 9.1638e-14 0)
(851.84 -1.16424e-13 0)
(851.84 -1.3197e-13 0)
(851.84 -1.05587e-13 0)
(851.84 -3.9709e-14 0)
(851.84 1.34059e-13 0)
(851.84 2.1913e-13 0)
(851.84 1.16188e-13 0)
(851.84 1.55558e-13 0)
(851.84 2.04962e-13 0)
(851.84 2.0065e-13 0)
(851.84 2.64054e-13 0)
(851.84 4.90664e-13 0)
(851.84 7.26164e-13 0)
(851.84 6.44645e-13 0)
(851.84 4.26504e-13 0)
(851.84 1.14405e-13 0)
(851.84 -1.90372e-13 0)
(851.84 3.05342e-13 0)
(851.84 3.06939e-13 0)
(851.84 3.90507e-13 0)
(851.84 3.52957e-13 0)
(851.84 5.24549e-13 0)
(851.84 4.20561e-13 0)
(851.84 2.35026e-13 0)
(851.84 2.55725e-14 0)
(851.84 3.36574e-13 0)
(851.84 -4.3606e-14 0)
(851.84 -4.35096e-14 0)
(851.84 -4.8796e-13 0)
(851.84 -3.60001e-13 0)
(851.84 -5.47968e-13 0)
(851.84 -4.74346e-13 0)
(851.84 -2.11322e-13 0)
(851.84 1.94869e-13 0)
(851.84 2.81355e-13 0)
(851.84 1.7371e-13 0)
(851.84 -1.88185e-14 0)
(851.84 4.66325e-14 0)
(851.84 8.73771e-14 0)
(851.84 3.69254e-13 0)
(851.84 5.07431e-13 0)
(851.84 5.35465e-13 0)
(851.84 5.26605e-13 0)
(851.84 4.16992e-13 0)
(851.84 5.04631e-13 0)
(851.84 2.79889e-13 0)
(851.84 1.41149e-13 0)
(851.84 1.90563e-13 0)
(851.84 1.62108e-13 0)
(851.84 3.77934e-13 0)
(851.84 1.04067e-13 0)
(851.84 2.37756e-13 0)
(851.84 2.90543e-13 0)
(851.84 -1.52934e-13 0)
(851.84 -1.26169e-13 0)
(851.84 -1.38323e-14 0)
(851.84 4.05988e-13 0)
(851.84 5.0288e-13 0)
(851.84 5.39606e-13 0)
(851.84 3.57378e-13 0)
(851.84 3.18448e-13 0)
(851.84 1.74026e-13 0)
(851.84 4.32742e-14 0)
(851.84 -6.82817e-14 0)
(851.84 -4.5855e-14 0)
(851.84 -5.66626e-14 0)
(851.84 -2.1595e-13 0)
(851.84 -2.72383e-13 0)
(851.84 -1.66248e-13 0)
(851.84 -5.70708e-14 0)
(851.84 6.70339e-14 0)
(851.84 -1.07718e-14 0)
(851.84 4.45804e-14 0)
(851.84 1.64821e-14 0)
(851.84 1.51781e-13 0)
(851.84 8.58149e-14 0)
(851.84 3.49317e-13 0)
(851.84 3.42589e-14 0)
(851.84 1.71828e-13 0)
(851.84 1.89501e-13 0)
(851.84 1.41623e-13 0)
(851.84 3.12339e-13 0)
(851.84 1.96853e-13 0)
(851.84 1.61766e-13 0)
(851.84 1.97125e-13 0)
(851.84 2.90323e-13 0)
(851.84 4.46055e-13 0)
(851.84 2.11155e-13 0)
(851.84 7.05009e-14 0)
(851.84 -1.07638e-14 0)
(851.84 -1.94933e-13 0)
(851.84 -2.289e-13 0)
(851.84 -6.18353e-16 0)
(851.84 1.57056e-13 0)
(851.84 7.56439e-14 0)
(851.84 1.48818e-13 0)
(851.84 2.05154e-13 0)
(851.84 1.2278e-13 0)
(851.84 3.96374e-13 0)
(851.84 1.00852e-13 0)
(851.84 2.53134e-13 0)
(851.84 -2.65319e-14 0)
(851.84 5.53354e-16 0)
(851.84 -1.66922e-13 0)
(851.84 -6.3421e-14 0)
(851.84 -4.43527e-14 0)
(851.84 7.60021e-14 0)
(851.84 1.22801e-13 0)
(851.84 1.2017e-13 0)
(851.84 1.63359e-13 0)
(851.84 2.28296e-13 0)
(851.84 2.44891e-13 0)
(851.84 1.65427e-13 0)
(851.84 5.16502e-14 0)
(851.84 -5.22806e-14 0)
(851.84 2.0909e-14 0)
(851.84 4.21923e-14 0)
(851.84 4.8099e-14 0)
(851.84 1.18487e-13 0)
(851.84 1.40556e-13 0)
(851.84 5.1388e-13 0)
(851.84 4.49742e-13 0)
(851.84 2.4646e-13 0)
(851.84 4.12799e-13 0)
(851.84 8.18535e-14 0)
(851.84 3.56369e-13 0)
(851.84 1.90129e-13 0)
(851.84 -6.33393e-13 0)
(851.84 -8.38718e-13 0)
(851.84 -7.00251e-13 0)
(851.84 -5.02275e-13 0)
(851.84 -2.0815e-13 0)
(851.84 1.39097e-13 0)
(851.84 -2.41987e-14 0)
(851.84 2.14073e-13 0)
(851.84 2.95611e-13 0)
(851.84 2.42489e-13 0)
(851.84 2.49444e-13 0)
(851.84 2.48956e-13 0)
(851.84 3.29853e-14 0)
(851.84 9.79839e-14 0)
(851.84 1.93971e-13 0)
(851.84 1.60383e-13 0)
(851.84 1.81104e-13 0)
(851.84 2.9725e-13 0)
(851.84 2.91255e-13 0)
(851.84 1.89028e-13 0)
(851.84 9.85793e-14 0)
(851.84 -7.0746e-14 0)
(851.84 1.43257e-13 0)
(851.84 7.47038e-14 0)
(851.84 -1.87197e-15 0)
(851.84 1.69632e-13 0)
(851.84 8.51258e-14 0)
(851.84 1.21743e-13 0)
(851.84 1.10399e-13 0)
(851.84 9.17913e-14 0)
(851.84 7.12162e-14 0)
(851.84 4.08994e-14 0)
(851.84 -7.01769e-14 0)
(851.84 2.83472e-14 0)
(851.84 1.4566e-13 0)
(851.84 2.16966e-13 0)
(851.84 2.45371e-13 0)
(851.84 5.90534e-13 0)
(851.84 8.71167e-13 0)
(851.84 7.23983e-13 0)
(851.84 -6.32133e-14 0)
(851.84 -3.21107e-13 0)
(851.84 -3.7527e-13 0)
(851.84 -3.55401e-13 0)
(851.84 -3.19683e-13 0)
(851.84 -2.56857e-13 0)
(851.84 2.17681e-13 0)
(851.84 2.05137e-13 0)
(851.84 1.84674e-13 0)
(851.84 6.53963e-14 0)
(851.84 -1.2098e-13 0)
(851.84 -2.00408e-13 0)
(851.84 -2.66321e-13 0)
(851.84 -1.23123e-13 0)
(851.84 1.15778e-13 0)
(851.84 1.68485e-14 0)
(851.84 2.10744e-14 0)
(851.84 1.16571e-13 0)
(851.84 1.17874e-13 0)
(851.84 8.98987e-14 0)
(851.84 2.42926e-13 0)
(851.84 4.71514e-13 0)
(851.84 -7.29939e-14 0)
(851.84 7.12546e-14 0)
(851.84 8.34106e-15 0)
(851.84 -5.98608e-14 0)
(851.84 1.83956e-14 0)
(851.84 -9.79347e-14 0)
(851.84 -1.81691e-13 0)
(851.84 -4.04545e-13 0)
(851.84 -1.28157e-13 0)
(851.84 -1.55555e-13 0)
(851.84 -1.68024e-14 0)
(851.84 4.03866e-14 0)
(851.84 3.64591e-13 0)
(851.84 2.90986e-13 0)
(851.84 4.1329e-13 0)
(851.84 5.20451e-13 0)
(851.84 3.48872e-13 0)
(851.84 2.33503e-13 0)
(851.84 -2.48406e-13 0)
(851.84 -4.42209e-13 0)
(851.84 -4.44077e-13 0)
(851.84 -4.31762e-13 0)
(851.84 -1.30437e-13 0)
(851.84 8.53609e-14 0)
(851.84 4.2766e-14 0)
(851.84 2.45557e-14 0)
(851.84 1.39943e-13 0)
(851.84 7.53701e-15 0)
(851.84 2.68724e-13 0)