/*--------------------------------*- C++ -*----------------------------------*\
| =========                 |                                                 |
| \\      /  F ield         | OpenFOAM: The Open Source CFD Toolbox           |
|  \\    /   O peration     | Version:  v1812                                 |
|   \\  /    A nd           | Web:      www.OpenFOAM.com                      |
|    \\/     M anipulation  |                                                 |
\*---------------------------------------------------------------------------*/
FoamFile
{
    version     2.0;
    format      ascii;
    class       volScalarField;
    location    "0.4";
    object      p;
}
// * * * * * * * * * * * * * * * * * * * * * * * * * * * * * * * * * * * * * //

dimensions      [1 -1 -2 0 0 0 0];


internalField   nonuniform List<scalar> 
20400
(
107614
107614
107615
107615
107615
107615
107613
107611
107609
107607
107606
107607
107610
107614
107620
107627
107634
107643
107651
107659
107667
107674
107680
107685
107690
107693
107696
107698
107699
107700
107699
107698
107696
107692
107687
107678
107669
107648
107635
107620
107598
107573
107544
107510
107477
107445
107418
107394
107378
107366
107364
107372
107389
107417
107452
107499
107549
107608
107668
107733
107797
107861
107921
107976
108026
108068
108104
108130
108152
108169
108181
108189
108190
108185
108178
108167
108154
108139
108123
108106
108089
108072
108054
108038
108022
108007
107993
107980
107968
107957
107947
107938
107930
107923
107917
107912
107907
107903
107900
107897
107895
107893
107892
107891
107890
107890
107890
107890
107890
107890
107891
107892
107893
107894
107896
107897
107899
107901
107903
107905
107908
107910
107913
107916
107918
107921
107923
107926
107928
107930
107932
107934
107936
107937
107938
107939
107940
107941
107941
107941
107941
107941
107941
107940
107939
107939
107938
107937
107936
107935
107933
107932
107931
107929
107928
107926
107924
107923
107921
107919
107917
107915
107913
107911
107909
107906
107904
107902
107899
107897
107894
107891
107889
107886
107883
107880
107877
107874
107870
107867
107863
107860
107856
107852
107849
107845
107841
107836
107832
107828
107823
107819
107814
107809
107804
107799
107793
107788
107782
107776
107770
107764
107758
107752
107745
107738
107731
107724
107717
107709
107701
107694
107685
107677
107669
107660
107651
107642
107632
107622
107613
107602
107592
107581
107570
107559
107548
107536
107524
107512
107499
107487
107473
107460
107446
107432
107418
107403
107388
107373
107358
107342
107325
107309
107292
107275
107257
107239
107221
107202
107183
107164
107144
107124
107104
107083
107061
107040
107018
106996
106973
106950
106926
106902
106878
106853
106828
106803
106777
106750
106724
106697
106669
106641
106613
106584
106555
106526
106496
106466
106435
106404
106372
106341
106308
106276
106243
106210
106176
106142
106108
106073
106038
106002
105966
105930
105894
105857
105820
105783
105745
105707
105669
105630
105591
105552
105513
105473
105433
105393
105353
105313
105272
105231
105190
105149
105108
105066
105024
104983
104941
104899
104857
104815
104773
104731
104689
104647
104604
104562
104520
104478
104436
104394
104352
104311
104269
104227
104186
104145
104104
104063
104022
103982
103941
103901
103861
103822
103783
103744
103705
103666
103628
103591
103553
103516
103479
103443
103407
103371
103336
103301
103267
103233
103199
103166
103134
103101
103070
103038
103007
102977
102947
102918
102889
102860
102832
102804
102777
102751
102725
102699
102674
102649
102625
102601
102578
102555
102532
102510
102489
102468
102447
102427
102407
102388
102369
102351
102332
102315
102298
102281
102264
102248
102232
102217
102202
102187
102172
102158
102144
102131
102118
102105
102092
102079
102067
102055
102044
102032
102021
102010
101999
101988
101978
101967
101957
101947
101938
101928
101918
101909
101900
101890
101881
101872
101863
101855
101846
101837
101829
101820
101811
101803
101795
101786
101778
101770
101761
101753
101745
101737
101728
101720
101712
101704
101695
101687
101679
101671
101662
101654
101646
101637
101629
101621
101612
101604
101596
101587
101579
101570
101562
101553
101545
101536
101527
101519
101510
101502
101493
101484
101476
101467
101458
101449
101441
101432
101423
101415
101406
101397
101389
101380
101371
101363
101354
101345
101337
101329
107613
107614
107614
107614
107614
107613
107612
107611
107610
107609
107610
107611
107613
107617
107621
107628
107635
107642
107650
107658
107666
107673
107680
107685
107691
107694
107697
107698
107700
107700
107700
107699
107696
107694
107682
107678
107673
107663
107650
107627
107602
107574
107541
107506
107468
107430
107398
107372
107358
107349
107352
107366
107389
107412
107441
107479
107523
107575
107631
107690
107753
107817
107880
107941
107996
108047
108089
108128
108153
108172
108180
108186
108186
108181
108174
108163
108151
108136
108120
108104
108087
108070
108053
108037
108022
108006
107992
107979
107967
107957
107947
107938
107930
107923
107917
107912
107907
107903
107900
107897
107895
107893
107892
107891
107890
107890
107890
107890
107890
107891
107891
107892
107893
107894
107896
107897
107899
107901
107903
107905
107908
107910
107913
107915
107918
107921
107923
107926
107928
107930
107932
107934
107936
107937
107938
107939
107940
107941
107941
107941
107941
107941
107941
107940
107939
107939
107938
107937
107936
107935
107933
107932
107931
107929
107928
107926
107924
107923
107921
107919
107917
107915
107913
107911
107909
107906
107904
107902
107899
107897
107894
107891
107889
107886
107883
107880
107877
107873
107870
107867
107863
107860
107856
107852
107849
107845
107841
107836
107832
107828
107823
107819
107814
107809
107804
107799
107793
107788
107782
107776
107770
107764
107758
107752
107745
107738
107731
107724
107717
107709
107701
107694
107685
107677
107668
107660
107651
107642
107632
107622
107612
107602
107592
107581
107570
107559
107548
107536
107524
107512
107499
107486
107473
107460
107446
107432
107418
107403
107388
107373
107358
107342
107325
107309
107292
107275
107257
107239
107221
107202
107183
107164
107144
107124
107103
107083
107061
107040
107018
106995
106973
106950
106926
106902
106878
106853
106828
106802
106777
106750
106724
106696
106669
106641
106613
106584
106555
106526
106496
106465
106435
106404
106372
106341
106308
106276
106243
106209
106176
106142
106107
106073
106037
106002
105966
105930
105894
105857
105820
105782
105745
105707
105668
105630
105591
105552
105513
105473
105433
105393
105353
105312
105272
105231
105190
105149
105107
105066
105024
104983
104941
104899
104857
104815
104773
104731
104689
104646
104604
104562
104520
104478
104436
104394
104352
104310
104269
104227
104186
104145
104103
104063
104022
103981
103941
103901
103861
103822
103782
103743
103705
103666
103628
103590
103553
103516
103479
103443
103407
103371
103336
103301
103267
103233
103199
103166
103134
103101
103070
103038
103007
102977
102947
102918
102889
102860
102832
102804
102777
102751
102724
102699
102674
102649
102625
102601
102578
102555
102532
102510
102489
102468
102447
102427
102407
102388
102369
102351
102332
102315
102298
102281
102264
102248
102232
102217
102202
102187
102172
102158
102144
102131
102118
102105
102092
102079
102067
102055
102044
102032
102021
102010
101999
101988
101978
101968
101957
101947
101938
101928
101918
101909
101900
101890
101881
101872
101863
101855
101846
101837
101829
101820
101812
101803
101795
101786
101778
101770
101761
101753
101745
101737
101728
101720
101712
101704
101695
101687
101679
101671
101662
101654
101646
101638
101629
101621
101612
101604
101596
101587
101579
101570
101562
101553
101545
101536
101527
101519
101510
101502
101493
101484
101476
101467
101458
101449
101441
101432
101423
101415
101406
101397
101389
101380
101371
101363
101354
101345
101337
101329
107613
107614
107614
107613
107612
107610
107607
107603
107600
107597
107597
107599
107603
107610
107617
107626
107634
107644
107655
107664
107672
107680
107685
107689
107692
107695
107698
107699
107701
107702
107701
107700
107697
107695
107691
107684
107671
107657
107643
107623
107598
107564
107524
107479
107438
107407
107385
107364
107349
107336
107334
107340
107351
107385
107425
107473
107524
107581
107642
107707
107772
107836
107898
107955
108007
108052
108089
108120
108143
108161
108172
108180
108180
108176
108169
108158
108145
108131
108115
108099
108082
108065
108048
108033
108017
108002
107989
107976
107964
107953
107944
107936
107928
107921
107915
107910
107906
107902
107899
107897
107894
107893
107892
107891
107890
107890
107890
107890
107890
107890
107891
107892
107893
107894
107895
107897
107899
107901
107903
107905
107908
107910
107913
107916
107918
107921
107923
107926
107928
107931
107933
107934
107936
107937
107939
107940
107940
107941
107941
107941
107941
107941
107941
107940
107939
107939
107938
107937
107936
107935
107933
107932
107931
107929
107928
107926
107924
107923
107921
107919
107917
107915
107913
107911
107909
107906
107904
107902
107899
107897
107894
107891
107889
107886
107883
107880
107877
107873
107870
107867
107863
107860
107856
107852
107849
107845
107841
107836
107832
107828
107823
107818
107814
107809
107804
107799
107793
107788
107782
107776
107770
107764
107758
107752
107745
107738
107731
107724
107717
107709
107701
107693
107685
107677
107668
107660
107651
107641
107632
107622
107612
107602
107592
107581
107570
107559
107548
107536
107524
107512
107499
107486
107473
107460
107446
107432
107418
107403
107388
107373
107357
107342
107325
107309
107292
107275
107257
107239
107221
107202
107183
107164
107144
107124
107103
107083
107061
107040
107018
106995
106973
106949
106926
106902
106878
106853
106828
106802
106776
106750
106723
106696
106669
106641
106613
106584
106555
106525
106496
106465
106435
106404
106372
106340
106308
106276
106243
106209
106176
106142
106107
106072
106037
106002
105966
105930
105893
105857
105820
105782
105745
105707
105668
105630
105591
105552
105512
105473
105433
105393
105353
105312
105272
105231
105190
105148
105107
105066
105024
104982
104941
104899
104857
104815
104773
104731
104688
104646
104604
104562
104520
104478
104436
104394
104352
104310
104268
104227
104186
104144
104103
104062
104022
103981
103941
103901
103861
103821
103782
103743
103704
103666
103628
103590
103553
103516
103479
103443
103407
103371
103336
103301
103267
103233
103199
103166
103133
103101
103069
103038
103007
102977
102947
102917
102888
102860
102832
102804
102777
102750
102724
102699
102673
102649
102625
102601
102577
102555
102532
102510
102489
102468
102447
102427
102407
102388
102369
102351
102332
102315
102297
102281
102264
102248
102232
102217
102202
102187
102172
102158
102144
102131
102118
102105
102092
102079
102067
102055
102044
102032
102021
102010
101999
101988
101978
101968
101957
101947
101938
101928
101918
101909
101900
101890
101881
101872
101863
101855
101846
101837
101829
101820
101812
101803
101795
101786
101778
101770
101761
101753
101745
101737
101728
101720
101712
101704
101695
101687
101679
101671
101662
101654
101646
101638
101629
101621
101612
101604
101596
101587
101579
101570
101562
101553
101545
101536
101527
101519
101510
101502
101493
101484
101476
101467
101458
101449
101441
101432
101423
101415
101406
101397
101389
101380
101371
101363
101354
101345
101337
101330
107613
107613
107612
107612
107610
107607
107603
107600
107599
107597
107598
107600
107604
107609
107617
107625
107634
107644
107651
107660
107668
107676
107683
107690
107696
107699
107701
107702
107703
107703
107704
107704
107702
107699
107690
107684
107675
107662
107640
107611
107572
107528
107485
107444
107404
107365
107327
107301
107285
107284
107293
107309
107331
107358
107392
107433
107482
107537
107598
107662
107729
107796
107862
107924
107979
108030
108072
108108
108133
108152
108162
108168
108169
108164
108158
108147
108135
108121
108106
108090
108074
108057
108041
108025
108010
107995
107982
107970
107958
107948
107939
107931
107924
107917
107912
107907
107904
107900
107897
107895
107893
107892
107891
107890
107890
107889
107889
107890
107890
107890
107891
107892
107893
107894
107895
107897
107899
107901
107903
107905
107908
107910
107913
107916
107918
107921
107924
107926
107929
107931
107933
107935
107936
107938
107939
107940
107940
107941
107941
107941
107941
107941
107941
107940
107940
107939
107938
107937
107936
107935
107933
107932
107931
107929
107928
107926
107924
107923
107921
107919
107917
107915
107913
107911
107909
107906
107904
107902
107899
107897
107894
107891
107888
107886
107883
107880
107877
107873
107870
107867
107863
107860
107856
107852
107849
107845
107841
107836
107832
107828
107823
107818
107814
107809
107804
107799
107793
107788
107782
107776
107770
107764
107758
107752
107745
107738
107731
107724
107717
107709
107701
107693
107685
107677
107668
107660
107651
107641
107632
107622
107612
107602
107592
107581
107570
107559
107548
107536
107524
107512
107499
107486
107473
107460
107446
107432
107418
107403
107388
107373
107357
107342
107325
107309
107292
107275
107257
107239
107221
107202
107183
107164
107144
107124
107103
107082
107061
107040
107018
106995
106973
106949
106926
106902
106878
106853
106828
106802
106776
106750
106723
106696
106669
106641
106613
106584
106555
106525
106495
106465
106435
106404
106372
106340
106308
106276
106243
106209
106176
106142
106107
106072
106037
106002
105966
105930
105893
105857
105819
105782
105744
105706
105668
105629
105591
105552
105512
105473
105433
105393
105352
105312
105271
105230
105189
105148
105107
105066
105024
104982
104940
104899
104857
104815
104772
104730
104688
104646
104604
104562
104520
104478
104436
104394
104352
104310
104268
104227
104185
104144
104103
104062
104021
103981
103941
103901
103861
103821
103782
103743
103704
103666
103628
103590
103553
103515
103479
103442
103406
103371
103336
103301
103266
103233
103199
103166
103133
103101
103069
103038
103007
102977
102947
102917
102888
102860
102832
102804
102777
102750
102724
102699
102673
102649
102624
102601
102577
102554
102532
102510
102489
102468
102447
102427
102407
102388
102369
102350
102332
102315
102297
102281
102264
102248
102232
102217
102201
102187
102172
102158
102144
102131
102117
102105
102092
102079
102067
102055
102044
102032
102021
102010
101999
101988
101978
101968
101957
101947
101938
101928
101918
101909
101900
101890
101881
101872
101863
101855
101846
101837
101829
101820
101812
101803
101795
101786
101778
101770
101761
101753
101745
101737
101728
101720
101712
101704
101695
101687
101679
101671
101662
101654
101646
101638
101629
101621
101612
101604
101596
101587
101579
101570
101562
101553
101545
101536
101527
101519
101510
101502
101493
101484
101476
101467
101458
101449
101441
101432
101423
101415
101406
101397
101388
101380
101371
101362
101354
101345
101337
101330
107612
107612
107612
107610
107606
107602
107596
107591
107586
107583
107583
107585
107591
107598
107609
107620
107633
107646
107658
107670
107679
107687
107693
107696
107697
107699
107702
107704
107705
107707
107708
107707
107705
107702
107697
107688
107673
107652
107622
107582
107537
107490
107442
107394
107352
107318
107292
107272
107258
107255
107263
107277
107301
107333
107373
107419
107470
107526
107587
107653
107720
107788
107853
107915
107970
108018
108058
108090
108114
108133
108145
108152
108154
108150
108144
108134
108122
108108
108093
108078
108062
108045
108029
108014
107999
107985
107972
107960
107949
107939
107931
107923
107916
107911
107906
107902
107899
107896
107894
107892
107891
107890
107889
107889
107889
107889
107889
107889
107890
107890
107891
107892
107893
107894
107895
107897
107899
107901
107903
107906
107908
107911
107913
107916
107919
107922
107924
107927
107929
107931
107933
107935
107937
107938
107939
107940
107941
107941
107941
107942
107942
107941
107941
107940
107940
107939
107938
107937
107936
107935
107933
107932
107931
107929
107928
107926
107924
107923
107921
107919
107917
107915
107913
107911
107909
107906
107904
107902
107899
107897
107894
107891
107888
107886
107883
107880
107877
107873
107870
107867
107863
107860
107856
107852
107849
107845
107841
107836
107832
107828
107823
107818
107814
107809
107804
107798
107793
107788
107782
107776
107770
107764
107758
107751
107745
107738
107731
107724
107717
107709
107701
107693
107685
107677
107668
107660
107651
107641
107632
107622
107612
107602
107592
107581
107570
107559
107548
107536
107524
107512
107499
107486
107473
107460
107446
107432
107418
107403
107388
107373
107357
107341
107325
107309
107292
107275
107257
107239
107221
107202
107183
107164
107144
107124
107103
107082
107061
107040
107018
106995
106972
106949
106926
106902
106878
106853
106828
106802
106776
106750
106723
106696
106669
106641
106613
106584
106555
106525
106495
106465
106434
106403
106372
106340
106308
106275
106242
106209
106175
106141
106107
106072
106037
106002
105966
105930
105893
105856
105819
105782
105744
105706
105668
105629
105591
105551
105512
105472
105433
105393
105352
105312
105271
105230
105189
105148
105107
105065
105024
104982
104940
104898
104856
104814
104772
104730
104688
104646
104604
104562
104519
104477
104435
104393
104351
104310
104268
104227
104185
104144
104103
104062
104021
103981
103940
103900
103861
103821
103782
103743
103704
103666
103628
103590
103552
103515
103479
103442
103406
103371
103335
103301
103266
103232
103199
103166
103133
103101
103069
103038
103007
102976
102947
102917
102888
102860
102831
102804
102777
102750
102724
102698
102673
102649
102624
102600
102577
102554
102532
102510
102489
102468
102447
102427
102407
102388
102369
102350
102332
102315
102297
102280
102264
102248
102232
102217
102201
102187
102172
102158
102144
102131
102117
102104
102092
102079
102067
102055
102044
102032
102021
102010
101999
101988
101978
101968
101957
101947
101938
101928
101918
101909
101900
101890
101881
101872
101863
101855
101846
101837
101829
101820
101812
101803
101795
101786
101778
101770
101761
101753
101745
101737
101728
101720
101712
101704
101696
101687
101679
101671
101662
101654
101646
101638
101629
101621
101612
101604
101596
101587
101579
101570
101562
101553
101545
101536
101527
101519
101510
101502
101493
101484
101476
101467
101458
101449
101441
101432
101423
101415
101406
101397
101388
101380
101371
101363
101354
101345
101337
101330
107612
107612
107610
107608
107604
107598
107592
107586
107582
107580
107580
107583
107589
107596
107607
107618
107632
107644
107657
107669
107679
107688
107695
107700
107704
107707
107707
107708
107709
107710
107710
107711
107710
107706
107699
107687
107667
107635
107593
107546
107495
107443
107392
107344
107300
107263
107235
107218
107211
107215
107226
107244
107268
107299
107336
107379
107429
107485
107547
107612
107681
107751
107819
107883
107941
107992
108034
108070
108095
108115
108126
108132
108134
108130
108124
108115
108104
108091
108076
108061
108046
108030
108014
107999
107985
107971
107959
107947
107937
107927
107919
107912
107907
107902
107898
107895
107892
107890
107889
107888
107887
107887
107887
107887
107887
107888
107888
107889
107889
107890
107891
107892
107893
107894
107896
107898
107899
107902
107904
107906
107909
107911
107914
107917
107920
107922
107925
107928
107930
107932
107934
107936
107937
107939
107940
107941
107941
107942
107942
107942
107942
107941
107941
107940
107940
107939
107938
107937
107936
107935
107933
107932
107931
107929
107928
107926
107924
107923
107921
107919
107917
107915
107913
107911
107909
107906
107904
107902
107899
107897
107894
107891
107888
107886
107883
107880
107877
107873
107870
107867
107863
107860
107856
107852
107849
107845
107841
107836
107832
107828
107823
107818
107814
107809
107804
107798
107793
107788
107782
107776
107770
107764
107758
107751
107745
107738
107731
107724
107717
107709
107701
107693
107685
107677
107668
107660
107651
107641
107632
107622
107612
107602
107592
107581
107570
107559
107548
107536
107524
107512
107499
107486
107473
107460
107446
107432
107418
107403
107388
107373
107357
107341
107325
107309
107292
107274
107257
107239
107221
107202
107183
107164
107144
107124
107103
107082
107061
107040
107018
106995
106972
106949
106926
106902
106877
106853
106828
106802
106776
106750
106723
106696
106669
106641
106612
106584
106555
106525
106495
106465
106434
106403
106372
106340
106308
106275
106242
106209
106175
106141
106107
106072
106037
106002
105966
105930
105893
105856
105819
105782
105744
105706
105668
105629
105590
105551
105512
105472
105432
105392
105352
105312
105271
105230
105189
105148
105107
105065
105024
104982
104940
104898
104856
104814
104772
104730
104688
104646
104603
104561
104519
104477
104435
104393
104351
104310
104268
104226
104185
104144
104103
104062
104021
103981
103940
103900
103860
103821
103782
103743
103704
103665
103627
103590
103552
103515
103478
103442
103406
103370
103335
103300
103266
103232
103199
103166
103133
103101
103069
103038
103007
102976
102946
102917
102888
102859
102831
102804
102777
102750
102724
102698
102673
102648
102624
102600
102577
102554
102532
102510
102488
102467
102447
102427
102407
102388
102369
102350
102332
102315
102297
102280
102264
102248
102232
102216
102201
102187
102172
102158
102144
102131
102117
102104
102092
102079
102067
102055
102044
102032
102021
102010
101999
101988
101978
101968
101957
101947
101938
101928
101918
101909
101900
101890
101881
101872
101863
101855
101846
101837
101829
101820
101812
101803
101795
101786
101778
101770
101761
101753
101745
101737
101728
101720
101712
101704
101696
101687
101679
101671
101663
101654
101646
101638
101629
101621
101613
101604
101596
101587
101579
101570
101562
101553
101545
101536
101527
101519
101510
101502
101493
101484
101476
101467
101458
101449
101441
101432
101423
101415
101406
101397
101388
101380
101371
101363
101354
101346
101337
101329
107614
107613
107610
107607
107601
107594
107586
107579
107573
107569
107568
107570
107577
107584
107598
107610
107627
107642
107659
107673
107686
107696
107703
107707
107708
107708
107709
107711
107711
107713
107714
107715
107714
107710
107700
107682
107652
107613
107564
107511
107455
107398
107343
107294
107254
107221
107199
107184
107179
107184
107195
107215
107242
107275
107314
107359
107409
107465
107526
107592
107661
107731
107799
107863
107920
107970
108011
108044
108069
108089
108101
108108
108110
108108
108102
108093
108082
108070
108056
108041
108026
108011
107996
107981
107967
107954
107942
107931
107921
107912
107905
107899
107894
107890
107887
107885
107883
107882
107882
107882
107883
107883
107884
107885
107885
107886
107887
107888
107889
107890
107891
107892
107894
107895
107897
107898
107900
107903
107905
107907
107910
107913
107915
107918
107921
107924
107926
107929
107931
107933
107935
107937
107938
107939
107940
107941
107942
107942
107942
107942
107942
107942
107941
107941
107940
107939
107938
107937
107936
107935
107933
107932
107931
107929
107928
107926
107924
107923
107921
107919
107917
107915
107913
107911
107909
107906
107904
107902
107899
107897
107894
107891
107888
107886
107883
107880
107877
107873
107870
107867
107863
107860
107856
107852
107849
107845
107841
107836
107832
107828
107823
107818
107814
107809
107804
107798
107793
107788
107782
107776
107770
107764
107758
107751
107745
107738
107731
107724
107717
107709
107701
107693
107685
107677
107668
107660
107651
107641
107632
107622
107612
107602
107592
107581
107570
107559
107548
107536
107524
107512
107499
107486
107473
107460
107446
107432
107418
107403
107388
107373
107357
107341
107325
107309
107292
107274
107257
107239
107221
107202
107183
107164
107144
107124
107103
107082
107061
107040
107018
106995
106972
106949
106926
106902
106877
106853
106828
106802
106776
106750
106723
106696
106669
106641
106612
106584
106555
106525
106495
106465
106434
106403
106372
106340
106308
106275
106242
106209
106175
106141
106107
106072
106037
106001
105966
105930
105893
105856
105819
105782
105744
105706
105668
105629
105590
105551
105512
105472
105432
105392
105352
105312
105271
105230
105189
105148
105107
105065
105023
104982
104940
104898
104856
104814
104772
104730
104688
104645
104603
104561
104519
104477
104435
104393
104351
104309
104268
104226
104185
104144
104102
104062
104021
103980
103940
103900
103860
103821
103781
103742
103704
103665
103627
103589
103552
103515
103478
103442
103406
103370
103335
103300
103266
103232
103198
103165
103133
103100
103069
103037
103006
102976
102946
102917
102888
102859
102831
102804
102777
102750
102724
102698
102673
102648
102624
102600
102577
102554
102532
102510
102488
102467
102447
102427
102407
102388
102369
102350
102332
102314
102297
102280
102264
102248
102232
102216
102201
102187
102172
102158
102144
102131
102117
102104
102092
102079
102067
102055
102044
102032
102021
102010
101999
101988
101978
101968
101957
101947
101938
101928
101918
101909
101900
101890
101881
101872
101864
101855
101846
101837
101829
101820
101812
101803
101795
101786
101778
101770
101761
101753
101745
101737
101728
101720
101712
101704
101696
101687
101679
101671
101663
101654
101646
101638
101629
101621
101613
101604
101596
101587
101579
101570
101562
101553
101545
101536
101528
101519
101510
101502
101493
101484
101476
101467
101458
101449
101441
101432
101423
101415
101406
101397
101389
101380
101371
101363
101354
101346
101337
101329
107614
107614
107611
107607
107600
107593
107584
107575
107568
107564
107562
107564
107569
107577
107590
107603
107621
107637
107655
107671
107686
107698
107706
107712
107714
107715
107714
107714
107715
107716
107718
107719
107718
107712
107699
107673
107636
107588
107533
107474
107413
107353
107297
107248
107209
107177
107158
107145
107142
107150
107163
107184
107211
107244
107281
107324
107373
107427
107488
107553
107623
107694
107764
107830
107889
107940
107983
108017
108043
108063
108075
108081
108084
108081
108076
108068
108057
108045
108032
108018
108003
107988
107973
107959
107946
107933
107921
107911
107902
107894
107887
107882
107878
107875
107873
107872
107872
107873
107874
107875
107876
107878
107880
107881
107883
107885
107886
107888
107889
107890
107892
107893
107895
107896
107898
107900
107902
107904
107906
107909
107912
107914
107917
107920
107922
107925
107927
107930
107932
107934
107936
107937
107939
107940
107941
107942
107942
107942
107942
107942
107942
107942
107941
107941
107940
107939
107938
107937
107936
107935
107933
107932
107931
107929
107928
107926
107924
107923
107921
107919
107917
107915
107913
107911
107909
107906
107904
107902
107899
107897
107894
107891
107888
107886
107883
107880
107877
107873
107870
107867
107863
107860
107856
107852
107849
107845
107841
107836
107832
107828
107823
107818
107814
107809
107804
107798
107793
107788
107782
107776
107770
107764
107758
107751
107745
107738
107731
107724
107717
107709
107701
107693
107685
107677
107668
107660
107651
107641
107632
107622
107612
107602
107592
107581
107570
107559
107548
107536
107524
107512
107499
107486
107473
107460
107446
107432
107418
107403
107388
107373
107357
107341
107325
107309
107292
107274
107257
107239
107221
107202
107183
107164
107144
107124
107103
107082
107061
107040
107018
106995
106972
106949
106926
106902
106877
106853
106828
106802
106776
106750
106723
106696
106669
106641
106612
106584
106555
106525
106495
106465
106434
106403
106372
106340
106308
106275
106242
106209
106175
106141
106107
106072
106037
106001
105966
105929
105893
105856
105819
105782
105744
105706
105668
105629
105590
105551
105512
105472
105432
105392
105352
105311
105271
105230
105189
105148
105106
105065
105023
104982
104940
104898
104856
104814
104772
104730
104687
104645
104603
104561
104519
104477
104435
104393
104351
104309
104268
104226
104185
104143
104102
104061
104021
103980
103940
103900
103860
103820
103781
103742
103703
103665
103627
103589
103552
103515
103478
103442
103406
103370
103335
103300
103266
103232
103198
103165
103132
103100
103068
103037
103006
102976
102946
102917
102888
102859
102831
102803
102776
102750
102724
102698
102673
102648
102624
102600
102577
102554
102532
102510
102488
102467
102447
102426
102407
102387
102369
102350
102332
102314
102297
102280
102264
102248
102232
102216
102201
102186
102172
102158
102144
102131
102117
102104
102092
102079
102067
102055
102043
102032
102021
102010
101999
101988
101978
101968
101957
101947
101938
101928
101918
101909
101900
101890
101881
101872
101864
101855
101846
101837
101829
101820
101812
101803
101795
101786
101778
101770
101761
101753
101745
101737
101728
101720
101712
101704
101696
101687
101679
101671
101663
101654
101646
101638
101629
101621
101613
101604
101596
101587
101579
101570
101562
101553
101545
101536
101528
101519
101510
101502
101493
101484
101476
101467
101458
101450
101441
101432
101423
101415
101406
101397
101389
101380
101371
101363
101354
101345
101337
101328
107619
107616
107613
107608
107601
107592
107581
107571
107562
107555
107551
107550
107554
107560
107572
107586
107604
107623
107645
107665
107683
107699
107710
107716
107719
107719
107718
107719
107721
107722
107724
107725
107723
107715
107697
107667
107623
107569
107509
107444
107379
107317
107261
107214
107175
107146
107127
107115
107114
107123
107137
107160
107188
107222
107260
107304
107352
107405
107464
107529
107598
107669
107738
107804
107862
107912
107953
107987
108013
108032
108044
108052
108055
108053
108048
108040
108030
108018
108005
107991
107977
107962
107948
107934
107921
107909
107898
107888
107879
107872
107867
107862
107860
107858
107857
107858
107859
107861
107863
107866
107869
107872
107874
107877
107880
107882
107885
107887
107889
107891
107892
107894
107896
107898
107900
107902
107904
107906
107909
107911
107914
107916
107919
107922
107924
107927
107929
107931
107933
107935
107937
107939
107940
107941
107942
107942
107943
107943
107943
107943
107942
107942
107941
107941
107940
107939
107938
107937
107936
107935
107933
107932
107931
107929
107928
107926
107924
107922
107921
107919
107917
107915
107913