/*--------------------------------*- C++ -*----------------------------------*\
| =========                 |                                                 |
| \\      /  F ield         | OpenFOAM: The Open Source CFD Toolbox           |
|  \\    /   O peration     | Version:  v1812                                 |
|   \\  /    A nd           | Web:      www.OpenFOAM.com                      |
|    \\/     M anipulation  |                                                 |
\*---------------------------------------------------------------------------*/
FoamFile
{
    version     2.0;
    format      ascii;
    class       surfaceScalarField;
    location    "0.4";
    object      phi;
}
// * * * * * * * * * * * * * * * * * * * * * * * * * * * * * * * * * * * * * //

dimensions      [1 0 -1 0 0 0 0];
oriented        oriented;


internalField   nonuniform List<scalar> 
40240
(
-0.000122236
0.00011545
-8.64488e-05
-4.28569e-05
0.000471673
-0.000565798
0.00156117
-0.0010978
0.0030518
-0.00149957
0.00476459
-0.00172222
0.00637286
-0.00161809
0.00779209
-0.00142939
0.00876939
-0.000987462
0.00934892
-0.000590194
0.00940673
-6.85389e-05
0.00919901
0.000195875
0.00864207
0.000545077
0.00800235
0.000627359
0.00723976
0.000749888
0.00652766
0.000699066
0.00586494
0.000649168
0.00537181
0.000479202
0.00503656
0.000320797
0.00483106
0.000190649
0.00473015
8.58989e-05
0.00473113
-1.62707e-05
0.0048061
-8.95192e-05
0.00493284
-0.000140541
0.00514027
-0.000220207
0.00541681
-0.000288015
0.00574908
-0.000341688
0.00613654
-0.000394357
0.00660051
-0.0004677
0.00718242
-0.00058191
0.00791771
-0.000731275
0.00883307
-0.000907353
0.00991547
-0.00107151
0.0112595
-0.00133223
0.0125312
-0.00126333
0.0135883
-0.00105627
0.0136612
-8.12331e-05
0.0127736
0.000873368
0.0116881
0.001063
0.0104969
0.00116323
0.00787398
0.00260074
0.00427924
0.00357771
-4.89825e-05
0.00432125
-0.00530602
0.00525644
-0.0115858
0.00628542
-0.0183132
0.00673765
-0.0250497
0.00674957
-0.0314304
0.00639649
-0.0372817
0.00586677
-0.0423083
0.00504333
-0.0464891
0.00419883
-0.0497161
0.00324701
-0.0519132
0.00221765
-0.053227
0.0013353
-0.0536418
0.000437818
-0.0533089
-0.000309425
-0.0520997
-0.00118495
-0.0502008
-0.00187396
-0.04758
-0.00259512
-0.0442666
-0.0032872
-0.0404039
-0.00383599
-0.036109
-0.0042678
-0.0314592
-0.0046222
-0.0265454
-0.0048855
-0.021532
-0.00498504
-0.0165104
-0.00499197
-0.0117959
-0.00468454
-0.00787013
-0.00389583
-0.00388177
-0.00395778
0.000171724
-0.00402193
0.00440972
-0.0042044
0.00836617
-0.00392058
0.011906
-0.003502
0.0150992
-0.00315316
0.0178645
-0.00272328
0.0202441
-0.00233558
0.0222245
-0.00193461
0.0238269
-0.00155481
0.0250437
-0.00116793
0.0258994
-0.000805605
0.0264463
-0.000496698
0.0265523
-5.63147e-05
0.0264837
0.000116102
0.0261457
0.000383902
0.0255722
0.00061655
0.0247628
0.000849635
0.0238242
0.000974787
0.0227565
0.00109902
0.0216064
0.00117559
0.0204118
0.00121382
0.019202
0.00122238
0.018002
0.00120694
0.0168304
0.00117459
0.0156991
0.00112766
0.0146209
0.00106966
0.0136039
0.00100537
0.012651
0.000938482
0.0117638
0.00087024
0.0109427
0.00080202
0.0101874
0.000734943
0.00949725
0.00066965
0.00886958
0.000607411
0.00830003
0.000549821
0.00778562
0.000495425
0.00731782
0.000449751
0.00689349
0.000407321
0.00650686
0.000370689
0.00615204
0.000339922
0.00582621
0.000311908
0.00552542
0.000287779
0.00524958
0.000263643
0.00499775
0.000240374
0.00476993
0.000217036
0.00456617
0.000193566
0.00438786
0.000168632
0.00423759
0.000141062
0.00411546
0.00011334
0.00402473
8.22744e-05
0.00396397
5.26653e-05
0.00394042
1.56673e-05
0.00394527
-1.24036e-05
0.00398241
-4.45339e-05
0.00404689
-7.16133e-05
0.00413991
-0.000100006
0.00425561
-0.000122506
0.00439339
-0.000144425
0.00454884
-0.000161956
0.00471922
-0.000176725
0.00490066
-0.000187642
0.00508944
-0.000194845
0.00528191
-0.000198381
0.00547478
-0.000198633
0.00566499
-0.00019583
0.00585042
-0.000190891
0.00602893
-0.000183828
0.00619907
-0.000175297
0.00636024
-0.000166157
0.00651143
-0.000156029
0.00665284
-0.000146048
0.0067837
-0.000135409
0.00690517
-0.000125827
0.00701702
-0.000115957
0.00711975
-0.000106688
0.00721429
-9.82847e-05
0.00730113
-9.04023e-05
0.00738107
-8.3296e-05
0.00745465
-7.672e-05
0.00752255
-7.08287e-05
0.00758534
-6.54735e-05
0.00764364
-6.075e-05
0.00769796
-5.65199e-05
0.0077488
-5.27841e-05
0.00779654
-4.94129e-05
0.00784154
-4.6396e-05
0.00788417
-4.3727e-05
0.00792474
-4.13771e-05
0.00796351
-3.92606e-05
0.00800068
-3.73389e-05
0.00803642
-3.55862e-05
0.00807091
-3.39856e-05
0.00810428
-3.25225e-05
0.00813669
-3.11858e-05
0.00816824
-2.99666e-05
0.00819908
-2.88561e-05
0.00822931
-2.78463e-05
0.00825903
-2.69292e-05
0.00828834
-2.60978e-05
0.00831733
-2.53455e-05
0.0083461
-2.46664e-05
0.00837472
-2.40547e-05
0.00840327
-2.35049e-05
0.00843182
-2.30117e-05
0.00846044
-2.25702e-05
0.00848919
-2.21757e-05
0.00851812
-2.18239e-05
0.0085473
-2.15113e-05
0.00857677
-2.12343e-05
0.00860659
-2.09896e-05
0.00863679
-2.07734e-05
0.00866742
-2.05825e-05
0.00869851
-2.04141e-05
0.00873011
-2.02653e-05
0.00876223
-2.01335e-05
0.00879492
-2.00161e-05
0.0088282
-1.99113e-05
0.0088621
-1.98171e-05
0.00889664
-1.97318e-05
0.00893186
-1.96543e-05
0.00896777
-1.95831e-05
0.0090044
-1.95161e-05
0.00904178
-1.94528e-05
0.00907993
-1.93925e-05
0.00911886
-1.93339e-05
0.00915861
-1.92731e-05
0.00919918
-1.92145e-05
0.00924061
-1.91547e-05
0.00928291
-1.90962e-05
0.0093261
-1.90319e-05
0.00937021
-1.89698e-05
0.00941525
-1.89003e-05
0.00946124
-1.88282e-05
0.00950819
-1.87533e-05
0.00955615
-1.86798e-05
0.00960511
-1.85976e-05
0.0096551
-1.85122e-05
0.00970615
-1.84229e-05
0.00975826
-1.83276e-05
0.00981147
-1.82306e-05
0.00986578
-1.8126e-05
0.00992124
-1.80225e-05
0.00997785
-1.79135e-05
0.0100356
-1.77998e-05
0.0100946
-1.76871e-05
0.0101549
-1.75588e-05
0.0102163
-1.74211e-05
0.010279
-1.72703e-05
0.010343
-1.71028e-05
0.0104082
-1.69251e-05
0.0104748
-1.67433e-05
0.0105426
-1.65616e-05
0.0106119
-1.63791e-05
0.0106825
-1.61965e-05
0.0107545
-1.60096e-05
0.010828
-1.58175e-05
0.0109029
-1.56212e-05
0.0109793
-1.54189e-05
0.0110572
-1.52055e-05
0.0111366
-1.49844e-05
0.0112176
-1.47557e-05
0.0113002
-1.45179e-05
0.0113843
-1.42689e-05
0.01147
-1.40125e-05
0.0115574
-1.37453e-05
0.0116464
-1.34693e-05
0.0117371
-1.31857e-05
0.0118295
-1.28925e-05
0.0119236
-1.25906e-05
0.0120194
-1.22825e-05
0.012117
-1.19632e-05
0.0122164
-1.16349e-05
0.0123175
-1.12963e-05
0.0124205
-1.09463e-05
0.0125253
-1.05898e-05
0.0126319
-1.02207e-05
0.0127404
-9.84464e-06
0.0128508
-9.45582e-06
0.012963
-9.05801e-06
0.0130772
-8.64855e-06
0.0131933
-8.2297e-06
0.0133114
-7.79965e-06
0.0134314
-7.35857e-06
0.0135534
-6.90725e-06
0.0136774
-6.44434e-06
0.0138033
-5.97433e-06
0.0139313
-5.49228e-06
0.0140612
-4.99633e-06
0.0141932
-4.49312e-06
0.0143273
-3.9778e-06
0.0144633
-3.44988e-06
0.0146014
-2.91171e-06
0.0147415
-2.36025e-06
0.0148837
-1.7991e-06
0.015028
-1.22547e-06
0.0151743
-6.4163e-07
0.0153226
-4.33983e-08
0.015473
5.6474e-07
0.0156254
1.18375e-06
0.0157799
1.81436e-06
0.0159364
2.4578e-06
0.016095
3.11285e-06
0.0162556
3.77752e-06
0.0164181
4.45515e-06
0.0165827
5.14593e-06
0.0167493
5.84478e-06
0.0169178
6.55691e-06
0.0170883
7.28019e-06
0.0172608
8.01604e-06
0.0174351
8.76437e-06
0.0176113
9.52308e-06
0.0177895
1.02949e-05
0.0179694
1.10756e-05
0.0181512
1.18691e-05
0.0183348
1.26731e-05
0.0185201
1.34865e-05
0.0187072
1.43124e-05
0.018896
1.51493e-05
0.0190864
1.59961e-05
0.0192784
1.68518e-05
0.0194721
1.77211e-05
0.0196672
1.85981e-05
0.0198639
1.94863e-05
0.020062
2.03846e-05
0.0202615
2.12924e-05
0.0204624
2.22088e-05
0.0206646
2.31348e-05
0.020868
2.40694e-05
0.0210726
2.5013e-05
0.0212784
2.59653e-05
0.0214852
2.69258e-05
0.021693
2.78964e-05
0.0219019
2.88734e-05
0.0221116
2.98569e-05
0.0223221
3.08495e-05
0.0225334
3.18466e-05
0.0227453
3.28504e-05
0.0229579
3.38607e-05
0.023171
3.48783e-05
0.0233847
3.59018e-05
0.0235987
3.69302e-05
0.023813
3.79628e-05
0.0240275
3.89988e-05
0.0242422
4.00388e-05
0.0244571
4.10821e-05
0.0246719
4.21293e-05
0.0248866
4.31807e-05
0.0251011
4.42348e-05
0.0253154
4.52908e-05
0.0255293
4.63484e-05
0.0257429
4.74077e-05
0.0259559
4.84673e-05
0.0261682
4.95277e-05
0.0263799
5.05867e-05
0.0265909
5.16445e-05
0.0268009
5.27035e-05
0.02701
5.37598e-05
0.027218
5.48121e-05
0.0274248
5.58631e-05
0.0276305
5.69107e-05
0.0278348
5.79539e-05
0.0280376
5.8993e-05
0.028239
6.00254e-05
0.0284388
6.10517e-05
0.0286369
6.20729e-05
0.0288332
6.30881e-05
0.0290277
6.4096e-05
0.0292202
6.50928e-05
0.0294106
6.6079e-05
0.029599
6.70563e-05
0.0297852
6.80257e-05
0.029969
6.89867e-05
0.0301506
6.99356e-05
0.0303296
7.08729e-05
0.0305062
7.1799e-05
0.0306802
7.27121e-05
0.0308515
7.36117e-05
0.0310201
7.44979e-05
0.0311858
7.53689e-05
0.0313487
7.62249e-05
0.0315086
7.70671e-05
0.0316656
7.78919e-05
0.0318195
7.86995e-05
0.0319703
7.94907e-05
0.0321179
8.02643e-05
0.0322623
8.1018e-05
0.0324034
8.17541e-05
0.0325412
8.24709e-05
0.0326756
8.31674e-05
0.0328066
8.38412e-05
0.0329343
8.44949e-05
0.0330584
8.51268e-05
0.0331791
8.57384e-05
0.0332962
8.63272e-05
0.0334098
8.68928e-05
0.0335198
8.74352e-05
0.0336263
8.79548e-05
0.0337292
8.8449e-05
0.0338284
8.89189e-05
0.0339241
8.93644e-05
0.0340161
8.97857e-05
0.0341046
9.0181e-05
0.0341894
9.05498e-05
0.0342707
9.08939e-05
0.0343484
9.12116e-05
0.0344225
9.15032e-05
0.034493
9.17688e-05
0.0345601
9.20084e-05
0.0346236
9.22212e-05
0.0346836
9.24072e-05
0.0347402
9.25673e-05
0.0347934
9.27014e-05
0.0348433
9.28088e-05
0.0348898
9.28881e-05
0.0349329
9.29401e-05
0.0349729
9.29678e-05
0.0350096
9.29673e-05
0.0350432
9.29381e-05
0.0350738
9.28841e-05
0.0351012
9.28064e-05
0.0351257
9.27013e-05
0.0351472
9.25688e-05
0.0351659
9.24093e-05
0.0351818
9.22252e-05
0.035195
9.20147e-05
0.0352055
9.17768e-05
0.0352134
9.15076e-05
0.0352188
9.12126e-05
0.0352216
9.10083e-05
0.0352221
9.05923e-05
0.0352208
8.9946e-05
0.0352169
8.98114e-05
0.03521
8.96354e-05
0.0352015
8.90085e-05
0.0351915
8.84226e-05
0.0351795
8.79729e-05
0.0351653
8.76424e-05
0.0351495
8.71993e-05
0.035132
8.64882e-05
0.0351128
8.60757e-05
0.0350921
8.53997e-05
0.0350699
8.48861e-05
0.0350464
8.4227e-05
0.0350215
8.36453e-05
0.0349954
8.29371e-05
0.034968
8.23695e-05
0.0349397
8.16437e-05
0.0349102
8.09913e-05
0.0348798
8.02508e-05
0.0348485
7.95299e-05
0.0348164
7.88501e-05
0.0347835
7.80659e-05
0.03475
7.73192e-05
0.0347158
7.65622e-05
0.0346811
7.5732e-05
0.0346458
7.5012e-05
0.0346101
7.42383e-05
0.034574
7.33814e-05
0.0345377
7.2531e-05
0.034501
7.1758e-05
0.0344642
7.08557e-05
0.0344271
7.00524e-05
0.03439
6.92077e-05
0.0343528
6.83553e-05
0.0343156
6.7498e-05
0.0342784
6.66026e-05
0.0342413
6.57631e-05
0.0342043
6.48508e-05
0.0341675
6.39684e-05
0.0341308
6.31271e-05
0.0340944
6.22312e-05
0.0340582
6.12855e-05
0.0340224
6.04167e-05
0.0339868
5.95368e-05
0.0339517
5.86222e-05
0.0339168
5.77423e-05
0.0338824
5.68619e-05
0.0338484
5.59255e-05
0.0338148
5.50157e-05
0.0337817
5.4138e-05
0.0337491
5.32442e-05
0.0337169
5.23255e-05
0.0336853
5.14101e-05
0.0336542
5.05195e-05
0.0336237
4.95994e-05
0.0335937
4.87015e-05
0.0335643
4.78086e-05
0.0335354
4.69192e-05
0.0335071
4.60191e-05
0.0334794
4.51219e-05
0.0334523
4.42241e-05
0.0334257
4.33262e-05
0.0333998
4.24246e-05
0.0333744
4.15299e-05
0.0333497
4.063e-05
0.0333256
3.97308e-05
0.033302
3.88209e-05
0.0332791
3.79126e-05
0.0332568
3.70047e-05
0.0332351
3.60871e-05
0.033214
3.51682e-05
0.0331935
3.42458e-05
0.0331737
3.33168e-05
0.0331544
3.23681e-05
0.0331359
3.14082e-05
0.0331179
3.04301e-05
0.0331006
2.94413e-05
0.0330841
2.84141e-05
0.0330682
2.74105e-05
0.0330529
2.63905e-05
0.0330384
2.5365e-05
0.0330247
2.42293e-05
0.0330118
2.30635e-05
0.0329999
2.18004e-05
0.0329891
2.05204e-05
0.0329796
1.90182e-05
0.0329715
1.75195e-05
0.0329653
1.57847e-05
0.0329609
1.41284e-05
0.0329586
1.23472e-05
0.0329585
1.04296e-05
0.0329613
8.11159e-06
0.032966
6.91441e-06
0.0329735
4.47063e-06
0.0329837
1.7009e-06
0.0329949
5.07096e-07
0.0330116
-5.28901e-06
0.0330286
-6.11551e-06
0.0330562
-1.75634e-05
0.0330819
-1.67515e-05
0.0331185
-2.95466e-05
-0.000103168
-8.20851e-06
0.000116386
0.000541715
-0.000600341
0.00199709
-0.00202922
0.0041692
-0.0032784
0.006764
-0.00410315
0.0094507
-0.00441779
0.0119959
-0.00417208
0.0142376
-0.00367959
0.0161938
-0.00295204
0.0178392
-0.00224357
0.0191797
-0.00141696
0.0200384
-0.000671223
0.0205719
3.16477e-06
0.0206909
0.000498827
0.0206153
0.000815382
0.0203117
0.000991272
0.0198894
0.00105856
0.0192904
0.00106389
0.0186385
0.000957656
0.0180228
0.000790608
0.0174763
0.000615699
0.0170223
0.00042044
0.0166869
0.000228242
0.0165497
-2.06862e-05
0.0165763
-0.000264249
0.0166762
-0.000403652
0.0167939
-0.00047336
0.0169795
-0.000592437
0.0172946
-0.000792415
0.0177533
-0.00104642
0.018384
-0.00136283
0.0191778
-0.00169502
0.0200591
-0.00193839
0.020401
-0.00165397
0.0200299
-0.000870416
0.0186441
0.000339664
0.0172447
0.00131277
0.0150221
0.00308166
0.0104003
0.00565189
0.00295336
0.00857672
-0.00597084
0.0114965
-0.0164142
0.0140051
-0.0278319
0.0157306
-0.0391523
0.016574
-0.0494045
0.0165364
-0.0582354
0.015569
-0.0651411
0.0136565
-0.0702831
0.0115397
-0.0738519
0.00943415
-0.0762243
0.00741366
-0.0773204
0.00529285
-0.0772611
0.0031857
-0.0762442
0.00119819
-0.0752997
0.000387501
-0.0736731
-0.00119144
-0.0711234
-0.00286135
-0.0680524
-0.00425781
-0.0643464
-0.00558119
-0.0601383
-0.00680391
-0.0554493
-0.00797647
-0.0501876
-0.00909749
-0.0444015
-0.0100534
-0.0382496
-0.0107737
-0.0318433
-0.0112919
-0.0252651
-0.0115632
-0.01863
-0.0116273
-0.0118653
-0.0114493
-0.00460277
-0.0111599
0.0023466
-0.0109096
0.00878244
-0.01046
0.0144784
-0.00990028
0.0197523
-0.00919269
0.0247079
-0.00845257
0.0293168
-0.00775242
0.0335532
-0.0069458
0.0374119
-0.00617592
0.0408831
-0.00538305
0.0439652
-0.00460952
0.0466418
-0.00381171
0.0489334
-0.0030589
0.0508002
-0.00231958
0.0522885
-0.00149581
0.0533181
-0.000860271
0.0539213
-0.000162499
0.0540276
0.000568596
0.0538066
0.00112941
0.0531672
0.00167227
0.0521449
0.00217732
0.0507941
0.00257888
0.0491583
0.00289762
0.0472881
0.00313511
0.0452423
0.00328933
0.0430824
0.00336473
0.0408646
0.00336876
0.0386392
0.00331177
0.0364501
0.0032059
0.0343333
0.00306241
0.0323151
0.0028931
0.0304108
0.0027057
0.0286298
0.00250935
0.02698
0.00230894
0.0254624
0.00211211
0.024074
0.00192329
0.0228087
0.00174403
0.0216558
0.00158496
0.0206069
0.0014382
0.0196551
0.00130468
0.0187887
0.00118907
0.0180007
0.0010835
0.0172858
0.000987042
0.0166398
0.000894898
0.0160598
0.000806401
0.0155457
0.000718048
0.0150977
0.000629115
0.0147157
0.000538784
0.0144011
0.000444376
0.0141521
0.000351533
0.013968
0.000256044
0.013848
0.000162647
0.0137936
6.04391e-05
0.0137969
-2.50956e-05
0.013857
-0.000113825
0.0139684
-0.000191951
0.0141283
-0.000268613
0.0143315
-0.000334265
0.0145719
-0.000393152
0.0148433
-0.00044159
0.0151391
-0.000480591
0.015453
-0.000509318
0.0157783
-0.000527857
0.0161093
-0.000536813
0.0164404
-0.000537065
0.016767
-0.00052939
0.0170853
-0.000515939
0.0173921
-0.00049715
0.0176851
-0.000474541
0.017963
-0.000449999
0.0182246
-0.000423322
0.0184697
-0.000396532
0.0186977
-0.000368514
0.0189095
-0.000342499
0.0191053
-0.00031624
0.0192858
-0.000291498
0.0194522
-0.00026871
0.0196055
-0.000247435
0.0197466
-0.000227931
0.0198767
-0.000210024
0.0199967
-0.000193855
0.0201077
-0.000179213
0.0202107
-0.000166149
0.0203064
-0.00015443
0.0203957
-0.000143967
0.0204792
-0.00013461
0.0205578
-0.000126309
0.0206319
-0.000118858
0.0207019
-0.00011212
0.0207682
-0.000106024
0.0208313
-0.000100517
0.0208914
-9.55055e-05
0.0209489
-9.09283e-05
0.0210041
-8.67439e-05
0.0210571
-8.2921e-05
0.0211082
-7.94363e-05
0.0211577
-7.62662e-05
0.0212057
-7.3388e-05
0.0212524
-7.07794e-05
0.021298
-6.84201e-05
0.0213427
-6.62916e-05
0.0213866
-6.43764e-05
0.0214299
-6.2658e-05
0.0214726
-6.11205e-05
0.021515
-5.97486e-05
0.0215571
-5.85285e-05
0.021599
-5.74469e-05
0.0216409
-5.64917e-05
0.0216828
-5.56522e-05
0.0217248
-5.49189e-05
0.021767
-5.42824e-05
0.0218095
-5.37328e-05
0.0218523
-5.32608e-05
0.0218956
-5.2858e-05
0.0219392
-5.25166e-05
0.0219834
-5.22296e-05
0.0220282
-5.19897e-05
0.0220735
-5.17913e-05
0.0221195
-5.16289e-05
0.0221662
-5.14985e-05
0.0222136
-5.13961e-05
0.0222618
-5.13163e-05
0.0223108
-5.12611e-05
0.0223606
-5.12207e-05
0.0224112
-5.11926e-05
0.0224628
-5.11769e-05
0.0225153
-5.11726e-05
0.0225687
-5.11735e-05
0.0226231
-5.11824e-05
0.0226785
-5.11964e-05
0.022735
-5.1213e-05
0.0227925
-5.12321e-05
0.0228511
-5.12471e-05
0.0229108
-5.12695e-05
0.0229717
-5.1286e-05
0.0230337
-5.13089e-05
0.0230969
-5.13241e-05
0.0231613
-5.13413e-05
0.0232269
-5.13484e-05
0.0232939
-5.13576e-05
0.0233621
-5.13676e-05
0.0234316
-5.13719e-05
0.0235025
-5.13759e-05
0.0235748
-5.13854e-05
0.0236485
-5.13908e-05
0.0237236
-5.13984e-05
0.0238002
-5.13945e-05
0.0238783
-5.13729e-05
0.0239579
-5.13269e-05
0.024039
-5.1244e-05
0.0241216
-5.11458e-05
0.0242058
-5.10414e-05
0.0242916
-5.09407e-05
0.024379
-5.08541e-05
0.0244681
-5.07823e-05
0.0245589
-5.07134e-05
0.0246514
-5.06495e-05
0.0247458
-5.05822e-05
0.0248419
-5.05097e-05
0.0249399
-5.04275e-05
0.0250398
-5.03325e-05
0.0251416
-5.02273e-05
0.0252452
-5.01149e-05
0.0253509
-4.99879e-05
0.0254585
-4.98503e-05
0.0255681
-4.97036e-05
0.0256798
-4.95437e-05
0.0257935
-4.93746e-05
0.0259094
-4.91986e-05
0.0260273
-4.90153e-05
0.0261475
-4.88257e-05
0.0262698
-4.86248e-05
0.0263943
-4.84127e-05
0.026521
-4.81929e-05
0.0266501
-4.79562e-05
0.0267814
-4.77114e-05
0.026915
-4.7455e-05
0.027051
-4.71902e-05
0.0271894
-4.69115e-05
0.0273302
-4.66258e-05
0.0274733
-4.63288e-05
0.027619
-4.60203e-05
0.0277671
-4.56995e-05
0.0279177
-4.53662e-05
0.0280709
-4.50215e-05
0.0282265
-4.46634e-05
0.0283848
-4.42987e-05
0.0285456
-4.3923e-05
0.028709
-4.35301e-05
0.0288751
-4.31311e-05
0.0290438
-4.27178e-05
0.0292151
-4.22855e-05
0.0293891
-4.18403e-05
0.0295658
-4.13818e-05
0.0297452
-4.09134e-05
0.0299272
-4.04341e-05
0.030112
-3.99391e-05
0.0302996
-3.94276e-05
0.0304898
-3.89071e-05
0.0306828
-3.83707e-05
0.0308786
-3.78175e-05
0.0310771
-3.72517e-05
0.0312783
-3.6672e-05
0.0314823
-3.60816e-05
0.031689
-3.54748e-05
0.0318985
-3.48543e-05
0.0321107
-3.42168e-05
0.0323257
-3.35659e-05
0.0325434
-3.29014e-05
0.0327638
-3.22223e-05
0.0329869
-3.15285e-05
0.0332127
-3.08181e-05
0.0334412
-3.00956e-05
0.0336723
-2.93574e-05
0.0339061
-2.86025e-05
0.0341425
-2.78341e-05
0.0343815
-2.70497e-05
0.0346231
-2.62507e-05
0.0348672
-2.54392e-05
0.0351138
-2.46124e-05
0.0353628
-2.37703e-05
0.0356144
-2.29087e-05
0.0358683
-2.20354e-05
0.0361246
-2.11468e-05
0.0363832
-2.02422e-05
0.0366441
-1.93249e-05
0.0369073
-1.83923e-05
0.0371726
-1.74435e-05
0.0374401
-1.6484e-05
0.0377097
-1.55093e-05
0.0379813
-1.45214e-05
0.0382548
-1.35197e-05
0.0385304
-1.25024e-05
0.0388077
-1.14731e-05
0.0390869
-1.04313e-05
0.0393678
-9.3737e-06
0.0396503
-8.30527e-06
0.0399345
-7.22451e-06
0.0402202
-6.13106e-06
0.0405073
-5.0243e-06
0.0407958
-3.90414e-06
0.0410856
-2.77052e-06
0.0413766
-1.62538e-06
0.0416688
-4.71479e-07
0.041962
6.92967e-07
0.0422562
1.86707e-06
0.0425513
3.05123e-06
0.0428472
4.25042e-06
0.0431437
5.46133e-06
0.0434409
6.68022e-06
0.0437386
7.90911e-06
0.0440368
9.14832e-06
0.0443353
1.0395e-05
0.044634
1.16501e-05
0.0449328
1.29102e-05
0.0452317
1.41773e-05
0.0455305
1.5455e-05
0.0458292
1.6738e-05
0.0461276
1.80229e-05
0.0464257
1.93147e-05
0.0467233
2.0611e-05
0.0470203
2.1911e-05
0.0473167
2.32156e-05
0.0476123
2.45196e-05
0.047907
2.58241e-05
0.0482008
2.713e-05
0.0484934
2.84393e-05
0.0487849
2.97502e-05
0.0490752
3.10566e-05
0.049364
3.23574e-05
0.0496514
3.36538e-05
0.0499372
3.49496e-05
0.0502213
3.62472e-05
0.0505037
3.75396e-05
0.0507841
3.8828e-05
0.0510626
4.01127e-05
0.0513391
4.13922e-05
0.0516134
4.26655e-05
0.0518854
4.3932e-05
0.0521551
4.51892e-05
0.0524224
4.64369e-05
0.0526872
4.76786e-05
0.0529493
4.89098e-05
0.0532088
5.01289e-05
0.0534656
5.13371e-05
0.0537195
5.25333e-05
0.0539705
5.37124e-05
0.0542186
5.48799e-05
0.0544636
5.60326e-05
0.0547055
5.71691e-05
0.0549442
5.82847e-05
0.0551797
5.93853e-05
0.0554119
6.04678e-05
0.0556407
6.15347e-05
0.0558662
6.25818e-05
0.0560882
6.36085e-05
0.0563067
6.46141e-05
0.0565217
6.55993e-05
0.0567332
6.65611e-05
0.056941
6.74998e-05
0.0571452
6.84152e-05
0.0573458
6.93083e-05
0.0575427
7.01757e-05
0.0577358
7.10154e-05
0.0579253
7.18311e-05
0.058111
7.26211e-05
0.058293
7.33857e-05
0.0584713
7.41246e-05
0.0586458
7.4838e-05
0.0588165
7.55239e-05
0.0589835
7.61817e-05
0.0591467
7.68129e-05
0.0593062
7.74178e-05
0.059462
7.79948e-05
0.059614
7.85414e-05
0.0597624
7.90558e-05
0.0599071
7.95439e-05
0.0600482
8.00022e-05
0.0601856
8.04275e-05
0.0603195
8.08239e-05
0.0604498
8.11957e-05
0.0605765
8.15372e-05
0.0606998
8.18469e-05
0.0608197
8.21232e-05
0.0609362
8.237e-05
0.0610493
8.25867e-05
0.0611591
8.27694e-05
0.0612657
8.29191e-05
0.061369
8.30457e-05
0.0614693
8.31357e-05
0.0615665
8.31771e-05
0.0616605
8.31461e-05
0.0617515
8.32402e-05
0.0618398
8.31333e-05
0.0619251
8.31003e-05
0.0620075
8.3036e-05
0.0620872
8.2945e-05
0.0621644
8.28092e-05
0.0622389
8.27457e-05
0.0623108
8.24506e-05
0.0623803
8.23189e-05
0.0624473
8.20027e-05
0.062512
8.17849e-05
0.0625744
8.14465e-05
0.0626346
8.11577e-05
0.0626926
8.07708e-05
0.0627486
8.04721e-05
0.0628025
8.00266e-05
0.0628544
7.96522e-05
0.0629044
7.91966e-05
0.0629526
7.87393e-05
0.062999
7.82958e-05
0.0630436
7.77697e-05
0.0630867
7.72618e-05
0.0631281
7.67376e-05
0.0631679
7.61446e-05
0.0632064
7.56072e-05
0.0632434
7.50334e-05
0.063279
7.44179e-05
0.0633133
7.37547e-05
0.0633464
7.315e-05
0.0633783
7.24437e-05
0.063409
7.18156e-05
0.0634386
7.11189e-05
0.0634672
7.04219e-05
0.0634947
6.97193e-05
0.0635213
6.89632e-05
0.0635471
6.8254e-05
0.0635719
6.74846e-05
0.0635959
6.67237e-05
0.0636191
6.59579e-05
0.0636416
6.51792e-05
0.0636634
6.43422e-05
0.0636845
6.35617e-05
0.063705
6.27448e-05
0.0637249
6.19051e-05
0.0637442
6.10846e-05
0.063763
6.02627e-05
0.0637813
5.9379e-05
0.0637991
5.85096e-05
0.0638165
5.76407e-05
0.0638334
5.6753e-05
0.06385
5.58428e-05
0.0638662
5.49163e-05
0.0638821
5.40122e-05
0.0638976
5.30611e-05
0.0639129
5.21317e-05
0.0639278
5.1177e-05
0.0639426
5.02147e-05
0.0639571
4.92274e-05
0.0639714
4.82294e-05
0.0639856
4.72065e-05
0.0639996
4.61674e-05
0.0640135
4.51001e-05
0.0640273
4.4023e-05
0.064041
4.29102e-05
0.0640547
4.17748e-05
0.0640684
4.05954e-05
0.064082
3.93807e-05
0.0640958
3.81308e-05
0.0641096
3.6828e-05
0.0641236
3.54832e-05
0.0641377
3.40878e-05
0.0641521
3.26386e-05
0.0641668
3.11099e-05
0.0641817
2.9509e-05
0.0641971
2.78013e-05
0.064213
2.60212e-05
0.0642294
2.41334e-05
0.0642464
2.21765e-05
0.0642642
2.00371e-05
0.064283
1.77771e-05
0.0643028
1.52208e-05
0.0643238
1.24889e-05
0.0643464
9.37501e-06
0.0643706
6.15696e-06
0.0643969
2.36425e-06
0.0644252
-1.40318e-06
0.0644563
-6.03856e-06
0.0644902
-1.04274e-05
0.0645281
-1.61374e-05
0.0645696
-2.12946e-05
0.0646163
-2.829e-05
0.0646682
-3.41031e-05
0.0647257
-4.14181e-05
0.0647896
-5.01009e-05
0.0648581
-5.55163e-05
0.0649356
-6.99893e-05
0.0650163
-7.41647e-05
0.0651119
-0.000100743
0.0652119
-0.0001049
0.0653371
-0.000144037
-0.000255365
0.00022869
-0.000120461
0.00134806
-0.00172799
0.00326053
-0.00395007
0.00581685
-0.00584298
0.00868269
-0.00697687
0.0115831
-0.00732541
0.0143377
-0.00693329
0.0167527
-0.00610024
0.0187928
-0.0049975
0.0203914
-0.00384715
0.0216199
-0.00265086
0.0225413
-0.00159839
0.0232441
-0.000705759
0.0237294
7.00612e-06
0.0240617
0.000475409
0.0242347
0.000809746
0.0243297
0.000953299
0.0245583
0.000825002
0.0249273
0.000574847
0.0252329
0.000469568
0.0255067
0.000324301
0.025685
0.000222637
0.0257362
0.000156052
0.0256632
3.04579e-05
0.0254407
-6.43866e-05
0.0251431
-0.000127985
0.0249085
-0.000259607
0.0246864
-0.000387888
0.0245134
-0.00063288
0.0243901
-0.000934452
0.0242558
-0.00123413
0.0239807
-0.00141612
0.0233479
-0.00128845
0.0225256
-0.000803651
0.0215214
0.00015947
0.0190745
0.00279484
0.0137598
0.0066194
0.00567932
0.0111286
-0.00457154
0.015859
-0.0165542
0.0205258
-0.029272
0.0241928
-0.0416678
0.0263881
-0.0526247
0.026676
-0.0613015
0.0252391
-0.0672589
0.0224801
-0.0710774
0.0193727
-0.0736899
0.0162517
-0.0755618
0.0133945
-0.0768376
0.0106925
-0.0774953
0.00805202
-0.0775792
0.00535693
-0.0771694
0.00275554
-0.07599
1.30253e-06
-0.073219
-0.00240296
-0.0699147
-0.00451135
-0.0663351
-0.00645531
-0.0622967
-0.00830749
-0.0577123
-0.0101739
-0.0525697
-0.0119511
-0.0469136
-0.0136354
-0.0408664
-0.0151461
-0.0344864
-0.0164323
-0.0278361
-0.0174225
-0.0210097
-0.0181178
-0.0141014
-0.018473
-0.00726249
-0.0184703
-0.000442619
-0.0182757
0.00621099
-0.0178231
0.0123887
-0.0170991
0.0182693
-0.0163545
0.0238778
-0.0155241
0.0292763
-0.0146074
0.034326
-0.0135185
0.0390382
-0.0124801
0.0434052
-0.0113264
0.0474255
-0.0102069
0.0511041
-0.0090707
0.0544393
-0.00795112
0.0574369
-0.00681086
0.060103
-0.00572046
0.0624087
-0.00461423
0.0644213
-0.00349088
0.0660532
-0.00246742
0.0673102
-0.00138719
0.0682483
-0.000328836
0.0687864
0.000640085
0.0689077
0.00160697
0.0686481
0.00249827
0.0679929
0.00329968
0.0669492
0.00400906
0.0655467
0.00460556
0.0638178
0.00508449
0.0618062
0.00543946
0.0595657
0.00566777
0.0571569
0.00577327
0.0546438
0.00576416
0.0520873
0.00565613
0.0495444
0.0054668
0.047062
0.00521419
0.0446758
0.00491936
0.0424091
0.00459393
0.0402744
0.00425794
0.0382821
0.00392297
0.0364338
0.00359427
0.0347245
0.0032898
0.033153
0.00299985
0.0317156
0.0027282
0.0304043
0.00248462
0.0292128
0.00225827
0.0281342
0.00204851
0.0271653
0.00184676
0.0263042
0.00165097
0.0255453
0.00146106
0.0248843
0.0012748
0.0243196
0.00108878
0.0238486
0.000901162
0.0234691
0.000717331
0.0231793
0.000532368
0.0229774
0.000351468
0.0228516
0.000173331
0.0228095
4.27643e-06
0.0228374
-0.000154166
0.02293
-0.000296928
0.0230775
-0.000428441
0.0232764
-0.000545286
0.0235184
-0.000647227
0.0237973
-0.000732473
0.0241051
-0.000800346
0.0244346
-0.000850572
0.0247786
-0.000883366
0.0251303
-0.000899919
0.0254838
-0.000901634
0.0258336
-0.000889948
0.0261756
-0.000868285
0.0265063
-0.000837755
0.0268231
-0.000800848
0.0271244
-0.000760228
0.0274089
-0.000716285
0.0276762
-0.000671682
0.0279255
-0.000625168
0.0281575
-0.000581275
0.0283721
-0.000537115
0.0285703
-0.000495435
0.0287528
-0.000456498
0.0289208
-0.000420156
0.0290752
-0.000386612
0.029217
-0.000355778
0.0293475
-0.000327796
0.0294675
-0.000302414
0.0295782
-0.000279616
0.0296805
-0.000259099
0.0297752
-0.000240758
0.0298632
-0.000224311
0.029945
-0.000209537
0.0300213
-0.000196261
0.0300927
-0.000184326
0.0301598
-0.000173525
0.0302229
-0.000163672
0.0302822
-0.000154646
0.0303383
-0.000146376
0.0303913
-0.000138802
0.0304416
-0.000131881
0.0304894
-0.00012557
0.030535
-0.000119829
0.0305788
-0.000114613
0.0306208
-0.000109883
0.0306613
-0.000105599
0.0307005
-0.00010173
0.0307386
-9.82438e-05
0.0307757
-9.51108e-05
0.0308121
-9.23034e-05
0.0308478
-8.97942e-05
0.030883
-8.75582e-05
0.0309179
-8.55717e-05
0.0309525
-8.38133e-05
0.0309869
-8.22647e-05
0.0310213
-8.09099e-05
0.0310557
-7.97324e-05
0.0310903
-7.87135e-05
0.0311251
-7.78356e-05
0.0311602
-7.70832e-05
0.0311956
-7.64429e-05
0.0312314
-7.59026e-05
0.0312677
-7.54504e-05
0.0313046
-7.50758e-05
0.031342
-7.47695e-05
0.03138
-7.45225e-05
0.0314187
-7.4329e-05
0.0314581
-7.41816e-05
0.0314983
-7.40765e-05
0.0315392
-7.40038e-05
0.0315809
-7.39643e-05
0.0316235
-7.39468e-05
0.0316669
-7.3946e-05
0.0317113
-7.39612e-05
0.0317566
-7.39973e-05
0.0318029
-7.40509e-05
0.0318502
-7.41051e-05
0.0318985
-7.41766e-05
0.0319478
-7.42417e-05
0.0319982
-7.43133e-05
0.0320498
-7.43848e-05
0.0321024
-7.4481e-05
0.0321563
-7.45605e-05
0.0322113
-7.46484e-05
0.0322675
-7.47255e-05
0.032325
-7.48095e-05
0.0323837
-7.48964e-05
0.0324438
-7.49774e-05
0.0325051
-7.50626e-05
0.0325678
-7.5152e-05
0.0326319
-7.52408e-05
0.0326974
-7.53391e-05
0.0327643
-7.54247e-05
0.0328327
-7.54995e-05
0.0329025
-7.55505e-05
0.0329739
-7.5561e-05
0.0330469
-7.55374e-05
0.0331213
-7.5497e-05
0.0331974
-7.54634e-05
0.0332751
-7.54455e-05
0.0333544
-7.54569e-05
0.0334354
-7.54808e-05
0.0335181
-7.55189e-05
0.0336026
-7.55596e-05
0.0336889
-7.56059e-05
0.033777
-7.56387e-05
0.0338669
-7.56564e-05
0.0339588
-7.56649e-05
0.0340526
-7.56634e-05
0.0341483
-7.56431e-05
0.0342459
-7.56151e-05
0.0343456
-7.55732e-05
0.0344473
-7.552e-05
0.0345511
-7.54595e-05
0.0346569
-7.53896e-05
0.0347648
-7.53127e-05
0.0348749
-7.52333e-05
0.0349872
-7.51432e-05
0.0351017
-7.50427e-05
0.0352184
-7.49344e-05
0.0353374
-7.48068e-05
0.0354587
-7.46762e-05
0.0355823
-7.45316e-05
0.0357082
-7.43809e-05
0.0358365
-7.42142e-05
0.0359672
-7.40413e-05
0.0361004
-7.38556e-05
0.036236
-7.36609e-05
0.0363741
-7.34542e-05
0.0365146
-7.32353e-05
0.0366577
-7.30047e-05
0.0368034
-7.27589e-05
0.0369516
-7.25119e-05
0.0371024
-7.2254e-05
0.0372559
-7.19762e-05
0.0374119
-7.16923e-05
0.0375706
-7.13974e-05
0.037732
-7.10829e-05
0.0378961
-7.07561e-05
0.0380629
-7.04142e-05
0.0382324
-7.00634e-05
0.0384046
-6.97e-05
0.0385796
-6.93214e-05
0.0387573
-6.8925e-05
0.0389378
-6.852e-05
0.039121
-6.80992e-05
0.0393071
-6.76655e-05
0.0394959
-6.72186e-05
0.0396875
-6.67558e-05
0.0398819
-6.62814e-05
0.0400791
-6.57928e-05
0.0402791
-6.52845e-05
0.0404819
-6.47622e-05
0.0406874
-6.42268e-05
0.0408958
-6.36774e-05
0.0411069
-6.3114e-05
0.0413208
-6.25315e-05
0.0415375
-6.19337e-05
0.0417568
-6.13195e-05
0.0419789
-6.06899e-05
0.0422037
-6.00431e-05
0.0424312
-5.93816e-05
0.0426614
-5.87066e-05
0.0428942
-5.80155e-05
0.0431297
-5.73092e-05
0.0433677
-5.65848e-05
0.0436083
-5.58461e-05
0.0438514
-5.50849e-05
0.044097
-5.43116e-05
0.0443451
-5.35208e-05
0.0445956
-5.27128e-05
0.0448486
-5.18893e-05
0.0451038
-5.10492e-05
0.0453613
-5.01925e-05
0.0456211
-4.9323e-05
0.0458832
-4.84355e-05
0.0461473
-4.75325e-05
0.0464136
-4.66148e-05
0.0466819
-4.5678e-05
0.0469522
-4.47263e-05
0.0472244
-4.37619e-05
0.0474985
-4.27776e-05
0.0477744
-4.17805e-05
0.048052
-4.07685e-05
0.0483313