/*--------------------------------*- C++ -*----------------------------------*\
| =========                 |                                                 |
| \\      /  F ield         | OpenFOAM: The Open Source CFD Toolbox           |
|  \\    /   O peration     | Version:  v1812                                 |
|   \\  /    A nd           | Web:      www.OpenFOAM.com                      |
|    \\/     M anipulation  |                                                 |
\*---------------------------------------------------------------------------*/
FoamFile
{
    version     2.0;
    format      ascii;
    class       volScalarField;
    location    "0.4";
    object      rho;
}
// * * * * * * * * * * * * * * * * * * * * * * * * * * * * * * * * * * * * * //

dimensions      [1 -3 0 0 0 0 0];


internalField   nonuniform List<scalar> 
20400
(
1.25973
1.26001
1.26048
1.26106
1.26166
1.26221
1.26267
1.26305
1.26334
1.26354
1.26365
1.26367
1.26368
1.26364
1.26356
1.26342
1.26322
1.26295
1.26262
1.26225
1.26188
1.26154
1.26128
1.26114
1.26113
1.26125
1.26155
1.26206
1.26282
1.26384
1.26514
1.26666
1.26834
1.27007
1.2716
1.27251
1.27262
1.27211
1.27092
1.2688
1.266
1.26301
1.26022
1.25785
1.25597
1.25449
1.25331
1.25238
1.2517
1.25119
1.25084
1.25062
1.25052
1.25054
1.25063
1.25085
1.25111
1.25148
1.25189
1.25236
1.25285
1.25336
1.25388
1.25441
1.25493
1.25545
1.25593
1.25632
1.25659
1.25688
1.25725
1.25776
1.25831
1.25889
1.25954
1.26022
1.26096
1.26175
1.26259
1.2635
1.26446
1.26546
1.26641
1.26732
1.26819
1.26902
1.2698
1.27049
1.27106
1.27148
1.27172
1.27177
1.27168
1.27143
1.271
1.27043
1.26978
1.26907
1.26829
1.26747
1.26666
1.26589
1.26515
1.26448
1.26386
1.2633
1.26281
1.26238
1.26201
1.26169
1.26142
1.26118
1.26099
1.26082
1.26068
1.26056
1.26047
1.26039
1.26032
1.26026
1.26021
1.26017
1.26014
1.26011
1.26009
1.26007
1.26005
1.26003
1.26002
1.26001
1.25999
1.25998
1.25997
1.25996
1.25995
1.25995
1.25994
1.25993
1.25992
1.25991
1.2599
1.25989
1.25988
1.25987
1.25986
1.25985
1.25984
1.25983
1.25982
1.2598
1.25979
1.25978
1.25977
1.25975
1.25974
1.25972
1.25971
1.25969
1.25967
1.25966
1.25964
1.25962
1.25961
1.25959
1.25957
1.25955
1.25953
1.25951
1.25949
1.25947
1.25944
1.25942
1.2594
1.25937
1.25935
1.25933
1.2593
1.25927
1.25924
1.25922
1.25919
1.25916
1.25913
1.25909
1.25906
1.25903
1.25899
1.25896
1.25892
1.25888
1.25885
1.25881
1.25876
1.25872
1.25868
1.25863
1.25859
1.25854
1.25849
1.25844
1.25839
1.25834
1.25829
1.25823
1.25817
1.25812
1.25806
1.25799
1.25793
1.25786
1.2578
1.25773
1.25766
1.25759
1.25751
1.25744
1.25736
1.25728
1.2572
1.25712
1.25703
1.25694
1.25685
1.25676
1.25667
1.25657
1.25647
1.25637
1.25627
1.25616
1.25605
1.25594
1.25583
1.25572
1.2556
1.25548
1.25535
1.25523
1.2551
1.25497
1.25484
1.2547
1.25456
1.25442
1.25427
1.25413
1.25398
1.25382
1.25367
1.25351
1.25334
1.25318
1.25301
1.25284
1.25267
1.25249
1.25231
1.25212
1.25194
1.25175
1.25155
1.25135
1.25115
1.25095
1.25074
1.25053
1.25032
1.2501
1.24989
1.24966
1.24944
1.24921
1.24897
1.24874
1.2485
1.24825
1.24801
1.24776
1.2475
1.24725
1.24699
1.24672
1.24646
1.24619
1.24591
1.24564
1.24536
1.24508
1.24479
1.2445
1.24421
1.24391
1.24362
1.24332
1.24301
1.24271
1.2424
1.24208
1.24177
1.24145
1.24113
1.24081
1.24048
1.24016
1.23983
1.2395
1.23916
1.23883
1.23849
1.23815
1.23781
1.23746
1.23712
1.23677
1.23642
1.23607
1.23572
1.23537
1.23501
1.23466
1.2343
1.23394
1.23359
1.23323
1.23287
1.23251
1.23215
1.23179
1.23143
1.23107
1.23072
1.23036
1.23
1.22964
1.22928
1.22893
1.22857
1.22822
1.22786
1.22751
1.22716
1.22681
1.22646
1.22611
1.22577
1.22543
1.22508
1.22475
1.22441
1.22408
1.22374
1.22341
1.22309
1.22276
1.22244
1.22212
1.22181
1.2215
1.22119
1.22088
1.22058
1.22028
1.21998
1.21969
1.2194
1.21911
1.21883
1.21855
1.21828
1.21801
1.21774
1.21748
1.21722
1.21697
1.21671
1.21647
1.21622
1.21598
1.21575
1.21552
1.21529
1.21507
1.21485
1.21463
1.21442
1.21421
1.21401
1.21381
1.21362
1.21342
1.21324
1.21305
1.21287
1.21269
1.21252
1.21235
1.21218
1.21202
1.21186
1.2117
1.21155
1.2114
1.21125
1.21111
1.21097
1.21083
1.2107
1.21057
1.21044
1.21031
1.21019
1.21007
1.20995
1.20983
1.20972
1.2096
1.20949
1.20939
1.20928
1.20918
1.20907
1.20897
1.20887
1.20878
1.20868
1.20859
1.2085
1.2084
1.20831
1.20822
1.20814
1.20805
1.20796
1.20788
1.2078
1.20771
1.20763
1.20755
1.20747
1.20739
1.20731
1.20723
1.20715
1.20707
1.20699
1.20692
1.20684
1.20676
1.20669
1.20661
1.20653
1.20646
1.20638
1.2063
1.20623
1.20615
1.20608
1.206
1.20592
1.20585
1.20577
1.2057
1.20562
1.20554
1.20547
1.20539
1.20532
1.20524
1.20516
1.20509
1.20501
1.20494
1.20486
1.20478
1.20471
1.20463
1.20456
1.20448
1.20441
1.20433
1.20426
1.2042
1.20413
1.20407
1.20403
1.20399
1.20397
1.20398
1.20401
1.20407
1.20415
1.20425
1.20437
1.2045
1.20462
1.20475
1.20486
1.20497
1.20514
1.20528
1.26014
1.26058
1.26134
1.26227
1.26322
1.26407
1.26476
1.26528
1.26565
1.26585
1.2659
1.26586
1.26576
1.26561
1.26541
1.26518
1.26491
1.26461
1.26427
1.26388
1.26346
1.26302
1.26259
1.2622
1.26189
1.26168
1.26163
1.26171
1.26196
1.26245
1.26324
1.26439
1.26596
1.268
1.27006
1.27161
1.27198
1.27145
1.26962
1.26648
1.26295
1.25975
1.25713
1.25518
1.25369
1.25244
1.25141
1.25058
1.24996
1.24947
1.24913
1.24891
1.24879
1.24868
1.24867
1.24874
1.24886
1.24902
1.24918
1.24936
1.24955
1.24974
1.2499
1.25003
1.25008
1.25013
1.25015
1.25019
1.25014
1.25011
1.25007
1.25013
1.25022
1.25038
1.25065
1.25101
1.25146
1.252
1.25265
1.25343
1.25434
1.2554
1.25658
1.2579
1.25931
1.26074
1.26219
1.26361
1.26497
1.26623
1.26737
1.26835
1.26916
1.26977
1.27016
1.27035
1.2704
1.27033
1.27015
1.26977
1.26925
1.26864
1.26798
1.26729
1.26659
1.26591
1.26525
1.26465
1.2641
1.26361
1.26317
1.26279
1.26245
1.26217
1.26192
1.26171
1.26153
1.26137
1.26124
1.26112
1.26102
1.26093
1.26086
1.26079
1.26072
1.26066
1.26061
1.26056
1.26051
1.26046
1.26042
1.26037
1.26033
1.26029
1.26026
1.26022
1.26019
1.26016
1.26013
1.26011
1.26009
1.26007
1.26005
1.26003
1.26001
1.26
1.25998
1.25997
1.25995
1.25994
1.25992
1.25991
1.25989
1.25988
1.25986
1.25985
1.25983
1.25981
1.2598
1.25978
1.25976
1.25974
1.25973
1.25971
1.25969
1.25967
1.25965
1.25963
1.25961
1.25959
1.25956
1.25954
1.25952
1.25949
1.25947
1.25944
1.25942
1.25939
1.25936
1.25934
1.25931
1.25928
1.25925
1.25922
1.25918
1.25915
1.25912
1.25908
1.25905
1.25901
1.25897
1.25893
1.25889
1.25885
1.25881
1.25876
1.25872
1.25867
1.25862
1.25858
1.25853
1.25847
1.25842
1.25837
1.25831
1.25825
1.25819
1.25813
1.25807
1.25801
1.25794
1.25787
1.2578
1.25773
1.25766
1.25758
1.25751
1.25743
1.25735
1.25727
1.25718
1.25709
1.25701
1.25691
1.25682
1.25673
1.25663
1.25653
1.25643
1.25632
1.25621
1.2561
1.25599
1.25588
1.25576
1.25564
1.25552
1.25539
1.25527
1.25514
1.255
1.25487
1.25473
1.25459
1.25444
1.2543
1.25415
1.25399
1.25384
1.25368
1.25352
1.25335
1.25318
1.25301
1.25284
1.25266
1.25248
1.2523
1.25211
1.25192
1.25173
1.25153
1.25133
1.25113
1.25092
1.25072
1.2505
1.25029
1.25007
1.24985
1.24962
1.24939
1.24916
1.24892
1.24868
1.24844
1.24819
1.24794
1.24769
1.24744
1.24718
1.24692
1.24665
1.24638
1.24611
1.24583
1.24556
1.24528
1.24499
1.2447
1.24441
1.24412
1.24382
1.24352
1.24322
1.24292
1.24261
1.2423
1.24198
1.24167
1.24135
1.24103
1.24071
1.24038
1.24005
1.23972
1.23939
1.23905
1.23872
1.23838
1.23804
1.2377
1.23735
1.23701
1.23666
1.23631
1.23596
1.23561
1.23526
1.23491
1.23456
1.2342
1.23385
1.23349
1.23314
1.23278
1.23242
1.23207
1.23171
1.23135
1.23099
1.23064
1.23028
1.22993
1.22957
1.22922
1.22887
1.22851
1.22816
1.22781
1.22746
1.22712
1.22677
1.22643
1.22609
1.22575
1.22541
1.22507
1.22474
1.22441
1.22408
1.22375
1.22343
1.22311
1.22279
1.22248
1.22216
1.22185
1.22155
1.22125
1.22095
1.22065
1.22036
1.22007
1.21978
1.2195
1.21922
1.21895
1.21868
1.21841
1.21815
1.21789
1.21763
1.21738
1.21713
1.21689
1.21665
1.21641
1.21618
1.21595
1.21573
1.21551
1.21529
1.21508
1.21487
1.21467
1.21447
1.21427
1.21408
1.21389
1.21371
1.21353
1.21335
1.21317
1.213
1.21284
1.21267
1.21251
1.21236
1.21221
1.21206
1.21191
1.21177
1.21163
1.21149
1.21135
1.21122
1.21109
1.21097
1.21085
1.21072
1.21061
1.21049
1.21038
1.21027
1.21016
1.21005
1.20994
1.20984
1.20974
1.20964
1.20954
1.20945
1.20935
1.20926
1.20917
1.20908
1.20899
1.2089
1.20882
1.20873
1.20865
1.20857
1.20848
1.2084
1.20832
1.20824
1.20816
1.20808
1.20801
1.20793
1.20785
1.20778
1.2077
1.20763
1.20755
1.20748
1.2074
1.20733
1.20725
1.20718
1.2071
1.20703
1.20696
1.20688
1.20681
1.20673
1.20666
1.20659
1.20651
1.20644
1.20636
1.20629
1.20622
1.20614
1.20607
1.20599
1.20592
1.20584
1.20577
1.2057
1.20562
1.20555
1.20547
1.2054
1.20532
1.20525
1.20517
1.2051
1.20503
1.20495
1.20488
1.20481
1.20474
1.20468
1.20462
1.20457
1.20454
1.20451
1.20451
1.20453
1.20456
1.20462
1.2047
1.20479
1.20489
1.20499
1.2051
1.20525
1.20539
1.26099
1.26171
1.26296
1.2644
1.26578
1.2669
1.26771
1.26823
1.26851
1.26861
1.26858
1.2685
1.26836
1.26818
1.26794
1.26767
1.26736
1.26702
1.26665
1.26623
1.26576
1.26524
1.26469
1.26412
1.26355
1.26301
1.26253
1.26221
1.26212
1.26221
1.26255
1.26334
1.2648
1.26698
1.26938
1.27087
1.27077
1.2693
1.26596
1.2621
1.25871
1.25608
1.2542
1.25283
1.25189
1.25124
1.25082
1.25048
1.25021
1.25003
1.25001
1.25014
1.25031
1.25069
1.25096
1.2512
1.25134
1.25142
1.25138
1.25128
1.2511
1.25084
1.25051
1.25017
1.24982
1.24946
1.24907
1.24866
1.24825
1.24784
1.24742
1.24703
1.24665
1.24629
1.24599
1.24575
1.2456
1.24548
1.24545
1.24556
1.24582
1.24623
1.2468
1.24757
1.24856
1.24977
1.25121
1.25282
1.25457
1.25642
1.25832
1.26021
1.26204
1.26377
1.26535
1.26672
1.26783
1.2687
1.26937
1.2699
1.27031
1.2705
1.2705
1.27038
1.27008
1.26961
1.26901
1.26836
1.2677
1.26705
1.26644
1.26588
1.26536
1.26491
1.2645
1.26414
1.26382
1.26354
1.26329
1.26307
1.26287
1.2627
1.26254
1.26239
1.26225
1.26211
1.26199
1.26186
1.26173
1.26161
1.26149
1.26137
1.26125
1.26113
1.26102
1.26092
1.26082
1.26073
1.26065
1.26057
1.26051
1.26045
1.26039
1.26035
1.2603
1.26027
1.26023
1.26021
1.26018
1.26016
1.26014
1.26011
1.2601
1.26008
1.26006
1.26004
1.26002
1.26001
1.25999
1.25997
1.25995
1.25993
1.25991
1.25989
1.25987
1.25985
1.25983
1.25981
1.25979
1.25976
1.25974
1.25972
1.25969
1.25967
1.25965
1.25962
1.25959
1.25957
1.25954
1.25951
1.25948
1.25945
1.25942
1.25939
1.25936
1.25933
1.25929
1.25926
1.25922
1.25919
1.25915
1.25911
1.25907
1.25903
1.25899
1.25895
1.2589
1.25886
1.25881
1.25876
1.25871
1.25866
1.25861
1.25856
1.2585
1.25844
1.25839
1.25833
1.25827
1.2582
1.25814
1.25807
1.258
1.25793
1.25786
1.25779
1.25771
1.25764
1.25756
1.25747
1.25739
1.25731
1.25722
1.25713
1.25704
1.25694
1.25685
1.25675
1.25664
1.25654
1.25644
1.25633
1.25622
1.2561
1.25599
1.25587
1.25575
1.25562
1.25549
1.25537
1.25523
1.2551
1.25496
1.25482
1.25468
1.25453
1.25438
1.25423
1.25407
1.25391
1.25375
1.25359
1.25342
1.25325
1.25308
1.2529
1.25272
1.25254
1.25235
1.25216
1.25197
1.25177
1.25157
1.25137
1.25116
1.25095
1.25074
1.25053
1.25031
1.25008
1.24986
1.24963
1.2494
1.24916
1.24892
1.24868
1.24843
1.24818
1.24793
1.24768
1.24742
1.24716
1.24689
1.24662
1.24635
1.24608
1.2458
1.24552
1.24523
1.24494
1.24465
1.24436
1.24407
1.24377
1.24346
1.24316
1.24285
1.24254
1.24223
1.24191
1.2416
1.24128
1.24095
1.24063
1.2403
1.23997
1.23964
1.2393
1.23897
1.23863
1.23829
1.23795
1.23761
1.23726
1.23692
1.23657
1.23622
1.23587
1.23552
1.23517
1.23481
1.23446
1.23411
1.23375
1.23339
1.23304
1.23268
1.23233
1.23197
1.23161
1.23126
1.2309
1.23055
1.23019
1.22984
1.22949
1.22913
1.22878
1.22843
1.22808
1.22774
1.22739
1.22705
1.2267
1.22636
1.22602
1.22569
1.22535
1.22502
1.22469
1.22436
1.22403
1.22371
1.22339
1.22307
1.22276
1.22245
1.22214
1.22184
1.22153
1.22124
1.22094
1.22065
1.22036
1.22008
1.21979
1.21952
1.21924
1.21897
1.21871
1.21845
1.21819
1.21793
1.21768
1.21744
1.21719
1.21696
1.21672
1.21649
1.21626
1.21604
1.21582
1.21561
1.2154
1.21519
1.21499
1.21479
1.2146
1.2144
1.21422
1.21403
1.21385
1.21368
1.21351
1.21334
1.21317
1.21301
1.21285
1.2127
1.21255
1.2124
1.21226
1.21211
1.21198
1.21184
1.21171
1.21158
1.21145
1.21133
1.21121
1.21109
1.21097
1.21086
1.21074
1.21064
1.21053
1.21042
1.21032
1.21022
1.21012
1.21002
1.20993
1.20983
1.20974
1.20965
1.20956
1.20947
1.20939
1.2093
1.20922
1.20913
1.20905
1.20897
1.20889
1.20881
1.20873
1.20866
1.20858
1.2085
1.20843
1.20835
1.20828
1.2082
1.20813
1.20805
1.20798
1.20791
1.20784
1.20776
1.20769
1.20762
1.20755
1.20747
1.2074
1.20733
1.20726
1.20719
1.20711
1.20704
1.20697
1.2069
1.20683
1.20675
1.20668
1.20661
1.20654
1.20646
1.20639
1.20632
1.20625
1.20617
1.2061
1.20603
1.20595
1.20588
1.20581
1.20574
1.20566
1.20559
1.20552
1.20545
1.20537
1.2053
1.20524
1.20517
1.20511
1.20505
1.205
1.20495
1.20492
1.20491
1.20491
1.20493
1.20496
1.205
1.20506
1.20512
1.20519
1.20529
1.20536
1.26219
1.26325
1.26492
1.2667
1.2682
1.26925
1.26987
1.27015
1.27023
1.27019
1.27009
1.26996
1.26982
1.26967
1.2695
1.2693
1.26908
1.2688
1.26846
1.26807
1.26762
1.26712
1.26656
1.26596
1.26532
1.26462
1.2639
1.26324
1.26282
1.26273
1.26287
1.26346
1.26487
1.26714
1.26931
1.27007
1.26898
1.26574
1.26164
1.25815
1.25568
1.25411
1.25317
1.25252
1.25201
1.2519
1.25202
1.25247
1.25314
1.25394
1.25473
1.25535
1.2558
1.25601
1.25595
1.25574
1.25535
1.25481
1.25412
1.25335
1.25256
1.25185
1.25123
1.25064
1.25008
1.24953
1.24898
1.24846
1.24788
1.2473
1.24669
1.24613
1.24558
1.24504
1.24454
1.24406
1.24361
1.2432
1.24285
1.24259
1.24241
1.24228
1.24224
1.24233
1.24257
1.24299
1.24362
1.24451
1.24566
1.24707
1.24873
1.25061
1.25268
1.25486
1.2571
1.25932
1.26144
1.26342
1.26523
1.26683
1.26817
1.26923
1.27008
1.27084
1.27145
1.27177
1.27179
1.27171
1.27145
1.27101
1.27046
1.26988
1.26931
1.26876
1.26826
1.26779
1.26737
1.26699
1.26664
1.26632
1.26602
1.26575
1.26549
1.26524
1.26501
1.26477
1.26454
1.26431
1.26407
1.26383
1.26359
1.26334
1.2631
1.26285
1.26261
1.26237
1.26214
1.26192
1.26172
1.26153
1.26136
1.2612
1.26106
1.26093
1.26082
1.26072
1.26064
1.26057
1.26051
1.26046
1.26041
1.26038
1.26034
1.26031
1.26029
1.26026
1.26024
1.26022
1.2602
1.26017
1.26015
1.26013
1.26011
1.26009
1.26007
1.26005
1.26002
1.26
1.25998
1.25995
1.25993
1.2599
1.25988
1.25985
1.25983
1.2598
1.25977
1.25975
1.25972
1.25969
1.25966
1.25963
1.2596
1.25957
1.25953
1.2595
1.25947
1.25943
1.2594
1.25936
1.25932
1.25929
1.25925
1.25921
1.25916
1.25912
1.25908
1.25903
1.25899
1.25894
1.25889
1.25884
1.25879
1.25874
1.25868
1.25863
1.25857
1.25851
1.25845
1.25839
1.25833
1.25826
1.25819
1.25813
1.25806
1.25798
1.25791
1.25783
1.25775
1.25767
1.25759
1.25751
1.25742
1.25733
1.25724
1.25715
1.25705
1.25696
1.25686
1.25675
1.25665
1.25654
1.25643
1.25632
1.2562
1.25609
1.25597
1.25584
1.25572
1.25559
1.25546
1.25532
1.25519
1.25505
1.2549
1.25476
1.25461
1.25446
1.2543
1.25414
1.25398
1.25382
1.25365
1.25348
1.25331
1.25313
1.25295
1.25277
1.25258
1.25239
1.2522
1.252
1.25181
1.2516
1.2514
1.25119
1.25097
1.25076
1.25054
1.25032
1.25009
1.24986
1.24963
1.24939
1.24915
1.24891
1.24867
1.24842
1.24816
1.24791
1.24765
1.24739
1.24712
1.24685
1.24658
1.24631
1.24603
1.24575
1.24546
1.24518
1.24489
1.24459
1.2443
1.244
1.2437
1.24339
1.24308
1.24277
1.24246
1.24215
1.24183
1.24151
1.24118
1.24086
1.24053
1.2402
1.23987
1.23954
1.2392
1.23886
1.23852
1.23818
1.23784
1.2375
1.23715
1.2368
1.23646
1.23611
1.23575
1.2354
1.23505
1.2347
1.23434
1.23399
1.23363
1.23328
1.23292
1.23257
1.23221
1.23185
1.2315
1.23114
1.23079
1.23043
1.23008
1.22973
1.22938
1.22903
1.22868
1.22833
1.22798
1.22763
1.22729
1.22695
1.22661
1.22627
1.22593
1.2256
1.22526
1.22493
1.22461
1.22428
1.22396
1.22364
1.22332
1.22301
1.2227
1.22239
1.22209
1.22178
1.22149
1.22119
1.2209
1.22061
1.22033
1.22005
1.21977
1.2195
1.21923
1.21896
1.2187
1.21844
1.21819
1.21794
1.21769
1.21745
1.21721
1.21698
1.21675
1.21652
1.2163
1.21608
1.21586
1.21565
1.21545
1.21525
1.21505
1.21485
1.21466
1.21448
1.21429
1.21411
1.21394
1.21377
1.2136
1.21343
1.21327
1.21311
1.21296
1.21281
1.21266
1.21252
1.21238
1.21224
1.2121
1.21197
1.21184
1.21172
1.21159
1.21147
1.21135
1.21124
1.21112
1.21101
1.2109
1.2108
1.21069
1.21059
1.21049
1.21039
1.21029
1.2102
1.21011
1.21001
1.20992
1.20984
1.20975
1.20966
1.20958
1.20949
1.20941
1.20933
1.20925
1.20917
1.20909
1.20901
1.20894
1.20886
1.20879
1.20871
1.20864
1.20856
1.20849
1.20841
1.20834
1.20827
1.2082
1.20812
1.20805
1.20798
1.20791
1.20784
1.20777
1.2077
1.20762
1.20755
1.20748
1.20741
1.20734
1.20727
1.2072
1.20712
1.20705
1.20698
1.20691
1.20684
1.20677
1.20669
1.20662
1.20655
1.20648
1.2064
1.20633
1.20626
1.20619
1.20612
1.20604
1.20597
1.2059
1.20583
1.20576
1.20569
1.20562
1.20555
1.20548
1.20541
1.20535
1.20529
1.20524
1.20519
1.20516
1.20513
1.20512
1.20511
1.20512
1.20513
1.20515
1.20518
1.20521
1.20522
1.26363
1.26493
1.26682
1.2686
1.26985
1.27052
1.27071
1.27063
1.27051
1.27031
1.27009
1.26988
1.26971
1.26958
1.26949
1.26941
1.26932
1.2692
1.26904
1.26882
1.26851
1.26812
1.26765
1.26707
1.26641
1.26568
1.26489
1.26415
1.26361
1.26344
1.26356
1.26416
1.26567
1.26789
1.26934
1.26881
1.26593
1.26181
1.25825
1.25592
1.2546
1.2538
1.25321
1.25329
1.25383
1.25486
1.25607
1.25729
1.25837
1.25921
1.2598
1.26013
1.2602
1.25989
1.25938
1.25856
1.25745
1.25616
1.25493
1.25367
1.25241
1.25117
1.25003
1.24903
1.24818
1.24746
1.24683
1.24628
1.24578
1.24534
1.24491
1.24451
1.24409
1.24366
1.24324
1.24282
1.24242
1.24203
1.24166
1.24131
1.24099
1.24072
1.24053
1.24038
1.24028
1.24026
1.24035
1.24057
1.24097
1.24158
1.24244
1.24358
1.24501
1.24673
1.24871
1.25092
1.25327
1.25572
1.25817
1.26058
1.26285
1.26496
1.26688
1.26857
1.26997
1.2711
1.27204
1.27286
1.2734
1.2736
1.2736
1.27351
1.27328
1.27291
1.2725
1.27209
1.2717
1.27133
1.27098
1.27064
1.27032
1.27001
1.2697
1.2694
1.26909
1.26877
1.26845
1.26811
1.26776
1.26739
1.26701
1.26662
1.26621
1.2658
1.26538
1.26496
1.26454
1.26413
1.26373
1.26335
1.26299
1.26265
1.26234
1.26206
1.2618
1.26157
1.26137
1.2612
1.26106
1.26093
1.26083
1.26074
1.26066
1.2606
1.26055
1.26051
1.26047
1.26044
1.26041
1.26038
1.26036
1.26033
1.26031
1.26028
1.26026
1.26024
1.26021
1.26019
1.26016
1.26014
1.26011
1.26008
1.26006
1.26003
1.26
1.25997
1.25994
1.25992
1.25989
1.25986
1.25982
1.25979
1.25976
1.25973
1.2597
1.25966
1.25963
1.25959
1.25956
1.25952
1.25948
1.25944
1.2594
1.25936
1.25932
1.25928
1.25923
1.25919
1.25914
1.2591
1.25905
1.259
1.25895
1.25889
1.25884
1.25879
1.25873
1.25867
1.25861
1.25855
1.25849
1.25842
1.25836
1.25829
1.25822
1.25815
1.25808
1.258
1.25792
1.25785
1.25777
1.25768
1.2576
1.25751
1.25742
1.25733
1.25724
1.25714
1.25704
1.25694
1.25684
1.25673
1.25662
1.25651
1.2564
1.25628
1.25616
1.25604
1.25592
1.25579
1.25566
1.25552
1.25539
1.25525
1.25511
1.25496
1.25482
1.25466
1.25451
1.25435
1.25419
1.25403
1.25386
1.25369
1.25352
1.25334
1.25317
1.25298
1.2528
1.25261
1.25241
1.25222
1.25202
1.25182
1.25161
1.2514
1.25119
1.25097
1.25075
1.25053
1.25031
1.25008
1.24984
1.24961
1.24937
1.24913
1.24888
1.24863
1.24838
1.24812
1.24786
1.2476
1.24734
1.24707
1.24679
1.24652
1.24624
1.24596
1.24568
1.24539
1.2451
1.2448
1.24451
1.24421
1.24391
1.2436
1.24329
1.24298
1.24267
1.24236
1.24204
1.24172
1.2414
1.24107
1.24074
1.24041
1.24008
1.23975
1.23941
1.23908
1.23874
1.2384
1.23805
1.23771
1.23736
1.23702
1.23667
1.23632
1.23597
1.23562
1.23527
1.23491
1.23456
1.23421
1.23385
1.2335
1.23314
1.23278
1.23243
1.23207
1.23172
1.23136
1.23101
1.23066
1.2303
1.22995
1.2296
1.22925
1.2289
1.22855
1.2282
1.22786
1.22751
1.22717
1.22683
1.22649
1.22616
1.22582
1.22549
1.22516
1.22483
1.22451
1.22419
1.22387
1.22355
1.22324
1.22293
1.22262
1.22232
1.22201
1.22172
1.22142
1.22113
1.22084
1.22056
1.22028
1.22
1.21973
1.21946
1.21919
1.21893
1.21867
1.21842
1.21817
1.21792
1.21768
1.21744
1.21721
1.21698
1.21676
1.21653
1.21632
1.2161
1.21589
1.21569
1.21548
1.21529
1.21509
1.2149
1.21471
1.21453
1.21435
1.21418
1.21401
1.21384
1.21367
1.21351
1.21336
1.2132
1.21305
1.2129
1.21276
1.21262
1.21248
1.21235
1.21222
1.21209
1.21196
1.21184
1.21172
1.2116
1.21148
1.21137
1.21126
1.21115
1.21105
1.21094
1.21084
1.21074
1.21064
1.21054
1.21045
1.21036
1.21027
1.21018
1.21009
1.21
1.20992
1.20983
1.20975
1.20967
1.20958
1.2095
1.20943
1.20935
1.20927
1.20919
1.20912
1.20904
1.20897
1.20889
1.20882
1.20875
1.20867
1.2086
1.20853
1.20846
1.20839
1.20831
1.20824
1.20817
1.2081
1.20803
1.20796
1.20789
1.20782
1.20775
1.20768
1.2076
1.20753
1.20746
1.20739
1.20732
1.20725
1.20718
1.20711
1.20703
1.20696
1.20689
1.20682
1.20675
1.20667
1.2066
1.20653
1.20646
1.20639
1.20631
1.20624
1.20617
1.2061
1.20603
1.20596
1.20589
1.20582
1.20575
1.20568
1.20561
1.20555
1.20549
1.20543
1.20538
1.20533
1.20529
1.20526
1.20523
1.2052
1.20519
1.20518
1.20517
1.20512
1.26507
1.2665
1.26838
1.26989
1.2707
1.2709
1.2708
1.27051
1.27006
1.26956
1.26912
1.26879
1.26856
1.26842
1.26837
1.26834
1.26834
1.26832
1.26827
1.26817
1.26801
1.26778
1.26746
1.26706
1.26657
1.26598
1.26532
1.2647
1.26428
1.26419
1.26436
1.26514
1.26681
1.26854
1.26881
1.26661
1.26265
1.25892
1.2565
1.25519
1.25437
1.25411
1.25453
1.25573
1.25724
1.25882
1.26023
1.26137
1.26218
1.2627
1.26299
1.26304
1.26259
1.26188
1.26077
1.25928
1.25751
1.2555
1.2532
1.25094
1.24892
1.24723
1.24589
1.24488
1.24413
1.24358
1.24317
1.24287
1.24261
1.24239
1.24217
1.24198
1.24177
1.24155
1.24134
1.24111
1.24088
1.24065
1.24041
1.24018
1.23994
1.23972
1.23952
1.23935
1.23921
1.23909
1.23902
1.239
1.23906
1.23921
1.2395
1.23996
1.24063
1.24157
1.2428
1.24434
1.24618
1.2483
1.25064
1.25314
1.25575
1.25838
1.26099
1.2635
1.26584
1.26798
1.26988
1.27147
1.27274
1.27378
1.27468
1.27536
1.27577
1.27593
1.27596
1.27594
1.27584
1.27567
1.27546
1.27524
1.27502
1.27478
1.27453
1.27426
1.27396
1.27363
1.27328
1.27289
1.27248
1.27203
1.27155
1.27103
1.27049
1.26993
1.26934
1.26874
1.26813
1.26751
1.2669
1.26629
1.26569
1.26511
1.26456
1.26403
1.26355
1.26311
1.2627
1.26235
1.26203
1.26176
1.26152
1.26133
1.26116
1.26103
1.26092
1.26083
1.26075
1.26069
1.26064
1.2606
1.26057
1.26053
1.2605
1.26047
1.26045
1.26042
1.26039
1.26037
1.26034
1.26031
1.26028
1.26026
1.26023
1.2602
1.26017
1.26014
1.26011
1.26008
1.26004
1.26001
1.25998
1.25995
1.25991
1.25988
1.25984
1.25981
1.25977
1.25974
1.2597
1.25966
1.25962
1.25958
1.25954
1.2595
1.25946
1.25941
1.25937
1.25932
1.25928
1.25923
1.25918
1.25913
1.25908
1.25903
1.25898
1.25892
1.25886
1.25881
1.25875
1.25869
1.25863
1.25856
1.2585
1.25843
1.25836
1.25829
1.25822
1.25814
1.25807
1.25799
1.25791
1.25783
1.25774
1.25766
1.25757
1.25748
1.25739
1.25729
1.25719
1.25709
1.25699
1.25689
1.25678
1.25667
1.25656
1.25644
1.25633
1.25621
1.25608
1.25596
1.25583
1.2557
1.25556
1.25543
1.25528
1.25514
1.25499
1.25484
1.25469
1.25454
1.25438
1.25421
1.25405
1.25388
1.25371
1.25353
1.25335
1.25317
1.25299
1.2528
1.25261
1.25241
1.25221
1.25201
1.2518
1.25159
1.25138
1.25117
1.25095
1.25072
1.2505
1.25027
1.25004
1.2498
1.24956
1.24932
1.24907
1.24882
1.24857
1.24831
1.24806
1.24779
1.24753
1.24726
1.24699
1.24671
1.24643
1.24615
1.24587
1.24558
1.24529
1.24499
1.2447
1.2444
1.2441
1.24379
1.24348
1.24317
1.24286
1.24255
1.24223
1.24191
1.24158
1.24126
1.24093
1.2406
1.24027
1.23994
1.2396
1.23927
1.23893
1.23859
1.23824
1.2379
1.23755
1.23721
1.23686
1.23651
1.23616
1.23581
1.23546
1.23511
1.23475
1.2344
1.23404
1.23369
1.23333
1.23298
1.23262
1.23227
1.23191
1.23156
1.23121
1.23085
1.2305
1.23015
1.2298
1.22945
1.2291
1.22875
1.2284
1.22806
1.22771
1.22737
1.22703
1.2267
1.22636
1.22603
1.22569
1.22536
1.22504
1.22471
1.22439
1.22407
1.22376
1.22344
1.22313
1.22283
1.22252
1.22222
1.22192
1.22163
1.22134
1.22105
1.22077
1.22049
1.22021
1.21994
1.21967
1.2194
1.21914
1.21889
1.21863
1.21838
1.21814
1.2179
1.21766
1.21742
1.21719
1.21697
1.21675
1.21653
1.21632
1.21611
1.2159
1.2157
1.2155
1.21531
1.21512
1.21493
1.21475
1.21457
1.2144
1.21422
1.21406
1.21389
1.21373
1.21357
1.21342
1.21327
1.21312
1.21298
1.21284
1.2127
1.21257
1.21244
1.21231
1.21218
1.21206
1.21194
1.21182
1.21171
1.21159
1.21148
1.21138
1.21127
1.21117
1.21106
1.21096
1.21087
1.21077
1.21068
1.21058
1.21049
1.2104
1.21032
1.21023
1.21014
1.21006
1.20998
1.2099
1.20982
1.20974
1.20966
1.20958
1.2095
1.20943
1.20935
1.20928
1.2092
1.20913
1.20906
1.20898
1.20891
1.20884
1.20877
1.20869
1.20862
1.20855
1.20848
1.20841
1.20834
1.20827
1.2082
1.20813
1.20806
1.20799
1.20792
1.20785
1.20778
1.2077
1.20763
1.20756
1.20749
1.20742
1.20735
1.20728
1.20721
1.20714
1.20706
1.20699
1.20692
1.20685
1.20678
1.2067
1.20663
1.20656
1.20649
1.20642
1.20635
1.20627
1.2062
1.20613
1.20606
1.20599
1.20592
1.20585
1.20578
1.20572
1.20565
1.20559
1.20553
1.20547
1.20542
1.20537
1.20532
1.20527
1.20524
1.20519
1.2051
1.26633
1.26777
1.26949
1.27057
1.27092
1.27085
1.27041
1.26978
1.26906
1.26837
1.26778
1.26734
1.26708
1.26691
1.26689
1.2669
1.26698
1.26704
1.26712
1.26716
1.26715
1.26708
1.26691
1.26666
1.2663
1.2659
1.26549
1.26517
1.265
1.26505
1.26537
1.26635
1.26787
1.26872
1.26755
1.26399
1.2601
1.25743
1.25596
1.25505
1.25483
1.25553
1.25699
1.25884
1.2606
1.26205
1.26314
1.26388
1.26436
1.26466
1.26483
1.26454
1.26395
1.26296
1.26144
1.25938
1.25678
1.25386
1.25099
1.24839
1.24619
1.24444
1.24313
1.24217
1.2415
1.24104
1.24072
1.24051
1.24035
1.24025
1.24015
1.24008
1.23998
1.23988
1.23977
1.23965
1.23952
1.23938
1.23923
1.23908
1.23894
1.23879
1.23865
1.23853
1.23841
1.23831
1.23824
1.23818
1.23816
1.23817
1.23824
1.23838
1.23863
1.23903
1.23961
1.24043
1.24154
1.24295
1.24467
1.24668
1.24897
1.25147
1.25413
1.2569
1.2597
1.26248
1.26516
1.26764
1.26988
1.27183
1.27346
1.27478
1.27589
1.27685
1.27763
1.27821
1.2786
1.27884
1.27896
1.27902
1.27904
1.27901
1.27891
1.27876
1.27857
1.27833
1.27805
1.27771
1.27732
1.27688
1.27639
1.27585
1.27526
1.27462
1.27395
1.27324
1.2725
1.27173
1.27094
1.27013
1.26932
1.26851
1.26771
1.26693
1.26618
1.26547
1.2648
1.26418
1.26363
1.26313
1.26269
1.2623
1.26198
1.2617
1.26148
1.26129
1.26114
1.26102
1.26092
1.26085
1.26078
1.26073
1.26069
1.26065
1.26062
1.26059
1.26056
1.26053
1.2605
1.26047
1.26044
1.26041
1.26038
1.26035
1.26032
1.26029
1.26026
1.26022
1.26019
1.26016
1.26012
1.26009
1.26005
1.26002
1.25998
1.25994
1.2599
1.25987
1.25983
1.25979
1.25975
1.25971
1.25966
1.25962
1.25958
1.25953
1.25949
1.25944
1.2594
1.25935
1.2593
1.25925
1.2592
1.25914
1.25909
1.25903
1.25898
1.25892
1.25886
1.2588
1.25874
1.25867
1.25861
1.25854
1.25847
1.2584
1.25833
1.25826
1.25818
1.2581
1.25803
1.25794
1.25786
1.25778
1.25769
1.2576
1.25751
1.25741
1.25732
1.25722
1.25712
1.25701
1.25691
1.2568
1.25669
1.25658
1.25646
1.25634
1.25622
1.25609
1.25597
1.25584
1.2557
1.25557
1.25543
1.25529
1.25514
1.25499
1.25484
1.25469
1.25453
1.25437
1.2542
1.25403
1.25386
1.25369
1.25351
1.25333
1.25314
1.25296
1.25277
1.25257
1.25237
1.25217
1.25197
1.25176
1.25155
1.25133
1.25111
1.25089
1.25066
1.25043
1.2502
1.24997
1.24973
1.24948
1.24924
1.24899
1.24874
1.24848
1.24822
1.24796
1.24769
1.24742
1.24715
1.24687
1.2466
1.24631
1.24603
1.24574
1.24545
1.24516
1.24486
1.24456
1.24426
1.24395
1.24365
1.24333
1.24302
1.24271
1.24239
1.24207
1.24174
1.24142
1.24109
1.24076
1.24043
1.2401
1.23976
1.23943
1.23909
1.23875
1.2384
1.23806
1.23771
1.23737
1.23702
1.23667
1.23632
1.23597
1.23562
1.23527
1.23491
1.23456
1.23421
1.23385
1.2335
1.23314
1.23279
1.23243
1.23208
1.23172
1.23137
1.23102
1.23066
1.23031
1.22996
1.22961
1.22926
1.22892
1.22857
1.22822
1.22788
1.22754
1.2272
1.22686
1.22653
1.22619
1.22586
1.22553
1.22521
1.22488
1.22456
1.22424
1.22393
1.22362
1.22331
1.223
1.22269
1.22239
1.2221
1.2218
1.22151
1.22123
1.22094
1.22066
1.22039
1.22011
1.21985
1.21958
1.21932
1.21906
1.21881
1.21856
1.21831
1.21807
1.21784
1.2176
1.21737
1.21715
1.21693
1.21671
1.2165
1.21629
1.21608
1.21588
1.21568
1.21549
1.2153
1.21511
1.21493
1.21475
1.21458
1.21441
1.21424
1.21408
1.21392
1.21376
1.21361
1.21346
1.21331
1.21317
1.21303
1.21289
1.21275
1.21262
1.2125
1.21237
1.21225
1.21213
1.21201
1.21189
1.21178
1.21167
1.21156
1.21146
1.21136
1.21125
1.21115
1.21106
1.21096
1.21087
1.21077
1.21068
1.2106
1.21051
1.21042
1.21034
1.21025
1.21017
1.21009
1.21001
1.20993
1.20985
1.20977
1.2097
1.20962
1.20955
1.20947
1.2094
1.20932
1.20925
1.20918
1.20911
1.20904
1.20896
1.20889
1.20882
1.20875
1.20868
1.20861
1.20854
1.20847
1.2084
1.20833
1.20826
1.20819
1.20812
1.20805
1.20798
1.20791
1.20784
1.20777
1.2077
1.20762
1.20755
1.20748
1.20741
1.20734
1.20727
1.2072
1.20712
1.20705
1.20698
1.20691
1.20684
1.20676
1.20669
1.20662
1.20655
1.20648
1.2064
1.20633
1.20626
1.20619
1.20612
1.20605
1.20598
1.20591
1.20584
1.20577
1.20571
1.20564
1.20558
1.20551
1.20545
1.20539
1.20534
1.20524
1.20514
1.26729
1.26872
1.27014
1.27079
1.2709
1.27056
1.26995
1.26918
1.26835
1.26758
1.26697
1.26652
1.26627
1.26615
1.26618
1.26629
1.26649
1.26671
1.26697
1.26721
1.26742
1.26756
1.26759
1.2675
1.26729
1.26696
1.26659
1.2663
1.26619
1.26625
1.26667
1.26764
1.26862
1.26841
1.26572
1.26176
1.25865
1.25685
1.2558
1.25537
1.25605
1.2576
1.25954
1.26136
1.26277
1.26377
1.26449
1.26498
1.26532
1.26555
1.26569
1.26537
1.26472
1.26355
1.2617
1.25919
1.25622
1.25308
1.25003
1.24731
1.24503
1.24323
1.24187
1.24088
1.24019
1.23973
1.23943
1.23925
1.23912
1.23904
1.23897
1.23891
1.23885
1.23879
1.23873
1.23865
1.23856
1.23846
1.23836
1.23825
1.23815
1.23804
1.23794
1.23784
1.23776
1.23768
1.23762
1.23758
1.23755
1.23755
1.23756
1.23761
1.23771
1.23787
1.23812
1.2385
1.23906
1.23984
1.24088
1.24221
1.24385
1.2458
1.24802
1.2505
1.25318
1.25601
1.25893
1.26187
1.26474
1.26745
1.26993
1.27215
1.27407
1.27568
1.27704
1.2782
1.27923
1.28008
1.28076
1.28126
1.28161
1.28183
1.28195
1.282
1.282
1.28194
1.2818
1.28158
1.28131
1.28097
1.28057
1.2801
1.27957
1.27898
1.27833
1.27762
1.27686
1.27605
1.27519
1.27429
1.27335
1.27239
1.27141
1.27042
1.26944
1.26848
1.26755
1.26666
1.26583
1.26506
1.26437
1.26374
1.26319
1.26272
1.26231
1.26197
1.26169
1.26147
1.26129
1.26115
1.26103
1.26095
1.26088
1.26082
1.26078
1.26074
1.2607
1.26067
1.26064
1.26061
1.26057
1.26054
1.26051
1.26048
1.26045
1.26041
1.26038
1.26035
1.26031
1.26028
1.26024
1.2602
1.26017
1.26013
1.26009
1.26005
1.26001
1.25997
1.25993