/*--------------------------------*- C++ -*----------------------------------*\
| =========                 |                                                 |
| \\      /  F ield         | OpenFOAM: The Open Source CFD Toolbox           |
|  \\    /   O peration     | Version:  v1812                                 |
|   \\  /    A nd           | Web:      www.OpenFOAM.com                      |
|    \\/     M anipulation  |                                                 |
\*---------------------------------------------------------------------------*/
FoamFile
{
    version     2.0;
    format      ascii;
    class       volScalarField;
    location    "0.4";
    object      T;
}
// * * * * * * * * * * * * * * * * * * * * * * * * * * * * * * * * * * * * * //

dimensions      [0 0 0 1 0 0 0];


internalField   nonuniform List<scalar> 
20400
(
297.957
297.894
297.782
297.647
297.507
297.376
297.261
297.167
297.093
297.039
297.012
297.01
297.017
297.036
297.071
297.123
297.192
297.278
297.378
297.487
297.598
297.698
297.775
297.822
297.836
297.818
297.755
297.639
297.464
297.224
296.92
296.56
296.159
295.747
295.377
295.139
295.089
295.152
295.392
295.846
296.439
297.072
297.649
298.116
298.469
298.734
298.938
299.094
299.213
299.301
299.38
299.452
299.525
299.598
299.672
299.753
299.83
299.904
299.976
300.043
300.104
300.158
300.201
300.229
300.241
300.236
300.219
300.198
300.194
300.174
300.119
300.02
299.891
299.739
299.566
299.373
299.162
298.934
298.688
298.428
298.154
297.872
297.599
297.341
297.093
296.857
296.636
296.438
296.272
296.145
296.063
296.025
296.026
296.064
296.149
296.266
296.404
296.561
296.734
296.917
297.1
297.278
297.446
297.603
297.746
297.876
297.991
298.093
298.182
298.259
298.325
298.383
298.432
298.475
298.512
298.544
298.572
298.597
298.619
298.639
298.657
298.673
298.688
298.702
298.715
298.727
298.739
298.749
298.759
298.768
298.777
298.784
298.791
298.797
298.803
298.807
298.812
298.815
298.818
298.821
298.823
298.824
298.826
298.827
298.827
298.828
298.828
298.828
298.828
298.828
298.827
298.827
298.826
298.825
298.824
298.824
298.823
298.821
298.82
298.819
298.818
298.816
298.815
298.813
298.812
298.81
298.808
298.806
298.805
298.803
298.801
298.799
298.796
298.794
298.792
298.79
298.787
298.785
298.782
298.78
298.777
298.774
298.772
298.769
298.766
298.763
298.76
298.757
298.753
298.75
298.747
298.743
298.74
298.736
298.732
298.729
298.725
298.721
298.716
298.712
298.708
298.703
298.699
298.694
298.689
298.684
298.679
298.674
298.669
298.664
298.658
298.652
298.646
298.64
298.634
298.628
298.621
298.615
298.608
298.601
298.594
298.586
298.579
298.571
298.563
298.555
298.547
298.538
298.529
298.521
298.511
298.502
298.492
298.483
298.473
298.462
298.452
298.441
298.43
298.419
298.407
298.395
298.383
298.371
298.358
298.345
298.332
298.319
298.305
298.291
298.277
298.262
298.247
298.232
298.217
298.201
298.185
298.169
298.152
298.135
298.118
298.1
298.082
298.064
298.045
298.027
298.007
297.988
297.968
297.948
297.927
297.907
297.885
297.864
297.842
297.82
297.798
297.775
297.752
297.729
297.705
297.681
297.657
297.632
297.607
297.582
297.557
297.531
297.505
297.478
297.451
297.425
297.397
297.37
297.342
297.314
297.285
297.257
297.228
297.199
297.17
297.14
297.11
297.08
297.05
297.02
296.989
296.958
296.927
296.896
296.864
296.833
296.801
296.769
296.737
296.705
296.673
296.641
296.608
296.576
296.543
296.51
296.477
296.445
296.412
296.379
296.346
296.313
296.28
296.247
296.214
296.181
296.149
296.116
296.083
296.051
296.018
295.986
295.953
295.921
295.889
295.857
295.825
295.794
295.762
295.731
295.7
295.669
295.638
295.608
295.578
295.548
295.518
295.489
295.46
295.431
295.402
295.374
295.346
295.319
295.291
295.264
295.238
295.211
295.185
295.16
295.134
295.11
295.085
295.061
295.037
295.014
294.991
294.968
294.946
294.924
294.902
294.881
294.861
294.84
294.82
294.801
294.782
294.763
294.745
294.727
294.709
294.692
294.675
294.658
294.642
294.627
294.611
294.596
294.582
294.567
294.554
294.54
294.527
294.514
294.501
294.489
294.477
294.465
294.454
294.443
294.432
294.421
294.411
294.401
294.391
294.382
294.373
294.363
294.355
294.346
294.338
294.33
294.322
294.314
294.306
294.299
294.291
294.284
294.277
294.27
294.264
294.257
294.251
294.245
294.238
294.232
294.226
294.22
294.215
294.209
294.203
294.198
294.192
294.187
294.181
294.176
294.17
294.165
294.16
294.154
294.149
294.144
294.139
294.133
294.128
294.123
294.118
294.113
294.107
294.102
294.097
294.091
294.086
294.081
294.075
294.07
294.064
294.059
294.053
294.047
294.042
294.036
294.03
294.024
294.018
294.012
294.006
294
293.994
293.988
293.981
293.975
293.968
293.96
293.953
293.944
293.935
293.924
293.91
293.893
293.872
293.846
293.813
293.774
293.729
293.678
293.625
293.569
293.513
293.457
293.405
293.353
293.29
293.231
297.858
297.757
297.577
297.359
297.135
296.932
296.767
296.641
296.554
296.504
296.493
296.505
296.536
296.582
296.641
296.711
296.793
296.885
296.988
297.101
297.222
297.345
297.464
297.571
297.66
297.718
297.738
297.724
297.668
297.553
297.367
297.094
296.716
296.236
295.72
295.348
295.248
295.346
295.737
296.405
297.165
297.843
298.372
298.736
298.987
299.179
299.334
299.463
299.571
299.664
299.755
299.846
299.941
300.03
300.114
300.202
300.298
300.404
300.52
300.643
300.772
300.907
301.045
301.184
301.325
301.453
301.565
301.665
301.748
301.809
301.842
301.843
301.821
301.767
301.682
301.567
301.424
301.253
301.052
300.819
300.553
300.252
299.922
299.563
299.185
298.802
298.422
298.051
297.698
297.371
297.077
296.823
296.613
296.452
296.344
296.284
296.261
296.266
296.3
296.379
296.496
296.634
296.783
296.941
297.104
297.264
297.417
297.56
297.69
297.807
297.912
298.004
298.085
298.157
298.219
298.273
298.321
298.363
298.401
298.434
298.465
298.493
298.519
298.542
298.565
298.586
298.606
298.625
298.643
298.661
298.677
298.692
298.706
298.72
298.731
298.742
298.752
298.76
298.767
298.774
298.779
298.783
298.787
298.79
298.792
298.794
298.795
298.796
298.796
298.796
298.796
298.796
298.796
298.795
298.795
298.794
298.793
298.792
298.791
298.79
298.789
298.788
298.786
298.785
298.783
298.782
298.78
298.778
298.776
298.775
298.773
298.77
298.768
298.766
298.764
298.762
298.759
298.757
298.754
298.751
298.749
298.746
298.743
298.74
298.737
298.734
298.731
298.727
298.724
298.721
298.717
298.713
298.71
298.706
298.702
298.698
298.694
298.69
298.685
298.681
298.676
298.672
298.667
298.662
298.657
298.652
298.647
298.641
298.636
298.63
298.624
298.618
298.612
298.606
298.6
298.593
298.586
298.579
298.572
298.565
298.558
298.55
298.542
298.534
298.526
298.518
298.509
298.501
298.492
298.483
298.473
298.464
298.454
298.444
298.434
298.423
298.412
298.402
298.39
298.379
298.367
298.355
298.343
298.331
298.318
298.305
298.292
298.278
298.264
298.25
298.236
298.221
298.206
298.191
298.175
298.159
298.143
298.126
298.11
298.093
298.075
298.057
298.039
298.021
298.002
297.983
297.964
297.944
297.924
297.904
297.883
297.862
297.841
297.819
297.797
297.775
297.752
297.729
297.706
297.683
297.659
297.635
297.61
297.585
297.56
297.534
297.509
297.483
297.456
297.429
297.402
297.375
297.348
297.32
297.292
297.263
297.234
297.206
297.176
297.147
297.117
297.087
297.057
297.027
296.996
296.965
296.934
296.903
296.871
296.839
296.808
296.776
296.743
296.711
296.679
296.646
296.613
296.58
296.547
296.514
296.481
296.448
296.414
296.381
296.348
296.314
296.281
296.247
296.214
296.18
296.147
296.113
296.08
296.046
296.013
295.98
295.946
295.913
295.88
295.847
295.815
295.782
295.749
295.717
295.685
295.653
295.621
295.59
295.558
295.527
295.496
295.465
295.435
295.405
295.375
295.345
295.316
295.287
295.258
295.23
295.202
295.174
295.146
295.119
295.092
295.066
295.04
295.014
294.989
294.964
294.939
294.915
294.891
294.868
294.845
294.822
294.8
294.778
294.756
294.735
294.714
294.694
294.674
294.654
294.635
294.616
294.598
294.58
294.562
294.545
294.528
294.511
294.495
294.479
294.464
294.449
294.434
294.42
294.406
294.392
294.378
294.365
294.352
294.34
294.328
294.316
294.304
294.293
294.282
294.271
294.261
294.25
294.24
294.231
294.221
294.212
294.203
294.194
294.185
294.177
294.168
294.16
294.152
294.144
294.137
294.129
294.122
294.114
294.107
294.1
294.094
294.087
294.08
294.074
294.067
294.061
294.054
294.048
294.042
294.036
294.03
294.024
294.018
294.012
294.006
294
293.994
293.988
293.983
293.977
293.971
293.965
293.96
293.954
293.948
293.942
293.937
293.931
293.925
293.919
293.913
293.907
293.901
293.895
293.889
293.883
293.877
293.871
293.864
293.858
293.852
293.845
293.839
293.833
293.826
293.819
293.813
293.806
293.799
293.792
293.784
293.777
293.769
293.76
293.75
293.739
293.726
293.71
293.69
293.666
293.637
293.603
293.563
293.52
293.473
293.423
293.374
293.322
293.261
293.204
297.659
297.488
297.195
296.854
296.529
296.259
296.062
295.93
295.855
295.826
295.833
295.858
295.901
295.961
296.036
296.123
296.221
296.326
296.442
296.566
296.699
296.84
296.985
297.129
297.272
297.408
297.527
297.608
297.632
297.614
297.535
297.345
296.994
296.476
295.905
295.537
295.526
295.831
296.571
297.423
298.157
298.685
299.022
299.223
299.335
299.402
299.441
299.465
299.488
299.493
299.493
299.478
299.469
299.472
299.52
299.595
299.704
299.846
300.024
300.229
300.454
300.696
300.946
301.19
301.416
301.631
301.827
302.011
302.176
302.326
302.459
302.573
302.669
302.744
302.797
302.824
302.826
302.814
302.777
302.704
302.595
302.447
302.261
302.032
301.75
301.415
301.032
300.609
300.157
299.686
299.207
298.734
298.279
297.853
297.466
297.131
296.858
296.644
296.479
296.347
296.246
296.196
296.194
296.22
296.288
296.397
296.536
296.689
296.844
296.996
297.142
297.277
297.4
297.511
297.61
297.699
297.779
297.851
297.915
297.974
298.027
298.076
298.121
298.163
298.204
298.243
298.281
298.318
298.354
298.389
298.424
298.457
298.49
298.521
298.55
298.577
298.602
298.625
298.645
298.664
298.68
298.693
298.705
298.715
298.723
298.729
298.735
298.739
298.742
298.744
298.746
298.747
298.748
298.748
298.748
298.748
298.747
298.747
298.746
298.745
298.744
298.743
298.742
298.741
298.74
298.738
298.737
298.735
298.734
298.732
298.73
298.728
298.726
298.724
298.722
298.72
298.717
298.715
298.712
298.71
298.707
298.704
298.701
298.698
298.695
298.692
298.689
298.685
298.682
298.678
298.675
298.671
298.667
298.663
298.659
298.655
298.65
298.646
298.641
298.637
298.632
298.627
298.622
298.617
298.612
298.606
298.601
298.595
298.589
298.583
298.577
298.571
298.565
298.558
298.551
298.544
298.537
298.53
298.523
298.515
298.508
298.5
298.492
298.484
298.475
298.467
298.458
298.449
298.44
298.43
298.421
298.411
298.401
298.39
298.38
298.369
298.358
298.347
298.336
298.324
298.312
298.3
298.288
298.275
298.262
298.249
298.236
298.222
298.208
298.194
298.18
298.165
298.15
298.134
298.119
298.103
298.086
298.07
298.053
298.036
298.018
298.001
297.982
297.964
297.945
297.926
297.907
297.887
297.867
297.847
297.826
297.805
297.784
297.762
297.74
297.718
297.695
297.672
297.649
297.625
297.601
297.577
297.552
297.527
297.502
297.477
297.451
297.425
297.398
297.371
297.344
297.317
297.289
297.261
297.233
297.204
297.176
297.147
297.117
297.088
297.058
297.028
296.997
296.967
296.936
296.905
296.874
296.842
296.811
296.779
296.747
296.715
296.682
296.65
296.617
296.585
296.552
296.519
296.485
296.452
296.419
296.385
296.352
296.318
296.285
296.251
296.217
296.184
296.15
296.116
296.082
296.049
296.015
295.982
295.948
295.915
295.881
295.848
295.815
295.782
295.749
295.716
295.683
295.651
295.618
295.586
295.554
295.522
295.491
295.459
295.428
295.397
295.366
295.336
295.306
295.276
295.246
295.217
295.188
295.159
295.131
295.103
295.075
295.048
295.021
294.994
294.968
294.942
294.916
294.891
294.866
294.841
294.817
294.794
294.77
294.747
294.724
294.702
294.68
294.659
294.638
294.617
294.597
294.577
294.557
294.538
294.519
294.501
294.483
294.465
294.448
294.431
294.415
294.398
294.383
294.367
294.352
294.337
294.323
294.308
294.295
294.281
294.268
294.255
294.242
294.23
294.218
294.206
294.195
294.184
294.173
294.162
294.151
294.141
294.131
294.121
294.112
294.103
294.093
294.084
294.076
294.067
294.058
294.05
294.042
294.034
294.026
294.018
294.011
294.003
293.996
293.989
293.982
293.975
293.968
293.961
293.954
293.947
293.94
293.934
293.927
293.921
293.914
293.908
293.902
293.895
293.889
293.883
293.876
293.87
293.864
293.858
293.851
293.845
293.839
293.833
293.826
293.82
293.814
293.807
293.801
293.795
293.788
293.782
293.775
293.769
293.762
293.756
293.749
293.742
293.736
293.729
293.722
293.715
293.708
293.701
293.694
293.687
293.679
293.672
293.665
293.657
293.649
293.64
293.631
293.622
293.611
293.598
293.583
293.565
293.544
293.518
293.489
293.456
293.42
293.381
293.341
293.299
293.252
293.214
297.372
297.124
296.731
296.313
295.957
295.702
295.55
295.476
295.453
295.46
295.483
295.519
295.563
295.614
295.672
295.741
295.819
295.909
296.009
296.124
296.251
296.392
296.543
296.701
296.867
297.04
297.216
297.373
297.474
297.496
297.465
297.327
296.991
296.449
295.92
295.725
295.954
296.676
297.579
298.323
298.801
299.053
299.157
299.198
299.211
299.129
298.993
298.814
298.609
298.416
298.255
298.149
298.105
298.128
298.238
298.401
298.629
298.912
299.246
299.608
299.984
300.34
300.673
300.986
301.279
301.551
301.801
302.028
302.239
302.432
302.607
302.761
302.897
303.015
303.118
303.207
303.281
303.342
303.386
303.405
303.403
303.388
303.35
303.284
303.184
303.042
302.849
302.599
302.288
301.918
301.49
301.013
300.498
299.958
299.409
298.868
298.354
297.877
297.444
297.061
296.744
296.492
296.289
296.11
295.966
295.893
295.886
295.907
295.967
296.071
296.202
296.34
296.476
296.606
296.728
296.841
296.945
297.04
297.128
297.21
297.286
297.358
297.426
297.491
297.554
297.617
297.678
297.74
297.802
297.865
297.928
297.991
298.054
298.116
298.176
298.235
298.29
298.343
298.392
298.438
298.479
298.516
298.548
298.576
298.601
298.621
298.638
298.652
298.664
298.673
298.68
298.685
298.689
298.692
298.694
298.695
298.696
298.697
298.697
298.697
298.696
298.696
298.695
298.694
298.693
298.692
298.691
298.69
298.689
298.687
298.686
298.684
298.682
298.681
298.679
298.677
298.675
298.672
298.67
298.668
298.665
298.662
298.66
298.657
298.654
298.651
298.647
298.644
298.64
298.637
298.633
298.629
298.625
298.621
298.617
298.613
298.608
298.604
298.599
298.594
298.589
298.584
298.579
298.574
298.568
298.563
298.557
298.551
298.545
298.539
298.532
298.526
298.519
298.512
298.505
298.498
298.491
298.483
298.476
298.468
298.46
298.452
298.443
298.435
298.426
298.417
298.408
298.399
298.389
298.379
298.37
298.359
298.349
298.339
298.328
298.317
298.306
298.294
298.283
298.271
298.259
298.247
298.234
298.221
298.208
298.195
298.181
298.167
298.153
298.139
298.124
298.109
298.094
298.079
298.063
298.047
298.031
298.014
297.997
297.98
297.963
297.945
297.927
297.908
297.889
297.87
297.851
297.831
297.811
297.791
297.77
297.749
297.728
297.706
297.684
297.662
297.639
297.616
297.593
297.569
297.546
297.521
297.497
297.472
297.447
297.421
297.395
297.369
297.343
297.316
297.289
297.261
297.234
297.206
297.177
297.149
297.12
297.091
297.061
297.032
297.002
296.972
296.941
296.911
296.88
296.849
296.818
296.786
296.754
296.722
296.69
296.658
296.626
296.593
296.56
296.527
296.494
296.461
296.428
296.395
296.361
296.328
296.294
296.261
296.227
296.193
296.159
296.125
296.092
296.058
296.024
295.99
295.957
295.923
295.889
295.856
295.822
295.789
295.755
295.722
295.689
295.656
295.624
295.591
295.558
295.526
295.494
295.462
295.431
295.399
295.368
295.337
295.306
295.276
295.245
295.215
295.186
295.156
295.127
295.099
295.07
295.042
295.014
294.987
294.96
294.933
294.907
294.88
294.855
294.829
294.804
294.78
294.756
294.732
294.708
294.685
294.662
294.64
294.618
294.597
294.576
294.555
294.534
294.514
294.495
294.476
294.457
294.438
294.42
294.402
294.385
294.368
294.351
294.335
294.319
294.304
294.288
294.274
294.259
294.245
294.231
294.217
294.204
294.191
294.178
294.166
294.154
294.142
294.13
294.119
294.108
294.097
294.086
294.076
294.066
294.056
294.046
294.037
294.027
294.018
294.009
294.001
293.992
293.984
293.975
293.967
293.959
293.951
293.944
293.936
293.928
293.921
293.914
293.907
293.899
293.892
293.885
293.878
293.872
293.865
293.858
293.852
293.845
293.838
293.832
293.825
293.819
293.812
293.806
293.799
293.793
293.787
293.78
293.774
293.767
293.761
293.755
293.748
293.742
293.735
293.729
293.722
293.715
293.709
293.702
293.696
293.689
293.682
293.675
293.668
293.662
293.655
293.648
293.641
293.633
293.626
293.619
293.612
293.604
293.596
293.589
293.581
293.573
293.565
293.556
293.547
293.537
293.526
293.514
293.5
293.483
293.464
293.443
293.419
293.392
293.364
293.335
293.302
293.27
293.249
297.034
296.728
296.283
295.863
295.561
295.393
295.335
295.337
295.355
295.392
295.442
295.497
295.551
295.603
295.653
295.704
295.76
295.822
295.894
295.978
296.075
296.187
296.314
296.456
296.616
296.793
296.983
297.165
297.295
297.339
297.313
297.172
296.81
296.284
295.93
296.028
296.659
297.571
298.331
298.772
298.963
299.022
299.03
298.875
298.629
298.292
297.932
297.587
297.293
297.086
296.969
296.93
296.979
297.142
297.373
297.694
298.098
298.56
299.024
299.506
299.995
300.48
300.937
301.349
301.71
302.018
302.281
302.506
302.695
302.855
302.992
303.111
303.217
303.311
303.395
303.47
303.535
303.592
303.641
303.682
303.715
303.735
303.737
303.732
303.714
303.679
303.621
303.533
303.404
303.227
302.993
302.695
302.328
301.895
301.402
300.86
300.285
299.694
299.102
298.528
297.986
297.487
297.033
296.636
296.309
296.047
295.827
295.639
295.514
295.469
295.471
295.494
295.552
295.64
295.74
295.839
295.935
296.027
296.115
296.2
296.281
296.361
296.44
296.519
296.599
296.68
296.763
296.849
296.938
297.03
297.124
297.222
297.321
297.422
297.524
297.626
297.726
297.823
297.918
298.008
298.093
298.172
298.245
298.31
298.369
298.42
298.465
298.503
298.535
298.561
298.582
298.6
298.613
298.623
298.631
298.637
298.641
298.644
298.646
298.647
298.648
298.648
298.648
298.648
298.648
298.647
298.646
298.646
298.645
298.644
298.643
298.642
298.64
298.639
298.637
298.636
298.634
298.632
298.63
298.628
298.626
298.623
298.621
298.618
298.615
298.613
298.61
298.606
298.603
298.6
298.596
298.592
298.588
298.584
298.58
298.576
298.572
298.567
298.562
298.557
298.552
298.547
298.542
298.537
298.531
298.525
298.519
298.513
298.507
298.501
298.494
298.487
298.48
298.473
298.466
298.459
298.451
298.443
298.435
298.427
298.419
298.41
298.402
298.393
298.384
298.374
298.365
298.355
298.346
298.335
298.325
298.315
298.304
298.293
298.282
298.271
298.259
298.248
298.236
298.224
298.211
298.199
298.186
298.173
298.16
298.146
298.132
298.118
298.104
298.089
298.074
298.059
298.044
298.029
298.013
297.996
297.98
297.963
297.946
297.929
297.911
297.894
297.875
297.857
297.838
297.819
297.8
297.78
297.76
297.74
297.719
297.698
297.677
297.655
297.633
297.611
297.588
297.565
297.542
297.518
297.494
297.47
297.446
297.421
297.396
297.37
297.344
297.318
297.292
297.265
297.238
297.21
297.183
297.155
297.126
297.098
297.069
297.04
297.011
296.981
296.951
296.921
296.89
296.86
296.829
296.798
296.766
296.735
296.703
296.671
296.639
296.607
296.574
296.541
296.509
296.476
296.443
296.409
296.376
296.343
296.309
296.275
296.242
296.208
296.174
296.14
296.106
296.072
296.039
296.005
295.971
295.937
295.903
295.869
295.835
295.802
295.768
295.735
295.701
295.668
295.635
295.602
295.569
295.536
295.504
295.471
295.439
295.407
295.375
295.344
295.312
295.281
295.251
295.22
295.19
295.16
295.13
295.1
295.071
295.042
295.014
294.986
294.958
294.93
294.903
294.876
294.85
294.824
294.798
294.772
294.747
294.723
294.698
294.675
294.651
294.628
294.605
294.583
294.561
294.539
294.518
294.497
294.477
294.457
294.437
294.418
294.399
294.38
294.362
294.344
294.327
294.31
294.293
294.277
294.261
294.245
294.23
294.215
294.2
294.186
294.172
294.158
294.145
294.132
294.119
294.106
294.094
294.082
294.071
294.059
294.048
294.037
294.026
294.016
294.006
293.996
293.986
293.976
293.967
293.958
293.949
293.94
293.931
293.923
293.914
293.906
293.898
293.89
293.882
293.874
293.867
293.859
293.852
293.845
293.837
293.83
293.823
293.816
293.809
293.802
293.796
293.789
293.782
293.775
293.769
293.762
293.755
293.749
293.742
293.736
293.729
293.723
293.716
293.71
293.703
293.697
293.69
293.684
293.677
293.67
293.664
293.657
293.651
293.644
293.637
293.63
293.624
293.617
293.61
293.603
293.596
293.589
293.582
293.575
293.568
293.56
293.553
293.545
293.538
293.53
293.523
293.515
293.507
293.499
293.49
293.482
293.473
293.463
293.453
293.442
293.429
293.415
293.4
293.383
293.365
293.346
293.326
293.302
293.28
293.272
296.696
296.36
295.915
295.557
295.359
295.296
295.303
295.353
295.448
295.556
295.658
295.745
295.814
295.866
295.909
295.946
295.984
296.024
296.071
296.126
296.192
296.271
296.363
296.471
296.597
296.741
296.898
297.047
297.148
297.171
297.132
296.951
296.557
296.143
296.06
296.541
297.416
298.208
298.666
298.846
298.901
298.817
298.575
298.157
297.677
297.2
296.79
296.477
296.267
296.153
296.115
296.156
296.329
296.58
296.943
297.413
297.972
298.604
299.321
300.047
300.725
301.328
301.842
302.266
302.611
302.887
303.106
303.279
303.415
303.522
303.606
303.672
303.726
303.769
303.805
303.835
303.86
303.88
303.898
303.913
303.927
303.938
303.943
303.942
303.937
303.926
303.908
303.881
303.838
303.774
303.681
303.549
303.367
303.124
302.813
302.43
301.976
301.459
300.891
300.287
299.663
299.034
298.415
297.823
297.273
296.771
296.329
295.961
295.667
295.426
295.22
295.065
294.976
294.942
294.938
294.947
294.975
295.021
295.075
295.133
295.192
295.254
295.32
295.39
295.467
295.55
295.639
295.736
295.839
295.949
296.067
296.191
296.321
296.456
296.596
296.739
296.884
297.029
297.175
297.318
297.458
297.594
297.723
297.844
297.956
298.059
298.151
298.233
298.304
298.365
298.417
298.46
298.495
298.523
298.545
298.562
298.574
298.584
298.59
298.595
298.599
298.601
298.602
298.603
298.603
298.603
298.603
298.603
298.603
298.602
298.602
298.601
298.6
298.599
298.598
298.597
298.595
298.594
298.592
298.591
298.589
298.587
298.585
298.583
298.58
298.578
298.575
298.572
298.569
298.566
298.562
298.559
298.555
298.552
298.548
298.543
298.539
298.535
298.53
298.525
298.52
298.515
298.51
298.504
298.499
298.493
298.487
298.481
298.475
298.468
298.461
298.455
298.448
298.44
298.433
298.425
298.418
298.41
298.402
298.393
298.385
298.376
298.367
298.358
298.348
298.339
298.329
298.319
298.309
298.299
298.288
298.277
298.266
298.255
298.244
298.232
298.22
298.208
298.196
298.183
298.171
298.158
298.145
298.131
298.118
298.104
298.09
298.075
298.061
298.046
298.031
298.016
298
297.984
297.968
297.952
297.935
297.918
297.901
297.884
297.866
297.848
297.83
297.811
297.792
297.773
297.754
297.734
297.714
297.693
297.673
297.652
297.63
297.609
297.587
297.565
297.542
297.519
297.496
297.472
297.448
297.424
297.4
297.375
297.35
297.324
297.298
297.272
297.246
297.219
297.192
297.165
297.137
297.109
297.081
297.052
297.024
296.994
296.965
296.935
296.906
296.875
296.845
296.814
296.783
296.752
296.721
296.689
296.657
296.625
296.593
296.561
296.528
296.496
296.463
296.43
296.396
296.363
296.33
296.296
296.263
296.229
296.195
296.161
296.127
296.093
296.059
296.025
295.991
295.957
295.923
295.889
295.855
295.821
295.788
295.754
295.72
295.686
295.653
295.62
295.586
295.553
295.52
295.487
295.455
295.422
295.39
295.358
295.326
295.294
295.263
295.232
295.201
295.17
295.14
295.11
295.08
295.05
295.021
294.992
294.963
294.935
294.907
294.88
294.852
294.825
294.799
294.773
294.747
294.721
294.696
294.671
294.647
294.623
294.599
294.576
294.553
294.531
294.509
294.487
294.466
294.445
294.424
294.404
294.384
294.365
294.346
294.327
294.309
294.291
294.274
294.257
294.24
294.224
294.208
294.192
294.177
294.162
294.147
294.132
294.118
294.105
294.091
294.078
294.065
294.053
294.04
294.028
294.017
294.005
293.994
293.983
293.972
293.962
293.951
293.941
293.931
293.922
293.912
293.903
293.894
293.885
293.876
293.867
293.859
293.851
293.842
293.834
293.826
293.819
293.811
293.803
293.796
293.788
293.781
293.774
293.767
293.76
293.752
293.745
293.739
293.732
293.725
293.718
293.711
293.705
293.698
293.691
293.685
293.678
293.671
293.665
293.658
293.651
293.645
293.638
293.632
293.625
293.618
293.612
293.605
293.598
293.592
293.585
293.578
293.571
293.564
293.557
293.55
293.544
293.536
293.529
293.522
293.515
293.508
293.501
293.493
293.486
293.478
293.471
293.463
293.455
293.447
293.439
293.431
293.423
293.414
293.406
293.397
293.387
293.377
293.367
293.356
293.344
293.331
293.318
293.304
293.287
293.275
293.276
296.404
296.064
295.658
295.397
295.298
295.296
295.376
295.503
295.654
295.804
295.939
296.046
296.128
296.185
296.229
296.261
296.291
296.317
296.345
296.375
296.412
296.457
296.514
296.584
296.669
296.766
296.863
296.943
296.983
296.979
296.906
296.679
296.32
296.112
296.357
297.144
297.977
298.5
298.714
298.783
298.678
298.355
297.857
297.283
296.754
296.323
296.007
295.793
295.666
295.609
295.602
295.725
295.935
296.261
296.725
297.336
298.09
298.939
299.794
300.602
301.326
301.945
302.457
302.868
303.193
303.446
303.638
303.784
303.893
303.972
304.03
304.07
304.099
304.117
304.128
304.134
304.135
304.134
304.13
304.125
304.119
304.111
304.103
304.093
304.081
304.068
304.053
304.036
304.014
303.986
303.949
303.897
303.821
303.713
303.561
303.353
303.08
302.734
302.315
301.826
301.275
300.675
300.038
299.38
298.716
298.06
297.433
296.854
296.333
295.88
295.505
295.201
294.948
294.73
294.555
294.426
294.342
294.293
294.27
294.264
294.267
294.282
294.311
294.353
294.404
294.466
294.539
294.623
294.72
294.827
294.946
295.076
295.216
295.366
295.525
295.692
295.866
296.046
296.231
296.418
296.607
296.796
296.982
297.163
297.338
297.503
297.657
297.799
297.928
298.042
298.143
298.229
298.302
298.363
298.412
298.452
298.483
298.507
298.524
298.537
298.547
298.553
298.557
298.56
298.562
298.563
298.564
298.564
298.564
298.564
298.564
298.564
298.563
298.563
298.562
298.561
298.56
298.559
298.558
298.557
298.555
298.554
298.552
298.55
298.548
298.546
298.544
298.541
298.539
298.536
298.533
298.53
298.526
298.523
298.519
298.515
298.511
298.507
298.502
298.498
298.493
298.488
298.483
298.477
298.472
298.466
298.46
298.454
298.448
298.441
298.435
298.428
298.421
298.413
298.406
298.398
298.391
298.382
298.374
298.366
298.357
298.348
298.339
298.33
298.32
298.31
298.3
298.29
298.28
298.269
298.258
298.247
298.236
298.224
298.213
298.201
298.189
298.176
298.164
298.151
298.138
298.125
298.111
298.097
298.083
298.069
298.055
298.04
298.025
298.01
297.995
297.979
297.964
297.948
297.931
297.915
297.898
297.881
297.863
297.846
297.828
297.81
297.791
297.773
297.754
297.734
297.715
297.695
297.675
297.654
297.634
297.613
297.591
297.57
297.548
297.525
297.503
297.48
297.457
297.433
297.409
297.385
297.36
297.336
297.311
297.285
297.259
297.233
297.207
297.18
297.153
297.126
297.098
297.07
297.042
297.014
296.985
296.956
296.926
296.897
296.867
296.837
296.806
296.776
296.745
296.714
296.682
296.651
296.619
296.587
296.555
296.522
296.49
296.457
296.424
296.391
296.358
296.324
296.291
296.257
296.224
296.19
296.156
296.122
296.088
296.054
296.02
295.986
295.952
295.918
295.884
295.849
295.815
295.781
295.748
295.714
295.68
295.646
295.613
295.579
295.546
295.512
295.479
295.446
295.414
295.381
295.349
295.316
295.285
295.253
295.221
295.19
295.159
295.128
295.098
295.068
295.038
295.008
294.979
294.95
294.921
294.892
294.864
294.837
294.809
294.782
294.756
294.729
294.704
294.678
294.653
294.628
294.603
294.579
294.556
294.532
294.51
294.487
294.465
294.443
294.422
294.401
294.38
294.36
294.34
294.321
294.302
294.283
294.265
294.247
294.229
294.212
294.195
294.179
294.163
294.147
294.132
294.117
294.102
294.088
294.073
294.06
294.046
294.033
294.02
294.007
293.995
293.983
293.971
293.96
293.948
293.937
293.926
293.916
293.905
293.895
293.885
293.876
293.866
293.857
293.848
293.839
293.83
293.821
293.812
293.804
293.796
293.788
293.78
293.772
293.764
293.756
293.749
293.741
293.734
293.727
293.719
293.712
293.705
293.698
293.691
293.684
293.677
293.67
293.663
293.657
293.65
293.643
293.636
293.63
293.623
293.616
293.609
293.603
293.596
293.589
293.583
293.576
293.569
293.563
293.556
293.549
293.542
293.535
293.529
293.522
293.515
293.508
293.501
293.494
293.487
293.48
293.473
293.466
293.458
293.451
293.444
293.436
293.429
293.422
293.414
293.406
293.398
293.391
293.383
293.375
293.366
293.358
293.35
293.341
293.333
293.324
293.315
293.305
293.296
293.286
293.275
293.264
293.262
293.265
296.181
295.847
295.509
295.345
295.3
295.36
295.477
295.634
295.809
295.974
296.113
296.221
296.297
296.346
296.372
296.384
296.385
296.378
296.368
296.356
296.349
296.35
296.364
296.399
296.456
296.534
296.62
296.689
296.718
296.704
296.611
296.388
296.155
296.188
296.782
297.642
298.275
298.566
298.666
298.605
298.272
297.739
297.126
296.563
296.12
295.799
295.577
295.427
295.341
295.309
295.313
295.446
295.671
296.035
296.572
297.283
298.12
299.019
299.916
300.755
301.5
302.137
302.665
303.092
303.426
303.683
303.876
304.018
304.123
304.195
304.247
304.28
304.302
304.309
304.31
304.306
304.299
304.289
304.277
304.263
304.248
304.232
304.215
304.198
304.181
304.164
304.146
304.127
304.108
304.087
304.065
304.038
304.004
303.957
303.889
303.793
303.656
303.466
303.214
302.892
302.496
302.029
301.495
300.904
300.265
299.592
298.901
298.209
297.536
296.903
296.326
295.815
295.373
295.003
294.694
294.431
294.202
294.01
293.862
293.753
293.68
293.637
293.617
293.614
293.62
293.642
293.681
293.736
293.806
293.889
293.986
294.098
294.223
294.363
294.515
294.68
294.857
295.046
295.245
295.453
295.669
295.892
296.119
296.347
296.574
296.797
297.012
297.216
297.408
297.585
297.746
297.889
298.015
298.123
298.215
298.29
298.352
298.4
298.438
298.466
298.487
298.503
298.513
298.52
298.525
298.528
298.53
298.531
298.532
298.532
298.533
298.533
298.532
298.532
298.532
298.531
298.531
298.53
298.529
298.528
298.527
298.526
298.525
298.523
298.521
298.52
298.518
298.515
298.513
298.511
298.508