/*--------------------------------*- C++ -*----------------------------------*\
| =========                 |                                                 |
| \\      /  F ield         | OpenFOAM: The Open Source CFD Toolbox           |
|  \\    /   O peration     | Version:  v1812                                 |
|   \\  /    A nd           | Web:      www.OpenFOAM.com                      |
|    \\/     M anipulation  |                                                 |
\*---------------------------------------------------------------------------*/
FoamFile
{
    version     2.0;
    format      ascii;
    class       volVectorField;
    location    "0.4";
    object      U;
}
// * * * * * * * * * * * * * * * * * * * * * * * * * * * * * * * * * * * * * //

dimensions      [0 1 -1 0 0 0 0];


internalField   nonuniform List<vector> 
20400
(
(-0.0287593 0.0225486 0)
(-0.0462887 -0.001649 0)
(0.0605213 -0.0623437 0)
(0.322671 -0.100817 0)
(0.731442 -0.124727 0)
(1.23562 -0.135346 0)
(1.77243 -0.131097 0)
(2.23018 -0.12714 0)
(2.63623 -0.10995 0)
(2.85458 -0.183755 0)
(2.98397 -0.218681 0)
(2.96626 -0.279234 0)
(2.79976 -0.267992 0)
(2.64822 -0.263973 0)
(2.39846 -0.197913 0)
(2.18596 -0.119435 0)
(1.95865 -0.0436392 0)
(1.78105 0.0287257 0)
(1.64834 0.0494417 0)
(1.56323 0.0554984 0)
(1.51383 0.0434671 0)
(1.49416 0.0210946 0)
(1.50971 -0.00484275 0)
(1.54394 -0.0224558 0)
(1.59634 -0.0354131 0)
(1.67465 -0.0423824 0)
(1.77089 -0.0377276 0)
(1.88358 -0.0356337 0)
(2.01779 -0.0376934 0)
(2.1809 -0.0444509 0)
(2.38628 -0.0557753 0)
(2.64391 -0.069125 0)
(2.95705 -0.0736389 0)
(3.32333 -0.0554149 0)
(3.75858 -0.0265284 0)
(4.10547 -0.240143 0)
(4.34851 -0.524075 0)
(4.13218 -0.661945 0)
(3.79646 -0.235621 0)
(3.56029 0.179369 0)
(2.91092 0.533107 0)
(1.93445 0.712429 0)
(0.651092 0.767621 0)
(-0.8241 0.696794 0)
(-2.7004 0.745695 0)
(-4.76091 0.877701 0)
(-6.92249 0.946118 0)
(-9.02834 0.890617 0)
(-10.9585 0.800717 0)
(-12.7582 0.75057 0)
(-14.1663 0.82017 0)
(-15.4039 0.956783 0)
(-16.2565 1.17193 0)
(-16.8338 1.42558 0)
(-17.146 1.70818 0)
(-17.1488 1.98849 0)
(-16.8364 2.09235 0)
(-16.3587 2.10638 0)
(-15.6143 2.04213 0)
(-14.6727 1.91296 0)
(-13.5109 1.69439 0)
(-12.2126 1.42067 0)
(-10.7754 1.11291 0)
(-9.25326 0.766597 0)
(-7.65443 0.426837 0)
(-6.07637 0.0163497 0)
(-4.48739 -0.322901 0)
(-3.1321 -0.772149 0)
(-1.88539 -0.794221 0)
(-0.575494 -0.744956 0)
(0.699621 -0.55532 0)
(2.07277 -0.404637 0)
(3.19087 -0.290867 0)
(4.30916 -0.221717 0)
(5.22328 -0.162141 0)
(6.05403 -0.121723 0)
(6.73272 -0.0880693 0)
(7.30162 -0.0597892 0)
(7.74013 -0.0342496 0)
(8.06509 -0.0125669 0)
(8.27269 0.00766243 0)
(8.38624 0.0343085 0)
(8.38178 0.0329006 0)
(8.30041 0.0383108 0)
(8.1588 0.0437798 0)
(7.93023 0.0628157 0)
(7.65248 0.0655959 0)
(7.333 0.0659345 0)
(6.97993 0.0646893 0)
(6.60929 0.0643929 0)
(6.22987 0.0642093 0)
(5.85059 0.0637086 0)
(5.47797 0.0628444 0)
(5.11678 0.0615977 0)
(4.77085 0.0598831 0)
(4.44315 0.0559138 0)
(4.13528 0.0509777 0)
(3.84748 0.045817 0)
(3.58072 0.0408933 0)
(3.33392 0.0363176 0)
(3.10827 0.0320729 0)
(2.90137 0.0282212 0)
(2.71461 0.0249278 0)
(2.54349 0.0217713 0)
(2.39079 0.019688 0)
(2.24886 0.017692 0)
(2.123 0.0163931 0)
(2.00507 0.0157161 0)
(1.89879 0.0151991 0)
(1.79912 0.0152194 0)
(1.70869 0.0152046 0)
(1.62483 0.0151918 0)
(1.54945 0.0143696 0)
(1.48078 0.0129695 0)
(1.42082 0.0113966 0)
(1.36814 0.00964892 0)
(1.32599 0.00783053 0)
(1.29109 0.00614984 0)
(1.26862 0.00384116 0)
(1.25343 0.00184179 0)
(1.25043 -0.00126326 0)
(1.25909 -0.0038554 0)
(1.27352 -0.00571833 0)
(1.30017 -0.00863801 0)
(1.33202 -0.0105623 0)
(1.37312 -0.0126601 0)
(1.41915 -0.0140781 0)
(1.47119 -0.0151757 0)
(1.52688 -0.0157027 0)
(1.58577 -0.0159078 0)
(1.64624 -0.0158645 0)
(1.70746 -0.0155963 0)
(1.76828 -0.0151277 0)
(1.82789 -0.0145436 0)
(1.88576 -0.0138238 0)
(1.94099 -0.0130469 0)
(1.99376 -0.0122593 0)
(2.04324 -0.0114177 0)
(2.08969 -0.0106189 0)
(2.13327 -0.00979495 0)
(2.17266 -0.00906481 0)
(2.21015 -0.00831802 0)
(2.24414 -0.00760944 0)
(2.27542 -0.006969 0)
(2.30433 -0.00629259 0)
(2.33076 -0.00567488 0)
(2.35518 -0.00509178 0)
(2.37766 -0.00459524 0)
(2.39842 -0.00414557 0)
(2.41768 -0.00377085 0)
(2.43557 -0.00344555 0)
(2.4523 -0.00318823 0)
(2.46797 -0.00299045 0)
(2.48273 -0.00285299 0)
(2.49666 -0.00272989 0)
(2.5099 -0.00261591 0)
(2.52253 -0.00250776 0)
(2.53462 -0.00240836 0)
(2.54623 -0.0023173 0)
(2.55741 -0.00223446 0)
(2.56822 -0.0021584 0)
(2.5787 -0.00208806 0)
(2.58889 -0.00202249 0)
(2.59884 -0.00196122 0)
(2.60857 -0.00190389 0)
(2.61813 -0.00185035 0)
(2.62755 -0.00180045 0)
(2.63685 -0.00175393 0)
(2.64606 -0.00171055 0)
(2.65522 -0.00167 0)
(2.66435 -0.00163199 0)
(2.67346 -0.00159621 0)
(2.68259 -0.00156241 0)
(2.69175 -0.00153028 0)
(2.70096 -0.00149953 0)
(2.71025 -0.00146987 0)
(2.71962 -0.00144123 0)
(2.72909 -0.0014134 0)
(2.73868 -0.00138626 0)
(2.74841 -0.00135969 0)
(2.75827 -0.0013335 0)
(2.7683 -0.00130756 0)
(2.77849 -0.00128166 0)
(2.78885 -0.00125568 0)
(2.7994 -0.00122943 0)
(2.81015 -0.00120285 0)
(2.8211 -0.00117579 0)
(2.83226 -0.00114831 0)
(2.84364 -0.00111973 0)
(2.85525 -0.00109148 0)
(2.8671 -0.00106152 0)
(2.87919 -0.00103087 0)
(2.89153 -0.000999155 0)
(2.90413 -0.000968455 0)
(2.91699 -0.000935358 0)
(2.93012 -0.000901958 0)
(2.94353 -0.000866383 0)
(2.95723 -0.000831469 0)
(2.97122 -0.000793425 0)
(2.9855 -0.000756763 0)
(3.00009 -0.000718809 0)
(3.01499 -0.000678814 0)
(3.0302 -0.00063716 0)
(3.04574 -0.000593927 0)
(3.06161 -0.000550837 0)
(3.07781 -0.000503061 0)
(3.09436 -0.000458044 0)
(3.11126 -0.000408267 0)
(3.12851 -0.000360728 0)
(3.14612 -0.000307349 0)
(3.16411 -0.000256366 0)
(3.18248 -0.000201749 0)
(3.20123 -0.00014479 0)
(3.22037 -8.8192e-05 0)
(3.23991 -2.66731e-05 0)
(3.25985 3.67286e-05 0)
(3.2802 0.000102787 0)
(3.30096 0.000169037 0)
(3.32214 0.000237847 0)
(3.34374 0.000308165 0)
(3.36578 0.000381268 0)
(3.38827 0.000454215 0)
(3.41121 0.000532562 0)
(3.43461 0.00060915 0)
(3.45849 0.000691911 0)
(3.48284 0.000774257 0)
(3.50767 0.000859563 0)
(3.533 0.000946388 0)
(3.55883 0.00103596 0)
(3.58517 0.00112591 0)
(3.61201 0.00121846 0)
(3.63938 0.001313 0)
(3.66728 0.00140937 0)
(3.69571 0.00150823 0)
(3.72468 0.00160981 0)
(3.7542 0.00171235 0)
(3.78428 0.00181711 0)
(3.81492 0.00192537 0)
(3.84613 0.00203387 0)
(3.87792 0.00214714 0)
(3.91029 0.00225934 0)
(3.94325 0.00237738 0)
(3.9768 0.00249481 0)
(4.01096 0.0026158 0)
(4.04573 0.002737 0)
(4.08111 0.00286112 0)
(4.11711 0.00298393 0)
(4.15374 0.0031104 0)
(4.191 0.00323646 0)
(4.22889 0.003366 0)
(4.26743 0.00349602 0)
(4.30661 0.00362939 0)
(4.34645 0.00376417 0)
(4.38694 0.0039019 0)
(4.42809 0.00404145 0)
(4.46991 0.00418409 0)
(4.51239 0.00432979 0)
(4.55554 0.00447821 0)
(4.59937 0.00463096 0)
(4.64387 0.00478491 0)
(4.68905 0.00494167 0)
(4.73491 0.00510105 0)
(4.78146 0.00526183 0)
(4.82868 0.00542714 0)
(4.8766 0.00559362 0)
(4.92519 0.00576407 0)
(4.97447 0.00593801 0)
(5.02444 0.0061145 0)
(5.07509 0.00629307 0)
(5.12642 0.00647372 0)
(5.17843 0.00665701 0)
(5.23112 0.00684146 0)
(5.28448 0.00702829 0)
(5.33852 0.00721775 0)
(5.39323 0.00740749 0)
(5.4486 0.00759908 0)
(5.50464 0.00779052 0)
(5.56133 0.00798328 0)
(5.61866 0.00817726 0)
(5.67664 0.00837114 0)
(5.73526 0.00856823 0)
(5.7945 0.00876623 0)
(5.85436 0.00896565 0)
(5.91484 0.00916781 0)
(5.97592 0.00937022 0)
(6.03759 0.00957491 0)
(6.09984 0.00978124 0)
(6.16266 0.00998981 0)
(6.22604 0.0101994 0)
(6.28997 0.0104105 0)
(6.35443 0.0106226 0)
(6.41941 0.0108363 0)
(6.48489 0.0110497 0)
(6.55087 0.0112652 0)
(6.61732 0.0114802 0)
(6.68422 0.011695 0)
(6.75157 0.0119106 0)
(6.81935 0.0121249 0)
(6.88753 0.0123402 0)
(6.9561 0.0125539 0)
(7.02503 0.0127688 0)
(7.09431 0.0129829 0)
(7.16392 0.0131975 0)
(7.23384 0.0134119 0)
(7.30404 0.013626 0)
(7.3745 0.0138402 0)
(7.4452 0.0140541 0)
(7.51611 0.0142681 0)
(7.58722 0.0144818 0)
(7.65849 0.0146947 0)
(7.7299 0.0149069 0)
(7.80143 0.0151182 0)
(7.87305 0.015329 0)
(7.94473 0.0155382 0)
(8.01645 0.0157475 0)
(8.08818 0.0159547 0)
(8.15989 0.0161607 0)
(8.23154 0.0163652 0)
(8.30313 0.0165678 0)
(8.3746 0.0167681 0)
(8.44595 0.0169664 0)
(8.51712 0.017162 0)
(8.58811 0.017356 0)
(8.65887 0.0175469 0)
(8.72937 0.0177355 0)
(8.7996 0.0179209 0)
(8.8695 0.0181038 0)
(8.93906 0.0182838 0)
(9.00825 0.018461 0)
(9.07703 0.018635 0)
(9.14537 0.0188055 0)
(9.21325 0.0189732 0)
(9.28063 0.0191372 0)
(9.34748 0.0192987 0)
(9.41378 0.0194559 0)
(9.47948 0.01961 0)
(9.54457 0.0197601 0)
(9.60902 0.0199063 0)
(9.67279 0.0200486 0)
(9.73586 0.020187 0)
(9.7982 0.020321 0)
(9.85978 0.0204512 0)
(9.92057 0.0205773 0)
(9.98056 0.0206994 0)
(10.0397 0.0208174 0)
(10.098 0.0209308 0)
(10.1554 0.0210403 0)
(10.2118 0.0211447 0)
(10.2674 0.0212452 0)
(10.322 0.0213404 0)
(10.3756 0.021431 0)
(10.4282 0.0215164 0)
(10.4797 0.0215968 0)
(10.5303 0.0216719 0)
(10.5798 0.0217419 0)
(10.6282 0.0218066 0)
(10.6755 0.0218663 0)
(10.7217 0.0219212 0)
(10.7667 0.0219712 0)
(10.8107 0.0220159 0)
(10.8535 0.0220551 0)
(10.8951 0.0220886 0)
(10.9356 0.0221168 0)
(10.9749 0.0221392 0)
(11.013 0.0221563 0)
(11.0499 0.0221678 0)
(11.0856 0.0221738 0)
(11.1201 0.0221747 0)
(11.1535 0.0221701 0)
(11.1856 0.0221602 0)
(11.2165 0.0221451 0)
(11.2462 0.0221251 0)
(11.2747 0.0220997 0)
(11.302 0.0220693 0)
(11.3281 0.0220339 0)
(11.3531 0.0219934 0)
(11.3768 0.0219478 0)
(11.3994 0.0218971 0)
(11.4208 0.0218412 0)
(11.441 0.02178 0)
(11.4601 0.0217142 0)
(11.478 0.0216431 0)
(11.4949 0.0215667 0)
(11.5106 0.0214869 0)
(11.5252 0.0214016 0)
(11.5388 0.0213109 0)
(11.5513 0.0212164 0)
(11.5627 0.0211181 0)
(11.5732 0.0210149 0)
(11.5826 0.0209078 0)
(11.591 0.0207967 0)
(11.5985 0.020682 0)
(11.605 0.0205636 0)
(11.6106 0.0204409 0)
(11.6153 0.0203143 0)
(11.6191 0.0201841 0)
(11.6221 0.0200566 0)
(11.6243 0.0199158 0)
(11.6256 0.0197549 0)
(11.626 0.0196291 0)
(11.6259 0.0194948 0)
(11.625 0.0193369 0)
(11.6232 0.0191738 0)
(11.6209 0.01902 0)
(11.6179 0.0188756 0)
(11.6143 0.018724 0)
(11.6101 0.018538 0)
(11.6052 0.0183789 0)
(11.6 0.0182106 0)
(11.594 0.0180449 0)
(11.5877 0.0178536 0)
(11.5808 0.0176951 0)
(11.5735 0.0175031 0)
(11.5658 0.017328 0)
(11.5577 0.0171077 0)
(11.5492 0.0169127 0)
(11.5403 0.016723 0)
(11.5312 0.0165266 0)
(11.5217 0.0163289 0)
(11.5119 0.0161284 0)
(11.5019 0.0159048 0)
(11.4917 0.0156864 0)
(11.4812 0.0154943 0)
(11.4706 0.0152684 0)
(11.4597 0.015079 0)
(11.4487 0.0148657 0)
(11.4376 0.0146475 0)
(11.4264 0.0144304 0)
(11.4151 0.0142482 0)
(11.4037 0.0140195 0)
(11.3923 0.0138294 0)
(11.3808 0.0136335 0)
(11.3693 0.0134146 0)
(11.3577 0.0132186 0)
(11.3462 0.013005 0)
(11.3347 0.0128187 0)
(11.3233 0.0126083 0)
(11.3119 0.0124261 0)
(11.3005 0.0122215 0)
(11.2893 0.0120268 0)
(11.2781 0.0117935 0)
(11.267 0.0116054 0)
(11.256 0.0114065 0)
(11.2451 0.011206 0)
(11.2344 0.0110046 0)
(11.2238 0.0108318 0)
(11.2133 0.0106286 0)
(11.203 0.0104402 0)
(11.1928 0.0102437 0)
(11.1827 0.0100424 0)
(11.1729 0.00985232 0)
(11.1632 0.00965797 0)
(11.1537 0.00947995 0)
(11.1444 0.00927905 0)
(11.1352 0.00909089 0)
(11.1262 0.00889852 0)
(11.1175 0.00871311 0)
(11.1089 0.00851603 0)
(11.1005 0.00833129 0)
(11.0923 0.00813923 0)
(11.0843 0.00795889 0)
(11.0765 0.00776764 0)
(11.0688 0.00759215 0)
(11.0614 0.0074024 0)
(11.0542 0.00721994 0)
(11.0472 0.00703165 0)
(11.0404 0.00684488 0)
(11.0338 0.00665901 0)
(11.0274 0.00647592 0)
(11.0212 0.006289 0)
(11.0152 0.00609988 0)
(11.0094 0.00590778 0)
(11.0038 0.0057103 0)
(10.9985 0.00550293 0)
(10.9933 0.00528231 0)
(10.9884 0.00504371 0)
(10.9837 0.00478867 0)
(10.9792 0.00452701 0)
(10.9749 0.00427753 0)
(10.9709 0.00402698 0)
(10.9671 0.00377885 0)
(10.9636 0.00354437 0)
(10.9604 0.0033847 0)
(10.9576 0.00325859 0)
(10.9551 0.00316625 0)
(10.9531 0.00306599 0)
(10.9513 0.00298148 0)
(10.9503 0.00299313 0)
(10.9496 0.00283953 0)
(10.9493 0.00284771 0)
(10.9503 0.00292491 0)
(10.9511 0.00272119 0)
(10.9531 0.00275893 0)
(10.9552 0.00247383 0)
(10.9592 0.00218475 0)
(10.9628 0.00226588 0)
(10.9705 0.00122132 0)
(10.9759 0.00317393 0)
(10.9898 9.54139e-05 0)
(10.9982 -0.00709381 0)
(-0.0107077 0.0471399 0)
(0.0604866 -0.0891439 0)
(0.386852 -0.39638 0)
(0.965873 -0.640031 0)
(1.73123 -0.778947 0)
(2.56607 -0.819516 0)
(3.39787 -0.715401 0)
(4.151 -0.592512 0)
(4.81432 -0.376097 0)
(5.37873 -0.15428 0)
(5.84507 0.0861566 0)
(6.20808 0.224456 0)
(6.4054 0.376862 0)
(6.53475 0.427779 0)
(6.53632 0.461998 0)
(6.4636 0.415755 0)
(6.35477 0.358125 0)
(6.20263 0.226526 0)
(5.99898 0.125656 0)
(5.80324 0.0433178 0)
(5.61972 -0.00904896 0)
(5.46376 -0.04982 0)
(5.34208 -0.0630387 0)
(5.26059 -0.0701199 0)
(5.24289 -0.0994644 0)
(5.27248 -0.130936 0)
(5.30454 -0.16593 0)
(5.35116 -0.19621 0)
(5.43184 -0.232343 0)
(5.55202 -0.284336 0)
(5.71743 -0.346533 0)
(5.94166 -0.411809 0)
(6.17369 -0.46585 0)
(6.40211 -0.54396 0)
(6.40127 -0.534474 0)
(6.03216 -0.362076 0)
(5.62871 0.0719013 0)
(5.11989 0.542192 0)
(4.06982 1.17729 0)
(2.08139 1.71315 0)
(-0.459988 2.32137 0)
(-3.5537 2.77726 0)
(-7.01663 3.24791 0)
(-10.6908 3.34643 0)
(-14.119 3.35296 0)
(-17.1965 3.06965 0)
(-19.7229 2.74178 0)
(-21.6678 2.43205 0)
(-23.0682 2.14059 0)
(-24.0477 1.78346 0)
(-24.6191 1.43063 0)
(-24.8489 1.07241 0)
(-24.5593 0.699473 0)
(-24.2884 0.351886 0)
(-23.8956 -0.0104344 0)
(-23.1892 -0.352511 0)
(-22.2982 -0.724087 0)
(-21.2052 -1.01643 0)
(-19.9296 -1.31184 0)
(-18.5078 -1.60405 0)
(-16.9141 -1.87227 0)
(-15.1391 -2.11513 0)
(-13.2291 -2.32772 0)
(-11.2114 -2.50781 0)
(-9.14668 -2.63372 0)
(-7.00217 -2.72766 0)
(-4.90631 -2.74671 0)
(-2.62219 -2.883 0)
(-0.369099 -2.87196 0)
(1.81063 -2.7302 0)
(3.71277 -2.40865 0)
(5.4946 -2.04865 0)
(7.08926 -1.7592 0)
(8.65346 -1.53086 0)
(10.0475 -1.29484 0)
(11.3488 -1.09099 0)
(12.5117 -0.893473 0)
(13.5557 -0.713736 0)
(14.4673 -0.536318 0)
(15.2497 -0.373627 0)
(15.9075 -0.236574 0)
(16.4179 -0.0431404 0)
(16.8166 0.0406723 0)
(17.0543 0.164415 0)
(17.1705 0.276378 0)
(17.125 0.379536 0)
(16.9524 0.445796 0)
(16.6697 0.514609 0)
(16.275 0.562739 0)
(15.7872 0.591266 0)
(15.2197 0.604785 0)
(14.5903 0.605843 0)
(13.9183 0.597443 0)
(13.2222 0.580361 0)
(12.5185 0.556244 0)
(11.8216 0.529238 0)
(11.1433 0.500457 0)
(10.4927 0.470042 0)
(9.87674 0.438307 0)
(9.29897 0.406078 0)
(8.76248 0.373642 0)
(8.26718 0.3421 0)
(7.81347 0.312109 0)
(7.39841 0.283597 0)
(7.02148 0.258833 0)
(6.67646 0.235766 0)
(6.36449 0.215267 0)
(6.07971 0.197613 0)
(5.82086 0.181351 0)
(5.58492 0.166828 0)
(5.37167 0.152175 0)
(5.1789 0.137861 0)
(5.0071 0.124216 0)
(4.85553 0.111096 0)
(4.72517 0.0970228 0)
(4.61506 0.0813732 0)
(4.52683 0.0654414 0)
(4.45791 0.0471555 0)
(4.4102 0.0300564 0)
(4.38126 0.00788264 0)
(4.37221 -0.00731413 0)
(4.38491 -0.0253612 0)
(4.41278 -0.0413447 0)
(4.45691 -0.0561648 0)
(4.51454 -0.0684692 0)
(4.58545 -0.0796848 0)
(4.66671 -0.0888319 0)
(4.75702 -0.096272 0)
(4.85389 -0.101848 0)
(4.95554 -0.105355 0)
(5.05985 -0.106812 0)
(5.16512 -0.106477 0)
(5.26968 -0.104522 0)
(5.37214 -0.101451 0)
(5.47158 -0.0973129 0)
(5.56681 -0.0924411 0)
(5.6577 -0.0873073 0)
(5.74335 -0.0817212 0)
(5.8239 -0.0762594 0)
(5.89939 -0.0705069 0)
(5.96867 -0.0653499 0)
(6.03384 -0.0600856 0)
(6.0936 -0.0551839 0)
(6.14868 -0.0507572 0)
(6.19961 -0.0466885 0)
(6.24635 -0.0430604 0)
(6.28951 -0.0397151 0)
(6.32928 -0.0367147 0)
(6.36603 -0.0339872 0)
(6.40007 -0.0315708 0)
(6.43168 -0.0294016 0)
(6.46112 -0.0274641 0)
(6.48863 -0.0256921 0)
(6.51445 -0.024074 0)
(6.53876 -0.0226373 0)
(6.56172 -0.021373 0)
(6.58344 -0.0202436 0)
(6.60407 -0.0192205 0)
(6.62372 -0.0182889 0)
(6.64249 -0.0174383 0)
(6.66047 -0.0166614 0)
(6.67773 -0.0159526 0)
(6.69437 -0.0153073 0)
(6.71044 -0.0147209 0)
(6.72602 -0.014189 0)
(6.74116 -0.013707 0)
(6.75593 -0.0132709 0)
(6.77038 -0.0128773 0)
(6.78455 -0.0125228 0)
(6.79851 -0.0122043 0)
(6.81228 -0.011919 0)
(6.82592 -0.011664 0)
(6.83946 -0.0114366 0)
(6.85293 -0.0112345 0)
(6.86637 -0.0110554 0)
(6.87981 -0.0108973 0)
(6.89328 -0.0107585 0)
(6.9068 -0.0106371 0)
(6.9204 -0.0105311 0)
(6.9341 -0.0104387 0)
(6.94793 -0.0103585 0)
(6.96189 -0.010289 0)
(6.97602 -0.010229 0)
(6.99032 -0.0101769 0)
(7.00481 -0.0101321 0)
(7.0195 -0.0100932 0)
(7.03441 -0.0100597 0)
(7.04956 -0.0100305 0)
(7.06494 -0.0100059 0)
(7.08058 -0.00998287 0)
(7.09649 -0.0099634 0)
(7.11267 -0.00994594 0)
(7.12913 -0.00993001 0)
(7.1459 -0.00991135 0)
(7.16297 -0.00989609 0)
(7.18035 -0.00987973 0)
(7.19806 -0.00986645 0)
(7.2161 -0.00984852 0)
(7.23448 -0.00983449 0)
(7.25321 -0.00981498 0)
(7.2723 -0.00979448 0)
(7.29176 -0.00977394 0)
(7.31159 -0.00975527 0)
(7.33181 -0.00973284 0)
(7.35242 -0.00970848 0)
(7.37344 -0.00968537 0)
(7.39486 -0.00965652 0)
(7.4167 -0.0096303 0)
(7.43897 -0.00959793 0)
(7.46167 -0.00957064 0)
(7.48483 -0.00953814 0)
(7.50844 -0.0095059 0)
(7.53251 -0.00947577 0)
(7.55706 -0.0094367 0)
(7.5821 -0.00939628 0)
(7.60763 -0.00934944 0)
(7.63365 -0.00929604 0)
(7.66016 -0.00923667 0)
(7.68719 -0.00917695 0)
(7.71473 -0.00911841 0)
(7.7428 -0.00906095 0)
(7.77142 -0.00900346 0)
(7.80059 -0.00894706 0)
(7.83033 -0.0088866 0)
(7.86066 -0.00882771 0)
(7.89157 -0.00876541 0)
(7.92308 -0.00869874 0)
(7.95521 -0.00862888 0)
(7.98795 -0.00855661 0)
(8.02132 -0.00847944 0)
(8.05533 -0.00839776 0)
(8.08999 -0.00831349 0)
(8.12531 -0.00822418 0)
(8.16129 -0.00813197 0)
(8.19795 -0.00803732 0)
(8.2353 -0.00793805 0)
(8.27335 -0.00783537 0)
(8.3121 -0.00773164 0)
(8.35157 -0.00762195 0)
(8.39176 -0.00751048 0)
(8.4327 -0.0073927 0)
(8.47438 -0.00727244 0)
(8.51681 -0.00714846 0)
(8.56001 -0.00701968 0)
(8.60398 -0.00688752 0)
(8.64874 -0.00675013 0)
(8.69428 -0.00660729 0)
(8.74063 -0.00646019 0)
(8.78779 -0.00630805 0)
(8.83577 -0.00615197 0)
(8.88457 -0.00599052 0)
(8.93421 -0.00582574 0)
(8.98469 -0.00565576 0)
(9.03602 -0.00548403 0)
(9.08821 -0.00530716 0)
(9.14127 -0.00512519 0)
(9.19519 -0.00494125 0)
(9.25 -0.00475293 0)
(9.30569 -0.00456079 0)
(9.36227 -0.00436445 0)
(9.41975 -0.00416301 0)
(9.47812 -0.00395853 0)
(9.53741 -0.00374846 0)
(9.5976 -0.00353617 0)
(9.65871 -0.00331743 0)
(9.72074 -0.00309612 0)
(9.78369 -0.00287129 0)
(9.84757 -0.00264242 0)
(9.91237 -0.00240816 0)
(9.9781 -0.00216947 0)
(10.0448 -0.00192716 0)
(10.1123 -0.00167942 0)
(10.1809 -0.0014259 0)
(10.2503 -0.00117026 0)
(10.3207 -0.000907932 0)
(10.392 -0.000641206 0)
(10.4643 -0.000368308 0)
(10.5374 -8.97726e-05 0)
(10.6115 0.000192815 0)
(10.6865 0.000482153 0)
(10.7625 0.000773849 0)
(10.8393 0.00107122 0)
(10.917 0.00137291 0)
(10.9957 0.00167745 0)
(11.0752 0.00198775 0)
(11.1556 0.00230207 0)
(11.2369 0.0026202 0)
(11.319 0.00294123 0)
(11.4021 0.00326816 0)
(11.4859 0.00359784 0)
(11.5706 0.00393225 0)
(11.6561 0.00427041 0)
(11.7424 0.00461319 0)
(11.8295 0.00495886 0)
(11.9174 0.00530908 0)
(12.0061 0.00566332 0)
(12.0955 0.00602125 0)
(12.1856 0.00638378 0)
(12.2765 0.00674944 0)
(12.3681 0.00712051 0)
(12.4603 0.00749385 0)
(12.5532 0.00787036 0)
(12.6468 0.00825081 0)
(12.741 0.00863314 0)
(12.8357 0.00901853 0)
(12.9311 0.0094067 0)
(13.027 0.00979817 0)
(13.1234 0.0101921 0)
(13.2204 0.0105882 0)
(13.3178 0.0109863 0)
(13.4156 0.0113861 0)
(13.5139 0.011788 0)
(13.6126 0.0121914 0)
(13.7117 0.0125971 0)
(13.8111 0.0130044 0)
(13.9109 0.0134136 0)
(14.0109 0.0138239 0)
(14.1111 0.0142354 0)
(14.2116 0.0146481 0)
(14.3123 0.0150617 0)
(14.4132 0.0154763 0)
(14.5141 0.015891 0)
(14.6152 0.0163057 0)
(14.7163 0.0167219 0)
(14.8175 0.0171376 0)
(14.9186 0.0175525 0)
(15.0198 0.0179677 0)
(15.1208 0.0183822 0)
(15.2217 0.0187956 0)
(15.3225 0.0192082 0)
(15.4231 0.019619 0)
(15.5235 0.0200278 0)
(15.6237 0.0204357 0)
(15.7236 0.0208416 0)
(15.8231 0.0212456 0)
(15.9223 0.0216457 0)
(16.0212 0.0220423 0)
(16.1196 0.0224362 0)
(16.2175 0.0228278 0)
(16.315 0.0232169 0)
(16.4119 0.023602 0)
(16.5083 0.0239832 0)
(16.604 0.0243606 0)
(16.6992 0.0247337 0)
(16.7937 0.0251019 0)
(16.8875 0.0254658 0)
(16.9805 0.0258241 0)
(17.0729 0.0261775 0)
(17.1644 0.026526 0)
(17.2551 0.0268685 0)
(17.345 0.0272049 0)
(17.434 0.0275357 0)
(17.5221 0.0278604 0)
(17.6092 0.0281781 0)
(17.6954 0.0284897 0)
(17.7807 0.0287945 0)
(17.8649 0.029092 0)
(17.9481 0.029381 0)
(18.0302 0.0296628 0)
(18.1113 0.0299367 0)
(18.1912 0.0302034 0)
(18.2701 0.030462 0)
(18.3478 0.030712 0)
(18.4244 0.0309538 0)
(18.4998 0.0311873 0)
(18.574 0.0314114 0)
(18.647 0.0316266 0)
(18.7188 0.0318328 0)
(18.7894 0.0320301 0)
(18.8588 0.0322177 0)
(18.9269 0.0323954 0)
(18.9938 0.0325638 0)
(19.0594 0.0327223 0)
(19.1237 0.032871 0)
(19.1868 0.0330098 0)
(19.2486 0.0331389 0)
(19.3092 0.0332578 0)
(19.3684 0.0333666 0)
(19.4264 0.0334657 0)
(19.4832 0.0335551 0)
(19.5386 0.0336342 0)
(19.5928 0.0337027 0)
(19.6457 0.0337609 0)
(19.6974 0.0338094 0)
(19.7478 0.0338474 0)
(19.797 0.0338744 0)
(19.8449 0.0338917 0)
(19.8916 0.0338998 0)
(19.9371 0.0338974 0)
(19.9814 0.0338841 0)
(20.0245 0.0338601 0)
(20.0665 0.0338264 0)
(20.1072 0.0337822 0)
(20.1469 0.0337271 0)
(20.1854 0.03366 0)
(20.2228 0.0335831 0)
(20.2591 0.0335337 0)
(20.2943 0.0334133 0)
(20.3285 0.0332154 0)
(20.3616 0.0331752 0)
(20.3937 0.0331086 0)
(20.4248 0.0329394 0)
(20.4549 0.032796 0)
(20.484 0.0325922 0)
(20.5122 0.0325081 0)
(20.5395 0.0324074 0)
(20.5659 0.0321256 0)
(20.5915 0.032021 0)
(20.6162 0.0318004 0)
(20.64 0.031637 0)
(20.6631 0.0314274 0)
(20.6853 0.0312433 0)
(20.7069 0.0310069 0)
(20.7276 0.0308375 0)
(20.7477 0.0306054 0)
(20.767 0.0304024 0)
(20.7857 0.030155 0)
(20.8037 0.0299179 0)
(20.8212 0.0297029 0)
(20.838 0.0294372 0)
(20.8542 0.0291997 0)
(20.8698 0.02895 0)
(20.8849 0.0286506 0)
(20.8995 0.0284127 0)
(20.9136 0.028134 0)
(20.9271 0.027824 0)
(20.9403 0.0275199 0)
(20.953 0.0272542 0)
(20.9652 0.0269124 0)
(20.9771 0.0266367 0)
(20.9885 0.0263271 0)
(20.9996 0.0260157 0)
(21.0103 0.0257106 0)
(21.0207 0.0253794 0)
(21.0308 0.0250814 0)
(21.0406 0.0247384 0)
(21.05 0.024419 0)
(21.0592 0.0241086 0)
(21.0682 0.0237804 0)
(21.0769 0.0234257 0)
(21.0853 0.0231208 0)
(21.0935 0.0227948 0)
(21.1016 0.022456 0)
(21.1094 0.0221339 0)
(21.117 0.0218122 0)
(21.1245 0.0214539 0)
(21.1318 0.0211184 0)
(21.1389 0.0207928 0)
(21.1459 0.0204619 0)
(21.1527 0.0201217 0)
(21.1595 0.0197788 0)
(21.1661 0.0194486 0)
(21.1726 0.0190986 0)
(21.179 0.0187667 0)
(21.1853 0.0184328 0)
(21.1915 0.0181014 0)
(21.1977 0.0177625 0)
(21.2038 0.0174289 0)
(21.2098 0.0170903 0)
(21.2157 0.0167541 0)
(21.2217 0.0164116 0)
(21.2276 0.016076 0)
(21.2334 0.0157318 0)
(21.2393 0.0153931 0)
(21.2451 0.0150465 0)
(21.2509 0.0147025 0)
(21.2568 0.0143577 0)
(21.2627 0.014008 0)
(21.2686 0.0136561 0)
(21.2746 0.0133038 0)
(21.2806 0.0129488 0)
(21.2868 0.0125851 0)
(21.293 0.0122177 0)
(21.2994 0.0118448 0)
(21.3059 0.0114709 0)
(21.3125 0.0110872 0)
(21.3194 0.0107233 0)
(21.3265 0.0103551 0)
(21.3339 0.0099798 0)
(21.3416 0.00955401 0)
(21.3496 0.00911437 0)
(21.3581 0.00861344 0)
(21.3672 0.00807768 0)
(21.3767 0.00741426 0)
(21.3869 0.00675515 0)
(21.3978 0.00595635 0)
(21.4095 0.00523591 0)
(21.4221 0.00433573 0)
(21.4357 0.00354004 0)
(21.4503 0.00240354 0)
(21.4665 0.00180481 0)
(21.4839 0.00073895 0)
(21.5032 -0.000627567 0)
(21.5236 -0.00105755 0)
(21.5465 -0.00370807 0)
(21.5707 -0.00408369 0)
(21.5986 -0.00916944 0)
(21.6283 -0.00949092 0)
(21.6651 -0.0138708 0)
(21.7069 -0.0452636 0)
(0.0287607 -0.00103433 0)
(0.232066 -0.36694 0)
(0.702603 -0.940387 0)
(1.40195 -1.44029 0)
(2.28836 -1.74971 0)
(3.19344 -1.83979 0)
(4.1024 -1.72754 0)
(4.90729 -1.49401 0)
(5.61567 -1.2024 0)
(6.17986 -0.92311 0)
(6.63792 -0.61486 0)
(6.96508 -0.333083 0)
(7.21929 -0.0925629 0)
(7.41217 0.0952488 0)
(7.53151 0.216159 0)
(7.62761 0.295009 0)
(7.65943 0.330068 0)
(7.70875 0.362499 0)
(7.8191 0.365872 0)
(7.92463 0.341338 0)
(8.01832 0.299672 0)
(8.10385 0.240476 0)
(8.14023 0.15766 0)
(8.14377 0.0366959 0)
(8.103 -0.0793315 0)
(8.01008 -0.133312 0)
(7.92661 -0.146409 0)
(7.85397 -0.18491 0)
(7.78943 -0.26476 0)
(7.74796 -0.359249 0)
(7.70651 -0.476247 0)
(7.65726 -0.594871 0)
(7.48377 -0.669414 0)
(7.19926 -0.520942 0)
(6.94504 -0.179967 0)
(6.46367 0.539216 0)
(5.22239 1.48389 0)
(3.08086 2.47372 0)
(0.180413 3.36349 0)
(-3.33155 4.44535 0)
(-7.26993 5.37463 0)
(-11.2795 6.10745 0)
(-15.0337 6.29031 0)
(-18.1948 6.2361 0)
(-20.5743 5.89589 0)
(-22.1609 5.40738 0)
(-23.1795 4.67184 0)
(-23.9076 3.91198 0)
(-24.394 3.17333 0)
(-24.7807 2.47088 0)
(-24.8152 1.744 0)
(-24.8142 1.03106 0)
(-24.5578 0.188684 0)
(-23.9412 -0.749762 0)
(-22.8672 -1.53863 0)
(-21.8142 -2.28092 0)
(-20.5601 -2.87274 0)
(-19.1967 -3.44225 0)
(-17.6314 -3.95201 0)
(-15.9104 -4.42041 0)
(-14.0357 -4.7943 0)
(-12.0536 -5.08807 0)
(-9.9704 -5.29212 0)
(-7.81498 -5.41292 0)
(-5.62122 -5.43739 0)
(-3.40851 -5.35828 0)
(-1.24508 -5.18483 0)
(0.942235 -4.6943 0)
(2.96753 -4.37159 0)
(4.92611 -4.12946 0)
(6.7411 -3.99896 0)
(8.5498 -3.83273 0)
(10.1884 -3.58084 0)
(11.7852 -3.3087 0)
(13.2302 -2.98611 0)
(14.5867 -2.66608 0)
(15.8216 -2.33514 0)
(16.9518 -2.00965 0)
(17.9667 -1.67725 0)
(18.8773 -1.36552 0)
(19.6725 -1.0526 0)
(20.3538 -0.735238 0)
(20.9387 -0.457652 0)
(21.3898 -0.172306 0)
(21.717 0.126139 0)
(21.9499 0.352668 0)
(22.0408 0.583583 0)
(21.9884 0.794919 0)
(21.7977 0.968691 0)
(21.4869 1.11705 0)
(21.0622 1.23647 0)
(20.5319 1.32359 0)
(19.9084 1.37835 0)
(19.2078 1.40295 0)
(18.4488 1.40054 0)
(17.6516 1.37349 0)
(16.8363 1.32639 0)
(16.0208 1.26436 0)
(15.2206 1.19116 0)
(14.4476 1.11125 0)
(13.7109 1.0275 0)
(13.0157 0.943719 0)
(12.3659 0.862161 0)
(11.7624 0.783644 0)
(11.2055 0.712977 0)
(10.6919 0.647519 0)
(10.2238 0.587258 0)
(9.79511 0.534719 0)
(9.40567 0.486676 0)
(9.05194 0.442313 0)
(8.73296 0.400556 0)
(8.44755 0.360755 0)
(8.19502 0.320169 0)
(7.97337 0.278734 0)
(7.78196 0.237141 0)
(7.62024 0.194391 0)
(7.48741 0.152709 0)
(7.38256 0.111572 0)
(7.3054 0.0707505 0)
(7.2546 0.0292943 0)
(7.22565 -0.00861671 0)
(7.22491 -0.0456998 0)
(7.24757 -0.0781952 0)
(7.28736 -0.110894 0)
(7.34378 -0.139117 0)
(7.41478 -0.164172 0)
(7.49828 -0.184713 0)
(7.59219 -0.201048 0)
(7.69405 -0.212859 0)
(7.80163 -0.220413 0)
(7.91271 -0.224025 0)
(8.02533 -0.224038 0)
(8.13763 -0.220781 0)
(8.24806 -0.215114 0)
(8.35552 -0.207264 0)
(8.45883 -0.197852 0)
(8.55764 -0.187587 0)
(8.65111 -0.176515 0)
(8.73919 -0.165328 0)
(8.82195 -0.153717 0)
(8.89819 -0.142823 0)
(8.96987 -0.131917 0)
(9.03565 -0.121609 0)
(9.09638 -0.112077 0)
(9.15237 -0.103144 0)
(9.20374 -0.094901 0)
(9.251 -0.0873529 0)
(9.29442 -0.0805328 0)
(9.33437 -0.0743707 0)
(9.37118 -0.0688652 0)
(9.40514 -0.0639311 0)
(9.43655 -0.0595288 0)
(9.46569 -0.0556217 0)
(9.49278 -0.0521938 0)
(9.51801 -0.0491079 0)
(9.5416 -0.0462898 0)
(9.56372 -0.0437261 0)
(9.58451 -0.041414 0)
(9.60408 -0.039311 0)
(9.62254 -0.0373916 0)
(9.64 -0.0356363 0)
(9.65654 -0.0340324 0)
(9.67226 -0.0325703 0)
(9.68725 -0.0312396 0)
(9.70159 -0.0300313 0)
(9.71536 -0.0289361 0)
(9.72862 -0.0279455 0)
(9.74144 -0.0270518 0)
(9.75388 -0.0262478 0)
(9.766 -0.0255263 0)
(9.77785 -0.0248807 0)
(9.78947 -0.0243045 0)
(9.80092 -0.0237919 0)
(9.81223 -0.0233375 0)
(9.82345 -0.0229361 0)
(9.83461 -0.022583 0)
(9.84574 -0.0222746 0)
(9.85688 -0.0220069 0)
(9.86805 -0.0217758 0)
(9.87929 -0.0215775 0)
(9.89061 -0.0214083 0)
(9.90203 -0.0212651 0)
(9.91359 -0.0211449 0)
(9.9253 -0.0210447 0)
(9.93717 -0.020962 0)
(9.94922 -0.0208946 0)
(9.96146 -0.0208409 0)
(9.97392 -0.0207994 0)
(9.98661 -0.0207667 0)
(9.99953 -0.0207464 0)
(10.0127 -0.0207314 0)
(10.0261 -0.0207215 0)
(10.0398 -0.0207175 0)
(10.0538 -0.0207221 0)
(10.0681 -0.0207266 0)
(10.0827 -0.0207366 0)
(10.0976 -0.0207463 0)
(10.1128 -0.0207615 0)
(10.1284 -0.0207746 0)
(10.1443 -0.0207895 0)
(10.1606 -0.0208096 0)
(10.1772 -0.0208262 0)
(10.1941 -0.0208447 0)
(10.2115 -0.0208618 0)
(10.2292 -0.020881 0)
(10.2474 -0.0208934 0)
(10.2659 -0.0209114 0)
(10.2849 -0.0209276 0)
(10.3043 -0.0209451 0)
(10.3241 -0.0209583 0)
(10.3443 -0.0209785 0)
(10.365 -0.0209956 0)
(10.3862 -0.0210123 0)
(10.4078 -0.021029 0)
(10.4299 -0.0210365 0)
(10.4525 -0.0210357 0)
(10.4756 -0.021019 0)
(10.4992 -0.0209986 0)
(10.5233 -0.0209749 0)
(10.5479 -0.0209518 0)
(10.5731 -0.0209359 0)
(10.5988 -0.0209274 0)
(10.625 -0.0209197 0)
(10.6518 -0.0209171 0)
(10.6792 -0.0209118 0)
(10.7072 -0.0209056 0)
(10.7357 -0.0208973 0)
(10.7649 -0.0208842 0)
(10.7947 -0.0208672 0)
(10.8252 -0.0208496 0)
(10.8562 -0.0208275 0)
(10.888 -0.0208009 0)
(10.9203 -0.0207733 0)
(10.9534 -0.0207402 0)
(10.9871 -0.0207038 0)
(11.0215 -0.0206666 0)
(11.0567 -0.0206279 0)
(11.0925 -0.0205862 0)
(11.129 -0.0205424 0)
(11.1663 -0.0204937 0)
(11.2043 -0.0204451 0)
(11.2431 -0.0203891 0)
(11.2826 -0.020331 0)
(11.3229 -0.0202701 0)
(11.364 -0.0202064 0)
(11.4058 -0.0201391 0)
(11.4485 -0.0200714 0)
(11.492 -0.0200006 0)
(11.5362 -0.0199268 0)
(11.5813 -0.019849 0)
(11.6273 -0.0197678 0)
(11.6741 -0.0196825 0)
(11.7217 -0.0195935 0)
(11.7702 -0.0195017 0)
(11.8196 -0.0194073 0)
(11.8698 -0.0193067 0)
(11.9209 -0.019204 0)
(11.9729 -0.0190962 0)
(12.0258 -0.0189806 0)
(12.0796 -0.0188605 0)
(12.1343 -0.0187364 0)
(12.19 -0.0186086 0)
(12.2465 -0.0184784 0)
(12.304 -0.0183409 0)
(12.3624 -0.0181986 0)
(12.4217 -0.0180527 0)
(12.482 -0.0179005 0)
(12.5432 -0.0177416 0)
(12.6054 -0.0175793 0)
(12.6685 -0.0174121 0)
(12.7326 -0.0172417 0)
(12.7976 -0.0170654 0)
(12.8635 -0.0168861 0)
(12.9304 -0.0166985 0)
(12.9983 -0.0165081 0)
(13.0671 -0.0163131 0)
(13.1369 -0.016114 0)
(13.2076 -0.0159109 0)
(13.2793 -0.015701 0)
(13.3519 -0.0154892 0)
(13.4255 -0.0152701 0)
(13.5 -0.0150456 0)
(13.5754 -0.0148165 0)
(13.6517 -0.0145804 0)
(13.729 -0.0143399 0)
(13.8072 -0.0140951 0)
(13.8863 -0.0138443 0)
(13.9663 -0.0135869 0)
(14.0471 -0.0133228 0)
(14.1289 -0.0130539 0)
(14.2115 -0.0127796 0)
(14.295 -0.012499 0)
(14.3794 -0.0122142 0)
(14.4645 -0.011923 0)
(14.5505 -0.0116258 0)
(14.6373 -0.0113252 0)
(14.7249 -0.0110185 0)
(14.8133 -0.0107076 0)
(14.9024 -0.0103911 0)
(14.9923 -0.0100696 0)
(15.0829 -0.00974291 0)
(15.1742 -0.00941133 0)
(15.2662 -0.00907377 0)
(15.3588 -0.00873137 0)
(15.4522 -0.00838415 0)