/*--------------------------------*- C++ -*----------------------------------*\
| =========                 |                                                 |
| \\      /  F ield         | OpenFOAM: The Open Source CFD Toolbox           |
|  \\    /   O peration     | Version:  v1812                                 |
|   \\  /    A nd           | Web:      www.OpenFOAM.com                      |
|    \\/     M anipulation  |                                                 |
\*---------------------------------------------------------------------------*/
FoamFile
{
    version     2.0;
    format      ascii;
    class       volScalarField;
    location    "1.5";
    object      p;
}
// * * * * * * * * * * * * * * * * * * * * * * * * * * * * * * * * * * * * * //

dimensions      [1 -1 -2 0 0 0 0];


internalField   nonuniform List<scalar> 
20400
(
99552.4
99551.3
99551.1
99552.1
99552.7
99553.1
99553.6
99553.3
99553.5
99553.9
99554.6
99555.3
99556
99556.7
99557.2
99557.1
99556.3
99554.9
99557.3
99554.9
99557
99556.5
99557.8
99557.6
99555.5
99558.8
99557.4
99554.7
99554.3
99553.3
99552.8
99550.3
99545.8
99548.3
99541.6
99540.5
99537.9
99535
99529.8
99525.5
99522.4
99502.6
99520.9
99511.4
99512.8
99507
99503.7
99490.1
99496.7
99502.1
99489.8
99496.1
99504.9
99509.6
99509
99507.8
99506.5
99512.3
99512.2
99505.9
99511.9
99515.3
99516
99516
99515.1
99515.2
99512.8
99510.3
99508.2
99493.4
99502.4
99494.2
99492.8
99490.1
99487
99490.7
99488.3
99491
99492.3
99497
99498
99500.3
99504
99508.2
99511.8
99518.4
99539.9
99544.4
99543.8
99547.7
99555.6
99557.4
99565.4
99574.1
99574.6
99575.4
99579.5
99583
99584.9
99587.3
99589.4
99591.4
99592.3
99594.8
99597.4
99601.5
99604.4
99608.3
99610.4
99619.5
99627.3
99631.4
99639.5
99651.9
99660.6
99676
99693.9
99707.1
99722
99737.7
99753.4
99768.5
99782.8
99796.8
99810.6
99825.7
99840
99854.2
99867.7
99879.4
99889.6
99899.6
99908.4
99915.4
99922.9
99926
99924.9
99925.5
99926.6
99926.6
99927.2
99929.2
99926.1
99925.7
99926.4
99925.5
99922.4
99916.2
99909
99906.3
99903.7
99901
99897.7
99896.4
99893.8
99891.7
99887.3
99886.9
99884.3
99883.4
99886.6
99885.2
99884.5
99884
99876.5
99870.7
99866.9
99863.8
99857.9
99849.3
99849.1
99840.4
99832.6
99826.2
99818
99813.6
99810.6
99806
99807.3
99804.2
99800.4
99805.6
99817.1
99825.4
99837.5
99846.6
99861.9
99878.2
99895.4
99914.2
99932.3
99951.9
99971.4
99991.3
100011
100029
100048
100066
100082
100098
100114
100130
100144
100158
100170
100188
100189
100200
100209
100220
100232
100244
100254
100265
100274
100283
100292
100302
100312
100322
100329
100338
100346
100351
100357
100365
100374
100382
100390
100397
100405
100414
100422
100429
100437
100439
100446
100450
100457
100465
100473
100478
100482
100487
100490
100492
100495
100498
100499
100495
100493
100498
100498
100494
100491
100490
100489
100487
100487
100488
100488
100489
100491
100490
100493
100496
100499
100504
100510
100515
100520
100528
100535
100543
100553
100566
100571
100578
100588
100593
100607
100611
100617
100621
100625
100629
100632
100635
100638
100639
100640
100640
100639
100637
100636
100634
100632
100630
100627
100626
100623
100620
100616
100612
100608
100606
100603
100601
100600
100596
100592
100588
100585
100582
100577
100574
100567
100563
100557
100549
100544
100540
100538
100533
100529
100527
100526
100525
100525
100527
100529
100532
100536
100540
100546
100551
100558
100566
100574
100583
100592
100606
100625
100640
100654
100674
100691
100712
100736
100751
100765
100784
100802
100825
100838
100854
100870
100884
100899
100913
100925
100936
100946
100956
100966
100974
100983
100992
101000
101007
101014
101021
101027
101033
101038
101044
101050
101055
101060
101065
101070
101075
101079
101083
101087
101092
101096
101100
101104
101107
101110
101114
101116
101119
101121
101123
101125
101126
101124
101128
101129
101129
101129
101129
101127
101125
101121
101122
101122
101120
101118
101115
101113
101110
101108
101106
101105
101100
101098
101093
101090
101089
101087
101085
101084
101083
101081
101081
101081
101081
101082
101083
101084
101085
101088
101089
101091
101093
101095
101097
101098
101099
101100
101101
101102
101102
101104
101105
101106
101106
101106
101107
101108
101109
101110
101110
101109
101110
101112
101113
101114
101116
101117
101118
101119
101120
101121
101126
101128
101132
101135
101138
101141
101144
101149
101152
101155
101160
101164
101168
101172
101176
101181
101188
101197
101198
101197
101202
101209
101221
101230
101239
101248
101255
101266
101275
101286
101297
101304
101327
99551.5
99550.8
99549.8
99550.6
99550.8
99550.3
99550.9
99551.4
99551.4
99551.4
99551.7
99552.2
99552.7
99553.3
99553.8
99554.3
99555.3
99555.2
99557.2
99557.9
99552.7
99556.3
99559.7
99559
99550.8
99559.4
99560.9
99547.1
99552
99552.1
99550.7
99547.2
99542.5
99536.8
99535.1
99533.4
99530.2
99526.9
99528.2
99525.9
99519.5
99512.8
99507
99502.6
99505.5
99498.9
99509.1
99499.8
99489.1
99500.5
99498.1
99498.3
99502.6
99505.9
99503.1
99501.9
99517.8
99515.7
99512.5
99504.8
99518.2
99514.2
99513.2
99513.9
99511.6
99510.7
99508.4
99505.6
99502.8
99484.7
99485
99488.6
99485.3
99482
99496.1
99499.2
99492.3
99493.2
99492.4
99499.1
99500.3
99503.4
99509.4
99516.6
99529.3
99539.1
99509.1
99536.6
99549.5
99556
99565.6
99563.5
99551.4
99570.1
99577.5
99585
99587.4
99592
99595
99597.8
99599.9
99601.9
99602.6
99603.5
99604.1
99605.9
99607.6
99609.6
99611.4
99633.3
99641.6
99644.2
99651.1
99660.2
99664.8
99673.2
99681.9
99688.5
99696.8
99706
99716.5
99727.8
99739.8
99753.6
99767.1
99777.8
99786
99790.6
99796.2
99801.8
99807.6
99815.1
99820.2
99829.4
99852
99862.6
99874.9
99889.1
99900
99906.7
99911.9
99917.8
99918.8
99920.9
99921.8
99922.5
99921.6
99918.3
99914.4
99909.1
99904.5
99902.6
99900.9
99901.3
99900.6
99900.4
99897
99895.2
99888.2
99885.1
99883.4
99876.6
99877.1
99878.7
99885.2
99894.8
99901.5
99899.1
99898
99899.4
99881.6
99875.5
99870.6
99865.5
99856.3
99848.4
99839.1
99831.2
99835.5
99844.8
99829.6
99808.3
99822.3
99840.5
99842.3
99845.5
99851.3
99859.1
99867.7
99878.5
99888.7
99901.3
99914.5
99928.9
99944.3
99960
99976.4
99993.5
100011
100027
100044
100062
100078
100094
100111
100123
100164
100176
100192
100208
100222
100237
100250
100262
100273
100284
100294
100305
100316
100327
100336
100347
100355
100363
100382
100386
100396
100405
100411
100418
100424
100430
100435
100437
100444
100444
100447
100452
100457
100462
100466
100470
100474
100478
100480
100483
100487
100489
100491
100491
100489
100490
100490
100490
100488
100488
100487
100484
100483
100482
100481
100481
100482
100484
100488
100493
100497
100507
100507
100512
100520
100526
100529
100523
100522
100537
100554
100553
100561
100578
100562
100565
100567
100569
100571
100575
100579
100583
100588
100592
100596
100600
100603
100605
100607
100609
100609
100610
100610
100610
100610
100609
100608
100606
100604
100601
100599
100597
100590
100588
100585
100582
100579
100576
100574
100570
100565
100561
100556
100553
100552
100551
100549
100546
100541
100539
100538
100536
100533
100532
100532
100532
100534
100537
100542
100546
100554
100564
100576
100587
100601
100610
100621
100634
100651
100665
100664
100677
100706
100737
100744
100754
100780
100779
100796
100807
100820
100834
100848
100863
100878
100893
100907
100921
100935
100947
100960
100972
100984
100995
101005
101015
101025
101034
101042
101051
101058
101066
101072
101079
101085
101091
101096
101101
101105
101110
101113
101117
101120
101123
101125
101127
101128
101129
101130
101130
101130
101129
101121
101120
101123
101122
101121
101120
101118
101117
101114
101114
101113
101112
101110
101107
101105
101102
101100
101098
101096
101103
101107
101096
101091
101088
101086
101085
101085
101081
101078
101075
101072
101070
101068
101067
101065
101065
101065
101064
101065
101066
101068
101069
101071
101073
101075
101077
101080
101082
101084
101086
101089
101092
101094
101096
101099
101102
101104
101107
101109
101110
101112
101113
101115
101116
101117
101118
101119
101119
101115
101119
101121
101124
101127
101129
101132
101135
101139
101142
101146
101151
101155
101159
101164
101168
101172
101177
101184
101195
101214
101193
101206
101211
101222
101234
101242
101258
101265
101276
101285
101294
101301
101328
99553.7
99552.4
99553.1
99552.9
99553.2
99552.7
99552.3
99552.1
99552
99551.9
99552.3
99552.8
99553.2
99552.9
99552.9
99553.5
99555.3
99555.9
99557.6
99552.1
99557.1
99558.6
99560.2
99560.3
99554.7
99555.4
99552.7
99556.4
99554.4
99553.2
99552.4
99552.1
99550.4
99545
99540.3
99538.6
99532.5
99527.2
99526.3
99522.8
99519.5
99511.2
99512.8
99510.5
99505.6
99501.7
99501.1
99490.9
99491.7
99494.2
99496
99504.2
99496.7
99506.5
99510.1
99510.8
99503.1
99512.1
99514.1
99505.8
99511.1
99518.2
99518.7
99518.5
99518.2
99518.5
99515.5
99511.8
99510.1
99498.7
99491
99490.1
99486.9
99481.9
99484.9
99486.8
99486.9
99489.1
99486.3
99493
99494.7
99497.1
99498.8
99503.3
99506.7
99508.3
99539.1
99541
99541.5
99550.7
99559.1
99564.5
99573.5
99578.1
99580
99586.5
99597.5
99601.7
99605.5
99609.1
99611.6
99612.8
99613.2
99613.4
99611.7
99611.3
99608.7
99606.9
99603.9
99602.9
99605.8
99600.3
99603.6
99606.7
99606.9
99612
99617.8
99623.5
99633.3
99645.2
99661.1
99682.5
99707.5
99732.7
99756.2
99777.4
99796.3
99811.3
99824.4
99837
99847.8
99858.8
99871
99882.9
99890.8
99901.2
99908.5
99914.6
99920.5
99924.1
99927.6
99932.5
99932.6
99928
99916.8
99913.2
99911
99907
99901.9
99902.5
99901.3
99900.6
99898.8
99898.1
99895.7
99894.4
99891.3
99890.3
99886
99884.5
99888.5
99900.1
99910.2
99914.2
99906.7
99894.4
99888.8
99887.8
99882.2
99871.5
99867.7
99870.9
99865.5
99859.3
99852.2
99849.7
99840.9
99823.5
99817.4
99821.4
99833
99850.7
99834.3
99819.9
99828.8
99842.7
99854.9
99867.9
99882.1
99899.9
99916.7
99934.4
99951.6
99968.8
99986.6
100004
100021
100039
100057
100074
100092
100112
100130
100147
100166
100181
100193
100208
100220
100232
100241
100251
100260
100268
100277
100287
100296
100306
100317
100328
100336
100345
100354
100362
100369
100375
100385
100393
100401
100408
100417
100427
100436
100444
100451
100466
100480
100483
100489
100495
100500
100505
100510
100515
100518
100522
100525
100528
100531
100532
100534
100520
100525
100526
100522
100522
100519
100515
100513
100511
100507
100506
100503
100502
100501
100501
100499
100499
100502
100501
100495
100497
100503
100515
100523
100516
100520
100541
100557
100562
100576
100587
100600
100610
100619
100628
100635
100636
100634
100635
100636
100637
100636
100636
100637
100638
100637
100636
100634
100634
100633
100631
100629
100627
100625
100622
100619
100613
100618
100613
100611
100608
100606
100604
100601
100598
100598
100581
100575
100572
100571
100570
100567
100561
100556
100555
100554
100553
100552
100553
100552
100552
100551
100555
100554
100558
100561
100564
100569
100575
100580
100589
100599
100603
100612
100629
100657
100673
100672
100685
100721
100750
100764
100790
100810
100834
100856
100874
100888
100901
100914
100926
100938
100950
100962
100972
100982
100992
101001
101009
101016
101023
101030
101036
101042
101048
101054
101059
101065
101069
101074
101079
101083
101087
101090
101094
101098
101101
101104
101108
101111
101114
101116
101119
101122
101126
101130
101132
101145
101145
101145
101145
101145
101145
101143
101142
101138
101138
101136
101134
101132
101129
101126
101123
101119
101116
101111
101100
101093
101100
101098
101093
101088
101085
101081
101078
101079
101079
101078
101077
101079
101079
101080
101081
101083
101085
101087
101089
101090
101091
101092
101093
101094
101095
101097
101098
101099
101102
101105
101107
101108
101109
101111
101112
101113
101115
101115
101117
101119
101120
101123
101125
101128
101130
101132
101133
101146
101148
101151
101154
101158
101161
101165
101168
101172
101176
101180
101184
101188
101192
101197
101201
101205
101209
101213
101217
101209
101235
101241
101243
101245
101247
101253
101254
101265
101271
101279
101288
101295
101317
99554.2
99553.4
99554
99554.3
99554.8
99555.1
99554.7
99554.6
99554.8
99555.3
99555.8
99556.3
99556.3
99555.9
99555.6
99555.8
99556.5
99556.2
99556.1
99553
99554.6
99556.4
99557.1
99557.8
99556.4
99558.5
99554.7
99553.4
99554.8
99553
99550.4
99549.7
99547.8
99546.7
99542.7
99540.8
99536.8
99533.2
99528.9
99522.6
99515.5
99510.5
99513.5
99509.2
99509.1
99506.4
99500.8
99493.4
99498.2
99498
99492.8
99495.5
99502.9
99506.1
99508.3
99510
99504.1
99511.3
99513.6
99508.4
99512.3
99520.8
99519.8
99517.4
99516.3
99516.1
99514.3
99512.6
99510.4
99499.2
99498.7
99497.5
99496
99491.1
99489.5
99491.5
99488.9
99489
99490.8
99493
99495.5
99498.8
99506.7
99510.8
99516.6
99520.1
99542.7
99540.5
99547.1
99551.4
99553.5
99558.5
99563.6
99570.9
99575.4
99581
99582.5
99585.6
99586.8
99588
99588.4
99588.3
99588.2
99588.2
99588.3
99592.3
99595.4
99597.4
99598.7
99607.3
99613.4
99615.6
99620.3
99635.2
99642.5
99655
99670.3
99684
99699.3
99716.1
99733.2
99749.6
99764.5
99778.7
99792.6
99807.4
99822.4
99837.4
99851.7
99864.8
99874.4
99880.5
99885.7
99892.4
99896.7
99903.5
99909
99913.7
99918.8
99921.9
99925.5
99931.3
99934.8
99939.1
99933.7
99928.6
99927.5
99924.9
99921.9
99912.9
99896.6
99894.3
99892.7
99893
99892.1
99889.6
99887.1
99887.9
99884
99890.4
99903.6
99901.9
99890.1
99884.5
99884.7
99870.8
99860.5
99864.3
99863.4
99856.7
99857.4
99856.8
99850.1
99842.3
99831.8
99825.8
99815.2
99799.7
99799.2
99792.7
99800.7
99808.2
99810.5
99809.6
99823.6
99830.3
99843.4
99859.1
99876.2
99898.7
99919.2
99941.5
99963.1
99984
100005
100025
100044
100064
100083
100100
100112
100121
100132
100144
100157
100169
100181
100193
100205
100218
100230
100242
100253
100264
100275
100287
100297
100306
100310
100321
100330
100340
100349
100357
100366
100373
100382
100390
100398
100406
100415
100426
100435
100442
100448
100447
100449
100453
100458
100467
100472
100479
100484
100491
100495
100498
100502
100503
100504
100503
100500
100497
100499
100497
100494
100494
100491
100488
100485
100484
100481
100481
100481
100480
100482
100484
100487
100494
100499
100504
100511
100519
100526
100534
100542
100548
100548
100554
100559
100563
100575
100583
100594
100604
100612
100620
100630
100635
100636
100639
100642
100645
100646
100646
100645
100637
100634
100633
100632
100633
100632
100630
100627
100622
100617
100612
100609
100605
100602
100601
100598
100594
100593
100592
100587
100584
100577
100568
100563
100557
100555
100556
100545
100542
100535
100534
100531
100531
100528
100528
100528
100529
100529
100533
100536
100541
100548
100556
100563
100574
100586
100597
100614
100628
100642
100658
100673
100692
100709
100719
100735
100755
100775
100796
100814
100836
100858
100878
100895
100910
100925
100941
100955
100963
100968
100973
100980
100989
100997
101006
101014
101021
101028
101034
101040
101047
101053
101058
101064
101069
101074
101079
101084
101088
101092
101096
101101
101105
101109
101112
101115
101119
101121
101125
101128
101129
101130
101129
101127
101129
101129
101129
101128
101128
101127
101127
101123
101123
101122
101121
101119
101116
101113
101111
101107
101104
101102
101097
101094
101092
101091
101087
101086
101083
101083
101081
101078
101073
101070
101068
101068
101069
101070
101072
101077
101081
101084
101088
101091
101094
101097
101099
101102
101104
101108
101110
101111
101110
101109
101107
101107
101107
101108
101109
101111
101113
101112
101112
101114
101115
101117
101119
101121
101124
101127
101130
101131
101133
101134
101135
101138
101141
101143
101145
101149
101153
101157
101161
101166
101170
101175
101180
101185
101189
101194
101197
101200
101209
101214
101220
101227
101234
101243
101249
101261
101269
101280
101292
101301
101324
99551.3
99550.3
99551.2
99551
99551.6
99551.7
99551.7
99552.2
99553.3
99554.6
99555.4
99555.6
99555.6
99556.2
99557.2
99557.6
99557.9
99557.1
99558
99556.3
99557.5
99557.3
99557.4
99558.7
99557.2
99559.1
99555.9
99558.7
99559.3
99557.5
99554.2
99552.5
99550.2
99546.9
99541.6
99540.7
99540.2
99536.9
99532.3
99527.8
99521.2
99514.3
99511.7
99506.4
99501.8
99501.1
99499
99492
99493.8
99492.8
99492.7
99495.4
99494.4
99502.8
99506.2
99506.8
99512.4
99516.5
99520.7
99513.1
99522.3
99524.3
99524.4
99523.3
99522.1
99518.2
99516.8
99514.6
99511.1
99503.7
99501.4
99496
99491.4
99487.4
99484.9
99485.8
99485.2
99484.3
99482.6
99484.1
99484.4
99486.1
99490.3
99494.9
99500.3
99506.6
99528.7
99520.6
99527.1
99533.9
99550.5
99559.7
99569.2
99574.6
99582.4
99586.5
99589.2
99592.8
99594.5
99596.1
99596.3
99595.9
99595.6
99595.1
99595.2
99593.5
99598.7
99599.7
99598.5
99610.6
99610.9
99615.9
99630
99632.5
99635.8
99650.5
99667.6
99683.9
99702.1
99719.7
99736.8
99752.6
99766.8
99780.5
99794.2
99808.3
99824.1
99838.9
99853.4
99872.3
99889.6
99900.3
99905.5
99909.3
99909.4
99912.4
99913.1
99912.9
99913.1
99911.9
99909.6
99905.3
99899.1
99903.1
99906
99907.7
99906.9
99904.2
99907.2
99900.3
99894.1
99890.7
99890.5
99888.2
99885.4
99882.4
99882.5
99882.8
99876.7
99867.9
99863.3
99876.9
99875.3
99870
99876.3
99876.8
99869
99877.6
99883.6
99880.3
99868.1
99857
99847.1
99834.7
99820
99816.2
99806
99786.2
99786
99790.4
99791.3
99799.9
99806.5
99814.3
99818.3
99837.4
99853.2
99867.3
99879.8
99895.8
99913.1
99933.6
99955.4
99977.6
100001
100023
100044
100066
100089
100112
100129
100142
100155
100168
100181
100192
100202
100213
100224
100235
100241
100246
100253
100261
100271
100281
100289
100300
100312
100321
100330
100339
100348
100356
100363
100370
100379
100388
100397
100405
100409
100412
100418
100424
100430
100435
100441
100446
100454
100466
100476
100485
100493
100492
100493
100496
100499
100499
100500
100503
100501
100502
100502
100502
100498
100498
100495
100491
100490
100490
100487
100488
100488
100486
100487
100489
100491
100497
100506
100510
100518
100530
100542
100553
100561
100569
100578
100586
100592
100599
100610
100613
100618
100623
100626
100624
100623
100626
100629
100631
100633
100634
100634
100635
100633
100635
100634
100633
100629
100625
100621
100619
100615
100609
100606
100604
100603
100598
100601
100602
100604
100599
100595
100592
100589
100582
100573
100569
100561
100553
100548
100544
100545
100539
100532
100530
100530
100528
100526
100528
100529
100532
100533
100536
100542
100544
100551
100556
100563
100576
100588
100600
100620
100635
100656
100677
100694
100712
100732
100750
100768
100784
100803
100824
100838
100849
100860
100873
100889
100905
100920
100935
100948
100960
100967
100975
100986
100996
101004
101010
101014
101021
101028
101034
101040
101046
101051
101057
101062
101067
101072
101076
101081
101085
101089
101093
101096
101100
101103
101107
101112
101117
101120
101119
101119
101121
101122
101124
101124
101126
101126
101127
101127
101130
101130
101128
101128
101124
101119
101119
101117
101114
101112
101110
101107
101104
101101
101097
101095
101092
101091
101090
101088
101086
101087
101085
101084
101086
101085
101085
101087
101089
101091
101091
101086
101084
101083
101083
101085
101087
101088
101091
101092
101095
101098
101101
101103
101103
101106
101107
101109
101111
101114
101116
101111
101112
101114
101115
101118
101119
101121
101123
101124
101123
101121
101119
101121
101123
101126
101130
101134
101138
101141
101145
101151
101158
101162
101167
101169
101170
101175
101181
101185
101190
101194
101197
101200
101205
101216
101224
101229
101238
101243
101255
101261
101273
101284
101296
101305
101324
99551.3
99550.2
99551.4
99550.9
99551.6
99551.8
99551.8
99551.9
99552.5
99553.2
99553.4
99552.5
99552.1
99553.2
99555.2
99555.6
99555.3
99554.4
99557.2
99556.9
99558.9
99558.5
99558
99558.3
99557.4
99558.6
99555.6
99557.7
99558.6
99557.8
99556.9
99555.6
99553.1
99550.1
99546
99543.1
99537.9
99533.8
99530.4
99527.8
99523.9
99516
99514.3
99509.4
99503.1
99499.3
99494.4
99490.2
99491.6
99490.8
99490.1
99492.5
99496.9
99501.1
99502.9
99506.8
99512.4
99518.4
99522.5
99519.4
99527
99530.1
99530.2
99531.7
99532.3
99525.7
99523.6
99521.1
99517
99510.5
99507.1
99503.5
99495.8
99489.7
99485.7
99483.8
99478.9
99477.5
99478.1
99479.5
99479.9
99483.4
99490.2
99495.3
99502.4
99509.9
99530.1
99531.6
99537
99547.4
99555.1
99563.4
99570.2
99573.9
99579.6
99584.7
99587.2
99591.5
99594.4
99596.6
99597.1
99597.1
99598.4
99597.9
99597.4
99603
99607.4
99607.2
99606.6
99606.4
99631.8
99636.5
99625.3
99645.7
99652
99660.7
99673.6
99685.8
99700.5
99716.3
99731.9
99747
99761.4
99776.1
99790.6
99804.2
99818.2
99829.4
99837.4
99844.2
99855.2
99866.8
99877.2
99886.6
99892.9
99899.5
99904.6
99908.6
99911.9
99915.9
99921.1
99920.8
99914.4
99909.6
99904.5
99902
99898.3
99892.8
99889.2
99887
99881.8
99879.3
99878.6
99877
99876.3
99871.6
99871.9
99865.8
99862.5
99860.3
99862.6
99875.9
99885.1
99890.6
99894
99890.7
99882.7
99861.8
99855.5
99851.6
99838.7
99826.4
99826.5
99820
99807
99806.5
99794.9
99782.3
99783.2
99783.1
99785.3
99792.5
99797.5
99803.7
99815.9
99832.8
99850.2
99869.5
99887.4
99907.7
99925.5
99944.9
99964.5
99982.7
100002
100020
100036
100049
100063
100081
100100
100119
100135
100150
100165
100179
100193
100205
100218
100231
100245
100252
100260
100270
100281
100291
100302
100310
100307
100316
100326
100335
100344
100351
100360
100369
100378
100385
100390
100396
100403
100412
100420
100429
100439
100451
100462
100463
100457
100458
100462
100470
100475
100474
100479
100488
100491
100496
100501
100508
100507
100508
100504
100497
100490
100487
100483
100479
100477
100476
100475
100475
100477
100478
100480
100483
100488
100494
100492
100502
100504
100508
100517
100525
100535
100546
100556
100567
100576
100587
100599
100606
100615
100626
100636
100642
100641
100641
100642
100642
100644
100644
100643
100642
100641
100636
100631
100629
100628
100626
100622
100620
100615
100611
100609
100613
100617
100611
100602
100599
100602
100597
100586
100579
100579
100579
100571
100567
100561
100553
100549
100548
100543
100537
100529
100528
100519
100522
100521
100519
100522
100523
100527
100531
100535
100541
100548
100558
100567
100576
100587
100592
100604
100615
100632
100651
100669
100691
100713
100734
100755
100777
100801
100827
100848
100863
100876
100888
100901
100914
100926
100941
100949
100954
100963
100971
100981
100991
101000
101008
101013
101021
101027
101033
101039
101045
101050
101056
101061
101066
101071
101076
101080
101084
101088
101091
101095
101100
101106
101109
101110
101111
101114
101116
101120
101121
101122
101126
101127
101130
101132
101132
101127
101122
101122
101121
101120
101119
101115
101115
101112
101110
101109
101110
101107
101106
101102
101098
101095
101093
101091
101088
101086
101082
101080
101076
101076
101080
101080
101082
101087
101088
101093
101097
101098
101098
101100
101101
101102
101103
101104
101106
101106
101107
101109
101110
101109
101104
101103
101102
101103
101104
101105
101107
101110
101110
101111
101111
101111
101110
101110
101111
101113
101113
101115
101117
101120
101122
101127
101132
101138
101144
101149
101151
101148
101149
101152
101154
101155
101161
101167
101173
101180
101188
101193
101197
101198
101202
101210
101217
101228
101234
101246
101251
101265
101273
101284
101296
101306
101323
99551.2
99549.8
99551.5
99550.7
99551.4
99551.8
99552.2
99552.4
99552.7
99553.1
99553.3
99553.3
99553.2
99553.8
99554.5
99554.7
99553.8
99552.8
99554.9
99555.4
99557.4
99557.5
99558.8
99560.5
99559.8
99561.4
99559.3
99559.9
99560.5
99558.4
99557.1
99556.1
99554
99551.3
99549.1
99545
99540.7
99535.9
99530
99524.2
99518.2
99511.6
99509.3
99505.4
99501
99497
99492.4
99489.3
99488.5
99486.4
99486.2
99488.5
99492.5
99497.6
99503.1
99504.6
99509.5
99510.8
99515.8
99518
99521.3
99523.5
99527.1
99527.7
99527.9
99525.6
99522.8
99518.1
99512.6
99506.5
99500.1
99495.1
99487.2
99480.6
99477.1
99472.8
99470.1
99467.9
99467.9
99471.7
99472.5
99474.6
99480.4
99484.3
99490.5
99498.9
99521
99529.8
99538.9
99552.2
99563.7
99573.8
99582.9
99588.9
99594.8
99599.9
99601.6
99602.3
99602
99601
99598.3
99595
99592.9
99591.3
99590.7
99588
99601.4
99599
99591.2
99605.4
99613.7
99608.9
99624.3
99641.1
99641.3
99661.8
99670
99681.4
99696.8
99710.6
99725.6
99740.7
99756.2
99772.4
99789.1
99804.6
99822.4
99843.5
99858.5
99863.6
99866.8
99871.4
99876.1
99880.8
99883.1
99885.7
99887.6
99888.3
99887.5
99887.1
99890.2
99893.1
99893.6
99893.2
99890.5
99890.6
99889.1
99887.3
99885.4
99879
99873.4
99870.3
99868.8
99866
99864.6
99860.3
99861.5
99862.2
99855.3
99859.8
99869
99876
99880.5
99882.6
99871.8
99860.7
99851.1
99840.8
99836.5
99843.6
99847.6
99843.4
99841.1
99827.4
99814.5
99808.6
99791.9
99766.7
99769.8
99781.8
99776.2
99786.7
99792
99807
99804.4
99822.8
99834.8
99856.5
99874
99898.2
99919.3
99942.3
99965.1
99985.9
100009
100034
100058
100074
100087
100101
100115
100129
100142
100154
100166
100178
100189
100198
100207
100215
100228
100242
100251
100262
100272
100282
100294
100304
100312
100318
100326
100337
100346
100354
100359
100365
100374
100382
100391
100400
100408
100419
100429
100435
100437
100434
100436
100439
100437
100446
100457
100466
100475
100486
100497
100509
100511
100504
100500
100497
100494
100493
100486
100485
100479
100478
100476
100477
100476
100477
100476
100479
100478
100478
100481
100486
100493
100494
100506
100514
100517
100523
100528
100535
100541
100549
100557
100565
100571
100579
100587
100590
100593
100599
100608
100616
100621
100625
100628
100631
100635
100637
100638
100640
100644
100642
100638
100635
100631
100630
100627
100626
100621
100617
100613
100597
100600
100601
100591
100585
100590
100592
100588
100583
100588
100592
100585
100580
100568
100559
100548
100534
100534
100527
100520
100515
100522
100515
100516
100518
100521
100524
100528
100530
100538
100540
100547
100557
100565
100574
100595
100602
100616
100628
100642
100659
100673
100691
100710
100727
100744
100762
100779
100800
100820
100839
100858
100875
100891
100907
100923
100941
100958
100965
100971
100979
100989
100995
101000
101007
101013
101020
101027
101032
101038
101044
101049
101054
101059
101064
101069
101073
101077
101082
101086
101091
101096
101100
101098
101103
101106
101111
101114
101118
101124
101125
101128
101130
101126
101121
101122
101123
101119
101121
101122
101120
101117
101120
101122
101123
101121
101116
101107
101108
101104
101101
101098
101095
101095
101091
101090
101088
101085
101081
101082
101083
101082
101080
101078
101079
101072
101070
101070
101075
101077
101080
101084
101087
101091
101094
101097
101101
101103
101105
101109
101113
101117
101116
101112
101113
101114
101116
101118
101117
101108
101109
101110
101111
101112
101113
101114
101116
101119
101122
101126
101129
101129
101126
101126
101129
101130
101131
101134
101137
101136
101141
101149
101152
101153
101165
101175
101183
101189
101190
101194
101195
101195
101201
101208
101218
101224
101234
101239
101252
101259
101274
101283
101292
101305
101322
99549.3
99547.4
99549.9
99548.8
99549.5
99549.9
99550.8
99551.5
99551.9
99552.1
99552.2
99552.8
99553.5
99554.3
99555.1
99555.6
99555.4
99555
99555.7
99555.4
99557.1
99556.6
99557.2
99558.7
99558.4
99560.6
99559.1
99561.7
99561.9
99561
99560.4
99557.2
99554.6
99552.2
99550.2
99546.6
99542.4
99537.6
99530.8
99524.6
99517.4
99509.8
99505.1
99499.9
99494.6
99489.6
99485.2
99483.2
99481.4
99480.2
99480.9
99483.5
99488.7
99492.8
99495.7
99503.5
99507.7
99515
99520.3
99526
99532.5
99534.8
99536.9
99538.1
99537
99534.2
99530.4
99525
99518.5
99511.9
99503.3
99497
99488.8
99481
99475.6
99471
99465.9
99465.5
99465.6
99468.5
99475.6
99476.2
99486.7
99494.2
99502.7
99511.9
99532.6
99533.7
99536.7
99545.1
99555
99565.9
99574.9
99581.7
99590.7
99598
99602.5
99605.8
99608.6
99611.3
99612
99610.8
99613.7
99610.7
99606.2
99606.4
99603.6
99602.4
99598.4
99596.9
99624
99626.2
99613.8
99638.1
99634
99639.6
99660.3
99673.8
99688.1
99703.6
99718.8
99733.6
99747.7
99761.6
99775.2
99786.4
99796.6
99810.1
99824.8
99838
99849.5
99859.5
99868.4
99875.8
99880.9
99885.2
99890
99894
99895.4
99892.6
99888.9
99885.7
99881.4
99877.5
99872.1
99869.6
99864.7
99862.4
99861.1
99857.7
99853.9
99851.6
99851
99848.5
99847.9
99845.6
99845.7
99848.4
99849.6
99851.5
99856.5
99857.5
99856.9
99859.3
99857.8
99852.6
99853.5
99856.3
99855.4
99855.2
99853.2
99840.7
99816.6
99795.4
99788.7
99792.6
99762.6
99759.8
99783.1
99772.1
99776.5
99781.9
99782.2
99785.6
99809.8
99817.8
99841.1
99853.7
99871.1
99893.4
99911.4
99932.5
99952.6
99970.4
99987.6
100009
100031
100052
100072
100090
100107
100124
100139
100154
100167
100181
100194
100208
100218
100227
100236
100246
100255
100264
100273
100281
100289
100298
100307
100315
100322
100331
100341
100348
100357
100365
100373
100381
100388
100394
100400
100408
100412
100417
100424
100432
100441
100448
100454
100468
100485
100491
100488
100488
100486
100487
100487
100481
100486
100490
100490
100492
100493
100495
100490
100488
100477
100475
100475
100469
100471
100470
100473
100473
100474
100475
100478
100483
100491
100496
100508
100513
100521
100531
100540
100550
100560
100570
100578
100589
100601
100611
100614
100616
100620
100623
100626
100627
100628
100629
100631
100632
100629
100627
100629
100632
100628
100625
100625
100624
100621
100622
100609
100603
100601
100593
100599
100601
100602
100600
100604
100607
100610
100601
100591
100585
100575
100561
100550
100537
100538
100531
100530
100517
100514
100520
100514
100513
100513
100515
100519
100521
100522
100528
100527
100535
100542
100548
100556
100559
100574
100585
100603
100618
100637
100656
100674
100694
100716
100741
100765
100784
100798
100812
100827
100843
100858
100873
100887
100901
100913
100925
100940
100953
100961
100970
100981
100991
100999
101005
101012
101019
101025
101031
101036
101042
101047
101053
101058
101063
101068
101073
101077
101083
101088
101090
101092
101095
101099
101103
101107
101114
101119
101121
101125
101125
101119
101121
101122
101119
101124
101124
101121
101129
101130
101131
101127
101121
101116
101114
101113
101104
101105
101107
101103
101102
101099
101098
101095
101092
101091
101087
101085
101080
101081
101083
101082
101086
101082
101083
101085
101084
101085
101083
101084
101085
101086
101088
101089
101091
101092
101094
101095
101094
101091
101092
101098
101102
101103
101104
101105
101107
101111
101112
101110
101110
101111
101112
101112
101112
101114
101115
101116
101115
101115
101113
101115
101117
101121
101127
101132
101135
101141
101148
101150
101154
101163
101166
101170