/*--------------------------------*- C++ -*----------------------------------*\
| =========                 |                                                 |
| \\      /  F ield         | OpenFOAM: The Open Source CFD Toolbox           |
|  \\    /   O peration     | Version:  v1812                                 |
|   \\  /    A nd           | Web:      www.OpenFOAM.com                      |
|    \\/     M anipulation  |                                                 |
\*---------------------------------------------------------------------------*/
FoamFile
{
    version     2.0;
    format      ascii;
    class       surfaceScalarField;
    location    "1.5";
    object      phi;
}
// * * * * * * * * * * * * * * * * * * * * * * * * * * * * * * * * * * * * * //

dimensions      [1 0 -1 0 0 0 0];
oriented        oriented;


internalField   nonuniform List<scalar> 
40240
(
-0.000138023
-0.000117756
-0.000297598
-9.65284e-05
-0.000535996
-1.7821e-05
-0.000800395
8.44095e-06
-0.00105048
-6.44466e-06
-0.00127042
-3.61101e-05
-0.00147672
-5.0132e-05
-0.00169867
-3.43216e-05
-0.0019473
-7.00305e-06
-0.00220564
3.01925e-06
-0.00245586
-4.64446e-06
-0.00269208
-1.81228e-05
-0.00291546
-3.02668e-05
-0.00312562
-4.26776e-05
-0.00333194
-4.55751e-05
-0.00353735
-4.51687e-05
-0.0037074
-7.97101e-05
-0.00376884
-0.00018792
-0.00389844
-0.000118667
-0.00397082
-0.00017507
-0.00415854
-5.87502e-05
-0.00422047
-0.000184135
-0.00446796
2.96125e-06
-0.00471828
6.57842e-06
-0.00477202
-0.000188485
-0.00482798
-0.000184404
-0.00493921
-0.000130163
-0.00512485
-2.62655e-05
-0.00517598
-0.00018572
-0.00537628
-3.35694e-05
-0.00573306
0.000125895
-0.0061947
0.000231805
-0.0066152
0.000195457
-0.00680556
-3.38166e-05
-0.00694967
-7.84481e-05
-0.00721554
4.57765e-05
-0.00749604
6.20894e-05
-0.00780248
9.12645e-05
-0.00825361
0.00023844
-0.00881421
0.000347758
-0.00946866
0.000442355
-0.00989498
0.000249819
-0.0102317
0.000135786
-0.0105001
7.17231e-05
-0.0109526
0.000260879
-0.0113286
0.000189226
-0.0117532
0.000239914
-0.0120052
6.89945e-05
-0.0121393
-4.43848e-05
-0.0123894
7.9068e-05
-0.01262
6.16337e-05
-0.0131617
0.000376
-0.0131756
-0.000147074
-0.0129798
-0.000355388
-0.0126832
-0.000452254
-0.0125408
-0.000293466
-0.0126813
-7.52348e-06
-0.0126733
-0.000151687
-0.0127087
-0.000104539
-0.0128281
-1.41771e-05
-0.0129994
4.18976e-05
-0.0130691
-5.84727e-05
-0.0130779
-0.00011474
-0.0131706
-2.79034e-05
-0.0133814
9.35486e-05
-0.0135849
8.91994e-05
-0.0137266
3.00186e-05
-0.0138888
5.45548e-05
-0.0141537
0.000159187
-0.0146131
0.000357707
-0.0148531
0.000145618
-0.0151526
0.000203597
-0.0156784
0.000440914
-0.016168
0.000408164
-0.016735
0.00048714
-0.0172593
0.000445406
-0.0177063
0.000374358
-0.0179496
0.000174052
-0.0179255
-8.7865e-05
-0.0177843
-0.000200174
-0.017506
-0.000334739
-0.017171
-0.000386557
-0.0168797
-0.000338039
-0.0167521
-0.000171414
-0.0167468
-4.50315e-05
-0.0167746
-9.993e-06
-0.0165831
-0.000226014
-0.015981
-0.000634639
-0.0153452
-0.00066567
-0.0148622
-0.000510058
-0.0147638
-0.000124753
-0.0146151
-0.000174959
-0.0145082
-0.000118791
-0.0143424
-0.000206109
-0.0141829
-0.000180926
-0.0142129
6.88763e-06
-0.0144033
0.000169361
-0.0147144
0.000289807
-0.0151159
0.000380993
-0.0155949
0.000459416
-0.0161429
0.000529212
-0.0167684
0.000607668
-0.0175068
0.000720814
-0.0183264
0.00080271
-0.0191924
0.000849431
-0.0200674
0.000858276
-0.0209676
0.000883408
-0.0218569
0.000871966
-0.022641
0.000767167
-0.0232218
0.000563476
-0.0236861
0.000447157
-0.0241115
0.000408397
-0.0244235
0.000295198
-0.0245878
0.000147213
-0.0247112
0.000105773
-0.0247065
-2.28973e-05
-0.0244667
-0.000259486
-0.0239473
-0.000540277
-0.023216
-0.000752139
-0.0223243
-0.000913094
-0.0213358
-0.00101141
-0.0203069
-0.00105282
-0.0192556
-0.00107575
-0.0181739
-0.00110715
-0.0170571
-0.00114287
-0.0158699
-0.00121467
-0.014613
-0.00128517
-0.0132674
-0.00137457
-0.0118396
-0.00145781
-0.0103771
-0.00149379
-0.00889703
-0.00151202
-0.00736949
-0.0015601
-0.00579216
-0.00161119
-0.00420451
-0.00162388
-0.00264497
-0.00159813
-0.00127171
-0.00140476
1.1528e-05
-0.00132103
0.00121673
-0.00124552
0.00238894
-0.00121473
0.00351408
-0.00116906
0.00462361
-0.00115418
0.00571427
-0.00113628
0.00666627
-0.00100027
0.00748077
-0.000861072
0.0081904
-0.000757846
0.0087492
-0.000608464
0.00896701
-0.000268865
0.00897288
-5.96815e-05
0.00878601
0.000133964
0.00847792
0.000254027
0.00805817
0.000364785
0.00754405
0.000458029
0.00696263
0.000524458
0.0063757
0.000528343
0.00575402
0.000561361
0.00509795
0.000594797
0.00441598
0.000620322
0.00384202
0.000513493
0.00340904
0.000375625
0.00323541
0.000117261
0.00325109
-7.46895e-05
0.00327636
-9.33631e-05
0.00327411
-6.63774e-05
0.00318353
1.25993e-05
0.00274001
0.000386669
0.00207899
0.000619745
0.0015009
0.000523239
0.00102112
0.000425565
0.000509856
0.00045216
-6.97079e-05
0.000514786
-0.000583811
0.000447323
-0.00128129
0.000623856
-0.00222916
0.000873185
-0.00336876
0.00107482
-0.00466683
0.00124272
-0.00602462
0.00129205
-0.00746825
0.00135096
-0.00903332
0.00147355
-0.0104723
0.00139632
-0.0117299
0.00127508
-0.012884
0.00113313
-0.0139142
0.000927945
-0.0147687
0.00071095
-0.0154873
0.000639735
-0.0159975
0.000451324
-0.0163344
0.00027441
-0.0164908
9.97323e-05
-0.0164893
-5.15454e-05
-0.0163727
-0.00016501
-0.0160887
-0.000330925
-0.0156993
-0.000435289
-0.0151898
-0.000554281
-0.0145767
-0.000656776
-0.0138757
-0.000743359
-0.0131148
-0.000802537
-0.0123341
-0.000821886
-0.0115379
-0.000837641
-0.0107445
-0.000836288
-0.00999628
-0.000792584
-0.00929215
-0.000747822
-0.00858669
-0.00074595
-0.0078713
-0.00075276
-0.00719883
-0.000707889
-0.00660795
-0.00062843
-0.00614503
-0.000487215
-0.00568321
-0.000495876
-0.00565407
-6.96688e-05
-0.00559009
-9.34632e-05
-0.0053578
-0.000262515
-0.00505691
-0.000328765
-0.00474075
-0.000346166
-0.00444522
-0.000328418
-0.00420952
-0.000267843
-0.00405277
-0.000185291
-0.00398538
-9.25428e-05
-0.00397022
-4.00828e-05
-0.00397266
-2.24359e-05
-0.00397469
-2.5566e-05
-0.00397465
-2.77792e-05
-0.00396861
-3.21302e-05
-0.00399319
2.54834e-06
-0.00402899
1.53425e-05
-0.00405624
6.64212e-06
-0.00410232
2.50967e-05
-0.00430511
0.000183283
-0.00441044
8.09943e-05
-0.00466565
0.000235557
-0.00495944
0.000276356
-0.00521224
0.000236718
-0.00536343
0.000136379
-0.00538893
1.01587e-05
-0.00538221
-1.94473e-05
-0.00529687
-9.78603e-05
-0.00516411
-0.00014493
-0.00511772
-5.7167e-05
-0.00523521
0.000106327
-0.00539663
0.000150555
-0.00555343
0.000148273
-0.00558033
1.92855e-05
-0.00557368
-1.38933e-05
-0.00552839
-5.22383e-05
-0.00536571
-0.000168644
-0.00517596
-0.000195079
-0.00504536
-0.000135597
-0.00501583
-3.39025e-05
-0.00494535
-7.43469e-05
-0.00483055
-0.000118171
-0.00472818
-0.000105505
-0.0047065
-2.51588e-05
-0.00479297
8.38571e-05
-0.00509011
0.000294969
-0.00539467
0.000302407
-0.00571638
0.000319271
-0.00618907
0.000470047
-0.00686966
0.000677982
-0.007652
0.000779423
-0.00848435
0.000829216
-0.00932762
0.000840022
-0.0101261
0.000794905
-0.0108625
0.00073297
-0.0115805
0.000714595
-0.0122543
0.00067021
-0.0128949
0.000637693
-0.0135661
0.000668344
-0.0141763
0.000608071
-0.0147128
0.000532214
-0.0151731
0.000456132
-0.0155294
0.000341444
-0.0157618
0.000240501
-0.0159286
0.000154442
-0.0160101
9.40264e-05
-0.016018
-1.72764e-05
-0.0159937
-3.44386e-05
-0.0158134
-0.000184667
-0.0154522
-0.000321722
-0.0149802
-0.000468408
-0.0145352
-0.000476653
-0.0140751
-0.000478346
-0.0136301
-0.000447559
-0.0130106
-0.000627955
-0.0121517
-0.000849653
-0.0112568
-0.000903294
-0.0104419
-0.000822775
-0.00973652
-0.000713419
-0.00912612
-0.000617441
-0.00855705
-0.000576362
-0.00798722
-0.000577661
-0.0073779
-0.000617025
-0.0067364
-0.000649365
-0.00611743
-0.000626932
-0.00555561
-0.000570287
-0.00508393
-0.000480782
-0.00472287
-0.000370259
-0.0044371
-0.000295614
-0.00418558
-0.000262009
-0.00397613
-0.000219905
-0.00379364
-0.000193835
-0.0036121
-0.000193359
-0.00340952
-0.000214834
-0.00313735
-0.000285251
-0.00284892
-0.000302198
-0.0026081
-0.000255908
-0.00244429
-0.000179244
-0.00235678
-0.000103809
-0.00229128
-8.24457e-05
-0.00222067
-8.82248e-05
-0.00213687
-0.000102268
-0.00208106
-7.42428e-05
-0.00203215
-6.74778e-05
-0.0018704
-0.000180687
-0.00168909
-0.000202564
-0.00152017
-0.000186352
-0.00135241
-0.000194243
-0.00117611
-0.000198682
-0.00103727
-0.000170211
-0.000957104
-0.000108972
-0.000970526
-6.80622e-06
-0.00100489
1.37095e-05
-0.0010964
6.83212e-05
-0.00139713
0.000276948
-0.00195064
0.000529808
-0.00266146
0.000686517
-0.00342533
0.00073961
-0.00426682
0.000817197
-0.00519329
0.000902371
-0.00611574
0.000898014
-0.00698405
0.00084385
-0.00781403
0.000805674
-0.00862269
0.000784467
-0.00936964
0.000722652
-0.0100501
0.000655986
-0.0106839
0.000609423
-0.0112973
0.000588804
-0.0119167
0.00059511
-0.0125115
0.000568815
-0.0131311
0.000596287
-0.0137509
0.000595855
-0.0143522
0.000578038
-0.0148737
0.000495764
-0.0152054
0.0003089
-0.0153093
8.21224e-05
-0.0155649
0.000235771
-0.0157579
0.000174857
-0.0158811
9.51372e-05
-0.0159051
-9.72695e-06
-0.0157621
-0.000178327
-0.0153759
-0.000397421
-0.0147785
-0.000558399
-0.0140761
-0.000721713
-0.0134194
-0.000727818
-0.0127675
-0.000698963
-0.0121127
-0.000661976
-0.011452
-0.000659443
-0.0107219
-0.000738397
-0.0100872
-0.000651391
-0.00945257
-0.000651637
-0.00879495
-0.000674802
-0.00813225
-0.00067852
-0.00746048
-0.000686349
-0.00679639
-0.000678754
-0.00619097
-0.000620268
-0.00569763
-0.000508495
-0.0053179
-0.00039409
-0.00502076
-0.000310722
-0.00478465
-0.000249589
-0.00460614
-0.000190967
-0.00443986
-0.000178469
-0.00425098
-0.000200724
-0.00407216
-0.000190159
-0.00393958
-0.000144065
-0.00386891
-8.14964e-05
-0.00383685
-4.25862e-05
-0.00383721
-9.83544e-06
-0.00386685
2.02065e-05
-0.00391672
4.10125e-05
-0.00398718
6.22838e-05
-0.00406212
6.7276e-05
-0.00414521
7.58068e-05
-0.00423931
8.71872e-05
-0.00434699
0.000101148
-0.00447022
0.000117124
-0.00460966
0.000133777
-0.00476514
0.000150348
-0.0049366
0.000166764
-0.00511391
0.000173051
-0.00528472
0.000166777
-0.00544113
0.000152607
-0.00557117
0.000126569
-0.00566706
9.30748e-05
-0.00572947
6.06103e-05
-0.00575223
2.27591e-05
-0.00575017
-3.14068e-06
-0.00573774
-1.08067e-05
-0.00570159
-3.58176e-05
-0.00566141
-4.18528e-05
-0.00563614
-2.80169e-05
-0.00562906
-6.95439e-06
-0.00564686
2.43515e-05
-0.00574164
0.00010538
-0.00577497
4.00938e-05
-0.00581078
3.91459e-05
-0.0058375
2.82517e-05
-0.0058424
5.59425e-06
-0.00583928
-3.14957e-06
-0.00584349
4.90881e-06
-0.00590869
6.65518e-05
-0.00607667
0.00016536
-0.00621035
0.0001301
-0.0062831
7.10546e-05
-0.00635095
6.94449e-05
-0.00644239
9.52124e-05
-0.00655495
0.000115543
-0.00666993
0.000114672
-0.00679861
0.000123913
-0.00695938
0.00015859
-0.00713436
0.000166425
-0.00731985
0.000173629
-0.00750064
0.000203236
-0.00766778
0.000180158
-0.00785412
0.000197849
-0.00805173
0.000204909
-0.00825781
0.000194908
-0.00846726
0.000211144
-0.00867614
0.000207007
-0.00886933
0.00019207
-0.0090668
0.000191731
-0.00925474
0.000184285
-0.00938927
0.000131025
-0.00947841
8.58493e-05
-0.00951048
2.9015e-05
-0.00949667
-1.70648e-05
-0.00943789
-6.24711e-05
-0.00936039
-8.17853e-05
-0.00924724
-0.00011724
-0.00904823
-0.000203327
-0.00877993
-0.000272908
-0.0084682
-0.000316339
-0.0081407
-0.000332366
-0.00781073
-0.000335088
-0.00749204
-0.000324082
-0.00719312
-0.000304497
-0.00691869
-0.000280198
-0.00667632
-0.000248326
-0.00645672
-0.000225844
-0.00624871
-0.000214573
-0.00605498
-0.000200661
-0.00582665
-0.000234962
-0.00556431
-0.000268728
-0.00531653
-0.00025548
-0.00512524
-0.000198142
-0.00497553
-0.00015687
-0.00483623
-0.000146644
-0.00470082
-0.000143283
-0.0045882
-0.000121163
-0.00452011
-7.67777e-05
-0.00450704
-2.17713e-05
-0.00451585
-1.47308e-06
-0.00453596
1.17219e-05
-0.00452923
-1.48829e-05
-0.00449315
-4.41942e-05
-0.00444488
-5.60816e-05
-0.00440619
-4.65888e-05
-0.00439027
-2.52479e-05
-0.00439347
-5.32568e-06
-0.0044257
2.28718e-05
-0.0045158
8.16959e-05
-0.00462794
0.000102168
-0.00471375
7.6764e-05
-0.0047657
4.25298e-05
-0.00480439
2.96424e-05
-0.00483247
1.85928e-05
-0.00486712
2.48956e-05
-0.00492538
4.88638e-05
-0.00499811
6.42608e-05
-0.00505926
5.28475e-05
-0.00514332
7.44526e-05
-0.00526865
0.00011373
-0.00542204
0.000141556
-0.00559984
0.000168852
-0.0057851
0.000182577
-0.00592287
0.000137437
-0.00602259
9.36171e-05
-0.00610226
6.33484e-05
-0.00617734
3.71303e-05
-0.00629477
9.29833e-05
-0.00648698
0.000243348
-0.0069354
0.000464307
-0.00752367
0.000600441
-0.00807462
0.000536369
-0.00857143
0.000459697
-0.00895909
0.000377157
-0.00924918
0.000277717
-0.00944592
0.000186535
-0.00954914
0.00010498
-0.00956954
1.7823e-05
-0.00956901
-3.17777e-06
-0.00947081
-0.000100891
-0.00925375
-0.000218813
-0.00902867
-0.000226345
-0.000125999
-0.000221736
-0.000151649
-0.000454005
-0.000119983
-0.000750266
2.23012e-05
-0.00110171
0.000103944
-0.00147713
0.000112985
-0.00188621
0.000116805
-0.00229955
0.000106297
-0.00270797
0.000117859
-0.00311847
0.000147705
-0.00353227
0.000161358
-0.00394342
0.00015157
-0.00435439
0.000138573
-0.00477612
0.000138057
-0.00521631
0.000144984
-0.00567431
0.000161092
-0.00611613
0.000146346
-0.0064671
2.17957e-05
-0.00670526
-0.000198393
-0.00676414
-0.00030749
-0.00680097
-0.00038482
-0.00697748
-0.000129302
-0.00734664
-6.05503e-05
-0.00764489
5.67617e-05
-0.00788404
2.02956e-06
-0.00806551
-0.000247494
-0.00833479
-0.000155001
-0.00846779
-0.000239408
-0.00874215
-1.19056e-05
-0.00930525
0.000130697
-0.00984972
0.00027551
-0.0103626
0.000408589
-0.0109059
0.000546507
-0.0114784
0.000542327
-0.0122196
0.000482323
-0.0130127
0.000491778
-0.0139547
0.000768387
-0.0149397
0.000829455
-0.0157776
0.000715037
-0.0163641
0.000612893
-0.016726
0.000501032
-0.0170698
0.00058535
-0.0175874
0.00056685
-0.0183925
0.000739873
-0.0192205
0.000708667
-0.0201341
0.00098595
-0.0207335
0.000604433
-0.0209498
0.000268962
-0.0210817
1.91429e-05
-0.0213503
4.45468e-05
-0.0216952
0.00025045
-0.0219259
0.000125186
-0.0220184
0.000303714
-0.0223249
-2.47967e-06
-0.0227145
-0.00012537
-0.0231136
-0.000207683
-0.0234157
-0.000141255
-0.0232592
-0.00032359
-0.0232177
-0.000330943
-0.0232689
-0.000188275
-0.0234345
1.47867e-05
-0.0236101
9.03776e-05
-0.0240162
0.000218485
-0.0246421
0.000386049
-0.0252999
0.000509516
-0.0259251
0.000601343
-0.0264639
0.000513175
-0.0269314
0.000386004
-0.0273313
0.00034788
-0.027664
0.000391285
-0.0279912
0.000571008
-0.02905
0.00110907
-0.0305604
0.0016225
-0.0319144
0.00170722
-0.0325337
0.000941199
-0.0325118
0.000385981
-0.032458
0.000316813
-0.0324885
0.000337853
-0.0326342
0.00025578
-0.0328027
2.04526e-05
-0.0327477
-0.000310905
-0.0324787
-0.000657912
-0.0320778
-0.000836485
-0.0315247
-0.00093638
-0.0308335
-0.000904085
-0.0300769
-0.000839796
-0.0296505
-0.000469058
-0.0300935
0.0001787
-0.0305195
-0.000241414
-0.0303233
-0.000896102
-0.0299273
-0.000936324
-0.0294498
-0.000631342
-0.0294024
-0.000249804
-0.0298869
0.000333762
-0.0305855
0.000469461
-0.0311058
0.000312768
-0.0316536
0.000532243
-0.0322895
0.000783099
-0.0329907
0.0009693
-0.0337839
0.00115299
-0.0346659
0.0013206
-0.0356404
0.00148361
-0.0367108
0.00165848
-0.0378952
0.00188555
-0.0391434
0.00203131
-0.0403676
0.00205386
-0.0414459
0.00191673
-0.0423024
0.00171953
-0.0428717
0.00142257
-0.0431067
0.000983741
-0.042986
0.000423975
-0.0423726
-0.000184489
-0.0416403
-0.000342313
-0.0408364
-0.000527626
-0.0399148
-0.000793684
-0.0389585
-0.000870082
-0.0378837
-0.00111715
-0.0366511
-0.00151263
-0.0353093
-0.00190548
-0.0338202
-0.00226602
-0.0321558
-0.00260048
-0.0302975
-0.00289261
-0.0282512
-0.00312451
-0.0260278
-0.00332468
-0.0236327
-0.00352749
-0.0211526
-0.00365229
-0.0187442
-0.00365398
-0.0165356
-0.00352762
-0.01459
-0.0033545
-0.012814
-0.00326826
-0.0111239
-0.00321995
-0.00946699
-0.00320636
-0.00779733
-0.0032681
-0.00613612
-0.00331258
-0.00432001
-0.00347977
-0.00197436
-0.00397891
0.0007028
-0.00412575
0.00349533
-0.0041587
0.0064007
-0.00419475
0.00930647
-0.00416469
0.0120793
-0.00398716
0.0146917
-0.00381295
0.0171193
-0.00361152
0.0192652
-0.00319563
0.0211255
-0.00277156
0.0226762
-0.00235915
0.0238647
-0.00184986
0.0246407
-0.00109884
0.0249313
-0.000406002
0.0249487
6.00702e-05
0.0248671
0.000278234
0.0244321
0.000742382
0.0236605
0.00117203
0.022661
0.00146641
0.02158
0.00155103
0.0204453
0.00163685
0.0192258
0.00175516
0.0178217
0.00196377
0.0162049
0.00207011
0.0143178
0.00220401
0.0123356
0.00204356
0.0104067
0.00179625
0.00826939
0.00198237
0.00610242
0.00203509
0.00419605
0.0018561
0.00282913
0.00166169
0.00200089
0.0013372
0.00142792
0.000990571
0.000850577
0.000919482
0.000190469
0.00104488
-0.000623794
0.00125363
-0.00198332
0.00174826
-0.00368792
0.00224999
-0.00549102
0.00259803
-0.00730903
0.0028252
-0.00915686
0.00304106
-0.0109794
0.00307007
-0.0128579
0.00315347
-0.0148116
0.00330117
-0.0164754
0.0029414
-0.0175888
0.00235783
-0.018431
0.002101
-0.0191981
0.00175613
-0.0198581
0.00121274
-0.0202067
0.000864535
-0.0203809
0.000576385
-0.0204238
0.000248345
-0.0203368
-4.75678e-05
-0.0201254
-0.000313949
-0.0198052
-0.000534966
-0.0193698
-0.00081469
-0.0188275
-0.00102405
-0.0181856
-0.00124084
-0.0174522
-0.00143304
-0.0166389
-0.0015979
-0.0157586
-0.00172264
-0.0148361
-0.00178334
-0.0138831
-0.00182946
-0.0129114
-0.00184735
-0.0119459
-0.00179801
-0.0110029
-0.00172994
-0.0100741
-0.00171111
-0.00915299
-0.00170715
-0.00825494
-0.00163742
-0.00739453
-0.00152344
-0.00657417
-0.00134235
-0.00578835
-0.00131834
-0.0045497
-0.00133791
-0.0034788
-0.00119689
-0.00273788
-0.00103257
-0.00221392
-0.000880557
-0.00181775
-0.000770235
-0.00150571
-0.000669275
-0.00127481
-0.000526761
-0.00113651
-0.000349034
-0.00109948
-0.000152152
-0.00112686
-3.45541e-05
-0.00123695
6.46943e-05
-0.00141395
0.000126788
-0.00165535
0.000188713
-0.0019531
0.000241529
-0.00237376
0.000401229
-0.0029342
0.000555364
-0.00360351
0.000656182
-0.00420918
0.00060775
-0.00453579
0.000493269
-0.00483653
0.000362284
-0.00515799
0.000540367
-0.005478
0.000579997
-0.00579143
0.000534377
-0.00609003
0.000419447
-0.00636003
0.000264765
-0.00658254
0.000189311
-0.0067646
7.19086e-05
-0.00688177
-3.44388e-05
-0.00698409
3.54496e-05
-0.00716779
0.000287631
-0.00756979
0.000543593
-0.00802125
0.000594093
-0.00845127
0.000442986
-0.00883076
0.000358554
-0.00914136
0.000252198
-0.00940843
9.2859e-05
-0.00965636
4.79022e-05
-0.00989412
9.76161e-05
-0.010141
0.000209167
-0.010428
0.000209136
-0.0107045
0.000155252
-0.010988
0.000175255
-0.0113559
0.000339816
-0.0119007
0.000626383
-0.0126689
0.00106112
-0.0136586
0.00128991
-0.0147457
0.00140412
-0.0159035
0.00162525
-0.017129
0.00190091
-0.0183626
0.00201003
-0.0196101
0.00207358
-0.0208607
0.00208707
-0.0220546
0.00198504
-0.0231603
0.00183507
-0.0241745
0.00172545
-0.0250337
0.00152596
-0.0257221
0.00132416
-0.02621
0.00115531
-0.0264872
0.000881469
-0.0266261
0.000666009
-0.0266649
0.000485182
-0.0264846
0.000151766
-0.0262523
9.09931e-05
-0.025772
-0.000274521
-0.0254294
-0.000277803
-0.0248418
-0.000574904
-0.0242715
-0.000738972
-0.0235977
-0.000927025
-0.0228544
-0.00104877
-0.0218031
-0.00133116
-0.020546
-0.00172414
-0.0192366
-0.00187459
-0.0176398
-0.00207198
-0.0160512
-0.00219868
-0.0152709
-0.00166109
-0.0146269
-0.00156337
-0.0139155
-0.00154977
-0.0131615
-0.00147774
-0.0124001
-0.00138833
-0.0116441
-0.00134225
-0.0109044
-0.00132765
-0.0101816
-0.00134998
-0.00947783
-0.00136322
-0.00880675
-0.00130815
-0.00817418
-0.00121306
-0.00759248
-0.00107283
-0.00707406
-0.000898962
-0.00661011
-0.000769974
-0.00619197
-0.00069075
-0.00582819
-0.00059432
-0.00551222
-0.000520777
-0.0052383
-0.000478588
-0.00500748
-0.000457384
-0.00479323
-0.000511728
-0.00460669
-0.000501375
-0.00445364
-0.000422744
-0.00434282
-0.000304344
-0.00427198
-0.000189794
-0.00421808
-0.000152278
-0.00417086
-0.000151884
-0.00412787
-0.000162896
-0.00409702
-0.000122758
-0.0041357
-4.67037e-05
-0.00418756
-0.000148492
-0.00427896
-0.000128357
-0.00440529
-8.80702e-05
-0.00452437
-8.92623e-05
-0.00465517
-8.87031e-05
-0.00481577
-1.07479e-05
-0.00504796
0.000123368
-0.00551564
0.000431935
-0.00631686
0.000789929
-0.0074624
0.00119278
-0.00881155
0.00160202
-0.0101285
0.00182247
-0.0113408
0.00187469
-0.0124947
0.00186896
-0.0136943
0.00199216
-0.0149722
0.0021558
-0.0162579
0.00215871
-0.017517
0.00207797
-0.0187674
0.00203105
-0.0200164
0.00200805
-0.0212121
0.00189302
-0.0223242
0.00174288
-0.0233314
0.00159154
-0.0242193
0.00145147
-0.0249667
0.00131854
-0.0255439
0.00112231
-0.0259779
0.00100611
-0.0262223
0.000817345
-0.026289
0.000621445
-0.0262857
0.00047624
-0.0261315
0.000123266
-0.0259698
-0.00010151
-0.0256774
-8.14522e-05
-0.0252241
-0.000267004
-0.0246901
-0.000399044
-0.0240683
-0.000652436
-0.0233602
-0.00102922
-0.0225875
-0.00127661
-0.0216449
-0.00142843
-0.0204243
-0.00171712
-0.0191051
-0.00208124
-0.0178059
-0.00216378
-0.0163517
-0.00218718
-0.0149475
-0.00201773
-0.0143058
-0.00136829
-0.0137372
-0.00122897
-0.0131035
-0.00130222
-0.0124272
-0.00136749
-0.0117362
-0.00138459
-0.0110446
-0.00139196
-0.010363
-0.00137409
-0.00971016
-0.00128663
-0.00910717
-0.0011251
-0.00856414
-0.000950117
-0.00807691
-0.000810075
-0.00764448
-0.000693672
-0.00727825
-0.000568271
-0.00696618
-0.000501291
-0.00669639
-0.000481016
-0.00647691
-0.000419712
-0.00631027
-0.000320891
-0.00619807
-0.000203381
-0.0061331
-0.000116922
-0.00611748
-3.45039e-05
-0.00614216
3.66242e-05
-0.00620655
9.75401e-05
-0.00630313
0.00015157
-0.00642968
0.000186903
-0.00658248
0.000222032
-0.0067597
0.000258144
-0.00695854
0.000294006
-0.00717615
0.000329087
-0.00740934
0.000361685
-0.00765495
0.000391119
-0.00791059
0.000417954
-0.00817136
0.000429743
-0.00843198
0.000423549
-0.00868927
0.000406215
-0.00893786
0.000371663
-0.009174
0.00032619
-0.0093967
0.000281259
-0.00960281
0.000228608
-0.00978948
0.00018475
-0.00995838
0.000161016
-0.0101052
0.000113942
-0.0102308
8.47431e-05
-0.0103337
7.23806e-05
-0.0104051
5.8988e-05
-0.0104442
6.01626e-05
-0.0105015
0.00027677
-0.0107163
0.000255712
-0.0109652
0.000286667
-0.0111993
0.000262539
-0.0114217
0.000226321
-0.0116246
0.000199729
-0.0118326
0.000214508
-0.012068
0.000306167
-0.0123501
0.000448626
-0.0126211
0.000400457
-0.0128536
0.000301737
-0.013085
0.00029926
-0.0133194
0.000332072
-0.0135465
0.000345291
-0.0137576
0.000328542
-0.0139604
0.000329379
-0.0141742
0.000359856
-0.014373
0.000362332
-0.0145841
0.000384489
-0.0148237
0.000235821
-0.0149019
0.000262724
-0.0149656
0.000361367
-0.0150851
0.000295057
-0.0151522
0.00028914
-0.0152019
0.000252593
-0.015204
0.000208902
-0.0151427
0.000130517
-0.0151104
0.000126467
-0.0150801
0.000149176
-0.0150126
5.94023e-05
-0.0149051
-2.54509e-05
-0.0147619
-0.000117981
-0.0145691
-0.00021396
-0.0143384
-0.000297551
-0.0140773
-0.000347712
-0.0137949
-0.000404583
-0.0134755
-0.000527786
-0.013128
-0.000625685
-0.0127595
-0.000690102
-0.012378
-0.000719342
-0.0119891
-0.000729512
-0.0115996
-0.000719387
-0.0112156
-0.00069444
-0.010842
-0.000659779
-0.0104867
-0.000609729
-0.0101519
-0.000566901
-0.00983769
-0.000535337
-0.00955252
-0.00049264
-0.00928018
-0.000514167
-0.0090213
-0.000534198
-0.00878001
-0.000504105
-0.00857239
-0.000412487
-0.00839666
-0.00033947
-0.00824611
-0.000304242
-0.00812042
-0.000276308
-0.00802124
-0.000228053
-0.00795058
-0.000154931
-0.00790676
-7.35189e-05
-0.00789974
-1.5853e-05
-0.00790445
9.11673e-06
-0.00791223
-1.41846e-05
-0.00792328
-4.01449e-05
-0.00793235
-5.4827e-05
-0.00794225
-4.43757e-05
-0.00795188
-2.37414e-05
-0.00795785
-7.36414e-06
-0.00795537
1.17401e-05
-0.00795386
7.13951e-05
-0.00816961
0.000309188
-0.00844636
0.0003439
-0.00873713
0.000324449
-0.00902637
0.000310146
-0.00931056
0.000293801
-0.00960006
0.000305232
-0.00990636
0.0003463
-0.010225
0.000374756
-0.0105363
0.000356391
-0.0108644
0.000394141
-0.0112203
0.000459408
-0.0115926
0.000502311
-0.0119868
0.000553522
-0.0124058
0.000597254
-0.0128127
0.000545857
-0.0132073
0.000490961
-0.0135997
0.000446969
-0.0140072
0.000421413
-0.0144613
0.000518048
-0.014961
0.000706485
-0.0153113
0.000879175
-0.0156868
0.00115291
-0.0161543
0.000961624
-0.0165251
0.000857209
-0.0168623
0.000682297
-0.0171129
0.000507924
-0.0172864
0.000359371
-0.0173265
9.98627e-05
-0.0172851
-1.17427e-05
-0.0170755
-0.000229807
-0.0166384
-0.000538534
-0.0160945
-0.000764192
-0.0155871
-0.00073373
-0.000322397
-0.000278572
-0.000128618
-0.000601272
-5.28313e-05
-0.000943847
0.000108931
-0.00130982
0.000214457
-0.00167843
0.000225922
-0.00206209
0.000244977
-0.00247338
0.000261927
-0.00290643
0.000295327
-0.00335033
0.000336374
-0.00379343
0.000349613
-0.00422178
0.000325535
-0.00463646
0.000299542
-0.00506631
0.000315117
-0.005551
0.000378167
-0.00608321
0.000442576
-0.00659817
0.000411242
-0.00703945
0.000213847
-0.0074449
-4.10561e-05
-0.00783653
-0.000162917
-0.00821577
-0.000252198
-0.00853465
-5.57184e-05
-0.00876332
-7.66119e-05
-0.0089315
-1.87244e-05
-0.00917573
3.5746e-06
-0.00964693
-1.7796e-05
-0.0101417
0.000102589
-0.0106929
6.81465e-05
-0.011269
0.000324785
-0.0118835
0.000509588
-0.0124887
0.000648907
-0.0130147
0.00070458
-0.013448
0.000752261
-0.0138465
0.000715869
-0.0143922
0.000804793
-0.015132
0.0010093
-0.0159456
0.00136313
-0.0169841
0.00165214
-0.0181396
0.00165743
-0.0191598
0.00142218
-0.0200332
0.00116737
-0.0207902
0.00113771
-0.0212696
0.000848046
-0.0218483
0.0011224
-0.0226603
0.00132595
-0.0233695
0.00150786
-0.024171
0.00121901
-0.024743
0.000653669
-0.0249698
6.47618e-05
-0.0253989
0.000291862
-0.0257493
0.000426841
-0.025887
9.41718e-05
-0.0261101
0.000360862
-0.0264461
0.000168447
-0.0268563
0.000124434
-0.0271988
-2.25403e-05
-0.0274047
-9.01369e-05
-0.0275911
-0.000286306
-0.0279269
-0.00013817
-0.0282178
-3.54549e-05
-0.0284181
7.9416e-05
-0.0290773
0.000617504
-0.0299039
0.000917598
-0.0307716
0.00112939
-0.031557
0.00117375
-0.0321636
0.00108952
-0.0326143
0.000848899
-0.033021
0.000681203
-0.0334566
0.000675116
-0.0339163
0.000745656
-0.0344052
0.000961302
-0.0351687
0.0017774
-0.0360353
0.00239524
-0.0367771
0.00236327
-0.0374946
0.00157776
-0.0379542
0.000769731
-0.038249
0.000538356
-0.0384354
0.000457207
-0.0385248
0.000282376
-0.0385873
2.58958e-05
-0.0386066
-0.000346019
-0.0386285
-0.000688066
-0.0386608
-0.000853447
-0.0386852
-0.000956515
-0.0388229
-0.000810288
-0.0391252
-0.000578906
-0.0393222
-0.000311055
-0.0391252
-5.17726e-05
-0.0389052
-0.000493683
-0.0389585
-0.000877254
-0.0390953
-0.00082918
-0.0393227
-0.000436706
-0.0395956
-9.53137e-06
-0.0397693
0.000477265
-0.039912
0.000582405
-0.0401302
0.000503037
-0.0405145
0.000891029
-0.0407648
0.00101036
-0.0410193
0.00120125
-0.0412964
0.00140895
-0.0415928
0.00159688
-0.0419035
0.0017752
-0.0422111
0.00194771
-0.0425143
0.00217074
-0.0427979
0.00229761
-0.043031
0.00227046
-0.0431972
0.0020663
-0.0432894
0.00179483
-0.0433142
0.00142991
-0.0432779
0.000929653
-0.0430845
0.000211944
-0.0426369
-0.0006516
-0.0419804
-0.00101799
-0.0412009
-0.00132624
-0.0402947
-0.00171867
-0.0393386
-0.00184565
-0.038267
-0.00220818
-0.0370337
-0.00276392
-0.0356769
-0.00327858
-0.0341624
-0.00379803
-0.0324386
-0.00434365
-0.0304179
-0.00493166
-0.0279927
-0.00556655
-0.0251557
-0.00618067
-0.0220424
-0.00666268
-0.0188303
-0.0068879
-0.0156467
-0.00686165
-0.0125608
-0.00663915
-0.00960786
-0.00633501
-0.00675181
-0.00615275
-0.00393913
-0.00606227
-0.00114225
-0.00603391
0.00171528
-0.00615677
0.00472198
-0.00635123
0.00785198
-0.00664205
0.0110229
-0.0071845
0.0142668
-0.00740313
0.0174993
-0.00742846
0.0206626
-0.00739752
0.023731
-0.00727458
0.0266788
-0.00697801
0.0295326
-0.00671136
0.0322391
-0.00636437
0.0345939
-0.00559998
0.0363862
-0.00461778
0.0375837
-0.00361255
0.038415
-0.00273584
0.0390831
-0.00182411
0.0395331
-0.000915655
0.039877
-0.000343532
0.0401097
-1.33512e-05
0.040147
0.00064395
0.0400195
0.00123722
0.0396652
0.00175709
0.0389174
0.00223398
0.0376181
0.00287089
0.0356352
0.00367421
0.0329319
0.00460363
0.0297487
0.00519267
0.0263503
0.00554247
0.0231522
0.00517951
0.020554
0.00433574
0.0188047
0.00367539
0.0175335
0.00325324
0.0162409
0.00308588
0.0144162
0.00341689
0.0118518
0.0038389
0.00896873
0.00382385
0.00615579
0.00366331
0.00343405
0.00368946
0.000744587
0.00386999
-0.0016854
0.00410212
-0.00369738
0.00418796
-0.00553026
0.00435681
-0.00735312
0.00456756
-0.00923467
0.00483635
-0.0111139
0.00487088
-0.0130455
0.00504413
-0.0149016
0.00514298
-0.0163944
0.00437131
-0.0175807
0.0033509
-0.0185781
0.00285925
-0.0191839
0.00227053
-0.0196894
0.00183066
-0.0201197
0.00132194
-0.0203564
0.000742781
-0.0202261
6.64787e-05
-0.0196955
-0.000623196
-0.0188678
-0.00119441
-0.0178139
-0.00163989
-0.0165555
-0.00212043
-0.0151777
-0.0024458
-0.0137395
-0.00272128
-0.0122849
-0.00292852
-0.0108321
-0.00308996
-0.00938287
-0.00320964
-0.00796075
-0.00324221
-0.0065619
-0.00326379
-0.00516142
-0.00328256
-0.00378867
-0.00320598
-0.00247088
-0.00308307
-0.00115973
-0.00305623
0.000187924
-0.00308751
0.00153575
-0.00301467
0.00287556
-0.00288895
0.00423147
-0.00271825
0.00549237
-0.00259592
0.00653364
-0.00239998
0.00743253
-0.00211849
0.00820262
-0.00182975
0.00881681
-0.00152302
0.00921081
-0.00119223
0.00938806
-0.00087318
0.00940573
-0.000569374
0.00929805
-0.000262332
0.00908986
3.68294e-05
0.008771
0.000265955
0.00837878
0.00043792
0.00798291
0.000502401
0.00760096
0.000549247
0.00719077
0.000630158
0.00667647
0.000894969
0.00605453
0.00115842
0.00535493
0.00133732
0.00454815
0.00139739
0.0036263
0.00139695
0.00265225
0.00131748
0.00166028
0.00151477
0.000653642
0.00156977
-0.000379917
0.00155197
-0.00143147
0.00145562
-0.00246111
0.00128037
-0.00344897
0.00116296
-0.00445697
0.00106629
-0.0055509
0.00104634
-0.00663709
0.00111014
-0.00740833
0.00103555
-0.00791083
0.0010351
-0.00839319
0.00106686
-0.00887132
0.000912629
-0.00932743
0.000806948
-0.00975829
0.00067665
-0.0101677
0.00049666
-0.0105686
0.000443861
-0.0109656
0.000490314
-0.0113783
0.000618204