/*--------------------------------*- C++ -*----------------------------------*\
| =========                 |                                                 |
| \\      /  F ield         | OpenFOAM: The Open Source CFD Toolbox           |
|  \\    /   O peration     | Version:  v1812                                 |
|   \\  /    A nd           | Web:      www.OpenFOAM.com                      |
|    \\/     M anipulation  |                                                 |
\*---------------------------------------------------------------------------*/
FoamFile
{
    version     2.0;
    format      ascii;
    class       volScalarField;
    location    "1.5";
    object      T;
}
// * * * * * * * * * * * * * * * * * * * * * * * * * * * * * * * * * * * * * //

dimensions      [0 0 0 1 0 0 0];


internalField   nonuniform List<scalar> 
20400
(
289.762
289.763
289.766
289.771
289.779
289.789
289.803
289.822
289.846
289.876
289.913
289.955
290.003
290.056
290.115
290.177
290.243
290.313
290.385
290.459
290.534
290.612
290.689
290.766
290.841
290.917
290.989
291.055
291.122
291.185
291.245
291.3
291.35
291.403
291.443
291.487
291.528
291.57
291.61
291.652
291.693
291.722
291.778
291.807
291.848
291.882
291.918
291.945
291.974
292.009
292.028
292.047
292.068
292.084
292.092
292.097
292.101
292.108
292.105
292.102
292.11
292.117
292.122
292.127
292.131
292.134
292.133
292.127
292.117
292.088
292.067
292.013
291.955
291.895
291.841
291.796
291.754
291.726
291.707
291.703
291.71
291.727
291.756
291.795
291.843
291.9
291.969
292.035
292.092
292.147
292.198
292.237
292.269
292.309
292.327
292.343
292.354
292.359
292.36
292.361
292.36
292.36
292.36
292.361
292.361
292.362
292.359
292.356
292.35
292.348
292.347
292.344
292.343
292.344
292.339
292.336
292.335
292.327
292.32
292.314
292.307
292.3
292.294
292.288
292.282
292.277
292.271
292.265
292.258
292.248
292.237
292.226
292.215
292.203
292.195
292.18
292.161
292.142
292.122
292.099
292.074
292.049
292.018
291.986
291.953
291.916
291.875
291.831
291.784
291.737
291.691
291.646
291.6
291.558
291.518
291.483
291.45
291.422
291.396
291.374
291.359
291.346
291.34
291.342
291.337
291.34
291.346
291.33
291.325
291.318
291.317
291.312
291.306
291.302
291.297
291.296
291.298
291.301
291.306
291.313
291.321
291.314
291.312
291.32
291.333
291.335
291.343
291.35
291.357
291.365
291.372
291.38
291.389
291.399
291.41
291.422
291.435
291.45
291.466
291.484
291.505
291.528
291.552
291.579
291.607
291.643
291.665
291.697
291.73
291.765
291.804
291.844
291.885
291.928
291.969
292.01
292.049
292.085
292.119
292.15
292.176
292.2
292.216
292.227
292.25
292.248
292.265
292.261
292.253
292.243
292.247
292.225
292.222
292.212
292.201
292.187
292.177
292.165
292.156
292.149
292.144
292.138
292.134
292.131
292.129
292.127
292.126
292.125
292.123
292.117
292.113
292.113
292.112
292.107
292.099
292.091
292.082
292.073
292.065
292.058
292.049
292.043
292.038
292.035
292.033
292.034
292.035
292.037
292.03
292.029
292.032
292.034
292.039
292.055
292.067
292.085
292.097
292.11
292.127
292.139
292.157
292.167
292.177
292.186
292.191
292.194
292.195
292.194
292.19
292.182
292.172
292.158
292.142
292.125
292.109
292.091
292.075
292.06
292.046
292.036
292.029
292.025
292.024
292.025
292.03
292.038
292.046
292.056
292.068
292.077
292.088
292.098
292.107
292.119
292.127
292.131
292.139
292.143
292.149
292.157
292.165
292.173
292.182
292.19
292.196
292.201
292.207
292.213
292.219
292.226
292.233
292.24
292.247
292.255
292.267
292.28
292.293
292.303
292.312
292.318
292.32
292.331
292.348
292.359
292.375
292.392
292.409
292.431
292.454
292.471
292.488
292.511
292.533
292.558
292.576
292.598
292.621
292.644
292.668
292.693
292.718
292.743
292.768
292.795
292.822
292.848
292.876
292.905
292.933
292.961
292.99
293.019
293.048
293.077
293.105
293.133
293.162
293.19
293.218
293.246
293.274
293.3
293.325
293.348
293.369
293.387
293.403
293.416
293.429
293.44
293.446
293.461
293.462
293.47
293.475
293.477
293.478
293.478
293.476
293.474
293.469
293.468
293.465
293.463
293.46
293.454
293.447
293.438
293.433
293.431
293.426
293.416
293.413
293.41
293.403
293.397
293.396
293.386
293.383
293.381
293.376
293.375
293.369
293.366
293.365
293.364
293.363
293.363
293.364
293.365
293.367
293.369
293.372
293.375
293.379
293.383
293.387
293.391
293.394
293.397
293.399
293.401
293.402
293.403
293.403
293.403
293.403
293.402
293.401
293.398
293.396
293.392
293.389
293.384
293.379
293.375
293.368
293.363
293.358
293.353
293.348
293.342
293.338
293.333
293.329
293.324
293.319
293.318
293.316
293.315
293.315
293.316
293.317
293.319
293.322
293.327
293.331
293.335
293.34
293.344
293.351
293.36
293.37
293.381
293.397
293.415
293.432
293.438
293.438
293.451
293.463
293.471
293.472
293.475
293.485
293.502
293.521
293.544
293.567
293.587
289.754
289.756
289.76
289.767
289.776
289.788
289.806
289.828
289.855
289.888
289.927
289.973
290.024
290.082
290.144
290.212
290.284
290.357
290.433
290.511
290.589
290.668
290.749
290.829
290.901
290.979
291.051
291.112
291.179
291.24
291.297
291.348
291.395
291.44
291.485
291.528
291.57
291.613
291.657
291.697
291.735
291.774
291.814
291.851
291.891
291.921
291.96
291.982
292.002
292.031
292.046
292.062
292.076
292.085
292.086
292.085
292.095
292.094
292.091
292.083
292.09
292.086
292.082
292.081
292.076
292.07
292.059
292.045
292.022
291.976
291.932
291.881
291.824
291.776
291.747
291.727
291.715
291.716
291.734
291.767
291.801
291.841
291.887
291.936
291.996
292.063
292.112
292.187
292.247
292.287
292.318
292.33
292.334
292.352
292.364
292.372
292.372
292.372
292.368
292.365
292.36
292.357
292.353
292.347
292.337
292.324
292.31
292.298
292.289
292.292
292.294
292.291
292.291
292.293
292.288
292.284
292.281
292.278
292.276
292.276
292.276
292.276
292.277
292.279
292.281
292.281
292.278
292.271
292.263
292.252
292.24
292.228
292.214
292.2
292.194
292.182
292.17
292.158
292.142
292.124
292.104
292.084
292.062
292.041
292.02
292
291.98
291.956
291.928
291.894
291.856
291.816
291.772
291.729
291.683
291.637
291.59
291.549
291.507
291.466
291.425
291.385
291.359
291.343
291.337
291.337
291.339
291.354
291.361
291.375
291.373
291.378
291.382
291.388
291.394
291.405
291.416
291.428
291.471
291.512
291.498
291.505
291.56
291.594
291.589
291.616
291.635
291.652
291.666
291.678
291.686
291.692
291.696
291.697
291.697
291.696
291.694
291.692
291.689
291.688
291.688
291.689
291.691
291.695
291.702
291.707
291.738
291.75
291.764
291.78
291.798
291.817
291.838
291.864
291.891
291.92
291.951
291.983
292.016
292.048
292.077
292.104
292.132
292.151
292.164
292.183
292.183
292.194
292.202
292.211
292.218
292.216
292.217
292.21
292.202
292.185
292.173
292.158
292.144
292.129
292.114
292.099
292.087
292.076
292.067
292.06
292.054
292.049
292.043
292.036
292.029
292.023
292.016
292.007
291.994
291.981
291.966
291.95
291.932
291.913
291.894
291.875
291.852
291.836
291.826
291.809
291.792
291.784
291.772
291.751
291.743
291.737
291.735
291.732
291.743
291.774
291.786
291.791
291.814
291.851
291.864
291.89
291.92
291.949
291.978
292.006
292.032
292.057
292.081
292.102
292.119
292.129
292.133
292.13
292.124
292.114
292.102
292.088
292.074
292.059
292.044
292.033
292.026
292.023
292.026
292.031
292.04
292.047
292.061
292.073
292.084
292.097
292.107
292.115
292.127
292.138
292.144
292.15
292.157
292.165
292.174
292.183
292.191
292.198
292.202
292.208
292.215
292.222
292.228
292.235
292.24
292.246
292.252
292.26
292.271
292.281
292.29
292.296
292.307
292.325
292.34
292.35
292.354
292.367
292.385
292.41
292.423
292.449
292.483
292.498
292.496
292.508
292.535
292.538
292.553
292.565
292.579
292.594
292.61
292.627
292.647
292.668
292.689
292.712
292.736
292.76
292.785
292.812
292.839
292.868
292.896
292.925
292.955
292.984
293.014
293.045
293.075
293.106
293.137
293.168
293.199
293.229
293.259
293.286
293.311
293.333
293.353
293.371
293.387
293.401
293.414
293.427
293.435
293.443
293.448
293.451
293.452
293.449
293.433
293.443
293.451
293.437
293.431
293.423
293.411
293.394
293.393
293.389
293.388
293.384
293.373
293.381
293.367
293.357
293.355
293.346
293.333
293.328
293.32
293.301
293.294
293.275
293.28
293.278
293.274
293.271
293.269
293.267
293.266
293.266
293.267
293.269
293.272
293.277
293.283
293.29
293.298
293.306
293.314
293.321
293.328
293.334
293.34
293.345
293.351
293.357
293.362
293.366
293.37
293.372
293.372
293.372
293.371
293.369
293.366
293.362
293.357
293.352
293.346
293.339
293.332
293.324
293.316
293.308
293.301
293.293
293.287
293.282
293.277
293.274
293.269
293.265
293.263
293.262
293.263
293.262
293.26
293.259
293.26
293.262
293.272
293.285
293.304
293.331
293.355
293.36
293.326
293.312
293.337
293.325
293.33
293.325
293.341
293.353
293.355
293.369
293.388
293.407
293.434
293.462
289.74
289.743
289.751
289.76
289.773
289.79
289.812
289.839
289.871
289.91
289.955
290.006
290.063
290.125
290.193
290.267
290.346
290.428
290.513
290.594
290.676
290.759
290.841
290.922
290.995
291.068
291.136
291.201
291.261
291.317
291.369
291.417
291.461
291.501
291.541
291.583
291.626
291.671
291.718
291.761
291.803
291.841
291.883
291.922
291.953
291.982
292.01
292.027
292.048
292.06
292.074
292.089
292.09
292.091
292.09
292.085
292.074
292.072
292.065
292.05
292.041
292.032
292.022
292.009
291.994
291.977
291.954
291.926
291.893
291.85
291.81
291.775
291.741
291.722
291.721
291.743
291.777
291.824
291.879
291.947
292.01
292.07
292.124
292.175
292.222
292.27
292.339
292.39
292.427
292.446
292.451
292.445
292.439
292.434
292.419
292.406
292.398
292.388
292.375
292.363
292.351
292.338
292.327
292.318
292.31
292.304
292.298
292.294
292.289
292.285
292.28
292.265
292.255
292.247
292.24
292.237
292.235
292.233
292.233
292.233
292.235
292.241
292.249
292.256
292.262
292.265
292.265
292.261
292.254
292.245
292.231
292.215
292.2
292.183
292.162
292.14
292.115
292.092
292.069
292.045
292.022
292.002
291.979
291.955
291.927
291.909
291.902
291.9
291.896
291.892
291.885
291.88
291.876
291.872
291.863
291.843
291.805
291.754
291.7
291.652
291.602
291.539
291.469
291.414
291.38
291.368
291.372
291.394
291.421
291.441
291.467
291.496
291.518
291.543
291.572
291.611
291.652
291.691
291.739
291.789
291.881
291.971
292.001
292.028
292.102
292.152
292.202
292.246
292.284
292.318
292.346
292.366
292.379
292.385
292.385
292.378
292.365
292.348
292.326
292.301
292.275
292.248
292.219
292.19
292.165
292.141
292.117
292.096
292.076
292.054
292.03
292.005
291.98
291.957
291.94
291.932
291.929
291.932
291.94
291.952
291.965
291.981
291.998
292.016
292.036
292.054
292.07
292.086
292.098
292.111
292.121
292.148
292.173
292.195
292.207
292.213
292.203
292.182
292.161
292.136
292.107
292.078
292.048
292.021
291.997
291.977
291.96
291.946
291.933
291.921
291.911
291.891
291.878
291.861
291.839
291.816
291.79
291.762
291.737
291.713
291.686
291.659
291.633
291.614
291.595
291.579
291.557
291.542
291.541
291.533
291.514
291.486
291.456
291.426
291.387
291.335
291.321
291.324
291.32
291.317
291.33
291.35
291.38
291.419
291.468
291.526
291.589
291.651
291.713
291.784
291.862
291.939
292.005
292.056
292.094
292.118
292.132
292.137
292.134
292.125
292.11
292.09
292.069
292.051
292.042
292.04
292.044
292.046
292.06
292.071
292.084
292.098
292.111
292.124
292.134
292.142
292.15
292.152
292.158
292.164
292.171
292.177
292.183
292.189
292.195
292.205
292.218
292.23
292.243
292.26
292.277
292.296
292.314
292.336
292.356
292.383
292.412
292.442
292.471
292.501
292.542
292.574
292.604
292.626
292.637
292.644
292.652
292.64
292.616
292.619
292.638
292.638
292.622
292.622
292.619
292.618
292.616
292.614
292.611
292.61
292.612
292.618
292.627
292.639
292.654
292.668
292.681
292.696
292.711
292.73
292.749
292.772
292.796
292.821
292.848
292.877
292.907
292.938
292.971
293.004
293.039
293.074
293.109
293.143
293.175
293.206
293.235
293.262
293.286
293.309
293.333
293.356
293.37
293.388
293.403
293.415
293.423
293.427
293.441
293.429
293.416
293.417
293.405
293.395
293.385
293.385
293.36
293.342
293.324
293.306
293.29
293.261
293.251
293.236
293.215
293.203
293.195
293.181
293.164
293.163
293.15
293.153
293.137
293.124
293.112
293.102
293.094
293.086
293.08
293.074
293.072
293.07
293.071
293.073
293.081
293.091
293.105
293.121
293.137
293.153
293.168
293.183
293.196
293.21
293.225
293.24
293.256
293.273
293.292
293.307
293.321
293.331
293.339
293.346
293.35
293.352
293.352
293.35
293.348
293.343
293.338
293.33
293.321
293.311
293.299
293.287
293.281
293.268
293.254
293.24
293.227
293.215
293.203
293.193
293.185
293.179
293.172
293.165
293.155
293.146
293.139
293.132
293.123
293.111
293.101
293.106
293.144
293.164
293.151
293.161
293.159
293.17
293.161
293.151
293.15
293.146
293.148
293.17
293.191
293.215
289.722
289.727
289.739
289.753
289.773
289.797
289.826
289.86
289.901
289.947
290
290.058
290.121
290.191
290.266
290.346
290.433
290.522
290.613
290.702
290.789
290.876
290.96
291.039
291.111
291.179
291.24
291.295
291.35
291.399
291.445
291.49
291.531
291.571
291.609
291.652
291.697
291.746
291.796
291.843
291.888
291.931
291.971
292.002
292.03
292.051
292.069
292.078
292.091
292.097
292.096
292.095
292.092
292.084
292.072
292.059
292.04
292.029
292.012
291.987
291.968
291.953
291.93
291.907
291.882
291.855
291.827
291.799
291.772
291.74
291.722
291.713
291.713
291.738
291.784
291.846
291.917
291.998
292.085
292.173
292.25
292.317
292.374
292.417
292.456
292.492
292.54
292.56
292.568
292.567
292.546
292.518
292.492
292.478
292.467
292.456
292.439
292.416
292.393
292.37
292.349
292.329
292.31
292.294
292.28
292.268
292.257
292.243
292.231
292.224
292.219
292.214
292.213
292.223
292.229
292.237
292.246
292.254
292.262
292.271
292.28
292.288
292.293
292.296
292.297
292.295
292.291
292.285
292.276
292.263
292.245
292.22
292.187
292.146
292.099
292.05
292
291.951
291.905
291.861
291.82
291.784
291.754
291.728
291.694
291.665
291.655
291.657
291.663
291.667
291.67
291.681
291.7
291.728
291.765
291.799
291.819
291.828
291.82
291.814
291.811
291.782
291.697
291.568
291.451
291.383
291.369
291.384
291.419
291.464
291.52
291.578
291.626
291.679
291.737
291.805
291.877
291.954
292.056
292.157
292.263
292.368
292.467
292.569
292.674
292.768
292.857
292.939
293.013
293.083
293.141
293.192
293.233
293.263
293.282
293.291
293.289
293.276
293.253
293.221
293.18
293.13
293.075
293.015
292.954
292.892
292.832
292.776
292.724
292.673
292.62
292.564
292.502
292.433
292.358
292.288
292.228
292.181
292.137
292.104
292.073
292.046
292.02
291.991
291.968
291.954
291.952
291.957
291.966
291.973
291.979
291.994
292.024
292.072
292.127
292.163
292.18
292.18
292.172
292.157
292.131
292.096
292.051
292.002
291.955
291.914
291.879
291.85
291.825
291.803
291.782
291.761
291.742
291.72
291.696
291.674
291.652
291.632
291.617
291.605
291.589
291.574
291.559
291.544
291.529
291.513
291.495
291.476
291.447
291.423
291.394
291.366
291.337
291.304
291.27
291.235
291.194
291.151
291.11
291.067
291.033
290.995
290.967
290.951
290.948
290.964
290.996
291.037
291.083
291.146
291.236
291.356
291.495
291.636
291.762
291.866
291.952
292.019
292.072
292.115
292.143
292.15
292.139
292.111
292.083
292.063
292.052
292.046
292.049
292.058
292.071
292.087
292.107
292.129
292.142
292.15
292.156
292.159
292.162
292.164
292.169
292.178
292.183
292.194
292.207
292.228
292.252
292.281
292.311
292.347
292.388
292.431
292.474
292.521
292.567
292.615
292.668
292.719
292.767
292.81
292.85
292.893
292.941
292.978
293.017
293.054
293.085
293.112
293.129
293.134
293.132
293.122
293.103
293.079
293.048
293.013
292.973
292.928
292.88
292.831
292.783
292.742
292.714
292.699
292.692
292.688
292.686
292.683
292.676
292.667
292.661
292.66
292.662
292.67
292.683
292.699
292.718
292.74
292.765
292.794
292.825
292.859
292.894
292.931
292.969
293.006
293.043
293.079
293.114
293.148
293.183
293.216
293.248
293.281
293.311
293.338
293.358
293.371
293.378
293.381
293.379
293.374
293.366
293.356
293.346
293.333
293.311
293.292
293.272
293.249
293.228
293.203
293.181
293.159
293.136
293.116
293.096
293.075
293.057
293.039
293.019
293.001
292.981
292.962
292.945
292.929
292.912
292.894
292.878
292.862
292.849
292.836
292.827
292.819
292.815
292.817
292.824
292.837
292.853
292.873
292.893
292.914
292.934
292.954
292.977
293.002
293.028
293.057
293.09
293.125
293.161
293.195
293.225
293.252
293.275
293.294
293.306
293.315
293.321
293.325
293.326
293.325
293.321
293.312
293.301
293.288
293.272
293.255
293.236
293.214
293.192
293.169
293.146
293.123
293.103
293.086
293.07
293.053
293.034
293.015
292.997
292.981
292.964
292.95
292.946
292.949
292.954
292.956
292.952
292.954
292.953
292.953
292.945
292.936
292.933
292.933
292.937
292.948
292.965
292.988
289.699
289.706
289.723
289.744
289.772
289.805
289.843
289.888
289.938
289.994
290.056
290.124
290.197
290.277
290.361
290.451
290.546
290.644
290.741
290.834
290.924
291.011
291.093
291.17
291.237
291.298
291.349
291.398
291.443
291.483
291.521
291.559
291.598
291.638
291.679
291.729
291.782
291.837
291.892
291.942
291.987
292.026
292.06
292.084
292.101
292.115
292.122
292.121
292.12
292.114
292.105
292.095
292.079
292.064
292.044
292.018
291.993
291.965
291.937
291.898
291.873
291.846
291.818
291.791
291.762
291.733
291.707
291.687
291.671
291.66
291.66
291.683
291.72
291.778
291.856
291.946
292.043
292.148
292.254
292.357
292.448
292.525
292.586
292.632
292.665
292.689
292.714
292.714
292.708
292.696
292.681
292.647
292.61
292.575
292.548
292.518
292.483
292.447
292.411
292.377
292.344
292.314
292.286
292.261
292.238
292.216
292.202
292.19
292.183
292.185
292.178
292.175
292.186
292.19
292.195
292.206
292.22
292.236
292.252
292.267
292.28
292.289
292.294
292.294
292.291
292.285
292.276
292.261
292.239
292.217
292.186
292.143
292.087
292.019
291.94
291.859
291.777
291.696
291.621
291.553
291.49
291.433
291.384
291.346
291.31
291.273
291.255
291.258
291.273
291.288
291.306
291.327
291.356
291.397
291.46
291.544
291.634
291.706
291.737
291.756
291.776
291.808
291.798
291.72
291.576
291.445
291.385
291.387
291.41
291.452
291.508
291.576
291.658
291.749
291.845
291.952
292.056
292.161
292.29
292.424
292.559
292.699
292.842
292.982
293.118
293.255
293.384
293.502
293.609
293.709
293.799
293.881
293.952
294.013
294.062
294.098
294.121
294.13
294.125
294.107
294.077
294.035
293.987
293.93
293.866
293.795
293.722
293.65
293.581
293.512
293.443
293.374
293.303
293.221
293.123
293.01
292.895
292.791
292.695
292.608
292.528
292.451
292.373
292.289
292.201
292.116
292.046
291.995
291.958
291.925
291.894
291.866
291.863
291.88
291.934
292.008
292.069
292.102
292.119
292.131
292.142
292.141
292.117
292.058
291.987
291.918
291.854
291.8
291.757
291.726
291.701
291.682
291.665
291.651
291.638
291.633
291.631
291.629
291.631
291.636
291.641
291.65
291.659
291.668
291.679
291.686
291.69
291.692
291.693
291.68
291.661
291.638
291.606
291.566
291.514
291.453
291.385
291.309
291.226
291.139
291.055
290.971
290.894
290.824
290.762
290.701
290.651
290.619
290.604
290.605
290.633
290.701
290.81
290.95
291.106
291.27
291.43
291.579
291.714
291.844
291.965
292.066
292.126
292.138
292.13
292.109
292.089
292.07
292.059
292.054
292.059
292.071
292.092
292.117
292.138
292.152
292.159
292.163
292.166
292.168
292.173
292.181
292.195
292.214
292.238
292.274
292.32
292.372
292.429
292.495
292.566
292.643
292.723
292.803
292.883
292.959
293.035
293.107
293.176
293.243
293.305
293.358
293.411
293.455
293.497
293.537
293.57
293.602
293.631
293.656
293.676
293.691
293.698
293.7
293.687
293.659
293.616
293.562
293.499
293.42
293.318
293.198
293.082
292.999
292.949
292.925
292.91
292.892
292.862
292.82
292.77
292.727
292.691
292.663
292.644
292.631
292.624
292.621
292.622
292.628
292.64
292.657
292.679
292.704
292.732
292.763
292.796
292.832
292.869
292.91
292.955
293.004
293.056
293.107
293.158
293.205
293.246
293.278
293.3
293.318
293.327
293.331
293.331
293.329
293.321
293.309
293.294
293.272
293.244
293.217
293.189
293.161
293.132
293.103
293.075
293.047
293.02
292.994
292.968
292.942
292.917
292.892
292.868
292.844
292.821
292.798
292.776
292.755
292.734
292.712
292.692
292.672
292.654
292.635
292.612
292.592
292.578
292.569
292.568
292.573
292.583
292.597
292.613
292.63
292.65
292.673
292.695
292.719
292.75
292.791
292.841
292.897
292.959
293.022
293.079
293.131
293.172
293.202
293.226
293.246
293.266
293.285
293.3
293.306
293.304
293.296
293.283
293.266
293.248
293.226
293.202
293.173
293.141
293.105
293.072
293.04
293.011
292.983
292.952
292.919
292.889
292.863
292.839
292.819
292.805
292.793
292.784
292.781
292.777
292.772
292.768
292.766
292.768
292.773
292.78
292.792
292.805
292.819
292.831
292.845
289.678
289.689
289.712
289.74
289.777
289.821
289.87
289.925
289.985
290.051
290.122
290.199
290.284
290.375
290.472
290.575
290.682
290.788
290.893
290.99
291.079
291.161
291.236
291.303
291.361
291.411
291.453
291.491
291.527
291.56
291.592
291.627
291.665
291.707
291.755
291.811
291.87
291.933
291.993
292.045
292.088
292.119
292.144
292.158
292.163
292.163
292.156
292.144
292.132
292.116
292.096
292.074
292.051
292.025
291.993
291.957
291.92
291.88
291.838
291.793
291.758
291.724
291.692
291.663
291.637
291.607
291.586
291.573
291.567
291.566
291.587
291.627
291.679
291.752
291.844
291.948
292.059
292.175
292.294
292.413
292.525
292.625
292.71
292.775
292.822
292.854
292.877
292.879
292.871
292.855
292.826
292.79
292.746
292.695
292.643
292.591
292.539
292.49
292.442
292.396
292.352
292.31
292.272
292.238
292.206
292.183
292.163
292.143
292.129
292.121
292.125
292.124
292.116
292.127
292.135
292.147
292.16
292.175
292.191
292.207
292.221
292.23
292.234
292.232
292.225
292.21
292.189
292.158
292.115
292.059
291.997
291.927
291.846
291.754
291.65
291.54
291.427
291.318
291.216
291.127
291.053
290.987
290.929
290.878
290.83
290.782
290.757
290.761
290.779
290.809
290.84
290.873
290.914
290.967
291.043
291.14
291.256
291.363
291.446
291.512
291.589
291.689
291.767
291.77
291.725
291.611
291.499
291.424
291.404
291.414
291.45
291.517
291.612
291.713
291.821
291.945
292.068
292.202
292.35
292.505
292.663
292.826
292.987
293.149
293.31
293.471
293.631
293.785
293.933
294.075
294.204
294.322
294.428
294.519
294.598
294.663
294.713
294.747
294.765
294.769
294.763
294.746
294.719
294.682
294.636
294.58
294.518
294.451
294.383
294.313
294.245
294.179
294.116
294.048
293.964
293.861
293.744
293.617
293.483
293.37
293.268
293.173
293.075
292.962
292.824
292.662
292.488
292.326
292.192
292.093
292.017
291.955
291.906
291.861
291.835
291.844
291.883
291.929
291.957
291.984
292.019
292.071
292.113
292.108
292.054
291.973
291.893
291.824
291.765
291.718
291.677
291.651
291.634
291.625
291.623
291.632
291.645
291.666
291.694
291.727
291.76
291.796
291.832
291.867
291.905
291.938
291.966
291.989
292.001
292.009
291.999
291.982
291.956
291.917
291.865
291.802
291.724
291.633
291.53
291.416
291.296
291.165
291.032
290.904
290.782
290.676
290.58
290.493
290.417
290.356
290.317
290.315
290.338
290.397
290.491
290.615
290.763
290.928
291.104
291.302
291.52
291.74
291.922
292.038
292.093
292.125
292.139
292.137
292.117
292.088
292.068
292.062
292.07
292.09
292.119
292.142
292.154
292.164
292.171
292.176
292.182
292.196
292.213
292.238
292.273
292.327
292.388
292.469
292.559
292.656
292.761
292.869
292.978
293.084
293.182
293.27
293.35
293.422
293.481
293.529
293.568
293.593
293.615
293.636
293.662
293.689
293.716
293.749
293.786
293.823
293.861
293.9
293.941
293.983
294.021
294.053
294.078
294.089
294.087
294.066
294.009
293.904
293.756
293.606
293.498
293.434
293.392
293.35
293.293
293.219
293.129
293.036
292.947
292.869
292.806
292.758
292.72
292.689
292.662
292.639
292.616
292.596
292.581
292.572
292.572
292.576
292.587
292.603
292.628
292.661
292.702
292.752
292.811
292.874
292.941
293.006
293.065
293.118
293.16
293.196
293.224
293.248
293.265
293.276
293.283
293.281
293.275
293.256
293.23
293.204
293.173
293.14
293.107
293.076
293.043
293.011
292.981
292.95
292.921
292.893
292.866
292.839
292.814
292.789
292.764
292.737
292.714
292.691
292.666
292.639
292.613
292.583
292.554
292.525
292.492
292.459
292.426
292.396
292.369
292.349
292.335
292.327
292.325
292.328
292.335
292.347
292.359
292.368
292.38
292.403
292.439
292.491
292.559
292.642
292.734
292.826
292.905
292.965
293.012
293.052
293.094
293.142
293.191
293.235
293.266
293.277
293.276
293.271
293.264
293.253
293.236
293.212
293.181
293.142
293.096
293.05
293.003
292.956
292.907
292.864
292.823
292.785
292.75
292.72
292.695
292.675
292.66
292.649
292.64
292.633
292.634
292.637
292.649
292.664
292.686
292.711
292.742
292.772
292.791
292.801
289.661
289.675
289.705
289.743
289.791
289.847
289.908
289.974
290.044
290.12
290.202
290.29
290.385
290.487
290.596
290.71
290.827
290.942
291.052
291.151
291.238
291.314
291.38
291.435
291.48
291.516
291.544
291.57
291.595
291.62
291.649
291.683
291.725
291.775
291.833
291.897
291.965
292.031
292.089
292.137
292.172
292.195
292.208
292.21
292.205
292.192
292.174
292.151
292.127
292.098
292.067
292.036
292.004
291.969
291.932
291.886
291.838
291.783
291.729
291.673
291.626
291.583
291.546
291.512
291.479
291.449
291.424
291.406
291.395
291.39
291.401
291.434
291.478
291.543
291.628
291.725
291.828
291.935
292.051
292.182
292.324
292.466
292.598
292.711
292.804
292.877
292.936
292.967
292.981
292.984
292.976
292.945
292.905
292.853
292.794
292.73
292.665
292.6
292.537
292.475
292.414
292.354
292.301
292.251
292.208
292.171
292.147
292.118
292.09
292.079
292.072
292.059
292.057
292.064
292.063
292.076
292.087
292.099
292.115
292.13
292.143
292.15
292.149
292.141
292.123
292.094
292.056
292.01
291.95
291.869
291.772
291.666
291.55
291.423
291.286
291.145
291.006
290.875
290.753
290.645
290.556
290.483
290.423
290.366
290.315
290.265
290.241
290.246
290.265
290.294
290.329
290.371
290.423
290.489
290.576
290.678
290.797
290.92
291.027
291.14
291.263
291.406
291.559
291.689
291.7
291.684
291.629
291.539
291.456
291.425
291.432
291.463
291.533
291.625
291.742
291.876
291.999
292.12
292.264
292.422
292.579
292.745
292.914
293.094
293.265
293.45
293.631
293.818
293.999
294.177
294.344
294.505
294.653
294.783
294.897
294.997
295.08
295.144
295.19
295.222
295.24
295.243
295.238
295.224
295.2
295.167
295.125
295.076
295.02
294.962
294.907
294.856
294.805
294.75
294.682
294.598
294.498
294.38
294.255
294.141
294.048
293.97
293.891
293.795
293.665
293.49
293.272
293.028
292.791
292.59
292.43
292.304
292.194
292.085
291.981
291.897
291.834
291.789
291.767
291.774
291.803
291.87
291.976
292.069
292.096
292.076
292.015
291.933
291.851
291.773
291.707
291.66
291.629
291.62
291.621
291.637
291.667
291.71
291.758
291.809
291.86
291.914
291.965
292.014
292.063
292.109
292.153
292.189
292.222
292.246
292.254
292.25
292.235
292.208
292.164
292.105
292.027
291.932
291.817
291.688
291.546
291.389
291.223
291.057
290.897
290.746
290.608
290.484
290.375
290.278
290.196
290.134
290.104
290.107
290.132
290.184
290.264
290.37
290.506
290.686
290.914
291.178
291.44
291.671
291.853
291.975
292.067
292.125
292.136
292.124
292.094
292.069
292.059
292.064
292.09
292.121
292.145
292.165
292.177
292.187
292.195
292.201
292.22
292.249
292.291
292.349
292.435
292.531
292.648
292.776
292.91
293.042
293.17
293.286
293.388
293.465
293.525
293.567
293.595
293.609
293.617
293.61
293.599
293.583
293.568
293.558
293.553
293.559
293.581
293.618
293.668
293.729
293.8
293.884
293.973
294.059
294.137
294.206
294.265
294.313
294.344
294.357
294.34
294.278
294.198
294.127
294.068
294.003
293.921
293.822
293.707
293.581
293.448
293.318
293.203
293.108
293.03
292.964
292.901
292.839
292.78
292.725
292.677
292.638
292.607
292.581
292.556
292.53
292.51
292.509
292.517
292.543
292.582
292.63
292.686
292.746
292.813
292.887
292.956
293.015
293.066
293.109
293.144
293.18
293.21
293.23
293.234
293.231
293.22
293.204
293.18
293.155
293.118
293.085
293.047
293.01
292.974
292.942
292.912
292.881
292.855
292.829
292.804
292.779
292.757
292.736
292.714
292.689
292.663
292.636
292.599
292.561
292.522
292.482
292.437
292.39
292.341
292.291
292.242
292.196
292.155
292.121
292.093
292.072
292.058
292.051
292.049
292.045
292.04
292.043
292.055
292.082
292.13
292.202
292.294
292.407
292.515
292.606
292.68
292.744
292.812
292.888
292.973
293.062
293.14
293.193
293.222
293.234
293.242
293.248
293.249
293.243
293.223
293.186
293.136
293.084
293.034
292.982
292.925
292.876
292.828
292.779
292.732
292.685
292.644
292.608
292.582
292.564
292.552
292.547
292.548
292.558
292.574
292.599
292.631
292.672
292.717
292.765
292.809
292.826
289.649
289.666
289.704
289.752
289.812
289.881
289.955
290.033
290.114
290.2
290.293
290.393
290.5
290.615
290.736
290.861
290.985
291.103
291.211
291.306
291.387
291.452
291.505
291.547
291.577
291.6
291.615
291.63
291.645
291.664
291.69
291.725
291.773
291.833
291.902
291.976
292.05
292.116
292.17
292.21
292.235
292.245
292.246
292.238
292.22
292.196
292.168
292.136
292.101
292.063
292.022
291.981
291.94
291.898
291.851
291.802
291.744
291.682
291.616
291.55
291.489
291.431
291.378
291.328
291.279
291.231
291.186
291.144
291.105
291.072
291.048
291.038
291.035
291.052
291.095
291.15
291.209
291.276
291.355
291.459
291.604
291.774
291.96
292.145
292.324
292.492
292.657
292.783
292.891
292.969
293.013
293.03
293.031
293.002
292.965
292.912
292.85
292.783
292.714
292.643
292.568
292.496
292.428
292.362
292.299
292.244
292.196
292.148
292.105
292.077
292.066
292.05
292.031
292.032
292.024
292.024
292.032
292.042
292.052
292.061
292.068
292.065
292.055
292.034
291.998
291.945
291.873
291.787
291.689
291.577
291.454
291.318
291.173
291.021
290.863
290.707
290.559
290.423
290.303
290.197
290.106
290.032
289.969
289.913
289.864
289.822
289.805
289.811
289.828
289.853
289.883
289.922
289.974
290.041
290.126
290.228
290.338
290.463
290.589
290.715
290.851
291
291.176
291.376
291.538
291.637
291.676
291.663
291.599
291.515
291.466
291.436
291.44
291.486
291.597
291.728
291.832
291.949
292.092
292.224
292.37
292.521
292.675
292.84
293.027
293.216
293.426
293.641
293.869
294.1
294.315
294.513
294.691
294.849
294.993