/*--------------------------------*- C++ -*----------------------------------*\
| =========                 |                                                 |
| \\      /  F ield         | OpenFOAM: The Open Source CFD Toolbox           |
|  \\    /   O peration     | Version:  v1812                                 |
|   \\  /    A nd           | Web:      www.OpenFOAM.com                      |
|    \\/     M anipulation  |                                                 |
\*---------------------------------------------------------------------------*/
FoamFile
{
    version     2.0;
    format      ascii;
    class       volVectorField;
    location    "1.5";
    object      U;
}
// * * * * * * * * * * * * * * * * * * * * * * * * * * * * * * * * * * * * * //

dimensions      [0 1 -1 0 0 0 0];


internalField   nonuniform List<vector> 
20400
(
(-0.0254454 -0.0221922 0)
(-0.0733746 -0.00912757 0)
(-0.137606 -0.037939 0)
(-0.223796 -0.0502756 0)
(-0.3087 -0.066515 0)
(-0.388579 -0.0717145 0)
(-0.459785 -0.0460978 0)
(-0.528345 -0.00936356 0)
(-0.608013 0.0147189 0)
(-0.693193 0.0286426 0)
(-0.77843 0.0367558 0)
(-0.859776 0.0376374 0)
(-0.9367 0.0346554 0)
(-1.00927 0.0297481 0)
(-1.0783 0.0248856 0)
(-1.14786 0.0217746 0)
(-1.21184 0.000935286 0)
(-1.24938 -0.0338794 0)
(-1.27748 0.0344379 0)
(-1.31581 0.0772915 0)
(-1.34588 -0.165256 0)
(-1.40241 -0.271159 0)
(-1.44519 -0.178993 0)
(-1.56911 -0.0802876 0)
(-1.59054 0.19101 0)
(-1.60498 0.156132 0)
(-1.64926 0.145244 0)
(-1.66516 -0.270487 0)
(-1.72747 -0.396657 0)
(-1.76208 -0.323753 0)
(-1.86362 -0.283449 0)
(-2.00011 -0.277916 0)
(-2.1622 -0.279257 0)
(-2.2896 -0.157623 0)
(-2.29371 0.126664 0)
(-2.38065 0.143429 0)
(-2.47137 0.129189 0)
(-2.57158 0.127487 0)
(-2.69527 0.0831215 0)
(-2.87695 0.0232411 0)
(-3.06266 -0.144175 0)
(-3.25958 -0.31576 0)
(-3.43905 -0.132736 0)
(-3.46107 0.306489 0)
(-3.61058 0.33613 0)
(-3.76816 0.317776 0)
(-3.88961 0.0651724 0)
(-3.99891 -0.272763 0)
(-4.07162 0.400455 0)
(-4.14347 0.139349 0)
(-4.20818 -0.511172 0)
(-4.40542 -0.205592 0)
(-4.43969 0.512393 0)
(-4.40217 0.437248 0)
(-4.32048 0.302447 0)
(-4.20509 0.146412 0)
(-4.24268 -0.200096 0)
(-4.26599 -0.394025 0)
(-4.26891 -0.280403 0)
(-4.29677 0.095677 0)
(-4.36032 -0.230773 0)
(-4.38262 -0.52884 0)
(-4.40118 -0.595083 0)
(-4.40703 -0.48751 0)
(-4.46832 -0.373894 0)
(-4.54291 -0.256712 0)
(-4.60739 -0.13253 0)
(-4.63106 0.0157004 0)
(-4.71976 0.0606383 0)
(-4.85014 0.0126956 0)
(-4.97977 0.112972 0)
(-5.03306 0.23653 0)
(-5.18798 0.288265 0)
(-5.37881 0.245761 0)
(-5.52518 0.0165025 0)
(-5.70672 -0.165639 0)
(-5.87562 -0.252596 0)
(-6.02764 -0.197588 0)
(-6.04588 0.127303 0)
(-6.01451 0.217996 0)
(-5.92766 0.237738 0)
(-5.82331 0.313458 0)
(-5.70399 0.460693 0)
(-5.64429 0.724359 0)
(-5.63239 0.942404 0)
(-5.64878 0.715574 0)
(-5.61022 -0.978614 0)
(-5.41945 -0.706078 0)
(-5.33745 0.0402732 0)
(-5.05793 0.301323 0)
(-4.98286 0.521102 0)
(-4.92607 0.109729 0)
(-4.91371 -0.470734 0)
(-4.8412 -0.469811 0)
(-4.80207 -0.2606 0)
(-4.75772 -0.128189 0)
(-4.80507 -0.00893506 0)
(-4.90028 0.0325028 0)
(-5.02058 0.0685911 0)
(-5.16968 0.0995747 0)
(-5.34264 0.126877 0)
(-5.5398 0.151832 0)
(-5.76814 0.194067 0)
(-6.0314 0.228717 0)
(-6.31524 0.252104 0)
(-6.60774 0.265115 0)
(-6.90551 0.275222 0)
(-7.20551 0.272898 0)
(-7.49382 0.234961 0)
(-7.71533 0.107568 0)
(-7.89098 0.0597617 0)
(-8.04091 0.0355805 0)
(-8.16481 -0.00325295 0)
(-8.24386 -0.0117233 0)
(-8.29059 0.000644809 0)
(-8.31473 -0.00907953 0)
(-8.27589 -0.0655161 0)
(-8.13895 -0.106255 0)
(-7.92585 -0.10319 0)
(-7.64995 -0.0541451 0)
(-7.3303 0.0564592 0)
(-6.99161 0.23734 0)
(-6.64949 0.45995 0)
(-6.29459 0.65121 0)
(-5.91759 0.738657 0)
(-5.52302 0.697797 0)
(-5.11494 0.556532 0)
(-4.68216 0.383198 0)
(-4.21533 0.235435 0)
(-3.7278 0.127342 0)
(-3.23353 0.0393039 0)
(-2.72966 -0.0476294 0)
(-2.20776 -0.120692 0)
(-1.6761 -0.183977 0)
(-1.1466 -0.290317 0)
(-0.657623 -0.430187 0)
(-0.203562 -0.34313 0)
(0.204785 -0.177664 0)
(0.603692 -0.034217 0)
(0.988164 0.0809065 0)
(1.36209 0.163063 0)
(1.73188 0.227492 0)
(2.07246 0.289212 0)
(2.37333 0.305299 0)
(2.63464 0.20262 0)
(2.8318 0.0331003 0)
(2.98195 -0.0536954 0)
(3.00823 -0.141383 0)
(2.97232 -0.110034 0)
(2.89813 -0.0166771 0)
(2.7691 0.0315755 0)
(2.61138 0.0167808 0)
(2.42739 -0.00978843 0)
(2.23147 -0.0266564 0)
(2.02928 -0.00875677 0)
(1.81649 0.0296078 0)
(1.59081 0.0714748 0)
(1.37999 0.0753783 0)
(1.20946 0.0649142 0)
(1.08961 0.000826243 0)
(1.08052 -0.156554 0)
(1.08998 -0.396818 0)
(1.09663 -0.444144 0)
(1.08907 -0.331349 0)
(1.02294 -0.0769552 0)
(0.813605 0.0876117 0)
(0.594702 0.109921 0)
(0.42088 0.144108 0)
(0.256814 0.150652 0)
(0.0675582 0.111733 0)
(-0.111968 0.0430763 0)
(-0.310324 0.0384479 0)
(-0.587085 0.0673231 0)
(-0.93661 0.0888019 0)
(-1.34643 0.0922696 0)
(-1.79106 0.0738448 0)
(-2.25574 0.0633706 0)
(-2.76112 0.074452 0)
(-3.26558 0.101606 0)
(-3.71969 0.0979463 0)
(-4.12239 0.0476232 0)
(-4.4825 0.0228796 0)
(-4.79533 0.0433258 0)
(-5.06321 0.069695 0)
(-5.27096 0.0885541 0)
(-5.41797 0.139521 0)
(-5.49973 0.242791 0)
(-5.52831 0.325251 0)
(-5.50513 0.392689 0)
(-5.42948 0.426656 0)
(-5.31509 0.453408 0)
(-5.16352 0.458447 0)
(-4.9748 0.453188 0)
(-4.75457 0.439808 0)
(-4.50921 0.423734 0)
(-4.2511 0.407227 0)
(-3.98769 0.385748 0)
(-3.7212 0.364142 0)
(-3.46268 0.346939 0)
(-3.22027 0.323934 0)
(-2.98586 0.288015 0)
(-2.7482 0.250183 0)
(-2.51572 0.222991 0)
(-2.30415 0.19859 0)
(-2.12245 0.178942 0)
(-1.966 0.0607471 0)
(-1.8789 -0.0197074 0)
(-1.88312 -0.0370336 0)
(-1.82972 -0.090216 0)
(-1.73756 -0.109655 0)
(-1.63545 -0.115039 0)
(-1.53279 -0.108172 0)
(-1.44412 -0.087444 0)
(-1.37725 -0.0601342 0)
(-1.34067 -0.0296428 0)
(-1.32732 -0.0127517 0)
(-1.32606 -0.00734856 0)
(-1.32715 -0.00817057 0)
(-1.32764 -0.00912101 0)
(-1.32564 -0.0101722 0)
(-1.32741 0.00136503 0)
(-1.33986 0.00563796 0)
(-1.34839 0.00264131 0)
(-1.35942 0.00945219 0)
(-1.40427 -0.068397 0)
(-1.4521 -0.149248 0)
(-1.51542 -0.12727 0)
(-1.60807 -0.125872 0)
(-1.69959 -0.146548 0)
(-1.7683 -0.184237 0)
(-1.79587 -0.21997 0)
(-1.80171 -0.207118 0)
(-1.77917 -0.184206 0)
(-1.75014 -0.116569 0)
(-1.70139 -0.0574114 0)
(-1.71727 -0.00876055 0)
(-1.76995 0.030006 0)
(-1.82689 0.0250113 0)
(-1.85812 0.00642106 0)
(-1.86755 0.0372672 0)
(-1.85224 0.0617661 0)
(-1.81662 0.042896 0)
(-1.75702 0.0348338 0)
(-1.70186 0.0477208 0)
(-1.67608 0.0732377 0)
(-1.66142 0.0528825 0)
(-1.63112 0.0349509 0)
(-1.59249 0.0305631 0)
(-1.57025 0.0417669 0)
(-1.57729 0.0598758 0)
(-1.64274 0.118773 0)
(-1.74802 0.138011 0)
(-1.85385 0.142384 0)
(-1.98237 0.173622 0)
(-2.17623 0.226869 0)
(-2.42131 0.253124 0)
(-2.68938 0.269328 0)
(-2.96955 0.276543 0)
(-3.24244 0.270263 0)
(-3.49753 0.261576 0)
(-3.73947 0.261935 0)
(-3.97257 0.251289 0)
(-4.18947 0.245277 0)
(-4.40776 0.238235 0)
(-4.62381 0.209959 0)
(-4.81356 0.180796 0)
(-4.9812 0.147521 0)
(-5.11399 0.0895634 0)
(-5.21363 0.0624818 0)
(-5.27848 0.0450285 0)
(-5.32199 0.0313825 0)
(-5.33635 0.0188972 0)
(-5.33414 0.0414407 0)
(-5.29819 0.0436884 0)
(-5.20789 0.0541392 0)
(-5.05804 0.0853922 0)
(-4.90741 0.193558 0)
(-4.77187 0.35996 0)
(-4.62029 0.505528 0)
(-4.4246 0.456673 0)
(-4.19756 0.28918 0)
(-3.89342 0.241221 0)
(-3.61202 0.261395 0)
(-3.359 0.282431 0)
(-3.14046 0.294811 0)
(-2.94413 0.290503 0)
(-2.75462 0.270045 0)
(-2.559 0.23592 0)
(-2.34999 0.20045 0)
(-2.13996 0.174931 0)
(-1.94273 0.158866 0)
(-1.77142 0.152947 0)
(-1.6318 0.154203 0)
(-1.52482 0.153105 0)
(-1.43554 0.145235 0)
(-1.35794 0.136976 0)
(-1.29269 0.126189 0)
(-1.23177 0.107995 0)
(-1.16948 0.079128 0)
(-1.09196 0.0407686 0)
(-0.996943 0.00995833 0)
(-0.908124 -0.00189699 0)
(-0.840326 -0.00348621 0)
(-0.798683 0.000219573 0)
(-0.773712 -0.000860186 0)
(-0.751622 -0.00603145 0)
(-0.726043 -0.0125064 0)
(-0.70032 -0.00791874 0)
(-0.687149 0.0388734 0)
(-0.651579 6.38579e-05 0)
(-0.591668 -0.017029 0)
(-0.534324 -0.0218236 0)
(-0.478779 -0.0289612 0)
(-0.421025 -0.0393208 0)
(-0.369033 -0.0425531 0)
(-0.329309 -0.0231927 0)
(-0.318809 0.00167307 0)
(-0.329609 0.00813782 0)
(-0.34993 0.0224691 0)
(-0.408993 0.0881964 0)
(-0.554126 0.16764 0)
(-0.769366 0.212233 0)
(-1.01566 0.221988 0)
(-1.28106 0.234249 0)
(-1.57696 0.246073 0)
(-1.88619 0.236237 0)
(-2.18398 0.22156 0)
(-2.46619 0.216982 0)
(-2.73893 0.219711 0)
(-2.99958 0.211774 0)
(-3.23718 0.199404 0)
(-3.45616 0.191485 0)
(-3.66343 0.197287 0)
(-3.86904 0.203316 0)
(-4.0715 0.203433 0)
(-4.27336 0.207134 0)
(-4.48035 0.203567 0)
(-4.68364 0.18358 0)
(-4.87235 0.138975 0)
(-5.01753 0.0655515 0)
(-5.0824 -0.0187074 0)
(-5.14163 0.0469133 0)
(-5.22109 0.048034 0)
(-5.2695 0.0378872 0)
(-5.29589 0.033086 0)
(-5.27839 0.0129413 0)
(-5.18559 0.00231994 0)
(-5.02073 0.000340969 0)
(-4.79674 0.0242147 0)
(-4.57311 0.0899318 0)
(-4.36347 0.188364 0)
(-4.14161 0.269717 0)
(-3.9203 0.243618 0)
(-3.68784 0.226577 0)
(-3.46052 0.214432 0)
(-3.25134 0.223295 0)
(-3.03536 0.210581 0)
(-2.81546 0.191845 0)
(-2.59392 0.16583 0)
(-2.37169 0.139858 0)
(-2.15977 0.124209 0)
(-1.97652 0.122918 0)
(-1.83164 0.125846 0)
(-1.71942 0.126431 0)
(-1.63028 0.124468 0)
(-1.56089 0.117847 0)
(-1.50443 0.100708 0)
(-1.44625 0.0753407 0)
(-1.38463 0.0533416 0)
(-1.3321 0.0413699 0)
(-1.29773 0.0338156 0)
(-1.28003 0.0220544 0)
(-1.27435 0.00796856 0)
(-1.28201 0.00143383 0)
(-1.29273 -0.0181646 0)
(-1.31519 -0.0295084 0)
(-1.33868 -0.0431269 0)
(-1.36516 -0.0534566 0)
(-1.39475 -0.0612352 0)
(-1.42847 -0.0665161 0)
(-1.467 -0.0698107 0)
(-1.51081 -0.0716994 0)
(-1.55989 -0.0726261 0)
(-1.61435 -0.0731472 0)
(-1.67256 -0.0748711 0)
(-1.73047 -0.0778367 0)
(-1.7849 -0.0810936 0)
(-1.83264 -0.0845013 0)
(-1.87014 -0.0873411 0)
(-1.89637 -0.0886635 0)
(-1.91129 -0.0899156 0)
(-1.91484 -0.0882488 0)
(-1.91288 -0.0808562 0)
(-1.90351 -0.0769278 0)
(-1.89001 -0.0682231 0)
(-1.87755 -0.0528519 0)
(-1.87372 -0.0327786 0)
(-1.87197 -0.00797184 0)
(-1.89698 0.00860046 0)
(-1.91419 0.0404718 0)
(-1.9266 0.0469522 0)
(-1.93858 0.0465855 0)
(-1.94394 0.042034 0)
(-1.94495 0.0433926 0)
(-1.94211 0.0472809 0)
(-1.95279 0.0634257 0)
(-1.99509 0.0880553 0)
(-2.04722 0.0763562 0)
(-2.07912 0.0569522 0)
(-2.10242 0.0559054 0)
(-2.12839 0.0609135 0)
(-2.16289 0.0674492 0)
(-2.20109 0.0652494 0)
(-2.24059 0.0676985 0)
(-2.28917 0.0740899 0)
(-2.34579 0.0748447 0)
(-2.40399 0.0789339 0)
(-2.46676 0.0880745 0)
(-2.52595 0.068751 0)
(-2.58327 0.0559793 0)
(-2.64685 0.0594473 0)
(-2.7138 0.061769 0)
(-2.78351 0.0681736 0)
(-2.85298 0.065601 0)
(-2.92015 0.0558863 0)
(-2.98406 0.0725538 0)
(-3.04969 0.0775495 0)
(-3.10313 0.081792 0)
(-3.13992 0.0907837 0)
(-3.16177 0.0963572 0)
(-3.16604 0.112677 0)
(-3.151 0.123742 0)
(-3.12898 0.138041 0)
(-3.09667 0.143434 0)
(-3.04504 0.138672 0)
(-2.96669 0.131367 0)
(-2.87015 0.125299 0)
(-2.76377 0.121725 0)
(-2.65446 0.11903 0)
(-2.54647 0.117351 0)
(-2.44377 0.116174 0)
(-2.34817 0.115071 0)
(-2.2621 0.113813 0)
(-2.1854 0.109599 0)
(-2.1135 0.101811 0)
(-2.04643 0.0905742 0)
(-1.97799 0.0715476 0)
(-1.89625 0.0483948 0)
(-1.80966 0.0396067 0)
(-1.73681 0.0377984 0)
(-1.68029 0.0335934 0)
(-1.63291 0.0237439 0)
(-1.58743 0.011969 0)
(-1.54588 0.00637967 0)
(-1.51547 0.00702354 0)
(-1.50123 0.0124878 0)
(-1.50014 0.0055578 0)
(-1.50699 0.00372778 0)
(-1.5104 -0.00541234 0)
(-1.5019 -0.0147288 0)
(-1.48674 -0.0173084 0)
(-1.4717 -0.013499 0)
(-1.46212 -0.00600483 0)
(-1.45957 0.000714782 0)
(-1.46513 0.010391 0)
(-1.48781 0.0278692 0)
(-1.51592 0.0688708 0)
(-1.55565 0.0678225 0)
(-1.57624 0.0581311 0)
(-1.59179 0.0592408 0)
(-1.60275 0.0594544 0)
(-1.61284 0.0623577 0)
(-1.62779 0.0690208 0)
(-1.65045 0.0733292 0)
(-1.67273 0.0704822 0)
(-1.69617 0.0759097 0)
(-1.73081 0.0858502 0)
(-1.77744 0.0931612 0)
(-1.8318 0.0997515 0)
(-1.89346 0.100941 0)
(-1.94789 0.0862376 0)
(-1.98647 0.0708474 0)
(-2.01523 0.0561473 0)
(-2.04313 0.0438701 0)
(-2.07103 0.0628429 0)
(-2.12001 0.107301 0)
(-2.22922 0.143238 0)
(-2.4043 0.169149 0)
(-2.59221 0.162334 0)
(-2.76685 0.142287 0)
(-2.91504 0.122162 0)
(-3.02766 0.0956156 0)
(-3.10818 0.0724689 0)
(-3.16109 0.0355104 0)
(-3.1774 0.00368197 0)
(-3.18363 -0.00398568 0)
(-3.16866 -0.0325312 0)
(-3.11201 -0.0619592 0)
(-3.03924 -0.0652714 0)
(-2.95866 -0.0683 0)
(-0.0374978 -0.0466839 0)
(-0.115137 -0.0425952 0)
(-0.197946 0.00883675 0)
(-0.309593 0.0257134 0)
(-0.430749 0.0217657 0)
(-0.561171 0.0048947 0)
(-0.698738 -0.0127192 0)
(-0.835862 -0.0148449 0)
(-0.972666 -0.00960917 0)
(-1.11037 -0.00928886 0)
(-1.24857 -0.0147309 0)
(-1.38592 -0.0207073 0)
(-1.5251 -0.0250213 0)
(-1.66911 -0.0287371 0)
(-1.81924 -0.0290466 0)
(-1.9701 -0.028113 0)
(-2.10376 -0.0358172 0)
(-2.19993 -0.0713603 0)
(-2.2552 -0.0654605 0)
(-2.2686 -0.108662 0)
(-2.29897 0.0352138 0)
(-2.40427 0.0266246 0)
(-2.5096 0.0740535 0)
(-2.62097 0.0331411 0)
(-2.66958 -0.167161 0)
(-2.75408 -0.150393 0)
(-2.83851 -0.122231 0)
(-2.87411 0.0955875 0)
(-3.03277 0.103051 0)
(-3.21723 0.144197 0)
(-3.39148 0.198976 0)
(-3.56726 0.239961 0)
(-3.76879 0.212033 0)
(-3.96859 0.0298201 0)
(-4.23325 -0.0965332 0)
(-4.52885 -0.0443262 0)
(-4.85238 -0.0320076 0)
(-5.16754 -0.0200207 0)
(-5.4049 0.0776465 0)
(-5.57076 0.156844 0)
(-5.66812 0.272475 0)
(-5.83841 0.277328 0)
(-6.03924 0.0965416 0)
(-6.31634 -0.103592 0)
(-6.6185 -0.0209614 0)
(-6.88648 -0.0472367 0)
(-7.01729 0.0960456 0)
(-7.06163 0.158193 0)
(-7.14201 -0.192556 0)
(-7.26906 -0.0196038 0)
(-7.3237 0.246338 0)
(-7.39676 0.256767 0)
(-7.42544 -0.268747 0)
(-7.57641 -0.341502 0)
(-7.72051 -0.33981 0)
(-7.86501 -0.206605 0)
(-7.86096 0.0963745 0)
(-7.81506 0.0993827 0)
(-7.81308 0.0723728 0)
(-7.85924 -0.0510377 0)
(-7.89687 0.13593 0)
(-8.00736 0.217239 0)
(-8.18986 0.225056 0)
(-8.40678 0.220954 0)
(-8.62399 0.222765 0)
(-8.82148 0.159688 0)
(-8.98388 0.0697731 0)
(-9.1294 0.0109651 0)
(-9.26396 0.0406554 0)
(-9.36634 0.155637 0)
(-9.58742 -0.0114903 0)
(-10.0327 -0.0145119 0)
(-10.5039 0.0771348 0)
(-10.8521 0.0803633 0)
(-10.9584 0.237921 0)
(-10.9237 0.292606 0)
(-10.9155 0.287359 0)
(-10.9579 0.165968 0)
(-10.9892 -0.0925685 0)
(-11.0368 -0.178633 0)
(-10.9722 -0.253013 0)
(-10.8591 -0.315043 0)
(-10.6989 -0.363711 0)
(-10.4919 -0.416738 0)
(-10.2446 -0.473189 0)
(-9.97782 -0.3551 0)
(-10.0475 0.350601 0)
(-10.2627 0.0258816 0)
(-10.2813 -0.349451 0)
(-10.1459 -0.414249 0)
(-9.96936 -0.344381 0)
(-9.8514 -0.148969 0)
(-9.95557 0.185352 0)
(-10.1947 0.157588 0)
(-10.385 0.0552661 0)
(-10.5643 0.0921128 0)
(-10.7644 0.100113 0)
(-10.9884 0.140557 0)
(-11.2398 0.168082 0)
(-11.5215 0.190939 0)
(-11.8338 0.210836 0)
(-12.1767 0.236513 0)
(-12.5555 0.270685 0)
(-12.9649 0.292094 0)
(-13.3806 0.302141 0)
(-13.7677 0.298928 0)
(-14.0913 0.306574 0)
(-14.3299 0.30004 0)
(-14.4669 0.264309 0)
(-14.4888 0.224858 0)
(-14.3535 0.187482 0)
(-14.1246 0.173045 0)
(-13.8712 0.132431 0)
(-13.5802 0.0706635 0)
(-13.2613 0.0466149 0)
(-12.9213 -0.00763781 0)
(-12.531 -0.0927087 0)
(-12.0986 -0.197194 0)
(-11.622 -0.282258 0)
(-11.0907 -0.355563 0)
(-10.497 -0.41572 0)
(-9.83913 -0.4701 0)
(-9.12088 -0.536274 0)
(-8.34457 -0.621342 0)
(-7.52343 -0.709724 0)
(-6.70145 -0.797246 0)
(-5.92321 -0.838687 0)
(-5.22607 -0.856693 0)
(-4.60219 -0.866011 0)
(-4.01978 -0.862342 0)
(-3.45754 -0.861089 0)
(-2.89702 -0.882836 0)
(-2.33573 -0.89253 0)
(-1.75195 -0.951862 0)
(-1.06374 -1.14966 0)
(-0.208687 -1.18388 0)
(0.705351 -1.19867 0)
(1.65903 -1.23357 0)
(2.63527 -1.24871 0)
(3.58674 -1.22107 0)
(4.48714 -1.19618 0)
(5.33595 -1.1655 0)
(6.10093 -1.06359 0)
(6.77585 -0.929224 0)
(7.35044 -0.710927 0)
(7.81193 -0.427834 0)
(8.13348 -0.123138 0)
(8.31787 0.0938868 0)
(8.36052 0.198467 0)
(8.34818 0.186955 0)
(8.25676 0.211799 0)
(8.05622 0.296259 0)
(7.75707 0.383235 0)
(7.40613 0.421177 0)
(7.03475 0.441331 0)
(6.63955 0.434111 0)
(6.19967 0.410381 0)
(5.6942 0.322534 0)
(5.10784 0.21775 0)
(4.46087 0.0953496 0)
(3.788 0.13792 0)
(3.13629 0.460083 0)
(2.40891 0.640255 0)
(1.71961 0.616864 0)
(1.16837 0.517725 0)
(0.801889 0.384321 0)
(0.579135 0.253723 0)
(0.383018 0.226874 0)
(0.172222 0.252017 0)
(-0.0772559 0.298905 0)
(-0.434825 0.364868 0)
(-0.951678 0.425301 0)
(-1.53758 0.492601 0)
(-2.14244 0.546083 0)
(-2.75586 0.596525 0)
(-3.37117 0.598372 0)
(-3.98578 0.60752 0)
(-4.62982 0.641202 0)
(-5.2449 0.580108 0)
(-5.71703 0.516221 0)
(-6.02683 0.448849 0)
(-6.29513 0.371042 0)
(-6.54366 0.274872 0)
(-6.71761 0.23911 0)
(-6.80324 0.16138 0)
(-6.84524 0.0884264 0)
(-6.83569 0.0073705 0)
(-6.78182 -0.0624079 0)
(-6.68727 -0.118693 0)
(-6.56373 -0.192871 0)
(-6.39579 -0.245344 0)
(-6.19791 -0.301362 0)
(-5.96635 -0.350376 0)
(-5.70675 -0.392213 0)
(-5.42211 -0.422453 0)
(-5.11925 -0.435626 0)
(-4.80488 -0.445974 0)
(-4.48179 -0.44834 0)
(-4.15674 -0.432508 0)
(-3.83714 -0.414072 0)
(-3.52389 -0.410918 0)
(-3.21387 -0.410844 0)
(-2.90906 -0.391028 0)
(-2.61436 -0.358308 0)
(-2.3315 -0.302688 0)
(-2.06116 -0.299905 0)
(-1.72457 -0.375857 0)
(-1.33238 -0.328915 0)
(-1.03542 -0.290809 0)
(-0.826391 -0.257048 0)
(-0.673057 -0.230278 0)
(-0.553427 -0.200846 0)
(-0.461651 -0.157221 0)
(-0.39709 -0.103164 0)
(-0.36913 -0.0467873 0)
(-0.366274 -0.0176859 0)
(-0.392862 0.00473372 0)
(-0.442308 0.0177219 0)
(-0.512741 0.0271792 0)
(-0.603669 0.0448402 0)
(-0.719959 0.0965249 0)
(-0.883486 0.146721 0)
(-1.08722 0.187304 0)
(-1.30729 0.177177 0)
(-1.45367 0.113188 0)
(-1.56114 0.0741254 0)
(-1.6664 0.130184 0)
(-1.77521 0.143269 0)
(-1.88144 0.128618 0)
(-1.98375 0.0926829 0)
(-2.07534 0.0457881 0)
(-2.16109 0.0281847 0)
(-2.22482 -0.00676575 0)
(-2.27585 -0.0380447 0)
(-2.31364 -0.0117403 0)
(-2.35126 0.0408806 0)
(-2.45704 0.0538467 0)
(-2.60308 0.0541447 0)
(-2.7466 0.00642835 0)
(-2.88239 -0.0169748 0)
(-2.99852 -0.0454645 0)
(-3.09011 -0.0933869 0)
(-3.17834 -0.106762 0)
(-3.25927 -0.0893047 0)
(-3.33766 -0.0569532 0)
(-3.42876 -0.0683681 0)
(-3.52241 -0.0837709 0)
(-3.61607 -0.0776556 0)
(-3.72201 -0.0445685 0)
(-3.87484 0.00523277 0)
(-4.09094 0.0816852 0)
(-4.38805 0.0699552 0)
(-4.73508 0.076309 0)
(-5.10809 0.141456 0)
(-5.50361 0.221534 0)
(-5.91452 0.259857 0)
(-6.32587 0.275749 0)
(-6.74256 0.276386 0)
(-7.15001 0.256268 0)
(-7.53172 0.229115 0)
(-7.88526 0.219802 0)
(-8.19607 0.203782 0)
(-8.45225 0.190628 0)
(-8.64851 0.209996 0)
(-8.77635 0.193758 0)
(-8.84375 0.172003 0)
(-8.87216 0.148913 0)
(-8.84657 0.124505 0)
(-8.77255 0.0749554 0)
(-8.65781 0.0518737 0)
(-8.51574 0.0283785 0)
(-8.35676 -0.00849352 0)
(-8.16634 -0.0207342 0)
(-7.97245 -0.0933938 0)
(-7.73258 -0.168171 0)
(-7.42955 -0.204463 0)
(-7.03168 -0.215693 0)
(-6.62222 -0.260754 0)
(-6.14552 -0.304127 0)
(-5.59645 -0.365691 0)
(-5.21003 -0.403774 0)
(-4.98132 -0.410084 0)
(-4.75226 -0.393834 0)
(-4.50719 -0.363257 0)
(-4.25532 -0.332816 0)
(-4.00287 -0.318745 0)
(-3.75391 -0.316808 0)
(-3.51087 -0.327383 0)
(-3.27326 -0.334799 0)
(-3.04421 -0.321575 0)
(-2.8271 -0.296184 0)
(-2.62447 -0.257846 0)
(-2.44228 -0.210726 0)
(-2.27902 -0.176819 0)
(-2.13121 -0.157857 0)
(-2.00123 -0.135052 0)
(-1.88815 -0.118352 0)
(-1.78952 -0.111377 0)
(-1.70506 -0.111712 0)
(-1.63252 -0.132392 0)
(-1.56365 -0.133296 0)
(-1.50643 -0.11225 0)
(-1.46237 -0.0801556 0)
(-1.43555 -0.0486149 0)
(-1.41353 -0.0387942 0)
(-1.39686 -0.0396102 0)
(-1.38199 -0.0435683 0)
(-1.36945 -0.03245 0)
(-1.3687 -0.0535982 0)
(-1.38275 -0.0934733 0)
(-1.41009 -0.100455 0)
(-1.44622 -0.0947031 0)
(-1.48722 -0.0957643 0)
(-1.53158 -0.0963343 0)
(-1.57702 -0.0780183 0)
(-1.64214 -0.0536642 0)
(-1.75725 -0.00975416 0)
(-1.96971 -0.00291737 0)
(-2.29585 0.022273 0)
(-2.71448 0.098241 0)
(-3.15719 0.191741 0)
(-3.57838 0.254256 0)
(-3.97247 0.278081 0)
(-4.36258 0.313744 0)
(-4.77677 0.351482 0)
(-5.20566 0.351109 0)
(-5.62945 0.325373 0)
(-6.04698 0.302888 0)
(-6.46466 0.285918 0)
(-6.87244 0.255399 0)
(-7.25691 0.226601 0)
(-7.60998 0.207197 0)
(-7.92561 0.192611 0)
(-8.19856 0.192178 0)
(-8.41909 0.179129 0)
(-8.58675 0.189815 0)
(-8.70115 0.191451 0)
(-8.75508 0.19169 0)
(-8.76953 0.170814 0)
(-8.74158 0.114193 0)
(-8.68402 0.0474634 0)
(-8.60332 0.0880041 0)
(-8.48005 0.0590966 0)
(-8.3126 0.0309937 0)
(-8.12305 -0.00698965 0)
(-7.892 -0.0710779 0)
(-7.65607 -0.17649 0)
(-7.37021 -0.248814 0)
(-7.00325 -0.28876 0)
(-6.5672 -0.297843 0)
(-6.14962 -0.318969 0)
(-5.69442 -0.347792 0)
(-5.18769 -0.325995 0)
(-4.85131 -0.349446 0)
(-4.67039 -0.314234 0)
(-4.46707 -0.326085 0)
(-4.24849 -0.33966 0)
(-4.02026 -0.34287 0)
(-3.7901 -0.34558 0)
(-3.5611 -0.341078 0)
(-3.33812 -0.316514 0)
(-3.12937 -0.270849 0)
(-2.93928 -0.223005 0)
(-2.76792 -0.185799 0)
(-2.61429 -0.155992 0)
(-2.48195 -0.125762 0)
(-2.36901 -0.11271 0)
(-2.27183 -0.113084 0)
(-2.18964 -0.101123 0)
(-2.12473 -0.0767529 0)
(-2.07954 -0.0469595 0)
(-2.04919 -0.0261457 0)
(-2.0338 -0.00724044 0)
(-2.036 0.00788865 0)
(-2.05237 0.023152 0)
(-2.07968 0.035724 0)
(-2.11737 0.042406 0)
(-2.16387 0.0496576 0)
(-2.21885 0.0575388 0)
(-2.28148 0.0658033 0)
(-2.35084 0.0742694 0)
(-2.42594 0.0824526 0)
(-2.50567 0.0900629 0)
(-2.58911 0.0972378 0)
(-2.67524 0.100177 0)
(-2.76207 0.0980645 0)
(-2.84838 0.0927485 0)
(-2.93267 0.0826712 0)
(-3.01323 0.0695537 0)
(-3.08967 0.0567447 0)
(-3.16097 0.0419083 0)
(-3.22611 0.0300986 0)
(-3.28593 0.0249527 0)
(-3.33792 0.013114 0)
(-3.38361 0.00739186 0)
(-3.42146 0.00773487 0)
(-3.45176 0.00953092 0)
(-3.46887 0.0110453 0)
(-3.48654 0.0371037 0)
(-3.52732 -0.00530992 0)
(-3.60965 -0.00371736 0)
(-3.68831 -0.00985119 0)
(-3.76427 -0.0199858 0)
(-3.83496 -0.0248208 0)
(-3.90345 -0.0221629 0)
(-3.9765 -7.44351e-05 0)
(-4.06256 0.0363198 0)
(-4.15671 0.0240511 0)
(-4.23845 0.00372843 0)
(-4.31554 0.00291737 0)
(-4.39301 0.0131933 0)
(-4.4703 0.0207437 0)
(-4.54299 0.0204926 0)
(-4.61227 0.0239486 0)
(-4.68253 0.0350449 0)
(-4.74781 0.0395841 0)
(-4.81901 0.0479995 0)
(-4.88848 0.0601552 0)
(-4.94676 0.0657105 0)
(-4.97219 0.0764766 0)
(-5.00056 0.0682315 0)
(-5.03077 0.0650587 0)
(-5.04938 0.0688719 0)
(-5.06018 0.0694447 0)
(-5.05134 0.0669672 0)
(-5.03115 0.0609083 0)
(-5.02258 0.0548182 0)
(-5.00887 0.0308873 0)
(-4.97779 0.00941035 0)
(-4.93717 -0.0154498 0)
(-4.88089 -0.0389058 0)
(-4.81042 -0.0601596 0)
(-4.72799 -0.0714752 0)
(-4.63736 -0.0872422 0)
(-4.53867 -0.122242 0)
(-4.42701 -0.1498 0)
(-4.30811 -0.167587 0)
(-4.18308 -0.174957 0)
(-4.05499 -0.177075 0)
(-3.92542 -0.173463 0)
(-3.79675 -0.165996 0)
(-3.67059 -0.156123 0)
(-3.54937 -0.142496 0)
(-3.43466 -0.131683 0)
(-3.32645 -0.12458 0)
(-3.22673 -0.115279 0)
(-3.13415 -0.125081 0)
(-3.04582 -0.133903 0)
(-2.96137 -0.125779 0)
(-2.88744 -0.101235 0)
(-2.82409 -0.0822237 0)
(-2.76937 -0.0747974 0)
(-2.72296 -0.0695688 0)
(-2.68475 -0.0577398 0)
(-2.65597 -0.0382297 0)
(-2.63812 -0.0154504 0)
(-2.62794 -0.00253796 0)
(-2.629 0.00374034 0)
(-2.63165 -0.00487954 0)
(-2.63309 -0.0146729 0)
(-2.63744 -0.0188686 0)
(-2.64148 -0.0157992 0)
(-2.64309 -0.00876295 0)
(-2.64746 -0.00219624 0)
(-2.64656 0.00640033 0)
(-2.64569 0.025676 0)
(-2.68105 0.0184828 0)
(-2.76507 0.00783678 0)
(-2.85787 -0.00593975 0)
(-2.95434 -0.0132326 0)
(-3.04929 -0.019812 0)
(-3.14445 -0.019377 0)
(-3.24315 -0.0120098 0)
(-3.34746 -0.00764479 0)
(-3.45218 -0.0127654 0)
(-3.55794 -0.00538319 0)
(-3.67144 0.00844134 0)
(-3.79257 0.0182382 0)
(-3.91914 0.0287216 0)
(-4.05492 0.0352194 0)
(-4.19241 0.0206583 0)
(-4.32593 0.00659217 0)
(-4.4573 -0.00525954 0)
(-4.58635 -0.0131175 0)
(-4.73079 0.0126492 0)
(-4.9007 0.0681873 0)
(-5.01795 0.15718 0)
(-5.15576 0.216749 0)
(-5.291 0.169341 0)
(-5.43087 0.146423 0)
(-5.54805 0.111681 0)
(-5.64026 0.084095 0)
(-5.71939 0.0611271 0)
(-5.7552 0.0307958 0)
(-5.75274 0.00663222 0)
(-5.70908 -0.000162298 0)
(-5.60041 -0.0341102 0)
(-5.43819 -0.0770249 0)
(-5.26503 -0.0794465 0)
(-5.11312 -0.0316093 0)
(-0.0484966 -0.0495336 0)
(-0.148955 -0.0347822 0)
(-0.256563 0.0123242 0)
(-0.375433 0.0459864 0)
(-0.499289 0.0540729 0)
(-0.624024 0.0674093 0)
(-0.75698 0.0740012 0)
(-0.898131 0.0841382 0)
(-1.04456 0.0974147 0)
(-1.19286 0.102972 0)
(-1.33902 0.0976191 0)
(-1.47995 0.090512 0)
(-1.62067 0.090786 0)
(-1.77353 0.0956092 0)
(-1.94388 0.0994627 0)
(-2.12276 0.0826665 0)
(-2.28426 0.0203037 0)
(-2.41951 -0.0648072 0)
(-2.55521 -0.112483 0)
(-2.68953 -0.146021 0)
(-2.80316 -0.0723057 0)
(-2.89899 -0.0413514 0)
(-2.96287 -0.0142208 0)
(-3.03415 -0.0191908 0)
(-3.15568 -0.0204379 0)
(-3.32212 0.000743382 0)
(-3.4925 -0.0726317 0)
(-3.68466 -0.0307533 0)
(-3.88342 0.0200373 0)
(-4.0891 0.0711753 0)
(-4.28246 0.110573 0)
(-4.44211 0.162148 0)
(-4.58672 0.179683 0)
(-4.73655 0.258454 0)
(-4.96138 0.333933 0)
(-5.21642 0.4407 0)
(-5.53209 0.448798 0)
(-5.90688 0.366184 0)
(-6.2709 0.254188 0)
(-6.58577 0.167792 0)
(-6.86187 0.16495 0)
(-7.09183 0.14514 0)
(-7.23494 0.346909 0)
(-7.48258 0.453485 0)
(-7.75159 0.526284 0)
(-8.01799 0.340827 0)
(-8.2301 0.0732627 0)
(-8.3663 -0.0927955 0)
(-8.45957 0.140864 0)
(-8.63076 0.135057 0)
(-8.69476 -0.0826494 0)
(-8.75056 0.0146526 0)
(-8.83433 0.155549 0)
(-8.9786 0.130569 0)
(-9.09708 0.0825786 0)
(-9.21261 0.0435417 0)
(-9.25036 -0.231943 0)
(-9.35401 -0.22024 0)
(-9.45992 -0.129422 0)
(-9.5277 0.0339986 0)
(-9.67958 -0.0329461 0)
(-9.92743 0.0100767 0)
(-10.2082 0.0942394 0)
(-10.4875 0.157031 0)
(-10.7212 0.204657 0)
(-10.9007 0.193192 0)
(-11.0408 0.173487 0)
(-11.1839 0.183645 0)
(-11.3341 0.194977 0)
(-11.5171 0.239108 0)
(-11.6687 0.600961 0)
(-11.9575 0.83462 0)
(-12.2784 0.803014 0)
(-12.5008 0.419918 0)
(-12.663 0.0650217 0)
(-12.8119 0.00322086 0)
(-12.8959 0.0222689 0)
(-12.9422 0.0389903 0)
(-12.9699 0.0455829 0)
(-12.998 -0.079557 0)
(-12.9916 -0.216279 0)
(-13.0085 -0.276901 0)
(-13.0194 -0.311432 0)
(-13.0442 -0.275352 0)
(-13.128 -0.234911 0)
(-13.2247 -0.123427 0)
(-13.2046 -0.0197249 0)
(-13.1095 -0.116764 0)
(-13.1063 -0.297335 0)
(-13.1589 -0.288892 0)
(-13.1937 -0.170731 0)
(-13.3125 -0.0614577 0)
(-13.348 0.124719 0)
(-13.4135 0.170411 0)
(-13.4767 0.120315 0)
(-13.5871 0.198724 0)
(-13.6802 0.304252 0)
(-13.7659 0.368345 0)
(-13.8533 0.434476 0)
(-13.9498 0.494104 0)
(-14.0509 0.551036 0)
(-14.1569 0.60901 0)
(-14.2532 0.684666 0)
(-14.3538 0.729617 0)
(-14.4474 0.727838 0)
(-14.5169 0.670075 0)
(-14.5622 0.590702 0)
(-14.5754 0.482584 0)
(-14.5821 0.326179 0)
(-14.542 0.102174 0)
(-14.4562 -0.164396 0)
(-14.2377 -0.263973 0)
(-13.9975 -0.356561 0)
(-13.713 -0.462455 0)
(-13.3906 -0.491021 0)
(-13.0531 -0.593213 0)
(-12.6686 -0.755183 0)
(-12.2293 -0.908903 0)
(-11.7464 -1.06772 0)
(-11.2001 -1.23806 0)
(-10.5704 -1.42995 0)
(-9.82337 -1.64793 0)
(-8.93671 -1.8658 0)
(-7.93285 -2.03773 0)
(-6.86561 -2.11569 0)
(-5.7892 -2.09494 0)
(-4.73465 -2.01531 0)
(-3.72222 -1.88901 0)
(-2.74693 -1.80249 0)
(-1.79446 -1.74512 0)
(-0.852595 -1.70286 0)
(0.0953959 -1.67374 0)
(1.07795 -1.62315 0)
(2.11064 -1.5935 0)
(3.16536 -1.66709 0)
(4.24063 -1.66846 0)
(5.32647 -1.62448 0)
(6.39759 -1.5806 0)
(7.44241 -1.52274 0)
(8.44809 -1.41725 0)
(9.41723 -1.31955 0)
(10.3532 -1.21621 0)
(11.1947 -1.05053 0)
(11.8928 -0.92225 0)
(12.393 -0.859621 0)
(12.7439 -0.791002 0)
(12.9943 -0.596094 0)
(13.1808 -0.36128 0)
(13.295 -0.169062 0)
(13.4317 -0.00714533 0)
(13.4462 0.278994 0)
(13.4562 0.478001 0)
(13.3603 0.587157 0)
(13.166 0.606225 0)
(12.8231 0.640845 0)
(12.2715 0.725764 0)
(11.4869 0.89209 0)
(10.4944 1.06713 0)
(9.40017 1.31505 0)
(8.28666 1.41397 0)
(7.30776 1.26732 0)
(6.57473 1.06643 0)
(6.08184 0.883202 0)
(5.65365 0.778262 0)
(5.13443 0.731446 0)
(4.39397 0.625455 0)
(3.4785 0.526715 0)
(2.52236 0.521271 0)
(1.60009 0.647218 0)
(0.697805 0.865106 0)
(-0.156892 1.1033 0)
(-0.904903 1.21794 0)
(-1.54366 1.29688 0)
(-2.15489 1.36743 0)
(-2.77679 1.44143 0)
(-3.40921 1.43558 0)
(-4.04388 1.46892 0)
(-4.69284 1.51183 0)
(-5.26622 1.33031 0)
(-5.68069 1.05832 0)
(-6.07008 0.87846 0)
(-6.34364 0.663058 0)
(-6.5217 0.559619 0)
(-6.68817 0.436857 0)
(-6.81014 0.252615 0)
(-6.84651 0.0237107 0)
(-6.71936 -0.192663 0)
(-6.47833 -0.341994 0)
(-6.15612 -0.431261 0)
(-5.76817 -0.523285 0)
(-5.32285 -0.599758 0)
(-4.85102 -0.693847 0)
(-4.36514 -0.78289 0)
(-3.87747 -0.863278 0)
(-3.39025 -0.930908 0)
(-2.9073 -0.970059 0)
(-2.43471 -1.00387 0)
(-1.96491 -1.02336 0)
(-1.49839 -1.00989 0)
(-1.04765 -0.97792 0)
(-0.608018 -0.940419 0)
(-0.162064 -0.878159 0)
(0.289149 -0.792329 0)
(0.737477 -0.705594 0)
(1.18566 -0.609959 0)
(1.62868 -0.558048 0)
(2.01238 -0.493382 0)
(2.33462 -0.425879 0)
(2.61188 -0.346285 0)
(2.84269 -0.278011 0)
(3.01248 -0.24054 0)
(3.11106 -0.214397 0)
(3.14825 -0.174485 0)
(3.12647 -0.121226 0)
(3.07649 -0.045992 0)
(2.98332 0.00789751 0)
(2.86321 0.053325 0)
(2.72894 0.0910997 0)
(2.60178 0.13908 0)
(2.46683 0.159507 0)
(2.31596 0.220523 0)
(2.12568 0.28071 0)
(1.90332 0.307617 0)
(1.65307 0.28764 0)
(1.36477 0.287249 0)
(1.04599 0.248987 0)
(0.719751 0.32584 0)
(0.385912 0.349005 0)
(0.0457837 0.341588 0)
(-0.302345 0.311094 0)
(-0.649691 0.270309 0)
(-0.986394 0.254946 0)
(-1.31741 0.250287 0)
(-1.66572 0.273219 0)
(-2.03054 0.321304 0)
(-2.34716 0.282335 0)
(-2.55175 0.263669 0)
(-2.71749 0.27672 0)
(-2.87753 0.225564 0)
(-3.03405 0.194137 0)
(-3.18204 0.153905 0)
(-3.31827 0.0979919 0)
(-3.45517 0.0824282 0)
(-3.58821 0.0987414 0)
(-3.72025 0.138235 0)
(-3.8628 0.141466 0)
(-4.0056 0.123355 0)
(-4.15093 0.129983 0)
(-4.2977 0.189621 0)
(-4.45987 0.293295 0)
(-4.63406 0.460049 0)
(-4.96996 0.610331 0)
(-5.44128 0.66132 0)
(-5.90852 0.714168 0)
(-6.34337 0.793158 0)
(-6.74839 0.813645 0)
(-7.11475 0.827671 0)
(-7.4635 0.826247 0)
(-7.77854 0.780158 0)
(-8.05118 0.719192 0)
(-8.29545 0.671114 0)
(-8.48513 0.58684 0)
(-8.6368 0.507916 0)
(-8.74597 0.419633 0)
(-8.79759 0.315694 0)
(-8.84113 0.236266 0)
(-8.87596 0.164669 0)
(-8.85648 0.0349314 0)
(-8.78131 -0.0851114 0)
(-8.6624 -0.162309 0)
(-8.53222 -0.203979 0)
(-8.39142 -0.27505 0)
(-8.20597 -0.341922 0)
(-7.97907 -0.448942 0)
(-7.71095 -0.579131 0)
(-7.41507 -0.71504 0)
(-7.04688 -0.88143 0)
(-6.53999 -1.04106 0)
(-5.97295 -1.15867 0)
(-5.4075 -1.1912 0)
(-4.8225 -1.03555 0)
(-4.15009 -0.938634 0)
(-3.45947 -0.83018 0)
(-2.77089 -0.719153 0)
(-2.10196 -0.621448 0)
(-1.46916 -0.553568 0)
(-0.911218 -0.517478 0)