/*--------------------------------*- C++ -*----------------------------------*\
| =========                 |                                                 |
| \\      /  F ield         | OpenFOAM: The Open Source CFD Toolbox           |
|  \\    /   O peration     | Version:  v1812                                 |
|   \\  /    A nd           | Web:      www.OpenFOAM.com                      |
|    \\/     M anipulation  |                                                 |
\*---------------------------------------------------------------------------*/
FoamFile
{
    version     2.0;
    format      ascii;
    class       volScalarField;
    location    "0.5";
    object      p;
}
// * * * * * * * * * * * * * * * * * * * * * * * * * * * * * * * * * * * * * //

dimensions      [1 -1 -2 0 0 0 0];


internalField   nonuniform List<scalar> 
64512
(
1
1
1
1
1
1
1
1
1
1
1
1
1
1
1
1
1
1
1
1
1
1
1
1
1
1
1
1
1
1
1
1
1
1
1
1
1
1
1
1
1
1
1
1
1
1
1
1
1
1
1
1
1
1
1
1
1
1
1.00001
1.00083
1.06052
5.16814
10.5191
11.3158
11.3445
11.3713
11.399
11.4094
11.4416
11.4793
11.5909
11.6941
11.8129
11.9203
12.0313
12.1238
12.1856
12.2236
12.2449
12.2462
12.2321
12.2138
12.1947
12.188
12.2042
12.2486
12.319
12.4006
12.4742
12.5303
12.5485
12.5285
12.4887
12.4382
12.3894
12.3545
1
1
1
1
1
1
1
1
1
1
1
1
1
1
1
1
1
1
1
1
1
1
1
1
1
1
1
1
1
1
1
1
1
1
1
1
1
1
1
1
1
1
1
1
1
1
1
1
1
1
1
1
1
1
1
1
1
1
1.00001
1.00085
1.06239
5.34879
10.5831
11.3038
11.3319
11.3789
11.4106
11.4231
11.4543
11.509
11.602
11.7136
11.8326
11.9435
12.0576
12.1471
12.2132
12.2568
12.2825
12.2871
12.2724
12.2454
12.2173
12.2088
12.2234
12.2634
12.3299
12.41
12.4829
12.5382
12.5553
12.5347
12.4948
12.4446
12.3945
12.3561
1
1
1
1
1
1
1
1
1
1
1
1
1
1
1
1
1
1
1
1
1
1
1
1
1
1
1
1
1
1
1
1
1
1
1
1
1
1
1
1
1
1
1
1
1
1
1
1
1
1
1
1
1
1
1
1
1
1
1.00001
1.00078
1.05559
4.76433
10.4812
11.3511
11.435
11.4615
11.4747
11.4867
11.5131
11.5743
11.6836
11.7862
11.9113
12.0304
12.1293
12.2057
12.2623
12.2978
12.3178
12.3183
12.3019
12.273
12.2452
12.2275
12.2332
12.2666
12.3288
12.4073
12.4809
12.5378
12.5582
12.5405
12.5042
12.4587
12.4092
12.3769
1
1
1
1
1
1
1
1
1
1
1
1
1
1
1
1
1
1
1
1
1
1
1
1
1
1
1
1
1
1
1
1
1
1
1
1
1
1
1
1
1
1
1
1
1
1
1
1
1
1
1
1
1
1
1
1
1
1
1.00001
1.00089
1.0655
5.56673
10.5717
11.2415
11.2626
11.3091
11.3546
11.4064
11.4635
11.5086
11.6084
11.697
11.8074
11.9228
12.0143
12.0919
12.1484
12.1843
12.2092
12.218
12.2089
12.1921
12.1756
12.1709
12.1873
12.2328
12.3057
12.3906
12.4661
12.5211
12.539
12.519
12.4797
12.4326
12.3831
12.3478
1
1
1
1
1
1
1
1
1
1
1
1
1
1
1
1
1
1
1
1
1
1
1
1
1
1
1
1
1
1
1
1
1
1
1
1
1
1
1
1
1
1
1
1
1
1
1
1
1
1
1
1
1
1
1
1
1
1
1.00001
1.00078
1.05693
4.95816
10.2556
11.1482
11.1998
11.3163
11.3972
11.4576
11.5014
11.6192
11.7209
11.7967
11.8993
11.9926
12.063
12.1174
12.1444
12.1759
12.1976
12.2041
12.1956
12.1805
12.1654
12.1615
12.179
12.2245
12.2958
12.3794
12.4548
12.5112
12.5311
12.512
12.4728
12.422
12.3743
12.3431
1
1
1
1
1
1
1
1
1
1
1
1
1
1
1
1
1
1
1
1
1
1
1
1
1
1
1
1
1
1
1
1
1
1
1
1
1
1
1
1
1
1
1
1
1
1
1
1
1
1
1
1
1
1
1
1
1
1
1.00001
1.00066
1.04859
4.40538
10.2305
11.2037
11.2413
11.3381
11.4376
11.4784
11.5069
11.5624
11.6548
11.7465
11.8544
11.9461
12.0217
12.0735
12.12
12.1514
12.1744
12.1846
12.1804
12.1679
12.1541
12.1509
12.1686
12.2141
12.2852
12.3687
12.4444
12.5013
12.5223
12.5046
12.4665
12.4134
12.3558
12.3258
1
1
1
1
1
1
1
1
1
1
1
1
1
1
1
1
1
1
1
1
1
1
1
1
1
1
1
1
1
1
1
1
1
1
1
1
1
1
1
1
1
1
1
1
1
1
1
1
1
1
1
1
1
1
1
1
1
1
1.00001
1.0006
1.04468
4.19015
10.1358
11.1242
11.139
11.2351
11.3277
11.3943
11.4676
11.5526
11.6643
11.753
11.8584
11.9415
12.0114
12.0578
12.1015
12.1318
12.1542
12.1673
12.1681
12.1598
12.1485
12.1466
12.1644
12.2093
12.279
12.3606
12.434
12.4888
12.5078
12.4886
12.4494
12.3966
12.3374
12.3069
1
1
1
1
1
1
1
1
1
1
1
1
1
1
1
1
1
1
1
1
1
1
1
1
1
1
1
1
1
1
1
1
1
1
1
1
1
1
1
1
1
1
1
1
1
1
1
1
1
1
1
1
1
1
1
1
1
1
1.00001
1.00052
1.03924
3.87342
10.0391
11.1014
11.1707
11.2375
11.3115
11.3863
11.4523
11.5478
11.6582
11.7383
11.8373
11.9127
11.9748
12.0196
12.0663
12.1002
12.1275
12.1447
12.1494
12.1436
12.135
12.1359
12.1559
12.2022
12.2715
12.3513
12.4222
12.4746
12.4919
12.4718
12.4325
12.3825
12.3151
12.2917
1
1
1
1
1
1
1
1
1
1
1
1
1
1
1
1
1
1
1
1
1
1
1
1
1
1
1
1
1
1
1
1
1
1
1
1
1
1
1
1
1
1
1
1
1
1
1
1
1
1
1
1
1
1
1
1
1
1
1.00001
1.00038
1.02922
3.18579
10.0003
11.1473
11.1746
11.2213
11.2942
11.3786
11.4493
11.5544
11.6676
11.7528
11.85
11.9233
11.9739
12.0101
12.0481
12.0744
12.0998
12.1169
12.1252
12.1239
12.1202
12.1247
12.1471
12.1937
12.2612
12.3381
12.4058
12.4552
12.4706
12.451
12.4141
12.3687
12.2977
12.2869
1
1
1
1
1
1
1
1
1
1
1
1
1
1
1
1
1
1
1
1
1
1
1
1
1
1
1
1
1
1
1
1
1
1
1
1
1
1
1
1
1
1
1
1
1
1
1
1
1
1
1
1
1
1
1
1
1
1
1
1.00027
1.02117
2.62081
9.85441
11.0533
11.1446
11.2176
11.299
11.3815
11.4527
11.5558
11.6599
11.7427
11.8292
11.895
11.9345
11.9686
12.0027
12.0304
12.0592
12.0805
12.0932
12.0964
12.0975
12.1061
12.1323
12.1807
12.2478
12.3229
12.3881
12.4346
12.4468
12.4242
12.3853
12.343
12.3015
12.2493
1
1
1
1
1
1
1
1
1
1
1
1
1
1
1
1
1
1
1
1
1
1
1
1
1
1
1
1
1
1
1
1
1
1
1
1
1
1
1
1
1
1
1
1
1
1
1
1
1
1
1
1
1
1
1
1
1
1
1
1.00018
1.01398
2.09099
9.27701
11.0305
11.1224
11.2136
11.3003
11.3845
11.4635
11.5623
11.6604
11.7422
11.8244
11.8821
11.9116
11.9407
11.9697
11.9971
12.0261
12.0494
12.064
12.0702
12.075
12.0877
12.1172
12.1669
12.2332
12.306
12.3681
12.4113
12.4216
12.3981
12.3557
12.3078
12.2666
12.2331
1
1
1
1
1
1
1
1
1
1
1
1
1
1
1
1
1
1
1
1
1
1
1
1
1
1
1
1
1
1
1
1
1
1
1
1
1
1
1
1
1
1
1
1
1
1
1
1
1
1
1
1
1
1
1
1
1
1
1
1.0001
1.00801
1.64075
8.57695
11.1246
11.1672
11.2285
11.3067
11.3928
11.4686
11.5625
11.656
11.7327
11.8086
11.8573
11.8832
11.9093
11.9361
11.9652
11.993
12.0178
12.0337
12.0422
12.0504
12.0671
12.1001
12.1517
12.2175
12.2878
12.3464
12.3855
12.3927
12.3682
12.3256
12.2757
12.24
12.2076
1
1
1
1
1
1
1
1
1
1
1
1
1
1
1
1
1
1
1
1
1
1
1
1
1
1
1
1
1
1
1
1
1
1
1
1
1
1
1
1
1
1
1
1
1
1
1
1
1
1
1
1
1
1
1
1
1
1
1
1.00004
1.00334
1.26752
7.87448
11.0783
11.1598
11.2496
11.3253
11.4123
11.4889
11.5675
11.6455
11.7127
11.7823
11.8275
11.8556
11.8769
11.9011
11.9328
11.9601
11.9858
12.0021
12.0125
12.0233
12.0431
12.0791
12.1324
12.1978
12.266
12.3213
12.3562
12.3605
12.3351
12.2926
12.2401
12.2087
12.1806
1
1
1
1
1
1
1
1
1
1
1
1
1
1
1
1
1
1
1
1
1
1
1
1
1
1
1
1
1
1
1
1
1
1
1
1
1
1
1
1
1
1
1
1
1
1
1
1
1
1
1
1
1
1
1
1
1
1
1
1.00002
1.00151
1.10529
7.34494
10.9765
11.1275
11.213
11.27
11.3663
11.4516
11.5287
11.6074
11.6746
11.7394
11.7828
11.8174
11.8397
11.8649
11.8991
11.9255
11.9513
11.9685
11.9811
11.995
12.0178
12.0563
12.1107
12.1754
12.2409
12.2925
12.3229
12.3239
12.2976
12.2552
12.1998
12.1708
12.1486
1
1
1
1
1
1
1
1
1
1
1
1
1
1
1
1
1
1
1
1
1
1
1
1
1
1
1
1
1
1
1
1
1
1
1
1
1
1
1
1
1
1
1
1
1
1
1
1
1
1
1
1
1
1
1
1
1
1
1
1.00002
1.00124
1.08773
6.73142
10.7919
11.1247
11.2107
11.2649
11.362
11.4485
11.5172
11.5892
11.6509
11.7109
11.7531
11.7832
11.7993
11.8217
11.8571
11.8864
11.9158
11.9359
11.9514
11.9676
11.9919
12.031
12.085
12.148
12.2106
12.2588
12.2855
12.2841
12.2563
12.2131
12.1533
12.1273
12.1182
1
1
1
1
1
1
1
1
1
1
1
1
1
1
1
1
1
1
1
1
1
1
1
1
1
1
1
1
1
1
1
1
1
1
1
1
1
1
1
1
1
1
1
1
1
1
1
1
1
1
1
1
1
1
1
1
1
1
1
1.00002
1.00108
1.07688
6.11664
10.5632
11.1025
11.1793
11.2367
11.3346
11.4394
11.5045
11.5703
11.6246
11.6715
11.7067
11.7311
11.7493
11.7738
11.8121
11.8448
11.8778
11.9018
11.9207
11.9397
11.9654
12.0043
12.0567
12.117
12.1758
12.2201
12.243
12.24
12.2118
12.1679
12.1037
12.0762
12.0827
1
1
1
1
1
1
1
1
1
1
1
1
1
1
1
1
1
1
1
1
1
1
1
1
1
1
1
1
1
1
1
1
1
1
1
1
1
1
1
1
1
1
1
1
1
1
1
1
1
1
1
1
1
1
1
1
1
1
1
1.00001
1.0009
1.06481
5.41587
10.3929
11.046
11.1256
11.2102
11.3223
11.4325
11.4883
11.5386
11.5857
11.6264
11.6611
11.6847
11.7043
11.7293
11.7667
11.8016
11.8373
11.8657
11.8885
11.9104
11.9371
11.9748
12.0242
12.0804
12.1344
12.1744
12.1933
12.1886
12.1617
12.1216
12.0616
12.0143
12.0355
1
1
1
1
1
1
1
1
1
1
1
1
1
1
1
1
1
1
1
1
1
1
1
1
1
1
1
1
1
1
1
1
1
1
1
1
1
1
1
1
1
1
1
1
1
1
1
1
1
1
1
1
1
1
1
1
1
1
1
1.00001
1.00068
1.05051
4.57489
10.1632
11.04
11.0834
11.2467
11.3344
11.4142
11.455
11.4883
11.5306
11.5749
11.6126
11.6388
11.6611
11.6863
11.7229
11.7592
11.7966
11.8286
11.8554
11.8801
11.9073
11.9427
11.9879
12.0389
12.0872
12.1227
12.1381
12.1322
12.1057
12.0667
12.0147
11.9592
11.973
1
1
1
1
1
1
1
1
1
1
1
1
1
1
1
1
1
1
1
1
1
1
1
1
1
1
1
1
1
1
1
1
1
1
1
1
1
1
1
1
1
1
1
1
1
1
1
1
1
1
1
1
1
1
1
1
1
1
1
1.00001
1.00042
1.03279
3.45613
9.88261
11.0881
11.1402
11.2735
11.3218
11.3677
11.412
11.4372
11.4762
11.5233
11.5623
11.5913
11.6156
11.6435
11.6785
11.7152
11.7531
11.7877
11.8184
11.846
11.8735
11.9062
11.9463
11.9907
12.0322
12.0625
12.0747
12.0688
12.0445
12.0064
11.9586
11.8925
11.9192
1
1
1
1
1
1
1
1
1
1
1
1
1
1
1
1
1
1
1
1
1
1
1
1
1
1
1
1
1
1
1
1
1
1
1
1
1
1
1
1
1
1
1
1
1
1
1
1
1
1
1
1
1
1
1
1
1
1
1
1
1.00018
1.01462
2.17992
9.51324
11.3138
11.1994
11.2468
11.262
11.3098
11.3456
11.3769
11.4142
11.4626
11.5058
11.5423
11.5717
11.6019
11.634
11.6688
11.7062
11.743
11.7774
11.8077
11.8352
11.8647
11.8988
11.9351
11.969
11.9939
12.0031
11.9972
11.9761
11.9427
11.8988
11.8138
11.8663
1
1
1
1
1
1
1
1
1
1
1
1
1
1
1
1
1
1
1
1
1
1
1
1
1
1
1
1
1
1
1
1
1
1
1
1
1
1
1
1
1
1
1
1
1
1
1
1
1
1
1
1
1
1
1
1
1
1
1
1
1.00005
1.00361
1.28344
8.40343
11.2543
11.1535
11.1612
11.1995
11.2379
11.2839
11.3074
11.3469
11.4088
11.4573
11.4975
11.5293
11.5577
11.5881
11.6212
11.6579
11.6962
11.733
11.7647
11.7912
11.8167
11.8439
11.8711
11.8964
11.915
11.9203
11.9148
11.8992
11.8747
11.8341
11.7341
11.8136
1
1
1
1
1
1
1
1
1
1
1
1
1
1
1
1
1
1
1
1
1
1
1
1
1
1
1
1
1
1
1
1
1
1
1
1
1
1
1
1
1
1
1
1
1
1
1
1
1
1
1
1
1
1
1
1
1
1
1
1
1.00002
1.00135
1.09546
6.98393
10.9503
11.0713
11.0796
11.1231
11.17
11.207
11.2414
11.298
11.3666
11.4095
11.4482
11.4824
11.5114
11.5417
11.5735
11.6088
11.6466
11.6835
11.7149
11.7393
11.7605
11.7804
11.7983
11.8156
11.8282
11.8291
11.8214
11.8067
11.7921
11.7686
11.6613
11.7389
1
1
1
1
1
1
1
1
1
1
1
1
1
1
1
1
1
1
1
1
1
1
1
1
1
1
1
1
1
1
1
1
1
1
1
1
1
1
1
1
1
1
1
1
1
1
1
1
1
1
1
1
1
1
1
1
1
1
1
1
1.00001
1.00102
1.07253
5.86706
10.6053
10.9591
10.9783
11.0431
11.113
11.1431
11.2213
11.2639
11.3208
11.3595
11.3974
11.4351
11.4658
11.4967
11.5269
11.5598
11.5954
11.6299
11.6589
11.6799
11.696
11.708
11.7159
11.7248
11.7317
11.7296
11.7205
11.7023
11.6796
11.6681
11.6528
11.6075
1
1
1
1
1
1
1
1
1
1
1
1
1
1
1
1
1
1
1
1
1
1
1
1
1
1
1
1
1
1
1
1
1
1
1
1
1
1
1
1
1
1
1
1
1
1
1
1
1
1
1
1
1
1
1
1
1
1
1
1
1.00001
1.0008
1.05693
4.90442
10.2719
10.8262
10.8652
10.9559
11.0119
11.1031
11.1574
11.2213
11.2642
11.3032
11.3429
11.3842
11.4187
11.4513
11.48
11.5097
11.5407
11.5704
11.5954
11.6123
11.6227
11.6263
11.6253
11.6259
11.6265
11.6216
11.612
11.5948
11.57
11.5514
11.5295
11.5335
1
1
1
1
1
1
1
1
1
1
1
1
1
1
1
1
1
1
1
1
1
1
1
1
1
1
1
1
1
1
1
1
1
1
1
1
1
1
1
1
1
1
1
1
1
1
1
1
1
1
1
1
1
1
1
1
1
1
1
1
1.00001
1.00056
1.04119
3.95027
9.9962
10.6662
10.7275
10.8662
10.9686
11.0702
11.1376
11.1765
11.2067
11.2427
11.2887
11.332
11.3705
11.4042
11.4303
11.4554
11.4807
11.5051
11.5254
11.5383
11.5421
11.5364
11.527
11.5186
11.5114
11.5017
11.4889
11.4711
11.4483
11.4282
11.4166
11.4174
1
1
1
1
1
1
1
1
1
1
1
1
1
1
1
1
1
1
1
1
1
1
1
1
1
1
1
1
1
1
1
1
1
1
1
1
1
1
1
1
1
1
1
1
1
1
1
1
1
1
1
1
1
1
1
1
1
1
1
1
1
1.00028
1.02129
2.60406
9.73584
10.4833
10.7136
10.9235
10.9897
11.0375
11.0959
11.1277
11.1629
11.1946
11.2355
11.279
11.3223
11.3537
11.3761
11.3958
11.4151
11.4337
11.4483
11.4559
11.4528
11.4381
11.4197
11.4019
11.3869
11.3722
11.3561
11.3362
11.3117
11.2804
11.2732
11.2845
1
1
1
1
1
1
1
1
1
1
1
1
1
1
1
1
1
1
1
1
1
1
1
1
1
1
1
1
1
1
1
1
1
1
1
1
1
1
1
1
1
1
1
1
1
1
1
1
1
1
1
1
1
1
1
1
1
1
1
1
1
1.00008
1.00632
1.4926
8.63517
10.5867
10.9254
10.9308
10.944
10.9929
11.0559
11.0834
11.1298
11.1478
11.1896
11.2296
11.2715
11.2978
11.3164
11.3304
11.3427
11.3548
11.3634
11.3647
11.3539
11.3314
11.3033
11.2751
11.25
11.2264
11.2033
11.1802
11.155
11.1178
11.071
11.1296
1
1
1
1
1
1
1
1
1
1
1
1
1
1
1
1
1
1
1
1
1
1
1
1
1
1
1
1
1
1
1
1
1
1
1
1
1
1
1
1
1
1
1
1
1
1
1
1
1
1
1
1
1
1
1
1
1
1
1
1
1
1.00002
1.00151
1.10418
6.91527
10.3521
10.847
10.9183
10.9223
10.9816
11.0277
11.0449
11.0892
11.1071
11.1456
11.1821
11.2161
11.2382
11.2509
11.2582
11.2629
11.2678
11.2697
11.264
11.2452
11.2146
11.1766
11.1368
11.0996
11.0649
11.0324
11.0016
10.969
10.9241
10.8676
10.8801
1
1
1
1
1
1
1
1
1
1
1
1
1
1
1
1
1
1
1
1
1
1
1
1
1
1
1
1
1
1
1
1
1
1
1
1
1
1
1
1
1
1
1
1
1
1
1
1
1
1
1
1
1
1
1
1
1
1
1
1
1
1.00001
1.00084
1.06181
5.2676
10.0838
10.7403
10.8065
10.8661
10.9206
10.9604
10.9823
11.0303
11.0666
11.0962
11.1344
11.1559
11.1751
11.1797
11.1792
11.1764
11.1735
11.1675
11.1535
11.127
11.0876
11.039
10.9865
10.9347
10.8849
10.8354
10.785
10.7328
10.673
10.5883
10.6133
1
1
1
1
1
1
1
1
1
1
1
1
1
1
1
1
1
1
1
1
1
1
1
1
1
1
1
1
1
1
1
1
1
1
1
1
1
1
1
1
1
1
1
1
1
1
1
1
1
1
1
1
1
1
1
1
1
1
1
1
1
1.00001
1.00047
1.036
3.6795
9.77537
10.681
10.7015
10.7675
10.8952
10.9946
11.0301
11.0207
11.0224
11.0335
11.0718
11.0903
11.1051
11.1032
11.095
11.0833
11.0713
11.0563
11.0335
10.9988
10.9502
10.89
10.823
10.7537
10.6846
10.614
10.5404
10.4623
10.373
10.2523
10.1805
1
1
1
1
1
1
1
1
1
1
1
1
1
1
1
1
1
1
1
1
1
1
1
1
1
1
1
1
1
1
1
1
1
1
1
1
1
1
1
1
1
1
1
1
1
1
1
1
1
1
1
1
1
1
1
1
1
1
1
1
1
1
1.00017
1.01336
2.05665
9.25373
10.6521
10.8254
10.8426
10.8584
10.8857
10.9137
10.9243
10.9417
10.9632
11.0046
11.0195
11.0285
11.0186
11.0021
10.9823
10.961
10.9366
10.9048
10.8615
10.8033
10.7308
10.6479
10.5588
10.4663
10.3667
10.2521
10.1134
9.9463
9.71681
9.61133
1
1
1
1
1
1
1
1
1
1
1
1
1
1
1
1
1
1
1
1
1
1
1
1
1
1
1
1
1
1
1
1
1
1
1
1
1
1
1
1
1
1
1
1
1
1
1
1
1
1
1
1
1
1
1
1
1
1
1
1
1
1
1.00003
1.00247
1.15257
7.69059
10.3286
10.7668
10.7539
10.8086
10.8547
10.8559
10.8656
10.8734
10.8989
10.9203
10.9323
10.9326
10.9219
10.9014
10.8746
10.8437
10.8097
10.7689
10.717
10.6488
10.5632
10.4627
10.3505
10.2283
10.0892
9.92145
9.71091
9.44486
9.07879
8.50884
1
1
1
1
1
1
1
1
1
1
1
1
1
1
1
1
1
1
1
1
1
1
1
1
1
1
1
1
1
1
1
1
1
1
1
1
1
1
1
1
1
1
1
1
1
1
1
1
1
1
1
1
1
1
1
1
1
1
1
1
1
1
1.00001
1.00097
1.07119
5.72332
9.99321
10.6908
10.6973
10.7543
10.8022
10.7841
10.7961
10.8037
10.8079
10.8229
10.8556
10.8529
10.8313
10.796
10.758
10.7185
10.6768
10.6279
10.5668
10.488
10.3887
10.2699
10.1326
9.97669
9.79237
9.56149
9.2375
8.72827
7.77139
5.70006
1
1
1
1
1
1
1
1
1
1
1
1
1
1
1
1
1
1
1
1
1
1
1
1
1
1
1
1
1
1
1
1
1
1
1
1
1
1
1
1
1
1
1
1
1
1
1
1
1
1
1
1
1
1
1
1
1
1
1
1
1
1
1.00001
1.00051
1.03863
3.85111
9.57377
10.5968
10.6133
10.6567
10.6875
10.6715
10.7035
10.7251
10.7545
10.7592
10.758
10.7487
10.7249
10.6863
10.6421
10.5937
10.5417
10.483
10.4119
10.3227
10.2104
10.0734
9.9103
9.71816
9.48123
9.17063
8.71345
7.98666
6.82368
4.6251
1
1
1
1
1
1
1
1
1
1
1
1
1
1
1
1
1
1
1
1
1
1
1
1
1
1
1
1
1
1
1
1
1
1
1
1
1
1
1
1
1
1
1
1
1
1
1
1
1
1
1
1
1
1
1
1
1
1
1
1
1
1
1
1.00015
1.01192
1.90534
8.93588
10.6686
10.6834
10.6507
10.6429
10.64
10.6465
10.6596
10.6643
10.6674
10.6702
10.661
10.63
10.5825
10.5264
10.4665
10.4038
10.3343
10.253
10.1535
10.0296
9.87622
9.68832
9.45938
9.17096
8.78747
8.24547
7.44753
6.24339
4.27959
1
1
1
1
1
1
1
1
1
1
1
1
1
1
1
1
1
1
1
1
1
1
1
1
1
1
1
1
1
1
1
1
1
1
1
1
1
1
1
1
1
1
1
1
1
1
1
1
1
1
1
1
1
1
1
1
1
1
1
1
1
1
1
1.00003
1.00212
1.13484
7.21006
10.3669
10.4573
10.4936
10.5337
10.5272
10.5392
10.5731
10.5856
10.5876
10.5856
10.5716
10.5325
10.4759
10.4105
10.3411
10.2663
10.1853
10.0939
9.98563
9.85135
9.68328
9.47351
9.21238
8.88567
8.45617
7.88594
7.07151
6.0708
4.79475
1
1
1
1
1
1
1
1
1
1
1
1
1
1
1
1
1
1
1
1
1
1
1
1
1
1
1
1
1
1
1
1
1
1
1
1
1
1
1
1
1
1
1
1
1
1
1
1
1
1
1
1
1
1
1
1
1
1
1
1
1
1
1
1.00001
1.00082
1.06115
5.14622
9.95355
10.3621
10.3858
10.4618
10.4704
10.4836
10.5095
10.5132
10.51
10.5009
10.477
10.4298
10.3676
10.2949
10.2175
10.1326
10.0414
9.93971
9.82134
9.67639
9.49485
9.26787
8.98359
8.63221
8.18455
7.6051
6.8543
5.97751
4.91898
1
1
1
1
1
1
1
1
1
1
1
1
1
1
1
1
1
1
1
1
1
1
1
1
1
1
1
1
1
1
1
1
1
1
1
1
1
1
1
1
1
1
1
1
1
1
1
1
1
1
1
1
1
1
1
1
1
1
1
1
1
1
1
1
1.00034
1.02635
2.9719
9.42885
10.3046
10.3035
10.3993
10.4132
10.4175
10.434
10.4269
10.4188
10.4019
10.3732
10.3253
10.2592
10.1834
10.1014
10.0081
9.90622
9.79225
9.66136
9.50553
9.31285
9.07474
8.77797
8.41542
7.96513
7.39932
6.7157
5.90432
5.01559
1
1
1
1
1
1
1
1
1
1
1
1
1
1
1
1
1
1
1
1
1
1
1
1
1
1
1
1
1
1
1
1
1
1
1
1
1
1
1
1
1
1
1
1
1
1
1
1
1
1
1
1
1
1
1
1
1
1
1
1
1
1
1
1
1.00007
1.00479
1.27355
8.0107
10.2909
10.2762
10.3243
10.3494
10.3376
10.3471
10.3355
10.3212
10.3058
10.2767
10.228
10.1581
10.078
9.99002
9.88816
9.77601
9.65137
9.50948
9.34448
9.1433
8.89818
8.59547
8.23005
7.78622
7.2408
6.61427
5.87553
5.09543
1
1
1
1
1
1
1
1
1
1
1
1
1
1
1
1
1
1
1
1
1
1
1
1
1
1
1
1
1
1
1
1
1
1
1
1
1
1
1
1
1
1
1
1
1
1
1
1
1
1
1
1
1
1
1
1
1
1
1
1
1
1
1
1
1.00002
1.00109
1.07872
5.77124
9.84946
10.1945
10.2921
10.2959
10.2824
10.2864
10.2663
10.2366
10.2091
10.1737
10.1225
10.0517
9.96962
9.87873
9.77271
9.65414
9.52095
9.36866
9.19366
8.9842
8.73401
8.43127
8.0696
7.63769
7.1165
6.53804
5.87214
5.16434
1
1
1
1
1
1
1
1
1
1
1
1
1
1
1
1
1
1
1
1
1
1
1
1
1
1
1
1
1
1
1
1
1
1
1
1
1
1
1
1
1
1
1
1
1
1
1
1
1
1
1
1
1
1
1
1
1
1
1
1
1
1
1
1
1.00001
1.00042
1.03241
3.37797
9.44144
10.2176
10.1989
10.2107
10.2233
10.2303
10.2086
10.1641
10.1197
10.073
10.016
9.9447
9.86488
9.77464
9.66755
9.54256
9.40013
9.23731
9.0528
8.83737
8.58471
8.28576
7.92962
7.51407
7.02504
6.49052
5.90879
5.27167
1
1
1
1
1
1
1
1
1
1
1
1
1
1
1
1
1
1
1
1
1
1
1
1
1
1
1
1
1
1
1
1
1
1
1
1
1
1
1
1
1
1
1
1
1
1
1
1
1
1
1
1
1
1
1
1
1
1
1
1
1
1
1
1
1
1.00008
1.00616
1.37577
8.063
10.1336
10.18
10.158
10.153
10.1541
10.136
10.0868
10.0421
9.99061
9.92561
9.84772
9.76246
9.66822
9.55786
9.42823
9.28027
9.11085
8.92042
8.70137
8.44732
8.15258
7.80421
7.40867
6.95232
6.46103
5.93041
5.35748
1
1
1
1
1
1
1
1
1
1
1
1
1
1
1
1
1
1
1
1
1
1
1
1
1
1
1
1
1
1
1
1
1
1
1
1
1
1
1
1
1
1
1
1
1
1
1
1
1
1
1
1
1
1
1
1
1
1
1
1
1
1
1
1
1
1.00002
1.00115
1.08131
5.63709
9.68124
10.1295
10.1368
10.1219
10.1008
10.0744
10.0105
9.9604
9.90126
9.83044
9.748
9.65776
9.56124
9.45107
9.32067
9.17005
8.99568
8.79917
8.57566
8.32073
8.03082
7.69377
7.31991
6.8964
6.44479
5.95325
5.42995
1
1
1
1
1
1
1
1
1
1
1
1
1
1
1
1
1
1
1
1
1
1
1
1
1
1
1
1
1
1
1
1
1
1
1
1
1
1
1
1
1
1
1
1
1
1
1
1
1
1
1
1
1
1
1
1
1
1
1
1
1
1
1
1
1
1.00001
1.00037
1.02874
3.072
9.28103
10.1696
10.1199
10.0717
10.0259
9.99242
9.91887
9.86031
9.8026
9.73678
9.65522
9.56489
9.46616
9.35216
9.21677
9.06045
8.88089
8.6805
8.45616
8.20336
7.91859
7.59676
7.242
6.85005
6.42264
5.97802
5.47658
1
1
1
1
1
1
1
1
1
1
1
1
1
1
1
1
1
1
1
1
1
1
1
1
1
1
1
1
1
1
1
1
1
1
1
1
1
1
1
1
1
1
1
1
1
1
1
1
1
1
1
1
1
1
1
1
1
1
1
1
1
1
1
1
1
1
1.00007
1.00491
1.27388
7.64322
10.1059
10.0786
9.99614
9.93772
9.90631
9.83018
9.76857
9.71372
9.64955
9.56897
9.47801
9.37443
9.25573
9.11742
8.95889
8.77806
8.57732
8.34986
8.09882
7.81863
7.51193
7.17265
6.8114
6.40666
6.01069
5.52811
1
1
1
1
1
1
1
1
1
1
1
1
1
1
1
1
1
1
1
1
1
1
1
1
1
1
1
1
1
1
1
1
1
1
1
1
1
1
1
1
1
1
1
1
1
1
1
1
1
1
1
1
1
1
1
1
1
1
1
1
1
1
1
1
1
1
1.00001
1.00094
1.06721
4.99541
9.59395
9.93767
9.91095
9.89687
9.84748
9.75875
9.68916
9.62253
9.55481
9.4762
9.39001
9.29065
9.17218
9.03383
8.87155
8.68549
8.47868
8.24997
8.00242
7.7297
7.43707
7.11368
6.77676
6.39364
6.0303
5.5777
1
1
1
1
1
1
1
1
1
1
1
1
1
1
1
1
1
1
1
1
1
1
1
1
1
1
1
1
1
1
1
1
1
1
1
1
1
1
1
1
1
1
1
1
1
1
1
1
1
1
1
1
1
1
1
1
1
1
1
1
1
1
1
1
1
1
1
1.00024
1.01897
2.34816
8.86607
9.90471
9.87644
9.84746
9.77739
9.69043
9.62149
9.55002
9.47695
9.39225
9.3111
9.21213
9.09149
8.95052
8.78576
8.59862
8.39076
8.16547
7.92203
7.65508
7.37214
7.06078
6.74405
6.38405
6.05184
5.64313
1
1
1
1
1
1
1
1
1
1
1
1
1
1
1
1
1
1
1
1
1
1
1
1
1
1
1
1
1
1
1
1
1
1
1
1
1
1
1
1
1
1
1
1
1
1
1
1
1
1
1
1
1
1
1
1
1
1
1
1
1
1
1
1
1
1
1
1.00004
1.00283
1.16404
6.63407
9.71436
9.76478
9.70261
9.66305
9.61296
9.56316
9.49483
9.41308
9.31405
9.22158
9.12085
9.00394
8.86557
8.70711
8.52458
8.31601
8.09137
7.84997
7.59011
7.31652
7.02044
6.71736
6.38096
6.06738
5.68488
1
1
1
1
1
1
1
1
1
1
1
1
1
1
1
1
1
1
1
1
1
1
1
1
1
1
1
1
1
1
1
1
1
1
1
1
1
1
1
1
1
1
1
1
1
1
1
1
1
1
1
1
1
1
1
1
1
1
1
1
1
1
1
1
1
1
1
1.00001
1.00055
1.04212
3.74777
9.44672
9.59684
9.56528
9.57957
9.53888
9.49982
9.43552
9.35306
9.24452
9.14346
9.03512
8.91293
8.77818
8.62178
8.44346
8.23755
8.02036
7.78632
7.53615
7.27036
6.9859
6.69427
6.37919
6.08279
5.72538
1
1
1
1
1
1
1
1
1
1
1
1
1
1
1
1
1
1
1
1
1
1
1
1
1
1
1
1
1
1
1
1
1
1
1
1
1
1
1
1
1
1
1
1
1
1
1
1
1
1
1
1
1
1
1
1
1
1
1
1
1
1
1
1
1
1
1
1
1.00009
1.00658
1.38906
7.91397
9.47346
9.56528
9.54688
9.48756
9.44681
9.38907
9.31083
9.19537
9.08029
8.95684
8.82414
8.68715
8.53313
8.36374
8.16875
7.95966
7.73165
7.49066
7.23224
6.96317
6.68156
6.38514
6.09358
5.76117
1
1
1
1
1
1
1
1
1
1
1
1
1
1
1
1
1
1
1
1
1
1
1
1
1
1
1
1
1
1
1
1
1
1
1
1
1
1
1
1
1
1
1
1
1
1
1
1
1
1
1
1
1
1
1
1
1
1
1
1
1
1
1
1
1
1
1
1
1.00001
1.00097
1.06986
4.79788
9.16654
9.52542
9.48365
9.42288
9.3814
9.32496
9.24985
9.139
9.02042
8.89116
8.7493
8.60606
8.45256
8.28531
8.09475
7.89229
7.67344
7.44588
7.19818
6.94193
6.66985
6.38765
6.10643
5.79864
1
1
1
1
1
1
1
1
1
1
1
1
1
1
1
1
1
1
1
1
1
1
1
1
1
1
1
1
1
1
1
1
1
1
1
1
1
1
1
1
1
1
1
1
1
1
1
1
1
1
1
1
1
1
1
1
1
1
1
1
1
1
1
1
1
1
1
1
1
1.00015
1.01239
1.83687
8.41288
9.35571
9.39753
9.35561
9.2999
9.23962
9.16848
9.0706
8.96686
8.83441
8.68592
8.53646
8.3784
8.2117
8.02755
7.83644
7.6268
7.40892
7.16853
6.92687
6.66467
6.39997
6.12372
5.83332
1
1
1
1
1
1
1
1
1
1
1
1
1
1
1
1
1
1
1
1
1
1
1
1
1
1
1
1
1
1
1
1
1
1
1
1
1
1
1
1
1
1
1
1
1
1
1
1
1
1
1
1
1
1
1
1
1
1
1
1
1
1
1
1
1
1
1
1
1
1.00002
1.00157
1.10428
5.47639
8.9036
9.36697
9.31596
9.23098
9.15537
9.08225
8.98814
8.88989
8.76483
8.62391
8.4758
8.31984
8.15448
7.97246
7.78191
7.57679
7.36896
7.13888
6.91072
6.65687
6.40647
6.13658
5.86815
1
1
1
1
1
1
1
1
1
1
1
1
1
1
1
1
1
1
1
1
1
1
1
1
1
1
1
1
1
1
1
1
1
1
1
1
1
1
1
1
1
1
1
1
1
1
1
1
1
1
1
1
1
1
1
1
1
1
1
1
1
1
1
1
1
1
1
1
1
1
1.00022
1.01742
2.12107
8.37659
9.37365
9.30434
9.19743
9.09558
9.00599
8.90734
8.8167
8.69682
8.56381
8.41701
8.26327
8.09839
7.91737
7.73441
7.53904
7.34011
7.11623
6.89759
6.65375
6.41842
6.15339
5.90262
1
1
1
1
1
1
1
1
1
1
1
1
1
1
1
1
1
1
1
1
1
1
1
1
1
1
1
1
1
1
1
1
1
1
1
1
1
1
1
1
1
1
1
1
1
1
1
1
1
1
1
1
1
1
1
1
1
1
1
1
1
1
1
1
1
1
1
1
1
1
1.00003
1.0021
1.13267
5.71884
8.90513
9.24185
9.15972
9.05377
8.94525
8.83325
8.74399
8.62813
8.49924
8.3587
8.21163
8.05408
7.87892
7.69567
7.50228
7.30906
7.09322
6.88605
6.64906
6.42681
6.1655
5.9355
1
1
1
1
1
1
1
1
1
1
1
1
1
1
1
1
1
1
1
1
1
1
1
1
1
1
1
1
1
1
1
1
1
1
1
1
1
1
1
1
1
1
1
1
1
1
1
1
1
1
1
1
1
1
1
1
1
1
1
1
1
1
1
1
1
1
1
1
1
1
1
1.00025
1.01979
2.20414
8.25941
9.24381
9.13531
9.01504
8.88891
8.76589
8.67531
8.56172
8.4374
8.30424
8.16149
8.00734
7.83518
7.65727
7.47297
7.28787
7.07933
6.87691
6.64795
6.4352
6.17997
5.96815
1
1
1
1
1
1
1
1
1
1
1
1
1
1
1
1
1
1
1
1
1
1
1
1
1
1
1
1
1
1
1
1
1
1
1
1
1
1
1
1
1
1
1
1
1
1
1
1
1
1
1
1
1
1
1
1
1
1
1
1
1
1
1
1
1
1
1
1
1
1
1
1.00003
1.00224
1.14014
5.58768
8.84566
9.01789
8.94032
8.84566
8.71799
8.62352
8.51161
8.38672
8.2548
8.11744
7.97058
7.80774
7.63166
7.44868
7.26489
7.06269
6.86738
6.64754
6.44201
6.19548
5.99615
1
1
1
1
1
1
1
1
1
1
1
1
1
1
1
1
1
1
1
1
1
1
1
1
1
1
1
1
1
1
1
1
1
1
1
1
1
1
1
1
1
1
1
1
1
1
1
1
1
1
1
1
1
1
1
1
1
1
1
1
1
1
1
1
1
1
1
1
1
1
1
1
1.00024
1.0186
2.08413
8.02975
9.01202
8.90783
8.80676
8.67193
8.57701
8.46231
8.33538
8.20907
8.07786
7.93583
7.7766
7.60079
7.42426
7.24544
7.05366
6.85944
6.64906
6.44703
6.21178
6.01918
1
1
1
1
1
1
1
1
1
1
1
1
1
1
1
1
1
1
1
1
1
1
1
1
1
1
1
1
1
1
1
1
1
1
1
1
1
1
1
1
1
1
1
1
1
1
1
1
1
1
1
1
1
1
1
1
1
1
1
1
1
1
1
1
1
1
1
1
1
1
1
1
1.00003
1.00197
1.12388
5.12361
8.68425
8.81639
8.71125
8.62411
8.54197
8.43241
8.30471
8.1774
8.04501
7.90605
7.75336
7.58183
7.40837
7.2288
7.04299
6.85031
6.65134
6.45262
6.23133
6.04047
1
1
1
1
1
1
1
1
1
1
1
1
1
1
1
1
1
1
1
1
1
1
1
1
1
1
1
1
1
1
1
1
1
1
1
1
1
1
1
1
1
1
1
1
1
1
1
1
1
1
1
1
1
1
1
1
1
1
1
1
1
1
1
1
1
1
1
1
1
1
1
1
1
1.00019
1.01464
1.83705
7.54589
8.77659
8.70025
8.59753
8.50839
8.39764
8.26557
8.13943
8.01397
7.8791
7.73007
7.55785
7.38784
7.21102
7.03536
6.84419
6.65443
6.4569
6.24813
6.05673
1
1
1
1
1
1
1
1
1
1
1
1
1
1
1
1
1
1
1
1
1
1
1
1
1
1
1
1
1
1
1
1
1
1
1
1
1
1
1
1
1
1
1
1
1
1
1
1
1
1
1
1
1
1
1
1
1
1
1
1
1
1
1
1
1
1
1
1
1
1
1
1
1
1.00002
1.00142
1.09167
4.33291
8.4605
8.68357
8.53464
8.47712
8.37957
8.25213
8.12059
7.99006
7.85261
7.70691
7.54101
7.37418
7.19841
7.02892
6.83735
6.65797
6.4645
6.26876
6.07423
1
1
1
1
1
1
1
1
1
1
1
1
1
1
1
1
1
1
1
1
1
1
1
1
1
1
1
1
1
1
1
1
1
1
1
1
1
1
1
1
1
1
1
1
1
1
1
1
1
1
1
1
1
1
1
1
1
1
1
1
1
1
1
1
1
1
1
1
1
1
1
1
1
1
1.00012
1.00931
1.52921
6.82958
8.58336
8.52513
8.44139
8.33624
8.21563
8.08587
7.966
7.83185
7.68792
7.52269
7.35579
7.18424
7.02272
6.83371
6.66446
6.47069
6.28564
6.08671
1
1
1
1
1
1
1
1
1
1
1
1
1
1
1
1
1
1
1
1
1
1
1
1
1
1
1
1
1
1
1
1
1
1
1
1
1
1
1
1
1
1
1
1
1
1
1
1
1
1
1
1
1
1
1
1
1
1
1
1
1
1
1
1
1
1
1
1
1
1
1
1
1
1
1.00001
1.0008
1.05544
3.28189
8.1854
8.57282
8.4182
8.32872
8.20954
8.07468
7.94467
7.80525
7.66233
7.50468
7.34205
7.17597
7.01905
6.83091
6.67027
6.47854
6.3039
6.10167
1
1
1
1
1
1
1
1
1
1
1
1
1
1
1
1
1
1
1
1
1
1
1
1
1
1
1
1
1
1
1
1
1
1
1
1
1
1
1
1
1
1
1
1
1
1
1
1
1
1
1
1
1
1
1
1
1
1
1
1
1
1
1
1
1
1
1
1
1
1
1
1
1
1
1
1.00006
1.00485
1.28091
5.86158
8.37927
8.36465
8.27768
8.16072
8.04798
7.92759
7.79197
7.64992
7.49449
7.33067
7.16911
7.01475
6.83196
6.68032
6.48572
6.31743
6.11422
1
1
1
1
1
1
1
1
1
1
1
1
1
1
1
1
1
1
1
1
1
1
1
1
1
1
1
1
1
1
1
1
1
1
1
1
1
1
1
1
1
1
1
1
1
1
1
1
1
1
1
1
1
1
1
1
1
1
1
1
1
1
1
1
1
1
1
1
1
1
1
1
1
1
1
1.00001
1.00037
1.02748
2.24409
7.65794
8.38038
8.31751
8.17917
8.05133
7.91204
7.77012
7.63053
7.48277
7.32133
7.16572
7.01217
6.83539
6.68863
6.48836
6.33027
6.136
1
1
1
1
1
1
1
1
1
1
1
1
1
1
1
1
1
1
1
1
1
1
1
1
1
1
1
1
1
1
1
1
1
1
1
1
1
1
1
1
1
1
1
1
1
1
1
1
1
1
1
1
1
1
1
1
1
1
1
1
1
1
1
1
1
1
1
1
1
1
1
1
1
1
1
1
1.00003
1.00219
1.13211
4.48893
8.11516
8.26682
8.1719
8.03669
7.90542
7.77016
7.63259
7.48709
7.3237
7.16941
7.0132
6.84433
6.70008
6.49281
6.34381
6.15995
1
1
1
1
1
1
1
1
1
1
1
1
1
1
1
1
1
1
1
1
1
1
1
1
1
1
1
1
1
1
1
1
1
1
1
1
1
1
1
1
1
1
1
1
1
1
1
1
1
1
1
1
1
1
1
1
1
1
1
1
1
1
1
1
1
1
1
1
1
1
1
1
1
1
1
1
1
1.00014
1.0109
1.55575
6.56718
8.14248
8.1238
7.98865
7.86248
7.75005
7.62079
7.48419
7.32598
7.17298
7.01491
6.85415
6.70553
6.49241
6.35921
6.18799
1
1
1
1
1
1
1
1
1
1
1
1
1
1
1
1
1
1
1
1
1
1
1
1
1
1
1
1
1
1
1
1
1
1
1
1
1
1
1
1
1
1
1
1
1
1
1
1
1
1
1
1
1
1
1
1
1
1
1
1
1
1
1
1
1
1
1
1
1
1
1
1
1
1
1
1
1
1.00001
1.00074
1.05094
2.8528
7.59478
8.05969
7.99049
7.88328
7.75907
7.62785
7.48993
7.33468
7.18332
7.02464
6.87167
6.71126
6.5031
6.38179
6.21622
1
1
1
1
1
1
1
1
1
1
1
1
1
1
1
1
1
1
1
1
1
1
1
1
1
1
1
1
1
1
1
1
1
1
1
1
1
1
1
1
1
1
1
1
1
1
1
1
1
1
1
1
1
1
1
1
1
1
1
1
1
1
1
1
1
1
1
1
1
1
1
1
1
1
1
1
1
1
1.00004
1.00347
1.20048
4.79407
7.67316
7.94921
7.88214
7.74685
7.62028
7.48315
7.3314
7.184
7.02683
6.88029
6.70478
6.52283
6.40782
6.24382
1
1
1
1
1
1
1
1
1
1
1
1
1
1
1
1
1
1
1
1
1
1
1
1
1
1
1
1
1
1
1
1
1
1
1
1
1
1
1
1
1
1
1
1
1
1
1
1
1
1
1
1
1
1
1
1
1
1
1
1
1
1
1
1
1
1
1
1
1
1
1
1
1
1
1
1
1
1
1
1.00019
1.01425
1.65092
6.23493
7.80375
7.84565
7.75222
7.5984
7.46703
7.33752
7.19554
7.03573
6.89469
6.71008
6.55984
6.43909
6.27294
1
1
1
1
1
1
1
1
1
1
1
1
1
1
1
1
1
1
1
1
1
1
1
1
1
1
1
1
1
1
1
1
1
1
1
1
1
1
1
1
1
1
1
1
1
1
1
1
1
1
1
1
1
1
1
1
1
1
1
1
1
1
1
1
1
1
1
1
1
1
1
1
1
1
1
1
1
1
1
1.00001
1.00076
1.05192
2.64214
6.99388
7.8588
7.77932
7.56663
7.47849
7.36758
7.20842
7.03065
6.88939
6.71686
6.59412
6.46148
6.29795
1
1
1
1
1
1
1
1
1
1
1
1
1
1
1
1
1
1
1
1
1
1
1
1
1
1
1
1
1
1
1
1
1
1
1
1
1
1
1
1
1
1
1
1
1
1
1
1
1
1
1
1
1
1
1
1
1
1
1
1
1
1
1
1
1
1
1
1
1
1
1
1
1
1
1
1
1
1
1
1
1.00003
1.00277
1.16157
4.07216
7.36408
7.66534
7.54388
7.49168
7.40355
7.21136
7.0243
6.88987
6.73913
6.62452
6.45977
6.31187
1
1
1
1
1
1
1
1
1
1
1
1
1
1
1
1
1
1
1
1
1
1
1
1
1
1
1
1
1
1
1
1
1
1
1
1
1
1
1
1
1
1
1
1
1
1
1
1
1
1
1
1
1
1
1
1
1
1
1
1
1
1
1
1
1
1
1
1
1
1
1
1
1
1
1
1
1
1
1
1
1
1.00012
1.00952
1.45245
5.29877
7.28527
7.59025
7.57163
7.42597
7.17789
7.01797
6.9099
6.78148
6.64287
6.44934
6.32237
1
1
1
1
1
1
1
1
1
1
1
1
1
1
1
1
1
1
1
1
1
1
1
1
1
1
1
1
1
1
1
1
1
1
1
1
1
1
1
1
1
1
1
1
1
1
1
1
1
1
1
1
1
1
1
1
1
1
1
1
1
1
1
1
1
1
1
1
1
1
1
1
1
1
1
1
1
1
1
1
1
1.00001
1.00042
1.02955
1.97166
5.9022
7.69177
7.65347
7.3329
7.10985
7.03022
6.97032
6.81052
6.62291
6.45021
6.34452
1
1
1
1
1
1
1
1
1
1
1
1
1
1
1
1
1
1
1
1
1
1
1
1
1
1
1
1
1
1
1
1
1
1
1
1
1
1
1
1
1
1
1
1
1
1
1
1
1
1
1
1
1
1
1
1
1
1
1
1
1
1
1
1
1
1
1
1
1
1
1
1
1
1
1
1
1
1
1
1
1
1
1.00002
1.00122
1.07555
2.74557
6.86647
7.38495
7.19339
7.11012
7.09967
7.06219
6.82669
6.60683
6.46851
6.38698
1
1
1
1
1
1
1
1
1
1
1
1
1
1
1
1
1
1
1
1
1
1
1
1
1
1
1
1
1
1
1
1
1
1
1
1
1
1
1
1
1
1
1
1
1
1
1
1
1
1
1
1
1
1
1
1
1
1
1
1
1
1
1
1
1
1
1
1
1
1
1
1
1
1
1
1
1
1
1
1
1
1
1
1.00004
1.00344
1.18379
3.78756
6.77797
7.20575
7.21245
7.19922
7.07042
6.78006
6.59802
6.52073
6.45015
1
1
1
1
1
1
1
1
1
1
1
1
1
1
1
1
1
1
1
1
1
1
1
1
1
1
1
1
1
1
1
1
1
1
1
1
1
1
1
1
1
1
1
1
1
1
1
1
1
1
1
1
1
1
1
1
1
1
1
1
1
1
1
1
1
1
1
1
1
1
1
1
1
1
1
1
1
1
1
1
1
1
1
1
1.00012
1.00921
1.36017
4.57044
7.12215
7.29126
7.171
6.95928
6.71591
6.59885
6.60021
6.51826
1
1
1
1
1
1
1
1
1
1
1
1
1
1
1
1
1
1
1
1
1
1
1
1
1
1
1
1
1
1
1
1
1
1
1
1
1
1
1
1
1
1
1
1
1
1
1
1
1
1
1
1
1
1
1
1
1
1
1
1
1
1
1
1
1
1
1
1
1
1
1
1
1
1
1
1
1
1
1
1
1
1
1
1
1
1.00031
1.02154
1.69258
5.47724
7.20442
7.08416
6.87689
6.73845
6.69428
6.69053
6.53753
1
1
1
1
1
1
1
1
1
1
1
1
1
1
1
1
1
1
1
1
1
1
1
1
1
1
1
1
1
1
1
1
1
1
1
1
1
1
1
1
1
1
1
1
1
1
1
1
1
1
1
1
1
1
1
1
1
1
1
1
1
1
1
1
1
1
1
1
1
1
1
1
1
1
1
1
1
1
1
1
1
1
1
1
1
1.00001
1.00086
1.05221
2.27325
6.02508
6.86375
6.90451
6.86116
6.85243
6.72152
6.5212
1
1
1
1
1
1
1
1
1
1
1
1
1
1
1
1
1
1
1
1
1
1
1
1
1
1
1
1
1
1
1
1
1
1
1
1
1
1
1
1
1
1
1
1
1
1
1
1
1
1
1
1
1
1
1
1
1
1
1
1
1
1
1
1
1
1
1
1
1
1
1
1
1
1
1
1
1
1
1
1
1
1
1
1
1
1
1.00003
1.00209
1.11023
2.83761
5.93877
7.01333
7.04792
6.90033
6.66667
6.51258
1
1
1
1
1
1
1
1
1
1
1
1
1
1
1
1
1
1
1
1
1
1
1
1
1
1
1
1