/*--------------------------------*- C++ -*----------------------------------*\
| =========                 |                                                 |
| \\      /  F ield         | OpenFOAM: The Open Source CFD Toolbox           |
|  \\    /   O peration     | Version:  v1812                                 |
|   \\  /    A nd           | Web:      www.OpenFOAM.com                      |
|    \\/     M anipulation  |                                                 |
\*---------------------------------------------------------------------------*/
FoamFile
{
    version     2.0;
    format      ascii;
    class       surfaceScalarField;
    location    "0.5";
    object      phi;
}
// * * * * * * * * * * * * * * * * * * * * * * * * * * * * * * * * * * * * * //

dimensions      [1 0 -1 0 0 0 0];
oriented        oriented;


internalField   nonuniform List<scalar> 
128384
(
0.00262501
-6.1288e-19
0.00262501
4.1358e-19
0.00262501
-7.19643e-19
0.00262501
2.03495e-18
0.00262501
2.0622e-18
0.00262501
-6.304e-19
0.00262501
-1.27293e-19
0.00262501
-6.28907e-20
0.00262501
1.1327e-18
0.00262501
7.12329e-19
0.00262501
-3.27311e-20
0.00262501
2.1738e-18
0.00262501
2.51991e-18
0.00262501
9.38417e-19
0.00262501
-1.22443e-19
0.00262501
1.48383e-18
0.00262501
5.21363e-19
0.00262501
7.1272e-19
0.00262501
-9.8522e-19
0.00262501
-3.00952e-19
0.00262501
-5.7851e-19
0.00262501
-4.96477e-20
0.00262501
-3.12849e-19
0.00262501
-3.80899e-19
0.00262501
7.52934e-19
0.00262501
2.88943e-20
0.00262501
-7.0489e-19
0.00262501
-6.62137e-19
0.00262501
6.83983e-20
0.00262501
9.84086e-19
0.00262501
1.30249e-18
0.00262501
-1.18187e-18
0.00262501
1.09479e-18
0.00262501
2.978e-19
0.00262501
9.18175e-19
0.00262501
-4.9943e-19
0.00262501
-6.683e-19
0.00262501
1.42645e-18
0.00262501
5.72233e-19
0.00262501
3.28911e-19
0.00262501
8.37118e-19
0.00262501
1.04146e-19
0.00262501
-4.54774e-20
0.00262501
4.03349e-19
0.00262501
2.61831e-18
0.00262501
1.12115e-18
0.00262501
1.42743e-19
0.00262501
1.95262e-19
0.00262501
2.19543e-19
0.00262501
-2.1068e-18
0.00262501
6.11206e-19
0.00262501
-5.13393e-19
0.00262501
1.45277e-18
0.00262501
1.57747e-19
0.00262501
-2.91308e-19
0.00262501
-3.97987e-19
0.00262501
2.60285e-15
0.00262501
-5.16586e-13
0.00262501
-4.29108e-12
0.00262494
-6.81996e-09
0.00261726
-2.71723e-07
0.00241603
-8.4684e-05
0.00222774
0.000163419
0.00225956
5.58331e-06
0.00227021
-1.58881e-05
0.00223723
6.16644e-06
0.00211495
8.82196e-05
0.00188941
0.000191562
0.00169593
0.000161766
0.00161043
7.01239e-05
0.00162408
1.38747e-05
0.00165222
1.06813e-05
0.00166133
3.04103e-05
0.00162583
7.26946e-05
0.00155581
9.34108e-05
0.00147969
8.22804e-05
0.00140296
7.14279e-05
0.00131782
7.19389e-05
0.00121941
7.86341e-05
0.00111166
8.45949e-05
0.0010053
8.33711e-05
0.000909436
7.44604e-05
0.000821097
6.97744e-05
0.00073167
7.42462e-05
0.000641909
7.91032e-05
0.000560923
7.80688e-05
0.000491117
7.34015e-05
0.000428311
6.89626e-05
0.000370365
6.47344e-05
0.000319009
5.87744e-05
0.000270361
5.37944e-05
0.000217089
5.4313e-05
0.000157337
5.69367e-05
9.30962e-05
5.697e-05
3.39055e-05
4.95293e-05
2.57046e-05
0.00262501
2.67405e-20
0.00262501
1.52479e-19
0.00262501
2.54607e-19
0.00262501
-4.32478e-21
0.00262501
-1.42884e-18
0.00262501
2.17728e-20
0.00262501
1.42718e-18
0.00262501
9.51861e-19
0.00262501
5.22528e-19
0.00262501
1.15778e-18
0.00262501
2.15459e-18
0.00262501
7.10711e-19
0.00262501
4.58831e-19
0.00262501
4.6822e-19
0.00262501
7.44824e-19
0.00262501
2.51319e-19
0.00262501
9.8309e-19
0.00262501
1.34283e-18
0.00262501
1.37303e-18
0.00262501
-3.03409e-19
0.00262501
-1.19051e-19
0.00262501
-1.54535e-19
0.00262501
1.03315e-18
0.00262501
1.47661e-18
0.00262501
3.53687e-19
0.00262501
5.76348e-19
0.00262501
8.13528e-19
0.00262501
4.451e-19
0.00262501
3.35946e-19
0.00262501
-3.2232e-19
0.00262501
-2.53453e-19
0.00262501
7.34418e-19
0.00262501
-1.26341e-18
0.00262501
-1.39591e-18
0.00262501
-1.44217e-18
0.00262501
6.3505e-19
0.00262501
1.39013e-18
0.00262501
1.73083e-18
0.00262501
5.82816e-19
0.00262501
1.28409e-18
0.00262501
7.69948e-19
0.00262501
6.39164e-19
0.00262501
6.91623e-19
0.00262501
8.0151e-19
0.00262501
8.30078e-19
0.00262501
1.55785e-18
0.00262501
2.14297e-18
0.00262501
5.1813e-20
0.00262501
-4.04349e-19
0.00262501
8.12558e-19
0.00262501
-2.92378e-19
0.00262501
2.16761e-20
0.00262501
-2.13667e-19
0.00262501
-2.91669e-19
0.00262501
3.7514e-18
0.00262501
2.33185e-16
0.00262501
3.05992e-14
0.00262501
2.08315e-12
0.00262501
2.77064e-10
0.0026249
1.9255e-08
0.00261399
2.46716e-06
0.00219814
4.62837e-05
0.00208793
0.000244578
0.00209117
4.31372e-05
0.00208243
-9.92006e-06
0.00204236
1.94406e-05
0.0019843
0.000112969
0.0019237
0.000217796
0.00184347
0.000227625
0.00176546
0.000147187
0.00173951
5.77913e-05
0.0017399
4.79169e-05
0.00172834
8.05414e-05
0.00168461
0.000149682
0.00163404
0.00016639
0.00157365
0.000148203
0.0015029
0.000136118
0.00142166
0.000139812
0.00133068
0.000150387
0.00123116
0.000161043
0.00112171
0.000168865
0.000999789
0.000172934
0.000873478
0.000175807
0.00076116
0.000171144
0.000668257
0.000161877
0.00059209
0.000151674
0.000527039
0.000142403
0.000467134
0.000135258
0.000409706
0.000128636
0.000356527
0.000118397
0.000306148
0.000108922
0.000253613
0.000107906
0.000197245
0.000110473
0.000133363
0.000113813
5.97536e-05
0.000113476
7.75208e-05
0.00262501
-7.30627e-19
0.00262501
-4.95742e-20
0.00262501
5.16982e-19
0.00262501
-6.79128e-19
0.00262501
1.3008e-18
0.00262501
1.7252e-18
0.00262501
2.1955e-19
0.00262501
-6.96053e-19
0.00262501
1.48035e-18
0.00262501
3.75177e-19
0.00262501
-8.68594e-19
0.00262501
-1.0337e-18
0.00262501
1.22258e-19
0.00262501
1.42977e-18
0.00262501
-2.32772e-20
0.00262501
-9.93107e-19
0.00262501
-1.08125e-18
0.00262501
-3.8413e-19
0.00262501
4.04566e-20
0.00262501
1.92553e-18
0.00262501
-5.01233e-19
0.00262501
-3.58305e-19
0.00262501
1.15524e-18
0.00262501
-2.32503e-20
0.00262501
9.67682e-21
0.00262501
1.56779e-18
0.00262501
-3.35147e-19
0.00262501
-4.11293e-19
0.00262501
-3.15212e-20
0.00262501
7.43693e-19
0.00262501
-1.06934e-18
0.00262501
-1.6729e-19
0.00262501
9.43803e-19
0.00262501
1.28856e-18
0.00262501
1.80792e-18
0.00262501
2.96386e-18
0.00262501
2.15956e-18
0.00262501
3.89822e-18
0.00262501
1.48041e-18
0.00262501
1.00224e-18
0.00262501
1.46597e-18
0.00262501
8.73304e-19
0.00262501
8.9718e-19
0.00262501
-1.50976e-19
0.00262501
-8.99591e-20
0.00262501
2.17382e-19
0.00262501
1.43721e-19
0.00262501
1.67664e-18
0.00262501
2.34754e-18
0.00262501
1.79065e-19
0.00262501
6.3727e-19
0.00262501
2.12712e-18
0.00262501
1.68562e-18
0.00262501
2.05576e-18
0.00262501
-6.61933e-18
0.00262501
-7.42576e-16
0.00262501
-5.41001e-14
0.00262501
-5.44147e-12
0.00262501
-3.83556e-10
0.00262499
-4.04466e-08
0.00262217
-2.97931e-06
0.00268004
-0.000291055
0.00260557
0.000311972
0.0025181
0.000153367
0.00237404
9.07563e-05
0.00223244
0.000109424
0.00211197
0.000196951
0.00201457
0.000288974
0.00195017
0.000283979
0.00189124
0.00021041
0.00183996
0.000117548
0.00181267
0.000106157
0.00178331
0.000148994
0.00174185
0.00022251
0.00168783
0.000239898
0.00161751
0.00022101
0.00153786
0.000206167
0.00145427
0.000208142
0.00136869
0.000216632
0.00128117
0.000227065
0.00118615
0.000240602
0.00107794
0.00025749
0.00096645
0.000264968
0.000861881
0.000258785
0.000768057
0.000244699
0.000688236
0.000228481
0.000619965
0.000214433
0.000556608
0.000205075
0.000493728
0.000197243
0.000432937
0.000183594
0.000375849
0.000169673
0.000319799
0.000165311
0.000262154
0.000165691
0.000194686
0.000174952
0.000101996
0.000196395
0.000172685
0.00262501
1.08867e-18
0.00262501
-4.3235e-19
0.00262501
-1.10997e-18
0.00262501
1.21125e-18
0.00262501
-1.02627e-19
0.00262501
-8.51747e-19
0.00262501
1.12362e-19
0.00262501
2.10049e-20
0.00262501
-1.04546e-18
0.00262501
1.50132e-19
0.00262501
1.05102e-18
0.00262501
2.4471e-19
0.00262501
-2.16612e-19
0.00262501
-1.07766e-18
0.00262501
1.42821e-19
0.00262501
-1.97452e-19
0.00262501
4.37263e-19
0.00262501
-3.96764e-19
0.00262501
-6.18101e-19
0.00262501
-1.67113e-18
0.00262501
-5.2546e-19
0.00262501
1.1215e-18
0.00262501
-1.26466e-18
0.00262501
-9.46124e-19
0.00262501
7.40461e-19
0.00262501
-2.79628e-19
0.00262501
1.30358e-18
0.00262501
1.02993e-18
0.00262501
1.12896e-18
0.00262501
1.03719e-18
0.00262501
2.71985e-19
0.00262501
4.75954e-19
0.00262501
2.75802e-19
0.00262501
1.19231e-18
0.00262501
1.72517e-18
0.00262501
1.7775e-18
0.00262501
2.22246e-18
0.00262501
-1.34303e-19
0.00262501
1.25087e-18
0.00262501
5.36987e-19
0.00262501
8.69582e-19
0.00262501
3.73589e-19
0.00262501
-1.05584e-18
0.00262501
-3.67883e-19
0.00262501
-7.94971e-19
0.00262501
-6.20903e-19
0.00262501
1.56174e-18
0.00262501
1.78535e-18
0.00262501
1.27068e-18
0.00262501
2.79378e-18
0.00262501
2.67072e-18
0.00262501
4.7602e-20
0.00262501
6.49304e-19
0.00262501
2.09541e-18
0.00262501
1.55946e-17
0.00262501
6.31195e-16
0.00262501
5.22511e-14
0.00262501
2.56308e-12
0.00262501
2.85068e-10
0.00262489
1.40515e-08
0.00261277
1.79627e-06
0.00199501
5.78707e-05
0.00172732
0.000519938
0.00166794
0.000217596
0.00163863
9.00091e-05
0.0016324
9.49834e-05
0.00162292
0.000191875
0.00160254
0.000291876
0.00158758
0.000295833
0.00153867
0.000259664
0.00151627
0.00015278
0.00150958
0.000144731
0.00150523
0.000192347
0.00148685
0.000268636
0.00146107
0.000282024
0.00141483
0.000264856
0.00135908
0.000250282
0.00129904
0.00025353
0.00123586
0.000262318
0.00116767
0.000275124
0.00109155
0.000295439
0.00100976
0.000317493
0.00092965
0.000325754
0.00085431
0.000319223
0.000784166
0.000306013
0.000720543
0.000290986
0.000659905
0.000279609
0.00059631
0.000274597
0.000527032
0.000270092
0.000455694
0.000255815
0.00038849
0.000237779
0.00032448
0.000229404
0.000259181
0.000227556
0.000187445
0.000239398
9.62437e-05
0.000277164
0.000262796
0.00262501
-1.07034e-19
0.00262501
2.86644e-19
0.00262501
5.26907e-19
0.00262501
2.91819e-19
0.00262501
-9.8932e-19
0.00262501
-2.58907e-19
0.00262501
-3.90876e-19
0.00262501
5.74069e-19
0.00262501
1.4836e-19
0.00262501
-5.5263e-19
0.00262501
8.81365e-20
0.00262501
1.48443e-19
0.00262501
-5.26527e-19
0.00262501
4.39859e-19
0.00262501
2.135e-19
0.00262501
6.43368e-19
0.00262501
-7.89575e-20
0.00262501
2.79111e-19
0.00262501
4.82526e-20
0.00262501
-2.50489e-20
0.00262501
2.95477e-19
0.00262501
-1.06634e-18
0.00262501
-2.71242e-18
0.00262501
-1.63805e-18
0.00262501
-1.82557e-18
0.00262501
-2.64852e-19
0.00262501
-9.54779e-19
0.00262501
1.58069e-18
0.00262501
-1.26765e-19
0.00262501
2.42308e-19
0.00262501
5.15459e-19
0.00262501
-7.92176e-19
0.00262501
-8.88284e-19
0.00262501
-6.26893e-19
0.00262501
-5.92009e-19
0.00262501
-3.17191e-20
0.00262501
6.38516e-19
0.00262501
1.40277e-18
0.00262501
1.41247e-18
0.00262501
1.66805e-18
0.00262501
-4.117e-19
0.00262501
4.01669e-19
0.00262501
9.7661e-19
0.00262501
1.75281e-18
0.00262501
1.28901e-18
0.00262501
1.1889e-18
0.00262501
2.7656e-19
0.00262501
-9.04841e-20
0.00262501
2.27726e-19
0.00262501
-3.09388e-19
0.00262501
1.27822e-18
0.00262501
2.05016e-18
0.00262501
1.58032e-18
0.00262501
5.85172e-19
0.00262501
1.52883e-17
0.00262501
8.12632e-16
0.00262501
6.77256e-14
0.00262501
3.33429e-12
0.00262501
3.23147e-10
0.00262493
1.45587e-08
0.00261695
1.71058e-06
0.0022886
0.000101243
0.00210043
0.000647136
0.00212787
0.000253126
0.00209403
0.000124242
0.00198038
0.00016869
0.00183003
0.000301819
0.00169897
0.000407683
0.00158647
0.0004022
0.00152389
0.000328338
0.00148088
0.000220233
0.00145979
0.000198633
0.00143137
0.000245694
0.00139742
0.000314938
0.00136894
0.0003187
0.00133897
0.000293853
0.00128317
0.000297382
0.0012155
0.000306099
0.00114688
0.000312809
0.00108019
0.000322792
0.00101317
0.000343069
0.000947747
0.00036284
0.000886348
0.000368965
0.000827061
0.000364589
0.000768274
0.000356404
0.000710174
0.00034769
0.000650299
0.000343098
0.000585414
0.000344444
0.000514619
0.000343775
0.000441381
0.000329826
0.000370853
0.000309405
0.000302303
0.000297967
0.000232741
0.000293576
0.000164834
0.000299421
8.7414e-05
0.000343927
0.000345128
0.00262501
-1.57226e-19
0.00262501
-5.16055e-19
0.00262501
-1.27599e-18
0.00262501
-3.58088e-19
0.00262501
2.41641e-19
0.00262501
5.4611e-19
0.00262501
2.50254e-19
0.00262501
-4.29248e-19
0.00262501
1.33098e-18
0.00262501
-9.37046e-19
0.00262501
-1.4223e-19
0.00262501
-5.71351e-19
0.00262501
3.95277e-19
0.00262501
1.09117e-18
0.00262501
-2.05457e-19
0.00262501
-5.98988e-20
0.00262501
1.16239e-18
0.00262501
8.79564e-19
0.00262501
2.16741e-18
0.00262501
1.41263e-18
0.00262501
1.78518e-18
0.00262501
-5.49399e-20
0.00262501
-4.84794e-19
0.00262501
-1.05584e-18
0.00262501
-2.47084e-19
0.00262501
-9.13287e-19
0.00262501
-1.66229e-19
0.00262501
-2.03389e-18
0.00262501
1.3904e-19
0.00262501
-4.47754e-19
0.00262501
4.83269e-19
0.00262501
1.06577e-18
0.00262501
3.63732e-19
0.00262501
-1.13281e-18
0.00262501
-1.6219e-18
0.00262501
8.69278e-20
0.00262501
4.22024e-19
0.00262501
2.0824e-18
0.00262501
2.06614e-18
0.00262501
2.00695e-18
0.00262501
1.5385e-18
0.00262501
9.58426e-19
0.00262501
6.34517e-19
0.00262501
5.31074e-20
0.00262501
2.47242e-20
0.00262501
7.98384e-19
0.00262501
-6.38226e-19
0.00262501
8.35519e-19
0.00262501
-1.19849e-18
0.00262501
7.74699e-19
0.00262501
4.23201e-19
0.00262501
3.5608e-19
0.00262501
1.19468e-18
0.00262501
3.07063e-18
0.00262501
8.30824e-18
0.00262501
4.27869e-16
0.00262501
3.34278e-14
0.00262501
1.22483e-12
0.00262501
1.23302e-10
0.00262494
1.99167e-09
0.00261807
4.94231e-07
0.00239731
3.66905e-05
0.00234582
0.000667323
0.00235438
0.000276497
0.00230147
0.000173642
0.00219472
0.000229468
0.00208213
0.000386804
0.00197606
0.000511539
0.00187047
0.000514381
0.0017896
0.000427772
0.00172481
0.000305532
0.00166884
0.000278185
0.00159898
0.000332378
0.00151374
0.000405576
0.00143061
0.00040505
0.00135466
0.000368245
0.00127984
0.000364281
0.00120093
0.000370277
0.00112232
0.000373365
0.00104862
0.000378327
0.000981258
0.000393366
0.000920339
0.000406598
0.00086437
0.000409366
0.000809814
0.000407098
0.000754724
0.000404263
0.00069959
0.000401906
0.00064251
0.000403881
0.000580287
0.0004114
0.000510964
0.000415549
0.000436733
0.000404334
0.000361779
0.000384999
0.000285648
0.000373589
0.000207037
0.000368367
0.000134216
0.000364667
7.03422e-05
0.000397995
0.000411467
0.00262501
-1.13959e-18
0.00262501
1.30987e-19
0.00262501
4.74767e-19
0.00262501
-8.83039e-19
0.00262501
3.78105e-19
0.00262501
1.26308e-18
0.00262501
-4.35201e-19
0.00262501
3.33987e-19
0.00262501
-4.10284e-19
0.00262501
3.5214e-19
0.00262501
-1.57431e-19
0.00262501
6.56688e-19
0.00262501
8.69587e-19
0.00262501
1.59675e-20
0.00262501
6.44754e-19
0.00262501
6.66837e-20
0.00262501
-2.95841e-19
0.00262501
-1.64239e-20
0.00262501
5.80131e-19
0.00262501
1.65141e-18
0.00262501
1.37525e-18
0.00262501
-4.90705e-20
0.00262501
-1.5828e-18
0.00262501
4.6788e-19
0.00262501
-1.22391e-18
0.00262501
-1.59139e-18
0.00262501
-1.16384e-18
0.00262501
1.2061e-18
0.00262501
-1.39085e-19
0.00262501
9.14281e-19
0.00262501
6.93132e-19
0.00262501
3.38149e-19
0.00262501
1.39027e-18
0.00262501
3.16016e-19
0.00262501
1.18571e-18
0.00262501
1.3859e-19
0.00262501
4.55742e-19
0.00262501
1.00262e-18
0.00262501
1.50643e-18
0.00262501
2.21827e-18
0.00262501
-5.09786e-19
0.00262501
2.77853e-18
0.00262501
2.82226e-18
0.00262501
1.40504e-18
0.00262501
1.28116e-18
0.00262501
7.09346e-19
0.00262501
1.79953e-18
0.00262501
-3.13225e-19
0.00262501
8.71254e-19
0.00262501
1.23696e-18
0.00262501
1.65679e-18
0.00262501
1.57715e-18
0.00262501
4.51788e-19
0.00262501
-2.69708e-19
0.00262501
9.09243e-18
0.00262501
4.58835e-16
0.00262501
3.81049e-14
0.00262501
1.79156e-12
0.00262501
1.71485e-10
0.00262491
6.07651e-09
0.00261622
7.65304e-07
0.00227575
8.9975e-05
0.00227859
0.00065443
0.00228273
0.000278439
0.00221767
0.000214427
0.00211049
0.000300453
0.00203116
0.000463138
0.00198287
0.000557978
0.00195354
0.000557827
0.00190486
0.000492708
0.00184039
0.000383429
0.00178126
0.000356418
0.00171372
0.000415334
0.00162086
0.000500018
0.00151939
0.000505124
0.00142419
0.000460379
0.00133517
0.000445425
0.001244
0.000447567
0.00115258
0.000446817
0.00106717
0.000446068
0.000992766
0.00045191
0.000927892
0.000455978
0.000868836
0.000454392
0.000811272
0.000453862
0.00075302
0.000456261
0.000694396
0.000460165
0.000633896
0.000468039
0.000568776
0.000480707
0.00049755
0.000488512
0.000422696
0.000478885
0.000348747
0.00045923
0.000274609
0.000447015
0.000198023
0.000441168
0.000122477
0.000433191
6.21444e-05
0.000448606
0.000471103
0.00262501
1.29411e-18
0.00262501
-1.94977e-18
0.00262501
-5.08742e-19
0.00262501
-1.37134e-19
0.00262501
1.09507e-18
0.00262501
6.79557e-19
0.00262501
1.40835e-18
0.00262501
1.24346e-18
0.00262501
-1.96412e-19
0.00262501
-4.51987e-19
0.00262501
9.83173e-19
0.00262501
1.95725e-18
0.00262501
1.90591e-18
0.00262501
8.42837e-19
0.00262501
4.08122e-19
0.00262501
2.56696e-19
0.00262501
5.35296e-19
0.00262501
-4.50501e-19
0.00262501
1.29341e-19
0.00262501
-2.92156e-19
0.00262501
1.86028e-19
0.00262501
1.40346e-18
0.00262501
1.66912e-18
0.00262501
5.45123e-19
0.00262501
1.1988e-19
0.00262501
-3.75511e-20
0.00262501
-4.09268e-19
0.00262501
-1.05298e-18
0.00262501
-8.4382e-19
0.00262501
-1.05186e-18
0.00262501
1.25359e-18
0.00262501
-6.65964e-19
0.00262501
-6.26008e-19
0.00262501
2.598e-19
0.00262501
-1.1911e-18
0.00262501
6.72125e-19
0.00262501
9.43723e-19
0.00262501
1.19333e-18
0.00262501
-1.66448e-19
0.00262501
-1.23643e-19
0.00262501
3.64083e-18
0.00262501
1.07428e-18
0.00262501
9.5402e-19
0.00262501
1.41712e-18
0.00262501
7.35266e-19
0.00262501
1.45673e-18
0.00262501
2.34954e-19
0.00262501
9.17507e-19
0.00262501
8.1166e-19
0.00262501
6.538e-19
0.00262501
-2.87369e-19
0.00262501
3.24901e-19
0.00262501
3.23171e-18
0.00262501
3.03564e-18
0.00262501
1.03932e-17
0.00262501
5.86839e-16
0.00262501
5.0375e-14
0.00262501
3.18737e-12
0.00262501
2.91102e-10
0.00262488
1.82856e-08
0.00261451
1.78216e-06
0.00219661
0.000208528
0.0022608
0.000630465
0.00222517
0.00030331
0.00211418
0.000281502
0.00201164
0.000387448
0.00196096
0.000515201
0.00194786
0.000580887
0.00193634
0.000586969
0.00189884
0.000547825
0.00183627
0.000458189
0.00178199
0.000428174
0.0017236
0.000486424
0.00164994
0.000572534
0.00156904
0.000581494
0.00148827
0.000535784
0.0014067
0.000518401
0.00131909
0.000522553
0.00122508
0.000523668
0.00113284
0.000520577
0.00105037
0.000519265
0.000977558
0.000515392
0.000910235
0.000510066
0.000843774
0.000511096
0.000777072
0.000518477
0.000709707
0.000527953
0.000640869
0.000540366
0.000569034
0.000556006
0.000493637
0.000564775
0.000417402
0.000553978
0.000344645
0.0005318
0.000273098
0.000517752
0.000198994
0.000511377
0.000119921
0.000505276
5.86665e-05
0.000499734
0.000529002
0.00262501
-2.86645e-19
0.00262501
7.71235e-19
0.00262501
-8.45228e-19
0.00262501
6.70634e-19
0.00262501
6.80119e-19
0.00262501
-8.57501e-19
0.00262501
2.17939e-19
0.00262501
-1.79102e-18
0.00262501
-5.39964e-19
0.00262501
7.13025e-19
0.00262501
-1.52163e-18
0.00262501
-9.22339e-20
0.00262501
-5.08531e-19
0.00262501
2.81668e-18
0.00262501
1.17198e-19
0.00262501
8.87537e-19
0.00262501
4.07005e-20
0.00262501
2.61717e-19
0.00262501
-9.30647e-19
0.00262501
-1.32721e-18
0.00262501
-1.37673e-18
0.00262501
-8.72813e-19
0.00262501
5.58117e-19
0.00262501
9.59661e-19
0.00262501
2.44826e-18
0.00262501
-1.96647e-19
0.00262501
1.15406e-18
0.00262501
-1.07748e-18
0.00262501
-4.61253e-19
0.00262501
-5.9317e-19
0.00262501
-2.0126e-18
0.00262501
3.13695e-20
0.00262501
8.06212e-19
0.00262501
1.34386e-18
0.00262501
2.11008e-18
0.00262501
7.86884e-19
0.00262501
4.59636e-19
0.00262501
5.20657e-19
0.00262501
1.26157e-18
0.00262501
3.2572e-19
0.00262501
3.30268e-19
0.00262501
4.55569e-19
0.00262501
3.76102e-19
0.00262501
6.24021e-19
0.00262501
3.05033e-18
0.00262501
5.40449e-19
0.00262501
2.13405e-18
0.00262501
1.75407e-18
0.00262501
1.20131e-18
0.00262501
-1.64844e-18
0.00262501
3.3351e-19
0.00262501
1.01864e-18
0.00262501
5.86243e-19
0.00262501
4.47569e-19
0.00262501
6.65949e-18
0.00262501
4.04706e-16
0.00262501
3.34887e-14
0.00262501
1.98751e-12
0.00262501
1.71771e-10
0.00262491
9.86229e-09
0.00261635
9.19565e-07
0.00232985
0.000175513
0.00245603
0.000510138
0.00229575
0.000413684
0.00209773
0.0004236
0.00198674
0.000488001
0.0019517
0.000556803
0.00194804
0.000602126
0.0019412
0.000613376
0.00191534
0.000590822
0.00185992
0.000525559
0.00180306
0.0005007
0.00174038
0.000558517
0.00166904
0.000638793
0.00159601
0.000646818
0.0015255
0.000599095
0.00145489
0.00057966
0.00137776
0.00058696
0.00129082
0.000593352
0.00119949
0.000593474
0.0011116
0.00059139
0.00102915
0.000585228
0.000950213
0.000578866
0.000872708
0.000580785
0.000797041
0.000590761
0.00072323
0.000602594
0.000650408
0.000616364
0.000576604
0.00063241
0.000500815
0.000640387
0.000425246
0.000627518
0.000353738
0.00060218
0.000283492
0.000586507
0.000209432
0.000581055
0.000126404
0.000580947
5.66583e-05
0.000561516
0.00058276
0.00262501
3.13019e-19
0.00262501
1.43463e-19
0.00262501
1.12316e-18
0.00262501
-1.47954e-19
0.00262501
-3.1732e-19
0.00262501
4.48817e-19
0.00262501
-1.41776e-18
0.00262501
-5.45957e-19
0.00262501
-4.65025e-19
0.00262501
8.1801e-19
0.00262501
2.85124e-19
0.00262501
-1.29893e-18
0.00262501
-1.20385e-18
0.00262501
-4.11226e-19
0.00262501
2.44005e-19
0.00262501
-4.31687e-19
0.00262501
7.17483e-19
0.00262501
5.3688e-19
0.00262501
-2.94329e-19
0.00262501
-9.0432e-19
0.00262501
-2.13488e-18
0.00262501
9.93993e-19
0.00262501
-7.81115e-19
0.00262501
1.02123e-19
0.00262501
-7.75476e-19
0.00262501
1.26067e-18
0.00262501
2.20618e-19
0.00262501
1.40014e-18
0.00262501
6.31954e-19
0.00262501
5.42835e-19
0.00262501
5.66849e-19
0.00262501
1.81467e-18
0.00262501
2.13962e-18
0.00262501
1.2358e-18
0.00262501
7.49017e-19
0.00262501
7.92423e-19
0.00262501
7.20258e-19
0.00262501
1.69805e-20
0.00262501
2.43277e-19
0.00262501
-1.13736e-19
0.00262501
1.08171e-18
0.00262501
-1.84337e-19
0.00262501
4.28297e-19
0.00262501
1.39583e-18
0.00262501
-1.08438e-20
0.00262501
-2.42518e-19
0.00262501
-2.45858e-19
0.00262501
-9.53862e-19
0.00262501
-1.13129e-18
0.00262501
1.43017e-18
0.00262501
4.44735e-19
0.00262501
6.22067e-19
0.00262501
8.95829e-19
0.00262501
1.4834e-18
0.00262501
5.13588e-18
0.00262501
3.40862e-16
0.00262501
2.75035e-14
0.00262501
1.69413e-12
0.00262501
1.4457e-10
0.00262492
8.98693e-09
0.0026176
8.27663e-07
0.00236976
0.000143617
0.00240518
0.000383142
0.00215624
0.000585997
0.0020041
0.000545988
0.00195226
0.000544964
0.00194299
0.000581562
0.00194117
0.000621809
0.00192973
0.000642222
0.00189898
0.000635038
0.00184066
0.000592842
0.00177426
0.000577719
0.00170368
0.000633585
0.0016292
0.000703758
0.00156171
0.000705194
0.00149918
0.00065433
0.00144001
0.000630123
0.00137715
0.000638305
0.00130211
0.000651755
0.00121736
0.000659372
0.00113005
0.000662523
0.0010438
0.000659331
0.000959885
0.000653715
0.00087929
0.000655584
0.000802805
0.000665561
0.000729793
0.000677439
0.000658139
0.00069131
0.000584936
0.000707542
0.00050896
0.000715179
0.000432458
0.00070077
0.000360719
0.000671661
0.000292914
0.000652212
0.00022416
0.00064485
0.000146336
0.000650449
4.69768e-05
0.000653166
0.000631117
0.00262501
-8.11302e-19
0.00262501
2.55617e-19
0.00262501
1.64083e-19
0.00262501
-5.48976e-19
0.00262501
-1.00304e-18
0.00262501
-9.81737e-19
0.00262501
-2.76441e-19
0.00262501
5.26698e-19
0.00262501
-7.39964e-19
0.00262501
-1.20872e-18
0.00262501
-4.93741e-19
0.00262501
-1.95997e-18
0.00262501
9.63311e-20
0.00262501
-1.15963e-18
0.00262501
4.57108e-19
0.00262501
1.60372e-18
0.00262501
-1.38828e-19
0.00262501
-1.11475e-18
0.00262501
-3.68095e-19
0.00262501
-7.69678e-20
0.00262501
7.70669e-19
0.00262501
-7.26473e-19
0.00262501
-3.71103e-19
0.00262501
2.57563e-19
0.00262501
8.0468e-19
0.00262501
-9.85244e-19
0.00262501
2.70924e-18
0.00262501
3.82123e-19
0.00262501
1.23907e-18
0.00262501
2.25739e-18
0.00262501
1.77983e-18
0.00262501
2.55588e-18
0.00262501
1.20838e-18
0.00262501
1.40546e-18
0.00262501
1.26527e-18
0.00262501
1.3076e-18
0.00262501
9.40278e-19
0.00262501
5.13132e-19
0.00262501
-8.69582e-19
0.00262501
2.62603e-19
0.00262501
-1.24617e-18
0.00262501
-1.82677e-18
0.00262501
1.44775e-18
0.00262501
5.8885e-19
0.00262501
-7.26692e-19
0.00262501
-1.04055e-19
0.00262501
-1.0128e-18
0.00262501
-1.01785e-18
0.00262501
1.03669e-19
0.00262501
3.07092e-20
0.00262501
-2.71625e-20
0.00262501
-1.89167e-19
0.00262501
-1.10331e-18
0.00262501
8.91693e-20
0.00262501
4.42272e-18
0.00262501
2.88711e-16
0.00262501
2.38944e-14
0.00262501
1.59841e-12
0.00262501
1.28261e-10
0.00262495
7.85303e-09
0.0026197
7.03871e-07
0.00242065
0.0001159
0.00240826
0.000230478
0.00220378
0.000689326
0.00204601
0.000691933
0.00197738
0.000628999
0.00196315
0.000621895
0.00195383
0.000650248
0.00192698
0.000682923
0.00188273
0.000687817
0.001821
0.000663193
0.00174916
0.000659384
0.00167131
0.000714106
0.0015934
0.000771523
0.0015269
0.000763398
0.00146722
0.000707127
0.00141462
0.000674865
0.00135855
0.000683804
0.00128912
0.000704978
0.00120846
0.000721586
0.00112419
0.000731348
0.0010404
0.00073223
0.000959028
0.000728005
0.000881561
0.000729667
0.000808314
0.000739308
0.000737858
0.000751067
0.00066758
0.000765076
0.000594464
0.000781692
0.00051734
0.000789539
0.000438465
0.000774462
0.000363523
0.000742783
0.000293428
0.000719914
0.000226007
0.000708546
0.00015752
0.00071236
7.06592e-05
0.000732778
0.000699341
0.00262501
5.07816e-20
0.00262501
3.44811e-19
0.00262501
2.40127e-19
0.00262501
-1.42764e-18
0.00262501
-2.46811e-18
0.00262501
2.13873e-18
0.00262501
5.06894e-19
0.00262501
-2.22612e-20
0.00262501
1.43955e-18
0.00262501
-1.01294e-18
0.00262501
8.06666e-19
0.00262501
1.77459e-18
0.00262501
8.94474e-19
0.00262501
3.67553e-19
0.00262501
-9.75651e-19
0.00262501
-1.09557e-18
0.00262501
-8.3293e-19
0.00262501
-2.44819e-19
0.00262501
-1.04414e-18
0.00262501
-9.31429e-19
0.00262501
-7.72698e-19
0.00262501
-2.40592e-18
0.00262501
-1.12524e-19
0.00262501
-2.73682e-19
0.00262501
7.48413e-19
0.00262501
1.64637e-18
0.00262501
-1.61881e-19
0.00262501
8.3801e-20
0.00262501
-4.63174e-19
0.00262501
-4.46643e-20
0.00262501
4.70219e-19
0.00262501
-6.04293e-19
0.00262501
8.53686e-20
0.00262501
2.21179e-19
0.00262501
1.66739e-18
0.00262501
-4.19112e-19
0.00262501
-1.02135e-18
0.00262501
-6.85744e-19
0.00262501
-3.90334e-19
0.00262501
1.85373e-18
0.00262501
1.18486e-18
0.00262501
2.09682e-19
0.00262501
-1.82477e-18
0.00262501
-4.10001e-19
0.00262501
8.58009e-19
0.00262501
-1.81262e-18
0.00262501
-2.3287e-19
0.00262501
8.12075e-19
0.00262501
1.76432e-19
0.00262501
-9.80967e-20
0.00262501
-2.95302e-19
0.00262501
-3.01055e-19
0.00262501
-9.30664e-20
0.00262501
-6.96671e-20
0.00262501
3.07083e-18
0.00262501
1.43745e-16
0.00262501
1.35428e-14
0.00262501
1.14003e-12
0.00262501
9.03905e-11
0.00262497
7.34761e-09
0.00262151
6.42343e-07
0.00249035
8.50355e-05
0.00249154
3.19768e-05
0.00228491
0.000790952
0.00212822
0.000840649
0.00204578
0.000734315
0.00201943
0.000678111
0.00199884
0.00069054
0.0019568
0.000732799
0.00190088
0.000746288
0.00184125
0.000730701
0.00177286
0.000736336
0.001694
0.000793936
0.00160816
0.000845809
0.00153247
0.000829769
0.00146598
0.000767073
0.00140835
0.000725403
0.00134867
0.000733216
0.00127743
0.000759395
0.00119805
0.000782134
0.00111776
0.00079686
0.00103923
0.000801332
0.00096315
0.000799248
0.000890399
0.000801752
0.000820684
0.00081205
0.000751999
0.000824503
0.000681563
0.000839183
0.000606837
0.000856355
0.000527326
0.000864474
0.000445591
0.000848899
0.000367621
0.000815201
0.000294518
0.000789765
0.000223185
0.000776182
0.000153251
0.00077657
7.38824e-05
0.000805922
0.000773162
0.00262501
1.98621e-19
0.00262501
-4.49437e-19
0.00262501
-5.44698e-19
0.00262501
9.48089e-19
0.00262501
5.83934e-19
0.00262501
-8.49737e-19
0.00262501
-9.22963e-19
0.00262501
4.71575e-19
0.00262501
-3.57709e-19
0.00262501
1.39906e-18
0.00262501
-5.63774e-19
0.00262501
1.05722e-18
0.00262501
1.06338e-18
0.00262501
-5.77996e-19
0.00262501
-9.07275e-19
0.00262501
-1.47811e-18
0.00262501
-1.23577e-18
0.00262501
-1.66261e-18
0.00262501
-9.87434e-19
0.00262501
-3.90434e-19
0.00262501
-1.29994e-18
0.00262501
1.51712e-19
0.00262501
7.71451e-19
0.00262501
-1.74136e-20
0.00262501
-4.21323e-19
0.00262501
3.12264e-19
0.00262501
-3.23009e-19
0.00262501
7.71549e-19
0.00262501
2.10332e-19
0.00262501
5.08711e-19
0.00262501
1.49647e-19
0.00262501
6.45121e-19
0.00262501
4.89396e-19
0.00262501
5.31955e-19
0.00262501
-8.25027e-19
0.00262501
-1.38463e-19
0.00262501
5.6803e-19
0.00262501
-1.65138e-20
0.00262501
-5.11785e-20
0.00262501
-2.44595e-18
0.00262501
-2.50086e-18
0.00262501
-1.60319e-19
0.00262501
-9.36956e-19
0.00262501
-1.00603e-18
0.00262501
-1.64151e-18
0.00262501
-2.77696e-19
0.00262501
2.30627e-18
0.00262501
1.01753e-18
0.00262501
1.38708e-18
0.00262501
5.64444e-19
0.00262501
1.92759e-19
0.00262501
1.07443e-19
0.00262501
-2.57271e-19
0.00262501
-5.30871e-19
0.00262501
8.23688e-19
0.00262501
2.16709e-17
0.00262501
1.95049e-15
0.00262501
2.14956e-13
0.00262501
1.61676e-11
0.002625
2.02097e-09
0.00262361
1.58818e-07
0.00258941
2.84216e-05
0.00249379
-4.02162e-05
0.00226465
0.000892211
0.00220057
0.000916368
0.00215732
0.000813632
0.00212134
0.000744244
0.00208293
0.000748988
0.0020201
0.000791533
0.00195604
0.000806739
0.00190196
0.000792562
0.00184169
0.000804933
0.0017684
0.000868014
0.00167671
0.000924553
0.00158834
0.000907072
0.00150712
0.000841698
0.00143304
0.000792976
0.00135836
0.000797087
0.00127776
0.000821576
0.00119727
0.000843908
0.00112154
0.000859127
0.00104921
0.000865819
0.000978908
0.000866878
0.000910627
0.000871973
0.000843702
0.00088451
0.000775828
0.000898738
0.000704212
0.000914632
0.000626813
0.000932463
0.000543787
0.00094088
0.000458056
0.000925004
0.000376304
0.000889524
0.000300176
0.00086166
0.000225199
0.000847391
0.000152015
0.000844856
7.34685e-05
0.000879247
0.000848598
0.00262501
-1.24855e-18
0.00262501
2.82688e-19
0.00262501
2.09663e-19
0.00262501
8.41952e-19
0.00262501
1.09733e-18
0.00262501
-6.03452e-19
0.00262501
-3.93673e-20
0.00262501
-1.44699e-18
0.00262501
-4.18068e-19
0.00262501
-1.07715e-18
0.00262501
-1.10481e-19
0.00262501