/*--------------------------------*- C++ -*----------------------------------*\
| =========                 |                                                 |
| \\      /  F ield         | OpenFOAM: The Open Source CFD Toolbox           |
|  \\    /   O peration     | Version:  v1812                                 |
|   \\  /    A nd           | Web:      www.OpenFOAM.com                      |
|    \\/     M anipulation  |                                                 |
\*---------------------------------------------------------------------------*/
FoamFile
{
    version     2.0;
    format      ascii;
    class       volScalarField;
    location    "0.5";
    object      rho;
}
// * * * * * * * * * * * * * * * * * * * * * * * * * * * * * * * * * * * * * //

dimensions      [1 -3 0 0 0 0 0];


internalField   nonuniform List<scalar> 
64512
(
1.40001
1.40001
1.40001
1.40001
1.40001
1.40001
1.40001
1.40001
1.40001
1.40001
1.40001
1.40001
1.40001
1.40001
1.40001
1.40001
1.40001
1.40001
1.40001
1.40001
1.40001
1.40001
1.40001
1.40001
1.40001
1.40001
1.40001
1.40001
1.40001
1.40001
1.40001
1.40001
1.40001
1.40001
1.40001
1.40001
1.40001
1.40001
1.40001
1.40001
1.40001
1.40001
1.40001
1.40001
1.40001
1.40001
1.40001
1.40001
1.40001
1.40001
1.40001
1.40001
1.40001
1.40001
1.40001
1.40001
1.40001
1.40001
1.40002
1.40084
1.45961
3.47998
5.18479
5.6323
5.67992
5.68108
5.66217
5.62646
5.58788
5.5522
5.57374
5.62629
5.68876
5.73752
5.77366
5.7859
5.78884
5.79224
5.78894
5.76905
5.73627
5.70083
5.6626
5.61992
5.57402
5.52891
5.48039
5.41238
5.32222
5.25342
5.22823
5.21791
5.20119
5.14376
5.04746
5.17405
1.40001
1.40001
1.40001
1.40001
1.40001
1.40001
1.40001
1.40001
1.40001
1.40001
1.40001
1.40001
1.40001
1.40001
1.40001
1.40001
1.40001
1.40001
1.40001
1.40001
1.40001
1.40001
1.40001
1.40001
1.40001
1.40001
1.40001
1.40001
1.40001
1.40001
1.40001
1.40001
1.40001
1.40001
1.40001
1.40001
1.40001
1.40001
1.40001
1.40001
1.40001
1.40001
1.40001
1.40001
1.40001
1.40001
1.40001
1.40001
1.40001
1.40001
1.40001
1.40001
1.40001
1.40001
1.40001
1.40001
1.40001
1.40001
1.40002
1.40086
1.46141
3.49589
5.14247
5.5712
5.63569
5.63981
5.61858
5.60347
5.60506
5.61357
5.63432
5.68164
5.73582
5.78055
5.81485
5.82498
5.82513
5.82575
5.82097
5.80055
5.76527
5.7216
5.67329
5.62627
5.58248
5.54212
5.49904
5.43684
5.34843
5.27013
5.23365
5.22008
5.20406
5.15797
5.06034
5.14068
1.40001
1.40001
1.40001
1.40001
1.40001
1.40001
1.40001
1.40001
1.40001
1.40001
1.40001
1.40001
1.40001
1.40001
1.40001
1.40001
1.40001
1.40001
1.40001
1.40001
1.40001
1.40001
1.40001
1.40001
1.40001
1.40001
1.40001
1.40001
1.40001
1.40001
1.40001
1.40001
1.40001
1.40001
1.40001
1.40001
1.40001
1.40001
1.40001
1.40001
1.40001
1.40001
1.40001
1.40001
1.40001
1.40001
1.40001
1.40001
1.40001
1.40001
1.40001
1.40001
1.40001
1.40001
1.40001
1.40001
1.40001
1.40001
1.40002
1.40078
1.45483
3.35306
5.32523
5.78181
5.77618
5.71015
5.66112
5.65433
5.66659
5.68724
5.70004
5.71431
5.76494
5.81397
5.84631
5.85494
5.84957
5.84441
5.83786
5.82035
5.78991
5.74651
5.69604
5.6448
5.60093
5.56555
5.53148
5.48201
5.40228
5.31018
5.24714
5.22265
5.20724
5.17486
5.08366
5.11912
1.40001
1.40001
1.40001
1.40001
1.40001
1.40001
1.40001
1.40001
1.40001
1.40001
1.40001
1.40001
1.40001
1.40001
1.40001
1.40001
1.40001
1.40001
1.40001
1.40001
1.40001
1.40001
1.40001
1.40001
1.40001
1.40001
1.40001
1.40001
1.40001
1.40001
1.40001
1.40001
1.40001
1.40001
1.40001
1.40001
1.40001
1.40001
1.40001
1.40001
1.40001
1.40001
1.40001
1.40001
1.40001
1.40001
1.40001
1.40001
1.40001
1.40001
1.40001
1.40001
1.40001
1.40001
1.40001
1.40001
1.40001
1.40001
1.40002
1.4009
1.46443
3.5245
5.06104
5.45388
5.48072
5.49095
5.51699
5.55016
5.5727
5.5619
5.55815
5.59676
5.66307
5.72857
5.76559
5.77542
5.76816
5.7696
5.77357
5.76777
5.74719
5.71442
5.67347
5.63293
5.59929
5.57372
5.5482
5.50662
5.43155
5.33105
5.24988
5.21669
5.2
5.16714
5.07611
5.1132
1.40001
1.40001
1.40001
1.40001
1.40001
1.40001
1.40001
1.40001
1.40001
1.40001
1.40001
1.40001
1.40001
1.40001
1.40001
1.40001
1.40001
1.40001
1.40001
1.40001
1.40001
1.40001
1.40001
1.40001
1.40001
1.40001
1.40001
1.40001
1.40001
1.40001
1.40001
1.40001
1.40001
1.40001
1.40001
1.40001
1.40001
1.40001
1.40001
1.40001
1.40001
1.40001
1.40001
1.40001
1.40001
1.40001
1.40001
1.40001
1.40001
1.40001
1.40001
1.40001
1.40001
1.40001
1.40001
1.40001
1.40001
1.40001
1.40002
1.40079
1.45619
3.37703
5.00787
5.54972
5.63511
5.63752
5.57564
5.5561
5.57594
5.62922
5.6813
5.71627
5.74507
5.75056
5.74851
5.75019
5.74664
5.74445
5.73839
5.73092
5.71723
5.69318
5.65909
5.62346
5.59371
5.57014
5.5449
5.50302
5.42805
5.32782
5.24755
5.2154
5.19813
5.15956
5.06689
5.12186
1.40001
1.40001
1.40001
1.40001
1.40001
1.40001
1.40001
1.40001
1.40001
1.40001
1.40001
1.40001
1.40001
1.40001
1.40001
1.40001
1.40001
1.40001
1.40001
1.40001
1.40001
1.40001
1.40001
1.40001
1.40001
1.40001
1.40001
1.40001
1.40001
1.40001
1.40001
1.40001
1.40001
1.40001
1.40001
1.40001
1.40001
1.40001
1.40001
1.40001
1.40001
1.40001
1.40001
1.40001
1.40001
1.40001
1.40001
1.40001
1.40001
1.40001
1.40001
1.40001
1.40001
1.40001
1.40001
1.40001
1.40001
1.40001
1.40001
1.40067
1.44801
3.15002
5.08942
5.66714
5.68715
5.65644
5.60358
5.59223
5.61341
5.66043
5.70836
5.74289
5.76512
5.75491
5.74118
5.74261
5.74951
5.7451
5.73091
5.71223
5.69364
5.67148
5.6427
5.61259
5.5867
5.56502
5.54002
5.49798
5.42309
5.32397
5.24527
5.21427
5.19659
5.15129
5.05197
5.12954
1.40001
1.40001
1.40001
1.40001
1.40001
1.40001
1.40001
1.40001
1.40001
1.40001
1.40001
1.40001
1.40001
1.40001
1.40001
1.40001
1.40001
1.40001
1.40001
1.40001
1.40001
1.40001
1.40001
1.40001
1.40001
1.40001
1.40001
1.40001
1.40001
1.40001
1.40001
1.40001
1.40001
1.40001
1.40001
1.40001
1.40001
1.40001
1.40001
1.40001
1.40001
1.40001
1.40001
1.40001
1.40001
1.40001
1.40001
1.40001
1.40001
1.40001
1.40001
1.40001
1.40001
1.40001
1.40001
1.40001
1.40001
1.40001
1.40001
1.40061
1.44415
3.00749
5.07489
5.6345
5.60855
5.56038
5.55325
5.58612
5.63255
5.6777
5.71678
5.73698
5.76203
5.76226
5.74989
5.7514
5.76184
5.75998
5.74036
5.71412
5.69183
5.66905
5.64074
5.61097
5.58489
5.56243
5.536
5.49178
5.4151
5.31636
5.23983
5.20993
5.19178
5.14456
5.04342
5.13179
1.40001
1.40001
1.40001
1.40001
1.40001
1.40001
1.40001
1.40001
1.40001
1.40001
1.40001
1.40001
1.40001
1.40001
1.40001
1.40001
1.40001
1.40001
1.40001
1.40001
1.40001
1.40001
1.40001
1.40001
1.40001
1.40001
1.40001
1.40001
1.40001
1.40001
1.40001
1.40001
1.40001
1.40001
1.40001
1.40001
1.40001
1.40001
1.40001
1.40001
1.40001
1.40001
1.40001
1.40001
1.40001
1.40001
1.40001
1.40001
1.40001
1.40001
1.40001
1.40001
1.40001
1.40001
1.40001
1.40001
1.40001
1.40001
1.40001
1.40052
1.43883
2.83926
5.09717
5.61771
5.54893
5.50393
5.53443
5.58192
5.62952
5.67316
5.7049
5.71885
5.74559
5.75111
5.7417
5.74402
5.7587
5.765
5.75367
5.72638
5.69836
5.6721
5.64281
5.61231
5.58498
5.56121
5.53317
5.48711
5.40891
5.31004
5.23467
5.20519
5.18702
5.14016
5.03643
5.12706
1.40001
1.40001
1.40001
1.40001
1.40001
1.40001
1.40001
1.40001
1.40001
1.40001
1.40001
1.40001
1.40001
1.40001
1.40001
1.40001
1.40001
1.40001
1.40001
1.40001
1.40001
1.40001
1.40001
1.40001
1.40001
1.40001
1.40001
1.40001
1.40001
1.40001
1.40001
1.40001
1.40001
1.40001
1.40001
1.40001
1.40001
1.40001
1.40001
1.40001
1.40001
1.40001
1.40001
1.40001
1.40001
1.40001
1.40001
1.40001
1.40001
1.40001
1.40001
1.40001
1.40001
1.40001
1.40001
1.40001
1.40001
1.40001
1.40001
1.40039
1.42903
2.5742
5.2356
5.66761
5.52866
5.49642
5.53348
5.58964
5.63475
5.67804
5.70558
5.71929
5.74501
5.75058
5.73755
5.73732
5.75094
5.75926
5.75583
5.7345
5.70738
5.68048
5.65084
5.61829
5.58773
5.56076
5.53024
5.48264
5.40379
5.30524
5.22994
5.19966
5.18197
5.13761
5.03341
5.12327
1.40001
1.40001
1.40001
1.40001
1.40001
1.40001
1.40001
1.40001
1.40001
1.40001
1.40001
1.40001
1.40001
1.40001
1.40001
1.40001
1.40001
1.40001
1.40001
1.40001
1.40001
1.40001
1.40001
1.40001
1.40001
1.40001
1.40001
1.40001
1.40001
1.40001
1.40001
1.40001
1.40001
1.40001
1.40001
1.40001
1.40001
1.40001
1.40001
1.40001
1.40001
1.40001
1.40001
1.40001
1.40001
1.40001
1.40001
1.40001
1.40001
1.40001
1.40001
1.40001
1.40001
1.40001
1.40001
1.40001
1.40001
1.40001
1.40001
1.40028
1.42109
2.31424
5.25356
5.59549
5.47831
5.49107
5.54092
5.59934
5.63568
5.67242
5.6927
5.70492
5.72332
5.72374
5.71081
5.71762
5.73261
5.74317
5.74294
5.72469
5.7008
5.67762
5.65104
5.61948
5.58815
5.55951
5.52765
5.47964
5.40134
5.3034
5.22584
5.1925
5.17388
5.13204
5.03725
5.10867
1.40001
1.40001
1.40001
1.40001
1.40001
1.40001
1.40001
1.40001
1.40001
1.40001
1.40001
1.40001
1.40001
1.40001
1.40001
1.40001
1.40001
1.40001
1.40001
1.40001
1.40001
1.40001
1.40001
1.40001
1.40001
1.40001
1.40001
1.40001
1.40001
1.40001
1.40001
1.40001
1.40001
1.40001
1.40001
1.40001
1.40001
1.40001
1.40001
1.40001
1.40001
1.40001
1.40001
1.40001
1.40001
1.40001
1.40001
1.40001
1.40001
1.40001
1.40001
1.40001
1.40001
1.40001
1.40001
1.40001
1.40001
1.40001
1.40001
1.40018
1.41397
2.05192
5.1103
5.55473
5.464
5.49842
5.55638
5.61115
5.64286
5.66368
5.67921
5.69731
5.71439
5.70748
5.6942
5.70469
5.71878
5.72932
5.72806
5.70981
5.68778
5.66795
5.64518
5.61697
5.58735
5.55866
5.52605
5.47782
5.40027
5.30249
5.22217
5.1856
5.16529
5.12256
5.02867
5.10196
1.40001
1.40001
1.40001
1.40001
1.40001
1.40001
1.40001
1.40001
1.40001
1.40001
1.40001
1.40001
1.40001
1.40001
1.40001
1.40001
1.40001
1.40001
1.40001
1.40001
1.40001
1.40001
1.40001
1.40001
1.40001
1.40001
1.40001
1.40001
1.40001
1.40001
1.40001
1.40001
1.40001
1.40001
1.40001
1.40001
1.40001
1.40001
1.40001
1.40001
1.40001
1.40001
1.40001
1.40001
1.40001
1.40001
1.40001
1.40001
1.40001
1.40001
1.40001
1.40001
1.40001
1.40001
1.40001
1.40001
1.40001
1.40001
1.40001
1.4001
1.40804
1.80679
4.91296
5.55968
5.4814
5.51948
5.58442
5.63317
5.65439
5.65934
5.67516
5.6977
5.71521
5.70337
5.687
5.69659
5.7091
5.71798
5.71165
5.6918
5.67242
5.65673
5.63787
5.61303
5.5858
5.55801
5.52526
5.47699
5.40004
5.30185
5.218
5.17786
5.15673
5.11387
5.02162
5.09299
1.40001
1.40001
1.40001
1.40001
1.40001
1.40001
1.40001
1.40001
1.40001
1.40001
1.40001
1.40001
1.40001
1.40001
1.40001
1.40001
1.40001
1.40001
1.40001
1.40001
1.40001
1.40001
1.40001
1.40001
1.40001
1.40001
1.40001
1.40001
1.40001
1.40001
1.40001
1.40001
1.40001
1.40001
1.40001
1.40001
1.40001
1.40001
1.40001
1.40001
1.40001
1.40001
1.40001
1.40001
1.40001
1.40001
1.40001
1.40001
1.40001
1.40001
1.40001
1.40001
1.40001
1.40001
1.40001
1.40001
1.40001
1.40001
1.40001
1.40005
1.40336
1.59897
4.66821
5.50096
5.48674
5.548
5.62065
5.66369
5.66999
5.65569
5.67298
5.69985
5.72158
5.71027
5.69038
5.69485
5.70422
5.70907
5.69386
5.67017
5.65549
5.64526
5.63054
5.60869
5.58355
5.55685
5.52438
5.47643
5.40031
5.30162
5.21385
5.16951
5.14742
5.10441
5.01359
5.08397
1.40001
1.40001
1.40001
1.40001
1.40001
1.40001
1.40001
1.40001
1.40001
1.40001
1.40001
1.40001
1.40001
1.40001
1.40001
1.40001
1.40001
1.40001
1.40001
1.40001
1.40001
1.40001
1.40001
1.40001
1.40001
1.40001
1.40001
1.40001
1.40001
1.40001
1.40001
1.40001
1.40001
1.40001
1.40001
1.40001
1.40001
1.40001
1.40001
1.40001
1.40001
1.40001
1.40001
1.40001
1.40001
1.40001
1.40001
1.40001
1.40001
1.40001
1.40001
1.40001
1.40001
1.40001
1.40001
1.40001
1.40001
1.40001
1.40001
1.40003
1.40151
1.50329
4.43461
5.39856
5.46602
5.54382
5.61596
5.65359
5.64696
5.63171
5.65949
5.69192
5.71723
5.71099
5.69327
5.69507
5.70254
5.7029
5.67995
5.65356
5.6406
5.63406
5.62296
5.6037
5.58026
5.55457
5.52258
5.47508
5.39973
5.30035
5.20867
5.15995
5.13673
5.09334
5.00325
5.07408
1.40001
1.40001
1.40001
1.40001
1.40001
1.40001
1.40001
1.40001
1.40001
1.40001
1.40001
1.40001
1.40001
1.40001
1.40001
1.40001
1.40001
1.40001
1.40001
1.40001
1.40001
1.40001
1.40001
1.40001
1.40001
1.40001
1.40001
1.40001
1.40001
1.40001
1.40001
1.40001
1.40001
1.40001
1.40001
1.40001
1.40001
1.40001
1.40001
1.40001
1.40001
1.40001
1.40001
1.40001
1.40001
1.40001
1.40001
1.40001
1.40001
1.40001
1.40001
1.40001
1.40001
1.40001
1.40001
1.40001
1.40001
1.40001
1.40001
1.40002
1.40125
1.48605
4.16144
5.29022
5.45869
5.56449
5.63672
5.66414
5.63958
5.62289
5.65077
5.67962
5.70202
5.69839
5.68727
5.69149
5.69876
5.69728
5.66929
5.63978
5.62816
5.62375
5.61456
5.59686
5.5748
5.5502
5.51896
5.47216
5.39782
5.29815
5.20296
5.14942
5.12465
5.08043
4.99111
5.06419
1.40001
1.40001
1.40001
1.40001
1.40001
1.40001
1.40001
1.40001
1.40001
1.40001
1.40001
1.40001
1.40001
1.40001
1.40001
1.40001
1.40001
1.40001
1.40001
1.40001
1.40001
1.40001
1.40001
1.40001
1.40001
1.40001
1.40001
1.40001
1.40001
1.40001
1.40001
1.40001
1.40001
1.40001
1.40001
1.40001
1.40001
1.40001
1.40001
1.40001
1.40001
1.40001
1.40001
1.40001
1.40001
1.40001
1.40001
1.40001
1.40001
1.40001
1.40001
1.40001
1.40001
1.40001
1.40001
1.40001
1.40001
1.40001
1.40001
1.40002
1.40109
1.47558
3.87438
5.16463
5.45406
5.59428
5.65758
5.66987
5.63357
5.61938
5.64342
5.66396
5.67469
5.67206
5.67105
5.68144
5.69219
5.6931
5.66382
5.63075
5.61797
5.61392
5.60557
5.58906
5.56853
5.5452
5.51475
5.46845
5.39494
5.29503
5.19676
5.13843
5.11178
5.06678
4.97733
5.05237
1.40001
1.40001
1.40001
1.40001
1.40001
1.40001
1.40001
1.40001
1.40001
1.40001
1.40001
1.40001
1.40001
1.40001
1.40001
1.40001
1.40001
1.40001
1.40001
1.40001
1.40001
1.40001
1.40001
1.40001
1.40001
1.40001
1.40001
1.40001
1.40001
1.40001
1.40001
1.40001
1.40001
1.40001
1.40001
1.40001
1.40001
1.40001
1.40001
1.40001
1.40001
1.40001
1.40001
1.40001
1.40001
1.40001
1.40001
1.40001
1.40001
1.40001
1.40001
1.40001
1.40001
1.40001
1.40001
1.40001
1.40001
1.40001
1.40001
1.40002
1.40091
1.46386
3.55534
5.08253
5.47915
5.63604
5.67289
5.65535
5.61588
5.61692
5.63561
5.64905
5.65136
5.6513
5.65992
5.67223
5.6839
5.68627
5.65981
5.62588
5.61042
5.605
5.59637
5.58066
5.56157
5.53943
5.50952
5.4634
5.39051
5.29043
5.18941
5.12656
5.0989
5.05587
4.96099
5.037
1.40001
1.40001
1.40001
1.40001
1.40001
1.40001
1.40001
1.40001
1.40001
1.40001
1.40001
1.40001
1.40001
1.40001
1.40001
1.40001
1.40001
1.40001
1.40001
1.40001
1.40001
1.40001
1.40001
1.40001
1.40001
1.40001
1.40001
1.40001
1.40001
1.40001
1.40001
1.40001
1.40001
1.40001
1.40001
1.40001
1.40001
1.40001
1.40001
1.40001
1.40001
1.40001
1.40001
1.40001
1.40001
1.40001
1.40001
1.40001
1.40001
1.40001
1.40001
1.40001
1.40001
1.40001
1.40001
1.40001
1.40001
1.40001
1.40001
1.40001
1.40069
1.44988
3.17918
5.01998
5.5885
5.6629
5.67007
5.6039
5.59218
5.61367
5.63075
5.64055
5.63625
5.63991
5.6533
5.66579
5.67582
5.6763
5.65361
5.62328
5.60636
5.59868
5.58878
5.57312
5.55482
5.53324
5.50335
5.45705
5.38465
5.2848
5.18144
5.11357
5.08374
5.04426
4.94787
5.01562
1.40001
1.40001
1.40001
1.40001
1.40001
1.40001
1.40001
1.40001
1.40001
1.40001
1.40001
1.40001
1.40001
1.40001
1.40001
1.40001
1.40001
1.40001
1.40001
1.40001
1.40001
1.40001
1.40001
1.40001
1.40001
1.40001
1.40001
1.40001
1.40001
1.40001
1.40001
1.40001
1.40001
1.40001
1.40001
1.40001
1.40001
1.40001
1.40001
1.40001
1.40001
1.40001
1.40001
1.40001
1.40001
1.40001
1.40001
1.40001
1.40001
1.40001
1.40001
1.40001
1.40001
1.40001
1.40001
1.40001
1.40001
1.40001
1.40001
1.40001
1.40043
1.43255
2.68257
5.04279
5.7277
5.68176
5.58801
5.54397
5.57124
5.61823
5.63897
5.64432
5.63395
5.6369
5.65112
5.66201
5.66785
5.66246
5.64241
5.61885
5.60378
5.59474
5.58329
5.56674
5.54785
5.52553
5.49483
5.44805
5.37626
5.27717
5.17232
5.0999
5.06715
5.02944
4.93165
4.9969
1.40001
1.40001
1.40001
1.40001
1.40001
1.40001
1.40001
1.40001
1.40001
1.40001
1.40001
1.40001
1.40001
1.40001
1.40001
1.40001
1.40001
1.40001
1.40001
1.40001
1.40001
1.40001
1.40001
1.40001
1.40001
1.40001
1.40001
1.40001
1.40001
1.40001
1.40001
1.40001
1.40001
1.40001
1.40001
1.40001
1.40001
1.40001
1.40001
1.40001
1.40001
1.40001
1.40001
1.40001
1.40001
1.40001
1.40001
1.40001
1.40001
1.40001
1.40001
1.40001
1.40001
1.40001
1.40001
1.40001
1.40001
1.40001
1.40001
1.40001
1.40019
1.41469
2.11363
5.1812
5.84422
5.60478
5.50246
5.50801
5.56068
5.62986
5.65628
5.65783
5.63997
5.63575
5.64682
5.6544
5.65382
5.64309
5.62653
5.61109
5.60084
5.59256
5.58008
5.56162
5.54014
5.51528
5.4829
5.43577
5.3651
5.2673
5.16151
5.08496
5.04996
5.01348
4.91148
4.97893
1.40001
1.40001
1.40001
1.40001
1.40001
1.40001
1.40001
1.40001
1.40001
1.40001
1.40001
1.40001
1.40001
1.40001
1.40001
1.40001
1.40001
1.40001
1.40001
1.40001
1.40001
1.40001
1.40001
1.40001
1.40001
1.40001
1.40001
1.40001
1.40001
1.40001
1.40001
1.40001
1.40001
1.40001
1.40001
1.40001
1.40001
1.40001
1.40001
1.40001
1.40001
1.40001
1.40001
1.40001
1.40001
1.40001
1.40001
1.40001
1.40001
1.40001
1.40001
1.40001
1.40001
1.40001
1.40001
1.40001
1.40001
1.40001
1.40001
1.40001
1.40005
1.4036
1.62649
4.89863
5.74907
5.48625
5.45351
5.48644
5.56606
5.6575
5.67793
5.66917
5.63668
5.62598
5.63498
5.63951
5.63358
5.6214
5.60935
5.60123
5.59631
5.59017
5.57745
5.55656
5.53097
5.50211
5.46735
5.42002
5.35079
5.25447
5.14833
5.06839
5.03196
4.9961
4.8912
4.96076
1.40001
1.40001
1.40001
1.40001
1.40001
1.40001
1.40001
1.40001
1.40001
1.40001
1.40001
1.40001
1.40001
1.40001
1.40001
1.40001
1.40001
1.40001
1.40001
1.40001
1.40001
1.40001
1.40001
1.40001
1.40001
1.40001
1.40001
1.40001
1.40001
1.40001
1.40001
1.40001
1.40001
1.40001
1.40001
1.40001
1.40001
1.40001
1.40001
1.40001
1.40001
1.40001
1.40001
1.40001
1.40001
1.40001
1.40001
1.40001
1.40001
1.40001
1.40001
1.40001
1.40001
1.40001
1.40001
1.40001
1.40001
1.40001
1.40001
1.40001
1.40002
1.40135
1.4938
4.3092
5.50333
5.41815
5.42557
5.48661
5.60117
5.6751
5.6816
5.6521
5.61168
5.60613
5.61684
5.62123
5.61263
5.60021
5.59225
5.58929
5.58819
5.58413
5.57191
5.54918
5.5194
5.48596
5.44855
5.40129
5.33397
5.23919
5.13206
5.04765
5.01007
4.97837
4.87403
4.93585
1.40001
1.40001
1.40001
1.40001
1.40001
1.40001
1.40001
1.40001
1.40001
1.40001
1.40001
1.40001
1.40001
1.40001
1.40001
1.40001
1.40001
1.40001
1.40001
1.40001
1.40001
1.40001
1.40001
1.40001
1.40001
1.40001
1.40001
1.40001
1.40001
1.40001
1.40001
1.40001
1.40001
1.40001
1.40001
1.40001
1.40001
1.40001
1.40001
1.40001
1.40001
1.40001
1.40001
1.40001
1.40001
1.40001
1.40001
1.40001
1.40001
1.40001
1.40001
1.40001
1.40001
1.40001
1.40001
1.40001
1.40001
1.40001
1.40001
1.40001
1.40002
1.40103
1.47146
3.82664
5.25798
5.37969
5.41687
5.52469
5.63774
5.65723
5.65763
5.60816
5.57574
5.58553
5.60013
5.60548
5.59399
5.58112
5.57635
5.57628
5.57679
5.57353
5.5618
5.53818
5.50517
5.46732
5.42695
5.3795
5.31419
5.22175
5.11393
5.02361
4.97889
4.95031
4.8787
4.89177
1.40001
1.40001
1.40001
1.40001
1.40001
1.40001
1.40001
1.40001
1.40001
1.40001
1.40001
1.40001
1.40001
1.40001
1.40001
1.40001
1.40001
1.40001
1.40001
1.40001
1.40001
1.40001
1.40001
1.40001
1.40001
1.40001
1.40001
1.40001
1.40001
1.40001
1.40001
1.40001
1.40001
1.40001
1.40001
1.40001
1.40001
1.40001
1.40001
1.40001
1.40001
1.40001
1.40001
1.40001
1.40001
1.40001
1.40001
1.40001
1.40001
1.40001
1.40001
1.40001
1.40001
1.40001
1.40001
1.40001
1.40001
1.40001
1.40001
1.40001
1.40002
1.4008
1.45635
3.37946
5.06003
5.34383
5.43468
5.562
5.60047
5.60946
5.5681
5.536
5.54317
5.56736
5.58662
5.59267
5.57781
5.56399
5.56134
5.5626
5.56282
5.55874
5.54688
5.52316
5.48825
5.44679
5.40367
5.35545
5.29181
5.20217
5.09421
4.99948
4.94841
4.91497
4.84224
4.8732
1.40001
1.40001
1.40001
1.40001
1.40001
1.40001
1.40001
1.40001
1.40001
1.40001
1.40001
1.40001
1.40001
1.40001
1.40001
1.40001
1.40001
1.40001
1.40001
1.40001
1.40001
1.40001
1.40001
1.40001
1.40001
1.40001
1.40001
1.40001
1.40001
1.40001
1.40001
1.40001
1.40001
1.40001
1.40001
1.40001
1.40001
1.40001
1.40001
1.40001
1.40001
1.40001
1.40001
1.40001
1.40001
1.40001
1.40001
1.40001
1.40001
1.40001
1.40001
1.40001
1.40001
1.40001
1.40001
1.40001
1.40001
1.40001
1.40001
1.40001
1.40001
1.40056
1.44096
2.93534
4.94353
5.32553
5.48177
5.55029
5.5438
5.50076
5.47754
5.49037
5.51983
5.55536
5.57705
5.58151
5.56277
5.54753
5.54651
5.54861
5.54792
5.54198
5.52886
5.50527
5.46919
5.42521
5.37932
5.3295
5.26663
5.17889
5.0709
4.97178
4.91525
4.87835
4.80793
4.8383
1.40001
1.40001
1.40001
1.40001
1.40001
1.40001
1.40001
1.40001
1.40001
1.40001
1.40001
1.40001
1.40001
1.40001
1.40001
1.40001
1.40001
1.40001
1.40001
1.40001
1.40001
1.40001
1.40001
1.40001
1.40001
1.40001
1.40001
1.40001
1.40001
1.40001
1.40001
1.40001
1.40001
1.40001
1.40001
1.40001
1.40001
1.40001
1.40001
1.40001
1.40001
1.40001
1.40001
1.40001
1.40001
1.40001
1.40001
1.40001
1.40001
1.40001
1.40001
1.40001
1.40001
1.40001
1.40001
1.40001
1.40001
1.40001
1.40001
1.40001
1.40001
1.40028
1.42136
2.33329
4.96458
5.41281
5.54239
5.53987
5.45316
5.42329
5.45037
5.47399
5.51648
5.54849
5.56658
5.56704
5.54505
5.5306
5.53257
5.53568
5.5338
5.52482
5.50877
5.48437
5.44785
5.40243
5.35365
5.30165
5.23883
5.15271
5.04559
4.94187
4.87859
4.83509
4.76412
4.79874
1.40001
1.40001
1.40001
1.40001
1.40001
1.40001
1.40001
1.40001
1.40001
1.40001
1.40001
1.40001
1.40001
1.40001
1.40001
1.40001
1.40001
1.40001
1.40001
1.40001
1.40001
1.40001
1.40001
1.40001
1.40001
1.40001
1.40001
1.40001
1.40001
1.40001
1.40001
1.40001
1.40001
1.40001
1.40001
1.40001
1.40001
1.40001
1.40001
1.40001
1.40001
1.40001
1.40001
1.40001
1.40001
1.40001
1.40001
1.40001
1.40001
1.40001
1.40001
1.40001
1.40001
1.40001
1.40001
1.40001
1.40001
1.40001
1.40001
1.40001
1.40001
1.40009
1.40635
1.75362
4.84957
5.52936
5.56198
5.44878
5.40733
5.41909
5.45201
5.48103
5.52535
5.54172
5.55507
5.54838
5.52467
5.51455
5.51993
5.52335
5.52
5.50753
5.48751
5.46078
5.42419
5.3781
5.32649
5.27161
5.20746
5.12188
5.01484
4.90739
4.83678
4.78761
4.69778
4.7563
1.40001
1.40001
1.40001
1.40001
1.40001
1.40001
1.40001
1.40001
1.40001
1.40001
1.40001
1.40001
1.40001
1.40001
1.40001
1.40001
1.40001
1.40001
1.40001
1.40001
1.40001
1.40001
1.40001
1.40001
1.40001
1.40001
1.40001
1.40001
1.40001
1.40001
1.40001
1.40001
1.40001
1.40001
1.40001
1.40001
1.40001
1.40001
1.40001
1.40001
1.40001
1.40001
1.40001
1.40001
1.40001
1.40001
1.40001
1.40001
1.40001
1.40001
1.40001
1.40001
1.40001
1.40001
1.40001
1.40001
1.40001
1.40001
1.40001
1.40001
1.40001
1.40003
1.40149
1.50292
4.25827
5.33088
5.41808
5.42823
5.43358
5.46899
5.49953
5.51737
5.53828
5.53622
5.53617
5.52896
5.50813
5.50217
5.50785
5.51004
5.5053
5.48989
5.46512
5.43502
5.39768
5.35116
5.29697
5.23878
5.17214
5.08646
4.97937
4.8678
4.78774
4.73267
4.64174
4.67626
1.40001
1.40001
1.40001
1.40001
1.40001
1.40001
1.40001
1.40001
1.40001
1.40001
1.40001
1.40001
1.40001
1.40001
1.40001
1.40001
1.40001
1.40001
1.40001
1.40001
1.40001
1.40001
1.40001
1.40001
1.40001
1.40001
1.40001
1.40001
1.40001
1.40001
1.40001
1.40001
1.40001
1.40001
1.40001
1.40001
1.40001
1.40001
1.40001
1.40001
1.40001
1.40001
1.40001
1.40001
1.40001
1.40001
1.40001
1.40001
1.40001
1.40001
1.40001
1.40001
1.40001
1.40001
1.40001
1.40001
1.40001
1.40001
1.40001
1.40001
1.40001
1.40002
1.40085
1.46091
3.53967
5.04507
5.36888
5.43452
5.52031
5.57158
5.58682
5.56351
5.53189
5.51737
5.51484
5.51665
5.50233
5.49462
5.49615
5.49524
5.4884
5.47034
5.44092
5.40682
5.36791
5.32065
5.2645
5.20261
5.13244
5.04537
4.93653
4.81811
4.72447
4.66023
4.56265
4.58954
1.40001
1.40001
1.40001
1.40001
1.40001
1.40001
1.40001
1.40001
1.40001
1.40001
1.40001
1.40001
1.40001
1.40001
1.40001
1.40001
1.40001
1.40001
1.40001
1.40001
1.40001
1.40001
1.40001
1.40001
1.40001
1.40001
1.40001
1.40001
1.40001
1.40001
1.40001
1.40001
1.40001
1.40001
1.40001
1.40001
1.40001
1.40001
1.40001
1.40001
1.40001
1.40001
1.40001
1.40001
1.40001
1.40001
1.40001
1.40001
1.40001
1.40001
1.40001
1.40001
1.40001
1.40001
1.40001
1.40001
1.40001
1.40001
1.40001
1.40001
1.40001
1.40001
1.40048
1.43585
2.82902
4.90193
5.40342
5.50775
5.57547
5.63003
5.63919
5.58403
5.51541
5.49527
5.4979
5.51292
5.50904
5.49583
5.48574
5.47908
5.46769
5.44612
5.41294
5.37499
5.33414
5.28589
5.22796
5.16215
5.08752
4.9977
4.88647
4.76126
4.65225
4.57427
4.46665
4.45432
1.40001
1.40001
1.40001
1.40001
1.40001
1.40001
1.40001
1.40001
1.40001
1.40001
1.40001
1.40001
1.40001
1.40001
1.40001
1.40001
1.40001
1.40001
1.40001
1.40001
1.40001
1.40001
1.40001
1.40001
1.40001
1.40001
1.40001
1.40001
1.40001
1.40001
1.40001
1.40001
1.40001
1.40001
1.40001
1.40001
1.40001
1.40001
1.40001
1.40001
1.40001
1.40001
1.40001
1.40001
1.40001
1.40001
1.40001
1.40001
1.40001
1.40001
1.40001
1.40001
1.40001
1.40001
1.40001
1.40001
1.40001
1.40001
1.40001
1.40001
1.40001
1.40001
1.40017
1.41346
2.07252
4.92819
5.46152
5.55989
5.58432
5.58997
5.56906
5.50713
5.46578
5.47137
5.49488
5.52307
5.52441
5.50484
5.47729
5.45945
5.44201
5.41624
5.37961
5.33853
5.29597
5.24679
5.18712
5.11748
5.03795
4.94414
4.82855
4.69234
4.55733
4.44827
4.30318
4.2696
1.40001
1.40001
1.40001
1.40001
1.40001
1.40001
1.40001
1.40001
1.40001
1.40001
1.40001
1.40001
1.40001
1.40001
1.40001
1.40001
1.40001
1.40001
1.40001
1.40001
1.40001
1.40001
1.40001
1.40001
1.40001
1.40001
1.40001
1.40001
1.40001
1.40001
1.40001
1.40001
1.40001
1.40001
1.40001
1.40001
1.40001
1.40001
1.40001
1.40001
1.40001
1.40001
1.40001
1.40001
1.40001
1.40001
1.40001
1.40001
1.40001
1.40001
1.40001
1.40001
1.40001
1.40001
1.40001
1.40001
1.40001
1.40001
1.40001
1.40001
1.40001
1.40001
1.40004
1.40227
1.54995
4.55588
5.38918
5.46214
5.45504
5.47527
5.47906
5.44769
5.44499
5.46171
5.50186
5.5277
5.52797
5.50014
5.45882
5.43253
5.41066
5.38104
5.34096
5.29728
5.25348
5.20361
5.14218
5.06856
4.98334
4.8834
4.76043
4.61076
4.44702
4.29985
4.11412
3.94129
1.40001
1.40001
1.40001
1.40001
1.40001
1.40001
1.40001
1.40001
1.40001
1.40001
1.40001
1.40001
1.40001
1.40001
1.40001
1.40001
1.40001
1.40001
1.40001
1.40001
1.40001
1.40001
1.40001
1.40001
1.40001
1.40001
1.40001
1.40001
1.40001
1.40001
1.40001
1.40001
1.40001
1.40001
1.40001
1.40001
1.40001
1.40001
1.40001
1.40001
1.40001
1.40001
1.40001
1.40001
1.40001
1.40001
1.40001
1.40001
1.40001
1.40001
1.40001
1.40001
1.40001
1.40001
1.40001
1.40001
1.40001
1.40001
1.40001
1.40001
1.40001
1.40001
1.40002
1.40099
1.46996
3.72178
5.18296
5.3894
5.38569
5.40777
5.42625
5.41584
5.42955
5.45842
5.48613
5.49515
5.49706
5.46393
5.42335
5.3966
5.37267
5.3408
5.29806
5.25188
5.20694
5.15652
5.09356
5.01608
4.92475
4.81749
4.68551
4.52079
4.31431
4.08524
3.69982
2.93627
1.40001
1.40001
1.40001
1.40001
1.40001
1.40001
1.40001
1.40001
1.40001
1.40001
1.40001
1.40001
1.40001
1.40001
1.40001
1.40001
1.40001
1.40001
1.40001
1.40001
1.40001
1.40001
1.40001
1.40001
1.40001
1.40001
1.40001
1.40001
1.40001
1.40001
1.40001
1.40001
1.40001
1.40001
1.40001
1.40001
1.40001
1.40001
1.40001
1.40001
1.40001
1.40001
1.40001
1.40001
1.40001
1.40001
1.40001
1.40001
1.40001
1.40001
1.40001
1.40001
1.40001
1.40001
1.40001
1.40001
1.40001
1.40001
1.40001
1.40001
1.40001
1.40001
1.40001
1.40051
1.43835
2.8948
4.99792
5.41019
5.39517
5.39634
5.40442
5.39999
5.42481
5.44848
5.4608
5.45365
5.43844
5.40871
5.3778
5.35697
5.333
5.2991
5.25252
5.20307
5.1571
5.10648
5.04251
4.96155
4.86374
4.74783
4.60401
4.41978
4.1692
3.85706
3.39639
2.56444
1.40001
1.40001
1.40001
1.40001
1.40001
1.40001
1.40001
1.40001
1.40001
1.40001
1.40001
1.40001
1.40001
1.40001
1.40001
1.40001
1.40001
1.40001
1.40001
1.40001
1.40001
1.40001
1.40001
1.40001
1.40001
1.40001
1.40001
1.40001
1.40001
1.40001
1.40001
1.40001
1.40001
1.40001
1.40001
1.40001
1.40001
1.40001
1.40001
1.40001
1.40001
1.40001
1.40001
1.40001
1.40001
1.40001
1.40001
1.40001
1.40001
1.40001
1.40001
1.40001
1.40001
1.40001
1.40001
1.40001
1.40001
1.40001
1.40001
1.40001
1.40001
1.40001
1.40001
1.40016
1.4118
2.0108
4.94759
5.54145
5.50372
5.46599
5.44949
5.42901
5.42771
5.42773
5.41788
5.40102
5.38637
5.36386
5.34137
5.31963
5.29228
5.25528
5.20407
5.15117
5.10472
5.0539
4.98949
4.90585
4.80177
4.67669
4.52114
4.31781
4.04948
3.69614
3.19572
2.50525
1.40001
1.40001
1.40001
1.40001
1.40001
1.40001
1.40001
1.40001
1.40001
1.40001
1.40001
1.40001
1.40001
1.40001
1.40001
1.40001
1.40001
1.40001
1.40001
1.40001
1.40001
1.40001
1.40001
1.40001
1.40001
1.40001
1.40001
1.40001
1.40001
1.40001
1.40001
1.40001
1.40001
1.40001
1.40001
1.40001
1.40001
1.40001
1.40001
1.40001
1.40001
1.40001
1.40001
1.40001
1.40001
1.40001
1.40001
1.40001
1.40001
1.40001
1.40001
1.40001
1.40001
1.40001
1.40001
1.40001
1.40001
1.40001
1.40001
1.40001
1.40001
1.40001
1.40001
1.40004
1.40198
1.53412
4.38385
5.40293
5.40557
5.41861
5.42016
5.39596
5.39123
5.39758
5.38875
5.36939
5.34958
5.32673
5.30705
5.28301
5.2526
5.21114
5.15437
5.09922
5.05299
5.00158
4.93635
4.8508
4.74152
4.60743
4.44423
4.23205
3.96006
3.59979
3.16
2.67557
1.40001
1.40001
1.40001
1.40001
1.40001
1.40001
1.40001
1.40001
1.40001
1.40001
1.40001
1.40001
1.40001
1.40001
1.40001
1.40001
1.40001
1.40001
1.40001
1.40001
1.40001
1.40001
1.40001
1.40001
1.40001
1.40001
1.40001
1.40001
1.40001
1.40001
1.40001
1.40001
1.40001
1.40001
1.40001
1.40001
1.40001
1.40001
1.40001
1.40001
1.40001
1.40001
1.40001
1.40001
1.40001
1.40001
1.40001
1.40001
1.40001
1.40001
1.40001
1.40001
1.40001
1.40001
1.40001
1.40001
1.40001
1.40001
1.40001
1.40001
1.40001
1.40001
1.40001
1.40002
1.40083
1.45988
3.49363
5.19145
5.32257
5.34103
5.37109
5.36429
5.36895
5.38059
5.37534
5.35869
5.33222
5.30076
5.27692
5.24831
5.21415
5.16848
5.10734
5.05162
5.00251
4.94943
4.88292
4.79511
4.68253
4.54311
4.37511
4.16407
3.89446
3.56342
3.16086
2.73925
1.40001
1.40001
1.40001
1.40001
1.40001
1.40001
1.40001
1.40001
1.40001
1.40001
1.40001
1.40001
1.40001
1.40001
1.40001
1.40001
1.40001
1.40001
1.40001
1.40001
1.40001
1.40001
1.40001
1.40001
1.40001
1.40001
1.40001
1.40001
1.40001
1.40001
1.40001
1.40001
1.40001
1.40001
1.40001
1.40001
1.40001
1.40001
1.40001
1.40001
1.40001
1.40001
1.40001
1.40001
1.40001
1.40001
1.40001
1.40001
1.40001
1.40001
1.40001
1.40001
1.40001
1.40001
1.40001
1.40001
1.40001
1.40001
1.40001
1.40001
1.40001
1.40001
1.40001
1.40001
1.40035
1.426
2.54722
5.08747
5.32047
5.31265
5.34093
5.33605
5.34126
5.35961
5.36591
5.35701
5.3316
5.28921
5.25081
5.2165
5.1796
5.13163
5.0672
5.0095
4.95533
4.89911
4.83142
4.74211
4.62818
4.4868
4.31743
4.11069
3.85155
3.54938
3.1801
2.80151
1.40001
1.40001
1.40001
1.40001
1.40001
1.40001
1.40001
1.40001
1.40001
1.40001
1.40001
1.40001
1.40001
1.40001