/*--------------------------------*- C++ -*----------------------------------*\
| =========                 |                                                 |
| \\      /  F ield         | OpenFOAM: The Open Source CFD Toolbox           |
|  \\    /   O peration     | Version:  v1812                                 |
|   \\  /    A nd           | Web:      www.OpenFOAM.com                      |
|    \\/     M anipulation  |                                                 |
\*---------------------------------------------------------------------------*/
FoamFile
{
    version     2.0;
    format      ascii;
    class       volScalarField;
    location    "0.5";
    object      T;
}
// * * * * * * * * * * * * * * * * * * * * * * * * * * * * * * * * * * * * * //

dimensions      [0 0 0 1 0 0 0];


internalField   nonuniform List<scalar> 
64512
(
1
1
1
1
1
1
1
1
1
1
1
1
1
1
1
1
1
1
1
1
1
1
1
1
1
1
1
1
1
1
1
1
1
1
1
1
1
1
1
1
1
1
1
1
1
1
1
1
1
1
1
1
1
1
1
1
1
1
1
1.00024
1.01721
2.07915
2.84038
2.81274
2.79622
2.80226
2.81847
2.83896
2.86661
2.89455
2.91139
2.90988
2.90715
2.90865
2.91736
2.93358
2.94703
2.95448
2.96133
2.97185
2.98538
2.99946
3.01499
3.03621
3.06528
3.10153
3.14697
3.20764
3.28133
3.33926
3.36022
3.3615
3.36158
3.38538
3.43643
3.34291
1
1
1
1
1
1
1
1
1
1
1
1
1
1
1
1
1
1
1
1
1
1
1
1
1
1
1
1
1
1
1
1
1
1
1
1
1
1
1
1
1
1
1
1
1
1
1
1
1
1
1
1
1
1
1
1
1
1
1
1.00024
1.01775
2.14204
2.88118
2.84058
2.81504
2.82465
2.84322
2.85401
2.861
2.87032
2.88284
2.88634
2.88812
2.89261
2.90303
2.9195
2.93531
2.94548
2.95406
2.96557
2.98017
2.99631
3.01488
3.03797
3.06544
3.09787
3.13909
3.19562
3.26752
3.33077
3.35856
3.36175
3.36137
3.37778
3.42908
3.36503
1
1
1
1
1
1
1
1
1
1
1
1
1
1
1
1
1
1
1
1
1
1
1
1
1
1
1
1
1
1
1
1
1
1
1
1
1
1
1
1
1
1
1
1
1
1
1
1
1
1
1
1
1
1
1
1
1
1
1
1.00022
1.01582
1.98926
2.7555
2.74856
2.77156
2.81012
2.83771
2.84409
2.84447
2.84921
2.86964
2.88761
2.89264
2.89693
2.90458
2.91857
2.93479
2.94589
2.954
2.96299
2.97462
2.99004
3.0097
3.03263
3.0578
3.08563
3.12039
3.16861
3.23444
3.30554
3.3507
3.36167
3.36185
3.37056
3.41741
3.3849
1
1
1
1
1
1
1
1
1
1
1
1
1
1
1
1
1
1
1
1
1
1
1
1
1
1
1
1
1
1
1
1
1
1
1
1
1
1
1
1
1
1
1
1
1
1
1
1
1
1
1
1
1
1
1
1
1
1
1
1.00025
1.01863
2.21122
2.92437
2.88569
2.87695
2.88342
2.88137
2.87722
2.87992
2.89688
2.92397
2.92596
2.91898
2.91383
2.91732
2.93116
2.94858
2.95655
2.96055
2.96567
2.97407
2.987
3.00449
3.02496
3.04723
3.07264
3.10517
3.15019
3.21319
3.2882
3.34381
3.35972
3.35993
3.36854
3.4153
3.38085
1
1
1
1
1
1
1
1
1
1
1
1
1
1
1
1
1
1
1
1
1
1
1
1
1
1
1
1
1
1
1
1
1
1
1
1
1
1
1
1
1
1
1
1
1
1
1
1
1
1
1
1
1
1
1
1
1
1
1
1.00022
1.01615
2.05549
2.86706
2.81232
2.78252
2.81026
2.86176
2.88705
2.88777
2.88972
2.88831
2.8892
2.89972
2.91967
2.93784
2.95024
2.95865
2.96744
2.97586
2.98133
2.9864
2.99529
3.0096
3.0277
3.04818
3.07253
3.10451
3.14939
3.21235
3.28761
3.34319
3.35869
3.35929
3.3706
3.41906
3.37384
1
1
1
1
1
1
1
1
1
1
1
1
1
1
1
1
1
1
1
1
1
1
1
1
1
1
1
1
1
1
1
1
1
1
1
1
1
1
1
1
1
1
1
1
1
1
1
1
1
1
1
1
1
1
1
1
1
1
1
1.00019
1.01382
1.95795
2.81423
2.76775
2.76727
2.80625
2.85759
2.87361
2.86986
2.85976
2.85841
2.86358
2.87873
2.90615
2.93154
2.94343
2.95121
2.96115
2.97408
2.98631
2.99503
3.00365
3.01554
3.03092
3.0494
3.07272
3.10456
3.14957
3.21259
3.28738
3.3423
3.35742
3.35857
3.37369
3.42404
3.36407
1
1
1
1
1
1
1
1
1
1
1
1
1
1
1
1
1
1
1
1
1
1
1
1
1
1
1
1
1
1
1
1
1
1
1
1
1
1
1
1
1
1
1
1
1
1
1
1
1
1
1
1
1
1
1
1
1
1
1
1.00017
1.01274
1.95054
2.79616
2.76403
2.78052
2.8288
2.85577
2.85566
2.85033
2.84863
2.85651
2.8681
2.88125
2.90131
2.92457
2.9351
2.94041
2.94872
2.96426
2.98108
2.99296
3.00294
3.01521
3.03072
3.04934
3.07294
3.10526
3.15106
3.21464
3.28878
3.34191
3.35593
3.35707
3.37353
3.42474
3.35744
1
1
1
1
1
1
1
1
1
1
1
1
1
1
1
1
1
1
1
1
1
1
1
1
1
1
1
1
1
1
1
1
1
1
1
1
1
1
1
1
1
1
1
1
1
1
1
1
1
1
1
1
1
1
1
1
1
1
1
1.00015
1.0112
1.90994
2.75738
2.7666
2.81839
2.85841
2.86139
2.85581
2.84806
2.84973
2.86096
2.87361
2.88435
2.89993
2.91983
2.92958
2.93345
2.93849
2.95092
2.96918
2.98493
2.99733
3.01074
3.02732
3.04717
3.07184
3.10495
3.15136
3.21528
3.28896
3.34094
3.35447
3.3556
3.37257
3.42329
3.3564
1
1
1
1
1
1
1
1
1
1
1
1
1
1
1
1
1
1
1
1
1
1
1
1
1
1
1
1
1
1
1
1
1
1
1
1
1
1
1
1
1
1
1
1
1
1
1
1
1
1
1
1
1
1
1
1
1
1
1
1.00011
1.00831
1.73262
2.67408
2.7536
2.82972
2.85821
2.85749
2.84992
2.84468
2.84891
2.86292
2.87692
2.88774
2.90279
2.92171
2.93068
2.93299
2.93514
2.94307
2.95818
2.97428
2.98803
3.00279
3.02131
3.04345
3.06994
3.10397
3.15055
3.21407
3.28682
3.33827
3.35242
3.3539
3.37048
3.42052
3.35757
1
1
1
1
1
1
1
1
1
1
1
1
1
1
1
1
1
1
1
1
1
1
1
1
1
1
1
1
1
1
1
1
1
1
1
1
1
1
1
1
1
1
1
1
1
1
1
1
1
1
1
1
1
1
1
1
1
1
1
1.00008
1.00602
1.58546
2.62607
2.76556
2.84804
2.86004
2.85488
2.84571
2.84506
2.85206
2.86751
2.8817
2.89358
2.90948
2.92573
2.9306
2.93128
2.93264
2.93977
2.95434
2.96985
2.98277
2.99707
3.01605
3.03952
3.06735
3.10203
3.1484
3.21094
3.28252
3.33449
3.34983
3.35135
3.36713
3.41895
3.35685
1
1
1
1
1
1
1
1
1
1
1
1
1
1
1
1
1
1
1
1
1
1
1
1
1
1
1
1
1
1
1
1
1
1
1
1
1
1
1
1
1
1
1
1
1
1
1
1
1
1
1
1
1
1
1
1
1
1
1
1.00005
1.00396
1.42666
2.5415
2.7801
2.84983
2.8552
2.84727
2.84048
2.84413
2.85809
2.87446
2.88541
2.89692
2.9146
2.92864
2.93039
2.93027
2.93158
2.93931
2.95442
2.96946
2.98138
2.99461
3.01281
3.03617
3.06437
3.09924
3.14512
3.20639
3.27694
3.33009
3.34722
3.34889
3.36373
3.41507
3.35682
1
1
1
1
1
1
1
1
1
1
1
1
1
1
1
1
1
1
1
1
1
1
1
1
1
1
1
1
1
1
1
1
1
1
1
1
1
1
1
1
1
1
1
1
1
1
1
1
1
1
1
1
1
1
1
1
1
1
1
1.00003
1.00226
1.27135
2.4441
2.80133
2.85221
2.8481
2.83456
2.83143
2.83959
2.86031
2.87542
2.8829
2.89266
2.9106
2.92537
2.92685
2.92701
2.9296
2.93966
2.956
2.97002
2.98038
2.99238
3.00977
3.03273
3.06088
3.09571
3.14097
3.20092
3.2705
3.32499
3.34415
3.34629
3.36066
3.41247
3.35573
1
1
1
1
1
1
1
1
1
1
1
1
1
1
1
1
1
1
1
1
1
1
1
1
1
1
1
1
1
1
1
1
1
1
1
1
1
1
1
1
1
1
1
1
1
1
1
1
1
1
1
1
1
1
1
1
1
1
1
1.00001
1.00094
1.10979
2.36157
2.81944
2.84756
2.83876
2.82092
2.821
2.83678
2.86342
2.87393
2.87689
2.88301
2.89978
2.91684
2.91978
2.92093
2.92622
2.94074
2.95937
2.9711
2.97906
2.98954
3.00613
3.0287
3.05666
3.09121
3.1357
3.19423
3.26293
3.319
3.34058
3.34336
3.35714
3.40918
3.35424
1
1
1
1
1
1
1
1
1
1
1
1
1
1
1
1
1
1
1
1
1
1
1
1
1
1
1
1
1
1
1
1
1
1
1
1
1
1
1
1
1
1
1
1
1
1
1
1
1
1
1
1
1
1
1
1
1
1
1
1.00001
1.00043
1.02935
2.3188
2.84654
2.85007
2.83168
2.80951
2.81465
2.8391
2.86596
2.87135
2.87152
2.87468
2.88846
2.90595
2.91052
2.91291
2.92112
2.93941
2.95954
2.97061
2.97718
2.98651
3.00247
3.02475
3.05245
3.08652
3.13006
3.18712
3.2549
3.31247
3.33661
3.34013
3.35336
3.40561
3.35196
1
1
1
1
1
1
1
1
1
1
1
1
1
1
1
1
1
1
1
1
1
1
1
1
1
1
1
1
1
1
1
1
1
1
1
1
1
1
1
1
1
1
1
1
1
1
1
1
1
1
1
1
1
1
1
1
1
1
1
1.00001
1.00035
1.02475
2.26461
2.85597
2.85317
2.82058
2.79789
2.80835
2.84205
2.86759
2.87127
2.8719
2.87535
2.88755
2.90061
2.90241
2.90422
2.91368
2.9353
2.95794
2.96906
2.97524
2.98415
2.99966
3.02137
3.04837
3.0816
3.12397
3.1795
3.24637
3.30539
3.33219
3.33649
3.34907
3.40171
3.35011
1
1
1
1
1
1
1
1
1
1
1
1
1
1
1
1
1
1
1
1
1
1
1
1
1
1
1
1
1
1
1
1
1
1
1
1
1
1
1
1
1
1
1
1
1
1
1
1
1
1
1
1
1
1
1
1
1
1
1
1
1.00031
1.02173
2.21024
2.86342
2.84991
2.79768
2.78058
2.79874
2.84283
2.86621
2.87033
2.87333
2.87948
2.88951
2.89605
2.89523
2.89578
2.90474
2.92786
2.95325
2.96595
2.97279
2.98198
2.99721
3.01806
3.04398
3.07609
3.11717
3.17115
3.23705
3.29745
3.3272
3.33254
3.34438
3.39673
3.34809
1
1
1
1
1
1
1
1
1
1
1
1
1
1
1
1
1
1
1
1
1
1
1
1
1
1
1
1
1
1
1
1
1
1
1
1
1
1
1
1
1
1
1
1
1
1
1
1
1
1
1
1
1
1
1
1
1
1
1
1
1.00025
1.01836
2.13264
2.86278
2.82242
2.76362
2.76655
2.80288
2.85005
2.86343
2.86643
2.87127
2.88019
2.88882
2.89025
2.88881
2.88906
2.89706
2.91924
2.94573
2.96091
2.96947
2.97955
2.99463
3.01439
3.03892
3.06971
3.10946
3.16189
3.2267
3.28824
3.32123
3.32823
3.33992
3.39048
3.34519
1
1
1
1
1
1
1
1
1
1
1
1
1
1
1
1
1
1
1
1
1
1
1
1
1
1
1
1
1
1
1
1
1
1
1
1
1
1
1
1
1
1
1
1
1
1
1
1
1
1
1
1
1
1
1
1
1
1
1
1
1.00019
1.01437
2.01463
2.83438
2.7657
2.74008
2.77694
2.83165
2.85755
2.85679
2.85639
2.86193
2.87512
2.88261
2.88228
2.88142
2.88256
2.89133
2.91192
2.93695
2.95381
2.96456
2.976
2.99119
3.00997
3.03314
3.06259
3.10098
3.15189
3.21552
3.27806
3.31432
3.32303
3.33462
3.38386
3.34202
1
1
1
1
1
1
1
1
1
1
1
1
1
1
1
1
1
1
1
1
1
1
1
1
1
1
1
1
1
1
1
1
1
1
1
1
1
1
1
1
1
1
1
1
1
1
1
1
1
1
1
1
1
1
1
1
1
1
1
1
1.00012
1.00933
1.80372
2.74366
2.71024
2.74499
2.82442
2.85906
2.85661
2.84375
2.83954
2.84654
2.86347
2.87166
2.87162
2.8721
2.87604
2.88744
2.90681
2.92843
2.94495
2.95739
2.97037
2.98611
3.00454
3.02684
3.05505
3.09195
3.14113
3.20336
3.26671
3.30642
3.31727
3.32883
3.37607
3.33947
1
1
1
1
1
1
1
1
1
1
1
1
1
1
1
1
1
1
1
1
1
1
1
1
1
1
1
1
1
1
1
1
1
1
1
1
1
1
1
1
1
1
1
1
1
1
1
1
1
1
1
1
1
1
1
1
1
1
1
1
1.00005
1.00409
1.44392
2.57056
2.71027
2.79748
2.86155
2.86252
2.84745
2.82137
2.81594
2.8244
2.84535
2.85822
2.86165
2.8651
2.87287
2.8863
2.90346
2.92076
2.93532
2.94828
2.96247
2.97923
2.99825
3.0204
3.04752
3.08265
3.12978
3.19033
3.25413
3.29728
3.31088
3.32273
3.36749
3.33664
1
1
1
1
1
1
1
1
1
1
1
1
1
1
1
1
1
1
1
1
1
1
1
1
1
1
1
1
1
1
1
1
1
1
1
1
1
1
1
1
1
1
1
1
1
1
1
1
1
1
1
1
1
1
1
1
1
1
1
1
1.00001
1.00104
1.10473
2.40166
2.74062
2.8462
2.86527
2.85783
2.82662
2.7923
2.78808
2.80213
2.83366
2.85112
2.85654
2.86214
2.87222
2.88599
2.90047
2.91385
2.926
2.93843
2.95307
2.97086
2.99107
3.01366
3.0398
3.07287
3.1175
3.17606
3.24005
3.28682
3.30382
3.31615
3.35865
3.33399
1
1
1
1
1
1
1
1
1
1
1
1
1
1
1
1
1
1
1
1
1
1
1
1
1
1
1
1
1
1
1
1
1
1
1
1
1
1
1
1
1
1
1
1
1
1
1
1
1
1
1
1
1
1
1
1
1
1
1
1
1.00001
1.00038
1.02667
2.26899
2.78566
2.86074
2.85895
2.83825
2.79194
2.76469
2.77
2.79848
2.83574
2.84928
2.85347
2.85978
2.87138
2.88532
2.89739
2.90777
2.91782
2.92919
2.94349
2.96172
2.98308
3.00634
3.03158
3.06258
3.10455
3.16096
3.22484
3.27467
3.29517
3.30954
3.34957
3.32962
1
1
1
1
1
1
1
1
1
1
1
1
1
1
1
1
1
1
1
1
1
1
1
1
1
1
1
1
1
1
1
1
1
1
1
1
1
1
1
1
1
1
1
1
1
1
1
1
1
1
1
1
1
1
1
1
1
1
1
1
1
1.00029
1.02045
2.14651
2.82381
2.85197
2.83736
2.79841
2.75967
2.7576
2.77676
2.81188
2.84252
2.84724
2.84928
2.85598
2.86953
2.8839
2.89397
2.90227
2.91092
2.92129
2.93475
2.95257
2.97438
2.99805
3.02239
3.05136
3.09066
3.14484
3.20865
3.26126
3.28416
3.29986
3.34392
3.32201
1
1
1
1
1
1
1
1
1
1
1
1
1
1
1
1
1
1
1
1
1
1
1
1
1
1
1
1
1
1
1
1
1
1
1
1
1
1
1
1
1
1
1
1
1
1
1
1
1
1
1
1
1
1
1
1
1
1
1
1
1
1.00023
1.01604
2.03175
2.84202
2.83631
2.79894
2.7577
2.75276
2.77109
2.80533
2.83777
2.84494
2.84237
2.84253
2.84979
2.86605
2.88136
2.88996
2.89678
2.90446
2.91407
2.92661
2.94347
2.96486
2.98833
3.01192
3.03922
3.0759
3.12761
3.19125
3.24689
3.2734
3.29035
3.33346
3.31341
1
1
1
1
1
1
1
1
1
1
1
1
1
1
1
1
1
1
1
1
1
1
1
1
1
1
1
1
1
1
1
1
1
1
1
1
1
1
1
1
1
1
1
1
1
1
1
1
1
1
1
1
1
1
1
1
1
1
1
1
1
1.00016
1.0116
1.88408
2.83092
2.80398
2.73973
2.74088
2.76995
2.8175
2.84666
2.84992
2.84237
2.83328
2.8338
2.84239
2.86166
2.87803
2.88514
2.89038
2.89714
2.90639
2.91843
2.93423
2.95455
2.97702
2.99997
3.02581
3.06001
3.10924
3.17192
3.23015
3.26081
3.27969
3.32436
3.30373
1
1
1
1
1
1
1
1
1
1
1
1
1
1
1
1
1
1
1
1
1
1
1
1
1
1
1
1
1
1
1
1
1
1
1
1
1
1
1
1
1
1
1
1
1
1
1
1
1
1
1
1
1
1
1
1
1
1
1
1
1
1.00008
1.00595
1.56247
2.74549
2.71147
2.70624
2.76054
2.82141
2.84929
2.85015
2.84598
2.83298
2.82463
2.82575
2.83644
2.85864
2.87406
2.87871
2.88207
2.88793
2.89733
2.90948
2.92438
2.94317
2.96411
2.98631
3.01089
3.04299
3.08986
3.15098
3.2115
3.2461
3.26624
3.31279
3.2922
1
1
1
1
1
1
1
1
1
1
1
1
1
1
1
1
1
1
1
1
1
1
1
1
1
1
1
1
1
1
1
1
1
1
1
1
1
1
1
1
1
1
1
1
1
1
1
1
1
1
1
1
1
1
1
1
1
1
1
1
1
1.00002
1.00179
1.19162
2.49286
2.68049
2.75004
2.80855
2.83349
2.83997
2.83901
2.83101
2.82005
2.81627
2.82005
2.83354
2.8563
2.86823
2.87016
2.87192
2.87679
2.88637
2.89911
2.91362
2.93048
2.94973
2.97094
2.99437
3.02451
3.06859
3.12766
3.18954
3.2288
3.25111
3.29931
3.27595
1
1
1
1
1
1
1
1
1
1
1
1
1
1
1
1
1
1
1
1
1
1
1
1
1
1
1
1
1
1
1
1
1
1
1
1
1
1
1
1
1
1
1
1
1
1
1
1
1
1
1
1
1
1
1
1
1
1
1
1
1
1.00001
1.00045
1.02857
2.27355
2.71869
2.80281
2.81596
2.81421
2.81117
2.80731
2.80259
2.80321
2.80877
2.81854
2.83146
2.8508
2.85952
2.85979
2.86052
2.86418
2.87345
2.88697
2.90148
2.91668
2.93404
2.954
2.97619
3.00447
3.04551
3.10188
3.16413
3.2075
3.23153
3.27779
3.25735
1
1
1
1
1
1
1
1
1
1
1
1
1
1
1
1
1
1
1
1
1
1
1
1
1
1
1
1
1
1
1
1
1
1
1
1
1
1
1
1
1
1
1
1
1
1
1
1
1
1
1
1
1
1
1
1
1
1
1
1
1
1
1.00024
1.01754
2.08344
2.79825
2.80066
2.78391
2.75574
2.74409
2.74659
2.7636
2.79154
2.80809
2.8169
2.82567
2.83849
2.84736
2.84775
2.8481
2.85091
2.8596
2.87352
2.88802
2.90203
2.91745
2.93563
2.95644
2.98273
3.02037
3.07292
3.13382
3.18046
3.20633
3.24891
3.2375
1
1
1
1
1
1
1
1
1
1
1
1
1
1
1
1
1
1
1
1
1
1
1
1
1
1
1
1
1
1
1
1
1
1
1
1
1
1
1
1
1
1
1
1
1
1
1
1
1
1
1
1
1
1
1
1
1
1
1
1
1
1
1.00014
1.01013
1.82088
2.79187
2.76742
2.7202
2.70373
2.70928
2.72955
2.76543
2.79744
2.80813
2.80961
2.81169
2.81836
2.82891
2.83362
2.83497
2.8379
2.84605
2.8596
2.87387
2.88676
2.90023
2.91625
2.93526
2.95924
2.99308
3.04097
3.09931
3.14843
3.17475
3.21341
3.19975
1
1
1
1
1
1
1
1
1
1
1
1
1
1
1
1
1
1
1
1
1
1
1
1
1
1
1
1
1
1
1
1
1
1
1
1
1
1
1
1
1
1
1
1
1
1
1
1
1
1
1
1
1
1
1
1
1
1
1
1
1
1
1.00005
1.00371
1.38928
2.62881
2.73056
2.72588
2.71827
2.71949
2.73656
2.77444
2.79815
2.79976
2.79324
2.78947
2.79258
2.80479
2.81637
2.82134
2.82529
2.83323
2.84619
2.85973
2.87126
2.88264
2.89625
2.91299
2.93419
2.9637
3.00575
3.05882
3.10681
3.1304
3.16129
3.15156
1
1
1
1
1
1
1
1
1
1
1
1
1
1
1
1
1
1
1
1
1
1
1
1
1
1
1
1
1
1
1
1
1
1
1
1
1
1
1
1
1
1
1
1
1
1
1
1
1
1
1
1
1
1
1
1
1
1
1
1
1
1
1.00001
1.00084
1.04107
2.36329
2.68316
2.75963
2.75993
2.76371
2.77358
2.78987
2.79375
2.78718
2.77334
2.76578
2.7687
2.78279
2.8011
2.80936
2.81379
2.82124
2.8335
2.84609
2.85598
2.86502
2.87593
2.88995
2.90784
2.93231
2.96716
3.01254
3.05717
3.07519
3.08944
3.02247
1
1
1
1
1
1
1
1
1
1
1
1
1
1
1
1
1
1
1
1
1
1
1
1
1
1
1
1
1
1
1
1
1
1
1
1
1
1
1
1
1
1
1
1
1
1
1
1
1
1
1
1
1
1
1
1
1
1
1
1
1
1
1
1.00027
1.02021
2.15291
2.69934
2.77716
2.78074
2.78415
2.78703
2.78771
2.78377
2.77099
2.75807
2.75736
2.76473
2.78079
2.79602
2.80073
2.8033
2.80969
2.82132
2.83311
2.84111
2.84751
2.85543
2.86635
2.88048
2.89931
2.92591
2.96102
2.9976
2.99116
2.94068
2.71778
1
1
1
1
1
1
1
1
1
1
1
1
1
1
1
1
1
1
1
1
1
1
1
1
1
1
1
1
1
1
1
1
1
1
1
1
1
1
1
1
1
1
1
1
1
1
1
1
1
1
1
1
1
1
1
1
1
1
1
1
1
1
1
1.00015
1.01094
1.8625
2.68178
2.74216
2.75407
2.76473
2.76857
2.76669
2.7623
2.75585
2.75718
2.76198
2.7694
2.78222
2.79202
2.79279
2.79373
2.79883
2.80979
2.82068
2.82655
2.83009
2.83482
2.84243
2.85264
2.86562
2.88309
2.90488
2.92595
2.89893
2.81275
2.52498
1
1
1
1
1
1
1
1
1
1
1
1
1
1
1
1
1
1
1
1
1
1
1
1
1
1
1
1
1
1
1
1
1
1
1
1
1
1
1
1
1
1
1
1
1
1
1
1
1
1
1
1
1
1
1
1
1
1
1
1
1
1
1
1.00004
1.00346
1.32658
2.52856
2.69533
2.71759
2.72796
2.73422
2.74378
2.74612
2.74948
2.75572
2.76512
2.77337
2.7826
2.78617
2.78506
2.78461
2.78827
2.79884
2.8087
2.81195
2.81267
2.81422
2.81842
2.82473
2.83175
2.83986
2.84924
2.85067
2.82093
2.73515
2.39156
1
1
1
1
1
1
1
1
1
1
1
1
1
1
1
1
1
1
1
1
1
1
1
1
1
1
1
1
1
1
1
1
1
1
1
1
1
1
1
1
1
1
1
1
1
1
1
1
1
1
1
1
1
1
1
1
1
1
1
1
1
1
1
1.00001
1.00071
1.03563
2.30257
2.68626
2.70836
2.71124
2.72081
2.73133
2.73684
2.7424
2.75016
2.76059
2.7703
2.77849
2.7785
2.77614
2.77477
2.7782
2.78848
2.79639
2.79666
2.7951
2.79396
2.79472
2.7972
2.79926
2.79913
2.79739
2.78793
2.7502
2.6896
2.50888
1
1
1
1
1
1
1
1
1
1
1
1
1
1
1
1
1
1
1
1
1
1
1
1
1
1
1
1
1
1
1
1
1
1
1
1
1
1
1
1
1
1
1
1
1
1
1
1
1
1
1
1
1
1
1
1
1
1
1
1
1
1
1
1
1.00023
1.01763
2.06225
2.68422
2.72556
2.72235
2.72693
2.73264
2.7337
2.73454
2.73816
2.74584
2.75707
2.76711
2.76712
2.76559
2.76419
2.76765
2.77751
2.78287
2.78174
2.77808
2.77436
2.77216
2.77095
2.76838
2.76224
2.75174
2.73393
2.69293
2.64755
2.51404
1
1
1
1
1
1
1
1
1
1
1
1
1
1
1
1
1
1
1
1
1
1
1
1
1
1
1
1
1
1
1
1
1
1
1
1
1
1
1
1
1
1
1
1
1
1
1
1
1
1
1
1
1
1
1
1
1
1
1
1
1
1
1
1
1.0001
1.00763
1.63342
2.5947
2.71152
2.71521
2.72595
2.73207
2.73055
2.7255
2.72046
2.72286
2.73139
2.74569
2.75299
2.75338
2.75249
2.75586
2.76511
2.76849
2.76656
2.7609
2.75443
2.74942
2.74507
2.73897
2.72885
2.71274
2.68959
2.64892
2.59932
2.50645
1
1
1
1
1
1
1
1
1
1
1
1
1
1
1
1
1
1
1
1
1
1
1
1
1
1
1
1
1
1
1
1
1
1
1
1
1
1
1
1
1
1
1
1
1
1
1
1
1
1
1
1
1
1
1
1
1
1
1
1
1
1
1
1
1.00002
1.00185
1.0754
2.37089
2.68495
2.69977
2.71289
2.72443
2.72314
2.71661
2.7082
2.70833
2.71247
2.72527
2.73763
2.74083
2.74005
2.74231
2.74996
2.75218
2.74999
2.74325
2.73453
2.72721
2.72066
2.71214
2.69937
2.67921
2.65249
2.61296
2.56229
2.49448
1
1
1
1
1
1
1
1
1
1
1
1
1
1
1
1
1
1
1
1
1
1
1
1
1
1
1
1
1
1
1
1
1
1
1
1
1
1
1
1
1
1
1
1
1
1
1
1
1
1
1
1
1
1
1
1
1
1
1
1
1
1
1
1
1
1.0003
1.02221
2.13239
2.66704
2.68121
2.69734
2.71286
2.71261
2.70844
2.70237
2.70194
2.7036
2.7123
2.72364
2.72702
2.72546
2.72565
2.72998
2.73225
2.73041
2.72403
2.71421
2.70479
2.69632
2.68624
2.67218
2.65037
2.62059
2.58301
2.5266
2.46371
1
1
1
1
1
1
1
1
1
1
1
1
1
1
1
1
1
1
1
1
1
1
1
1
1
1
1
1
1
1
1
1
1
1
1
1
1
1
1
1
1
1
1
1
1
1
1
1
1
1
1
1
1
1
1
1
1
1
1
1
1
1
1
1
1
1.00011
1.00962
1.71888
2.60486
2.68577
2.68258
2.69155
2.69744
2.69736
2.6968
2.69762
2.69897
2.704
2.71137
2.71246
2.70962
2.70681
2.70815
2.71006
2.70889
2.70376
2.69409
2.68309
2.67283
2.66168
2.64697
2.62489
2.59503
2.55786
2.51605
2.45666
1
1
1
1
1
1
1
1
1
1
1
1
1
1
1
1
1
1
1
1
1
1
1
1
1
1
1
1
1
1
1
1
1
1
1
1
1
1
1
1
1
1
1
1
1
1
1
1
1
1
1
1
1
1
1
1
1
1
1
1
1
1
1
1
1
1.00002
1.00231
1.1143
2.38217
2.67172
2.6699
2.67566
2.68144
2.68289
2.68642
2.6906
2.69378
2.69725
2.70083
2.7001
2.69574
2.68932
2.68712
2.68686
2.68556
2.68125
2.6727
2.66147
2.64992
2.63783
2.62278
2.60186
2.57338
2.5378
2.4985
2.44324
1
1
1
1
1
1
1
1
1
1
1
1
1
1
1
1
1
1
1
1
1
1
1
1
1
1
1
1
1
1
1
1
1
1
1
1
1
1
1
1
1
1
1
1
1
1
1
1
1
1
1
1
1
1
1
1
1
1
1
1
1
1
1
1
1
1
1.00033
1.02236
2.1023
2.654
2.65523
2.66552
2.6685
2.66863
2.67395
2.68088
2.6867
2.68891
2.68935
2.68775
2.68248
2.67403
2.66863
2.66611
2.66412
2.66034
2.653
2.64196
2.62918
2.61555
2.59975
2.57982
2.55281
2.52141
2.4833
2.43403
1
1
1
1
1
1
1
1
1
1
1
1
1
1
1
1
1
1
1
1
1
1
1
1
1
1
1
1
1
1
1
1
1
1
1
1
1
1
1
1
1
1
1
1
1
1
1
1
1
1
1
1
1
1
1
1
1
1
1
1
1
1
1
1
1
1
1.0001
1.00873
1.62643
2.58445
2.66261
2.65804
2.65593
2.65311
2.65838
2.6668
2.67405
2.67518
2.67555
2.67421
2.66982
2.66236
2.65583
2.6514
2.64764
2.64255
2.63468
2.62346
2.61009
2.59538
2.57929
2.56045
2.53596
2.50619
2.47099
2.42008
1
1
1
1
1
1
1
1
1
1
1
1
1
1
1
1
1
1
1
1
1
1
1
1
1
1
1
1
1
1
1
1
1
1
1
1
1
1
1
1
1
1
1
1
1
1
1
1
1
1
1
1
1
1
1
1
1
1
1
1
1
1
1
1
1
1
1.00002
1.00198
1.0739
2.35452
2.65233
2.64719
2.64264
2.63745
2.64245
2.65048
2.65838
2.66032
2.6616
2.66092
2.65779
2.65156
2.64474
2.63902
2.63375
2.62752
2.61941
2.60816
2.59456
2.57865
2.56188
2.54179
2.51897
2.48929
2.46143
2.40909
1
1
1
1
1
1
1
1
1
1
1
1
1
1
1
1
1
1
1
1
1
1
1
1
1
1
1
1
1
1
1
1
1
1
1
1
1
1
1
1
1
1
1
1
1
1
1
1
1
1
1
1
1
1
1
1
1
1
1
1
1
1
1
1
1
1
1
1.00026
1.01893
2.01213
2.62502
2.62625
2.62663
2.62774
2.63224
2.63858
2.6453
2.64528
2.64604
2.6458
2.6438
2.63916
2.63349
2.6284
2.62313
2.61644
2.60736
2.59536
2.58133
2.56493
2.54813
2.52826
2.50732
2.47793
2.45359
2.3978
1
1
1
1
1
1
1
1
1
1
1
1
1
1
1
1
1
1
1
1
1
1
1
1
1
1
1
1
1
1
1
1
1
1
1
1
1
1
1
1
1
1
1
1
1
1
1
1
1
1
1
1
1
1
1
1
1
1
1
1
1
1
1
1
1
1
1
1.00007
1.00607
1.43162
2.50977
2.61958
2.61788
2.61644
2.61939
2.62532
2.6312
2.62991
2.63042
2.63046
2.63
2.62676
2.62179
2.61701
2.61149
2.60421
2.59439
2.58266
2.56931
2.55311
2.53629
2.51525
2.49485
2.4646
2.44409
2.39697
1
1
1
1
1
1
1
1
1
1
1
1
1
1
1
1
1
1
1
1
1
1
1
1
1
1
1
1
1
1
1
1
1
1
1
1
1
1
1
1
1
1
1
1
1
1
1
1
1
1
1
1
1
1
1
1
1
1
1
1
1
1
1
1
1
1
1
1.00001
1.00111
1.04015
2.2449
2.60033
2.60089
2.5975
2.60338
2.61301
2.61996
2.61873
2.61806
2.61676
2.61513
2.61167
2.60703
2.60247
2.59795
2.59194
2.58306
2.57191
2.55879
2.54283
2.52623
2.50609
2.48673
2.45872
2.43846
2.39421
1
1
1
1
1
1
1
1
1
1
1
1
1
1
1
1
1
1
1
1
1
1
1
1
1
1
1
1
1
1
1
1
1
1
1
1
1
1
1
1
1
1
1
1
1
1
1
1
1
1
1
1
1
1
1
1
1
1
1
1
1
1
1
1
1
1
1
1
1.00015
1.01273
1.77618
2.57865
2.57873
2.58048
2.5937
2.6026
2.60799
2.60605
2.60442
2.60214
2.60017
2.59677
2.59168
2.58765
2.58377
2.57825
2.56908
2.55787
2.54526
2.53039
2.51447
2.49489
2.4757
2.44829
2.43004
2.39027
1
1
1
1
1
1
1
1
1
1
1
1
1
1
1
1
1
1
1
1
1
1
1
1
1
1
1
1
1
1
1
1
1
1
1
1
1
1
1
1
1
1
1
1
1
1
1
1
1
1
1
1
1
1
1
1
1
1
1
1
1
1
1
1
1
1
1
1
1.00002
1.00263
1.10905
2.37874
2.56282
2.56683
2.57984
2.58983
2.59536
2.59455
2.59364
2.5908
2.58777
2.58308
2.57656
2.57187
2.56768
2.56271
2.55486
2.54542
2.53378
2.5196
2.50329
2.48499
2.46629
2.44231
2.42341
2.38671
1
1
1
1
1
1
1
1
1
1
1
1
1
1
1
1
1
1
1
1
1
1
1
1
1
1
1
1
1
1
1
1
1
1
1
1
1
1
1
1
1
1
1
1
1
1
1
1
1
1
1
1
1
1
1
1
1
1
1
1
1
1
1
1
1
1
1
1
1
1.00028
1.0194
1.96709
2.51917
2.55781
2.57144
2.57768
2.58187
2.5813
2.58032
2.57752
2.57368
2.56878
2.56247
2.55762
2.55383
2.54942
2.54172
2.53122
2.5187
2.50504
2.48913
2.47175
2.45328
2.42984
2.41146
2.38039
1
1
1
1
1
1
1
1
1
1
1
1
1
1
1
1
1
1
1
1
1
1
1
1
1
1
1
1
1
1
1
1
1
1
1
1
1
1
1
1
1
1
1
1
1
1
1
1
1
1
1
1
1
1
1
1
1
1
1
1
1
1
1
1
1
1
1
1
1
1.00004
1.00446
1.26776
2.41825
2.53655
2.55922
2.56612
2.5671
2.56561
2.56375
2.56159
2.56036
2.55664
2.55014
2.5443
2.5395
2.53448
2.52661
2.5179
2.50699
2.49447
2.47774
2.46057
2.44153
2.42075
2.40194
2.37329
1
1
1
1
1
1
1
1
1
1
1
1
1
1
1
1
1
1
1
1
1
1
1
1
1
1
1
1
1
1
1
1
1
1
1
1
1
1
1
1
1
1
1
1
1
1
1
1
1
1
1
1
1
1
1
1
1
1
1
1
1
1
1
1
1
1
1
1
1
1.00001
1.00054
1.02649
2.0724
2.4687
2.54597
2.55466
2.55352
2.55075
2.54757
2.54491
2.54388
2.54127
2.53632
2.53106
2.52694
2.52269
2.51571
2.50606
2.4937
2.48114
2.46445
2.44871
2.42903
2.40871
2.38887
2.36457
1
1
1
1
1
1
1
1
1
1
1
1
1
1
1
1
1
1
1
1
1
1
1
1
1
1
1
1
1
1
1
1
1
1
1
1
1
1
1
1
1
1
1
1
1
1
1
1
1
1
1
1
1
1
1
1
1
1
1
1
1
1
1
1
1
1
1
1
1
1
1.00006
1.00629
1.34663
2.38995
2.54323
2.54515
2.54257
2.53414
2.52865
2.52525
2.52614
2.52508
2.52329
2.51816
2.51369
2.50869
2.50072
2.49182
2.48141
2.47121
2.45535
2.43974
2.41961
2.4007
2.37941
2.35703
1
1
1
1
1
1
1
1
1
1
1
1
1
1
1
1
1
1
1
1
1
1
1
1
1
1
1
1
1
1
1
1
1
1
1
1
1
1
1
1
1
1
1
1
1
1
1
1
1
1
1
1
1
1
1
1
1
1
1
1
1
1
1
1
1
1
1
1
1
1
1.00001
1.0008
1.03241
2.08702
2.47509
2.53087
2.52814
2.5219
2.51459
2.50853
2.50928
2.50886
2.50799
2.50406
2.50013
2.49597
2.4892
2.48005
2.46882
2.45879
2.44351
2.43034
2.41071
2.39378
2.37099
2.35179
1
1
1
1
1
1
1
1
1
1
1
1
1
1
1
1
1
1
1
1
1
1
1
1
1
1
1
1
1
1
1
1
1
1
1
1
1
1
1
1
1
1
1
1
1
1
1
1
1
1
1
1
1
1
1
1
1
1
1
1
1
1
1
1
1
1
1
1
1
1
1
1.00006
1.00714
1.36046
2.37581
2.52572
2.51834
2.50925
2.49624
2.48959
2.49111
2.49149
2.49281
2.49073
2.48661
2.48198
2.47435
2.4648
2.45472
2.44717
2.43414
2.42186
2.40277
2.387
2.36332
2.34713
1
1
1
1
1
1
1
1
1
1
1
1
1
1
1
1
1
1
1
1
1
1
1
1
1
1
1
1
1
1
1
1
1
1
1
1
1
1
1
1
1
1
1
1
1
1
1
1
1
1
1
1
1
1
1
1
1
1
1
1
1
1
1
1
1
1
1
1
1
1
1
1.00001
1.00088
1.03403
2.0613
2.46162
2.50209
2.49488
2.48685
2.47651
2.47651
2.4771
2.47864
2.47648
2.4726
2.46841
2.46196
2.45269
2.44204
2.43409
2.42158
2.41135
2.39413
2.38033
2.35731
2.34352
1
1
1
1
1
1
1
1
1
1
1
1
1
1
1
1
1
1
1
1
1
1
1
1
1
1
1
1
1
1
1
1
1
1
1
1
1
1
1
1
1
1
1
1
1
1
1
1
1
1
1
1
1
1
1
1
1
1
1
1
1
1
1
1
1
1
1
1
1
1
1
1
1.00006
1.00682
1.32307
2.34092
2.4952
2.48457
2.47449
2.45997
2.46019
2.46114
2.46389
2.46366
2.46006
2.45556
2.44855
2.43794
2.42747
2.42064
2.41071
2.40106
2.38527
2.37185
2.34968
2.33697
1
1
1
1
1
1
1
1
1
1
1
1
1
1
1
1
1
1
1
1
1
1
1
1
1
1
1
1
1
1
1
1
1
1
1
1
1
1
1
1
1
1
1
1
1
1
1
1
1
1
1
1
1
1
1
1
1
1
1
1
1
1
1
1
1
1
1
1
1
1
1
1
1.00001
1.00076
1.03014
1.9753
2.4428
2.47339
2.45902
2.44914
2.4474
2.448
2.45086
2.45113
2.4473
2.44256
2.43583
2.4257
2.41536
2.40757
2.39838
2.38902
2.37553
2.36331
2.34367
2.3314
1
1
1
1
1
1
1
1
1
1
1
1
1
1
1
1
1
1
1
1
1
1
1
1
1
1
1
1
1
1
1
1
1
1
1
1
1
1
1
1
1
1
1
1
1
1
1
1
1
1
1
1
1
1
1
1
1
1
1
1
1
1
1
1
1
1
1
1
1
1
1
1
1
1.00005
1.00552
1.25019
2.28922
2.46198
2.44634
2.43412
2.43196
2.43248
2.43528
2.43806
2.43548
2.43078
2.42405
2.41253
2.40186
2.39402
2.3871
2.37811
2.36635
2.35342
2.33515
2.32292
1
1
1
1
1
1
1
1
1
1
1
1
1
1
1
1
1
1
1
1
1
1
1
1
1
1
1
1
1
1
1
1
1
1
1
1
1
1
1
1
1
1
1
1
1
1
1
1
1
1
1
1
1
1
1
1
1
1
1
1
1
1
1
1
1
1
1
1
1
1
1
1
1
1
1.00053
1.02281
1.83191
2.40946
2.44499
2.42151
2.42105
2.42012
2.42132
2.42413
2.42208
2.41719
2.41076
2.40007
2.3897
2.38091
2.37526
2.36602
2.35634
2.34432
2.32839
2.31558
1
1
1
1
1
1
1
1
1
1
1
1
1
1
1
1
1
1
1
1
1
1
1
1
1
1
1
1
1
1
1
1
1
1
1
1
1
1
1
1
1
1
1
1
1
1
1
1
1
1
1
1
1
1
1
1
1
1
1
1
1
1
1
1
1
1
1
1
1
1
1
1
1
1
1.00003
1.00368
1.15266
2.21223
2.42293
2.40737
2.4072
2.40585
2.40639
2.40865
2.409
2.4043
2.39837
2.38775
2.37679
2.36767
2.36369
2.35488
2.34747
2.3346
2.31997
2.30595
1
1
1
1
1
1
1
1
1
1
1
1
1
1
1
1
1
1
1
1
1
1
1
1
1
1
1
1
1
1
1
1
1
1
1
1
1
1
1
1
1
1
1
1
1
1
1
1
1
1
1
1
1
1
1
1
1
1
1
1
1
1
1
1
1
1
1
1
1
1
1
1
1
1
1
1.00026
1.01535
1.61664
2.35152
2.42012
2.39964
2.39467
2.39363
2.39392
2.39372
2.38864
2.38275
2.37349
2.36323
2.35389
2.35114
2.34246
2.33712
2.32469
2.31227
2.29717
1
1
1
1
1
1
1
1
1
1
1
1
1
1
1
1
1
1
1
1
1
1
1
1
1
1
1
1
1
1
1
1
1
1
1
1
1
1
1
1
1
1
1
1
1
1
1
1
1
1
1
1
1
1
1
1
1
1
1
1
1
1
1
1
1
1
1
1
1
1
1
1
1
1
1
1.00002
1.00201
1.07308
2.07939
2.36666
2.39136
2.38453
2.37802
2.38067
2.38043
2.37545
2.3694
2.36071
2.35026
2.34088
2.3386
2.33056
2.32743
2.31467
2.3034
2.28631
1
1
1
1
1
1
1
1
1
1
1
1
1
1
1
1
1
1
1
1
1
1
1
1
1
1
1
1
1
1
1
1
1
1
1
1
1
1
1
1
1
1
1
1
1
1
1
1
1
1
1
1
1
1
1
1
1
1
1
1
1
1
1
1
1
1
1
1
1
1
1
1
1
1
1
1
1.00011
1.00914
1.35807
2.28563
2.38266
2.37835
2.3651
2.3666
2.36552
2.36072
2.35454
2.34676
2.33658
2.32738
2.3253
2.31807
2.31644
2.303
2.29399
2.27697
1
1
1
1
1
1
1
1
1
1
1
1
1
1
1
1
1
1
1
1
1
1
1
1
1
1
1
1
1
1
1
1
1
1
1
1
1
1
1
1
1
1
1
1
1
1
1
1
1
1
1
1
1
1
1
1
1
1
1
1
1
1
1
1
1
1
1
1
1
1
1
1
1
1
1
1
1.00001
1.00088
1.0324
1.84841
2.32426
2.36848
2.36085
2.35556
2.35451
2.34943
2.34287
2.33536
2.3246
2.3158
2.31291
2.30665
2.30588
2.29168
2.28404
2.26701
1
1
1
1
1
1
1
1
1
1
1
1
1
1
1
1
1
1
1
1
1
1
1
1
1
1
1
1
1
1
1
1
1
1
1
1
1
1
1
1
1
1
1
1
1
1
1
1
1
1
1
1
1
1
1
1
1
1
1
1
1
1
1
1
1
1
1
1
1
1
1
1
1
1
1
1
1
1.00004
1.00414
1.15948
2.17114
2.32349
2.35196
2.34486
2.34273
2.33825
2.33015
2.323
2.31219
2.30337
2.29978
2.29505
2.29441
2.27911
2.274
2.25811
1
1
1
1
1
1
1
1
1
1
1
1
1
1
1
1
1
1
1
1
1
1
1
1
1
1
1
1
1
1
1
1
1
1
1
1
1
1
1
1
1
1
1
1
1
1
1
1
1
1
1
1
1
1
1
1
1
1
1
1
1
1
1
1
1
1
1
1
1
1
1
1
1
1
1
1
1
1
1.00025
1.01473
1.50837
2.26064
2.34008
2.3323
2.33172
2.32694
2.31895
2.31122
2.30057
2.29179
2.28753
2.2844
2.28274
2.26861
2.26521
2.2498
1
1
1
1
1
1
1
1
1
1
1
1
1
1
1
1
1
1
1
1
1
1
1
1
1
1
1
1
1
1
1
1
1
1
1
1
1
1
1
1
1
1
1
1
1
1
1
1
1
1
1
1
1
1
1
1
1
1
1
1
1
1
1
1
1
1
1
1
1
1
1
1
1
1
1
1
1
1
1.00001
1.00138
1.05228
1.90454
2.24667
2.31754
2.3198
2.31418
2.30739
2.29965
2.28882
2.27967
2.27431
2.27297
2.26934
2.25892
2.25633
2.24103
1
1
1
1
1
1
1
1
1
1
1
1
1
1
1
1
1
1
1
1
1
1
1
1
1
1
1
1
1
1
1
1
1
1
1
1
1
1
1
1
1
1
1
1
1
1
1
1
1
1
1
1
1
1
1
1
1
1
1
1
1
1
1
1
1
1
1
1
1
1
1
1
1
1
1
1
1
1
1
1.00005
1.00507
1.19202
2.10379
2.27084
2.29745
2.29795
2.29053
2.28521
2.27734
2.26908
2.26134
2.26154
2.25619
2.25124
2.24819
2.23284
1
1
1
1
1
1
1
1
1
1
1
1
1
1
1
1
1
1
1
1
1
1
1
1
1
1
1
1
1
1
1
1
1
1
1
1
1
1
1
1
1
1
1
1
1
1
1
1
1
1
1
1
1
1
1
1
1
1
1
1
1
1
1
1
1
1
1
1
1
1
1
1
1
1
1
1
1
1
1
1
1.00026
1.01508
1.45446
2.16172
2.29491
2.29282
2.27648
2.27708
2.27169
2.26059
2.24762
2.24789
2.24101
2.24229
2.23832
2.2251
1
1
1
1
1
1
1
1
1
1
1
1
1
1
1
1
1
1
1
1
1
1
1
1
1
1
1
1
1
1
1
1
1
1
1
1
1
1
1
1
1
1
1
1
1
1
1
1
1
1
1
1
1
1
1
1
1
1
1
1
1
1
1
1
1
1
1
1
1
1
1
1
1
1
1
1
1
1
1
1
1.00001
1.00105
1.04386
1.74633
2.21092
2.27583
2.26673
2.26703
2.26211
2.24787
2.2328
2.2336
2.22964
2.23335
2.2254
2.21592
1
1
1
1
1
1
1
1
1
1
1
1
1
1
1
1
1
1
1
1
1
1
1
1
1
1
1
1
1
1
1
1
1
1
1
1
1
1
1
1
1
1
1
1
1
1
1
1
1
1
1
1
1
1
1
1
1
1
1
1
1
1
1
1
1
1
1
1
1
1
1
1
1
1
1
1
1
1
1
1
1
1.00003
1.00346
1.13114
1.95315
2.22014
2.25533
2.25487
2.24723
2.22845
2.21806
2.2199
2.21861
2.22102
2.21008
2.20492
1
1
1
1
1
1
1
1
1
1
1
1
1
1
1
1
1
1
1
1
1
1
1
1
1
1
1
1
1
1
1
1
1
1
1
1
1
1
1
1
1
1
1
1
1
1
1
1
1
1
1
1
1
1
1
1
1
1
1
1
1
1
1
1
1
1
1
1
1
1
1
1
1
1
1
1
1
1
1
1
1
1
1.00014
1.00903
1.28662
2.03408
2.26463
2.25925
2.22282
2.21031
2.21055
2.21498
2.20777
2.20292
2.19475
2.19479
1
1
1
1
1
1
1
1
1
1
1
1
1
1
1
1
1
1
1
1
1
1
1
1
1
1
1
1
1
1
1
1
1
1
1
1
1
1
1
1
1
1
1
1
1
1
1
1
1
1
1
1
1
1
1
1
1
1
1
1
1
1
1
1
1
1
1
1
1
1
1
1
1
1
1
1
1
1
1
1
1
1
1
1.00043
1.02189
1.46738
2.17046
2.2163
2.19546
2.19393
2.20092
2.21188
2.19706
2.18566
2.18048
2.18503
1
1
1
1
1
1
1
1
1
1
1
1
1
1
1
1
1
1
1
1
1
1
1
1
1
1
1
1
1
1
1
1
1
1
1
1
1
1
1
1
1
1
1
1
1
1
1
1
1
1
1
1
1
1
1
1
1
1
1
1
1
1
1
1
1
1
1
1
1
1
1
1
1
1
1
1
1
1
1
1
1
1
1
1.00001
1.00132
1.04815
1.70293
2.15154
2.1853
2.19382
2.20118
2.20025
2.18255
2.16921
2.17095
2.17548
1
1
1
1
1
1
1
1
1
1
1
1
1
1
1
1
1
1
1
1
1
1
1
1
1
1
1
1
1
1
1
1
1
1
1
1
1
1
1
1
1
1
1
1
1
1
1
1
1
1
1
1
1
1
1
1
1
1
1
1
1
1
1
1
1
1
1
1
1
1
1
1
1
1
1
1
1
1
1
1
1
1
1
1
1.00004
1.00318
1.10582
1.82784
2.1873
2.20121
2.19173
2.17812
2.16282
2.1586
2.17092
2.16977
1
1
1
1
1
1
1
1
1
1
1
1
1
1
1
1
1
1
1
1
1
1
1
1
1
1
1
1
1
1
1
1
1
1
1
1
1
1
1
1
1
1
1
1
1
1
1
1
1
1
1
1
1
1
1
1
1
1
1
1
1
1
1
1
1
1
1
1
1
1
1
1
1
1
1
1
1
1
1
1
1
1
1
1
1
1.0001
1.00714
1.19705
1.95937
2.20145
2.17528
2.1505
2.14927
2.15544
2.16911
2.15809
1
1
1
1
1
1
1
1
1
1
1
1
1
1
1
1
1
1
1
1
1
1
1
1
1
1
1
1
1
1
1
1
1
1
1
1
1
1
1
1
1
1
1
1
1
1
1
1
1
1
1
1
1
1
1
1
1
1
1
1
1
1
1
1
1
1
1
1
1
1
1
1
1
1
1
1
1
1
1
1
1
1
1
1
1
1
1.0003
1.01494
1.35478
2.06737
2.12709
2.13382
2.14046
2.1583
2.15496
2.14334
1
1
1
1
1
1
1
1
1
1
1
1
1
1
1
1
1
1
1
1
1
1
1
1
1
1
1
1
1
1
1
1
1
1
1
1
1
1
1
1
1
1
1
1
1
1
1
1
1
1
1
1
1
1
1
1
1
1
1
1
1
1
1
1
1
1
1
1
1
1
1
1
1
1
1
1
1
1
1
1
1
1
1
1
1
1
1.00001
1.00079
1.02857
1.51706
2.00377
2.14047
2.15725
2.15114
2.13409
2.12409
1
1
1
1
1
1
1
1
1
1
1
1
1
1
1
1
1
1
1
1
1
1
1
1
1
1
1
1
1
1
1
1
1
1
1
1
1
1
1
1
1
1
1
1
1
1
1
1
1
1
1
1
1
1
1
1
1
1
1
1
1
1
1
1
1
1
1
1
1
1
1
1
1
1
1
1
1
1
1
1
1
1
1
1
1
1
1
1.00002
1.00143
1.05238
1.5737
2.10014
2.14144
2.12694
2.11508
2.11885
1
1
1
1
1
1
1
1
1
1
1
1
1
1
1
1
1
1
1
1
1
1
1
1