/*--------------------------------*- C++ -*----------------------------------*\
| =========                 |                                                 |
| \\      /  F ield         | OpenFOAM: The Open Source CFD Toolbox           |
|  \\    /   O peration     | Version:  v1812                                 |
|   \\  /    A nd           | Web:      www.OpenFOAM.com                      |
|    \\/     M anipulation  |                                                 |
\*---------------------------------------------------------------------------*/
FoamFile
{
    version     2.0;
    format      ascii;
    class       volVectorField;
    location    "0.5";
    object      U;
}
// * * * * * * * * * * * * * * * * * * * * * * * * * * * * * * * * * * * * * //

dimensions      [0 1 -1 0 0 0 0];


internalField   nonuniform List<vector> 
64512
(
(3 8.61636e-17 0)
(3 1.51956e-16 0)
(3 1.88383e-17 0)
(3 7.96635e-16 0)
(3 1.49617e-15 0)
(3 6.62902e-16 0)
(3 1.01651e-15 0)
(3 1.76567e-15 0)
(3 2.35182e-15 0)
(3 2.11304e-15 0)
(3 2.19693e-15 0)
(3 2.63195e-15 0)
(3 2.57515e-15 0)
(3 1.83726e-15 0)
(3 1.10957e-15 0)
(3 1.34076e-15 0)
(3 1.06828e-15 0)
(3 7.40064e-16 0)
(3 2.50914e-17 0)
(3 -1.99435e-16 0)
(3 -6.00514e-17 0)
(3 1.85761e-17 0)
(3 -1.01305e-16 0)
(3 -7.94667e-17 0)
(3 1.87504e-16 0)
(3 -2.4698e-16 0)
(3 -5.00369e-16 0)
(3 -4.51773e-16 0)
(3 2.71888e-16 0)
(3 1.71028e-15 0)
(3 2.32124e-15 0)
(3 1.85076e-15 0)
(3 9.16394e-16 0)
(3 9.74502e-16 0)
(3 9.21677e-16 0)
(3 1.00441e-15 0)
(3 5.10151e-16 0)
(3 8.68657e-16 0)
(3 6.29694e-16 0)
(3 5.30716e-16 0)
(3 -1.38542e-16 0)
(3 7.43375e-17 0)
(3 -2.57746e-16 0)
(3 5.19344e-16 0)
(3 6.19866e-16 0)
(3 1.43758e-16 0)
(3 -4.38702e-16 0)
(3 -6.42625e-16 0)
(3 -3.26798e-16 0)
(3 -7.4082e-16 0)
(3 -2.00406e-16 0)
(3 1.30495e-16 0)
(3 6.6634e-16 0)
(3 7.39062e-16 0)
(3 1.58433e-15 0)
(3 -2.0794e-14 0)
(3 2.96669e-12 0)
(3 -3.00312e-10 0)
(3 2.153e-08 0)
(2.9998 -2.76055e-06 0)
(2.98608 0.000125621 0)
(1.71262 -0.0308751 0)
(0.718776 0.0371506 0)
(0.639173 -0.00280083 0)
(0.639064 -0.00567999 0)
(0.635684 0.0011438 0)
(0.616302 0.0229212 0)
(0.569704 0.0363819 0)
(0.510094 0.0389025 0)
(0.472896 0.0187421 0)
(0.463001 0.00356726 0)
(0.466931 0.00327755 0)
(0.467406 0.00764236 0)
(0.459259 0.014226 0)
(0.440434 0.0210264 0)
(0.419259 0.0204721 0)
(0.398449 0.0182592 0)
(0.37599 0.0184786 0)
(0.351125 0.0204046 0)
(0.322925 0.0222802 0)
(0.294804 0.0214778 0)
(0.268462 0.016426 0)
(0.244342 0.0116151 0)
(0.22135 0.0107059 0)
(0.197375 0.0112823 0)
(0.174221 0.0113298 0)
(0.153815 0.0109883 0)
(0.136158 0.0106838 0)
(0.120087 0.0103581 0)
(0.105436 0.00965037 0)
(0.0899457 0.00904004 0)
(0.0745717 0.00925491 0)
(0.0574519 0.00998786 0)
(0.0387613 0.0102956 0)
(0.0196227 0.00849699 0)
(0.00352326 0.00357297 0)
(3 4.39986e-17 0)
(3 3.71138e-16 0)
(3 2.28217e-16 0)
(3 7.07865e-17 0)
(3 -1.70635e-16 0)
(3 -3.80756e-16 0)
(3 4.35238e-16 0)
(3 6.81166e-16 0)
(3 4.80418e-16 0)
(3 6.98264e-16 0)
(3 1.32029e-15 0)
(3 1.46999e-15 0)
(3 1.66048e-15 0)
(3 1.03976e-15 0)
(3 1.14531e-15 0)
(3 5.488e-16 0)
(3 1.27938e-15 0)
(3 1.43399e-15 0)
(3 6.78851e-16 0)
(3 8.80385e-17 0)
(3 -2.99643e-16 0)
(3 -3.37205e-16 0)
(3 1.12578e-15 0)
(3 1.37487e-15 0)
(3 1.16766e-15 0)
(3 9.70352e-16 0)
(3 6.75151e-16 0)
(3 1.08094e-16 0)
(3 4.58319e-16 0)
(3 -5.35678e-16 0)
(3 -7.01267e-16 0)
(3 -5.74859e-16 0)
(3 -6.97207e-16 0)
(3 -9.46412e-16 0)
(3 -4.36554e-16 0)
(3 -3.7825e-16 0)
(3 1.02944e-15 0)
(3 1.24264e-15 0)
(3 3.84971e-16 0)
(3 1.17204e-15 0)
(3 9.15585e-16 0)
(3 4.39209e-16 0)
(3 9.03912e-16 0)
(3 1.26321e-15 0)
(3 2.07574e-15 0)
(3 1.93762e-15 0)
(3 1.52136e-15 0)
(3 -7.7876e-17 0)
(3 -1.8181e-16 0)
(3 -3.58228e-16 0)
(3 -3.07578e-16 0)
(3 -2.723e-16 0)
(3 -6.49637e-16 0)
(3 -7.84423e-16 0)
(3 6.57013e-16 0)
(3 4.41649e-14 0)
(3 7.96852e-12 0)
(3 -1.26611e-10 0)
(3 6.96363e-08 0)
(2.9998 -1.10391e-06 0)
(2.98564 0.000551064 0)
(1.60052 -0.0126782 0)
(0.661557 0.0640071 0)
(0.605628 0.0046991 0)
(0.593662 -0.00470005 0)
(0.582462 0.00251801 0)
(0.574346 0.0268585 0)
(0.55858 0.0579262 0)
(0.534706 0.0533003 0)
(0.514034 0.0246926 0)
(0.497189 0.00545641 0)
(0.489916 0.00330854 0)
(0.484928 0.0111772 0)
(0.473582 0.0281812 0)
(0.456179 0.0317963 0)
(0.440586 0.0264834 0)
(0.422575 0.0229434 0)
(0.401689 0.0233886 0)
(0.378619 0.0256143 0)
(0.353044 0.0277231 0)
(0.326342 0.0286054 0)
(0.296594 0.0295942 0)
(0.263633 0.0329011 0)
(0.232377 0.0357866 0)
(0.204962 0.0366669 0)
(0.182177 0.0357953 0)
(0.163114 0.0340524 0)
(0.14658 0.0325235 0)
(0.131206 0.0311981 0)
(0.116797 0.0288631 0)
(0.101014 0.0262864 0)
(0.0855513 0.0259971 0)
(0.0690755 0.0266623 0)
(0.0510989 0.0269812 0)
(0.029865 0.0256916 0)
(0.00590241 0.0159872 0)
(3 -2.17556e-16 0)
(3 -1.12058e-16 0)
(3 1.31394e-16 0)
(3 9.79268e-17 0)
(3 3.09749e-17 0)
(3 5.39852e-16 0)
(3 3.82142e-16 0)
(3 3.48988e-17 0)
(3 7.21278e-16 0)
(3 7.0346e-16 0)
(3 3.18393e-16 0)
(3 -2.12625e-16 0)
(3 1.0103e-16 0)
(3 5.70697e-16 0)
(3 4.3226e-16 0)
(3 8.34966e-17 0)
(3 -6.06786e-16 0)
(3 -1.21538e-16 0)
(3 3.06144e-16 0)
(3 7.44688e-16 0)
(3 -1.76495e-16 0)
(3 -6.19217e-17 0)
(3 6.35769e-16 0)
(3 1.39689e-15 0)
(3 1.42559e-15 0)
(3 1.16992e-15 0)
(3 4.95488e-16 0)
(3 4.0718e-17 0)
(3 -3.64203e-16 0)
(3 2.1783e-16 0)
(3 -1.73605e-17 0)
(3 6.34514e-16 0)
(3 1.11445e-15 0)
(3 8.74246e-16 0)
(3 1.60997e-15 0)
(3 2.22055e-15 0)
(3 2.38345e-15 0)
(3 3.11423e-15 0)
(3 2.65224e-15 0)
(3 1.4531e-15 0)
(3 9.49612e-16 0)
(3 1.06159e-15 0)
(3 4.49524e-16 0)
(3 1.71434e-16 0)
(3 1.72626e-16 0)
(3 9.37153e-17 0)
(3 6.93515e-16 0)
(3 1.15278e-15 0)
(3 1.32399e-15 0)
(3 4.39671e-16 0)
(3 7.07672e-17 0)
(3 1.44524e-15 0)
(3 1.97428e-15 0)
(3 1.54846e-15 0)
(3 7.33656e-16 0)
(3 -1.61755e-13 0)
(3 9.38662e-13 0)
(3 -9.09237e-10 0)
(3 2.28426e-08 0)
(2.99982 -6.47797e-06 0)
(2.98726 0.000234502 0)
(1.88134 -0.0597016 0)
(0.817528 0.0773286 0)
(0.71897 0.0245882 0)
(0.679566 0.00998382 0)
(0.64208 0.0165715 0)
(0.612894 0.0433867 0)
(0.585494 0.0717186 0)
(0.556876 0.0723767 0)
(0.540505 0.0509094 0)
(0.525294 0.0255205 0)
(0.50986 0.021788 0)
(0.499123 0.0324172 0)
(0.486546 0.051541 0)
(0.469099 0.0554896 0)
(0.451645 0.0501503 0)
(0.43148 0.046409 0)
(0.409592 0.0471829 0)
(0.387222 0.0498399 0)
(0.363869 0.0531393 0)
(0.340888 0.056667 0)
(0.315165 0.0598725 0)
(0.286706 0.0608384 0)
(0.25871 0.0586684 0)
(0.233088 0.055055 0)
(0.209607 0.0514886 0)
(0.189519 0.0487766 0)
(0.172035 0.0470344 0)
(0.155651 0.0456103 0)
(0.140018 0.0427749 0)
(0.123091 0.0399579 0)
(0.106252 0.0395811 0)
(0.0890928 0.0403721 0)
(0.0705159 0.0428398 0)
(0.0460868 0.0474632 0)
(0.0121545 0.0387779 0)
(3 2.7794e-16 0)
(3 -8.67056e-17 0)
(3 -3.33379e-16 0)
(3 -6.92646e-17 0)
(3 1.08167e-16 0)
(3 8.86413e-17 0)
(3 2.26958e-16 0)
(3 7.48612e-19 0)
(3 6.12971e-18 0)
(3 2.21784e-16 0)
(3 -1.87789e-16 0)
(3 -3.66404e-16 0)
(3 -7.47975e-16 0)
(3 -1.08753e-15 0)
(3 -5.95496e-16 0)
(3 -4.6139e-16 0)
(3 -1.15777e-15 0)
(3 -1.11109e-15 0)
(3 -1.10012e-15 0)
(3 -1.44285e-15 0)
(3 -8.62035e-16 0)
(3 -4.75264e-16 0)
(3 -9.44256e-16 0)
(3 -3.74328e-16 0)
(3 -5.10077e-16 0)
(3 -3.14565e-16 0)
(3 4.3091e-17 0)
(3 9.35345e-16 0)
(3 1.10146e-15 0)
(3 8.93594e-16 0)
(3 4.43126e-16 0)
(3 3.72466e-16 0)
(3 8.23764e-16 0)
(3 2.23438e-15 0)
(3 1.94166e-15 0)
(3 2.41384e-15 0)
(3 1.76933e-15 0)
(3 1.25405e-15 0)
(3 1.36519e-15 0)
(3 6.54073e-16 0)
(3 8.98841e-16 0)
(3 1.9053e-16 0)
(3 -5.23976e-16 0)
(3 -1.00494e-15 0)
(3 -8.30177e-16 0)
(3 -7.15776e-17 0)
(3 9.54364e-16 0)
(3 2.62276e-15 0)
(3 2.73016e-15 0)
(3 3.59344e-15 0)
(3 3.10238e-15 0)
(3 2.02561e-15 0)
(3 1.77062e-15 0)
(3 2.46183e-15 0)
(3 7.04065e-15 0)
(3 2.38548e-14 0)
(3 4.23636e-12 0)
(3 -7.97385e-10 0)
(3 1.58644e-08 0)
(2.99979 -6.06597e-06 0)
(2.98482 1.33486e-05 0)
(1.47044 -0.0584142 0)
(0.590214 0.124311 0)
(0.501396 0.0555348 0)
(0.483313 0.0277036 0)
(0.474704 0.029437 0)
(0.474622 0.0559751 0)
(0.465985 0.0839269 0)
(0.456091 0.0833371 0)
(0.449734 0.0617026 0)
(0.440192 0.03348 0)
(0.43169 0.0297792 0)
(0.426421 0.0418596 0)
(0.420168 0.0635883 0)
(0.408974 0.0686615 0)
(0.39831 0.0637092 0)
(0.384477 0.059924 0)
(0.3685 0.0617141 0)
(0.351394 0.0657053 0)
(0.333357 0.0703511 0)
(0.314411 0.0758388 0)
(0.294179 0.082131 0)
(0.273049 0.0848894 0)
(0.25344 0.0831434 0)
(0.2343 0.0791942 0)
(0.216303 0.0746359 0)
(0.199434 0.0710749 0)
(0.182872 0.0694794 0)
(0.165587 0.0687415 0)
(0.147825 0.0660509 0)
(0.128216 0.0623454 0)
(0.109056 0.0609339 0)
(0.0894862 0.0610585 0)
(0.0688041 0.0650332 0)
(0.0445141 0.0749988 0)
(0.00945634 0.0680473 0)
(3 2.22751e-16 0)
(3 -3.6953e-16 0)
(3 4.40957e-17 0)
(3 4.82473e-16 0)
(3 1.23177e-16 0)
(3 -4.4984e-16 0)
(3 -2.86269e-16 0)
(3 -7.1761e-17 0)
(3 -3.0342e-16 0)
(3 -2.91074e-16 0)
(3 1.24416e-16 0)
(3 5.2768e-16 0)
(3 -3.34351e-17 0)
(3 3.53279e-16 0)
(3 3.04119e-16 0)
(3 9.32744e-18 0)
(3 3.03466e-16 0)
(3 2.63864e-17 0)
(3 -2.50371e-16 0)
(3 -5.30664e-16 0)
(3 -2.83179e-16 0)
(3 -8.33783e-16 0)
(3 -1.27589e-15 0)
(3 -1.57995e-15 0)
(3 -8.54177e-16 0)
(3 -5.32195e-16 0)
(3 1.0561e-17 0)
(3 1.02004e-15 0)
(3 8.53657e-16 0)
(3 5.29689e-16 0)
(3 2.10375e-16 0)
(3 -2.33442e-16 0)
(3 -2.18174e-16 0)
(3 -1.65753e-16 0)
(3 -8.07844e-16 0)
(3 -2.62842e-16 0)
(3 7.15162e-16 0)
(3 1.52871e-15 0)
(3 1.6378e-15 0)
(3 1.11851e-15 0)
(3 1.36137e-15 0)
(3 7.34331e-16 0)
(3 8.83557e-16 0)
(3 1.05735e-15 0)
(3 1.3215e-15 0)
(3 1.22389e-15 0)
(3 9.98491e-16 0)
(3 5.72637e-16 0)
(3 5.54152e-16 0)
(3 5.61202e-16 0)
(3 1.31687e-15 0)
(3 1.23871e-15 0)
(3 1.36607e-15 0)
(3 1.67723e-15 0)
(3 1.55935e-14 0)
(3 5.87493e-13 0)
(3 6.62447e-11 0)
(3 2.33529e-09 0)
(3 3.42395e-07 0)
(2.99982 9.94949e-06 0)
(2.98698 0.00190192 0)
(1.72425 0.0640104 0)
(0.674331 0.20261 0)
(0.620329 0.0758179 0)
(0.60166 0.0217095 0)
(0.573912 0.0250505 0)
(0.54474 0.0596845 0)
(0.509673 0.0974907 0)
(0.470442 0.10623 0)
(0.438706 0.0853318 0)
(0.425532 0.0537019 0)
(0.410297 0.0490652 0)
(0.402632 0.0618458 0)
(0.394645 0.0813768 0)
(0.384117 0.0833539 0)
(0.377412 0.0770592 0)
(0.36515 0.0739919 0)
(0.347846 0.0753761 0)
(0.329377 0.0773532 0)
(0.31068 0.0807517 0)
(0.292797 0.0871767 0)
(0.27557 0.0941138 0)
(0.258947 0.0973214 0)
(0.243938 0.0968806 0)
(0.228412 0.0946001 0)
(0.21268 0.0917127 0)
(0.196609 0.0899017 0)
(0.179956 0.0900883 0)
(0.162202 0.0905417 0)
(0.143841 0.0879232 0)
(0.123526 0.0832958 0)
(0.103027 0.0806966 0)
(0.0821642 0.0799785 0)
(0.0606762 0.0834787 0)
(0.0402304 0.0984024 0)
(0.00998469 0.0951007 0)
(3 -1.13687e-16 0)
(3 -2.76407e-18 0)
(3 -2.6211e-17 0)
(3 -9.00408e-17 0)
(3 -1.41912e-16 0)
(3 6.05653e-16 0)
(3 1.10653e-16 0)
(3 8.27582e-17 0)
(3 1.69774e-16 0)
(3 -4.81353e-16 0)
(3 -1.69133e-16 0)
(3 -1.97197e-16 0)
(3 3.90437e-16 0)
(3 6.61709e-16 0)
(3 2.84579e-16 0)
(3 1.30777e-16 0)
(3 9.76189e-16 0)
(3 1.27767e-15 0)
(3 1.80271e-15 0)
(3 1.61066e-15 0)
(3 1.0115e-15 0)
(3 -3.5168e-16 0)
(3 -1.0012e-15 0)
(3 -1.06714e-15 0)
(3 -6.40918e-16 0)
(3 -4.89209e-16 0)
(3 -2.97503e-16 0)
(3 -5.32363e-16 0)
(3 -2.33111e-16 0)
(3 -4.05932e-17 0)
(3 3.77652e-16 0)
(3 4.75025e-16 0)
(3 -2.2605e-16 0)
(3 -1.39018e-15 0)
(3 -3.4048e-16 0)
(3 4.8247e-17 0)
(3 7.49879e-16 0)
(3 1.48307e-15 0)
(3 2.10252e-15 0)
(3 2.28924e-15 0)
(3 1.43159e-15 0)
(3 1.07342e-15 0)
(3 8.68437e-16 0)
(3 7.73555e-16 0)
(3 4.9475e-16 0)
(3 3.68246e-16 0)
(3 5.9327e-17 0)
(3 2.3634e-16 0)
(3 -1.39001e-16 0)
(3 6.4103e-16 0)
(3 1.02693e-15 0)
(3 1.68958e-15 0)
(3 1.93058e-15 0)
(3 2.2801e-15 0)
(3 1.08204e-14 0)
(3 6.72641e-13 0)
(3 5.15433e-11 0)
(3 2.55029e-09 0)
(3 2.23838e-07 0)
(2.99985 8.74375e-06 0)
(2.98895 0.00104282 0)
(1.89595 0.0308086 0)
(0.736567 0.206591 0)
(0.682386 0.0746709 0)
(0.656051 0.0406794 0)
(0.630449 0.0549178 0)
(0.612157 0.0983954 0)
(0.581521 0.128592 0)
(0.545551 0.125041 0)
(0.515563 0.101683 0)
(0.495518 0.0684584 0)
(0.471196 0.0614051 0)
(0.453837 0.0765402 0)
(0.433259 0.0978395 0)
(0.409558 0.100115 0)
(0.388188 0.0933254 0)
(0.366671 0.0933084 0)
(0.345533 0.0951219 0)
(0.324385 0.0962366 0)
(0.303997 0.0981708 0)
(0.285022 0.103041 0)
(0.268197 0.107949 0)
(0.252735 0.109784 0)
(0.238888 0.109527 0)
(0.224312 0.108584 0)
(0.20937 0.107562 0)
(0.194069 0.107808 0)
(0.178246 0.110018 0)
(0.161072 0.112093 0)
(0.142657 0.110407 0)
(0.121575 0.10597 0)
(0.099163 0.102975 0)
(0.0758706 0.101649 0)
(0.052475 0.102655 0)
(0.032448 0.117289 0)
(0.0192607 0.11789 0)
(3 -3.80069e-16 0)
(3 4.02481e-18 0)
(3 1.21614e-17 0)
(3 -2.84233e-16 0)
(3 1.33258e-16 0)
(3 5.95572e-16 0)
(3 2.54104e-16 0)
(3 1.39192e-16 0)
(3 -2.15314e-17 0)
(3 1.21891e-16 0)
(3 9.76934e-17 0)
(3 1.17597e-16 0)
(3 5.98163e-16 0)
(3 3.69669e-16 0)
(3 6.76326e-16 0)
(3 6.94273e-16 0)
(3 4.33379e-16 0)
(3 7.72353e-16 0)
(3 9.26092e-16 0)
(3 1.75902e-15 0)
(3 2.06668e-15 0)
(3 7.12984e-16 0)
(3 -7.85497e-16 0)
(3 -8.95927e-16 0)
(3 -1.0686e-15 0)
(3 -1.33872e-15 0)
(3 -9.2583e-16 0)
(3 -3.97685e-16 0)
(3 -1.88421e-16 0)
(3 7.78052e-16 0)
(3 8.83431e-16 0)
(3 1.16958e-15 0)
(3 7.35449e-16 0)
(3 5.85839e-16 0)
(3 3.00945e-16 0)
(3 1.3859e-16 0)
(3 2.76159e-17 0)
(3 7.35618e-16 0)
(3 1.24292e-15 0)
(3 2.3452e-15 0)
(3 1.75143e-15 0)
(3 2.35248e-15 0)
(3 2.53061e-15 0)
(3 1.8278e-15 0)
(3 1.55236e-15 0)
(3 1.47753e-15 0)
(3 9.30461e-16 0)
(3 1.29754e-16 0)
(3 -6.27134e-17 0)
(3 1.20207e-15 0)
(3 1.26742e-15 0)
(3 1.32058e-15 0)
(3 8.41219e-16 0)
(3 7.30846e-16 0)
(3 1.07108e-14 0)
(3 5.20803e-13 0)
(3 4.40236e-11 0)
(3 1.91704e-09 0)
(3 1.90095e-07 0)
(2.99986 6.10817e-06 0)
(2.98992 0.000797644 0)
(1.91805 0.018521 0)
(0.718256 0.20832 0)
(0.665861 0.0750495 0)
(0.643423 0.0540971 0)
(0.616926 0.0758251 0)
(0.596804 0.125551 0)
(0.574977 0.155475 0)
(0.557372 0.152317 0)
(0.54394 0.128467 0)
(0.527158 0.0945434 0)
(0.503164 0.0864067 0)
(0.48585 0.101697 0)
(0.463767 0.123792 0)
(0.435791 0.125264 0)
(0.409622 0.114739 0)
(0.383123 0.112621 0)
(0.358337 0.114386 0)
(0.33403 0.115539 0)
(0.310847 0.116793 0)
(0.289288 0.120182 0)
(0.270924 0.122945 0)
(0.254563 0.1235 0)
(0.239832 0.123432 0)
(0.224352 0.12365 0)
(0.208452 0.124117 0)
(0.192182 0.125955 0)
(0.175531 0.129825 0)
(0.157653 0.13342 0)
(0.138717 0.132794 0)
(0.117483 0.128841 0)
(0.095544 0.125994 0)
(0.0728078 0.124779 0)
(0.0498549 0.124072 0)
(0.0283083 0.134165 0)
(0.0171682 0.13762 0)
(3 2.21431e-16 0)
(3 -1.96531e-16 0)
(3 -5.54857e-16 0)
(3 -5.04498e-17 0)
(3 9.73186e-16 0)
(3 1.42821e-15 0)
(3 6.665e-16 0)
(3 5.62449e-16 0)
(3 2.3497e-16 0)
(3 -3.55087e-16 0)
(3 2.16381e-16 0)
(3 1.11679e-15 0)
(3 1.12611e-15 0)
(3 1.18812e-15 0)
(3 9.05034e-16 0)
(3 1.49582e-16 0)
(3 8.62075e-17 0)
(3 -3.38205e-16 0)
(3 1.90362e-16 0)
(3 6.56367e-16 0)
(3 1.26993e-15 0)
(3 1.84097e-15 0)
(3 1.36978e-15 0)
(3 6.08656e-16 0)
(3 -6.81124e-16 0)
(3 -9.3287e-16 0)
(3 -9.25659e-16 0)
(3 -9.0267e-16 0)
(3 -6.84665e-16 0)
(3 -7.33937e-16 0)
(3 2.16327e-16 0)
(3 -4.19206e-17 0)
(3 8.74395e-17 0)
(3 5.03958e-16 0)
(3 3.19266e-16 0)
(3 9.0731e-16 0)
(3 1.23467e-15 0)
(3 1.31297e-15 0)
(3 4.36064e-16 0)
(3 2.86376e-16 0)
(3 1.38875e-15 0)
(3 1.37453e-15 0)
(3 1.38802e-15 0)
(3 1.72039e-15 0)
(3 1.37701e-15 0)
(3 1.22974e-15 0)
(3 8.79027e-16 0)
(3 7.3523e-16 0)
(3 1.60362e-15 0)
(3 9.50212e-16 0)
(3 4.03465e-16 0)
(3 9.76061e-16 0)
(3 1.25813e-15 0)
(3 2.31406e-15 0)
(3 1.15157e-14 0)
(3 5.80789e-13 0)
(3 4.79141e-11 0)
(3 2.61515e-09 0)
(3 2.43377e-07 0)
(2.99988 1.17749e-05 0)
(2.9913 0.00125409 0)
(1.9861 0.0794522 0)
(0.713024 0.203214 0)
(0.653537 0.0802208 0)
(0.623173 0.0689695 0)
(0.59383 0.0963558 0)
(0.572466 0.139447 0)
(0.560872 0.1625 0)
(0.551938 0.162302 0)
(0.540826 0.147028 0)
(0.526566 0.118421 0)
(0.503991 0.11008 0)
(0.488315 0.125439 0)
(0.470416 0.14856 0)
(0.446993 0.150249 0)
(0.426208 0.137684 0)
(0.402222 0.132926 0)
(0.378383 0.133867 0)
(0.353784 0.134454 0)
(0.329384 0.134769 0)
(0.306351 0.136097 0)
(0.285854 0.136643 0)
(0.267437 0.136283 0)
(0.250292 0.137164 0)
(0.232449 0.139389 0)
(0.214131 0.142038 0)
(0.195484 0.145767 0)
(0.17675 0.151152 0)
(0.157296 0.155802 0)
(0.137448 0.15564 0)
(0.116115 0.151502 0)
(0.0947597 0.148329 0)
(0.0727601 0.146942 0)
(0.0501729 0.146035 0)
(0.0266752 0.15046 0)
(0.0162008 0.15563 0)
(3 -2.15728e-16 0)
(3 -2.00812e-16 0)
(3 -5.2945e-16 0)
(3 -2.72573e-16 0)
(3 5.08807e-16 0)
(3 1.37796e-16 0)
(3 2.24786e-16 0)
(3 -2.96747e-16 0)
(3 -4.72517e-16 0)
(3 2.6915e-16 0)
(3 -1.35661e-16 0)
(3 4.51002e-16 0)
(3 5.65659e-16 0)
(3 8.81939e-16 0)
(3 1.25604e-16 0)
(3 -3.43541e-16 0)
(3 -3.68859e-17 0)
(3 -3.05925e-16 0)
(3 -3.95144e-16 0)
(3 -9.17535e-16 0)
(3 -7.57526e-16 0)
(3 -2.07822e-16 0)
(3 5.8899e-16 0)
(3 1.45681e-15 0)
(3 1.66288e-15 0)
(3 9.06288e-16 0)
(3 -1.39444e-16 0)
(3 -9.58225e-16 0)
(3 -1.12323e-15 0)
(3 -1.20224e-15 0)
(3 -1.07392e-15 0)
(3 -8.7709e-16 0)
(3 3.10388e-17 0)
(3 2.32731e-16 0)
(3 9.76668e-16 0)
(3 6.21225e-16 0)
(3 1.19879e-15 0)
(3 1.68765e-15 0)
(3 2.2235e-15 0)
(3 1.64681e-15 0)
(3 1.08857e-15 0)
(3 9.84122e-16 0)
(3 3.53195e-16 0)
(3 9.52042e-17 0)
(3 4.56939e-16 0)
(3 1.1402e-15 0)
(3 1.26462e-15 0)
(3 1.92774e-15 0)
(3 8.30317e-16 0)
(3 -2.70054e-16 0)
(3 5.01209e-17 0)
(3 -1.56186e-16 0)
(3 4.50024e-16 0)
(3 8.74447e-16 0)
(3 8.39409e-15 0)
(3 5.08472e-13 0)
(3 4.42616e-11 0)
(3 2.60884e-09 0)
(3 2.36306e-07 0)
(2.99991 1.34714e-05 0)
(2.99365 0.00130051 0)
(2.21802 0.118442 0)
(0.793498 0.188993 0)
(0.689981 0.0990094 0)
(0.635276 0.104004 0)
(0.591359 0.128283 0)
(0.566637 0.154955 0)
(0.559193 0.169346 0)
(0.55224 0.170638 0)
(0.543276 0.160762 0)
(0.53179 0.138161 0)
(0.510243 0.130102 0)
(0.493265 0.145497 0)
(0.47554 0.168424 0)
(0.453599 0.17073 0)
(0.435676 0.157868 0)
(0.414653 0.152211 0)
(0.393582 0.153303 0)
(0.370952 0.154227 0)
(0.347351 0.154309 0)
(0.323953 0.154522 0)
(0.301376 0.153943 0)
(0.280192 0.153357 0)
(0.259693 0.15501 0)
(0.239268 0.158596 0)
(0.218928 0.162586 0)
(0.198918 0.167351 0)
(0.179409 0.173461 0)
(0.159612 0.178472 0)
(0.13978 0.17821 0)
(0.118807 0.173475 0)
(0.097885 0.169901 0)
(0.0760728 0.168659 0)
(0.052963 0.169203 0)
(0.0272823 0.168158 0)
(0.0151522 0.174225 0)
(3 -1.18934e-16 0)
(3 -2.72352e-16 0)
(3 5.90011e-16 0)
(3 3.27953e-16 0)
(3 2.4365e-16 0)
(3 1.26225e-16 0)
(3 -2.87363e-16 0)
(3 -9.95691e-16 0)
(3 -5.84429e-16 0)
(3 1.93967e-16 0)
(3 -2.23681e-16 0)
(3 -5.86758e-16 0)
(3 -7.34951e-16 0)
(3 -1.616e-17 0)
(3 4.0715e-16 0)
(3 1.00623e-15 0)
(3 4.40803e-16 0)
(3 4.40629e-16 0)
(3 -1.50346e-16 0)
(3 -1.20733e-15 0)
(3 -1.9984e-15 0)
(3 -9.08202e-16 0)
(3 -6.70844e-16 0)
(3 -5.60399e-16 0)
(3 -3.19149e-16 0)
(3 3.706e-16 0)
(3 4.83874e-16 0)
(3 5.00388e-16 0)
(3 4.92763e-16 0)
(3 -5.02929e-16 0)
(3 -1.29651e-16 0)
(3 6.30317e-16 0)
(3 1.36114e-15 0)
(3 1.09478e-15 0)
(3 9.31273e-16 0)
(3 7.33461e-16 0)
(3 3.8567e-16 0)
(3 1.83965e-17 0)
(3 2.52842e-16 0)
(3 1.45018e-17 0)
(3 5.63256e-16 0)
(3 9.29705e-16 0)
(3 6.62138e-16 0)
(3 1.21435e-15 0)
(3 8.36926e-16 0)
(3 2.69043e-16 0)
(3 5.76392e-17 0)
(3 -4.54886e-16 0)
(3 -6.93346e-16 0)
(3 -1.32584e-16 0)
(3 2.24197e-16 0)
(3 1.03566e-15 0)
(3 7.65926e-16 0)
(3 6.23729e-16 0)
(3 6.96658e-15 0)
(3 4.21303e-13 0)
(3 3.42671e-11 0)
(3 2.08915e-09 0)
(3 1.75272e-07 0)
(2.99994 1.06399e-05 0)
(2.99542 0.000937881 0)
(2.38439 0.102187 0)
(0.831356 0.127946 0)
(0.66765 0.145009 0)
(0.607349 0.14187 0)
(0.574509 0.151076 0)
(0.56046 0.164586 0)
(0.556513 0.174947 0)
(0.549466 0.17815 0)
(0.539398 0.172636 0)
(0.527005 0.156939 0)
(0.504987 0.151001 0)
(0.485892 0.166187 0)
(0.466961 0.187363 0)
(0.445151 0.189359 0)
(0.428789 0.175751 0)
(0.410145 0.169496 0)
(0.392511 0.171264 0)
(0.373323 0.173796 0)
(0.352052 0.175234 0)
(0.329411 0.176018 0)
(0.306268 0.175412 0)
(0.283695 0.174567 0)
(0.261889 0.176107 0)
(0.240947 0.179945 0)
(0.220723 0.184277 0)
(0.201086 0.189327 0)
(0.181875 0.195679 0)
(0.162116 0.200803 0)
(0.142162 0.200365 0)
(0.120933 0.194979 0)
(0.100505 0.190815 0)
(0.0797425 0.189536 0)
(0.0579234 0.19195 0)
(0.0316891 0.192155 0)
(0.00153349 0.188846 0)
(3 3.23795e-17 0)
(3 4.82994e-16 0)
(3 5.58651e-16 0)
(3 -5.06743e-16 0)
(3 -7.27421e-16 0)
(3 -6.97153e-16 0)
(3 -8.13921e-16 0)
(3 -3.12999e-16 0)
(3 -3.63788e-16 0)
(3 -4.29609e-16 0)
(3 -7.43562e-16 0)
(3 -1.65071e-15 0)
(3 -2.26624e-15 0)
(3 -1.35516e-15 0)
(3 -4.01553e-16 0)
(3 1.18436e-15 0)
(3 7.10378e-16 0)
(3 1.33887e-16 0)
(3 -3.53461e-16 0)
(3 -2.63876e-16 0)
(3 -5.30494e-16 0)
(3 -2.29677e-16 0)
(3 -1.23717e-16 0)
(3 2.61649e-17 0)
(3 -1.22336e-16 0)
(3 -1.93718e-16 0)
(3 1.21063e-15 0)
(3 9.52742e-16 0)
(3 1.07811e-15 0)
(3 1.73031e-15 0)
(3 1.64117e-15 0)
(3 2.39475e-15 0)
(3 2.20695e-15 0)
(3 1.86477e-15 0)
(3 1.71143e-15 0)
(3 1.72061e-15 0)
(3 6.71657e-16 0)
(3 3.27922e-16 0)
(3 -3.17094e-16 0)
(3 -3.85375e-16 0)
(3 -5.16457e-16 0)
(3 -1.06069e-15 0)
(3 8.18155e-16 0)
(3 8.54268e-16 0)
(3 3.3192e-16 0)
(3 -1.0162e-16 0)
(3 -5.41755e-16 0)
(3 -1.2657e-15 0)
(3 -1.1025e-16 0)
(3 1.67386e-16 0)
(3 4.26421e-16 0)
(3 3.36782e-16 0)
(3 8.00517e-17 0)
(3 1.50754e-16 0)
(3 6.26305e-15 0)
(3 3.41725e-13 0)
(3 2.83953e-11 0)
(3 1.79847e-09 0)
(3 1.53215e-07 0)
(2.99996 9.35461e-06 0)
(2.99701 0.000833938 0)
(2.55136 0.101923 0)
(0.867344 0.0920588 0)
(0.685567 0.191486 0)
(0.622701 0.183276 0)
(0.585638 0.172018 0)
(0.565903 0.174383 0)
(0.559763 0.182261 0)
(0.550481 0.188673 0)
(0.537286 0.187015 0)
(0.522573 0.176586 0)
(0.499804 0.173429 0)
(0.479046 0.188408 0)
(0.458269 0.206173 0)
(0.436226 0.205604 0)
(0.420533 0.190285 0)
(0.403133 0.182016 0)
(0.387227 0.184299 0)
(0.369938 0.1894 0)
(0.349921 0.193488 0)
(0.32806 0.196069 0)
(0.30545 0.196423 0)
(0.283326 0.195825 0)
(0.262151 0.197328 0)
(0.242063 0.201203 0)
(0.222689 0.205652 0)
(0.20367 0.210892 0)
(0.184707 0.217528 0)
(0.164794 0.22293 0)
(0.144308 0.222578 0)
(0.122348 0.216666 0)
(0.101182 0.211636 0)
(0.080135 0.209535 0)
(0.0592759 0.212798 0)
(0.0357238 0.220795 0)
(-0.00467021 0.208434 0)
(3 -8.56924e-17 0)
(3 2.26041e-16 0)
(3 -9.94865e-17 0)
(3 -7.1235e-16 0)
(3 -1.13651e-15 0)
(3 -7.93264e-16 0)
(3 -1.76157e-16 0)
(3 2.93721e-16 0)
(3 2.85165e-16 0)
(3 -4.78973e-16 0)
(3 1.69655e-16 0)
(3 1.04972e-15 0)
(3 1.08296e-15 0)
(3 1.20212e-16 0)
(3 -1.80208e-16 0)
(3 -1.01802e-16 0)
(3 -1.17798e-16 0)
(3 -3.39681e-17 0)
(3 -6.22544e-16 0)
(3 -8.8782e-16 0)
(3 -7.13063e-16 0)
(3 -1.23737e-15 0)
(3 -5.97425e-16 0)
(3 -2.74829e-17 0)
(3 9.21702e-16 0)
(3 1.3923e-15 0)
(3 9.40539e-16 0)
(3 4.21985e-16 0)
(3 -3.72519e-16 0)
(3 -3.45885e-16 0)
(3 -2.84642e-16 0)
(3 -2.67682e-16 0)
(3 -2.47432e-16 0)
(3 2.76058e-16 0)
(3 -8.67405e-17 0)
(3 -2.69366e-16 0)
(3 -2.76942e-16 0)
(3 -5.31577e-16 0)
(3 -4.87401e-16 0)
(3 8.47591e-16 0)
(3 1.29061e-16 0)
(3 -5.14311e-17 0)
(3 -4.79092e-16 0)
(3 -9.84324e-17 0)
(3 -2.96982e-16 0)
(3 -7.06593e-16 0)
(3 -4.62819e-16 0)
(3 -2.35277e-16 0)
(3 -4.61828e-16 0)
(3 3.62101e-19 0)
(3 -1.39379e-16 0)
(3 -3.93118e-16 0)
(3 -1.0927e-16 0)
(3 -5.90165e-17 0)
(3 1.42062e-15 0)
(3 1.92086e-13 0)
(3 1.79085e-11 0)
(3 1.30358e-09 0)
(3 1.1139e-07 0)
(2.99998 7.29498e-06 0)
(2.99834 0.000711415 0)
(2.71327 0.0901178 0)
(0.947498 0.0406897 0)
(0.726286 0.212649 0)
(0.642208 0.223752 0)
(0.60623 0.197127 0)
(0.582441 0.186601 0)
(0.570777 0.190724 0)
(0.560297 0.200972 0)
(0.544331 0.203817 0)
(0.528048 0.197765 0)
(0.506183 0.197513 0)
(0.486064 0.212951 0)
(0.463372 0.228569 0)
(0.439366 0.225529 0)
(0.421752 0.208027 0)
(0.402971 0.196796 0)
(0.385597 0.198379 0)
(0.367964 0.20503 0)
(0.347938 0.211268 0)
(0.326599 0.215505 0)
(0.304998 0.216927 0)
(0.284107 0.21682 0)
(0.264166 0.218416 0)
(0.245155 0.222352 0)
(0.226521 0.226941 0)
(0.207767 0.232419 0)
(0.188584 0.239374 0)
(0.168109 0.24512 0)
(0.146878 0.245003 0)
(0.124066 0.238896 0)
(0.102168 0.233271 0)
(0.0801473 0.230318 0)
(0.057963 0.232833 0)
(0.035521 0.245036 0)
(-0.00522869 0.231401 0)
(3 1.01643e-16 0)
(3 -5.63752e-17 0)
(3 -9.70901e-17 0)
(3 5.00236e-16 0)
(3 -2.26499e-16 0)
(3 -6.36972e-17 0)
(3 2.63245e-18 0)
(3 7.30829e-17 0)
(3 1.62221e-16 0)
(3 -6.5728e-17 0)
(3 6.4738e-17 0)
(3 4.47107e-16 0)
(3 9.17609e-16 0)
(3 -1.14302e-16 0)
(3 -8.55503e-16 0)
(3 -1.56796e-15 0)
(3 -8.64024e-16 0)
(3 -1.15784e-15 0)
(3 -8.70131e-16 0)
(3 -6.74955e-16 0)
(3 -4.63438e-16 0)
(3 1.20932e-16 0)
(3 2.40427e-16 0)
(3 8.56389e-17 0)
(3 -1.98134e-16 0)
(3 3.52685e-16 0)
(3 5.87652e-17 0)
(3 2.27764e-16 0)
(3 5.45165e-16 0)
(3 6.80534e-16 0)
(3 1.03067e-15 0)
(3 6.972e-16 0)
(3 3.81896e-16 0)
(3 3.15873e-16 0)
(3 2.01981e-16 0)
(3 -1.88112e-16 0)
(3 2.16822e-17 0)
(3 6.15504e-17 0)
(3 -1.26387e-16 0)
(3 -5.72359e-16 0)
(3 -5.47404e-16 0)
(3 -2.72459e-16 0)
(3 -7.36512e-16 0)
(3 -8.33218e-16 0)
(3 -5.21485e-16 0)
(3 -6.65261e-16 0)
(3 2.68366e-16 0)
(3 7.74219e-16 0)
(3 6.57539e-16 0)
(3 6.75271e-16 0)
(3 9.00433e-17 0)
(3 -1.93188e-16 0)
(3 -2.80066e-16 0)
(3 -2.14798e-16 0)
(3 1.70567e-15 0)
(3 5.25873e-14 0)
(3 5.63968e-12 0)
(3 5.38076e-10 0)
(3 3.71786e-08 0)
(2.99999 3.51797e-06 0)
(2.99931 0.000311897 0)
(2.88406 0.046271 0)
(1.07445 -0.011334 0)
(0.729027 0.248837 0)
(0.64526 0.257558 0)
(0.630263 0.222397 0)
(0.610456 0.199856 0)
(0.592968 0.200965 0)
(0.579049 0.213489 0)
(0.561142 0.218006 0)
(0.54449 0.213694 0)
(0.524206 0.215381 0)
(0.505944 0.231619 0)
(0.48267 0.247722 0)
(0.456585 0.244348 0)
(0.435482 0.226188 0)
(0.412655 0.213026 0)
(0.390949 0.214546 0)
(0.370408 0.222162 0)
(0.349142 0.229412 0)
(0.328061 0.234346 0)
(0.307608 0.236418 0)
(0.28814 0.236877 0)
(0.269494 0.238825 0)
(0.251446 0.243106 0)
(0.233311 0.248061 0)
(0.214532 0.253918 0)
(0.19483 0.261249 0)
(0.173506 0.267387 0)
(0.151244 0.267628 0)
(0.127304 0.261536 0)
(0.104562 0.255556 0)
(0.081589 0.252347 0)
(0.0580074 0.254114 0)
(0.0352737 0.268799 0)
(-0.00554937 0.255231 0)
(3 -1.2994e-16 0)
(3 -1.61098e-16 0)
(3 -1.77884e-16 0)
(3 6.54574e-16 0)
(3 8.44665e-16 0)
(3 1.07099e-16 0)
(3 -2.66486e-16 0)
(3 -5.54635e-16 0)
(3 -6.53826e-16 0)
(3 -4.76467e-16 0)
(3 -4.73303e-16 0)
(3 -1.43084e-16 0)
(3 -4.7427e-16 0)
(3 -9.11875e-16 0)
(3 -1.3539e-15 0)
(3 -1.83243e-15 0)
(3 -2.44276e-15 0)
(3 -2.76621e-15 0)
(3 -1.8354e-15 0)
(3 -8.23131e-16 0)
(3 -5.19779e-16 0)
(3 -1.01315e-16 0)
(3 -4.811e-17 0)
(3 1.47177e-17 0)
(3 4.77498e-16 0)
(3 3.14615e-16 0)
(3 -4.19382e-17 0)
(3 6.74164e-18 0)
(3 2.46099e-16 0)
(3 3.10879e-16 0)
(3 -3.42196e-16 0)
(3 -8.117e-16 0)
(3 -5.8083e-17 0)
(3 6.59195e-16 0)
(3 2.81273e-16 0)
(3 -2.54298e-16 0)
(3 -3.13773e-16 0)
(3 -2.99846e-16 0)
(3 -5.58301e-16 0)
(3 -1.40825e-15 0)
(3 -1.23313e-15 0)
(3 -1.51548e-15 0)
(3 -1.67346e-15 0)
(3 -1.53284e-15 0)
(3 -8.74568e-16 0)
(3 1.00189e-16 0)
(3 -1.49772e-16 0)
(3 -1.2696e-16 0)
(3 3.39241e-17 0)
(3 6.20953e-16 0)
(3 1.53007e-15 0)
(3 5.55804e-16 0)
(3 -5.76503e-16 0)
(3 -1.18145e-15 0)
(3 -4.38352e-16 0)
(3 2.49496e-14 0)
(3 1.51483e-12 0)
(3 1.42185e-10 0)
(3 6.57372e-09 0)
(2.99999 9.99058e-07 0)
(2.99963 2.64036e-05 0)
(2.97547 0.00847041 0)
(1.15669 -0.00832401 0)
(0.708674 0.277075 0)
(0.629043 0.273729 0)
(0.622808 0.241925 0)
(0.609068 0.219145 0)
(0.592862 0.220022 0)
(0.578791 0.23227 0)
(0.562565 0.236814 0)
(0.548571 0.231102 0)
(0.531667 0.233595 0)
(0.518275 0.249877 0)
(0.498924 0.266586 0)
(0.475474 0.263892 0)
(0.453445 0.247097 0)
(0.426913 0.233973 0)
(0.400228 0.234848 0)
(0.375904 0.241655 0)
(0.353158 0.247958 0)
(0.332271 0.252318 0)
(0.312653 0.25466 0)
(0.293998 0.256028 0)
(0.275951 0.258943 0)
(0.258184 0.264131 0)
(0.239912 0.269829 0)
(0.220606 0.276223 0)
(0.200028 0.283916 0)
(0.177615 0.290406 0)
(0.154109 0.291005 0)
(0.128945 0.284963 0)
(0.105286 0.278639 0)
(0.0814807 0.275406 0)
(0.0570505 0.276456 0)
(0.0342525 0.29289 0)
(-0.00590376 0.279496 0)
(3 -3.70035e-16 0)
(3 3.18642e-16 0)
(3 3.18961e-16 0)
(3 -1.82333e-17 0)
(3 5.55292e-17 0)
(3 1.77386e-16 0)
(3 -2.27951e-16 0)
(3 -2.16612e-16 0)
(3 -6.40615e-16 0)
(3 -3.23617e-16 0)
(3 2.21762e-16 0)
(3 1.69333e-16 0)
(3 -3.70265e-16 0)
(3 4.06677e-16 0)
(3 1.09907e-16 0)
(3 3.28175e-16 0)
(3 -1.40982e-16 0)
(3 -4.46355e-16 0)
(3 -5.7624e-16 0)
(3 -5.89434e-16 0)
(3 -9.91106e-17 0)
(3 -7.13826e-16 0)
(3 -6.53307e-16 0)
(3 -2.62093e-16 0)
(3 -1.44901e-17 0)
(3 -8.63503e-16 0)
(3 -5.719e-16 0)
(3 8.77407e-17 0)
(3 6.55966e-16 0)
(3 5.53251e-16 0)
(3 2.62424e-16 0)
(3 5.67463e-16 0)
(3 -9.57667e-17 0)
(3 -4.76435e-16 0)
(3 2.08026e-17 0)
(3 3.41448e-17 0)
(3 -7.11535e-17 0)
(3 -2.6171e-16 0)
(3 -8.60626e-16 0)
(3 -1.43513e-15 0)
(3 -2.24179e-15 0)
(3 -2.82449e-15 0)
(3 -2.6048e-15 0)
(3 -2.33164e-15 0)
(3 -1.98028e-15 0)
(3 -1.24569e-15 0)
(3 -1.42958e-15 0)
(3 -7.1916e-16 0)
(3 -6.95691e-16 0)
(3 -1.92329e-16 0)
(3 2.31351e-16 0)
(3 1.91765e-15 0)
(3 3.25922e-15 0)
(3 3.24913e-15 0)
(3 2.58452e-15 0)
(3 2.72947e-14 0)
(3 1.10993e-12 0)
(3 9.15856e-11 0)
(3 3.70425e-09 0)
(3 4.03318e-07 0)
(2.9997 1.13951e-05 0)
(2.97923 0.00200134 0)
(1.27938 0.0131902 0)
(0.699471 0.31326 0)
(0.627465 0.288623 0)
(0.626608 0.254547 0)
(0.615286 0.232892 0)
(0.601325 0.235977 0)
(0.586084 0.249308 0)
(0.567902 0.253131 0)
(0.550868 0.246144 0)
(0.531747 0.249207 0)
(0.518385 0.266536 0)
(0.50177 0.284371 0)
(0.481698 0.283998 0)
(0.461238 0.270815 0)
(0.434914 0.259814 0)
(0.407396 0.259249 0)
(0.382234 0.263359 0)
(0.359164 0.267109 0)
(0.338097 0.270268 0)
(0.318202 0.272985 0)
(0.299227 0.275648 0)
(0.281001 0.27986 0)
(0.263218 0.286079 0)
(0.244982 0.292462 0)
(0.225629 0.299218 0)
(0.204732 0.307102 0)
(0.181667 0.313922 0)
(0.156986 0.314997 0)
(0.130688 0.309181 0)
(0.105808 0.302557 0)
(0.081131 0.299247 0)
(0.0561584 0.299162 0)
(0.0337865 0.316764 0)
(-0.00287474 0.304531 0)
(3 5.00594e-16 0)
(3 1.03281e-16 0)
(3 6.42764e-17 0)
(3 -2.28743e-16 0)
(3 -9.20005e-16 0)
(3 -1.10354e-15 0)
(3 -8.86463e-16 0)
(3 -3.41161e-16 0)
(3 2.47133e-17 0)
(3 -2.2649e-17 0)
(3 -3.88801e-16 0)
(3 -5.47408e-16 0)
(3 6.54768e-17 0)
(3 -2.98665e-16 0)
(3 5.62875e-16 0)
(3 1.32629e-15 0)
(3 1.05432e-15 0)
(3 1.20843e-15 0)
(3 9.79976e-17 0)
(3 -2.64952e-16 0)
(3 -7.89565e-16 0)
(3 -1.52289e-15 0)
(3 -1.72844e-15 0)
(3 -1.17341e-15 0)
(3 -1.32716e-15 0)
(3 -2.13943e-16 0)
(3 -1.29666e-16 0)