/*--------------------------------*- C++ -*----------------------------------*\
| =========                 |                                                 |
| \\      /  F ield         | OpenFOAM: The Open Source CFD Toolbox           |
|  \\    /   O peration     | Version:  v1812                                 |
|   \\  /    A nd           | Web:      www.OpenFOAM.com                      |
|    \\/     M anipulation  |                                                 |
\*---------------------------------------------------------------------------*/
FoamFile
{
    version     2.0;
    format      ascii;
    class       volScalarField;
    location    "1.2";
    object      p;
}
// * * * * * * * * * * * * * * * * * * * * * * * * * * * * * * * * * * * * * //

dimensions      [1 -1 -2 0 0 0 0];


internalField   nonuniform List<scalar> 
20400
(
99398.4
99399.1
99398.1
99399.5
99400.1
99401.3
99402.8
99404.7
99406.8
99408.9
99410.6
99413
99409.5
99415
99421.7
99426
99430.7
99433.1
99432.7
99440.2
99443.5
99440.9
99452.8
99458.1
99462.3
99465.7
99465.3
99472.7
99476.6
99480.8
99483.8
99487.4
99490.3
99492
99493.5
99494.2
99505.7
99504.1
99509.6
99510.2
99512
99515.9
99522.3
99521.1
99520.3
99526.2
99530.7
99535.8
99541.3
99544.9
99565.8
99573.2
99578.5
99585.1
99592.1
99599.4
99609.5
99611.4
99621
99626.6
99629.9
99630
99631.9
99630.7
99627
99625.2
99625.4
99621.7
99614.3
99605.4
99598
99590
99581.8
99573.3
99565
99555.5
99545.5
99537.9
99530
99522.8
99517.8
99512.3
99506.8
99503.4
99503.2
99505
99507.1
99510.7
99513.1
99519.6
99528.3
99534.6
99538.9
99542.2
99547.4
99554.4
99561.4
99571.7
99584.8
99592.3
99597
99603.3
99609.2
99614.7
99620.1
99625.1
99630.4
99635.5
99640.1
99644.7
99648.7
99653.5
99658.2
99662.9
99669.9
99676.2
99683.3
99682
99681.1
99685.5
99690
99698.2
99696.7
99714.8
99704.5
99699.5
99689.7
99716.3
99721.5
99721.7
99718.9
99720.5
99720.9
99720.3
99718.9
99719.1
99718
99717
99719.2
99724.3
99723.3
99720.9
99718.5
99718.8
99718.9
99720.6
99722.2
99725.1
99727.5
99730
99731.9
99733.5
99735.8
99737.3
99741.5
99747.9
99754
99754.1
99755.7
99761.9
99762
99765.8
99770.6
99773.8
99776.3
99778.5
99780.7
99783.2
99791.5
99796.9
99802.1
99808.3
99817.6
99828.3
99840.4
99851.6
99862.8
99881.3
99898.4
99922.5
99940
99959
99979.2
99999.3
100018
100037
100054
100072
100088
100105
100122
100136
100149
100160
100168
100176
100183
100187
100192
100195
100200
100204
100208
100210
100212
100214
100216
100218
100220
100222
100224
100226
100228
100231
100233
100236
100239
100242
100245
100251
100265
100270
100278
100277
100276
100280
100290
100300
100308
100316
100324
100331
100338
100344
100351
100358
100365
100372
100379
100386
100392
100397
100403
100407
100413
100417
100421
100424
100426
100428
100429
100430
100431
100429
100429
100430
100429
100429
100429
100428
100428
100428
100429
100430
100432
100436
100439
100442
100447
100451
100460
100464
100471
100479
100487
100495
100506
100515
100525
100537
100547
100557
100568
100578
100587
100595
100603
100610
100617
100623
100632
100639
100638
100646
100648
100652
100653
100654
100655
100655
100654
100652
100650
100648
100645
100643
100639
100637
100632
100626
100624
100619
100613
100609
100604
100599
100594
100590
100585
100577
100577
100576
100575
100572
100572
100572
100571
100572
100574
100575
100579
100581
100585
100588
100593
100603
100610
100617
100625
100637
100651
100660
100669
100678
100694
100707
100716
100727
100739
100751
100764
100775
100786
100799
100811
100822
100833
100842
100852
100861
100870
100881
100888
100895
100903
100911
100919
100927
100934
100942
100949
100955
100961
100967
100972
100977
100979
100990
100994
101000
101006
101010
101014
101018
101022
101027
101032
101038
101043
101048
101052
101056
101060
101065
101069
101073
101076
101081
101084
101088
101091
101095
101098
101101
101104
101107
101109
101112
101114
101116
101118
101119
101120
101121
101122
101123
101123
101123
101123
101123
101123
101124
101121
101121
101120
101119
101118
101116
101114
101112
101110
101108
101105
101102
101100
101097
101095
101092
101089
101087
101084
101082
101080
101077
101074
101071
101069
101067
101065
101064
101062
101061
101060
101059
101059
101059
101059
101059
101059
101060
101061
101063
101065
101067
101069
101072
101075
101078
101082
101085
101090
101094
101099
101104
101110
101115
101121
101127
101134
101141
101148
101155
101163
101171
101179
101187
101195
101204
101213
101222
101231
101240
101250
101260
101269
101279
101288
101298
101307
101319
99398.9
99399.3
99398.2
99400.3
99401.3
99402.4
99403.4
99404.7
99406.1
99407.6
99409
99411.7
99409.3
99415.3
99422.5
99425.6
99426.6
99432.5
99431.6
99442.4
99445.5
99449.5
99441.9
99453.9
99457.7
99466.7
99470.5
99463.5
99476.5
99480.2
99483.1
99486.1
99488.2
99489.1
99490.7
99490.4
99485.6
99492.4
99499
99500
99501.3
99504.2
99507.3
99509.8
99523
99532.9
99535.9
99539.9
99544.7
99554.4
99561
99567.4
99574.1
99582.5
99590.7
99599.9
99612.3
99625.5
99593.8
99618.1
99625.8
99627.7
99632.6
99634.2
99632.6
99621
99609.9
99614.8
99610.7
99604
99597.3
99589.2
99581.1
99573.3
99566.2
99558.5
99551.4
99547.3
99542.1
99536.2
99532.2
99526.8
99522.3
99520.4
99520.6
99520.5
99517.8
99521.3
99526.4
99526.5
99530.1
99551
99563.5
99575.1
99584.8
99594.1
99603.1
99613.1
99616.9
99620.9
99625.3
99630
99633.8
99637.1
99639.9
99641.8
99643.3
99644.4
99644.8
99644.5
99643
99641.3
99638
99635.2
99631.1
99636.5
99639
99646
99652
99658.6
99657.6
99647.4
99651.5
99632.4
99644.9
99654.2
99663.7
99655.4
99662.8
99668.7
99676.8
99682
99692.1
99701
99705.7
99709.9
99712
99713.7
99718.4
99720.8
99724.9
99720.6
99718.6
99719.8
99720.1
99721
99723.3
99726.7
99729.8
99733.2
99736.2
99739.5
99743.4
99747.9
99753.3
99758.6
99764.5
99777.8
99796.5
99807.5
99815.5
99824
99831.5
99837
99841.3
99844.2
99845.6
99848.1
99843.6
99844.4
99854.5
99856.3
99860.9
99864.6
99869.6
99873.6
99879
99885.8
99893.2
99902
99911.4
99921.7
99934.1
99947.3
99961.4
99976.7
99992
100009
100026
100043
100062
100079
100097
100115
100132
100150
100165
100180
100193
100205
100216
100225
100233
100240
100246
100251
100255
100259
100263
100266
100269
100272
100274
100276
100278
100280
100281
100281
100279
100277
100259
100283
100303
100307
100285
100286
100290
100296
100304
100311
100318
100328
100335
100342
100349
100357
100363
100369
100376
100382
100387
100393
100398
100403
100409
100413
100417
100421
100423
100426
100429
100432
100435
100435
100437
100438
100439
100440
100440
100440
100440
100439
100439
100438
100438
100439
100440
100443
100448
100450
100466
100478
100485
100496
100504
100511
100521
100528
100536
100545
100553
100561
100568
100575
100582
100588
100594
100599
100604
100608
100619
100608
100609
100610
100610
100612
100614
100616
100618
100621
100622
100623
100624
100625
100626
100629
100620
100620
100617
100614
100612
100609
100604
100601
100597
100592
100588
100584
100579
100572
100569
100567
100564
100562
100562
100561
100562
100564
100566
100570
100574
100578
100583
100591
100602
100606
100612
100621
100625
100629
100641
100659
100666
100665
100670
100679
100690
100697
100704
100714
100724
100735
100747
100759
100772
100784
100797
100809
100822
100834
100846
100860
100871
100883
100895
100906
100917
100927
100936
100945
100953
100961
100967
100973
100976
100979
100977
100984
100991
100996
101001
101005
101009
101013
101016
101020
101025
101030
101035
101039
101043
101046
101050
101055
101059
101063
101067
101072
101077
101082
101086
101090
101094
101099
101103
101106
101110
101111
101117
101120
101123
101125
101127
101128
101130
101131
101132
101132
101132
101131
101132
101125
101120
101115
101111
101108
101106
101103
101101
101099
101097
101096
101093
101091
101089
101087
101085
101082
101080
101078
101076
101074
101072
101070
101068
101066
101064
101063
101061
101060
101059
101058
101057
101057
101057
101056
101057
101057
101058
101059
101060
101062
101064
101066
101069
101071
101074
101078
101082
101085
101090
101094
101099
101104
101110
101115
101121
101127
101134
101140
101147
101154
101162
101169
101177
101185
101193
101201
101210
101218
101227
101235
101244
101253
101262
101272
101281
101290
101299
101313
99399.1
99399.7
99397.6
99399.2
99399.5
99400.3
99401.3
99402.7
99404.4
99406.1
99407.7
99410.7
99408.3
99418.1
99421
99426.4
99427.7
99430.3
99432.1
99442.3
99446.7
99447.6
99448.5
99455.9
99458.6
99464.3
99462.1
99472.6
99477.3
99481.3
99484.9
99488.6
99491.6
99495.6
99501.4
99503.8
99498.9
99498.9
99504.5
99505.4
99504.7
99504.6
99504.4
99505
99514.4
99518.8
99522.2
99531.5
99542.2
99551.4
99552.5
99565.1
99574.6
99583.4
99592.4
99601.1
99612
99609.3
99619.8
99629.7
99632.3
99633.5
99635.8
99639.6
99640.2
99634.1
99616.4
99627
99623.3
99616.4
99609.3
99600.5
99591.4
99581.7
99572.3
99561.6
99550.3
99540.5
99531.7
99524.2
99515
99504.8
99500.4
99499.1
99494.2
99499.2
99500.1
99507.1
99504.7
99494.6
99505.3
99525.8
99510.6
99511.3
99519.1
99527.5
99533.7
99539
99532.6
99529.8
99530.1
99529.3
99528.9
99529.1
99529.6
99530.3
99531.4
99532.9
99534.7
99536.8
99539.3
99542.6
99546.8
99550.9
99556.9
99570.8
99600.7
99620
99637.1
99650.7
99660.1
99668.6
99673.4
99682.9
99685.7
99684.3
99687.3
99683.1
99679
99680.4
99685.3
99692.4
99699.1
99703.8
99708.2
99713.3
99717.4
99721.8
99728.4
99729.7
99725.6
99715.8
99716.3
99716.2
99719.3
99722.4
99726.5
99729.4
99732.8
99737.9
99743.1
99747.6
99749.6
99751.4
99754.2
99759.4
99765.6
99767.8
99772.1
99781.4
99782
99781.4
99781.8
99782.5
99783.6
99784.6
99786.2
99788.2
99793.1
99795
99799.9
99805.3
99811.5
99819.3
99828.8
99837.6
99853.1
99867.3
99884.5
99902.3
99921.2
99940.2
99961.1
99983
100005
100029
100050
100073
100094
100110
100119
100129
100141
100152
100162
100170
100180
100189
100196
100202
100206
100211
100215
100217
100220
100221
100223
100224
100225
100226
100228
100229
100231
100232
100234
100236
100240
100246
100255
100261
100274
100260
100255
100264
100305
100310
100312
100314
100317
100321
100326
100332
100339
100346
100352
100359
100367
100373
100380
100387
100394
100400
100406
100411
100417
100423
100428
100432
100436
100439
100440
100443
100445
100443
100450
100446
100450
100447
100448
100446
100446
100446
100446
100446
100446
100446
100445
100448
100448
100448
100450
100451
100454
100460
100465
100466
100471
100475
100479
100485
100492
100498
100504
100510
100518
100526
100533
100541
100550
100559
100567
100596
100614
100632
100641
100651
100657
100662
100665
100667
100668
100668
100669
100669
100666
100663
100664
100662
100659
100656
100654
100651
100647
100644
100640
100635
100632
100627
100622
100617
100608
100608
100602
100599
100596
100591
100590
100587
100585
100584
100584
100583
100584
100582
100592
100588
100593
100598
100608
100615
100616
100617
100630
100647
100659
100677
100686
100703
100719
100733
100748
100761
100774
100788
100802
100815
100828
100840
100852
100863
100874
100886
100890
100899
100907
100915
100924
100932
100940
100949
100956
100964
100973
100982
100991
100993
101020
101025
101030
101035
101040
101046
101050
101054
101057
101061
101064
101068
101072
101076
101079
101082
101084
101087
101090
101092
101094
101096
101097
101099
101101
101102
101103
101104
101106
101107
101107
101110
101109
101109
101110
101110
101110
101110
101110
101110
101110
101109
101109
101109
101108
101113
101117
101119
101120
101120
101119
101117
101116
101114
101111
101109
101107
101104
101102
101099
101096
101094
101091
101088
101086
101084
101081
101078
101076
101073
101071
101069
101067
101065
101063
101062
101061
101060
101060
101060
101059
101060
101060
101061
101062
101064
101065
101067
101070
101072
101075
101079
101082
101086
101090
101095
101100
101105
101110
101116
101122
101128
101135
101142
101149
101156
101164
101171
101179
101188
101196
101205
101214
101223
101232
101241
101250
101260
101269
101278
101287
101297
101306
101319
99400.3
99401.3
99398.9
99400.7
99401
99402
99403.3
99404.8
99406.8
99408.9
99410.7
99413.1
99410.2
99417.8
99420.9
99423.8
99428.1
99431.6
99432.1
99439.5
99443.5
99442.4
99450.7
99459
99461.6
99465.4
99463.4
99470.9
99477.5
99480.7
99483.9
99485.8
99488.9
99495.2
99501.2
99502.6
99506.8
99508.5
99510.6
99511.9
99515.7
99518
99518.9
99516.3
99517.8
99522.6
99524.1
99530
99539.5
99548
99555.7
99567
99574.5
99584.6
99593.6
99602.7
99610.3
99613.6
99616.6
99629.1
99631.6
99634.7
99639
99641.8
99640.4
99636.5
99635.9
99636.3
99633.1
99627.8
99622.2
99615.1
99607.3
99599
99591.5
99582.5
99570.9
99561
99549.9
99536.7
99529.3
99526.1
99520.9
99510.9
99507.6
99502.6
99502.2
99493.6
99495.5
99513.2
99505.8
99490.7
99520.2
99535.7
99542.6
99550.9
99562.1
99572.4
99580.3
99588.8
99595.5
99601.1
99605.4
99609.1
99612.9
99616.8
99621.5
99627.5
99634.2
99641.4
99648.7
99656.6
99664.5
99673.5
99684.2
99686.4
99664.7
99657.3
99654.8
99655.7
99664.1
99674
99683.3
99695.8
99706.7
99714.7
99716.6
99716.8
99720.8
99723.3
99725
99719.7
99710.3
99708.2
99710.1
99713.2
99713.7
99715.5
99721.2
99726.7
99725.7
99722.2
99724.9
99726.2
99720.4
99713.1
99716.6
99720.7
99725.8
99730.1
99731.4
99731.2
99729.8
99733.4
99736.1
99745.6
99757.2
99764.1
99764.7
99770.3
99770.4
99769.7
99773.5
99779.2
99782.3
99788.2
99795
99799.5
99805.2
99806.9
99807.3
99811.8
99816.9
99826.7
99835.5
99850.5
99866
99881.6
99898.5
99910.7
99924.5
99941.1
99958.5
99977.7
99998.3
100021
100042
100063
100086
100106
100121
100134
100149
100164
100177
100186
100183
100188
100194
100200
100206
100211
100216
100218
100220
100223
100226
100229
100232
100236
100238
100239
100241
100242
100245
100247
100250
100255
100258
100259
100262
100258
100262
100273
100279
100289
100294
100302
100307
100314
100322
100330
100338
100346
100354
100361
100368
100374
100381
100388
100394
100400
100406
100411
100420
100424
100429
100433
100437
100441
100444
100448
100448
100450
100445
100450
100444
100445
100441
100440
100439
100438
100436
100435
100435
100435
100435
100434
100438
100441
100450
100453
100461
100471
100479
100486
100495
100504
100514
100525
100537
100548
100560
100571
100582
100594
100605
100616
100627
100636
100647
100655
100654
100647
100644
100646
100648
100651
100653
100654
100654
100654
100653
100652
100652
100651
100646
100645
100640
100631
100626
100621
100615
100610
100605
100599
100595
100591
100586
100578
100574
100573
100570
100567
100566
100564
100563
100565
100565
100567
100570
100572
100577
100583
100584
100595
100600
100607
100617
100629
100642
100650
100661
100676
100694
100705
100716
100727
100740
100753
100767
100779
100791
100798
100804
100812
100821
100831
100843
100853
100864
100879
100887
100895
100903
100912
100921
100930
100937
100945
100953
100961
100968
100975
100981
100987
100987
100993
100997
101002
101007
101012
101016
101020
101025
101029
101033
101038
101043
101047
101051
101055
101058
101063
101066
101071
101074
101078
101082
101086
101089
101092
101096
101099
101102
101104
101107
101110
101112
101114
101115
101117
101119
101120
101121
101121
101122
101123
101122
101122
101121
101119
101117
101116
101115
101114
101112
101111
101110
101109
101108
101107
101104
101101
101098
101095
101092
101089
101086
101083
101081
101079
101077
101074
101072
101070
101068
101066
101064
101063
101062
101061
101060
101059
101059
101059
101059
101059
101060
101061
101062
101063
101065
101067
101069
101072
101075
101078
101082
101086
101090
101095
101099
101105
101110
101116
101122
101128
101134
101141
101148
101155
101163
101171
101179
101187
101195
101204
101212
101221
101230
101240
101249
101258
101268
101278
101288
101299
101308
101318
99399.5
99401
99398
99400.2
99400.8
99401.9
99403.3
99405.1
99407.5
99410.3
99412.6
99414.5
99410.5
99419.6
99424.3
99427.6
99430.9
99434.6
99435.7
99441.5
99444.1
99443.9
99452.6
99459.5
99463
99468.6
99465.9
99477.6
99486.1
99489.3
99492
99494.1
99496.7
99499.8
99502.5
99502.9
99505.1
99503.6
99501.3
99504.1
99509.8
99513.2
99517.7
99515.3
99518.7
99526.4
99528.5
99530.3
99536.8
99546.7
99549.9
99560.5
99568.5
99577.2
99588.4
99596.8
99607
99613.8
99626.1
99634
99637.5
99637.6
99644.4
99647
99645.9
99641.4
99638.9
99637.3
99628.6
99619.9
99611.1
99600.9
99590.2
99579
99567.8
99555.1
99541.5
99530.7
99521.3
99510.5
99501.5
99493
99486.6
99480.9
99479.7
99479.9
99481.7
99484
99490
99500.1
99507.5
99514.1
99522.5
99529.4
99532.8
99535.7
99539.7
99546.4
99557.7
99569
99579.5
99589.7
99598.8
99606.7
99613.4
99617.3
99619
99620.8
99625.9
99633.1
99641.8
99651
99660.3
99670.1
99679.2
99687.4
99683.4
99681.7
99682.7
99686.6
99690.1
99686.2
99679.4
99677.6
99682.5
99689.1
99695.7
99700.6
99705.2
99712.2
99722.3
99725.4
99719.6
99716.5
99716.2
99716.1
99713.7
99710.8
99708.2
99706.8
99712.6
99709.5
99711.1
99711
99711.4
99710.4
99714.8
99717.5
99719.3
99721.5
99723.5
99725.7
99727.7
99735.7
99744.9
99747.1
99752.3
99757.7
99756.1
99757.4
99764.5
99768.2
99775.1
99788.7
99792.9
99787.5
99782.8
99779.8
99782
99788.2
99790.8
99797.3
99805.1
99819
99831.4
99844.2
99863.7
99882.7
99900.5
99921
99942.2
99961.1
99980.7
100000
100019
100038
100055
100067
100077
100093
100110
100124
100138
100151
100163
100170
100179
100186
100192
100199
100205
100208
100211
100215
100218
100222
100224
100223
100221
100220
100221
100223
100225
100229
100234
100237
100239
100241
100247
100251
100255
100257
100261
100267
100274
100286
100293
100300
100306
100314
100322
100333
100341
100346
100351
100359
100366
100373
100380
100386
100393
100400
100407
100409
100414
100420
100425
100429
100433
100437
100440
100442
100443
100443
100442
100441
100439
100437
100435
100433
100432
100431
100430
100429
100430
100430
100430
100434
100438
100440
100448
100452
100461
100471
100481
100487
100497
100506
100514
100520
100528
100537
100548
100559
100571
100582
100594
100605
100616
100626
100637
100647
100655
100654
100656
100664
100668
100661
100655
100657
100657
100657
100657
100658
100654
100649
100642
100639
100634
100627
100624
100620
100614
100613
100611
100608
100605
100601
100595
100584
100583
100580
100576
100574
100570
100571
100569
100569
100572
100573
100576
100578
100585
100590
100596
100602
100607
100611
100618
100626
100634
100645
100658
100672
100684
100697
100712
100727
100741
100755
100771
100786
100803
100814
100823
100833
100844
100854
100865
100877
100889
100888
100884
100895
100903
100912
100920
100927
100936
100948
100956
100962
100966
100970
100974
100977
100982
100987
100995
101000
101007
101016
101022
101026
101027
101028
101032
101037
101042
101047
101052
101056
101061
101067
101071
101074
101077
101081
101084
101088
101090
101094
101097
101100
101103
101106
101108
101110
101112
101114
101116
101118
101119
101120
101121
101122
101122
101123
101124
101124
101125
101126
101125
101124
101120
101117
101115
101113
101111
101110
101109
101108
101106
101103
101100
101098
101096
101094
101092
101090
101088
101086
101082
101078
101075
101072
101070
101067
101066
101064
101062
101061
101060
101059
101058
101058
101059
101059
101060
101061
101062
101063
101065
101067
101070
101072
101075
101078
101082
101086
101090
101095
101099
101105
101110
101116
101122
101128
101134
101141
101148
101156
101163
101171
101179
101187
101196
101204
101213
101222
101231
101241
101250
101260
101269
101279
101289
101300
101309
101319
99400
99401.9
99398.5
99400.6
99401.3
99402.2
99403.5
99405.3
99407.3
99409.4
99411.1
99412.1
99409.3
99417
99422.1
99425.9
99429.7
99433.2
99435.3
99443.4
99447
99447.9
99454.4
99459.3
99463.7
99468
99465.8
99476.8
99485.1
99488.9
99493.1
99497.1
99499.9
99503
99506.9
99508.8
99509.9
99509.7
99508.7
99510.9
99509.6
99509.4
99510
99503
99505.1
99513.2
99516.4
99521.4
99530
99538.5
99549
99558.6
99568
99579.3
99589.9
99600.4
99611.3
99620.7
99629.7
99635.5
99637.5
99645.2
99648.1
99649.5
99649.7
99645.6
99642.2
99639.3
99631.4
99621.8
99612.1
99601.2
99589.3
99577.6
99566.3
99554.1
99538.1
99526.9
99517
99507
99500.7
99494.1
99489.1
99485.9
99482.2
99481.1
99480.8
99483.4
99489
99497.8
99506.5
99520.1
99535.9
99548.2
99559.1
99570.1
99580.7
99591.2
99599.7
99602.1
99604.3
99608.3
99613.3
99618.7
99623.6
99630.1
99634.3
99637.3
99640.5
99643.7
99645.9
99648.6
99647.1
99639.8
99641.4
99652.1
99663.2
99667.7
99673.3
99680.2
99690.4
99698.6
99700
99698.8
99697.9
99697.5
99698.1
99698.3
99696.1
99690.6
99690.8
99697.2
99701.5
99702.6
99704.4
99706.8
99707.4
99710.6
99711.7
99709.7
99709.6
99706.7
99706.7
99705.1
99705.5
99704.5
99706.6
99709
99712.5
99715.9
99717.3
99720.4
99720.6
99723.6
99715
99725.4
99730
99742.8
99752.7
99760.2
99769.8
99782.8
99775.9
99771
99770.9
99766.3
99769.7
99772.6
99776.2
99790.2
99799.6
99804.1
99804.2
99817.2
99828.3
99841
99853.3
99866.8
99884.3
99905.4
99925.8
99948.3
99972.1
99994.5
100016
100039
100061
100084
100097
100111
100125
100137
100150
100162
100170
100178
100183
100187
100190
100196
100200
100204
100210
100214
100214
100214
100215
100216
100217
100220
100224
100231
100238
100238
100234
100233
100235
100239
100244
100249
100256
100261
100266
100269
100277
100284
100290
100298
100306
100315
100321
100327
100335
100342
100350
100358
100365
100372
100381
100390
100397
100401
100403
100406
100416
100422
100427
100431
100436
100439
100442
100444
100442
100442
100440
100438
100437
100434
100432
100430
100429
100428
100426
100426
100425
100425
100428
100426
100436
100438
100447
100455
100467
100480
100492
100499
100508
100523
100536
100544
100553
100562
100571
100580
100588
100595
100602
100609
100615
100620
100621
100624
100633
100643
100646
100651
100656
100655
100653
100654
100654
100655
100651
100647
100644
100642
100637
100636
100633
100627
100630
100630
100626
100616
100607
100600
100594
100587
100581
100569
100569
100567
100563
100562
100564
100563
100564
100567
100567
100569
100572
100577
100583
100589
100596
100605
100612
100621
100631
100640
100650
100660
100671
100682
100691
100701
100713
100725
100736
100744
100749
100759
100774
100790
100803
100815
100827
100839
100851
100863
100879
100885
100889
100896
100904
100914
100925
100934
100936
100939
100947
100956
100962
100968
100973
100978
100983
100992
101003
101008
101006
101006
101009
101010
101013
101020
101024
101029
101038
101045
101052
101055
101054
101058
101063
101068
101071
101076
101080
101086
101088
101093
101096
101098
101103
101105
101108
101110
101113
101115
101117
101119
101120
101121
101122
101123
101123
101122
101122
101123
101124
101124
101124
101123
101121
101119
101118
101118
101117
101116
101115
101111
101106
101101
101098
101094
101091
101088
101086
101084
101083
101081
101079
101076
101073
101070
101068
101066
101065
101063
101062
101062
101061
101061
101061
101060
101059
101059
101060
101060
101062
101063
101064
101066
101069
101072
101075
101078
101082
101086
101090
101095
101099
101105
101110
101116
101122
101128
101134
101141
101148
101156
101163
101171
101179
101187
101196
101204
101213
101222
101231
101241
101250
101260
101269
101279
101289
101300
101309
101318
99400.4
99403
99398.9
99400.8
99401.6
99402.6
99404.1
99405.6
99407.3
99409.4
99411.5
99413.6
99411.7
99418.6
99422.1
99425.1
99428.2
99431
99433.6
99441.2
99445.4
99448.2
99455.6
99461.6
99466.8
99471.6
99470
99477.5
99485.8
99489.1
99492.7
99494.3
99496.3
99501.9
99506.2
99507.9
99508.2
99509.3
99510.6
99512.3
99511.6
99512.8
99514.4
99505.4
99506.8
99512.2
99512.7
99517
99523.6
99530.8
99540.3
99550.5
99559.9
99573.1
99586.1
99596.8
99609
99619.4
99628.7
99637.7
99640.6
99645.1
99647.1
99650.4
99651.7
99649.6
99646.7
99643.4
99635.6
99625.3
99614.7
99602.3
99587.8
99574.5
99560.9
99547.2
99533.2
99517.5
99508.1
99492.8
99482.6
99479.8
99473.8
99468.9
99467.2
99472.1
99476.8
99483.3
99488.9
99497.5
99504.6
99508.2
99511.4
99519.9
99532.1
99544.7
99557.5
99569.7
99582.9
99592.5
99600.4
99606.7
99611.5
99614.8
99617.8
99620.4
99626.2
99632.8
99638.5
99643.5
99647.5
99652.1
99657.4
99660.2
99660
99659.7
99662.1
99664
99663
99658.9
99659.2
99668.6
99674.3
99680.3
99684.8
99689
99693
99698.3
99703.5
99701.4
99698.6
99696.9
99696.6
99695
99694.3
99693
99688.1
99688.6
99692.5
99694.5
99695.9
99694
99697.9
99698.9
99699.2
99698.2
99699.4
99702.7
99704.6
99706.8
99706.5
99710.2
99713.8
99713.3
99716.7
99729
99741.8
99756.7
99770.2
99773.8
99765.7
99760.5
99759.3
99757.7
99764
99768.8
99771.8
99784.8
99787.7
99782.2
99783.9
99793.8
99795.5
99812.5
99824.6
99837.2
99854.2
99871.2
99888
99907.8
99925.9
99944.2
99964.4
99983.3
100000
100014
100033
100056
100076
100095
100112
100127
100143
100157
100167
100179
100188
100193
100196
100201
100205
100208
100205
100209
100211
100214
100217
100220
100225
100228
100224
100219
100218
100216
100217
100222
100225
100234
100245
100252
100253
100255
100261
100269
100275
100282
100289
100298
100300
100308
100317
100327
100335
100341
100353
100362
100369
100379
100384
100387
100394
100397
100403
100404
100418
100425
100429
100434
100438
100438
100437
100436
100434
100434
100435
100434
100433
100431
100429
100426
100424
100423
100422
100420
100419
100422
100422
100429
100428
100434
100438
100445
100459
100463
100474
100477
100483
100499
100510
100522
100535
100547
100559
100571
100582
100593
100602
100612
100622
100634
100638
100641
100644
100649
100652
100657
100656
100657
100657
100657
100656
100657
100651
100650
100650
100648
100644
100644
100646
100637
100624
100617
100615
100605
100594
100594
100590
100584
100584
100573
100575
100574
100566
100570
100564
100564
100565
100563
100568
100570
100572
100576
100580
100580
100586
100590
100598
100607
100617
100628
100640
100652
100666
100680
100692
100705
100720
100735
100752
100764
100771
100781
100791
100801
100811
100821
100831
100840
100850
100857
100867
100881
100886
100892
100898
100905
100916
100923
100932
100941
100948
100956
100963
100970
100975
100982
100985
100981
100986
100992
100993
100998
101006
101007
101011
101028
101035
101039
101037
101040
101043
101046
101053
101057
101063
101068
101074
101079
101084
101086
101088
101093
101095
101099
101102
101105
101108
101110
101112
101115
101117
101119
101120
101121
101122
101123
101124
101124
101125
101125
101124
101123
101121
101119
101118
101118
101117
101116
101115
101114
101114
101112
101107
101104
101102
101100
101097
101095
101092
101090
101087
101084
101080
101077
101074
101072
101069
101067
101065
101062
101061
101059
101059
101059
101058
101058
101059
101059
101060
101061
101062
101063
101066
101068
101070
101072
101075
101078
101082
101086
101090
101095
101100
101105
101110
101116
101122
101128
101135
101141
101148
101156
101163
101171
101179
101187
101196
101205
101213
101222
101232
101241
101250
101260
101270
101280
101289
101300
101309
101318
99399.7
99403.1
99398.3
99399.5
99400.4
99401.3
99402.4
99403.3
99404.6
99407.1
99409.8
99412.6
99412.2
99419
99422.1
99425.9
99430
99433.4
99436.1
99441.4
99445.3
99448.6
99454.9
99460.5
99466
99472.3
99471.7
99481.8
99490.1
99493.9
99496.9
99499.5
99502
99504.5
99504.9
99503.7
99502.3
99501.8
99501.7
99502.9
99500.8
99501.4
99503.8
99495.9
99498.8
99504.4
99505.1
99507.6
99514.9
99522.2
99532.2
99543.7
99553.7
99567.7
99583.1
99595.5
99608.3
99621.7
99631.8
99644.2
99650.5
99656.2
99660.2
99663.6
99664.2
99660.6
99655.3
99649
99639.9
99628.1
99615.9
99602.3
99585.7
99572.2
99558.4
99545.4
99526.6
99516.5
99502.3
99488.9
99492.1
99480.6
99476.9
99475
99463.7
99462.6
99467.1
99474
99483.4
99494.3
99512.5
99527.5
99538.2
99548
99558.4
99568.4
99577
99585.1
99590.3
99594.5
99600.7
99606.6
99611.2
99615
99618.5
99621.2
99623.5
99625
99626.5
99628
99628.4
99629.9
99634.9
99643.8
99649.5
99654
99658.8
99662.6
99668.3
99672.4
99673.5
99672.6
99673.2
99674.8
99675.8
99676.4
99676.9
99675.9
99679.3
99682.4
99685.3
99687.3
99688.9
99690
99692.3
99693.7
99690.6
99688.5
99686.7
99685.7
99684.9
99680.7
99682.2
99680.4
99682.7
99683.1
99684.6
99688.5
99690.6
99693.9
99695.9
99700.4
99703.3
99710.9
99722.2
99732.7
99739.7
99739.9
99738.8
99743.2
99742.4
99744.5
99754.5
99760.8
99767.8
99781
99780.8
99774.5
99774.3
99776.4
99781.5
99793.2
99805.8
99809.9
99826.2
99837
99852.1
99868.7
99889.8
99908.8
99929.7
99950.8
99973.2
99992.3
100014
100034
100049
100064
100080
100096
100109
100122
100136
100146
100152
100160
100172
100180
100184
100187
100194
100198
100201
100204
100206
100209
100210
100209
100207
100207
100208
100211
100216
100218
100222
100237
100242
100240
100240
100242
100243
100251
100258
100269
100279
100287
100290
100296
100302
100312
100321
100334
100342
100350
100357
100363
100363
100372
100379
100382
100391
100396
100404
100408
100421
100428
100433
100435
100434
100433
100434
100437
100438
100440
100441
100439
100436
100432
100428
100425
100423
100422
100420
100419
100419
100417
100421
100422
100428
100436
100442
100453
100458
100473
100486
100493
100498
100503
100509
100518
100529
100540
100550
100561
100570
100579
100586
100591
100598
100611
100623
100631
100637
100642
100648
100655
100657
100656
100656
100656
100656
100656
100654
100653
100652
100652
100645
100633
100626
100628
100619
100611
100612
100607
100594
100604
100604
100595
100582
100571
100568
100561
100564
100558
100563
100559
100561
100564
100566
100570
100571
100576
100579
100586
100592
100599
100606
100611
100620
100629
100639
100649
100660
100671
100680
100689
100697
100708
100725
100739
100753
100767
100780
100793
100805
100817
100828
100839
100853
100864
100873
100883
100889
100897
100903
100911
100919
100926
100933
100940
100946
100953
100958
100965
100968
100972
100974
100979
100988
100994
100998
101007
101022
101026
101019
101017
101024
101027
101026
101033
101041
101039
101052
101062
101067
101073
101070
101075
101079
101083
101085
101091
101095
101098
101102
101105
101107
101110
101113
101115
101116
101119
101120
101121
101122
101121
101122
101124
101124
101125
101125
101124
101124
101123
101122
101120
101118
101116
101114
101112
101109
101106
101104
101101
101098
101095
101093
101092
101089
101087
101085
101084
101081
101077
101073
101071
101070
101067
101066
101064
101063
101063
101062
101061
101061
101060
101059
101059
101059
101060
101061
101062
101064
101066
101069
101072
101075
101078
101082
101086
101090
101095
101100
101105
101110
101116
101122
101128
101135
101141
101148
101156
101163
101171
101179
101187
101196
101205
101213
101222
101232
101241