/*--------------------------------*- C++ -*----------------------------------*\
| =========                 |                                                 |
| \\      /  F ield         | OpenFOAM: The Open Source CFD Toolbox           |
|  \\    /   O peration     | Version:  v1812                                 |
|   \\  /    A nd           | Web:      www.OpenFOAM.com                      |
|    \\/     M anipulation  |                                                 |
\*---------------------------------------------------------------------------*/
FoamFile
{
    version     2.0;
    format      ascii;
    class       surfaceScalarField;
    location    "1.2";
    object      phi;
}
// * * * * * * * * * * * * * * * * * * * * * * * * * * * * * * * * * * * * * //

dimensions      [1 0 -1 0 0 0 0];
oriented        oriented;


internalField   nonuniform List<scalar> 
40240
(
-0.00030655
3.63161e-05
-0.000607422
3.08312e-05
-0.000963656
8.69639e-05
-0.00132715
9.43079e-05
-0.00170608
0.000110347
-0.00209131
0.000117466
-0.00247461
0.000116651
-0.00284961
0.000109853
-0.0032167
0.000103642
-0.0035762
9.79093e-05
-0.00390282
6.66894e-05
-0.00416312
2.78798e-06
-0.00429766
-0.000121234
-0.0044043
-0.000146877
-0.00470384
4.8627e-05
-0.0050604
0.000108842
-0.00525024
-5.58282e-05
-0.00540128
-9.17305e-05
-0.00549894
-0.000142227
-0.00574359
7.71014e-06
-0.00606112
8.37914e-05
-0.00620781
-8.4334e-05
-0.00623553
-0.000199548
-0.00624512
-0.000215416
-0.00626666
-0.000202786
-0.00630589
-0.00018334
-0.00638539
-0.000139961
-0.0066709
7.16503e-05
-0.00692242
4.09591e-05
-0.00721455
8.13681e-05
-0.00752027
9.59654e-05
-0.00783678
0.00010824
-0.00820353
0.000161982
-0.00868067
0.000276446
-0.00926855
0.000389027
-0.009833
0.000370154
-0.010061
3.10791e-05
-0.0102872
3.61904e-05
-0.0106544
0.000177476
-0.0111118
0.000270381
-0.0116264
0.000331095
-0.0120563
0.000247388
-0.0123963
0.000160281
-0.0128646
0.000293153
-0.0135231
0.000482786
-0.014148
0.000450252
-0.0147646
0.00044435
-0.0154508
0.000516164
-0.016146
0.000527353
-0.0165407
0.00022588
-0.0164424
-0.000260863
-0.0160335
-0.000570816
-0.0155234
-0.000669793
-0.0150366
-0.000644442
-0.0146128
-0.000582998
-0.014293
-0.000475035
-0.0141853
-0.000263353
-0.0138331
-0.000526391
-0.0136939
-0.000260827
-0.0134072
-0.000452658
-0.0130724
-0.000511012
-0.0127922
-0.000434862
-0.0126273
-0.000323904
-0.0125616
-0.000216723
-0.0125643
-0.000148301
-0.0127327
1.11274e-06
-0.0126935
-0.000182897
-0.0124782
-0.000354463
-0.0124167
-0.000197252
-0.0125426
-7.18082e-06
-0.0129199
0.000247101
-0.0135057
0.000458798
-0.0142681
0.000639255
-0.0151391
0.000751773
-0.0160627
0.000806845
-0.0170475
0.000869075
-0.0181022
0.000938555
-0.0191767
0.000957284
-0.0202725
0.000978266
-0.0213651
0.000977385
-0.0224039
0.000930474
-0.0234265
0.000918765
-0.0244561
0.000930885
-0.0254609
0.000902211
-0.0263789
0.000821938
-0.0271661
0.000695263
-0.0278396
0.000582309
-0.0283689
0.000430536
-0.0287478
0.000302715
-0.0289863
0.000166485
-0.0290583
-1.67597e-05
-0.0289692
-0.000204031
-0.0288718
-0.000204933
-0.0288599
-8.88867e-05
-0.0289156
-7.46714e-06
-0.0290392
6.34906e-05
-0.0291215
1.82645e-05
-0.0291028
-8.1213e-05
-0.0287305
-0.000428805
-0.0281443
-0.000641152
-0.0276053
-0.000590007
-0.027135
-0.000519157
-0.0267108
-0.00047008
-0.026308
-0.000444971
-0.025898
-0.000448636
-0.0254575
-0.000475488
-0.0249549
-0.000534445
-0.0243793
-0.000604349
-0.0237461
-0.000659274
-0.0230669
-0.000701303
-0.022345
-0.000741156
-0.0215569
-0.000801438
-0.0206958
-0.000873153
-0.0197325
-0.000965725
-0.0186482
-0.00111118
-0.0175052
-0.00112807
-0.0166403
-0.000870216
-0.0160545
-0.00058383
-0.0152331
-0.000819636
-0.0143944
-0.000835165
-0.0133878
-0.000987102
-0.0124952
-0.00101557
-0.0108983
-0.00132138
-0.00995395
-0.0012767
-0.00845283
-0.00152716
-0.00733659
-0.00137101
-0.00601211
-0.00109447
-0.00459629
-0.00109722
-0.003437
-0.00108328
-0.00230978
-0.00112311
-0.00117194
-0.00112803
-2.33256e-05
-0.00112573
0.00109069
-0.00108337
0.0021002
-0.000982911
0.00298369
-0.000857318
0.00375613
-0.00074518
0.004389
-0.000605071
0.00491515
-0.000498408
0.00540777
-0.000466324
0.00567174
-0.000241302
0.00595118
-0.000255713
0.00599114
-1.59225e-05
0.00596916
4.4957e-05
0.00582769
0.00016331
0.00555071
0.000296085
0.00519241
0.000376946
0.00481686
0.000391101
0.00446222
0.00036869
0.00410051
0.000372422
0.00369874
0.000408917
0.00321237
0.000489427
0.00263573
0.000575898
0.00203533
0.000597496
0.00153668
0.000491013
0.00129265
0.000234079
0.00126979
8.48321e-06
0.00132947
-7.1585e-05
0.00118355
0.000126273
0.000852319
0.000308454
0.000419163
0.000409041
-9.52416e-05
0.00048611
-0.00066402
0.000537698
-0.00123204
0.000534514
-0.00185677
0.000588397
-0.00260179
0.000704644
-0.00351111
0.000865396
-0.00459069
0.00103238
-0.00575044
0.00111162
-0.00680277
0.000997819
-0.00778611
0.000927475
-0.00877534
0.000931471
-0.00975231
0.000913941
-0.0106406
0.000824497
-0.0114084
0.000700843
-0.0120792
0.000602132
-0.0126629
0.000510671
-0.0130812
0.000345081
-0.013348
0.000191888
-0.0134363
8.86405e-06
-0.0133625
-0.000153577
-0.0130598
-0.000387591
-0.0126248
-0.000520341
-0.0120976
-0.000614688
-0.0115151
-0.000671998
-0.0109122
-0.00069434
-0.010306
-0.000700053
-0.00973028
-0.000672337
-0.00912363
-0.000705385
-0.00845978
-0.000765359
-0.00772228
-0.000841036
-0.00694567
-0.000881082
-0.00623302
-0.000817854
-0.00559871
-0.000740488
-0.00505739
-0.000647322
-0.00464506
-0.000520937
-0.00433116
-0.000424671
-0.00421439
-0.000231831
-0.00419406
-0.000137261
-0.00426391
-4.36572e-05
-0.00434522
-3.17238e-05
-0.00440308
-5.51456e-05
-0.00449698
-1.78336e-05
-0.00462841
1.93297e-05
-0.00485224
0.000112027
-0.00515469
0.000191446
-0.00551612
0.000251787
-0.00591844
0.000294855
-0.00634883
0.000325607
-0.0067918
0.000341088
-0.00723579
0.000344728
-0.00767246
0.000339907
-0.00811077
0.000343269
-0.00855921
0.000354994
-0.00901892
0.000368092
-0.00949666
0.000389931
-0.00998144
0.000406886
-0.0104527
0.000403986
-0.0109063
0.000377601
-0.0113279
0.000348193
-0.0117611
0.000321768
-0.0122279
0.000242886
-0.0125017
0.000270643
-0.012756
0.000180972
-0.0129197
0.00026026
-0.013084
0.000173619
-0.0132366
0.000127839
-0.013354
4.85443e-05
-0.0134065
1.98009e-05
-0.0134109
-2.70682e-05
-0.0133735
-6.10875e-05
-0.0132659
-0.000130531
-0.0131256
-0.000159826
-0.0129864
-0.000155466
-0.0128654
-0.000134708
-0.0127566
-0.000119131
-0.0126334
-0.000130277
-0.012489
-0.000147447
-0.0123131
-0.000175416
-0.0120781
-0.000230758
-0.0117815
-0.000288707
-0.011446
-0.000323994
-0.0110843
-0.00034676
-0.0107098
-0.000356425
-0.01034
-0.000348724
-0.00993479
-0.000381051
-0.00950754
-0.000400353
-0.00907461
-0.000401854
-0.0086745
-0.000365934
-0.00834345
-0.000298555
-0.00809202
-0.000211765
-0.00794585
-0.000101726
-0.00788089
-2.24382e-05
-0.00786184
2.30008e-05
-0.00790472
9.82968e-05
-0.00808879
0.000228311
-0.00838961
0.00035554
-0.00879193
0.000454755
-0.00926654
0.00052904
-0.00980559
0.000596154
-0.0104151
0.000666309
-0.0110848
0.000728943
-0.0118188
0.000793171
-0.0125934
0.000835021
-0.0133703
0.000837643
-0.0141087
0.000799628
-0.0147775
0.000730392
-0.0153927
0.000677071
-0.0159753
0.00064406
-0.0164955
0.000580935
-0.0169145
0.000478754
-0.0172065
0.000351459
-0.0174659
0.000318105
-0.0175766
0.000168747
-0.0175846
6.52112e-05
-0.0175888
6.13277e-05
-0.0175965
6.34959e-05
-0.0175066
-3.61851e-05
-0.0172898
-0.000165298
-0.0169607
-0.000279569
-0.0165093
-0.000404034
-0.0159749
-0.000489026
-0.0153927
-0.000538594
-0.0147566
-0.000594464
-0.0141001
-0.000615809
-0.0134441
-0.000616526
-0.0127926
-0.000613475
-0.0121502
-0.000607389
-0.0115216
-0.00059805
-0.0109145
-0.000581323
-0.0103316
-0.000561421
-0.00976909
-0.000540519
-0.00921353
-0.000545683
-0.00869097
-0.000511115
-0.0080549
-0.000627934
-0.00737667
-0.000672543
-0.00668959
-0.000684465
-0.0060789
-0.000611137
-0.00554915
-0.000534674
-0.00507896
-0.000478515
-0.00465004
-0.000440904
-0.00425048
-0.000415211
-0.00387726
-0.000392683
-0.00352909
-0.000371175
-0.00323035
-0.000325972
-0.00301906
-0.000242435
-0.00292149
-0.000132022
-0.00290673
-5.18634e-05
-0.00287779
-6.82362e-05
-0.00287471
-4.68743e-05
-0.0028992
-2.14589e-05
-0.00290238
-4.74845e-05
-0.00294245
-1.30143e-05
-0.00307056
7.21929e-05
-0.00325854
0.000129551
-0.00350374
0.00018483
-0.00382305
0.000256782
-0.00418637
0.000298444
-0.00460705
0.000353359
-0.00515053
0.000473668
-0.00585071
0.000628877
-0.00649471
0.000569695
-0.0070559
0.000486079
-0.00756197
0.000429576
-0.00805862
0.000419144
-0.00852527
0.000387836
-0.00898609
0.00038101
-0.00946043
0.000393608
-0.00991485
0.000372505
-0.0103625
0.000365656
-0.010799
0.000354766
-0.0112068
0.000323112
-0.0115698
0.000285319
-0.0118239
0.000163922
-0.0119356
2.43757e-05
-0.0121598
0.000186083
-0.0124217
0.000175616
-0.0126331
0.000127425
-0.012754
2.88557e-05
-0.0127859
-2.67958e-05
-0.0127874
-5.10842e-05
-0.0127311
-0.000139416
-0.0126254
-0.000203016
-0.0124952
-0.000234002
-0.0123209
-0.000211257
-0.0120828
-0.00025606
-0.0118186
-0.000322464
-0.0115669
-0.000323346
-0.011279
-0.000356491
-0.0109493
-0.00039185
-0.0105707
-0.000434046
-0.0101767
-0.000448518
-0.00981462
-0.000416032
-0.00948068
-0.000386519
-0.00910364
-0.000426796
-0.00867207
-0.00047835
-0.00824901
-0.000466497
-0.00787507
-0.000413222
-0.00754611
-0.000363679
-0.00722686
-0.000349567
-0.00691306
-0.000340002
-0.00659061
-0.000345596
-0.00626395
-0.00034883
-0.0060496
-0.000235558
-0.00594287
-0.000127103
-0.00588879
-7.30229e-05
-0.00584677
-5.86916e-05
-0.00579902
-6.07967e-05
-0.00574828
-5.9702e-05
-0.00570435
-4.79935e-05
-0.00564434
-6.07877e-05
-0.00560585
-3.61871e-05
-0.0055806
-2.10971e-05
-0.00556733
-7.27105e-06
-0.00558432
2.44034e-05
-0.00564173
6.44466e-05
-0.0057704
0.000146367
-0.00600734
0.000244277
-0.00616254
0.000167521
-0.0062928
0.000150383
-0.00643295
0.000165347
-0.0065782
0.000178462
-0.00676763
0.000226986
-0.0069943
0.000267586
-0.00722526
0.000271809
-0.0074422
0.000255294
-0.00764659
0.000239438
-0.00781425
0.000202256
-0.00795287
0.000175874
-0.00807667
0.00016527
-0.00821864
0.000187528
-0.00838534
0.000215118
-0.00857034
0.000235508
-0.00875486
0.000235845
-0.00890196
0.000199394
-0.00903527
0.000186798
-0.00915275
0.000171534
-0.00926604
0.000168314
-0.0093573
0.000146637
-0.00943639
0.00013468
-0.00949824
0.000117145
-0.00955356
0.000110816
-0.00960081
0.000102338
-0.00963711
9.07108e-05
-0.00964763
6.53241e-05
-0.00962997
3.7191e-05
-0.0096032
2.56857e-05
-0.00956432
1.29298e-05
-0.00952183
-3.20568e-08
-0.00946885
6.04739e-06
-0.00941296
-5.03339e-06
-0.00934966
-1.42845e-05
-0.00928265
-1.82935e-05
-0.00921483
-2.16575e-05
-0.00914484
-2.62038e-05
-0.00907389
-2.92633e-05
-0.00900265
-3.15684e-05
-0.00892586
-3.84155e-05
-0.0088379
-4.9824e-05
-0.00873251
-6.83932e-05
-0.00861146
-8.73226e-05
-0.00848428
-9.78068e-05
-0.00834452
-0.000121053
-0.00823214
-8.79502e-05
-0.00810668
-0.000102323
-0.00797837
-0.000107509
-0.0078571
-0.000104017
-0.0077345
-0.000108483
-0.00760559
-0.000117585
-0.00747204
-0.000124838
-0.00733556
-0.000130581
-0.00720106
-0.000131653
-0.00707561
-0.000125436
-0.0069801
-9.85556e-05
-0.00690511
-8.08909e-05
-0.00684146
-7.24093e-05
-0.00678317
-6.99004e-05
-0.0067252
-7.24115e-05
-0.00666394
-7.85065e-05
-0.00660067
-8.32577e-05
-0.00653194
-9.14818e-05
-0.00645239
-0.000104993
-0.00636625
-0.000114249
-0.00630405
-9.30253e-05
-0.00628511
-5.22324e-05
-0.00628755
-3.32519e-05
-0.00630315
-2.25678e-05
-0.00632769
-1.59932e-05
-0.00635476
-1.56564e-05
-0.00637972
-1.99214e-05
-0.00640129
-2.51885e-05
-0.00642103
-2.88405e-05
-0.00644239
-2.88337e-05
-0.00646663
-2.76449e-05
-0.0064917
-2.82849e-05
-0.00651695
-2.95329e-05
-0.00654649
-2.64094e-05
-0.00658562
-1.802e-05
-0.00663052
-1.34169e-05
-0.00668149
-7.99162e-06
-0.00673563
-5.66902e-06
-0.00679233
-3.78565e-06
-0.00684955
-3.77161e-06
-0.00690553
-5.3939e-06
-0.00696079
-6.30037e-06
-0.00701825
-4.14251e-06
-0.00707862
-1.11604e-06
-0.00714089
9.89875e-07
-0.00720472
2.86281e-06
-0.007269
3.77844e-06
-0.00733309
4.15914e-06
-0.00739694
4.63711e-06
-0.00746097
5.64185e-06
-0.0075249
6.45877e-06
-0.00758837
7.01746e-06
-0.00765102
7.34087e-06
-0.00771254
7.4354e-06
-0.00777265
7.46047e-06
-0.00783117
7.44653e-06
-0.00788796
7.20009e-06
-0.00794265
6.83591e-06
-0.00799576
7.01623e-06
-0.00804699
7.07134e-06
-0.00809611
6.86969e-06
-0.00814304
6.60644e-06
-0.00818759
6.32327e-06
-0.00822967
5.86769e-06
-0.0082685
4.88568e-06
-0.00830345
3.10303e-06
-0.00833347
4.97469e-07
-0.00835752
-3.12937e-06
-0.00837373
-8.6071e-06
-0.00837887
-1.73333e-05
-0.0083763
-2.23637e-05
-0.00834793
-4.58728e-05
-0.00828498
-7.78015e-05
-0.00818769
-0.000109438
-0.00806949
-0.000127612
-0.0079503
-0.000126076
-0.00786613
-8.82868e-05
-2.72266e-05
-0.000372305
0.000137551
-0.000826399
0.000214052
-0.00136864
0.000358676
-0.00192736
0.000382676
-0.00247813
0.000391834
-0.0030158
0.000387161
-0.00354235
0.00037659
-0.00405853
0.000361025
-0.00456873
0.000350565
-0.00506792
0.000335643
-0.00552673
0.000265667
-0.00588004
9.81764e-05
-0.00611006
-0.000147251
-0.00655621
4.59984e-05
-0.00701565
0.000257329
-0.00744135
0.000286688
-0.00797575
0.000232243
-0.00845508
0.000144474
-0.00868896
-0.000149686
-0.00889972
-1.76586e-05
-0.009052
2.03614e-06
-0.00926181
-0.000105219
-0.0095146
-0.000173517
-0.0100353
8.0554e-05
-0.0104793
1.70617e-05
-0.0106625
-0.000225328
-0.0107391
-0.00028321
-0.0111119
0.000231596
-0.0117598
0.000478712
-0.0124054
0.00051751
-0.0130131
0.000494813
-0.0135536
0.000442262
-0.0140529
0.000457996
-0.0145729
0.000596564
-0.0151409
0.000759989
-0.015756
0.000793179
-0.0167004
0.000784583
-0.0176734
0.000820539
-0.0187488
0.00106595
-0.0199687
0.00130462
-0.0213414
0.00152038
-0.0227781
0.0015018
-0.0240851
0.00128863
-0.0250044
0.00103353
-0.0253149
0.000616422
-0.0253411
0.000301928
-0.0253887
0.00032038
-0.0255601
0.000517672
-0.0256707
0.000469297
-0.0258498
0.000241435
-0.0259304
-0.000342934
-0.0258689
-0.00079387
-0.0256382
-0.00106049
-0.0251781
-0.00126399
-0.0245396
-0.00137966
-0.0238083
-0.00136468
-0.0230972
-0.00112958
-0.0228554
-0.000922501
-0.0232563
-4.08015e-05
-0.0238319
-3.08792e-05
-0.0242202
-0.000287795
-0.0244002
-0.000414028
-0.0243926
-0.000492892
-0.0242887
-0.00047135
-0.0242557
-0.000327656
-0.0243775
1.49145e-06
-0.0248509
0.000151038
-0.0257645
0.000423678
-0.0268554
0.000762192
-0.028123
0.00113116
-0.0295555
0.00155279
-0.0311941
0.00197267
-0.0330226
0.0023454
-0.0349779
0.0025869
-0.0369731
0.00268277
-0.0389534
0.00272971
-0.0408511
0.0027151
-0.0425729
0.00255569
-0.0441365
0.00242526
-0.0455705
0.00230027
-0.046887
0.00212969
-0.0481495
0.0020709
-0.0494109
0.00206619
-0.0506281
0.00199098
-0.0517145
0.00178957
-0.0526762
0.00154405
-0.0535785
0.00138749
-0.0543187
0.00109373
-0.0548842
0.000734028
-0.0552974
0.000463013
-0.0554324
7.90822e-05
-0.0553797
-0.000342363
-0.0549158
-0.000702943
-0.0540421
-0.00104976
-0.0528972
-0.00124191
-0.0516858
-0.00122252
-0.0505264
-0.0012036
-0.0495087
-0.00115948
-0.0485932
-0.00140796
-0.0476706
-0.00162288
-0.0466545
-0.00165924
-0.045552
-0.00167155
-0.0443829
-0.00168621
-0.0431636
-0.00170807
-0.0419004
-0.00175194
-0.0405999
-0.00181269
-0.0392533
-0.00191424
-0.0378579
-0.00203061
-0.0364267
-0.00211824
-0.0349788
-0.00217607
-0.0335293
-0.00220812
-0.032083
-0.00226978
-0.0306318
-0.00232945
-0.0291928
-0.0024344
-0.0276046
-0.00268466
-0.0257669
-0.00305633
-0.0235441
-0.00307822
-0.0210933
-0.0030188
-0.0185469
-0.00336794
-0.0161191
-0.00325704
-0.0141785
-0.00292813
-0.0124812
-0.00256411
-0.0114618
-0.00262624
-0.00988842
-0.0024324
-0.0088242
-0.0025307
-0.00736718
-0.00258033
-0.00598217
-0.0026724
-0.00427889
-0.00301358
-0.00196119
-0.0034168
0.000578675
-0.00360637
0.0029741
-0.0034979
0.00521012
-0.00334561
0.00743067
-0.0032892
0.00957051
-0.0031041
0.0115097
-0.00277621
0.0132399
-0.00245526
0.0147546
-0.00209872
0.0160891
-0.00181165
0.0172575
-0.00161291
0.0182308
-0.00119356
0.0187744
-0.000780206
0.0189674
-0.000188692
0.0189552
7.74462e-05
0.0187749
0.000362731
0.0184005
0.000686809
0.0178175
0.000976669
0.017076
0.00114684
0.0162202
0.00123833
0.0152418
0.00136242
0.0141188
0.00154122
0.0128205
0.00179351
0.0113446
0.00205304
0.00970522
0.0022349
0.00791334
0.00227704
0.00598801
0.00215026
0.00398903
0.00200237
0.00215975
0.00174074
0.000966254
0.00130093
0.0003473
0.000905784
-0.000328454
0.00106079
-0.00111066
0.00124132
-0.00197051
0.00136785
-0.0028715
0.00140282
-0.00381037
0.00149144
-0.00477764
0.00163308
-0.00576454
0.00181085
-0.00675703
0.00197951
-0.00775668
0.00205831
-0.00893217
0.00212362
-0.010143
0.00207719
-0.0111182
0.00184034
-0.0119595
0.00169055
-0.0126565
0.00145351
-0.0132468
0.00122024
-0.0137319
0.00101371
-0.0141122
0.000814787
-0.0143654
0.000518897
-0.0144935
0.000238419
-0.0144957
-7.09866e-05
-0.0143379
-0.000396278
-0.0140544
-0.000757721
-0.013639
-0.00102319
-0.0131092
-0.0012332
-0.0124816
-0.00138905
-0.0117819
-0.00148428
-0.0110327
-0.0015403
-0.0102732
-0.00152461
-0.00950703
-0.00156589
-0.00874329
-0.00162521
-0.00798213
-0.00169961
-0.00723736
-0.00172434
-0.00654313
-0.00161249
-0.0059217
-0.00146454
-0.00541003
-0.00126314
-0.00503326
-0.00100496
-0.00481781
-0.000749472
-0.00474922
-0.000409785
-0.00478764
-0.000204411
-0.00493679
1.53777e-06
-0.00518821
0.000116647
-0.00552284
0.000175326
-0.00592491
0.000278365
-0.00638843
0.000374935
-0.00691758
0.000532271
-0.00750061
0.000665932
-0.00812882
0.000772673
-0.00879392
0.000854788
-0.00948996
0.00091895
-0.0102094
0.00096039
-0.0109451
0.000982529
-0.0116887
0.000988027
-0.0124372
0.000998215
-0.0131871
0.00101334
-0.0139307
0.0010229
-0.0146647
0.0010376
-0.0153787
0.00104023
-0.0160583
0.00100751
-0.0166643
0.000934912
-0.0171892
0.000802699
-0.0176392
0.000694624
-0.0181583
0.000885308
-0.0190022
0.000520564
-0.0194116
0.000619149
-0.0198546
0.000459696
-0.020143
0.000715668
-0.0205396
0.000443332
-0.0208506
0.000381531
-0.0211451
0.000272711
-0.0213687
0.000159573
-0.0214825
2.34204e-05
-0.021513
-0.000123439
-0.0215014
-0.000190586
-0.0214597
-0.000212004
-0.0213978
-0.000207845
-0.0213083
-0.000217887
-0.0211793
-0.000266173
-0.0210234
-0.000306948
-0.0208368
-0.000362554
-0.0206028
-0.000461717
-0.0203383
-0.000546891
-0.0200753
-0.000577468
-0.0198149
-0.00059481
-0.0195611
-0.000594293
-0.0193121
-0.000577998
-0.0190329
-0.00063828
-0.0187797
-0.000627242
-0.0185571
-0.000596707
-0.0183793
-0.00051306
-0.0182691
-0.000370297
-0.0182419
-0.000202275
-0.018321
1.18729e-05
-0.018467
0.000180067
-0.018788
0.000383884
-0.0192795
0.000632578
-0.0199293
0.000932113
-0.0207033
0.00117554
-0.0215987
0.00140631
-0.0226001
0.00158209
-0.0236758
0.00172899
-0.0248117
0.00185743
-0.0259726
0.00194783
-0.0271571
0.00203598
-0.0283434
0.00208077
-0.0295082
0.00206233
-0.0306166
0.00196814
-0.031627
0.00180154
-0.0324995
0.00161006
-0.0331911
0.00139653
-0.0336632
0.00111258
-0.0339428
0.000817778
-0.0338996
0.000368201
-0.0334896
-3.38761e-05
-0.0328182
-0.000445524
-0.031962
-0.00073493
-0.0310613
-0.000784283
-0.030208
-0.00073618
-0.0293368
-0.00085583
-0.0284555
-0.000997588
-0.027556
-0.00113224
-0.0265929
-0.00132271
-0.0255839
-0.00145593
-0.0245696
-0.00151271
-0.023561
-0.00156473
-0.0225555
-0.00158476
-0.02154
-0.00159691
-0.0205184
-0.00160209
-0.0195
-0.001596
-0.0184933
-0.00157903
-0.0175045
-0.00154826
-0.0165294
-0.00151781
-0.0155854
-0.00147038
-0.0150682
-0.00105864
-0.0146329
-0.000936457
-0.014122
-0.0011308
-0.0135684
-0.00122153
-0.012983
-0.00126834
-0.0124033
-0.001192
-0.0118453
-0.00109738
-0.0113194
-0.00101277
-0.010831
-0.000941229
-0.0103824
-0.000878985
-0.00997593
-0.00081783
-0.0096094
-0.000759524
-0.00928496
-0.000676688
-0.00901945
-0.000537843
-0.00883452
-0.000350887
-0.00886833
-5.51235e-05
-0.00893618
-3.88156e-05
-0.00907735
5.10543e-05
-0.00932897
0.000183414
-0.00961816
0.000191571
-0.00995357
0.000268615
-0.0103601
0.00042218
-0.0108191
0.000529408
-0.0113401
0.000644509
-0.011945
0.000798067
-0.0126112
0.00089839
-0.0133427
0.00101604
-0.0141765
0.00123606
-0.0151529
0.00153255
-0.0161519
0.00149353
-0.0170792
0.00133698
-0.0179327
0.00120568
-0.0187028
0.0011111
-0.0193663
0.000972782
-0.0199625
0.0008984
-0.0204627
0.000813766
-0.0208636
0.000693154
-0.0211995
0.000620039
-0.0214689
0.000540423
-0.0216727
0.000445505
-0.0218251
0.000348328
-0.0218759
0.000126187
-0.021868
-6.48528e-05
-0.0217891
-8.35399e-05
-0.0215969
-0.000116602
-0.0212626
-0.000223249
-0.0209104
-0.000438018
-0.0205267
-0.000566064
-0.0201244
-0.000507718
-0.0195579
-0.000614547
-0.0189679
-0.000853245
-0.0184
-0.000950641
-0.0178457
-0.000972464
-0.0172889
-0.000812492
-0.0169311
-0.000708493
-0.0166184
-0.000687865
-0.0162657
-0.000785771
-0.0158475
-0.000876583
-0.0153741
-0.000964638
-0.0148693
-0.00100805
-0.0143597
-0.000980137
-0.0138615
-0.000937454
-0.013358
-0.000979912
-0.0128497
-0.00103303
-0.0123542
-0.00100462
-0.0118874
-0.000918533
-0.0114567
-0.000828253
-0.0110585
-0.000777048
-0.0107029
-0.000720825
-0.0103839
-0.000686587
-0.0100991
-0.00065407
-0.0098779
-0.000476141
-0.00972459
-0.000299227
-0.00962914
-0.000185967
-0.00957717
-0.000125767
-0.0095592
-8.99743e-05
-0.00956326
-6.36767e-05
-0.00959472
-1.86313e-05
-0.00963507
-1.92365e-05
-0.00969714
3.03543e-05
-0.00977143
6.18795e-05
-0.00984733
7.77926e-05
-0.0099104
0.000102885
-0.00994828
0.000121217
-0.00999328
0.000202562
-0.0102906
0.00053577
-0.0106923
0.000590789
-0.0111508
0.000623406
-0.0116178
0.000666139
-0.0120974
0.000691048
-0.0125845
0.000753898
-0.0130756
0.000801251
-0.0135633
0.000802179
-0.0140436
0.000776875
-0.0145226
0.000757111
-0.0149822
0.000697741
-0.0154204
0.000651321
-0.0158334
0.000620209
-0.0162306
0.000631228
-0.0166095
0.000641942
-0.0169704
0.000646459
-0.01731
0.000626229
-0.0176075
0.000549867
-0.0178855
0.000516708
-0.0181355
0.000474703
-0.0183704
0.000457819
-0.018572
0.000401525
-0.0187502
0.00036711
-0.0188955
0.000317913
-0.0190177
0.000287922
-0.0191043
0.000242592
-0.0191491
0.000192545
-0.0191536
0.000124561
-0.0191346
7.33495e-05
-0.0190758
2.33817e-05
-0.0189994
-3.01961e-05
-0.0188778
-6.38633e-05
-0.0187389
-0.000100499
-0.0185587
-0.000127063
-0.0183673
-0.000153921
-0.0181667
-0.000172816
-0.0179559
-0.000187206
-0.0177352
-0.000203055
-0.0175082
-0.000214578
-0.0172784
-0.000222198
-0.0170425
-0.000235954
-0.016799
-0.000255438
-0.0165444
-0.000286273
-0.0162798
-0.00031732
-0.0160251
-0.000322818
-0.0159522
-0.000213924
-0.0158948
-0.000123464
-0.0157845
-0.000191535
-0.0156343
-0.000239585
-0.0154619
-0.000261507
-0.0152754
-0.000282207
-0.0150818
-0.000300144
-0.0148874
-0.000310344
-0.0146953
-0.000316466
-0.0145079
-0.00031584
-0.014327
-0.000305983
-0.0141592
-0.000268949
-0.0140025
-0.000243063
-0.013856
-0.00022726
-0.0137188
-0.0002183
-0.0135898
-0.000215471
-0.0134679
-0.000217312
-0.013354
-0.000216817
-0.0132471
-0.000220774
-0.0131455
-0.000231717
-0.0130493
-0.000238255
-0.0129644
-0.00020839
-0.0128955
-0.00015406
-0.0128424
-0.000121877
-0.0128019
-0.000100914
-0.012772
-8.61961e-05
-0.0127509
-7.93705e-05
-0.0127369
-7.85895e-05
-0.0127292
-7.97451e-05
-0.0127276
-7.88508e-05
-0.01273
-7.62262e-05
-0.0127385
-7.11059e-05
-0.0127518
-6.81318e-05
-0.0127693
-6.68299e-05
-0.0127912
-6.02436e-05
-0.0128198
-4.66496e-05
-0.0128532
-3.82507e-05
-0.012891
-2.91493e-05
-0.0129326
-2.38388e-05
-0.0129779
-1.89624e-05
-0.0130262
-1.63763e-05
-0.0130768
-1.61248e-05
-0.0131291
-1.55153e-05
-0.0131836
-1.12546e-05
-0.01324
-6.23556e-06
-0.0132977
-2.52721e-06
-0.0133565
6.94364e-07
-0.0134157
2.53079e-06
-0.0134749
3.53831e-06
-0.0135339
4.4147e-06
-0.0135924
5.78582e-06
-0.01365
6.63057e-06
-0.0137063
6.91912e-06
-0.0137609
6.62273e-06
-0.0138133
5.78338e-06
-0.013863
4.56293e-06
-0.0139098
2.97112e-06
-0.0139531
8.99463e-07
-0.0139927
-1.51181e-06
-0.014028
-3.90129e-06
-0.0140584
-6.73302e-06
-0.0140836
-1.02411e-05
-0.0141031
-1.41752e-05
-0.0141164
-1.85144e-05
-0.014123
-2.37021e-05
-0.014123
-2.86005e-05
-0.0141159
-3.58703e-05
-0.0141002
-4.46622e-05
-0.0140751
-5.52591e-05
-0.0140408
-6.76051e-05
-0.0139968
-8.35995e-05
-0.0139408
-9.82154e-05
-0.0138737
-0.000130221
-0.0137959
-0.000170241
-0.0137074
-0.000209882
-0.0136096
-0.000234696
-0.0135024
-0.000239589
-0.0133935
-0.000201042
-9.77262e-05
-0.000417461
0.000284457
-0.000877333
0.000403511
-0.00140097
0.000612732
-0.00195607
0.000668014
-0.00252534
0.000691898
-0.00309918
0.000692762
-0.00367075
0.000681198
-0.00423711
0.000661957
-0.00479876
0.000648555
-0.00536115
0.000636472
-0.00590613
0.000550781
-0.00640377
0.000338204
-0.00687641
6.98445e-05
-0.00733304
0.000250259
-0.00775723
0.000431491
-0.00818894
0.000470914
-0.00869326
0.000491822
-0.00917918
0.000388455
-0.00962973
6.14041e-05
-0.00996751
8.41156e-05
-0.0101524
-4.67394e-05
-0.0102314
-0.000257229
-0.0106854
5.33311e-05
-0.0112472
0.000416769
-0.0118887
0.000435305
-0.0125138
0.000179062
-0.013149
0.000132288
-0.0137572
0.000627267
-0.0143704
0.000881535
-0.0150214
0.00096061
-0.0157009
0.000968305
-0.0163969
0.00093385
-0.0170698
0.000929105
-0.0176313
0.000959284
-0.0180718
0.00100442
-0.0184997
0.00103026
-0.0192251
0.00132364
-0.0202624
0.00166811
-0.0213245
0.00194103
-0.0224168
0.0022105
-0.0236296
0.00254955
-0.0250057
0.0026963
-0.0264846
0.00258788
-0.0277786
0.00214841
-0.0286413
0.00130212
-0.0292651
0.000751227
-0.0296992
0.000582149
-0.0298432
0.000490649
-0.0298919
0.000349839
-0.0298975
8.17547e-05
-0.0300031
-0.00040246
-0.0301711
-0.00078865
-0.0301706
-0.00122358
-0.0300139
-0.00158308
-0.0297846
-0.00177256
-0.0295615
-0.00174942
-0.0294947
-0.00135904
-0.029735
-0.000846169
-0.0297762
-0.000165385
-0.0297613
-0.000213022
-0.0298463
-0.000364062
-0.0301251
-0.000290855
-0.0302958
-0.000471896
-0.0302994
-0.000612406
-0.0302737
-0.000491409
-0.0305487
0.000148313
-0.0318146
0.00128286
-0.03357
0.00204605
-0.0353691
0.00243223
-0.0371732
0.00280721
-0.0389702
0.00322238
-0.0407923
0.00366759
-0.0426529
0.00407926
-0.0445466
0.00435491
-0.0464445
0.00445739
-0.0483435
0.00450539
-0.0502116
0.00445798
-0.0519956
0.00421835
-0.0536874
0.00398767
-0.0552221
0.00370784
-0.0564956
0.00332817
-0.0575277
0.00301597
-0.058305
0.00270924
-0.058779
0.00236135
-0.0590843
0.00200501
-0.0593051
0.00164097
-0.0593683
0.00136974
-0.0592588
0.00088069
-0.0591161
0.000405087
-0.0589414
0.0002262
-0.0586025
-0.00013926
-0.057992
-0.00101086
-0.0574904
-0.00139434
-0.0565275
-0.0021039
-0.055182
-0.0026358
-0.05366
-0.00280359
-0.0521224
-0.00281347
-0.0507263
-0.00262169
-0.0497051
-0.00249444
-0.0488172
-0.00256842
-0.0478455
-0.00268591
-0.0467743
-0.00279348
-0.0456178
-0.00289014
-0.0443874
-0.00298234
-0.0430895
-0.00308994
-0.0417332
-0.00320549
-0.0403186
-0.00336223
-0.0388468
-0.00353237
-0.0373302
-0.00366243
-0.0357838
-0.0037451
-0.0342188
-0.00379578
-0.0326302
-0.00386893
-0.0310358
-0.00394413
-0.029419
-0.00404937
-0.0277686
-0.00433567
-0.025676
-0.00507378
-0.0228442
-0.00592766
-0.0195807
-0.00628552
-0.0163497
-0.00658146
-0.0132783
-0.00632785
-0.0103282
-0.00584267
-0.00749832
-0.00546618
-0.00462945
-0.00543844
-0.00169566
-0.00540878
0.00104256
-0.00527407
0.00362146
-0.00509048
0.00596172
-0.00495201
0.00799771
-0.00511515
0.00995914
-0.00540204
0.0120056
-0.00563193
0.0142113
-0.00567263
0.0165965
-0.00570154
0.0190945
-0.00576291
0.0215864
-0.00557353
0.0240396
-0.00520577
0.0264524
-0.00484427
0.0287683
-0.00439164
0.0309355
-0.00395818
0.0327666
-0.00342452
0.0339407
-0.00235452
0.0342128
-0.00103995
0.0341127
-7.3374e-05
0.033865
0.000340306
0.0336458
0.000595644
0.0334696
0.000875186
0.0331976
0.00126124
0.0327131
0.00163934
0.0319177
0.0020409
0.0307303
0.00255675
0.0291514
0.00312712
0.0272212
0.00372964
0.0249804
0.00429641
0.0224938
0.00472056
0.01997
0.00479354
0.017664
0.00444758
0.01576
0.00389531
0.0141782
0.0033138
0.0126619
0.00280551
0.0111438
0.00240741
0.00952958
0.00265156
0.00758142
0.00315842
0.00531521
0.00359951
0.00294682
0.00373498
0.000684069
0.0037142
-0.00137312
0.00364642
-0.00322413
0.00361545
-0.00489298
0.00359819
-0.00639746
0.00350926
-0.0077139
0.0033832
-0.00891584
0.00321927
-0.0100104
0.00287064
-0.0109611
0.00257189
-0.0117536
0.00217549
-0.0123828
0.00177526
-0.0128502
0.00140563
-0.0130884
0.00097512
-0.0129389
0.0002901
-0.0124863
-0.000296727
-0.0118088
-0.000831171
-0.0109453
-0.00134493
-0.00992867
-0.00186237
-0.00874328
-0.00229674
-0.00737406
-0.00269157
-0.00579907
-0.00305271
-0.00402595
-0.00334607
-0.00209041
-0.00356445
-9.03479e-05
-0.00361271
0.00189414
-0.00363783
0.00364976
-0.00347087
0.00492792
-0.00306938
0.00566697
-0.00255632
0.00609848
-0.00213608
0.0064005
-0.00185813
0.00657282
-0.00152728
0.00658884
-0.00111591
0.00649914
-0.000756935
0.00641712
-0.000428124
0.00625895
-0.000147057
0.0059156
0.000241922
0.00532068
0.000606259
0.00449737
0.000891293
0.00351856
0.00114885
0.00243637
0.00134838
0.00126129
0.00159879
1.439e-05
0.0018053
-0.00128191
0.00196285
-0.00259816
0.002067
-0.00390763
0.00212665
-0.00518882
0.00214225
-0.00642727
0.00212413
-0.00761506
0.0020814
-0.00876541
0.00205647
-0.00989395
0.00205238
-0.011
0.00204246
-0.0120864
0.00204145
-0.0131556
0.00202607
-0.0142133
0.0019768
-0.0152793
0.00190939
-0.0163627
0.00181911
-0.0174112
0.00171001
-0.0181642
0.00154382
-0.0186568
0.00132458
-0.0193231
0.00114674
-0.0198746
0.0010023
-0.020396
0.000870071
-0.0206741
0.000733654
-0.0209714
0.000621681
-0.0211959
0.000475952
-0.021379
0.00031927
-0.0215075
0.000121016
-0.0215882
-6.6651e-05
-0.0216398
-0.000157327
-0.0216811
-0.000184725
-0.0217193
-0.000181221
-0.0217518
-0.000194847
-0.0217783
-0.00024634
-0.0218029
-0.000285718
-0.0218214
-0.000343651
-0.0218295
-0.00044941
-0.0218369
-0.000532027
-0.0218492
-0.000554236
-0.0218611
-0.000567932
-0.0218822
-0.000555624
-0.0219073
-0.000532423
-0.0219253
-0.000596606
-0.0219669
-0.000557401
-0.022023
-0.000510023
-0.0220904
-0.000412873
-0.0221752