/*--------------------------------*- C++ -*----------------------------------*\
| =========                 |                                                 |
| \\      /  F ield         | OpenFOAM: The Open Source CFD Toolbox           |
|  \\    /   O peration     | Version:  v1812                                 |
|   \\  /    A nd           | Web:      www.OpenFOAM.com                      |
|    \\/     M anipulation  |                                                 |
\*---------------------------------------------------------------------------*/
FoamFile
{
    version     2.0;
    format      ascii;
    class       volScalarField;
    location    "1.2";
    object      T;
}
// * * * * * * * * * * * * * * * * * * * * * * * * * * * * * * * * * * * * * //

dimensions      [0 0 0 1 0 0 0];


internalField   nonuniform List<scalar> 
20400
(
289.792
289.785
289.77
289.751
289.728
289.704
289.682
289.665
289.654
289.651
289.656
289.672
289.694
289.729
289.775
289.828
289.887
289.949
290.014
290.086
290.155
290.222
290.292
290.361
290.424
290.486
290.545
290.603
290.66
290.719
290.776
290.836
290.896
290.958
291.02
291.083
291.158
291.216
291.281
291.34
291.398
291.454
291.506
291.55
291.593
291.64
291.685
291.732
291.783
291.837
291.903
291.967
292.03
292.095
292.161
292.223
292.269
292.283
292.278
292.27
292.191
292.094
291.972
291.844
291.722
291.624
291.557
291.528
291.522
291.543
291.593
291.66
291.74
291.826
291.912
291.991
292.06
292.121
292.171
292.212
292.246
292.272
292.288
292.3
292.31
292.317
292.324
292.332
292.339
292.348
292.355
292.361
292.369
292.364
292.359
292.361
292.357
292.353
292.351
292.345
292.334
292.324
292.312
292.299
292.286
292.272
292.258
292.244
292.23
292.216
292.202
292.188
292.171
292.158
292.15
292.142
292.122
292.09
292.076
292.061
292.005
291.959
291.975
291.967
291.939
291.891
291.858
291.874
291.837
291.798
291.757
291.718
291.673
291.622
291.568
291.51
291.448
291.382
291.315
291.247
291.175
291.1
291.028
290.959
290.894
290.835
290.779
290.73
290.687
290.654
290.632
290.621
290.62
290.627
290.645
290.673
290.707
290.748
290.799
290.846
290.888
290.933
290.976
291.014
291.061
291.105
291.136
291.158
291.184
291.207
291.225
291.242
291.255
291.265
291.271
291.272
291.268
291.267
291.26
291.255
291.241
291.225
291.207
291.187
291.165
291.143
291.121
291.101
291.085
291.072
291.061
291.054
291.053
291.058
291.065
291.079
291.095
291.114
291.148
291.185
291.211
291.236
291.27
291.3
291.336
291.371
291.407
291.443
291.48
291.519
291.559
291.601
291.645
291.693
291.744
291.797
291.855
291.914
291.976
292.047
292.123
292.189
292.278
292.341
292.412
292.487
292.563
292.639
292.719
292.784
292.851
292.904
292.947
292.977
292.996
293.005
293.006
293
292.987
292.968
292.945
292.92
292.894
292.868
292.843
292.82
292.797
292.772
292.745
292.715
292.683
292.65
292.619
292.585
292.549
292.518
292.485
292.454
292.423
292.394
292.369
292.345
292.323
292.302
292.284
292.268
292.255
292.243
292.234
292.224
292.218
292.21
292.204
292.199
292.195
292.191
292.188
292.187
292.185
292.186
292.187
292.188
292.19
292.192
292.194
292.197
292.2
292.204
292.208
292.214
292.224
292.236
292.244
292.263
292.28
292.303
292.325
292.351
292.377
292.403
292.428
292.452
292.475
292.496
292.514
292.53
292.545
292.555
292.557
292.56
292.561
292.558
292.555
292.554
292.552
292.55
292.549
292.548
292.545
292.54
292.538
292.535
292.535
292.539
292.543
292.544
292.545
292.548
292.553
292.561
292.569
292.577
292.584
292.589
292.601
292.607
292.619
292.632
292.642
292.658
292.679
292.694
292.71
292.725
292.748
292.764
292.777
292.793
292.809
292.827
292.845
292.861
292.878
292.896
292.914
292.932
292.949
292.965
292.983
293
293.018
293.038
293.055
293.071
293.088
293.105
293.121
293.136
293.15
293.167
293.182
293.197
293.211
293.222
293.233
293.241
293.25
293.266
293.269
293.283
293.293
293.299
293.304
293.312
293.319
293.327
293.328
293.332
293.342
293.35
293.35
293.355
293.366
293.376
293.383
293.393
293.399
293.406
293.413
293.42
293.423
293.43
293.437
293.441
293.446
293.452
293.458
293.463
293.468
293.473
293.478
293.483
293.487
293.492
293.496
293.5
293.504
293.507
293.511
293.514
293.517
293.52
293.522
293.525
293.528
293.531
293.533
293.535
293.537
293.539
293.541
293.544
293.546
293.548
293.55
293.551
293.553
293.555
293.557
293.558
293.56
293.562
293.564
293.566
293.567
293.569
293.571
293.573
293.575
293.578
293.58
293.583
293.585
293.588
293.591
293.594
293.597
293.601
293.604
293.608
293.611
293.615
293.619
293.624
293.628
293.633
293.637
293.642
293.647
293.653
293.658
293.664
293.67
293.676
293.682
293.689
293.696
293.702
293.709
293.716
293.724
293.731
293.739
293.746
293.754
293.762
293.77
293.778
293.785
293.793
293.8
293.806
293.812
293.817
293.822
293.827
293.833
293.84
293.848
293.855
289.765
289.759
289.746
289.728
289.707
289.685
289.666
289.651
289.644
289.645
289.655
289.676
289.704
289.744
289.794
289.85
289.912
289.979
290.047
290.119
290.19
290.259
290.321
290.39
290.455
290.52
290.581
290.636
290.699
290.762
290.825
290.891
290.958
291.025
291.092
291.158
291.223
291.295
291.361
291.419
291.474
291.525
291.571
291.613
291.656
291.696
291.734
291.776
291.825
291.881
291.94
291.998
292.055
292.11
292.156
292.193
292.222
292.239
292.199
292.127
292.015
291.902
291.794
291.707
291.646
291.611
291.599
291.632
291.683
291.75
291.829
291.914
291.998
292.077
292.148
292.205
292.249
292.284
292.307
292.321
292.329
292.332
292.333
292.336
292.342
292.34
292.332
292.328
292.32
292.312
292.315
292.318
292.316
292.313
292.312
292.308
292.304
292.303
292.294
292.286
292.279
292.272
292.265
292.258
292.251
292.245
292.239
292.233
292.226
292.218
292.209
292.201
292.193
292.188
292.186
292.164
292.157
292.156
292.137
292.144
292.207
292.238
292.172
292.113
292.084
292.062
292.028
291.945
291.92
291.9
291.874
291.841
291.814
291.785
291.75
291.712
291.671
291.627
291.583
291.532
291.479
291.414
291.348
291.283
291.217
291.15
291.085
291.019
290.949
290.877
290.812
290.759
290.722
290.698
290.682
290.679
290.693
290.728
290.772
290.825
290.88
290.939
290.999
291.058
291.112
291.164
291.216
291.268
291.314
291.364
291.419
291.465
291.512
291.556
291.597
291.635
291.67
291.701
291.724
291.741
291.749
291.746
291.735
291.713
291.681
291.641
291.594
291.545
291.49
291.431
291.374
291.319
291.27
291.23
291.198
291.176
291.163
291.162
291.162
291.157
291.175
291.199
291.224
291.248
291.274
291.303
291.332
291.363
291.394
291.427
291.461
291.498
291.537
291.579
291.624
291.672
291.722
291.774
291.83
291.881
291.916
292.034
292.086
292.201
292.229
292.329
292.404
292.496
292.588
292.671
292.756
292.824
292.878
292.917
292.942
292.955
292.958
292.953
292.938
292.916
292.887
292.856
292.825
292.792
292.762
292.73
292.7
292.669
292.637
292.606
292.575
292.543
292.506
292.464
292.43
292.393
292.358
292.324
292.292
292.263
292.235
292.209
292.184
292.16
292.138
292.117
292.098
292.081
292.066
292.051
292.043
292.039
292.033
292.032
292.034
292.036
292.042
292.049
292.057
292.068
292.081
292.094
292.109
292.123
292.138
292.152
292.166
292.179
292.192
292.204
292.22
292.22
292.231
292.244
292.257
292.275
292.295
292.319
292.345
292.374
292.403
292.432
292.46
292.487
292.508
292.527
292.543
292.556
292.568
292.57
292.571
292.569
292.566
292.565
292.562
292.558
292.553
292.546
292.539
292.528
292.521
292.514
292.508
292.501
292.496
292.491
292.489
292.49
292.498
292.507
292.507
292.499
292.503
292.511
292.512
292.529
292.535
292.551
292.558
292.58
292.613
292.643
292.661
292.678
292.705
292.722
292.74
292.755
292.77
292.787
292.803
292.819
292.835
292.851
292.866
292.882
292.897
292.912
292.927
292.943
292.958
292.976
292.992
293.008
293.025
293.042
293.059
293.075
293.091
293.108
293.124
293.138
293.152
293.164
293.173
293.184
293.188
293.189
293.219
293.215
293.237
293.242
293.252
293.259
293.265
293.272
293.284
293.287
293.286
293.302
293.323
293.328
293.335
293.338
293.351
293.352
293.356
293.368
293.366
293.366
293.372
293.372
293.363
293.365
293.38
293.388
293.394
293.397
293.403
293.41
293.416
293.42
293.425
293.43
293.434
293.439
293.443
293.447
293.451
293.455
293.46
293.457
293.458
293.458
293.458
293.458
293.459
293.461
293.462
293.464
293.466
293.468
293.47
293.472
293.474
293.476
293.477
293.479
293.481
293.483
293.485
293.487
293.489
293.492
293.494
293.496
293.499
293.502
293.504
293.507
293.511
293.514
293.518
293.522
293.525
293.529
293.533
293.538
293.542
293.547
293.551
293.556
293.561
293.566
293.572
293.577
293.583
293.588
293.594
293.6
293.607
293.613
293.62
293.626
293.633
293.64
293.648
293.655
293.662
293.67
293.678
293.685
293.693
293.701
293.709
293.717
293.725
293.733
293.741
293.749
293.756
293.762
293.768
293.773
293.779
293.786
293.793
293.801
293.81
293.819
289.712
289.708
289.696
289.682
289.664
289.647
289.634
289.627
289.628
289.637
289.657
289.686
289.724
289.773
289.827
289.888
289.952
290.021
290.092
290.166
290.236
290.303
290.369
290.436
290.499
290.565
290.627
290.69
290.758
290.828
290.901
290.979
291.06
291.143
291.222
291.293
291.356
291.424
291.487
291.541
291.588
291.629
291.665
291.699
291.737
291.769
291.798
291.834
291.878
291.928
291.97
292.014
292.058
292.091
292.113
292.121
292.123
292.081
292.008
291.919
291.82
291.738
291.694
291.683
291.696
291.741
291.798
291.891
291.982
292.077
292.168
292.249
292.318
292.374
292.415
292.441
292.452
292.455
292.453
292.447
292.435
292.419
292.405
292.379
292.349
292.335
292.325
292.319
292.308
292.295
292.294
292.291
292.245
292.238
292.244
292.239
292.236
292.236
292.221
292.21
292.204
292.197
292.19
292.184
292.179
292.175
292.171
292.169
292.167
292.165
292.161
292.158
292.16
292.157
292.138
292.142
292.148
292.147
292.153
292.135
292.093
292.039
292.019
292.029
292.012
291.998
291.975
291.941
291.913
291.878
291.842
291.811
291.783
291.754
291.729
291.705
291.682
291.661
291.646
291.633
291.616
291.591
291.567
291.537
291.506
291.475
291.445
291.408
291.357
291.287
291.198
291.104
291.018
290.949
290.892
290.836
290.783
290.739
290.732
290.756
290.808
290.872
290.943
291.021
291.098
291.176
291.263
291.352
291.445
291.535
291.629
291.724
291.819
291.917
292.015
292.112
292.213
292.31
292.402
292.486
292.561
292.624
292.674
292.708
292.722
292.716
292.685
292.635
292.559
292.459
292.336
292.201
292.063
291.923
291.788
291.665
291.558
291.467
291.389
291.327
291.285
291.255
291.232
291.219
291.215
291.22
291.228
291.241
291.255
291.271
291.289
291.31
291.333
291.36
291.391
291.424
291.459
291.499
291.541
291.591
291.659
291.672
291.738
291.783
291.911
291.983
292.082
292.18
292.278
292.396
292.497
292.601
292.691
292.763
292.817
292.855
292.877
292.884
292.882
292.867
292.837
292.799
292.755
292.706
292.658
292.614
292.572
292.531
292.491
292.452
292.411
292.369
292.316
292.279
292.236
292.194
292.155
292.113
292.077
292.042
292.013
291.983
291.954
291.925
291.898
291.873
291.849
291.828
291.804
291.783
291.764
291.745
291.73
291.721
291.716
291.713
291.713
291.716
291.722
291.734
291.751
291.772
291.797
291.827
291.86
291.897
291.937
291.977
292.017
292.054
292.086
292.13
292.161
292.19
292.21
292.23
292.249
292.269
292.292
292.32
292.351
292.386
292.424
292.463
292.503
292.542
292.557
292.578
292.584
292.587
292.586
292.579
292.568
292.556
292.542
292.527
292.514
292.503
292.493
292.482
292.465
292.454
292.444
292.437
292.432
292.427
292.425
292.423
292.419
292.414
292.415
292.427
292.436
292.453
292.48
292.506
292.516
292.528
292.546
292.559
292.558
292.561
292.58
292.6
292.608
292.639
292.665
292.694
292.722
292.747
292.77
292.792
292.811
292.829
292.845
292.86
292.872
292.883
292.893
292.902
292.91
292.921
292.927
292.936
292.947
292.958
292.971
292.986
293.001
293.018
293.037
293.054
293.07
293.088
293.104
293.115
293.145
293.161
293.159
293.183
293.182
293.192
293.201
293.208
293.215
293.218
293.227
293.237
293.245
293.249
293.243
293.24
293.239
293.247
293.236
293.239
293.243
293.233
293.236
293.248
293.252
293.259
293.277
293.285
293.285
293.286
293.289
293.294
293.296
293.299
293.302
293.304
293.307
293.31
293.312
293.315
293.317
293.32
293.322
293.324
293.325
293.333
293.337
293.341
293.344
293.346
293.348
293.349
293.349
293.35
293.351
293.352
293.353
293.353
293.354
293.354
293.355
293.355
293.356
293.357
293.359
293.361
293.363
293.364
293.366
293.368
293.37
293.373
293.376
293.379
293.383
293.387
293.391
293.396
293.401
293.407
293.412
293.418
293.424
293.43
293.436
293.443
293.45
293.457
293.464
293.471
293.478
293.486
293.493
293.501
293.509
293.517
293.525
293.534
293.542
293.55
293.559
293.568
293.577
293.586
293.595
293.604
293.613
293.622
293.631
293.64
293.649
293.658
293.666
293.675
293.683
293.69
293.697
293.704
293.711
293.718
293.726
293.735
293.745
293.755
289.642
289.64
289.632
289.623
289.612
289.603
289.599
289.603
289.616
289.638
289.671
289.713
289.761
289.819
289.88
289.945
290.012
290.081
290.151
290.224
290.293
290.357
290.424
290.491
290.553
290.62
290.684
290.754
290.833
290.916
291.006
291.1
291.199
291.3
291.394
291.473
291.543
291.6
291.652
291.694
291.731
291.759
291.782
291.8
291.82
291.841
291.857
291.877
291.902
291.928
291.954
291.979
291.996
292.003
292.003
291.991
291.959
291.903
291.835
291.77
291.724
291.711
291.735
291.82
291.922
292.024
292.13
292.24
292.344
292.439
292.521
292.585
292.63
292.656
292.666
292.667
292.653
292.631
292.601
292.564
292.527
292.49
292.45
292.418
292.397
292.364
292.327
292.279
292.239
292.211
292.161
292.129
292.15
292.144
292.125
292.113
292.105
292.098
292.09
292.084
292.079
292.074
292.07
292.066
292.062
292.059
292.058
292.06
292.064
292.072
292.082
292.092
292.1
292.105
292.12
292.129
292.102
292.086
292.068
292.051
292.04
292.025
291.999
291.964
291.93
291.887
291.837
291.781
291.726
291.672
291.621
291.564
291.505
291.455
291.416
291.384
291.356
291.331
291.329
291.34
291.357
291.374
291.394
291.413
291.421
291.425
291.433
291.443
291.452
291.452
291.441
291.407
291.346
291.278
291.214
291.156
291.084
290.98
290.857
290.765
290.744
290.769
290.832
290.916
291.008
291.107
291.209
291.314
291.425
291.538
291.661
291.789
291.918
292.054
292.192
292.336
292.481
292.627
292.776
292.923
293.073
293.221
293.362
293.492
293.604
293.694
293.752
293.777
293.771
293.728
293.641
293.522
293.371
293.181
292.96
292.732
292.506
292.288
292.082
291.898
291.74
291.605
291.492
291.401
291.335
291.29
291.262
291.244
291.227
291.213
291.201
291.193
291.187
291.188
291.196
291.208
291.222
291.237
291.251
291.266
291.284
291.297
291.33
291.367
291.417
291.477
291.551
291.639
291.744
291.865
292.008
292.159
292.307
292.442
292.557
292.649
292.718
292.767
292.799
292.816
292.817
292.795
292.749
292.686
292.62
292.553
292.49
292.432
292.378
292.327
292.276
292.226
292.177
292.115
292.059
292.006
291.951
291.904
291.86
291.824
291.79
291.76
291.73
291.702
291.677
291.653
291.63
291.608
291.59
291.571
291.556
291.536
291.517
291.498
291.477
291.453
291.43
291.408
291.387
291.37
291.359
291.353
291.352
291.363
291.383
291.417
291.466
291.527
291.604
291.693
291.792
291.892
291.98
292.05
292.11
292.161
292.195
292.218
292.234
292.249
292.269
292.296
292.332
292.376
292.425
292.477
292.523
292.561
292.583
292.597
292.603
292.601
292.59
292.574
292.554
292.532
292.51
292.488
292.468
292.445
292.425
292.407
292.391
292.375
292.361
292.347
292.333
292.321
292.308
292.297
292.292
292.29
292.285
292.282
292.284
292.284
292.296
292.312
292.335
292.358
292.389
292.425
292.463
292.503
292.55
292.592
292.632
292.674
292.714
292.753
292.792
292.829
292.863
292.89
292.912
292.931
292.947
292.958
292.963
292.96
292.953
292.945
292.934
292.927
292.922
292.919
292.917
292.916
292.916
292.92
292.928
292.938
292.95
292.964
292.977
292.988
292.996
293.009
293.022
293.039
293.049
293.062
293.071
293.08
293.091
293.102
293.112
293.124
293.137
293.142
293.142
293.144
293.146
293.148
293.147
293.15
293.15
293.15
293.155
293.159
293.16
293.165
293.17
293.171
293.172
293.173
293.178
293.182
293.185
293.188
293.191
293.195
293.199
293.202
293.205
293.209
293.213
293.217
293.222
293.226
293.231
293.235
293.236
293.238
293.24
293.24
293.241
293.241
293.241
293.241
293.242
293.241
293.24
293.238
293.236
293.233
293.23
293.227
293.225
293.222
293.22
293.219
293.217
293.216
293.215
293.213
293.212
293.212
293.212
293.213
293.214
293.217
293.22
293.224
293.229
293.234
293.24
293.246
293.253
293.259
293.267
293.275
293.283
293.292
293.301
293.31
293.32
293.33
293.34
293.35
293.36
293.371
293.382
293.393
293.404
293.415
293.426
293.438
293.449
293.461
293.472
293.484
293.495
293.507
293.518
293.53
293.541
293.552
293.563
293.573
293.584
293.594
293.603
293.612
293.621
293.63
293.639
293.651
293.662
293.67
289.558
289.559
289.556
289.555
289.553
289.555
289.564
289.583
289.612
289.651
289.7
289.757
289.816
289.884
289.953
290.021
290.089
290.157
290.223
290.292
290.356
290.418
290.485
290.552
290.616
290.688
290.76
290.845
290.941
291.044
291.154
291.267
291.38
291.489
291.587
291.666
291.73
291.774
291.808
291.837
291.857
291.869
291.875
291.873
291.874
291.875
291.872
291.87
291.873
291.882
291.884
291.887
291.886
291.878
291.864
291.838
291.803
291.758
291.722
291.706
291.707
291.758
291.879
292.031
292.189
292.333
292.463
292.581
292.682
292.767
292.832
292.873
292.891
292.894
292.885
292.856
292.816
292.771
292.723
292.669
292.615
292.559
292.506
292.457
292.405
292.352
292.303
292.257
292.218
292.187
292.161
292.121
292.088
292.058
292.024
291.996
291.97
291.948
291.932
291.918
291.907
291.899
291.893
291.889
291.887
291.885
291.883
291.881
291.885
291.892
291.903
291.915
291.929
291.942
291.952
291.956
291.945
291.927
291.907
291.883
291.85
291.803
291.743
291.68
291.617
291.552
291.483
291.406
291.325
291.246
291.178
291.111
291.039
290.972
290.915
290.868
290.832
290.803
290.786
290.791
290.813
290.839
290.876
290.925
290.98
291.034
291.091
291.148
291.212
291.281
291.347
291.382
291.387
291.39
291.388
291.382
291.364
291.296
291.141
290.933
290.798
290.748
290.752
290.789
290.859
290.95
291.054
291.158
291.267
291.384
291.501
291.621
291.743
291.878
292.022
292.176
292.34
292.512
292.697
292.894
293.098
293.305
293.511
293.711
293.903
294.084
294.253
294.394
294.505
294.586
294.625
294.622
294.579
294.465
294.285
294.058
293.81
293.544
293.268
292.994
292.725
292.461
292.209
291.98
291.788
291.638
291.524
291.437
291.372
291.321
291.281
291.248
291.218
291.194
291.173
291.153
291.136
291.123
291.113
291.104
291.094
291.084
291.075
291.071
291.077
291.095
291.119
291.155
291.204
291.278
291.388
291.538
291.718
291.911
292.094
292.253
292.382
292.485
292.572
292.65
292.713
292.748
292.753
292.711
292.637
292.547
292.453
292.364
292.282
292.21
292.142
292.074
292.015
291.95
291.888
291.827
291.769
291.719
291.676
291.643
291.619
291.603
291.594
291.591
291.591
291.593
291.595
291.599
291.603
291.606
291.611
291.603
291.591
291.571
291.537
291.492
291.446
291.397
291.345
291.29
291.236
291.185
291.138
291.096
291.06
291.027
291.005
291
291.019
291.067
291.15
291.266
291.406
291.55
291.7
291.86
292.004
292.103
292.16
292.193
292.211
292.225
292.242
292.274
292.319
292.377
292.438
292.496
292.541
292.572
292.599
292.616
292.621
292.615
292.601
292.58
292.554
292.525
292.495
292.461
292.434
292.405
292.374
292.345
292.316
292.291
292.266
292.246
292.228
292.212
292.199
292.191
292.188
292.19
292.193
292.202
292.212
292.229
292.253
292.279
292.31
292.348
292.392
292.442
292.493
292.549
292.609
292.67
292.733
292.797
292.861
292.922
292.98
293.03
293.073
293.112
293.147
293.176
293.196
293.194
293.182
293.152
293.111
293.081
293.055
293.032
293.01
292.983
292.956
292.932
292.909
292.89
292.876
292.87
292.869
292.87
292.871
292.871
292.875
292.883
292.896
292.91
292.921
292.931
292.94
292.949
292.962
292.978
292.994
293.008
293.021
293.028
293.032
293.037
293.042
293.046
293.048
293.052
293.055
293.055
293.056
293.058
293.058
293.061
293.064
293.068
293.07
293.073
293.076
293.079
293.082
293.085
293.088
293.091
293.094
293.097
293.1
293.104
293.109
293.116
293.125
293.134
293.143
293.151
293.156
293.159
293.163
293.166
293.17
293.173
293.176
293.177
293.177
293.174
293.17
293.165
293.16
293.154
293.147
293.141
293.134
293.126
293.118
293.11
293.102
293.094
293.087
293.079
293.072
293.066
293.06
293.055
293.051
293.049
293.047
293.047
293.048
293.049
293.052
293.055
293.06
293.065
293.072
293.079
293.088
293.097
293.107
293.118
293.129
293.141
293.153
293.166
293.179
293.192
293.206
293.22
293.234
293.249
293.264
293.279
293.295
293.311
293.326
293.342
293.358
293.373
293.388
293.404
293.418
293.433
293.447
293.461
293.475
293.488
293.501
293.513
293.526
293.54
293.554
293.568
289.471
289.476
289.479
289.486
289.496
289.513
289.539
289.575
289.623
289.681
289.746
289.817
289.889
289.965
290.038
290.107
290.173
290.237
290.3
290.365
290.424
290.484
290.549
290.615
290.686
290.765
290.851
290.955
291.076
291.205
291.34
291.474
291.598
291.709
291.8
291.866
291.909
291.932
291.942
291.945
291.941
291.927
291.907
291.88
291.86
291.843
291.821
291.802
291.788
291.776
291.767
291.759
291.75
291.739
291.723
291.703
291.684
291.67
291.666
291.682
291.749
291.875
292.046
292.241
292.437
292.61
292.758
292.882
292.981
293.056
293.105
293.128
293.131
293.122
293.094
293.048
292.988
292.928
292.865
292.799
292.735
292.67
292.604
292.542
292.482
292.428
292.377
292.329
292.283
292.236
292.188
292.148
292.116
292.079
292.041
292.006
291.974
291.946
291.92
291.892
291.866
291.844
291.825
291.809
291.795
291.785
291.778
291.772
291.769
291.769
291.77
291.775
291.776
291.77
291.766
291.764
291.754
291.73
291.695
291.652
291.602
291.54
291.461
291.368
291.268
291.164
291.06
290.954
290.843
290.731
290.631
290.544
290.462
290.384
290.315
290.259
290.218
290.193
290.172
290.164
290.171
290.189
290.225
290.279
290.349
290.424
290.505
290.592
290.696
290.823
290.963
291.096
291.19
291.246
291.271
291.308
291.339
291.353
291.326
291.207
291.03
290.893
290.813
290.774
290.776
290.798
290.863
290.947
291.03
291.124
291.223
291.321
291.41
291.514
291.632
291.768
291.921
292.089
292.279
292.496
292.736
292.998
293.275
293.553
293.825
294.078
294.307
294.514
294.694
294.854
294.996
295.117
295.203
295.223
295.202
295.124
294.988
294.805
294.583
294.33
294.046
293.728
293.383
293.028
292.693
292.402
292.161
291.965
291.809
291.687
291.593
291.517
291.45
291.388
291.327
291.276
291.235
291.204
291.179
291.158
291.139
291.121
291.1
291.074
291.047
291.017
290.988
290.965
290.948
290.95
290.97
291.032
291.149
291.312
291.499
291.683
291.847
291.99
292.128
292.273
292.422
292.558
292.653
292.686
292.67
292.6
292.502
292.39
292.274
292.163
292.065
291.979
291.901
291.828
291.76
291.698
291.645
291.604
291.579
291.568
291.568
291.587
291.608
291.637
291.674
291.717
291.766
291.818
291.877
291.924
291.964
291.993
292.012
292.02
292.001
291.957
291.906
291.847
291.772
291.682
291.582
291.472
291.354
291.234
291.117
291.012
290.919
290.84
290.777
290.725
290.689
290.693
290.744
290.845
290.989
291.193
291.443
291.682
291.874
292.014
292.106
292.161
292.187
292.205
292.229
292.27
292.325
292.387
292.444
292.49
292.541
292.587
292.621
292.639
292.64
292.627
292.604
292.573
292.538
292.496
292.462
292.424
292.387
292.351
292.317
292.282
292.251
292.223
292.198
292.176
292.158
292.145
292.139
292.135
292.136
292.143
292.156
292.176
292.202
292.232
292.268
292.312
292.362
292.417
292.478
292.545
292.62
292.701
292.787
292.875
292.962
293.05
293.138
293.221
293.297
293.366
293.429
293.485
293.532
293.547
293.538
293.503
293.454
293.41
293.375
293.345
293.31
293.262
293.2
293.126
293.052
292.986
292.933
292.896
292.867
292.839
292.812
292.79
292.773
292.763
292.758
292.758
292.761
292.761
292.762
292.765
292.769
292.779
292.799
292.822
292.847
292.863
292.869
292.874
292.883
292.892
292.901
292.912
292.92
292.926
292.929
292.933
292.936
292.938
292.942
292.947
292.951
292.954
292.958
292.961
292.963
292.966
292.967
292.969
292.97
292.971
292.973
292.974
292.976
292.983
292.994
293.008
293.024
293.04
293.051
293.061
293.07
293.081
293.094
293.109
293.126
293.139
293.147
293.15
293.152
293.152
293.15
293.147
293.143
293.137
293.128
293.117
293.103
293.09
293.076
293.063
293.049
293.035
293.021
293.006
292.991
292.975
292.96
292.945
292.93
292.917
292.905
292.894
292.886
292.878
292.872
292.868
292.865
292.863
292.864
292.867
292.871
292.877
292.884
292.892
292.902
292.913
292.925
292.937
292.951
292.965
292.981
292.997
293.014
293.032
293.051
293.07
293.09
293.11
293.131
293.151
293.172
293.193
293.214
293.234
293.254
293.274
293.294
293.313
293.332
293.35
293.368
293.387
293.407
293.429
289.388
289.397
289.408
289.426
289.451
289.485
289.531
289.589
289.657
289.735
289.817
289.901
289.98
290.058
290.13
290.195
290.255
290.313
290.371
290.432
290.49
290.55
290.617
290.688
290.767
290.86
290.964
291.087
291.232
291.385
291.54
291.685
291.813
291.918
291.991
292.032
292.045
292.044
292.028
292
291.963
291.926
291.89
291.844
291.804
291.765
291.725
291.691
291.663
291.641
291.626
291.616
291.609
291.605
291.602
291.6
291.601
291.613
291.641
291.711
291.82
291.98
292.18
292.403
292.623
292.818
292.982
293.114
293.214
293.283
293.321
293.333
293.331
293.31
293.272
293.218
293.153
293.084
293.016
292.944
292.871
292.803
292.733
292.664
292.599
292.537
292.479
292.425
292.372
292.324
292.279
292.232
292.185
292.141
292.102
292.064
292.028
291.994
291.963
291.931
291.899
291.868
291.837
291.808
291.781
291.757
291.737
291.72
291.704
291.69
291.679
291.669
291.659
291.646
291.625
291.596
291.561
291.515
291.454
291.374
291.282
291.183
291.07
290.945
290.812
290.675
290.539
290.411
290.291
290.174
290.065
289.966
289.876
289.793
289.722
289.666
289.623
289.596
289.58
289.563
289.563
289.571
289.597
289.643
289.703
289.773
289.85
289.942
290.054
290.197
290.364
290.543
290.708
290.833
290.934
291.032
291.134
291.241
291.299
291.297
291.254
291.153
291.025
290.903
290.83
290.802
290.796
290.813
290.842
290.881
290.941
291.017
291.08
291.156
291.248
291.362
291.5
291.659
291.845
292.063
292.312
292.589
292.889
293.197
293.501
293.789
294.067
294.33
294.574
294.798
294.998
295.172
295.325
295.452
295.552
295.615
295.619
295.592
295.513
295.386
295.21
294.977
294.673
294.312
293.919
293.535
293.191
292.894
292.643
292.428
292.238
292.071
291.923
291.791
291.685
291.606
291.541
291.49
291.444
291.401
291.364
291.332
291.306
291.277
291.24
291.197
291.149
291.104
291.054
291.008
290.968
290.933
290.928
290.951
291.014
291.115
291.235
291.373
291.535
291.728
291.949
292.171
292.364
292.504
292.59
292.615
292.592
292.505
292.377
292.228
292.081
291.947
291.835
291.745
291.674
291.616
291.573
291.548
291.54
291.547
291.578
291.621
291.679
291.75
291.829
291.914
292.001
292.091
292.176
292.252
292.318
292.374
292.423
292.456
292.472
292.459
292.435
292.403
292.346
292.267
292.167
292.046
291.906
291.748
291.577
291.399
291.217
291.037
290.868
290.721
290.601
290.507
290.434
290.401
290.421
290.52
290.705
290.952
291.223
291.488
291.728
291.922
292.054
292.13
292.17
292.197
292.225
292.262
292.312
292.362
292.419
292.489
292.562
292.609
292.628
292.64
292.637
292.616
292.591
292.552
292.518
292.479
292.438
292.402
292.362
292.324
292.29
292.259
292.23
292.206
292.186
292.169
292.157
292.148
292.146
292.149
292.161
292.18
292.206
292.24
292.282
292.333
292.393
292.461
292.536
292.62
292.711
292.807
292.909
293.013
293.118
293.227
293.336
293.443
293.547
293.646
293.739
293.824
293.9
293.954
293.965
293.954
293.924
293.892
293.865
293.84
293.807
293.749
293.664
293.549
293.417
293.287
293.172
293.079
293.004
292.945
292.893
292.842
292.798
292.754
292.708
292.673
292.65
292.629
292.614
292.61
292.6
292.597
292.599
292.615
292.64
292.66
292.673
292.676
292.682
292.689
292.703
292.72
292.739
292.752
292.762
292.769
292.773
292.777
292.782
292.789
292.796
292.803
292.808
292.811
292.814
292.816
292.815
292.814
292.812
292.808
292.804
292.799
292.793
292.792
292.796
292.809
292.829
292.85
292.868
292.882
292.895
292.911
292.935
292.967
293.006
293.045
293.075
293.096
293.112
293.125
293.136
293.147
293.156
293.165
293.169
293.169
293.165
293.156
293.145
293.133
293.121
293.107
293.092
293.075
293.054
293.03
293.004
292.974
292.944
292.913
292.884
292.857
292.832
292.809
292.786
292.765
292.745
292.726
292.709
292.694
292.682
292.673
292.666
292.661
292.659
292.659
292.661
292.665
292.671
292.679
292.689
292.701
292.714
292.73
292.747
292.765
292.786
292.807
292.83
292.854
292.879
292.905
292.932
292.958
292.985
293.012
293.039
293.066
293.092
293.119
293.145
293.172
293.199
293.233
289.312
289.327
289.347
289.378
289.421
289.476
289.545
289.626
289.716
289.812
289.909
290.001
290.083
290.159
290.224
290.281
290.334
290.384
290.436
290.492
290.549
290.611
290.682
290.761
290.854
290.967
291.096
291.248
291.416
291.588
291.751
291.893
292.006
292.086
292.127
292.138
292.129
292.091
292.04
291.989
291.933
291.878
291.822
291.758
291.702
291.651
291.6
291.556
291.522
291.496
291.479
291.471
291.468
291.475
291.487
291.502
291.526
291.563
291.618
291.71
291.838
292.008
292.209
292.429
292.647
292.845
293.013
293.146
293.244
293.309
293.343
293.352
293.345
293.317
293.272
293.212
293.136
293.059
292.973
292.879
292.792
292.692
292.597
292.504
292.403
292.309
292.229
292.16
292.104
292.054
292.019
291.994
291.972
291.952
291.936
291.921
291.907
291.894
291.877
291.858
291.84
291.822
291.802
291.778
291.749
291.716
291.678
291.638
291.597
291.559
291.522
291.488
291.455
291.42
291.377
291.325
291.262
291.188
291.103
291.001
290.882
290.746
290.6
290.447
290.289
290.131
289.979
289.833
289.706
289.592
289.491
289.401
289.32
289.248
289.191
289.149
289.12
289.1
289.087
289.075
289.071
289.077
289.096
289.128
289.172
289.223
289.28
289.353
289.448
289.574
289.729
289.906
290.087
290.26
290.417
290.562
290.71
290.871
291.029
291.161
291.223
291.227
291.209
291.138
291.033
290.943
290.876
290.836
290.819
290.818
290.828
290.85
290.887
290.932
291.007
291.101
291.225
291.376
291.56
291.777
292.029
292.31
292.612
292.916
293.216
293.499
293.763
294.015
294.258
294.491
294.717
294.934
295.148
295.352