/*--------------------------------*- C++ -*----------------------------------*\
| =========                 |                                                 |
| \\      /  F ield         | OpenFOAM: The Open Source CFD Toolbox           |
|  \\    /   O peration     | Version:  v1812                                 |
|   \\  /    A nd           | Web:      www.OpenFOAM.com                      |
|    \\/     M anipulation  |                                                 |
\*---------------------------------------------------------------------------*/
FoamFile
{
    version     2.0;
    format      ascii;
    class       volVectorField;
    location    "1.2";
    object      U;
}
// * * * * * * * * * * * * * * * * * * * * * * * * * * * * * * * * * * * * * //

dimensions      [0 1 -1 0 0 0 0];


internalField   nonuniform List<vector> 
20400
(
(-0.0533805 0.000711264 0)
(-0.151595 -0.0296711 0)
(-0.262145 -0.0430951 0)
(-0.382899 -0.0570992 0)
(-0.506861 -0.0539094 0)
(-0.634722 -0.0426404 0)
(-0.763109 -0.027524 0)
(-0.88954 -0.00964019 0)
(-1.01352 0.00279815 0)
(-1.13456 0.0207919 0)
(-1.25045 0.0487923 0)
(-1.3427 0.0948373 0)
(-1.40912 0.118753 0)
(-1.45715 -0.264351 0)
(-1.51918 -0.203377 0)
(-1.63978 -0.16642 0)
(-1.73743 -0.0773906 0)
(-1.76542 0.0334623 0)
(-1.81859 0.0624401 0)
(-1.86039 -0.120142 0)
(-1.97391 -0.18208 0)
(-2.04834 -0.251064 0)
(-2.08685 0.220621 0)
(-2.08995 0.126515 0)
(-2.095 0.128721 0)
(-2.10123 0.133998 0)
(-2.12106 0.167347 0)
(-2.14991 -0.327589 0)
(-2.27377 -0.413429 0)
(-2.36925 -0.378824 0)
(-2.46891 -0.345922 0)
(-2.57429 -0.327395 0)
(-2.68889 -0.332063 0)
(-2.82966 -0.355433 0)
(-3.00789 -0.380399 0)
(-3.20935 -0.388861 0)
(-3.38375 -0.280761 0)
(-3.37423 0.25099 0)
(-3.51069 0.300459 0)
(-3.65158 0.297362 0)
(-3.81807 0.27321 0)
(-3.98046 0.227922 0)
(-4.10266 0.183433 0)
(-4.24393 0.174499 0)
(-4.43571 0.0893099 0)
(-4.66183 -0.0754759 0)
(-4.848 -0.294207 0)
(-5.06774 -0.459488 0)
(-5.3057 -0.540533 0)
(-5.5432 -0.503527 0)
(-5.54857 0.647227 0)
(-5.45956 0.603577 0)
(-5.30302 0.598968 0)
(-5.1352 0.634013 0)
(-4.98235 0.717082 0)
(-4.85846 0.831791 0)
(-4.78772 0.949123 0)
(-4.65303 0.646516 0)
(-4.64089 -0.953679 0)
(-4.54347 -0.955846 0)
(-4.45067 -0.781177 0)
(-4.34702 -0.582203 0)
(-4.27354 -0.455886 0)
(-4.23081 -0.412276 0)
(-4.21034 -0.40288 0)
(-4.27317 -0.106662 0)
(-4.27215 0.588878 0)
(-4.237 0.440353 0)
(-4.16045 0.352603 0)
(-4.17668 0.278096 0)
(-4.27256 0.233418 0)
(-4.43618 0.18961 0)
(-4.66589 0.171216 0)
(-4.94295 0.173165 0)
(-5.24627 0.183068 0)
(-5.56832 0.189238 0)
(-5.91426 0.159065 0)
(-6.27381 0.105048 0)
(-6.63991 0.04846 0)
(-7.01062 -0.00849537 0)
(-7.3704 -0.0612157 0)
(-7.7179 -0.0841812 0)
(-8.06504 -0.0691211 0)
(-8.40881 -0.0218719 0)
(-8.73153 -0.00194805 0)
(-9.02007 0.00280156 0)
(-9.26524 0.0217193 0)
(-9.46763 0.0138595 0)
(-9.62268 -0.00343292 0)
(-9.72794 -0.0293127 0)
(-9.78709 -0.0626545 0)
(-9.78491 -0.17284 0)
(-9.74555 -0.222185 0)
(-9.71839 -0.238259 0)
(-9.72456 -0.263458 0)
(-9.75958 -0.285334 0)
(-9.79648 -0.320931 0)
(-9.80766 -0.345291 0)
(-9.73891 -0.381099 0)
(-9.56961 -0.405913 0)
(-9.37992 -0.386285 0)
(-9.21173 -0.359297 0)
(-9.06065 -0.338198 0)
(-8.92079 -0.321737 0)
(-8.78312 -0.308001 0)
(-8.63937 -0.293716 0)
(-8.48006 -0.277403 0)
(-8.29755 -0.255002 0)
(-8.09359 -0.225717 0)
(-7.87193 -0.201344 0)
(-7.63538 -0.21165 0)
(-7.38098 -0.213725 0)
(-7.10214 -0.20033 0)
(-6.79633 -0.163568 0)
(-6.44735 -0.0872849 0)
(-6.05788 0.0631851 0)
(-5.70908 0.392078 0)
(-5.52584 0.746305 0)
(-5.24892 0.774429 0)
(-4.95442 0.677709 0)
(-4.68535 0.402046 0)
(-4.3394 0.130101 0)
(-3.94544 -0.0124305 0)
(-3.49616 -0.0465243 0)
(-3.08279 -0.108487 0)
(-2.6586 -0.131855 0)
(-2.23905 -0.156223 0)
(-1.75998 -0.187456 0)
(-1.34736 -0.364081 0)
(-0.966094 -0.377905 0)
(-0.586205 -0.375506 0)
(-0.198805 -0.373512 0)
(0.182649 -0.278337 0)
(0.535298 -0.146435 0)
(0.85127 -0.0330679 0)
(1.12924 0.0593995 0)
(1.36472 0.138183 0)
(1.55696 0.189198 0)
(1.72542 0.202969 0)
(1.867 0.226699 0)
(1.9425 0.0816019 0)
(2.01105 0.0124356 0)
(2.00201 -0.0256679 0)
(1.97375 -0.0193637 0)
(1.90463 0.00491298 0)
(1.79542 0.00712984 0)
(1.67239 -0.0136704 0)
(1.55133 -0.0444475 0)
(1.43119 -0.0578659 0)
(1.3033 -0.0479226 0)
(1.15583 -0.017492 0)
(0.978987 0.0218867 0)
(0.7814 0.0395762 0)
(0.590244 0.00593333 0)
(0.45968 -0.0993988 0)
(0.425465 -0.19471 0)
(0.445257 -0.186455 0)
(0.442185 -0.0283854 0)
(0.354392 0.102175 0)
(0.216862 0.137551 0)
(0.0544524 0.153637 0)
(-0.127304 0.088147 0)
(-0.31664 0.0352448 0)
(-0.515793 0.00484496 0)
(-0.744999 -0.00926214 0)
(-1.02168 -0.0180099 0)
(-1.35411 -0.0308341 0)
(-1.7313 -0.064647 0)
(-2.10168 -0.151443 0)
(-2.43941 -0.218457 0)
(-2.77019 -0.22169 0)
(-3.09942 -0.224385 0)
(-3.41275 -0.238757 0)
(-3.68927 -0.252874 0)
(-3.92882 -0.244116 0)
(-4.14347 -0.216244 0)
(-4.32634 -0.100831 0)
(-4.40892 0.0966942 0)
(-4.50014 0.185251 0)
(-4.4811 0.308882 0)
(-4.41286 0.298357 0)
(-4.28946 0.297404 0)
(-4.12844 0.290506 0)
(-3.94213 0.279211 0)
(-3.74327 0.262327 0)
(-3.53999 0.235361 0)
(-3.34095 0.2001 0)
(-3.14555 0.136122 0)
(-2.93404 0.0696969 0)
(-2.70005 0.0199465 0)
(-2.44459 0.0027685 0)
(-2.19561 0.0146291 0)
(-1.97195 0.0226477 0)
(-1.775 0.0310988 0)
(-1.61721 0.0496547 0)
(-1.49685 0.0481114 0)
(-1.41425 0.0404152 0)
(-1.39102 -0.0430944 0)
(-1.40114 -0.133903 0)
(-1.4361 -0.180843 0)
(-1.45454 -0.216497 0)
(-1.48324 -0.221299 0)
(-1.52036 -0.224121 0)
(-1.57959 -0.211859 0)
(-1.66835 -0.204699 0)
(-1.7792 -0.203311 0)
(-1.90668 -0.206684 0)
(-2.04569 -0.212953 0)
(-2.19157 -0.221357 0)
(-2.33983 -0.229855 0)
(-2.48699 -0.236359 0)
(-2.6331 -0.238089 0)
(-2.78139 -0.235958 0)
(-2.93327 -0.231168 0)
(-3.08989 -0.223674 0)
(-3.2511 -0.215593 0)
(-3.41242 -0.208162 0)
(-3.56662 -0.200636 0)
(-3.71235 -0.188939 0)
(-3.86076 -0.173791 0)
(-3.99717 -0.144025 0)
(-4.1278 -0.0599822 0)
(-4.22114 -0.0584404 0)
(-4.29893 -0.0370999 0)
(-4.34488 -0.00202081 0)
(-4.39964 0.0134118 0)
(-4.44575 0.029137 0)
(-4.47976 0.0242951 0)
(-4.49068 0.0081406 0)
(-4.48533 -0.00576054 0)
(-4.46006 -0.0226788 0)
(-4.41832 -0.0389666 0)
(-4.371 -0.0380348 0)
(-4.32775 -0.032725 0)
(-4.28966 -0.0293882 0)
(-4.25076 -0.0283268 0)
(-4.20546 -0.0250942 0)
(-4.15163 -0.0255353 0)
(-4.0828 -0.0332409 0)
(-3.99271 -0.0344423 0)
(-3.88635 -0.0267664 0)
(-3.76927 -0.0204362 0)
(-3.64514 -0.0111658 0)
(-3.52047 -0.00590609 0)
(-3.39096 -0.0140314 0)
(-3.25114 -0.0105603 0)
(-3.10672 -0.0171433 0)
(-2.96712 -0.0226673 0)
(-2.84479 -0.0209464 0)
(-2.74652 -0.0175244 0)
(-2.67924 -0.00925662 0)
(-2.64439 -0.000603546 0)
(-2.62851 0.00237536 0)
(-2.63066 0.0153271 0)
(-2.66842 0.0499726 0)
(-2.75183 0.0784943 0)
(-2.86943 0.102228 0)
(-3.01589 0.119533 0)
(-3.18447 0.134805 0)
(-3.37598 0.153892 0)
(-3.58902 0.173384 0)
(-3.82226 0.198405 0)
(-4.07417 0.219822 0)
(-4.3329 0.233107 0)
(-4.58599 0.233754 0)
(-4.82056 0.220677 0)
(-5.03344 0.205828 0)
(-5.23292 0.196405 0)
(-5.41655 0.176389 0)
(-5.57717 0.144176 0)
(-5.68918 0.0731239 0)
(-5.78329 0.023868 0)
(-5.85103 -0.0303109 0)
(-5.86608 -0.0782657 0)
(-5.86378 -0.0909528 0)
(-5.86756 -0.092799 0)
(-5.85657 -0.122013 0)
(-5.80112 -0.153984 0)
(-5.70867 -0.170728 0)
(-5.57807 -0.186348 0)
(-5.41219 -0.18794 0)
(-5.22624 -0.17861 0)
(-5.02287 -0.174598 0)
(-4.80676 -0.179631 0)
(-4.58788 -0.1766 0)
(-4.36992 -0.170614 0)
(-4.15414 -0.161854 0)
(-3.94214 -0.150626 0)
(-3.73582 -0.135844 0)
(-3.53807 -0.11625 0)
(-3.34186 -0.0849694 0)
(-3.16161 0.0284571 0)
(-2.97671 0.0386699 0)
(-2.78825 0.0172985 0)
(-2.56902 0.000888961 0)
(-2.34127 -0.0119202 0)
(-2.12542 -0.0103613 0)
(-1.93618 -0.00720056 0)
(-1.77021 -0.00974101 0)
(-1.62081 -0.0169556 0)
(-1.48303 -0.0265441 0)
(-1.35451 -0.0360101 0)
(-1.23474 -0.044047 0)
(-1.12638 -0.0423962 0)
(-1.04126 -0.0290485 0)
(-0.985111 -0.00744819 0)
(-0.971642 0.0344598 0)
(-0.964268 0.02695 0)
(-0.956915 0.0331216 0)
(-0.963218 0.0351631 0)
(-0.967953 0.02362 0)
(-0.973077 0.0317834 0)
(-1.00123 0.055495 0)
(-1.05578 0.0718974 0)
(-1.12733 0.0876368 0)
(-1.22164 0.108551 0)
(-1.33643 0.121161 0)
(-1.46702 0.137498 0)
(-1.62518 0.172255 0)
(-1.8375 0.218467 0)
(-2.06222 0.214155 0)
(-2.26087 0.191033 0)
(-2.43804 0.178312 0)
(-2.60617 0.173985 0)
(-2.76639 0.163586 0)
(-2.92043 0.163221 0)
(-3.07639 0.159543 0)
(-3.23188 0.149888 0)
(-3.38175 0.144087 0)
(-3.52985 0.135868 0)
(-3.66968 0.120414 0)
(-3.80048 0.100545 0)
(-3.90537 0.0486918 0)
(-3.95723 -0.0119206 0)
(-4.01953 0.0271166 0)
(-4.10128 0.0367117 0)
(-4.17916 0.0244792 0)
(-4.2338 0.00271151 0)
(-4.25954 -0.0134759 0)
(-4.2673 -0.00887882 0)
(-4.25451 -0.0143053 0)
(-4.22619 -0.0176227 0)
(-4.18719 -0.0149467 0)
(-4.13876 0.00568724 0)
(-4.06439 0.0484395 0)
(-3.987 0.120933 0)
(-3.89837 0.15458 0)
(-3.80917 0.183218 0)
(-3.70523 0.195887 0)
(-3.58675 0.200375 0)
(-3.45702 0.204834 0)
(-3.33041 0.211699 0)
(-3.21491 0.210638 0)
(-3.09749 0.194716 0)
(-2.96211 0.171712 0)
(-2.81853 0.158384 0)
(-2.68543 0.151207 0)
(-2.56862 0.141104 0)
(-2.46076 0.121958 0)
(-2.35536 0.0958704 0)
(-2.25082 0.0672309 0)
(-2.1417 0.0416456 0)
(-2.04982 0.0406243 0)
(-1.99637 0.0402008 0)
(-1.96889 0.0282075 0)
(-1.95448 0.0100114 0)
(-1.94114 -0.00876769 0)
(-1.92302 -0.0186113 0)
(-1.90748 -0.024464 0)
(-1.89036 -0.0332591 0)
(-1.87322 -0.0367688 0)
(-1.86259 -0.0372075 0)
(-1.85418 -0.0318477 0)
(-1.85467 -0.0140499 0)
(-1.86767 0.00630052 0)
(-1.89784 0.0279924 0)
(-1.95454 0.0775826 0)
(-2.02845 0.0820497 0)
(-2.07302 0.0689908 0)
(-2.11914 0.0749948 0)
(-2.16646 0.0800355 0)
(-2.22115 0.0968032 0)
(-2.29113 0.111029 0)
(-2.36787 0.114874 0)
(-2.44202 0.112738 0)
(-2.51208 0.108779 0)
(-2.57412 0.100288 0)
(-2.62487 0.0932482 0)
(-2.66832 0.0898083 0)
(-2.71241 0.0956856 0)
(-2.76359 0.105535 0)
(-2.82199 0.112834 0)
(-2.88418 0.115675 0)
(-2.93914 0.107558 0)
(-2.98565 0.104679 0)
(-3.02714 0.0991729 0)
(-3.06589 0.0951198 0)
(-3.09978 0.0859272 0)
(-3.12841 0.0777645 0)
(-3.1514 0.0670138 0)
(-3.17098 0.0592992 0)
(-3.18794 0.0512792 0)
(-3.20272 0.0436187 0)
(-3.212 0.0316004 0)
(-3.21005 0.0164908 0)
(-3.20127 0.00732075 0)
(-3.19044 0.000596762 0)
(-3.17632 -0.0073539 0)
(-3.16003 -0.0122937 0)
(-3.1429 -0.0221517 0)
(-3.12262 -0.0296058 0)
(-3.10086 -0.0353901 0)
(-3.0785 -0.040123 0)
(-3.05556 -0.0445929 0)
(-3.032 -0.0481884 0)
(-3.00835 -0.0510285 0)
(-2.98372 -0.0545084 0)
(-2.9565 -0.0585063 0)
(-2.92471 -0.0632388 0)
(-2.88714 -0.0655011 0)
(-2.84337 -0.0584152 0)
(-2.80321 -0.0247233 0)
(-2.75997 -0.0108159 0)
(-2.7208 0.0048699 0)
(-2.67735 0.0151353 0)
(-2.63588 0.0223877 0)
(-2.59541 0.0245295 0)
(-2.55357 0.0231958 0)
(-2.5099 0.0208311 0)
(-2.46505 0.0183381 0)
(-2.42013 0.0168046 0)
(-2.37668 0.0169511 0)
(-2.3398 0.021994 0)
(-2.31174 0.0249756 0)
(-2.28871 0.0254314 0)
(-2.26848 0.0243061 0)
(-2.24923 0.0219115 0)
(-2.22943 0.0186427 0)
(-2.2087 0.0154113 0)
(-2.18691 0.0113428 0)
(-2.16264 0.00601922 0)
(-2.13506 0.00189743 0)
(-2.10945 0.00558284 0)
(-2.09584 0.0141953 0)
(-2.09364 0.0169456 0)
(-2.09703 0.0172086 0)
(-2.10384 0.0169692 0)
(-2.11253 0.0152485 0)
(-2.12121 0.0125043 0)
(-2.12897 0.00965947 0)
(-2.1358 0.00726096 0)
(-2.1427 0.00612893 0)
(-2.15039 0.00543094 0)
(-2.15871 0.00431122 0)
(-2.16707 0.00310837 0)
(-2.17614 0.00285539 0)
(-2.18754 0.00391529 0)
(-2.20166 0.00427159 0)
(-2.2176 0.00476964 0)
(-2.23518 0.0045124 0)
(-2.25362 0.00418323 0)
(-2.27264 0.00330836 0)
(-2.29149 0.00212985 0)
(-2.30998 0.00134126 0)
(-2.32871 0.00132925 0)
(-2.34834 0.00172289 0)
(-2.36874 0.00169237 0)
(-2.38971 0.0017817 0)
(-2.41102 0.00174324 0)
(-2.43236 0.00172168 0)
(-2.4536 0.00186603 0)
(-2.47484 0.00214239 0)
(-2.49609 0.00238739 0)
(-2.51723 0.00257337 0)
(-2.53816 0.00271025 0)
(-2.55875 0.0030521 0)
(-2.57891 0.00354984 0)
(-2.59857 0.00418519 0)
(-2.61768 0.00492362 0)
(-2.63612 0.00583268 0)
(-2.65394 0.00682882 0)
(-2.6712 0.00803932 0)
(-2.68778 0.0094127 0)
(-2.70363 0.0109702 0)
(-2.71872 0.0127035 0)
(-2.73297 0.0145647 0)
(-2.74633 0.0161249 0)
(-2.75839 0.0184952 0)
(-2.7691 0.0204858 0)
(-2.77781 0.0231259 0)
(-2.78437 0.024311 0)
(-2.78821 0.025336 0)
(-2.7883 0.0280328 0)
(-2.7829 0.024431 0)
(-2.76746 0.0180555 0)
(-2.74054 0.0112276 0)
(-2.70458 0.00762519 0)
(-2.66415 0.0100562 0)
(-2.63161 0.0201852 0)
(-2.60787 0.0219787 0)
(-0.0588453 0.0288605 0)
(-0.200332 0.0384769 0)
(-0.365469 0.066671 0)
(-0.551455 0.0654438 0)
(-0.736435 0.0640567 0)
(-0.918203 0.0598966 0)
(-1.09587 0.0538026 0)
(-1.26991 0.0459587 0)
(-1.44109 0.0406395 0)
(-1.60953 0.0342674 0)
(-1.77036 0.0156131 0)
(-1.90593 -0.0212103 0)
(-2.0024 -0.0829748 0)
(-2.11344 0.0185712 0)
(-2.26594 0.0827668 0)
(-2.42043 0.0922699 0)
(-2.56836 -0.00877782 0)
(-2.74288 -0.0477007 0)
(-2.86895 -0.0788504 0)
(-2.93482 0.0429675 0)
(-3.00293 0.0912164 0)
(-3.07768 0.0456177 0)
(-3.13249 -0.16028 0)
(-3.27548 -0.13521 0)
(-3.43773 -0.13672 0)
(-3.54241 -0.128672 0)
(-3.59032 -0.126361 0)
(-3.62869 0.167564 0)
(-3.83522 0.205351 0)
(-4.05076 0.204326 0)
(-4.2614 0.1938 0)
(-4.4552 0.189858 0)
(-4.63133 0.216797 0)
(-4.80044 0.27903 0)
(-4.98093 0.335713 0)
(-5.20021 0.316897 0)
(-5.43054 0.0869832 0)
(-5.76744 -0.088161 0)
(-6.11555 -0.0388487 0)
(-6.50033 0.00601667 0)
(-6.93651 0.0423942 0)
(-7.40967 0.0191796 0)
(-7.87118 -0.00742367 0)
(-8.25487 0.0603721 0)
(-8.46408 0.191852 0)
(-8.52343 0.243731 0)
(-8.51195 0.32413 0)
(-8.55255 0.415201 0)
(-8.61675 0.438528 0)
(-8.69326 0.29016 0)
(-8.69265 -0.343123 0)
(-8.72858 -0.476913 0)
(-8.66919 -0.53823 0)
(-8.54851 -0.555569 0)
(-8.36427 -0.57824 0)
(-8.13576 -0.596426 0)
(-7.89549 -0.566111 0)
(-7.71235 -0.553368 0)
(-7.74771 0.293055 0)
(-7.93249 0.216715 0)
(-8.07323 0.1074 0)
(-8.16748 0.0535301 0)
(-8.19682 0.0565651 0)
(-8.17622 0.0935076 0)
(-8.14647 0.126256 0)
(-8.14789 0.057309 0)
(-8.23307 -0.408024 0)
(-8.50877 -0.424254 0)
(-8.83787 -0.308795 0)
(-9.23527 -0.16999 0)
(-9.6882 -0.00888636 0)
(-10.2074 0.131255 0)
(-10.795 0.239277 0)
(-11.4372 0.298502 0)
(-12.106 0.320895 0)
(-12.7781 0.350945 0)
(-13.4349 0.408649 0)
(-14.0464 0.449287 0)
(-14.5996 0.490892 0)
(-15.1077 0.518598 0)
(-15.5721 0.515553 0)
(-16.0053 0.516393 0)
(-16.4315 0.510011 0)
(-16.8524 0.468806 0)
(-17.2411 0.41404 0)
(-17.5832 0.343006 0)
(-17.8952 0.275731 0)
(-18.1746 0.20586 0)
(-18.3895 0.150522 0)
(-18.556 0.0882221 0)
(-18.6551 0.0160632 0)
(-18.6601 -0.022502 0)
(-18.5694 0.00961236 0)
(-18.3431 0.0728758 0)
(-17.9989 0.116391 0)
(-17.5995 0.149358 0)
(-17.1991 0.136326 0)
(-16.8217 0.0946002 0)
(-16.5102 -0.054554 0)
(-16.198 -0.139386 0)
(-15.8682 -0.122653 0)
(-15.5107 -0.101679 0)
(-15.1273 -0.0891361 0)
(-14.7247 -0.0858427 0)
(-14.3063 -0.094121 0)
(-13.8745 -0.112356 0)
(-13.4293 -0.144349 0)
(-12.9678 -0.181867 0)
(-12.492 -0.214241 0)
(-12.0077 -0.241275 0)
(-11.5201 -0.255371 0)
(-11.0329 -0.279458 0)
(-10.5477 -0.311877 0)
(-10.0572 -0.355747 0)
(-9.55577 -0.42664 0)
(-8.97711 -0.468342 0)
(-8.2886 -0.450428 0)
(-7.50018 -0.441506 0)
(-6.66855 -0.613119 0)
(-5.82412 -0.674731 0)
(-5.07879 -0.714539 0)
(-4.50369 -0.723528 0)
(-4.00466 -0.719592 0)
(-3.59145 -0.725201 0)
(-3.15272 -0.713065 0)
(-2.71462 -0.73436 0)
(-2.23376 -0.732101 0)
(-1.73736 -0.851056 0)
(-1.05691 -0.968185 0)
(-0.221547 -0.963429 0)
(0.598593 -0.839499 0)
(1.37386 -0.729703 0)
(2.12023 -0.733091 0)
(2.85427 -0.746041 0)
(3.53777 -0.728628 0)
(4.15288 -0.710727 0)
(4.69608 -0.66739 0)
(5.1718 -0.626129 0)
(5.59661 -0.59925 0)
(5.95537 -0.45739 0)
(6.23419 -0.276746 0)
(6.32308 -0.0254811 0)
(6.3691 0.0608106 0)
(6.32839 0.140391 0)
(6.23054 0.210178 0)
(6.06564 0.268398 0)
(5.8403 0.31203 0)
(5.57112 0.343699 0)
(5.26327 0.374903 0)
(4.91045 0.400296 0)
(4.50466 0.434446 0)
(4.03955 0.466147 0)
(3.51814 0.484809 0)
(2.94474 0.493479 0)
(2.32439 0.50994 0)
(1.67198 0.557038 0)
(1.0254 0.527717 0)
(0.508079 0.372647 0)
(0.225539 0.203955 0)
(0.00466266 0.247442 0)
(-0.238698 0.290161 0)
(-0.514837 0.319627 0)
(-0.809553 0.325001 0)
(-1.1173 0.348998 0)
(-1.43613 0.392528 0)
(-1.76246 0.449037 0)
(-2.09493 0.504584 0)
(-2.42783 0.529907 0)
(-2.79065 0.509557 0)
(-3.18877 0.483518 0)
(-3.5571 0.454783 0)
(-3.8623 0.429929 0)
(-4.12143 0.379454 0)
(-4.3364 0.319953 0)
(-4.51703 0.2687 0)
(-4.66618 0.219813 0)
(-4.77372 0.142999 0)
(-4.83887 0.0690947 0)
(-4.86798 -0.00416334 0)
(-4.8355 -0.0947045 0)
(-4.76233 -0.193551 0)
(-4.63888 -0.259345 0)
(-4.47902 -0.309781 0)
(-4.28339 -0.345008 0)
(-4.05988 -0.364268 0)
(-3.816 -0.374214 0)
(-3.56235 -0.366851 0)
(-3.30631 -0.379793 0)
(-3.04948 -0.399959 0)
(-2.79439 -0.424946 0)
(-2.54087 -0.4355 0)
(-2.29965 -0.405115 0)
(-2.07938 -0.366559 0)
(-1.88753 -0.317093 0)
(-1.74045 -0.252409 0)
(-1.63211 -0.194352 0)
(-1.58821 -0.105946 0)
(-1.58002 -0.0547814 0)
(-1.61563 -0.00773462 0)
(-1.68607 0.0148982 0)
(-1.78504 0.0205588 0)
(-1.90725 0.0438894 0)
(-2.05205 0.0665337 0)
(-2.21633 0.108144 0)
(-2.40199 0.143385 0)
(-2.60396 0.171166 0)
(-2.81968 0.192005 0)
(-3.04669 0.207771 0)
(-3.28287 0.217139 0)
(-3.52572 0.221365 0)
(-3.77263 0.221402 0)
(-4.02169 0.223712 0)
(-4.27191 0.22806 0)
(-4.52143 0.231692 0)
(-4.76824 0.237671 0)
(-5.01088 0.240851 0)
(-5.24256 0.235768 0)
(-5.462 0.222883 0)
(-5.65603 0.196375 0)
(-5.8 0.167505 0)
(-5.98175 0.152087 0)
(-6.18528 0.0909952 0)
(-6.42706 0.105815 0)
(-6.54445 0.101709 0)
(-6.69599 0.093293 0)
(-6.80031 0.0430818 0)
(-6.91866 0.0151005 0)
(-7.02092 -0.000746762 0)
(-7.1113 -0.017213 0)
(-7.17129 -0.0292684 0)
(-7.19656 -0.0535909 0)
(-7.19956 -0.0596963 0)
(-7.19011 -0.0577259 0)
(-7.17413 -0.0500017 0)
(-7.14882 -0.0437063 0)
(-7.11171 -0.0486989 0)
(-7.0635 -0.057203 0)
(-7.00574 -0.0694545 0)
(-6.93511 -0.091768 0)
(-6.8505 -0.117626 0)
(-6.76102 -0.137359 0)
(-6.67254 -0.15152 0)
(-6.58515 -0.161659 0)
(-6.50043 -0.162353 0)
(-6.41073 -0.176052 0)
(-6.32084 -0.190328 0)
(-6.24034 -0.191256 0)
(-6.17058 -0.173716 0)
(-6.1199 -0.142686 0)
(-6.09187 -0.099996 0)
(-6.09816 -0.0481805 0)
(-6.14233 -0.00731517 0)
(-6.21983 0.00966565 0)
(-6.3556 0.0473628 0)
(-6.54586 0.0968412 0)
(-6.78212 0.149308 0)
(-7.05998 0.188756 0)
(-7.37616 0.218006 0)
(-7.72194 0.244958 0)
(-8.09044 0.270118 0)
(-8.47303 0.290532 0)
(-8.86305 0.306938 0)
(-9.25794 0.313775 0)
(-9.64952 0.304565 0)
(-10.0277 0.282536 0)
(-10.3799 0.252642 0)
(-10.6929 0.232255 0)
(-10.9531 0.220011 0)
(-11.145 0.199363 0)
(-11.2692 0.16308 0)
(-11.3145 0.135481 0)
(-11.2293 0.143271 0)
(-11.0495 0.0947839 0)
(-10.7937 0.0656122 0)
(-10.4986 0.0666729 0)
(-10.2063 0.065348 0)
(-9.91971 0.028022 0)
(-9.62689 -0.0193631 0)
(-9.33038 -0.0648844 0)
(-9.02065 -0.114312 0)
(-8.69074 -0.150444 0)
(-8.35302 -0.174974 0)
(-8.01623 -0.201817 0)
(-7.68066 -0.20942 0)
(-7.34411 -0.210508 0)
(-7.00464 -0.210849 0)
(-6.66479 -0.210661 0)
(-6.32745 -0.209782 0)
(-5.99494 -0.206667 0)
(-5.67084 -0.203289 0)
(-5.34583 -0.199132 0)
(-5.10693 -0.241693 0)
(-4.94769 -0.241613 0)
(-4.79151 -0.294215 0)
(-4.6115 -0.316234 0)
(-4.42234 -0.325351 0)
(-4.22814 -0.300124 0)
(-4.03959 -0.271425 0)
(-3.85928 -0.248134 0)
(-3.69059 -0.229992 0)
(-3.53468 -0.215402 0)
(-3.39256 -0.201437 0)
(-3.26403 -0.188193 0)
(-3.14861 -0.166689 0)
(-3.05038 -0.129268 0)
(-2.97928 -0.0799677 0)
(-2.95337 -0.0718785 0)
(-2.97104 -0.0755816 0)
(-3.00244 -0.0671905 0)
(-3.06963 -0.0535043 0)
(-3.16084 -0.0602434 0)
(-3.26408 -0.0453105 0)
(-3.38686 -0.012954 0)
(-3.53221 0.0090771 0)
(-3.69507 0.0312025 0)
(-3.8829 0.059187 0)
(-4.09586 0.0753198 0)
(-4.3293 0.0961143 0)
(-4.58828 0.140996 0)
(-4.89132 0.196336 0)
(-5.22289 0.167186 0)
(-5.54319 0.137132 0)
(-5.83923 0.114725 0)
(-6.11174 0.112851 0)
(-6.3496 0.10361 0)
(-6.55904 0.100559 0)
(-6.74225 0.110366 0)
(-6.89235 0.105921 0)
(-7.0148 0.106386 0)
(-7.11596 0.105781 0)
(-7.1944 0.0993302 0)
(-7.25514 0.0885057 0)
(-7.29293 0.0562689 0)
(-7.29892 0.0190959 0)
(-7.2811 0.0611669 0)
(-7.22506 0.0697773 0)
(-7.13902 0.0497488 0)
(-7.03113 0.0151177 0)
(-6.90852 -0.010735 0)
(-6.7718 -0.0224313 0)
(-6.61525 -0.051448 0)
(-6.41988 -0.0725508 0)
(-6.22766 -0.0863065 0)
(-6.0399 -0.0914793 0)
(-5.85918 -0.119805 0)
(-5.69973 -0.163975 0)
(-5.59329 -0.164026 0)
(-5.48361 -0.191382 0)
(-5.35382 -0.21188 0)
(-5.2048 -0.233331 0)
(-5.04098 -0.242448 0)
(-4.87152 -0.232383 0)
(-4.70346 -0.220644 0)
(-4.53657 -0.23461 0)
(-4.3677 -0.251698 0)
(-4.19932 -0.244486 0)
(-4.03897 -0.221124 0)
(-3.88967 -0.197894 0)
(-3.75101 -0.187052 0)
(-3.62502 -0.176379 0)
(-3.51327 -0.171682 0)
(-3.40911 -0.166043 0)
(-3.32506 -0.117465 0)
(-3.26507 -0.0703175 0)
(-3.22337 -0.0428795 0)
(-3.19833 -0.0305837 0)
(-3.18568 -0.0249941 0)
(-3.18267 -0.0203153 0)
(-3.18942 -0.0139377 0)
(-3.20273 -0.0167134 0)
(-3.21782 -0.00426252 0)
(-3.2412 0.00290126 0)
(-3.26664 0.00652171 0)
(-3.28891 0.0146622 0)
(-3.30943 0.0257915 0)
(-3.31527 0.052401 0)
(-3.3713 0.0756694 0)
(-3.49446 0.04507 0)
(-3.63735 0.039767 0)
(-3.79051 0.0452905 0)
(-3.94828 0.0480924 0)
(-4.10881 0.0644119 0)
(-4.27171 0.077246 0)
(-4.43493 0.0771618 0)
(-4.59559 0.0700002 0)
(-4.7553 0.0635978 0)
(-4.91153 0.0491758 0)
(-5.06073 0.038889 0)
(-5.20228 0.0343839 0)
(-5.33724 0.0416204 0)
(-5.46656 0.0504625 0)
(-5.58935 0.0567698 0)
(-5.70637 0.0561544 0)
(-5.81197 0.042655 0)
(-5.90768 0.0383615 0)
(-5.99519 0.0339267 0)
(-6.07595 0.0342746 0)
(-6.14851 0.0286783 0)
(-6.21137 0.0269236 0)
(-6.2649 0.0237104 0)
(-6.30922 0.0240764 0)
(-6.34348 0.0238028 0)
(-6.36582 0.0219872 0)
(-6.37476 0.015678 0)
(-6.37133 0.00944186 0)
(-6.35905 0.0090652 0)
(-6.33262 0.00641504 0)
(-6.30361 0.00217471 0)
(-6.25892 0.00663112 0)
(-6.20423 0.00818947 0)
(-6.14367 0.00787252 0)
(-6.07859 0.00848095 0)
(-6.01003 0.00904397 0)
(-5.93821 0.00904971 0)
(-5.86366 0.00925645 0)
(-5.7877 0.00935364 0)
(-5.71012 0.00757256 0)
(-5.63069 0.00375731 0)
(-5.54832 -0.00290459 0)
(-5.46313 -0.00992385 0)
(-5.37862 -0.014632 0)
(-5.32013 -0.0413316 0)
(-5.29996 -0.0332401 0)
(-5.27277 -0.0497602 0)
(-5.22871 -0.0581913 0)
(-5.17515 -0.0611002 0)
(-5.11564 -0.0652118 0)
(-5.05251 -0.0696661 0)
(-4.98806 -0.072541 0)
(-4.92389 -0.0744881 0)
(-4.86094 -0.0745138 0)
(-4.79948 -0.0718597 0)
(-4.74179 -0.0611497 0)
(-4.68796 -0.0539358 0)
(-4.63757 -0.0499242 0)
(-4.59047 -0.0480374 0)
(-4.5463 -0.0479968 0)
(-4.50465 -0.0493096 0)
(-4.46549 -0.0500195 0)
(-4.42885 -0.0520248 0)
(-4.39446 -0.0560669 0)
(-4.3614 -0.0586201 0)
(-4.33052 -0.0500777 0)
(-4.30628 -0.0342977 0)
(-4.28582 -0.0256625 0)
(-4.27032 -0.0204885 0)
(-4.25878 -0.0169612 0)
(-4.2503 -0.0158189 0)
(-4.24453 -0.0164002 0)
(-4.24108 -0.0174519 0)
(-4.23943 -0.0178808 0)
(-4.23971 -0.0175131 0)
(-4.24167 -0.016396 0)
(-4.24544 -0.0160142 0)
(-4.25068 -0.0159895 0)
(-4.25724 -0.0143681 0)
(-4.26536 -0.0106932 0)
(-4.27604 -0.00850438 0)
(-4.28781 -0.0060991 0)
(-4.30115 -0.00482723 0)
(-4.3156 -0.00370462 0)
(-4.33122 -0.00327986 0)
(-4.3477 -0.00350834 0)
(-4.36482 -0.0035504 0)
(-4.38257 -0.00247042 0)
(-4.40099 -0.00113961 0)
(-4.41995 -0.00016502 0)
(-4.43929 0.000688506 0)
(-4.45888 0.00114534 0)
(-4.47852 0.00132804 0)
(-4.49812 0.00149605 0)
(-4.51758 0.00184822 0)
(-4.5368 0.00212537 0)
(-4.55565 0.00230506 0)
(-4.57398 0.00239938 0)
(-4.59164 0.00229097 0)
(-4.60849 0.00209182 0)
(-4.62439 0.00183205 0)
(-4.63922 0.0014604 0)
(-4.65284 0.000940337 0)
(-4.66511 0.000612934 0)
(-4.67584 0.000138587 0)
(-4.68488 -0.000485828 0)
(-4.69209 -0.00118422 0)
(-4.69733 -0.00196072 0)
(-4.7005 -0.00288887 0)
(-4.70143 -0.00388697 0)
(-4.69999 -0.00538769 0)
(-4.69582 -0.00730279 0)
(-4.68872 -0.00969049 0)
(-4.67848 -0.0126485 0)
(-4.66533 -0.0167345 0)
(-4.64794 -0.0200699 0)
(-4.62734 -0.0293881 0)
(-4.6032 -0.0413489 0)
(-4.57543 -0.0532053 0)
(-4.54408 -0.0603149 0)
(-4.50875 -0.0607321 0)
(-4.4739 -0.0478648 0)
(-4.43185 -0.0206978 0)
(-0.0633806 0.0703249 0)
(-0.218175 0.103474 0)
(-0.378154 0.163896 0)
(-0.56117 0.17823 0)
(-0.74867 0.184311 0)
(-0.93987 0.184166 0)
(-1.13117 0.181002 0)
(-1.32126 0.17532 0)
(-1.50953 0.170541 0)
(-1.6974 0.163244 0)
(-1.88488 0.131507 0)
(-2.05626 0.0585806 0)
(-2.21158 -0.0366327 0)
(-2.37794 0.0184994 0)
(-2.51937 0.0848109 0)
(-2.66412 0.0988127 0)
(-2.82019 0.120728 0)
(-2.99598 0.087629 0)
(-3.13431 -0.0368264 0)
(-3.28093 -0.0273189 0)
(-3.36758 -0.0496428 0)
(-3.40788 -0.0941819 0)
(-3.48621 0.0348156 0)
(-3.66877 0.137314 0)
(-3.88487 0.0896176 0)
(-4.07295 -0.0534059 0)
(-4.3051 -0.0958173 0)
(-4.50465 0.057617 0)
(-4.71072 0.1444 0)
(-4.92664 0.164371 0)
(-5.15098 0.159305 0)
(-5.38195 0.137086 0)
(-5.61449 0.132275 0)
(-5.82627 0.172198 0)
(-5.99167 0.228113 0)
(-6.14599 0.259877 0)
(-6.325 0.404104 0)
(-6.62602 0.538161 0)
(-6.98686 0.630956 0)
(-7.34719 0.720365 0)
(-7.73419 0.797957 0)
(-8.17459 0.783873 0)
(-8.65636 0.662577 0)
(-9.13295 0.467505 0)
(-9.48369 0.198223 0)
(-9.72222 0.030585 0)
(-9.91113 -0.00385037 0)
(-10.0124 0.0418818 0)
(-10.0538 -0.00144491 0)
(-10.0459 -0.048923 0)
(-10.0662 0.00954647 0)
(-10.1251 -0.144785 0)
(-10.1659 -0.255945 0)
(-10.1347 -0.353839 0)
(-10.0604 -0.399683 0)
(-9.9714 -0.381075 0)
(-9.90421 -0.270991 0)
(-9.94383 -0.199827 0)
(-10.0117 -0.139308 0)
(-10.0007 -0.115834 0)
(-9.99661 -0.195497 0)
(-10.0693 -0.232319 0)
(-10.1449 -0.284605 0)
(-10.1725 -0.306124 0)
(-10.1664 -0.261595 0)
(-10.1663 -0.0213969 0)
(-10.4267 0.429446 0)
(-10.9867 0.597127 0)
(-11.5885 0.677213 0)
(-12.1977 0.764175 0)
(-12.8075 0.871334 0)
(-13.4194 0.992776 0)
(-14.0424 1.10689 0)
(-14.6796 1.17606 0)
(-15.3226 1.18564 0)
(-15.9651 1.16736 0)
(-16.6037 1.11304 0)
(-17.2179 0.997569 0)
(-17.8059 0.90328 0)
(-18.3505 0.821623 0)
(-18.8221 0.740358 0)
(-19.2175 0.70621 0)
(-19.5225 0.694508 0)
(-19.7278 0.670276 0)
(-19.8656 0.604962 0)
(-19.9435 0.514105 0)
(-20.0051 0.464091 0)
(-19.9791 0.372105 0)
(-19.945 0.236061 0)
(-19.8982 0.12823 0)
(-19.8069 -0.00933088 0)
(-19.6075 -0.132687 0)
(-19.4736 -0.332207 0)
(-19.2124 -0.501787 0)
(-18.8128 -0.622636 0)
(-18.3241 -0.655746 0)
(-17.8104 -0.669868 0)
(-17.3121 -0.648302 0)
(-16.9038 -0.672584 0)
(-16.5893 -0.704758 0)
(-16.2749 -0.730166 0)
(-15.9289 -0.750339 0)
(-15.5532 -0.769079 0)
(-15.1508 -0.788383 0)
(-14.7249 -0.814057 0)
(-14.2776 -0.844033 0)
(-13.8113 -0.88778 0)
(-13.3254 -0.935902 0)
(-12.8219 -0.972372 0)
(-12.3058 -0.995673 0)
(-11.7812 -1.01005 0)
(-11.2509 -1.03258 0)
(-10.7127 -1.0557 0)
(-10.1691 -1.09231 0)
(-9.60896 -1.19345 0)
(-9.00179 -1.46677 0)
(-8.17711 -1.78079 0)
(-7.13038 -1.91966 0)
(-6.03736 -2.03322 0)
(-4.96899 -1.91872 0)
(-3.96881 -1.64555 0)
(-3.00074 -1.36983 0)
(-2.03913 -1.2405 0)
(-1.06225 -1.16375 0)
(-0.105174 -1.13675 0)
(0.792155 -1.18318 0)
(1.60838 -1.26774 0)
(2.34147 -1.40439 0)
(3.01496 -1.55715 0)
(3.68555 -1.70416 0)
(4.39924 -1.76517 0)
(5.17173 -1.74802 0)
(5.99433 -1.63181 0)
(6.83026 -1.4191 0)
(7.65304 -1.16235 0)
(8.46868 -0.934473 0)
(9.25868 -0.726638 0)
(10.0078 -0.571681 0)
(10.6849 -0.467228 0)
(11.1856 -0.33141 0)
(11.4527 -0.248513 0)
(11.4752 -0.107962 0)
(11.3974 -0.0129293 0)
(11.3078 0.0937131 0)
(11.2545 0.248355 0)
(11.1888 0.390291 0)
(11.0497 0.464352 0)
(10.8303 0.493022 0)
(10.4946 0.547401 0)
(10.0272 0.652123 0)
(9.43808 0.805178 0)
(8.73978 0.969459 0)
(7.94555 1.09401 0)
(7.10079 1.13391 0)
(6.28696 1.04026 0)
(5.58128 0.875104 0)
(5.00548 0.710994 0)
(4.48998 0.593047 0)
(3.97754 0.536294 0)
(3.46032 0.614587 0)
(2.86455 0.6918 0)
(2.15684 0.730382 0)
(1.37995 0.726443 0)
(0.604489 0.76016 0)
(-0.117391 0.841587 0)
(-0.769514 0.945214 0)
(-1.3567 1.04278 0)
(-1.88991 1.08106 0)
(-2.36242 1.09002 0)
(-2.78759 1.06101 0)
(-3.17065 0.948834 0)
(-3.51869 0.859257 0)
(-3.81049 0.736956 0)
(-4.05092 0.616428 0)
(-4.23936 0.50026 0)
(-4.37991 0.358409 0)
(-4.3992 0.128712 0)
(-4.28008 -0.0646727 0)
(-4.08672 -0.237694 0)
(-3.82226 -0.384897 0)
(-3.51017 -0.53729 0)
(-3.13654 -0.631124 0)
(-2.70726 -0.693312 0)
(-2.21205 -0.726007 0)
(-1.64968 -0.723712 0)
(-1.02592 -0.699542 0)
(-0.367197 -0.645763 0)
(0.3008 -0.614268 0)
(0.929174 -0.607219 0)
(1.44164 -0.634394 0)
(1.77628 -0.683838 0)
(1.9694 -0.68896 0)
(2.09328 -0.664498 0)
(2.18072 -0.604052 0)
(2.2149 -0.498057 0)
(2.17816 -0.377107 0)
(2.1625 -0.179273 0)
(2.12638 -0.0617856 0)
(2.04072 0.0371815 0)
(1.87683 0.104429 0)
(1.63628 0.139279 0)
(1.33545 0.185821 0)
(0.991291 0.232152 0)
(0.616724 0.306645 0)
(0.212997 0.370154 0)
(-0.210943 0.421539 0)
(-0.646496 0.463857 0)
(-1.08405 0.501534 0)
(-1.51584 0.53183 0)
(-1.93589 0.555298 0)
(-2.34034 0.571366 0)
(-2.72979 0.585549 0)
(-3.10982 0.598491 0)
(-3.48268 0.606189 0)
(-3.84854 0.615767 0)
(-4.20837 0.621646 0)
(-4.56313 0.616226 0)
(-4.91641 0.601022 0)
(-5.26992 0.573451 0)
(-5.63967 0.543301 0)
(-5.93295 0.464809 0)
(-6.15076 0.421688 0)
(-6.31318 0.381429 0)
(-6.55283 0.340464 0)
(-6.71063 0.244738 0)
(-6.85136 0.1977 0)
(-6.95425 0.165895 0)
(-7.0432 0.124725 0)
(-7.11584 0.0807636 0)
(-7.17029 0.0233532 0)
(-7.20308 -0.0320488 0)
(-7.22743 -0.0581897 0)
(-7.24558 -0.0660818 0)
(-7.26065 -0.0657144 0)
(-7.27512 -0.0711045 0)
(-7.28325 -0.0877658 0)
(-7.29329 -0.100931 0)
(-7.3008 -0.119884 0)
(-7.30369 -0.154476 0)
(-7.30341 -0.182915 0)
(-7.30601 -0.19072 0)
(-7.30917 -0.195278 0)
(-7.3125 -0.192462 0)
(-7.31876 -0.18708 0)
(-7.32591 -0.210459 0)
(-7.33367 -0.199769 0)
(-7.34971 -0.185652 0)
(-7.37014 -0.154658 0)
(-7.3889 -0.102887 0)
(-7.42325 -0.047035 0)
(-7.44588 0.02728 0)
(-7.54676 0.0695657 0)
(-7.71236 0.167985 0)
(-7.9128 0.248408 0)
(-8.15163 0.362968 0)
(-8.42244 0.451884 0)
(-8.7214 0.534451 0)
(-9.04894 0.603345 0)
(-9.39105 0.652122 0)
(-9.73861 0.697467 0)
(-10.0697 0.722717 0)
(-10.3711 0.749051 0)
(-10.6368 0.758512 0)
(-10.8661 0.747078 0)
(-11.0591 0.709236 0)
(-11.2208 0.646484 0)
(-11.3554 0.571776 0)
(-11.4396 0.485548 0)
(-11.4507 0.376714 0)
(-11.4257 0.274383 0)
(-11.4122 0.104669 0)
(-11.32 -0.0691016 0)
(-11.1891 -0.238047 0)
(-10.982 -0.379284 0)
(-10.6933 -0.430506 0)
(-10.4009 -0.401947 0)
(-10.1201 -0.446503 0)
(-9.8256 -0.498144 0)
(-9.52536 -0.538714 0)
(-9.219 -0.614736 0)
(-8.88287 -0.675302 0)