/*--------------------------------*- C++ -*----------------------------------*\
| =========                 |                                                 |
| \\      /  F ield         | OpenFOAM: The Open Source CFD Toolbox           |
|  \\    /   O peration     | Version:  v1812                                 |
|   \\  /    A nd           | Web:      www.OpenFOAM.com                      |
|    \\/     M anipulation  |                                                 |
\*---------------------------------------------------------------------------*/
FoamFile
{
    version     2.0;
    format      ascii;
    class       volScalarField;
    location    "0";
    object      T;
}
// * * * * * * * * * * * * * * * * * * * * * * * * * * * * * * * * * * * * * //

dimensions      [0 0 0 1 0 0 0];


internalField   nonuniform List<scalar> 
8000
(
0.009344119235958
0.009344119235958
0.009344119235958
0.009344119235958
0.009344119235958
0.009344119235958
0.009344119235958
0.009344119235958
0.009344119235958
0.009344119235958
0.009344119235958
0.009344119235958
0.009344119235958
0.009344119235958
0.009344119235958
0.009344119235958
0.009344119235958
0.009344119235958
0.009344119235958
0.009344119235958
0.009344119235958
0.009344119235958
0.009344119235958
0.009344119235958
0.009344119235958
0.009344119235958
0.009344119235958
0.009344119235958
0.009344119235958
0.009344119235958
0.009344119235958
0.009344119235958
0.009344119235958
0.009344119235958
0.009344119235958
0.009344119235958
0.009344119235958
0.009344119235958
0.009344119235958
0.009344119235958
0.009344119235958
0.009344119235958
0.009344119235958
0.009344119235958
0.009344119235958
0.009344119235958
0.009344119235958
0.009344119235958
0.009344119235958
0.009344119235958
0.009344119235958
0.009344119235958
0.009344119235958
0.009344119235958
0.009344119235958
0.009344119235958
0.009344119235958
0.009344119235958
0.009344119235958
0.009344119235958
0.009344119235958
0.009344119235958
0.009344119235958
0.009344119235958
0.009344119235958
0.009344119235958
0.009344119235958
0.009344119235958
0.009344119235958
0.009344119235958
0.009344119235958
0.009344119235958
0.009344119235958
0.009344119235958
0.009344119235958
0.009344119235958
0.009344119235958
0.009344119235958
0.009344119235958
0.009344119235958
0.009344119235958
0.009344119235958
0.009344119235958
0.009344119235958
0.009344119235958
0.009344119235958
0.009344119235958
0.009344119235958
0.009344119235958
0.009344119235958
0.009344119235958
0.009344119235958
0.009344119235958
0.009344119235958
0.009344119235958
0.009344119235958
0.009344119235958
0.009344119235958
0.009344119235958
0.009344119235958
0.009344119235958
0.009344119235958
0.009344119235958
0.009344119235958
0.009344119235958
0.009344119235958
0.009344119235958
0.009344119235958
0.009344119235958
0.009344119235958
0.009344119235958
0.009344119235958
0.009344119235958
0.009344119235958
0.009344119235958
0.009344119235958
0.009344119235958
0.009344119235958
0.009344119235958
0.009344119235958
0.009344119235958
0.009344119235958
0.009344119235958
0.009344119235958
0.009344119235958
0.009344119235958
0.009344119235958
0.009344119235958
0.009344119235958
0.009344119235958
0.009344119235958
0.009344119235958
0.009344119235958
0.009344119235958
0.009344119235958
0.009344119235958
0.009344119235958
0.009344119235958
0.009344119235958
0.009344119235958
0.009344119235958
0.009344119235958
0.009344119235958
0.009344119235958
0.009344119235958
0.009344119235958
0.009344119235958
0.009344119235958
0.009344119235958
0.009344119235958
0.009344119235958
0.009344119235958
0.009344119235958
0.009344119235958
0.009344119235958
0.009344119235958
0.009344119235958
0.009344119235958
0.009344119235958
0.009344119235958
0.009344119235958
0.009344119235958
0.009344119235958
0.009344119235958
0.009344119235958
0.009344119235958
0.009344119235958
0.009344119235958
0.009344119235958
0.009344119235958
0.009344119235958
0.009344119235958
0.009344119235958
0.009344119235958
0.009344119235958
0.009344119235958
0.009344119235958
0.009344119235958
0.009344119235958
0.009344119235958
0.009344119235958
0.009344119235958
0.009344119235958
0.009344119235958
0.009344119235958
0.009344119235958
0.009344119235958
0.009344119235958
0.009344119235958
0.009344119235958
0.009344119235958
0.009344119235958
0.009344119235958
0.009344119235958
0.009344119235958
0.009344119235958
0.009344119235958
0.009344119235958
0.009344119235958
0.009344119235958
0.009344119235958
0.009344119235958
0.009344119235958
0.009344119235958
0.009344119235958
0.009344119235958
0.009344119235958
0.009344119235958
0.009344119235958
0.009344119235958
0.009344119235958
0.009344119235958
0.009344119235958
0.009344119235958
0.009344119235958
0.009344119235958
0.009344119235958
0.009344119235958
0.009344119235958
0.009344119235958
0.009344119235958
0.009344119235958
0.009344119235958
0.009344119235958
0.009344119235958
0.009344119235958
0.009344119235958
0.009344119235958
0.009344119235958
0.009344119235958
0.009344119235958
0.009344119235958
0.009344119235958
0.009344119235958
0.009344119235958
0.009344119235958
0.009344119235958
0.009344119235958
0.009344119235958
0.009344119235958
0.009344119235958
0.009344119235958
0.009344119235958
0.009344119235958
0.009344119235958
0.009344119235958
0.009344119235958
0.009344119235958
0.009344119235958
0.009344119235958
0.009344119235958
0.009344119235958
0.009344119235958
0.009344119235958
0.009344119235958
0.009344119235958
0.009344119235958
0.009344119235958
0.009344119235958
0.009344119235958
0.009344119235958
0.009344119235958
0.009344119235958
0.009344119235958
0.009344119235958
0.009344119235958
0.009344119235958
0.009344119235958
0.009344119235958
0.009344119235958
0.009344119235958
0.009344119235958
0.009344119235958
0.009344119235958
0.009344119235958
0.009344119235958
0.009344119235958
0.009344119235958
0.009344119235958
0.009344119235958
0.009344119235958
0.009344119235958
0.009344119235958
0.009344119235958
0.009344119235958
0.009344119235958
0.009344119235958
0.009344119235958
0.009344119235958
0.009344119235958
0.009344119235958
0.009344119235958
0.009344119235958
0.009344119235958
0.009344119235958
0.009344119235958
0.009344119235958
0.009344119235958
0.009344119235958
0.009344119235958
0.009344119235958
0.009344119235958
0.009344119235958
0.009344119235958
0.009344119235958
0.009344119235958
0.009344119235958
0.009344119235958
0.009344119235958
0.009344119235958
0.009344119235958
0.009344119235958
0.009344119235958
0.009344119235958
0.009344119235958
0.009344119235958
0.009344119235958
0.009344119235958
0.009344119235958
0.009344119235958
0.009344119235958
0.009344119235958
0.009344119235958
0.009344119235958
0.009344119235958
0.009344119235958
0.009344119235958
0.009344119235958
0.009344119235958
0.009344119235958
0.009344119235958
0.009344119235958
0.009344119235958
0.009344119235958
0.009344119235958
0.009344119235958
0.009344119235958
0.009344119235958
0.009344119235958
0.009344119235958
0.009344119235958
0.009344119235958
0.009344119235958
0.009344119235958
0.009344119235958
0.009344119235958
0.009344119235958
0.009344119235958
0.009344119235958
0.009344119235958
0.009344119235958
0.009344119235958
0.009344119235958
0.009344119235958
0.009344119235958
0.009344119235958
0.009344119235958
0.009344119235958
0.009344119235958
0.009344119235958
0.009344119235958
0.009344119235958
0.009344119235958
0.009344119235958
0.009344119235958
0.009344119235958
0.009344119235958
0.009344119235958
0.009344119235958
0.009344119235958
0.009344119235958
0.009344119235958
0.009344119235958
0.009344119235958
0.009344119235958
0.009344119235958
0.009344119235958
0.009344119235958
0.009344119235958
0.009344119235958
0.009344119235958
0.009344119235958
0.009344119235958
0.009344119235958
0.009344119235958
0.009344119235958
0.009344119235958
0.009344119235958
0.009344119235958
0.009344119235958
0.009344119235958
0.009344119235958
0.009344119235958
0.009344119235958
0.009344119235958
0.009344119235958
0.009344119235958
0.009344119235958
0.009344119235958
0.009344119235958
0.009344119235958
0.009344119235958
0.009344119235958
0.009344119235958
0.009344119235958
0.009344119235958
0.009344119235958
0.009344119235958
0.009344119235958
0.009344119235958
0.009344119235958
0.009344119235958
0.009344119235958
0.009344119235958
0.009344119235958
0.009344119235958
0.009344119235958
0.009344119235958
0.009344119235958
0.009344119235958
0.009344119235958
0.009344119235958
0.009344119235958
0.009344119235958
0.009344119235958
0.009344119235958
0.009344119235958
0.009344119235958
0.009344119235958
0.009344119235958
0.009344119235958
0.009344119235958
0.009344119235958
0.009344119235958
0.009344119235958
0.009344119235958
0.009344119235958
0.009344119235958
0.009344119235958
0.009344119235958
0.009344119235958
0.009344119235958
0.009344119235958
0.009344119235958
0.009344119235958
0.009344119235958
0.009344119235958
0.009344119235958
0.009344119235958
0.009344119235958
0.009344119235958
0.009344119235958
0.009344119235958
0.009344119235958
0.009344119235958
0.009344119235958
0.009344119235958
0.009344119235958
0.009344119235958
0.009344119235958
0.009344119235958
0.009344119235958
0.009344119235958
0.009344119235958
0.009344119235958
0.009344119235958
0.009344119235958
0.009344119235958
0.009344119235958
0.009344119235958
0.009344119235958
0.009344119235958
0.009344119235958
0.009344119235958
0.009344119235958
0.009344119235958
0.009344119235958
0.009344119235958
0.009344119235958
0.009344119235958
0.009344119235958
0.009344119235958
0.009344119235958
0.009344119235958
0.009344119235958
0.009344119235958
0.009344119235958
0.009344119235958
0.009344119235958
0.009344119235958
0.009344119235958
0.009344119235958
0.009344119235958
0.009344119235958
0.009344119235958
0.009344119235958
0.009344119235958
0.009344119235958
0.009344119235958
0.009344119235958
0.009344119235958
0.009344119235958
0.009344119235958
0.009344119235958
0.009344119235958
0.009344119235958
0.009344119235958
0.009344119235958
0.009344119235958
0.009344119235958
0.009344119235958
0.009344119235958
0.009344119235958
0.009344119235958
0.009344119235958
0.009344119235958
0.009344119235958
0.009344119235958
0.009344119235958
0.009344119235958
0.009344119235958
0.009344119235958
0.009344119235958
0.009344119235958
0.009344119235958
0.009344119235958
0.009344119235958
0.009344119235958
0.009344119235958
0.009344119235958
0.009344119235958
0.009344119235958
0.009344119235958
0.009344119235958
0.009344119235958
0.009344119235958
0.009344119235958
0.009344119235958
0.009344119235958
0.009344119235958
0.009344119235958
0.009344119235958
0.009344119235958
0.009344119235958
0.009344119235958
0.009344119235958
0.009344119235958
0.009344119235958
0.009344119235958
0.009344119235958
0.009344119235958
0.009344119235958
0.009344119235958
0.009344119235958
0.009344119235958
0.009344119235958
0.009344119235958
0.009344119235958
0.009344119235958
0.009344119235958
0.009344119235958
0.009344119235958
0.009344119235958
0.009344119235958
0.009344119235958
0.009344119235958
0.009344119235958
0.009344119235958
0.009344119235958
0.009344119235958
0.009344119235958
0.009344119235958
0.009344119235958
0.009344119235958
0.009344119235958
0.009344119235958
0.009344119235958
0.009344119235958
0.009344119235958
0.009344119235958
0.009344119235958
0.009344119235958
0.009344119235958
0.009344119235958
0.009344119235958
0.009344119235958
0.009344119235958
0.009344119235958
0.009344119235958
0.009344119235958
0.009344119235958
0.009344119235958
0.009344119235958
0.009344119235958
0.009344119235958
0.009344119235958
0.009344119235958
0.009344119235958
0.009344119235958
0.009344119235958
0.009344119235958
0.009344119235958
0.009344119235958
0.009344119235958
0.009344119235958
0.009344119235958
0.009344119235958
0.009344119235958
0.009344119235958
0.009344119235958
0.009344119235958
0.009344119235958
0.009344119235958
0.009344119235958
0.009344119235958
0.009344119235958
0.009344119235958
0.009344119235958
0.009344119235958
0.009344119235958
0.009344119235958
0.009344119235958
0.009344119235958
0.009344119235958
0.009344119235958
0.009344119235958
0.009344119235958
0.009344119235958
0.009344119235958
0.009344119235958
0.009344119235958
0.009344119235958
0.009344119235958
0.009344119235958
0.009344119235958
0.009344119235958
0.009344119235958
0.009344119235958
0.009344119235958
0.009344119235958
0.009344119235958
0.009344119235958
0.009344119235958
0.009344119235958
0.009344119235958
0.009344119235958
0.009344119235958
0.009344119235958
0.009344119235958
0.009344119235958
0.009344119235958
0.009344119235958
0.009344119235958
0.009344119235958
0.009344119235958
0.009344119235958
0.009344119235958
0.009344119235958
0.009344119235958
0.009344119235958
0.009344119235958
0.009344119235958
0.009344119235958
0.009344119235958
0.009344119235958
0.009344119235958
0.009344119235958
0.009344119235958
0.009344119235958
0.009344119235958
0.009344119235958
0.009344119235958
0.009344119235958
0.009344119235958
0.009344119235958
0.009344119235958
0.009344119235958
0.009344119235958
0.009344119235958
0.009344119235958
0.009344119235958
0.009344119235958
0.009344119235958
0.009344119235958
0.009344119235958
0.009344119235958
0.009344119235958
0.009344119235958
0.009344119235958
0.009344119235958
0.009344119235958
0.009344119235958
0.009344119235958
0.009344119235958
0.009344119235958
0.009344119235958
0.009344119235958
0.009344119235958
0.009344119235958
0.009344119235958
0.009344119235958
0.009344119235958
0.009344119235958
0.009344119235958
0.009344119235958
0.009344119235958
0.009344119235958
0.009344119235958
0.009344119235958
0.009344119235958
0.009344119235958
0.009344119235958
0.009344119235958
0.009344119235958
0.009344119235958
0.009344119235958
0.009344119235958
0.009344119235958
0.009344119235958
0.009344119235958
0.009344119235958
0.009344119235958
0.009344119235958
0.009344119235958
0.009344119235958
0.009344119235958
0.009344119235958
0.009344119235958
0.009344119235958
0.009344119235958
0.009344119235958
0.009344119235958
0.009344119235958
0.009344119235958
0.009344119235958
0.009344119235958
0.009344119235958
0.009344119235958
0.009344119235958
0.009344119235958
0.009344119235958
0.009344119235958
0.009344119235958
0.009344119235958
0.009344119235958
0.009344119235958
0.009344119235958
0.009344119235958
0.009344119235958
0.009344119235958
0.009344119235958
0.009344119235958
0.009344119235958
0.009344119235958
0.009344119235958
0.009344119235958
0.009344119235958
0.009344119235958
0.009344119235958
0.009344119235958
0.009344119235958
0.009344119235958
0.009344119235958
0.009344119235958
0.009344119235958
0.009344119235958
0.009344119235958
0.009344119235958
0.009344119235958
0.009344119235958
0.009344119235958
0.009344119235958
0.009344119235958
0.009344119235958
0.009344119235958
0.009344119235958
0.009344119235958
0.009344119235958
0.009344119235958
0.009344119235958
0.009344119235958
0.009344119235958
0.009344119235958
0.009344119235958
0.009344119235958
0.009344119235958
0.009344119235958
0.009344119235958
0.009344119235958
0.009344119235958
0.009344119235958
0.009344119235958
0.009344119235958
0.009344119235958
0.009344119235958
0.009344119235958
0.009344119235958
0.009344119235958
0.009344119235958
0.009344119235958
0.004265671423478
0.004262974832253
0.004260244690997
0.004257481241572
0.004254684728104
0.004251855396939
0.004248993496594
0.004246099277715
0.004243172993029
0.004240214897296
0.004237225247267
0.004234204301631
0.004231152320977
0.004228069567739
0.004224956306152
0.004221812802208
0.004218639323607
0.004215436139707
0.004212203521482
0.004208941741474
0.004205651073742
0.004202331793822
0.004198984178673
0.004195608506636
0.004192205057383
0.004188774111873
0.004185315952306
0.004181830862073
0.004178319125712
0.004174781028864
0.004171216858222
0.004167626901489
0.004164011447332
0.004160370785333
0.004156705205949
0.004153015000463
0.004149300460939
0.004145561880179
0.00414179955168
0.004138013769585
0.004134204828643
0.004130373024164
0.004126518651976
0.004122642008381
0.004118743390114
0.004114823094297
0.004110881418401
0.004106918660203
0.00410293511774
0.004098931089274
0.004094906873248
0.004090862768247
0.004086799072955
0.004082716086118
0.004078614106505
0.004074493432864
0.00407035436389
0.004066197198184
0.004062022234214
0.004057829770278
0.004053620104469
0.004049393534635
0.004045150358348
0.004040890872862
0.004036615375082
0.004032324161528
0.004028017528302
0.00402369577105
0.004019359184933
0.004015008064591
0.004010642704113
0.004006263397002
0.004001870436145
0.003997464113783
0.003993044721477
0.003988612550081
0.003984167889709
0.00397971102971
0.003975242258635
0.003970761864212
0.003966270133316
0.003961767351941
0.003957253805176
0.003952729777177
0.003948195551141
0.00394365140928
0.003939097632797
0.003934534501863
0.00392996229559
0.00392538129201
0.003920791768049
0.003916193999509
0.003911588261042
0.003906974826132
0.00390235396707
0.003897725954936
0.00389309105958
0.003888449549598
0.00388380169232
0.003879147753783
0.003874487998719
0.003869822690535
0.003865152091298
0.003860476461712
0.003855796061111
0.003851111147436
0.003846421977221
0.003841728805582
0.003837031886196
0.003832331471295
0.003827627811644
0.003822921156536
0.003818211753771
0.003813499849652
0.003808785688968
0.003804069514985
0.003799351569432
0.003794632092495
0.003789911322805
0.003785189497425
0.003780466851847
0.003775743619979
0.003771020034136
0.003766296325037
0.003761572721791
0.003756849451893
0.003752126741219
0.003747404814014
0.003742683892893
0.00373796419883
0.003733245951154
0.003728529367545
0.003723814664029
0.003719102054972
0.00371439175308
0.003709683969391
0.003704978913277
0.003700276792434
0.003695577812886
0.003690882178982
0.003686190093388
0.003681501757094
0.003676817369407
0.003672137127952
0.003667461228671
0.003662789865823
0.003658123231985
0.00365346151805
0.003648804913228
0.003644153605049
0.003639507779362
0.003634867620337
0.003630233310467
0.003625605030568
0.003620982959785
0.003616367275591
0.003611758153792
0.003607155768527
0.003602560292274
0.003597971895853
0.003593390748426
0.003588817017508
0.003584250868964
0.003579692467017
0.003575141974252
0.003570599551619
0.00356606535844
0.003561539552413
0.003557022289619
0.003552513724525
0.003548014009989
0.003543523297271
0.003539041736034
0.003534569474349
0.00353010665871
0.003525653434029
0.003521209943651
0.003516776329358
0.003512352731375
0.00350793928838
0.003503536137508
0.00349914341436
0.00349476125301
0.003490389786015
0.003486029144419
0.003481679457763
0.003477340854092
0.003473013459967
0.003468697400467
0.003464392799202
0.003460099778319
0.003455818458512
0.003451548959031
0.003447291397689
0.003443045890873
0.003438812553549
0.003434591499277
0.003430382840215
0.003426186687131
0.00342200314941
0.003417832335065
0.003413674350746
0.003409529301751
0.00340539729203
0.003401278424203
0.00339717279956
0.003393080518081
0.003389001678437
0.003384936378003
0.00338088471287
0.00337684677785
0.003372822666492
0.003368812471087
0.003364816282678
0.003360834191073
0.003356866284854
0.003352912651386
0.003348973376827
0.003345048546139
0.003341138243098
0.003337242550304
0.003333361549189
0.003329495320033
0.003325643941966
0.003321807492984
0.003317986049959
0.003314179688646
0.003310388483695
0.00330661250866
0.003302851836013
0.003299106537149
0.003295376682398
0.003291662341037
0.003287963581298
0.003284280470378
0.003280613074452
0.003276961458678
0.003273325687212
0.003269705823216
0.003266101928867
0.003262514065368
0.00325894229296
0.003255386670927
0.003251847257611
0.00324832411042
0.003244817285836
0.003241326839428
0.003237852825859
0.003234395298898
0.003230954311429
0.003227529915461
0.003224122162136
0.00322073110174
0.003217356783713
0.003213999256659
0.003210658568352
0.003207334765752
0.003204027895006
0.003200738001465
0.003197465129689
0.003194209323459
0.003190970625782
0.003187749078908
0.003184544724328
0.003181357602794
0.003178187754323
0.003175035218204
0.003171900033011
0.003168782236612
0.003165681866173
0.003162598958174
0.00315953354841
0.003156485672006
0.003153455363423
0.003150442656466
0.003147447584295
0.003144470179431
0.003141510473766
0.00313856849857
0.0031356442845
0.003132737861611
0.00312984925936
0.003126978506614
0.003124125631663
0.003121290662225
0.003118473625451
0.00311567454794
0.003112893455741
0.003110130374362
0.00310738532878
0.003104658343447
0.003101949442296
0.003099258648753
0.003096585985742
0.00309393147569
0.003091295140539
0.003088677001751
0.003086077080314
0.003083495396754
0.003080931971135
0.003078386823073
0.003075859971739
0.003073351435867
0.003070861233761
0.003068389383302
0.003065935901956
0.003063500806776
0.003061084114417
0.003058685841134
0.003056306002792
0.003053944614876
0.003051601692493
0.003049277250377
0.003046971302902
0.003044683864081
0.003042414947577
0.003040164566708
0.003037932734452
0.003035719463453
0.003033524766028
0.003031348654173
0.003029191139568
0.003027052233583
0.003024931947285
0.00302283029144
0.003020747276523
0.003018682912722
0.003016637209942
0.003014610177812
0.003012601825689
0.003010612162665
0.003008641197572
0.003006688938986
0.003004755395232
0.003002840574391
0.003000944484304
0.002999067132575
0.002997208526579
0.002995368673467
0.002993547580165
0.002991745253387
0.002989961699635
0.002988196925202
0.002986450936181
0.002984723738467
0.002983015337762
0.002981325739577
0.002979654949241
0.002978002971902
0.002976369812532
0.00297475547593
0.00297315996673
0.002971583289398
0.002970025448244
0.002968486447421
0.002966966290929
0.002965464982623
0.00296398252621
0.002962518925258
0.002961074183199
0.002959648303331
0.002958241288821
0.002956853142713
0.002955483867926
0.002954133467258
0.002952801943396
0.002951489298909
0.00295019553626
0.002948920657806
0.002947664665798
0.00294642756239
0.002945209349637
0.002944010029502
0.002942829603855
0.002941668074481
0.002940525443076
0.002939401711256
0.002938296880557
0.002937210952438
0.002936143928284
0.002935095809406
0.002934066597049
0.00293305629239
0.002932064896541
0.002931092410554
0.00293013883542
0.002929204172073
0.002928288421393
0.002927391584207
0.002926513661291
0.002925654653373
0.002924814561134
0.002923993385213
0.002923191126203
0.00292240778466
0.002921643361101
0.002920897856003
0.002920171269812
0.00291946360294
0.002918774855767
0.002918105028642
0.002917454121888
0.002916822135801
0.00291620907065
0.002915614926683
0.002915039704124
0.002914483403177
0.002913946024027
0.002913427566838
0.002912928031761
0.002912447418929
0.00291198572846
0.002911542960459
0.00291111911502
0.002910714192224
0.002910328192142
0.002909961114835
0.002909612960357
0.002909283728752
0.002908973420058
0.002908682034308
0.002908409571528
0.002908156031739
0.00290792141496
0.002907705721203
0.00290750895048
0.002907331102799
0.002907172178166
0.002907032176585
0.002906911098059
0.00290680894259
0.00290672571018
0.002906661400828
0.002906616014536
0.002906589551303
0.002906582011129
0.002906593394014
0.002906623699959
0.002906672928963
0.002906741081026
0.002906828156149
0.002906934154329
0.002907059075566
0.002907202919857
0.0029073656872
0.00290754737759
0.00290774799102
0.002907967527482
0.002908205986964
0.002908463369452
0.002908739674928
0.002909034903368
0.002909349054746
0.002909682129028
0.002910034126176
0.002910405046141
0.00291079488887
0.002911203654299
0.002911631342356
0.002912077952956
0.002912543486004
0.002913027941393
0.002913531319
0.00291405361869
0.00291459484031
0.00291515498369
0.002915734048643
0.002916332034959
0.002916948942411
0.002917584770747
0.002918239519691
0.002918913188943
0.002919605778175
0.002920317287031
0.002921047715125
0.002921797062037
0.002922565327318
0.00292335251048
0.002924158610999
0.002924983628312
0.002925827561817
0.002926690410866
0.00292757217477
0.00292847285279
0.002929392444139
0.002930330947982
0.002931288363426
0.002932264689527
0.002933259925281
0.002934274069624
0.002935307121432
0.002936359079513
0.00293742994261
0.002938519709397
0.002939628378472
0.002940755948364
0.002941902417519
0.002943067784305
0.002944252047009
0.002945455203828
0.002946677252874
0.002947918192166
0.002949178019628
0.002950456733087
0.002951754330271
0.002953070808801
0.002954406166194
0.002955760399856
0.002957133507079
0.00295852548504
0.002959936330793
0.002961366041273
0.002962814613285
0.002964282043503
0.002965768328469
0.002967273464588
0.00296879744812
0.002970340275184
0.002971901941747
0.002973482443626
0.00297508177648
0.002976699935808
0.002978336916943
0.002979992715051
0.002981667325125
0.00298336074198
0.002985072960253
0.002986803974391
0.002988553778654
0.002990322367109
0.002992109733622
0.002993915871856
0.002995740775269
0.002997584437103
0.002999446850387
0.003001328007924
0.003003227902294
0.003005146525845
0.003007083870688
0.003009039928692
0.003011014691482
0.00301300815043
0.003015020296652
0.003017051121004
0.003019100614071
0.003021168766171
0.00302325556734
0.003025361007334
0.003027485075619
0.003029627761367
0.003031789053452
0.003033968940439
0.003036167410587
0.003038384451834
0.003040620051797
0.003042874197764
0.003045146876689
0.003047438075185
0.003049747779518
0.003052075975603
0.003054422648992
0.003056787784876
0.003059171368072
0.00306157338302
0.003063993813774
0.003066432643998
0.003068889856959
0.003071365435519
0.00307385936213
0.003076371618823
0.00307890218721
0.003081451048467
0.003084018183333
0.003086603572104
0.003089207194619
0.003091829030262
0.003094469057948
0.003097127256119
0.003099803602734
0.003102498075265
0.003105210650688
0.003107941305475
0.003110690015588
0.003113456756468
0.003116241503032
0.003119044229661
0.003121864910197
0.003124703517929
0.00312756002559
0.003130434405348
0.003133326628798
0.00313623666695
0.003139164490228
0.003142110068457
0.003145073370854
0.003148054366025
0.003151053021949
0.003154069305978
0.003157103184821
0.003160154624539
0.00316322359054
0.003166310047561
0.003169413959669
0.003172535290246
0.003175674001983
0.003178830056871
0.003182003416192
0.003185194040507
0.003188401889653
0.003191626922729
0.003194869098087
0.003198128373328
0.003201404705287
0.003204698050026
0.003208008362824
0.003211335598171
0.003214679709753
0.003218040650448
0.003221418372313
0.003224812826575
0.003228223963624
0.003231651733
0.003235096083385
0.003238556962594
0.003242034317565
0.003245528094347
0.003249038238094
0.003252564693052
0.003256107402553
0.003259666308999
0.003263241353858
0.003266832477652
0.003270439619946
0.00327406271934
0.003277701713457
0.003281356538936
0.003285027131416
0.003288713425534
0.003292415354909
0.003296132852134
0.003299865848765
0.003303614275314
0.003307378061234
0.003311157134911
0.003314951423657
0.003318760853694
0.003322585350149
0.003326424837042
0.003330279237272
0.003334148472615
0.003338032463707
0.003341931130035
0.003345844389932
0.003349772160558
0.003353714357899
0.00335767089675
0.003361641690708
0.003365626652163
0.003369625692284
0.003373638721014
0.003377665647055
0.003381706377864
0.003385760819635
0.003389828877298
0.003393910454501
0.003398005453607
0.003402113775679
0.003406235320474
0.003410369986431
0.003414517670662
0.003418678268942
0.003422851675701
0.003427037784012
0.003431236485585
0.003435447670754
0.00343967122847
0.003443907046291
0.003448155010372
0.003452415005459
0.003456686914877
0.003460970620521
0.003465266002849
0.003469572940873
0.003473891312149
0.003478220992769
0.003482561857353
0.003486913779042
0.003491276629486
0.00349565027884
0.003500034595752
0.00350442944736
0.003508834699279
0.003513250215597
0.003517675858866
0.003522111490096
0.003526556968745
0.003531012152715
0.003535476898343
0.003539951060395
0.00354443449206
0.003548927044942
0.003553428569054
0.003557938912814
0.003562457923036
0.003566985444926
0.003571521322076
0.003576065396458
0.00358061750842
0.00358517749668
0.00358974519832
0.003594320448786
0.003598903081876
0.003603492929743
0.003608089822887
0.003612693590152
0.003617304058724
0.003621921054124
0.003626544400208
0.003631173919165
0.003635809431511
0.003640450756088
0.003645097710063
0.003649750108926
0.003654407766486
0.003659070494872
0.003663738104533
0.003668410404232
0.003673087201053
0.003677768300394
0.003682453505972
0.003687142619819
0.003691835442288
0.003696531772047
0.003701231406087
0.003705934139722
0.003710639766586
0.003715348078643
0.003720058866182
0.003724771917827
0.003729487020534
0.0037342039596
0.003738922518661
0.003743642479704
0.003748363623064
0.003753085727435
0.003757808569869
0.003762531925789
0.003767255568992
0.003771979271652
0.003776702804334
0.003781425935994
0.003786148433992
0.003790870064099
0.003795590590503
0.003800309775821
0.003805027381106
0.003809743165858
0.003814456888034
0.003819168304059
0.003823877168835
0.003828583235755
0.003833286256713
0.003837985982118
0.003842682160904
0.003847374540546
0.003852062867073
0.003856746885081
0.003861426337747
0.003866100966848
0.003870770512769
0.003875434714528
0.003880093309785
0.003884746034863
0.003889392624763
0.003894032813183
0.003898666332536
0.003903292913968
0.00390791228738
0.003912524181443
0.003917128323622
0.003921724440194
0.003926312256272
0.003930891495825
0.003935461881698
0.00394002313564
0.003944574978321
0.00394911712936
0.003953649307345
0.003958171229863
0.003962682613521
0.003967183173969
0.003971672625935
0.003976150683242
0.00398061705884
0.003985071464832
0.003989513612501
0.003993943212343
0.00399835997409
0.004002763606742
0.004007153818596
0.00401153031728
0.004015892809777
0.004020241002464
0.004024574601138
0.004028893311049
0.004033196836935
0.004037484883055
0.00404175715322
0.004046013350828
0.004050253178901
0.004054476340117
0.004058682536846
0.004062871471186
0.004067042845
0.004071196359953
0.004075331717545
0.004079448619156
0.004083546766076
0.004087625859547
0.004091685600805
0.004095725691111
0.004099745831799
0.004103745724309
0.004107725070232
0.00411168357135