/*--------------------------------*- C++ -*----------------------------------*\
| =========                 |                                                 |
| \\      /  F ield         | OpenFOAM: The Open Source CFD Toolbox           |
|  \\    /   O peration     | Version:  v1812                                 |
|   \\  /    A nd           | Web:      www.OpenFOAM.com                      |
|    \\/     M anipulation  |                                                 |
\*---------------------------------------------------------------------------*/
FoamFile
{
    version     2.0;
    format      ascii;
    class       volScalarField;
    location    "1.1";
    object      p;
}
// * * * * * * * * * * * * * * * * * * * * * * * * * * * * * * * * * * * * * //

dimensions      [1 -1 -2 0 0 0 0];


internalField   nonuniform List<scalar> 
20400
(
97726.1
97725.4
97723.8
97718.3
97718.1
97714.6
97711.2
97707
97702.5
97697.2
97691.5
97685.3
97678.4
97671.7
97663.6
97656.2
97648.6
97641.2
97633.8
97627
97618.7
97610.7
97603.1
97595.2
97588.1
97580.9
97572.8
97564.7
97556.7
97547.9
97538.7
97529.4
97520
97508.7
97498.1
97489.7
97479.7
97470
97461
97452.8
97443.9
97432.8
97425.2
97418.8
97411.3
97407.3
97404.4
97402.5
97401.3
97402.8
97405.6
97410.3
97415.7
97421.4
97428.7
97436.5
97444.5
97452
97459.2
97468.3
97476.2
97483.1
97489.3
97497.3
97501.8
97502.7
97508.8
97515.3
97518.4
97526
97528.1
97526.8
97522.5
97517.3
97514.6
97510.4
97507.3
97507.9
97507.5
97507
97502.4
97503.1
97508.7
97514.5
97525.3
97537.2
97549.3
97562.7
97575.1
97595.8
97614.9
97638.6
97658.2
97696.5
97733.9
97762
97793
97829.6
97867.6
97899.3
97932.6
97967.5
98003.2
98036.5
98070.9
98103.6
98131.7
98170.1
98184.7
98205
98232
98256.8
98261.2
98278.2
98293.5
98303
98308.9
98310.9
98313.8
98316.4
98325.6
98334.2
98324.9
98322
98315.9
98308.1
98299.5
98291.1
98281.7
98269.6
98265
98261.7
98249.2
98236.8
98228.8
98217.1
98208.6
98199.8
98187.8
98179.7
98175
98169.9
98165.4
98162.7
98160.7
98160.4
98161.4
98165.3
98168.7
98172.8
98178.1
98182.7
98187.3
98191.8
98196.7
98201.8
98206.3
98210.6
98213.9
98217.4
98220.6
98219.7
98218.2
98216.5
98214.8
98213.4
98211.7
98210.2
98208.8
98207.3
98205.6
98204.3
98202.7
98201
98199.4
98198
98196.3
98195.7
98195.5
98194.2
98194.3
98196.1
98197
98198
98199.4
98201.2
98203.3
98205
98207.9
98210.8
98213.8
98217.1
98220.5
98224
98227.7
98231.4
98235.1
98238.9
98242.7
98246.5
98250.2
98253.6
98256.8
98260.2
98263.4
98267.3
98271.3
98275.3
98282.4
98288.2
98293.6
98298.3
98302.5
98303.3
98307.6
98307
98304.4
98303.5
98304
98300.5
98304.3
98306.8
98308.9
98306.7
98305
98301.8
98295.5
98288.2
98280.5
98274.5
98267.5
98260.1
98249.8
98240.6
98231.7
98221.5
98210
98200.3
98192.2
98179.8
98174.4
98170
98163.3
98159.5
98157.4
98156.4
98157.8
98161.3
98164.3
98171.7
98178.6
98187.9
98195.9
98208.6
98223.2
98238.1
98252.8
98267.8
98284.5
98300.3
98312.6
98325.6
98342.4
98357.5
98368.8
98380.1
98390.5
98400.2
98409.5
98421.4
98431.3
98441
98450.6
98460.2
98470.7
98479.3
98489.2
98499
98508.3
98519.4
98529.4
98541.2
98552.1
98561.3
98577.1
98589.2
98598.9
98612.9
98627.2
98637.5
98652.1
98666.2
98678.9
98693.4
98708.3
98723.2
98738.8
98755.2
98771.9
98790
98809.4
98829.9
98851.1
98874.1
98897
98923.8
98950
98976.7
99005.9
99035
99065.5
99095.3
99125.8
99157
99187.7
99218.2
99247.8
99277.5
99309.1
99341.5
99374.1
99405.9
99437.3
99468.1
99497.8
99527.9
99558
99589.9
99620.8
99647.4
99674.4
99700.2
99725
99748.3
99771.1
99794.2
99818.5
99839.6
99857.7
99875.9
99894
99912.9
99928.6
99945.1
99960.3
99975.3
99990.3
100005
100019
100033
100047
100060
100073
100087
100098
100112
100125
100137
100151
100164
100176
100188
100202
100215
100227
100239
100253
100264
100276
100290
100304
100319
100330
100344
100358
100371
100384
100399
100411
100423
100437
100450
100464
100479
100494
100509
100523
100538
100554
100570
100585
100601
100617
100633
100649
100666
100682
100699
100715
100731
100748
100764
100780
100796
100812
100827
100843
100859
100874
100889
100904
100918
100932
100946
100960
100973
100986
100999
101011
101022
101034
101046
101057
101068
101078
101088
101098
101107
101116
101125
101132
101140
101147
101154
101161
101167
101173
101179
101184
101189
101193
101198
101202
101205
101208
101211
101214
101216
101218
101220
101221
101223
101224
101225
101226
101227
101227
101228
101228
101228
101228
101229
101229
101229
101229
101229
101230
101230
101230
101231
101231
101232
101233
101234
101235
101236
101237
101239
101241
101243
101245
101247
101250
101252
101255
101258
101262
101266
101269
101273
101278
101282
101287
101291
101296
101301
101306
101312
101317
101322
97731.3
97730
97729.3
97725.2
97724.5
97721.2
97717.6
97713.1
97707.9
97702.1
97695.1
97688.4
97681.7
97673.3
97665.8
97658
97649.8
97641.6
97633.3
97625.4
97617.3
97608.9
97600.7
97592.7
97584.2
97575
97566.7
97558.8
97551.3
97543.3
97535.2
97527.6
97519.8
97511.3
97502.7
97495.2
97486.3
97476.7
97467.3
97458.7
97449.1
97440.7
97434.2
97427
97419.8
97415
97410.1
97406
97401.9
97399.7
97399.9
97401.3
97402.8
97402.2
97409.6
97415.4
97423.1
97431
97439.7
97450.5
97462.9
97473.6
97482.9
97494
97503.7
97508.1
97511.6
97533.2
97537.2
97543.3
97547.7
97551.3
97553.8
97555.6
97559.5
97561.7
97557.3
97553.7
97552.1
97552
97545.7
97539.1
97537.9
97535.1
97536.5
97540.3
97546.8
97557.7
97568.4
97592.3
97613.4
97623
97631.1
97681.3
97722.5
97710.5
97728.3
97776.8
97822.5
97853.3
97885.4
97914.6
97937.9
97961.2
97986.1
98011.8
98038.3
98061.3
98100
98128.7
98156
98194.1
98218.6
98245
98269.4
98288.3
98303.9
98314.6
98324.9
98329.6
98324.3
98326.9
98325.4
98310.7
98309.4
98300.7
98294.6
98291.6
98290.9
98268.2
98252.1
98245.3
98224.8
98214.9
98210
98195.8
98186
98181.1
98176.2
98175.6
98173.4
98170.2
98166.3
98163.4
98160.6
98158.8
98161.1
98163.2
98165.8
98169.9
98176.5
98183.8
98191.1
98197.6
98200.5
98199.7
98200.3
98204
98208
98212.8
98218.3
98217.4
98216.4
98216.1
98215.8
98214.9
98213.3
98211.2
98209.5
98207.9
98206.6
98205.5
98204
98202.5
98201.2
98200
98198.5
98198.1
98198.3
98197.3
98196.2
98197.1
98198.6
98199.7
98201.1
98203.5
98205.8
98207.8
98210.7
98214
98217.1
98220.4
98224
98227.8
98231.6
98235.5
98239.4
98243.2
98247.1
98250.8
98254.5
98258
98261.3
98264.4
98267.2
98270.4
98273.5
98276.8
98281.6
98287.3
98293.6
98299.1
98303.2
98304.1
98307.1
98309.8
98310.3
98314.5
98314.6
98308.1
98310.4
98312.9
98316.3
98316.9
98317.9
98314.9
98308.5
98304.4
98298.8
98293.1
98286
98279.4
98270.3
98261.2
98252.4
98243.1
98232.5
98221.7
98211.9
98197.8
98189.8
98182.5
98172.7
98166.3
98160.4
98156.6
98155.4
98157.1
98157.5
98162.8
98169.8
98180.7
98190
98198.5
98206.7
98217
98227.8
98238.6
98251.8
98266.2
98279.2
98291.8
98309.2
98329
98344.7
98360.8
98376.7
98392.1
98407
98420.7
98430.8
98439.3
98447.6
98457.4
98469.7
98480
98490.6
98500.4
98510.5
98522.2
98533.4
98545.8
98557.1
98566.3
98580.9
98595.9
98607.1
98626.4
98642.2
98653.1
98665.2
98673.5
98683.5
98697.9
98712.4
98728.2
98743.6
98761
98778.3
98796.4
98814.6
98833.7
98853.7
98875.1
98896.4
98923.2
98947.4
98972.3
98998.7
99024.7
99055.7
99086.2
99116.7
99148.7
99182
99216.4
99251.8
99286.7
99319
99350
99376.3
99401.1
99426.5
99452.1
99477.1
99503.9
99531.3
99563.1
99601
99632.6
99663.6
99694.5
99724.3
99753
99780
99805.4
99827.2
99845.3
99859.7
99875.9
99893.2
99913.4
99930.3
99947.2
99962.4
99976.7
99991.8
100006
100020
100034
100048
100062
100075
100089
100101
100114
100128
100140
100152
100165
100177
100191
100205
100217
100229
100241
100254
100266
100278
100290
100301
100317
100330
100341
100357
100371
100385
100400
100413
100426
100440
100452
100466
100479
100494
100509
100524
100539
100555
100570
100585
100600
100615
100632
100648
100665
100682
100699
100716
100733
100750
100766
100782
100798
100814
100829
100844
100859
100873
100888
100901
100915
100930
100944
100958
100972
100986
100999
101012
101024
101036
101047
101058
101068
101078
101088
101097
101106
101115
101124
101132
101140
101148
101155
101161
101168
101174
101179
101184
101189
101193
101197
101201
101205
101209
101212
101214
101216
101218
101220
101221
101223
101224
101225
101226
101226
101227
101227
101228
101228
101228
101229
101229
101229
101229
101230
101230
101230
101230
101230
101231
101232
101233
101234
101235
101236
101237
101239
101240
101242
101245
101247
101250
101252
101255
101258
101262
101266
101269
101273
101278
101282
101286
101291
101296
101301
101306
101312
101317
101322
97727.8
97727.1
97726
97721.6
97720.6
97717
97713.3
97708.6
97703.3
97697.3
97690.7
97684.4
97678
97670.4
97663.6
97655.9
97647.8
97639.8
97631.7
97624
97615.9
97607.8
97600.3
97593.5
97585.2
97577.2
97569.3
97562.1
97554.7
97545.5
97537.4
97530
97521.7
97512.4
97503.4
97495.9
97486.8
97476.8
97467.9
97458.3
97448.1
97446.5
97439.6
97433.2
97426.9
97422.6
97417.8
97413.5
97409.1
97406.1
97404.9
97404.3
97404.6
97411
97412.6
97418.7
97424.5
97432.3
97441.3
97452.7
97462.4
97471.6
97481.1
97493.2
97503.1
97510.9
97516.4
97528.1
97534.1
97543.6
97548.3
97549.6
97550
97548.6
97547.8
97544.3
97540.5
97536.6
97536.4
97547.1
97565.8
97578.7
97565.2
97561.9
97565.1
97567.4
97570.5
97577.1
97583.3
97590.4
97595.2
97622.3
97651.1
97643.1
97651.6
97714.5
97761.6
97781
97817
97864.8
97909.5
97946.9
97979
98012.1
98046.8
98081.3
98113.3
98146.7
98170.2
98189
98204.3
98225
98237.7
98250.3
98268
98284.2
98297.4
98306.5
98317.3
98327.4
98329.1
98336.1
98335.8
98329
98313.9
98300.8
98294.3
98286.6
98277.7
98259.3
98251.1
98248.6
98224.6
98231.6
98242.8
98234.3
98216.5
98202.5
98191.2
98183.8
98177.3
98170.8
98165.5
98161.7
98158.8
98158.2
98157.8
98160.1
98163.2
98168
98174.5
98181.2
98188.8
98196.1
98201.6
98206.9
98212.8
98220.2
98227.3
98230.8
98224.2
98218.4
98214.9
98212.3
98210.9
98210.5
98209.8
98208.8
98208.6
98207.8
98206.4
98205.5
98204.3
98202.7
98200.9
98199.2
98196.4
98194.9
98194.7
98193.3
98193.1
98196.2
98199.5
98201
98202.6
98203.8
98206.4
98207.9
98209.4
98212.3
98215.6
98218.7
98222
98225.4
98229
98232.7
98236.5
98240.5
98244.4
98248.4
98252.2
98255.9
98259.1
98262.2
98264.7
98268
98271.7
98275.1
98281.3
98288.2
98294.8
98298.9
98303.5
98306.8
98315.5
98313.2
98302.6
98303.1
98301.3
98305.6
98312
98299.8
98299.6
98298.1
98296.5
98292.6
98289.9
98287.8
98280.6
98275.1
98271.5
98268.5
98262.5
98253.8
98243.4
98232
98220.4
98209
98198.8
98184.3
98179.2
98174.1
98167.3
98165.2
98156.1
98154.1
98153.8
98157
98161.7
98171
98180.5
98194.7
98210.4
98224.6
98237.4
98252.4
98267.8
98281.9
98297.6
98313.9
98329.1
98344.4
98350.3
98351.2
98358.7
98369.9
98381.6
98392.5
98404.2
98420.7
98431.6
98443.3
98455.6
98466.1
98473.8
98480.2
98489.6
98499.8
98510.1
98521.6
98529.7
98541.1
98552.7
98560
98581.2
98595.1
98600.6
98603.5
98619.6
98631.9
98640.4
98653.8
98668.7
98682.9
98700.6
98720.6
98738.4
98757.5
98773.7
98790.5
98809.2
98828.7
98849.1
98871.4
98894.3
98921.2
98950.3
98979.3
99010.4
99041.7
99065.1
99089.3
99118.3
99149.6
99181.1
99213.4
99247.2
99280.8
99315.2
99348.5
99382
99415.6
99449.7
99484.5
99518.9
99552.2
99583.9
99613.8
99623.3
99643.2
99667.8
99691.5
99714.8
99739.3
99763.3
99787.3
99815.5
99836.7
99857.1
99878.2
99897.9
99914.5
99929.1
99942.9
99958.9
99974
99988.1
100005
100020
100035
100049
100062
100073
100087
100098
100109
100122
100134
100148
100163
100178
100187
100199
100213
100226
100237
100250
100262
100274
100287
100304
100320
100333
100351
100364
100371
100380
100396
100407
100419
100433
100446
100461
100477
100493
100507
100521
100536
100552
100570
100586
100602
100619
100634
100648
100664
100680
100695
100711
100728
100744
100761
100777
100793
100809
100825
100842
100858
100875
100891
100907
100922
100936
100949
100962
100974
100986
100998
101009
101019
101031
101044
101056
101068
101078
101089
101099
101108
101117
101125
101133
101140
101147
101154
101160
101166
101172
101178
101184
101189
101194
101198
101202
101206
101208
101211
101213
101216
101218
101220
101221
101223
101224
101225
101226
101227
101227
101228
101228
101228
101228
101228
101228
101228
101228
101229
101230
101230
101230
101231
101231
101232
101232
101233
101234
101235
101237
101239
101241
101243
101245
101247
101249
101252
101255
101258
101262
101265
101269
101273
101278
101282
101287
101291
101296
101301
101306
101311
101317
101323
97730.1
97728.9
97727.8
97723.5
97722
97718.2
97714.3
97709.6
97704.2
97698.4
97692.3
97686.2
97679.4
97672.8
97664.8
97657.9
97650.4
97642.6
97634.7
97627
97618.9
97610.9
97602.6
97593.8
97585.9
97578.7
97570.9
97561.8
97553.7
97546.3
97538.5
97528.4
97520.7
97511.6
97503
97495.3
97484.9
97474.6
97466.2
97457.7
97449.3
97440.1
97432.6
97423.6
97415.6
97410.4
97405.5
97401.4
97398
97398.2
97400.3
97402.4
97406.3
97409.8
97417.2
97424.9
97433.1
97442.5
97452.8
97464.9
97475.3
97484.6
97491.9
97503.3
97511.8
97517.4
97526.8
97534.5
97539.5
97545.8
97548.2
97547.2
97545.4
97540.7
97535.7
97529.9
97524.6
97518.1
97510.9
97502.9
97494.8
97495.8
97506.6
97506
97507.1
97512
97520.6
97533.4
97545.8
97569.2
97585.7
97611.8
97635.7
97658.5
97682.6
97715.5
97747
97775.1
97808.4
97843.2
97883.6
97927.4
97970.9
98010.1
98049.9
98090.6
98129.4
98169.2
98205
98231.5
98247.6
98269
98281.7
98286.1
98297.2
98306.4
98315.2
98317.9
98312.6
98309.9
98316.6
98320.4
98323.6
98317
98312.1
98304.8
98296.7
98288.4
98278.8
98265.4
98267.4
98263.3
98250.2
98222.2
98208.7
98200
98191.7
98183
98171.5
98169.9
98168.3
98164.5
98161.1
98158
98156.2
98155.6
98157.4
98161.6
98165.3
98169.2
98175.8
98181.6
98186.7
98188.7
98192.2
98199.3
98206.2
98212.2
98218.3
98224.9
98222.9
98219.6
98219.7
98220.5
98219.5
98216.2
98212.8
98209.9
98208.6
98206.8
98205.4
98203.4
98201.6
98199.2
98197.9
98196.3
98194.8
98194
98196.7
98201.5
98196.4
98190.6
98191.3
98192.6
98194.2
98197.9
98200.9
98202.2
98205.9
98210.2
98213.7
98217
98220.7
98224.5
98228.5
98232.5
98236.5
98240.4
98244.3
98248.1
98251.9
98255.6
98259.1
98262.6
98265.7
98269.5
98272.3
98274.9
98279.9
98287.2
98295
98301.2
98308.2
98308
98302.2
98300.2
98291.7
98303.1
98300.2
98297.4
98298.8
98299.7
98303.2
98302.1
98299
98299.9
98301.3
98302.2
98294.6
98287.7
98271.9
98264.5
98257
98245.2
98229.7
98215.4
98208.4
98199
98191.6
98175
98165.3
98162.3
98151.6
98142.7
98147.1
98152.6
98154.5
98160.5
98156.7
98158.7
98163.8
98172.2
98184.9
98198.2
98213.5
98231
98249.9
98267.2
98285.4
98307.4
98331.3
98353.8
98362.2
98366.8
98377.9
98390.1
98402.2
98414
98425.2
98426
98429
98438.9
98448.9
98459.3
98470
98479.5
98490.3
98500.5
98507.7
98519.2
98528.4
98546.4
98557.9
98560.4
98567
98584.5
98597.3
98603.8
98618.3
98634.5
98641.2
98657.6
98684.8
98699.2
98708
98720.2
98733.8
98750
98767.1
98786.7
98806.2
98826.4
98847.5
98870.4
98893.7
98919.4
98947.7
98976.1
99010
99038.9
99067.1
99097.6
99128.5
99161.1
99193.5
99224.7
99256.7
99284.4
99307.1
99334.4
99367.6
99400.2
99432.9
99467.2
99500.3
99533.7
99570
99603.6
99627.7
99653.9
99683.5
99710.8
99737.2
99762.8
99787.6
99812.3
99823.8
99837.9
99855.9
99873.4
99891.7
99910.4
99927.6
99944.6
99960.6
99978.2
99992.9
100005
100014
100028
100043
100056
100069
100083
100095
100108
100125
100140
100152
100161
100172
100186
100199
100213
100225
100237
100252
100267
100280
100296
100298
100312
100324
100335
100353
100365
100379
100393
100406
100420
100437
100452
100468
100478
100491
100507
100525
100540
100556
100568
100583
100600
100616
100632
100649
100666
100683
100701
100718
100735
100751
100767
100783
100799
100815
100830
100844
100858
100872
100887
100901
100916
100930
100945
100959
100973
100986
101000
101013
101026
101038
101050
101059
101068
101077
101087
101096
101106
101115
101124
101132
101140
101148
101155
101162
101168
101174
101180
101184
101188
101192
101197
101201
101205
101208
101212
101214
101217
101219
101220
101221
101222
101224
101225
101226
101226
101227
101227
101228
101228
101228
101228
101229
101229
101230
101230
101229
101229
101229
101230
101230
101231
101233
101234
101235
101236
101237
101238
101239
101242
101244
101247
101249
101252
101255
101258
101262
101265
101269
101273
101277
101281
101286
101291
101296
101301
101307
101312
101317
101322
97732.5
97731.3
97729.8
97726.1
97724.2
97720.4
97716.3
97711.4
97705.9
97700
97694.3
97688
97681
97673.9
97666.1
97658.5
97650.5
97642.5
97634.5
97627
97619
97611.4
97603.8
97596.3
97589
97582.1
97574.6
97566.7
97559.9
97551.7
97542.9
97534.9
97525.9
97516.4
97506.7
97498.9
97488.9
97478.6
97470.1
97461.5
97452.3
97441.8
97432.5
97422.6
97413.8
97408.4
97403
97397.8
97394.7
97395.5
97397.4
97400.3
97405
97409.5
97416.9
97425.4
97432.9
97441.7
97451.4
97463.4
97473.4
97483.2
97490.8
97502.2
97512.2
97519.7
97528.5
97535.3
97546.5
97545
97544.4
97543
97541.5
97536.5
97530.5
97524
97519.4
97510.8
97503.9
97500.5
97490.6
97486.9
97491.1
97495.6
97506.7
97512.1
97526.7
97539.7
97554
97578.1
97601.1
97629.3
97656.4
97689.4
97725.6
97759
97790.6
97823.7
97857.3
97887.9
97920.1
97952.7
97984.1
98011.7
98036.3
98058.1
98082
98112
98144.4
98175.1
98202.5
98231.2
98256
98265.7
98281.3
98296.1
98311.8
98325.5
98330.1
98327
98325.1
98327.7
98322.8
98318.9
98314.5
98306.7
98298.8
98290.5
98280.7
98269.8
98254.2
98243.9
98230.7
98216.8
98210.3
98201.1
98200.6
98199
98191.3
98182.3
98172.8
98167.8
98162.7
98158.7
98156.7
98155.7
98157.1
98158.5
98164.7
98170.6
98176.7
98183.4
98191.2
98198.6
98202.6
98205.4
98207.9
98210.2
98212.6
98213.2
98217.6
98216.4
98214.8
98213.6
98213.4
98212.6
98210.6
98208.7
98208.1
98206.8
98205.1
98203.2
98201.5
98199.8
98198.7
98198.9
98196.9
98190.5
98187
98186.6
98185.2
98188.7
98192
98191.1
98193.9
98200.2
98204.3
98208.8
98207.3
98209.8
98213.7
98217.1
98220.5
98224
98227.4
98231
98234.7
98238.6
98242.6
98246.7
98250.8
98254.8
98258.6
98262
98264.4
98267.8
98270.9
98274.3
98281.4
98293.8
98300.5
98298
98302.3
98304.7
98300.3
98297.9
98273.4
98312.5
98310.2
98300.3
98301.4
98308.2
98314.5
98315
98307.7
98298.3
98291.1
98286.7
98281.7
98272.3
98252.8
98242.2
98241
98233.8
98220.7
98208.1
98210.3
98201.2
98185.8
98171.1
98168
98161.3
98152.2
98148.9
98146
98147.6
98150.2
98153.3
98155.7
98167.1
98173
98182
98191.3
98202.4
98214.6
98228.3
98243.3
98256.4
98269.8
98282.1
98300.9
98321.4
98337.4
98353.9
98366.5
98380.7
98395.5
98409.7
98428.8
98433.4
98438.5
98447.3
98456.5
98465.1
98471.3
98479.1
98489.1
98499.5
98511.3
98523.7
98528.4
98530.6
98548.5
98559.5
98568.4
98584
98597.7
98611
98624.7
98640.6
98656.5
98656.4
98668.3
98684.3
98693.7
98708
98727.1
98745.4
98763
98786.3
98805.9
98825
98845.2
98868
98891.3
98917.5
98945.9
98974.1
99000.3
99026
99059
99092.7
99124.3
99156.9
99190.3
99222.3
99256.5
99291.6
99322.2
99351.9
99383
99413.4
99442.8
99473.4
99502.3
99526.9
99549.4
99580.7
99615.3
99642.8
99670.6
99698.2
99725.2
99751.5
99777.6
99808.6
99825.6
99841.7
99861.7
99882.1
99901.8
99915.6
99928.5
99941.4
99956.4
99971.5
99986.5
100001
100017
100031
100043
100055
100070
100086
100103
100112
100118
100129
100140
100157
100171
100184
100197
100215
100229
100243
100248
100257
100270
100279
100296
100314
100324
100335
100351
100368
100392
100402
100416
100419
100431
100444
100458
100473
100493
100506
100521
100537
100552
100568
100583
100600
100617
100633
100646
100662
100680
100697
100714
100731
100747
100764
100779
100796
100812
100828
100844
100860
100876
100891
100906
100921
100935
100948
100961
100973
100985
100997
101009
101022
101034
101046
101057
101068
101078
101088
101099
101108
101117
101125
101133
101140
101147
101154
101161
101167
101173
101179
101184
101189
101194
101198
101202
101206
101209
101211
101214
101216
101218
101220
101221
101223
101224
101225
101226
101227
101227
101228
101228
101228
101228
101228
101228
101229
101228
101229
101229
101229
101230
101230
101231
101232
101232
101233
101234
101235
101236
101238
101240
101242
101244
101246
101249
101251
101255
101258
101261
101265
101269
101273
101277
101282
101286
101291
101296
101301
101306
101311
101317
101322
97735.5
97734.9
97733.6
97729.2
97727.6
97723.7
97719.4
97714.3
97708.4
97701.9
97695.2
97688.4
97681.1
97673.6
97665.8
97658.4
97650.7
97643.2
97635.4
97627.8
97620.1
97612.7
97605.6
97597.9
97590.5
97583.1
97575.9
97568.3
97561.4
97553.3
97545.5
97536
97526.9
97516.6
97507.1
97499.4
97489.4
97478.8
97468.9
97459
97448.3
97438.4
97428.5
97418.6
97410.3
97405.1
97399.3
97393.4
97390.4
97390.5
97392
97394.5
97399.7
97405
97413
97422.7
97431.5
97442.2
97454.9
97468.4
97479.4
97489.5
97496.5
97509.7
97518.8
97526.9
97537.7
97545.6
97547.8
97548
97548.4
97545.5
97543.4
97538
97529.1
97524.4
97518.6
97508.7
97501.6
97493.5
97490.6
97483
97478.8
97486.2
97483.3
97503
97508.5
97525.1
97532.8
97550.7
97569.4
97591.7
97615.4
97647.8
97681.5
97718.1
97757.1
97798.5
97841
97880.8
97921.9
97962.8
98004.7
98047.2
98083.1
98109.7
98131.5
98151.3
98168.9
98187.2
98205.3
98226.3
98246.7
98253.1
98264.6
98273.1
98279.2
98289.9
98301.4
98307.4
98308.8
98311.6
98314.2
98310.7
98302.9
98297.7
98290.2
98285.6
98274.2
98264.7
98254
98247.2
98239.2
98232.1
98224.2
98219.8
98200.5
98183.6
98178.1
98170.7
98161.7
98161.8
98157.2
98156.5
98154.7
98152.9
98155.9
98158.9
98160.5
98163.6
98169.6
98174.7
98180.2
98188.6
98196.5
98201.7
98205.1
98209.2
98214
98218.4
98219.7
98217.3
98216.9
98215
98212.6
98209.8
98207.9
98206.5
98205.9
98204.2
98203
98201.1
98199.7
98196.7
98194.5
98192.2
98189.3
98188.5
98188.2
98187.1
98187.1
98192.4
98200.1
98201
98194.5
98193.2
98198.3
98198.2
98202.5
98206.9
98211.5
98214.9
98218.7
98222.6
98226.5
98230.5
98234.6
98238.5
98242.5
98246.2
98250.1
98253.6
98257.2
98260
98264.2
98268.6
98272.2
98279.9
98280.4
98282.4
98292.3
98294.3
98298.9
98305.3
98308.6
98301.4
98306.4
98312.3
98307
98315
98315.6
98307
98304.1
98305.4
98300.8
98291
98283
98283.3
98283
98274.2
98263.4
98251.1
98259.2
98258.3
98247.9
98230.3
98213.9
98200.9
98181.4
98161.2
98165.8
98160.9
98152.6
98139.3
98141
98139
98139.1
98137.8
98143.4
98151.6
98160
98174.3
98187.1
98201.3
98217.4
98232.9
98253.8
98276.5
98292.5
98302.5
98313.2
98327.6
98341.9
98355.9
98366.7
98377.4
98384.9
98395.1
98410.7
98426.6
98435.5
98443.9
98453
98463
98471.4
98479.4
98489.8
98500.4
98502.3
98514.7
98525.3
98532.3
98547.8
98558.8
98573.8
98589.7
98599.2
98617.1
98623.5
98630.8
98645.9
98654.4
98667.3
98686.8
98701.4
98714.9
98740
98754.5
98767.5
98785
98804.7
98823.7
98844.9
98867.3
98891.2
98916.8
98945.4
98973.3
99005.2
99032.8
99062.7
99092
99122
99152.5
99183.4
99209.1
99236.1
99272.2
99307.9
99340.9
99374
99407
99438.3
99471.3
99507.3
99538.9
99565.2
99592.9
99622.3
99648.4
99674.5
99699.7
99724.6
99747.4
99767.4
99790
99817.8
99837.2
99855.6
99874.5
99894.9
99911.6
99926.2
99941.3
99956.9
99971.8
99987.1
100003
100017
100031
100045
100062
100073
100078
100089
100102
100115
100129
100139
100158
100177
100191
100203
100211
100218
100232
100244
100259
100272
100281
100297
100320
100333
100347
100355
100361
100378
100391
100400
100419
100431
100445
100458
100477
100491
100507
100521
100537
100553
100569
100584
100599
100617
100633
100650
100665
100682
100698
100714
100731
100747
100764
100780
100796
100811
100826
100841
100857
100873
100888
100903
100918
100933
100947
100960
100974
100987
101000
101012
101024
101036
101047
101058
101069
101078
101088
101097
101107
101116
101125
101133
101140
101148
101155
101161
101168
101173
101179
101185
101189
101194
101198
101202
101205
101208
101211
101214
101216
101218
101220
101222
101223
101224
101225
101226
101226
101227
101227
101228
101228
101228
101228
101228
101229
101228
101229
101229
101229
101230
101230
101230
101231
101232
101233
101234
101235
101237
101238
101240
101242
101244
101246
101249
101251
101254
101258
101261
101265
101269
101273
101277
101281
101286
101291
101296
101301
101306
101311
101317
101322
97739.4
97738.3
97736.8
97733.2
97731.5
97727.9
97723.4
97718.1
97712.2
97706
97699.3
97691.9
97683.7
97675.1
97666.7
97658.7
97650
97642.7
97635
97627.7
97620
97612.7
97605.7
97598.5
97591.2
97584.1
97577.1
97569.9
97563
97555.5
97547.8
97539.3
97530.8
97520.7
97509.5
97501.9
97491.8
97481.1
97470.7
97460.4
97449.4
97439.3
97428.1
97417.4
97408.6
97402.3
97394.5
97387.3
97384.3
97383.6
97384
97388
97392.9
97398.3
97406.3
97417.8
97428
97440.2
97454.6
97469.1
97480.8
97492.1
97498.9
97506
97522.4
97529.8
97538.6
97547.9
97552.8
97552.4
97551.4
97547.8
97545.7
97537.1
97527.5
97517.3
97511.1
97499.2
97491.9
97491.4
97477.3
97476.1
97480.1
97479.1
97495.2
97502.2
97520
97541
97552
97570.1
97585
97609
97635.1
97663.6
97691.8
97721.5
97754
97786.9
97818.4
97843
97866.5
97897.4
97934.3
97974.9
98015.1
98053.6
98090.5
98122.4
98150.5
98176.9
98200.2
98223.2
98245.3
98256.3
98274.4
98287.4
98294.5
98297.4
98300.1
98302.4
98302.6
98305.4
98304.5
98301.9
98299.1
98293.6
98286.7
98280.9
98271.9
98263.9
98255.7
98250.4
98241.7
98226.3
98212.9
98201.1
98190.7
98177.4
98178.8
98175
98172
98165.5
98162.4
98158.6
98157.1
98158
98158.7
98159.6
98164.9
98170.1
98174
98180.1
98186.4
98191.5
98195.7
98199.6
98202
98204.2
98206.3
98209.4
98212
98211.5
98211.6
98211.3
98211.1
98209.6
98207.6
98205.8
98204.7
98202.4
98200.7
98199
98198.1
98196.2
98193.8
98192.7
98191
98192.4
98195.2
98196
98188.1
98185.8
98189.7
98184.2
98191.4
98193.2
98195.9
98197.1
98201.6
98209.1
98212.9
98216
98219.1
98222.5
98226
98229.4
98232.9
98236.7
98240.5
98244.5
98248.7
98252.5
98255.9
98259.1
98264.5
98269.2
98268.5
98271.4
98277.7
98284.3
98294.5
98304.1
98310.6
98316.2
98315.3
98306.5
98299.6
98311.3
98308.9
98302.5
98304.1
98300.7
98297.5
98299.8
98303
98300.1
98294.3
98293.1
98291
98286.1
98275.9
98265.2
98242
98237.7
98228.7
98212.5
98197
98187.2
98161.5
98167.3
98159.4
98143.8
98141.2
98136.5
98134
98133.4
98130.6
98134
98138.2
98147.7
98152.9
98161
98171.7
98184.4
98197.9
98211.4
98226
98248.1
98266.8
98286.9
98305.4
98323.7
98341.3
98357
98371.6
98387.1
98397.6
98406.5
98417.5
98427.5
98435.5
98444.3
98453.7
98461.1
98472.3
98479.5
98487
98494.3
98502.3
98515.5
98525.3
98536.9
98551.5
98563
98577.3
98591.4
98599.1
98610.8
98623.3
98629.8
98646.7
98661.7
98673.5
98693.7
98705.1
98714.5
98726.2
98742.4
98760.1
98779.9
98800.7
98821.4
98842.4
98864.8
98888.6
98913.5
98941.6
98969.7
98996.5
99029.1
99061
99092.1
99123.8
99155.1
99188.6
99220.3
99251.2
99280.1
99310.6
99341.2
99371.8
99402.5
99431.3
99456.9
99486.6
99520.5
99552.7
99583.7
99614.3
99642.7
99670.7
99697.6
99724.3
99752.4
99776.2
99797.7
99819.1
99837.8
99856.9
99874.7
99892.1
99910.4
99927.4
99942.2
99956.7
99971
99985.6
100000
100015
100029
100043
100052
100065
100076
100092
100101
100116
100140
100152
100161
100168
100180
100193
100205
100218
100234
100244
100263
100277
100291
100304
100313
100322
100336
100351
100365
100381
100391
100402
100421
100438
100452
100465
100476
100492
100507
100521
100536
100550
100567
100584
100598
100614
100631
100648
100664
100682
100698
100715
100731
100748
100764
100781
100797
100813
100829
100845
100860
100875
100890
100905
100919
100933
100946
100959
100972
100985
100998
101010
101023
101035
101047
101058
101068
101079
101089
101098
101108
101117
101125
101133
101141
101148
101155
101161
101168
101174
101179
101184
101189
101193
101198
101202
101205
101209
101212
101214
101216
101218
101220
101221
101223
101224
101225
101226
101226
101227
101227
101228
101228
101228
101228
101229
101229
101229
101229
101229
101229
101229
101230
101230
101231
101232
101233
101234
101235
101236
101238
101239
101241
101244
101246
101249
101251
101254
101257
101261
101265
101268
101272
101277
101281
101286
101291
101296
101301
101306
101311
101317
101322
97743.9
97742.2
97740.8
97736.9
97734.8
97730.9
97725.5
97720
97714.4
97708.6
97701.8
97694.2
97685.9
97678
97670.4
97662.1
97652.4
97644.1
97635.7
97628.3
97620.7
97613.4
97606.8
97600
97593
97586
97579.2
97572.3
97566.2
97558.8
97551
97542.5
97534
97524.5
97513
97505.4
97493.6
97482.6
97472.2
97461.8
97450.3
97439.5
97426.5
97415.6
97406.2
97398.2
97388.3
97380.2
97376.7
97375.2
97375.3
97377.1
97382.2
97389
97398.4
97411.3
97423.5
97437.7
97454.9
97471.2
97487.5
97500.5
97509.1
97522.8
97536
97544.1
97551.3
97555.9
97557.4
97556.9
97554.3
97547.8
97543
97536.7
97523.9
97516.3
97507.9
97491.3
97490.2
97480
97480.7
97473.1
97465.2
97477.7
97476.3
97490.2
97501
97514
97529.8
97543.5
97565.4
97597.1
97621.7
97657.6
97690.2
97725.5
97765.1
97803.1
97844
97882.2
97915.8
97947.4
97976.6
98001.8
98026.3
98052.8
98080.9
98106.7
98131.2
98155.5
98177.3
98197.5
98219.1
98227.2
98240.7
98256
98270.1
98278.7
98284
98287.6
98290
98293.2
98293.1
98290.3
98285.2
98278.8
98273.1
98268.2
98260.9
98253.1
98246
98237.3
98225.8
98217.6
98210.2
98204.2
98189.7
98190.5
98184.3
98177.8
98165.9
98165.9
98159.1
98159.1
98157
98157.5
98159.6
98162
98164.8
98168.9
98174
98178.9
98185.5
98190.9
98195.7
98199.8
98203.3
98207.4
98211.4
98212.7
98212
98210.9
98210.2
98207.6
98203.5
98202.4
98201.7
98201.1
98200.8
98198.8
98197.2
98196.4
98195.4
98193.7
98192.9
98193.2
98190.8
98186.3
98185.3
98184.5
98185
98187
98189
98186.2
98194.3
98200.9
98204.6
98204.2
98201.5
98204.2
98208.8
98212.4
98216
98220.2
98224
98227.9
98231.9
98236
98240
98243.9
98247.9
98251.6
98255.1
98257.7
98261.9
98265.2
98269.5
98275.1
98283.5
98293.6
98300.2
98304.4
98304.6
98303.7
98304.9
98290.2
98303.1
98307
98305
98302.6
98305.4
98312
98314.7
98313.1
98312.2
98311.5
98311
98301
98283.8
98270.9
98265.5
98256
98240
98231
98226.7
98214.2
98204.5
98192.6
98185.9
98166.9
98158.3
98154
98146.5
98137.7
98135.8
98129.2
98126.8
98131
98135.4
98145.6
98154
98165.1
98179.5
98193.8
98212.6
98230.6
98242.7
98254.5
98269.5
98286.5
98302.8
98319.3
98334.7
98347.9
98358.9
98371.8
98387.6
98402
98414.7
98425.9
98435.9
98444.4
98453.5
98462.1
98467.6
98476.2
98485.2
98493.9
98505.9
98518.5
98532.7
98544.7
98555
98563.3
98573.2
98585.6
98594
98606.6
98616.9
98631.9
98646.9
98660
98669.9
98681.6
98695.7
98710.8
98729.3
98742.9
98767.6
98784.9
98803.1
98821.4
98842.7
98865
98888.8
98914.8
98942.1
98969.5
98999.4
99028.1
99057.3
99087.4
99117.8
99145.5
99174.2
99211.4
99244.2
99276.6
99309.2
99342.2
99373.3
99408.2
99443.1
99472.1
99498.8
99526.6
99555.8
99584.4
99612.7
99639.5
99666
99691.4
99713.6
99737.6
99765
99790.5
99813.1
99832.4
99852.3
99871.3
99890.5
99907.9
99923.6
99938.2
99954.1
99969.3
99983.7
99998.7
100013