/*--------------------------------*- C++ -*----------------------------------*\
| =========                 |                                                 |
| \\      /  F ield         | OpenFOAM: The Open Source CFD Toolbox           |
|  \\    /   O peration     | Version:  v1812                                 |
|   \\  /    A nd           | Web:      www.OpenFOAM.com                      |
|    \\/     M anipulation  |                                                 |
\*---------------------------------------------------------------------------*/
FoamFile
{
    version     2.0;
    format      ascii;
    class       surfaceScalarField;
    location    "1.1";
    object      phi;
}
// * * * * * * * * * * * * * * * * * * * * * * * * * * * * * * * * * * * * * //

dimensions      [1 0 -1 0 0 0 0];
oriented        oriented;


internalField   nonuniform List<scalar> 
40240
(
0.000122331
-7.90482e-05
0.000197529
-3.247e-05
0.000209904
2.90741e-05
0.000167607
8.48046e-05
0.000143453
6.75129e-05
0.000114622
7.20267e-05
8.29423e-05
7.46663e-05
4.88859e-05
7.7198e-05
9.51779e-06
8.20595e-05
-4.66107e-05
9.61617e-05
-0.000115759
0.000106879
-0.000192388
0.000112332
-0.000270279
0.000112291
-0.000336287
9.86226e-05
-0.000406441
0.000101245
-0.000453109
7.60304e-05
-0.000471791
4.63077e-05
-0.000471437
2.55234e-05
-0.000454272
7.41533e-06
-0.000433428
2.44632e-06
-0.000366717
-4.51032e-05
-0.000262284
-8.44159e-05
-0.000131366
-0.000112294
3.98236e-06
-0.000120581
0.000147706
-0.000129426
0.000299611
-0.000138849
0.000452527
-0.00014082
0.0005959
-0.00013455
0.000737028
-0.000133387
0.000861411
-0.000116419
0.000960704
-9.35813e-05
0.00103336
-6.96399e-05
0.00105861
-2.34926e-05
0.001026
3.26657e-05
0.000910363
0.000113723
0.000771198
0.000135621
0.000601088
0.000165749
0.000391467
0.000205456
0.000156019
0.000229239
-0.000102338
0.000248118
-0.000427481
0.00031096
-0.00088228
0.000440644
-0.00134674
0.00045197
-0.00178916
0.000429964
-0.00227175
0.000468398
-0.00272096
0.000437077
-0.00311136
0.00037996
-0.00343632
0.000315235
-0.00367561
0.000228416
-0.00379765
0.000110599
-0.00380635
-1.69856e-06
-0.0036837
-0.000135274
-0.00341501
-0.000282347
-0.0030472
-0.000381648
-0.00261217
-0.000451024
-0.00213136
-0.000496244
-0.00161557
-0.000529033
-0.00108362
-0.000542376
-0.000532947
-0.000561068
7.61897e-05
-0.000624125
0.000707225
-0.000649016
0.00126646
-0.00057679
0.0016928
-0.000440648
0.00194813
-0.000265455
0.00198023
-4.55397e-05
0.0019047
6.54845e-05
0.00189143
4.50659e-06
0.00190532
-2.19224e-05
0.00192952
-3.15198e-05
0.00207978
-0.000153573
0.00227228
-0.000196874
0.00234679
-7.88391e-05
0.00224222
0.000101968
0.00165931
0.000583088
0.000546556
0.00111556
-0.00100845
0.0015592
-0.00292332
0.00191954
-0.00501995
0.00210448
-0.00725722
0.00225471
-0.00957506
0.00235191
-0.0119678
0.0024499
-0.0142855
0.00234889
-0.016421
0.00214764
-0.0183562
0.00195867
-0.020033
0.00171206
-0.0214812
0.00149247
-0.02279
0.00136076
-0.0240114
0.00127538
-0.0251468
0.00118405
-0.0260768
0.000979722
-0.0268353
0.000811572
-0.0273252
0.000496277
-0.027529
0.000292891
-0.0275105
9.71176e-05
-0.0271264
-0.000304991
-0.0264086
-0.000659205
-0.0255289
-0.000806862
-0.0246626
-0.000752106
-0.023853
-0.000686383
-0.0226342
-0.00111056
-0.021524
-0.00102231
-0.0201859
-0.00123608
-0.0185156
-0.00155237
-0.016623
-0.00177005
-0.0146322
-0.00187677
-0.0125509
-0.00196909
-0.0103763
-0.00205497
-0.00824573
-0.00198424
-0.00631001
-0.00179976
-0.0041928
-0.00198195
-0.00198272
-0.00206852
-9.23563e-05
-0.00175058
0.00126505
-0.00121829
0.00285631
-0.00144982
0.00470229
-0.0017025
0.00654109
-0.00169812
0.00812422
-0.00144429
0.0093694
-0.00110695
0.0103883
-0.000878184
0.0112578
-0.000730888
0.0120038
-0.000603019
0.0122601
-0.000115321
0.0129059
-0.000504555
0.013462
-0.000417255
0.013657
-6.14021e-05
0.0136609
0.000131373
0.0135421
0.000253044
0.0132252
0.000452088
0.0126643
0.000695004
0.0119932
0.000810309
0.0115251
0.000605604
0.0113377
0.000318001
0.0110381
0.000429572
0.0103696
0.000796686
0.00936708
0.00113595
0.00840973
0.00108595
0.00763925
0.000897297
0.00694846
0.000816131
0.00619438
0.000878149
0.00544638
0.000870361
0.00479254
0.000775025
0.00424117
0.000669793
0.00377799
0.00057966
0.00341346
0.000479054
0.00315334
0.000372405
0.00300586
0.000257749
0.00298132
0.00013295
0.00308889
-2.45532e-06
0.00337526
-0.000183955
0.00380305
-0.000327972
0.00432542
-0.000426375
0.00485957
-0.000442414
0.00535688
-0.000410377
0.00581529
-0.000375592
0.00627619
-0.000382822
0.00677141
-0.000422211
0.00730364
-0.000464112
0.00786373
-0.000496921
0.00843354
-0.000510726
0.0089975
-0.000509077
0.0094832
-0.000435597
0.00976961
-0.000242575
0.00990546
-9.64754e-05
0.00995813
-1.78744e-05
0.00998341
5.33881e-06
0.00999715
1.19465e-05
0.0100017
1.60288e-05
0.00997672
4.01819e-05
0.00991639
6.99461e-05
0.00981
0.000110474
0.00965719
0.000151787
0.00947124
0.000180377
0.00925274
0.000208424
0.00900276
0.000235988
0.00872528
0.000259402
0.00842146
0.000281504
0.00808971
0.000305556
0.00776119
0.000298902
0.00744338
0.000284885
0.00711466
0.000292207
0.006812
0.000263738
0.00656268
0.000206821
0.00632621
0.000190042
0.00607614
0.00020034
0.00581562
0.000207706
0.00555034
0.000209383
0.00527667
0.000214688
0.00498505
0.000230738
0.00470028
0.000222289
0.00442482
0.000211085
0.00415043
0.000208674
0.00387962
0.000204323
0.00361575
0.000196893
0.00335933
0.000189268
0.00311068
0.00018147
0.00286975
0.000173855
0.00263626
0.000166709
0.00240988
0.000160181
0.00218647
0.000158155
0.00195811
0.000164391
0.00171686
0.000178815
0.00145364
0.000202391
0.00116542
0.000229
0.000869226
0.00023854
0.000589108
0.000224386
0.000361536
0.000173782
0.000210352
9.99427e-05
0.000159967
1.84468e-06
0.00021326
-9.83502e-05
0.000375567
-0.000204669
0.000569179
-0.00023363
0.000702802
-0.000167919
0.000740081
-6.92917e-05
0.000821965
-0.000108239
0.000955061
-0.000155822
0.00102045
-8.53083e-05
0.000980417
2.51528e-05
0.000723725
0.000240757
0.000340471
0.000374643
-7.9821e-06
0.000342135
-0.000124212
0.000113786
-9.12876e-05
-3.07026e-05
0.000108196
-0.000193881
0.000349506
-0.000230104
0.000560848
-0.000196665
0.00068862
-0.000108185
0.000686892
2.3406e-05
0.000483625
0.00023029
9.04109e-05
0.000424956
-0.000367929
0.000494832
-0.000838012
0.000510773
-0.00133298
0.000539574
-0.00192569
0.000641475
-0.00258009
0.000708311
-0.00325545
0.000733488
-0.00399271
0.000799045
-0.00482393
0.000896383
-0.00568456
0.000930028
-0.00653439
0.000922818
-0.00743268
0.000976281
-0.00822563
0.00087375
-0.00889963
0.000758958
-0.00954965
0.000740339
-0.0101266
0.00066899
-0.0105945
0.00056515
-0.0109496
0.000456148
-0.0111726
0.00032895
-0.0112818
0.00021759
-0.011316
0.000147212
-0.0112621
6.18777e-05
-0.0111067
-3.52197e-05
-0.010882
-0.000102848
-0.0106613
-9.55528e-05
-0.0103234
-0.000209427
-0.00977458
-0.000418568
-0.00904423
-0.000598364
-0.00822483
-0.0006863
-0.00735946
-0.000730547
-0.00642893
-0.000794338
-0.00549061
-0.000801969
-0.00463144
-0.000722719
-0.00378498
-0.000707876
-0.00281076
-0.000833466
-0.00178766
-0.000884036
-0.000880731
-0.000767339
-0.000123289
-0.000617967
0.000491179
-0.00047584
0.000986956
-0.000358012
0.00141071
-0.000286041
0.00183255
-0.000285069
0.00220482
-0.000236292
0.00251107
-0.00017141
0.00276402
-0.00011875
0.00297958
-8.21622e-05
0.00315983
-4.83333e-05
0.00326905
2.12604e-05
0.00332739
7.06826e-05
0.00333793
0.000116781
0.0033263
0.000137544
0.00330205
0.000148515
0.00324372
0.000181905
0.0031792
0.000186704
0.00308803
0.000210634
0.00297289
0.000235138
0.00294094
0.000148131
0.00287247
0.000182715
0.0027521
0.000237077
0.00270756
0.00015782
0.00253278
0.000286147
0.00212109
0.000523896
0.0015989
0.000633966
0.00107039
0.000639257
0.000531342
0.000649743
1.47829e-05
0.000626394
-0.000478349
0.00060314
-0.000976494
0.000607389
-0.00148877
0.000622332
-0.00202177
0.000642754
-0.0025827
0.000671301
-0.00314278
0.000670957
-0.00367219
0.000641041
-0.00415653
0.000596888
-0.00458819
0.000545187
-0.00494726
0.00047357
-0.00522007
0.000389198
-0.0053713
0.000269434
-0.00545642
0.000203853
-0.00547441
0.000139558
-0.00539258
4.03176e-05
-0.00517674
-9.05394e-05
-0.00483207
-0.000218812
-0.00443202
-0.000273222
-0.00402325
-0.000279909
-0.00362572
-0.000267123
-0.0032729
-0.000221129
-0.00298249
-0.000156576
-0.00275861
-8.89216e-05
-0.00256943
-5.14462e-05
-0.00232125
-0.00010743
-0.00197568
-0.000202095
-0.00155112
-0.000279111
-0.00109921
-0.000303535
-0.000643072
-0.000305132
-0.000183551
-0.000306147
0.000287419
-0.000314844
0.000814569
-0.000368731
0.00143217
-0.000455572
0.00217225
-0.000575175
0.00294665
-0.000608371
0.00361573
-0.000500153
0.00418926
-0.00040154
0.00467864
-0.000314652
0.00509022
-0.000234831
0.00543397
-0.000163979
0.0057452
-0.00012826
0.00606738
-0.000135062
0.00641286
-0.000157255
0.00667177
-6.75022e-05
0.00682388
4.09175e-05
0.00693665
8.33014e-05
0.00704955
8.55262e-05
0.00717172
7.93446e-05
0.00723946
0.000134623
0.0072663
0.000179284
0.00725906
0.000213849
0.00723891
0.000230256
0.00722058
0.000230513
0.00719936
0.000234222
0.0071806
0.000234503
0.00715893
0.000238531
0.00711438
0.000263229
0.00704464
0.000289328
0.00697299
0.000293725
0.00692179
0.000273731
0.00687242
0.000272281
0.00685364
0.00024255
0.00685407
0.000223244
0.00685489
0.000222772
0.00688759
0.000190781
0.0069538
0.000155475
0.00700228
0.000171586
0.00702942
0.00019184
0.00706082
0.000188567
0.00708217
0.000195414
0.00708832
0.000209285
0.00709263
0.000209541
0.00710858
0.000195723
0.00711505
0.000202685
0.00711203
0.00020964
0.00713587
0.000180007
0.00724361
9.40587e-05
0.00739077
5.15573e-05
0.00749531
9.23796e-05
0.00761119
7.59487e-05
0.00775096
4.87868e-05
0.00785607
8.00517e-05
0.00793095
0.000106626
0.00798144
0.000126016
0.00797649
0.000176252
0.00793987
0.000203572
0.00791547
0.00018742
0.00788579
0.000187603
0.00788151
0.000159473
0.00791523
0.000115442
0.00799235
6.77114e-05
0.00809048
4.26814e-05
0.00818909
3.68894e-05
0.00828765
3.24182e-05
0.00840412
9.68762e-06
0.0085311
-5.93401e-06
0.00864029
7.52708e-06
0.00873459
1.80539e-05
0.00882439
1.83213e-05
0.00891751
1.05849e-05
0.00901513
1.76869e-06
0.0091261
-1.57722e-05
0.00925306
-3.64743e-05
0.00938808
-4.8971e-05
0.00952317
-5.3477e-05
0.0096549
-5.42079e-05
0.00978086
-5.23756e-05
0.00989716
-4.65697e-05
0.0100007
-3.74695e-05
0.0100936
-3.0389e-05
0.0101789
-2.62683e-05
0.0102617
-2.71041e-05
0.0103475
-3.32414e-05
0.0104383
-4.12517e-05
0.0105303
-4.52539e-05
0.0106204
-4.61485e-05
0.0107066
-4.46345e-05
0.0107909
-4.49324e-05
0.0108759
-4.75473e-05
0.0109586
-4.70157e-05
0.0110298
-3.7342e-05
0.0110839
-2.15086e-05
0.0111196
-4.65525e-06
0.0111385
1.13278e-05
0.011141
2.59965e-05
0.0111349
3.46122e-05
0.0111339
2.84238e-05
0.0111547
6.9347e-06
0.0111976
-1.57643e-05
0.0112396
-1.49155e-05
0.0112683
-1.36896e-06
0.0112876
8.49125e-06
0.0113148
9.55834e-07
0.0113515
-7.79349e-06
0.0113878
-6.49343e-06
0.0114156
2.89397e-06
0.0114272
1.99959e-05
0.0114343
2.54223e-05
0.0114415
2.63115e-05
0.0114486
2.79088e-05
0.0114553
2.99098e-05
0.0114644
2.90927e-05
0.0114822
2.2067e-05
0.0115153
8.50241e-06
0.011553
5.7638e-06
0.0115886
9.98751e-06
0.0116233
1.3028e-05
0.0116631
9.99156e-06
0.0117057
9.16241e-06
0.0117462
1.31389e-05
0.011776
2.54156e-05
0.011802
3.10556e-05
0.0118257
3.50359e-05
0.0118503
3.60933e-05
0.0118831
2.96342e-05
0.0119234
2.40468e-05
0.0119662
2.32425e-05
0.0120132
2.08621e-05
0.0120645
1.81331e-05
0.0121213
1.42259e-05
0.0121835
1.0204e-05
0.0122507
6.63547e-06
0.01232
5.70596e-06
0.0123892
6.87822e-06
0.0124574
8.8718e-06
0.012523
1.21791e-05
0.0125843
1.72012e-05
0.0126429
2.0424e-05
0.0127011
2.11495e-05
0.0127625
1.80176e-05
0.0128299
1.23816e-05
0.0129075
2.04923e-06
0.012988
-1.11665e-06
0.0130604
6.6448e-06
0.0131282
1.06929e-05
0.0131963
9.62946e-06
0.0132606
1.26721e-05
0.013322
1.43611e-05
0.0133813
1.52849e-05
0.0134324
2.21312e-05
0.0134826
2.17056e-05
0.0135392
1.3814e-05
0.0135995
8.31274e-06
0.0136548
1.11908e-05
0.0137073
1.22396e-05
0.0137599
9.8728e-06
0.0138102
9.95633e-06
0.0138555
1.24527e-05
0.0138945
1.61751e-05
0.0139312
1.57421e-05
0.0139665
1.44514e-05
0.0139998
1.36656e-05
0.0140303
1.35244e-05
0.0140585
1.29087e-05
0.0140845
1.21106e-05
0.0141089
1.0762e-05
0.0141309
9.98963e-06
0.0141473
1.22995e-05
0.0141641
8.8081e-06
0.014178
8.40076e-06
0.0141871
9.75614e-06
0.0141905
1.20815e-05
0.0141912
1.12079e-05
0.0141933
6.51262e-06
0.014198
4.73096e-07
1.6374e-07
-9.45044e-06
-2.41762e-05
-1.84123e-05
2.10083e-05
-4.28809e-05
9.81877e-05
-8.22696e-05
0.000168357
-0.000120591
0.000150726
-0.000163629
0.000159369
-0.000206993
0.000161435
-0.000251392
0.000163468
-0.00029772
0.000168589
-0.0003475
0.000186125
-0.000412976
0.000210818
-0.000464251
0.000200854
-0.000491709
0.000175424
-0.000528701
0.000170044
-0.00054048
0.000145617
-0.000544441
0.000110633
-0.000537912
6.86629e-05
-0.000520049
3.46703e-05
-0.0004883
9.12432e-07
-0.000438753
-2.37881e-05
-0.000366284
-9.61732e-05
-0.000267881
-0.000162811
-0.000150837
-0.00021152
-1.82394e-05
-0.000237324
0.00011244
-0.000246185
0.000229137
-0.000238751
0.000342336
-0.000242087
0.000451457
-0.000235561
0.00055708
-0.000229413
0.00064619
-0.000194249
0.000713709
-0.0001537
0.000760706
-0.000112745
0.000777227
-3.67911e-05
0.000754398
5.76399e-05
0.000696349
0.000172123
0.000620293
0.00021098
0.000524005
0.000258675
0.000356516
0.000364573
8.59861e-05
0.000494707
-0.000238407
0.000566566
-0.000597089
0.000664851
-0.000953375
0.00078967
-0.00128517
0.000775143
-0.00162675
0.000760846
-0.00198108
0.000812583
-0.00229301
0.000738612
-0.00255238
0.000628218
-0.0027634
0.000514663
-0.00290354
0.000356485
-0.0029177
0.000112857
-0.00279372
-0.000137534
-0.002505
-0.00043605
-0.00213356
-0.000666212
-0.00180276
-0.00072624
-0.00137719
-0.000894225
-0.000859524
-0.00103004
-0.000266362
-0.00113498
0.000370977
-0.00118881
0.00102709
-0.00122776
0.0017074
-0.00131907
0.00236885
-0.00132553
0.00289642
-0.00111762
0.00324155
-0.000793587
0.00341696
-0.000448083
0.0033905
-2.74893e-05
0.00288375
0.000563281
0.00188168
0.000998945
0.000936018
0.000918481
-8.98858e-05
0.000989572
-0.00122215
0.000975337
-0.00251956
0.00109773
-0.00404285
0.00144236
-0.00577569
0.00183489
-0.00770079
0.00251183
-0.00975689
0.00318009
-0.0119763
0.00379074
-0.0146067
0.00455995
-0.0177433
0.00524902
-0.021184
0.00570636
-0.0246316
0.00584018
-0.027918
0.00582224
-0.030955
0.00547233
-0.0336851
0.0049108
-0.0361371
0.00443293
-0.038164
0.00377906
-0.0397144
0.00308572
-0.0407908
0.00248556
-0.0414304
0.0019593
-0.0416999
0.00150377
-0.0416668
0.00100206
-0.0413674
0.000543278
-0.0409344
-9.03942e-05
-0.0403825
-6.68452e-05
-0.0393356
-0.000527326
-0.0379586
-0.00174848
-0.0367246
-0.00221638
-0.0350196
-0.00232461
-0.0327148
-0.0027592
-0.0300615
-0.00325992
-0.027084
-0.00405901
-0.0239589
-0.00405146
-0.0212391
-0.00383416
-0.0189961
-0.00368786
-0.0169586
-0.00370457
-0.0149096
-0.00380692
-0.0127784
-0.0039659
-0.0105568
-0.00414045
-0.00822835
-0.00419294
-0.00536376
-0.00453114
-0.00213908
-0.00506163
0.00135332
-0.00540955
0.00518607
-0.00541656
0.00904271
-0.00490791
0.0128906
-0.00513393
0.0165485
-0.00519219
0.019909
-0.00488586
0.0229576
-0.00431856
0.02569
-0.00366668
0.0280801
-0.00309722
0.0298751
-0.00236108
0.0310147
-0.00158164
0.031796
-0.000742885
0.0320113
-0.000567098
0.032176
-0.000430925
0.031972
0.000288137
0.0315327
0.00071327
0.0310642
0.00085982
0.0308203
0.000833484
0.0307539
0.000899966
0.0303433
0.00135332
0.0288564
0.00222751
0.0270088
0.00229876
0.0250735
0.00249335
0.0231799
0.00282564
0.0215094
0.00294071
0.0199143
0.00280836
0.0185667
0.00237412
0.0175139
0.00200082
0.0167306
0.00179416
0.0161325
0.00159468
0.0156048
0.0014255
0.015134
0.00125962
0.0147523
0.00107768
0.0144849
0.000860316
0.01433
0.000638836
0.0143145
0.000383066
0.0144789
7.58828e-05
0.0149551
-0.000374393
0.0157317
-0.000858655
0.0167992
-0.00129513
0.0181322
-0.00166154
0.0196407
-0.00185641
0.0211773
-0.00185767
0.0225478
-0.00166078
0.0235765
-0.00133389
0.0242598
-0.00103375
0.0247755
-0.000910969
0.0253065
-0.000962744
0.0259423
-0.00108534
0.0266813
-0.00119116
0.0274362
-0.0011373
0.0280438
-0.000804417
0.0285173
-0.000527738
0.0288819
-0.000344552
0.0291358
-0.000214756
0.0292728
-9.60538e-05
0.0293081
4.47656e-06
0.0293054
6.15335e-05
0.0292524
0.000136255
0.029118
0.000253046
0.0288983
0.000374426
0.0286167
0.000460275
0.0282853
0.000533468
0.0279118
0.000599131
0.0275054
0.000651235
0.0270706
0.000697235
0.0266105
0.000742234
0.0261576
0.000725163
0.025723
0.000690285
0.0252686
0.000712826
0.0248015
0.000695019
0.024381
0.00058919
0.0239973
0.000532058
0.0236157
0.000536497
0.0232276
0.000547894
0.0228433
0.000542532
0.0224479
0.000555682
0.0220239
0.000597979
0.0215906
0.000597329
0.0211631
0.000578075
0.0207303
0.00057895
0.0202932
0.000577615
0.0198579
0.000567427
0.0194255
0.000556187
0.0189934
0.000547835
0.018558
0.000543405
0.0181165
0.000542123
0.0176696
0.000541208
0.0172193
0.000542715
0.0167675
0.000551149
0.0163175
0.000564919
0.0158693
0.000588389
0.015422
0.000615898
0.0149805
0.000621707
0.0145532
0.000595499
0.0141645
0.000507633
0.0138354
0.000376542
0.013595
0.000190688
0.0135003
-5.1747e-05
0.0134872
-0.00023693
0.0134948
-0.000284632
0.0135337
-0.000245251
0.0135388
-0.000112229
0.0134274
-2.77877e-05
0.0132706
-2.48308e-05
0.0129859
0.000179846
0.0125482
0.000449328
0.0120792
0.000692943
0.0115364
0.000908535
0.0108699
0.00100249
0.0103953
0.000586366
0.0102591
0.000108511
0.0102181
-0.00014684
0.0101184
-0.000119687
0.00992303
1.35093e-05
0.009403
0.000430582
0.00834165
0.00110663
0.00692738
0.00167214
0.00543547
0.00194948
0.00407163
0.00189481
0.0028924
0.00173099
0.00187505
0.00160256
0.000896451
0.00166971
-8.84197e-05
0.00174793
-0.00107642
0.00178071
-0.00208584
0.0018717
-0.0031485
0.00202554
-0.00424378
0.0020957
-0.00532144
0.00207443
-0.00639217
0.00212525
-0.00729519
0.00185776
-0.00801287
0.00156135
-0.00861588
0.00143245
-0.00905234
0.00119588
-0.00932252
0.000933596
-0.00939286
0.000625552
-0.00931073
0.000350413
-0.00894955
-3.61665e-05
-0.0083076
-0.000384332
-0.0073991
-0.000733658
-0.00623952
-0.00107675
-0.00488565
-0.00133605
-0.00353081
-0.0013278
-0.00229994
-0.00131627
-0.0011767
-0.00141582
-6.13546e-05
-0.00158567
0.00108843
-0.00170701
0.00227099
-0.00178236
0.00352042
-0.00191102
0.00481392
-0.00196148
0.00606299
-0.00183641
0.00725712
-0.00176521
0.00855122
-0.00198599
0.00999268
-0.00218457
0.0114501
-0.0020827
0.0128815
-0.0019068
0.0142781
-0.00173005
0.015602
-0.00153919
0.0167954
-0.00133863
0.0177702
-0.00111978
0.0184121
-0.000740238
0.0187701
-0.000393208
0.0189712
-0.000184165
0.0191338
-0.00010882
0.0193037
-8.40006e-05
0.0194148
4.23801e-05
0.0194379
0.000177981
0.0194124
0.000270749
0.0192816
0.000396271
0.0190951
0.000461747
0.0188606
0.00054272
0.0185767
0.00059314
0.0182116
0.000695795
0.0177724
0.000793387
0.0174067
0.000631597
0.0170399
0.000665135
0.0166172
0.0007762
0.0162791
0.000609439
0.0158888
0.000787712
0.0152077
0.0013153
0.0140901
0.00185943
0.012569
0.00226775
0.0109476
0.00237941
0.00958706
0.0020947
0.00854617
0.00175228
0.0077433
0.0015178
0.00706163
0.00141247
0.00645378
0.00135903
0.00586934
0.00136462
0.0053002
0.00134916
0.00475566
0.00129524
0.00428474
0.00117838
0.00393726
0.00100444
0.00373169
0.000792213
0.00367724
0.000558245
0.00375865
0.000304767
0.00397682
0.000103069
0.00423295
2.94991e-06
0.00450352
-0.000110095
0.00480924
-0.000271415
0.00529471
-0.000577332
0.00595082
-0.000802099
0.00671906
-0.000918194
0.00760844
-0.00102438
0.00865075
-0.00112888
0.00985933
-0.00122773
0.011205
-0.00129489
0.0125723
-0.00127689
0.0138157
-0.00120788
0.0148464
-0.00108966
0.0156227
-0.000910831
0.0162335
-0.000767458
0.0168021
-0.000723385
0.0173927
-0.000743785
0.0180119
-0.000777639
0.0186897
-0.00088553
0.0194484
-0.00104994
0.0203983
-0.00135299
0.0216695
-0.00170437
0.023004
-0.00165854
0.024276
-0.00149444
0.0254929
-0.00134868
0.0266626
-0.00121925
0.0277564
-0.00107049
0.0287144
-0.000896686
0.0294471
-0.000677863
0.0298714
-0.00039028
0.0299893
8.41436e-06
0.0299797
0.000243175
0.029921
0.000339892
0.0299062
0.000301025
0.0299617
0.000227163
0.0300527
0.000248387
0.0301114
0.000327802
0.0301087
0.00042259
0.0300147
0.0005343
0.0298263
0.000630644
0.0295673
0.000705413
0.0292996
0.00071694
0.0290687
0.000685502
0.0288726
0.000676688
0.0286966
0.000683592
0.0285071
0.000703432
0.0283307
0.000671461
0.0281276
0.000696719
0.0279392
0.000653954
0.0277934
0.000591078
0.0276596
0.00057842
0.0275375
0.000534444
0.0274514
0.000462034
0.0273675
0.000475819
0.0273321
0.000445073
0.0273269
0.000413295
0.0273084
0.000429329
0.0271852
0.000548128
0.026984
0.000624879
0.0268082
0.00058391
0.0266582
0.000562374
0.0265766
0.000498084
0.0265309
0.000429505
0.0265241
0.000302642
0.0265602
0.000215486
0.0265956
0.000253911
0.0265929
0.000271168
0.0266377
0.000193809
0.0267391
0.000165001
0.0268794
0.000146809
0.0269832
0.000199379
0.0270003
0.000331833
0.026999
0.000372174
0.0270117
0.000338591
0.0270154
0.000342936
0.027014
0.000315609
0.0270187
0.000260488
0.0270374
0.000194485
0.0271585
6.3533e-05
0.0273725
-4.05085e-05
0.0276167
-7.99509e-05
0.0278629
-0.000109764
0.0280728
-9.41482e-05
0.0282424
-4.48986e-05
0.0283852
-1.19983e-05
0.0285199
-7.72484e-06
0.0286849
-4.94344e-05
0.0288937
-0.000107299
0.0291416
-0.00016765
0.0294318
-0.000235123
0.0297599
-0.000290027
0.0301102
-0.000321296
0.0304565
-0.000322364
0.0307756
-0.000297568
0.0310594
-0.000260451
0.0313179
-0.000229683
0.0315594
-0.000209448
0.0317825
-0.000190375
0.0319871
-0.000176283
0.0321643
-0.000158433
0.0323177
-0.000145462
0.0324499
-0.000131191
0.0325599
-0.00011266
0.0326536
-9.71547e-05
0.0327441
-9.63557e-05
0.03285
-0.000115896
0.0329822
-0.000143418
0.0331333
-0.000154195
0.0332847
-0.000140191
0.0334225
-0.000111289
0.0335435
-7.96616e-05
0.0336499
-5.08932e-05
0.0337467
-4.73063e-05
0.0338369
-3.4028e-05
0.0339272
-5.62992e-05
0.0339983
-6.01803e-05
0.0340326
-2.29319e-05
0.0340461
1.21066e-05
0.034051
3.04412e-05
0.0340554
2.41454e-05
0.0340672
9.24839e-06
0.034098
-7.68208e-06
0.0341461
-1.44766e-05
0.0341986
-9.19661e-07
0.0342479
8.67974e-06
0.034288
1.9815e-05
0.0343239
2.71082e-05
0.0343582
3.2137e-05
0.0343913
3.40898e-05
0.0344235
2.97909e-05
0.0344529
2.06946e-05
0.0344749
2.70958e-05
0.0344888
4.15724e-05
0.0345009
4.8538e-05
0.0345169
4.36455e-05
0.0345451
3.2831e-05
0.0345871
2.50615e-05
0.034635
3.29439e-05
0.0346863
3.69954e-05
0.0347308
4.94242e-05
0.0347628
6.49128e-05
0.0347911
6.39136e-05
0.0348157
6.38067e-05
0.0348428
6.23982e-05
0.0348763
5.54127e-05
0.0349195
4.46008e-05
0.0349732
3.16959e-05
0.0350336
2.25152e-05
0.0350973
1.69767e-05
0.035162
1.60906e-05
0.035228
1.71987e-05
0.0352974
1.67333e-05
0.0353718
1.5925e-05
0.0354509
1.692e-05
0.0355325
1.81016e-05
0.0356163
1.70136e-05
0.0357003
1.37697e-05
0.0357815
1.10428e-05
0.0358591
4.20868e-06
0.0359256
1.20624e-05
0.0359791
3.20784e-05
0.0360276
4.09537e-05
0.0360835
3.1592e-05
0.0361522
2.11923e-05
0.0362331
9.6394e-06
0.0363228
5.41444e-07
0.0364064
1.20676e-05
0.0364788
2.14796e-05
0.0365412
2.17853e-05
0.0365899
2.81597e-05
0.036626
4.16249e-05
0.0366613
4.05401e-05
0.0367061
2.7697e-05
0.0367643
1.21049e-05
0.0368289
5.77928e-06
0.0368877
1.26977e-05
0.036937
1.90876e-05
0.0369783
2.29626e-05
0.0370158
2.32369e-05
0.0370533
2.01559e-05
0.0370903
1.71128e-05
0.0371235
1.71361e-05
0.0371507
1.86506e-05
0.0371698
2.27756e-05
0.0371818
2.91707e-05
0.0371933
2.29832e-05
0.0372097
1.44832e-05
0.037232
6.59028e-06
0.0372562
3.4013e-06
0.0372754
4.14945e-06
0.0372867
3.88318e-06
0.0372898
2.47545e-06
1.60415e-06
6.38587e-05
-4.44329e-05
9.75085e-05
3.07317e-05
9.35751e-05
0.000145267
5.01417e-05
0.000252997
-1.29509e-06
0.000244503
-6.44361e-05
0.000264332
-0.000131211
0.000269527
-0.000196902
0.000269004
-0.000260987
0.000272185
-0.000331872
0.000295321
-0.000395518
0.000312716
-0.000438808
0.000281089
-0.000467834
0.000239857
-0.000492123
0.000228611
-0.000487599
0.00017301
-0.000454072
0.000107999
-0.000412075
5.56384e-05
-0.000363595
1.35623e-05
-0.000305691
-3.12137e-05
-0.000235749
-6.96751e-05
-0.000163402
-0.000146092
-8.49679e-05
-0.000220456
1.60434e-05
-0.000295065
0.000164505
-0.000369545
0.000334733
-0.000395615
0.000511946
-0.000398006
0.000672992
-0.00039538
0.000823734
-0.000382258
0.000974752
-0.000365384
0.00109265
-0.000294698
0.00118251
-0.000247683
0.0012516
-0.000180788
0.00128857
-7.21183e-05
0.00126257
8.53631e-05
0.00115848
0.000275823
0.00101937
0.00034847
0.000867267
0.000407501
0.000651292
0.000579409
0.00035546
0.000785282
-2.36926e-05
0.000938204
-0.000397142
0.00103499
-0.000596285
0.000981447
-0.000793942
0.000966706
-0.00103493
0.000994154
-0.00128926
0.00105758
-0.00153493
0.000973617
-0.0017603
0.000841296
-0.00196291
0.000703586
-0.0021293
0.000508711
-0.00223317
0.000201391
-0.00226968
-0.000115955
-0.00224072
-0.000480367
-0.00212778
-0.000794493
-0.00179777
-0.00106771
-0.00134255
-0.00135827
-0.000769396
-0.00161227
-0.000118532
-0.00179582
0.000573965
-0.00189497
0.00128415
-0.00195245
0.00200035
-0.00204617
0.00259518
-0.00192784
0.00301205
-0.0015444
0.00327177
-0.00106997
0.00339984
-0.000594955
0.00333351
2.68872e-05
0.00285336
0.00103432
0.00168667
0.00216113
-0.000149245
0.00274983
-0.00246419
0.00329979
-0.00505879
0.00356609
-0.00788775
0.00392418
-0.01098
0.00453262
-0.0142689
0.00512203
-0.0177041
0.0059464
-0.0211848
0.00666764
-0.0245945
0.00722157
-0.027777
0.00777357
-0.0306083
0.00810192
-0.0330402
0.00811473
-0.0350425
0.00775618
-0.0365413
0.00720845
-0.0376771
0.00659349
-0.0388432
0.00619067
-0.0397406
0.00542487
-0.0403792
0.00444548
-0.0408811
0.00360919
-0.0412465
0.00287958
-0.041508
0.00225659
-0.0416813
0.00172426
-0.0416489
0.00101442
-0.0414491
0.000427347
-0.0409845
-0.000239823
-0.0402057
-0.000905495
-0.0394144
-0.00163942
-0.0383117
-0.00263121
-0.0364542
-0.00361956
-0.0342604
-0.00455
-0.0316049
-0.0055439
-0.0282782
-0.00652796
-0.0246682
-0.00754223
-0.0209603
-0.00766476
-0.0173626
-0.00735447
-0.0139141
-0.00705419
-0.0104493
-0.00707843
-0.00678183
-0.00737809
-0.00283086
-0.00781598
0.00136219
-0.0082302
0.00572014
-0.00845367
0.00987372
-0.00858366
0.0135983
-0.0086799
0.0169026
-0.00860103
0.0200001
-0.00840253
0.0228422
-0.00762087
0.0256373
-0.00779536
0.0285036
-0.00791466
0.0313811
-0.00760689
0.0341463
-0.00691517
0.0367453
-0.00608378
0.0391857
-0.0053401
0.0414238
-0.00439893
0.0434255
-0.00338114
0.0452813
-0.00239535
0.0466143
-0.00169703
0.0470657
-0.000685762
0.0470623
0.000465345
0.0466235
0.00131849
0.0457012
0.00193651
0.0444187
0.00226428
0.0429524
0.00250864
0.0412316
0.00321514
0.0393651
0.00423344
0.0371583
0.00464031
0.0353042
0.00447733
0.0344969
0.00378345
0.0342548
0.00331872
0.0338953
0.00329261
0.0330015
0.00339253
0.0315391
0.00358678
0.0300473
0.00340706
0.0289079
0.00285465
0.0281354
0.00231687
0.0275789
0.00193233
0.0271861
0.00158361
0.0269052
0.0012524
0.0268131
0.000839244
0.0268855
0.000416842
0.0270804
-1.55735e-05
0.027558
-0.000753471
0.0284127
-0.00161571
0.0295256
-0.0023127
0.0308252
-0.00286724
0.0322398
-0.00317822
0.033713
-0.00324016
0.0351869
-0.00304676
0.036688
-0.00275252
0.0383262
-0.00259537
0.0401952
-0.00270731
0.0422205
-0.00291809
0.0440863
-0.00288392
0.0453368
-0.00238187
0.0457567
-0.00150251
0.0458228
-0.000823376
0.0458627
-0.000522543
0.0459774
-0.000419474
0.0461828
-0.000383519
0.0464622
-0.000342829
0.0467577
-0.000262676
0.046996
-0.000152232
0.0471392
1.31291e-05
0.0471742
0.000233
0.0471121
0.000446991
0.0469684
0.000610401
0.0467589
0.000744562
0.0464607
0.00089425
0.0460614
0.00104248
0.0455627
0.00118292
0.0449683
0.0013182
0.0443512
0.00132107
0.0437856
0.00123109
0.0432638
0.00120496
0.042851
0.00107714
0.0425885
0.000820269
0.042406
0.000677762
0.0421911
0.000712323
0.0419229
0.000774043
0.0415935
0.000826867
0.0412241
0.000878543
0.0408051
0.000966767
0.0403468
0.00100472
0.0398973
0.000974558
0.0394658
0.000955086
0.0390304
0.000955946
0.0385734
0.000965672
0.0380836
0.000985536
0.0375601
0.00100969
0.0370078
0.00103343
0.0364321
0.00105513
0.0358389
0.0010715
0.0352306
0.00108787
0.0346051
0.00111309
0.0339588
0.00114717
0.0332822
0.00120103
0.0325671
0.00126799
0.0318173
0.00131084
0.0310482
0.00130719
0.0303173
0.00118439
0.0296794
0.000963003
0.0292002
0.000620349
0.0288945
0.000205758
0.028698
-8.94377e-05
0.0285354
-0.000171149
0.0284052
-0.000163917
0.0282087
3.64523e-05
0.0279203
0.000219926
0.0276362
0.000223541
0.027059
0.000729964
0.0257595
0.00172587
0.0242821
0.00215224
0.0233339
0.00184687
0.0232137
0.00111513
0.0230234
0.000769861
0.022362
0.000768254
0.0212066
0.00101323
0.0198552
0.00123937
0.0185528
0.00132737
0.0173139
0.00168602
0.015987
0.00245334
0.0144753
0.00320851
0.0128511
0.00360231
0.0113217
0.00345966
0.0100505
0.00304313
0.00899179
0.0027068
0.00793353
0.00277728
0.00673618
0.00299901
0.00532001
0.00325443
0.00370559
0.00354789
0.00200735
0.00378868
0.000384108
0.00378869
-0.00105663
0.00358984
-0.00222213
0.0033698
-0.00297033
0.00268765
-0.00350957
0.00218689
-0.0039139
0.00192757
-0.00418491
0.00155895
-0.00451097
0.00135596
-0.00469241
0.000907963
-0.00469178
0.000454878
-0.0043611
-0.000257258
-0.00366868
-0.000965761
-0.00273532
-0.00155457
-0.0016283
-0.00206817
-0.000271372
-0.00257481
0.00141744
-0.00289622
0.00327598
-0.00305403
0.0051903
-0.00320761
0.00720033
-0.00347129
0.00934193
-0.00372373
0.0116167
-0.00393097
0.0140805
-0.00424718
0.0167258
-0.00447826
0.0194145
-0.00439542
0.0218175
-0.00403487
0.023536
-0.00357683
0.0246129
-0.00312824
0.0254932
-0.00282576
0.0263802
-0.00265462
0.027311
-0.00252064
0.0282322
-0.00231885
0.0291323
-0.00209548
0.0300632
-0.00190702
0.0309334
-0.00146823
0.0317603
-0.00107822
0.0325013
-0.000784271
0.0330009
-0.000471325
0.033172
-0.00011826
0.0331851
0.000164043
0.033156
0.000340436
0.0331435
0.000414503
0.0330694
0.000600124
0.0329046
0.000754944
0.0325732