/*--------------------------------*- C++ -*----------------------------------*\
| =========                 |                                                 |
| \\      /  F ield         | OpenFOAM: The Open Source CFD Toolbox           |
|  \\    /   O peration     | Version:  v1812                                 |
|   \\  /    A nd           | Web:      www.OpenFOAM.com                      |
|    \\/     M anipulation  |                                                 |
\*---------------------------------------------------------------------------*/
FoamFile
{
    version     2.0;
    format      ascii;
    class       volScalarField;
    location    "1.1";
    object      T;
}
// * * * * * * * * * * * * * * * * * * * * * * * * * * * * * * * * * * * * * //

dimensions      [0 0 0 1 0 0 0];


internalField   nonuniform List<scalar> 
20400
(
288.514
288.502
288.48
288.445
288.41
288.37
288.331
288.294
288.263
288.238
288.221
288.213
288.213
288.223
288.242
288.268
288.304
288.346
288.394
288.448
288.503
288.561
288.619
288.677
288.734
288.788
288.839
288.886
288.93
288.97
289.009
289.045
289.082
289.119
289.158
289.198
289.239
289.28
289.322
289.364
289.405
289.443
289.483
289.521
289.556
289.59
289.621
289.652
289.682
289.716
289.756
289.804
289.861
289.93
290.013
290.11
290.219
290.339
290.464
290.588
290.693
290.764
290.783
290.76
290.684
290.544
290.359
290.157
289.953
289.773
289.625
289.509
289.424
289.366
289.333
289.319
289.325
289.35
289.383
289.422
289.457
289.487
289.513
289.532
289.546
289.558
289.567
289.575
289.583
289.598
289.606
289.613
289.633
289.654
289.671
289.671
289.668
289.652
289.636
289.624
289.612
289.608
289.611
289.615
289.621
289.625
289.623
289.626
289.605
289.589
289.573
289.536
289.454
289.426
289.387
289.343
289.3
289.261
289.228
289.198
289.18
289.161
289.136
289.118
289.102
289.088
289.076
289.067
289.058
289.047
289.044
289.043
289.036
289.034
289.037
289.041
289.049
289.059
289.069
289.083
289.1
289.118
289.137
289.156
289.174
289.193
289.211
289.23
289.246
289.261
289.274
289.284
289.292
289.298
289.303
289.308
289.31
289.31
289.308
289.304
289.298
289.287
289.273
289.258
289.241
289.224
289.206
289.188
289.17
289.154
289.138
289.123
289.11
289.099
289.091
289.087
289.085
289.088
289.096
289.106
289.122
289.146
289.175
289.209
289.25
289.294
289.343
289.395
289.451
289.508
289.567
289.627
289.685
289.741
289.796
289.849
289.901
289.951
289.999
290.043
290.083
290.119
290.151
290.181
290.208
290.236
290.263
290.29
290.319
290.348
290.376
290.405
290.436
290.463
290.493
290.52
290.549
290.586
290.626
290.669
290.722
290.775
290.832
290.889
290.947
291.005
291.059
291.109
291.154
291.195
291.229
291.256
291.274
291.287
291.297
291.301
291.299
291.295
291.289
291.277
291.268
291.258
291.243
291.227
291.211
291.194
291.176
291.157
291.135
291.114
291.09
291.066
291.039
291.015
290.991
290.967
290.941
290.913
290.886
290.857
290.825
290.792
290.761
290.729
290.694
290.659
290.624
290.59
290.557
290.528
290.5
290.475
290.453
290.434
290.419
290.405
290.396
290.391
290.39
290.393
290.398
290.407
290.419
290.431
290.451
290.47
290.489
290.513
290.537
290.557
290.579
290.603
290.627
290.654
290.681
290.708
290.734
290.761
290.788
290.815
290.843
290.872
290.901
290.931
290.96
290.992
291.023
291.053
291.084
291.114
291.143
291.171
291.199
291.228
291.257
291.287
291.318
291.351
291.387
291.424
291.462
291.501
291.541
291.581
291.62
291.661
291.702
291.745
291.789
291.829
291.87
291.91
291.95
291.988
292.025
292.063
292.103
292.139
292.173
292.207
292.24
292.274
292.303
292.333
292.36
292.386
292.41
292.434
292.457
292.479
292.499
292.517
292.534
292.55
292.564
292.579
292.593
292.606
292.62
292.632
292.644
292.655
292.668
292.678
292.689
292.699
292.712
292.722
292.733
292.746
292.76
292.775
292.787
292.802
292.817
292.831
292.845
292.86
292.874
292.887
292.903
292.917
292.932
292.949
292.966
292.983
293.001
293.019
293.038
293.057
293.075
293.094
293.113
293.132
293.151
293.17
293.189
293.209
293.228
293.247
293.267
293.286
293.305
293.323
293.342
293.36
293.379
293.397
293.415
293.433
293.45
293.467
293.484
293.5
293.516
293.531
293.545
293.559
293.573
293.586
293.598
293.611
293.623
293.635
293.646
293.657
293.668
293.678
293.688
293.698
293.706
293.715
293.723
293.731
293.738
293.745
293.752
293.758
293.764
293.77
293.776
293.781
293.785
293.79
293.794
293.797
293.8
293.803
293.806
293.808
293.811
293.813
293.815
293.817
293.819
293.821
293.823
293.824
293.825
293.826
293.828
293.829
293.83
293.831
293.832
293.834
293.835
293.836
293.838
293.839
293.84
293.842
293.844
293.845
293.847
293.849
293.851
293.853
293.856
293.859
293.862
293.864
293.867
293.871
293.874
293.878
293.881
293.885
293.889
293.894
293.898
293.902
293.907
293.912
293.916
293.921
293.926
293.931
293.936
293.94
288.479
288.466
288.445
288.412
288.378
288.34
288.304
288.27
288.241
288.219
288.205
288.2
288.205
288.216
288.238
288.27
288.309
288.354
288.404
288.458
288.515
288.572
288.63
288.686
288.74
288.791
288.84
288.885
288.928
288.968
289.007
289.045
289.083
289.121
289.161
289.202
289.245
289.288
289.334
289.381
289.428
289.477
289.526
289.573
289.617
289.659
289.697
289.731
289.763
289.795
289.832
289.873
289.92
289.973
290.038
290.113
290.199
290.295
290.397
290.503
290.601
290.676
290.702
290.686
290.621
290.488
290.284
290.058
289.842
289.664
289.536
289.456
289.414
289.401
289.41
289.442
289.491
289.557
289.632
289.716
289.796
289.869
289.938
289.999
290.059
290.116
290.171
290.226
290.279
290.336
290.401
290.468
290.524
290.608
290.654
290.642
290.664
290.688
290.689
290.686
290.675
290.673
290.671
290.678
290.691
290.707
290.719
290.72
290.725
290.724
290.704
290.645
290.507
290.416
290.305
290.16
290
289.844
289.703
289.57
289.444
289.338
289.246
289.16
289.107
289.069
289.047
289.034
289.027
289.007
288.996
288.991
288.977
288.977
288.981
288.981
288.988
289
289.017
289.039
289.061
289.085
289.11
289.137
289.165
289.193
289.225
289.256
289.285
289.311
289.333
289.351
289.364
289.374
289.382
289.387
289.391
289.394
289.392
289.386
289.378
289.364
289.348
289.331
289.312
289.29
289.265
289.238
289.211
289.183
289.156
289.131
289.107
289.085
289.066
289.05
289.035
289.025
289.017
289.01
289.005
289.005
289.008
289.014
289.024
289.04
289.061
289.086
289.117
289.154
289.195
289.242
289.293
289.346
289.399
289.453
289.509
289.567
289.628
289.691
289.754
289.812
289.863
289.906
289.943
289.978
290.013
290.053
290.1
290.154
290.214
290.274
290.331
290.379
290.421
290.453
290.479
290.512
290.544
290.579
290.621
290.665
290.718
290.776
290.844
290.916
290.984
291.049
291.105
291.153
291.19
291.216
291.231
291.24
291.245
291.244
291.238
291.225
291.21
291.189
291.172
291.155
291.137
291.122
291.11
291.101
291.096
291.094
291.091
291.091
291.09
291.09
291.087
291.08
291.07
291.06
291.049
291.036
291.024
291.01
290.99
290.965
290.939
290.91
290.874
290.836
290.797
290.757
290.716
290.675
290.632
290.591
290.552
290.518
290.488
290.461
290.438
290.418
290.403
290.394
290.389
290.39
290.393
290.399
290.412
290.431
290.449
290.479
290.511
290.54
290.568
290.592
290.617
290.647
290.679
290.713
290.746
290.779
290.813
290.846
290.878
290.911
290.944
290.977
291.009
291.044
291.075
291.105
291.133
291.159
291.185
291.209
291.23
291.25
291.27
291.292
291.316
291.342
291.37
291.399
291.425
291.451
291.479
291.506
291.533
291.56
291.587
291.617
291.651
291.68
291.709
291.739
291.768
291.797
291.827
291.857
291.887
291.915
291.941
291.97
292.001
292.037
292.073
292.109
292.144
292.178
292.21
292.24
292.27
292.301
292.333
292.365
292.394
292.423
292.447
292.469
292.491
292.511
292.531
292.552
292.571
292.59
292.608
292.623
292.636
292.646
292.657
292.666
292.676
292.685
292.694
292.707
292.718
292.727
292.739
292.75
292.762
292.777
292.789
292.801
292.814
292.826
292.84
292.852
292.865
292.879
292.894
292.909
292.926
292.942
292.96
292.977
292.994
293.011
293.029
293.046
293.065
293.083
293.103
293.122
293.142
293.161
293.181
293.2
293.219
293.237
293.255
293.273
293.292
293.31
293.328
293.346
293.364
293.382
293.401
293.419
293.436
293.454
293.47
293.486
293.501
293.515
293.529
293.542
293.554
293.566
293.578
293.59
293.602
293.613
293.624
293.635
293.644
293.653
293.662
293.67
293.677
293.684
293.691
293.698
293.704
293.71
293.716
293.722
293.726
293.731
293.735
293.738
293.742
293.744
293.747
293.749
293.751
293.753
293.755
293.757
293.759
293.761
293.762
293.764
293.765
293.766
293.767
293.768
293.769
293.771
293.772
293.773
293.775
293.776
293.778
293.779
293.781
293.782
293.784
293.786
293.788
293.79
293.792
293.795
293.797
293.8
293.803
293.807
293.81
293.813
293.817
293.821
293.825
293.829
293.834
293.838
293.843
293.847
293.852
293.857
293.862
293.867
293.872
293.876
288.407
288.397
288.377
288.346
288.315
288.281
288.248
288.22
288.198
288.184
288.178
288.181
288.195
288.217
288.249
288.288
288.334
288.385
288.44
288.498
288.556
288.613
288.669
288.723
288.774
288.822
288.866
288.909
288.95
288.988
289.025
289.062
289.101
289.139
289.181
289.226
289.274
289.325
289.38
289.44
289.501
289.571
289.637
289.7
289.759
289.815
289.863
289.904
289.94
289.974
290.008
290.044
290.081
290.123
290.166
290.216
290.27
290.33
290.395
290.465
290.527
290.57
290.574
290.547
290.474
290.344
290.146
289.922
289.716
289.571
289.505
289.487
289.503
289.557
289.638
289.741
289.858
289.99
290.136
290.299
290.471
290.632
290.763
290.898
291.033
291.155
291.266
291.368
291.466
291.554
291.621
291.694
291.75
291.764
291.797
291.864
291.882
291.875
291.883
291.895
291.896
291.895
291.898
291.91
291.93
291.955
291.98
292.008
292.025
292.038
292.043
292.04
291.994
291.943
291.873
291.762
291.604
291.402
291.164
290.894
290.6
290.297
289.987
289.682
289.424
289.245
289.134
289.063
289.014
288.971
288.948
288.937
288.912
288.916
288.934
288.94
288.945
288.957
288.974
288.996
289.021
289.051
289.087
289.129
289.175
289.228
289.286
289.349
289.415
289.478
289.534
289.577
289.605
289.621
289.634
289.651
289.671
289.686
289.688
289.682
289.657
289.629
289.603
289.581
289.558
289.533
289.502
289.464
289.421
289.373
289.321
289.27
289.22
289.172
289.127
289.087
289.051
289.02
288.993
288.968
288.945
288.927
288.909
288.889
288.869
288.849
288.831
288.814
288.801
288.793
288.795
288.8
288.812
288.834
288.863
288.899
288.938
288.982
289.032
289.091
289.16
289.238
289.318
289.39
289.449
289.493
289.529
289.565
289.613
289.682
289.775
289.888
290.014
290.138
290.255
290.343
290.399
290.443
290.474
290.504
290.537
290.567
290.612
290.667
290.733
290.806
290.885
290.961
291.024
291.077
291.118
291.149
291.166
291.172
291.168
291.156
291.134
291.102
291.065
291.02
290.978
290.938
290.901
290.871
290.842
290.825
290.816
290.82
290.832
290.855
290.878
290.905
290.931
290.954
290.972
290.99
291.009
291.026
291.045
291.065
291.082
291.092
291.092
291.078
291.058
291.032
291
290.96
290.912
290.862
290.804
290.747
290.693
290.642
290.589
290.539
290.495
290.457
290.426
290.401
290.38
290.368
290.359
290.355
290.366
290.382
290.399
290.419
290.453
290.488
290.52
290.553
290.587
290.622
290.663
290.709
290.755
290.803
290.848
290.891
290.934
290.977
291.021
291.065
291.106
291.148
291.187
291.22
291.251
291.28
291.305
291.324
291.342
291.358
291.371
291.382
291.392
291.402
291.414
291.43
291.451
291.474
291.501
291.529
291.558
291.586
291.614
291.64
291.648
291.661
291.676
291.687
291.694
291.699
291.702
291.703
291.707
291.707
291.709
291.716
291.728
291.742
291.76
291.783
291.812
291.843
291.873
291.904
291.933
291.966
292.002
292.044
292.088
292.134
292.174
292.21
292.243
292.274
292.308
292.347
292.389
292.425
292.461
292.493
292.52
292.541
292.558
292.571
292.581
292.59
292.601
292.613
292.622
292.637
292.65
292.657
292.663
292.672
292.677
292.681
292.688
292.695
292.704
292.715
292.727
292.738
292.748
292.758
292.77
292.783
292.798
292.814
292.83
292.845
292.859
292.872
292.886
292.899
292.914
292.929
292.946
292.963
292.981
292.998
293.016
293.033
293.05
293.067
293.085
293.103
293.123
293.143
293.163
293.183
293.202
293.221
293.241
293.26
293.279
293.298
293.316
293.334
293.352
293.368
293.384
293.401
293.416
293.432
293.447
293.462
293.476
293.49
293.503
293.515
293.526
293.536
293.546
293.555
293.564
293.573
293.582
293.591
293.599
293.608
293.614
293.621
293.626
293.631
293.635
293.64
293.644
293.647
293.651
293.653
293.656
293.659
293.661
293.664
293.667
293.669
293.67
293.671
293.672
293.673
293.673
293.674
293.675
293.677
293.679
293.682
293.684
293.686
293.687
293.688
293.689
293.69
293.692
293.695
293.698
293.701
293.703
293.706
293.708
293.711
293.714
293.718
293.721
293.725
293.728
293.732
293.737
293.742
293.747
293.752
293.757
293.761
293.766
293.77
293.775
293.779
288.31
288.299
288.282
288.255
288.227
288.199
288.174
288.156
288.144
288.142
288.15
288.169
288.197
288.235
288.281
288.334
288.392
288.453
288.514
288.575
288.634
288.689
288.74
288.787
288.831
288.873
288.913
288.951
288.989
289.028
289.067
289.106
289.145
289.188
289.235
289.29
289.352
289.421
289.501
289.587
289.678
289.767
289.853
289.93
289.996
290.054
290.1
290.135
290.163
290.189
290.211
290.231
290.25
290.268
290.287
290.307
290.331
290.36
290.391
290.417
290.432
290.429
290.399
290.342
290.256
290.132
289.963
289.782
289.634
289.566
289.554
289.604
289.698
289.829
289.99
290.175
290.376
290.591
290.813
291.034
291.242
291.439
291.625
291.781
291.914
292.019
292.102
292.165
292.211
292.245
292.256
292.259
292.259
292.247
292.239
292.231
292.217
292.199
292.185
292.175
292.171
292.171
292.173
292.174
292.18
292.19
292.203
292.221
292.243
292.268
292.295
292.329
292.363
292.392
292.428
292.457
292.471
292.47
292.445
292.362
292.205
291.953
291.58
291.075
290.525
290.037
289.666
289.404
289.223
289.093
289.015
288.961
288.914
288.879
288.874
288.876
288.881
288.893
288.914
288.943
288.982
289.026
289.075
289.132
289.199
289.277
289.367
289.473
289.589
289.709
289.829
289.936
290.02
290.078
290.124
290.173
290.229
290.268
290.27
290.255
290.209
290.153
290.11
290.081
290.058
290.033
290.004
289.968
289.92
289.859
289.786
289.705
289.619
289.53
289.443
289.361
289.287
289.224
289.174
289.133
289.092
289.055
289.02
288.985
288.945
288.903
288.855
288.8
288.744
288.689
288.636
288.588
288.548
288.516
288.494
288.486
288.486
288.49
288.501
288.522
288.557
288.609
288.675
288.751
288.827
288.891
288.937
288.97
289.004
289.057
289.145
289.274
289.455
289.667
289.884
290.087
290.235
290.345
290.398
290.437
290.474
290.512
290.557
290.608
290.667
290.74
290.817
290.896
290.963
291.025
291.068
291.103
291.121
291.116
291.097
291.062
291.017
290.957
290.887
290.804
290.717
290.631
290.546
290.468
290.407
290.361
290.325
290.312
290.308
290.32
290.342
290.37
290.404
290.44
290.476
290.515
290.562
290.612
290.669
290.74
290.826
290.919
290.993
291.043
291.072
291.082
291.082
291.074
291.056
291.018
290.963
290.902
290.833
290.762
290.692
290.623
290.559
290.501
290.449
290.407
290.37
290.35
290.335
290.322
290.322
290.33
290.344
290.364
290.399
290.44
290.475
290.515
290.566
290.614
290.662
290.716
290.773
290.832
290.891
290.95
291.007
291.064
291.12
291.174
291.225
291.272
291.312
291.342
291.37
291.388
291.403
291.417
291.43
291.443
291.456
291.468
291.481
291.49
291.496
291.505
291.521
291.539
291.56
291.584
291.608
291.633
291.661
291.687
291.706
291.727
291.748
291.766
291.78
291.784
291.782
291.778
291.756
291.727
291.697
291.668
291.645
291.627
291.613
291.608
291.606
291.608
291.613
291.62
291.626
291.639
291.656
291.68
291.712
291.752
291.792
291.829
291.868
291.909
291.957
292.01
292.067
292.127
292.186
292.244
292.295
292.342
292.386
292.423
292.453
292.484
292.501
292.522
292.533
292.54
292.552
292.559
292.568
292.576
292.579
292.581
292.583
292.587
292.595
292.601
292.608
292.615
292.625
292.635
292.646
292.655
292.665
292.676
292.687
292.698
292.71
292.721
292.732
292.743
292.756
292.768
292.782
292.795
292.808
292.82
292.831
292.842
292.853
292.864
292.875
292.886
292.898
292.912
292.927
292.943
292.959
292.977
292.995
293.015
293.035
293.056
293.077
293.099
293.118
293.138
293.157
293.176
293.194
293.212
293.23
293.248
293.267
293.286
293.304
293.321
293.337
293.353
293.368
293.383
293.397
293.411
293.423
293.435
293.446
293.457
293.468
293.478
293.488
293.497
293.505
293.513
293.52
293.527
293.532
293.538
293.542
293.546
293.55
293.554
293.558
293.561
293.564
293.567
293.57
293.572
293.574
293.576
293.578
293.58
293.581
293.584
293.585
293.587
293.589
293.591
293.593
293.595
293.598
293.6
293.602
293.604
293.606
293.608
293.611
293.614
293.618
293.621
293.625
293.628
293.631
293.635
293.639
293.644
293.648
293.653
293.658
293.662
293.667
293.672
293.677
293.683
288.196
288.187
288.173
288.151
288.129
288.11
288.096
288.091
288.096
288.111
288.139
288.178
288.227
288.284
288.348
288.416
288.485
288.553
288.618
288.678
288.733
288.782
288.826
288.866
288.903
288.939
288.974
289.01
289.048
289.086
289.127
289.169
289.215
289.267
289.329
289.405
289.496
289.599
289.712
289.83
289.947
290.054
290.147
290.221
290.276
290.317
290.342
290.353
290.355
290.353
290.345
290.333
290.324
290.315
290.309
290.301
290.291
290.282
290.274
290.261
290.237
290.199
290.137
290.063
289.983
289.887
289.774
289.671
289.62
289.605
289.666
289.792
289.964
290.17
290.405
290.66
290.925
291.19
291.447
291.685
291.886
292.052
292.185
292.283
292.35
292.384
292.398
292.398
292.381
292.351
292.313
292.271
292.213
292.155
292.092
292.026
291.96
291.902
291.855
291.814
291.785
291.761
291.738
291.711
291.681
291.65
291.62
291.597
291.585
291.584
291.596
291.627
291.681
291.744
291.839
291.978
292.168
292.382
292.571
292.712
292.787
292.795
292.75
292.567
292.177
291.622
291.026
290.494
290.057
289.705
289.427
289.222
289.07
288.971
288.925
288.903
288.901
288.909
288.928
288.956
288.994
289.045
289.105
289.177
289.263
289.364
289.487
289.63
289.798
289.98
290.167
290.348
290.51
290.646
290.756
290.855
290.955
291.045
291.077
291.067
291.032
290.972
290.909
290.852
290.803
290.759
290.717
290.673
290.623
290.561
290.485
290.397
290.301
290.197
290.09
289.98
289.868
289.759
289.661
289.574
289.493
289.43
289.382
289.337
289.297
289.254
289.197
289.127
289.04
288.946
288.85
288.754
288.663
288.58
288.504
288.433
288.369
288.311
288.261
288.218
288.192
288.189
288.196
288.217
288.252
288.298
288.339
288.367
288.389
288.429
288.505
288.638
288.849
289.126
289.429
289.716
289.924
290.116
290.23
290.309
290.388
290.464
290.53
290.593
290.651
290.713
290.782
290.856
290.93
290.996
291.046
291.084
291.095
291.082
291.046
290.986
290.917
290.821
290.703
290.569
290.428
290.282
290.144
290.021
289.915
289.83
289.766
289.722
289.69
289.677
289.67
289.672
289.68
289.693
289.71
289.734
289.771
289.822
289.891
289.981
290.109
290.277
290.459
290.623
290.755
290.865
290.956
291.023
291.06
291.06
291.044
291.01
290.96
290.896
290.818
290.733
290.648
290.564
290.488
290.423
290.367
290.321
290.297
290.276
290.273
290.281
290.295
290.319
290.351
290.39
290.435
290.475
290.53
290.592
290.652
290.719
290.79
290.861
290.931
291.004
291.072
291.137
291.197
291.254
291.303
291.344
291.377
291.4
291.416
291.424
291.432
291.433
291.431
291.428
291.428
291.43
291.441
291.459
291.476
291.492
291.511
291.53
291.551
291.576
291.603
291.629
291.652
291.682
291.715
291.742
291.771
291.798
291.823
291.844
291.861
291.873
291.868
291.854
291.834
291.808
291.777
291.742
291.706
291.673
291.644
291.616
291.588
291.559
291.53
291.501
291.474
291.455
291.449
291.451
291.461
291.473
291.49
291.518
291.554
291.603
291.659
291.719
291.783
291.854
291.925
292.004
292.081
292.158
292.227
292.283
292.336
292.379
292.407
292.428
292.449
292.467
292.49
292.502
292.514
292.514
292.519
292.52
292.521
292.524
292.532
292.539
292.548
292.559
292.57
292.582
292.593
292.606
292.619
292.632
292.643
292.654
292.665
292.676
292.686
292.695
292.704
292.712
292.719
292.725
292.731
292.736
292.74
292.744
292.747
292.75
292.752
292.755
292.759
292.762
292.766
292.771
292.777
292.786
292.795
292.807
292.819
292.835
292.851
292.869
292.887
292.906
292.925
292.944
292.964
292.984
293.005
293.027
293.047
293.068
293.088
293.108
293.127
293.148
293.169
293.19
293.21
293.228
293.246
293.263
293.28
293.296
293.312
293.326
293.341
293.354
293.366
293.378
293.389
293.399
293.408
293.417
293.426
293.434
293.441
293.448
293.454
293.46
293.465
293.47
293.473
293.477
293.481
293.484
293.488
293.491
293.494
293.497
293.5
293.503
293.505
293.508
293.511
293.513
293.516
293.518
293.521
293.523
293.526
293.529
293.533
293.536
293.539
293.543
293.546
293.55
293.554
293.558
293.562
293.567
293.571
293.576
293.581
293.586
293.591
293.595
288.078
288.072
288.062
288.047
288.034
288.028
288.029
288.042
288.068
288.107
288.159
288.222
288.294
288.373
288.454
288.534
288.609
288.678
288.738
288.79
288.834
288.872
288.905
288.936
288.966
288.998
289.031
289.067
289.106
289.148
289.192
289.241
289.298
289.367
289.455
289.569
289.704
289.848
289.995
290.135
290.259
290.36
290.436
290.483
290.505
290.511
290.499
290.471
290.436
290.397
290.355
290.31
290.265
290.222
290.181
290.144
290.109
290.08
290.053
290.022
289.985
289.938
289.878
289.821
289.773
289.725
289.686
289.666
289.657
289.707
289.838
290.027
290.26
290.52
290.797
291.08
291.35
291.591
291.798
291.969
292.107
292.205
292.27
292.314
292.324
292.32
292.267
292.201
292.119
292.023
291.925
291.826
291.73
291.646
291.568
291.501
291.445
291.4
291.363
291.331
291.31
291.292
291.277
291.264
291.245
291.218
291.184
291.145
291.102
291.059
291.018
290.981
290.957
290.936
290.943
290.987
291.091
291.269
291.515
291.805
292.123
292.469
292.806
292.997
293
292.904
292.626
292.185
291.655
291.097
290.548
290.063
289.672
289.392
289.212
289.108
289.049
289.031
289.039
289.059
289.095
289.153
289.226
289.318
289.428
289.558
289.714
289.901
290.118
290.358
290.609
290.854
291.084
291.292
291.474
291.631
291.767
291.888
291.975
291.992
291.983
291.952
291.904
291.84
291.767
291.69
291.617
291.546
291.473
291.392
291.304
291.209
291.11
291.008
290.902
290.788
290.663
290.529
290.395
290.269
290.155
290.064
289.995
289.939
289.893
289.852
289.807
289.739
289.652
289.547
289.428
289.299
289.166
289.033
288.903
288.779
288.66
288.548
288.443
288.345
288.258
288.179
288.102
288.032
287.976
287.939
287.918
287.907
287.901
287.911
287.967
288.093
288.31
288.603
288.917
289.198
289.441
289.65
289.828
290.008
290.18
290.33
290.46
290.565
290.647
290.716
290.785
290.86
290.937
291.003
291.058
291.094
291.11
291.099
291.06
290.982
290.863
290.714
290.536
290.348
290.168
289.992
289.828
289.683
289.573
289.483
289.417
289.366
289.331
289.305
289.279
289.257
289.232
289.206
289.18
289.153
289.136
289.133
289.146
289.185
289.264
289.396
289.58
289.792
290.009
290.229
290.445
290.649
290.828
290.955
291.014
291.025
291.017
290.988
290.932
290.854
290.762
290.662
290.553
290.459
290.372
290.299
290.253
290.226
290.226
290.233
290.243
290.268
290.299
290.336
290.385
290.436
290.498
290.571
290.644
290.717
290.802
290.882
290.96
291.038
291.111
291.177
291.237
291.288
291.331
291.362
291.383
291.394
291.401
291.397
291.388
291.369
291.343
291.313
291.285
291.264
291.26
291.267
291.282
291.299
291.319
291.342
291.369
291.402
291.445
291.491
291.536
291.583
291.632
291.679
291.727
291.773
291.818
291.856
291.887
291.914
291.938
291.942
291.94
291.935
291.924
291.906
291.879
291.847
291.813
291.776
291.737
291.693
291.644
291.591
291.537
291.485
291.436
291.384
291.338
291.294
291.263
291.255
291.255
291.264
291.283
291.312
291.356
291.41
291.477
291.563
291.661
291.766
291.866
291.955
292.04
292.121
292.185
292.242
292.29
292.336
292.381
292.414
292.434
292.452
292.458
292.463
292.468
292.476
292.483
292.493
292.505
292.519
292.535
292.552
292.569
292.586
292.605
292.623
292.642
292.66
292.679
292.698
292.715
292.73
292.742
292.752
292.759
292.764
292.767
292.769
292.768
292.766
292.761
292.754
292.744
292.733
292.721
292.709
292.696
292.684
292.674
292.666
292.658
292.651
292.645
292.641
292.64
292.642
292.644
292.649
292.655
292.663
292.674
292.689
292.705
292.723
292.741
292.76
292.779
292.8
292.821
292.844
292.869
292.894
292.92
292.946
292.971
292.996
293.021
293.045
293.069
293.092
293.114
293.136
293.156
293.175
293.194
293.212
293.229
293.246
293.261
293.277
293.291
293.305
293.318
293.329
293.34
293.35
293.359
293.367
293.375
293.382
293.389
293.395
293.401
293.407
293.413
293.418
293.422
293.427
293.432
293.435
293.438
293.442
293.445
293.449
293.452
293.456
293.459
293.463
293.466
293.47
293.474
293.478
293.482
293.485
293.49
293.494
293.498
293.503
293.508
293.512
293.517
293.522
287.965
287.963
287.959
287.954
287.955
287.964
287.986
288.023
288.075
288.14
288.219
288.308
288.403
288.499
288.591
288.675
288.746
288.805
288.851
288.886
288.914
288.937
288.96
288.984
289.011
289.042
289.078
289.118
289.161
289.207
289.257
289.315
289.387
289.481
289.604
289.762
289.944
290.127
290.296
290.438
290.545
290.616
290.651
290.659
290.644
290.607
290.555
290.491
290.423
290.353
290.28
290.21
290.142
290.078
290.018
289.964
289.915
289.875
289.841
289.808
289.776
289.744
289.71
289.689
289.687
289.686
289.692
289.711
289.758
289.861
290.034
290.259
290.512
290.763
290.991
291.204
291.409
291.598
291.774
291.916
292.011
292.068
292.095
292.091
292.049
291.958
291.846
291.731
291.616
291.505
291.401
291.311
291.231
291.167
291.115
291.077
291.053
291.039
291.031
291.019
291.006
290.998
290.99
290.984
290.975
290.961
290.939
290.905
290.86
290.807
290.747
290.682
290.614
290.537
290.477
290.441
290.44
290.471
290.559
290.707
290.92
291.226
291.638
292.135
292.655
293.062
293.188
293.162
293.015
292.683
292.174
291.571
290.967
290.439
290.032
289.744
289.555
289.432
289.399
289.403
289.43
289.483
289.567
289.677
289.813
289.981
290.18
290.411
290.676
290.964
291.256
291.539
291.804
292.045
292.258
292.443
292.598
292.723
292.822
292.886
292.897
292.891
292.869
292.825
292.762
292.685
292.601
292.513
292.42
292.317
292.207
292.091
291.975
291.858
291.742
291.627
291.508
291.382
291.252
291.118
290.982
290.861
290.758
290.662
290.595
290.544
290.501
290.453
290.396
290.323
290.227
290.11
289.976
289.829
289.674
289.513
289.351
289.188
289.028
288.87
288.715
288.563
288.416
288.275
288.149
288.034
287.924
287.814
287.702
287.641
287.646
287.7
287.84
288.062
288.318
288.559
288.779
289.001
289.231
289.493
289.788
290.073
290.312
290.49
290.62
290.718
290.801
290.879
290.953
291.023
291.084
291.133
291.13
291.118
291.075
290.977
290.818
290.622
290.397
290.189
289.98
289.787
289.633
289.511
289.424
289.365
289.322
289.297
289.28
289.265
289.241
289.21
289.169
289.12
289.063
289.001
288.939
288.883
288.825
288.775
288.752
288.764
288.83
288.952
289.117
289.33
289.589
289.883
290.196
290.492
290.736
290.908
290.992
291.003
290.992
290.95
290.875
290.774
290.657
290.539
290.425
290.329
290.254
290.2
290.183
290.187
290.194
290.214
290.248
290.288
290.344
290.405
290.468
290.542
290.617
290.696
290.779
290.865
290.949
291.031
291.106
291.173
291.23
291.278
291.313
291.334
291.346
291.349
291.344
291.334
291.31
291.273
291.228
291.18
291.134
291.093
291.076
291.074
291.08
291.094
291.116
291.146
291.185
291.23
291.284
291.35
291.42
291.492
291.564
291.631
291.696
291.758
291.816
291.873
291.921
291.962
291.994
292.014
292.028
292.033
292.031
292.026
292.015
291.998
291.977
291.951
291.922
291.886
291.843
291.789
291.728
291.656
291.579
291.498
291.423
291.347
291.284
291.234
291.179
291.129
291.084
291.062
291.063
291.071
291.098
291.15
291.218
291.305
291.394
291.488
291.591
291.698
291.803
291.905
291.998
292.087
292.171
292.24
292.295
292.34
292.369
292.39
292.408
292.423
292.438
292.451
292.464
292.48
292.499
292.522
292.547
292.572
292.599
292.628
292.656
292.686
292.717
292.749
292.782
292.814
292.844
292.869
292.889
292.907
292.923
292.936
292.945
292.948
292.948
292.942
292.929
292.909
292.884
292.854
292.823
292.793
292.764
292.734
292.704
292.673
292.641
292.611
292.582
292.555
292.53
292.507
292.488
292.471
292.457
292.447
292.442
292.441
292.441
292.444
292.451
292.46
292.473
292.489
292.509
292.531
292.556
292.582
292.611
292.64
292.671
292.701
292.733
292.764
292.795
292.826
292.857
292.886
292.915
292.943
292.971
292.998
293.024
293.05
293.076
293.1
293.123
293.145
293.166
293.185
293.202
293.219
293.235
293.249
293.263
293.276
293.288
293.299
293.31
293.32
293.329
293.338
293.346
293.354
293.36
293.367
293.372
293.377
293.382
293.387
293.392
293.396
293.401
293.405
293.41
293.414
293.418
293.422
293.427
293.431
293.436
293.44
293.445
293.449
293.454
293.459
287.866
287.868
287.872
287.879
287.896
287.926
287.973
288.038
288.118
288.214
288.321
288.434
288.547
288.652
288.745
288.819
288.874
288.913
288.937
288.952
288.962
288.972
288.986
289.007
289.035
289.07
289.112
289.158
289.207
289.26
289.32
289.39
289.483
289.605
289.76
289.953
290.166
290.37
290.541
290.666
290.741
290.773
290.775
290.747
290.694
290.627
290.549
290.467
290.383
290.3
290.219
290.14
290.066
289.996
289.93
289.872
289.819
289.773
289.735
289.702
289.679
289.665
289.658
289.668
289.694
289.724
289.763
289.82
289.901
290.028
290.205
290.41
290.603
290.782
290.966
291.145
291.313
291.454
291.577
291.659
291.694
291.694
291.653
291.599
291.513
291.399
291.269
291.138
291.008
290.894
290.821
290.775
290.739
290.729
290.731
290.744
290.768
290.798
290.832
290.86
290.877
290.887
290.887
290.882
290.871
290.85
290.817
290.771
290.714
290.648
290.575
290.496
290.413
290.317
290.228
290.149
290.083
290.042
290.039
290.063
290.138
290.288
290.539
290.907
291.389
291.946
292.488
292.953
293.274
293.322
293.25
293.001
292.557
291.998
291.441
290.965
290.598
290.35
290.19
290.128
290.132
290.171
290.244
290.364
290.523
290.717
290.948
291.208
291.493
291.789
292.082
292.361
292.619
292.851
293.054
293.227
293.369
293.481
293.567
293.631
293.66
293.662
293.656
293.633
293.589
293.532
293.465
293.389
293.303
293.202
293.09
292.967
292.839
292.707
292.579
292.457
292.335
292.211
292.085
291.95
291.808
291.668
291.538
291.421
291.337
291.271
291.22
291.176
291.13
291.081
291.019
290.936
290.833
290.711