/*--------------------------------*- C++ -*----------------------------------*\
| =========                 |                                                 |
| \\      /  F ield         | OpenFOAM: The Open Source CFD Toolbox           |
|  \\    /   O peration     | Version:  v1812                                 |
|   \\  /    A nd           | Web:      www.OpenFOAM.com                      |
|    \\/     M anipulation  |                                                 |
\*---------------------------------------------------------------------------*/
FoamFile
{
    version     2.0;
    format      ascii;
    class       volVectorField;
    location    "1.1";
    object      U;
}
// * * * * * * * * * * * * * * * * * * * * * * * * * * * * * * * * * * * * * //

dimensions      [0 1 -1 0 0 0 0];


internalField   nonuniform List<vector> 
20400
(
(0.0268046 -0.0243309 0)
(0.0554213 -0.00955904 0)
(0.0731041 0.0108029 0)
(0.0618645 0.0301489 0)
(0.0497563 0.0237474 0)
(0.0435465 0.0251289 0)
(0.0331242 0.0257853 0)
(0.0222404 0.0260358 0)
(0.00990636 0.0257831 0)
(-0.00612082 0.0244875 0)
(-0.0275489 0.0221071 0)
(-0.0522254 0.0184879 0)
(-0.0785889 0.0113802 0)
(-0.102368 0.00369058 0)
(-0.1257 0.00133849 0)
(-0.145759 -0.00565333 0)
(-0.156668 -0.0106853 0)
(-0.160154 -0.01105 0)
(-0.158098 -0.00347243 0)
(-0.150697 0.0136671 0)
(-0.136381 -0.00212641 0)
(-0.10668 -0.0108393 0)
(-0.0666563 -0.0146175 0)
(-0.0213384 -0.0172531 0)
(0.026189 -0.0245292 0)
(0.0750823 -0.0449351 0)
(0.127999 -0.0462182 0)
(0.177981 -0.0437795 0)
(0.22627 -0.0433669 0)
(0.271672 -0.0383318 0)
(0.309715 -0.0305393 0)
(0.339664 -0.0219141 0)
(0.359249 -0.00678121 0)
(0.359014 0.0121396 0)
(0.33088 0.0392402 0)
(0.285093 0.046273 0)
(0.234193 0.0560429 0)
(0.168505 0.0625577 0)
(0.0929264 0.0443156 0)
(0.00893791 0.0409661 0)
(-0.0892739 0.0397763 0)
(-0.223062 0.0604166 0)
(-0.383079 0.0862039 0)
(-0.532319 0.143737 0)
(-0.692262 0.157339 0)
(-0.851981 0.147252 0)
(-0.994757 0.127673 0)
(-1.11691 0.105233 0)
(-1.21503 0.075259 0)
(-1.27819 0.0350146 0)
(-1.30565 -0.00189666 0)
(-1.28402 -0.0480532 0)
(-1.21396 -0.0970864 0)
(-1.10307 -0.130954 0)
(-0.965809 -0.153078 0)
(-0.809757 -0.167976 0)
(-0.639785 -0.179218 0)
(-0.46067 -0.183784 0)
(-0.276647 -0.189565 0)
(-0.0789308 -0.209349 0)
(0.134375 -0.182949 0)
(0.338073 -0.145272 0)
(0.506293 -0.10941 0)
(0.62607 -0.0663719 0)
(0.676188 -0.0240637 0)
(0.676152 -0.103084 0)
(0.646505 -0.153857 0)
(0.647748 -0.00711243 0)
(0.655587 -0.00836749 0)
(0.678213 -0.0493365 0)
(0.745126 -0.0638829 0)
(0.798451 -0.0243246 0)
(0.796084 0.0379943 0)
(0.680166 0.200584 0)
(0.384487 0.379515 0)
(-0.0753203 0.508689 0)
(-0.677424 0.464729 0)
(-1.35095 0.279623 0)
(-2.08636 0.114124 0)
(-2.86591 0.0360972 0)
(-3.67194 0.081595 0)
(-4.46957 0.219921 0)
(-5.22676 0.36844 0)
(-5.91795 0.488384 0)
(-6.5373 0.496376 0)
(-7.06697 0.463152 0)
(-7.53509 0.445045 0)
(-7.96337 0.424856 0)
(-8.3669 0.397157 0)
(-8.71229 0.29728 0)
(-9.00165 0.276812 0)
(-9.20998 0.232349 0)
(-9.32922 0.196875 0)
(-9.36182 0.234476 0)
(-9.28628 0.234784 0)
(-9.09246 0.282825 0)
(-8.80375 0.400962 0)
(-8.50924 0.698191 0)
(-8.26483 1.04816 0)
(-7.88138 1.05885 0)
(-7.45832 0.983585 0)
(-7.08296 0.60746 0)
(-6.58095 0.207524 0)
(-5.95508 0.00601691 0)
(-5.29294 -0.0875906 0)
(-4.60176 -0.156618 0)
(-3.88744 -0.227888 0)
(-3.12349 -0.244227 0)
(-2.47543 -0.607279 0)
(-1.77881 -0.672013 0)
(-1.04451 -0.698512 0)
(-0.317077 -0.525611 0)
(0.188178 -0.211831 0)
(0.693338 -0.189013 0)
(1.2743 -0.28357 0)
(1.8981 -0.376979 0)
(2.47873 -0.406025 0)
(2.95359 -0.395022 0)
(3.3356 -0.365269 0)
(3.66034 -0.268074 0)
(3.93633 -0.0532968 0)
(4.09295 0.224382 0)
(4.24541 0.030148 0)
(4.46986 -0.202131 0)
(4.58406 -0.480118 0)
(4.60893 -0.601026 0)
(4.5836 -0.565956 0)
(4.52454 -0.352961 0)
(4.37956 -0.0398486 0)
(4.17843 0.263092 0)
(3.96908 0.377739 0)
(3.83813 0.364519 0)
(3.77172 0.215412 0)
(3.66546 -0.267667 0)
(3.33335 -0.429127 0)
(2.99825 -0.467195 0)
(2.70093 -0.450292 0)
(2.45512 -0.33773 0)
(2.22077 -0.151296 0)
(1.97448 0.0442538 0)
(1.72996 0.126289 0)
(1.52585 0.140898 0)
(1.35425 0.142562 0)
(1.2142 0.128867 0)
(1.10722 0.104763 0)
(1.03753 0.0718859 0)
(1.00348 0.0339376 0)
(1.01806 -0.00998469 0)
(1.08913 -0.0614833 0)
(1.21169 -0.104443 0)
(1.37303 -0.136277 0)
(1.55262 -0.148186 0)
(1.72681 -0.150351 0)
(1.88811 -0.147413 0)
(2.04246 -0.128039 0)
(2.20425 -0.106381 0)
(2.37805 -0.0726687 0)
(2.56357 -0.0205021 0)
(2.7498 0.057223 0)
(2.942 0.104089 0)
(3.12498 0.087493 0)
(3.2542 0.0409018 0)
(3.32289 0.00497897 0)
(3.35561 -0.00853353 0)
(3.3669 -0.0205413 0)
(3.37396 -0.0242823 0)
(3.37841 -0.0218291 0)
(3.37572 -0.00479615 0)
(3.35977 0.0082467 0)
(3.33063 0.0127942 0)
(3.28645 0.0152055 0)
(3.22903 0.0165684 0)
(3.16086 0.0205308 0)
(3.08164 0.0224065 0)
(2.99253 0.0266284 0)
(2.89467 0.0317843 0)
(2.78699 0.0381318 0)
(2.67516 0.0389644 0)
(2.56654 0.0404512 0)
(2.45751 0.0497111 0)
(2.35132 0.0510006 0)
(2.258 0.0461932 0)
(2.17682 0.0457468 0)
(2.09486 0.0518962 0)
(2.00845 0.0506952 0)
(1.91991 0.0452541 0)
(1.82947 0.0507056 0)
(1.7342 0.0512261 0)
(1.63658 0.0492488 0)
(1.54247 0.0478614 0)
(1.44985 0.0488696 0)
(1.35779 0.0485982 0)
(1.26759 0.0473226 0)
(1.1798 0.0458661 0)
(1.09453 0.0444153 0)
(1.01186 0.0430682 0)
(0.931688 0.0419346 0)
(0.853955 0.0412112 0)
(0.777953 0.0420691 0)
(0.70159 0.0457277 0)
(0.622207 0.0521781 0)
(0.53707 0.0615744 0)
(0.443808 0.0718368 0)
(0.344714 0.0763554 0)
(0.24674 0.0724433 0)
(0.160067 0.0563705 0)
(0.0948287 0.0320378 0)
(0.0561566 -8.92751e-05 0)
(0.0557087 -0.0349099 0)
(0.0969092 -0.0691687 0)
(0.160985 -0.0768389 0)
(0.218712 -0.0542927 0)
(0.24601 -0.0213114 0)
(0.26436 -0.0351662 0)
(0.303846 -0.0491609 0)
(0.34094 -0.0278289 0)
(0.348603 0.000955403 0)
(0.297013 0.0754434 0)
(0.181745 0.12142 0)
(0.0490988 0.113828 0)
(-0.0327319 0.0367208 0)
(-0.0482073 -0.0108634 0)
(-0.00192823 -0.0638992 0)
(0.0787742 -0.0766564 0)
(0.155422 -0.0675835 0)
(0.216926 -0.0412393 0)
(0.245056 6.5612e-05 0)
(0.206992 0.0664321 0)
(0.100788 0.134196 0)
(-0.0479888 0.166903 0)
(-0.205861 0.172629 0)
(-0.369197 0.184406 0)
(-0.552611 0.219356 0)
(-0.766826 0.240493 0)
(-0.99307 0.248282 0)
(-1.23188 0.270897 0)
(-1.49866 0.303896 0)
(-1.78885 0.314107 0)
(-2.07802 0.310809 0)
(-2.37719 0.327257 0)
(-2.6665 0.293538 0)
(-2.91302 0.254949 0)
(-3.13837 0.247739 0)
(-3.34871 0.224448 0)
(-3.52574 0.18769 0)
(-3.6658 0.150972 0)
(-3.76449 0.108072 0)
(-3.82001 0.0718569 0)
(-3.84775 0.0475967 0)
(-3.84493 0.0180558 0)
(-3.80516 -0.0142038 0)
(-3.73727 -0.0353208 0)
(-3.6583 -0.0333464 0)
(-3.56717 -0.0742179 0)
(-3.41761 -0.144842 0)
(-3.19682 -0.203514 0)
(-2.93122 -0.231413 0)
(-2.64545 -0.246353 0)
(-2.34097 -0.267401 0)
(-2.02061 -0.268218 0)
(-1.71559 -0.241046 0)
(-1.42784 -0.238871 0)
(-1.12136 -0.281497 0)
(-0.777891 -0.294847 0)
(-0.45021 -0.254578 0)
(-0.16917 -0.204449 0)
(0.0627288 -0.154161 0)
(0.250159 -0.112518 0)
(0.40518 -0.0931953 0)
(0.548564 -0.0919576 0)
(0.684159 -0.0746741 0)
(0.798161 -0.0505522 0)
(0.892214 -0.0309685 0)
(0.970895 -0.0188977 0)
(1.03897 -0.00995265 0)
(1.08759 0.00772838 0)
(1.1164 0.0205358 0)
(1.12858 0.0350784 0)
(1.12746 0.0404566 0)
(1.12037 0.0419967 0)
(1.10664 0.0478876 0)
(1.08505 0.0498055 0)
(1.06104 0.0571829 0)
(1.02306 0.0593682 0)
(0.999629 0.0377124 0)
(0.984994 0.0417975 0)
(0.949553 0.0480702 0)
(0.921103 0.0130278 0)
(0.889887 0.0597784 0)
(0.792443 0.141799 0)
(0.627412 0.188636 0)
(0.450423 0.20311 0)
(0.270573 0.211045 0)
(0.09161 0.206735 0)
(-0.0783468 0.201253 0)
(-0.245465 0.203415 0)
(-0.416265 0.207781 0)
(-0.592351 0.214806 0)
(-0.77693 0.223968 0)
(-0.96662 0.223533 0)
(-1.15051 0.213211 0)
(-1.32117 0.198188 0)
(-1.47586 0.180853 0)
(-1.60883 0.156734 0)
(-1.71725 0.12801 0)
(-1.7871 0.0888064 0)
(-1.8273 0.0674149 0)
(-1.84899 0.045656 0)
(-1.83727 0.0119012 0)
(-1.78513 -0.0330379 0)
(-1.68833 -0.0751131 0)
(-1.56027 -0.0917536 0)
(-1.42417 -0.0936318 0)
(-1.2879 -0.0887327 0)
(-1.16107 -0.0724648 0)
(-1.0523 -0.0507323 0)
(-0.966146 -0.0276973 0)
(-0.896376 -0.0168521 0)
(-0.823588 -0.0368524 0)
(-0.724126 -0.068897 0)
(-0.593169 -0.0930623 0)
(-0.445073 -0.100453 0)
(-0.292587 -0.100839 0)
(-0.138568 -0.101026 0)
(0.0175053 -0.102627 0)
(0.184796 -0.114049 0)
(0.376388 -0.132333 0)
(0.604093 -0.153303 0)
(0.861457 -0.152224 0)
(1.10314 -0.118746 0)
(1.31033 -0.09593 0)
(1.48903 -0.0879276 0)
(1.64002 -0.0731566 0)
(1.76678 -0.0679487 0)
(1.876 -0.0728621 0)
(1.98116 -0.0806763 0)
(2.09508 -0.0723497 0)
(2.19967 -0.0334078 0)
(2.26294 0.0143208 0)
(2.30797 0.0301071 0)
(2.34522 0.0300598 0)
(2.38593 0.0274014 0)
(2.41793 0.0364532 0)
(2.43512 0.0447881 0)
(2.43809 0.0596288 0)
(2.43166 0.0649802 0)
(2.42442 0.0658986 0)
(2.41823 0.0711403 0)
(2.41069 0.0710416 0)
(2.40429 0.0735417 0)
(2.39339 0.0784009 0)
(2.37347 0.0786421 0)
(2.34911 0.0757753 0)
(2.32925 0.0699778 0)
(2.31109 0.068237 0)
(2.2986 0.0558671 0)
(2.29669 0.0476462 0)
(2.29651 0.0508891 0)
(2.30163 0.0457738 0)
(2.31903 0.0444903 0)
(2.33866 0.0445084 0)
(2.34992 0.0399971 0)
(2.36023 0.0366251 0)
(2.369 0.0455464 0)
(2.37306 0.0515538 0)
(2.37401 0.0500169 0)
(2.37739 0.0454657 0)
(2.38262 0.0502166 0)
(2.38134 0.0534931 0)
(2.3835 0.0507267 0)
(2.40531 0.0407775 0)
(2.45096 0.0302908 0)
(2.49139 0.0485133 0)
(2.52792 0.0438808 0)
(2.56936 0.0222162 0)
(2.61105 0.0080743 0)
(2.64085 0.0150306 0)
(2.66212 0.0213174 0)
(2.67017 0.0252111 0)
(2.66176 0.0309854 0)
(2.65119 0.0279078 0)
(2.64229 0.0294847 0)
(2.63554 0.0311398 0)
(2.64013 0.0264366 0)
(2.6588 0.0137762 0)
(2.68806 0.00162619 0)
(2.72125 -0.0013623 0)
(2.7535 -0.00138201 0)
(2.78901 -0.00273448 0)
(2.82999 0.00287752 0)
(2.86927 0.012184 0)
(2.90239 0.0205493 0)
(2.93333 0.0224786 0)
(2.96338 0.0139196 0)
(2.99513 0.00621952 0)
(3.02923 -0.00484745 0)
(3.06883 -0.015303 0)
(3.11241 -0.0253299 0)
(3.15703 -0.0354156 0)
(3.20134 -0.0408228 0)
(3.24412 -0.0414077 0)
(3.28429 -0.0397459 0)
(3.32071 -0.0381458 0)
(3.35317 -0.0348728 0)
(3.38258 -0.0302117 0)
(3.41038 -0.024316 0)
(3.43795 -0.0152791 0)
(3.46728 -0.00607127 0)
(3.49743 0.00523744 0)
(3.52729 0.0174758 0)
(3.55621 0.0274484 0)
(3.58458 0.031363 0)
(3.61269 0.0280184 0)
(3.64028 0.0201772 0)
(3.66567 0.0118601 0)
(3.68638 0.00436439 0)
(3.70088 -0.00234034 0)
(3.71023 -0.007306 0)
(3.71382 -0.0127773 0)
(3.71224 -0.0160173 0)
(3.71033 -0.0190553 0)
(3.7134 -0.018106 0)
(3.72483 -0.0146981 0)
(3.73825 -0.00372984 0)
(3.74989 0.00667766 0)
(3.75661 0.0149819 0)
(3.76483 0.0143303 0)
(3.775 0.0106793 0)
(3.78719 0.00851451 0)
(3.79783 0.00611981 0)
(3.80416 0.00380254 0)
(3.80702 0.00261459 0)
(3.80901 0.000580494 0)
(3.81136 -0.00076173 0)
(3.81347 -0.00161109 0)
(3.81596 -0.00200203 0)
(3.82014 -0.00118837 0)
(3.82875 -1.90991e-05 0)
(3.84055 0.00376337 0)
(3.85239 0.00827885 0)
(3.86399 0.0109404 0)
(3.87631 0.00869206 0)
(3.88987 0.00562481 0)
(3.90383 0.00361352 0)
(3.91541 0.00279306 0)
(3.92457 0.00292039 0)
(3.93286 0.00346545 0)
(3.94074 0.00450782 0)
(3.95017 0.00611168 0)
(3.96247 0.00705478 0)
(3.97627 0.00736165 0)
(3.99116 0.00732695 0)
(4.00749 0.00703709 0)
(4.02545 0.00653472 0)
(4.04525 0.00652176 0)
(4.0668 0.00627391 0)
(4.08954 0.00605495 0)
(4.11258 0.00530904 0)
(4.13545 0.00405666 0)
(4.15776 0.00176077 0)
(4.17888 -1.51706e-05 0)
(4.19881 -0.00167917 0)
(4.21825 -0.00286818 0)
(4.23816 -0.00341331 0)
(4.25964 -0.00301235 0)
(4.28371 -0.000959581 0)
(4.3103 0.0034556 0)
(4.3356 0.00902427 0)
(4.35889 0.010402 0)
(4.38158 0.00913873 0)
(4.40364 0.00470762 0)
(4.42433 0.000234337 0)
(4.44457 -0.00208968 0)
(4.46301 -0.00336281 0)
(4.47972 -0.00257052 0)
(4.49741 0.000482736 0)
(4.51694 0.00479901 0)
(4.53612 0.00885354 0)
(4.55411 0.00881077 0)
(4.57143 0.00500005 0)
(4.58849 0.00143822 0)
(4.60443 1.05289e-05 0)
(4.61837 0.000764866 0)
(4.63085 0.000946062 0)
(4.64279 0.000664067 0)
(4.65413 4.54759e-05 0)
(4.66465 -5.94373e-05 0)
(4.67431 0.000250454 0)
(4.68328 0.00142133 0)
(4.69147 0.00419201 0)
(4.69898 0.00696008 0)
(4.70544 0.00847233 0)
(4.71087 0.00557899 0)
(4.71604 0.00133467 0)
(4.71914 -0.00397509 0)
(4.72123 -0.00569631 0)
(4.72184 -0.00582012 0)
(4.72207 -0.00411102 0)
(4.72307 0.00113281 0)
(4.72414 0.00903657 0)
(-0.00462269 -0.0162349 0)
(-0.00306654 -0.00103774 0)
(-0.0093393 0.0225452 0)
(-0.0217938 0.0443541 0)
(-0.0362944 0.0379577 0)
(-0.0481891 0.0400683 0)
(-0.0629413 0.0407382 0)
(-0.0775506 0.0413315 0)
(-0.093135 0.0430404 0)
(-0.108825 0.0485324 0)
(-0.128454 0.0498996 0)
(-0.148865 0.0500275 0)
(-0.162058 0.0492549 0)
(-0.171898 0.0425085 0)
(-0.182173 0.0421926 0)
(-0.18444 0.0319631 0)
(-0.184438 0.0198208 0)
(-0.17993 0.0104658 0)
(-0.171801 0.00250409 0)
(-0.155366 -0.0018497 0)
(-0.138099 -0.0253385 0)
(-0.108185 -0.04447 0)
(-0.0715401 -0.0580492 0)
(-0.0287518 -0.0647576 0)
(0.0160203 -0.0672767 0)
(0.0578671 -0.064004 0)
(0.0970429 -0.0645099 0)
(0.134819 -0.0621203 0)
(0.171322 -0.0608582 0)
(0.204848 -0.0524788 0)
(0.231603 -0.0414888 0)
(0.252307 -0.030098 0)
(0.264948 -0.009541 0)
(0.262765 0.0143904 0)
(0.250116 0.0480917 0)
(0.223187 0.0584151 0)
(0.194221 0.0717371 0)
(0.152597 0.101634 0)
(0.0760914 0.130233 0)
(-0.026632 0.144589 0)
(-0.14284 0.169701 0)
(-0.263762 0.207014 0)
(-0.381842 0.21443 0)
(-0.495124 0.20435 0)
(-0.615807 0.21417 0)
(-0.730341 0.187808 0)
(-0.826864 0.153761 0)
(-0.907397 0.122233 0)
(-0.972504 0.0866956 0)
(-1.00541 0.0304852 0)
(-0.981169 -0.0208735 0)
(-0.907168 -0.0735663 0)
(-0.790251 -0.131365 0)
(-0.668862 -0.178973 0)
(-0.544405 -0.206858 0)
(-0.381926 -0.230979 0)
(-0.192443 -0.24653 0)
(0.0181241 -0.251367 0)
(0.239082 -0.254498 0)
(0.466186 -0.274781 0)
(0.697888 -0.277533 0)
(0.904176 -0.233593 0)
(1.05367 -0.169977 0)
(1.14929 -0.0991497 0)
(1.18291 -0.0114531 0)
(1.08502 0.0668532 0)
(0.81959 0.158626 0)
(0.480325 0.137267 0)
(0.145455 0.0906268 0)
(-0.222101 0.0323058 0)
(-0.637305 0.0259815 0)
(-1.11595 0.0944281 0)
(-1.67515 0.186213 0)
(-2.29328 0.389553 0)
(-2.97013 0.614996 0)
(-3.70184 0.832836 0)
(-4.51216 1.13877 0)
(-5.49788 1.39817 0)
(-6.62562 1.54282 0)
(-7.80795 1.53788 0)
(-8.9595 1.41072 0)
(-10.0365 1.15732 0)
(-11.0152 0.924866 0)
(-11.903 0.74938 0)
(-12.6696 0.614823 0)
(-13.2809 0.520285 0)
(-13.7317 0.463895 0)
(-14.0242 0.428908 0)
(-14.1863 0.39637 0)
(-14.2331 0.337071 0)
(-14.1576 0.273549 0)
(-14.0452 0.15119 0)
(-13.8822 0.0514793 0)
(-13.5807 0.00428824 0)
(-13.1516 -0.145338 0)
(-12.7492 -0.350126 0)
(-12.2401 -0.436886 0)
(-11.5328 -0.45401 0)
(-10.6916 -0.528514 0)
(-9.74882 -0.793573 0)
(-8.68728 -0.84355 0)
(-7.68538 -0.919828 0)
(-6.84499 -0.996349 0)
(-6.11963 -1.04099 0)
(-5.42319 -1.07291 0)
(-4.70935 -1.11344 0)
(-3.96541 -1.16417 0)
(-3.19087 -1.16415 0)
(-2.31324 -1.315 0)
(-1.27404 -1.49062 0)
(-0.135956 -1.55673 0)
(1.11763 -1.48993 0)
(2.40892 -1.20789 0)
(3.72011 -1.14698 0)
(4.9918 -1.02052 0)
(6.1747 -0.807362 0)
(7.25152 -0.566234 0)
(8.21808 -0.348943 0)
(9.0807 -0.220936 0)
(9.79092 -0.203133 0)
(10.2721 -0.314187 0)
(10.5916 -0.247091 0)
(10.7677 -0.319503 0)
(10.8537 -0.119373 0)
(10.8542 0.306471 0)
(10.7302 0.509049 0)
(10.5533 0.558333 0)
(10.4209 0.5204 0)
(10.3639 0.446376 0)
(10.3411 0.27986 0)
(9.99267 0.0622182 0)
(9.41833 -0.097545 0)
(8.73825 0.047319 0)
(8.15673 0.607294 0)
(7.55537 0.991113 0)
(6.98898 1.05941 0)
(6.48681 0.975765 0)
(6.08828 0.844083 0)
(5.76772 0.725361 0)
(5.54872 0.546412 0)
(5.36347 0.407647 0)
(5.19102 0.326714 0)
(5.04575 0.264593 0)
(4.93611 0.206976 0)
(4.86345 0.154612 0)
(4.82917 0.105093 0)
(4.85711 0.0607244 0)
(4.97194 0.00971212 0)
(5.18347 -0.0675256 0)
(5.49677 -0.124348 0)
(5.90243 -0.155652 0)
(6.38322 -0.148249 0)
(6.89719 -0.115897 0)
(7.3907 -0.0903463 0)
(7.79939 -0.123312 0)
(8.0877 -0.184852 0)
(8.28842 -0.257758 0)
(8.46068 -0.336722 0)
(8.65365 -0.425865 0)
(8.89144 -0.467703 0)
(9.15915 -0.387599 0)
(9.37313 -0.206807 0)
(9.55033 -0.0704345 0)
(9.69375 -0.0038055 0)
(9.79872 0.0247442 0)
(9.86501 0.0339324 0)
(9.89423 0.0344846 0)
(9.89895 0.0332982 0)
(9.88839 0.0397563 0)
(9.8569 0.0622453 0)
(9.79569 0.0884929 0)
(9.7096 0.107246 0)
(9.60545 0.122665 0)
(9.48608 0.140853 0)
(9.3538 0.154447 0)
(9.21169 0.165882 0)
(9.05991 0.177652 0)
(8.90489 0.173735 0)
(8.75542 0.164335 0)
(8.60599 0.161269 0)
(8.44893 0.137258 0)
(8.30019 0.100086 0)
(8.16442 0.0888835 0)
(8.0357 0.0894678 0)
(7.90557 0.0969501 0)
(7.77543 0.109195 0)
(7.64442 0.107096 0)
(7.50683 0.121827 0)
(7.36194 0.119225 0)
(7.21759 0.114201 0)
(7.07337 0.112246 0)
(6.92723 0.110449 0)
(6.78078 0.107828 0)
(6.63523 0.105432 0)
(6.49021 0.102742 0)
(6.34462 0.0998998 0)
(6.19741 0.096853 0)
(6.04824 0.0932393 0)
(5.8976 0.0908888 0)
(5.74612 0.0911741 0)
(5.59462 0.0942599 0)
(5.44373 0.100853 0)
(5.29309 0.108861 0)
(5.14339 0.109789 0)
(4.99652 0.102242 0)
(4.85861 0.0804656 0)
(4.73733 0.0500435 0)
(4.64022 0.0101934 0)
(4.57975 -0.0313499 0)
(4.56621 -0.0737383 0)
(4.56731 -0.0854781 0)
(4.57827 -0.0601156 0)
(4.58761 -0.0267647 0)
(4.56998 -0.0396007 0)
(4.52069 -0.06363 0)
(4.44867 -0.0262133 0)
(4.32765 0.0496041 0)
(4.17804 0.140634 0)
(4.00237 0.187153 0)
(3.79276 0.160181 0)
(3.603 0.0709186 0)
(3.49093 0.0245309 0)
(3.47621 -0.0328176 0)
(3.44741 -0.0345477 0)
(3.40109 -0.0114376 0)
(3.28337 0.0228304 0)
(3.01238 0.0731158 0)
(2.59124 0.168655 0)
(2.09823 0.257633 0)
(1.61245 0.290369 0)
(1.18132 0.306368 0)
(0.808492 0.326533 0)
(0.472282 0.382524 0)
(0.137903 0.427021 0)
(-0.198396 0.451156 0)
(-0.537239 0.486192 0)
(-0.888494 0.529962 0)
(-1.2573 0.542806 0)
(-1.62554 0.537796 0)
(-1.99298 0.560792 0)
(-2.33078 0.504766 0)
(-2.60207 0.442207 0)
(-2.82983 0.413706 0)
(-3.0088 0.350221 0)
(-3.13093 0.272049 0)
(-3.19612 0.190043 0)
(-3.19381 0.123983 0)
(-3.11154 0.0523952 0)
(-2.9324 0.015406 0)
(-2.67115 -0.0199169 0)
(-2.31936 -0.050022 0)
(-1.89121 -0.0669015 0)
(-1.42808 -0.0555115 0)
(-0.986675 -0.106425 0)
(-0.590656 -0.206611 0)
(-0.212579 -0.296175 0)
(0.173887 -0.353161 0)
(0.570483 -0.393179 0)
(0.982053 -0.440556 0)
(1.41568 -0.46387 0)
(1.84854 -0.442253 0)
(2.26196 -0.436164 0)
(2.67984 -0.478397 0)
(3.14707 -0.479086 0)
(3.63859 -0.410023 0)
(4.12536 -0.325584 0)
(4.60274 -0.245418 0)
(5.0623 -0.173495 0)
(5.48604 -0.108189 0)
(5.85469 -0.10671 0)
(6.12792 -0.0903978 0)
(6.29531 -0.0749445 0)
(6.38779 -0.0636258 0)
(6.44644 -0.0497817 0)
(6.50355 -0.0287673 0)
(6.54954 0.00805689 0)
(6.574 0.0328351 0)
(6.57166 0.0497231 0)
(6.54128 0.0613953 0)
(6.48506 0.0701274 0)
(6.41472 0.0926201 0)
(6.32573 0.0956188 0)
(6.21778 0.106534 0)
(6.07869 0.124241 0)
(5.94066 0.079735 0)
(5.81904 0.113451 0)
(5.68677 0.156526 0)
(5.55215 0.159195 0)
(5.43461 0.198641 0)
(5.25813 0.276453 0)
(4.94957 0.293138 0)
(4.50336 0.260491 0)
(3.9689 0.252003 0)
(3.46378 0.242501 0)
(3.05999 0.231111 0)
(2.75007 0.235881 0)
(2.5 0.242166 0)
(2.28212 0.254154 0)
(2.08116 0.26841 0)
(1.8859 0.269115 0)
(1.69764 0.252972 0)
(1.52562 0.231138 0)
(1.38624 0.206386 0)
(1.29239 0.173957 0)
(1.24159 0.140577 0)
(1.24596 0.0963802 0)
(1.30418 0.0599182 0)
(1.38649 0.0295968 0)
(1.47501 -0.0179466 0)
(1.56643 -0.0765897 0)
(1.70024 -0.121346 0)
(1.89564 -0.141279 0)
(2.13543 -0.144052 0)
(2.41357 -0.135661 0)
(2.73758 -0.104238 0)
(3.11524 -0.0613771 0)
(3.54426 -0.0182726 0)
(4.00103 0.0198915 0)
(4.44029 0.00515284 0)
(4.82323 -0.0325133 0)
(5.1247 -0.0931914 0)
(5.35597 -0.125093 0)
(5.55217 -0.151239 0)
(5.74688 -0.17605 0)
(5.94986 -0.205224 0)
(6.16718 -0.247906 0)
(6.40632 -0.304548 0)
(6.68788 -0.37221 0)
(7.06477 -0.363245 0)
(7.50229 -0.292156 0)
(7.93715 -0.222937 0)
(8.34989 -0.140309 0)
(8.74966 -0.0861197 0)
(9.12668 -0.0261666 0)
(9.46901 0.0161936 0)
(9.75264 0.0249152 0)
(9.94565 -0.00784273 0)
(10.0394 0.00409937 0)
(10.055 0.0182393 0)
(10.0414 0.0253815 0)
(10.026 0.0251342 0)
(10.0354 0.0260226 0)
(10.0561 0.0594047 0)
(10.0842 0.0828507 0)
(10.0931 0.0905681 0)
(10.0757 0.0943691 0)
(10.0273 0.0938125 0)
(9.95193 0.0894908 0)
(9.86288 0.0883855 0)
(9.77901 0.0877904 0)
(9.70697 0.101172 0)
(9.64638 0.123326 0)
(9.58359 0.129233 0)
(9.52237 0.123072 0)
(9.45857 0.124273 0)
(9.39143 0.11725 0)
(9.33521 0.114695 0)
(9.28754 0.108746 0)
(9.24412 0.0880465 0)
(9.21084 0.0625361 0)
(9.17793 0.0727487 0)
(9.15988 0.0970771 0)
(9.15204 0.0980158 0)
(9.14887 0.0937848 0)
(9.12389 0.0940669 0)
(9.06714 0.0961202 0)
(9.00368 0.0913222 0)
(8.94881 0.0897686 0)
(8.90698 0.0914895 0)
(8.88239 0.070657 0)
(8.8732 0.0143869 0)
(8.87968 5.62158e-05 0)
(8.89449 0.0126985 0)
(8.89871 -0.000925181 0)
(8.90292 0.00614729 0)
(8.92338 0.0457868 0)
(8.96647 0.0576092 0)
(9.01025 0.0665333 0)
(9.02989 0.0970537 0)
(9.02776 0.111042 0)
(9.02808 0.102091 0)
(9.03213 0.100445 0)
(9.02991 0.0796039 0)
(9.02907 0.0509822 0)
(9.03073 0.0310082 0)
(9.0551 0.0273922 0)
(9.1112 0.0277145 0)
(9.18705 0.024136 0)
(9.26772 0.0100576 0)
(9.34274 -0.0071048 0)
(9.40551 -0.00834506 0)
(9.45669 -0.010189 0)
(9.50178 -0.0136458 0)
(9.55058 -0.00990673 0)
(9.61235 -0.00725899 0)
(9.68771 -0.00723257 0)
(9.77632 -0.00955104 0)
(9.87856 -0.0076618 0)
(9.99073 0.000491114 0)
(10.1061 0.00626154 0)
(10.2163 0.00857861 0)
(10.3158 0.0108355 0)
(10.405 0.0154918 0)
(10.4874 0.0172177 0)
(10.564 0.015095 0)
(10.6347 0.00880868 0)
(10.6974 -0.00484432 0)
(10.7514 -0.0197905 0)
(10.7982 -0.0338835 0)
(10.8376 -0.0472004 0)
(10.8706 -0.0569256 0)
(10.9004 -0.0620776 0)
(10.9324 -0.0611411 0)
(10.9714 -0.0530296 0)
(11.0179 -0.0380607 0)
(11.0675 -0.0199826 0)
(11.1147 -0.0019083 0)
(11.1572 0.0138506 0)
(11.1936 0.029042 0)
(11.2265 0.0391615 0)
(11.2584 0.0383948 0)
(11.2871 0.023802 0)
(11.3131 0.00609484 0)
(11.3299 -0.00423625 0)
(11.3375 -0.00631991 0)
(11.3403 -0.00846047 0)
(11.3399 -0.013411 0)
(11.3428 -0.0161878 0)
(11.3495 -0.0131566 0)
(11.3624 -0.00473474 0)
(11.3774 0.00918499 0)
(11.3949 0.013744 0)
(11.4091 0.0164491 0)
(11.4212 0.0190844 0)
(11.4325 0.0214063 0)
(11.4435 0.0212723 0)
(11.4546 0.0163277 0)
(11.4633 0.00623083 0)
(11.472 0.000737449 0)
(11.4777 -0.001062 0)
(11.4817 -0.00194572 0)
(11.4862 -0.002175 0)
(11.4933 0.000108871 0)
(11.5052 0.00466337 0)
(11.5191 0.0137638 0)
(11.536 0.0173489 0)
(11.5518 0.0196026 0)
(11.5648 0.0193741 0)
(11.5743 0.0136859 0)
(11.5828 0.0089452 0)
(11.5916 0.00804721 0)
(11.6015 0.00644105 0)
(11.6142 0.00495906 0)
(11.6304 0.00298344 0)
(11.6494 0.000418476 0)
(11.67 -0.00169952 0)
(11.6914 -0.00215731 0)
(11.7132 -0.000829628 0)
(11.7357 0.00156036 0)
(11.7596 0.00570087 0)
(11.7851 0.0106178 0)
(11.8119 0.0140934 0)
(11.8395 0.0158035 0)
(11.8674 0.0144205 0)
(11.8951 0.0107916 0)
(11.9213 0.0025224 0)
(11.9454 -0.00347554 0)
(11.9656 -0.00378002 0)
(11.9825 -0.00287816 0)
(11.9998 -0.00256625 0)
(12.0204 0.00312714 0)
(12.0453 0.00792368 0)
(12.0738 0.0108464 0)
(12.1025 0.01647 0)
(12.1287 0.015654 0)
(12.1509 0.00832429 0)
(12.1691 0.00115869 0)
(12.1834 -0.000876587 0)
(12.1949 -0.000451513 0)
(12.2081 0.00118986 0)
(12.2251 0.00440515 0)
(12.2455 0.00738887 0)
(12.2659 0.00911549 0)
(12.2836 0.00860127 0)
(12.2985 0.00801998 0)
(12.3113 0.00799366 0)
(12.3235 0.00805309 0)
(12.3356 0.00746496 0)
(12.3471 0.00609236 0)
(12.3568 0.00310671 0)
(12.3641 0.000346761 0)
(12.369 7.20453e-05 0)
(12.3726 0.000340809 0)
(12.3768 0.00345314 0)
(12.3824 0.00881504 0)
(12.39 0.0118512 0)
(12.3972 0.0115262 0)
(12.4025 0.00752997 0)
(12.4039 -0.00037602 0)
(12.4036 -0.00711849 0)
(0.0159005 -0.00738434 0)
(0.0302592 0.00912928 0)
(0.0367454 0.0397368 0)
(0.0242676 0.069451 0)
(0.00618752 0.0643504 0)
(-0.0110289 0.0696632 0)
(-0.0334075 0.0716882 0)
(-0.0556238 0.0729416 0)
(-0.077669 0.0753791 0)
(-0.0998244 0.0829617 0)
(-0.123118 0.0899841 0)
(-0.142531 0.0823443 0)
(-0.152373 0.070693 0)
(-0.164111 0.0678717 0)
(-0.168762 0.0545365 0)
(-0.160271 0.0376333 0)
(-0.147283 0.0215605 0)
(-0.131408 0.00857869 0)
(-0.114291 -0.00488078 0)
(-0.0901621 -0.0158938 0)
(-0.0679932 -0.0409798 0)
(-0.0428911 -0.0646739 0)
(-0.0129192 -0.0838186 0)
(0.0296968 -0.0979016 0)
(0.0846248 -0.10372 0)
(0.143746 -0.102977 0)
(0.201851 -0.101474 0)
(0.253969 -0.0944514 0)
(0.305097 -0.0901799 0)
(0.352328 -0.0767561 0)
(0.387496 -0.0598402 0)
(0.415798 -0.0410277 0)
(0.43553 -0.0108534 0)
(0.440321 0.0257506 0)
(0.416096 0.0701119 0)
(0.369702 0.0877018 0)
(0.318755 0.107992 0)
(0.260398 0.156641 0)
(0.174284 0.214249 0)
(0.0584622 0.255698 0)
(-0.0761504 0.291658 0)
(-0.172773 0.302074 0)
(-0.23579 0.296409 0)
(-0.311335 0.299473 0)
(-0.397199 0.319015 0)
(-0.484216 0.291892 0)
(-0.563111 0.250029 0)
(-0.63794 0.206423 0)
(-0.70537 0.145666 0)
(-0.751124 0.0515301 0)
(-0.774011 -0.045509 0)
(-0.776629 -0.15887 0)
(-0.753997 -0.254197 0)
(-0.676341 -0.344843 0)
(-0.537098 -0.428994 0)
(-0.36346 -0.501274 0)
(-0.152094 -0.547412 0)
(0.0780129 -0.569837 0)
(0.317118 -0.581727 0)
(0.560524 -0.61028 0)
(0.793114 -0.581202 0)
(0.970473 -0.474801 0)
(1.08307 -0.333555 0)
(1.15714 -0.183309 0)
(1.16854 0.0130766 0)
(1.10017 0.30982 0)
(0.798917 0.574608 0)
(0.26316 0.655088 0)
(-0.444954 0.7232 0)
(-1.28228 0.705869 0)
(-2.20367 0.735535 0)
(-3.20984 0.852352 0)
(-4.29986 0.98031 0)
(-5.44074 1.19381 0)
(-6.62043 1.38752 0)
(-7.79899 1.55373 0)
(-8.92491 1.76411 0)
(-9.95547 1.95837 0)
(-10.8499 2.09392 0)
(-11.6139 2.1331 0)
(-12.225 2.13604 0)
(-12.6826 2.03988 0)
(-13.0806 1.83826 0)
(-13.4548 1.6569 0)
(-13.7131 1.3987 0)
(-13.9071 1.13675 0)
(-14.065 0.910871 0)
(-14.1686 0.714928 0)
(-14.2617 0.545655 0)
(-14.2952 0.343529 0)
(-14.247 0.175911 0)
(-14.1355 -0.0507181 0)
(-13.8895 -0.258 0)
(-13.6366 -0.46996 0)
(-13.3352 -0.795156 0)
(-12.7912 -1.13111 0)
(-12.1042 -1.42048 0)
(-11.2922 -1.72539 0)
(-10.251 -1.99615 0)
(-9.05612 -2.28469 0)
(-7.792 -2.22034 0)
(-6.54589 -1.99827 0)
(-5.34446 -1.77522 0)
(-4.16254 -1.6684 0)
(-2.94407 -1.65421 0)
(-1.64191 -1.68402 0)
(-0.252931 -1.71959 0)
(1.20809 -1.72458 0)
(2.66558 -1.80243 0)
(4.00851 -1.99732 0)
(5.19849 -2.20249 0)
(6.29028 -2.30388 0)
(7.30663 -2.22125 0)
(8.25717 -2.40226 0)
(9.21809 -2.52044 0)
(10.1986 -2.48151 0)
(11.154 -2.30065 0)
(12.054 -2.04426 0)
(12.9116 -1.74159 0)
(13.697 -1.25928 0)
(14.3669 -0.685616 0)
(14.9911 -0.234761 0)
(15.5327 -0.08357 0)
(15.8366 -0.125182 0)
(15.9042 -0.0415859 0)
(15.8161 0.0461981 0)
(15.5706 0.0941558 0)
(15.1949 0.0969163 0)
(14.71 0.173486 0)
(14.1571 0.568734 0)
(13.6514 1.28211 0)
(12.9078 1.54098 0)
(12.1977 1.62152 0)
(11.7217 1.35388 0)
(11.5954 1.07639 0)
(11.5074 0.930739 0)
(11.3107 0.706293 0)
(10.8934 0.565213 0)
(10.3881 0.526199 0)
(9.94616 0.550591 0)
(9.62701 0.565446 0)
(9.40443 0.525544 0)
(9.24198 0.463649 0)
(9.13137 0.372972 0)
(9.0544 0.275893 0)
(9.06723 0.154651 0)
(9.11295 -0.0165519 0)
(9.21104 -0.268742 0)
(9.45127 -0.515503 0)
(9.78956 -0.747901 0)
(10.1979 -0.955573 0)
(10.6624 -1.08226 0)
(11.1582 -1.09368 0)
(11.6639 -0.972118 0)
(12.1555 -0.726519 0)
(12.6748 -0.468286 0)
(13.2732 -0.320284 0)
(13.9341 -0.280835 0)
(14.5942 -0.27887 0)
(15.1244 -0.313009 0)
(15.4096 -0.369063 0)
(15.496 -0.322164 0)
(15.4962 -0.267618 0)
(15.5231 -0.218172 0)
(15.5789 -0.166152 0)
(15.6595 -0.0994171 0)
(15.755 -0.0347299 0)
(15.8475 0.00455033 0)
(15.9127 0.0494501 0)
(15.9435 0.105297 0)
(15.9352 0.158895 0)
(15.8924 0.196814 0)
(15.8297 0.229578 0)
(15.7409 0.255093 0)
(15.6205 0.276032 0)
(15.4672 0.294869 0)
(15.2807 0.311135 0)
(15.0734 0.301642 0)
(14.8733 0.286135 0)
(14.6894 0.30387 0)
(14.5305 0.318291 0)
(14.413 0.29128 0)
(14.3402 0.264397 0)
(14.2713 0.266066 0)
(14.1881 0.265962 0)
(14.086 0.249753 0)
(13.9666 0.260585 0)
(13.8332 0.274814 0)
(13.684 0.276697 0)
(13.5296 0.268702 0)
(13.381 0.272252 0)
(13.2349 0.273375 0)
(13.0846 0.269055 0)
(12.9255 0.263308 0)
(12.7554 0.259992 0)
(12.575 0.259756 0)
(12.3859 0.262292 0)
(12.1901 0.266402 0)
(11.9891 0.271187 0)
(11.7829 0.278191 0)
(11.5706 0.285687 0)
(11.3502 0.295608 0)
(11.118 0.305951 0)
(10.8733 0.309034 0)
(10.618 0.298225 0)
(10.3649 0.260827 0)
(10.1332 0.203089 0)
(9.93981 0.116938 0)
(9.8146 -0.00294471 0)
(9.73761 -0.0843749 0)
(9.67637 -0.104843 0)
(9.6247 -0.106565 0)
(9.58019 -0.0499467 0)
(9.50216 0.0240054 0)
(9.40684 0.0661856 0)
(9.2717 0.146005 0)
(8.94977 0.235855 0)
(8.4765 0.290673 0)
(8.05933 0.385233 0)
(7.8779 0.497911 0)
(7.84558 0.309673 0)
(7.72387 0.0172373 0)
(7.38617 -0.10231 0)
(6.95885 -0.0891519 0)
(6.49957 -0.0309677 0)
(6.06049 0.204541 0)
(5.67068 0.623814 0)
(5.18938 0.964203 0)
(4.64483 1.12379 0)
(4.09946 1.09704 0)
(3.62634 0.983037 0)
(3.23642 0.873378 0)
(2.87657 0.854832 0)
(2.49462 0.853088 0)
(2.05052 0.840979 0)
(1.534 0.865052 0)
(0.971169 0.937603 0)
(0.40599 0.998773 0)
(-0.11291 1.01048 0)
(-0.565034 1.03904 0)
(-0.89988 0.904173 0)
(-1.09019 0.721608 0)
(-1.27538 0.648414 0)
(-1.37909 0.529212 0)
(-1.48265 0.407529 0)
(-1.58029 0.252932 0)
(-1.6108 0.106954 0)
(-1.56782 -0.134588 0)
(-1.37575 -0.359773 0)
(-1.09313 -0.551551 0)
(-0.748396 -0.722679 0)
(-0.326514 -0.826765 0)
(0.195585 -0.775365 0)
(0.797966 -0.67859 0)
(1.43922 -0.629515 0)
(2.10404 -0.644276 0)
(2.80912 -0.659186 0)
(3.55855 -0.663631 0)
(4.36077 -0.69585 0)
(5.22784 -0.701888 0)
(6.13108 -0.644667 0)
(7.00425 -0.616837 0)
(7.71055 -0.744062 0)
(8.17308 -0.903539 0)
(8.50161 -0.91551 0)
(8.79823 -0.887222 0)
(9.10684 -0.85201 0)
(9.42004 -0.798098 0)
(9.72842 -0.731768 0)
(10.041 -0.592186 0)
(10.3328 -0.369477 0)
(10.6085 -0.166954 0)
(10.8739 -0.0444855 0)
(11.0869 -0.00942326 0)
(11.2024 -0.019515 0)
(11.2367 0.0189081 0)
(11.2159 0.0780837 0)
(11.2123 0.121471 0)
(11.2015 0.188385 0)
(11.1548 0.220641 0)
(11.0674 0.247007 0)
(10.9435 0.273013 0)
(10.8354 0.329715 0)
(10.7515 0.372893 0)
(10.708 0.322553 0)
(10.6894 0.311055 0)
(10.5854 0.330518 0)
(10.2765 0.190084 0)
(9.67879 0.267214 0)
(8.95009 0.514423 0)
(8.16847 0.821642 0)
(7.45984 1.12975 0)
(6.88318 1.26383 0)
(6.44061 1.12839 0)
(6.10775 0.936877 0)
(5.86553 0.782539 0)
(5.65551 0.708264 0)
(5.46055 0.655656 0)
(5.246 0.638116 0)
(4.99893 0.62138 0)
(4.74734 0.602391 0)
(4.52558 0.547147 0)