/*--------------------------------*- C++ -*----------------------------------*\
| =========                 |                                                 |
| \\      /  F ield         | OpenFOAM: The Open Source CFD Toolbox           |
|  \\    /   O peration     | Version:  v1812                                 |
|   \\  /    A nd           | Web:      www.OpenFOAM.com                      |
|    \\/     M anipulation  |                                                 |
\*---------------------------------------------------------------------------*/
FoamFile
{
    version     2.0;
    format      ascii;
    class       volScalarField;
    location    "0.1";
    object      p;
}
// * * * * * * * * * * * * * * * * * * * * * * * * * * * * * * * * * * * * * //

dimensions      [1 -1 -2 0 0 0 0];


internalField   nonuniform List<scalar> 
20400
(
108500
108498
108495
108490
108484
108476
108467
108455
108444
108431
108419
108407
108396
108388
108383
108384
108391
108404
108428
108456
108500
108540
108592
108643
108696
108747
108795
108838
108875
108909
108932
108955
108973
108988
109001
109010
109016
109020
109022
109024
109023
109022
109021
109019
109017
109014
109012
109009
109006
109004
109001
108998
108996
108993
108991
108988
108986
108984
108982
108980
108978
108976
108974
108973
108971
108969
108968
108966
108965
108964
108962
108961
108960
108959
108958
108957
108956
108955
108954
108953
108952
108951
108950
108949
108948
108947
108946
108946
108945
108944
108943
108943
108942
108941
108940
108940
108939
108938
108938
108937
108936
108935
108935
108934
108933
108933
108932
108931
108931
108930
108929
108929
108928
108927
108926
108926
108925
108924
108923
108923
108922
108921
108920
108920
108919
108918
108917
108916
108915
108915
108914
108913
108912
108911
108910
108909
108908
108907
108907
108906
108905
108904
108903
108902
108901
108900
108899
108898
108897
108896
108895
108895
108894
108893
108892
108891
108890
108889
108888
108888
108887
108886
108885
108884
108884
108883
108882
108881
108881
108880
108879
108879
108878
108877
108877
108876
108876
108875
108874
108874
108873
108873
108872
108872
108871
108870
108870
108869
108869
108868
108868
108867
108867
108866
108865
108865
108864
108864
108863
108862
108862
108861
108860
108860
108859
108858
108857
108857
108856
108855
108854
108853
108852
108851
108850
108849
108848
108847
108846
108845
108844
108843
108842
108841
108840
108838
108837
108836
108834
108833
108832
108830
108829
108827
108826
108824
108822
108820
108818
108816
108814
108812
108810
108807
108805
108802
108799
108796
108793
108790
108786
108782
108778
108773
108768
108763
108757
108751
108745
108738
108730
108722
108713
108704
108694
108683
108672
108660
108646
108632
108617
108601
108584
108565
108546
108525
108503
108479
108455
108428
108400
108370
108339
108306
108271
108235
108196
108156
108113
108069
108022
107973
107922
107869
107814
107756
107696
107634
107570
107503
107433
107362
107288
107211
107133
107052
106969
106883
106796
106706
106614
106520
106424
106326
106227
106125
106022
105917
105811
105703
105594
105484
105373
105261
105148
105034
104920
104805
104690
104575
104460
104345
104230
104116
104002
103890
103778
103667
103558
103450
103343
103239
103136
103035
102937
102841
102747
102656
102568
102482
102400
102320
102244
102171
102102
102036
101973
101914
101859
101807
101759
101715
101674
101637
101603
101573
101546
101523
101503
101487
101473
101463
101456
101451
101449
101449
101452
101457
101464
101474
101485
101497
101512
101527
101544
101562
101581
101600
101620
101640
101661
101682
101703
101723
101744
101764
101784
101803
101821
101839
101856
101872
101887
101902
101915
101926
101937
101947
101955
101962
101967
101972
101975
101976
101977
101976
101974
101971
101966
101960
101953
101945
101935
101924
101913
101900
101886
101872
101856
101840
101823
101806
101788
101769
101750
101731
101711
101691
101671
101651
101631
101611
101591
101571
101551
101532
101513
101494
101476
101459
101441
101425
101409
101394
101379
101365
101352
101340
101328
101317
101307
101297
101289
101281
101274
101267
101262
101257
101252
101249
101246
101243
101242
101241
101240
101240
101241
101242
101243
101245
101247
101250
101253
101256
101259
101263
101267
101271
101275
101279
101283
101288
101292
101297
101301
101306
101310
101314
101318
101323
108502
108500
108498
108493
108486
108477
108468
108456
108444
108431
108417
108404
108391
108383
108375
108375
108382
108396
108420
108450
108490
108533
108582
108632
108684
108734
108782
108826
108866
108900
108933
108958
108977
108992
109003
109011
109016
109020
109022
109023
109023
109022
109021
109019
109017
109014
109012
109009
109006
109004
109001
108998
108996
108993
108991
108988
108986
108984
108982
108980
108978
108976
108974
108973
108971
108969
108968
108966
108965
108964
108962
108961
108960
108959
108958
108957
108956
108955
108954
108953
108952
108951
108950
108949
108948
108947
108946
108946
108945
108944
108943
108943
108942
108941
108940
108940
108939
108938
108938
108937
108936
108935
108935
108934
108933
108933
108932
108931
108931
108930
108929
108929
108928
108927
108926
108926
108925
108924
108924
108923
108922
108921
108920
108920
108919
108918
108917
108916
108915
108915
108914
108913
108912
108911
108910
108909
108908
108907
108907
108906
108905
108904
108903
108902
108901
108900
108899
108898
108897
108896
108895
108895
108894
108893
108892
108891
108890
108889
108889
108888
108887
108886
108885
108885
108884
108883
108882
108882
108881
108880
108880
108879
108878
108878
108877
108876
108876
108875
108875
108874
108873
108873
108872
108872
108871
108871
108870
108869
108869
108868
108868
108867
108867
108866
108865
108865
108864
108864
108863
108862
108862
108861
108860
108860
108859
108858
108857
108857
108856
108855
108854
108853
108852
108851
108851
108850
108849
108848
108847
108845
108844
108843
108842
108841
108840
108838
108837
108836
108835
108833
108832
108830
108829
108827
108826
108824
108822
108820
108819
108817
108814
108812
108810
108808
108805
108802
108799
108796
108793
108790
108786
108782
108778
108773
108768
108763
108757
108751
108745
108738
108730
108722
108713
108704
108694
108683
108672
108660
108646
108632
108617
108601
108584
108565
108546
108525
108503
108479
108454
108428
108400
108370
108339
108306
108271
108235
108196
108156
108113
108068
108022
107973
107922
107869
107814
107756
107696
107634
107569
107502
107433
107361
107287
107211
107132
107052
106968
106883
106795
106706
106614
106520
106424
106326
106226
106125
106022
105917
105810
105703
105594
105484
105372
105260
105147
105033
104919
104804
104689
104574
104459
104344
104229
104115
104002
103889
103777
103667
103557
103449
103343
103238
103135
103035
102936
102840
102746
102655
102567
102482
102399
102320
102244
102171
102102
102036
101973
101914
101859
101807
101759
101714
101674
101636
101603
101573
101546
101523
101503
101487
101473
101463
101456
101451
101449
101449
101452
101457
101464
101474
101485
101498
101512
101528
101544
101562
101581
101600
101620
101641
101661
101682
101703
101724
101744
101764
101784
101803
101822
101840
101857
101873
101888
101902
101915
101927
101937
101947
101955
101962
101968
101972
101975
101977
101977
101977
101975
101971
101966
101960
101953
101945
101935
101924
101913
101900
101886
101872
101856
101840
101823
101806
101788
101769
101750
101731
101711
101691
101671
101651
101631
101611
101591
101571
101551
101532
101513
101494
101476
101458
101441
101425
101409
101394
101379
101365
101352
101340
101328
101317
101307
101297
101289
101281
101274
101267
101262
101257
101252
101249
101246
101244
101242
101241
101240
101240
101241
101242
101243
101245
101247
101250
101253
101256
101259
101263
101267
101271
101275
101279
101284
101288
101292
101297
101301
101306
101310
101314
101319
101323
108504
108502
108499
108494
108488
108480
108470
108458
108445
108430
108414
108398
108383
108371
108361
108358
108363
108376
108399
108429
108469
108516
108568
108623
108678
108731
108781
108827
108867
108902
108931
108954
108974
108989
109000
109009
109015
109019
109021
109022
109022
109021
109020
109018
109016
109014
109011
109009
109006
109003
109001
108998
108995
108993
108991
108988
108986
108984
108982
108980
108978
108976
108974
108972
108971
108969
108968
108966
108965
108964
108962
108961
108960
108959
108958
108957
108956
108954
108954
108953
108952
108951
108950
108949
108948
108947
108946
108946
108945
108944
108943
108943
108942
108941
108940
108940
108939
108938
108938
108937
108936
108936
108935
108934
108933
108933
108932
108931
108931
108930
108929
108929
108928
108927
108927
108926
108925
108924
108924
108923
108922
108921
108920
108920
108919
108918
108917
108916
108916
108915
108914
108913
108912
108911
108910
108909
108908
108908
108907
108906
108905
108904
108903
108902
108901
108900
108899
108898
108897
108897
108896
108895
108894
108893
108892
108891
108890
108889
108889
108888
108887
108886
108885
108885
108884
108883
108882
108882
108881
108880
108880
108879
108878
108878
108877
108876
108876
108875
108875
108874
108874
108873
108872
108872
108871
108871
108870
108870
108869
108869
108868
108867
108867
108866
108866
108865
108864
108864
108863
108863
108862
108861
108861
108860
108859
108858
108858
108857
108856
108855
108854
108853
108853
108852
108851
108850
108849
108848
108847
108846
108845
108843
108842
108841
108840
108839
108837
108836
108835
108833
108832
108830
108829
108827
108826
108824
108822
108821
108819
108817
108815
108812
108810
108808
108805
108802
108799
108796
108793
108790
108786
108782
108778
108773
108768
108763
108757
108751
108745
108738
108730
108722
108713
108704
108694
108683
108672
108660
108646
108632
108617
108601
108584
108565
108546
108525
108503
108479
108454
108428
108400
108370
108339
108306
108271
108234
108196
108155
108113
108068
108022
107973
107922
107869
107813
107756
107696
107633
107569
107502
107433
107361
107287
107211
107132
107051
106968
106883
106795
106705
106613
106519
106423
106325
106226
106124
106021
105916
105810
105702
105593
105483
105372
105259
105146
105033
104918
104804
104689
104573
104458
104343
104229
104115
104001
103888
103776
103666
103556
103448
103342
103237
103135
103034
102936
102839
102746
102655
102566
102481
102399
102319
102243
102170
102101
102035
101972
101914
101858
101806
101758
101714
101673
101636
101602
101572
101546
101523
101503
101486
101473
101463
101455
101451
101449
101449
101452
101457
101464
101474
101485
101498
101512
101528
101545
101563
101581
101601
101621
101641
101662
101683
101703
101724
101745
101765
101785
101804
101822
101840
101857
101873
101888
101902
101915
101927
101938
101947
101956
101962
101968
101972
101975
101977
101978
101977
101975
101971
101967
101961
101953
101945
101935
101925
101913
101900
101886
101872
101856
101840
101823
101806
101788
101769
101750
101731
101711
101691
101671
101651
101631
101610
101590
101571
101551
101532
101513
101494
101476
101458
101441
101425
101409
101394
101379
101365
101352
101339
101328
101317
101307
101297
101289
101281
101274
101267
101262
101257
101252
101249
101246
101244
101242
101241
101240
101240
101241
101242
101243
101245
101247
101250
101253
101256
101259
101263
101267
101271
101275
101279
101284
101288
101293
101297
101301
101306
101310
101314
101319
101323
108508
108507
108504
108499
108493
108483
108472
108459
108443
108425
108406
108385
108366
108348
108337
108329
108332
108344
108366
108398
108440
108488
108541
108598
108656
108713
108766
108815
108858
108896
108928
108953
108973
108989
109000
109008
109014
109018
109020
109021
109021
109020
109019
109017
109015
109013
109010
109008
109005
109003
109000
108997
108995
108992
108990
108988
108986
108983
108981
108979
108978
108976
108974
108972
108971
108969
108968
108966
108965
108964
108962
108961
108960
108959
108958
108957
108955
108954
108953
108953
108952
108951
108950
108949
108948
108947
108946
108946
108945
108944
108943
108943
108942
108941
108940
108940
108939
108938
108938
108937
108936
108936
108935
108934
108934
108933
108932
108931
108931
108930
108929
108929
108928
108927
108927
108926
108925
108924
108924
108923
108922
108921
108921
108920
108919
108918
108917
108916
108916
108915
108914
108913
108912
108911
108910
108910
108909
108908
108907
108906
108905
108904
108903
108902
108901
108900
108899
108899
108898
108897
108896
108895
108894
108893
108892
108891
108891
108890
108889
108888
108887
108886
108886
108885
108884
108883
108883
108882
108881
108881
108880
108879
108879
108878
108877
108877
108876
108876
108875
108874
108874
108873
108873
108872
108872
108871
108870
108870
108869
108869
108868
108868
108867
108867
108866
108865
108865
108864
108864
108863
108862
108862
108861
108860
108859
108859
108858
108857
108856
108855
108855
108854
108853
108852
108851
108850
108849
108848
108847
108846
108845
108844
108843
108841
108840
108839
108838
108836
108835
108834
108832
108831
108829
108828
108826
108824
108823
108821
108819
108817
108815
108813
108810
108808
108805
108803
108800
108797
108793
108790
108786
108782
108778
108773
108768
108763
108757
108751
108745
108738
108730
108722
108713
108704
108694
108683
108672
108660
108646
108632
108617
108601
108584
108565
108546
108525
108503
108479
108454
108428
108400
108370
108339
108306
108271
108234
108196
108155
108113
108068
108021
107973
107922
107868
107813
107755
107695
107633
107568
107501
107432
107361
107287
107210
107132
107051
106967
106882
106794
106704
106613
106519
106423
106325
106225
106123
106020
105915
105809
105701
105592
105482
105371
105259
105146
105032
104917
104803
104688
104573
104457
104342
104228
104114
104000
103887
103776
103665
103556
103448
103341
103237
103134
103033
102935
102839
102745
102654
102566
102480
102398
102319
102243
102170
102100
102034
101972
101913
101858
101806
101758
101714
101673
101636
101602
101572
101546
101522
101503
101486
101473
101463
101455
101451
101449
101450
101452
101457
101465
101474
101485
101498
101513
101528
101545
101563
101582
101601
101621
101642
101662
101683
101704
101725
101745
101765
101785
101804
101823
101841
101858
101874
101889
101903
101916
101928
101938
101948
101956
101963
101969
101973
101976
101977
101978
101977
101975
101972
101967
101961
101954
101945
101935
101925
101913
101900
101886
101872
101856
101840
101823
101806
101788
101769
101750
101731
101711
101691
101671
101651
101630
101610
101590
101570
101551
101531
101512
101494
101476
101458
101441
101425
101409
101393
101379
101365
101352
101339
101328
101317
101307
101297
101289
101281
101274
101267
101262
101257
101252
101249
101246
101244
101242
101241
101240
101240
101241
101242
101243
101245
101248
101250
101253
101256
101260
101263
101267
101271
101275
101280
101284
101288
101293
101297
101302
101306
101310
101315
101319
101323
108511
108509
108507
108501
108495
108485
108473
108457
108439
108417
108394
108368
108344
108319
108303
108288
108288
108299
108320
108354
108397
108450
108509
108573
108636
108697
108755
108807
108852
108891
108922
108948
108969
108985
108996
109005
109011
109015
109018
109019
109019
109018
109017
109016
109014
109011
109009
109007
109004
109002
108999
108997
108994
108992
108989
108987
108985
108983
108981
108979
108977
108975
108974
108972
108970
108969
108968
108966
108965
108963
108962
108961
108960
108959
108958
108956
108955
108954
108953
108952
108952
108951
108950
108949
108948
108947
108946
108946
108945
108944
108943
108943
108942
108941
108940
108940
108939
108938
108938
108937
108936
108936
108935
108934
108934
108933
108932
108932
108931
108930
108929
108929
108928
108927
108927
108926
108925
108924
108924
108923
108922
108921
108921
108920
108919
108918
108917
108917
108916
108915
108914
108913
108912
108911
108911
108910
108909
108908
108907
108906
108905
108904
108903
108902
108901
108901
108900
108899
108898
108897
108896
108895
108894
108893
108893
108892
108891
108890
108889
108888
108888
108887
108886
108885
108884
108884
108883
108882
108882
108881
108880
108880
108879
108878
108878
108877
108876
108876
108875
108875
108874
108874
108873
108872
108872
108871
108871
108870
108870
108869
108869
108868
108868
108867
108866
108866
108865
108865
108864
108863
108863
108862
108861
108861
108860
108859
108858
108858
108857
108856
108855
108854
108853
108852
108851
108850
108849
108848
108847
108846
108845
108844
108843
108842
108841
108839
108838
108837
108835
108834
108833
108831
108830
108828
108826
108825
108823
108821
108819
108817
108815
108813
108811
108808
108805
108803
108800
108797
108793
108790
108786
108782
108778
108773
108768
108763
108758
108751
108745
108738
108730
108722
108714
108704
108694
108683
108672
108660
108646
108632
108617
108601
108584
108565
108546
108525
108503
108479
108454
108428
108400
108370
108339
108306
108271
108234
108195
108155
108112
108068
108021
107972
107921
107868
107813
107755
107695
107633
107568
107501
107432
107360
107286
107210
107131
107050
106967
106881
106794
106704
106612
106518
106422
106324
106224
106123
106019
105915
105808
105701
105591
105481
105370
105258
105145
105031
104917
104802
104687
104572
104457
104342
104227
104113
103999
103886
103775
103664
103555
103447
103340
103236
103133
103032
102934
102838
102744
102653
102565
102480
102397
102318
102242
102169
102100
102034
101971
101912
101857
101806
101757
101713
101672
101635
101602
101572
101545
101522
101503
101486
101473
101463
101455
101451
101450
101450
101452
101457
101465
101474
101486
101499
101513
101529
101545
101563
101582
101602
101622
101642
101663
101684
101704
101725
101746
101766
101786
101805
101823
101841
101858
101874
101889
101903
101916
101928
101939
101948
101956
101963
101969
101973
101976
101978
101978
101978
101976
101972
101967
101961
101954
101945
101936
101925
101913
101900
101886
101872
101856
101840
101823
101806
101788
101769
101750
101730
101711
101691
101671
101650
101630
101610
101590
101570
101551
101531
101512
101494
101476
101458
101441
101424
101408
101393
101379
101365
101352
101339
101328
101317
101306
101297
101289
101281
101273
101267
101262
101257
101252
101249
101246
101244
101242
101241
101241
101240
101241
101242
101244
101245
101248
101250
101253
101256
101260
101263
101267
101271
101275
101280
101284
101288
101293
101297
101302
101306
101310
101315
101319
101323
108514
108512
108509
108503
108496
108485
108472
108454
108432
108406
108377
108344
108312
108279
108256
108236
108231
108238
108258
108293
108340
108398
108461
108529
108598
108665
108729
108786
108837
108880
108915
108943
108965
108982
108994
109003
109009
109013
109015
109016
109017
109016
109015
109013
109012
109010
109007
109005
109003
109000
108998
108995
108993
108991
108989
108986
108984
108982
108980
108979
108977
108975
108973
108972
108970
108969
108967
108966
108965
108963
108962
108961
108960
108959
108957
108956
108955
108954
108953
108952
108952
108951
108950
108949
108948
108947
108946
108946
108945
108944
108943
108943
108942
108941
108940
108940
108939
108938
108938
108937
108936
108936
108935
108934
108934
108933
108932
108932
108931
108930
108930
108929
108928
108928
108927
108926
108925
108925
108924
108923
108922
108922
108921
108920
108919
108918
108918
108917
108916
108915
108914
108913
108913
108912
108911
108910
108909
108908
108907
108906
108905
108905
108904
108903
108902
108901
108900
108899
108898
108897
108896
108895
108895
108894
108893
108892
108891
108890
108889
108889
108888
108887
108886
108886
108885
108884
108883
108883
108882
108881
108881
108880
108879
108879
108878
108878
108877
108876
108876
108875
108875
108874
108874
108873
108872
108872
108871
108871
108870
108870
108869
108869
108868
108867
108867
108866
108866
108865
108864
108864
108863
108862
108862
108861
108860
108860
108859
108858
108857
108856
108856
108855
108854
108853
108852
108851
108850
108849
108848
108847
108846
108845
108843
108842
108841
108840
108838
108837
108836
108834
108833
108831
108830
108828
108827
108825
108823
108821
108819
108817
108815
108813
108811
108808
108806
108803
108800
108797
108794
108790
108786
108782
108778
108774
108769
108763
108758
108752
108745
108738
108730
108722
108714
108704
108694
108683
108672
108660
108646
108632
108617
108601
108584
108565
108546
108525
108502
108479
108454
108427
108399
108370
108338
108305
108270
108234
108195
108155
108112
108067
108021
107972
107921
107868
107812
107754
107694
107632
107567
107500
107431
107359
107285
107209
107130
107049
106966
106881
106793
106703
106611
106517
106421
106323
106223
106122
106019
105914
105807
105700
105591
105480
105369
105257
105144
105030
104916
104801
104686
104571
104456
104341
104226
104112
103998
103886
103774
103663
103554
103446
103339
103235
103132
103031
102933
102837
102743
102652
102564
102479
102396
102317
102241
102168
102099
102033
101971
101912
101857
101805
101757
101713
101672
101635
101602
101572
101545
101522
101502
101486
101473
101463
101456
101451
101450
101450
101452
101458
101465
101475
101486
101499
101513
101529
101546
101564
101583
101602
101622
101643
101663
101684
101705
101726
101746
101767
101786
101805
101824
101842
101859
101875
101890
101904
101917
101929
101939
101949
101957
101964
101969
101974
101977
101978
101979
101978
101976
101972
101967
101961
101954
101945
101936
101925
101913
101900
101887
101872
101856
101840
101823
101806
101788
101769
101750
101730
101711
101691
101671
101650
101630
101610
101590
101570
101550
101531
101512
101493
101475
101458
101441
101424
101408
101393
101378
101365
101351
101339
101327
101317
101306
101297
101289
101281
101273
101267
101261
101257
101252
101249
101246
101244
101242
101241
101241
101241
101241
101242
101244
101246
101248
101250
101253
101257
101260
101264
101267
101271
101276
101280
101284
101289
101293
101297
101302
101306
101310
101315
101319
101323
108515
108513
108510
108504
108496
108484
108469
108448
108423
108391
108355
108313
108271
108229
108195
108170
108158
108165
108185
108221
108272
108335
108406
108483
108559
108634
108703
108766
108821
108867
108905
108935
108958
108976
108989
108998
109004
109009
109012
109013
109014
109013
109012
109011
109009
109007
109005
109003
109001
108999
108996
108994
108992
108990
108988
108986
108984
108982
108980
108978
108976
108974
108973
108971
108970
108968
108967
108966
108964
108963
108962
108961
108959
108958
108957
108956
108955
108954
108953
108952
108951
108951
108950
108949
108948
108947
108946
108946
108945
108944
108943
108943
108942
108941
108941
108940
108939
108938
108938
108937
108936
108936
108935
108934
108934
108933
108932
108932
108931
108930
108930
108929
108928
108928
108927
108926
108926
108925
108924
108923
108923
108922
108921
108920
108919
108919
108918
108917
108916
108915
108915
108914
108913
108912
108911
108910
108909
108908
108908
108907
108906
108905
108904
108903
108902
108901
108900
108899
108898
108898
108897
108896
108895
108894
108893
108892
108892
108891
108890
108889
108888
108888
108887
108886
108885
108885
108884
108883
108882
108882
108881
108880
108880
108879
108879
108878
108877
108877
108876
108876
108875
108875
108874
108874
108873
108872
108872
108871
108871
108870
108870
108869
108869
108868
108867
108867
108866
108866
108865
108864
108864
108863
108862
108862
108861
108860
108859
108859
108858
108857
108856
108855
108854
108853
108852
108852
108851
108849
108848
108847
108846
108845
108844
108843
108842
108840
108839
108838
108836
108835
108833
108832
108830
108829
108827
108825
108824
108822
108820
108818
108816
108814
108811
108809
108806
108803
108800
108797
108794
108790
108787
108783
108778
108774
108769
108764
108758
108752
108745
108738
108731
108722
108714
108704
108694
108683
108672
108660
108646
108632
108617
108601
108583
108565
108545
108525
108502
108479
108454
108427
108399
108369
108338
108305
108270
108233
108195
108154
108112
108067
108020
107971
107920
107867
107812
107754
107694
107632
107567
107500
107431
107359
107285
107208
107130
107049
106965
106880
106792
106702
106610
106516
106420
106322
106223
106121
106018
105913
105807
105699
105590
105479
105368
105256
105143
105029
104915
104800
104685
104570
104455
104340
104225
104111
103997
103885
103773
103662
103553
103445
103339
103234
103131
103031
102932
102836
102743
102652
102563
102478
102396
102317
102241
102168
102098
102033
101970
101911
101856
101805
101757
101712
101672
101635
101601
101571
101545
101522
101502
101486
101473
101463
101456
101451
101450
101450
101453
101458
101465
101475
101486
101499
101514
101529
101546
101564
101583
101603
101623
101643
101664
101685
101706
101726
101747
101767
101787
101806
101825
101842
101859
101875
101890
101904
101917
101929
101940
101949
101957
101964
101970
101974
101977
101978
101979
101978
101976
101973
101968
101961
101954
101946
101936
101925
101913
101900
101887
101872
101856
101840
101823
101806
101787
101769
101750
101730
101710
101690
101670
101650
101630
101610
101590
101570
101550
101531
101512
101493
101475
101457
101440
101424
101408
101393
101378
101364
101351
101339
101327
101316
101306
101297
101289
101281
101273
101267
101261
101257
101252
101249
101246
101244
101242
101241
101241
101241
101241
101242
101244
101246
101248
101251
101253
101257
101260
101264
101268
101272
101276
101280
101284
101289
101293
101298
101302
101306
101311
101315
101319
101323
108516
108514
108511
108505
108496
108483
108466
108442
108413
108375
108331
108280
108226
108173
108126
108092
108067
108068
108093
108134
108193
108264
108342
108426
108509
108591
108667
108737
108799
108850
108893
108926
108951
108970
108984
108993
109000
109005
109007
109009
109010
109010
109009
109008
109007
109005
109003
109001
108999
108997
108995
108993
108991
108988
108986
108984
108983
108981
108979
108977
108975
108974
108972
108971
108969
108968
108967
108965
108964
108963
108962
108960
108959
108958
108957
108956
108955
108954
108953
108952
108951
108951
108950
108949
108948
108947
108946
108946
108945
108944
108943
108943
108942
108941
108941
108940
108939
108939
108938
108937
108937
108936
108935
108935
108934
108933
108933
108932
108931
108931
108930
108929
108929
108928
108927
108926
108926
108925
108924
108924
108923
108922
108921
108920
108920
108919
108918
108917
108916
108916
108915
108914
108913
108912
108911
108911
108910
108909
108908
108907
108906
108905
108904
108903
108902
108902
108901
108900
108899
108898
108897
108896
108895
108895
108894
108893
108892
108891
108890
108890
108889
108888
108887
108887
108886
108885
108884
108884
108883
108882
108882
108881
108880
108880
108879
108879
108878
108877
108877
108876
108876
108875
108875
108874
108874
108873
108873
108872
108871
108871
108870
108870
108869
108869
108868
108868
108867
108866
108866
108865
108864
108864
108863
108862
108862
108861
108860
108859
108859
108858
108857
108856
108855
108854
108853
108852
108851
108850
108849
108848
108847
108846
108845
108843
108842
108841
108840
108838
108837
108835
108834
108832
108831
108829
108828
108826
108824
108822
108820
108818
108816
108814
108812
108809
108807
108804
108801
108798
108794
108791
108787
108783
108779
108774
108769
108764
108758
108752
108745
108738
108731
108723
108714
108704
108694
108684
108672
108660
108646
108632
108617
108601
108583
108565
108545
108524
108502
108479
108453
108427
108399
108369
108338
108305
108270
108233
108194
108154
108111
108067
108020
107971
107920
107867
107811
107753
107693
107631
107566
107499
107430
107358
107284
107208
107129
107048
106965
106879
106791
106702
106610
106515
106419
106321
106222
106120
106017
105912
105806
105698
105589
105478
105367
105255
105142
105028
104914
104799
104684
104569
104454
104339
104224
104110
103996
103884
103772
103661
103552
103444
103338
103233
103130
103030
102931
102835
102742
102651
102563
102477
102395
102316
102240
102167
102098
102032
101970
101911
101856
101804
101756
101712
101671
101635
101601
101571
101545
101522
101502
101486
101473
101463
101456
101452
101450
101450
101453
101458
101466
101475
101487
101500
101514
101530
101547
101565
101584
101603
101623
101644
101664
101685
101706
101727
101748
101768
101788
101807
101825
101843
101860
101876
101891
101905
101918
101930
101940
101950
101958
101965
101970
101974
101977
101979
101979
101979
101977
101973
101968
101962
101954
101946
101936
101925
101913
101900
101887
101872
101856
101840
101823
101805
101787
101769
101749
101730
101710
101690
101670
101650
101630
101609
101589
101569
101550
101531
101512
101493
101475
101457
101440
101424
101408
101393
101378
101364
101351
101339
101327
101316
101306
101297
101288
101280
101273
101267
101261
101256
101252
101249
101246
101244
101242
101241
101241
101241
101241
101242
101244
101246
101248
101251
101254
101257
101260
101264
101268
101272
101276
101280
101284
101289
101293
101298
101302
101306
101311
101315
101319
101323
108517
108515
108512
108505
108496
108482
108463
108436
108402
108357
108302
108239
108172
108107
108046
108004
107971
107969
107998
108040
108109
108187
108276
108368
108460
108549
108632
108708
108775
108832
108878
108914
108942
108962
108977
108987
108994
108999
109003
109005
109006
109006
109006
109005
109004
109002
109001
108999
108997
108995
108993
108991
108989
108987
108985
108983
108981
108980
108978
108976
108975
108973
108972
108970
108969
108967
108966
108965
108964
108962
108961
108960
108959
108958
108957
108956
108955
108954
108953
108952
108951
108951
108950
108949
108948
108947
108946
108946
108945
108944
108943
108943
108942
108941
108941
108940
108939
108939
108938
108937
108937
108936
108935
108935
108934
108933
108933
108932
108931
108931
108930
108929
108929
108928
108927
108927
108926
108925
108924
108924
108923
108922
108921
108921
108920
108919
108918
108918
108917
108916
108915
108914
108913
108913
108912
108911
108910
108909
108908
108907
108906
108906
108905
108904
108903
108902
108901
108900
108899
108898
108898
108897
108896
108895
108894
108893
108893
108892
108891
108890
108889
108889
108888