/*--------------------------------*- C++ -*----------------------------------*\
| =========                 |                                                 |
| \\      /  F ield         | OpenFOAM: The Open Source CFD Toolbox           |
|  \\    /   O peration     | Version:  v1812                                 |
|   \\  /    A nd           | Web:      www.OpenFOAM.com                      |
|    \\/     M anipulation  |                                                 |
\*---------------------------------------------------------------------------*/
FoamFile
{
    version     2.0;
    format      ascii;
    class       surfaceScalarField;
    location    "0.1";
    object      phi;
}
// * * * * * * * * * * * * * * * * * * * * * * * * * * * * * * * * * * * * * //

dimensions      [1 0 -1 0 0 0 0];
oriented        oriented;


internalField   nonuniform List<scalar> 
40240
(
0.000549893
-0.000552289
0.000876454
-0.000328965
0.00107452
-0.000200383
0.00109075
-1.87191e-05
0.00087837
0.000210179
0.000380343
0.000495563
-0.00047953
0.000857594
-0.00178
0.00129817
-0.00363401
0.00185202
-0.00601784
0.0023821
-0.00899089
0.00297186
-0.0124777
0.00348609
-0.0164298
0.00395229
-0.0205638
0.00413479
-0.0247642
0.0042024
-0.0286063
0.00384565
-0.0318667
0.0032649
-0.0343384
0.00247788
-0.0357411
0.00141014
-0.0361086
0.000377692
-0.0356336
-0.000466905
-0.0341592
-0.00146316
-0.0319325
-0.00221675
-0.0290685
-0.0028535
-0.0257492
-0.00331017
-0.0221387
-0.00360247
-0.0184224
-0.00370925
-0.0146894
-0.0037285
-0.0111226
-0.00356239
-0.00799974
-0.00312058
-0.00536714
-0.00263141
-0.00275899
-0.00260896
-0.000374679
-0.00238614
0.00188651
-0.00226404
0.00390913
-0.0020265
0.00562772
-0.00172341
0.00705412
-0.00143177
0.00822433
-0.00117623
0.00918434
-0.000966225
0.0099623
-0.000784609
0.0105998
-0.000644368
0.0111101
-0.00051723
0.0115189
-0.000415949
0.0118409
-0.000329297
0.0120925
-0.000258953
0.0122855
-0.00020043
0.0124309
-0.000152888
0.0125376
-0.000114315
0.0126128
-8.28736e-05
0.0126633
-5.82728e-05
0.0126931
-3.75279e-05
0.0127081
-2.29025e-05
0.0127087
-8.4875e-06
0.0127025
-1.75407e-06
0.0126879
6.62765e-06
0.0126685
1.13982e-05
0.0126447
1.56372e-05
0.0126185
1.80542e-05
0.0125906
1.97067e-05
0.0125619
2.03952e-05
0.0125331
2.05621e-05
0.0125045
2.02729e-05
0.0124765
1.95505e-05
0.0124496
1.8428e-05
0.012424
1.71726e-05
0.0123997
1.5803e-05
0.0123768
1.43542e-05
0.0123554
1.28002e-05
0.0123355
1.12081e-05
0.0123173
9.61425e-06
0.0123006
8.04506e-06
0.0122854
6.50993e-06
0.0122716
5.01878e-06
0.0122594
3.58274e-06
0.0122484
2.20948e-06
0.0122388
9.05196e-07
0.0122304
-3.41866e-07
0.0122232
-1.52713e-06
0.0122172
-2.66188e-06
0.0122121
-3.73424e-06
0.0122081
-4.74238e-06
0.0122051
-5.70208e-06
0.0122029
-6.56881e-06
0.0122016
-7.43914e-06
0.0122011
-8.22328e-06
0.0122012
-8.93351e-06
0.0122021
-9.61501e-06
0.0122036
-1.02742e-05
0.0122058
-1.08795e-05
0.0122085
-1.14485e-05
0.0122117
-1.19768e-05
0.0122154
-1.247e-05
0.0122196
-1.29337e-05
0.0122242
-1.33669e-05
0.0122292
-1.37742e-05
0.0122346
-1.4153e-05
0.0122403
-1.45115e-05
0.0122464
-1.48434e-05
0.0122527
-1.51544e-05
0.0122593
-1.54461e-05
0.0122662
-1.57257e-05
0.0122733
-1.59865e-05
0.0122806
-1.62338e-05
0.0122881
-1.64659e-05
0.0122959
-1.6686e-05
0.0123037
-1.68938e-05
0.0123118
-1.70902e-05
0.0123199
-1.72767e-05
0.0123282
-1.74548e-05
0.0123367
-1.76237e-05
0.0123452
-1.77881e-05
0.0123538
-1.7944e-05
0.0123625
-1.80911e-05
0.0123713
-1.82307e-05
0.0123801
-1.83631e-05
0.012389
-1.84887e-05
0.012398
-1.86085e-05
0.0124069
-1.8723e-05
0.012416
-1.88329e-05
0.012425
-1.89377e-05
0.0124341
-1.90372e-05
0.0124432
-1.9128e-05
0.0124522
-1.92141e-05
0.0124613
-1.92951e-05
0.0124705
-1.93716e-05
0.0124796
-1.94465e-05
0.0124887
-1.95193e-05
0.0124978
-1.95876e-05
0.0125069
-1.96491e-05
0.0125161
-1.97066e-05
0.0125252
-1.9761e-05
0.0125343
-1.98128e-05
0.0125434
-1.98604e-05
0.0125526
-1.99031e-05
0.0125617
-1.99378e-05
0.0125708
-1.99666e-05
0.01258
-1.99967e-05
0.0125892
-2.00236e-05
0.0125983
-2.00475e-05
0.0126075
-2.00659e-05
0.0126168
-2.00787e-05
0.012626
-2.00906e-05
0.0126353
-2.00992e-05
0.0126447
-2.01055e-05
0.0126541
-2.01094e-05
0.0126635
-2.01059e-05
0.012673
-2.00965e-05
0.0126826
-2.00849e-05
0.0126922
-2.0074e-05
0.0127019
-2.00616e-05
0.0127117
-2.00481e-05
0.0127216
-2.00281e-05
0.0127315
-2.00029e-05
0.0127416
-1.99735e-05
0.0127517
-1.99386e-05
0.012762
-1.99037e-05
0.0127724
-1.9864e-05
0.0127829
-1.98261e-05
0.0127935
-1.97801e-05
0.0128042
-1.97291e-05
0.012815
-1.96761e-05
0.012826
-1.96165e-05
0.0128371
-1.95601e-05
0.0128483
-1.95005e-05
0.0128597
-1.94444e-05
0.0128712
-1.93883e-05
0.0128828
-1.93232e-05
0.0128946
-1.92597e-05
0.0129065
-1.91875e-05
0.0129185
-1.91152e-05
0.0129306
-1.90448e-05
0.0129429
-1.89643e-05
0.0129553
-1.88868e-05
0.0129679
-1.88078e-05
0.0129805
-1.87243e-05
0.0129933
-1.8649e-05
0.0130062
-1.85642e-05
0.0130192
-1.8477e-05
0.0130323
-1.83908e-05
0.0130454
-1.82984e-05
0.0130587
-1.82088e-05
0.0130721
-1.81145e-05
0.0130855
-1.80121e-05
0.013099
-1.79121e-05
0.0131125
-1.78063e-05
0.0131261
-1.77002e-05
0.0131398
-1.7597e-05
0.0131534
-1.74905e-05
0.0131671
-1.73763e-05
0.0131808
-1.72636e-05
0.0131945
-1.71534e-05
0.0132082
-1.70378e-05
0.013222
-1.69275e-05
0.0132357
-1.68135e-05
0.0132493
-1.66963e-05
0.013263
-1.65692e-05
0.0132766
-1.64425e-05
0.0132901
-1.63248e-05
0.0133037
-1.62045e-05
0.0133171
-1.6081e-05
0.0133305
-1.59484e-05
0.0133439
-1.58121e-05
0.0133572
-1.56766e-05
0.0133704
-1.55459e-05
0.0133835
-1.54174e-05
0.0133966
-1.52737e-05
0.0134096
-1.51322e-05
0.0134225
-1.49919e-05
0.0134353
-1.4847e-05
0.0134481
-1.47089e-05
0.0134608
-1.45649e-05
0.0134735
-1.44227e-05
0.0134862
-1.42838e-05
0.0134987
-1.41285e-05
0.0135113
-1.3984e-05
0.0135238
-1.38298e-05
0.0135363
-1.36822e-05
0.0135489
-1.35473e-05
0.0135615
-1.33899e-05
0.0135741
-1.32385e-05
0.0135868
-1.30918e-05
0.0135996
-1.29389e-05
0.0136124
-1.27882e-05
0.0136255
-1.26392e-05
0.0136387
-1.24888e-05
0.013652
-1.23414e-05
0.0136657
-1.21889e-05
0.0136796
-1.2042e-05
0.0136938
-1.18955e-05
0.0137083
-1.17552e-05
0.0137233
-1.1615e-05
0.0137386
-1.14704e-05
0.0137545
-1.13366e-05
0.013771
-1.12043e-05
0.013788
-1.10755e-05
0.0138058
-1.09482e-05
0.0138242
-1.08182e-05
0.0138435
-1.07034e-05
0.0138637
-1.05865e-05
0.0138849
-1.04696e-05
0.0139071
-1.03603e-05
0.0139304
-1.02569e-05
0.0139551
-1.01559e-05
0.013981
-1.00542e-05
0.0140085
-9.95704e-06
0.0140375
-9.86717e-06
0.0140682
-9.785e-06
0.0141007
-9.69935e-06
0.0141352
-9.62062e-06
0.0141718
-9.55037e-06
0.0142107
-9.48449e-06
0.014252
-9.43057e-06
0.0142958
-9.37603e-06
0.0143425
-9.32158e-06
0.0143921
-9.27032e-06
0.0144448
-9.2246e-06
0.0145008
-9.19803e-06
0.0145604
-9.17742e-06
0.0146238
-9.14987e-06
0.0146912
-9.12992e-06
0.0147629
-9.10048e-06
0.014839
-9.07272e-06
0.0149199
-9.05001e-06
0.0150058
-9.01429e-06
0.015097
-8.97529e-06
0.0151937
-8.93002e-06
0.0152963
-8.8798e-06
0.015405
-8.8378e-06
0.0155203
-8.78787e-06
0.0156422
-8.72697e-06
0.0157713
-8.65831e-06
0.0159078
-8.57739e-06
0.016052
-8.48265e-06
0.0162043
-8.36245e-06
0.016365
-8.22867e-06
0.0165344
-8.08122e-06
0.0167128
-7.9015e-06
0.0169007
-7.70456e-06
0.0170982
-7.47307e-06
0.0173058
-7.2147e-06
0.0175238
-6.92239e-06
0.0177524
-6.59299e-06
0.017992
-6.22634e-06
0.0182429
-5.81337e-06
0.0185053
-5.36141e-06
0.0187796
-4.86128e-06
0.0190659
-4.30813e-06
0.0193645
-3.70389e-06
0.0196756
-3.03756e-06
0.0199995
-2.30872e-06
0.0203362
-1.52005e-06
0.020686
-6.74746e-07
0.021049
2.44591e-07
0.0214253
1.24641e-06
0.0218149
2.32257e-06
0.0222179
3.473e-06
0.0226344
4.69577e-06
0.0230643
5.99827e-06
0.0235075
7.40231e-06
0.023964
8.89557e-06
0.0244337
1.04667e-05
0.0249164
1.21309e-05
0.0254119
1.38897e-05
0.0259201
1.57501e-05
0.0264406
1.77065e-05
0.0269732
1.97669e-05
0.0275175
2.19311e-05
0.0280731
2.41892e-05
0.0286398
2.65426e-05
0.0292169
2.90024e-05
0.0298041
3.1568e-05
0.0304008
3.42143e-05
0.0310064
3.69654e-05
0.0316205
3.98234e-05
0.0322423
4.27883e-05
0.0328712
4.58386e-05
0.0335065
4.8981e-05
0.0341476
5.22234e-05
0.0347935
5.5561e-05
0.0354437
5.89894e-05
0.0360971
6.25038e-05
0.0367531
6.6112e-05
0.0374107
6.9791e-05
0.0380691
7.35123e-05
0.0387274
7.72833e-05
0.0393846
8.11279e-05
0.0400399
8.50487e-05
0.0406922
8.90425e-05
0.0413405
9.30665e-05
0.0419841
9.70653e-05
0.0426217
0.000101182
0.0432521
0.000105516
0.0438744
0.000109962
0.0444875
0.000114384
0.0450907
0.000118612
0.045683
0.000122685
0.0462635
0.000126747
0.0468311
0.000130898
0.0473845
0.000135262
0.0479228
0.000139722
0.0484449
0.000144185
0.0489501
0.000148437
0.0494376
0.000152494
0.0499065
0.00015647
0.0503561
0.000160458
0.0507853
0.000164516
0.0511933
0.000168568
0.0515794
0.000172546
0.0519429
0.000176413
0.0522833
0.000180135
0.0526001
0.000183705
0.0528927
0.000187129
0.0531609
0.00019044
0.0534041
0.000193652
0.0536221
0.000196737
0.0538146
0.000199692
0.0539815
0.000202501
0.0541228
0.000205146
0.0542383
0.000207624
0.0543282
0.000209964
0.0543923
0.000212365
0.0544314
0.000214296
0.0544481
0.000214267
0.054438
0.000217705
0.0544003
0.000220811
0.0543441
0.000219034
0.0542654
0.000219874
0.0541638
0.000221317
0.0540404
0.000221925
0.0538975
0.000222186
0.0537346
0.000222561
0.0535536
0.000222016
0.0533546
0.000222008
0.0531394
0.000220909
0.0529097
0.000219202
0.0526671
0.000220118
0.0524135
0.000219517
0.0521473
0.000215406
0.0518671
0.000215836
0.0515776
0.000213922
0.0512805
0.000211858
0.0509766
0.000209408
0.0506668
0.000207162
0.0503523
0.00020488
0.0500347
0.000201954
0.0497144
0.000199459
0.0493928
0.000196755
0.049071
0.000193734
0.0487501
0.000190725
0.0484307
0.000187832
0.0481145
0.000184268
0.047802
0.000181006
0.047494
0.000177642
0.0471914
0.000174312
0.0468947
0.000170972
0.0466052
0.000167288
0.0463233
0.000163653
0.0460492
0.000160531
0.0457839
0.000156778
0.0455282
0.00015285
0.0452819
0.000149697
0.0450455
0.000146289
0.0448196
0.000142719
0.0446043
0.000139297
0.0444
0.000135861
0.0442066
0.000132668
0.0440246
0.000129289
0.0438541
0.000125867
0.0436947
0.000122977
0.0435466
0.000119992
0.04341
0.000116739
0.0432845
0.000113871
0.0431701
0.000111184
0.0430669
0.000108436
0.0429735
0.000106002
0.0428887
0.000103388
0.0428139
0.000101121
0.0427517
9.75975e-05
0.0426995
9.52613e-05
0.0426559
9.40058e-05
0.0426215
9.15516e-05
0.0425951
8.98781e-05
0.0425764
8.80966e-05
0.0425666
8.53846e-05
0.0425623
8.45538e-05
0.0425639
8.27186e-05
0.0425717
8.10359e-05
0.042584
8.05279e-05
0.0426019
7.88587e-05
0.0426236
7.78774e-05
0.0426489
7.65878e-05
0.0426771
7.55982e-05
0.0427079
7.4567e-05
0.0427402
7.3892e-05
0.0427737
7.31243e-05
0.0428077
7.25711e-05
0.0428421
7.16862e-05
0.0428758
7.12481e-05
0.0429082
7.09873e-05
0.0429394
7.03638e-05
0.0429683
7.00926e-05
0.0429949
6.97201e-05
0.0430183
6.95881e-05
0.0430384
6.92972e-05
0.0430547
6.90948e-05
0.0430668
6.89164e-05
0.0430744
6.86985e-05
0.0430771
6.86375e-05
0.0430755
6.81259e-05
0.0430677
6.84146e-05
0.0430548
6.79767e-05
0.0430364
6.77621e-05
0.0430124
6.75506e-05
0.0429821
6.76637e-05
0.0429461
6.74575e-05
0.0429043
6.72376e-05
0.0428566
6.6873e-05
0.0428027
6.69468e-05
0.0427434
6.6147e-05
0.0426785
6.59345e-05
0.0426079
6.59048e-05
0.0425322
6.53348e-05
0.042452
6.42381e-05
0.0423669
6.3998e-05
0.0422772
6.37535e-05
0.0421833
6.31801e-05
0.0420855
6.26576e-05
0.0419842
6.18918e-05
0.0418795
6.1291e-05
0.041772
6.05614e-05
0.0416619
5.98572e-05
0.0415499
5.88838e-05
0.0414359
5.81819e-05
0.0413208
5.71748e-05
0.0412048
5.60493e-05
0.0410886
5.49508e-05
0.0409718
5.42347e-05
0.040855
5.33256e-05
0.0407393
5.21883e-05
0.0406246
5.10518e-05
0.0405115
4.97364e-05
0.0404007
4.84815e-05
0.040292
4.74307e-05
0.040186
4.6328e-05
0.0400829
4.52145e-05
0.0399834
4.38295e-05
0.0398876
4.25567e-05
0.0397961
4.10651e-05
0.0397086
4.02041e-05
0.0396257
3.89032e-05
0.0395478
3.75822e-05
0.0394751
3.60428e-05
0.0394076
3.49131e-05
0.0393467
3.25001e-05
0.0392896
3.30447e-05
0.0392397
3.01707e-05
0.0391954
2.90442e-05
0.0391519
3.24812e-05
0.0391249
1.9392e-05
1.15153e-05
-4.78059e-05
-0.000506813
-0.000604528
0.000225404
-0.00164572
0.000838426
-0.0030397
0.00137284
-0.00488902
0.00205719
-0.00732554
0.00292976
-0.0104308
0.00396089
-0.0142127
0.00507814
-0.0185975
0.00623527
-0.023557
0.00734022
-0.0288808
0.00829482
-0.0342922
0.00889718
-0.0394681
0.00912847
-0.0441135
0.00878115
-0.0480046
0.00809505
-0.0508994
0.00674344
-0.0527264
0.00509523
-0.053359
0.00311474
-0.0529579
0.00101411
-0.051497
-0.00107736
-0.0490316
-0.0029267
-0.0458326
-0.00465546
-0.0419578
-0.0060849
-0.0375368
-0.0072674
-0.0326753
-0.00816499
-0.0275482
-0.00872291
-0.0222709
-0.00898109
-0.0170766
-0.00891751
-0.0119983
-0.00863796
-0.00691293
-0.00820365
-0.00186247
-0.00768148
0.00265028
-0.00712213
0.00673615
-0.00647394
0.0102854
-0.0058167
0.0133929
-0.00513802
0.0161619
-0.00449731
0.0186162
-0.00389146
0.0207743
-0.00334022
0.0226588
-0.00285684
0.0242818
-0.00241413
0.025676
-0.0020453
0.026864
-0.00171212
0.0278716
-0.00143062
0.0287213
-0.00118615
0.0294346
-0.00097951
0.0300304
-0.000803531
0.0305256
-0.000655612
0.0309353
-0.000531488
0.0312725
-0.000427704
0.0315484
-0.000341835
0.0317732
-0.000270041
0.0319546
-0.000212039
0.0321011
-0.000162812
0.0322166
-0.000125079
0.0323079
-9.26601e-05
0.032379
-6.77158e-05
0.032434
-4.73456e-05
0.0324757
-3.17085e-05
0.0325067
-1.94532e-05
0.0325292
-1.02398e-05
0.032545
-3.38867e-06
0.0325556
1.38222e-06
0.0325623
4.58296e-06
0.0325659
6.61362e-06
0.0325672
7.53479e-06
0.032567
7.61834e-06
0.0325659
7.03103e-06
0.0325642
6.06781e-06
0.0325621
4.74603e-06
0.0325601
3.13214e-06
0.0325584
1.29375e-06
0.032557
-6.88734e-07
0.0325563
-2.76203e-06
0.0325561
-4.8571e-06
0.0325567
-6.94125e-06
0.032558
-9.01582e-06
0.0325602
-1.106e-05
0.0325632
-1.30626e-05
0.0325669
-1.50239e-05
0.0325716
-1.69314e-05
0.032577
-1.87682e-05
0.0325833
-2.05159e-05
0.0325903
-2.217e-05
0.0325981
-2.37718e-05
0.0326066
-2.52555e-05
0.0326158
-2.66809e-05
0.0326256
-2.80075e-05
0.0326361
-2.92739e-05
0.0326471
-3.04637e-05
0.0326587
-3.15858e-05
0.0326708
-3.26416e-05
0.0326835
-3.36326e-05
0.0326965
-3.45706e-05
0.0327101
-3.54539e-05
0.032724
-3.62891e-05
0.0327384
-3.70684e-05
0.0327531
-3.78086e-05
0.0327682
-3.84955e-05
0.0327836
-3.91477e-05
0.0327993
-3.97617e-05
0.0328153
-4.03476e-05
0.0328315
-4.08869e-05
0.032848
-4.1407e-05
0.0328648
-4.18979e-05
0.0328817
-4.23633e-05
0.0328988
-4.28055e-05
0.0329161
-4.32254e-05
0.0329336
-4.36245e-05
0.0329513
-4.40066e-05
0.0329691
-4.4372e-05
0.032987
-4.47303e-05
0.0330051
-4.50735e-05
0.0330232
-4.5398e-05
0.0330415
-4.57023e-05
0.0330599
-4.59899e-05
0.0330783
-4.62645e-05
0.0330969
-4.65292e-05
0.0331155
-4.67839e-05
0.0331341
-4.70319e-05
0.0331529
-4.72687e-05
0.0331716
-4.74906e-05
0.0331904
-4.76925e-05
0.0332093
-4.78831e-05
0.0332282
-4.80644e-05
0.0332471
-4.82393e-05
0.033266
-4.84129e-05
0.0332849
-4.85845e-05
0.0333039
-4.87496e-05
0.0333229
-4.89032e-05
0.033342
-4.90452e-05
0.0333611
-4.91772e-05
0.0333802
-4.93033e-05
0.0333993
-4.94234e-05
0.0334185
-4.95345e-05
0.0334377
-4.96302e-05
0.0334569
-4.97117e-05
0.0334761
-4.97925e-05
0.0334954
-4.98697e-05
0.0335147
-4.99408e-05
0.0335341
-5.00035e-05
0.0335535
-5.00556e-05
0.033573
-5.0104e-05
0.0335926
-5.01511e-05
0.0336122
-5.01907e-05
0.0336319
-5.02226e-05
0.0336516
-5.02424e-05
0.0336715
-5.02526e-05
0.0336914
-5.02588e-05
0.0337114
-5.02625e-05
0.0337315
-5.02601e-05
0.0337518
-5.02555e-05
0.0337721
-5.0245e-05
0.0337926
-5.02234e-05
0.0338132
-5.01909e-05
0.0338339
-5.01463e-05
0.0338547
-5.01026e-05
0.0338757
-5.00512e-05
0.0338968
-4.99915e-05
0.033918
-4.99169e-05
0.0339394
-4.98348e-05
0.0339609
-4.97503e-05
0.0339825
-4.96525e-05
0.0340043
-4.9556e-05
0.0340263
-4.94567e-05
0.0340483
-4.93614e-05
0.0340706
-4.92678e-05
0.034093
-4.91562e-05
0.0341155
-4.9043e-05
0.0341382
-4.89237e-05
0.0341611
-4.87959e-05
0.0341841
-4.8666e-05
0.0342072
-4.85191e-05
0.0342305
-4.8374e-05
0.0342539
-4.82333e-05
0.0342774
-4.80809e-05
0.034301
-4.79341e-05
0.0343248
-4.778e-05
0.0343487
-4.76188e-05
0.0343727
-4.74565e-05
0.0343969
-4.72823e-05
0.0344211
-4.71098e-05
0.0344454
-4.69309e-05
0.0344697
-4.6729e-05
0.0344942
-4.65252e-05
0.0345187
-4.63204e-05
0.0345432
-4.61145e-05
0.0345678
-4.59051e-05
0.0345924
-4.56912e-05
0.0346171
-4.54713e-05
0.0346417
-4.52453e-05
0.0346664
-4.50186e-05
0.0346911
-4.47936e-05
0.0347158
-4.45704e-05
0.0347404
-4.43333e-05
0.034765
-4.4096e-05
0.0347896
-4.38531e-05
0.0348142
-4.36056e-05
0.0348387
-4.33605e-05
0.0348632
-4.31202e-05
0.0348876
-4.28749e-05
0.034912
-4.26147e-05
0.0349363
-4.23532e-05
0.0349606
-4.20928e-05
0.0349848
-4.18255e-05
0.0350089
-4.1562e-05
0.0350329
-4.12836e-05
0.0350569
-4.10043e-05
0.0350808
-4.07276e-05
0.0351047
-4.04456e-05
0.0351284
-4.01721e-05
0.0351522
-3.98866e-05
0.0351759
-3.96165e-05
0.0351995
-3.93539e-05
0.0352232
-3.90651e-05
0.0352468
-3.87896e-05
0.0352704
-3.84962e-05
0.035294
-3.8206e-05
0.0353177
-3.79494e-05
0.0353414
-3.76688e-05
0.0353651
-3.73888e-05
0.035389
-3.7118e-05
0.035413
-3.68384e-05
0.0354371
-3.65557e-05
0.0354613
-3.62785e-05
0.0354858
-3.60069e-05
0.0355105
-3.57452e-05
0.0355355
-3.54721e-05
0.0355607
-3.52053e-05
0.0355863
-3.49404e-05
0.0356123
-3.46916e-05
0.0356387
-3.44549e-05
0.0356656
-3.42133e-05
0.035693
-3.39833e-05
0.0357211
-3.37588e-05
0.0357497
-3.35364e-05
0.0357791
-3.33379e-05
0.0358094
-3.31355e-05
0.0358404
-3.2952e-05
0.0358724
-3.2769e-05
0.0359055
-3.25904e-05
0.0359396
-3.24287e-05
0.035975
-3.22847e-05
0.0360117
-3.21427e-05
0.0360498
-3.20054e-05
0.0360894
-3.18843e-05
0.0361307
-3.17806e-05
0.0361738
-3.16928e-05
0.0362188
-3.1609e-05
0.0362658
-3.154e-05
0.036315
-3.14905e-05
0.0363666
-3.14637e-05
0.0364206
-3.14535e-05
0.0364774
-3.1463e-05
0.0365371
-3.14755e-05
0.0365999
-3.15003e-05
0.0366659
-3.15498e-05
0.0367354
-3.16306e-05
0.0368086
-3.17359e-05
0.0368858
-3.1847e-05
0.0369671
-3.19814e-05
0.0370529
-3.213e-05
0.0371434
-3.2288e-05
0.0372388
-3.24609e-05
0.0373395
-3.2629e-05
0.0374458
-3.28203e-05
0.0375579
-3.303e-05
0.0376761
-3.32416e-05
0.0378009
-3.34738e-05
0.0379324
-3.37203e-05
0.0380711
-3.39845e-05
0.0382173
-3.426e-05
0.0383713
-3.45289e-05
0.0385335
-3.48044e-05
0.0387043
-3.50768e-05
0.038884
-3.53484e-05
0.039073
-3.56302e-05
0.0392717
-3.58898e-05
0.0394804
-3.61637e-05
0.0396995
-3.64212e-05
0.0399295
-3.66599e-05
0.0401706
-3.68775e-05
0.0404232
-3.70812e-05
0.0406877
-3.72704e-05
0.0409644
-3.74162e-05
0.0412536
-3.75352e-05
0.0415558
-3.76299e-05
0.0418712
-3.76919e-05
0.0422001
-3.77033e-05
0.0425427
-3.76565e-05
0.0428995
-3.75645e-05
0.0432705
-3.74279e-05
0.0436561
-3.72344e-05
0.0440564
-3.69746e-05
0.0444716
-3.66437e-05
0.0449019
-3.62483e-05
0.0453473
-3.57694e-05
0.0458081
-3.52083e-05
0.0462842
-3.45747e-05
0.0467757
-3.38524e-05
0.0472826
-3.30424e-05
0.0478048
-3.21439e-05
0.0483424
-3.1133e-05
0.0488951
-3.00068e-05
0.0494629
-2.87773e-05
0.0500455
-2.74452e-05
0.0506428
-2.59996e-05
0.0512546
-2.44307e-05
0.0518804
-2.27452e-05
0.05252
-2.09418e-05
0.053173
-1.90161e-05
0.0538391
-1.69655e-05
0.0545177
-1.48069e-05
0.0552085
-1.25071e-05
0.0559107
-1.00757e-05
0.056624
-7.51094e-06
0.0573477
-4.82435e-06
0.0580812
-2.00334e-06
0.0588238
9.45411e-07
0.0595749
4.0069e-06
0.0603336
7.19587e-06
0.0610993
1.05122e-05
0.061871
1.39649e-05
0.0626481
1.75274e-05
0.0634297
2.11951e-05
0.0642147
2.49818e-05
0.0650024
2.8895e-05
0.0657917
3.2918e-05
0.0665818
3.70422e-05
0.0673716
4.12823e-05
0.0681601
4.56332e-05
0.0689462
5.01411e-05
0.0697291
5.473e-05
0.0705081
5.93019e-05
0.071282
6.3842e-05
0.0720496
6.84831e-05
0.0728095
7.33483e-05
0.0735605
7.84118e-05
0.0743016
8.35545e-05
0.0750321
8.86134e-05
0.0757513
9.35834e-05
0.0764583
9.84304e-05
0.0771517
0.000103404
0.0778302
0.000108559
0.0784928
0.000113856
0.0791386
0.000119133
0.0797669
0.000124259
0.080377
0.000129252
0.0809681
0.000134198
0.0815394
0.000139115
0.08209
0.000144017
0.0826192
0.000148943
0.0831262
0.000153834
0.0836104
0.00015865
0.0840713
0.000163362
0.0845086
0.000167941
0.0849219
0.00017238
0.0853108
0.000176688
0.0856752
0.000180833
0.0860149
0.000184843
0.0863297
0.000188735
0.08662
0.000192469
0.0868856
0.000195912
0.0871253
0.000198964
0.0873416
0.000202667
0.0875353
0.000205627
0.0877031
0.000207924
0.0878478
0.000210357
0.08797
0.000213041
0.0880705
0.000214748
0.0881493
0.000216845
0.0882078
0.000218455
0.0882455
0.000219991
0.0882648
0.000220672
0.088264
0.000222008
0.0882442
0.000222778
0.0882147
0.000222433
0.0881749
0.000220673
0.0881109
0.000224183
0.0880352
0.000223203
0.0879463
0.000222605
0.0878473
0.000221467
0.0877391
0.000219557
0.0876207
0.000219301
0.0874943
0.000218334
0.087361
0.0002163
0.0872222
0.00021437
0.0870783
0.000212758
0.0869306
0.000210606
0.0867804
0.000208031
0.0866283
0.000205997
0.0864747
0.000203625
0.0863212
0.000200835
0.0861686
0.000197921
0.0860175
0.000195208
0.0858687
0.000192332
0.0857231
0.000189151
0.0855811
0.000185927
0.0854438
0.000182933
0.0853114
0.000179554
0.0851844
0.000175974
0.0850631
0.000173326
0.0849484
0.000170068
0.0848405
0.000166752
0.0847399
0.000163354
0.0846469
0.000159931
0.0845616
0.00015682
0.0844843
0.000153544
0.0844152
0.000150056
0.0843544
0.0001472
0.084302
0.000144244
0.0842578
0.000141077
0.0842225
0.000137798
0.0841955
0.000134994
0.0841773
0.000131984
0.0841669
0.000129206
0.084163
0.000126246
0.0841676
0.000122982
0.0841799
0.000120652
0.0841997
0.000118803
0.084229
0.000115814
0.0842644
0.000113773
0.0843063
0.000111896
0.0843551
0.000109362
0.0844088
0.000107514
0.0844686
0.000105586
0.084533
0.000103689
0.0846019
0.00010176
0.0846754
0.000100631
0.0847522
9.92152e-05
0.0848323
9.78978e-05
0.0849153
9.62429e-05
0.0850003
9.5049e-05
0.0850871
9.38574e-05
0.085175
9.29322e-05
0.0852635
9.20701e-05
0.0853524
9.11412e-05
0.0854408
9.01617e-05
0.0855284
8.9461e-05
0.0856148
8.89201e-05
0.0856991
8.8285e-05
0.0857812
8.78274e-05
0.0858607
8.72387e-05
0.0859369
8.70665e-05
0.0860096
8.67729e-05
0.0860783
8.64743e-05
0.086143
8.60826e-05
0.0862031
8.57975e-05
0.0862584
8.55546e-05
0.0863082
8.53681e-05
0.0863529
8.53026e-05
0.0863919
8.4947e-05
0.0864252
8.46716e-05
0.0864525
8.46179e-05
0.0864741
8.44527e-05
0.0864894
8.44784e-05
0.086499
8.39771e-05
0.0865017
8.42361e-05
0.0864995
8.32463e-05
0.08649
8.31429e-05
0.0864745
8.31223e-05
0.086454
8.27182e-05
0.0864283
8.16198e-05
0.0863967
8.06143e-05
0.08636
8.08783e-05
0.0863183
8.06598e-05
0.0862721
7.98332e-05
0.086221
7.97241e-05
0.0861659
7.87445e-05
0.0861067
7.8343e-05
0.0860444
7.72089e-05
0.0859785
7.68599e-05
0.0859096
7.60162e-05
0.0858384
7.50709e-05
0.085765
7.40602e-05
0.0856895
7.3188e-05
0.0856129
7.19848e-05
0.0855353
7.09676e-05
0.085457
6.97387e-05
0.0853788
6.86074e-05
0.0853007
6.74544e-05
0.0852224
6.66376e-05
0.0851451
6.52205e-05
0.0850694
6.38227e-05
0.0849956
6.24671e-05
0.0849236
6.15174e-05
0.0848541
5.99221e-05
0.084787
5.86219e-05
0.0847231
5.68369e-05
0.0846622
5.6066e-05
0.0846052
5.43712e-05
0.0845516
5.32095e-05
0.0845021
5.13813e-05
0.0844571
4.96943e-05
0.0844161
4.7609e-05
0.0843799
4.79889e-05
0.0843499
4.34756e-05
0.0843224
4.47299e-05
0.0843161
3.13748e-05
0.0843063
2.54299e-05
1.95419e-05
-0.00081438
0.000305255
-0.00284824
0.00225689
-0.00530542
0.00329342
-0.00817996
0.00424515
-0.0114553
0.00533054
-0.0152491
0.00672148
-0.0195245
0.00823439
-0.0242421
0.00979398
-0.0292603
0.0112519
-0.0344187
0.0124972
-0.0394561
0.0133307
-0.0442083
0.013648
-0.0484273
0.0133455
-0.0520874
0.0124395
-0.0548737
0.0108779
-0.0568758
0.00874211
-0.0579087
0.00612332
-0.0579189
0.00311913
-0.0569412
2.97216e-05
-0.054995
-0.00303214
-0.0520214
-0.00590997
-0.0481778
-0.00850887
-0.043553
-0.0107192
-0.0383581
-0.0124704
-0.0327628
-0.0137665
-0.0269286
-0.0145608
-0.0209961
-0.0149153
-0.0150674
-0.0148464
-0.00927594
-0.0144288
-0.00380265
-0.013677
0.00132674
-0.0128112
0.00608347
-0.01188
0.010455
-0.0108476
0.0144498
-0.00981446
0.0180754
-0.00876737
0.0213489
-0.00777546
0.0242951
-0.00684285
0.0269403
-0.00599109
0.0293114
-0.00523391
0.0314203
-0.00452934
0.0332969
-0.00392855
0.0349623
-0.00338415
0.0364315
-0.00290667
0.0377227
-0.00248445
0.0388533
-0.00211717
0.0398398
-0.00179727
0.0406982
-0.0015214
0.0414434
-0.00128415
0.0420893
-0.00108102
0.0426478
-0.000907966
0.0431306
-0.000760427
0.0435468
-0.00063592
0.0439062
-0.000529939
0.0442148
-0.000441502
0.0444807
-0.000366415
0.0447091
-0.000304068
0.0449056
-0.000251786
0.0450744
-0.000208521
0.0452195
-0.000172671
0.0453444
-0.000143245
0.0454521
-0.000119192
0.045545
-9.97003e-05
0.0456253
-8.39754e-05
0.0456952
-7.14379e-05
0.0457559
-6.14974e-05
0.0458089
-5.36169e-05
0.0458552
-4.75773e-05
0.045896
-4.30731e-05
0.0459322
-3.98279e-05
0.0459646
-3.75787e-05
0.0459936
-3.61623e-05
0.0460199
-3.54194e-05
0.0460439
-3.51866e-05
0.0460659
-3.53759e-05
0.0460864
-3.58621e-05
0.0461055
-3.65933e-05
0.0461235
-3.75181e-05
0.0461405
-3.85914e-05
0.0461568
-3.97905e-05
0.0461725
-4.10929e-05
0.0461878
-4.24494e-05
0.0462026
-4.38212e-05
0.0462173
-4.52007e-05
0.0462317
-4.65775e-05
0.046246
-4.79371e-05
0.0462601
-4.92581e-05
0.0462743
-5.05316e-05
0.0462884
-5.17628e-05
0.0463025
-5.29504e-05
0.0463167
-5.40921e-05
0.0463309
-5.51844e-05
0.0463451
-5.6223e-05
0.0463594
-5.72207e-05
0.0463737
-5.81724e-05
0.0463881
-5.90876e-05
0.0464026
-5.9946e-05
0.0464172
-6.07768e-05
0.0464319
-6.15589e-05
0.0464466
-6.23051e-05
0.0464615
-6.29954e-05
0.0464764
-6.36814e-05
0.0464913
-6.43236e-05
0.0465064
-6.49387e-05
0.0465215
-6.55221e-05
0.0465367
-6.6077e-05
0.046552
-6.66068e-05
0.0465672
-6.71099e-05
0.0465826
-6.75922e-05
0.046598
-6.80593e-05
0.0466134
-6.85038e-05
0.0466288
-6.89408e-05
0.0466443
-6.93683e-05
0.0466598
-6.97836e-05
0.0466753
-7.0177e-05
0.0466908
-7.05472e-05
0.0467064
-7.08976e-05
0.046722
-7.12363e-05
0.0467375
-7.1564e-05
0.0467531
-7.18868e-05
0.0467687
-7.2196e-05
0.0467843
-7.24879e-05
0.0467999
-7.27523e-05
0.0468154
-7.29966e-05
0.046831
-7.32236e-05
0.0468465
-7.34415e-05
0.046862
-7.3661e-05
0.0468774
-7.38817e-05
0.0468929
-7.41002e-05
0.0469083
-7.43085e-05
0.0469238
-7.45031e-05
0.0469392
-7.46835e-05
0.0469546
-7.48511e-05
0.0469701
-7.50063e-05
0.0469855
-7.51504e-05
0.0470009
-7.52757e-05
0.0470163
-7.53811e-05
0.0470317
-7.54808e-05
0.0470471
-7.55737e-05
0.0470625
-7.56564e-05
0.047078
-7.57314e-05
0.0470934
-7.57995e-05
0.0471089
-7.58621e-05
0.0471244
-7.59127e-05
0.0471399
-7.59492e-05
0.0471555
-7.59799e-05
0.0471711
-7.59976e-05
0.0471868
-7.60018e-05
0.0472026
-7.59983e-05
0.0472183
-7.59866e-05
0.0472342
-7.59671e-05
0.0472501
-7.59499e-05
0.0472662
-7.59178e-05
0.0472823
-7.5863e-05
0.0472985
-7.57991e-05
0.0473147
-7.57198e-05
0.0473311
-7.56387e-05
0.0473476
-7.55454e-05
0.0473642
-7.54378e-05
0.0473809
-7.53154e-05
0.0473977
-7.51826e-05
0.0474146
-7.50392e-05
0.0474317
-7.48744e-05
0.0474488
-7.47115e-05
0.047466
-7.45448e-05
0.0474834
-7.4378e-05
0.0475009
-7.42155e-05
0.0475185
-7.40278e-05
0.0475363
-7.38435e-05
0.0475541
-7.36466e-05
0.0475721
-7.34306e-05
0.0475902
-7.3215e-05
0.0476084
-7.29742e-05
0.0476267
-7.27274e-05
0.0476451
-7.24892e-05
0.0476635
-7.22308e-05
0.0476821
-7.19878e-05
0.0477008
-7.17323e-05
0.0477195
-7.14601e-05
0.0477384
-7.11888e-05
0.0477572
-7.08968e-05
0.0477762
-7.06006e-05
0.0477952
-7.02994e-05
0.0478142
-6.99686e-05
0.0478333
-6.96348e-05
0.0478524
-6.92923e-05
0.0478715
-6.89431e-05
0.0478906
-6.85928e-05
0.0479097
-6.82407e-05
0.0479288
-6.78768e-05
0.0479478
-6.74998e-05
0.0479669
-6.71331e-05
0.0479859
-6.67531e-05
0.0480048
-6.63705e-05
0.0480237
-6.59742e-05
0.0480425
-6.55759e-05
0.0480613
-6.51674e-05
0.04808
-6.47525e-05
0.0480986
-6.43458e-05
0.048117
-6.39292e-05
0.0481354
-6.35146e-05
0.0481537
-6.30915e-05
0.0481719
-6.26619e-05
0.04819
-6.2232e-05
0.048208
-6.17936e-05
0.0482259
-6.13617e-05
0.0482436
-6.09045e-05
0.0482613
-6.04438e-05
0.0482788
-5.99845e-05
0.0482962
-5.95106e-05
0.0483135
-5.9047e-05
0.0483307
-5.85812e-05
0.0483478
-5.81156e-05
0.0483648
-5.76736e-05
0.0483817
-5.72145e-05
0.0483986
-5.67632e-05
0.0484154
-5.62909e-05
0.0484322
-5.5815e-05
0.0484489
-5.53702e-05
0.0484657
-5.49079e-05
0.0484824
-5.44482e-05
0.0484992
-5.4002e-05
0.048516
-5.35479e-05
0.048533
-5.30969e-05
0.04855
-5.26405e-05
0.0485672
-5.21826e-05
0.0485846
-5.17465e-05
0.0486021
-5.12979e-05
0.0486199
-5.086e-05
0.048638
-5.04372e-05
0.0486564
-5.00105e-05
0.0486752
-4.96033e-05
0.0486943
-4.92013e-05
0.048714
-4.88142e-05
0.0487342
-4.84524e-05
0.048755
-4.8095e-05
0.0487765
-4.77438e-05
0.0487986
-4.73828e-05
0.0488216
-4.70694e-05
0.0488454
-4.67573e-05
0.0488702
-4.64668e-05
0.0488961
-4.61839e-05
0.0489231
-4.591e-05
0.0489513
-4.56603e-05
0.0489808
-4.54229e-05
0.0490119
-4.51942e-05
0.0490444
-4.49948e-05
0.0490787
-4.48014e-05
0.0491147
-4.46333e-05
0.0491528
-4.44951e-05
0.0491929
-4.43787e-05
0.0492353
-4.42968e-05
0.0492801
-4.42383e-05
0.0493276
-4.4198e-05
0.0493778
-4.41819e-05
0.0494309
-4.41782e-05
0.0494872
-4.42e-05
0.0495469
-4.42628e-05
0.0496102
-4.43416e-05
0.0496772
-4.44673e-05
0.0497483
-4.46266e-05
0.0498238
-4.48135e-05
0.0499038
-4.5014e-05
0.0499886
-4.52266e-05
0.0500785
-4.5459e-05
0.0501737
-4.57227e-05
0.0502747
-4.60108e-05
0.0503816
-4.63159e-05
0.0504949
-4.6649e-05
0.0506147
-4.70123e-05
0.0507416
-4.74088e-05
0.0508757
-4.7825e-05
0.0510175
-4.8245e-05
0.0511672
-4.86886e-05
0.0513254
-4.91399e-05
0.0514922
-4.95898e-05
0.0516681
-5.00669e-05
0.0518534
-5.05338e-05
0.0520486
-5.10351e-05
0.0522539
-5.15368e-05
0.0524698
-5.2033e-05
0.0526966
-5.25154e-05
0.0529346
-5.29905e-05
0.0531843
-5.34641e-05
0.053446
-5.39069e-05
0.0537199
-5.43346e-05
0.0540065
-5.47493e-05
0.054306
-5.51459e-05
0.0546187
-5.55086e-05
0.054945
-5.58269e-05
0.0552851
-5.60998e-05
0.0556393
-5.63315e-05
0.0560077
-5.65216e-05
0.0563905
-5.66608e-05
0.0567881
-5.67427e-05
0.0572004
-5.67649e-05
0.0576278
-5.67093e-05
0.0580701
-5.65747e-05
0.0585276
-5.6379e-05
0.0590003
-5.61041e-05
0.0594881
-5.57467e-05