/*--------------------------------*- C++ -*----------------------------------*\
| =========                 |                                                 |
| \\      /  F ield         | OpenFOAM: The Open Source CFD Toolbox           |
|  \\    /   O peration     | Version:  v1812                                 |
|   \\  /    A nd           | Web:      www.OpenFOAM.com                      |
|    \\/     M anipulation  |                                                 |
\*---------------------------------------------------------------------------*/
FoamFile
{
    version     2.0;
    format      ascii;
    class       volScalarField;
    location    "0.1";
    object      rho;
}
// * * * * * * * * * * * * * * * * * * * * * * * * * * * * * * * * * * * * * //

dimensions      [1 -3 0 0 0 0 0];


internalField   nonuniform List<scalar> 
20400
(
1.2661
1.26608
1.26604
1.26597
1.26589
1.26578
1.26567
1.26552
1.26538
1.26522
1.26506
1.26492
1.26478
1.26469
1.26461
1.26461
1.26466
1.26478
1.265
1.26526
1.26567
1.26605
1.26651
1.26696
1.26744
1.26787
1.26829
1.26865
1.26895
1.26922
1.26939
1.26955
1.26968
1.26977
1.26985
1.26989
1.2699
1.2699
1.26989
1.26986
1.26982
1.26979
1.26974
1.2697
1.26965
1.2696
1.26956
1.26951
1.26947
1.26942
1.26938
1.26934
1.2693
1.26926
1.26923
1.26919
1.26916
1.26913
1.2691
1.26907
1.26905
1.26902
1.269
1.26898
1.26896
1.26894
1.26892
1.2689
1.26888
1.26887
1.26885
1.26884
1.26883
1.26881
1.2688
1.26879
1.26878
1.26877
1.26877
1.26876
1.26875
1.26874
1.26874
1.26873
1.26872
1.26872
1.26872
1.26871
1.26871
1.2687
1.2687
1.2687
1.2687
1.2687
1.26869
1.26869
1.26869
1.26869
1.26869
1.26869
1.26869
1.26869
1.26869
1.2687
1.2687
1.2687
1.2687
1.2687
1.2687
1.2687
1.26871
1.26871
1.26871
1.26871
1.26871
1.26871
1.26871
1.26871
1.26871
1.26871
1.26871
1.26871
1.26871
1.26871
1.26871
1.26871
1.2687
1.2687
1.2687
1.26869
1.26869
1.26869
1.26868
1.26868
1.26867
1.26867
1.26866
1.26865
1.26865
1.26864
1.26864
1.26863
1.26862
1.26861
1.26861
1.2686
1.26859
1.26858
1.26857
1.26856
1.26856
1.26855
1.26854
1.26853
1.26852
1.26851
1.2685
1.26849
1.26848
1.26848
1.26847
1.26846
1.26845
1.26844
1.26843
1.26843
1.26842
1.26841
1.2684
1.26839
1.26839
1.26838
1.26837
1.26837
1.26836
1.26835
1.26835
1.26834
1.26833
1.26833
1.26832
1.26832
1.26831
1.26831
1.2683
1.2683
1.26829
1.26829
1.26828
1.26828
1.26828
1.26827
1.26827
1.26826
1.26826
1.26825
1.26825
1.26825
1.26824
1.26824
1.26823
1.26823
1.26822
1.26822
1.26822
1.26821
1.26821
1.2682
1.26819
1.26819
1.26818
1.26818
1.26817
1.26817
1.26816
1.26815
1.26815
1.26814
1.26813
1.26812
1.26812
1.26811
1.2681
1.26809
1.26808
1.26807
1.26806
1.26806
1.26805
1.26803
1.26802
1.26801
1.268
1.26799
1.26798
1.26796
1.26795
1.26794
1.26792
1.2679
1.26789
1.26787
1.26785
1.26783
1.26781
1.26779
1.26776
1.26774
1.26771
1.26768
1.26765
1.26762
1.26758
1.26754
1.2675
1.26746
1.26741
1.26736
1.26731
1.26725
1.26718
1.26712
1.26704
1.26696
1.26688
1.26679
1.26669
1.26659
1.26648
1.26636
1.26623
1.2661
1.26595
1.2658
1.26563
1.26546
1.26527
1.26508
1.26487
1.26464
1.26441
1.26416
1.2639
1.26362
1.26333
1.26302
1.2627
1.26236
1.262
1.26162
1.26123
1.26082
1.2604
1.25995
1.25948
1.259
1.2585
1.25797
1.25743
1.25687
1.25629
1.25568
1.25506
1.25442
1.25376
1.25308
1.25238
1.25166
1.25093
1.25017
1.2494
1.24861
1.2478
1.24697
1.24613
1.24528
1.24441
1.24353
1.24263
1.24172
1.2408
1.23987
1.23893
1.23799
1.23703
1.23607
1.2351
1.23413
1.23316
1.23219
1.23121
1.23024
1.22927
1.2283
1.22734
1.22638
1.22543
1.22449
1.22357
1.22265
1.22174
1.22085
1.21998
1.21912
1.21828
1.21747
1.21667
1.21589
1.21514
1.21441
1.2137
1.21303
1.21238
1.21175
1.21116
1.21059
1.21006
1.20955
1.20907
1.20863
1.20821
1.20783
1.20748
1.20715
1.20687
1.2066
1.20637
1.20617
1.20599
1.20584
1.20572
1.20563
1.20556
1.20551
1.20549
1.20549
1.2055
1.20554
1.20559
1.20566
1.20575
1.20585
1.20597
1.20609
1.20623
1.20637
1.20652
1.20668
1.20684
1.207
1.20717
1.20734
1.20751
1.20768
1.20784
1.20801
1.20817
1.20832
1.20847
1.20861
1.20875
1.20888
1.209
1.20911
1.20922
1.20931
1.20939
1.20947
1.20953
1.20958
1.20962
1.20965
1.20967
1.20968
1.20967
1.20966
1.20964
1.2096
1.20955
1.2095
1.20943
1.20935
1.20926
1.20916
1.20905
1.20894
1.20882
1.20869
1.20855
1.20841
1.20826
1.2081
1.20794
1.20778
1.20761
1.20744
1.20727
1.2071
1.20692
1.20674
1.20656
1.20639
1.20621
1.20604
1.20587
1.2057
1.20553
1.20537
1.20521
1.20505
1.20491
1.20476
1.20462
1.20449
1.20436
1.20423
1.20412
1.204
1.2039
1.2038
1.20371
1.20362
1.20355
1.20347
1.20341
1.20335
1.2033
1.20325
1.2032
1.20317
1.20314
1.20311
1.20309
1.20307
1.20306
1.20305
1.20305
1.20305
1.20305
1.20306
1.20307
1.20308
1.2031
1.20312
1.20314
1.20316
1.20318
1.2032
1.20323
1.20325
1.20328
1.20331
1.20334
1.20337
1.20341
1.20345
1.20351
1.2036
1.20377
1.20402
1.26612
1.2661
1.26606
1.26598
1.2659
1.26578
1.26566
1.26552
1.26539
1.26525
1.26512
1.265
1.2649
1.26485
1.26482
1.26487
1.26497
1.26515
1.26538
1.26565
1.26599
1.26635
1.26674
1.26714
1.26755
1.26796
1.26834
1.2687
1.26902
1.26929
1.26956
1.26975
1.26989
1.26998
1.27005
1.27008
1.2701
1.27011
1.2701
1.27008
1.27005
1.27001
1.26997
1.26993
1.26988
1.26984
1.26979
1.26975
1.2697
1.26966
1.26961
1.26957
1.26953
1.26949
1.26945
1.26942
1.26938
1.26935
1.26932
1.26929
1.26926
1.26923
1.26921
1.26918
1.26916
1.26914
1.26912
1.2691
1.26908
1.26906
1.26904
1.26903
1.26901
1.269
1.26899
1.26897
1.26896
1.26895
1.26894
1.26893
1.26892
1.26891
1.26891
1.2689
1.26889
1.26889
1.26888
1.26887
1.26887
1.26887
1.26886
1.26886
1.26885
1.26885
1.26885
1.26885
1.26885
1.26884
1.26884
1.26884
1.26884
1.26884
1.26884
1.26884
1.26884
1.26884
1.26884
1.26885
1.26885
1.26885
1.26885
1.26885
1.26885
1.26885
1.26885
1.26886
1.26886
1.26886
1.26886
1.26886
1.26886
1.26886
1.26886
1.26886
1.26886
1.26886
1.26886
1.26886
1.26885
1.26885
1.26885
1.26885
1.26884
1.26884
1.26884
1.26883
1.26883
1.26882
1.26882
1.26881
1.26881
1.2688
1.2688
1.26879
1.26878
1.26878
1.26877
1.26876
1.26875
1.26875
1.26874
1.26873
1.26872
1.26872
1.26871
1.2687
1.26869
1.26868
1.26867
1.26867
1.26866
1.26865
1.26864
1.26863
1.26863
1.26862
1.26861
1.2686
1.26859
1.26859
1.26858
1.26857
1.26857
1.26856
1.26855
1.26855
1.26854
1.26853
1.26853
1.26852
1.26851
1.26851
1.2685
1.2685
1.26849
1.26849
1.26848
1.26848
1.26847
1.26847
1.26846
1.26846
1.26846
1.26845
1.26845
1.26844
1.26844
1.26843
1.26843
1.26843
1.26842
1.26842
1.26841
1.26841
1.2684
1.2684
1.26839
1.26839
1.26838
1.26838
1.26837
1.26837
1.26836
1.26835
1.26835
1.26834
1.26834
1.26833
1.26832
1.26831
1.26831
1.2683
1.26829
1.26828
1.26827
1.26827
1.26826
1.26825
1.26824
1.26823
1.26822
1.26821
1.2682
1.26818
1.26817
1.26816
1.26815
1.26813
1.26812
1.2681
1.26808
1.26807
1.26805
1.26803
1.26801
1.26799
1.26796
1.26794
1.26791
1.26788
1.26785
1.26782
1.26778
1.26775
1.26771
1.26766
1.26762
1.26756
1.26751
1.26745
1.26739
1.26732
1.26725
1.26717
1.26709
1.267
1.2669
1.2668
1.26669
1.26657
1.26644
1.26631
1.26616
1.26601
1.26584
1.26567
1.26548
1.26529
1.26508
1.26486
1.26462
1.26437
1.26411
1.26383
1.26354
1.26323
1.26291
1.26257
1.26222
1.26184
1.26145
1.26104
1.26062
1.26017
1.25971
1.25922
1.25872
1.2582
1.25766
1.2571
1.25651
1.25591
1.25529
1.25465
1.254
1.25332
1.25262
1.2519
1.25117
1.25041
1.24964
1.24885
1.24805
1.24723
1.24639
1.24554
1.24467
1.24379
1.2429
1.24199
1.24108
1.24015
1.23922
1.23827
1.23732
1.23637
1.2354
1.23444
1.23347
1.2325
1.23153
1.23057
1.2296
1.22864
1.22768
1.22674
1.22579
1.22486
1.22394
1.22303
1.22213
1.22125
1.22039
1.21954
1.21871
1.2179
1.21711
1.21634
1.21559
1.21487
1.21418
1.21351
1.21287
1.21226
1.21167
1.21111
1.21059
1.21009
1.20962
1.20919
1.20878
1.20841
1.20807
1.20775
1.20747
1.20722
1.207
1.2068
1.20664
1.2065
1.20639
1.2063
1.20624
1.20621
1.20619
1.2062
1.20621
1.20626
1.20633
1.20641
1.2065
1.20661
1.20673
1.20686
1.207
1.20715
1.20731
1.20747
1.20764
1.20781
1.20799
1.20816
1.20834
1.20851
1.20868
1.20885
1.20901
1.20917
1.20932
1.20947
1.20961
1.20974
1.20987
1.20998
1.21009
1.21019
1.21027
1.21035
1.21041
1.21047
1.21051
1.21054
1.21057
1.21057
1.21057
1.21056
1.21054
1.21051
1.21047
1.21041
1.21034
1.21027
1.21018
1.21009
1.20998
1.20987
1.20975
1.20962
1.20949
1.20934
1.2092
1.20905
1.20889
1.20873
1.20856
1.2084
1.20823
1.20806
1.20788
1.20771
1.20754
1.20736
1.20719
1.20702
1.20685
1.20668
1.20652
1.20636
1.2062
1.20605
1.2059
1.20576
1.20562
1.20549
1.20537
1.20525
1.20513
1.20502
1.20492
1.20483
1.20474
1.20465
1.20458
1.20451
1.20444
1.20439
1.20434
1.20429
1.20425
1.20422
1.20419
1.20417
1.20415
1.20414
1.20413
1.20413
1.20413
1.20414
1.20415
1.20416
1.20417
1.20419
1.20421
1.20423
1.20426
1.20429
1.20431
1.20434
1.20437
1.2044
1.20444
1.20447
1.2045
1.20454
1.20457
1.20462
1.20468
1.20475
1.20486
1.205
1.26613
1.26611
1.26607
1.266
1.26592
1.26582
1.26572
1.2656
1.26548
1.26535
1.26524
1.26515
1.26509
1.26508
1.26511
1.26521
1.26539
1.26563
1.26594
1.26631
1.26669
1.26705
1.26741
1.26774
1.26805
1.26835
1.26864
1.26892
1.2692
1.26944
1.26966
1.26984
1.26998
1.2701
1.27018
1.27023
1.27027
1.27028
1.27028
1.27027
1.27025
1.27023
1.27019
1.27016
1.27012
1.27008
1.27004
1.27
1.26996
1.26992
1.26988
1.26984
1.2698
1.26976
1.26972
1.26969
1.26965
1.26962
1.26959
1.26955
1.26952
1.2695
1.26947
1.26944
1.26942
1.2694
1.26938
1.26935
1.26933
1.26932
1.2693
1.26928
1.26926
1.26924
1.26923
1.26921
1.2692
1.26919
1.26917
1.26916
1.26915
1.26914
1.26913
1.26913
1.26912
1.26911
1.2691
1.2691
1.26909
1.26909
1.26908
1.26908
1.26907
1.26907
1.26906
1.26906
1.26906
1.26905
1.26905
1.26905
1.26905
1.26905
1.26905
1.26904
1.26904
1.26904
1.26904
1.26904
1.26905
1.26905
1.26905
1.26905
1.26905
1.26905
1.26905
1.26905
1.26905
1.26905
1.26906
1.26906
1.26906
1.26906
1.26906
1.26906
1.26906
1.26906
1.26906
1.26906
1.26906
1.26906
1.26906
1.26906
1.26905
1.26905
1.26905
1.26905
1.26904
1.26904
1.26904
1.26903
1.26903
1.26902
1.26902
1.26901
1.26901
1.269
1.269
1.26899
1.26898
1.26898
1.26897
1.26896
1.26896
1.26895
1.26894
1.26893
1.26893
1.26892
1.26891
1.2689
1.26889
1.26889
1.26888
1.26887
1.26886
1.26886
1.26885
1.26884
1.26883
1.26883
1.26882
1.26881
1.2688
1.2688
1.26879
1.26878
1.26878
1.26877
1.26876
1.26876
1.26875
1.26875
1.26874
1.26873
1.26873
1.26872
1.26872
1.26871
1.26871
1.2687
1.2687
1.26869
1.26869
1.26868
1.26868
1.26867
1.26867
1.26866
1.26866
1.26866
1.26865
1.26865
1.26864
1.26864
1.26863
1.26863
1.26862
1.26862
1.26861
1.26861
1.2686
1.26859
1.26859
1.26858
1.26858
1.26857
1.26856
1.26856
1.26855
1.26854
1.26854
1.26853
1.26852
1.26851
1.2685
1.26849
1.26849
1.26848
1.26847
1.26846
1.26845
1.26844
1.26843
1.26841
1.2684
1.26839
1.26838
1.26836
1.26835
1.26833
1.26832
1.2683
1.26828
1.26826
1.26824
1.26822
1.26819
1.26817
1.26814
1.26811
1.26808
1.26805
1.26802
1.26798
1.26794
1.26789
1.26785
1.2678
1.26774
1.26768
1.26762
1.26755
1.26748
1.2674
1.26732
1.26723
1.26713
1.26703
1.26692
1.2668
1.26667
1.26654
1.26639
1.26624
1.26608
1.2659
1.26571
1.26552
1.26531
1.26509
1.26485
1.2646
1.26434
1.26406
1.26377
1.26346
1.26314
1.2628
1.26244
1.26207
1.26168
1.26127
1.26084
1.2604
1.25993
1.25945
1.25895
1.25842
1.25788
1.25732
1.25674
1.25614
1.25552
1.25488
1.25422
1.25354
1.25284
1.25212
1.25139
1.25064
1.24986
1.24908
1.24827
1.24745
1.24661
1.24576
1.24489
1.24401
1.24312
1.24221
1.2413
1.24037
1.23943
1.23849
1.23754
1.23658
1.23562
1.23466
1.23369
1.23272
1.23175
1.23078
1.22982
1.22885
1.2279
1.22695
1.22601
1.22507
1.22415
1.22324
1.22235
1.22146
1.2206
1.21975
1.21892
1.21811
1.21732
1.21655
1.21581
1.21509
1.2144
1.21373
1.21309
1.21247
1.21189
1.21133
1.21081
1.21031
1.20985
1.20941
1.20901
1.20864
1.2083
1.20799
1.2077
1.20745
1.20723
1.20704
1.20688
1.20674
1.20663
1.20655
1.20649
1.20646
1.20645
1.20645
1.20648
1.20652
1.20659
1.20667
1.20677
1.20688
1.20701
1.20714
1.20729
1.20744
1.2076
1.20777
1.20794
1.20811
1.20829
1.20846
1.20864
1.20882
1.20899
1.20916
1.20933
1.20949
1.20965
1.2098
1.20994
1.21008
1.21021
1.21033
1.21044
1.21054
1.21062
1.2107
1.21077
1.21083
1.21088
1.21091
1.21094
1.21095
1.21095
1.21095
1.21093
1.2109
1.21085
1.2108
1.21074
1.21067
1.21058
1.21049
1.21039
1.21028
1.21017
1.21004
1.20991
1.20977
1.20963
1.20948
1.20932
1.20916
1.209
1.20884
1.20867
1.2085
1.20834
1.20817
1.208
1.20783
1.20766
1.20749
1.20732
1.20716
1.207
1.20684
1.20669
1.20654
1.20639
1.20626
1.20612
1.20599
1.20587
1.20575
1.20564
1.20554
1.20544
1.20534
1.20526
1.20518
1.20511
1.20504
1.20498
1.20492
1.20487
1.20483
1.2048
1.20477
1.20474
1.20473
1.20471
1.2047
1.2047
1.2047
1.2047
1.20471
1.20472
1.20474
1.20476
1.20478
1.2048
1.20483
1.20486
1.20489
1.20492
1.20495
1.20499
1.20502
1.20506
1.2051
1.20513
1.20517
1.20521
1.20525
1.20531
1.20537
1.20545
1.20553
1.26617
1.26615
1.26611
1.26604
1.26598
1.26587
1.26578
1.26566
1.26555
1.26544
1.26538
1.26536
1.26545
1.26566
1.26603
1.26654
1.26723
1.26803
1.26893
1.26978
1.27047
1.27093
1.2711
1.27105
1.27082
1.27049
1.27015
1.26989
1.26975
1.26974
1.26982
1.26994
1.27006
1.27017
1.27025
1.27031
1.27035
1.27037
1.27037
1.27036
1.27035
1.27032
1.2703
1.27027
1.27024
1.27021
1.27018
1.27014
1.27011
1.27007
1.27004
1.27
1.26997
1.26993
1.2699
1.26987
1.26983
1.2698
1.26977
1.26974
1.26971
1.26968
1.26966
1.26963
1.26961
1.26958
1.26956
1.26954
1.26952
1.2695
1.26948
1.26946
1.26945
1.26943
1.26941
1.2694
1.26938
1.26937
1.26935
1.26934
1.26933
1.26932
1.26931
1.2693
1.26929
1.26928
1.26927
1.26926
1.26926
1.26925
1.26924
1.26924
1.26923
1.26923
1.26922
1.26922
1.26922
1.26921
1.26921
1.2692
1.2692
1.2692
1.2692
1.2692
1.26919
1.26919
1.26919
1.26919
1.26919
1.26919
1.26919
1.26919
1.26919
1.26919
1.26919
1.26919
1.2692
1.2692
1.2692
1.2692
1.2692
1.2692
1.2692
1.2692
1.2692
1.2692
1.2692
1.2692
1.2692
1.2692
1.2692
1.2692
1.2692
1.2692
1.2692
1.2692
1.26919
1.26919
1.26919
1.26918
1.26918
1.26918
1.26917
1.26917
1.26916
1.26916
1.26915
1.26915
1.26914
1.26913
1.26913
1.26912
1.26911
1.26911
1.2691
1.26909
1.26908
1.26908
1.26907
1.26906
1.26905
1.26905
1.26904
1.26903
1.26902
1.26901
1.26901
1.269
1.26899
1.26898
1.26898
1.26897
1.26896
1.26895
1.26895
1.26894
1.26893
1.26893
1.26892
1.26891
1.26891
1.2689
1.26889
1.26889
1.26888
1.26888
1.26887
1.26886
1.26886
1.26885
1.26885
1.26884
1.26884
1.26883
1.26883
1.26882
1.26882
1.26881
1.26881
1.2688
1.2688
1.26879
1.26879
1.26878
1.26878
1.26877
1.26877
1.26876
1.26875
1.26875
1.26874
1.26874
1.26873
1.26872
1.26872
1.26871
1.2687
1.2687
1.26869
1.26868
1.26867
1.26867
1.26866
1.26865
1.26864
1.26863
1.26862
1.26861
1.2686
1.26859
1.26858
1.26857
1.26856
1.26855
1.26854
1.26852
1.26851
1.2685
1.26848
1.26847
1.26845
1.26843
1.26841
1.26839
1.26837
1.26835
1.26833
1.2683
1.26828
1.26825
1.26822
1.26818
1.26815
1.26811
1.26807
1.26802
1.26798
1.26793
1.26787
1.26781
1.26775
1.26768
1.26761
1.26753
1.26745
1.26736
1.26726
1.26716
1.26704
1.26693
1.2668
1.26666
1.26652
1.26636
1.2662
1.26602
1.26584
1.26564
1.26543
1.26521
1.26497
1.26472
1.26446
1.26418
1.26389
1.26358
1.26326
1.26292
1.26256
1.26219
1.2618
1.26139
1.26096
1.26051
1.26005
1.25956
1.25906
1.25854
1.25799
1.25743
1.25685
1.25625
1.25563
1.25499
1.25433
1.25365
1.25295
1.25223
1.25149
1.25074
1.24997
1.24918
1.24837
1.24755
1.24671
1.24586
1.24499
1.24411
1.24322
1.24231
1.24139
1.24047
1.23953
1.23859
1.23763
1.23668
1.23572
1.23475
1.23378
1.23281
1.23184
1.23087
1.22991
1.22895
1.22799
1.22704
1.2261
1.22516
1.22424
1.22333
1.22243
1.22155
1.22068
1.21984
1.219
1.21819
1.2174
1.21664
1.21589
1.21517
1.21448
1.21381
1.21317
1.21256
1.21197
1.21141
1.21089
1.21039
1.20993
1.20949
1.20909
1.20872
1.20838
1.20806
1.20778
1.20753
1.20731
1.20712
1.20696
1.20682
1.20671
1.20663
1.20657
1.20654
1.20653
1.20653
1.20655
1.2066
1.20667
1.20675
1.20685
1.20696
1.20708
1.20722
1.20736
1.20751
1.20767
1.20784
1.20801
1.20819
1.20836
1.20854
1.20872
1.20889
1.20907
1.20924
1.20941
1.20957
1.20972
1.20987
1.21002
1.21015
1.21028
1.2104
1.21051
1.21061
1.2107
1.21078
1.21084
1.2109
1.21095
1.21098
1.21101
1.21102
1.21102
1.21102
1.211
1.21097
1.21093
1.21087
1.21081
1.21074
1.21065
1.21056
1.21046
1.21035
1.21024
1.21011
1.20998
1.20984
1.2097
1.20954
1.20939
1.20923
1.20907
1.2089
1.20874
1.20857
1.2084
1.20824
1.20807
1.2079
1.20773
1.20756
1.20739
1.20723
1.20707
1.20691
1.20676
1.20661
1.20647
1.20633
1.2062
1.20607
1.20594
1.20583
1.20572
1.20561
1.20551
1.20542
1.20534
1.20526
1.20518
1.20511
1.20505
1.205
1.20495
1.20491
1.20488
1.20485
1.20483
1.20481
1.2048
1.20479
1.20479
1.20478
1.20479
1.2048
1.20481
1.20483
1.20485
1.20487
1.2049
1.20492
1.20495
1.20498
1.20502
1.20505
1.20509
1.20512
1.20516
1.20519
1.20523
1.20527
1.20531
1.20535
1.2054
1.20546
1.20552
1.20558
1.26618
1.26616
1.26614
1.26608
1.26601
1.26592
1.26583
1.26571
1.26563
1.26561
1.26573
1.26605
1.26669
1.26768
1.26908
1.27072
1.27257
1.27443
1.27608
1.27738
1.27834
1.2791
1.27932
1.27917
1.27854
1.27749
1.27608
1.2745
1.27296
1.2717
1.27084
1.27038
1.27022
1.27021
1.27026
1.27031
1.27035
1.27038
1.27039
1.27039
1.27038
1.27036
1.27033
1.27031
1.27028
1.27025
1.27022
1.27019
1.27016
1.27013
1.2701
1.27007
1.27003
1.27
1.26997
1.26994
1.26991
1.26988
1.26986
1.26983
1.2698
1.26977
1.26975
1.26972
1.2697
1.26968
1.26965
1.26963
1.26961
1.26959
1.26958
1.26956
1.26954
1.26952
1.2695
1.26949
1.26947
1.26946
1.26944
1.26943
1.26942
1.2694
1.26939
1.26938
1.26937
1.26936
1.26936
1.26935
1.26934
1.26933
1.26933
1.26932
1.26931
1.26931
1.2693
1.2693
1.26929
1.26929
1.26929
1.26928
1.26928
1.26928
1.26927
1.26927
1.26927
1.26927
1.26927
1.26927
1.26926
1.26926
1.26926
1.26926
1.26926
1.26926
1.26926
1.26926
1.26926
1.26926
1.26926
1.26927
1.26927
1.26927
1.26927
1.26927
1.26927
1.26927
1.26927
1.26927
1.26927
1.26927
1.26927
1.26927
1.26927
1.26927
1.26926
1.26926
1.26926
1.26926
1.26925
1.26925
1.26925
1.26924
1.26924
1.26924
1.26923
1.26923
1.26922
1.26922
1.26921
1.2692
1.2692
1.26919
1.26918
1.26918
1.26917
1.26916
1.26915
1.26915
1.26914
1.26913
1.26912
1.26912
1.26911
1.2691
1.26909
1.26908
1.26908
1.26907
1.26906
1.26905
1.26905
1.26904
1.26903
1.26902
1.26902
1.26901
1.269
1.26899
1.26899
1.26898
1.26897
1.26897
1.26896
1.26895
1.26895
1.26894
1.26893
1.26893
1.26892
1.26892
1.26891
1.26891
1.2689
1.26889
1.26889
1.26888
1.26888
1.26887
1.26887
1.26886
1.26886
1.26885
1.26885
1.26884
1.26883
1.26883
1.26882
1.26882
1.26881
1.26881
1.2688
1.26879
1.26879
1.26878
1.26877
1.26877
1.26876
1.26875
1.26874
1.26874
1.26873
1.26872
1.26871
1.2687
1.26869
1.26869
1.26868
1.26867
1.26866
1.26865
1.26863
1.26862
1.26861
1.2686
1.26859
1.26857
1.26856
1.26855
1.26853
1.26852
1.2685
1.26848
1.26846
1.26844
1.26842
1.2684
1.26837
1.26835
1.26832
1.26829
1.26826
1.26823
1.26819
1.26815
1.26811
1.26807
1.26802
1.26797
1.26792
1.26786
1.26779
1.26772
1.26765
1.26757
1.26749
1.2674
1.2673
1.2672
1.26708
1.26697
1.26684
1.2667
1.26656
1.2664
1.26624
1.26606
1.26587
1.26568
1.26547
1.26524
1.26501
1.26476
1.2645
1.26422
1.26392
1.26362
1.26329
1.26295
1.26259
1.26222
1.26183
1.26142
1.26099
1.26054
1.26008
1.25959
1.25909
1.25856
1.25802
1.25746
1.25688
1.25628
1.25565
1.25501
1.25435
1.25367
1.25297
1.25226
1.25152
1.25076
1.24999
1.2492
1.2484
1.24757
1.24673
1.24588
1.24501
1.24413
1.24324
1.24233
1.24141
1.24049
1.23955
1.2386
1.23765
1.23669
1.23573
1.23477
1.2338
1.23283
1.23186
1.23089
1.22992
1.22896
1.228
1.22705
1.22611
1.22518
1.22425
1.22334
1.22245
1.22156
1.2207
1.21985
1.21902
1.21821
1.21742
1.21665
1.21591
1.21519
1.21449
1.21382
1.21318
1.21257
1.21198
1.21143
1.2109
1.21041
1.20994
1.20951
1.2091
1.20873
1.20839
1.20808
1.2078
1.20755
1.20732
1.20713
1.20697
1.20683
1.20672
1.20664
1.20658
1.20655
1.20654
1.20654
1.20657
1.20661
1.20668
1.20676
1.20686
1.20697
1.2071
1.20723
1.20737
1.20753
1.20769
1.20785
1.20802
1.2082
1.20837
1.20855
1.20873
1.2089
1.20908
1.20925
1.20942
1.20958
1.20973
1.20988
1.21003
1.21016
1.21029
1.21041
1.21052
1.21062
1.2107
1.21078
1.21085
1.21091
1.21096
1.21099
1.21101
1.21103
1.21103
1.21102
1.211
1.21097
1.21093
1.21088
1.21081
1.21074
1.21065
1.21056
1.21046
1.21035
1.21023
1.21011
1.20998
1.20984
1.20969
1.20954
1.20939
1.20923
1.20906
1.2089
1.20873
1.20857
1.2084
1.20823
1.20806
1.20789
1.20772
1.20755
1.20739
1.20722
1.20706
1.2069
1.20675
1.2066
1.20646
1.20632
1.20619
1.20606
1.20594
1.20582
1.20571
1.2056
1.2055
1.20541
1.20533
1.20525
1.20517
1.20511
1.20504
1.20499
1.20494
1.2049
1.20487
1.20484
1.20482
1.2048
1.20479
1.20478
1.20478
1.20478
1.20478
1.20479
1.2048
1.20482
1.20484
1.20486
1.20489
1.20492
1.20495
1.20498
1.20501
1.20504
1.20508
1.20511
1.20515
1.20518
1.20522
1.20526
1.20529
1.20533
1.20538
1.20543
1.20549
1.20554
1.2662
1.26619
1.26617
1.26611
1.26605
1.26595
1.26585
1.26577
1.26579
1.26602
1.26665
1.2678
1.2696
1.2719
1.27451
1.27693
1.27898
1.28061
1.28181
1.28283
1.28377
1.28465
1.28544
1.28596
1.28609
1.28565
1.28454
1.28271
1.28028
1.27754
1.2749
1.27279
1.2714
1.27068
1.27039
1.27033
1.27034
1.27037
1.27038
1.27039
1.27038
1.27037
1.27034
1.27032
1.27029
1.27026
1.27023
1.2702
1.27017
1.27014
1.27011
1.27008
1.27005
1.27002
1.26999
1.26996
1.26993
1.26991
1.26988
1.26985
1.26983
1.2698
1.26978
1.26975
1.26973
1.26971
1.26969
1.26967
1.26965
1.26963
1.26961
1.26959
1.26957
1.26955
1.26954
1.26952
1.2695
1.26949
1.26947
1.26946
1.26945
1.26943
1.26942
1.26941
1.2694
1.26939
1.26939
1.26938
1.26937
1.26936
1.26936
1.26935
1.26934
1.26934
1.26933
1.26933
1.26932
1.26932
1.26931
1.26931
1.26931
1.2693
1.2693
1.2693
1.2693
1.26929
1.26929
1.26929
1.26929
1.26929
1.26929
1.26929
1.26929
1.26929
1.26929
1.26929
1.26929
1.26929
1.26929
1.26929
1.26929
1.26929
1.26929
1.26929
1.26929
1.26929
1.26929
1.26929
1.26929
1.26929
1.26929
1.26929
1.26929
1.26929
1.26929
1.26928
1.26928
1.26928
1.26928
1.26927
1.26927
1.26927
1.26926
1.26926
1.26925
1.26925
1.26924
1.26924
1.26923
1.26923
1.26922
1.26921
1.26921
1.2692
1.26919
1.26918
1.26918
1.26917
1.26916
1.26915
1.26915
1.26914
1.26913
1.26912
1.26911
1.26911
1.2691
1.26909
1.26908
1.26907
1.26907
1.26906
1.26905
1.26904
1.26904
1.26903
1.26902
1.26901
1.26901
1.269
1.26899
1.26899
1.26898
1.26897
1.26897
1.26896
1.26895
1.26895
1.26894
1.26894
1.26893
1.26892
1.26892
1.26891
1.26891
1.2689
1.2689
1.26889
1.26889
1.26888
1.26887
1.26887
1.26886
1.26886
1.26885
1.26885
1.26884
1.26883
1.26883
1.26882
1.26882
1.26881
1.2688
1.2688
1.26879
1.26878
1.26877
1.26877
1.26876
1.26875
1.26874
1.26874
1.26873
1.26872
1.26871
1.2687
1.26869
1.26868
1.26867
1.26866
1.26865
1.26864
1.26863
1.26861
1.2686
1.26859
1.26857
1.26856
1.26854
1.26853
1.26851
1.26849
1.26847
1.26845
1.26843
1.26841
1.26839
1.26836
1.26833
1.2683
1.26827
1.26824
1.2682
1.26816
1.26812
1.26808
1.26803
1.26798
1.26792
1.26786
1.2678
1.26773
1.26766
1.26758
1.2675
1.2674
1.26731
1.2672
1.26709
1.26697
1.26684
1.26671
1.26656
1.26641
1.26624
1.26607
1.26588
1.26568
1.26547
1.26525
1.26501
1.26476
1.2645
1.26422
1.26393
1.26362
1.26329
1.26295
1.2626
1.26222
1.26183
1.26142
1.26099
1.26054
1.26008
1.25959
1.25909
1.25856
1.25802
1.25746
1.25688
1.25627
1.25565
1.25501
1.25435
1.25367
1.25297
1.25225
1.25152
1.25076
1.24999
1.2492
1.24839
1.24757
1.24673
1.24588
1.24501
1.24413
1.24323
1.24232
1.24141
1.24048
1.23954
1.2386
1.23765
1.23669
1.23573
1.23476
1.23379
1.23282
1.23185
1.23088
1.22992
1.22895
1.228
1.22705
1.2261
1.22517
1.22425
1.22334
1.22244
1.22156
1.22069
1.21984
1.21901
1.2182
1.21741
1.21664
1.2159
1.21518
1.21448
1.21382
1.21317
1.21256
1.21198
1.21142
1.2109
1.2104
1.20994
1.2095
1.2091
1.20873
1.20838
1.20807
1.20779
1.20754
1.20732
1.20713
1.20697
1.20683
1.20672
1.20664
1.20658
1.20655
1.20654
1.20654
1.20657
1.20661
1.20668
1.20676
1.20686
1.20697
1.2071
1.20723
1.20738
1.20753
1.20769
1.20786
1.20803
1.2082
1.20838
1.20855
1.20873
1.20891
1.20908
1.20925
1.20942
1.20958
1.20974
1.20989
1.21003
1.21016
1.21029
1.21041
1.21052
1.21062
1.2107
1.21078
1.21085
1.21091
1.21095
1.21099
1.21101
1.21102
1.21103
1.21102
1.211
1.21097
1.21093
1.21087
1.21081
1.21073
1.21065
1.21056
1.21046
1.21035
1.21023
1.2101
1.20997
1.20983
1.20969
1.20954
1.20938
1.20922
1.20906
1.20889
1.20872
1.20856
1.20839
1.20822
1.20805
1.20788
1.20771
1.20755
1.20738
1.20721
1.20705
1.20689
1.20674
1.20659
1.20645
1.20631
1.20618
1.20605
1.20593
1.20581
1.2057
1.2056
1.2055
1.2054
1.20532
1.20524
1.20516
1.2051
1.20504
1.20498
1.20494
1.2049
1.20486
1.20483
1.20481
1.20479
1.20478
1.20477
1.20477
1.20477
1.20477
1.20478
1.2048
1.20481
1.20483
1.20486
1.20488
1.20491
1.20494
1.20497
1.205
1.20504
1.20507
1.20511
1.20514
1.20518
1.20521
1.20525
1.20529
1.20532
1.20536
1.20542
1.20547
1.20552
1.26619
1.2662
1.26618
1.26613
1.26606
1.26595
1.26587
1.26586
1.26614
1.26692
1.2685
1.2709
1.27385
1.27666
1.27892
1.28042
1.28127
1.28188
1.28243
1.28316
1.28413
1.28529
1.28649
1.28768
1.28877
1.2896
1.28986
1.28933
1.28785
1.28539
1.28213
1.27852
1.27521
1.27275
1.27128
1.2706
1.27037
1.27033
1.27035
1.27036
1.27036
1.27036
1.27034
1.27032
1.27029
1.27026
1.27022
1.27019
1.27016
1.27013
1.2701
1.27008
1.27005
1.27002
1.26999
1.26996
1.26994
1.26991
1.26988
1.26986
1.26983
1.26981
1.26978
1.26976
1.26974
1.26971
1.26969
1.26967
1.26965
1.26963
1.26962
1.2696
1.26958
1.26956
1.26955
1.26953
1.26951
1.2695
1.26948
1.26947
1.26946
1.26944
1.26943
1.26942
1.26941
1.2694
1.26939
1.26938
1.26938
1.26937
1.26936
1.26936
1.26935
1.26934
1.26934
1.26933
1.26933
1.26932
1.26932
1.26932
1.26931
1.26931
1.26931
1.26931
1.2693
1.2693
1.2693
1.2693
1.2693
1.26929
1.26929
1.26929
1.26929
1.26929
1.26929
1.26929
1.26929
1.26929
1.26929
1.26929
1.26929
1.26929
1.26929
1.2693
1.2693
1.2693
1.2693
1.2693
1.2693
1.2693
1.2693
1.26929
1.26929
1.26929
1.26929
1.26929
1.26929
1.26928
1.26928
1.26928
1.26928
1.26927
1.26927
1.26926
1.26926
1.26925
1.26925
1.26924
1.26924
1.26923
1.26923
1.26922
1.26921
1.2692
1.2692
1.26919
1.26918
1.26918
1.26917
1.26916
1.26915
1.26914
1.26914
1.26913
1.26912
1.26911
1.2691
1.2691
1.26909
1.26908
1.26907
1.26907
1.26906
1.26905
1.26904
1.26904
1.26903
1.26902
1.26901
1.26901
1.269
1.26899
1.26899
1.26898
1.26897
1.26897
1.26896
1.26896
1.26895
1.26894
1.26894
1.26893
1.26893
1.26892
1.26891
1.26891
1.2689
1.2689
1.26889
1.26889
1.26888
1.26887
1.26887
1.26886
1.26886
1.26885
1.26885
1.26884
1.26883
1.26883
1.26882
1.26881
1.26881
1.2688
1.26879
1.26879
1.26878
1.26877
1.26876
1.26876
1.26875
1.26874
1.26873
1.26872
1.26871
1.2687
1.26869
1.26868
1.26867
1.26866
1.26865
1.26864
1.26863
1.26862
1.2686
1.26859
1.26858
1.26856
1.26855
1.26853
1.26851
1.26849
1.26848
1.26846
1.26843
1.26841
1.26839
1.26836
1.26833
1.26831
1.26827
1.26824
1.2682
1.26817
1.26812
1.26808
1.26803
1.26798
1.26792
1.26787
1.2678
1.26773
1.26766
1.26758
1.2675
1.2674
1.26731
1.2672
1.26709
1.26697
1.26684
1.26671
1.26656
1.26641
1.26624
1.26606
1.26588
1.26568
1.26547
1.26524
1.26501
1.26476
1.2645
1.26422
1.26392
1.26361
1.26329
1.26295
1.26259
1.26222
1.26182
1.26141
1.26098
1.26054
1.26007
1.25959
1.25908
1.25856
1.25801
1.25745
1.25687
1.25627
1.25565
1.255
1.25434
1.25366
1.25296
1.25225
1.25151
1.25075
1.24998
1.24919
1.24838
1.24756
1.24672
1.24587
1.245
1.24412
1.24322
1.24232
1.2414
1.24047
1.23953
1.23859
1.23764
1.23668
1.23572
1.23475
1.23378
1.23281
1.23184
1.23087
1.22991
1.22894
1.22799
1.22704
1.22609
1.22516
1.22424
1.22333
1.22243
1.22155
1.22068
1.21983
1.219
1.21819
1.2174
1.21663
1.21589
1.21517
1.21448
1.21381
1.21317
1.21255
1.21197
1.21142
1.21089
1.21039
1.20993
1.2095
1.20909
1.20872
1.20838
1.20807
1.20779
1.20754
1.20732
1.20713
1.20696
1.20683
1.20672
1.20664
1.20658
1.20655
1.20654
1.20654
1.20657
1.20662
1.20668
1.20676
1.20686
1.20697
1.2071
1.20723
1.20738
1.20753
1.20769
1.20786
1.20803
1.2082
1.20838
1.20856
1.20873
1.20891
1.20908
1.20925
1.20942
1.20958
1.20974
1.20989
1.21003
1.21017
1.21029
1.21041
1.21052
1.21062
1.21071
1.21079
1.21085
1.21091
1.21096
1.21099
1.21101
1.21103
1.21103
1.21102
1.211
1.21097
1.21093
1.21087
1.21081
1.21073
1.21065
1.21056
1.21046
1.21035
1.21023
1.2101
1.20997
1.20983
1.20968
1.20953
1.20938
1.20922
1.20905
1.20889
1.20872
1.20855
1.20839
1.20822
1.20805
1.20788
1.20771
1.20754
1.20738
1.20721
1.20705
1.20689
1.20674
1.20659
1.20645
1.20631
1.20617
1.20605
1.20592
1.20581
1.2057
1.20559
1.20549
1.2054
1.20531
1.20524
1.20516
1.20509
1.20503
1.20498
1.20493
1.20489
1.20486
1.20483
1.20481
1.20479
1.20478
1.20477
1.20477
1.20477
1.20477
1.20478
1.2048
1.20481
1.20483
1.20485
1.20488
1.20491
1.20494
1.20497
1.205
1.20504
1.20507
1.2051
1.20514
1.20517
1.20521
1.20525
1.20529
1.20532
1.20536
1.20542
1.20547
1.20551
1.26618
1.2662
1.26619
1.26614
1.26606
1.26596
1.26591
1.26607
1.26681
1.26847
1.27119
1.27447
1.27731
1.27886
1.27919
1.279
1.27867
1.27798
1.27779
1.27818
1.27961
1.28162
1.28398
1.28634
1.28833
1.28987
1.29101
1.2918
1.29182
1.29089
1.2888
1.28554
1.28149
1.2774
1.27407
1.27191
1.27081
1.27041
1.27031
1.27031
1.27032
1.27033
1.27032
1.27031
1.27029
1.27026
1.27022
1.27019
1.27016
1.27013
1.2701
1.27007
1.27004
1.27001
1.26999
1.26996
1.26993
1.26991
1.26988
1.26985
1.26983
1.2698
1.26978
1.26976
1.26973
1.26971
1.26969
1.26967
1.26965
1.26964
1.26962
1.2696
1.26958
1.26956
1.26955
1.26953
1.26951
1.2695
1.26948
1.26947
1.26946
1.26945
1.26943
1.26942
1.26941
1.2694
1.26939
1.26939
1.26938
1.26937
1.26936
1.26936
1.26935
1.26935
1.26934
1.26934
1.26933
1.26933
1.26932
1.26932
1.26932
1.26931
1.26931
1.26931
1.26931
1.2693
1.2693
1.2693
1.2693
1.2693
1.2693
1.26929
1.26929
1.26929
1.26929
1.26929
1.26929
1.26929
1.26929
1.26929
1.2693
1.2693
1.2693
1.2693
1.2693
1.2693
1.2693
1.2693
1.2693
1.2693
1.2693
1.2693
1.2693
1.26929
1.26929
1.26929
1.26929
1.26929
1.26928
1.26928
1.26928
1.26927
1.26927
1.26927
1.26926
1.26926
1.26925
1.26925
1.26924
1.26923
1.26923
1.26922
1.26922
1.26921
1.2692
1.26919
1.26919
1.26918
1.26917
1.26916
1.26916
1.26915
1.26914
1.26913
1.26912
1.26912
1.26911
1.2691
1.26909
1.26909
1.26908
1.26907
1.26906
1.26905
1.26905
1.26904
1.26903
1.26903
1.26902
1.26901
1.269
1.269
1.26899
1.26898
1.26898
1.26897
1.26897
1.26896
1.26895
1.26895
1.26894
1.26894
1.26893
1.26893
1.26892
1.26891
1.26891
1.2689
1.2689
1.26889
1.26889