/*--------------------------------*- C++ -*----------------------------------*\
| =========                 |                                                 |
| \\      /  F ield         | OpenFOAM: The Open Source CFD Toolbox           |
|  \\    /   O peration     | Version:  v1812                                 |
|   \\  /    A nd           | Web:      www.OpenFOAM.com                      |
|    \\/     M anipulation  |                                                 |
\*---------------------------------------------------------------------------*/
FoamFile
{
    version     2.0;
    format      ascii;
    class       volScalarField;
    location    "0.1";
    object      T;
}
// * * * * * * * * * * * * * * * * * * * * * * * * * * * * * * * * * * * * * //

dimensions      [0 0 0 1 0 0 0];


internalField   nonuniform List<scalar> 
20400
(
298.898
298.898
298.899
298.902
298.904
298.908
298.911
298.914
298.916
298.918
298.92
298.922
298.923
298.926
298.927
298.931
298.938
298.946
298.961
298.976
299
299.023
299.056
299.088
299.124
299.16
299.195
299.229
299.259
299.29
299.313
299.336
299.357
299.376
299.393
299.408
299.422
299.434
299.443
299.453
299.46
299.467
299.473
299.479
299.484
299.488
299.492
299.495
299.499
299.501
299.504
299.506
299.508
299.51
299.512
299.513
299.515
299.516
299.517
299.518
299.519
299.519
299.52
299.521
299.521
299.521
299.522
299.522
299.522
299.522
299.522
299.522
299.522
299.521
299.521
299.52
299.52
299.519
299.518
299.518
299.517
299.516
299.515
299.514
299.513
299.512
299.511
299.509
299.508
299.507
299.505
299.504
299.502
299.501
299.499
299.497
299.495
299.493
299.492
299.49
299.488
299.486
299.483
299.481
299.479
299.477
299.475
299.473
299.47
299.468
299.466
299.463
299.461
299.459
299.457
299.455
299.452
299.45
299.448
299.446
299.444
299.442
299.44
299.438
299.436
299.435
299.433
299.431
299.43
299.428
299.427
299.425
299.424
299.422
299.421
299.42
299.419
299.418
299.417
299.416
299.415
299.414
299.413
299.412
299.412
299.411
299.41
299.41
299.409
299.409
299.408
299.408
299.407
299.407
299.407
299.406
299.406
299.406
299.406
299.405
299.405
299.405
299.405
299.405
299.405
299.405
299.404
299.404
299.404
299.404
299.404
299.404
299.404
299.403
299.403
299.403
299.403
299.403
299.402
299.402
299.402
299.402
299.401
299.401
299.401
299.4
299.4
299.399
299.399
299.398
299.398
299.397
299.397
299.396
299.395
299.395
299.394
299.393
299.393
299.392
299.391
299.39
299.39
299.389
299.388
299.387
299.386
299.385
299.384
299.383
299.382
299.381
299.38
299.379
299.378
299.377
299.376
299.375
299.373
299.372
299.371
299.37
299.369
299.367
299.366
299.365
299.364
299.362
299.361
299.36
299.358
299.357
299.356
299.354
299.353
299.351
299.35
299.348
299.346
299.345
299.343
299.341
299.339
299.337
299.335
299.333
299.331
299.328
299.326
299.323
299.32
299.317
299.314
299.31
299.306
299.302
299.298
299.293
299.288
299.283
299.277
299.271
299.265
299.257
299.25
299.242
299.233
299.223
299.213
299.202
299.191
299.178
299.165
299.151
299.136
299.12
299.103
299.085
299.066
299.045
299.024
299.001
298.977
298.951
298.924
298.896
298.866
298.835
298.802
298.767
298.731
298.693
298.654
298.613
298.57
298.525
298.478
298.429
298.379
298.327
298.273
298.217
298.159
298.099
298.038
297.975
297.909
297.842
297.774
297.703
297.631
297.557
297.481
297.404
297.326
297.246
297.164
297.081
296.997
296.912
296.826
296.738
296.65
296.561
296.471
296.381
296.29
296.199
296.107
296.015
295.923
295.832
295.74
295.649
295.558
295.468
295.378
295.29
295.202
295.115
295.03
294.946
294.864
294.783
294.704
294.626
294.551
294.478
294.407
294.339
294.272
294.209
294.148
294.089
294.034
293.981
293.931
293.884
293.84
293.799
293.76
293.725
293.693
293.664
293.638
293.614
293.593
293.576
293.562
293.549
293.54
293.533
293.529
293.527
293.527
293.529
293.533
293.538
293.546
293.555
293.567
293.579
293.592
293.607
293.623
293.639
293.657
293.674
293.693
293.711
293.73
293.749
293.768
293.787
293.806
293.824
293.842
293.86
293.877
293.894
293.91
293.925
293.939
293.952
293.965
293.977
293.987
293.997
294.005
294.013
294.019
294.024
294.029
294.032
294.034
294.035
294.035
294.034
294.032
294.029
294.025
294.019
294.013
294.006
293.998
293.99
293.98
293.97
293.959
293.947
293.934
293.921
293.908
293.894
293.88
293.866
293.851
293.836
293.821
293.806
293.791
293.776
293.76
293.745
293.73
293.716
293.702
293.688
293.674
293.661
293.647
293.635
293.623
293.612
293.601
293.59
293.581
293.572
293.564
293.556
293.549
293.542
293.537
293.531
293.527
293.522
293.519
293.516
293.514
293.513
293.512
293.511
293.511
293.512
293.514
293.516
293.518
293.521
293.524
293.527
293.532
293.536
293.54
293.545
293.55
293.556
293.562
293.568
293.574
293.58
293.585
293.591
293.596
293.602
293.606
293.609
293.607
293.598
293.568
293.52
298.899
298.901
298.903
298.906
298.91
298.912
298.914
298.914
298.913
298.91
298.904
298.895
298.884
298.872
298.857
298.847
298.841
298.837
298.849
298.867
298.897
298.932
298.973
299.017
299.062
299.106
299.147
299.184
299.219
299.246
299.275
299.298
299.318
299.336
299.351
299.364
299.375
299.385
299.393
299.401
299.407
299.413
299.419
299.423
299.428
299.432
299.436
299.439
299.443
299.446
299.448
299.451
299.454
299.456
299.458
299.46
299.462
299.464
299.466
299.467
299.469
299.47
299.471
299.472
299.473
299.474
299.474
299.475
299.476
299.476
299.477
299.477
299.478
299.478
299.478
299.478
299.478
299.478
299.477
299.477
299.476
299.476
299.475
299.474
299.473
299.473
299.472
299.471
299.47
299.469
299.467
299.466
299.465
299.464
299.462
299.461
299.459
299.458
299.456
299.454
299.453
299.451
299.449
299.447
299.445
299.443
299.441
299.439
299.436
299.434
299.432
299.43
299.428
299.425
299.423
299.421
299.418
299.416
299.414
299.412
299.409
299.407
299.405
299.403
299.401
299.399
299.397
299.395
299.393
299.391
299.389
299.387
299.385
299.384
299.382
299.381
299.379
299.378
299.376
299.375
299.374
299.373
299.372
299.371
299.37
299.369
299.368
299.367
299.366
299.366
299.365
299.364
299.364
299.363
299.363
299.362
299.362
299.361
299.361
299.361
299.36
299.36
299.36
299.36
299.36
299.359
299.359
299.359
299.359
299.359
299.359
299.359
299.358
299.358
299.358
299.358
299.358
299.358
299.357
299.357
299.357
299.357
299.357
299.356
299.356
299.356
299.355
299.355
299.355
299.354
299.354
299.353
299.353
299.352
299.351
299.351
299.35
299.349
299.349
299.348
299.347
299.346
299.346
299.345
299.344
299.343
299.342
299.341
299.34
299.339
299.338
299.337
299.336
299.335
299.334
299.332
299.331
299.33
299.329
299.328
299.326
299.325
299.324
299.323
299.321
299.32
299.319
299.317
299.316
299.314
299.313
299.311
299.31
299.308
299.307
299.305
299.304
299.302
299.3
299.298
299.297
299.295
299.293
299.291
299.288
299.286
299.284
299.281
299.278
299.276
299.273
299.269
299.266
299.262
299.259
299.254
299.25
299.245
299.24
299.235
299.229
299.223
299.216
299.209
299.201
299.193
299.184
299.174
299.164
299.153
299.141
299.129
299.116
299.101
299.086
299.07
299.053
299.035
299.015
298.995
298.973
298.95
298.926
298.9
298.873
298.845
298.815
298.783
298.75
298.715
298.679
298.641
298.601
298.56
298.516
298.471
298.424
298.375
298.325
298.272
298.218
298.161
298.103
298.043
297.981
297.917
297.852
297.784
297.715
297.644
297.571
297.496
297.42
297.342
297.263
297.182
297.1
297.016
296.931
296.845
296.758
296.67
296.581
296.49
296.4
296.308
296.216
296.123
296.03
295.937
295.844
295.751
295.658
295.565
295.473
295.381
295.29
295.199
295.11
295.021
294.934
294.848
294.764
294.681
294.6
294.521
294.443
294.368
294.295
294.224
294.156
294.09
294.027
293.966
293.908
293.853
293.801
293.751
293.705
293.661
293.621
293.583
293.549
293.517
293.489
293.463
293.44
293.421
293.404
293.39
293.378
293.369
293.362
293.358
293.356
293.356
293.358
293.362
293.368
293.375
293.385
293.395
293.407
293.42
293.434
293.449
293.465
293.481
293.498
293.516
293.533
293.551
293.569
293.587
293.604
293.622
293.639
293.655
293.671
293.687
293.702
293.716
293.73
293.742
293.754
293.765
293.775
293.784
293.791
293.798
293.804
293.808
293.812
293.814
293.816
293.816
293.816
293.814
293.811
293.808
293.803
293.797
293.79
293.782
293.774
293.764
293.754
293.743
293.732
293.719
293.706
293.693
293.679
293.664
293.649
293.634
293.618
293.602
293.586
293.57
293.554
293.539
293.523
293.507
293.492
293.476
293.461
293.446
293.432
293.418
293.404
293.391
293.378
293.366
293.354
293.343
293.333
293.323
293.315
293.306
293.298
293.291
293.285
293.279
293.274
293.269
293.265
293.261
293.258
293.256
293.254
293.253
293.252
293.252
293.252
293.253
293.254
293.256
293.258
293.261
293.263
293.267
293.27
293.274
293.277
293.281
293.286
293.291
293.295
293.3
293.304
293.309
293.314
293.319
293.322
293.324
293.323
293.318
293.303
293.28
298.902
298.904
298.906
298.909
298.91
298.911
298.908
298.904
298.895
298.883
298.866
298.843
298.816
298.784
298.751
298.718
298.689
298.669
298.658
298.655
298.676
298.717
298.778
298.851
298.929
299.006
299.075
299.133
299.18
299.217
299.246
299.268
299.286
299.301
299.313
299.324
299.333
299.34
299.347
299.352
299.357
299.361
299.364
299.367
299.37
299.373
299.376
299.378
299.381
299.383
299.385
299.388
299.39
299.392
299.394
299.396
299.398
299.4
299.402
299.404
299.406
299.407
299.409
299.41
299.411
299.413
299.414
299.415
299.415
299.416
299.417
299.418
299.419
299.42
299.42
299.421
299.421
299.421
299.422
299.422
299.422
299.421
299.421
299.421
299.42
299.42
299.419
299.418
299.418
299.417
299.416
299.415
299.414
299.413
299.412
299.411
299.41
299.408
299.407
299.406
299.404
299.403
299.401
299.399
299.397
299.396
299.394
299.392
299.39
299.388
299.386
299.383
299.381
299.379
299.377
299.375
299.372
299.37
299.368
299.365
299.363
299.36
299.358
299.356
299.353
299.351
299.349
299.347
299.344
299.342
299.34
299.338
299.336
299.334
299.332
299.331
299.329
299.327
299.325
299.324
299.322
299.321
299.319
299.318
299.317
299.316
299.315
299.314
299.313
299.312
299.311
299.31
299.309
299.309
299.308
299.307
299.307
299.306
299.306
299.305
299.305
299.305
299.304
299.304
299.304
299.304
299.303
299.303
299.303
299.303
299.303
299.303
299.303
299.302
299.302
299.302
299.302
299.302
299.302
299.302
299.302
299.302
299.301
299.301
299.301
299.301
299.301
299.3
299.3
299.3
299.299
299.299
299.298
299.298
299.297
299.297
299.296
299.296
299.295
299.294
299.294
299.293
299.292
299.291
299.29
299.289
299.289
299.288
299.287
299.286
299.285
299.284
299.283
299.281
299.28
299.279
299.278
299.277
299.276
299.274
299.273
299.272
299.27
299.269
299.268
299.266
299.265
299.264
299.262
299.261
299.259
299.258
299.256
299.255
299.253
299.251
299.25
299.248
299.246
299.244
299.242
299.241
299.238
299.236
299.234
299.232
299.229
299.227
299.224
299.221
299.218
299.215
299.212
299.208
299.204
299.2
299.195
299.191
299.185
299.18
299.174
299.168
299.161
299.154
299.146
299.138
299.129
299.119
299.109
299.098
299.087
299.074
299.061
299.047
299.031
299.015
298.998
298.98
298.961
298.94
298.918
298.895
298.871
298.845
298.818
298.79
298.76
298.728
298.695
298.661
298.624
298.586
298.547
298.505
298.462
298.417
298.37
298.321
298.27
298.218
298.163
298.107
298.049
297.989
297.927
297.863
297.797
297.73
297.661
297.59
297.517
297.442
297.366
297.288
297.209
297.128
297.046
296.962
296.878
296.791
296.704
296.616
296.527
296.437
296.346
296.254
296.162
296.07
295.977
295.884
295.79
295.697
295.604
295.512
295.419
295.327
295.236
295.146
295.056
294.968
294.881
294.795
294.71
294.627
294.546
294.467
294.389
294.314
294.241
294.17
294.102
294.036
293.972
293.911
293.853
293.798
293.745
293.696
293.649
293.605
293.565
293.527
293.492
293.46
293.431
293.406
293.383
293.362
293.345
293.33
293.318
293.309
293.302
293.297
293.295
293.294
293.295
293.298
293.304
293.311
293.32
293.33
293.341
293.353
293.367
293.381
293.396
293.412
293.428
293.445
293.462
293.479
293.496
293.513
293.529
293.546
293.562
293.578
293.593
293.608
293.623
293.636
293.649
293.66
293.671
293.681
293.69
293.698
293.705
293.711
293.716
293.72
293.722
293.724
293.725
293.724
293.723
293.72
293.717
293.712
293.707
293.7
293.692
293.684
293.674
293.664
293.653
293.641
293.629
293.616
293.602
293.588
293.574
293.558
293.543
293.527
293.51
293.493
293.476
293.459
293.442
293.425
293.409
293.392
293.376
293.36
293.344
293.329
293.313
293.299
293.284
293.27
293.257
293.244
293.232
293.22
293.209
293.198
293.189
293.18
293.171
293.164
293.157
293.15
293.144
293.139
293.134
293.13
293.126
293.123
293.12
293.118
293.117
293.116
293.115
293.115
293.116
293.117
293.118
293.119
293.121
293.124
293.126
293.129
293.132
293.135
293.138
293.142
293.146
293.149
293.153
293.157
293.161
293.165
293.168
293.17
293.17
293.167
293.16
293.151
298.907
298.907
298.908
298.91
298.909
298.906
298.899
298.889
298.873
298.848
298.811
298.757
298.683
298.585
298.467
298.325
298.17
298.014
297.865
297.754
297.705
297.732
297.838
298.006
298.218
298.45
298.676
298.872
299.024
299.13
299.199
299.241
299.266
299.283
299.295
299.304
299.311
299.317
299.322
299.327
299.331
299.333
299.336
299.337
299.339
299.34
299.341
299.342
299.344
299.345
299.346
299.347
299.348
299.35
299.351
299.353
299.354
299.356
299.358
299.359
299.361
299.363
299.364
299.366
299.367
299.368
299.369
299.37
299.371
299.372
299.373
299.374
299.375
299.376
299.377
299.378
299.379
299.379
299.38
299.38
299.38
299.381
299.381
299.38
299.38
299.38
299.38
299.379
299.378
299.378
299.377
299.376
299.376
299.375
299.374
299.373
299.372
299.371
299.37
299.369
299.368
299.366
299.365
299.364
299.362
299.36
299.359
299.357
299.355
299.353
299.351
299.349
299.347
299.345
299.343
299.341
299.339
299.336
299.334
299.332
299.33
299.327
299.325
299.322
299.32
299.318
299.315
299.313
299.311
299.308
299.306
299.304
299.302
299.3
299.298
299.296
299.294
299.292
299.29
299.289
299.287
299.285
299.284
299.282
299.281
299.28
299.279
299.277
299.276
299.275
299.274
299.273
299.273
299.272
299.271
299.271
299.27
299.269
299.269
299.268
299.268
299.268
299.267
299.267
299.267
299.267
299.267
299.266
299.266
299.266
299.266
299.266
299.266
299.266
299.266
299.266
299.266
299.266
299.266
299.266
299.266
299.266
299.266
299.266
299.266
299.265
299.265
299.265
299.265
299.265
299.264
299.264
299.264
299.263
299.263
299.263
299.262
299.262
299.261
299.261
299.26
299.259
299.259
299.258
299.257
299.256
299.255
299.255
299.254
299.253
299.252
299.251
299.25
299.249
299.248
299.247
299.246
299.244
299.243
299.242
299.241
299.24
299.238
299.237
299.236
299.235
299.233
299.232
299.23
299.229
299.228
299.226
299.225
299.223
299.222
299.22
299.218
299.217
299.215
299.213
299.211
299.209
299.207
299.205
299.203
299.201
299.198
299.196
299.193
299.19
299.187
299.184
299.181
299.177
299.173
299.169
299.165
299.16
299.155
299.15
299.144
299.138
299.131
299.124
299.116
299.108
299.099
299.089
299.079
299.068
299.057
299.044
299.031
299.017
299.002
298.986
298.969
298.951
298.932
298.911
298.889
298.867
298.842
298.817
298.79
298.761
298.731
298.7
298.667
298.632
298.596
298.558
298.519
298.477
298.434
298.389
298.342
298.293
298.243
298.19
298.136
298.08
298.022
297.962
297.9
297.836
297.771
297.703
297.634
297.563
297.49
297.416
297.34
297.262
297.183
297.102
297.02
296.937
296.852
296.766
296.679
296.59
296.501
296.411
296.321
296.229
296.137
296.045
295.952
295.859
295.766
295.673
295.58
295.487
295.395
295.303
295.212
295.122
295.033
294.944
294.857
294.771
294.687
294.604
294.523
294.444
294.367
294.292
294.219
294.148
294.079
294.014
293.95
293.889
293.832
293.776
293.724
293.675
293.628
293.584
293.544
293.506
293.472
293.44
293.411
293.386
293.363
293.343
293.326
293.311
293.299
293.29
293.283
293.278
293.276
293.276
293.277
293.28
293.286
293.293
293.302
293.312
293.323
293.336
293.349
293.364
293.379
293.395
293.411
293.428
293.445
293.462
293.479
293.496
293.513
293.53
293.546
293.562
293.577
293.592
293.606
293.62
293.632
293.644
293.655
293.665
293.674
293.682
293.689
293.695
293.7
293.704
293.706
293.708
293.709
293.708
293.707
293.704
293.701
293.696
293.69
293.684
293.676
293.667
293.658
293.648
293.636
293.625
293.612
293.599
293.586
293.571
293.557
293.542
293.526
293.51
293.493
293.476
293.459
293.442
293.424
293.407
293.391
293.374
293.358
293.342
293.326
293.311
293.295
293.281
293.266
293.252
293.238
293.225
293.213
293.201
293.19
293.18
293.17
293.161
293.152
293.145
293.138
293.131
293.125
293.12
293.115
293.11
293.106
293.103
293.1
293.098
293.096
293.095
293.095
293.094
293.095
293.096
293.097
293.098
293.1
293.102
293.104
293.107
293.109
293.112
293.115
293.119
293.122
293.126
293.13
293.133
293.137
293.141
293.145
293.147
293.148
293.146
293.143
293.141
298.911
298.91
298.909
298.909
298.905
298.9
298.89
298.873
298.842
298.788
298.695
298.547
298.329
298.028
297.657
297.232
296.8
296.396
296.071
295.861
295.757
295.727
295.836
296.044
296.36
296.774
297.258
297.769
298.253
298.656
298.945
299.123
299.217
299.263
299.285
299.296
299.303
299.307
299.311
299.314
299.318
299.321
299.323
299.325
299.326
299.327
299.327
299.328
299.328
299.329
299.329
299.33
299.331
299.331
299.332
299.333
299.334
299.335
299.337
299.338
299.34
299.341
299.342
299.344
299.345
299.346
299.347
299.348
299.349
299.35
299.351
299.352
299.353
299.354
299.355
299.356
299.357
299.358
299.359
299.359
299.36
299.36
299.36
299.36
299.36
299.36
299.36
299.359
299.359
299.358
299.358
299.357
299.357
299.356
299.355
299.355
299.354
299.353
299.352
299.351
299.35
299.349
299.347
299.346
299.345
299.343
299.342
299.34
299.338
299.336
299.335
299.333
299.331
299.329
299.327
299.325
299.323
299.321
299.319
299.316
299.314
299.312
299.309
299.307
299.305
299.302
299.3
299.298
299.295
299.293
299.291
299.289
299.287
299.285
299.283
299.281
299.279
299.277
299.275
299.273
299.271
299.27
299.268
299.267
299.265
299.264
299.263
299.262
299.26
299.259
299.259
299.258
299.257
299.256
299.255
299.255
299.254
299.254
299.253
299.253
299.252
299.252
299.252
299.252
299.251
299.251
299.251
299.251
299.251
299.251
299.251
299.251
299.251
299.251
299.251
299.251
299.251
299.251
299.251
299.251
299.251
299.251
299.251
299.251
299.251
299.251
299.251
299.251
299.251
299.251
299.251
299.25
299.25
299.25
299.25
299.249
299.249
299.248
299.248
299.247
299.247
299.246
299.246
299.245
299.244
299.244
299.243
299.242
299.241
299.24
299.24
299.239
299.238
299.237
299.236
299.235
299.234
299.233
299.231
299.23
299.229
299.228
299.227
299.226
299.224
299.223
299.222
299.221
299.219
299.218
299.216
299.215
299.214
299.212
299.211
299.209
299.207
299.206
299.204
299.202
299.201
299.199
299.197
299.195
299.193
299.19
299.188
299.185
299.183
299.18
299.177
299.174
299.171
299.167
299.163
299.159
299.155
299.15
299.145
299.14
299.134
299.128
299.121
299.114
299.106
299.098
299.089
299.08
299.07
299.059
299.048
299.035
299.022
299.008
298.993
298.977
298.96
298.942
298.923
298.902
298.881
298.858
298.834
298.808
298.781
298.753
298.723
298.692
298.659
298.624
298.588
298.55
298.51
298.469
298.426
298.381
298.334
298.285
298.235
298.182
298.128
298.072
298.014
297.954
297.892
297.828
297.763
297.696
297.626
297.556
297.483
297.409
297.333
297.255
297.176
297.095
297.013
296.93
296.845
296.759
296.672
296.584
296.494
296.405
296.314
296.222
296.13
296.038
295.945
295.852
295.759
295.666
295.574
295.481
295.389
295.297
295.206
295.116
295.027
294.938
294.851
294.766
294.681
294.599
294.518
294.439
294.361
294.286
294.213
294.143
294.074
294.009
293.945
293.885
293.827
293.772
293.719
293.67
293.624
293.58
293.54
293.502
293.468
293.436
293.407
293.382
293.359
293.339
293.322
293.308
293.296
293.287
293.28
293.275
293.273
293.273
293.274
293.277
293.283
293.29
293.299
293.31
293.321
293.334
293.347
293.362
293.377
293.393
293.409
293.426
293.443
293.46
293.477
293.495
293.512
293.528
293.545
293.561
293.576
293.591
293.605
293.619
293.631
293.643
293.654
293.665
293.674
293.682
293.689
293.695
293.7
293.703
293.706
293.708
293.709
293.708
293.707
293.704
293.701
293.696
293.691
293.684
293.676
293.668
293.658
293.648
293.637
293.625
293.613
293.6
293.586
293.572
293.558
293.543
293.527
293.511
293.494
293.477
293.46
293.443
293.425
293.408
293.392
293.375
293.359
293.343
293.328
293.312
293.297
293.282
293.267
293.253
293.24
293.227
293.215
293.203
293.192
293.181
293.172
293.163
293.154
293.147
293.14
293.133
293.127
293.122
293.117
293.113
293.109
293.105
293.102
293.1
293.099
293.097
293.097
293.097
293.097
293.098
293.099
293.1
293.102
293.104
293.107
293.109
293.112
293.115
293.118
293.121
293.125
293.128
293.132
293.136
293.14
293.144
293.148
293.152
293.153
293.152
293.15
293.15
298.916
298.912
298.909
298.907
298.902
298.895
298.881
298.851
298.786
298.659
298.431
298.068
297.56
296.932
296.26
295.643
295.155
294.801
294.577
294.439
294.351
294.305
294.296
294.363
294.519
294.803
295.23
295.809
296.506
297.26
297.971
298.543
298.929
299.145
299.246
299.285
299.298
299.303
299.306
299.308
299.31
299.312
299.315
299.317
299.319
299.321
299.322
299.322
299.323
299.323
299.323
299.324
299.324
299.325
299.325
299.326
299.327
299.328
299.329
299.331
299.332
299.333
299.334
299.336
299.337
299.338
299.339
299.34
299.341
299.342
299.343
299.344
299.345
299.346
299.347
299.348
299.349
299.35
299.351
299.351
299.352
299.352
299.353
299.353
299.353
299.353
299.353
299.352
299.352
299.352
299.351
299.351
299.35
299.35
299.349
299.348
299.347
299.347
299.346
299.345
299.344
299.343
299.341
299.34
299.339
299.337
299.336
299.334
299.333
299.331
299.329
299.328
299.326
299.324
299.322
299.32
299.318
299.316
299.314
299.312
299.309
299.307
299.305
299.302
299.3
299.298
299.295
299.293
299.291
299.289
299.287
299.284
299.282
299.28
299.278
299.276
299.274
299.272
299.271
299.269
299.267
299.265
299.264
299.262
299.261
299.26
299.258
299.257
299.256
299.255
299.254
299.253
299.252
299.252
299.251
299.25
299.25
299.249
299.249
299.248
299.248
299.248
299.248
299.247
299.247
299.247
299.247
299.247
299.247
299.247
299.247
299.247
299.247
299.247
299.247
299.247
299.247
299.247
299.247
299.247
299.248
299.248
299.248
299.248
299.248
299.248
299.248
299.248
299.248
299.247
299.247
299.247
299.247
299.247
299.247
299.246
299.246
299.246
299.245
299.245
299.244
299.244
299.243
299.242
299.242
299.241
299.24
299.24
299.239
299.238
299.237
299.236
299.235
299.234
299.233
299.232
299.231
299.23
299.229
299.228
299.227
299.226
299.225
299.223
299.222
299.221
299.22
299.218
299.217
299.216
299.214
299.213
299.212
299.21
299.209
299.207
299.205
299.204
299.202
299.2
299.199
299.197
299.195
299.193
299.191
299.188
299.186
299.184
299.181
299.178
299.175
299.172
299.169
299.165
299.162
299.158
299.153
299.149
299.144
299.138
299.132
299.126
299.12
299.112
299.105
299.097
299.088
299.078
299.068
299.058
299.046
299.034
299.02
299.006
298.991
298.975
298.958
298.94
298.921
298.901
298.879
298.856
298.832
298.807
298.78
298.751
298.722
298.69
298.657
298.623
298.586
298.549
298.509
298.468
298.424
298.379
298.333
298.284
298.234
298.181
298.127
298.071
298.013
297.953
297.891
297.827
297.762
297.694
297.625
297.554
297.482
297.407
297.331
297.254
297.175
297.094
297.012
296.928
296.844
296.758
296.671
296.582
296.493
296.403
296.313
296.221
296.129
296.037
295.944
295.852
295.759
295.666
295.573
295.48
295.388
295.296
295.205
295.115
295.026
294.938
294.851
294.765
294.681
294.598
294.517
294.438
294.361
294.286
294.213
294.142
294.074
294.008
293.945
293.884
293.826
293.771
293.719
293.67
293.623
293.58
293.539
293.502
293.467
293.436
293.407
293.382
293.359
293.339
293.323
293.308
293.297
293.287
293.281
293.276
293.274
293.273
293.275
293.278
293.284
293.291
293.3
293.31
293.322
293.334
293.348
293.363
293.378
293.394
293.41
293.427
293.444
293.461
293.479
293.496
293.513
293.53
293.546
293.562
293.578
293.592
293.607
293.62
293.633
293.645
293.656
293.666
293.675
293.683
293.69
293.696
293.701
293.705
293.707
293.709
293.71
293.71
293.708
293.706
293.702
293.698
293.692
293.685
293.678
293.669
293.66
293.649
293.638
293.626
293.614
293.601
293.587
293.573
293.559
293.544
293.529
293.513
293.496
293.479
293.462
293.444
293.427
293.41
293.393
293.376
293.36
293.344
293.329
293.313
293.298
293.283
293.269
293.255
293.241
293.228
293.216
293.204
293.193
293.183
293.173
293.164
293.156
293.149
293.142
293.135
293.129
293.124
293.119
293.115
293.11
293.107
293.104
293.102
293.1
293.099
293.099
293.099
293.099
293.1
293.101
293.102
293.104
293.107
293.109
293.111
293.114
293.117
293.12
293.123
293.127
293.131
293.135
293.139
293.143
293.147
293.151
293.154
293.156
293.155
293.154
293.155
298.92
298.913
298.908
298.905
298.899
298.891
298.869
298.813
298.679
298.406
297.934
297.256
296.455
295.685
295.072
294.657
294.43
294.307
294.236
294.167
294.083
293.99
293.907
293.844
293.801
293.813
293.942
294.235
294.721
295.41
296.266
297.184
298.017
298.642
299.023
299.209
299.28
299.3
299.305
299.306
299.306
299.307
299.308
299.31
299.312
299.315
299.317
299.318
299.319
299.32
299.321
299.321
299.322
299.322
299.323
299.324
299.325
299.326
299.327
299.328
299.329
299.331
299.332
299.333
299.334
299.335
299.336
299.337
299.338
299.339
299.34
299.341
299.343
299.344
299.345
299.346
299.347
299.348
299.349
299.349
299.35
299.35
299.351
299.351
299.351
299.351
299.351
299.351
299.35
299.35
299.35
299.349
299.348
299.348
299.347
299.347
299.346
299.345
299.344
299.343
299.342
299.341
299.34
299.338
299.337
299.336
299.334
299.333
299.331
299.33
299.328
299.327
299.325
299.323
299.321
299.319
299.317
299.315
299.313
299.311
299.309
299.306
299.304
299.302
299.299
299.297
299.295
299.293
299.29
299.288
299.286
299.284
299.282
299.28
299.278
299.276
299.274
299.272
299.27
299.268
299.267
299.265
299.263
299.262
299.26
299.259
299.258
299.257
299.256
299.255
299.254
299.253
299.252
299.251
299.251
299.25
299.249
299.249
299.249
299.248
299.248
299.248
299.247
299.247
299.247
299.247
299.247
299.247
299.247
299.247
299.247
299.247
299.247
299.247
299.247
299.247
299.247
299.247
299.247
299.247
299.248
299.248
299.248
299.248
299.248
299.248
299.248
299.248
299.248
299.248
299.247
299.247
299.247
299.247
299.247
299.246
299.246
299.246
299.245
299.245
299.244
299.244
299.243
299.243
299.242
299.241
299.241
299.24
299.239
299.238
299.237
299.237
299.236
299.235
299.234
299.233
299.232
299.231
299.23
299.228
299.227
299.226
299.225
299.224
299.223
299.221
299.22
299.219
299.217
299.216
299.215
299.213
299.212
299.21
299.209
299.207
299.206
299.204
299.203
299.201
299.199
299.197
299.195
299.193
299.191
299.189
299.186
299.184
299.181
299.179
299.176
299.173
299.169
299.166
299.162
299.158
299.153
299.149
299.144
299.138
299.133
299.126
299.12
299.113
299.105
299.097
299.088
299.079
299.069
299.058
299.046
299.034
299.021
299.006
298.991
298.975
298.958
298.94
298.921
298.901
298.879
298.856
298.832
298.807
298.78
298.751
298.722
298.69
298.657
298.623
298.586
298.548
298.509
298.467
298.424
298.379
298.333
298.284
298.233
298.181
298.127
298.071
298.012
297.952
297.891
297.827
297.761
297.694
297.625
297.554
297.481
297.407
297.331
297.253
297.174
297.094
297.011
296.928
296.843
296.757
296.67
296.582
296.493
296.403
296.312
296.221
296.129
296.037
295.944
295.851
295.758
295.665
295.572
295.48
295.388
295.296
295.205
295.115
295.026
294.937
294.85
294.765
294.68
294.598
294.517
294.438
294.361
294.285
294.213
294.142
294.074
294.008
293.945
293.884
293.826
293.771
293.719
293.67
293.623
293.58
293.54
293.502
293.468
293.436
293.408
293.382
293.36
293.34
293.323
293.309
293.297
293.288
293.281
293.277
293.274
293.274
293.275
293.279
293.284
293.292
293.301
293.311
293.323
293.335
293.349
293.364
293.379
293.395
293.411
293.428
293.445
293.462
293.479
293.497
293.514
293.531
293.547
293.563
293.578
293.593
293.607
293.621
293.634
293.646
293.657
293.667
293.676
293.684
293.691
293.697
293.702
293.706
293.708
293.71
293.711
293.711
293.709
293.706
293.703
293.698
293.692
293.686
293.678
293.67
293.66
293.65
293.639
293.627
293.614
293.601
293.588
293.574
293.559
293.544
293.529
293.513
293.496
293.479
293.462
293.444
293.427
293.41
293.393
293.377
293.361
293.345
293.329
293.314
293.299
293.284
293.269
293.255
293.242
293.229
293.216
293.205
293.194
293.183
293.174
293.165
293.156
293.149
293.142
293.135
293.13
293.124
293.119
293.115
293.111
293.107
293.105
293.103
293.101
293.1
293.099
293.099
293.1
293.101
293.102
293.103
293.105
293.107
293.109
293.112
293.114
293.117
293.12
293.124
293.127
293.131
293.135
293.139
293.143
293.147
293.151
293.155
293.157
293.157
293.156
293.157
298.926
298.915
298.907
298.903
298.897
298.886
298.851
298.747
298.492
297.999
297.239
296.334
295.53
295.024
294.821
294.773
294.78
294.941
295.055
295.074
294.908
294.638
294.31
293.995
293.766
293.636
293.584
293.593
293.754
294.107
294.696
295.534
296.538
297.538
298.353
298.887
299.163
299.272
299.302
299.306
299.306
299.305
299.304
299.304
299.305
299.308
299.31
299.313
299.315
299.317
299.318
299.319
299.32
299.32
299.321
299.322
299.323
299.324
299.325
299.327
299.328
299.329
299.331
299.332
299.333
299.334
299.335
299.336
299.337
299.338
299.339
299.341
299.342
299.343
299.344
299.345
299.346
299.347
299.348
299.349
299.349
299.35
299.35
299.35
299.35
299.35
299.35
299.35
299.35
299.35
299.349
299.349
299.348
299.348
299.347
299.346
299.345
299.345
299.344
299.343
299.342
299.341
299.339
299.338
299.337
299.336
299.334
299.333
299.331
299.33
299.328
299.327
299.325
299.323
299.321
299.319
299.317
299.315
299.313
299.311
299.309
299.307
299.304
299.302
299.3
299.297
299.295
299.293
299.291
299.289
299.286
299.284
299.282
299.28
299.278
299.276
299.274
299.272
299.27
299.269
299.267
299.265
299.264
299.262
299.261
299.259
299.258
299.257
299.256
299.255
299.254
299.253
299.252
299.252
299.251
299.25
299.25
299.249
299.249
299.249
299.248
299.248
299.248
299.248
299.248
299.247
299.247
299.247
299.247
299.247
299.247
299.247
299.247
299.247
299.248
299.248
299.248
299.248
299.248
299.248
299.248
299.248
299.248
299.248
299.248
299.248
299.248
299.248
299.248
299.248
299.248
299.248
299.248
299.248
299.247