/*--------------------------------*- C++ -*----------------------------------*\
| =========                 |                                                 |
| \\      /  F ield         | OpenFOAM: The Open Source CFD Toolbox           |
|  \\    /   O peration     | Version:  v1812                                 |
|   \\  /    A nd           | Web:      www.OpenFOAM.com                      |
|    \\/     M anipulation  |                                                 |
\*---------------------------------------------------------------------------*/
FoamFile
{
    version     2.0;
    format      ascii;
    class       volVectorField;
    location    "0.1";
    object      U;
}
// * * * * * * * * * * * * * * * * * * * * * * * * * * * * * * * * * * * * * //

dimensions      [0 1 -1 0 0 0 0];


internalField   nonuniform List<vector> 
20400
(
(0.0602578 -0.0920884 0)
(0.248641 -0.0891404 0)
(0.299238 -0.0638779 0)
(0.353865 -0.021894 0)
(0.30709 0.0248332 0)
(0.211763 0.07501 0)
(-0.0286265 0.116204 0)
(-0.342968 0.139196 0)
(-0.867148 0.154126 0)
(-1.5164 0.161599 0)
(-2.37897 0.166747 0)
(-3.38659 0.165053 0)
(-4.57694 0.168366 0)
(-5.84129 0.167023 0)
(-7.179 0.177408 0)
(-8.42988 0.178003 0)
(-9.55993 0.177255 0)
(-10.4629 0.164608 0)
(-11.0697 0.150614 0)
(-11.3752 0.142643 0)
(-11.3708 0.138971 0)
(-10.9938 0.140731 0)
(-10.45 0.15038 0)
(-9.6228 0.162812 0)
(-8.65107 0.154563 0)
(-7.5573 0.111947 0)
(-6.38875 0.0426369 0)
(-5.22829 -0.103078 0)
(-4.06656 -0.232564 0)
(-2.99841 -0.442744 0)
(-2.1157 -0.545239 0)
(-1.27753 -0.531442 0)
(-0.490644 -0.45285 0)
(0.232207 -0.32415 0)
(0.918956 -0.216002 0)
(1.49803 -0.142232 0)
(2.0023 -0.0955306 0)
(2.40356 -0.0705236 0)
(2.7444 -0.0534044 0)
(3.01586 -0.040195 0)
(3.23805 -0.0307124 0)
(3.4193 -0.023006 0)
(3.56467 -0.0175717 0)
(3.67936 -0.0132529 0)
(3.77031 -0.010069 0)
(3.84016 -0.00750833 0)
(3.89381 -0.00548058 0)
(3.9335 -0.00382102 0)
(3.96244 -0.00243103 0)
(3.98221 -0.00131131 0)
(3.99522 -0.000315165 0)
(4.00209 0.000401038 0)
(4.00516 0.00122954 0)
(4.00431 0.00138987 0)
(4.0007 0.00177205 0)
(3.99575 0.00195716 0)
(3.98888 0.00211791 0)
(3.98121 0.00216809 0)
(3.97271 0.00216912 0)
(3.96392 0.00210471 0)
(3.95492 0.00197238 0)
(3.94595 0.00178705 0)
(3.9371 0.00160762 0)
(3.92853 0.00148208 0)
(3.92033 0.0013095 0)
(3.91251 0.00113524 0)
(3.90512 0.000984192 0)
(3.8982 0.000860145 0)
(3.89175 0.000748941 0)
(3.8858 0.000649684 0)
(3.88033 0.000554863 0)
(3.87534 0.000466225 0)
(3.87082 0.000377197 0)
(3.86676 0.000284154 0)
(3.86313 0.000196462 0)
(3.85993 0.000109443 0)
(3.85712 2.282e-05 0)
(3.85469 -6.30046e-05 0)
(3.85262 -0.000143618 0)
(3.8509 -0.000225454 0)
(3.84951 -0.000299691 0)
(3.84841 -0.000374742 0)
(3.84762 -0.000439966 0)
(3.84708 -0.000510986 0)
(3.84678 -0.000567326 0)
(3.84675 -0.000619878 0)
(3.84693 -0.000669398 0)
(3.84733 -0.000717542 0)
(3.84791 -0.000760367 0)
(3.84869 -0.000800116 0)
(3.84963 -0.000836583 0)
(3.85073 -0.000870398 0)
(3.85198 -0.000901916 0)
(3.85337 -0.000930824 0)
(3.85489 -0.000957798 0)
(3.85653 -0.000982388 0)
(3.85829 -0.00100621 0)
(3.86014 -0.00102722 0)
(3.8621 -0.00104789 0)
(3.86414 -0.00106637 0)
(3.86626 -0.00108274 0)
(3.86846 -0.00109771 0)
(3.87074 -0.00111223 0)
(3.87307 -0.00112636 0)
(3.87547 -0.00113992 0)
(3.87793 -0.0011526 0)
(3.88043 -0.00116444 0)
(3.88298 -0.00117545 0)
(3.88557 -0.00118585 0)
(3.8882 -0.00119635 0)
(3.89087 -0.00120662 0)
(3.89357 -0.00121589 0)
(3.8963 -0.00122363 0)
(3.89905 -0.0012306 0)
(3.90182 -0.00123725 0)
(3.90461 -0.00124373 0)
(3.90742 -0.00125018 0)
(3.91025 -0.00125601 0)
(3.91308 -0.00126164 0)
(3.91593 -0.00126621 0)
(3.91879 -0.00127132 0)
(3.92165 -0.0012767 0)
(3.92452 -0.00128179 0)
(3.92739 -0.00128652 0)
(3.93027 -0.00129075 0)
(3.93315 -0.0012946 0)
(3.93603 -0.00129754 0)
(3.93891 -0.00129956 0)
(3.9418 -0.00130081 0)
(3.94468 -0.00130152 0)
(3.94757 -0.00130158 0)
(3.95046 -0.00130197 0)
(3.95335 -0.00130333 0)
(3.95625 -0.00130518 0)
(3.95914 -0.00130647 0)
(3.96204 -0.00130685 0)
(3.96494 -0.00130746 0)
(3.96785 -0.00130724 0)
(3.97076 -0.00130504 0)
(3.97368 -0.00130217 0)
(3.97661 -0.00129809 0)
(3.97955 -0.0012952 0)
(3.98249 -0.00129304 0)
(3.98546 -0.00129216 0)
(3.98843 -0.00129126 0)
(3.99143 -0.00128899 0)
(3.99444 -0.00128628 0)
(3.99747 -0.00128225 0)
(4.00052 -0.00127647 0)
(4.00359 -0.00127081 0)
(4.0067 -0.0012656 0)
(4.00982 -0.00126086 0)
(4.01298 -0.00125873 0)
(4.01617 -0.00125553 0)
(4.01938 -0.00125159 0)
(4.02263 -0.00124709 0)
(4.02591 -0.00124111 0)
(4.02923 -0.00123436 0)
(4.03259 -0.00122838 0)
(4.03598 -0.00122231 0)
(4.0394 -0.00121735 0)
(4.04287 -0.00121295 0)
(4.04637 -0.00120808 0)
(4.04992 -0.00120247 0)
(4.0535 -0.00119887 0)
(4.05713 -0.00119261 0)
(4.0608 -0.0011864 0)
(4.06452 -0.00117981 0)
(4.06827 -0.00117291 0)
(4.07207 -0.00116885 0)
(4.0759 -0.00116451 0)
(4.07978 -0.00116018 0)
(4.0837 -0.00115588 0)
(4.08765 -0.00114997 0)
(4.09164 -0.00114377 0)
(4.09567 -0.00113714 0)
(4.09974 -0.00113092 0)
(4.10384 -0.0011271 0)
(4.10797 -0.0011226 0)
(4.11213 -0.00111781 0)
(4.11632 -0.00111421 0)
(4.12054 -0.00110866 0)
(4.12478 -0.00110213 0)
(4.12904 -0.00109477 0)
(4.13332 -0.00108948 0)
(4.13761 -0.00108414 0)
(4.14192 -0.00107905 0)
(4.14624 -0.00107572 0)
(4.15057 -0.00107271 0)
(4.1549 -0.00106648 0)
(4.15924 -0.00105828 0)
(4.16358 -0.0010503 0)
(4.16792 -0.00104536 0)
(4.17226 -0.001041 0)
(4.17659 -0.00103785 0)
(4.18091 -0.00103422 0)
(4.18522 -0.00102637 0)
(4.18952 -0.00101623 0)
(4.1938 -0.00100875 0)
(4.19808 -0.00100372 0)
(4.20233 -0.000998616 0)
(4.20656 -0.000993972 0)
(4.21078 -0.000988098 0)
(4.21497 -0.000979179 0)
(4.21914 -0.000969311 0)
(4.22329 -0.000961102 0)
(4.22742 -0.000954505 0)
(4.23152 -0.000947919 0)
(4.2356 -0.00094115 0)
(4.23966 -0.00093408 0)
(4.2437 -0.000922293 0)
(4.24773 -0.000911211 0)
(4.25174 -0.000903349 0)
(4.25573 -0.000895458 0)
(4.25972 -0.000888557 0)
(4.2637 -0.000878258 0)
(4.26767 -0.000868632 0)
(4.27165 -0.000855248 0)
(4.27564 -0.000845098 0)
(4.27964 -0.000835917 0)
(4.28365 -0.000826666 0)
(4.2877 -0.000816471 0)
(4.29177 -0.00080506 0)
(4.29589 -0.000790435 0)
(4.30005 -0.000779387 0)
(4.30427 -0.000769239 0)
(4.30857 -0.000758893 0)
(4.31294 -0.00074696 0)
(4.3174 -0.000735002 0)
(4.32197 -0.000720239 0)
(4.32666 -0.0007091 0)
(4.33148 -0.000698145 0)
(4.33646 -0.000686049 0)
(4.3416 -0.000674515 0)
(4.34692 -0.00066105 0)
(4.35245 -0.000645462 0)
(4.35821 -0.000633637 0)
(4.36421 -0.000622221 0)
(4.37049 -0.000609478 0)
(4.37707 -0.000595291 0)
(4.38397 -0.000577917 0)
(4.39122 -0.000562427 0)
(4.39886 -0.000549985 0)
(4.40691 -0.000535555 0)
(4.4154 -0.000519227 0)
(4.42438 -0.000502038 0)
(4.43389 -0.000480675 0)
(4.44395 -0.000464983 0)
(4.45462 -0.000448219 0)
(4.46594 -0.000428739 0)
(4.47795 -0.000407395 0)
(4.49071 -0.000380239 0)
(4.50427 -0.000356509 0)
(4.51869 -0.000333328 0)
(4.53401 -0.000306274 0)
(4.55031 -0.000275855 0)
(4.56764 -0.000239284 0)
(4.58608 -0.00020152 0)
(4.60569 -0.000166259 0)
(4.62654 -0.000125894 0)
(4.64872 -7.85758e-05 0)
(4.67229 -2.46483e-05 0)
(4.69734 3.3723e-05 0)
(4.72396 8.91293e-05 0)
(4.75222 0.000149243 0)
(4.78223 0.000216949 0)
(4.81406 0.000291297 0)
(4.84782 0.000367401 0)
(4.88362 0.000448508 0)
(4.92153 0.000535547 0)
(4.96168 0.000632108 0)
(5.00416 0.000737446 0)
(5.04907 0.000851105 0)
(5.09653 0.000973902 0)
(5.14665 0.00110652 0)
(5.19953 0.00124782 0)
(5.25527 0.00140175 0)
(5.314 0.00156523 0)
(5.37583 0.00174098 0)
(5.44085 0.00192876 0)
(5.50918 0.00213091 0)
(5.58092 0.00234521 0)
(5.65617 0.00257285 0)
(5.73505 0.00281774 0)
(5.81764 0.00307614 0)
(5.90404 0.00335056 0)
(5.99434 0.00364064 0)
(6.08862 0.00395033 0)
(6.18698 0.00427535 0)
(6.28948 0.00461787 0)
(6.39619 0.00497855 0)
(6.50717 0.00536287 0)
(6.62249 0.00576242 0)
(6.74219 0.00617997 0)
(6.8663 0.00661629 0)
(6.99486 0.00707756 0)
(7.1279 0.00756278 0)
(7.26542 0.00806429 0)
(7.40743 0.00858341 0)
(7.55392 0.00912544 0)
(7.70487 0.00969229 0)
(7.86026 0.0102815 0)
(8.02005 0.0108917 0)
(8.18418 0.0115195 0)
(8.3526 0.0121662 0)
(8.52522 0.0128284 0)
(8.70196 0.0135119 0)
(8.88272 0.0142196 0)
(9.06739 0.0149448 0)
(9.25585 0.0156883 0)
(9.44797 0.0164523 0)
(9.64358 0.017239 0)
(9.84255 0.018041 0)
(10.0447 0.0188574 0)
(10.2498 0.0196922 0)
(10.4577 0.0205467 0)
(10.6682 0.0214097 0)
(10.8811 0.0222853 0)
(11.0961 0.0231687 0)
(11.313 0.0240693 0)
(11.5315 0.0249855 0)
(11.7514 0.0259241 0)
(11.9723 0.0269022 0)
(12.1941 0.027916 0)
(12.4164 0.0289458 0)
(12.6389 0.0299789 0)
(12.8613 0.0310014 0)
(13.0833 0.0320039 0)
(13.3046 0.0329765 0)
(13.5248 0.0339362 0)
(13.7436 0.0347438 0)
(13.9607 0.0354298 0)
(14.1755 0.036109 0)
(14.3878 0.0368382 0)
(14.5973 0.0377426 0)
(14.8036 0.0387389 0)
(15.0065 0.0397271 0)
(15.2055 0.0406116 0)
(15.4003 0.0412841 0)
(15.5904 0.0418627 0)
(15.7756 0.0423973 0)
(15.9553 0.0430374 0)
(16.1295 0.0437487 0)
(16.2977 0.0444615 0)
(16.4597 0.0450867 0)
(16.6152 0.0455714 0)
(16.7637 0.0459594 0)
(16.905 0.0462995 0)
(17.0388 0.0466378 0)
(17.165 0.0469964 0)
(17.2832 0.0473874 0)
(17.3933 0.0477954 0)
(17.4952 0.0481857 0)
(17.5886 0.0485419 0)
(17.6734 0.0488438 0)
(17.7494 0.0490831 0)
(17.8167 0.049256 0)
(17.8751 0.0493649 0)
(17.9246 0.0494175 0)
(17.9651 0.0494272 0)
(17.9968 0.0494091 0)
(18.0202 0.0493376 0)
(18.0339 0.0490814 0)
(18.0385 0.0491271 0)
(18.0368 0.0490515 0)
(18.0259 0.048637 0)
(18.0057 0.0484431 0)
(17.9789 0.048234 0)
(17.9439 0.0478505 0)
(17.9022 0.0475621 0)
(17.8532 0.0472027 0)
(17.7974 0.0466947 0)
(17.7353 0.0462273 0)
(17.6666 0.045585 0)
(17.592 0.0447618 0)
(17.5185 0.0443346 0)
(17.435 0.043829 0)
(17.3465 0.0427047 0)
(17.2554 0.0424156 0)
(17.1599 0.0418683 0)
(17.0611 0.0410125 0)
(16.9602 0.0404057 0)
(16.8567 0.0395583 0)
(16.7514 0.038805 0)
(16.6447 0.0382954 0)
(16.5371 0.0374097 0)
(16.4285 0.0365424 0)
(16.3198 0.0357212 0)
(16.2111 0.0349754 0)
(16.1027 0.0339575 0)
(15.9952 0.0332472 0)
(15.8888 0.0325052 0)
(15.7838 0.0315905 0)
(15.6805 0.0306958 0)
(15.5791 0.0300049 0)
(15.48 0.0292601 0)
(15.3833 0.0284733 0)
(15.2893 0.0277312 0)
(15.1982 0.0270564 0)
(15.1102 0.0261618 0)
(15.0254 0.025545 0)
(14.944 0.0249088 0)
(14.866 0.024017 0)
(14.7917 0.0234331 0)
(14.721 0.0225919 0)
(14.6541 0.0221394 0)
(14.591 0.0214167 0)
(14.5319 0.0207231 0)
(14.4766 0.0200748 0)
(14.4251 0.0195513 0)
(14.3776 0.018993 0)
(14.334 0.0183513 0)
(14.2943 0.0176532 0)
(14.2587 0.0171414 0)
(14.2252 0.0167547 0)
(14.1954 0.0162887 0)
(14.1694 0.0159859 0)
(14.1476 0.0156137 0)
(14.1294 0.0151395 0)
(14.1141 0.0149373 0)
(14.1021 0.0146306 0)
(14.0929 0.0143674 0)
(14.0868 0.0141957 0)
(14.083 0.0137871 0)
(14.0817 0.0136643 0)
(14.0828 0.0133357 0)
(14.0855 0.0131465 0)
(14.0905 0.0130494 0)
(14.0975 0.0128036 0)
(14.1054 0.0127589 0)
(14.115 0.0125973 0)
(14.1256 0.0124882 0)
(14.1373 0.0124755 0)
(14.1496 0.0125232 0)
(14.1625 0.0124603 0)
(14.1757 0.0124695 0)
(14.189 0.0124853 0)
(14.2024 0.0125663 0)
(14.2154 0.0125442 0)
(14.228 0.0125882 0)
(14.2401 0.0124724 0)
(14.2514 0.0124607 0)
(14.2617 0.0125497 0)
(14.271 0.0124541 0)
(14.279 0.0124671 0)
(14.2858 0.012506 0)
(14.291 0.0125693 0)
(14.2948 0.012638 0)
(14.2967 0.012651 0)
(14.2969 0.0126335 0)
(14.2954 0.0125936 0)
(14.2919 0.0124822 0)
(14.2865 0.0124158 0)
(14.279 0.0123787 0)
(14.2696 0.0122555 0)
(14.2581 0.0121948 0)
(14.2446 0.012057 0)
(14.2291 0.0119842 0)
(14.2115 0.0119361 0)
(14.192 0.0117383 0)
(14.1706 0.011621 0)
(14.1473 0.0114968 0)
(14.1223 0.0113998 0)
(14.0956 0.0111577 0)
(14.0674 0.0109612 0)
(14.0375 0.0109019 0)
(14.0063 0.0105993 0)
(13.9738 0.0104925 0)
(13.94 0.0102349 0)
(13.9051 0.0101821 0)
(13.8693 0.00988872 0)
(13.8327 0.00972224 0)
(13.7953 0.00952363 0)
(13.7573 0.0093344 0)
(13.7189 0.00910039 0)
(13.6811 0.0089126 0)
(13.6425 0.00872824 0)
(13.603 0.00854148 0)
(13.5645 0.0082952 0)
(13.5262 0.00797129 0)
(13.4882 0.00767728 0)
(13.4508 0.00748113 0)
(13.4141 0.00728112 0)
(13.3782 0.00704073 0)
(13.3432 0.00672868 0)
(13.3093 0.00650463 0)
(13.2766 0.00627975 0)
(13.2453 0.00590787 0)
(13.2152 0.0056491 0)
(13.1866 0.00527153 0)
(13.1596 0.00510999 0)
(13.1343 0.00467431 0)
(13.1105 0.00475225 0)
(13.089 0.00428136 0)
(13.0688 0.00416139 0)
(13.0512 0.00429586 0)
(13.0337 0.00222 0)
(13.0214 0.00576707 0)
(13.0031 0.00175091 0)
(13.0043 0.000589133 0)
(-0.00705731 -0.202946 0)
(-0.0885447 -0.117897 0)
(-0.372203 -0.0151725 0)
(-0.729553 0.0884338 0)
(-1.26444 0.242376 0)
(-1.91554 0.439656 0)
(-2.81309 0.675381 0)
(-3.88469 0.897995 0)
(-5.19084 1.16425 0)
(-6.65223 1.39146 0)
(-8.29408 1.61719 0)
(-9.97727 1.78303 0)
(-11.6716 1.90239 0)
(-13.2004 1.88678 0)
(-14.5932 1.82317 0)
(-15.6314 1.59799 0)
(-16.4106 1.30703 0)
(-16.8414 0.959707 0)
(-16.8841 0.53128 0)
(-16.5252 0.128736 0)
(-15.9014 -0.203377 0)
(-14.9829 -0.595188 0)
(-13.8719 -0.916023 0)
(-12.5482 -1.2126 0)
(-11.0851 -1.45968 0)
(-9.49828 -1.64685 0)
(-7.86188 -1.76509 0)
(-6.19503 -1.8297 0)
(-4.58103 -1.83269 0)
(-2.99474 -1.8313 0)
(-1.36775 -1.75958 0)
(0.1216 -1.60059 0)
(1.48426 -1.41085 0)
(2.68303 -1.20544 0)
(3.72986 -1.00908 0)
(4.65229 -0.83973 0)
(5.47839 -0.690236 0)
(6.20151 -0.561533 0)
(6.84029 -0.458894 0)
(7.39309 -0.372938 0)
(7.86593 -0.307299 0)
(8.27414 -0.247934 0)
(8.62014 -0.200517 0)
(8.91268 -0.159692 0)
(9.15941 -0.126287 0)
(9.36572 -0.0983146 0)
(9.53799 -0.07545 0)
(9.68081 -0.0568161 0)
(9.79883 -0.0415732 0)
(9.89574 -0.0296153 0)
(9.97495 -0.0195123 0)
(10.0393 -0.0123718 0)
(10.0912 -0.00537285 0)
(10.1329 -0.00190991 0)
(10.1656 0.00224908 0)
(10.1916 0.00467602 0)
(10.2117 0.0068385 0)
(10.2272 0.00812204 0)
(10.2389 0.00903134 0)
(10.2476 0.00947296 0)
(10.2539 0.00968 0)
(10.2583 0.00967853 0)
(10.2612 0.00943964 0)
(10.263 0.00893728 0)
(10.264 0.00839307 0)
(10.2644 0.00778557 0)
(10.2643 0.00710942 0)
(10.264 0.00636504 0)
(10.2636 0.0055864 0)
(10.2631 0.00479268 0)
(10.2626 0.00400569 0)
(10.2622 0.00322954 0)
(10.262 0.00247825 0)
(10.262 0.00176076 0)
(10.2621 0.00107284 0)
(10.2626 0.000422416 0)
(10.2632 -0.000197328 0)
(10.2641 -0.000784518 0)
(10.2653 -0.00134776 0)
(10.2667 -0.00187188 0)
(10.2683 -0.00237001 0)
(10.2703 -0.00283345 0)
(10.2724 -0.00326288 0)
(10.2748 -0.00368926 0)
(10.2774 -0.00405711 0)
(10.2803 -0.00442297 0)
(10.2833 -0.00476085 0)
(10.2865 -0.0050888 0)
(10.29 -0.00539077 0)
(10.2936 -0.0056738 0)
(10.2973 -0.0059376 0)
(10.3013 -0.00618359 0)
(10.3054 -0.00641498 0)
(10.3096 -0.00663133 0)
(10.3139 -0.00683462 0)
(10.3184 -0.00702376 0)
(10.323 -0.007202 0)
(10.3277 -0.00736742 0)
(10.3325 -0.00752115 0)
(10.3374 -0.00766549 0)
(10.3424 -0.00780471 0)
(10.3475 -0.00793512 0)
(10.3527 -0.0080581 0)
(10.3579 -0.00817327 0)
(10.3632 -0.00828228 0)
(10.3686 -0.00838524 0)
(10.374 -0.00848262 0)
(10.3795 -0.00857526 0)
(10.385 -0.00866378 0)
(10.3906 -0.00874714 0)
(10.3962 -0.00882798 0)
(10.4019 -0.0089046 0)
(10.4076 -0.00897716 0)
(10.4133 -0.0090459 0)
(10.4191 -0.00911086 0)
(10.4249 -0.00917224 0)
(10.4307 -0.00923048 0)
(10.4365 -0.00928625 0)
(10.4424 -0.0093396 0)
(10.4483 -0.00939071 0)
(10.4542 -0.0094385 0)
(10.4601 -0.00948123 0)
(10.466 -0.00952157 0)
(10.472 -0.00955923 0)
(10.4779 -0.0095948 0)
(10.4839 -0.00962972 0)
(10.4899 -0.00966409 0)
(10.4959 -0.00969659 0)
(10.5019 -0.00972594 0)
(10.5079 -0.0097534 0)
(10.5139 -0.00977972 0)
(10.52 -0.00980432 0)
(10.526 -0.00982588 0)
(10.5321 -0.00984435 0)
(10.5382 -0.00985888 0)
(10.5443 -0.0098708 0)
(10.5504 -0.00988325 0)
(10.5565 -0.00989455 0)
(10.5626 -0.00990562 0)
(10.5687 -0.00991422 0)
(10.5749 -0.00992064 0)
(10.5811 -0.00992581 0)
(10.5873 -0.00992849 0)
(10.5935 -0.00992903 0)
(10.5998 -0.0099283 0)
(10.606 -0.00992453 0)
(10.6123 -0.0099178 0)
(10.6187 -0.00991087 0)
(10.625 -0.00990568 0)
(10.6314 -0.00989954 0)
(10.6379 -0.00989265 0)
(10.6443 -0.00988179 0)
(10.6508 -0.00986617 0)
(10.6574 -0.00984909 0)
(10.6639 -0.00982951 0)
(10.6705 -0.00981039 0)
(10.6772 -0.00978964 0)
(10.6839 -0.00977058 0)
(10.6906 -0.00974657 0)
(10.6974 -0.00972002 0)
(10.7043 -0.00969146 0)
(10.7111 -0.00965896 0)
(10.7181 -0.00962861 0)
(10.725 -0.00959709 0)
(10.732 -0.00956598 0)
(10.7391 -0.00953689 0)
(10.7462 -0.00950273 0)
(10.7533 -0.00947002 0)
(10.7605 -0.00943258 0)
(10.7678 -0.00939328 0)
(10.7751 -0.00935525 0)
(10.7824 -0.00931173 0)
(10.7898 -0.00926993 0)
(10.7972 -0.00922848 0)
(10.8046 -0.00918479 0)
(10.8121 -0.00914615 0)
(10.8197 -0.00910187 0)
(10.8272 -0.0090547 0)
(10.8349 -0.00900866 0)
(10.8425 -0.00895941 0)
(10.8502 -0.00891097 0)
(10.8579 -0.00886139 0)
(10.8656 -0.00880813 0)
(10.8733 -0.00875698 0)
(10.8811 -0.00870116 0)
(10.8889 -0.0086453 0)
(10.8966 -0.00859096 0)
(10.9044 -0.0085336 0)
(10.9123 -0.00847178 0)
(10.9201 -0.00841302 0)
(10.9279 -0.00835744 0)
(10.9357 -0.0082985 0)
(10.9435 -0.00824064 0)
(10.9513 -0.00818045 0)
(10.9591 -0.00811767 0)
(10.9669 -0.00805 0)
(10.9747 -0.00798541 0)
(10.9825 -0.00792785 0)
(10.9903 -0.00786667 0)
(10.998 -0.00780247 0)
(11.0058 -0.00773337 0)
(11.0135 -0.007662 0)
(11.0212 -0.00759198 0)
(11.0288 -0.00752682 0)
(11.0365 -0.00746371 0)
(11.0441 -0.00739122 0)
(11.0518 -0.00731914 0)
(11.0593 -0.00724758 0)
(11.0669 -0.00717391 0)
(11.0745 -0.00710399 0)
(11.082 -0.00703474 0)
(11.0895 -0.00696548 0)
(11.0971 -0.00689636 0)
(11.1046 -0.00681835 0)
(11.1121 -0.00674562 0)
(11.1196 -0.00667007 0)
(11.1271 -0.00659783 0)
(11.1346 -0.00653497 0)
(11.1421 -0.00645803 0)
(11.1497 -0.00638383 0)
(11.1573 -0.00631227 0)
(11.1649 -0.00623806 0)
(11.1725 -0.00616613 0)
(11.1802 -0.0060973 0)
(11.188 -0.00602536 0)
(11.1958 -0.00595471 0)
(11.2037 -0.00588145 0)
(11.2117 -0.00581244 0)
(11.2198 -0.00574388 0)
(11.228 -0.00568027 0)
(11.2364 -0.00561458 0)
(11.2449 -0.00554656 0)
(11.2536 -0.00548539 0)
(11.2624 -0.00542442 0)
(11.2715 -0.00536689 0)
(11.2807 -0.00531079 0)
(11.2903 -0.00525097 0)
(11.3 -0.00519954 0)
(11.3101 -0.00514802 0)
(11.3205 -0.00509753 0)
(11.3313 -0.0050531 0)
(11.3424 -0.00501093 0)
(11.3539 -0.00496854 0)
(11.3659 -0.0049268 0)
(11.3783 -0.00488858 0)
(11.3913 -0.00485506 0)
(11.4048 -0.00482829 0)
(11.4189 -0.00479599 0)
(11.4337 -0.00476815 0)
(11.4491 -0.00474664 0)
(11.4653 -0.00472848 0)
(11.4822 -0.00472123 0)
(11.5001 -0.00471041 0)
(11.5188 -0.00469949 0)
(11.5385 -0.00469259 0)
(11.5592 -0.00469157 0)
(11.581 -0.0047045 0)
(11.6039 -0.00471932 0)
(11.6282 -0.00472654 0)
(11.6537 -0.00474474 0)
(11.6807 -0.00477574 0)
(11.7091 -0.00481156 0)
(11.7391 -0.00485365 0)
(11.7708 -0.00488139 0)
(11.8042 -0.00491098 0)
(11.8395 -0.0049436 0)
(11.8768 -0.00497932 0)
(11.9161 -0.00500453 0)
(11.9576 -0.00502296 0)
(12.0014 -0.00504276 0)
(12.0476 -0.00506641 0)
(12.0963 -0.00509011 0)
(12.1476 -0.00511222 0)
(12.2017 -0.00512674 0)
(12.2587 -0.00514044 0)
(12.3186 -0.00515199 0)
(12.3817 -0.00515463 0)
(12.448 -0.00515354 0)
(12.5177 -0.00514166 0)
(12.5909 -0.00512281 0)
(12.6678 -0.00509453 0)
(12.7484 -0.0050538 0)
(12.8328 -0.00500108 0)
(12.9213 -0.00493429 0)
(13.0138 -0.00485471 0)
(13.1106 -0.00475897 0)
(13.2118 -0.00464429 0)
(13.3174 -0.00451421 0)
(13.4276 -0.0043605 0)
(13.5424 -0.00418398 0)
(13.662 -0.00398628 0)
(13.7864 -0.00377255 0)
(13.9158 -0.00352876 0)
(14.0501 -0.00325257 0)
(14.1895 -0.00294811 0)
(14.3341 -0.00261921 0)
(14.4838 -0.00226603 0)
(14.6387 -0.00188095 0)
(14.7989 -0.0014537 0)
(14.9644 -0.000993267 0)
(15.1351 -0.000506227 0)
(15.3111 1.61967e-05 0)
(15.4924 0.000574858 0)
(15.6789 0.00117595 0)
(15.8706 0.001815 0)
(16.0675 0.00249813 0)
(16.2695 0.00322202 0)
(16.4766 0.00398064 0)
(16.6885 0.00477747 0)
(16.9053 0.00561762 0)
(17.1269 0.0065001 0)
(17.3531 0.00741091 0)
(17.5837 0.00836545 0)
(17.8187 0.00936433 0)
(18.0578 0.0104067 0)
(18.3009 0.0114816 0)
(18.5478 0.0125961 0)
(18.7983 0.0137524 0)
(19.0521 0.0149513 0)
(19.3091 0.0161862 0)
(19.5691 0.017455 0)
(19.8316 0.0187593 0)
(20.0966 0.0200822 0)
(20.3636 0.0214117 0)
(20.6325 0.0227593 0)
(20.9029 0.0241407 0)
(21.1744 0.0255624 0)
(21.4469 0.027026 0)
(21.7199 0.0285143 0)
(21.9931 0.029994 0)
(22.2661 0.0315826 0)
(22.5386 0.0333181 0)
(22.8103 0.0351088 0)
(23.0809 0.0368752 0)
(23.3501 0.0384877 0)
(23.6172 0.0399938 0)
(23.8818 0.0414954 0)
(24.1436 0.0430701 0)
(24.4023 0.044827 0)
(24.6575 0.0466546 0)
(24.909 0.0485123 0)
(25.1563 0.0502233 0)
(25.399 0.0518187 0)
(25.6366 0.0533775 0)
(25.8688 0.0549822 0)
(26.0952 0.0566861 0)
(26.3156 0.0584294 0)
(26.5297 0.0601518 0)
(26.7372 0.0618182 0)
(26.9377 0.063398 0)
(27.131 0.0648748 0)
(27.3167 0.0662622 0)
(27.4946 0.0675937 0)
(27.6644 0.0688908 0)
(27.826 0.0701525 0)
(27.9793 0.0713884 0)
(28.1239 0.0725913 0)
(28.26 0.0737577 0)
(28.3873 0.0748791 0)
(28.5057 0.0759556 0)
(28.6154 0.0770257 0)
(28.7162 0.0779561 0)
(28.808 0.07829 0)
(28.8909 0.0796919 0)
(28.9656 0.0807392 0)
(29.0315 0.0805884 0)
(29.0886 0.0811077 0)
(29.1375 0.0817973 0)
(29.1784 0.0820882 0)
(29.2115 0.082441 0)
(29.2367 0.0827336 0)
(29.255 0.0826994 0)
(29.2653 0.0828323 0)
(29.2688 0.0828799 0)
(29.2648 0.0828062 0)
(29.262 0.0827139 0)
(29.2489 0.0823057 0)
(29.2265 0.0821464 0)
(29.2045 0.0817022 0)
(29.1743 0.0812913 0)
(29.1408 0.080585 0)
(29.1043 0.0796333 0)
(29.0635 0.0790684 0)
(29.0198 0.0782917 0)
(28.9734 0.0772316 0)
(28.9247 0.0764917 0)
(28.8741 0.0755787 0)
(28.8219 0.0745908 0)
(28.7685 0.0735606 0)
(28.7145 0.072651 0)
(28.6597 0.0713383 0)
(28.6047 0.0701988 0)
(28.5499 0.0690432 0)
(28.4956 0.0679042 0)
(28.4419 0.0666927 0)
(28.3893 0.0653429 0)
(28.3378 0.0640105 0)
(28.2879 0.0629168 0)
(28.2397 0.0614949 0)
(28.1934 0.0600786 0)
(28.1491 0.0589069 0)
(28.107 0.0576351 0)
(28.0673 0.0563661 0)
(28.0302 0.0550618 0)
(27.9957 0.0538372 0)
(27.9641 0.0525827 0)
(27.9352 0.0513343 0)
(27.9093 0.0500573 0)
(27.8864 0.0490003 0)
(27.8664 0.0478827 0)
(27.8495 0.0466306 0)
(27.8356 0.0455464 0)
(27.8252 0.0447563 0)
(27.8177 0.0436386 0)
(27.8121 0.0426363 0)
(27.8096 0.0415914 0)
(27.8099 0.0405461 0)
(27.8136 0.0394518 0)
(27.8205 0.0388115 0)
(27.8304 0.037881 0)
(27.8421 0.0370493 0)
(27.8568 0.0363028 0)
(27.8739 0.0355632 0)
(27.8928 0.0346469 0)
(27.9142 0.0341552 0)
(27.9371 0.0334514 0)
(27.9621 0.0328305 0)
(27.9885 0.0326128 0)
(28.0165 0.0320603 0)
(28.0457 0.0315477 0)
(28.0761 0.0309736 0)
(28.1074 0.0304798 0)
(28.1395 0.0299097 0)
(28.1722 0.0294955 0)
(28.2052 0.0290642 0)
(28.2385 0.0288037 0)
(28.2718 0.0283681 0)
(28.3049 0.0281266 0)
(28.3377 0.0280143 0)
(28.3701 0.027696 0)
(28.4017 0.0276222 0)
(28.4326 0.0274523 0)
(28.4625 0.0273601 0)
(28.4912 0.0272631 0)
(28.5186 0.0271733 0)
(28.5447 0.0270628 0)
(28.5692 0.0269566 0)
(28.5921 0.0268807 0)
(28.6132 0.0267298 0)
(28.6325 0.0267691 0)
(28.6499 0.0266255 0)
(28.6652 0.0266106 0)
(28.6786 0.0265496 0)
(28.6898 0.0265838 0)
(28.699 0.0265972 0)
(28.7058 0.026476 0)
(28.7107 0.0264584 0)
(28.7134 0.0263405 0)
(28.7136 0.0262077 0)
(28.712 0.0261833 0)
(28.7082 0.0260545 0)
(28.7024 0.0258259 0)
(28.6945 0.0255681 0)
(28.6851 0.0255216 0)
(28.6735 0.0254954 0)
(28.6602 0.0252673 0)
(28.6452 0.0251656 0)
(28.6287 0.0249251 0)
(28.6106 0.0247171 0)
(28.5912 0.0244506 0)
(28.5706 0.0242281 0)
(28.5487 0.0238454 0)
(28.5258 0.0236395 0)
(28.502 0.023262 0)
(28.4773 0.0228202 0)
(28.4528 0.0224079 0)
(28.4273 0.0221527 0)
(28.4006 0.0218248 0)
(28.3745 0.0214136 0)
(28.3485 0.0210202 0)
(28.322 0.0205207 0)
(28.2957 0.0200241 0)
(28.2699 0.0196347 0)
(28.2445 0.0192256 0)
(28.2197 0.0188206 0)
(28.1956 0.0182792 0)
(28.1722 0.0177811 0)
(28.1498 0.0172387 0)
(28.1284 0.0169427 0)
(28.1081 0.0164922 0)
(28.089 0.0159366 0)
(28.0711 0.0153964 0)
(28.0546 0.0148178 0)
(28.0397 0.013911 0)
(28.0257 0.0142389 0)
(28.0137 0.0126853 0)
(28.0037 0.0142215 0)
(27.9943 0.0122219 0)
(27.9909 0.0083571 0)
(27.9909 0.00552472 0)
(-0.102042 -0.0157164 0)
(-0.574707 0.385382 0)
(-1.29489 0.606654 0)
(-2.12421 0.794428 0)
(-3.1129 1.03278 0)
(-4.20927 1.34895 0)
(-5.50245 1.71467 0)
(-6.90479 2.12717 0)
(-8.45885 2.50593 0)
(-10.0549 2.8773 0)
(-11.6783 3.17057 0)
(-13.2171 3.33132 0)
(-14.6564 3.34496 0)
(-15.8855 3.17465 0)
(-16.9592 2.86709 0)
(-17.6934 2.35602 0)
(-18.2238 1.73982 0)
(-18.3814 1.00778 0)
(-18.2066 0.229029 0)
(-17.729 -0.586751 0)
(-16.9338 -1.37209 0)
(-15.8416 -2.10202 0)
(-14.4947 -2.73306 0)
(-12.9333 -3.23326 0)
(-11.2245 -3.59649 0)
(-9.41556 -3.80811 0)
(-7.55495 -3.89751 0)
(-5.68592 -3.84869 0)
(-3.8304 -3.7046 0)
(-2.05786 -3.4361 0)
(-0.389033 -3.15074 0)
(1.16933 -2.89185 0)
(2.60695 -2.61202 0)
(3.923 -2.33933 0)
(5.12394 -2.05866 0)
(6.20746 -1.79304 0)
(7.188 -1.5463 0)
(8.06655 -1.32493 0)
(8.85674 -1.13142 0)
(9.56412 -0.954788 0)
(10.1874 -0.808436 0)
(10.748 -0.678947 0)
(11.2413 -0.569607 0)
(11.6762 -0.475554 0)
(12.0581 -0.396051 0)
(12.3917 -0.32835 0)
(12.6827 -0.271176 0)
(12.9356 -0.222856 0)
(13.1552 -0.182162 0)
(13.3452 -0.148026 0)
(13.5097 -0.119402 0)
(13.6517 -0.0956473 0)
(13.7743 -0.0758779 0)
(13.8799 -0.0596907 0)
(13.9708 -0.0463278 0)
(14.0491 -0.035626 0)
(14.1164 -0.0269549 0)
(14.1743 -0.0200891 0)
(14.2241 -0.0146442 0)
(14.267 -0.0104138 0)
(14.304 -0.00719627 0)
(14.3359 -0.00487476 0)
(14.3635 -0.00318759 0)
(14.3875 -0.00191167 0)
(14.4083 -0.00115693 0)
(14.4265 -0.000777641 0)
(14.4424 -0.000678933 0)
(14.4563 -0.000736276 0)
(14.4687 -0.000948603 0)
(14.4797 -0.00129317 0)
(14.4896 -0.00175081 0)
(14.4985 -0.00228298 0)
(14.5067 -0.00287834 0)
(14.5141 -0.00350571 0)
(14.521 -0.00414717 0)
(14.5274 -0.00480669 0)
(14.5334 -0.00546986 0)
(14.5391 -0.00613439 0)
(14.5445 -0.00679152 0)
(14.5496 -0.00744043 0)
(14.5546 -0.0080707 0)
(14.5595 -0.00867813 0)
(14.5642 -0.00925722 0)
(14.5689 -0.00981531 0)
(14.5735 -0.010342 0)
(14.5781 -0.010836 0)
(14.5826 -0.0113043 0)
(14.5872 -0.0117506 0)
(14.5917 -0.012172 0)
(14.5962 -0.01257 0)
(14.6007 -0.0129453 0)
(14.6053 -0.0132982 0)
(14.6098 -0.0136326 0)
(14.6144 -0.0139482 0)
(14.6189 -0.0142471 0)
(14.6235 -0.0145263 0)
(14.6282 -0.0147922 0)
(14.6328 -0.015039 0)
(14.6375 -0.0152757 0)
(14.6422 -0.0154991 0)
(14.6469 -0.0157119 0)
(14.6516 -0.0159056 0)
(14.6563 -0.0160946 0)
(14.6611 -0.0162733 0)
(14.6659 -0.0164421 0)
(14.6707 -0.0166026 0)
(14.6755 -0.0167545 0)
(14.6803 -0.0168983 0)
(14.6851 -0.0170354 0)
(14.69 -0.017167 0)
(14.6948 -0.0172962 0)
(14.6997 -0.0174203 0)
(14.7046 -0.0175378 0)
(14.7094 -0.0176479 0)
(14.7143 -0.0177521 0)
(14.7192 -0.0178518 0)
(14.7241 -0.0179483 0)
(14.729 -0.0180411 0)
(14.7339 -0.0181316 0)
(14.7388 -0.0182178 0)
(14.7437 -0.0182987 0)
(14.7486 -0.0183725 0)
(14.7535 -0.0184421 0)
(14.7584 -0.0185086 0)
(14.7633 -0.0185733 0)
(14.7682 -0.0186376 0)
(14.773 -0.0187014 0)
(14.7779 -0.018763 0)
(14.7828 -0.0188206 0)
(14.7877 -0.0188737 0)
(14.7926 -0.0189222 0)
(14.7974 -0.0189689 0)
(14.8023 -0.0190144 0)
(14.8072 -0.0190571 0)
(14.8121 -0.0190944 0)
(14.817 -0.0191262 0)
(14.8219 -0.0191573 0)
(14.8268 -0.0191873 0)
(14.8317 -0.0192144 0)
(14.8366 -0.0192387 0)
(14.8415 -0.0192589 0)
(14.8464 -0.0192779 0)
(14.8514 -0.0192979 0)
(14.8563 -0.0193152 0)
(14.8613 -0.0193295 0)
(14.8663 -0.0193394 0)
(14.8713 -0.0193464 0)
(14.8763 -0.0193514 0)
(14.8813 -0.0193542 0)
(14.8864 -0.0193544 0)
(14.8915 -0.0193537 0)
(14.8966 -0.0193526 0)
(14.9018 -0.0193486 0)
(14.9069 -0.01934 0)
(14.9122 -0.019327 0)
(14.9174 -0.019314 0)
(14.9227 -0.0192981 0)
(14.928 -0.0192772 0)
(14.9333 -0.0192516 0)
(14.9387 -0.0192236 0)
(14.9441 -0.0191957 0)
(14.9495 -0.0191635 0)
(14.955 -0.0191306 0)
(14.9605 -0.019097 0)
(14.9661 -0.0190652 0)
(14.9716 -0.0190329 0)
(14.9773 -0.018995 0)
(14.9829 -0.018955 0)
(14.9886 -0.018915 0)
(14.9944 -0.0188718 0)
(15.0001 -0.0188265 0)
(15.0059 -0.0187762 0)
(15.0118 -0.0187256 0)
(15.0176 -0.0186768 0)
(15.0235 -0.0186238 0)
(15.0295 -0.0185701 0)
(15.0354 -0.0185165 0)
(15.0414 -0.0184608 0)
(15.0474 -0.0184037 0)
(15.0534 -0.0183429 0)
(15.0594 -0.0182822 0)
(15.0655 -0.0182189 0)
(15.0716 -0.0181466 0)
(15.0776 -0.0180718 0)
(15.0837 -0.0179994 0)
(15.0898 -0.0179263 0)
(15.0959 -0.0178506 0)
(15.102 -0.0177744 0)
(15.108 -0.0176978 0)
(15.1141 -0.0176168 0)
(15.1202 -0.0175332 0)
(15.1262 -0.0174528 0)
(15.1323 -0.0173722 0)
(15.1383 -0.0172863 0)
(15.1443 -0.0172015 0)
(15.1503 -0.0171168 0)
(15.1562 -0.0170283 0)
(15.1622 -0.0169364 0)
(15.1681 -0.0168496 0)
(15.1739 -0.0167613 0)
(15.1798 -0.0166685 0)
(15.1856 -0.0165764 0)
(15.1914 -0.016484 0)
(15.1971 -0.0163856 0)
(15.2028 -0.0162878 0)
(15.2085 -0.016188 0)
(15.2141 -0.0160871 0)
(15.2197 -0.0159875 0)
(15.2253 -0.0158862 0)
(15.2308 -0.0157873 0)
(15.2364 -0.0156816 0)
(15.2418 -0.0155841 0)
(15.2473 -0.0154894 0)
(15.2527 -0.015387 0)
(15.2581 -0.0152881 0)
(15.2635 -0.015182 0)
(15.2689 -0.0150756 0)
(15.2742 -0.0149806 0)
(15.2796 -0.0148812 0)
(15.285 -0.0147805 0)
(15.2903 -0.0146828 0)
(15.2957 -0.0145824 0)
(15.3011 -0.0144788 0)
(15.3066 -0.0143767 0)
(15.3121 -0.0142787 0)
(15.3176 -0.0141844 0)
(15.3233 -0.0140861 0)
(15.3289 -0.0139887 0)
(15.3347 -0.0138913 0)
(15.3406 -0.0138001 0)
(15.3466 -0.0137149 0)
(15.3527 -0.0136282 0)
(15.3589 -0.0135436 0)
(15.3654 -0.0134622 0)
(15.372 -0.0133801 0)
(15.3788 -0.0133098 0)
(15.3858 -0.0132386 0)
(15.3931 -0.0131707 0)
(15.4007 -0.0131041 0)
(15.4085 -0.0130387 0)
(15.4167 -0.0129779 0)
(15.4252 -0.0129231 0)
(15.4342 -0.0128696 0)
(15.4435 -0.0128189 0)
(15.4533 -0.0127747 0)
(15.4636 -0.0127346 0)
(15.4744 -0.0127003 0)
(15.4858 -0.0126701 0)
(15.4978 -0.0126443 0)
(15.5105 -0.0126242 0)
(15.5239 -0.0126135 0)
(15.5381 -0.012605 0)
(15.553 -0.012609 0)
(15.5689 -0.0126128 0)
(15.5857 -0.0126202 0)
(15.6035 -0.0126365 0)
(15.6224 -0.0126594 0)
(15.6424 -0.0126939 0)
(15.6636 -0.0127325 0)
(15.6861 -0.0127783 0)
(15.71 -0.0128301 0)
(15.7354 -0.0128838 0)
(15.7623 -0.0129411 0)
(15.7908 -0.0130049 0)
(15.8211 -0.0130777 0)
(15.8532 -0.0131575 0)
(15.8872 -0.0132368 0)
(15.9233 -0.0133284 0)
(15.9614 -0.0134224 0)
(16.0019 -0.0135272 0)
(16.0447 -0.013636 0)
(16.09 -0.013742 0)
(16.1378 -0.0138519 0)
(16.1884 -0.0139643 0)
(16.2419 -0.0140766 0)
(16.2983 -0.0141948 0)