/*--------------------------------*- C++ -*----------------------------------*\
| =========                 |                                                 |
| \\      /  F ield         | OpenFOAM: The Open Source CFD Toolbox           |
|  \\    /   O peration     | Version:  v1812                                 |
|   \\  /    A nd           | Web:      www.OpenFOAM.com                      |
|    \\/     M anipulation  |                                                 |
\*---------------------------------------------------------------------------*/
FoamFile
{
    version     2.0;
    format      ascii;
    class       volScalarField;
    location    "1.3";
    object      p;
}
// * * * * * * * * * * * * * * * * * * * * * * * * * * * * * * * * * * * * * //

dimensions      [1 -1 -2 0 0 0 0];


internalField   nonuniform List<scalar> 
20400
(
105390
105390
105388
105388
105386
105385
105383
105380
105377
105374
105371
105368
105365
105361
105358
105354
105350
105347
105344
105340
105337
105334
105331
105329
105326
105322
105320
105317
105313
105310
105307
105303
105299
105296
105292
105288
105283
105278
105274
105269
105263
105258
105253
105247
105240
105234
105226
105220
105215
105201
105200
105198
105192
105187
105183
105179
105175
105170
105165
105160
105156
105154
105153
105152
105152
105153
105155
105157
105159
105166
105170
105181
105191
105205
105218
105234
105255
105274
105292
105316
105343
105370
105395
105420
105444
105469
105493
105516
105537
105557
105576
105594
105611
105628
105641
105652
105661
105675
105675
105678
105681
105680
105681
105682
105682
105683
105684
105685
105687
105690
105700
105706
105711
105718
105723
105730
105737
105743
105748
105753
105758
105761
105763
105763
105762
105763
105764
105768
105771
105759
105756
105754
105752
105749
105745
105740
105735
105730
105727
105721
105717
105711
105704
105698
105692
105686
105679
105673
105666
105659
105652
105648
105644
105638
105632
105626
105620
105615
105609
105605
105594
105588
105582
105576
105569
105564
105559
105555
105552
105545
105541
105534
105535
105531
105526
105523
105526
105518
105517
105519
105508
105506
105511
105504
105493
105485
105479
105470
105457
105440
105431
105423
105415
105401
105388
105377
105366
105362
105359
105354
105350
105351
105354
105357
105362
105373
105381
105391
105402
105414
105424
105435
105445
105453
105458
105463
105465
105469
105476
105468
105467
105476
105469
105463
105457
105447
105442
105432
105425
105419
105408
105399
105385
105373
105361
105348
105335
105319
105302
105286
105270
105253
105235
105214
105201
105187
105165
105153
105140
105127
105114
105099
105088
105076
105069
105060
105051
105041
105033
105022
105013
105004
104993
104982
104972
104956
104941
104930
104919
104904
104889
104874
104858
104841
104825
104810
104795
104779
104762
104747
104727
104722
104711
104698
104685
104668
104654
104638
104624
104608
104597
104588
104561
104544
104526
104509
104491
104473
104455
104440
104417
104391
104367
104342
104320
104296
104271
104245
104219
104192
104164
104132
104105
104081
104056
104022
103984
103955
103915
103881
103846
103814
103786
103744
103712
103681
103648
103609
103572
103529
103494
103458
103422
103385
103349
103312
103275
103238
103201
103165
103130
103095
103065
103034
103003
102966
102935
102898
102883
102856
102829
102803
102780
102751
102721
102711
102688
102672
102652
102637
102619
102615
102564
102552
102544
102531
102517
102504
102492
102481
102479
102467
102468
102445
102434
102418
102412
102396
102404
102376
102367
102352
102343
102331
102322
102312
102306
102298
102291
102284
102278
102273
102263
102254
102246
102238
102230
102223
102215
102206
102197
102194
102187
102180
102173
102168
102163
102159
102153
102150
102139
102133
102129
102126
102125
102120
102110
102101
102112
102111
102107
102105
102100
102092
102093
102091
102089
102088
102087
102085
102083
102081
102079
102076
102073
102070
102067
102064
102060
102056
102054
102049
102047
102049
102053
102039
102031
102024
102014
102006
101998
101989
101981
101973
101965
101956
101947
101936
101927
101920
101910
101902
101891
101874
101862
101841
101836
101824
101817
101797
101785
101770
101756
101743
101731
101719
101706
101686
101670
101650
101640
101626
101613
101597
101577
101562
101546
101534
101517
101506
101483
101469
101449
101431
101417
101402
101392
101366
101350
101336
105387
105388
105385
105384
105382
105380
105378
105375
105372
105369
105365
105362
105358
105354
105349
105345
105341
105336
105332
105328
105323
105319
105316
105312
105308
105306
105302
105299
105295
105292
105289
105286
105281
105278
105274
105271
105268
105264
105261
105258
105255
105252
105249
105246
105243
105241
105237
105235
105233
105229
105218
105217
105214
105210
105207
105204
105202
105199
105197
105193
105187
105180
105176
105171
105170
105169
105169
105169
105171
105177
105181
105191
105199
105211
105223
105238
105256
105273
105290
105313
105339
105363
105387
105413
105438
105465
105491
105515
105539
105562
105584
105605
105624
105641
105656
105669
105680
105689
105690
105696
105699
105699
105700
105700
105699
105698
105697
105696
105694
105692
105690
105688
105690
105698
105701
105699
105699
105703
105707
105713
105720
105725
105733
105746
105756
105764
105769
105778
105781
105764
105762
105760
105754
105748
105742
105737
105733
105728
105724
105719
105714
105708
105702
105697
105692
105687
105683
105679
105677
105675
105671
105664
105650
105638
105629
105621
105615
105612
105603
105600
105596
105591
105584
105578
105569
105564
105560
105557
105557
105554
105548
105533
105524
105517
105518
105519
105521
105515
105517
105521
105509
105499
105488
105484
105479
105475
105464
105434
105440
105438
105427
105421
105417
105412
105404
105395
105393
105383
105377
105369
105360
105355
105353
105356
105356
105359
105362
105368
105376
105385
105394
105404
105415
105426
105441
105452
105458
105465
105475
105470
105464
105469
105465
105463
105462
105460
105455
105420
105415
105414
105405
105402
105389
105379
105361
105348
105333
105317
105299
105281
105264
105247
105229
105214
105195
105176
105157
105150
105137
105124
105114
105105
105094
105084
105074
105064
105054
105043
105035
105025
105015
105006
104995
104986
104972
104966
104951
104940
104933
104922
104912
104902
104890
104879
104866
104853
104838
104822
104804
104786
104770
104743
104724
104701
104688
104668
104651
104633
104620
104612
104603
104589
104565
104548
104533
104518
104501
104484
104466
104444
104436
104419
104377
104351
104327
104301
104274
104246
104220
104194
104168
104139
104115
104073
104045
104018
103976
103949
103911
103882
103850
103820
103803
103736
103700
103669
103642
103605
103566
103530
103497
103460
103424
103387
103350
103314
103277
103242
103205
103171
103137
103103
103070
103035
103002
102954
102942
102912
102877
102856
102831
102806
102779
102761
102732
102709
102689
102673
102651
102632
102608
102599
102601
102568
102556
102543
102530
102518
102504
102486
102470
102463
102468
102449
102426
102414
102408
102397
102403
102379
102375
102360
102355
102351
102342
102300
102298
102289
102281
102269
102260
102253
102245
102239
102232
102227
102221
102216
102208
102205
102202
102198
102190
102183
102176
102169
102162
102154
102145
102139
102129
102132
102129
102124
102118
102111
102097
102113
102098
102097
102098
102098
102090
102105
102104
102103
102103
102101
102100
102099
102097
102095
102094
102092
102091
102089
102087
102085
102083
102079
102075
102069
102067
102050
102032
102019
102023
102027
102021
102014
102008
102002
101994
101985
101973
101962
101955
101949
101943
101916
101894
101883
101878
101867
101866
101855
101849
101819
101801
101786
101786
101779
101774
101763
101731
101703
101696
101675
101671
101665
101655
101628
101597
101586
101576
101571
101566
101540
101505
101494
101475
101472
101459
101448
101436
101397
101374
101354
101359
101351
105391
105391
105390
105389
105387
105385
105383
105381
105378
105375
105372
105368
105364
105361
105358
105355
105351
105347
105343
105340
105336
105333
105329
105325
105321
105318
105315
105312
105309
105306
105303
105300
105297
105294
105291
105288
105285
105281
105278
105274
105269
105264
105259
105253
105246
105241
105235
105229
105224
105215
105211
105202
105194
105188
105183
105178
105174
105171
105168
105164
105162
105163
105164
105168
105171
105174
105175
105176
105177
105181
105183
105189
105195
105206
105222
105240
105260
105279
105296
105315
105336
105358
105380
105404
105428
105452
105476
105498
105519
105539
105558
105575
105592
105606
105621
105636
105658
105639
105646
105646
105648
105649
105649
105649
105648
105648
105647
105646
105645
105644
105646
105654
105667
105676
105685
105693
105700
105707
105713
105716
105718
105720
105721
105720
105720
105727
105735
105743
105756
105762
105763
105761
105759
105753
105747
105741
105736
105730
105725
105719
105714
105707
105700
105693
105687
105682
105677
105672
105667
105663
105660
105655
105647
105639
105635
105631
105630
105629
105620
105602
105591
105586
105581
105575
105569
105566
105563
105556
105547
105541
105534
105527
105522
105511
105515
105528
105533
105523
105511
105511
105512
105503
105485
105483
105487
105478
105466
105455
105466
105464
105452
105439
105427
105417
105405
105394
105380
105366
105356
105349
105341
105339
105344
105349
105355
105366
105374
105381
105389
105398
105406
105415
105425
105433
105441
105450
105456
105464
105479
105478
105474
105485
105468
105459
105451
105445
105441
105431
105430
105420
105407
105395
105383
105371
105357
105342
105326
105310
105292
105274
105256
105237
105218
105201
105188
105171
105155
105142
105130
105117
105108
105098
105087
105077
105067
105057
105048
105038
105030
105020
105012
105002
104992
104982
104974
104961
104948
104935
104925
104913
104900
104886
104872
104856
104841
104826
104811
104795
104781
104759
104745
104728
104713
104695
104678
104660
104643
104628
104615
104595
104576
104562
104539
104523
104506
104489
104471
104454
104436
104423
104412
104400
104374
104351
104329
104306
104282
104257
104230
104201
104171
104146
104123
104083
104054
104017
103991
103954
103915
103880
103845
103813
103782
103748
103715
103676
103643
103609
103573
103528
103492
103456
103421
103385
103348
103312
103276
103241
103205
103171
103136
103101
103064
103026
102993
102959
102939
102900
102876
102854
102826
102801
102769
102755
102726
102706
102681
102667
102644
102622
102596
102584
102604
102570
102560
102549
102537
102525
102516
102506
102500
102482
102477
102464
102443
102423
102414
102404
102408
102370
102364
102348
102334
102327
102316
102312
102310
102295
102283
102275
102269
102261
102253
102246
102239
102232
102226
102220
102210
102204
102195
102189
102182
102176
102170
102163
102156
102148
102140
102137
102131
102126
102123
102119
102113
102107
102102
102098
102102
102106
102103
102105
102094
102096
102096
102096
102094
102093
102092
102091
102089
102087
102086
102084
102082
102080
102078
102076
102074
102070
102067
102061
102061
102056
102051
102040
102039
102030
102017
102009
102001
101994
101987
101979
101971
101963
101952
101939
101931
101924
101913
101906
101892
101877
101859
101838
101836
101825
101819
101801
101785
101767
101751
101745
101731
101718
101710
101690
101669
101649
101638
101625
101614
101598
101579
101560
101543
101534
101517
101509
101488
101463
101447
101429
101418
101403
101394
101372
101347
101329
105392
105392
105391
105390
105389
105387
105384
105382
105379
105376
105373
105369
105365
105362
105358
105354
105351
105347
105343
105340
105336
105332
105328
105325
105322
105319
105316
105313
105311
105308
105304
105301
105297
105294
105291
105287
105283
105278
105274
105270
105264
105259
105255
105249
105244
105241
105237
105234
105232
105226
105221
105217
105211
105206
105202
105197
105191
105186
105181
105175
105170
105166
105164
105161
105159
105159
105160
105162
105166
105171
105172
105181
105182
105197
105202
105215
105224
105245
105255
105272
105292
105314
105335
105360
105386
105413
105441
105468
105493
105519
105545
105570
105593
105614
105632
105649
105667
105676
105674
105678
105680
105681
105680
105679
105677
105676
105675
105675
105676
105677
105683
105689
105694
105697
105702
105715
105731
105743
105755
105765
105771
105776
105780
105782
105784
105772
105763
105762
105760
105748
105741
105738
105740
105740
105739
105736
105732
105728
105725
105721
105718
105713
105707
105701
105695
105689
105683
105678
105670
105663
105655
105648
105641
105634
105627
105621
105618
105615
105606
105599
105593
105587
105583
105579
105565
105559
105556
105552
105549
105545
105541
105534
105536
105543
105529
105521
105525
105526
105510
105503
105511
105507
105495
105489
105499
105496
105486
105473
105456
105451
105441
105422
105403
105393
105387
105378
105366
105355
105348
105345
105339
105339
105341
105348
105356
105369
105382
105396
105407
105418
105429
105439
105449
105457
105465
105471
105472
105467
105472
105473
105469
105473
105465
105457
105449
105437
105434
105447
105435
105426
105406
105395
105386
105372
105358
105343
105328
105314
105299
105283
105270
105254
105236
105219
105204
105187
105170
105154
105141
105126
105117
105105
105096
105085
105075
105065
105055
105045
105037
105026
105016
105007
104997
104987
104978
104967
104955
104940
104929
104916
104902
104887
104871
104855
104839
104823
104807
104790
104772
104759
104742
104725
104708
104694
104678
104661
104646
104631
104614
104599
104585
104574
104555
104534
104514
104495
104476
104457
104436
104417
104393
104375
104357
104333
104312
104289
104266
104241
104216
104189
104161
104132
104112
104083
104053
104015
103987
103955
103917
103878
103841
103807
103774
103758
103716
103677
103641
103600
103566
103528
103489
103452
103416
103380
103343
103307
103271
103237
103201
103168
103134
103100
103066
103032
102998
102960
102937
102902
102886
102857
102827
102801
102783
102764
102729
102711
102686
102674
102657
102638
102618
102604
102583
102557
102536
102517
102501
102489
102482
102476
102475
102467
102452
102461
102445
102429
102416
102407
102401
102383
102375
102352
102339
102327
102309
102332
102323
102312
102303
102289
102280
102270
102261
102252
102244
102235
102227
102221
102212
102203
102193
102185
102179
102176
102171
102166
102160
102156
102148
102144
102137
102129
102123
102122
102116
102118
102108
102099
102103
102110
102106
102104
102100
102099
102093
102091
102088
102085
102083
102082
102080
102078
102075
102073
102070
102068
102065
102061
102058
102053
102047
102044
102042
102052
102045
102038
102033
102019
102009
102002
101994
101986
101978
101971
101964
101956
101945
101931
101919
101924
101918
101906
101893
101876
101858
101840
101825
101827
101820
101805
101786
101763
101752
101735
101729
101727
101711
101692
101666
101649
101634
101623
101617
101602
101579
101556
101544
101530
101524
101505
101487
101464
101447
101428
101409
101408
101397
101376
101347
101328
105395
105394
105393
105392
105391
105389
105387
105384
105381
105378
105374
105371
105367
105363
105360
105356
105352
105348
105345
105341
105338
105335
105332
105329
105327
105323
105320
105317
105315
105312
105309
105306
105302
105298
105296
105292
105288
105284
105280
105274
105267
105260
105255
105248
105241
105233
105226
105224
105221
105215
105209
105204
105200
105199
105198
105196
105192
105188
105184
105179
105175
105172
105169
105165
105165
105164
105163
105161
105164
105166
105166
105174
105175
105180
105192
105208
105230
105255
105269
105291
105317
105343
105368
105395
105418
105443
105469
105496
105522
105547
105571
105592
105612
105629
105643
105656
105670
105680
105677
105680
105683
105683
105683
105681
105679
105674
105670
105668
105670
105672
105678
105685
105690
105695
105701
105707
105712
105719
105729
105739
105749
105758
105767
105775
105783
105781
105779
105780
105783
105779
105773
105768
105764
105758
105752
105747
105741
105733
105721
105709
105702
105698
105694
105689
105684
105680
105676
105672
105666
105662
105658
105653
105646
105638
105632
105624
105618
105612
105604
105596
105590
105582
105576
105571
105565
105560
105556
105552
105549
105546
105542
105536
105526
105515
105520
105516
105516
105522
105523
105511
105519
105525
105521
105502
105486
105481
105478
105462
105446
105443
105436
105423
105412
105404
105399
105385
105370
105355
105342
105332
105342
105343
105340
105342
105343
105347
105357
105369
105383
105397
105411
105424
105437
105448
105458
105471
105479
105481
105483
105484
105478
105477
105474
105470
105462
105454
105448
105435
105431
105423
105412
105403
105391
105378
105362
105347
105334
105321
105304
105288
105274
105258
105238
105217
105200
105180
105163
105147
105133
105118
105108
105096
105084
105073
105062
105052
105043
105035
105027
105018
105010
105001
104992
104982
104972
104960
104947
104934
104923
104909
104894
104878
104862
104846
104829
104813
104797
104781
104765
104750
104734
104719
104703
104686
104671
104658
104646
104633
104619
104604
104591
104579
104565
104547
104528
104510
104492
104475
104457
104440
104417
104388
104364
104341
104318
104294
104269
104244
104218
104191
104164
104133
104105
104076
104051
104013
103986
103965
103926
103892
103856
103823
103780
103740
103708
103675
103638
103602
103568
103531
103495
103458
103423
103387
103350
103314
103279
103244
103206
103171
103136
103101
103068
103032
103000
102965
102937
102901
102875
102848
102817
102793
102785
102751
102727
102704
102678
102660
102659
102639
102621
102609
102597
102579
102562
102546
102533
102519
102502
102485
102472
102459
102459
102427
102414
102403
102396
102394
102391
102382
102375
102362
102349
102335
102322
102308
102298
102290
102284
102273
102261
102253
102248
102242
102236
102229
102223
102218
102212
102206
102200
102195
102189
102185
102180
102175
102168
102162
102155
102146
102138
102134
102129
102125
102124
102119
102113
102107
102106
102104
102102
102097
102100
102100
102098
102096
102093
102091
102089
102088
102086
102084
102083
102081
102080
102078
102077
102073
102071
102069
102064
102059
102058
102051
102046
102036
102027
102026
102015
102008
102000
101992
101984
101975
101966
101958
101950
101941
101932
101920
101908
101896
101879
101871
101868
101850
101838
101823
101812
101792
101788
101776
101760
101746
101730
101717
101702
101680
101676
101659
101644
101625
101610
101589
101581
101567
101552
101532
101516
101501
101478
101473
101456
101437
101420
101401
101384
101363
101353
101340
105397
105396
105396
105394
105393
105391
105389
105386
105383
105379
105376
105372
105368
105364
105360
105356
105352
105348
105345
105341
105338
105335
105332
105329
105327
105324
105321
105318
105316
105313
105310
105307
105304
105301
105298
105294
105288
105285
105281
105277
105272
105269
105266
105261
105254
105245
105238
105233
105224
105215
105208
105202
105195
105189
105183
105178
105171
105167
105161
105155
105149
105145
105141
105137
105135
105135
105134
105131
105133
105138
105137
105146
105149
105161
105176
105188
105201
105228
105246
105271
105300
105333
105366
105399
105430
105459
105488
105514
105538
105561
105583
105604
105624
105643
105660
105673
105690
105699
105693
105695
105695
105694
105693
105691
105689
105687
105686
105684
105683
105682
105684
105686
105690
105697
105706
105716
105725
105731
105736
105740
105743
105743
105740
105738
105739
105744
105746
105747
105750
105752
105754
105754
105752
105749
105746
105742
105738
105735
105730
105724
105718
105712
105705
105698
105692
105685
105679
105672
105664
105653
105645
105641
105637
105631
105625
105618
105615
105611
105605
105596
105589
105582
105576
105571
105560
105555
105551
105548
105542
105540
105530
105522
105521
105519
105522
105531
105535
105536
105530
105528
105512
105507
105503
105493
105479
105471
105473
105469
105458
105452
105445
105432
105416
105397
105378
105360
105352
105346
105329
105327
105332
105334
105338
105345
105350
105362
105369
105377
105387
105399
105410
105421
105431
105440
105446
105448
105453
105460
105468
105470
105468
105469
105464
105460
105455
105450
105445
105435
105424
105420
105410
105396
105388
105380
105367
105352
105338
105327
105312
105290
105269
105252
105228
105204
105192
105173
105161
105145
105130
105117
105107
105094
105083
105073
105063
105054
105046
105037
105031
105021
105013
105004
104995
104985
104974
104962
104949
104937
104925
104910
104896
104881
104864
104848
104832
104815
104799
104782
104766
104751
104734
104720
104706
104691
104678
104664
104649
104634
104620
104598
104577
104562
104550
104535
104519
104503
104487
104470
104453
104438
104417
104390
104369
104346
104322
104298
104274
104248
104223
104196
104167
104133
104105
104077
104047
104014
103984
103954
103920
103886
103847
103812
103775
103739
103709
103675
103640
103607
103571
103535
103500
103464
103429
103393
103356
103318
103280
103240
103201
103165
103129
103094
103061
103025
102993
102959
102933
102903
102878
102850
102824
102802
102766
102744
102719
102697
102672
102653
102632
102613
102592
102582
102571
102559
102548
102538
102529
102520
102510
102499
102492
102480
102477
102455
102442
102431
102415
102400
102386
102373
102364
102354
102344
102335
102323
102313
102304
102297
102293
102284
102280
102278
102275
102267
102257
102248
102239
102232
102224
102216
102210
102206
102195
102184
102176
102169
102160
102151
102147
102141
102135
102133
102128
102124
102118
102115
102110
102104
102103
102103
102101
102099
102094
102091
102088
102087
102085
102084
102082
102081
102080
102078
102077
102075
102073
102071
102064
102058
102057
102059
102058
102055
102053
102049
102044
102037
102031
102026
102016
102010
102002
101994
101984
101975
101965
101956
101947
101937
101928
101919
101910
101898
101887
101874
101860
101847
101834
101824
101814
101800
101785
101771
101758
101743
101729
101719
101705
101689
101670
101654
101640
101625
101612
101597
101580
101562
101548
101531
101518
101503
101486
101465
101450
101434
101416
101403
101388
101370
101350
101332
105400
105399
105399
105397
105396
105393
105391
105389
105386
105383
105379
105374
105371
105367
105363
105358
105353
105349
105345
105342
105338
105335
105332
105329
105327
105324
105322
105320
105318
105315
105312
105309
105306
105303
105300
105296
105292
105289
105285
105280
105274
105269
105266
105260
105254
105248
105242
105238
105230
105222
105214
105206
105198
105191
105184
105178
105169
105165
105159
105153
105147
105142
105139
105131
105128
105131
105131
105128
105130
105132
105135
105144
105147
105166
105177
105197
105230
105239
105266
105284
105305
105324
105346
105377
105410
105443
105478
105511
105539
105564
105586
105606
105623
105638
105653
105667
105682
105691
105687
105690
105689
105686
105681
105676
105672
105671
105671
105671
105672
105675
105679
105682
105685
105689
105696
105707
105720
105731
105739
105746
105754
105761
105763
105762
105762
105761
105759
105757
105755
105752
105750
105747
105743
105739
105733
105725
105717
105713
105711
105709
105705
105701
105697
105692
105688
105683
105678
105674
105670
105662
105654
105645
105637
105630
105623
105613
105607
105599
105594
105587
105581
105575
105571
105566
105559
105553
105547
105545
105535
105533
105530
105522
105523
105528
105528
105529
105528
105520
105514
105510
105500
105501
105496
105492
105490
105484
105478
105473
105463
105446
105426
105413
105396
105384
105377
105354
105356
105345
105332
105318
105323
105315
105319
105322
105338
105346
105359
105372
105385
105399
105412
105425
105437
105452
105464
105469
105470
105471
105475
105476
105475
105475
105470
105465
105457
105450
105445
105430
105418
105414
105410
105403
105394
105388
105380
105367
105346
105324
105308
105284
105258
105239
105226
105205
105194
105173
105159
105144
105125
105109
105099
105086
105076
105066
105057
105049
105042
105034
105028
105020
105012
105003
104994
104984
104973
104962
104949
104936
104925
104910
104894
104879
104862
104845
104829
104811
104794
104780
104762
104748
104731
104717
104703
104692
104679
104667
104654
104641
104630
104615
104596
104580
104562
104544
104527
104509
104490
104470
104443
104422
104404
104386
104364
104342
104319
104296
104273
104248
104223
104196
104169
104136
104107
104079
104051
104019
103986
103956
103920
103887
103850
103817
103782
103747
103717
103684
103650
103612
103575
103539
103503
103468
103430
103390
103351
103312
103270
103230
103194
103160
103125
103093
103059
103026
102996
102961
102934
102904
102877
102852
102827
102802
102777
102755
102731
102710
102690
102671
102655
102634
102616
102600
102580
102556
102537
102519
102504
102491
102479
102470
102465
102457
102454
102440
102433
102428
102417
102404
102392
102383
102374
102363
102348
102338
102328
102318
102311
102305
102297
102285
102275
102265
102255
102243
102235
102227
102218
102215
102211
102206
102200
102190
102179
102169
102163
102161
102155
102144
102145
102144
102139
102133
102127
102123
102118
102115
102111
102106
102103
102102
102101
102100
102098
102094
102092
102091
102089
102087
102086
102085
102085
102084
102084
102083
102080
102080
102078
102073
102071
102068
102064
102059
102053
102044
102038
102034
102029
102023
102016
102009
102002
101995
101986
101977
101969
101960
101951
101941
101931
101919
101908
101897
101884
101872
101862
101849
101837
101824
101812
101797
101786
101773
101759
101746
101730
101717
101703
101686
101673
101657
101642
101625
101612
101594
101581
101564
101550
101532
101517
101501
101485
101469
101453
101436
101418
101402
101385
101367
101350
101336
105405
105403
105403
105401
105400
105397
105395
105392
105388
105384
105379
105375
105372
105368
105363
105358
105354
105351
105347
105343
105339
105336
105333
105331
105328
105326
105323
105322
105320
105318
105316
105314
105311
105308
105304
105302
105297
105294
105291
105286
105279
105273
105270
105263
105255
105249
105242
105235
105228
105219
105212
105203
105195
105188
105179
105173
105164
105159
105155
105146
105140
105134
105129
105126
105119
105119
105117
105111
105115
105120
105119
105133
105146
105142
105170
105210
105215
105240
105280
105294
105324
105348
105376
105405
105436
105460
105483
105508
105534
105561
105586
105608
105630
105650
105667
105680
105695
105703
105698
105699
105698
105694
105691
105686
105683
105680
105674
105670
105668
105667
105669
105672
105677
105683
105689
105696
105702
105706
105712
105716
105722
105732
105741
105747
105750
105753
105753
105752
105752
105751
105749
105747
105744
105741
105737
105733
105728
105723
105717
105711
105705
105700
105694
105688
105682
105674
105666
105659
105656
105652
105647
105641
105634
105628
105623
105616
105607
105599
105591
105582
105575
105568
105559
105555
105549
105542
105539
105535
105529
105526
105521
105519
105517
105517
105512
105512
105515
105515
105512
105509
105501
105503
105499
105494
105486
105483
105472
105463
105448
105433
105418
105407
105399
105388
105377
105361
105341
105335
105328
105315
105309
105314
105321
105322
105330
105341
105351
105362
105375
105387
105400
105411
105419
105428
105442
105451
105457
105462
105466
105468
105469
105470
105467
105464
105458
105451
105444
105435
105432
105428
105423
105417
105405
105381
105362
105348
105328
105306
105291
105278
105259
105242
105225
105206
105179
105157
105144
105124
105113
105098
105090
105081
105074
105064
105055
105048
105041
105034
105028
105021
105013
105005
104996
104986
104975
104964
104951
104937
104924
104909
104896
104880
104862
104850
104830
104811
104798
104781
104765
104748
104731
104717
104701
104686
104671
104657
104635
104617
104607
104598
104584
104571
104557
104542
104527
104510
104493
104477
104457
104436
104412
104390
104367
104344
104320
104296
104271
104245
104219
104190
104163
104133
104106
104077
104047
104017
103984
103954
103919
103886
103852
103820
103786
103749
103712
103675
103642
103609
103574
103537
103498
103461
103421
103382
103344
103308
103270
103226
103199
103164
103129
103093
103059
103024
102992
102959
102930
102902
102873
102842
102814
102792
102769
102746
102723
102703
102683
102665
102651
102635
102617
102604
102590
102572
102557
102543
102529
102514
102499
102485
102474
102462
102453
102431
102418
102408
102401
102393
102383
102373
102366
102359
102346
102335
102327
102318
102303
102295
102288
102280
102273
102265
102256
102247
102246
102245
102237
102225
102218
102212
102203
102188
102184
102179
102167
102169
102166
102159
102149
102141
102133
102128
102122
102119
102113
102110
102107
102103
102101
102099
102097
102096
102092
102091
102089
102088
102087
102086
102084
102083
102082
102080
102079
102073
102067
102069
102070
102067
102066
102064
102062
102058
102054
102049
102044
102038
102031
102025
102018
102010
102002
101992
101982
101974
101967
101959
101950
101940
101930
101919
101908
101897
101886
101874
101862
101849
101836
101824
101812
101799
101785
101772
101758
101744
101730
101717
101703
101688
101672
101657
101640
101625
101611
101596
101581
101564
101548
101531
101517
101501
101485
101468
101452
101435
101418
101402
101386
101368
101350
101333
105410
105406
105408
105406
105406
105403
105400
105397
105393
105389
105384
105379
105374
105370
105364
105358
105354
105350
105345
105342
105339
105336
105333
105331
105328
105326
105324
105323
105322
105320
105317
105316
105314
105311
105309
105305
105301
105297
105293
105289
105283
105276
105271
105265
105257
105250
105242
105235
105227
105218
105210
105202
105193
105185
105176
105169
105157
105153
105144
105137
105132
105126
105124
105111
105113
105114
105117
105109
105109
105115
105119
105114
105119
105132
105135
105166
105188
105200
105232
105254
105275
105317
105353
105393
105437
105473
105503
105527
105551
105575
105596
105612
105626
105641
105656
105670
105684
105693
105692
105694
105692
105688
105683
105679
105676
105673
105671
105670
105670
105671
105674
105676
105680
105685
105691
105698
105705
105711
105717
105723
105728
105732
105736
105740
105742
105743
105742
105742
105741
105739
105737
105735
105732
105729
105726
105724
105721
105718
105713
105709
105704
105700
105694
105689
105685
105680
105672
105663
105655
105648
105641
105633
105625
105618
105611
105606
105601
105593
105586
105579
105574
105566
105556