/*--------------------------------*- C++ -*----------------------------------*\
| =========                 |                                                 |
| \\      /  F ield         | OpenFOAM: The Open Source CFD Toolbox           |
|  \\    /   O peration     | Version:  v1812                                 |
|   \\  /    A nd           | Web:      www.OpenFOAM.com                      |
|    \\/     M anipulation  |                                                 |
\*---------------------------------------------------------------------------*/
FoamFile
{
    version     2.0;
    format      ascii;
    class       surfaceScalarField;
    location    "1.3";
    object      phi;
}
// * * * * * * * * * * * * * * * * * * * * * * * * * * * * * * * * * * * * * //

dimensions      [1 0 -1 0 0 0 0];
oriented        oriented;


internalField   nonuniform List<scalar> 
40240
(
5.46919e-05
-7.89158e-05
9.07497e-05
-6.06275e-05
0.00010517
-3.91568e-05
0.000126117
-4.56246e-05
0.000157838
-5.71849e-05
0.000193574
-6.18108e-05
0.000222984
-5.64219e-05
0.000234708
-3.92993e-05
0.000234755
-2.88271e-05
0.000229734
-2.42742e-05
0.000237896
-3.79874e-05
0.000256509
-4.89839e-05
0.000271717
-4.62044e-05
0.000275738
-3.57059e-05
0.000289053
-4.52755e-05
0.000304364
-4.76409e-05
0.000318797
-4.71302e-05
0.000342005
-5.64636e-05
0.000381243
-7.31684e-05
0.000439282
-9.28567e-05
0.000518688
-0.000115184
0.000623663
-0.000141711
0.000761703
-0.000175688
0.000942624
-0.000219498
0.00116503
-0.000261913
0.00140025
-0.000275319
0.00165234
-0.00029373
0.00191961
-0.000309983
0.00219784
-0.000320948
0.00248712
-0.000331322
0.00278378
-0.00033893
0.00307583
-0.000336569
0.00335108
-0.000322798
0.00361169
-0.000309604
0.00385916
-0.000295819
0.0040578
-0.000247313
0.00420512
-0.000196504
0.00434491
-0.000189281
0.00451816
-0.000223068
0.00471678
-0.000248753
0.0049094
-0.000242682
0.00510308
-0.00024386
0.00531177
-0.000259118
0.00545989
-0.000198871
0.00551151
-0.00010227
0.00550501
-4.48913e-05
0.00539448
6.02715e-05
0.00519615
0.000148292
0.0049448
0.000202942
0.00470459
0.000194023
0.00448165
0.000175204
0.00417303
0.000262967
0.00380943
0.000318186
0.0033606
0.000404696
0.00286556
0.000452163
0.00233271
0.000490963
0.00173252
0.000559443
0.00104191
0.000650954
0.000226121
0.000777532
-0.000724684
0.000914205
-0.00180847
0.00104915
-0.00298295
0.00114181
-0.00423764
0.00122385
-0.00557135
0.00130497
-0.00694333
0.00134454
-0.00831494
0.00134612
-0.00969983
0.0013609
-0.0111392
0.00141733
-0.0126359
0.00147576
-0.0141264
0.00147176
-0.0156275
0.00148437
-0.0170212
0.00137755
-0.0183038
0.00126855
-0.0194429
0.00112671
-0.020456
0.00100094
-0.0213177
0.000852235
-0.0219873
0.000662076
-0.0225181
0.000525012
-0.022892
0.000369204
-0.0230486
0.000153188
-0.0230425
-7.43343e-06
-0.0228457
-0.000196096
-0.0224112
-0.000432514
-0.0217848
-0.000623087
-0.021045
-0.00073471
-0.0202092
-0.000829603
-0.0193005
-0.000901514
-0.0183413
-0.000951049
-0.0173738
-0.000957949
-0.0164505
-0.00091267
-0.0156039
-0.000835223
-0.0148138
-0.000778439
-0.0140185
-0.000783521
-0.0131711
-0.000834889
-0.0123153
-0.000842074
-0.0115129
-0.000787468
-0.0107263
-0.000770688
-0.0100027
-0.000707134
-0.00962578
-0.000359869
-0.00944751
-0.000162011
-0.0094158
-1.59072e-05
-0.00949739
9.85617e-05
-0.00970016
0.000222064
-0.00998354
0.000303176
-0.0102886
0.000326447
-0.0105775
0.000309451
-0.0108272
0.000270317
-0.0110132
0.000207272
-0.0111238
0.000132841
-0.0111508
5.03591e-05
-0.0110622
-6.54281e-05
-0.0107857
-0.000254109
-0.0103967
-0.000366791
-0.00972824
-0.0006473
-0.00889107
-0.000815354
-0.00791149
-0.000958018
-0.00678909
-0.00110161
-0.00559825
-0.00117073
-0.00442119
-0.00115754
-0.00327228
-0.00112991
-0.00214485
-0.00110935
-0.00105824
-0.00106887
-5.88506e-05
-0.000983248
0.000828305
-0.000872525
0.00169716
-0.000855892
0.00265632
-0.000947135
0.00365429
-0.000989618
0.00451194
-0.000850024
0.00474825
-0.000229
0.00524519
-0.000493553
0.00594344
-0.000697197
0.00669379
-0.000751667
0.00743295
-0.000742588
0.00814491
-0.000717844
0.00881167
-0.000675278
0.00942647
-0.000625429
0.0100054
-0.000591795
0.0105734
-0.000583
0.0111104
-0.000553644
0.0116731
-0.000582115
0.0121974
-0.000546361
0.0126804
-0.000507621
0.0131509
-0.000497176
0.013615
-0.000492152
0.0140657
-0.000480928
0.0144998
-0.000466584
0.0149018
-0.000436822
0.0152456
-0.000381008
0.015513
-0.000306511
0.015716
-0.000244203
0.0158886
-0.000214685
0.0161077
-0.000262248
0.0163683
-0.000307399
0.0165348
-0.0002157
0.016585
-0.000100618
0.016592
-5.84639e-05
0.0165936
-5.32807e-05
0.0166747
-0.000133292
0.0167593
-0.000136932
0.0166943
-3.31975e-06
0.0164594
0.000173875
0.0160536
0.000342983
0.0155234
0.000469321
0.0149272
0.000534496
0.0142915
0.000573727
0.0137054
0.000521927
0.0131945
0.000445207
0.0127611
0.000366685
0.0123725
0.000320857
0.0119483
0.000353908
0.0114607
0.000417818
0.0110381
0.000353367
0.010852
0.000116393
0.0106516
0.000137021
0.0103856
0.00019461
0.0103012
1.97474e-05
0.0101901
4.47735e-05
0.00998731
0.000138308
0.00992614
-1.88792e-06
0.00995415
-9.06216e-05
0.00980291
8.83821e-05
0.0097109
3.42932e-05
0.00977635
-0.000117784
0.00979932
-7.62114e-05
0.00964379
0.000106187
0.00938267
0.00021291
0.00910264
0.00023268
0.00904976
1.12694e-05
0.00855846
0.000446358
0.00743057
0.00109216
0.00593838
0.001458
0.00459578
0.00131284
0.00344849
0.00112064
0.00225595
0.00116946
0.000929993
0.00131004
-0.000372146
0.00128654
-0.00165388
0.00126634
-0.00290334
0.00124612
-0.00405274
0.00114689
-0.00512615
0.00107233
-0.00605273
0.000930364
-0.00673219
0.000686512
-0.00720108
0.00048091
-0.00748178
0.000297086
-0.00753171
7.11234e-05
-0.00736402
-0.000144314
-0.00694256
-0.000393947
-0.00626485
-0.000646429
-0.00535902
-0.000871153
-0.004285
-0.00103572
-0.00309253
-0.00115075
-0.00181381
-0.00123367
-0.000491524
-0.00127429
0.00079718
-0.00123926
0.00204115
-0.00119187
0.00322761
-0.00113298
0.00433332
-0.0010505
0.00537185
-0.000980568
0.00625555
-0.000822137
0.00678936
-0.00047065
0.00744155
-0.000590873
0.00838038
-0.000879389
0.0093114
-0.000867845
0.0101075
-0.000734605
0.0107051
-0.000534215
0.011019
-0.000244978
0.0112677
-0.000181258
0.0115047
-0.000169074
0.0117509
-0.000176791
0.0118334
-1.34692e-05
0.0120508
-0.000144576
0.0121689
-4.40697e-05
0.0123461
-9.98231e-05
0.0125069
-8.27811e-05
0.0126178
-2.99699e-05
0.0126545
4.79656e-05
0.0126475
8.91303e-05
0.0124833
0.000249934
0.0120985
0.000471706
0.0115744
0.000612387
0.0109705
0.000692212
0.0103311
0.000727889
0.00970921
0.000711609
0.00931316
0.000484528
0.00900209
0.000399864
0.00853113
0.000559438
0.00810992
0.000513313
0.00764952
0.000548226
0.00714793
0.000591521
0.00668947
0.000547592
0.00634576
0.000431718
0.00607715
0.000357408
0.00593179
0.000232791
0.00589927
0.000120129
0.00595242
3.42718e-05
0.0061599
-0.00012109
0.00646827
-0.00022219
0.00679921
-0.00024471
0.00713063
-0.000245695
0.00740994
-0.000194153
0.0076694
-0.000175024
0.00791745
-0.000164792
0.00811777
-0.00011904
0.00823648
-3.74897e-05
0.00827023
4.25018e-05
0.00819107
0.000159571
0.00800793
0.000258714
0.00796147
0.000122083
0.00787772
0.000159106
0.00770843
0.000244499
0.00743294
0.000350919
0.00708915
0.000419352
0.00668836
0.000475558
0.00621672
0.000544015
0.00568039
0.000605139
0.00511114
0.00063848
0.00455696
0.000629055
0.00404349
0.00059135
0.0036274
0.000497887
0.0033484
0.000325896
0.00307862
0.000336247
0.00305707
0.000103475
0.0030379
9.35681e-05
0.00300231
0.000113397
0.00298248
9.29677e-05
0.00295971
9.86981e-05
0.00296781
6.80885e-05
0.00303769
8.10321e-06
0.00313613
-3.523e-05
0.00331734
-0.000112461
0.00356719
-0.000182601
0.00377535
-0.00012975
0.00402882
-0.000187563
0.00435254
-0.000250497
0.00479301
-0.000365224
0.00532984
-0.000458845
0.00595548
-0.000545767
0.00666875
-0.000631895
0.00743577
-0.000685544
0.00803837
-0.000519737
0.00817225
-5.00772e-05
0.00852919
-0.000272256
0.0090353
-0.000419229
0.00973479
-0.000611834
0.0104562
-0.000632817
0.0111591
-0.000613187
0.0118506
-0.0006006
0.0125236
-0.000580348
0.0132007
-0.00058271
0.0138769
-0.000579737
0.0144916
-0.000515817
0.0149801
-0.000386851
0.0153856
-0.000301399
0.0158609
-0.000369955
0.0160825
-0.0001081
0.0166538
-0.000464575
0.0170256
-0.000262188
0.0171803
-4.14449e-05
0.0174367
-0.000144204
0.0177758
-0.000224716
0.0181935
-0.000303775
0.018488
-0.000182721
0.0186169
-9.41935e-06
0.0188224
-7.4946e-05
0.0191387
-0.000188297
0.0194363
-0.00016876
0.0195634
1.14233e-06
0.0197672
-8.36206e-05
0.0198186
6.92007e-05
0.0197775
0.000167203
0.019757
0.000147981
0.0197364
0.00014973
0.0196757
0.000190131
0.0195612
0.000245087
0.0193886
0.000303826
0.0191396
0.000380374
0.0187884
0.000482548
0.0183537
0.000566086
0.0178653
0.000620135
0.0173685
0.000628489
0.0168921
0.000608035
0.0165
0.000524517
0.0162003
0.000432127
0.0159549
0.000377693
0.015775
0.000309811
0.0156786
0.000228826
0.0151179
0.000691569
0.0148772
0.000372177
0.0147396
0.00026735
0.0145725
0.0002946
0.0144703
0.000230259
0.0144506
0.000148406
0.0144714
0.000105948
0.0139044
0.000694652
0.0137081
0.000322465
0.0137631
7.00941e-05
0.0137441
0.000144758
0.0139257
-5.93255e-05
0.0143875
-0.000341757
0.0151423
-0.000633651
0.0158876
-0.000627833
0.0162336
-0.000223683
0.0160989
0.000260383
0.0159666
0.000253504
0.0160096
8.09691e-05
0.0163304
-0.000203571
0.0168069
-0.000360668
0.0173089
-0.000388261
0.0178025
-0.000382549
0.018357
-0.000448137
0.019167
-0.00071076
0.0200978
-0.000832037
0.0210859
-0.000891191
0.0215674
-0.000379709
0.0219395
-0.000269486
0.0223267
-0.000288056
0.022685
-0.000260441
0.0229413
-0.000166969
0.0232225
-0.000191072
0.0234554
-0.000145142
0.023494
4.77699e-05
0.0234923
8.82313e-05
0.0233345
0.000236228
0.0231935
0.000227619
0.023271
2.86426e-05
0.0233922
-4.27688e-05
0.0235101
-4.62089e-05
0.0236189
-3.55681e-05
0.0237766
-8.54771e-05
0.0239291
-7.9549e-05
0.0240622
-6.64728e-05
0.0241364
-7.46859e-06
0.0241477
5.18694e-05
0.0241227
8.71801e-05
0.0240536
0.000132751
0.023956
0.000159011
0.0238439
0.000171796
0.0237211
0.000180123
0.0235991
0.000177095
0.0234114
0.000243267
0.0231826
0.000283332
0.0228635
0.000370287
0.0225142
0.000398423
0.0221137
0.00044744
0.0216925
0.000466916
0.0213034
0.000433231
0.0209553
0.000389779
0.0206449
0.000350706
0.0203886
0.000295119
0.0201689
0.000257462
0.019913
0.000297037
0.0194964
0.00045187
0.0189256
0.000604025
0.0185356
0.000420986
0.0182985
0.000266645
0.0181057
0.000219474
0.0179784
0.000152546
0.0177551
0.000246415
0.0176868
8.90584e-05
0.0176647
4.18921e-05
0.0176431
3.97856e-05
0.0177576
-9.75677e-05
0.0177668
9.92765e-06
0.017285
0.000494013
0.0168871
0.000406593
0.0166678
0.000226432
0.0166078
6.50433e-05
0.0165975
1.32549e-05
0.016606
-7.36525e-06
0.016642
-3.66974e-05
0.0167072
-6.80879e-05
0.0167926
-9.06654e-05
0.016889
-0.00010427
0.0169898
-0.000111481
0.0170928
-0.000116497
0.0171946
-0.000118017
0.0172988
-0.000122825
0.0174058
-0.000127447
0.0175085
-0.000125237
0.0176051
-0.000120453
0.0176864
-0.000106843
0.0177586
-9.88691e-05
0.0179037
-0.000173995
0.0181939
-0.000320742
0.0184025
-0.00024132
0.018724
-0.000358536
0.0189261
-0.000242604
0.0190619
-0.000177368
0.0190819
-6.34603e-05
0.0190918
-5.37254e-05
0.0191018
-5.51278e-05
0.0191088
-5.29302e-05
0.0191204
-5.891e-05
0.0191425
-7.11946e-05
0.0191863
-9.45896e-05
0.0192307
-9.82163e-05
0.0192498
-7.57267e-05
0.0191833
1.18533e-05
0.0190899
3.66287e-05
0.0191548
-0.000122113
0.0193063
-0.000208498
0.0195033
-0.000253282
0.0195522
-0.000106421
0.0195198
-2.47668e-05
0.0193517
0.000111176
0.0192263
6.74068e-05
0.0190654
0.000103322
0.0190678
-6.06998e-05
0.0191428
-0.000132273
0.0192116
-0.000128409
0.019114
4.08983e-05
0.0190753
-1.86499e-05
0.0188286
0.000191652
0.0186328
0.000143337
0.0186874
-0.000106905
0.0188437
-0.000206784
0.0189254
-0.000131109
0.0188837
-8.82614e-06
0.0186699
0.000166063
0.0185463
7.1584e-05
0.0183485
0.000154063
0.018305
-2.78385e-07
0.018383
-0.000118027
0.0183926
-5.01527e-05
0.0182649
8.77067e-05
0.0182161
9.02998e-06
0.018031
0.000149465
0.0179987
-5.58091e-06
0.0180798
-0.000111769
0.0181543
-0.000103822
0.0181812
-4.89131e-05
0.0181455
9.22512e-06
0.0180818
4.63497e-05
0.0178926
0.000176094
0.0177693
0.000113757
0.0178507
-9.21888e-05
0.017963
-0.000120416
0.0180548
-0.000100608
0.0180916
-4.14669e-05
-1.46168e-05
8.83882e-05
-0.000190329
0.000147661
-0.000143371
0.000181232
-9.49666e-05
0.000221016
-0.000108614
0.000268281
-0.000128477
0.000318485
-0.000136726
0.000368113
-0.000131714
0.000415416
-0.000112969
0.000461293
-0.000101772
0.000507414
-9.79194e-05
0.000562824
-0.000121692
0.000624504
-0.000139653
0.000691745
-0.000143123
0.000765246
-0.000139575
0.000848787
-0.000159667
0.000941181
-0.000171462
0.00104339
-0.000181353
0.00115851
-0.000204337
0.00128697
-0.000235244
0.00142843
-0.000268918
0.00158344
-0.000305781
0.00175243
-0.000347137
0.00193576
-0.000396346
0.00213304
-0.000455514
0.00234764
-0.000516866
0.00262568
-0.00059544
0.00294023
-0.000647725
0.00327605
-0.000684212
0.00362216
-0.000707985
0.00397082
-0.000726178
0.00431363
-0.000730111
0.0046369
-0.000704392
0.00492523
-0.000650481
0.00518134
-0.000606496
0.00540354
-0.000563931
0.00559732
-0.00048794
0.00576241
-0.000409326
0.00590237
-0.00037785
0.00602552
-0.000395269
0.00612036
-0.00039284
0.00617967
-0.000351095
0.00620765
-0.000321043
0.00621282
-0.00031342
0.00618206
-0.000217401
0.00609659
-6.61649e-05
0.00595931
4.28553e-05
0.00576648
0.000204166
0.00551982
0.000346374
0.00523191
0.000443159
0.00484346
0.000537026
0.00406175
0.000909999
0.00293461
0.00134478
0.00157018
0.00163778
5.37038e-05
0.00187726
-0.00152739
0.00199031
-0.00310348
0.00202507
-0.00463732
0.00205249
-0.00612075
0.00209472
-0.00759036
0.00220893
-0.0091256
0.00241311
-0.0109241
0.00281361
-0.0130971
0.00328281
-0.0156166
0.00371302
-0.0183889
0.00404854
-0.0212493
0.00417729
-0.0240956
0.00416621
-0.0268741
0.00411465
-0.0295498
0.00406958
-0.0320448
0.00394813
-0.0342385
0.00364488
-0.0361582
0.00338481
-0.0377579
0.00295913
-0.0391221
0.00261599
-0.040243
0.00223301
-0.0411168
0.00185816
-0.0417759
0.00149706
-0.0422343
0.00110962
-0.0425862
0.000867301
-0.0428265
0.000600611
-0.0428119
0.000132039
-0.0424722
-0.000352391
-0.0418268
-0.000845189
-0.0409845
-0.00127639
-0.0399833
-0.00162423
-0.0388782
-0.00183806
-0.0377005
-0.0020045
-0.036499
-0.00209962
-0.0353124
-0.00213357
-0.0341419
-0.00212358
-0.0329513
-0.00209796
-0.0316712
-0.00210938
-0.0302322
-0.00221079
-0.0286194
-0.00238785
-0.0268988
-0.00254538
-0.0251746
-0.00255429
-0.0235897
-0.0023588
-0.0222919
-0.00205352
-0.0214523
-0.00153122
-0.02089
-0.000906141
-0.0204031
-0.000631886
-0.019982
-0.000419384
-0.01963
-0.00023431
-0.019293
-9.58683e-05
-0.0189525
-1.52654e-05
-0.0186084
2.78853e-06
-0.0182356
-4.13784e-05
-0.0178189
-0.0001247
-0.0173529
-0.000237756
-0.0168369
-0.000362892
-0.0162715
-0.000494964
-0.0156221
-0.000695097
-0.014819
-0.00103721
-0.0136801
-0.00148519
-0.0120441
-0.00226407
-0.0101617
-0.00268039
-0.00845044
-0.00265255
-0.00700515
-0.0025307
-0.00571192
-0.00244869
-0.00449246
-0.00236261
-0.00331975
-0.00228928
-0.00218779
-0.00222844
-0.00111973
-0.00212597
7.22294e-05
-0.00216547
0.00166512
-0.00245693
0.00371182
-0.00289627
0.00608807
-0.00331886
0.00863152
-0.00353243
0.01115
-0.00336934
0.0135566
-0.00263776
0.0154516
-0.00239188
0.0171731
-0.00242381
0.0187225
-0.00230825
0.0200341
-0.00206273
0.0211169
-0.0018107
0.0220798
-0.0016498
0.023024
-0.00158299
0.0239868
-0.00157017
0.0249751
-0.00158915
0.0260063
-0.00160442
0.0270418
-0.00164001
0.0280552
-0.00158455
0.0290292
-0.00150795
0.02999
-0.00148623
0.0309613
-0.00149288
0.0319635
-0.00151447
0.0330306
-0.00156696
0.0341989
-0.00164046
0.0354912
-0.00171088
0.036901
-0.00175537
0.0383394
-0.00172406
0.0395571
-0.00147605
0.0402695
-0.0010244
0.04048
-0.000568575
0.0404808
-0.000268019
0.0404616
-0.000132949
0.0405037
-0.000154367
0.0406004
-0.000206399
0.040659
-0.00024927
0.0407369
-0.000274877
0.0406566
1.13506e-05
0.0404737
0.000292724
0.0401388
0.000611639
0.0396079
0.000935458
0.0388231
0.00125348
0.0377905
0.00154242
0.0367088
0.00153858
0.035717
0.00137082
0.0348822
0.00113554
0.03418
0.000956699
0.0334328
0.00103265
0.0323907
0.00138859
0.0308314
0.00184236
0.0290921
0.00178346
0.0275932
0.00156841
0.0265249
0.00119463
0.02586
0.000621638
0.0254597
0.000379685
0.0252493
0.000283312
0.0252239
-3.98157e-05
0.0252831
-0.000216005
0.0252194
8.06356e-05
0.0245059
0.000682675
0.0230259
0.00130416
0.0212486
0.00164481
0.019494
0.00180779
0.0177765
0.00188015
0.0157994
0.00215591
0.0132429
0.0025239
0.0111215
0.00253015
0.00934768
0.00282717
0.00767533
0.00309301
0.00607738
0.00287828
0.0046199
0.0025485
0.00320198
0.0025599
0.00177648
0.00271096
0.000419433
0.00262189
-0.000733045
0.00240998
-0.0018459
0.00234789
-0.00289271
0.00218148
-0.0038847
0.00205441
-0.0047112
0.0017531
-0.00521351
0.00118781
-0.00531323
0.000586532
-0.00522482
0.000217413
-0.00492644
-0.000213967
-0.00435869
-0.00069651
-0.00358075
-0.00115101
-0.00257928
-0.00162238
-0.00133766
-0.00208253
0.000115819
-0.00245403
0.00173411
-0.00272892
0.00347938
-0.00293387
0.00533947
-0.00308456
0.00734683
-0.00319122
0.00954267
-0.0033286
0.0117712
-0.00329993
0.0138652
-0.00307975
0.0158629
-0.00291055
0.0176852
-0.00257531
0.0189942
-0.00170907
0.0199533
-0.00148513
0.0207352
-0.00159706
0.0217637
-0.00182644
0.0228919
-0.00179387
0.0239559
-0.00152883
0.0246892
-0.000907233
0.0249574
-0.000386196
0.0246547
0.000201641
0.0242771
0.000272015
0.024124
0.000207224
0.0240731
-1.95703e-05
0.0241718
-7.02796e-05
0.0243117
-0.000165935
0.0243338
-3.20245e-05
0.0240894
0.000291912
0.0234534
0.000765553
0.0224748
0.00114959
0.0212661
0.00154278
0.0199004
0.00192273
0.0184865
0.00211391
0.0171268
0.00214038
0.0158801
0.00206362
0.014771
0.0019113
0.0137649
0.00158111
0.0127184
0.00153532
0.0116465
0.00172151
0.0107228
0.00152743
0.0102063
0.00115454
0.00985423
0.00103256
0.0096087
0.000883503
0.0094751
0.000656794
0.0094567
0.000464351
0.00942953
0.000347625
0.00939829
0.000239171
0.0094021
0.000117738
0.00942971
-5.7086e-05
0.00947747
-0.00018378
0.00953993
-0.000221529
0.00961046
-0.00023111
0.00967517
-0.000173735
0.00974497
-0.000159375
0.00980406
-0.00013752
0.0098527
-7.95056e-05
0.00987138
2.77173e-05
0.00978917
0.000212623
0.00972413
0.000310159
0.00949849
0.0005728
0.00905614
0.000650112
0.00862624
0.000672301
0.00822383
0.000728419
0.00783102
0.000823904
0.00742498
0.000904927
0.0069829
0.000995963
0.00653087
0.00106969
0.00604904
0.00115927
0.00554557
0.00121393
0.00503962
0.001209
0.00453915
0.00116778
0.00406485
0.00104987
0.0036213
0.000850562
0.00322156
0.000813285
0.0027801
0.000614324
0.00251799
0.000425741
0.00246319
0.000237318
0.00251713
0.000110827
0.00266921
1.74611e-05
0.00284456
-3.58824e-05
0.00299342
-6.63026e-05
0.00315017
-0.000124918
0.00344012
-0.000348101
0.00373895
-0.000425013
0.00389082
-0.000229113
0.00427074
-0.000508061
0.00487088
-0.00078188
0.00559871
-0.00101919
0.00641364
-0.00119591
0.00729352
-0.0013471
0.00823997
-0.00149976
0.00927373
-0.0016413
0.0104805
-0.00164691
0.01231
-0.00179905
0.0142698
-0.00215247
0.0155543
-0.00162052
0.0167059
-0.00167931
0.0178235
-0.0016657
0.0189125
-0.0016166
0.0199672
-0.00156844
0.0210166
-0.00154038
0.0221524
-0.00162683
0.0234384
-0.00177196
0.0248478
-0.00182944
0.0261988
-0.00163932
0.0270966
-0.00110079
0.0275799
-0.000750985
0.0279725
-0.000394617
0.0281623
-0.000545281
0.0283773
-0.000368559
0.0285011
-5.1714e-05
0.0288497
-0.000378426
0.0295051
-0.000764293
0.0304316
-0.00111257
0.031482
-0.00111507
0.0321787
-0.000586911
0.0320984
0.000126572
0.0319075
0.000133236
0.0319043
-3.90151e-05
0.0320633
-3.29383e-05
0.0321413
-3.97304e-05
0.0321554
0.000180121
0.0321448
0.000305302
0.032144
0.000276819
0.0320676
0.000354832
0.0317801
0.000606061
0.0312495
0.000905292
0.0305444
0.00113925
0.0297664
0.00128936
0.0289733
0.00140683
0.0281919
0.00147847
0.0274215
0.00152179
0.0266888
0.00149182
0.0259773
0.00144955
0.0252569
0.00137514
0.0245036
0.00131385
0.0237123
0.00129838
0.0230525
0.0010977
0.0227317
0.00068332
0.02267
0.000881987
0.0225369
0.000635266
0.0220969
0.00083521
0.0218369
0.0006803
0.021712
0.000482013
0.0216149
0.000372643
0.0215591
0.00028762
0.0215749
0.000804201
0.0213992
0.000623192
0.021574
2.30015e-05
0.0220368
-0.000192508
0.0226486
-0.000548944
0.0231201
-0.000692203
0.0234274
-0.000815516
0.0236592
-0.000743585
0.0240813
-0.000524289
0.024527
-5.47036e-05
0.0254592
-0.000566994
0.0266874
-0.00103239
0.028088
-0.00148881
0.0295763
-0.0017337
0.0310843
-0.0017838
0.032473
-0.00166297
0.0335768
-0.00144965
0.0346449
-0.00167116
0.0360746
-0.00215363
0.0378443
-0.00256251
0.0389962
-0.00143359
0.0394454
-0.000613592
0.0397201
-0.000462329
0.0400672
-0.000508105
0.0404441
-0.000454084
0.0407135
-0.000368236
0.0410968
-0.000440351
0.0412473
-1.66828e-05
0.0416909
-0.000268682
0.0425361
-0.000522761
0.0433803
-0.000533122
0.0436038
-0.000142443
0.0430387
0.000601033
0.0424602
0.000614373
0.0421009
0.000396698
0.0418438
0.000241292
0.0415252
0.000307068
0.0411731
0.00035275
0.0408312
0.000397519
0.0405015
0.000449165
0.0401856
0.000466521
0.0398912
0.00049
0.0396075
0.00050412
0.0393198
0.000519785
0.0390104
0.000547976
0.0387886
0.000453772
0.038663
0.000425204
0.0385677
0.00043222
0.0384192
0.000568425
0.0380797
0.000785536
0.0375485
0.00102458
0.0368886
0.00117055
0.0361829
0.00118049
0.0354501
0.00116218
0.0346653
0.001172
0.0337795
0.0012166
0.0328616
0.00120759
0.0320875
0.00110947
0.0317364
0.000839423
0.0316735
0.000694426
0.031372
0.000754261
0.0307546
0.000911946
0.0300365
0.000963468
0.0297628
0.000449701
0.029806
0.000227241
0.0295661
0.000351569
0.0289108
0.00071664
0.0281814
0.000786157
0.0275822
0.000517949
0.0273494
0.000254224
0.0273992
0.000455706
0.0274031
0.000412259
0.0274518
0.000185323
0.0275689
-4.65925e-05
0.0277477
-0.000162052
0.0279432
-0.000201474
0.0281329
-0.000226829
0.0283121
-0.000249761
0.0284918
-0.000274896
0.0286885
-0.00030802
0.0289181
-0.000350896
0.0291951
-0.000406148
0.0295198
-0.000458228
0.0298983
-0.000519309
0.0303373
-0.000586452
0.0308434
-0.000653475
0.0314026
-0.000704013
0.0320384
-0.000768701
0.0327782
-0.000867306
0.0334754
-0.000900416
0.0335674
-0.000443115
0.0333858
-9.10048e-05
0.0331653
-0.00017434
0.0331607
-0.000270299
0.0334875
-0.000544385
0.0338058
-0.000424737
0.0340822
-0.00037404
0.0343495
-0.000367664
0.0346545
-0.000404296
0.0349897
-0.000442304
0.035273
-0.000403916
0.0354579
-0.000329382
0.0356266
-0.000318011
0.0359368
-0.000439309
0.0365015
-0.000608599
0.0369858
-0.000506354
0.0369706
-0.000167272
0.0364375
0.000269233
0.0358063
0.000322986
0.035369
0.000273203
0.0352234
6.80575e-05
0.0354578
-0.000183434
0.0360161
-0.000547615
0.0364346
-0.000372991
0.0362803
2.94685e-05
0.0355932
0.000497195
0.0351369
0.00026871
0.0351427
-1.78077e-05
0.035483
-0.000411215
0.0361879
-0.000569018
0.0367997
-0.000521984
0.0367575
-0.00013043
0.0359884
0.000510549
0.0350549
0.000751868
0.0345455
0.00044979
0.0345672
9.87956e-05
0.0349465
-0.000354527
0.0353972
-0.000344484
0.0353769
-2.86924e-05
0.0347462
0.000472863
0.0342484
0.000405712
0.0341715
0.000127513
0.0344899
-0.000342329
0.0349823
-0.000381258
0.0350997
-0.000160614
0.0346196
0.000335949
0.0340554
0.000429961
0.0337083
0.000276376
0.0337828
-8.71087e-05
0.0342802
-0.000466586
0.0350723
-0.000627036
0.0355987
-0.000425107
0.0354515
3.6923e-05
0.0348261
0.000494816
0.0344844
0.000234308
0.0346874
-0.000245619
-0.000123832
3.93007e-05
-0.000253091
7.28964e-05
-0.000200868
8.46551e-05
-0.000130967
0.00010157
-0.000150165
0.00011101
-0.000162788
0.000115003
-0.000165665
0.000116517
-0.000160065
0.000108635
-0.000132316
8.73061e-05
-0.000108093
6.5518e-05
-0.000104451
4.57948e-05
-0.000131075
2.63685e-05
-0.000149693
-6.93007e-07
-0.000146438
-4.29189e-06
-0.000167138
2.36623e-05
-0.000219204
0.000119933
-0.000299885
0.000263202
-0.000357274
0.000439664
-0.000414161
0.000644445
-0.000474081
0.000876069
-0.000535449
0.00113247
-0.000598066
0.00140743
-0.000658976
0.00169176
-0.000718464
0.00197614
-0.000778232
0.00225018
-0.000829766
0.00252032
-0.000905334
0.00281353
-0.000983045
0.00313367
-0.00104733
0.00347295
-0.00108938
0.00382038
-0.0011148
0.0041603
-0.001113
0.00447682
-0.0010676
0.0047647
-0.000987107
0.00502687
-0.000915625
0.00525482
-0.000837334
0.005436
-0.000716861
0.00557492
-0.000597104
0.00568257
-0.000535087
0.00576832
-0.000530989
0.00580344
-0.000478724
0.00574637
-0.000344871
0.005588
-0.000213318
0.00537842
-0.000154693
0.00510515
5.04725e-06
0.00472062
0.0002678
0.0042342
0.000478692
0.00365172
0.000736515
0.00296716
0.00098161
0.00219822
0.0011634
0.00127938
0.00140937
0.000263915
0.00187913
-0.00106711
0.00262991
-0.00290672
0.00343215
-0.00518443
0.00411046
-0.0077787
0.00454079
-0.0105487
0.00475191
-0.013391
0.00485233
-0.0162527
0.00491489
-0.0191613
0.00507745
-0.022109
0.00532242
-0.0250278
0.00569594
-0.0278208
0.00604114
-0.0304284
0.00628731
-0.0328449
0.00643344
-0.0351371
0.00643887
-0.0373691
0.00636908
-0.039604
0.00632238
-0.0418367
0.00627748
-0.043985
0.00607253
-0.0460049
0.00564262
-0.0478693
0.00522854
-0.0494411
0.00451092
-0.0506703
0.00382669
-0.0513888
0.00293723
-0.0516076
0.00205719
-0.0515422
0.00141855
-0.0510892
0.000643383
-0.0503375
0.00010353
-0.0496476
-0.000100147
-0.0489488
-0.000576518
-0.0481154
-0.001194
-0.0471478
-0.00181963
-0.0460733
-0.00235517
-0.0448624
-0.00283723
-0.0435348
-0.00316543
-0.0421206
-0.00341696
-0.0406653
-0.0035533
-0.0392195
-0.00357794
-0.0377962
-0.00354547
-0.0363698
-0.00352229
-0.0348907
-0.00358614
-0.0332908
-0.00380751
-0.0315294
-0.00414419
-0.0295998
-0.00446659
-0.0275208
-0.00462242
-0.0253867
-0.0044795
-0.0237103
-0.00371604
-0.0230824
-0.00214271
-0.0225723
-0.00139991
-0.0220273
-0.00115941
-0.0214951
-0.000932423
-0.0209748
-0.000732715
-0.0204592
-0.000588623
-0.0199453
-0.000504606
-0.0194378
-0.00048
-0.0189205
-0.000534066
-0.0183844
-0.000637017
-0.0178197
-0.000779322
-0.0172159
-0.000943281
-0.0165632
-0.00112329
-0.015824
-0.00140919
-0.0146425
-0.00219102
-0.0126688
-0.00343317
-0.0101619
-0.00474495
-0.00740208
-0.00541521
-0.00459398
-0.00543687
-0.00187622
-0.00522605
0.000757535
-0.0050619
0.00328989
-0.00487691
0.00569275
-0.00467588
0.00796839
-0.00448952
0.0101214
-0.00426527
0.0121151
-0.00414714
0.0138961
-0.00422901
0.015511
-0.00450174
0.017135
-0.00493245
0.0187915
-0.00518566
0.0205362
-0.00511455
0.0225637
-0.0046709
0.0247452
-0.00458275
0.0268358
-0.00452733
0.0287599
-0.00424831
0.0304923
-0.0038114
0.0320241
-0.0033588
0.0333986
-0.00304129
0.0346835
-0.00288468
0.0359186
-0.00282277
0.0371271
-0.00281702
0.0383452
-0.00284424
0.0395612
-0.00288046
0.0407655
-0.00281656
0.0419288
-0.00270157
0.0430272
-0.00261698
0.044077
-0.00257597
0.0451193
-0.00259147
0.0461885
-0.00267257
0.0472911
-0.00278171
0.048412
-0.00287331
0.0495302
-0.00291751
0.0505944
-0.00283413
0.0515674
-0.00249575
0.0524532
-0.00195922
0.053322
-0.00148578
0.0542853
-0.0012777
0.0554119
-0.00130574
0.0567307
-0.00152248
0.0581208
-0.0016528
0.0592272
-0.00141503
0.0596154
-0.000728325
0.0595651
-2.2239e-05
0.059068
0.000715023
0.0583089
0.00129738
0.0575503
0.00162115
0.0568847
0.00184886
0.0563325
0.0020259
0.0558109
0.00199141
0.0552062
0.0019049
0.0542222
0.00204613
0.0526212
0.00248491
0.0504632
0.00311706
0.0479546
0.00382457
0.0452865
0.00444161
0.0427601
0.00423914
0.0409273
0.00333154
0.0401485
0.00191033
0.0399457
0.000765796
0.0397283
0.000532533
0.0389625
0.000974565
0.0372337
0.00161744
0.0350406
0.0019099
0.0327574
0.00229308
0.0302277
0.003141
0.0273395
0.00412657
0.0247125
0.00421405
0.022603
0.0038605
0.0206428
0.00378472
0.0186424
0.00410224
0.0170252
0.00409589
0.0159676
0.00354253
0.0150235
0.00373043
0.0138914
0.00418221
0.0123405
0.00438968
0.0105107
0.00434354
0.00857004
0.00446832
0.00664294
0.00460746
0.00475656
0.00447902
0.00286554
0.00426542
0.00105312
0.00413781
-0.000487738
0.00370336
-0.00164306
0.00319665
-0.00240167
0.00250179
-0.00274059
0.00152401
-0.00245008
0.000300864
-0.00154275
-0.000683812
-0.00023323
-0.00151414
0.00139113
-0.0023091
0.00315796
-0.00290331
0.00495709
-0.00340411
0.00678789
-0.00389275
0.00868179
-0.00432387
0.0106547
-0.00467426
0.0127043
-0.00495136
0.0148156
-0.00515865
0.0169247
-0.00525818
0.0189747
-0.00532949
0.0209537
-0.00522318
0.0228767
-0.00494016
0.0247846
-0.00474948
0.0266004
-0.00431735
0.0282358
-0.00326185
0.0296865
-0.00285599
0.0305208
-0.00235279
0.0308431
-0.00206509
0.0308627
-0.00173562
0.030787
-0.0013757
0.0306557
-0.00070125
0.0305957
-0.000251377
0.0307819
8.9296e-05
0.0310055
0.000118758
0.0312616
1.96642e-05
0.0312595
5.28664e-05
0.0310634
0.000191623
0.0305987
0.000369121
0.0298796
0.000757023
0.0288672
0.00137796
0.0275472
0.00216391
0.0259438
0.00283386
0.0241931
0.00337724
0.0223637
0.00383685
0.0205383
0.00402679
0.018792
0.00397502
0.017146
0.00379868
0.0156361
0.00351198
0.0143094
0.00299992
0.013213
0.00272282
0.0122668
0.00276102
0.0114377
0.00245031
0.0107428
0.00194025
0.0101424
0.00172447
0.0097211
0.00139626
0.00946176
0.00100832
0.0092791
0.000736536
0.00912347
0.000592268
0.00901412
0.000436917
0.00897403
0.000247277
0.00899749
-5.93585e-06
0.00907728
-0.000175398
0.00920424
-0.000262791
0.00936402
-0.000304843
0.00952741
-0.00025159
0.00968424
-0.000231046
0.0097819
-0.000149714
0.00981668
-3.04042e-05
0.00979001
0.00013961
0.00972312
0.000362396
0.00954271
0.000571551
0.00923766
0.00095636
0.0086923
0.00127401
0.00810384
0.00133912
0.00749774
0.00141224
0.00685509
0.00154392
0.00616525
0.00167209
0.00542888
0.00180857
0.00468255
0.00189039
0.00398997
0.00192374
0.00340389
0.00187122
0.0029543
0.00173013
0.00263651
0.00155676
0.00250221
0.00126009
0.00233375
0.00110826
0.00221244
0.00102357
0.00212429
0.000772733
0.00212173
0.000499392
0.00221167
0.000220478
0.0023671
2.75761e-05
0.0025477
-9.44751e-05
0.00275498
-0.000173071
0.00302907
-0.000278631
0.00351307