/*--------------------------------*- C++ -*----------------------------------*\
| =========                 |                                                 |
| \\      /  F ield         | OpenFOAM: The Open Source CFD Toolbox           |
|  \\    /   O peration     | Version:  v1812                                 |
|   \\  /    A nd           | Web:      www.OpenFOAM.com                      |
|    \\/     M anipulation  |                                                 |
\*---------------------------------------------------------------------------*/
FoamFile
{
    version     2.0;
    format      ascii;
    class       volScalarField;
    location    "1.3";
    object      T;
}
// * * * * * * * * * * * * * * * * * * * * * * * * * * * * * * * * * * * * * //

dimensions      [0 0 0 1 0 0 0];


internalField   nonuniform List<scalar> 
20400
(
294.605
294.601
294.593
294.58
294.567
294.554
294.543
294.537
294.537
294.544
294.559
294.582
294.613
294.651
294.695
294.746
294.801
294.859
294.92
294.981
295.043
295.105
295.166
295.227
295.287
295.347
295.408
295.469
295.532
295.596
295.661
295.726
295.79
295.853
295.914
295.973
296.032
296.091
296.15
296.207
296.261
296.312
296.36
296.403
296.444
296.485
296.527
296.569
296.609
296.635
296.665
296.685
296.688
296.681
296.663
296.635
296.606
296.581
296.565
296.561
296.571
296.595
296.633
296.68
296.733
296.788
296.84
296.887
296.928
296.962
296.989
297.013
297.03
297.044
297.054
297.062
297.069
297.071
297.07
297.07
297.069
297.069
297.065
297.063
297.06
297.059
297.057
297.055
297.052
297.047
297.04
297.033
297.027
297.022
297.017
297.011
297.002
296.996
296.98
296.964
296.947
296.928
296.91
296.893
296.873
296.857
296.84
296.823
296.807
296.792
296.782
296.774
296.768
296.767
296.768
296.775
296.784
296.792
296.801
296.808
296.814
296.817
296.817
296.812
296.801
296.788
296.774
296.763
296.751
296.729
296.711
296.691
296.67
296.648
296.625
296.602
296.579
296.556
296.534
296.509
296.485
296.459
296.431
296.403
296.376
296.349
296.321
296.293
296.263
296.234
296.204
296.177
296.15
296.123
296.095
296.066
296.036
296.004
295.968
295.932
295.888
295.848
295.809
295.775
295.746
295.727
295.715
295.712
295.716
295.726
295.748
295.777
295.82
295.867
295.92
295.978
296.043
296.101
296.164
296.229
296.279
296.332
296.385
296.424
296.452
296.475
296.493
296.502
296.502
296.493
296.487
296.48
296.472
296.457
296.44
296.422
296.403
296.387
296.372
296.355
296.34
296.328
296.313
296.295
296.27
296.244
296.211
296.175
296.138
296.1
296.065
296.034
296.007
295.982
295.963
295.949
295.943
295.946
295.957
295.964
295.992
296.033
296.071
296.121
296.181
296.247
296.324
296.404
296.495
296.591
296.681
296.767
296.838
296.895
296.933
296.948
296.945
296.928
296.897
296.855
296.804
296.749
296.69
296.627
296.571
296.513
296.451
296.397
296.346
296.296
296.25
296.204
296.165
296.127
296.095
296.065
296.034
296.003
295.975
295.944
295.914
295.883
295.852
295.82
295.788
295.749
295.711
295.677
295.644
295.611
295.579
295.549
295.52
295.491
295.463
295.437
295.413
295.388
295.366
295.346
295.325
295.318
295.306
295.295
295.285
295.273
295.264
295.256
295.252
295.25
295.254
295.262
295.256
295.261
295.268
295.277
295.289
295.303
295.319
295.34
295.357
295.37
295.382
295.393
295.406
295.418
295.427
295.435
295.44
295.443
295.442
295.436
295.428
295.418
295.403
295.381
295.353
295.331
295.299
295.271
295.24
295.212
295.186
295.145
295.116
295.089
295.06
295.027
294.995
294.96
294.932
294.903
294.876
294.849
294.824
294.8
294.776
294.754
294.733
294.714
294.696
294.679
294.666
294.654
294.643
294.626
294.614
294.602
294.601
294.592
294.582
294.574
294.566
294.555
294.546
294.547
294.537
294.532
294.525
294.521
294.514
294.516
294.487
294.48
294.479
294.474
294.468
294.461
294.453
294.446
294.445
294.436
294.437
294.419
294.409
294.397
294.394
294.383
294.39
294.372
294.371
294.366
294.363
294.357
294.354
294.35
294.351
294.349
294.349
294.347
294.347
294.347
294.343
294.339
294.336
294.332
294.328
294.324
294.32
294.316
294.31
294.308
294.301
294.294
294.288
294.284
294.279
294.276
294.27
294.267
294.258
294.254
294.25
294.248
294.247
294.243
294.235
294.234
294.241
294.242
294.241
294.242
294.239
294.237
294.242
294.245
294.246
294.25
294.25
294.252
294.254
294.256
294.258
294.26
294.262
294.264
294.266
294.267
294.269
294.27
294.272
294.272
294.275
294.28
294.286
294.279
294.277
294.277
294.273
294.27
294.268
294.266
294.263
294.261
294.258
294.254
294.251
294.246
294.242
294.238
294.233
294.231
294.226
294.217
294.211
294.2
294.198
294.189
294.185
294.173
294.169
294.162
294.154
294.145
294.135
294.126
294.118
294.107
294.101
294.091
294.083
294.07
294.059
294.049
294.038
294.032
294.02
294.008
293.993
293.985
293.97
293.962
293.946
293.931
293.917
293.9
293.89
293.872
293.862
293.845
294.584
294.581
294.573
294.562
294.552
294.541
294.534
294.532
294.536
294.547
294.566
294.593
294.628
294.669
294.716
294.769
294.825
294.885
294.947
295.009
295.071
295.134
295.196
295.259
295.321
295.385
295.449
295.514
295.581
295.649
295.717
295.785
295.849
295.91
295.968
296.023
296.077
296.133
296.189
296.245
296.298
296.348
296.393
296.434
296.474
296.514
296.553
296.59
296.625
296.656
296.672
296.687
296.691
296.684
296.669
296.652
296.639
296.633
296.636
296.65
296.674
296.708
296.752
296.798
296.843
296.883
296.914
296.935
296.949
296.958
296.96
296.961
296.956
296.949
296.941
296.931
296.921
296.906
296.887
296.871
296.857
296.842
296.83
296.822
296.816
296.812
296.808
296.802
296.793
296.781
296.766
296.749
296.733
296.722
296.717
296.715
296.715
296.713
296.697
296.677
296.655
296.63
296.604
296.577
296.552
296.521
296.492
296.46
296.427
296.391
296.359
296.33
296.309
296.298
296.306
296.323
296.345
296.371
296.399
296.425
296.45
296.476
296.492
296.493
296.485
296.474
296.466
296.471
296.484
296.481
296.482
296.478
296.466
296.448
296.427
296.404
296.379
296.355
296.333
296.311
296.289
296.265
296.239
296.213
296.186
296.16
296.135
296.113
296.092
296.072
296.05
296.023
295.987
295.952
295.921
295.897
295.881
295.873
295.864
295.858
295.849
295.834
295.813
295.789
295.762
295.739
295.721
295.709
295.704
295.703
295.708
295.712
295.724
295.742
295.777
295.821
295.875
295.93
296.002
296.09
296.171
296.252
296.326
296.397
296.459
296.511
296.548
296.559
296.584
296.603
296.616
296.633
296.648
296.656
296.662
296.668
296.677
296.682
296.69
296.699
296.707
296.718
296.73
296.739
296.738
296.731
296.711
296.685
296.653
296.614
296.571
296.524
296.471
296.414
296.355
296.292
296.229
296.175
296.127
296.072
296.032
296.019
296.011
296.018
296.043
296.086
296.15
296.205
296.287
296.384
296.481
296.585
296.681
296.769
296.834
296.879
296.891
296.886
296.864
296.826
296.776
296.72
296.66
296.598
296.534
296.468
296.403
296.348
296.291
296.236
296.186
296.141
296.098
296.06
296.026
295.994
295.964
295.935
295.909
295.881
295.853
295.824
295.792
295.762
295.727
295.698
295.661
295.626
295.596
295.566
295.539
295.513
295.488
295.465
295.441
295.418
295.393
295.368
295.345
295.322
295.303
295.275
295.253
295.23
295.216
295.199
295.183
295.169
295.16
295.155
295.153
295.148
295.138
295.134
295.134
295.136
295.139
295.145
295.152
295.16
295.174
295.189
295.194
295.209
295.228
295.248
295.268
295.287
295.304
295.32
295.333
295.344
295.357
295.352
295.351
295.343
295.321
295.301
295.272
295.247
295.218
295.188
295.169
295.117
295.083
295.052
295.023
294.988
294.953
294.921
294.894
294.863
294.835
294.808
294.783
294.759
294.736
294.715
294.695
294.677
294.661
294.646
294.634
294.62
294.61
294.591
294.596
294.587
294.579
294.577
294.571
294.567
294.563
294.564
294.559
294.553
294.547
294.548
294.546
294.544
294.541
294.537
294.539
294.521
294.521
294.518
294.515
294.511
294.504
294.494
294.484
294.476
294.473
294.449
294.422
294.403
294.389
294.371
294.368
294.345
294.336
294.322
294.317
294.316
294.316
294.29
294.29
294.285
294.282
294.277
294.274
294.272
294.268
294.265
294.262
294.259
294.256
294.253
294.247
294.245
294.245
294.243
294.238
294.233
294.227
294.222
294.216
294.21
294.203
294.198
294.19
294.191
294.188
294.184
294.179
294.173
294.165
294.173
294.163
294.166
294.168
294.168
294.166
294.177
294.176
294.176
294.176
294.176
294.178
294.179
294.181
294.182
294.184
294.186
294.188
294.191
294.193
294.195
294.197
294.197
294.198
294.199
294.201
294.193
294.185
294.179
294.184
294.19
294.187
294.186
294.184
294.182
294.179
294.175
294.17
294.166
294.163
294.162
294.159
294.144
294.132
294.127
294.125
294.119
294.118
294.11
294.108
294.091
294.085
294.077
294.075
294.069
294.066
294.058
294.043
294.031
294.03
294.019
294.012
294.004
293.994
293.978
293.964
293.962
293.953
293.944
293.938
293.921
293.902
293.897
293.882
293.875
293.862
293.851
293.841
293.817
293.804
293.787
293.783
293.759
294.546
294.544
294.54
294.533
294.527
294.523
294.523
294.529
294.541
294.561
294.589
294.624
294.665
294.713
294.766
294.823
294.884
294.946
295.011
295.075
295.14
295.205
295.271
295.339
295.408
295.478
295.552
295.626
295.701
295.776
295.85
295.92
295.984
296.041
296.092
296.138
296.185
296.233
296.285
296.336
296.383
296.426
296.465
296.498
296.529
296.561
296.59
296.618
296.645
296.668
296.689
296.704
296.709
296.71
296.708
296.712
296.722
296.738
296.757
296.781
296.809
296.84
296.869
296.893
296.908
296.913
296.914
296.912
296.901
296.885
296.859
296.831
296.797
296.766
296.736
296.705
296.675
296.64
296.6
296.559
296.52
296.484
296.453
296.429
296.41
296.394
296.38
296.363
296.34
296.311
296.274
296.232
296.191
296.163
296.155
296.161
296.188
296.187
296.176
296.142
296.106
296.068
296.027
295.986
295.943
295.9
295.854
295.805
295.753
295.697
295.643
295.597
295.568
295.55
295.552
295.571
295.594
295.619
295.646
295.673
295.7
295.728
295.751
295.754
295.743
295.73
295.725
295.733
295.763
295.799
295.834
295.868
295.897
295.91
295.91
295.901
295.881
295.856
295.832
295.808
295.787
295.769
295.749
295.728
295.705
295.681
295.657
295.637
295.622
295.611
295.601
295.585
295.557
295.518
295.476
295.437
295.423
295.428
295.443
295.469
295.503
295.539
295.567
295.583
295.592
295.596
295.598
295.602
295.608
295.621
295.635
295.644
295.652
295.653
295.661
295.688
295.731
295.774
295.831
295.919
296.034
296.152
296.259
296.367
296.471
296.553
296.619
296.673
296.737
296.788
296.831
296.877
296.919
296.955
296.985
297.014
297.04
297.061
297.082
297.101
297.115
297.128
297.138
297.144
297.144
297.143
297.135
297.124
297.11
297.094
297.077
297.06
297.039
297.012
296.975
296.923
296.854
296.775
296.686
296.557
296.425
296.312
296.19
296.098
296.042
296.023
296.029
296.053
296.108
296.179
296.265
296.371
296.486
296.6
296.697
296.77
296.806
296.809
296.797
296.765
296.717
296.66
296.597
296.533
296.469
296.401
296.332
296.265
296.2
296.136
296.077
296.023
295.975
295.933
295.897
295.865
295.839
295.815
295.795
295.773
295.753
295.731
295.708
295.682
295.658
295.629
295.599
295.567
295.539
295.511
295.484
295.459
295.433
295.408
295.385
295.361
295.335
295.314
295.295
295.27
295.249
295.227
295.207
295.186
295.163
295.139
295.116
295.091
295.07
295.044
295.018
294.997
294.97
294.948
294.928
294.909
294.891
294.876
294.863
294.854
294.845
294.842
294.841
294.849
294.868
294.894
294.927
294.964
295.002
295.042
295.082
295.126
295.171
295.203
295.235
295.249
295.263
295.259
295.247
295.228
295.201
295.172
295.14
295.102
295.066
295.025
294.99
294.956
294.923
294.885
294.851
294.82
294.791
294.764
294.737
294.713
294.691
294.671
294.652
294.636
294.621
294.608
294.595
294.584
294.576
294.569
294.571
294.563
294.566
294.57
294.57
294.575
294.579
294.588
294.581
294.588
294.592
294.602
294.605
294.605
294.61
294.609
294.631
294.614
294.62
294.624
294.625
294.627
294.628
294.626
294.628
294.623
294.615
294.593
294.556
294.515
294.482
294.45
294.429
294.378
294.357
294.331
294.31
294.293
294.275
294.264
294.258
294.244
294.234
294.227
294.225
294.221
294.218
294.214
294.211
294.207
294.204
294.2
294.195
294.192
294.188
294.184
294.179
294.174
294.168
294.161
294.154
294.146
294.137
294.132
294.125
294.118
294.112
294.106
294.098
294.091
294.084
294.079
294.078
294.08
294.078
294.079
294.073
294.075
294.075
294.073
294.071
294.069
294.069
294.07
294.071
294.072
294.073
294.075
294.077
294.079
294.081
294.084
294.087
294.089
294.092
294.094
294.099
294.102
294.103
294.1
294.105
294.103
294.097
294.094
294.092
294.089
294.087
294.084
294.081
294.078
294.072
294.065
294.062
294.059
294.053
294.05
294.04
294.031
294.018
294.006
294.004
293.997
293.994
293.982
293.972
293.961
293.95
293.946
293.937
293.932
293.93
293.92
293.905
293.891
293.881
293.872
293.867
293.859
293.846
293.833
293.819
293.814
293.804
293.8
293.785
293.767
293.754
293.739
293.731
293.719
293.711
293.694
293.676
293.662
294.494
294.494
294.495
294.493
294.496
294.501
294.512
294.529
294.554
294.586
294.625
294.67
294.72
294.776
294.835
294.897
294.962
295.029
295.097
295.166
295.236
295.308
295.383
295.461
295.542
295.625
295.711
295.796
295.879
295.96
296.035
296.101
296.157
296.203
296.242
296.275
296.308
296.345
296.386
296.427
296.464
296.496
296.522
296.544
296.565
296.59
296.617
296.649
296.684
296.719
296.749
296.772
296.786
296.799
296.815
296.834
296.853
296.87
296.886
296.9
296.91
296.916
296.917
296.909
296.896
296.88
296.858
296.831
296.802
296.767
296.721
296.675
296.619
296.57
296.515
296.462
296.404
296.349
296.283
296.218
296.154
296.093
296.036
295.987
295.945
295.91
295.88
295.851
295.818
295.779
295.732
295.679
295.629
295.592
295.576
295.576
295.599
295.615
295.596
295.565
295.53
295.492
295.454
295.417
295.38
295.348
295.317
295.29
295.266
295.246
295.233
295.229
295.225
295.224
295.226
295.233
295.241
295.246
295.248
295.247
295.241
295.231
295.218
295.198
295.173
295.132
295.092
295.059
295.04
295.023
295.024
295.037
295.065
295.097
295.113
295.114
295.108
295.091
295.068
295.04
295.016
294.995
294.978
294.965
294.952
294.939
294.927
294.92
294.92
294.924
294.929
294.927
294.911
294.875
294.826
294.772
294.748
294.754
294.776
294.821
294.88
294.94
294.999
295.059
295.106
295.155
295.199
295.243
295.294
295.353
295.417
295.468
295.504
295.535
295.553
295.583
295.631
295.685
295.733
295.802
295.911
296.034
296.158
296.282
296.419
296.546
296.663
296.769
296.86
296.946
297.022
297.09
297.147
297.196
297.235
297.26
297.267
297.263
297.254
297.237
297.214
297.189
297.161
297.136
297.114
297.096
297.083
297.075
297.071
297.071
297.076
297.086
297.1
297.121
297.145
297.166
297.171
297.161
297.139
297.095
297.015
296.895
296.723
296.532
296.353
296.204
296.11
296.066
296.033
296.04
296.075
296.16
296.282
296.413
296.536
296.632
296.692
296.709
296.703
296.678
296.637
296.585
296.529
296.47
296.409
296.341
296.269
296.194
296.121
296.048
295.982
295.919
295.865
295.816
295.777
295.744
295.718
295.698
295.682
295.667
295.652
295.637
295.622
295.604
295.586
295.566
295.545
295.522
295.5
295.479
295.459
295.441
295.424
295.409
295.394
295.38
295.368
295.354
295.341
295.329
295.316
295.304
295.29
295.276
295.256
295.23
295.202
295.174
295.144
295.111
295.076
295.039
294.994
294.949
294.905
294.862
294.819
294.775
294.732
294.689
294.644
294.605
294.566
294.528
294.503
294.489
294.489
294.503
294.536
294.583
294.643
294.712
294.792
294.875
294.958
295.026
295.094
295.146
295.172
295.173
295.166
295.153
295.122
295.097
295.054
295.013
294.973
294.929
294.89
294.852
294.815
294.779
294.747
294.717
294.688
294.662
294.638
294.617
294.597
294.581
294.568
294.556
294.547
294.541
294.536
294.529
294.536
294.538
294.549
294.553
294.558
294.567
294.582
294.596
294.596
294.608
294.616
294.632
294.644
294.653
294.661
294.673
294.679
294.679
294.683
294.687
294.692
294.698
294.707
294.716
294.726
294.73
294.728
294.733
294.717
294.691
294.66
294.626
294.585
294.53
294.483
294.428
294.386
294.349
294.302
294.293
294.265
294.24
294.222
294.202
294.19
294.179
294.172
294.166
294.16
294.154
294.149
294.145
294.14
294.136
294.131
294.126
294.12
294.113
294.105
294.096
294.087
294.078
294.067
294.057
294.045
294.033
294.021
294.012
294.001
293.995
293.979
293.965
293.961
293.961
293.954
293.948
293.941
293.938
293.932
293.927
293.922
293.917
293.913
293.911
293.909
293.908
293.908
293.908
293.909
293.91
293.913
293.917
293.923
293.929
293.936
293.944
293.954
293.973
293.978
293.983
293.991
293.989
293.989
293.99
293.989
293.988
293.986
293.986
293.986
293.985
293.981
293.975
293.971
293.976
293.972
293.964
293.955
293.942
293.93
293.916
293.906
293.905
293.898
293.884
293.871
293.855
293.845
293.834
293.827
293.825
293.814
293.801
293.785
293.771
293.761
293.751
293.746
293.734
293.72
293.704
293.697
293.686
293.681
293.667
293.655
293.64
293.627
293.613
293.599
293.596
293.586
293.569
293.547
293.539
294.436
294.438
294.445
294.452
294.465
294.483
294.508
294.54
294.58
294.626
294.678
294.734
294.793
294.854
294.918
294.984
295.053
295.124
295.196
295.271
295.349
295.433
295.521
295.615
295.712
295.811
295.91
296.004
296.091
296.168
296.235
296.287
296.326
296.354
296.376
296.394
296.413
296.437
296.464
296.491
296.513
296.531
296.544
296.555
296.571
296.597
296.635
296.688
296.75
296.81
296.858
296.89
296.911
296.93
296.949
296.966
296.976
296.98
296.979
296.972
296.961
296.947
296.928
296.902
296.876
296.846
296.81
296.768
296.723
296.672
296.614
296.557
296.492
296.428
296.367
296.306
296.245
296.185
296.112
296.04
295.97
295.899
295.828
295.76
295.694
295.633
295.578
295.527
295.48
295.436
295.392
295.349
295.309
295.276
295.254
295.246
295.247
295.251
295.238
295.224
295.211
295.197
295.185
295.174
295.165
295.158
295.155
295.158
295.168
295.183
295.204
295.232
295.267
295.304
295.336
295.359
295.372
295.376
295.373
295.36
295.335
295.298
295.251
295.195
295.135
295.064
294.993
294.923
294.855
294.78
294.711
294.652
294.601
294.553
294.505
294.463
294.424
294.383
294.336
294.285
294.24
294.201
294.169
294.146
294.129
294.116
294.112
294.114
294.122
294.135
294.15
294.155
294.15
294.13
294.096
294.054
294.042
294.049
294.075
294.117
294.168
294.22
294.277
294.345
294.421
294.505
294.59
294.674
294.761
294.857
294.958
295.051
295.13
295.204
295.293
295.389
295.492
295.586
295.656
295.706
295.781
295.878
295.994
296.122
296.275
296.451
296.626
296.784
296.926
297.05
297.146
297.214
297.261
297.286
297.292
297.278
297.251
297.203
297.134
297.054
296.977
296.89
296.804
296.731
296.666
296.613
296.573
296.544
296.526
296.518
296.52
296.531
296.556
296.596
296.658
296.746
296.855
296.965
297.069
297.155
297.205
297.217
297.196
297.12
296.977
296.797
296.619
296.437
296.255
296.094
296.028
296.04
296.109
296.231
296.364
296.475
296.55
296.579
296.576
296.558
296.526
296.484
296.436
296.388
296.339
296.281
296.218
296.148
296.076
296.004
295.935
295.868
295.805
295.748
295.698
295.656
295.625
295.603
295.589
295.579
295.573
295.568
295.561
295.556
295.55
295.543
295.534
295.523
295.512
295.5
295.489
295.482
295.477
295.477
295.48
295.488
295.497
295.504
295.511
295.52
295.525
295.531
295.537
295.539
295.534
295.52
295.502
295.481
295.457
295.426
295.39
295.345
295.292
295.234
295.174
295.111
295.044
294.973
294.897
294.815
294.729
294.639
294.555
294.476
294.401
294.331
294.27
294.215
294.175
294.163
294.172
294.205
294.267
294.355
294.468
294.59
294.724
294.855
294.948
295.024
295.077
295.098
295.094
295.078
295.053
295.014
294.969
294.921
294.875
294.829
294.787
294.747
294.71
294.675
294.643
294.613
294.588
294.565
294.543
294.526
294.512
294.501
294.495
294.489
294.488
294.488
294.494
294.497
294.508
294.52
294.531
294.543
294.565
294.569
294.581
294.593
294.602
294.616
294.641
294.644
294.655
294.667
294.676
294.679
294.685
294.692
294.7
294.709
294.715
294.721
294.73
294.742
294.765
294.756
294.765
294.772
294.775
294.776
294.769
294.742
294.7
294.644
294.587
294.532
294.48
294.429
294.377
294.325
294.278
294.233
294.195
294.167
294.146
294.129
294.117
294.107
294.099
294.093
294.086
294.08
294.076
294.071
294.062
294.052
294.04
294.027
294.015
294.002
293.988
293.97
293.951
293.935
293.918
293.903
293.889
293.871
293.853
293.834
293.819
293.806
293.794
293.78
293.771
293.761
293.75
293.739
293.728
293.717
293.708
293.699
293.691
293.684
293.677
293.672
293.67
293.668
293.67
293.673
293.68
293.69
293.7
293.712
293.73
293.747
293.768
293.785
293.802
293.822
293.83
293.838
293.843
293.846
293.849
293.852
293.856
293.861
293.868
293.872
293.875
293.875
293.875
293.87
293.86
293.854
293.851
293.836
293.825
293.812
293.802
293.786
293.776
293.761
293.746
293.733
293.719
293.707
293.695
293.679
293.67
293.65
293.635
293.618
293.605
293.591
293.581
293.564
293.549
293.533
293.52
293.512
293.493
293.485
293.467
293.451
293.437
293.423
293.412
293.398
293.386
293.369
294.376
294.383
294.397
294.415
294.441
294.475
294.516
294.566
294.622
294.683
294.747
294.813
294.877
294.943
295.01
295.078
295.149
295.223
295.301
295.384
295.474
295.572
295.679
295.791
295.906
296.02
296.128
296.224
296.304
296.368
296.415
296.445
296.461
296.47
296.474
296.478
296.482
296.491
296.504
296.516
296.525
296.532
296.539
296.55
296.576
296.619
296.682
296.763
296.853
296.937
296.999
297.037
297.057
297.067
297.072
297.073
297.062
297.048
297.028
297.004
296.978
296.951
296.922
296.888
296.856
296.823
296.783
296.738
296.693
296.646
296.594
296.548
296.498
296.448
296.398
296.347
296.291
296.238
296.172
296.106
296.041
295.974
295.903
295.829
295.75
295.671
295.594
295.52
295.451
295.388
295.332
295.284
295.243
295.211
295.185
295.169
295.161
295.154
295.143
295.141
295.144
295.15
295.159
295.171
295.189
295.211
295.237
295.267
295.3
295.335
295.375
295.42
295.471
295.528
295.591
295.656
295.721
295.782
295.835
295.877
295.904
295.907
295.89
295.843
295.774
295.691
295.594
295.482
295.352
295.203
295.04
294.869
294.702
294.55
294.416
294.298
294.193
294.097
294.006
293.915
293.826
293.741
293.667
293.603
293.552
293.512
293.486
293.472
293.469
293.471
293.473
293.474
293.47
293.457
293.437
293.418
293.418
293.429
293.454
293.485
293.522
293.56
293.607
293.668
293.742
293.831
293.925
294.018
294.11
294.211
294.316
294.432
294.563
294.711
294.885
295.073
295.248
295.395
295.498
295.574
295.633
295.709
295.812
295.949
296.123
296.327
296.544
296.738
296.899
297.036
297.143
297.214
297.253
297.253
297.233
297.176
297.088
296.971
296.823
296.678
296.551
296.438
296.349
296.275
296.212
296.165
296.125
296.092
296.068
296.049
296.036
296.027
296.027
296.037
296.061
296.104
296.175
296.269
296.385
296.525
296.694
296.894
297.095
297.249
297.299
297.294
297.241
297.097
296.838
296.496
296.183
296.032
296.025
296.072
296.169
296.273
296.355
296.405
296.413
296.404
296.379
296.345
296.306
296.267
296.236
296.198
296.157
296.105
296.048
295.989
295.931
295.869
295.809
295.748
295.69
295.637
295.593
295.558
295.535
295.522
295.519
295.521
295.526
295.534
295.542
295.549
295.554
295.558
295.563
295.567
295.573
295.581
295.594
295.613
295.635
295.661
295.689
295.713
295.734
295.756
295.772
295.786
295.798
295.808
295.813
295.811
295.803
295.791
295.774
295.748
295.714
295.677
295.634
295.582
295.523
295.458
295.387
295.307
295.219
295.124
295.021
294.912
294.802
294.686
294.565
294.438
294.311
294.191
294.086
293.997
293.924
293.87
293.857
293.871
293.924
294.017
294.153
294.318
294.489
294.658
294.806
294.922
294.997
295.02
295.019
295.003
294.97
294.929
294.879
294.826
294.774
294.725
294.68
294.64
294.603
294.569
294.539
294.511
294.487
294.469
294.454
294.443
294.437
294.432
294.432
294.433
294.441
294.449
294.463
294.475
294.489
294.506
294.514
294.528
294.537
294.548
294.553
294.562
294.568
294.573
294.576
294.585
294.587
294.586
294.587
294.588
294.59
294.593
294.596
294.6
294.608
294.619
294.64
294.65
294.674
294.707
294.74
294.775
294.805
294.822
294.829
294.824
294.803
294.768
294.717
294.658
294.588
294.511
294.431
294.351
294.282
294.227
294.183
294.147
294.116
294.09
294.068
294.052
294.038
294.025
294.017
294.012
294.001
293.986
293.968
293.95
293.93
293.91
293.893
293.872
293.848
293.826
293.802
293.779
293.756
293.733
293.708
293.681
293.659
293.638
293.616
293.596
293.574
293.555
293.537
293.518
293.5
293.481
293.464
293.447
293.431
293.416
293.401
293.389
293.379
293.374
293.368
293.363
293.364
293.369
293.377
293.387
293.404
293.426
293.452
293.481
293.514
293.549
293.579
293.606
293.625
293.639
293.649
293.659
293.671
293.684
293.7
293.718
293.736
293.753
293.767
293.776
293.779
293.779
293.777
293.771
293.762
293.753
293.743
293.729
293.714
293.699
293.682
293.665
293.647
293.633
293.615
293.596
293.575
293.555
293.536
293.516
293.498
293.478
293.457
293.436
293.416
293.396
293.379
293.36
293.34
293.318
293.3
293.28
293.26
293.244
293.228
293.209
293.19
293.171
294.32
294.332
294.356
294.386
294.429
294.481
294.541
294.609
294.682
294.756
294.83
294.901
294.97
295.038
295.106
295.175
295.247
295.326
295.41
295.505
295.611
295.729
295.855
295.986
296.114
296.233
296.34
296.426
296.49
296.531
296.553
296.557
296.552
296.541
296.529
296.519
296.512
296.509
296.508
296.507
296.507
296.508
296.514
296.536
296.589
296.668
296.765
296.875
296.986
297.082
297.149
297.184
297.197
297.199
297.192
297.174
297.148
297.12
297.086
297.051
297.015
296.98
296.946
296.908
296.873
296.841
296.803
296.763
296.725
296.688
296.654
296.628
296.608
296.601
296.595
296.593
296.602
296.587
296.578
296.548
296.516
296.473
296.419
296.356
296.28
296.191
296.094
295.987
295.873
295.758
295.646
295.543
295.448
295.363
295.294
295.24
295.203
295.184
295.173
295.178
295.191
295.209
295.229
295.252
295.276
295.304
295.333
295.362
295.394
295.427
295.464
295.505
295.552
295.609
295.679
295.764
295.862
295.968
296.079
296.188
296.289
296.376
296.439
296.47
296.472
296.452
296.404
296.333
296.237
296.11
295.952
295.761
295.541
295.298
295.04
294.783
294.539
294.317
294.122
293.949
293.797
293.662
293.54
293.433
293.338
293.251
293.176
293.119
293.08
293.053
293.033
293.018
293.005
292.994
292.982
292.974
292.976
292.985
293.001
293.018
293.039
293.062
293.095
293.142
293.204
293.274
293.348
293.427
293.505
293.596
293.699
293.818
293.968
294.152
294.362
294.59
294.811
295.004
295.165
295.299
295.415
295.54
295.672
295.818
295.984
296.169
296.372
296.576
296.763
296.931
297.067
297.16
297.179
297.163
297.108
296.994
296.852
296.679
296.495
296.322
296.189
296.078
295.999
295.936
295.897
295.862
295.835
295.813
295.792
295.771
295.75
295.727
295.704
295.687
295.678
295.679
295.692
295.727
295.785
295.872
295.995
296.167
296.38
296.624
296.878
297.125
297.302
297.313
297.238
296.985
296.588
296.246
296.07
296.016
296.021
296.06
296.122
296.185
296.221
296.22
296.204
296.172
296.137
296.104
296.087
296.068
296.052
296.025
295.988
295.948
295.91
295.869
295.827
295.78
295.729
295.676
295.622
295.572
295.53
295.501
295.488
295.488
295.497
295.513
295.535
295.559
295.583
295.606
295.631
295.653
295.676
295.7
295.725
295.753
295.783
295.811
295.839
295.863
295.88
295.894
295.902
295.909
295.913
295.916
295.916
295.916
295.912
295.905
295.896
295.879
295.854
295.827
295.794
295.754
295.706
295.648
295.582
295.506
295.417
295.321
295.22
295.114
295.001
294.881
294.754
294.62
294.479
294.333
294.185
294.037
293.9
293.778
293.679
293.606
293.578
293.583
293.628
293.734
293.894
294.103
294.333
294.558
294.736
294.846
294.909
294.934
294.934
294.921
294.891
294.844
294.788
294.732
294.676
294.623
294.577
294.537
294.5
294.469
294.446
294.427
294.41
294.4
294.393
294.388
294.389
294.389
294.394
294.399
294.408
294.419
294.431
294.442
294.452
294.461
294.468
294.475
294.479
294.482
294.485
294.482
294.48
294.479
294.472
294.458
294.443
294.428
294.414
294.402
294.39
294.38
294.375
294.374
294.38
294.382
294.4
294.432
294.478
294.536
294.606
294.682
294.759
294.822
294.861
294.881
294.882
294.873
294.84
294.782
294.702
294.602
294.495
294.392
294.299
294.221
294.16
294.113
294.071
294.035
294.005
293.981
293.963
293.948
293.933
293.914
293.892
293.87
293.844
293.816
293.795
293.773
293.747
293.717
293.686
293.656
293.625
293.595
293.563
293.53
293.499
293.468
293.439
293.41
293.383
293.355
293.33
293.304
293.277
293.249
293.223
293.198
293.174
293.149
293.126
293.104
293.084
293.07
293.057
293.043
293.035
293.028
293.026
293.027
293.033
293.041
293.053
293.075
293.105
293.146
293.193
293.242
293.285
293.316
293.337
293.354
293.37
293.391
293.417
293.45
293.489
293.53
293.569
293.603
293.631
293.654
293.671
293.681
293.686
293.685
293.684
293.678
293.672
293.661
293.648
293.634
293.617
293.601
293.583
293.562
293.542
293.519
293.496
293.471
293.448
293.421
293.396
293.368
293.342
293.313
293.287
293.259
293.231
293.203
293.176
293.148
293.12
293.093
293.066
293.039
293.014
292.981
294.275
294.291
294.326
294.372
294.434
294.505
294.585
294.67
294.756
294.84
294.919
294.993
295.062
295.129
295.197
295.267
295.343
295.428
295.524
295.634
295.759
295.897
296.043
296.186
296.319
296.434
296.526
296.592
296.631
296.647
296.645
296.628
296.602
296.575
296.548
296.527
296.509
296.495
296.484
296.475
296.468
296.467
296.479
296.522
296.608
296.728
296.863
296.997
297.119
297.217
297.28
297.31
297.317
297.314
297.293
297.263
297.226
297.189
297.15
297.106
297.065
297.024
296.986
296.95
296.914
296.882
296.851
296.82
296.8
296.788
296.781
296.792
296.822
296.849
296.903
296.967
297.003
297.05
297.116
297.155
297.19
297.216
297.23
297.228
297.202
297.145
297.059
296.951
296.822
296.677
296.519
296.352
296.182
296.012
295.844
295.685
295.546
295.432
295.348
295.305
295.287
295.285
295.292
295.309
295.33
295.354
295.377
295.402
295.428
295.456
295.49
295.53
295.578
295.637
295.711
295.805
295.918
296.051
296.199
296.355
296.512
296.66
296.786
296.887
296.959
296.986
296.982
296.962
296.92
296.849
296.748
296.614
296.444
296.236
295.993
295.724
295.439
295.146
294.853
294.567
294.293
294.034
293.795
293.581
293.396
293.243
293.12
293.022
292.944
292.877
292.822
292.781
292.752
292.732
292.718
292.711
292.711
292.715
292.723
292.731
292.741
292.755
292.775
292.807
292.846
292.888
292.935
292.99
293.051
293.123
293.209
293.313
293.441
293.601
293.787
294.002
294.23
294.454
294.666
294.876
295.086
295.304
295.503
295.67
295.813
295.958
296.115
296.301
296.508
296.73