/*--------------------------------*- C++ -*----------------------------------*\
| =========                 |                                                 |
| \\      /  F ield         | OpenFOAM: The Open Source CFD Toolbox           |
|  \\    /   O peration     | Version:  v1812                                 |
|   \\  /    A nd           | Web:      www.OpenFOAM.com                      |
|    \\/     M anipulation  |                                                 |
\*---------------------------------------------------------------------------*/
FoamFile
{
    version     2.0;
    format      ascii;
    class       volVectorField;
    location    "1.3";
    object      U;
}
// * * * * * * * * * * * * * * * * * * * * * * * * * * * * * * * * * * * * * //

dimensions      [0 1 -1 0 0 0 0];


internalField   nonuniform List<vector> 
20400
(
(0.0116314 -0.0105389 0)
(0.023142 -0.00546619 0)
(0.031181 0.000411623 0)
(0.0368241 1.10073e-05 0)
(0.0453649 -0.000861648 0)
(0.0562674 -0.000225771 0)
(0.0669649 0.00232251 0)
(0.0735327 0.00682997 0)
(0.075422 0.00822613 0)
(0.0738821 0.00742912 0)
(0.0739986 0.00310119 0)
(0.079111 0.00034512 0)
(0.0849202 0.00152583 0)
(0.0877843 0.00432176 0)
(0.090478 0.00158613 0)
(0.095358 0.00112207 0)
(0.100084 0.00145058 0)
(0.10596 -0.000753959 0)
(0.115954 -0.00452725 0)
(0.131703 -0.00816229 0)
(0.153853 -0.0113056 0)
(0.183515 -0.0141785 0)
(0.222502 -0.0172325 0)
(0.273664 -0.0202428 0)
(0.338936 -0.018382 0)
(0.412742 -0.01133 0)
(0.490884 -0.0018118 0)
(0.574671 0.00713518 0)
(0.662529 0.0157 0)
(0.753917 0.0229101 0)
(0.848477 0.029238 0)
(0.943745 0.0367467 0)
(1.03538 0.0469827 0)
(1.1215 0.0564244 0)
(1.20381 0.0664749 0)
(1.27653 0.0786542 0)
(1.33281 0.083581 0)
(1.37881 0.0741703 0)
(1.42902 0.0579584 0)
(1.48998 0.039553 0)
(1.55412 0.0233371 0)
(1.61595 0.00360974 0)
(1.68133 -0.0208532 0)
(1.74311 -0.0470836 0)
(1.78101 -0.0861115 0)
(1.78069 -0.146974 0)
(1.76103 -0.145725 0)
(1.71074 -0.129106 0)
(1.64186 -0.109558 0)
(1.54293 -0.107775 0)
(1.49703 0.0557369 0)
(1.39734 0.0830119 0)
(1.2916 0.101289 0)
(1.1602 0.129955 0)
(1.00641 0.145771 0)
(0.840266 0.158457 0)
(0.657311 0.1803 0)
(0.448607 0.209564 0)
(0.206121 0.249827 0)
(-0.0807423 0.27467 0)
(-0.412331 0.230138 0)
(-0.775041 0.130855 0)
(-1.16583 0.030578 0)
(-1.58593 -0.028824 0)
(-2.02571 -0.040098 0)
(-2.47155 0.0216363 0)
(-2.91526 0.11484 0)
(-3.37134 0.195991 0)
(-3.84852 0.232744 0)
(-4.33393 0.20448 0)
(-4.8173 0.12699 0)
(-5.28579 0.0263881 0)
(-5.71871 -0.0319904 0)
(-6.11118 -0.0542317 0)
(-6.46123 -0.00836167 0)
(-6.75886 0.0924729 0)
(-7.00907 0.11305 0)
(-7.19927 0.125289 0)
(-7.34798 0.123997 0)
(-7.43353 0.0757737 0)
(-7.45694 0.056479 0)
(-7.42355 0.0116423 0)
(-7.31861 -0.0643862 0)
(-7.14213 -0.129156 0)
(-6.91888 -0.17692 0)
(-6.66306 -0.215623 0)
(-6.37975 -0.243551 0)
(-6.07683 -0.263099 0)
(-5.76427 -0.279906 0)
(-5.45742 -0.291469 0)
(-5.17049 -0.293626 0)
(-4.90591 -0.297608 0)
(-4.65048 -0.3102 0)
(-4.38487 -0.323424 0)
(-4.10808 -0.3322 0)
(-3.84051 -0.331522 0)
(-3.58672 -0.322159 0)
(-3.32832 -0.269435 0)
(-3.15852 -0.176676 0)
(-3.07121 -0.131822 0)
(-3.03156 -0.0960181 0)
(-3.04146 -0.0691978 0)
(-3.09114 -0.0406056 0)
(-3.17101 -0.033347 0)
(-3.26568 -0.0242643 0)
(-3.36093 -0.0317897 0)
(-3.44718 -0.0352518 0)
(-3.5173 -0.0350117 0)
(-3.56598 -0.0221659 0)
(-3.58739 -0.000186946 0)
(-3.57743 -0.00071203 0)
(-3.50034 0.0797482 0)
(-3.44055 0.318482 0)
(-3.24345 0.434999 0)
(-2.98405 0.380299 0)
(-2.70747 0.192888 0)
(-2.37464 -0.0015112 0)
(-1.99467 -0.0961782 0)
(-1.61228 -0.131242 0)
(-1.23826 -0.146329 0)
(-0.872022 -0.155048 0)
(-0.515187 -0.152909 0)
(-0.177321 -0.143008 0)
(0.127151 -0.102581 0)
(0.405722 -0.0196831 0)
(0.698182 0.0739093 0)
(1.01133 0.173799 0)
(1.30617 0.259642 0)
(1.48801 0.309668 0)
(1.56952 -0.0851955 0)
(1.79585 -0.200818 0)
(2.03677 -0.184463 0)
(2.27771 -0.0990423 0)
(2.50626 0.0365359 0)
(2.72538 0.170363 0)
(2.93136 0.271635 0)
(3.12318 0.339366 0)
(3.3085 0.36905 0)
(3.49019 0.382283 0)
(3.66417 0.312722 0)
(3.85081 0.229419 0)
(3.99901 0.0596895 0)
(4.14692 -0.0926375 0)
(4.3023 -0.182561 0)
(4.44943 -0.251258 0)
(4.59109 -0.307401 0)
(4.72653 -0.337376 0)
(4.84733 -0.343323 0)
(4.94634 -0.333704 0)
(5.02244 -0.312304 0)
(5.08427 -0.277914 0)
(5.14361 -0.207449 0)
(5.22235 -0.101218 0)
(5.29669 0.0139846 0)
(5.3291 0.119072 0)
(5.33292 0.193213 0)
(5.33286 0.246443 0)
(5.34743 0.223416 0)
(5.3849 0.140563 0)
(5.38961 -0.0467309 0)
(5.32683 -0.0705267 0)
(5.22416 -0.0233188 0)
(5.07363 0.0241888 0)
(4.89219 0.0565992 0)
(4.69175 0.0402667 0)
(4.49525 -0.0134991 0)
(4.32149 -0.079735 0)
(4.17046 -0.126818 0)
(4.0351 -0.126739 0)
(3.90237 -0.0673496 0)
(3.76847 0.051367 0)
(3.60481 0.146909 0)
(3.52194 0.239413 0)
(3.44002 0.219482 0)
(3.39025 -0.0286317 0)
(3.32365 -0.235718 0)
(3.29342 -0.168336 0)
(3.25344 -0.0845979 0)
(3.19758 -0.0563989 0)
(3.19867 -0.0334641 0)
(3.19133 0.0634344 0)
(3.1355 0.0845195 0)
(3.13063 0.106126 0)
(3.16522 0.149395 0)
(3.13945 0.192588 0)
(3.04691 0.189828 0)
(2.94667 -0.031567 0)
(2.9279 -0.683843 0)
(2.8363 -0.622536 0)
(2.60146 -0.345975 0)
(2.15554 -0.169704 0)
(1.69281 -0.120313 0)
(1.29378 -0.0778111 0)
(0.922782 0.0149822 0)
(0.516605 0.115689 0)
(0.082609 0.190734 0)
(-0.31995 0.359335 0)
(-0.736604 0.397695 0)
(-1.12209 0.366336 0)
(-1.48002 0.34079 0)
(-1.8069 0.29329 0)
(-2.06402 0.215401 0)
(-2.2481 0.149382 0)
(-2.37277 0.0912507 0)
(-2.43511 0.0202018 0)
(-2.41237 -0.0499333 0)
(-2.31036 -0.130213 0)
(-2.13122 -0.210801 0)
(-1.87375 -0.281274 0)
(-1.55337 -0.332426 0)
(-1.18798 -0.368156 0)
(-0.790242 -0.393893 0)
(-0.370595 -0.405454 0)
(0.0524295 -0.368118 0)
(0.454699 -0.262219 0)
(0.847945 -0.213482 0)
(1.21608 -0.211751 0)
(1.56209 -0.194716 0)
(1.88099 -0.0880475 0)
(2.09249 0.0489607 0)
(2.28984 0.0370954 0)
(2.55025 -0.00232265 0)
(2.84824 -0.145328 0)
(3.1227 -0.257385 0)
(3.35331 -0.287654 0)
(3.51385 -0.249546 0)
(3.60449 -0.113411 0)
(3.64997 0.111623 0)
(3.754 0.21266 0)
(3.80291 0.301095 0)
(3.85601 0.138541 0)
(3.90676 -0.0492275 0)
(3.96835 -0.0372444 0)
(4.01222 0.0246848 0)
(4.06 0.0584439 0)
(4.08556 0.069123 0)
(4.09164 0.0707491 0)
(4.06377 0.0658513 0)
(3.97389 0.0413532 0)
(3.82702 0.0104515 0)
(3.64403 0.00747505 0)
(3.44471 0.0353821 0)
(3.24068 0.0537803 0)
(3.05037 -0.00490177 0)
(2.9795 -0.201677 0)
(2.83724 -0.247519 0)
(2.66405 -0.218517 0)
(2.57073 0.0379856 0)
(2.39658 0.152273 0)
(2.23303 0.141144 0)
(2.10448 0.0963205 0)
(2.00666 0.0414864 0)
(1.94056 0.000774564 0)
(1.90719 -0.0230493 0)
(1.9105 -0.0348034 0)
(1.9546 -0.0706103 0)
(2.04123 -0.08936 0)
(2.14423 -0.0857419 0)
(2.25122 -0.0777157 0)
(2.34977 -0.068992 0)
(2.4363 -0.0628468 0)
(2.51838 -0.0808246 0)
(2.59145 -0.101413 0)
(2.64311 -0.121774 0)
(2.6715 -0.136857 0)
(2.66691 -0.163734 0)
(2.60593 -0.179291 0)
(2.57738 -0.291988 0)
(2.55572 -0.275037 0)
(2.52283 -0.224462 0)
(2.44886 -0.169313 0)
(2.34715 -0.129909 0)
(2.22672 -0.0992528 0)
(2.08664 -0.0680763 0)
(1.92336 -0.0536568 0)
(1.74437 -0.0488795 0)
(1.56295 -0.0503925 0)
(1.3903 -0.0520772 0)
(1.23961 -0.058385 0)
(1.12533 -0.0821664 0)
(1.03103 -0.0260679 0)
(0.988879 0.0349865 0)
(0.985837 0.0349419 0)
(0.976297 0.0363589 0)
(0.967951 0.0304672 0)
(0.960138 0.0318129 0)
(0.955044 0.0219588 0)
(0.968162 0.00163642 0)
(0.999857 -0.0125871 0)
(1.04001 0.0289574 0)
(1.1122 0.0460317 0)
(1.18787 -0.00882682 0)
(1.26406 0.0736999 0)
(1.35325 0.136691 0)
(1.48076 0.175608 0)
(1.63977 0.213465 0)
(1.82837 0.248963 0)
(2.04532 0.282999 0)
(2.28542 0.327819 0)
(2.52758 0.438991 0)
(2.63277 0.645438 0)
(2.75261 0.441295 0)
(2.78545 -0.247719 0)
(3.03613 -0.429625 0)
(3.27743 -0.469949 0)
(3.51081 -0.49168 0)
(3.73752 -0.525334 0)
(3.96172 -0.544779 0)
(4.18412 -0.496639 0)
(4.40065 -0.406389 0)
(4.61818 -0.343707 0)
(4.80028 -0.263415 0)
(4.96703 -0.136979 0)
(5.06493 0.215939 0)
(5.19689 0.495736 0)
(5.39332 0.407712 0)
(5.46139 -0.352744 0)
(5.57262 -0.754961 0)
(5.66719 -0.698672 0)
(5.71192 -0.447477 0)
(5.8594 -0.306594 0)
(5.97294 -0.235454 0)
(6.0518 -0.243219 0)
(6.08137 0.179496 0)
(6.19117 0.226429 0)
(6.29366 0.265437 0)
(6.3682 0.307744 0)
(6.43826 0.216033 0)
(6.47642 0.0258381 0)
(6.46956 -0.0650705 0)
(6.45336 -0.0278325 0)
(6.45991 0.0146126 0)
(6.44516 0.0301882 0)
(6.4172 0.0395866 0)
(6.37091 0.0417338 0)
(6.3043 0.0268485 0)
(6.20829 0.00306934 0)
(6.08081 -0.0148657 0)
(5.93102 -0.0193314 0)
(5.77153 -0.0175112 0)
(5.61354 -0.0126911 0)
(5.46824 0.0162448 0)
(5.36255 0.0814982 0)
(5.26752 0.105172 0)
(5.183 0.180751 0)
(5.16506 0.482806 0)
(5.12205 -0.230449 0)
(4.91443 -0.425625 0)
(4.83636 0.143264 0)
(4.83559 0.541485 0)
(4.77444 0.623468 0)
(4.75114 0.634986 0)
(4.75944 0.625023 0)
(4.74951 -0.444048 0)
(4.53024 -0.680266 0)
(4.49004 0.585021 0)
(4.52132 0.824601 0)
(4.53843 0.753352 0)
(4.64619 0.65016 0)
(4.854 0.587943 0)
(5.09281 0.615535 0)
(5.2736 0.667606 0)
(5.32686 -0.597613 0)
(5.26888 -0.568269 0)
(5.2593 -0.549548 0)
(5.32536 -0.575704 0)
(5.46117 -0.572001 0)
(5.62267 -0.533681 0)
(5.78389 -0.471799 0)
(5.95142 -0.43321 0)
(6.17515 -0.367358 0)
(6.4604 -0.372849 0)
(6.78864 -0.356354 0)
(7.06821 -0.15098 0)
(7.15734 0.15317 0)
(7.29354 0.413689 0)
(7.4209 0.689756 0)
(7.49032 0.871262 0)
(7.59873 0.931481 0)
(7.72691 0.00357925 0)
(7.74323 -0.856769 0)
(7.75383 -0.740045 0)
(7.746 -0.458629 0)
(7.64926 -0.250091 0)
(7.65904 -0.0014093 0)
(7.68764 0.28296 0)
(7.74077 0.423572 0)
(7.76904 0.549948 0)
(7.81816 0.646233 0)
(7.87022 0.733116 0)
(7.91859 0.798143 0)
(7.95125 0.848134 0)
(7.97196 0.840462 0)
(7.96945 0.828698 0)
(7.95205 0.810238 0)
(7.92536 0.780155 0)
(7.88839 0.740191 0)
(7.85218 0.682072 0)
(7.7939 0.592533 0)
(7.79222 0.247035 0)
(7.70451 0.0666198 0)
(7.59977 0.0782343 0)
(7.49445 0.0996482 0)
(7.37063 0.114073 0)
(7.23457 0.129954 0)
(7.101 0.143393 0)
(6.97846 0.160037 0)
(6.87175 0.194492 0)
(6.77135 0.23114 0)
(6.70675 0.306609 0)
(6.61415 0.325438 0)
(6.52187 0.194893 0)
(6.34448 0.17081 0)
(6.18553 0.14915 0)
(6.08329 0.175458 0)
(6.01544 0.200706 0)
(5.96968 0.252356 0)
(5.90097 -0.0322718 0)
(5.84787 0.130187 0)
(5.84371 0.183749 0)
(5.82561 0.202477 0)
(5.85662 0.294821 0)
(5.87424 0.544772 0)
(5.85667 -0.305817 0)
(5.65341 -0.459626 0)
(5.54576 -0.473281 0)
(5.49749 -0.479084 0)
(5.48516 -0.459518 0)
(5.48655 -0.449291 0)
(5.49558 -0.447871 0)
(5.51266 -0.456792 0)
(5.53749 -0.475086 0)
(5.56721 -0.498934 0)
(5.59974 -0.522581 0)
(5.63342 -0.542691 0)
(5.6677 -0.555868 0)
(5.70228 -0.561471 0)
(5.73834 -0.55723 0)
(5.77492 -0.539281 0)
(5.80677 -0.50376 0)
(5.8405 -0.449891 0)
(5.85282 -0.384146 0)
(5.9037 -0.34879 0)
(5.95953 -0.196896 0)
(6.04655 0.0194301 0)
(6.16833 -0.0584243 0)
(6.22216 -0.266838 0)
(6.27773 -0.383897 0)
(6.30951 -0.404389 0)
(6.31511 -0.403439 0)
(6.31959 -0.397816 0)
(6.32149 -0.38189 0)
(6.32568 -0.352994 0)
(6.32929 -0.312892 0)
(6.34144 -0.265517 0)
(6.35478 -0.231957 0)
(6.37242 -0.219621 0)
(6.36546 -0.193871 0)
(6.31977 -0.149758 0)
(6.32332 -0.000900604 0)
(6.35452 0.12928 0)
(6.4182 0.2039 0)
(6.4691 0.218123 0)
(6.47903 0.0672106 0)
(6.45904 -0.173455 0)
(6.38483 -0.298071 0)
(6.3195 -0.188482 0)
(6.30117 0.0533982 0)
(6.32718 0.230603 0)
(6.37618 0.200771 0)
(6.36044 -0.140616 0)
(6.33053 -0.271118 0)
(6.28422 -0.228358 0)
(6.18813 -0.160743 0)
(6.16724 0.000157177 0)
(6.22215 0.115963 0)
(6.27022 0.212245 0)
(6.27296 0.272737 0)
(6.25075 -0.0688597 0)
(6.17082 -0.309735 0)
(6.10052 -0.197752 0)
(6.07109 0.00881177 0)
(6.07838 0.197606 0)
(6.10561 0.257895 0)
(6.09129 0.0136377 0)
(6.05534 -0.282605 0)
(6.0028 -0.222647 0)
(5.96871 -0.0535444 0)
(5.97701 0.141051 0)
(6.01582 0.226865 0)
(6.04697 0.0759203 0)
(6.04258 -0.236523 0)
(6.0188 -0.247335 0)
(5.97743 -0.203769 0)
(5.90547 -0.139843 0)
(5.90022 0.0421737 0)
(5.94949 0.182226 0)
(6.01201 0.152114 0)
(5.99606 -0.175418 0)
(6.0212 -0.244544 0)
(0.0266667 -0.042496 0)
(0.0364414 -0.0325228 0)
(0.052722 -0.0206048 0)
(0.0644411 -0.0241644 0)
(0.0782207 -0.0290285 0)
(0.094038 -0.0310748 0)
(0.11027 -0.0294963 0)
(0.125499 -0.023783 0)
(0.140436 -0.020376 0)
(0.155433 -0.018999 0)
(0.17137 -0.0250288 0)
(0.190272 -0.029712 0)
(0.21108 -0.029929 0)
(0.233711 -0.0277231 0)
(0.258844 -0.0324661 0)
(0.287208 -0.0347744 0)
(0.318544 -0.0363538 0)
(0.353496 -0.0415918 0)
(0.39266 -0.0493383 0)
(0.436116 -0.0580035 0)
(0.483863 -0.0675735 0)
(0.536087 -0.0785183 0)
(0.592846 -0.0918895 0)
(0.654286 -0.108406 0)
(0.71961 -0.12501 0)
(0.799451 -0.129337 0)
(0.895536 -0.138449 0)
(1.00027 -0.146087 0)
(1.11038 -0.151186 0)
(1.22256 -0.154936 0)
(1.33425 -0.156403 0)
(1.44189 -0.153772 0)
(1.54075 -0.147822 0)
(1.62889 -0.142472 0)
(1.70697 -0.137124 0)
(1.77414 -0.117713 0)
(1.83137 -0.0968288 0)
(1.88172 -0.0907314 0)
(1.92419 -0.0991205 0)
(1.96029 -0.102995 0)
(1.98566 -0.0954219 0)
(1.99971 -0.0906128 0)
(2.00604 -0.0916211 0)
(2.00498 -0.066463 0)
(1.98682 -0.0299835 0)
(1.94702 -0.00126014 0)
(1.89729 0.0433705 0)
(1.82446 0.0802013 0)
(1.73749 0.104303 0)
(1.62483 0.120343 0)
(1.44576 0.235795 0)
(1.13034 0.302003 0)
(0.727474 0.291086 0)
(0.262094 0.291296 0)
(-0.238896 0.291269 0)
(-0.749575 0.302935 0)
(-1.25254 0.335952 0)
(-1.74081 0.380122 0)
(-2.21885 0.440582 0)
(-2.70646 0.528215 0)
(-3.23915 0.689039 0)
(-3.88104 0.860108 0)
(-4.64246 0.987357 0)
(-5.50315 1.03407 0)
(-6.41839 0.99093 0)
(-7.34058 0.860257 0)
(-8.24973 0.742353 0)
(-9.13323 0.68206 0)
(-9.97146 0.669478 0)
(-10.7318 0.67423 0)
(-11.3955 0.722953 0)
(-11.966 0.717863 0)
(-12.4443 0.680336 0)
(-12.8467 0.606481 0)
(-13.1709 0.507277 0)
(-13.4129 0.371332 0)
(-13.5893 0.261999 0)
(-13.7176 0.188853 0)
(-13.8167 0.113362 0)
(-13.8571 0.0348799 0)
(-13.7883 -0.0276068 0)
(-13.619 -0.0964304 0)
(-13.3756 -0.172028 0)
(-13.0738 -0.230406 0)
(-12.7296 -0.260467 0)
(-12.3581 -0.286739 0)
(-11.9705 -0.307209 0)
(-11.5821 -0.321527 0)
(-11.1988 -0.316013 0)
(-10.8157 -0.288375 0)
(-10.416 -0.248848 0)
(-9.97583 -0.217693 0)
(-9.4813 -0.21229 0)
(-8.94253 -0.229837 0)
(-8.38611 -0.228237 0)
(-7.85219 -0.201871 0)
(-7.38675 -0.197981 0)
(-7.02963 -0.193908 0)
(-6.81494 -0.0722271 0)
(-6.64796 0.00189984 0)
(-6.49801 0.0510135 0)
(-6.37424 0.0923021 0)
(-6.2639 0.132106 0)
(-6.15462 0.158846 0)
(-6.04245 0.160325 0)
(-5.92701 0.150163 0)
(-5.79912 0.12977 0)
(-5.65679 0.0987703 0)
(-5.49795 0.0621582 0)
(-5.32371 0.0206509 0)
(-5.12582 -0.0258181 0)
(-4.89625 -0.110403 0)
(-4.57988 -0.207314 0)
(-4.14406 -0.408093 0)
(-3.56895 -0.557018 0)
(-2.98933 -0.63644 0)
(-2.48173 -0.67458 0)
(-2.04474 -0.673829 0)
(-1.64094 -0.655518 0)
(-1.25634 -0.637658 0)
(-0.883364 -0.620973 0)
(-0.529864 -0.584861 0)
(-0.16747 -0.598747 0)
(0.276849 -0.705456 0)
(0.861319 -0.858038 0)
(1.5733 -0.996943 0)
(2.36636 -1.03133 0)
(3.20177 -0.899773 0)
(3.95297 -0.464886 0)
(4.65354 -0.218375 0)
(5.2432 -0.232292 0)
(5.76974 -0.282365 0)
(6.23318 -0.356161 0)
(6.61567 -0.456052 0)
(6.94186 -0.538376 0)
(7.24872 -0.583834 0)
(7.55564 -0.610254 0)
(7.86907 -0.62104 0)
(8.19412 -0.607433 0)
(8.52745 -0.56351 0)
(8.85977 -0.475545 0)
(9.17215 -0.32816 0)
(9.4817 -0.209296 0)
(9.79411 -0.14144 0)
(10.1109 -0.088094 0)
(10.4428 -0.0409959 0)
(10.8015 -0.00265957 0)
(11.1959 0.0345115 0)
(11.6286 0.0731546 0)
(12.0852 0.0992986 0)
(12.5146 0.0964236 0)
(12.8331 0.0212729 0)
(12.978 -0.0857341 0)
(13.0104 -0.122181 0)
(12.9985 -0.138145 0)
(13.0023 -0.172578 0)
(13.0233 -0.214003 0)
(13.0534 -0.244663 0)
(13.0919 -0.192493 0)
(13.0871 0.024346 0)
(13.0479 0.155903 0)
(12.9549 0.217001 0)
(12.8137 0.252049 0)
(12.6009 0.264308 0)
(12.3076 0.298997 0)
(11.966 0.316442 0)
(11.6328 0.332297 0)
(11.3372 0.333732 0)
(11.0914 0.314017 0)
(10.8607 0.287438 0)
(10.5774 0.219416 0)
(10.1582 0.086135 0)
(9.64116 -0.143112 0)
(9.08639 -0.114867 0)
(8.70504 0.122848 0)
(8.41982 0.196548 0)
(8.25099 0.157298 0)
(8.14257 0.146009 0)
(8.10244 0.0455054 0)
(8.12449 -0.0219017 0)
(8.13593 0.0057363 0)
(8.01232 -0.0456844 0)
(7.65426 -0.147107 0)
(7.12504 -0.134757 0)
(6.56095 -0.0532388 0)
(6.0036 0.00423996 0)
(5.41372 0.0947887 0)
(4.6673 0.333025 0)
(3.9237 0.635307 0)
(3.30523 0.852228 0)
(2.74922 0.963863 0)
(2.21544 0.899751 0)
(1.72775 0.791268 0)
(1.26276 0.774354 0)
(0.805608 0.809111 0)
(0.346857 0.773036 0)
(-0.0517087 0.669017 0)
(-0.416942 0.616228 0)
(-0.764193 0.537405 0)
(-1.09385 0.479569 0)
(-1.39439 0.396732 0)
(-1.60891 0.268238 0)
(-1.71488 0.178163 0)
(-1.71033 0.114283 0)
(-1.64905 -0.00221682 0)
(-1.50465 -0.122974 0)
(-1.28405 -0.243531 0)
(-0.99796 -0.363007 0)
(-0.634797 -0.46864 0)
(-0.198001 -0.543507 0)
(0.298585 -0.590015 0)
(0.841455 -0.616997 0)
(1.42256 -0.625188 0)
(2.04402 -0.628438 0)
(2.72156 -0.657602 0)
(3.43756 -0.592421 0)
(4.12929 -0.491784 0)
(4.78309 -0.43962 0)
(5.40589 -0.423821 0)
(5.90625 -0.318767 0)
(6.27184 -0.382607 0)
(6.54758 -0.517684 0)
(6.84238 -0.384702 0)
(7.18194 -0.222497 0)
(7.54004 -0.0931149 0)
(7.82164 0.0356417 0)
(8.00757 -0.00839412 0)
(8.01009 -0.158317 0)
(7.87852 -0.215287 0)
(7.79293 -0.17987 0)
(7.75563 -0.154101 0)
(7.78 0.0112116 0)
(7.82949 -0.0221775 0)
(7.85895 -0.0421134 0)
(7.82501 -0.0393011 0)
(7.68236 -0.00700565 0)
(7.41989 0.0121535 0)
(7.06875 0.0856973 0)
(6.65634 0.188384 0)
(6.20595 0.255316 0)
(5.75688 0.286278 0)
(5.33548 0.288926 0)
(4.95192 0.272797 0)
(4.61514 0.192753 0)
(4.28096 0.204437 0)
(3.94284 0.28591 0)
(3.60791 0.268314 0)
(3.37944 0.209268 0)
(3.24246 0.196498 0)
(3.14314 0.18052 0)
(3.08312 0.144433 0)
(3.05368 0.131202 0)
(3.05664 0.0921875 0)
(3.03733 0.057294 0)
(3.03605 0.0229293 0)
(3.03936 -0.0313091 0)
(3.0508 -0.0664409 0)
(3.07116 -0.0759485 0)
(3.09477 -0.0773024 0)
(3.11473 -0.0595773 0)
(3.13726 -0.0540902 0)
(3.15944 -0.0490872 0)
(3.1767 -0.0325194 0)
(3.19116 -0.0015272 0)
(3.17222 0.0235311 0)
(3.15671 0.0761897 0)
(3.10997 0.117874 0)
(2.9947 0.101921 0)
(2.85284 0.123323 0)
(2.72107 0.157989 0)
(2.59396 0.19668 0)
(2.46481 0.221964 0)
(2.32785 0.245212 0)
(2.18268 0.261238 0)
(2.03298 0.285176 0)
(1.87323 0.299407 0)
(1.71004 0.296999 0)
(1.54698 0.28457 0)
(1.38885 0.250177 0)
(1.24429 0.190677 0)
(1.10407 0.185637 0)
(0.969381 0.139 0)
(0.855171 0.0817522 0)
(0.799489 0.0511005 0)
(0.80082 0.041916 0)
(0.839645 0.0321004 0)
(0.893092 0.0191649 0)
(0.944661 -0.00353434 0)
(0.994639 -0.0240517 0)
(1.05756 -0.085416 0)
(1.15959 -0.123928 0)
(1.23519 -0.0676176 0)
(1.31561 -0.167479 0)
(1.47876 -0.251975 0)
(1.69433 -0.330848 0)
(1.94495 -0.392821 0)
(2.21984 -0.446912 0)
(2.51564 -0.498019 0)
(2.83821 -0.537282 0)
(3.19592 -0.51791 0)
(3.67785 -0.387806 0)
(4.31895 -0.303091 0)
(4.83357 -0.0775076 0)
(5.23254 -0.09523 0)
(5.60195 -0.0900358 0)
(5.96312 -0.0742914 0)
(6.31349 -0.0554526 0)
(6.65682 -0.0377453 0)
(7.01292 -0.0590619 0)
(7.40702 -0.0974207 0)
(7.84776 -0.095257 0)
(8.29564 -0.0677123 0)
(8.68475 -0.0747612 0)
(8.88481 -0.264911 0)
(9.04692 -0.264384 0)
(9.14126 -0.382369 0)
(9.20242 0.0152947 0)
(9.26484 0.293787 0)
(9.34627 0.221036 0)
(9.49714 0.0786738 0)
(9.76518 -0.0163569 0)
(10.0817 0.00704242 0)
(10.3785 0.094837 0)
(10.5151 -0.0972272 0)
(10.4473 -0.171376 0)
(10.4075 -0.178252 0)
(10.4328 -0.113106 0)
(10.4892 -0.117422 0)
(10.5081 0.0132183 0)
(10.503 0.0982208 0)
(10.5074 0.0780805 0)
(10.4957 0.0621844 0)
(10.4375 0.0739554 0)
(10.3056 0.0939061 0)
(10.1052 0.117241 0)
(9.86518 0.153512 0)
(9.61197 0.204395 0)
(9.35752 0.246518 0)
(9.10577 0.272484 0)
(8.86164 0.278794 0)
(8.62719 0.271475 0)
(8.39516 0.229188 0)
(8.15943 0.167326 0)
(7.90722 0.130657 0)
(7.67029 0.0797078 0)
(7.4991 -0.0448855 0)
(7.43488 0.357081 0)
(7.42596 0.289019 0)
(7.3473 0.064981 0)
(7.20586 -0.034576 0)
(7.15241 -0.0934802 0)
(7.12323 -0.135437 0)
(7.09362 -0.155566 0)
(7.08877 0.46239 0)
(7.05208 0.407565 0)
(7.02352 -0.197203 0)
(7.16735 -0.254215 0)
(7.34924 -0.324636 0)
(7.53655 -0.408127 0)
(7.65601 -0.501839 0)
(7.75657 -0.487655 0)
(7.87388 -0.315867 0)
(7.97086 0.330104 0)
(8.23527 0.310623 0)
(8.58888 0.240951 0)
(9.02038 0.132954 0)
(9.49735 0.0673111 0)
(9.99199 0.0431237 0)
(10.4725 0.0191537 0)
(10.8928 -0.0294801 0)
(11.2312 -0.191875 0)
(11.6415 -0.240019 0)
(12.1727 -0.269922 0)
(12.6699 -0.11505 0)
(12.9467 -0.191041 0)
(13.0472 -0.301217 0)
(13.1393 -0.412856 0)
(13.2604 -0.452231 0)
(13.3672 -0.496057 0)
(13.4966 -0.0652665 0)
(13.575 0.401587 0)
(13.6723 0.364478 0)
(13.8843 0.313078 0)
(14.1798 0.229414 0)
(14.3775 0.0339334 0)
(14.2996 -0.138161 0)
(14.0915 -0.18813 0)
(13.9437 -0.236035 0)
(13.8517 -0.295947 0)
(13.7578 -0.326806 0)
(13.6462 -0.341595 0)
(13.5307 -0.331234 0)
(13.4231 -0.293279 0)
(13.3159 -0.267206 0)
(13.2167 -0.23554 0)
(13.1219 -0.209094 0)
(13.0281 -0.185865 0)
(12.9322 -0.159238 0)
(12.8249 -0.133118 0)
(12.7845 0.0235463 0)
(12.7565 0.110382 0)
(12.713 0.141428 0)
(12.6316 0.145294 0)
(12.4872 0.162287 0)
(12.2898 0.165419 0)
(12.0649 0.145102 0)
(11.8286 0.120236 0)
(11.5799 0.0924952 0)
(11.3051 0.0565352 0)
(11.0107 0.01495 0)
(10.717 0.0227934 0)
(10.5341 0.13671 0)
(10.4725 0.207413 0)
(10.4213 0.13565 0)
(10.2691 0.0597877 0)
(10.0478 0.0312703 0)
(9.87334 -0.0189485 0)
(9.83374 0.12753 0)
(9.8193 -0.0139931 0)
(9.66074 -0.0468694 0)
(9.42834 -0.0501891 0)
(9.21616 -0.137379 0)
(9.07551 -0.172202 0)
(9.03566 0.322836 0)
(9.05349 0.331684 0)
(9.05673 0.262867 0)
(9.08277 0.198106 0)
(9.13771 0.169661 0)
(9.2011 0.158529 0)
(9.26487 0.146252 0)
(9.32595 0.136764 0)
(9.38548 0.134779 0)
(9.4478 0.139188 0)
(9.51828 0.146852 0)
(9.60227 0.15474 0)
(9.70209 0.161982 0)
(9.8185 0.165156 0)
(9.95377 0.164638 0)
(10.1104 0.161782 0)
(10.287 0.152066 0)
(10.4836 0.13637 0)
(10.706 0.11481 0)
(10.954 0.0690206 0)
(11.1083 -0.0765788 0)
(11.0875 -0.14808 0)
(10.9928 -0.174496 0)
(10.9348 -0.0208277 0)
(11.0088 0.0698574 0)
(11.1259 0.134772 0)
(11.2266 0.140814 0)
(11.3158 0.139985 0)
(11.4108 0.136735 0)
(11.5179 0.123321 0)
(11.6237 0.101196 0)
(11.7007 0.068066 0)
(11.7583 0.0523257 0)
(11.8365 0.0609637 0)
(11.9775 0.0966702 0)
(12.1703 0.0929185 0)
(12.2686 -0.0605209 0)
(12.1619 -0.16559 0)
(11.9531 -0.223117 0)
(11.7695 -0.157922 0)
(11.6529 -0.0508265 0)
(11.6744 0.129924 0)
(11.8293 0.169329 0)
(12.0148 0.137821 0)
(12.0812 -0.0541339 0)
(11.9195 -0.173541 0)
(11.6806 -0.15898 0)
(11.6148 0.0795535 0)
(11.6925 0.114273 0)
(11.8628 0.203648 0)
(12.1195 0.152522 0)
(12.223 -0.0487142 0)
(12.063 -0.159171 0)
(11.7746 -0.158209 0)
(11.5066 -0.135152 0)
(11.4226 0.107193 0)
(11.5122 0.183667 0)
(11.6821 0.171414 0)
(11.7822 0.000347958 0)
(11.6476 -0.155665 0)
(11.4238 -0.146244 0)
(11.3169 0.0325633 0)
(11.3689 0.136438 0)
(11.5309 0.189761 0)
(11.675 0.0311276 0)
(11.5906 -0.125212 0)
(11.395 -0.160739 0)
(11.2173 -0.0690884 0)
(11.1883 0.112082 0)
(11.2997 0.141366 0)
(11.5135 0.18791 0)
(11.7639 0.134108 0)
(11.8369 -0.0649511 0)
(11.6885 -0.153327 0)
(11.482 -0.128452 0)
(11.4567 0.0680431 0)
(11.5681 0.115885 0)
(0.011306 -0.0717325 0)
(0.0169212 -0.0551155 0)
(0.0253922 -0.0362183 0)
(0.0309258 -0.0433458 0)
(0.0338713 -0.0529497 0)
(0.0360496 -0.0566323 0)
(0.0373849 -0.056418 0)
(0.0372035 -0.0498885 0)
(0.0320087 -0.0451261 0)
(0.0236219 -0.044681 0)
(0.0178067 -0.0537727 0)
(0.0123492 -0.0619533 0)
(0.00386916 -0.0602982 0)
(-0.00141916 -0.0584262 0)
(0.00223771 -0.0612284 0)
(0.0230852 -0.0655222 0)
(0.0620236 -0.073295 0)
(0.113107 -0.0874707 0)
(0.174207 -0.105908 0)
(0.244212 -0.127747 0)
(0.322689 -0.152278 0)
(0.408 -0.179618 0)
(0.497998 -0.206071 0)
(0.589677 -0.229449 0)
(0.680282 -0.248974 0)
(0.767171 -0.274123 0)
(0.857753 -0.296561 0)
(0.956987 -0.313749 0)
(1.06354 -0.324728 0)
(1.17445 -0.332059 0)
(1.28586 -0.332768 0)
(1.39253 -0.321292 0)
(1.48968 -0.299077 0)
(1.57852 -0.279438 0)
(1.65905 -0.258073 0)
(1.72522 -0.225644 0)
(1.77511 -0.193842 0)
(1.81566 -0.179379 0)
(1.84851 -0.18142 0)
(1.87345 -0.167793 0)
(1.87192 -0.125944 0)
(1.83339 -0.0847823 0)
(1.76821 -0.0674234 0)
(1.69217 -0.0195284 0)
(1.5921 0.0633071 0)
(1.44599 0.123562 0)
(1.27647 0.197769 0)
(1.0705 0.262945 0)
(0.834022 0.304282 0)
(0.558201 0.363418 0)
(0.239471 0.49104 0)
(-0.116029 0.737434 0)
(-0.633519 0.95235 0)
(-1.30624 1.07488 0)
(-2.09781 1.09071 0)
(-2.96582 1.04215 0)
(-3.87383 0.980878 0)
(-4.79624 0.936507 0)
(-5.72951 0.932419 0)
(-6.67899 0.966546 0)
(-7.63075 1.06802 0)
(-8.55487 1.20886 0)
(-9.4304 1.36535 0)
(-10.2407 1.53349 0)
(-11.0045 1.62857 0)
(-11.7357 1.69903 0)
(-12.4589 1.72543 0)
(-13.1834 1.7072 0)
(-13.8962 1.61606 0)
(-14.5633 1.42915 0)
(-15.1941 1.25731 0)
(-15.7428 1.04826 0)
(-16.1983 0.901233 0)
(-16.5166 0.754782 0)
(-16.6738 0.625868 0)
(-16.7002 0.511335 0)
(-16.6018 0.385439 0)
(-16.385 0.309386 0)
(-16.1368 0.219493 0)
(-15.9238 0.0463385 0)
(-15.6711 -0.126928 0)
(-15.376 -0.301712 0)
(-15.0409 -0.453087 0)
(-14.6682 -0.57951 0)
(-14.2519 -0.661833 0)
(-13.806 -0.727461 0)
(-13.3387 -0.766037 0)
(-12.8672 -0.780332 0)
(-12.4017 -0.780862 0)
(-11.9395 -0.783466 0)
(-11.4681 -0.811187 0)
(-10.9695 -0.883378 0)
(-10.4277 -0.989529 0)
(-9.83254 -1.0781 0)
(-9.18696 -1.11502 0)
(-8.51021 -1.0712 0)
(-7.8572 -0.910645 0)
(-7.50636 -0.585569 0)
(-7.35614 -0.367191 0)
(-7.16723 -0.284755 0)
(-6.99492 -0.214752 0)
(-6.82552 -0.153004 0)
(-6.65825 -0.108465 0)
(-6.49147 -0.0829494 0)
(-6.32563 -0.0765386 0)
(-6.1601 -0.0928589 0)
(-5.98993 -0.123372 0)
(-5.81256 -0.164883 0)
(-5.62334 -0.211373 0)
(-5.4191 -0.261558 0)
(-5.18217 -0.341399 0)
(-4.89778 -0.594688 0)
(-4.39901 -0.998961 0)
(-3.68082 -1.40063 0)
(-2.81589 -1.56453 0)
(-1.91746 -1.46659 0)
(-1.03873 -1.27872 0)
(-0.180103 -1.16111 0)
(0.649012 -1.082 0)
(1.44061 -1.02847 0)
(2.19061 -0.994478 0)
(2.90091 -0.97093 0)
(3.56888 -0.989078 0)
(4.17677 -1.0801 0)
(4.71952 -1.22249 0)
(5.23419 -1.3357 0)
(5.76216 -1.41852 0)
(6.30659 -1.4484 0)
(6.90936 -1.39706 0)
(7.59053 -1.40338 0)
(8.27885 -1.35852 0)
(8.92614 -1.1906 0)
(9.50915 -0.93723 0)
(10.0254 -0.678838 0)
(10.4932 -0.512 0)
(10.923 -0.437292 0)
(11.3284 -0.410651 0)
(11.7201 -0.416239 0)
(12.1097 -0.43899 0)
(12.499 -0.497332 0)
(12.8886 -0.534858 0)
(13.2683 -0.603803 0)
(13.6302 -0.682694 0)
(13.975 -0.740561 0)
(14.3103 -0.794764 0)
(14.6483 -0.858668 0)
(14.9961 -0.926002 0)
(15.3523 -0.987746 0)
(15.711 -1.03213 0)
(16.0693 -1.02031 0)
(16.4097 -0.866387 0)
(16.6929 -0.566669 0)
(16.9504 -0.24768 0)
(17.2511 -0.0616688 0)
(17.5895 0.0300346 0)
(17.9815 0.0476178 0)
(18.4147 0.0543113 0)
(18.8179 0.0541043 0)
(19.0698 0.00918275 0)
(19.1268 -0.00624214 0)
(19.0344 0.0432991 0)
(18.8358 0.172186 0)
(18.5918 0.328178 0)
(18.3727 0.499463 0)
(18.1851 0.64384 0)
(17.9965 0.634166 0)
(17.8273 0.527905 0)
(17.5839 0.387285 0)
(17.1623 0.281932 0)
(16.5478 0.338086 0)
(15.7989 0.591825 0)
(14.9957 0.989449 0)
(14.1527 1.20178 0)
(13.3986 1.09536 0)
(12.9612 0.645082 0)
(12.8805 0.223856 0)
(12.8141 0.116798 0)
(12.6583 0.0584277 0)
(12.2495 -0.0651623 0)
(11.612 -0.108041 0)
(10.8877 0.0399456 0)
(10.1376 0.36142 0)
(9.27875 0.790673 0)
(8.38349 1.04464 0)
(7.61964 1.13726 0)
(6.9754 1.18748 0)
(6.34642 1.31609 0)
(5.73716 1.34021 0)
(5.32936 1.13047 0)
(4.99825 1.09733 0)
(4.66896 1.13441 0)
(4.23737 1.03037 0)
(3.69266 0.891191 0)
(3.07882 0.907142 0)
(2.45674 0.969486 0)
(1.84231 0.954389 0)
(1.23387 0.932841 0)
(0.633509 0.957972 0)
(0.0892916 0.938368 0)
(-0.350198 0.922249 0)
(-0.682713 0.800505 0)
(-0.872275 0.536185 0)
(-0.893201 0.187394 0)
(-0.659892 -0.0168421 0)
(-0.287765 -0.166267 0)
(0.184836 -0.349795 0)
(0.738384 -0.521421 0)
(1.31349 -0.714106 0)
(1.89655 -0.919422 0)
(2.49772 -1.09829 0)
(3.12315 -1.23972 0)
(3.77309 -1.35137 0)
(4.44503 -1.44254 0)
(5.12734 -1.5032 0)
(5.79796 -1.54598 0)
(6.4485 -1.57336 0)
(7.0763 -1.50745 0)
(7.69506 -1.4197 0)
(8.32427 -1.18302 0)
(8.81074 -0.728692 0)
(9.32509 -0.533301 0)
(9.71486 -0.478623 0)
(9.89764 -0.735208 0)
(9.93867 -0.830972 0)
(9.92231 -0.764041 0)
(9.89122 -0.503264 0)
(9.84722 -0.209197 0)
(9.84281 0.203673 0)
(9.9424 0.291524 0)
(10.051 0.229768 0)
(10.0986 0.093651 0)
(10.0658 -0.0563059 0)
(9.94442 -0.0832461 0)
(9.75649 -0.00629723 0)
(9.48734 0.153585 0)
(9.11993 0.362801 0)
(8.64564 0.543628 0)
(8.10395 0.708478 0)
(7.5284 0.858277 0)
(6.93509 0.934488 0)
(6.35701 0.948764 0)
(5.80914 0.930652 0)
(5.29642 0.883864 0)
(4.84117 0.771368 0)
(4.44794 0.726423 0)
(4.11596 0.753828 0)
(3.8208 0.656387 0)
(3.59245 0.492613 0)
(3.37068 0.439806 0)
(3.20128 0.363919 0)
(3.09605 0.266327 0)
(3.02813 0.192002 0)
(2.97201 0.141994 0)
(2.92459 0.0965283 0)
(2.89957 0.0443312 0)
(2.89612 -0.0215394 0)
(2.91398 -0.0652821 0)
(2.95058 -0.0828629 0)
(2.99887 -0.0925575 0)
(3.05013 -0.0749781 0)
(3.10433 -0.0704436 0)
(3.14743 -0.0441333 0)
(3.17187 -0.00914149 0)
(3.16745 0.0431018 0)
(3.15892 0.107783 0)
(3.1114 0.16598 0)
(3.0454 0.26717 0)
(2.8961 0.312336 0)
(2.71091 0.316699 0)
(2.51943 0.327725 0)
(2.31857 0.353488 0)
(2.10339 0.376023 0)
(1.87353 0.403934 0)
(1.63363 0.42314 0)
(1.40118 0.441766 0)
(1.19412 0.448667 0)
(1.02714 0.440239 0)
(0.901256 0.422674 0)
(0.820677 0.387548 0)
(0.790201 0.298471 0)
(0.72551 0.290898 0)
(0.697855 0.220719 0)
(0.677326 0.148983 0)
(0.693375 0.0750997 0)
(0.73633 0.0198113 0)
(0.793855 -0.0139795 0)
(0.858413 -0.035443 0)
(0.937347 -0.0676119 0)
(1.05303 -0.153153 0)
(1.23784 -0.267964 0)
(1.48168 -0.307266 0)
(1.77877 -0.260025 0)
(2.09609 -0.296702 0)
(2.38978 -0.373889 0)
(2.70065 -0.439094 0)
(3.02916 -0.485091 0)
(3.36695 -0.522801 0)
(3.70237 -0.565465 0)
(4.02583 -0.618731 0)
(4.36035 -0.611326 0)
(4.70612 -0.85999 0)
(5.16633 -1.11513 0)
(5.70516 -1.01102 0)
(6.2485 -1.01068 0)
(6.76583 -0.978474 0)
(7.25876 -0.935592 0)
(7.72768 -0.898063 0)
(8.17291 -0.871723 0)
(8.58881 -0.88346 0)
(8.96709 -0.91639 0)
(9.31319 -0.925091 0)
(9.66797 -0.812543 0)
(10.0408 -0.515499 0)
(10.3968 -0.214848 0)
(10.6894 -0.043 0)
(10.9509 -0.0694514 0)
(11.1657 -0.166868 0)
(11.3453 -0.172419 0)
(11.4001 -0.3005 0)
(11.3919 -0.417377 0)
(11.3937 -0.530816 0)
(11.4037 -0.523851 0)
(11.4725 -0.32823 0)
(11.527 0.108608 0)
(11.6805 0.154789 0)
(11.7751 0.0695872 0)