/*--------------------------------*- C++ -*----------------------------------*\
| =========                 |                                                 |
| \\      /  F ield         | OpenFOAM: The Open Source CFD Toolbox           |
|  \\    /   O peration     | Version:  v1812                                 |
|   \\  /    A nd           | Web:      www.OpenFOAM.com                      |
|    \\/     M anipulation  |                                                 |
\*---------------------------------------------------------------------------*/
FoamFile
{
    version     2.0;
    format      ascii;
    class       volScalarField;
    location    "0.4";
    object      p;
}
// * * * * * * * * * * * * * * * * * * * * * * * * * * * * * * * * * * * * * //

dimensions      [1 -1 -2 0 0 0 0];


internalField   nonuniform List<scalar> 
20400
(
107660
107660
107660
107660
107661
107661
107662
107663
107663
107664
107665
107667
107667
107670
107670
107672
107673
107674
107675
107676
107677
107677
107678
107678
107678
107677
107675
107672
107670
107665
107662
107657
107652
107646
107638
107628
107621
107607
107598
107582
107570
107552
107537
107519
107503
107485
107468
107452
107438
107426
107420
107416
107420
107426
107434
107458
107482
107506
107538
107577
107619
107660
107702
107743
107783
107822
107857
107889
107918
107942
107965
107984
108001
108016
108030
108038
108051
108053
108059
108059
108061
108060
108059
108057
108053
108049
108042
108036
108028
108022
108013
108005
107996
107988
107978
107969
107961
107954
107946
107940
107932
107928
107921
107918
107913
107911
107906
107906
107901
107902
107899
107900
107897
107899
107898
107899
107899
107901
107902
107903
107904
107907
107908
107910
107912
107914
107915
107917
107918
107919
107920
107922
107923
107925
107926
107927
107928
107929
107930
107931
107932
107933
107934
107934
107935
107934
107935
107934
107934
107933
107932
107931
107930
107927
107925
107923
107920
107917
107914
107911
107908
107904
107900
107896
107892
107888
107884
107880
107875
107871
107867
107862
107858
107854
107851
107847
107844
107841
107838
107836
107834
107833
107832
107831
107830
107830
107829
107829
107830
107830
107831
107832
107834
107837
107839
107842
107846
107849
107853
107858
107862
107867
107872
107877
107883
107889
107895
107901
107907
107913
107920
107927
107933
107940
107947
107953
107960
107966
107972
107979
107985
107991
107997
108002
108007
108013
108017
108022
108026
108030
108033
108036
108039
108041
108043
108044
108044
108044
108043
108041
108039
108035
108032
108027
108022
108016
108010
108002
107994
107985
107975
107964
107952
107939
107925
107911
107895
107878
107861
107842
107822
107801
107779
107756
107731
107706
107679
107652
107623
107593
107563
107531
107498
107464
107430
107394
107357
107319
107280
107240
107199
107157
107115
107071
107027
106981
106936
106889
106842
106793
106745
106695
106645
106594
106543
106491
106439
106385
106332
106277
106223
106167
106112
106054
105998
105939
105882
105822
105763
105702
105642
105582
105519
105461
105395
105335
105267
105205
105139
105076
105009
104944
104876
104810
104741
104674
104603
104535
104463
104394
104321
104251
104178
104107
104032
103961
103885
103814
103738
103666
103590
103517
103442
103370
103295
103224
103150
103080
103007
102938
102867
102799
102733
102664
102601
102533
102472
102407
102348
102288
102232
102175
102121
102067
102017
101966
101919
101872
101828
101784
101744
101703
101665
101627
101591
101557
101523
101492
101462
101433
101406
101379
101355
101331
101309
101286
101266
101246
101227
101208
101192
101176
101162
101148
101137
101126
101117
101109
101102
101097
101093
101090
101089
101089
101091
101094
101099
101105
101113
101124
101136
101151
101164
101181
101196
101214
101233
101255
101277
101301
101325
101351
101378
101406
101434
101463
101492
101523
101554
101585
101617
101649
101681
101713
101745
101778
101809
101841
101873
101903
101933
101963
101991
102019
102045
102071
102096
102120
102142
102163
102183
102202
102218
102234
102247
102259
102268
102276
102282
102286
102287
102288
102285
102281
102274
102267
102256
102245
102231
102216
102197
102179
102157
102135
102109
102084
102055
102028
101997
101968
101935
101904
101871
101840
101806
101774
101739
101707
101673
101640
101607
101575
101543
101511
101481
101451
101422
101394
101367
101337
107660
107660
107660
107660
107661
107661
107662
107662
107663
107664
107665
107666
107667
107670
107670
107672
107673
107674
107675
107676
107677
107678
107678
107677
107676
107674
107673
107671
107669
107667
107664
107660
107656
107650
107642
107636
107622
107617
107599
107593
107574
107562
107543
107528
107509
107492
107473
107456
107440
107425
107416
107407
107406
107413
107429
107459
107492
107516
107544
107569
107605
107637
107678
107714
107757
107791
107833
107864
107898
107925
107949
107969
107978
107999
108011
108035
108039
108056
108052
108061
108058
108059
108059
108055
108053
108047
108043
108035
108030
108020
108014
108004
107997
107988
107979
107968
107961
107953
107947
107939
107935
107925
107925
107915
107917
107907
107911
107902
107906
107898
107903
107896
107901
107897
107900
107898
107901
107900
107903
107903
107906
107906
107910
107909
107913
107913
107916
107916
107919
107919
107921
107922
107924
107924
107926
107927
107928
107929
107930
107931
107932
107933
107933
107934
107934
107935
107934
107935
107933
107934
107932
107931
107929
107928
107925
107923
107920
107918
107914
107911
107908
107904
107900
107896
107892
107888
107884
107880
107875
107871
107867
107862
107858
107854
107851
107847
107844
107841
107838
107836
107834
107833
107832
107831
107830
107830
107830
107830
107830
107830
107831
107833
107834
107837
107839
107842
107846
107849
107853
107858
107862
107867
107872
107877
107883
107889
107894
107901
107907
107913
107920
107926
107933
107940
107947
107953
107960
107966
107972
107978
107984
107990
107996
108002
108007
108012
108017
108021
108025
108029
108033
108036
108038
108041
108042
108043
108043
108043
108042
108040
108038
108035
108031
108027
108022
108016
108009
108002
107993
107984
107974
107963
107951
107939
107925
107910
107894
107878
107860
107841
107821
107800
107778
107755
107731
107705
107679
107651
107622
107593
107562
107530
107498
107464
107429
107393
107356
107319
107279
107240
107198
107158
107114
107071
107026
106982
106936
106889
106841
106794
106745
106696
106645
106595
106543
106492
106439
106387
106332
106279
106223
106169
106112
106057
105998
105942
105882
105825
105764
105706
105643
105583
105525
105458
105403
105331
105274
105205
105143
105077
105013
104945
104880
104812
104745
104675
104608
104536
104468
104395
104325
104251
104182
104107
104036
103961
103891
103814
103743
103667
103596
103520
103449
103373
103302
103228
103157
103083
103015
102942
102875
102806
102736
102674
102601
102543
102472
102416
102352
102295
102236
102182
102124
102073
102020
101971
101922
101877
101831
101790
101748
101709
101670
101633
101596
101562
101528
101497
101466
101438
101409
101384
101358
101336
101312
101291
101269
101250
101230
101213
101195
101180
101164
101152
101139
101129
101120
101112
101105
101100
101095
101093
101092
101092
101093
101097
101101
101108
101116
101125
101139
101151
101168
101181
101200
101215
101236
101255
101279
101302
101327
101352
101379
101406
101435
101464
101494
101524
101555
101586
101618
101649
101682
101714
101746
101778
101810
101841
101873
101904
101934
101963
101992
102019
102046
102071
102096
102120
102142
102163
102183
102201
102218
102233
102247
102258
102268
102275
102281
102285
102287
102286
102285
102280
102275
102265
102256
102244
102231
102214
102198
102177
102157
102134
102110
102082
102057
102026
101998
101965
101937
101903
101873
101838
101808
101772
101741
101706
101675
101641
101609
101576
101545
101513
101483
101453
101424
101396
101369
101339
107660
107660
107660
107660
107661
107661
107662
107662
107663
107664
107665
107666
107667
107669
107671
107672
107673
107674
107675
107676
107677
107677
107677
107677
107677
107676
107675
107673
107670
107667
107662
107659
107655
107648
107647
107633
107632
107612
107608
107588
107580
107560
107546
107525
107506
107484
107464
107445
107430
107417
107410
107403
107404
107415
107421
107433
107455
107483
107522
107555
107599
107636
107676
107722
107755
107801
107830
107873
107896
107927
107950
107971
107993
108003
108022
108026
108046
108042
108060
108052
108061
108057
108057
108055
108051
108048
108041
108035
108027
108021
108012
108005
107995
107987
107977
107969
107960
107953
107945
107941
107930
107931
107918
107922
107908
107916
107901
107911
107897
107907
107894
107904
107894
107902
107896
107902
107898
107903
107900
107906
107903
107909
107907
107913
107911
107916
107914
107919
107917
107921
107920
107923
107923
107925
107926
107927
107928
107929
107930
107931
107932
107933
107934
107934
107935
107934
107936
107934
107935
107933
107933
107930
107930
107927
107926
107923
107921
107917
107915
107911
107908
107904
107901
107896
107893
107888
107884
107879
107875
107871
107867
107862
107858
107854
107851
107847
107844
107841
107838
107836
107834
107833
107832
107831
107830
107830
107829
107829
107830
107830
107831
107832
107834
107836
107839
107842
107845
107849
107853
107857
107862
107867
107872
107877
107883
107888
107894
107900
107907
107913
107919
107926
107932
107940
107946
107953
107959
107965
107972
107978
107984
107990
107995
108001
108006
108012
108016
108021
108025
108029
108032
108035
108038
108040
108042
108042
108042
108042
108041
108040
108037
108034
108031
108026
108021
108015
108009
108001
107993
107984
107974
107963
107951
107938
107924
107910
107894
107877
107859
107840
107820
107800
107778
107754
107730
107705
107678
107651
107622
107592
107562
107530
107497
107464
107429
107393
107356
107318
107280
107239
107199
107156
107115
107070
107027
106981
106936
106888
106842
106793
106745
106695
106646
106594
106544
106491
106440
106385
106333
106277
106224
106166
106113
106054
105999
105939
105882
105822
105763
105701
105644
105582
105519
105462
105392
105336
105266
105206
105140
105077
105009
104944
104876
104810
104741
104673
104603
104535
104462
104394
104320
104251
104176
104106
104030
103961
103884
103813
103737
103665
103588
103518
103440
103370
103294
103223
103149
103080
103005
102938
102865
102799
102732
102661
102600
102529
102472
102405
102347
102286
102231
102173
102120
102066
102016
101965
101918
101871
101827
101783
101743
101702
101664
101626
101591
101555
101523
101491
101461
101431
101405
101378
101354
101330
101308
101286
101266
101245
101227
101208
101192
101175
101162
101148
101138
101126
101118
101109
101103
101097
101094
101091
101090
101090
101092
101095
101100
101107
101114
101125
101136
101153
101166
101184
101197
101217
101234
101257
101278
101303
101327
101354
101380
101407
101436
101465
101495
101525
101555
101587
101618
101650
101682
101714
101747
101779
101811
101842
101874
101905
101934
101963
101992
102020
102046
102072
102097
102121
102143
102164
102183
102202
102218
102234
102247
102259
102268
102276
102281
102285
102287
102287
102284
102281
102273
102267
102255
102244
102229
102214
102195
102178
102155
102133
102107
102083
102053
102027
101995
101967
101933
101903
101869
101840
101803
101773
101736
101707
101670
101640
101605
101574
101540
101510
101479
101449
101420
101392
101365
101336
107660
107660
107660
107660
107660
107661
107661
107662
107663
107664
107665
107666
107667
107669
107670
107671
107673
107674
107675
107676
107676
107677
107677
107677
107677
107677
107676
107674
107672
107668
107667
107660
107657
107655
107643
107644
107626
107625
107605
107599
107579
107565
107544
107526
107504
107481
107459
107438
107419
107402
107391
107381
107379
107386
107401
107425
107445
107474
107498
107539
107577
107619
107664
107703
107750
107783
107829
107854
107897
107919
107949
107970
107987
108009
108012
108030
108032
108049
108044
108059
108051
108058
108054
108052
108049
108044
108039
108032
108026
108018
108010
108001
107993
107984
107975
107967
107959
107951
107944
107936
107934
107921
107926
107910
107920
107901
107916
107895
107912
107891
107909
107890
107906
107891
107903
107895
107904
107898
107906
107901
107908
107905
107912
107909
107916
107912
107919
107915
107922
107918
107924
107921
107926
107924
107927
107928
107929
107930
107931
107932
107933
107934
107933
107936
107934
107937
107934
107936
107934
107935
107932
107933
107929
107929
107925
107924
107920
107919
107914
107912
107908
107905
107900
107897
107892
107888
107884
107880
107875
107871
107866
107862
107858
107854
107850
107847
107844
107841
107838
107836
107834
107832
107831
107830
107830
107829
107829
107829
107829
107830
107831
107832
107834
107836
107838
107841
107845
107848
107852
107857
107861
107866
107871
107877
107882
107888
107894
107900
107906
107912
107919
107925
107932
107939
107946
107952
107959
107965
107971
107977
107984
107989
107995
108000
108006
108011
108016
108020
108024
108028
108031
108034
108037
108039
108041
108042
108042
108041
108040
108039
108036
108034
108029
108025
108020
108014
108008
108000
107992
107983
107973
107962
107950
107937
107923
107909
107893
107876
107858
107840
107820
107799
107777
107754
107729
107704
107678
107650
107621
107592
107561
107530
107497
107463
107428
107393
107356
107318
107279
107240
107198
107157
107114
107071
107026
106982
106935
106890
106841
106794
106744
106696
106645
106595
106543
106492
106439
106387
106332
106279
106222
106169
106111
106057
105997
105942
105882
105825
105764
105706
105643
105584
105524
105457
105401
105330
105274
105206
105141
105076
105013
104944
104879
104810
104744
104674
104606
104535
104467
104393
104324
104249
104180
104105
104034
103959
103889
103813
103741
103665
103594
103517
103447
103371
103299
103224
103155
103080
103011
102938
102872
102800
102734
102670
102598
102539
102469
102413
102349
102291
102232
102178
102122
102070
102018
101969
101919
101875
101829
101787
101745
101706
101667
101631
101594
101560
101527
101496
101465
101437
101409
101384
101358
101335
101312
101291
101270
101251
101231
101213
101196
101181
101166
101153
101141
101131
101122
101114
101107
101102
101097
101095
101094
101095
101097
101100
101104
101111
101118
101127
101141
101153
101171
101185
101203
101218
101239
101260
101282
101306
101330
101355
101383
101410
101439
101468
101497
101528
101558
101589
101621
101653
101685
101717
101749
101781
101813
101845
101876
101906
101937
101966
101994
102021
102048
102074
102099
102122
102145
102165
102184
102202
102219
102234
102248
102259
102269
102277
102282
102286
102288
102287
102286
102280
102275
102266
102257
102243
102231
102214
102197
102176
102157
102133
102109
102081
102056
102025
101999
101965
101936
101902
101873
101837
101807
101771
101741
101704
101674
101639
101610
101574
101544
101511
101482
101452
101423
101395
101369
101339
107660
107659
107660
107660
107660
107660
107661
107661
107662
107663
107664
107665
107667
107668
107670
107671
107672
107673
107674
107675
107676
107677
107677
107678
107678
107678
107677
107676
107673
107671
107666
107664
107660
107654
107653
107638
107637
107618
107612
107594
107580
107560
107540
107518
107494
107469
107444
107420
107400
107382
107371
107362
107363
107368
107378
107394
107420
107437
107489
107519
107568
107608
107654
107697
107737
107778
107812
107856
107880
107919
107941
107967
107989
107997
108017
108018
108034
108034
108048
108042
108053
108046
108051
108046
108044
108039
108035
108027
108022
108013
108005
107998
107988
107980
107971
107963
107955
107946
107939
107935
107925
107928
107912
107922
107902
107918
107894
107915
107889
107913
107886
107910
107886
107908
107889
107905
107895
107906
107899
107908
107903
107912
107907
107916
107911
107919
107914
107922
107917
107925
107920
107927
107922
107928
107927
107929
107930
107931
107932
107933
107934
107934
107936
107935
107937
107935
107938
107935
107937
107933
107936
107931
107932
107928
107927
107923
107922
107918
107916
107911
107909
107904
107901
107897
107893
107888
107884
107879
107875
107871
107867
107862
107858
107854
107850
107847
107844
107841
107838
107836
107834
107832
107831
107830
107829
107829
107829
107829
107829
107829
107830
107832
107833
107836
107838
107841
107844
107848
107852
107856
107861
107865
107871
107876
107882
107887
107894
107899
107906
107912
107918
107925
107931
107939
107945
107952
107958
107964
107971
107977
107983
107989
107995
108000
108005
108010
108015
108019
108023
108027
108030
108034
108036
108038
108040
108041
108041
108040
108040
108038
108036
108032
108029
108024
108019
108013
108007
107999
107991
107982
107972
107961
107949
107936
107923
107908
107892
107875
107857
107838
107819
107798
107776
107752
107728
107703
107677
107649
107621
107591
107561
107529
107496
107463
107428
107392
107356
107318
107279
107239
107199
107156
107114
107070
107027
106981
106936
106888
106842
106793
106746
106695
106646
106594
106544
106491
106440
106386
106333
106277
106224
106167
106114
106055
106000
105940
105883
105823
105765
105704
105645
105582
105520
105463
105393
105338
105267
105207
105142
105078
105010
104946
104877
104810
104741
104674
104604
104536
104462
104394
104321
104251
104177
104106
104031
103960
103885
103812
103737
103665
103589
103518
103441
103369
103295
103224
103149
103079
103006
102938
102866
102801
102732
102661
102601
102529
102474
102406
102348
102287
102231
102174
102121
102066
102016
101966
101919
101871
101827
101784
101743
101703
101665
101628
101592
101557
101524
101493
101462
101433
101407
101380
101356
101332
101311
101288
101268
101248
101229
101211
101195
101179
101165
101152
101140
101129
101121
101113
101107
101101
101097
101095
101094
101094
101097
101100
101105
101111
101119
101128
101139
101155
101169
101187
101202
101221
101239
101261
101283
101306
101331
101356
101384
101411
101440
101469
101499
101529
101560
101591
101623
101654
101686
101718
101750
101782
101814
101846
101877
101908
101938
101967
101995
102023
102050
102075
102099
102123
102145
102166
102185
102203
102220
102236
102249
102261
102270
102278
102283
102287
102288
102289
102286
102282
102275
102267
102257
102245
102230
102215
102196
102177
102155
102133
102107
102083
102054
102027
101996
101967
101933
101903
101869
101839
101803
101772
101736
101705
101669
101639
101604
101574
101540
101510
101478
101449
101420
101392
101366
101337
107659
107659
107659
107659
107659
107660
107660
107661
107661
107662
107663
107664
107666
107667
107669
107670
107671
107673
107674
107675
107676
107677
107678
107679
107679
107679
107679
107678
107677
107673
107673
107667
107665
107660
107652
107648
107634
107626
107611
107596
107577
107556
107534
107508
107482
107455
107429
107404
107382
107362
107347
107337
107335
107342
107349
107376
107389
107431
107449
107506
107540
107592
107636
107681
107724
107764
107803
107839
107880
107902
107936
107957
107976
108000
108001
108019
108021
108032
108032
108041
108037
108043
108039
108039
108035
108031
108025
108020
108013
108006
108000
107989
107982
107973
107965
107957
107948
107941
107934
107928
107925
107914
107920
107903
107917
107894
107915
107887
107914
107883
107913
107881
107912
107883
107910
107887
107909
107894
107909
107900
107910
107906
107915
107911
107918
107915
107922
107917
107926
107919
107928
107922
107930
107925
107929
107930
107931
107932
107932
107934
107934
107936
107935
107938
107936
107939
107936
107939
107935
107938
107933
107935
107930
107931
107926
107926
107921
107920
107915
107913
107908
107905
107901
107897
107892
107888
107884
107880
107875
107871
107866
107862
107858
107854
107850
107847
107843
107840
107838
107835
107833
107831
107830
107829
107829
107828
107828
107828
107828
107829
107830
107831
107832
107834
107837
107840
107843
107847
107851
107856
107860
107865
107870
107876
107881
107887
107893
107899
107905
107911
107918
107924
107931
107937
107944
107950
107957
107963
107970
107976
107982
107988
107994
107999
108004
108009
108014
108018
108023
108026
108030
108033
108035
108037
108039
108040
108040
108039
108038
108037
108034
108031
108027
108023
108018
108012
108005
107998
107990
107981
107971
107960
107948
107935
107921
107907
107891
107874
107856
107837
107817
107797
107774
107751
107727
107702
107676
107648
107620
107590
107560
107528
107496
107462
107428
107392
107355
107317
107279
107239
107198
107157
107113
107071
107026
106982
106935
106890
106841
106794
106744
106696
106645
106596
106543
106493
106439
106387
106333
106280
106224
106170
106112
106057
105999
105943
105883
105825
105765
105706
105644
105585
105523
105457
105401
105330
105275
105206
105142
105077
105013
104944
104879
104810
104744
104672
104605
104535
104465
104392
104323
104249
104178
104104
104033
103958
103887
103810
103739
103662
103591
103515
103443
103367
103296
103221
103152
103076
103008
102935
102867
102797
102730
102665
102593
102536
102465
102409
102345
102287
102229
102174
102119
102067
102015
101965
101917
101871
101826
101784
101743
101703
101664
101627
101592
101557
101524
101493
101462
101434
101407
101382
101356
101334
101310
101290
101268
101249
101230
101213
101196
101181
101166
101153
101141
101131
101122
101115
101108
101104
101099
101097
101096
101098
101099
101102
101108
101114
101122
101130
101143
101155
101173
101188
101207
101223
101243
101263
101287
101310
101334
101360
101386
101415
101443
101472
101501
101533
101563
101595
101625
101658
101689
101722
101753
101786
101817
101849
101879
101911
101941
101970
101998
102025
102052
102077
102101
102124
102146
102166
102186
102205
102222
102237
102251
102261
102272
102279
102285
102288
102290
102290
102288
102283
102277
102268
102258
102245
102232
102215
102198
102177
102157
102133
102109
102082
102056
102026
101998
101965
101935
101902
101872
101837
101805
101770
101739
101703
101672
101638
101608
101572
101543
101509
101480
101450
101421
101393
101367
101338
107659
107658
107659
107658
107659
107659
107659
107660
107660
107661
107662
107663
107664
107666
107667
107669
107671
107672
107674
107675
107677
107678
107679
107680
107681
107681
107681
107681
107680
107678
107675
107674
107668
107665
107658
107650
107640
107627
107612
107595
107574
107552
107526
107501
107472
107442
107412
107383
107359
107337
107323
107312
107308
107309
107324
107333
107373
107389
107446
107477
107528
107570
107623
107669
107712
107751
107794
107835
107862
107898
107923
107946
107971
107979
108000
108002
108018
108019
108028
108027
108032
108029
108032
108029
108026
108022
108016
108009
108004
107998
107988
107982
107972
107965
107956
107948
107940
107933
107928
107921
107916
107913
107903
107911
107893
107911
107885
107911
107880
107912
107878
107913
107878
107913
107880
107913
107886
107913
107893
107913
107900
107918
107909
107919
107914
107923
107916
107926
107919
107928
107922
107931
107924
107931
107930
107931
107932
107933
107934
107935
107936
107936
107938
107937
107940
107937
107941
107937
107940
107935
107938
107932
107934
107929
107929
107924
107923
107919
107917
107912
107909
107905
107901
107897
107893
107888
107884
107879
107875
107870
107866
107861
107857
107853
107849
107846
107843
107840
107837
107835
107832
107831
107829
107829
107828
107827
107827
107827
107827
107828
107829
107830
107832
107834
107836
107839
107843
107846
107850
107855
107859
107864
107869
107875
107880
107886
107892
107898
107904
107911
107917
107924
107930
107937
107943
107950
107956
107962
107969
107975
107981
107987
107993
107998
108004
108009
108013
108018
108022
108025
108029
108031
108034
108036
108038
108038
108038
108038
108037
108035
108033
108030
108026
108022
108017
108011
108004
107997
107989
107979
107970
107958
107947
107934
107920
107905
107890
107872
107855
107836
107816
107795
107773
107750
107726
107701
107674
107647
107619
107589
107559
107527
107495
107461
107427
107391
107354
107317
107278
107238
107198
107156
107114
107070
107026
106981
106936
106888
106842
106793
106746
106695
106646
106595
106545
106493
106441
106387
106335
106280
106226
106170
106115
106058
106002
105942
105885
105826
105767
105707
105647
105584
105523
105464
105394
105339
105269
105210
105143
105079
105012
104948
104878
104812
104742
104676
104605
104537
104464
104395
104321
104252
104177
104107
104031
103960
103885
103813
103737
103665
103589
103517
103441
103370
103294
103223
103149
103079
103006
102937
102865
102799
102731
102661
102600
102528
102472
102404
102347
102286
102230
102173
102118
102066
102014
101965
101917
101871
101827
101784
101743
101703
101664
101627
101591
101557
101524
101493
101463
101434
101408
101382
101358
101333
101312
101289
101270
101249
101232
101213
101198
101182
101168
101154
101143
101133
101124
101115
101110
101105
101100
101099
101098
101099
101101
101104
101110
101116
101124
101134
101144
101159
101172
101191
101207
101227
101245
101267
101288
101311
101337
101362
101390
101417
101445
101474
101504
101535
101566
101597
101628
101660
101692
101724
101756
101787
101820
101851
101882
101913
101942
101971
102000
102027
102054
102079
102103
102126
102148
102169
102189
102208
102224
102240
102252
102264
102273
102280
102286
102291
102291
102292
102289
102285
102278
102269
102259
102247
102231
102216
102197
102179
102156
102134
102109
102084
102055
102028
101996
101967
101934
101904
101870
101838
101803
101772
101737
101705
101670
101639
101605
101574
101540
101511
101479
101450
101421
101393
101367
101338
107658
107657
107657
107657
107657
107658
107658
107658
107659
107660
107660
107661
107663
107664
107666
107668
107670
107671
107673
107675
107677
107679
107681
107682
107683
107684
107684
107684
107684
107683
107683
107678
107677
107668
107665
107653
107644
107629
107613
107594
107573
107548
107522
107493
107460
107428
107396
107366
107338
107315
107296
107285
107279
107283
107290
107319
107332
107386
107404
107468
107506
107556
107600
107652
107696
107742
107780
107815
107853
107882
107911
107937
107952
107975
107980
107998
108001
108012
108013
108019
108019
108020
108020
108017
108014
108008
108004
107997
107993
107984
107978
107969
107962
107953
107945
107937
107930
107923
107918
107914
107907
107903
107902
107893
107901
107884
107903
107878
107906
107875
107909
107874
107912
107875
107915
107879
107917
107886
107918
107893
107921
107903
107922
107911
107924
107917
107927
107919
107930
107922
107932
107926
107933
107930
107933
107933
107933
107934
107935
107937
107937
107938
107939
107941
107939
107942
107938
107942
107937
107940
107935
107937
107932
107933
107928
107927
107923
107921
107916
107914
107909
107906
107901
107897
107892
107888
107883
107879
107874
107870
107865
107861
107857
107853
107849
107845
107842
107839
107836
107834
107832
107830
107829
107827
107827
107826
107826
107826
107826
107827
107828
107829
107831
107833
107835
107838
107842
107845
107849
107853
107858
107863
107868
107874
107879
107885
107891
107897
107903
107909
107916
107923
107930
107936
107943
107949
107955
107961
107968
107974
107980
107986
107992
107998
108003
108008
108012
108017
108021
108024
108027
108030
108032
108035
108036
108037
108037
108037
108036
108034
108031
108029
108024
108020
108015
108009
108002
107995
107987
107978
107968
107957
107945
107932
107918
107904
107888
107871
107853
107834
107814
107794
107771
107748
107724
107699
107673
107646
107618
107588
107558
107527
107494
107461
107426
107390
107354
107316
107277
107238
107197
107156
107113
107070
107025
106981
106935
106889
106841
106794
106745
106696
106646
106596
106545
106494
106441
106389
106335
106281
106226
106171
106114
106059
106001
105945
105885
105827
105767
105708
105645
105587
105525
105459
105403
105332
105277
105207
105144
105078
105014
104945
104880
104811
104744
104673
104607
104535
104466
104392
104323
104249
104179
104104
104034
103957
103886
103809
103738
103662
103590
103513
103442
103366
103295
103219
103148
103074
103006
102933
102866
102794
102728
102663
102590
102534
102462
102408
102344
102284
102227
102171
102116
102064
102012
101963
101915
101869
101825
101782
101741
101701
101663
101625
101590
101556
101522
101491
101461
101434
101406
101381
101356
101334
101310
101290
101268
101249
101231
101214
101197
101183
101167
101154
101144
101134
101125
101117
101110
101106
101103
101100
101099
101100
101102
101106
101111
101118
101126
101135
101147
101159
101176
101190
101210
101228
101249
101268
101292
101316
101341
101367
101393
101421
101448
101478
101507
101538
101568
101600
101631
101663
101695
101728
101759
101792
101822
101854
101885
101916
101945
101975
102002
102030
102056
102082
102106
102129
102151
102173
102192
102210
102227
102241
102255
102265
102275
102283
102288
102292
102294
102294
102292
102286
102279
102271
102260
102248
102234
102216
102199
102178
102159
102134
102110
102083
102057
102026
101998
101965
101936
101902
101871
101836
101805
101770
101738
101703
101671
101637
101606
101572
101542
101509
101480
101449
101420
101392
101366
101337
107657
107656
107656
107656
107656
107656
107656
107657
107657
107658
107659
107659
107661
107662
107664
107666
107669
107671
107673
107675
107678
107680
107682
107684
107686
107687
107688
107688
107689
107690
107689
107687
107681
107677
107668
107659
107647
107633
107615
107595
107571
107547
107517
107487
107452
107415
107382
107348
107319
107293
107273
107259
107253
107254
107270
107284
107322
107346
107404
107434
107492
107535
107592
107635
107685
107725
107766
107802
107835
107869
107898
107918
107944
107953
107973
107979
107994
107997
108004
108005
108007
108007
108007
108005
108000
107996
107990
107985
107978
107972
107963
107956
107948
107940
107932
107924
107917
107911
107906
107901
107897
107893
107890
107889
107882
107889
107876
107894
107872
107901
107871
107907
107872
107912
107875
107917
107880
107921
107887
107924
107896
107927
107905
107927
107915
107929
107920
107931
107924
107933
107926
107936
107929
107934
107935
107934
107936
107937
107938
107938
107940
107940
107941
107941
107943
107941
107944
107940
107942
107938
107940
107935
107936
107931
107930
107927
107924
107921
107918
107914
107910
107906
107902