/*--------------------------------*- C++ -*----------------------------------*\
| =========                 |                                                 |
| \\      /  F ield         | OpenFOAM: The Open Source CFD Toolbox           |
|  \\    /   O peration     | Version:  v1812                                 |
|   \\  /    A nd           | Web:      www.OpenFOAM.com                      |
|    \\/     M anipulation  |                                                 |
\*---------------------------------------------------------------------------*/
FoamFile
{
    version     2.0;
    format      ascii;
    class       surfaceScalarField;
    location    "0.4";
    object      phi;
}
// * * * * * * * * * * * * * * * * * * * * * * * * * * * * * * * * * * * * * //

dimensions      [1 0 -1 0 0 0 0];
oriented        oriented;


internalField   nonuniform List<scalar> 
40240
(
-5.24796e-05
3.25275e-05
-0.000132461
5.99332e-05
-0.000223976
7.12653e-05
-0.000329761
8.52677e-05
-0.000441858
9.12653e-05
-0.000557521
9.45147e-05
-0.000671231
9.22536e-05
-0.000777181
8.42463e-05
-0.000870041
7.09665e-05
-0.000944568
5.25342e-05
-0.000997607
3.10592e-05
-0.00102483
5.34124e-06
-0.0010353
-1.12004e-05
-0.00102397
-3.24775e-05
-0.000997052
-4.75352e-05
-0.000943378
-7.3613e-05
-0.000868548
-9.40089e-05
-0.000775075
-0.000111765
-0.000671071
-0.000121451
-0.000560352
-0.000127313
-0.000445521
-0.00013075
-0.000327696
-0.00013312
-0.000199011
-0.00014327
-6.00501e-05
-0.000152827
9.06502e-05
-0.000163863
0.000246509
-0.00016863
0.000390805
-0.000156648
0.000489672
-0.000110617
0.000526635
-4.80222e-05
0.000488481
2.78742e-05
0.000383464
9.54476e-05
0.000201319
0.000173791
5.09211e-05
0.000142629
-0.000192303
0.000236788
-0.000495931
0.000300288
-0.00098188
0.000486241
-0.00157838
0.000599673
-0.00237877
0.000806883
-0.00337945
0.00101212
-0.00463077
0.00124959
-0.00621347
0.00158049
-0.00811154
0.0019034
-0.0104383
0.00233547
-0.0131157
0.00268907
-0.0162162
0.0031139
-0.0196319
0.00342995
-0.0233715
0.00375436
-0.0273215
0.00396602
-0.0314139
0.00410876
-0.0354898
0.00409399
-0.0392837
0.0038115
-0.0426002
0.00333561
-0.0451021
0.00251973
-0.046647
0.00156211
-0.0473107
0.000679923
-0.0472358
-5.44142e-05
-0.0464956
-0.000721155
-0.0453118
-0.00116357
-0.0438607
-0.00142782
-0.0419732
-0.00186564
-0.0396504
-0.00230234
-0.0371051
-0.002525
-0.0342664
-0.00281819
-0.0312891
-0.00294884
-0.0281056
-0.00314943
-0.0248155
-0.0032565
-0.0214205
-0.00336288
-0.0180012
-0.00338745
-0.014626
-0.00334254
-0.0113634
-0.00322914
-0.00826596
-0.00306299
-0.00538902
-0.00284146
-0.00286336
-0.00248708
-0.000865123
-0.00195847
0.000575456
-0.00139909
0.00187319
-0.00125684
0.00269368
-0.000778337
0.00382369
-0.00108606
0.00473526
-0.00086625
0.00593226
-0.00115204
0.00696983
-0.000994227
0.00808062
-0.00106507
0.00916731
-0.00103945
0.0102093
-0.000992225
0.0111969
-0.000934313
0.0120894
-0.000835806
0.0129585
-0.000808253
0.0136243
-0.000604406
0.0143054
-0.000617382
0.0147753
-0.000403766
0.0152197
-0.000375235
0.015484
-0.00019313
0.0156474
-9.13451e-05
0.0156824
3.96643e-05
0.0156668
9.1162e-05
0.0155436
0.00020064
0.0153512
0.000271274
0.0150573
0.000371436
0.0147333
0.000402016
0.0143399
0.000471223
0.0139161
0.000500363
0.0134704
0.000520137
0.0129907
0.000551348
0.0125338
0.000524667
0.0120364
0.000560655
0.0115899
0.00050455
0.0110979
0.000544644
0.0106743
0.000470262
0.0102075
0.000508022
0.00981339
0.000429715
0.00938127
0.00046237
0.00901392
0.000392451
0.0086148
0.000419922
0.00827513
0.000357532
0.00791627
0.00037382
0.0076307
0.000296684
0.00732492
0.000310042
0.00709673
0.000226415
0.00685128
0.000238106
0.00668291
0.00015588
0.00649948
0.000167288
0.00638339
9.53167e-05
0.00624962
0.000110019
0.00616418
5.97797e-05
0.00606686
6.9809e-05
0.00600408
3.38158e-05
0.00592995
4.40188e-05
0.00588335
1.58234e-05
0.00582469
2.69572e-05
0.00578362
8.46839e-06
0.00573096
1.94334e-05
0.00569678
-7.18016e-07
0.00565792
3.56602e-06
0.00563322
-1.24844e-05
0.00561013
-1.47293e-05
0.00560562
-3.49285e-05
0.0056034
-3.82499e-05
0.00561568
-5.36343e-05
0.00563454
-6.12648e-05
0.00567258
-8.14407e-05
0.00572223
-9.33757e-05
0.00579414
-0.000116224
0.00586945
-0.000120383
0.005961
-0.000138424
0.00605682
-0.000143454
0.00616074
-0.000151985
0.00627231
-0.000160153
0.00638394
-0.000160775
0.00650271
-0.000168141
0.00661572
-0.00016323
0.00673663
-0.000170538
0.0068474
-0.000161714
0.00696326
-0.000166578
0.00706757
-0.000155346
0.00717683
-0.000159802
0.00727317
-0.000147141
0.00737316
-0.000150474
0.00746056
-0.000137822
0.00755156
-0.000140133
0.00762923
-0.000127212
0.00770934
-0.000128358
0.00777679
-0.000116155
0.00784511
-0.000116054
0.00790055
-0.000102738
0.00795527
-0.000101039
0.00799809
-8.87717e-05
0.0080403
-8.67093e-05
0.0080713
-7.44171e-05
0.00810142
-7.25483e-05
0.0081217
-6.13498e-05
0.00814179
-5.98205e-05
0.008156
-5.18303e-05
0.00817077
-5.08023e-05
0.00818483
-4.78276e-05
0.00820174
-4.85728e-05
0.00822
-4.80767e-05
0.00824193
-4.90416e-05
0.00826477
-4.73955e-05
0.00828932
-4.65971e-05
0.00831356
-4.24262e-05
0.00833785
-3.97611e-05
0.00835799
-3.24047e-05
0.00837764
-2.92132e-05
0.00839027
-2.05042e-05
0.00840168
-1.75342e-05
0.00840588
-8.40859e-06
0.00840838
-5.12756e-06
0.0084058
1.55398e-06
0.00840229
5.70205e-06
0.0083988
9.26986e-06
0.00839651
1.14189e-05
0.00839632
1.31384e-05
0.00839969
1.35861e-05
0.00840897
1.11703e-05
0.00842335
1.00898e-05
0.00844529
5.98252e-06
0.00847247
4.82873e-06
0.00850687
7.98147e-07
0.00854389
2.63189e-06
0.00858554
1.35618e-06
0.0086263
4.62847e-06
0.00866824
7.87377e-06
0.00870998
1.13069e-05
0.0087485
1.85409e-05
0.00878974
1.9528e-05
0.00882824
2.64728e-05
0.00887197
2.43932e-05
0.00891694
2.62119e-05
0.00897144
2.00838e-05
0.00902388
2.43884e-05
0.00909212
1.16042e-05
0.00914973
2.45516e-05
0.00922454
9.842e-06
0.009288
2.37175e-05
0.00936484
1.24875e-05
0.00943217
2.45811e-05
0.00950388
2.08795e-05
0.00957268
2.72392e-05
0.00963884
3.04266e-05
0.00970606
3.08006e-05
0.00977112
3.417e-05
0.00983881
3.24103e-05
0.00990588
3.43273e-05
0.00997434
3.12443e-05
0.0100448
3.01535e-05
0.0101164
2.67398e-05
0.0101878
2.64369e-05
0.010261
2.34266e-05
0.010334
2.17795e-05
0.0104085
1.91906e-05
0.0104819
1.9141e-05
0.010556
1.64751e-05
0.010627
1.77182e-05
0.010702
1.22043e-05
0.0107709
1.35987e-05
0.0108388
8.8096e-06
0.0109016
1.06813e-05
0.0109679
4.7879e-06
0.0110297
5.55449e-06
0.0110937
-3.071e-07
0.0111534
3.51535e-07
0.0112157
-5.34381e-06
0.0112758
-6.57705e-06
0.0113369
-1.04512e-05
0.0113967
-1.29301e-05
0.0114558
-1.54866e-05
0.0115138
-1.82004e-05
0.0115697
-1.97296e-05
0.0116247
-2.2358e-05
0.0116774
-2.35697e-05
0.011729
-2.60958e-05
0.0117782
-2.72254e-05
0.0118258
-2.95738e-05
0.0118709
-3.04968e-05
0.0119146
-3.25289e-05
0.011956
-3.30683e-05
0.0119964
-3.48919e-05
0.0120345
-3.54232e-05
0.0120708
-3.65578e-05
0.0121047
-3.70707e-05
0.0121356
-3.68195e-05
0.0121622
-3.50568e-05
0.0121855
-3.42065e-05
0.0122054
-3.28336e-05
0.0122218
-3.11642e-05
0.0122363
-3.02558e-05
0.0122503
-3.01281e-05
0.0122663
-3.17691e-05
0.0122862
-3.50058e-05
0.0123114
-3.91946e-05
0.012342
-4.30403e-05
0.0123774
-4.55937e-05
0.0124168
-4.67465e-05
0.0124598
-4.67633e-05
0.0125058
-4.55252e-05
0.0125566
-4.52928e-05
0.01261
-4.19166e-05
0.012674
-4.61584e-05
0.0127423
-4.36375e-05
0.012821
-4.70805e-05
0.012904
-4.43616e-05
0.0129969
-4.63916e-05
0.0130935
-4.26645e-05
0.0131893
-3.23462e-05
0.0132941
-3.30105e-05
0.0133914
-1.56547e-05
0.0135035
-1.94021e-05
0.0136062
9.21208e-07
0.0137254
-4.41291e-06
0.0138384
1.38739e-05
0.013968
8.44457e-06
0.0140927
2.66064e-05
0.0142422
1.56644e-05
0.0143845
3.71304e-05
0.0145536
2.54117e-05
0.0147167
4.833e-05
0.014907
3.58966e-05
0.0150909
5.9421e-05
0.0153092
4.18977e-05
0.0155146
7.1762e-05
0.0157576
5.04698e-05
0.015981
8.64436e-05
0.0162449
6.27686e-05
0.0164858
0.000103089
0.016767
8.0391e-05
0.0170263
0.00011957
0.0173271
9.45694e-05
0.0176089
0.000130582
0.0179383
0.00010202
0.0182637
0.000118459
0.0186232
9.60742e-05
0.0189219
0.000176371
0.0192801
0.000132682
0.0195913
0.000200265
0.0199875
0.000134371
0.0203451
0.000190669
0.0207935
0.000116664
0.0212232
0.00014501
0.0216392
0.000170627
0.0221048
0.000135505
0.0225363
0.000188109
0.0230185
0.0001505
0.0234571
0.000205898
0.0239554
0.000159654
0.0244056
0.00022049
0.024907
0.000178919
0.0253688
0.000229704
0.0258789
0.00018899
0.0263525
0.000235368
0.0268778
0.000191116
0.0273754
0.000228499
0.0279313
0.000172538
0.0284571
0.000212089
0.0290549
0.000141827
0.0296051
0.000194222
0.0302314
0.000115057
0.0307881
0.000187388
0.0314256
0.000107902
0.0319795
0.000190412
0.0326101
0.00011136
0.0331558
0.000194141
0.0337675
0.000125522
0.0342964
0.00019951
0.0348841
0.000129635
0.0354095
0.000184865
0.035997
0.000116649
0.0365116
0.000178433
0.0370747
0.000107367
0.03756
0.000175249
0.0380952
0.00011239
0.0385288
0.00019848
0.0389978
0.000144093
0.0393541
0.00024074
0.0397577
0.000173799
0.0400707
0.000248234
0.0404309
0.000180849
0.0407466
0.000201588
0.0410545
0.000185591
0.0413672
0.000152475
0.0415979
0.000215431
0.0418631
0.000158217
0.0420513
0.000208555
0.0422655
0.00015592
0.0424341
0.000172114
0.0426274
0.000120245
0.0427883
0.000125308
0.0429828
6.41285e-05
0.0431268
8.62627e-05
0.0432964
3.2115e-05
0.0433948
7.48777e-05
0.0435013
3.94053e-05
0.0435422
7.9501e-05
0.0435866
4.98922e-05
0.0435667
8.88442e-05
0.0435379
7.15432e-05
0.0434671
8.39559e-05
0.0433754
7.82116e-05
0.0432474
8.81461e-05
0.0431025
7.83609e-05
0.0429332
7.77529e-05
0.0427579
5.96204e-05
0.0425719
4.79655e-05
0.0423904
2.24693e-05
0.0421989
1.23257e-05
0.0420052
-5.29488e-06
0.0417942
-6.63401e-06
0.0415751
-1.60505e-05
0.0413269
-3.7064e-06
0.0410774
-1.82098e-05
0.0407948
8.59362e-07
0.04052
-2.15676e-05
0.0402112
-1.29776e-06
0.0399137
-2.51658e-05
0.0395813
-3.68847e-06
0.0392682
-3.29923e-05
0.0389284
-1.32649e-05
0.0385974
-2.93679e-05
0.0382383
-6.42444e-06
0.0378939
-2.45191e-05
0.0375253
-4.73102e-06
0.0371726
-2.1426e-05
0.0367898
5.28074e-06
0.0364282
-1.21794e-05
0.0360397
1.62422e-05
0.0356773
-9.00992e-06
0.0352877
2.23882e-05
0.0349397
-1.71993e-05
0.0345702
1.31627e-05
0.0342586
-3.81137e-05
0.0339101
1.01149e-05
0.0336308
-5.07632e-05
0.0333041
-3.81319e-06
0.0330279
-4.84243e-05
0.0327209
-1.59458e-05
0.0324433
-3.0081e-05
0.0321626
-1.64375e-05
0.0318909
-1.12068e-05
0.0316407
-2.03144e-05
0.0313825
-1.44465e-06
0.0311622
-3.03161e-05
0.0309371
-7.90642e-06
0.0307539
-3.84099e-05
0.030567
-2.36044e-05
0.0304022
-3.2068e-05
0.0302355
-1.8594e-05
0.0300837
-1.98355e-05
0.0299294
-4.46846e-06
0.0297956
-1.03342e-05
0.0296647
1.7883e-06
0.0295596
-9.27599e-06
0.0294576
2.86851e-06
0.0293811
-7.5975e-06
0.029309
3.35654e-06
0.029264
-7.23714e-06
0.029228
-2.90984e-06
0.0292076
-6.17019e-06
0.0292018
-6.17114e-06
0.0292073
-2.42218e-06
0.0292208
3.02674e-06
0.0292486
3.66449e-06
0.0292944
2.01101e-06
0.0293462
1.06934e-05
0.0294186
3.68293e-06
0.0294935
1.49436e-05
0.0295861
1.06367e-05
0.0296866
1.59224e-05
0.0298013
1.43915e-05
0.0299258
1.76459e-05
0.0300621
1.92528e-05
0.0302123
1.8426e-05
0.0303706
2.40638e-05
0.0305434
2.37723e-05
0.0307246
2.73625e-05
0.0309218
2.37348e-05
0.0311195
3.72442e-05
0.0313377
3.01598e-05
0.0315513
4.76485e-05
0.0317855
4.06324e-05
0.0320186
5.39656e-05
0.0322719
4.59535e-05
0.0325239
5.715e-05
0.0327874
5.21507e-05
0.0330476
6.57439e-05
0.0333341
5.10309e-05
0.0336122
6.63377e-05
0.0339209
4.41771e-05
0.034212
6.95304e-05
0.0345363
4.42672e-05
0.0348439
6.79169e-05
0.0351837
4.08882e-05
0.035494
7.72995e-05
0.0358322
4.79307e-05
0.0361358
8.52596e-05
0.0364713
5.64948e-05
0.0367725
8.77966e-05
0.0370977
6.02844e-05
0.0373919
8.76501e-05
0.0377141
5.4858e-05
0.0379997
8.56174e-05
0.0383107
5.17778e-05
0.0385795
8.94568e-05
0.0388739
5.39303e-05
0.0391217
8.86798e-05
0.0393964
4.74173e-05
0.0396254
8.00674e-05
0.0398783
3.98212e-05
0.0400853
7.30932e-05
0.0403163
3.25961e-05
0.0404992
6.38508e-05
0.040699
2.36555e-05
0.0408483
5.83227e-05
0.0410177
1.77409e-05
0.0411408
4.8195e-05
0.0412756
1.77772e-05
0.0413717
3.5892e-05
0.0414648
1.90891e-05
0.0415333
2.28275e-05
0.0415841
1.924e-05
0.0416168
9.8027e-06
-8.88138e-07
-0.000111708
0.000124319
-0.000313281
0.000241505
-0.000569898
0.000307696
-0.000865585
0.000360463
-0.00117644
0.000381308
-0.00148874
0.000385725
-0.00179093
0.000373084
-0.00207174
0.000343471
-0.00231971
0.000297174
-0.0025233
0.000234277
-0.0026734
0.000159329
-0.00276472
7.49534e-05
-0.00279975
2.38543e-06
-0.00278122
-7.19943e-05
-0.00270524
-0.000143994
-0.00256843
-0.000230235
-0.0023758
-0.000305651
-0.00214122
-0.000364544
-0.00187105
-0.00040893
-0.00157625
-0.000438669
-0.00126217
-0.000460659
-0.000933469
-0.000477067
-0.00061253
-0.000478844
-0.000309903
-0.000469358
-5.26196e-05
-0.000434369
0.00014999
-0.000383962
0.000301827
-0.000320774
0.000398677
-0.000219036
0.000420358
-8.05588e-05
0.000379959
5.79557e-05
0.000208935
0.000257203
-1.74701e-05
0.000391575
-0.000534007
0.00065276
-0.00117549
0.000873679
-0.00225697
0.00137541
-0.0035216
0.00175512
-0.00517664
0.00227424
-0.00724271
0.00286713
-0.0095847
0.00340387
-0.012559
0.00418491
-0.0158276
0.00485221
-0.019618
0.00570093
-0.0236743
0.00640145
-0.0281078
0.00713399
-0.0326446
0.00766384
-0.0372349
0.00803367
-0.0416312
0.00816481
-0.0456998
0.00804986
-0.0492547
0.00767883
-0.05219
0.0070463
-0.0544124
0.00605064
-0.0559836
0.00492456
-0.0570122
0.00356557
-0.0576281
0.0021959
-0.0578145
0.000885664
-0.0576089
-0.000238041
-0.0568306
-0.00147904
-0.0556494
-0.00232842
-0.0537749
-0.00328579
-0.0515918
-0.00403286
-0.0487272
-0.00514951
-0.0455608
-0.00567072
-0.0419844
-0.00637222
-0.0382399
-0.00666446
-0.0342185
-0.00713739
-0.0301017
-0.00734198
-0.0257454
-0.00768711
-0.0213502
-0.00775062
-0.0168683
-0.00779237
-0.0124984
-0.00756634
-0.0084048
-0.00712369
-0.00486342
-0.00635016
-0.00190494
-0.00540948
0.000692523
-0.0045191
0.00344235
-0.00410739
0.0059352
-0.00370821
0.00901911
-0.00382044
0.0112546
-0.00327879
0.0141079
-0.00367489
0.0163715
-0.00337271
0.018945
-0.00352478
0.0213097
-0.00338906
0.0236364
-0.0033211
0.0258807
-0.00318678
0.0279529
-0.00295381
0.0299758
-0.00280237
0.0316101
-0.00238499
0.0333614
-0.00229469
0.0345861
-0.00177919
0.0359235
-0.00167543
0.0367974
-0.0011818
0.0376067
-0.000932061
0.0380878
-0.000500527
0.0383913
-0.000189621
0.0384684
8.92053e-05
0.0384085
0.000336121
0.0381427
0.000612137
0.0377511
0.000839344
0.0371413
0.00108944
0.0364825
0.00120741
0.0356734
0.00138542
0.0348087
0.00145928
0.0338736
0.00155817
0.0328595
0.0016072
0.0318711
0.00161283
0.0307772
0.00165743
0.02978
0.00159541
0.0286698
0.00162839
0.027693
0.00152705
0.0266131
0.00154635
0.0256761
0.0014307
0.0246497
0.0014449
0.023768
0.0013233
0.0228163
0.00132711
0.0220221
0.0011845
0.0211715
0.00115585
0.0204905
0.000997926
0.0197571
0.000956595
0.0192043
0.000783012
0.0186072
0.00074377
0.0181746
0.000581131
0.017706
0.000547293
0.017365
0.000428164
0.0169923
0.00040736
0.0167198
0.000315677
0.0164172
0.000306953
0.016203
0.000227171
0.0159669
0.000221537
0.0157962
0.000165634
0.0156051
0.00016698
0.0154714
0.000122177
0.015315
0.00011808
0.0152082
7.67359e-05
0.0150937
6.40463e-05
0.015033
7.55748e-06
0.0149723
-1.27091e-05
0.0149622
-6.85733e-05
0.0149649
-9.75636e-05
0.0150078
-0.000146566
0.0150721
-0.000189784
0.0151912
-0.000256612
0.0153208
-0.000290258
0.0155087
-0.00035375
0.0156969
-0.000373145
0.0159181
-0.000412098
0.0161494
-0.000431442
0.0163914
-0.000450911
0.0166468
-0.000465631
0.0168975
-0.000468882
0.0171622
-0.000477575
0.0174137
-0.00047032
0.0176717
-0.000471987
0.0179096
-0.000455468
0.0181606
-0.000457219
0.018378
-0.00043008
0.0186116
-0.000430542
0.0188173
-0.000404597
0.0190262
-0.000398823
0.0192057
-0.00037154
0.0193958
-0.000364255
0.019551
-0.00033443
0.0197164
-0.000329292
0.019849
-0.000294413
0.0199828
-0.000285208
0.0200905
-0.000254488
0.0201989
-0.000242289
0.0202798
-0.000212953
0.0203615
-0.000199731
0.020423
-0.000175974
0.0204827
-0.000162786
0.020528
-0.000144266
0.0205741
-0.000135633
0.0206156
-0.000127932
0.0206581
-0.000124299
0.0207028
-0.000125867
0.0207525
-0.000126674
0.020806
-0.000129885
0.0208617
-0.000128485
0.0209212
-0.000125887
0.0209773
-0.00011968
0.0210306
-0.000108934
0.0210862
-0.000100332
0.0211273
-8.07117e-05
0.021169
-6.91877e-05
0.0211944
-4.89858e-05
0.0212191
-3.7104e-05
0.0212316
-2.02014e-05
0.0212393
-7.63141e-06
0.0212454
1.63581e-06
0.0212517
8.3358e-06
0.0212607
1.11679e-05
0.0212717
1.44494e-05
0.0212914
1.05884e-05
0.0213151
7.47978e-06
0.0213541
-5.94297e-06
0.021399
-1.05521e-05
0.021456
-2.35372e-05
0.021525
-3.07386e-05
0.0215989
-3.1805e-05
0.0216781
-3.58446e-05
0.0217615
-2.96212e-05
0.0218416
-2.54768e-05
0.0219199
-1.35147e-05
0.0220002
-5.16387e-06
0.0220731
6.15952e-06
0.0221515
1.26637e-05
0.0222306
1.23974e-05
0.0223165
1.19291e-05
0.0224064
3.98973e-06
0.0225164
-9.18971e-06
0.0226085
-1.28332e-06
0.0227452
-3.00017e-05
0.0228436
-3.87899e-06
0.0229858
-3.19935e-05
0.0230925
-4.6888e-06
0.023222
-1.39428e-05
0.0233351
1.83936e-06
0.0234447
1.01096e-05
0.0235607
1.24933e-05
0.0236668
2.24745e-05
0.0237786
2.13921e-05
0.0238853
2.52037e-05
0.0239947
2.37608e-05
0.0241095
2.42618e-05
0.0242186
1.71544e-05
0.0243287
1.51304e-05
0.0244459
6.48821e-06
0.0245586
5.92033e-06
0.0246787
-1.4543e-07
0.0247883
2.36901e-06
0.0249063
-7.34541e-06
0.0250152
-1.09119e-06
0.0251309
-1.08739e-05
0.0252349
-6.74863e-06
0.0253433
-1.1581e-05
0.0254384
-8.31616e-06
0.0255375
-1.55412e-05
0.0256259
-1.28583e-05
0.0257217
-2.29986e-05
0.0258054
-1.9889e-05
0.0258966
-3.18983e-05
0.025978
-2.93476e-05
0.0260656
-4.01706e-05
0.0261469
-4.20049e-05
0.0262303
-4.9076e-05
0.0263098
-5.19026e-05
0.026388
-5.64855e-05
0.026463
-5.89357e-05
0.0265352
-6.21278e-05
0.0266047
-6.43956e-05
0.0266709
-6.7149e-05
0.0267342
-6.91956e-05
0.026794
-7.16726e-05
0.0268506
-7.29353e-05
0.026904
-7.47562e-05
0.0269544
-7.54255e-05
0.0270022
-7.72013e-05
0.0270468
-7.75724e-05
0.0270881
-7.8305e-05
0.0271256
-7.78804e-05
0.0271577
-7.48776e-05
0.0271865
-7.28166e-05
0.0272103
-6.92073e-05
0.0272281
-6.34513e-05
0.0272438
-6.11003e-05
0.0272564
-5.84527e-05
0.0272706
-5.99086e-05
0.0272873
-6.41038e-05
0.0273098
-7.23976e-05
0.0273397
-8.30723e-05
0.0273775
-9.32269e-05
0.0274234
-0.000101732
0.0274766
-0.000107399
0.0275369
-0.000110773
0.0276047
-0.000112741
0.0276775
-0.000112479
0.0277621
-0.000114773
0.0278505
-0.000116573
0.0279628
-0.000131062
0.0280679
-0.000120764
0.0282091
-0.000146927
0.0283369
-0.000127955
0.0284878
-0.000138379
0.0286435
-0.000125988
0.028797
-0.000114302
0.0289673
-0.000104522
0.0291277
-8.76641e-05
0.0293097
-7.83842e-05
0.029489
-6.92953e-05
0.0296881
-5.85498e-05
0.0298866
-5.14201e-05
0.0301115
-4.64072e-05
0.0303293
-3.70135e-05
0.0305851
-3.90287e-05
0.0308379
-3.26755e-05
0.0311282
-3.06558e-05
0.0314165
-2.55492e-05
0.0317441
-2.63973e-05
0.0320601
-1.40176e-05
0.0324289
-2.1305e-05
0.0327784
-8.28273e-06
0.0331846
-1.06156e-05
0.0335618
9.56364e-06
0.033998
1.00024e-05
0.0344043
3.32614e-05
0.0348688
3.14314e-05
0.0353017
5.5116e-05
0.0358043
4.04927e-05
0.0362777
5.39678e-05
0.0368046
3.6397e-05
0.0372943
6.92991e-05
0.0379006
3.73063e-05
0.0383543
0.000169486
0.0390114
5.14461e-05
0.0394985
0.000175363
0.0402356
6.32955e-06
0.0408075
0.000104768
0.0414558
7.46492e-05
0.0421422
6.28516e-05
0.0427817
9.4137e-05
0.0435066
8.08959e-05
0.0441725
0.000117236
0.0449235
0.00010244
0.0455837
0.000138395
0.0463708
0.000116198
0.0470686
0.000159816
0.0478428
0.00014008
0.0485768
0.000166728
0.0493655
0.000142748
0.050093
0.000173155
0.0509217
0.000125641
0.0516678
0.000149516
0.0525297
9.14092e-05
0.0533004
0.000106486
0.0541818
5.70018e-05
0.0549667
6.79732e-05
0.0558616
3.59567e-05
0.0566382
7.38877e-05
0.0575365
3.44726e-05
0.0583114
7.60303e-05
0.0591873
5.51278e-05
0.0599653
9.17079e-05
0.060804
7.50269e-05
0.0615507
9.86928e-05
0.0623889
5.96457e-05
0.0631162
8.97404e-05
0.0639223
5.59205e-05
0.0646075
7.70428e-05
0.0653946
6.4735e-05
0.066053
0.000100207
0.066783
9.237e-05
0.0673626
0.000176586
0.0680828
0.000112685
0.0685596
0.000272847
0.069244
0.000126985
0.0696996
0.000264357
0.0702677
0.000156867
0.0707485
0.000185664
0.0711727
0.000197087
0.0716688
0.00016011
0.0720477
0.000202835
0.0724814
0.00016917
0.0728112
0.000198141
0.073188
0.000135294
0.0734729
0.00014666
0.0738033
8.04236e-05
0.0740436
8.25527e-05
0.0743229
3.61078e-05
0.0745122
4.55217e-05
0.0747362
2.37014e-05
0.0748675
5.39626e-05
0.0750227
4.48471e-05
0.0750978
6.93168e-05
0.075179
7.61934e-05
0.0751905
9.88409e-05
0.0751875
0.000101348
0.0751363
0.000118117
0.0750641
0.000118914
0.0749595
0.000115877
0.074827
0.000116413
0.0746683
0.000101193
0.0744928
8.47438e-05
0.0742965
5.87153e-05
0.0740926
3.65167e-05
0.0738589
2.91219e-05
0.0736206
1.29806e-05
0.0733452
2.33595e-05
0.0730711
1.92681e-05
0.0727518
3.10398e-05
0.0724382
2.9248e-05
0.0720808
3.98102e-05
0.071738
3.4332e-05
0.0713413
4.50183e-05
0.0709771
2.67802e-05
0.0705578
3.78097e-05
0.0701585
3.00728e-05
0.0697212
5.23853e-05
0.0693072
4.26335e-05
0.0688546
5.94086e-05
0.0684203
5.80212e-05
0.0679548
6.74308e-05
0.0675304
6.91482e-05
0.0670363
9.36565e-05
0.0665767
8.83416e-05
0.0661161
9.93134e-05
0.0656824
8.06857e-05
0.0652087
9.45126e-05
0.0647965
6.20734e-05
0.0643203
9.27662e-05
0.0639671
2.16331e-05
0.063494
8.69971e-05
0.0631623
6.4292e-06
0.0627159
6.69178e-05
0.0623722
1.27908e-05
0.0619792
5.21293e-05
0.0616319
3.67167e-05
0.0612963
4.3625e-05
0.0609447
5.99854e-05
0.0606554
3.41667e-05
0.0603381
4.66272e-05
0.060073
2.36854e-05
0.0597928
2.11387e-05
0.0595567
3.26954e-06
0.0593085
1.92118e-05
0.0591024
5.81267e-06
0.0588802
2.99052e-05
0.0586965
2.22965e-05
0.0585027
4.05155e-05
0.0583504
2.69926e-05
0.0581877
3.872e-05
0.0580754
1.829e-05
0.057953
3.10188e-05
0.0578779
1.10396e-05
0.0577967
1.99989e-05
0.057756
-4.34891e-07
0.0577167
1.06402e-05
0.0577069
-7.50183e-06
0.0577018
5.89518e-06
0.0577208
4.5763e-07
0.0577616
-5.80757e-06
0.0578232
-9.95753e-06
0.0578903
7.45884e-06
0.0579741
-2.63376e-06
0.0580812
-7.65449e-07
0.0581981
-1.33546e-06
0.0583339
-1.79677e-06
0.0584843
-5.49915e-06
0.0586495
-4.16602e-06
0.0588324
-6.43615e-06
0.059023
-3.33058e-07
0.0592367
-5.975e-06
0.0594616
-4.88533e-06
0.0597073
-7.06887e-06
0.0599579
-3.34312e-06
0.0602323
-3.44766e-06
0.0605073
5.09922e-06
0.0608071
9.77732e-06
0.0611082
1.487e-05
0.0614307
1.83156e-05
0.0617492
2.44103e-05
0.0620902
2.58654e-05
0.0624321
2.69713e-05
0.0627971
2.72764e-05
0.063151
3.49591e-05
0.0635475
1.64838e-05
0.0639195
2.61392e-05
0.0643421
8.23593e-06
0.0647306
2.15912e-05
0.0651755
-8.55045e-07
0.0655746
2.15831e-05
0.0660235
1.52723e-05
0.0664278
2.71833e-05
0.0668954
9.54424e-06
0.0672818
5.4592e-05
0.0677478
1.42408e-05
0.0681405
5.36566e-05
0.068588
2.24908e-05
0.0689666
4.87315e-05
0.0694001
1.55585e-05
0.0697658
4.97333e-05
0.0701863
2.53522e-05
0.0705261
6.20865e-05
0.0709323
1.66735e-05
0.0712427
5.60985e-05
0.0716167
1.35162e-05
0.0718978
5.0776e-05
0.0722434
4.59329e-06
0.072498
4.33376e-05
0.0727968
4.07899e-06
0.0730127
3.64462e-05
0.073276
-5.82346e-06
0.0734535
2.62201e-05
0.0736821
-1.02268e-05
0.0738212
2.54761e-05
0.0739927
-2.03147e-06
0.0741052
1.52936e-05
0.0742098
9.69224e-06
0.074285
1.19696e-05
0.0743347
2.40843e-06
-2.16823e-05
-0.000164171
0.000268683
-0.000474474
0.000531951
-0.000867045
0.000680238
-0.00131707
0.0007901
-0.00179714
0.000840693
-0.00228205
0.000849706
-0.00274893
0.000818755
-0.00317931
0.000752408
-0.00355816
0.000654419
-0.00387211
0.000526536
-0.00411008
0.000375646
-0.00426729
0.000210682
-0.00433616
5.00379e-05
-0.00431476
-0.000114154
-0.00420176
-0.000277253
-0.00400524
-0.000446401
-0.00373257
-0.000597223
-0.0033926
-0.000722614
-0.00300329
-0.000815537
-0.00257414
-0.000884386
-0.00212191
-0.000928935
-0.00166127
-0.000953162
-0.00121689
-0.000938205
-0.000813766
-0.00088667
-0.000470201
-0.00079142
-0.000204909
-0.000662232
-2.59359e-05
-0.000512132
6.08366e-05
-0.000317498
5.77071e-05
-8.85734e-05
-9.7751e-05
0.000202753
-0.000315203
0.0004652
-0.000897237
0.000964407
-0.00162897
0.00137749
-0.00290533
0.00214443
-0.00446322
0.00293145
-0.00649373
0.00378271
-0.00895312
0.00473928
-0.0116951
0.00561407
-0.0150607
0.00677868
-0.0186528
0.0077769
-0.0227865
0.0089911
-0.027043
0.00996468
-0.0315522
0.0109199
-0.0359822
0.0115746
-0.0403318
0.0120251
-0.0443835
0.012098
-0.0480414
0.0118359
-0.0511704
0.0111933
-0.0536938
0.0102169
-0.0555825
0.00895172
-0.0569003
0.0073846
-0.0577555
0.00579693
-0.058249
0.00407668
-0.0584853
0.00244875
-0.0585165
0.000932973
-0.0582232
-0.000514764
-0.0576702
-0.00200535
-0.0561996
-0.00377072
-0.0541811
-0.00527863
-0.0512068
-0.00699085
-0.0480523
-0.00828872
-0.0443287
-0.00937473
-0.0406135
-0.0100623
-0.0364687
-0.0107805
-0.0323759
-0.0112002
-0.0279622
-0.011722
-0.023535
-0.0120825
-0.0190134
-0.0122414
-0.0145537
-0.012222
-0.0103157
-0.011775
-0.00632629
-0.011083
-0.00263289
-0.0100158
0.000785871
-0.00879766
0.00438035
-0.00808105
0.00780701
-0.00749618
0.0117377
-0.0075996
0.0152414
-0.00728367
0.0192602
-0.00725653
0.0224553
-0.0068279
0.0260206
-0.00689479
0.0290845
-0.00655405
0.0322103
-0.00647458
0.0351835
-0.00625187
0.0379527
-0.00590612
0.0407131
-0.00566412
0.0430732
-0.00510887
0.0455299
-0.00478371
0.0474231
-0.0041276
0.0494398
-0.00373337
0.0508978
-0.00307059
0.0523563
-0.00257473
0.0533862
-0.00189513
0.0542536
-0.00129769
0.0548268
-0.000691085
0.0551574
-0.000167845
0.055242
0.000325215
0.0551204
0.000809242
0.0547699
0.00126588
0.0542725
0.00166384
0.0535133
0.00204302
0.0527006
0.00227447
0.0516606
0.00257428
0.0505733
0.00271837
0.0493699
0.00288038
0.0480564
0.00299233
0.0467546
0.00302097
0.045309
0.00309753
0.04396
0.00302869
0.0424618
0.00307103
0.0411121
0.00293709
0.0396252
0.00295318
0.0383211
0.00277942
0.0369045
0.00276479
0.0356955
0.00255651
0.0343973
0.00249797
0.0333019
0.0022618
0.0321378
0.00216885
0.0311767
0.00191107
0.03017
0.00179362
0.0293729
0.00153151
0.0285164
0.00142833
0.0278691
0.00118403
0.0271476
0.00112603
0.0266085
0.000931308
0.0259947
0.000896345
0.0255398
0.000733663
0.0250489
0.000688398
0.0246819
0.000555772
0.0242924
0.000523487
0.0240051
0.000420776
0.023697
0.000396211
0.0234699
0.00031011
0.0232335
0.000278496
0.0230686
0.000192744
0.0228978
0.000141416
0.0228251
2.10849e-05
0.0227543
-3.81748e-05
0.0227504
-0.000135269
0.0227817
-0.000219867
0.0228712
-0.000321507
0.0229849
-0.000414677
0.0231853
-0.00053508
0.0233854
-0.000599377
0.0236588
-0.000693487
0.0239331
-0.000734329
0.0242406
-0.00078758
0.0245599
-0.000819532
0.0248862
-0.000842348
0.0252244
-0.000857689
0.0255556
-0.000859537
0.025897
-0.00086231
0.0262226
-0.000849302
0.0265541
-0.00083907
0.0268536
-0.00081122
0.0271743
-0.000799588
0.0274537
-0.000757178
0.0277391
-0.000745835
0.0279952
-0.000704767
0.0282555
-0.000684019
0.0284747
-0.000635939
0.0287031
-0.000610634
0.028885
-0.00056119
0.0290773
-0.000534511
0.029228
-0.000484957
0.0293855
-0.00045657
0.0295005
-0.00040697
0.0296284
-0.00038234
0.0297216
-0.000337044
0.0298158
-0.000313205
0.0298899
-0.0002769
0.0299641
-0.000258961
0.0300274
-0.000235949
0.0300911
-0.000227824
0.0301525
-0.000219981
0.0302174
-0.000222013
0.0302842
-0.00022311
0.0303539
-0.000226899
0.0304284
-0.000226164
0.030502
-0.000223863
0.0305744
-0.000211345
0.0306487
-0.000199788
0.0307103
-0.000175017
0.0307759
-0.000156751
0.0308231
-0.0001242
0.0308704
-0.000101961
0.0309012
-7.25824e-05
0.0309294
-5.04426e-05
0.0309495
-2.90155e-05
0.0309654
-1.28885e-05
0.0309846
-4.94806e-06
0.0310033
9.4896e-07
0.0310281
2.02906e-06
0.0310562
-1.90835e-06
0.0310933
-1.05527e-05
0.0311376
-2.46932e-05
0.0311942
-4.07033e-05
0.0312599
-5.67977e-05
0.031335
-7.39853e-05
0.0314197
-7.68441e-05
0.0315068
-8.15618e-05
0.0315961
-7.47656e-05
0.0316872
-6.77823e-05
0.0317776
-5.27904e-05
0.0318613
-3.2031e-05
0.03195
-2.27317e-05
0.0320334
-5.63435e-06
0.0321203
-6.41728e-06
0.0322135
-1.08203e-05
0.0323114
-1.92993e-05
0.0324048
-2.73649e-05
0.0325368
-5.36943e-05
0.0326305
-4.16122e-05
0.0327807
-7.01963e-05
0.0328827
-4.68879e-05
0.0330217
-5.54102e-05
0.033135
-3.5927e-05
0.0332531
-2.33825e-05
0.0333714
-1.50088e-05
0.0334785
1.23561e-06
0.0335905
6.58605e-06
0.0336945
1.49024e-05
0.0338033
1.50688e-05
0.0339076
1.75389e-05
0.034016
1.24878e-05
0.0341224
9.41175e-06
0.0342355
5.8186e-07
0.0343412
-8.40362e-07
0.0344569
-1.18709e-05
0.03456
-1.09003e-05
0.0346755
-1.89896e-05
0.0347844
-2.25397e-05
0.0348923
-2.26026e-05
0.0349911
-2.35689e-05
0.0351004
-2.72824e-05
0.0351911
-2.27375e-05
0.0352854
-2.5566e-05
0.0353703
-2.53476e-05
0.0354563
-3.02849e-05
0.0355315
-3.00866e-05
0.0356163
-4.23381e-05
0.0356863
-3.87864e-05
0.0357654
-5.47979e-05
0.0358342
-5.61435e-05
0.0359095
-6.67618e-05
0.035977
-7.05887e-05
0.0360473
-7.84621e-05
0.036112
-8.20873e-05
0.0361763
-8.7314e-05
0.0362359
-8.99758e-05
0.036294
-9.41535e-05
0.0363476
-9.62829e-05
0.0363994
-0.000100117
0.0364466
-0.000101597
0.0364922
-0.000104353
0.036533
-0.000104621
0.0365733
-0.00010719
0.0366092
-0.000107816
0.0366432
-0.000109306
0.0366717
-0.000107746
0.036697
-0.00010666
0.0367199
-0.000104788
0.036739
-0.000100768
0.0367529
-9.38787e-05
0.0367657
-8.8994e-05
0.0367749
-8.51849e-05
0.0367858
-8.44771e-05
0.0367959
-8.57868e-05
0.0368102
-9.37807e-05
0.0368291
-0.000106092
0.0368545
-0.000122316
0.0368877
-0.000138729
0.0369289
-0.000153126
0.0369783
-0.000164066
0.0370356
-0.000171771
0.0371003
-0.000176821
0.0371742
-0.000180493
0.0372531
-0.000182026
0.0373514
-0.000196925
0.0374428
-0.00019748
0.0375722
-0.000218644
0.0376776
-0.000213698
0.0378251
-0.00022772
0.0379656
-0.000226847
0.0381167
-0.000212716
0.0382812
-0.000206965
0.0384433
-0.000185945
0.0386288
-0.000176576
0.0388078
-0.000154574
0.0390014
-0.000146813
0.0392047
-0.000132569
0.0394185
-0.000129363
0.0396372
-0.000117289
0.0398932
-0.000122517
0.0401447
-0.000112924
0.0404287
-0.000118508
0.0407228