/*--------------------------------*- C++ -*----------------------------------*\
| =========                 |                                                 |
| \\      /  F ield         | OpenFOAM: The Open Source CFD Toolbox           |
|  \\    /   O peration     | Version:  v1812                                 |
|   \\  /    A nd           | Web:      www.OpenFOAM.com                      |
|    \\/     M anipulation  |                                                 |
\*---------------------------------------------------------------------------*/
FoamFile
{
    version     2.0;
    format      ascii;
    class       volScalarField;
    location    "0.4";
    object      rho;
}
// * * * * * * * * * * * * * * * * * * * * * * * * * * * * * * * * * * * * * //

dimensions      [1 -3 0 0 0 0 0];


internalField   nonuniform List<scalar> 
20400
(
1.26134
1.26136
1.26143
1.26158
1.26187
1.26231
1.26291
1.26364
1.26447
1.26536
1.26627
1.26716
1.268
1.26877
1.26944
1.27001
1.27048
1.27085
1.27112
1.27131
1.27143
1.27149
1.27152
1.27153
1.27152
1.27149
1.27141
1.27127
1.27105
1.27072
1.27029
1.26974
1.26906
1.26831
1.26746
1.26653
1.26564
1.26461
1.26368
1.26257
1.26159
1.26049
1.25953
1.25858
1.25775
1.25695
1.25624
1.2556
1.25502
1.2545
1.25407
1.25369
1.2534
1.25314
1.25289
1.25278
1.25264
1.25243
1.2523
1.2522
1.25214
1.25211
1.25218
1.25232
1.25251
1.25272
1.25292
1.25312
1.25329
1.25344
1.2536
1.25375
1.25396
1.25409
1.25426
1.25433
1.25453
1.25464
1.25491
1.25514
1.25538
1.25555
1.2556
1.25571
1.25577
1.25596
1.2561
1.2564
1.25669
1.25713
1.2576
1.25819
1.25882
1.25952
1.26025
1.26104
1.26186
1.26272
1.26359
1.26452
1.26544
1.26642
1.26734
1.26827
1.26911
1.26992
1.2706
1.27122
1.27167
1.27205
1.27225
1.27239
1.27241
1.27243
1.27239
1.27235
1.27219
1.27196
1.27161
1.27117
1.27066
1.2701
1.26951
1.26892
1.26834
1.26781
1.26729
1.26681
1.26636
1.26595
1.26557
1.26521
1.26488
1.26457
1.26427
1.26398
1.26371
1.26344
1.26319
1.26295
1.26273
1.26252
1.26232
1.26212
1.26193
1.26174
1.26157
1.26139
1.26124
1.26109
1.26095
1.26082
1.26071
1.2606
1.26051
1.26042
1.26034
1.26027
1.2602
1.26014
1.26009
1.26004
1.26
1.25996
1.25992
1.25988
1.25984
1.2598
1.25977
1.25973
1.2597
1.25966
1.25963
1.2596
1.25957
1.25954
1.25952
1.25949
1.25946
1.25944
1.25943
1.25942
1.25941
1.2594
1.2594
1.2594
1.2594
1.2594
1.2594
1.25941
1.25942
1.25943
1.25944
1.25946
1.25948
1.25951
1.25954
1.25957
1.25961
1.25964
1.25968
1.25972
1.25977
1.25981
1.25986
1.25991
1.25996
1.26002
1.26007
1.26014
1.2602
1.26026
1.26031
1.26038
1.26043
1.26048
1.26053
1.26059
1.26064
1.2607
1.26075
1.2608
1.26085
1.2609
1.26094
1.26098
1.26102
1.26105
1.26108
1.2611
1.26112
1.26114
1.26116
1.26118
1.26119
1.2612
1.2612
1.2612
1.2612
1.26118
1.26117
1.26114
1.26111
1.26108
1.26103
1.26098
1.26091
1.26084
1.26077
1.26068
1.26059
1.26049
1.26039
1.26028
1.26017
1.26004
1.25991
1.25977
1.25962
1.25947
1.2593
1.25912
1.25893
1.25873
1.25852
1.2583
1.25807
1.25783
1.25759
1.25734
1.25708
1.25681
1.25653
1.25624
1.25595
1.25565
1.25533
1.25501
1.25468
1.25434
1.25401
1.25365
1.25329
1.25292
1.25256
1.25218
1.2518
1.25141
1.25102
1.25062
1.25022
1.2498
1.24939
1.24896
1.24853
1.24808
1.24764
1.24719
1.24674
1.24628
1.24582
1.24534
1.24487
1.24438
1.2439
1.2434
1.24293
1.24244
1.24196
1.24146
1.24095
1.24045
1.23989
1.2394
1.23885
1.23841
1.23785
1.23732
1.2367
1.23612
1.23553
1.23498
1.23441
1.23386
1.23327
1.2327
1.23211
1.23154
1.23095
1.23037
1.22977
1.22918
1.22857
1.22797
1.22734
1.22674
1.2261
1.22549
1.22486
1.22425
1.22361
1.223
1.22236
1.22174
1.2211
1.22049
1.21986
1.21926
1.21864
1.21803
1.21744
1.21682
1.21626
1.21564
1.21512
1.2145
1.21399
1.21339
1.21287
1.21234
1.21188
1.21143
1.211
1.21058
1.21018
1.20976
1.20937
1.20896
1.20857
1.20818
1.20782
1.20746
1.20713
1.20681
1.20652
1.20623
1.20595
1.2057
1.20545
1.2052
1.20497
1.20474
1.20454
1.20433
1.20414
1.20396
1.20378
1.20361
1.20346
1.2033
1.20316
1.20302
1.2029
1.20278
1.20267
1.20256
1.20247
1.2024
1.20233
1.20228
1.20223
1.2022
1.20218
1.20218
1.2022
1.20222
1.20226
1.20231
1.20237
1.20246
1.20254
1.20267
1.20275
1.20288
1.20298
1.20312
1.20325
1.20342
1.20361
1.20381
1.20402
1.20425
1.20449
1.20472
1.20496
1.20519
1.20544
1.20568
1.20594
1.2062
1.20647
1.20674
1.20701
1.20728
1.20754
1.20781
1.20808
1.20835
1.20862
1.20889
1.20917
1.20943
1.20969
1.20993
1.21016
1.21037
1.21058
1.21078
1.21098
1.21116
1.21133
1.21148
1.21161
1.21173
1.21183
1.21192
1.21199
1.21205
1.21209
1.2121
1.21209
1.21207
1.21204
1.21199
1.21194
1.21186
1.21178
1.21167
1.21156
1.21142
1.21126
1.21109
1.2109
1.21069
1.21047
1.21024
1.20999
1.20973
1.20946
1.20919
1.20889
1.2086
1.20831
1.20802
1.20772
1.20743
1.20713
1.20684
1.20655
1.20626
1.20598
1.20569
1.20542
1.20518
1.20499
1.20483
1.20466
1.20441
1.2041
1.20373
1.26135
1.26136
1.26143
1.26158
1.26187
1.26232
1.26291
1.26365
1.26448
1.26538
1.26629
1.26718
1.26801
1.26878
1.26944
1.27002
1.27048
1.27085
1.27113
1.27132
1.27143
1.2715
1.27152
1.27152
1.2715
1.27146
1.27139
1.27126
1.27105
1.27073
1.27031
1.26977
1.26912
1.26835
1.26748
1.26661
1.2656
1.26475
1.26363
1.26272
1.26157
1.26061
1.25957
1.25869
1.25783
1.25708
1.25637
1.25573
1.25513
1.25458
1.25411
1.25366
1.2533
1.25304
1.25288
1.25283
1.2528
1.25263
1.25248
1.25224
1.25206
1.25189
1.25192
1.25195
1.25214
1.25226
1.25252
1.25265
1.25289
1.25303
1.25321
1.25336
1.2534
1.25367
1.25377
1.25406
1.25407
1.25439
1.25453
1.25486
1.25515
1.25522
1.25543
1.25536
1.25556
1.25557
1.25594
1.25603
1.25652
1.2568
1.25739
1.25789
1.25857
1.25924
1.25999
1.26074
1.26157
1.26242
1.26331
1.26422
1.26517
1.26611
1.26709
1.268
1.26888
1.26967
1.27041
1.27102
1.27154
1.27191
1.27219
1.27232
1.27241
1.2724
1.27242
1.27234
1.27222
1.27198
1.27167
1.27125
1.27076
1.27022
1.26965
1.26907
1.26851
1.26796
1.26746
1.26697
1.26652
1.26609
1.26571
1.26534
1.26501
1.26469
1.26439
1.26411
1.26382
1.26356
1.2633
1.26306
1.26284
1.26263
1.26242
1.26223
1.26204
1.26185
1.26167
1.26149
1.26133
1.26118
1.26104
1.26091
1.26079
1.26067
1.26058
1.26048
1.2604
1.26032
1.26025
1.26019
1.26014
1.26008
1.26004
1.25999
1.25995
1.25991
1.25987
1.25983
1.2598
1.25976
1.25973
1.25969
1.25966
1.25963
1.25961
1.25958
1.25955
1.25952
1.2595
1.25948
1.25947
1.25945
1.25945
1.25944
1.25944
1.25944
1.25944
1.25944
1.25944
1.25945
1.25946
1.25947
1.25948
1.2595
1.25952
1.25954
1.25957
1.25961
1.25964
1.25968
1.25972
1.25976
1.2598
1.25985
1.25989
1.25994
1.26
1.26005
1.26011
1.26017
1.26024
1.26029
1.26036
1.2604
1.26047
1.26052
1.26057
1.26063
1.26068
1.26073
1.26078
1.26084
1.26089
1.26094
1.26098
1.26102
1.26105
1.26108
1.26111
1.26114
1.26116
1.26118
1.2612
1.26122
1.26123
1.26124
1.26124
1.26124
1.26123
1.26123
1.2612
1.26119
1.26115
1.26112
1.26107
1.26102
1.26095
1.26089
1.26081
1.26073
1.26063
1.26054
1.26043
1.26033
1.26021
1.26009
1.25996
1.25982
1.25967
1.25951
1.25934
1.25917
1.25897
1.25878
1.25857
1.25835
1.25812
1.25788
1.25764
1.25738
1.25712
1.25685
1.25657
1.25629
1.25599
1.25569
1.25538
1.25506
1.25473
1.2544
1.25405
1.25371
1.25334
1.25298
1.25261
1.25224
1.25186
1.25147
1.25108
1.25068
1.25028
1.24987
1.24946
1.24902
1.2486
1.24815
1.24772
1.24726
1.24682
1.24635
1.2459
1.24542
1.24495
1.24446
1.24398
1.24349
1.24302
1.24253
1.24207
1.24158
1.2411
1.24054
1.24006
1.23939
1.23902
1.23844
1.23803
1.23742
1.23681
1.23626
1.23566
1.23514
1.23455
1.23402
1.23341
1.23288
1.23227
1.23172
1.2311
1.23055
1.22992
1.22936
1.22872
1.22815
1.2275
1.22693
1.22628
1.2257
1.22504
1.22447
1.22381
1.22325
1.22257
1.222
1.22132
1.22076
1.22009
1.21954
1.21888
1.21833
1.21768
1.21716
1.21644
1.21599
1.21527
1.21484
1.21421
1.2137
1.2132
1.21262
1.2122
1.21171
1.21132
1.21086
1.21047
1.21003
1.20965
1.20923
1.20886
1.20846
1.20812
1.20776
1.20745
1.20712
1.20683
1.20653
1.20625
1.20598
1.20573
1.20548
1.20524
1.20502
1.2048
1.2046
1.20442
1.20422
1.20407
1.20388
1.20374
1.20357
1.20345
1.20329
1.20318
1.20304
1.20294
1.20281
1.20276
1.20266
1.20261
1.20253
1.2025
1.20244
1.20245
1.20243
1.20246
1.20247
1.20253
1.20254
1.20265
1.20267
1.20282
1.20287
1.20303
1.2031
1.20323
1.20335
1.20349
1.20366
1.20383
1.20406
1.20424
1.2045
1.2047
1.20496
1.20517
1.20543
1.20565
1.20591
1.20615
1.20643
1.20668
1.20696
1.20722
1.20749
1.20775
1.20802
1.20829
1.20856
1.20882
1.2091
1.20937
1.20964
1.2099
1.21014
1.21037
1.21059
1.21079
1.211
1.21118
1.21138
1.21153
1.21169
1.21181
1.21195
1.21203
1.21214
1.21219
1.21226
1.21228
1.21232
1.2123
1.2123
1.21227
1.21224
1.21217
1.21211
1.212
1.21193
1.21179
1.21168
1.21149
1.21136
1.21114
1.21097
1.2107
1.2105
1.21023
1.21001
1.20971
1.20946
1.20915
1.20889
1.20857
1.2083
1.20799
1.20772
1.2074
1.20714
1.20683
1.20658
1.20626
1.20602
1.20571
1.20549
1.20527
1.20513
1.20495
1.20471
1.2044
1.20403
1.26134
1.26135
1.26142
1.26158
1.26187
1.26232
1.26292
1.26366
1.2645
1.2654
1.26631
1.26719
1.26802
1.26879
1.26945
1.27002
1.27049
1.27085
1.27113
1.27131
1.27143
1.27148
1.27151
1.27151
1.2715
1.27148
1.27141
1.27128
1.27105
1.27075
1.27028
1.26975
1.26909
1.26827
1.26753
1.26651
1.26574
1.2646
1.26376
1.26257
1.26159
1.2605
1.25958
1.25865
1.25782
1.25705
1.25635
1.25571
1.25514
1.25462
1.25417
1.25372
1.25335
1.2531
1.2528
1.25254
1.2524
1.25229
1.25235
1.25211
1.25205
1.25178
1.25174
1.25171
1.25171
1.25191
1.2519
1.2522
1.25218
1.25241
1.25247
1.25259
1.25275
1.25279
1.25298
1.25298
1.2532
1.25321
1.25357
1.25383
1.25409
1.25436
1.25432
1.25452
1.25437
1.25468
1.25469
1.2552
1.25537
1.25594
1.25629
1.25693
1.25748
1.25817
1.25887
1.25965
1.26045
1.2613
1.26218
1.26311
1.26408
1.26506
1.26605
1.26698
1.26793
1.26876
1.26959
1.27027
1.2709
1.27137
1.27176
1.27202
1.27219
1.2723
1.27231
1.27231
1.27219
1.272
1.27172
1.27137
1.27096
1.27049
1.27
1.26948
1.26897
1.26845
1.26795
1.26747
1.26701
1.26657
1.26616
1.26578
1.26543
1.2651
1.26481
1.26451
1.26424
1.26395
1.2637
1.26345
1.26322
1.263
1.26281
1.2626
1.26241
1.26222
1.26202
1.26184
1.26165
1.26149
1.26132
1.26118
1.26103
1.26092
1.26078
1.26069
1.26057
1.26049
1.26039
1.26033
1.26025
1.2602
1.26013
1.26009
1.26003
1.25999
1.25994
1.2599
1.25986
1.25983
1.25979
1.25975
1.25972
1.25969
1.25966
1.25964
1.25961
1.25959
1.25957
1.25955
1.25953
1.25952
1.25951
1.25951
1.2595
1.25951
1.2595
1.25951
1.25951
1.25952
1.25952
1.25953
1.25955
1.25956
1.25958
1.25961
1.25963
1.25967
1.2597
1.25975
1.25978
1.25983
1.25986
1.25991
1.25995
1.26001
1.26005
1.26011
1.26017
1.26024
1.26028
1.26036
1.26039
1.26047
1.26051
1.26058
1.26063
1.26068
1.26074
1.26079
1.26085
1.26089
1.26095
1.26099
1.26104
1.26108
1.26112
1.26114
1.26118
1.2612
1.26123
1.26124
1.26127
1.26128
1.2613
1.2613
1.2613
1.2613
1.2613
1.26128
1.26128
1.26124
1.26123
1.26118
1.26114
1.26108
1.26103
1.26095
1.26088
1.26079
1.2607
1.2606
1.2605
1.26039
1.26028
1.26015
1.26003
1.25988
1.25974
1.25958
1.25942
1.25924
1.25905
1.25885
1.25864
1.25842
1.25819
1.25796
1.25771
1.25746
1.2572
1.25693
1.25665
1.25636
1.25607
1.25576
1.25545
1.25513
1.25481
1.25446
1.25413
1.25378
1.25342
1.25306
1.25268
1.25232
1.25193
1.25155
1.25115
1.25077
1.25035
1.24996
1.24952
1.24912
1.24867
1.24825
1.24779
1.24736
1.24688
1.24645
1.24596
1.24551
1.245
1.24456
1.24404
1.2436
1.24308
1.24266
1.24215
1.2417
1.2412
1.24067
1.23996
1.23953
1.23889
1.23857
1.23802
1.23748
1.23693
1.2363
1.23579
1.23518
1.23468
1.23406
1.23355
1.23292
1.2324
1.23177
1.23124
1.2306
1.23006
1.2294
1.22885
1.22818
1.22763
1.22696
1.22641
1.22571
1.22517
1.22446
1.22393
1.22323
1.22268
1.22199
1.22144
1.22073
1.22021
1.21952
1.21899
1.21832
1.2178
1.2171
1.21662
1.21585
1.21544
1.2148
1.21437
1.21387
1.21324
1.21283
1.21226
1.21189
1.21139
1.211
1.21053
1.21014
1.2097
1.20934
1.20892
1.20859
1.2082
1.2079
1.20754
1.20725
1.20692
1.20663
1.20634
1.20606
1.2058
1.20555
1.20531
1.20509
1.20487
1.20469
1.20448
1.20433
1.20413
1.20399
1.20381
1.20369
1.20352
1.20341
1.20325
1.20317
1.20304
1.20297
1.20287
1.20283
1.20273
1.2027
1.20263
1.20261
1.20258
1.2026
1.20258
1.20266
1.20267
1.20276
1.20278
1.20292
1.20293
1.20311
1.20317
1.20332
1.20341
1.20354
1.20371
1.20383
1.20408
1.20424
1.2045
1.20468
1.20495
1.20513
1.20542
1.20561
1.20589
1.2061
1.20638
1.20661
1.20691
1.20715
1.20744
1.20769
1.20798
1.20822
1.20851
1.20876
1.20905
1.20931
1.20959
1.20984
1.21011
1.21035
1.21059
1.2108
1.21103
1.21121
1.21142
1.21158
1.21176
1.21189
1.21205
1.21214
1.21227
1.21233
1.21242
1.21244
1.21251
1.21251
1.21255
1.21253
1.21253
1.21247
1.21245
1.21236
1.21232
1.21218
1.21209
1.2119
1.21181
1.21162
1.21146
1.21118
1.21099
1.21071
1.21054
1.21025
1.21002
1.2097
1.20945
1.20912
1.20888
1.20854
1.2083
1.20795
1.20771
1.20738
1.20713
1.20679
1.20655
1.20622
1.20599
1.2057
1.20552
1.20533
1.20516
1.2049
1.2046
1.20422
1.26133
1.26134
1.26141
1.26157
1.26187
1.26232
1.26293
1.26368
1.26452
1.26542
1.26633
1.26721
1.26803
1.26878
1.26945
1.27001
1.27047
1.27084
1.27111
1.2713
1.27141
1.27147
1.2715
1.2715
1.2715
1.27147
1.27141
1.27127
1.27107
1.27073
1.27035
1.26972
1.26905
1.26832
1.26741
1.26667
1.26558
1.26476
1.26357
1.2626
1.26146
1.26051
1.25953
1.25867
1.25787
1.25712
1.25644
1.25578
1.25519
1.2546
1.25409
1.25359
1.25315
1.25283
1.25256
1.25245
1.25223
1.25232
1.25197
1.25217
1.25168
1.25149
1.2511
1.251
1.25091
1.25083
1.25099
1.25081
1.2511
1.25094
1.25114
1.2511
1.25113
1.25121
1.25112
1.2512
1.25119
1.25138
1.25152
1.25182
1.25216
1.25225
1.25245
1.25233
1.25251
1.25241
1.2528
1.25293
1.25348
1.25375
1.25431
1.25472
1.25533
1.25592
1.25663
1.25738
1.25818
1.25904
1.2599
1.26085
1.26186
1.26289
1.26386
1.26494
1.26586
1.26691
1.26774
1.26868
1.26936
1.27013
1.27064
1.27118
1.27151
1.27182
1.27199
1.27205
1.27204
1.27193
1.2717
1.27143
1.27111
1.27081
1.27041
1.27008
1.26965
1.26927
1.26882
1.26838
1.26791
1.26748
1.26703
1.26664
1.26627
1.26594
1.26562
1.26535
1.26504
1.26477
1.2645
1.26425
1.26401
1.2638
1.26358
1.26338
1.26318
1.26297
1.26277
1.26254
1.26235
1.26212
1.26194
1.26173
1.26156
1.26137
1.26124
1.26107
1.26095
1.26081
1.2607
1.26057
1.26049
1.26038
1.26031
1.26023
1.26017
1.2601
1.26005
1.25999
1.25995
1.2599
1.25986
1.25982
1.25978
1.25975
1.25973
1.2597
1.25968
1.25966
1.25964
1.25962
1.25961
1.25959
1.25958
1.25957
1.25958
1.25957
1.25958
1.25958
1.25959
1.25959
1.2596
1.25961
1.25962
1.25963
1.25966
1.25968
1.25971
1.25973
1.25977
1.2598
1.25984
1.25988
1.25993
1.25997
1.26002
1.26006
1.26012
1.26017
1.26023
1.26027
1.26035
1.26038
1.26046
1.2605
1.26057
1.26062
1.26068
1.26073
1.26078
1.26084
1.26089
1.26095
1.261
1.26105
1.26109
1.26114
1.26116
1.26121
1.26123
1.26126
1.26127
1.2613
1.26131
1.26134
1.26135
1.26136
1.26136
1.26136
1.26135
1.26135
1.26132
1.26131
1.26126
1.26124
1.26119
1.26115
1.26107
1.26102
1.26093
1.26086
1.26075
1.26067
1.26055
1.26045
1.26033
1.26022
1.26008
1.25996
1.2598
1.25966
1.25948
1.25931
1.25912
1.25893
1.25871
1.2585
1.25827
1.25804
1.25779
1.25754
1.25727
1.257
1.25672
1.25644
1.25614
1.25584
1.25552
1.2552
1.25487
1.25455
1.2542
1.25385
1.2535
1.25313
1.25277
1.25239
1.25202
1.25162
1.25125
1.25084
1.25046
1.25003
1.24964
1.24919
1.24879
1.24832
1.24791
1.24743
1.24701
1.24651
1.24609
1.24557
1.24514
1.24461
1.24419
1.24367
1.24325
1.24274
1.2423
1.24178
1.24128
1.24065
1.24014
1.23944
1.23907
1.2385
1.23812
1.23758
1.23693
1.23641
1.23582
1.2353
1.2347
1.23419
1.23359
1.23306
1.23244
1.2319
1.23127
1.23073
1.23006
1.22952
1.22885
1.2283
1.22762
1.22707
1.2264
1.22585
1.22514
1.2246
1.22392
1.22336
1.22268
1.22213
1.22143
1.22089
1.22021
1.21967
1.219
1.21846
1.2178
1.21727
1.21656
1.2161
1.21539
1.21503
1.2145
1.214
1.21349
1.21289
1.21248
1.21196
1.21156
1.21105
1.21065
1.21017
1.2098
1.20937
1.20904
1.20865
1.20835
1.20799
1.20769
1.20735
1.20705
1.20673
1.20645
1.20616
1.20589
1.20563
1.2054
1.20517
1.20497
1.20476
1.20459
1.20439
1.20425
1.20406
1.20393
1.20376
1.20364
1.20348
1.20338
1.20323
1.20317
1.20305
1.20301
1.20291
1.20288
1.20279
1.20276
1.20271
1.20272
1.20269
1.20275
1.20275
1.20282
1.20285
1.20294
1.20297
1.20314
1.20317
1.20335
1.20342
1.20356
1.20369
1.20382
1.20404
1.20419
1.20443
1.20461
1.20486
1.20506
1.20534
1.20553
1.2058
1.20601
1.20628
1.2065
1.20679
1.20703
1.20733
1.20756
1.20786
1.2081
1.20839
1.20864
1.20893
1.20918
1.20946
1.20971
1.21
1.21023
1.21049
1.21071
1.21096
1.21115
1.21137
1.21154
1.21173
1.21187
1.21204
1.21215
1.21229
1.21236
1.21247
1.2125
1.21258
1.2126
1.21266
1.21267
1.2127
1.21268
1.21268
1.2126
1.2126
1.2125
1.21243
1.21224
1.21217
1.212
1.21187
1.21162
1.21143
1.21114
1.21097
1.21071
1.21051
1.21018
1.20995
1.20962
1.2094
1.20905
1.20882
1.20847
1.20824
1.20788
1.20765
1.2073
1.20706
1.20674
1.20651
1.20618
1.20597
1.20571
1.20555
1.20535
1.2051
1.20478
1.2044
1.26129
1.2613
1.26138
1.26155
1.26186
1.26232
1.26293
1.26368
1.26453
1.26542
1.26633
1.2672
1.26802
1.26876
1.26942
1.26997
1.27043
1.27079
1.27106
1.27125
1.27137
1.27143
1.27147
1.27148
1.27148
1.27146
1.2714
1.27128
1.27106
1.27078
1.27027
1.26974
1.26899
1.26821
1.26748
1.26648
1.26566
1.26453
1.26355
1.26243
1.26143
1.26043
1.25951
1.25867
1.25787
1.25715
1.25645
1.25579
1.25518
1.25459
1.25408
1.25356
1.25314
1.25271
1.25237
1.25202
1.25207
1.25171
1.25231
1.2517
1.25178
1.25112
1.25089
1.25035
1.25015
1.24988
1.24959
1.24969
1.24923
1.24948
1.24916
1.24925
1.24908
1.24898
1.24887
1.24874
1.2487
1.24874
1.24888
1.24912
1.24933
1.24956
1.24948
1.24961
1.24953
1.24975
1.24977
1.25019
1.25043
1.2509
1.25119
1.2517
1.25213
1.25273
1.25335
1.25408
1.25486
1.25567
1.25656
1.25753
1.25853
1.25955
1.26064
1.26166
1.26283
1.2638
1.26499
1.26586
1.26698
1.26776
1.26875
1.26939
1.27017
1.27063
1.27115
1.27143
1.27159
1.27162
1.27154
1.27138
1.27118
1.27094
1.27079
1.27057
1.27044
1.27018
1.26994
1.26955
1.26919
1.26875
1.26835
1.26794
1.26756
1.2672
1.26694
1.26661
1.26635
1.26605
1.26578
1.26552
1.26529
1.26506
1.26486
1.26463
1.26442
1.26421
1.26396
1.26373
1.26345
1.26322
1.26293
1.2627
1.26242
1.26221
1.26195
1.26177
1.26154
1.26137
1.26116
1.26102
1.26083
1.26072
1.26057
1.26047
1.26035
1.26028
1.26019
1.26012
1.26005
1.26
1.25994
1.25989
1.25984
1.25981
1.25978
1.25976
1.25974
1.25973
1.2597
1.25969
1.25966
1.25965
1.25964
1.25964
1.25963
1.25964
1.25964
1.25965
1.25965
1.25966
1.25966
1.25968
1.25968
1.2597
1.25971
1.25974
1.25976
1.25979
1.25982
1.25985
1.25989
1.25993
1.25997
1.26001
1.26005
1.2601
1.26015
1.26021
1.26026
1.26032
1.26036
1.26043
1.26046
1.26053
1.26058
1.26064
1.26071
1.26076
1.26082
1.26087
1.26093
1.26098
1.26104
1.26108
1.26113
1.26116
1.26121
1.26123
1.26127
1.26129
1.26132
1.26133
1.26136
1.26137
1.26139
1.26139
1.2614
1.26139
1.26139
1.26137
1.26137
1.26133
1.26132
1.26126
1.26124
1.26117
1.26113
1.26105
1.26098
1.26089
1.26081
1.2607
1.26061
1.26049
1.26039
1.26025
1.26014
1.26
1.25986
1.2597
1.25955
1.25936
1.25919
1.25898
1.25878
1.25856
1.25834
1.2581
1.25786
1.2576
1.25734
1.25707
1.25679
1.2565
1.25621
1.2559
1.25559
1.25527
1.25495
1.25461
1.25427
1.25392
1.25356
1.25321
1.25283
1.25247
1.25208
1.25171
1.2513
1.25093
1.25051
1.25012
1.24968
1.24929
1.24884
1.24843
1.24796
1.24755
1.24706
1.24663
1.24612
1.2457
1.24518
1.24476
1.24425
1.24381
1.2433
1.24284
1.24231
1.24184
1.24127
1.24074
1.2401
1.23962
1.23893
1.23862
1.23811
1.23757
1.23702
1.23639
1.23586
1.23527
1.23476
1.23415
1.23365
1.23303
1.2325
1.23187
1.23133
1.23067
1.23012
1.22946
1.22891
1.22823
1.22769
1.22701
1.22645
1.22577
1.22521
1.22452
1.22397
1.2233
1.22273
1.22204
1.22149
1.22081
1.22026
1.21959
1.21905
1.21839
1.21784
1.21719
1.21667
1.21593
1.21554
1.21495
1.21458
1.21405
1.21345
1.21297
1.21242
1.21201
1.2115
1.21109
1.21058
1.2102
1.20975
1.2094
1.20898
1.20868
1.20831
1.20801
1.20766
1.20735
1.20702
1.20673
1.20641
1.20614
1.20586
1.20561
1.20537
1.20515
1.20493
1.20475
1.20455
1.20439
1.2042
1.20407
1.20389
1.20376
1.2036
1.20349
1.20333
1.20325
1.20313
1.20308
1.20298
1.20294
1.20285
1.20282
1.20275
1.20275
1.20271
1.20274
1.20273
1.2028
1.20282
1.2029
1.20293
1.20304
1.20309
1.20328
1.20333
1.2035
1.2036
1.20375
1.20391
1.20406
1.20429
1.20445
1.2047
1.20489
1.20516
1.20535
1.20562
1.20582
1.2061
1.20631
1.2066
1.20683
1.20712
1.20736
1.20766
1.20791
1.2082
1.20844
1.20873
1.20898
1.20927
1.20952
1.2098
1.21003
1.21031
1.21053
1.2108
1.211
1.21123
1.21142
1.21162
1.21178
1.21195
1.21208
1.21223
1.21232
1.21244
1.2125
1.21259
1.21261
1.21269
1.21272
1.21278
1.21278
1.21281
1.21275
1.21277
1.2127
1.21266
1.21249
1.21242
1.21228
1.21217
1.21192
1.21176
1.2115
1.21133
1.21106
1.21088
1.21056
1.21035
1.21003
1.20982
1.20947
1.20925
1.20891
1.20868
1.20832
1.20808
1.20772
1.20748
1.20716
1.20691
1.20657
1.20634
1.20603
1.20584
1.20562
1.20544
1.20516
1.20484
1.20446
1.26123
1.26124
1.26132
1.2615
1.26182
1.2623
1.26292
1.26367
1.26452
1.26541
1.2663
1.26717
1.26797
1.26869
1.26932
1.26986
1.2703
1.27065
1.27092
1.27113
1.27126
1.27136
1.2714
1.27143
1.27143
1.27142
1.27137
1.27125
1.27107
1.27073
1.27033
1.26966
1.269
1.26819
1.26736
1.26652
1.26552
1.26455
1.26348
1.26243
1.26141
1.26042
1.25954
1.2587
1.25796
1.25724
1.25657
1.25593
1.25532
1.25473
1.25417
1.25366
1.25315
1.25276
1.25217
1.25203
1.2516
1.2523
1.25187
1.25219
1.25135
1.25114
1.25044
1.25006
1.24946
1.249
1.24865
1.24811
1.24812
1.2474
1.24753
1.24705
1.24704
1.24674
1.24649
1.24621
1.24611
1.24604
1.24614
1.24623
1.24642
1.24646
1.24656
1.24648
1.24659
1.24653
1.24679
1.2469
1.24727
1.24748
1.24789
1.24815
1.24862
1.24907
1.24966
1.2503
1.251
1.2518
1.25261
1.25354
1.25451
1.25553
1.2566
1.25774
1.25882
1.26007
1.26111
1.26243
1.2634
1.26473
1.26565
1.26689
1.26772
1.26877
1.26943
1.2702
1.27062
1.27094
1.2711
1.27114
1.27109
1.27096
1.27091
1.27093
1.27098
1.27101
1.27093
1.27081
1.27054
1.27029
1.26992
1.26959
1.26921
1.26893
1.26859
1.26837
1.26805
1.26779
1.2675
1.26725
1.26702
1.2668
1.26658
1.26638
1.26615
1.26591
1.26566
1.26535
1.26507
1.26472
1.26442
1.26405
1.26374
1.26337
1.26309
1.26275
1.26249
1.26217
1.26192
1.26163
1.26142
1.26118
1.261
1.2608
1.26066
1.26051
1.26039
1.26028
1.26019
1.26011
1.26003
1.25997
1.25992
1.25986
1.25983
1.2598
1.25979
1.25977
1.25975
1.25973
1.25972
1.25969
1.25969
1.25968
1.25969
1.25969
1.25969
1.2597
1.2597
1.2597
1.25972
1.25972
1.25973
1.25974
1.25976
1.25978
1.25981
1.25982
1.25986
1.25988
1.25992
1.25995
1.26
1.26003
1.26008
1.26012
1.26017
1.26022
1.26028
1.26032
1.26038
1.26042
1.26049
1.26053
1.2606
1.26066
1.26071
1.26078
1.26082
1.26089
1.26093
1.261
1.26105
1.2611
1.26113
1.26119
1.26122
1.26126
1.26128
1.26132
1.26134
1.26136
1.26137
1.2614
1.2614
1.26141
1.26141
1.26141
1.2614
1.2614
1.26137
1.26137
1.26132
1.2613
1.26124
1.2612
1.26113
1.26108
1.261
1.26093
1.26083
1.26074
1.26063
1.26053
1.2604
1.2603
1.26016
1.26004
1.25989
1.25975
1.25958
1.25942
1.25922
1.25903
1.25882
1.25861
1.25839
1.25816
1.25791
1.25766
1.2574
1.25713
1.25685
1.25656
1.25627
1.25596
1.25565
1.25533
1.25501
1.25467
1.25433
1.25399
1.25363
1.25326
1.25291
1.25252
1.25216
1.25176
1.25138
1.25097
1.25059
1.25016
1.24977
1.24933
1.24892
1.24847
1.24806
1.24759
1.24715
1.24666
1.24623
1.24573
1.24531
1.24481
1.24437
1.24386
1.24339
1.24284
1.24238
1.24185
1.24136
1.24082
1.24028
1.23951
1.2391
1.23855
1.2382
1.23765
1.23698
1.23645
1.23585
1.23532
1.23473
1.23422
1.23362
1.23309
1.23246
1.23193
1.23128
1.23073
1.23008
1.22953
1.22886
1.2283
1.22763
1.22708
1.2264
1.22584
1.22515
1.2246
1.22391
1.22335
1.22267
1.22211
1.22144
1.22087
1.22023
1.21966
1.21899
1.21844
1.21778
1.21725
1.21659
1.21612
1.21543
1.2151
1.21455
1.21406
1.21352
1.2129
1.21247
1.21196
1.21155
1.21104
1.21063
1.21017
1.2098
1.20938
1.20903
1.20866
1.20834
1.20799
1.20768
1.20734
1.20704
1.20671
1.20643
1.20613
1.20587
1.20562
1.20539
1.20516
1.20495
1.20475
1.20457
1.20439
1.20423
1.20407
1.20393
1.20377
1.20364
1.20349
1.20339
1.20324
1.20318
1.20308
1.20304
1.20294
1.2029
1.20282
1.20281
1.20276
1.20277
1.20275
1.2028
1.20281
1.2029
1.20291
1.20301
1.20305
1.2032
1.20325
1.20344
1.20351
1.20368
1.2038
1.20395
1.20413
1.20429
1.20454
1.20472
1.20498
1.20517
1.20544
1.20564
1.2059
1.2061
1.20639
1.20661
1.20691
1.20715
1.20746
1.2077
1.208
1.20824
1.20855
1.20878
1.20909
1.20932
1.20962
1.20985
1.21013
1.21035
1.21061
1.21081
1.21106
1.21125
1.21147
1.21164
1.21183
1.21196
1.21214
1.21224
1.21237
1.21245
1.21254
1.21259
1.21269
1.21272
1.2128
1.21281
1.21286
1.21283
1.21287
1.21284
1.21281
1.21267
1.2126
1.21249
1.21238
1.21217
1.21202
1.21179
1.21164
1.21137
1.21119
1.21089
1.21068
1.21038
1.21017
1.20985
1.20962
1.2093
1.20905
1.20872
1.20847
1.20812
1.20788
1.20755
1.20731
1.20697
1.20673
1.2064
1.20619
1.20592
1.20575
1.20553
1.20526
1.20492
1.20454
1.26113
1.26115
1.26124
1.26143
1.26176
1.26225
1.26288
1.26364
1.26447
1.26534
1.26621
1.26704
1.2678
1.26848
1.26907
1.26958
1.27001
1.27035
1.27064
1.27086
1.27103
1.27115
1.27124
1.27129
1.27131
1.27132
1.27128
1.2712
1.27101
1.27072
1.27023
1.26969
1.26893
1.26822
1.26735
1.26651
1.26554
1.26456
1.26349
1.26246
1.26143
1.26053
1.25964
1.25892
1.25817
1.25749
1.25684
1.25618
1.2556
1.25501
1.25451
1.25397
1.2535
1.25293
1.25264
1.25198
1.25218
1.25182
1.2528
1.25219
1.25179
1.25093
1.25047
1.24985
1.24917
1.24851
1.24781
1.24743
1.24646
1.24638
1.24556
1.24551
1.24503
1.24484
1.24444
1.24417
1.24384
1.24376
1.24366
1.24375
1.24377
1.24387
1.24381
1.24388
1.24381
1.24392
1.24389
1.24409
1.24424
1.24452
1.24466
1.24501
1.2453
1.24573
1.24619
1.24673
1.24734
1.24799
1.24877
1.24953
1.25045
1.25141
1.25242
1.25349
1.25464
1.25576
1.25704
1.25814
1.25956
1.26064
1.26216
1.26324
1.26473
1.26576
1.2671
1.26798
1.26902
1.26961
1.27022
1.27055
1.27079
1.27084
1.27091
1.27102
1.27124
1.27147
1.27166
1.27177
1.2718
1.27175
1.2716
1.27134
1.27111
1.27079
1.27063
1.27032
1.27011
1.26982
1.26958
1.26933
1.26911
1.2689
1.26871
1.26848
1.26828
1.26802
1.26775
1.26745
1.26707
1.26672
1.26628
1.26589
1.26542
1.26502
1.26455
1.26417
1.26373
1.26335
1.26292
1.26258
1.2622
1.26189
1.26158
1.26132
1.26107
1.26086
1.26067
1.26051
1.26037
1.26025
1.26015
1.26006
1.25999
1.25993
1.25988
1.25985
1.25981
1.2598
1.25977
1.25976
1.25974
1.25973
1.25971
1.25972
1.25971
1.25972
1.25972
1.25973
1.25973
1.25974
1.25975
1.25976
1.25977
1.25978
1.25979
1.25982
1.25982
1.25986
1.25987
1.2599
1.25992
1.25996
1.25999
1.26004
1.26008
1.26013
1.26016
1.26023
1.26027
1.26033
1.26037
1.26043
1.26048
1.26054
1.2606
1.26065
1.26072
1.26077
1.26084
1.26088
1.26094
1.26099
1.26106
1.2611
1.26115
1.26118
1.26124
1.26126
1.2613
1.26131
1.26135
1.26136
1.26139
1.26139
1.26141
1.26142
1.26142
1.26141
1.26142
1.2614
1.26139
1.26135
1.26134
1.26129
1.26126
1.2612
1.26115
1.26108
1.26102
1.26092
1.26085
1.26074
1.26066
1.26053
1.26043
1.2603
1.26019
1.26004
1.25991
1.25975
1.25961
1.25943
1.25925
1.25905
1.25885
1.25864
1.25842
1.25819
1.25795
1.2577
1.25744
1.25717
1.25689
1.25661
1.25631
1.25601
1.2557
1.25538
1.25506
1.25473
1.25439
1.25404
1.25369
1.25333
1.25295
1.25259
1.2522
1.25182
1.25142
1.25103
1.25062
1.25023
1.2498
1.24939
1.24895
1.24854
1.24808
1.24765
1.24717
1.24673
1.24625
1.24581
1.24533
1.24489
1.2444
1.24393
1.24338
1.24291
1.24239
1.24194
1.24143
1.24092
1.24023
1.23971
1.23902
1.23871
1.23819
1.23764
1.23707
1.23644
1.2359
1.23531
1.23479
1.23419
1.23368
1.23306
1.23253
1.2319
1.23136
1.2307
1.23015
1.22949
1.22893
1.22829
1.22772
1.22703
1.22647
1.2258
1.22523
1.22455
1.22399
1.22331
1.22275
1.22207
1.22152
1.22085
1.2203
1.21964
1.21908
1.21842
1.21787
1.21725
1.21675
1.21603
1.21562
1.21501
1.21464
1.21407
1.21347
1.21297
1.21243
1.21202
1.21149
1.21109
1.21062
1.21023
1.20979
1.20944
1.20904
1.20871
1.20834
1.20802
1.20766
1.20736
1.20703
1.20674
1.20643
1.20616
1.20589
1.20564
1.2054
1.20519
1.20497
1.20478
1.20458
1.20442
1.20423
1.20408
1.20392
1.2038
1.20364
1.20353
1.20338
1.2033
1.2032
1.20315
1.20304
1.20298
1.2029
1.20288
1.2028
1.20281
1.20277
1.20281
1.2028
1.20287
1.20289
1.20299
1.20302
1.20313
1.20318
1.20335
1.20341
1.2036
1.20369
1.20385
1.204
1.20416
1.20435
1.20453
1.2048
1.20498
1.20526
1.20544
1.20569
1.2059
1.20618
1.20639
1.20668
1.20692
1.20722
1.20747
1.20777
1.20802
1.20833
1.20857
1.20888
1.20912
1.20942
1.20965
1.20992
1.21015
1.2104
1.21062
1.21087
1.21106
1.2113
1.21147
1.21168
1.21183
1.21203
1.21214
1.21229
1.21238
1.21249
1.21255
1.21265
1.21269
1.21279
1.21283
1.21289
1.21288
1.21292
1.21293
1.21292
1.21281
1.21274
1.21264
1.21256
1.21238
1.21223
1.21203
1.21188
1.21163
1.21145
1.21117
1.21096
1.21068
1.21047
1.21017
1.20994
1.20963
1.20938
1.20906
1.20881
1.20848
1.20823
1.2079
1.20765
1.20732
1.20708
1.20676
1.20653
1.20623
1.20604
1.20581
1.20561
1.20531
1.20499
1.2046
1.26101
1.26102
1.26111
1.26131
1.26166
1.26215
1.26279
1.26353
1.26434
1.26517
1.26598
1.26674
1.26744
1.26805
1.26859
1.26905
1.26945
1.2698
1.27009
1.27035
1.27056
1.27075
1.2709
1.271
1.27107
1.2711
1.27109
1.27104
1.2709
1.27061
1.27024
1.26963
1.26903
1.26821
1.26747
1.26655
1.26564
1.26461
1.2636
1.26256
1.26163
1.26072
1.25997
1.25923
1.25855
1.25791
1.25726
1.25668
1.25608
1.25557
1.25503
1.25458
1.25407
1.25373
1.25317
1.2532
1.25259
1.25312
1.25256
1.25291
1.25202
1.2513
1.25049
1.24978
1.24908
1.24818
1.24744
1.24638
1.246
1.24482
1.24461
1.24382
1.24364
1.24313
1.24289
1.24244
1.24223
1.24189
1.24183
1.24175
1.24181
1.2418
1.24183
1.24177
1.24181
1.24172
1.24182
1.24182
1.24202
1.2421
1.24235
1.24253
1.24282
1.24311
1.24349
1.2439
1.24437
1.24491
1.24548
1.24618
1.24687
1.24773
1.24864
1.24961
1.25061
1.25172
1.25282
1.25407
1.25521
1.25668
1.25787
1.25952
1.26074
1.26245
1.26366
1.26527
1.26637
1.2677
1.26854
1.26946
1.26996
1.27046
1.27073
1.27103
1.27129
1.27164
1.27201
1.27242
1.27272
1.27295
1.27303
1.27304
1.27292
1.27285
1.2726
1.2725
1.27223
1.27204
1.2718
1.2716
1.2714
1.27121
1.27103
1.27086
1.27063
1.27041
1.27013
1.2698
1.26944
1.26898
1.26856
1.26803
1.26754
1.26697
1.26647
1.2659
1.26539
1.26481
1.26431
1.26377
1.2633
1.26283
1.26241
1.26201
1.26166
1.26134
1.26107
1.26083
1.26063
1.26045
1.26031
1.26019
1.26008
1.26
1.25994
1.25988
1.25985
1.25981
1.2598
1.25977
1.25976
1.25974
1.25974
1.25973
1.25973
1.25973
1.25974
1.25974
1.25975
1.25976
1.25977
1.25977
1.25979
1.25979
1.25982
1.25982
1.25984
1.25985
1.25988