/*--------------------------------*- C++ -*----------------------------------*\
| =========                 |                                                 |
| \\      /  F ield         | OpenFOAM: The Open Source CFD Toolbox           |
|  \\    /   O peration     | Version:  v1812                                 |
|   \\  /    A nd           | Web:      www.OpenFOAM.com                      |
|    \\/     M anipulation  |                                                 |
\*---------------------------------------------------------------------------*/
FoamFile
{
    version     2.0;
    format      ascii;
    class       volScalarField;
    location    "0.4";
    object      T;
}
// * * * * * * * * * * * * * * * * * * * * * * * * * * * * * * * * * * * * * //

dimensions      [0 0 0 1 0 0 0];


internalField   nonuniform List<scalar> 
20400
(
297.704
297.7
297.684
297.647
297.581
297.478
297.34
297.171
296.977
296.77
296.559
296.354
296.162
295.987
295.834
295.704
295.598
295.515
295.454
295.413
295.388
295.375
295.37
295.369
295.37
295.374
295.387
295.413
295.457
295.522
295.612
295.728
295.87
296.029
296.208
296.398
296.587
296.787
296.983
297.198
297.399
297.608
297.792
297.967
298.119
298.258
298.379
298.489
298.587
298.677
298.762
298.842
298.921
299.001
299.084
299.176
299.277
299.393
299.514
299.646
299.778
299.898
299.999
300.08
300.146
300.202
300.252
300.296
300.334
300.367
300.391
300.406
300.406
300.415
300.412
300.418
300.405
300.387
300.341
300.284
300.232
300.19
300.174
300.142
300.115
300.06
300.006
299.919
299.829
299.705
299.569
299.407
299.232
299.042
298.841
298.631
298.415
298.192
297.964
297.729
297.49
297.25
297.013
296.787
296.576
296.383
296.211
296.066
295.948
295.862
295.806
295.777
295.766
295.764
295.769
295.784
295.82
295.879
295.962
296.07
296.193
296.33
296.471
296.614
296.753
296.885
297.009
297.125
297.234
297.335
297.428
297.516
297.597
297.675
297.748
297.819
297.887
297.953
298.015
298.074
298.129
298.181
298.23
298.278
298.324
298.368
298.411
298.45
298.487
298.52
298.55
298.576
298.599
298.618
298.636
298.65
298.662
298.671
298.678
298.683
298.686
298.687
298.687
298.686
298.684
298.682
298.679
298.676
298.672
298.669
298.665
298.661
298.657
298.653
298.65
298.647
298.645
298.643
298.642
298.641
298.639
298.638
298.637
298.635
298.634
298.633
298.633
298.632
298.632
298.632
298.633
298.634
298.636
298.638
298.64
298.642
298.645
298.647
298.65
298.653
298.656
298.66
298.664
298.668
298.672
298.676
298.68
298.684
298.687
298.69
298.694
298.697
298.703
298.708
298.714
298.719
298.724
298.729
298.734
298.738
298.742
298.747
298.751
298.755
298.759
298.765
298.769
298.775
298.779
298.784
298.788
298.792
298.795
298.797
298.799
298.8
298.8
298.799
298.797
298.795
298.792
298.789
298.786
298.783
298.78
298.777
298.773
298.769
298.764
298.759
298.753
298.745
298.737
298.727
298.717
298.705
298.693
298.679
298.665
298.651
298.636
298.62
298.604
298.587
298.57
298.551
298.532
298.511
298.49
298.467
298.444
298.42
298.395
298.369
298.343
298.316
298.287
298.258
298.228
298.197
298.164
298.132
298.098
298.064
298.029
297.992
297.955
297.917
297.878
297.839
297.799
297.759
297.72
297.679
297.64
297.599
297.559
297.517
297.475
297.432
297.39
297.347
297.305
297.262
297.219
297.172
297.125
297.074
297.024
296.971
296.923
296.875
296.833
296.785
296.733
296.667
296.611
296.564
296.527
296.488
296.44
296.389
296.333
296.28
296.224
296.172
296.113
296.058
295.997
295.94
295.878
295.821
295.759
295.703
295.641
295.585
295.523
295.466
295.403
295.344
295.281
295.223
295.162
295.108
295.047
294.992
294.931
294.878
294.819
294.767
294.709
294.662
294.609
294.563
294.508
294.461
294.413
294.369
294.326
294.28
294.232
294.177
294.126
294.073
294.027
293.981
293.942
293.904
293.872
293.842
293.813
293.783
293.752
293.72
293.689
293.657
293.629
293.601
293.575
293.55
293.528
293.507
293.486
293.467
293.448
293.429
293.413
293.394
293.379
293.363
293.35
293.336
293.326
293.315
293.31
293.304
293.301
293.294
293.292
293.289
293.289
293.289
293.29
293.289
293.292
293.294
293.3
293.305
293.315
293.323
293.339
293.351
293.369
293.385
293.405
293.425
293.446
293.467
293.486
293.507
293.525
293.545
293.565
293.588
293.612
293.64
293.666
293.694
293.72
293.747
293.773
293.801
293.827
293.855
293.883
293.911
293.938
293.964
293.989
294.012
294.032
294.052
294.071
294.092
294.113
294.135
294.156
294.176
294.193
294.211
294.226
294.243
294.258
294.274
294.288
294.301
294.311
294.32
294.326
294.334
294.341
294.347
294.347
294.346
294.341
294.337
294.328
294.32
294.306
294.296
294.283
294.272
294.255
294.241
294.222
294.206
294.184
294.166
294.144
294.126
294.104
294.085
294.062
294.041
294.016
293.994
293.967
293.944
293.916
293.892
293.866
293.843
293.814
293.784
293.742
293.695
293.652
293.631
293.628
293.632
297.704
297.7
297.685
297.648
297.58
297.478
297.339
297.168
296.974
296.767
296.556
296.351
296.159
295.986
295.833
295.703
295.598
295.515
295.454
295.413
295.388
295.375
295.37
295.369
295.37
295.375
295.387
295.413
295.457
295.522
295.612
295.728
295.869
296.033
296.215
296.401
296.598
296.783
296.996
297.194
297.413
297.607
297.8
297.964
298.116
298.247
298.365
298.469
298.565
298.655
298.741
298.824
298.906
298.989
299.073
299.166
299.265
299.371
299.487
299.616
299.759
299.888
299.996
300.087
300.162
300.23
300.282
300.338
300.375
300.415
300.442
300.46
300.475
300.47
300.478
300.475
300.483
300.454
300.409
300.356
300.279
300.264
300.213
300.222
300.168
300.149
300.048
300.003
299.872
299.78
299.62
299.475
299.293
299.108
298.907
298.698
298.483
298.261
298.034
297.796
297.561
297.313
297.082
296.842
296.641
296.43
296.268
296.102
295.991
295.884
295.831
295.785
295.774
295.764
295.771
295.782
295.819
295.872
295.953
296.05
296.174
296.299
296.442
296.577
296.718
296.845
296.973
297.087
297.199
297.3
297.397
297.484
297.568
297.645
297.72
297.79
297.859
297.925
297.988
298.047
298.102
298.155
298.204
298.252
298.297
298.344
298.385
298.428
298.463
298.499
298.528
298.558
298.579
298.603
298.618
298.636
298.646
298.659
298.665
298.673
298.675
298.678
298.677
298.677
298.675
298.674
298.671
298.668
298.664
298.661
298.657
298.654
298.65
298.646
298.642
298.639
298.636
298.635
298.633
298.632
298.63
298.63
298.628
298.627
298.625
298.625
298.624
298.623
298.623
298.623
298.624
298.625
298.627
298.629
298.631
298.634
298.636
298.639
298.641
298.645
298.647
298.652
298.655
298.66
298.663
298.668
298.671
298.675
298.678
298.682
298.683
298.69
298.693
298.7
298.704
298.71
298.715
298.719
298.725
298.728
298.733
298.736
298.741
298.744
298.75
298.754
298.76
298.764
298.77
298.773
298.778
298.78
298.785
298.786
298.788
298.788
298.789
298.787
298.787
298.783
298.781
298.777
298.775
298.771
298.769
298.765
298.762
298.757
298.753
298.747
298.741
298.733
298.725
298.715
298.705
298.693
298.681
298.667
298.653
298.638
298.623
298.608
298.592
298.575
298.557
298.539
298.519
298.499
298.477
298.455
298.432
298.408
298.383
298.357
298.331
298.303
298.275
298.246
298.216
298.184
298.152
298.119
298.085
298.052
298.015
297.981
297.941
297.905
297.863
297.827
297.784
297.747
297.704
297.667
297.623
297.587
297.542
297.505
297.457
297.421
297.371
297.336
297.286
297.251
297.198
297.16
297.103
297.06
296.998
296.952
296.891
296.857
296.809
296.78
296.712
296.652
296.589
296.539
296.51
296.457
296.42
296.354
296.312
296.244
296.202
296.132
296.09
296.016
295.973
295.897
295.853
295.778
295.734
295.659
295.615
295.539
295.496
295.418
295.375
295.295
295.251
295.172
295.132
295.054
295.015
294.936
294.898
294.82
294.783
294.708
294.672
294.601
294.574
294.506
294.471
294.409
294.358
294.319
294.258
294.234
294.165
294.129
294.06
294.022
293.964
293.931
293.881
293.853
293.811
293.789
293.749
293.726
293.688
293.661
293.627
293.6
293.569
293.545
293.518
293.496
293.472
293.454
293.43
293.415
293.39
293.378
293.353
293.343
293.318
293.311
293.289
293.285
293.265
293.263
293.249
293.253
293.24
293.242
293.231
293.237
293.231
293.238
293.232
293.239
293.233
293.244
293.24
293.256
293.254
293.274
293.278
293.303
293.314
293.334
293.354
293.371
293.398
293.411
293.44
293.45
293.478
293.488
293.517
293.533
293.565
293.585
293.618
293.64
293.673
293.695
293.726
293.749
293.779
293.804
293.835
293.861
293.889
293.914
293.94
293.962
293.983
294.001
294.022
294.04
294.063
294.082
294.106
294.122
294.144
294.156
294.177
294.188
294.21
294.218
294.239
294.244
294.263
294.264
294.278
294.278
294.289
294.287
294.292
294.284
294.285
294.272
294.272
294.253
294.251
294.228
294.228
294.2
294.197
294.171
294.167
294.135
294.129
294.093
294.086
294.053
294.045
294.01
294.003
293.965
293.955
293.917
293.906
293.869
293.854
293.816
293.803
293.767
293.75
293.711
293.677
293.626
293.586
293.563
293.561
293.565
297.705
297.701
297.685
297.648
297.58
297.476
297.335
297.163
296.968
296.761
296.55
296.346
296.155
295.983
295.832
295.703
295.597
295.515
295.454
295.414
295.389
295.376
295.371
295.37
295.371
295.375
295.388
295.414
295.458
295.521
295.615
295.73
295.875
296.045
296.213
296.414
296.592
296.803
296.993
297.218
297.423
297.627
297.804
297.967
298.109
298.234
298.344
298.442
298.535
298.623
298.712
298.801
298.89
298.98
299.068
299.163
299.258
299.363
299.458
299.606
299.743
299.912
300.033
300.168
300.259
300.342
300.423
300.471
300.541
300.573
300.621
300.651
300.674
300.692
300.698
300.709
300.713
300.699
300.662
300.577
300.543
300.465
300.474
300.422
300.447
300.363
300.34
300.203
300.141
299.986
299.877
299.706
299.549
299.361
299.167
298.959
298.743
298.523
298.293
298.062
297.803
297.576
297.306
297.1
296.84
296.666
296.433
296.301
296.115
296.033
295.908
295.875
295.807
295.803
295.784
295.801
295.817
295.876
295.935
296.03
296.119
296.246
296.352
296.491
296.605
296.74
296.85
296.977
297.08
297.195
297.288
297.386
297.467
297.551
297.622
297.696
297.763
297.832
297.896
297.956
298.013
298.066
298.116
298.162
298.213
298.255
298.306
298.343
298.391
298.422
298.465
298.491
298.525
298.544
298.573
298.585
298.608
298.616
298.634
298.638
298.65
298.65
298.656
298.655
298.657
298.655
298.655
298.651
298.65
298.646
298.644
298.64
298.638
298.632
298.629
298.624
298.622
298.619
298.618
298.615
298.615
298.613
298.613
298.611
298.61
298.608
298.608
298.607
298.607
298.607
298.608
298.609
298.611
298.613
298.616
298.617
298.621
298.622
298.626
298.628
298.633
298.635
298.64
298.643
298.649
298.652
298.657
298.659
298.665
298.665
298.672
298.673
298.682
298.685
298.691
298.695
298.699
298.706
298.709
298.715
298.717
298.722
298.725
298.731
298.733
298.74
298.742
298.749
298.751
298.758
298.76
298.766
298.766
298.77
298.77
298.772
298.771
298.771
298.768
298.768
298.763
298.762
298.757
298.755
298.75
298.748
298.743
298.74
298.734
298.73
298.723
298.717
298.707
298.699
298.687
298.676
298.662
298.649
298.634
298.62
298.604
298.589
298.572
298.555
298.537
298.519
298.5
298.479
298.458
298.436
298.413
298.389
298.364
298.339
298.313
298.285
298.257
298.228
298.198
298.167
298.134
298.099
298.069
298.03
298
297.958
297.926
297.882
297.848
297.803
297.769
297.721
297.689
297.64
297.608
297.559
297.527
297.475
297.445
297.39
297.361
297.304
297.277
297.217
297.188
297.124
297.089
297.02
296.978
296.911
296.871
296.821
296.816
296.757
296.712
296.633
296.567
296.527
296.473
296.446
296.379
296.342
296.268
296.231
296.156
296.117
296.043
296.002
295.923
295.885
295.805
295.767
295.687
295.649
295.567
295.532
295.446
295.41
295.324
295.29
295.201
295.168
295.08
295.047
294.961
294.93
294.844
294.813
294.729
294.699
294.617
294.596
294.52
294.501
294.426
294.377
294.318
294.248
294.232
294.159
294.137
294.06
294.03
293.967
293.94
293.885
293.859
293.809
293.785
293.738
293.716
293.672
293.649
293.611
293.588
293.556
293.535
293.508
293.486
293.462
293.444
293.419
293.403
293.377
293.364
293.337
293.327
293.3
293.292
293.267
293.264
293.24
293.24
293.22
293.222
293.205
293.206
293.191
293.196
293.187
293.195
293.191
293.195
293.191
293.202
293.191
293.204
293.201
293.219
293.216
293.242
293.247
293.274
293.288
293.303
293.329
293.339
293.373
293.376
293.408
293.414
293.447
293.458
293.493
293.506
293.543
293.561
293.598
293.617
293.652
293.671
293.705
293.726
293.759
293.782
293.815
293.838
293.867
293.888
293.914
293.932
293.955
293.971
293.993
294.01
294.034
294.05
294.075
294.087
294.111
294.12
294.144
294.151
294.175
294.179
294.203
294.205
294.225
294.222
294.233
294.228
294.235
294.226
294.229
294.213
294.217
294.194
294.195
294.173
294.176
294.144
294.14
294.111
294.116
294.089
294.087
294.043
294.039
294.002
294.001
293.96
293.957
293.915
293.914
293.865
293.865
293.817
293.812
293.767
293.761
293.717
293.711
293.668
293.652
293.605
293.567
293.523
293.504
293.503
293.508
297.709
297.705
297.688
297.65
297.58
297.475
297.332
297.159
296.962
296.755
296.545
296.343
296.153
295.982
295.831
295.704
295.599
295.517
295.457
295.416
295.392
295.379
295.374
295.372
295.373
295.378
295.391
295.417
295.458
295.527
295.611
295.742
295.888
296.051
296.233
296.408
296.615
296.805
297.028
297.239
297.451
297.639
297.812
297.963
298.094
298.209
298.31
298.406
298.496
298.585
298.678
298.77
298.869
298.966
299.071
299.164
299.27
299.332
299.483
299.547
299.771
299.934
300.152
300.283
300.438
300.548
300.637
300.754
300.803
300.902
300.937
301.007
301.047
301.087
301.116
301.147
301.156
301.161
301.111
301.082
300.977
300.974
300.916
300.937
300.885
300.896
300.79
300.74
300.588
300.502
300.348
300.224
300.056
299.889
299.696
299.493
299.28
299.055
298.831
298.584
298.34
298.062
297.846
297.549
297.359
297.06
296.906
296.629
296.515
296.281
296.208
296.032
295.999
295.887
295.88
295.843
295.868
295.88
295.953
296.003
296.097
296.16
296.271
296.34
296.458
296.538
296.663
296.753
296.881
296.975
297.093
297.178
297.278
297.351
297.434
297.499
297.574
297.64
297.708
297.77
297.828
297.882
297.932
297.984
298.028
298.085
298.126
298.186
298.223
298.281
298.314
298.368
298.395
298.441
298.462
298.499
298.515
298.547
298.559
298.584
298.591
298.609
298.612
298.623
298.624
298.63
298.629
298.631
298.629
298.629
298.626
298.625
298.621
298.619
298.613
298.61
298.605
298.603
298.599
298.599
298.596
298.597
298.594
298.594
298.592
298.591
298.589
298.589
298.588
298.589
298.589
298.591
298.592
298.595
298.597
298.601
298.602
298.607
298.608
298.613
298.615
298.621
298.623
298.63
298.632
298.639
298.641
298.647
298.649
298.655
298.656
298.665
298.667
298.675
298.678
298.682
298.688
298.691
298.698
298.7
298.705
298.707
298.713
298.715
298.721
298.723
298.73
298.732
298.739
298.741
298.748
298.748
298.753
298.753
298.756
298.755
298.756
298.755
298.755
298.751
298.751
298.745
298.744
298.738
298.737
298.731
298.729
298.722
298.72
298.712
298.708
298.699
298.693
298.682
298.673
298.658
298.646
298.63
298.617
298.6
298.585
298.568
298.553
298.535
298.518
298.499
298.48
298.459
298.438
298.416
298.393
298.37
298.345
298.32
298.294
298.267
298.239
298.21
298.18
298.148
298.115
298.084
298.046
298.017
297.975
297.944
297.901
297.869
297.823
297.79
297.742
297.71
297.66
297.628
297.577
297.547
297.495
297.465
297.41
297.382
297.325
297.301
297.239
297.213
297.147
297.117
297.047
297.009
296.945
296.905
296.847
296.834
296.785
296.765
296.695
296.633
296.567
296.502
296.478
296.419
296.382
296.311
296.273
296.198
296.159
296.084
296.043
295.969
295.929
295.852
295.816
295.734
295.698
295.616
295.582
295.499
295.462
295.379
295.343
295.257
295.219
295.134
295.099
295.015
294.98
294.894
294.861
294.777
294.745
294.665
294.635
294.556
294.539
294.467
294.433
294.352
294.28
294.24
294.177
294.158
294.089
294.059
293.992
293.968
293.914
293.89
293.836
293.813
293.76
293.737
293.688
293.662
293.623
293.599
293.566
293.546
293.519
293.5
293.476
293.457
293.432
293.415
293.389
293.376
293.349
293.337
293.311
293.301
293.274
293.267
293.245
293.241
293.221
293.222
293.201
293.201
293.182
293.185
293.173
293.179
293.173
293.18
293.172
293.182
293.175
293.185
293.178
293.192
293.189
293.209
293.207
293.234
293.243
293.267
293.285
293.297
293.326
293.332
293.361
293.369
293.397
293.408
293.44
293.452
293.487
293.505
293.541
293.561
293.597
293.616
293.65
293.669
293.704
293.725
293.758
293.781
293.812
293.834
293.863
293.882
293.908
293.923
293.948
293.963
293.986
294.001
294.026
294.04
294.064
294.075
294.099
294.108
294.132
294.14
294.162
294.168
294.189
294.192
294.204
294.197
294.202
294.191
294.193
294.178
294.182
294.156
294.153
294.132
294.141
294.11
294.102
294.075
294.08
294.055
294.059
294.019
294.01
293.971
293.974
293.932
293.929
293.885
293.884
293.837
293.838
293.787
293.789
293.738
293.738
293.693
293.686
293.642
293.635
293.59
293.568
293.519
293.485
293.465
293.467
293.473
297.716
297.712
297.695
297.654
297.583
297.475
297.331
297.157
296.96
296.752
296.543
296.342
296.154
295.984
295.836
295.71
295.608
295.528
295.468
295.427
295.4
295.387
295.38
295.379
295.38
295.384
295.397
295.421
295.465
295.525
295.626
295.747
295.909
296.074
296.243
296.435
296.623
296.839
297.051
297.263
297.462
297.644
297.806
297.944
298.065
298.166
298.264
298.353
298.443
298.533
298.625
298.723
298.826
298.944
299.052
299.179
299.24
299.374
299.376
299.605
299.72
299.992
300.176
300.424
300.585
300.763
300.928
301.027
301.206
301.254
301.393
301.443
301.545
301.591
301.676
301.709
301.762
301.755
301.758
301.686
301.664
301.589
301.621
301.577
301.59
301.525
301.506
301.382
301.311
301.174
301.081
300.939
300.809
300.642
300.467
300.271
300.061
299.845
299.611
299.369
299.101
298.868
298.568
298.354
298.021
297.837
297.492
297.343
297.008
296.892
296.588
296.504
296.257
296.208
296.036
296.014
295.95
295.974
295.971
296.033
296.067
296.147
296.17
296.244
296.261
296.345
296.387
296.499
296.569
296.694
296.773
296.891
296.965
297.065
297.123
297.205
297.269
297.343
297.408
297.472
297.531
297.585
297.638
297.686
297.744
297.788
297.855
297.899
297.973
298.017
298.091
298.132
298.203
298.24
298.299
298.33
298.381
298.409
298.455
298.476
298.513
298.528
298.554
298.564
298.582
298.587
298.598
298.6
298.605
298.605
298.607
298.606
298.607
298.603
298.601
298.595
298.592
298.586
298.585
298.581
298.582
298.58
298.58
298.577
298.577
298.574
298.573
298.572
298.572
298.572
298.573
298.573
298.577
298.578
298.582
298.584
298.588
298.59
298.596
298.598
298.604
298.607
298.613
298.616
298.623
298.627
298.633
298.634
298.641
298.643
298.651
298.654
298.663
298.666
298.671
298.676
298.678
298.684
298.686
298.693
298.694
298.699
298.701
298.708
298.709
298.715
298.717
298.724
298.725
298.732
298.733
298.739
298.739
298.743
298.743
298.745
298.744
298.744
298.742
298.742
298.737
298.737
298.73
298.729
298.723
298.721
298.714
298.712
298.705
298.701
298.693
298.688
298.677
298.67
298.657
298.647
298.63
298.617
298.6
298.586
298.568
298.553
298.534
298.519
298.5
298.482
298.461
298.441
298.42
298.398
298.375
298.352
298.328
298.303
298.277
298.25
298.222
298.193
298.163
298.131
298.099
298.064
298.034
297.994
297.963
297.921
297.89
297.845
297.813
297.766
297.733
297.684
297.651
297.6
297.569
297.517
297.487
297.433
297.404
297.349
297.322
297.264
297.237
297.173
297.141
297.075
297.04
296.981
296.946
296.885
296.857
296.805
296.786
296.74
296.706
296.626
296.55
296.51
296.456
296.428
296.363
296.323
296.251
296.21
296.136
296.096
296.022
295.981
295.903
295.869
295.791
295.754
295.676
295.639
295.554
295.518
295.438
295.394
295.315
295.276
295.193
295.153
295.071
295.031
294.952
294.916
294.834
294.795
294.717
294.684
294.609
294.58
294.507
294.482
294.405
294.343
294.272
294.207
294.185
294.127
294.097
294.032
294.005
293.947
293.924
293.874
293.847
293.797
293.771
293.72
293.692
293.649
293.623
293.589
293.566
293.538
293.519
293.495
293.476
293.453
293.434
293.409
293.394
293.368
293.355
293.328
293.316
293.291
293.28
293.258
293.25
293.231
293.23
293.211
293.209
293.186
293.187
293.173
293.178
293.17
293.174
293.169
293.176
293.168
293.178
293.171
293.181
293.179
293.194
293.192
293.212
293.213
293.24
293.253
293.271
293.291
293.303
293.331
293.339
293.367
293.377
293.405
293.419
293.451
293.468
293.504
293.524
293.559
293.579
293.611
293.632
293.663
293.684
293.716
293.739
293.772
293.794
293.823
293.843
293.872
293.891
293.917
293.932
293.956
293.97
293.994
294.009
294.032
294.045
294.067
294.08
294.103
294.114
294.137
294.145
294.166
294.171
294.186
294.183
294.189
294.177
294.178
294.163
294.166
294.14
294.134
294.114
294.122
294.096
294.085
294.059
294.065
294.04
294.04
294.007
294.001
293.963
293.964
293.924
293.918
293.872
293.871
293.825
293.822
293.774
293.773
293.727
293.726
293.678
293.672
293.629
293.625
293.582
293.571
293.525
293.494
293.454
293.441
293.443
293.452
297.73
297.725
297.706
297.664
297.589
297.478
297.332
297.157
296.961
296.754
296.547
296.348
296.164
295.999
295.856
295.735
295.636
295.557
295.498
295.454
295.425
295.406
295.398
295.395
295.394
295.398
295.408
295.433
295.472
295.542
295.632
295.773
295.921
296.096
296.269
296.454
296.648
296.856
297.064
297.27
297.46
297.634
297.779
297.908
298.011
298.108
298.193
298.276
298.36
298.443
298.536
298.631
298.747
298.86
299.018
299.128
299.267
299.218
299.369
299.45
299.748
299.943
300.234
300.451
300.714
300.934
301.13
301.361
301.471
301.71
301.771
301.947
302.004
302.141
302.205
302.325
302.353
302.403
302.377
302.381
302.325
302.33
302.295
302.316
302.278
302.279
302.199
302.159
302.051
301.98
301.864
301.772
301.639
301.503
301.339
301.161
300.968
300.757
300.543
300.302
300.062
299.787
299.551
299.231
299.013
298.651
298.465
298.075
297.921
297.522
297.388
297.009
296.899
296.573
296.494
296.252
296.214
296.098
296.103
296.068
296.107
296.125
296.163
296.149
296.155
296.139
296.176
296.191
296.278
296.317
296.429
296.49
296.6
296.654
296.743
296.796
296.874
296.938
297.007
297.068
297.127
297.18
297.232
297.286
297.334
297.399
297.448
297.529
297.583
297.675
297.732
297.826
297.884
297.974
298.027
298.105
298.154
298.227
298.272
298.335
298.372
298.422
298.451
298.488
298.509
298.534
298.547
298.563
298.57
298.579
298.583
298.588
298.588
298.59
298.587
298.585
298.579
298.576
298.571
298.571
298.568
298.569
298.566
298.566
298.563
298.562
298.56
298.559
298.558
298.558
298.558
298.56
298.562
298.566
298.568
298.573
298.575
298.581
298.584
298.591
298.594
298.601
298.604
298.61
298.614
298.622
298.625
298.631
298.633
298.641
298.644
298.653
298.657
298.663
298.667
298.669
298.675
298.677
298.683
298.686
298.692
298.692
298.696
298.699
298.706
298.706
298.711
298.714
298.721
298.722
298.728
298.729
298.735
298.734
298.737
298.736
298.737
298.736
298.736
298.732
298.732
298.726
298.725
298.719
298.717
298.711
298.708
298.701
298.698
298.69
298.685
298.676
298.67
298.657
298.649
298.634
298.622
298.605
298.59
298.572
298.557
298.538
298.522
298.504
298.486
298.466
298.447
298.426
298.405
298.383
298.36
298.336
298.313
298.287
298.262
298.235
298.207
298.178
298.147
298.116
298.083
298.051
298.014
297.983
297.942
297.911
297.868
297.837
297.791
297.759
297.711
297.678
297.629
297.596
297.545
297.512
297.462
297.429
297.38
297.349
297.295
297.261
297.203
297.168
297.109
297.072
297.017
296.986
296.929
296.891
296.83
296.796
296.75
296.748
296.689
296.622
296.549
296.487
296.467
296.41
296.374
296.305
296.263
296.192
296.15
296.073
296.035
295.963
295.922
295.847
295.807
295.731
295.69
295.614
295.575
295.493
295.455
295.373
295.337
295.251
295.213
295.13
295.091
295.01
294.968
294.89
294.848
294.77
294.736
294.66
294.626
294.552
294.52
294.451
294.407
294.323
294.257
294.214
294.161
294.142
294.08
294.044
293.988
293.961
293.909
293.879
293.832
293.8
293.755
293.723
293.681
293.654
293.616
293.593
293.562
293.541
293.515
293.496
293.473
293.453
293.429
293.413
293.389
293.374
293.348
293.335
293.309
293.295
293.273
293.264
293.245
293.238
293.219
293.219
293.197
293.194
293.177
293.179
293.168
293.176
293.167
293.173
293.168
293.176
293.168
293.176
293.172
293.184
293.184
293.199
293.198
293.222
293.226
293.252
293.266
293.284
293.307
293.319
293.348
293.355
293.381
293.392
293.422
293.439
293.472
293.494
293.53
293.549
293.583
293.601
293.633
293.652
293.683
293.703
293.736
293.756
293.789
293.807
293.838
293.858
293.886
293.904
293.931
293.947
293.971
293.986
294.01
294.022
294.045
294.057
294.081
294.092
294.117
294.127
294.149
294.156
294.174
294.173
294.18
294.171
294.173
294.16
294.164
294.139
294.129
294.111
294.116
294.096
294.085
294.06
294.064
294.04
294.037
294.005
294.003
293.968
293.967
293.931
293.923
293.88
293.872
293.831
293.823
293.78
293.771
293.73
293.724
293.679
293.67
293.629
293.626
293.582
293.575
293.532
293.512
293.465
293.437
293.421
293.427
293.436
297.75
297.745
297.725
297.68
297.602
297.487
297.338
297.162
296.968
296.766
296.565
296.374
296.2
296.045
295.91
295.797
295.702
295.625
295.564
295.517
295.48
295.455
295.438
295.429
295.426
295.427
295.435
295.454
295.496
295.557
295.662
295.783
295.947
296.104
296.285
296.462
296.659
296.857
297.064
297.261
297.445
297.598
297.735
297.838
297.932
298.011
298.084
298.158
298.228
298.308
298.387
298.487
298.588
298.728
298.835
299.021
299.082
299.213
299.139
299.371
299.608
299.932
300.19
300.465
300.749
301.018
301.308
301.516
301.824
301.945
302.213
302.289
302.475
302.546
302.701
302.77
302.897
302.921
302.968
302.945
302.954
302.922
302.944
302.918
302.927
302.89
302.878
302.81
302.761
302.675
302.612
302.51
302.413
302.288
302.153
301.999
301.83
301.651
301.45
301.248
301.012
300.773
300.502
300.268
299.942
299.725
299.349
299.159
298.737
298.567
298.114
297.956
297.506
297.364
296.957
296.842
296.524
296.461
296.263
296.24
296.15
296.188
296.147
296.146
296.082
296.054
295.991
295.993
295.966
296.002
296.021
296.107
296.141
296.235
296.268
296.346
296.396
296.466
296.526
296.587
296.64
296.692
296.741
296.79
296.846
296.897
296.972
297.031
297.129
297.198
297.309
297.385
297.501
297.58
297.69
297.766
297.87
297.945
298.041
298.11
298.191
298.251
298.316
298.364
298.413
298.449
298.483
298.506
298.528
298.542
298.556
298.563
298.57
298.573
298.575
298.573
298.571
298.566
298.565
298.561
298.561
298.558
298.558
298.555
298.554
298.551
298.55
298.549
298.548
298.548
298.548
298.549
298.552
298.554
298.559
298.561
298.568
298.571
298.579
298.584
298.592
298.596
298.603
298.606
298.612
298.616
298.624
298.626
298.633
298.636
298.645
298.649
298.656
298.66
298.663
298.668
298.671
298.676
298.678
298.683
298.687
298.693
298.692
298.697
298.7
298.706
298.706
298.711
298.714
298.721
298.721
298.726
298.727
298.731
298.731
298.733
298.732
298.732
298.73
298.729
298.724
298.724
298.718
298.716
298.71
298.708
298.701
298.698
298.69
298.686
298.676
298.671
298.66
298.652
298.639
298.629
298.613
298.599
298.581
298.566
298.546
298.531
298.511
298.495
298.475
298.457
298.435
298.415
298.393
298.371
298.348
298.324
298.3
298.275
298.248
298.221
298.193
298.164
298.133
298.102
298.07
298.035
298.003
297.965
297.934
297.893
297.861
297.818
297.786
297.74
297.707
297.66
297.625
297.578
297.543
297.497
297.46
297.415
297.38
297.332
297.296
297.243
297.203
297.149
297.109
297.055
297.026
296.972
296.932
296.869
296.823
296.768
296.762
296.721
296.689
296.608
296.538
296.5
296.449
296.42
296.36
296.319
296.247
296.204
296.13
296.091
296.017
295.976
295.899
295.863
295.785
295.747
295.67
295.625
295.549
295.512
295.432
295.391
295.311
295.269
295.188
295.146
295.066
295.027
294.943
294.901
294.822
294.782
294.709
294.673
294.599
294.559
294.484
294.46
294.383
294.324
294.256
294.195
294.176
294.123
294.092
294.03
293.999
293.944
293.913
293.863
293.832
293.784
293.755
293.711
293.683
293.645
293.621
293.587
293.565
293.536
293.515
293.491
293.469
293.446
293.429
293.405
293.39
293.364
293.351
293.324
293.316
293.291
293.279
293.256
293.251
293.23
293.228
293.206
293.201
293.183
293.183
293.171
293.176
293.166
293.172
293.166
293.171
293.166
293.174
293.166
293.176
293.174
293.188
293.189
293.206
293.207
293.232
293.24
293.265
293.282
293.299
293.323
293.337
293.362
293.371
293.4
293.413
293.445
293.465
293.498
293.52
293.555
293.575
293.607
293.625
293.655
293.673
293.704
293.723
293.755
293.774
293.805
293.824
293.853
293.874
293.902
293.921
293.949
293.965
293.99
294.003
294.026
294.038
294.062
294.073
294.099
294.109
294.133
294.141
294.162
294.164
294.175
294.168
294.171
294.159
294.164
294.145
294.132
294.112
294.115
294.099
294.091
294.065
294.067
294.047
294.043
294.014
294.011
293.983
293.981
293.946
293.936
293.896
293.885
293.846
293.835
293.795
293.783
293.743
293.732
293.692
293.679
293.64
293.63
293.589
293.579
293.536
293.526
293.48
293.454
293.416
293.407
293.411
293.422
297.777
297.771
297.751
297.704
297.623
297.506
297.357
297.183
296.995
296.802
296.615
296.439
296.281
296.141
296.02
295.916
295.828
295.753
295.69
295.635
295.59
295.552
295.523
295.501
295.488
295.484
295.486
295.5
295.531
295.594
295.681
295.812
295.947
296.116
296.278
296.463
296.649
296.849
297.044
297.234
297.396
297.541
297.647
297.741
297.812
297.873
297.937
297.992
298.056
298.115
298.191
298.265
298.37
298.463
298.617
298.69
298.871
298.895
299.081
299.174
299.49
299.804
300.121
300.436
300.728
301.072
301.358
301.711
301.91
302.276
302.409
302.675
302.759
302.949
303.022
303.182
303.242
303.355
303.375
303.41
303.395
303.4
303.392
303.397
303.38
303.386
303.352
303.331
303.27
303.224
303.148
303.079
302.987
302.891
302.779
302.656
302.521
302.372
302.216
302.037
301.85
301.63
301.407
301.149
300.929
300.617
300.407
300.037
299.842
299.405
299.218
298.729
298.546
298.039
297.861
297.383
297.229
296.832
296.725
296.441
296.4
296.233
296.222
296.124
296.098
295.998
295.939
295.821
295.783
295.706
295.715
295.697
295.743
295.751
295.819
295.841
295.905
295.953
296.012
296.061
296.111
296.156
296.201
296.246
296.293
296.353
296.409
296.496
296.568
296.681
296.768
296.897
296.996
297.133
297.237
297.369
297.477
297.606
297.713
297.832
297.93
298.033
298.119
298.203
298.272
298.336
298.387
298.432
298.466
298.495
298.516
298.534
298.546
298.555
298.559
298.563
298.561
298.561
298.557
298.557
298.554
298.553
298.55
298.549
298.547
298.545
298.543
298.542
298.541
298.541
298.54