/*--------------------------------*- C++ -*----------------------------------*\
| =========                 |                                                 |
| \\      /  F ield         | OpenFOAM: The Open Source CFD Toolbox           |
|  \\    /   O peration     | Version:  v1812                                 |
|   \\  /    A nd           | Web:      www.OpenFOAM.com                      |
|    \\/     M anipulation  |                                                 |
\*---------------------------------------------------------------------------*/
FoamFile
{
    version     2.0;
    format      ascii;
    class       volVectorField;
    location    "0.4";
    object      U;
}
// * * * * * * * * * * * * * * * * * * * * * * * * * * * * * * * * * * * * * //

dimensions      [0 1 -1 0 0 0 0];


internalField   nonuniform List<vector> 
20400
(
(-0.00778619 0.00360046 0)
(-0.0288136 0.00142097 0)
(-0.0553878 -0.00336054 0)
(-0.0863192 -0.00453837 0)
(-0.120616 -0.00367299 0)
(-0.156507 -0.00257449 0)
(-0.192717 -0.0031853 0)
(-0.22743 -0.00452862 0)
(-0.25885 -0.00554044 0)
(-0.28534 -0.0058348 0)
(-0.305418 -0.00557039 0)
(-0.318037 -0.00520617 0)
(-0.324041 -0.00501217 0)
(-0.32381 -0.0053668 0)
(-0.317491 -0.00515641 0)
(-0.304953 -0.00407871 0)
(-0.284166 -0.00229413 0)
(-0.258419 -0.00200687 0)
(-0.22609 -0.000916085 0)
(-0.193897 0.000296119 0)
(-0.156827 0.0037065 0)
(-0.121879 0.00259968 0)
(-0.0816301 -0.00346067 0)
(-0.0412805 -0.0165988 0)
(0.00478961 -0.0313039 0)
(0.0508514 -0.0497888 0)
(0.100404 -0.0493565 0)
(0.139354 -0.0342392 0)
(0.163426 -0.0148254 0)
(0.163905 0.00926923 0)
(0.137194 0.0328208 0)
(0.0971766 0.0510499 0)
(0.028873 0.0467686 0)
(0.00145661 0.0262935 0)
(-0.138552 0.0482115 0)
(-0.192967 0.0078236 0)
(-0.453482 0.070111 0)
(-0.580764 0.00393287 0)
(-0.965155 0.0955839 0)
(-1.22822 0.0176438 0)
(-1.76423 0.124716 0)
(-2.24397 0.0498311 0)
(-2.97216 0.142735 0)
(-3.72635 0.0963412 0)
(-4.6768 0.164908 0)
(-5.6968 0.179757 0)
(-6.8508 0.252597 0)
(-8.07148 0.314581 0)
(-9.36014 0.391382 0)
(-10.6648 0.43239 0)
(-11.9242 0.463532 0)
(-13.0599 0.463636 0)
(-13.9974 0.38549 0)
(-14.6494 0.193539 0)
(-15.0031 0.0105333 0)
(-15.1113 -0.0713066 0)
(-14.9605 -0.130992 0)
(-14.6588 -0.100211 0)
(-14.2155 0.149628 0)
(-13.7552 0.416321 0)
(-13.0086 0.650552 0)
(-12.2941 0.801692 0)
(-11.3742 0.825416 0)
(-10.487 0.805792 0)
(-9.46999 0.739723 0)
(-8.45609 0.641807 0)
(-7.3758 0.507857 0)
(-6.29213 0.354868 0)
(-5.20483 0.163878 0)
(-4.14757 -0.0500838 0)
(-3.1305 -0.294567 0)
(-2.19549 -0.523548 0)
(-1.30623 -0.610443 0)
(-0.602111 -0.527023 0)
(-0.0154787 -0.308558 0)
(0.336182 -0.141857 0)
(0.784322 -0.00496486 0)
(0.928009 -0.0629437 0)
(1.48064 -0.005884 0)
(1.54085 -0.0510541 0)
(2.21546 -0.0268882 0)
(2.23326 -0.00301843 0)
(2.9144 -0.0551044 0)
(2.93696 -0.00488063 0)
(3.56203 -0.0440485 0)
(3.58697 -0.00322313 0)
(4.11417 -0.0323023 0)
(4.15223 0.012981 0)
(4.52752 -0.0232949 0)
(4.58576 0.0117703 0)
(4.80883 -0.0100276 0)
(4.86697 0.00747866 0)
(4.95548 0.0065342 0)
(4.9754 0.00943654 0)
(4.97673 0.0126724 0)
(4.95263 0.0217617 0)
(4.89089 0.0266243 0)
(4.82953 0.0353835 0)
(4.69829 0.0211815 0)
(4.62688 0.045018 0)
(4.43462 0.0119476 0)
(4.36589 0.0508154 0)
(4.13268 0.00465496 0)
(4.0729 0.0488623 0)
(3.82122 -0.00307198 0)
(3.77089 0.0453424 0)
(3.51767 -0.00677628 0)
(3.47443 0.0418213 0)
(3.23233 -0.00930223 0)
(3.19532 0.0377045 0)
(2.96907 -0.0107962 0)
(2.93836 0.0333659 0)
(2.72374 -0.00939814 0)
(2.70027 0.0277887 0)
(2.49945 -0.00779647 0)
(2.48458 0.021452 0)
(2.31039 -0.0084659 0)
(2.30038 0.0154884 0)
(2.15971 -0.00642311 0)
(2.1528 0.0118542 0)
(2.05057 -0.00856605 0)
(2.04499 0.00996081 0)
(1.97325 -0.00900138 0)
(1.96882 0.0071915 0)
(1.91615 -0.00884562 0)
(1.91399 0.00379314 0)
(1.8733 -0.00786544 0)
(1.87317 0.00272459 0)
(1.84125 -0.00618014 0)
(1.84067 0.00275541 0)
(1.8131 -0.00335652 0)
(1.81175 0.00285988 0)
(1.79025 -0.00366243 0)
(1.78985 0.00067519 0)
(1.77463 -0.000411367 0)
(1.77561 -0.00107614 0)
(1.77298 -0.000989609 0)
(1.77564 -0.00168582 0)
(1.78196 -0.00189761 0)
(1.78763 -0.00329143 0)
(1.8086 -0.00208951 0)
(1.81695 -0.00690779 0)
(1.85614 -0.000454839 0)
(1.86332 -0.00807351 0)
(1.91668 -0.000765449 0)
(1.92243 -0.00887799 0)
(1.9852 -0.00124309 0)
(1.9909 -0.00953077 0)
(2.05862 -0.00116647 0)
(2.06432 -0.00973609 0)
(2.1336 -0.00143548 0)
(2.13891 -0.00966149 0)
(2.20661 -0.000921597 0)
(2.21105 -0.00829701 0)
(2.27498 -0.000778867 0)
(2.27912 -0.00807027 0)
(2.3379 -0.00108133 0)
(2.34145 -0.0073774 0)
(2.39491 -0.000689225 0)
(2.39806 -0.00614387 0)
(2.4456 -7.23598e-05 0)
(2.44825 -0.00388122 0)
(2.48947 0.000215193 0)
(2.49139 -0.00259078 0)
(2.52513 0.00099688 0)
(2.52648 -0.000831013 0)
(2.55228 0.00231264 0)
(2.55362 0.000579521 0)
(2.57177 0.0028509 0)
(2.57283 0.00108801 0)
(2.58481 0.00295699 0)
(2.58556 0.000543523 0)
(2.59439 0.0020969 0)
(2.59483 -0.000721861 0)
(2.60423 -0.000496322 0)
(2.6048 -0.0032228 0)
(2.61685 -0.00366259 0)
(2.61764 -0.00589232 0)
(2.63219 -0.00526683 0)
(2.63267 -0.00700418 0)
(2.64807 -0.00603819 0)
(2.64821 -0.00698352 0)
(2.66086 -0.0057185 0)
(2.66097 -0.00624097 0)
(2.66853 -0.00463373 0)
(2.66841 -0.00434343 0)
(2.67092 -0.0029564 0)
(2.67009 -0.00182932 0)
(2.66966 -0.00105008 0)
(2.66772 0.000476461 0)
(2.66745 0.00160384 0)
(2.66608 0.0029091 0)
(2.66774 0.00496953 0)
(2.66741 0.00555478 0)
(2.67474 0.00798021 0)
(2.67521 0.00744463 0)
(2.68997 0.00989156 0)
(2.69118 0.00878489 0)
(2.71237 0.0110408 0)
(2.71389 0.0100587 0)
(2.73854 0.0118048 0)
(2.7395 0.0107424 0)
(2.76518 0.0116453 0)
(2.76557 0.0110365 0)
(2.79033 0.00969297 0)
(2.79101 0.00956214 0)
(2.81566 0.00583601 0)
(2.81758 0.00548854 0)
(2.84584 0.00239809 0)
(2.85083 0.0024964 0)
(2.88045 -0.00244393 0)
(2.89266 0.00192813 0)
(2.91629 -0.00432849 0)
(2.93924 0.00156838 0)
(2.95492 -0.00519163 0)
(2.98776 -0.000139871 0)
(2.99701 -0.00546297 0)
(3.03397 -0.0024931 0)
(3.04014 -0.00507913 0)
(3.0767 -0.0047944 0)
(3.0821 -0.00490793 0)
(3.11854 -0.00637572 0)
(3.12417 -0.00592471 0)
(3.16125 -0.00825573 0)
(3.16707 -0.00715124 0)
(3.206 -0.0088597 0)
(3.21201 -0.00801775 0)
(3.25157 -0.00901633 0)
(3.25803 -0.00800308 0)
(3.29793 -0.0101483 0)
(3.305 -0.00890454 0)
(3.34441 -0.0114577 0)
(3.35197 -0.00994986 0)
(3.38991 -0.0130926 0)
(3.39895 -0.0114926 0)
(3.43324 -0.0147061 0)
(3.44211 -0.0122084 0)
(3.47351 -0.0160224 0)
(3.48421 -0.0136259 0)
(3.51232 -0.0178214 0)
(3.52509 -0.0159295 0)
(3.55009 -0.0199244 0)
(3.5649 -0.0186979 0)
(3.58803 -0.0219563 0)
(3.60404 -0.0209807 0)
(3.62589 -0.0237587 0)
(3.64207 -0.0229864 0)
(3.66268 -0.0257861 0)
(3.67835 -0.0252937 0)
(3.6977 -0.0278507 0)
(3.71264 -0.0272597 0)
(3.73068 -0.0292097 0)
(3.74475 -0.0285347 0)
(3.76125 -0.0300145 0)
(3.77438 -0.029419 0)
(3.78942 -0.030481 0)
(3.80171 -0.0303296 0)
(3.81557 -0.0309006 0)
(3.82695 -0.0302491 0)
(3.83939 -0.0306826 0)
(3.84943 -0.0300936 0)
(3.85985 -0.0294643 0)
(3.86767 -0.0282332 0)
(3.8758 -0.0269228 0)
(3.88188 -0.0245741 0)
(3.88779 -0.0209521 0)
(3.89272 -0.015933 0)
(3.89818 -0.0097671 0)
(3.90447 -0.00269941 0)
(3.9124 0.00449173 0)
(3.9221 0.011189 0)
(3.93352 0.0163478 0)
(3.94637 0.0198304 0)
(3.96043 0.0214034 0)
(3.97563 0.0207392 0)
(3.99199 0.0184173 0)
(4.01008 0.0124085 0)
(4.02789 0.00342745 0)
(4.05345 -0.00339314 0)
(4.0714 -0.0146941 0)
(4.10807 -0.014454 0)
(4.1235 -0.0251286 0)
(4.17233 -0.0228959 0)
(4.18468 -0.0312975 0)
(4.23952 -0.0263909 0)
(4.25075 -0.0347323 0)
(4.30881 -0.028706 0)
(4.32039 -0.0372001 0)
(4.38216 -0.0298984 0)
(4.39438 -0.0396118 0)
(4.46237 -0.0316298 0)
(4.47527 -0.0425368 0)
(4.55163 -0.0336838 0)
(4.56737 -0.0466787 0)
(4.65298 -0.0358914 0)
(4.6714 -0.0508095 0)
(4.76849 -0.0379926 0)
(4.78915 -0.0546617 0)
(4.89906 -0.040613 0)
(4.9231 -0.0600278 0)
(5.04472 -0.044717 0)
(5.07179 -0.0666076 0)
(5.2035 -0.0476377 0)
(5.23317 -0.0719366 0)
(5.37475 -0.05067 0)
(5.40586 -0.0757516 0)
(5.55877 -0.054504 0)
(5.59197 -0.0806469 0)
(5.75816 -0.0564881 0)
(5.7963 -0.086151 0)
(5.98301 -0.08097 0)
(6.02617 -0.0635289 0)
(6.18691 -0.102954 0)
(6.26267 -0.0647519 0)
(6.38789 -0.10971 0)
(6.52916 -0.0603331 0)
(6.61054 -0.10698 0)
(6.82999 -0.0752962 0)
(6.88315 -0.109657 0)
(7.12644 -0.0811275 0)
(7.17636 -0.118027 0)
(7.42973 -0.0879934 0)
(7.47944 -0.124382 0)
(7.73799 -0.0889396 0)
(7.79191 -0.125767 0)
(8.05321 -0.084527 0)
(8.10814 -0.12083 0)
(8.37772 -0.0743658 0)
(8.43185 -0.107723 0)
(8.70996 -0.0564226 0)
(8.76676 -0.0884993 0)
(9.05838 -0.0415287 0)
(9.12046 -0.080339 0)
(9.42903 -0.0479553 0)
(9.49788 -0.0990282 0)
(9.81937 -0.0784146 0)
(9.89188 -0.136597 0)
(10.2174 -0.115625 0)
(10.2926 -0.177239 0)
(10.6147 -0.152561 0)
(10.6897 -0.211471 0)
(11.0064 -0.182567 0)
(11.0769 -0.231825 0)
(11.3865 -0.194289 0)
(11.452 -0.243681 0)
(11.7654 -0.223856 0)
(11.8258 -0.261941 0)
(12.1353 -0.262375 0)
(12.1895 -0.285996 0)
(12.4843 -0.301 0)
(12.5387 -0.290605 0)
(12.7924 -0.322336 0)
(12.8561 -0.28572 0)
(13.0395 -0.328226 0)
(13.1354 -0.279105 0)
(13.2456 -0.321957 0)
(13.3919 -0.268818 0)
(13.4507 -0.306545 0)
(13.624 -0.26681 0)
(13.6573 -0.290081 0)
(13.8046 -0.246776 0)
(13.8308 -0.262567 0)
(13.9501 -0.211283 0)
(13.9715 -0.22139 0)
(14.0802 -0.182233 0)
(14.0999 -0.200337 0)
(14.2075 -0.198451 0)
(14.2267 -0.231967 0)
(14.3205 -0.253773 0)
(14.3358 -0.287457 0)
(14.4023 -0.297269 0)
(14.409 -0.317484 0)
(14.4429 -0.320739 0)
(14.4428 -0.323282 0)
(14.4422 -0.321048 0)
(14.422 -0.316445 0)
(14.4055 -0.309113 0)
(14.3654 -0.296799 0)
(14.3311 -0.279314 0)
(14.2721 -0.266772 0)
(14.231 -0.249277 0)
(14.1565 -0.250298 0)
(14.1185 -0.236142 0)
(14.0348 -0.254013 0)
(14.0007 -0.249528 0)
(13.9047 -0.276529 0)
(13.8703 -0.268007 0)
(13.755 -0.28614 0)
(13.7171 -0.271001 0)
(13.5837 -0.285341 0)
(13.5422 -0.268863 0)
(13.3943 -0.287155 0)
(13.35 -0.265875 0)
(13.189 -0.27607 0)
(13.142 -0.257193 0)
(12.9734 -0.276714 0)
(12.9272 -0.263199 0)
(12.7465 -0.273234 0)
(12.6985 -0.257549 0)
(12.5103 -0.260731 0)
(12.462 -0.253158 0)
(12.2664 -0.245557 0)
(12.2144 -0.23548 0)
(12.0214 -0.228083 0)
(11.9653 -0.217326 0)
(11.7701 -0.201421 0)
(11.7146 -0.191471 0)
(11.5297 -0.176363 0)
(11.4732 -0.1793 0)
(11.3145 -0.157574 0)
(11.2444 -0.166142 0)
(11.1252 -0.143379 0)
(11.0279 -0.153703 0)
(10.9425 -0.128857 0)
(10.82 -0.14273 0)
(10.7599 -0.121631 0)
(10.6259 -0.138193 0)
(10.5816 -0.119174 0)
(10.4492 -0.131652 0)
(10.4132 -0.111773 0)
(10.2934 -0.112664 0)
(10.266 -0.0920407 0)
(10.1617 -0.0949029 0)
(10.1402 -0.0858975 0)
(10.0456 -0.093968 0)
(10.0268 -0.0899476 0)
(9.93961 -0.0920498 0)
(9.92209 -0.0862497 0)
(9.84628 -0.085577 0)
(9.83163 -0.0813675 0)
(9.77192 -0.0725012 0)
(9.75979 -0.0683023 0)
(9.71692 -0.0562063 0)
(9.70831 -0.0489833 0)
(9.68331 -0.0401178 0)
(9.67982 -0.0381703 0)
(9.66665 -0.037925 0)
(9.66848 -0.0375057 0)
(9.66687 -0.0365902 0)
(9.67485 -0.0330367 0)
(9.68026 -0.0295423 0)
(9.7012 -0.0183728 0)
(9.70986 -0.0109956 0)
(9.74407 0.00173697 0)
(9.75512 0.00472545 0)
(9.80331 0.0112945 0)
(9.81668 0.011682 0)
(9.87795 0.0192167 0)
(9.89378 0.0184045 0)
(9.96789 0.0253335 0)
(9.98702 0.0232889 0)
(10.0729 0.0318855 0)
(10.0952 0.0265963 0)
(10.1943 0.0365912 0)
(10.2189 0.0282179 0)
(10.3288 0.0370268 0)
(10.3554 0.0269502 0)
(10.4755 0.03563 0)
(10.5033 0.0257509 0)
(10.635 0.0349398 0)
(10.6648 0.0248541 0)
(10.8029 0.0282383 0)
(10.8341 0.0183165 0)
(10.9848 0.0256676 0)
(11.017 0.0184349 0)
(11.1782 0.024164 0)
(11.2125 0.017869 0)
(11.3825 0.0293938 0)
(11.4204 0.0215174 0)
(11.5957 0.0284193 0)
(11.6361 0.00530285 0)
(11.8143 0.00512471 0)
(11.8538 -0.018542 0)
(12.0292 -0.00390648 0)
(12.0705 -0.0141077 0)
(12.2399 0.0204 0)
(12.282 0.00278902 0)
(12.4488 0.0270829 0)
(12.4899 0.00454073 0)
(12.6532 0.0186975 0)
(12.6904 -0.00882752 0)
(12.8485 0.000790695 0)
(12.8813 -0.0172206 0)
(13.0292 -0.00285131 0)
(13.0592 -0.021898 0)
(13.1972 -0.0177904 0)
(13.2239 -0.0330491 0)
(13.35 -0.0335215 0)
(13.3754 -0.0450665 0)
(13.4842 -0.0569242 0)
(13.508 -0.0656684 0)
(13.5951 -0.0784795 0)
(13.622 -0.0789234 0)
(13.6854 -0.0893947 0)
(13.715 -0.0916985 0)
(13.7559 -0.102992 0)
(13.7824 -0.107689 0)
(13.8028 -0.122633 0)
(13.8193 -0.126061 0)
(13.8192 -0.12668 0)
(-0.0126501 0.0248762 0)
(-0.0658728 0.0451944 0)
(-0.138896 0.0534385 0)
(-0.226028 0.0595168 0)
(-0.322075 0.0599474 0)
(-0.420456 0.0596948 0)
(-0.517474 0.0584133 0)
(-0.609548 0.054603 0)
(-0.693001 0.047495 0)
(-0.764194 0.036834 0)
(-0.819936 0.0239744 0)
(-0.857386 0.00861566 0)
(-0.878606 -0.00162738 0)
(-0.880933 -0.0135465 0)
(-0.863973 -0.0228765 0)
(-0.829894 -0.0391609 0)
(-0.778544 -0.0534378 0)
(-0.708989 -0.0645517 0)
(-0.632274 -0.0724765 0)
(-0.539623 -0.0782557 0)
(-0.448342 -0.0855675 0)
(-0.342497 -0.090612 0)
(-0.245346 -0.0980483 0)
(-0.143591 -0.0993215 0)
(-0.0584295 -0.100267 0)
(0.0160407 -0.0892478 0)
(0.0711788 -0.0773027 0)
(0.11277 -0.0531586 0)
(0.134344 -0.0230748 0)
(0.126472 0.0146332 0)
(0.10969 0.0494316 0)
(0.013104 0.0979777 0)
(-0.0341134 0.0926624 0)
(-0.333504 0.203361 0)
(-0.441155 0.169995 0)
(-1.03143 0.375228 0)
(-1.26457 0.332046 0)
(-2.11873 0.560274 0)
(-2.56671 0.539021 0)
(-3.64233 0.775511 0)
(-4.42168 0.821449 0)
(-5.69787 1.05296 0)
(-6.82797 1.16074 0)
(-8.26217 1.35218 0)
(-9.63736 1.46635 0)
(-11.1305 1.56067 0)
(-12.5465 1.61824 0)
(-13.9124 1.63089 0)
(-15.1293 1.60865 0)
(-16.1787 1.53917 0)
(-17.0073 1.3773 0)
(-17.637 1.15884 0)
(-18.0485 0.838413 0)
(-18.3075 0.507055 0)
(-18.4598 0.239869 0)
(-18.4506 -0.000619725 0)
(-18.3007 -0.204925 0)
(-17.9445 -0.363531 0)
(-17.507 -0.491251 0)
(-16.7874 -0.733492 0)
(-16.085 -0.912044 0)
(-15.0097 -1.15904 0)
(-14.0386 -1.23639 0)
(-12.7639 -1.43485 0)
(-11.6184 -1.46753 0)
(-10.2319 -1.64171 0)
(-8.94992 -1.65607 0)
(-7.4948 -1.77725 0)
(-6.11956 -1.75245 0)
(-4.67589 -1.76857 0)
(-3.34589 -1.66153 0)
(-2.09008 -1.53697 0)
(-1.10181 -1.27595 0)
(-0.146318 -1.10179 0)
(0.563794 -0.874572 0)
(1.63294 -0.801843 0)
(2.16727 -0.661125 0)
(3.47319 -0.632302 0)
(3.68638 -0.624921 0)
(5.21044 -0.646409 0)
(5.251 -0.615856 0)
(6.80968 -0.623247 0)
(6.81687 -0.578414 0)
(8.26422 -0.56959 0)
(8.27525 -0.511264 0)
(9.56677 -0.479148 0)
(9.58816 -0.436127 0)
(10.6056 -0.364036 0)
(10.6866 -0.325629 0)
(11.3655 -0.252533 0)
(11.511 -0.202295 0)
(11.8797 -0.12722 0)
(12.0159 -0.0644708 0)
(12.1539 0.000929506 0)
(12.2078 0.0311389 0)
(12.2024 0.0775029 0)
(12.1519 0.115031 0)
(12.0023 0.16308 0)
(11.9054 0.196153 0)
(11.5888 0.210358 0)
(11.4937 0.265535 0)
(11.0318 0.230749 0)
(10.9502 0.305224 0)
(10.3991 0.23685 0)
(10.327 0.321471 0)
(9.73007 0.230411 0)
(9.66376 0.320614 0)
(9.05712 0.216922 0)
(8.99628 0.307347 0)
(8.4025 0.201053 0)
(8.34989 0.287282 0)
(7.7788 0.188281 0)
(7.7372 0.265143 0)
(7.19253 0.178526 0)
(7.16615 0.235348 0)
(6.66769 0.154645 0)
(6.65112 0.197929 0)
(6.22335 0.125921 0)
(6.21052 0.1553 0)
(5.86523 0.0899279 0)
(5.85322 0.118682 0)
(5.58741 0.0555394 0)
(5.57535 0.0875961 0)
(5.36666 0.0362147 0)
(5.3568 0.0636648 0)
(5.18884 0.0242614 0)
(5.1805 0.0466082 0)
(5.04896 0.0141013 0)
(5.04263 0.0334354 0)
(4.93683 0.00929159 0)
(4.93143 0.0240623 0)
(4.84727 0.00342329 0)
(4.84269 0.0147148 0)
(4.77565 -0.00142988 0)
(4.77518 -0.00131179 0)
(4.73754 -0.0115943 0)
(4.73787 -0.0147632 0)
(4.73534 -0.0223715 0)
(4.74216 -0.0275451 0)
(4.7675 -0.0373856 0)
(4.77975 -0.0470462 0)
(4.84867 -0.0533134 0)
(4.85937 -0.0655737 0)
(4.97119 -0.0647693 0)
(4.97718 -0.0783744 0)
(5.11655 -0.0723001 0)
(5.12132 -0.0872605 0)
(5.27496 -0.0769939 0)
(5.27974 -0.0921441 0)
(5.43883 -0.0786564 0)
(5.44383 -0.0934654 0)
(5.60205 -0.077807 0)
(5.60636 -0.0910566 0)
(5.7596 -0.0765112 0)
(5.7628 -0.0870935 0)
(5.90344 -0.0722741 0)
(5.9074 -0.0816226 0)
(6.03665 -0.0678448 0)
(6.03917 -0.0759333 0)
(6.15437 -0.063425 0)
(6.15776 -0.0697527 0)
(6.25653 -0.0594902 0)
(6.26114 -0.0628241 0)
(6.34223 -0.052827 0)
(6.34601 -0.054882 0)
(6.41155 -0.0465488 0)
(6.41454 -0.047396 0)
(6.46382 -0.0395409 0)
(6.46637 -0.040003 0)
(6.50285 -0.0323122 0)
(6.50455 -0.0328985 0)
(6.53244 -0.0265358 0)
(6.53384 -0.0272692 0)
(6.55961 -0.023229 0)
(6.56085 -0.0236986 0)
(6.58939 -0.0212297 0)
(6.5913 -0.0213939 0)
(6.62434 -0.0185354 0)
(6.62587 -0.0187355 0)
(6.66241 -0.0149653 0)
(6.66217 -0.0142799 0)
(6.69724 -0.0099087 0)
(6.69705 -0.00854374 0)
(6.72357 -0.0037722 0)
(6.7237 -0.00256675 0)
(6.73917 0.00179997 0)
(6.73957 0.00310149 0)
(6.74616 0.00591563 0)
(6.74547 0.00759357 0)
(6.74997 0.00837817 0)
(6.74895 0.0085714 0)
(6.75587 0.00860407 0)
(6.75549 0.00717979 0)
(6.76923 0.0052681 0)
(6.76932 0.00290338 0)
(6.79512 0.000689784 0)
(6.796 -0.00168018 0)
(6.8338 -0.00356507 0)
(6.83649 -0.0039503 0)
(6.88191 -0.00399168 0)
(6.88465 -0.00321509 0)
(6.93445 -0.000469797 0)
(6.93498 0.000666207 0)
(6.98487 0.00508276 0)
(6.98486 0.00703579 0)
(7.03204 0.0103364 0)
(7.03265 0.0123841 0)
(7.08328 0.0132588 0)
(7.08499 0.0126764 0)
(7.14398 0.0134264 0)
(7.15164 0.0137869 0)
(7.20577 0.0118726 0)
(7.23333 0.0144779 0)
(7.26474 0.0115826 0)
(7.32026 0.0156794 0)
(7.33176 0.0150261 0)
(7.40265 0.0189961 0)
(7.40563 0.0199008 0)
(7.4735 0.0231122 0)
(7.47745 0.0234025 0)
(7.54136 0.0249002 0)
(7.54585 0.0249949 0)
(7.60968 0.0257523 0)
(7.61321 0.0255579 0)
(7.68163 0.0243928 0)
(7.68237 0.02373 0)
(7.7532 0.0224595 0)
(7.75414 0.0215303 0)
(7.82677 0.0203917 0)
(7.82692 0.0203433 0)
(7.89898 0.0191665 0)
(7.89939 0.0197845 0)
(7.96967 0.0185463 0)
(7.97149 0.0191801 0)
(8.03639 0.0179515 0)
(8.0399 0.0185536 0)
(8.0973 0.0164244 0)
(8.10226 0.0176925 0)
(8.15444 0.0143451 0)
(8.16343 0.0165641 0)
(8.20725 0.0129783 0)
(8.22128 0.0150325 0)
(8.25871 0.011707 0)
(8.27671 0.0132006 0)
(8.31043 0.0101439 0)
(8.33007 0.0114912 0)
(8.36121 0.00882286 0)
(8.38066 0.0104862 0)
(8.40945 0.00815151 0)
(8.42788 0.0097547 0)
(8.4543 0.00740669 0)
(8.47155 0.00869489 0)
(8.49537 0.0063948 0)
(8.51139 0.00750376 0)
(8.53245 0.00542997 0)
(8.5472 0.00622214 0)
(8.56597 0.00480332 0)
(8.57949 0.00543105 0)
(8.59596 0.00419189 0)
(8.60785 0.0045267 0)
(8.62167 0.00404486 0)
(8.63091 0.00471357 0)
(8.64222 0.00422942 0)
(8.64886 0.00430106 0)
(8.65668 0.00352506 0)
(8.66208 0.00189534 0)
(8.66818 -0.00146029 0)
(8.67458 -0.00613629 0)
(8.68229 -0.0123923 0)
(8.69242 -0.0191907 0)
(8.70488 -0.0255769 0)
(8.72024 -0.0303588 0)
(8.73797 -0.0332651 0)
(8.75812 -0.0343682 0)
(8.78046 -0.0332776 0)
(8.80547 -0.0316841 0)
(8.83131 -0.0265569 0)
(8.86402 -0.0217983 0)
(8.89083 -0.0181663 0)
(8.94039 -0.00952932 0)
(8.95868 -0.0120447 0)
(9.03698 -0.00176095 0)
(9.04357 -0.00388802 0)
(9.1435 0.00828329 0)
(9.14568 0.00459583 0)
(9.25278 0.0189088 0)
(9.25477 0.0136812 0)
(9.36744 0.0286695 0)
(9.37055 0.0220287 0)
(9.49412 0.0372291 0)
(9.49702 0.0297877 0)
(9.63566 0.0454052 0)
(9.63924 0.0361048 0)
(9.7922 0.0538035 0)
(9.79838 0.0419236 0)
(9.97236 0.0620793 0)
(9.97933 0.0485017 0)
(10.1772 0.0698733 0)
(10.184 0.0541406 0)
(10.4034 0.0792306 0)
(10.412 0.0610993 0)
(10.6529 0.0904385 0)
(10.6627 0.0694313 0)
(10.9226 0.101464 0)
(10.9325 0.0799464 0)
(11.2118 0.111393 0)
(11.2213 0.08981 0)
(11.5206 0.119026 0)
(11.5317 0.0945908 0)
(11.855 0.120485 0)
(11.864 0.108108 0)
(12.2133 0.126649 0)
(12.2545 0.160157 0)
(12.5258 0.120889 0)
(12.6797 0.164805 0)
(12.8103 0.118844 0)
(13.1609 0.140089 0)
(13.1877 0.124761 0)
(13.6287 0.149978 0)
(13.6325 0.128901 0)
(14.0851 0.162515 0)
(14.0884 0.141971 0)
(14.5559 0.172803 0)
(14.5626 0.147527 0)
(15.032 0.17938 0)
(15.0478 0.153014 0)
(15.527 0.181786 0)
(15.5393 0.153805 0)
(16.0414 0.176858 0)
(16.0453 0.147347 0)
(16.5623 0.163336 0)
(16.5679 0.130478 0)
(17.0998 0.151506 0)
(17.1086 0.118434 0)
(17.6554 0.152017 0)
(17.6643 0.121604 0)
(18.2219 0.165204 0)
(18.2303 0.137056 0)
(18.7869 0.183172 0)
(18.7973 0.157797 0)
(19.347 0.200698 0)
(19.3571 0.178095 0)
(19.9003 0.211881 0)
(19.9031 0.18642 0)
(20.4414 0.207119 0)
(20.4442 0.195366 0)
(20.9647 0.212316 0)
(20.9651 0.205173 0)
(21.4682 0.218506 0)
(21.4725 0.224684 0)
(21.9479 0.231172 0)
(21.9601 0.258177 0)
(22.3771 0.231693 0)
(22.4448 0.277115 0)
(22.6942 0.228677 0)
(22.8948 0.258799 0)
(22.9814 0.218545 0)
(23.3119 0.238364 0)
(23.3234 0.222517 0)
(23.6481 0.236726 0)
(23.6527 0.215742 0)
(23.9298 0.227193 0)
(23.9359 0.197612 0)
(24.1793 0.196497 0)
(24.1844 0.168783 0)
(24.399 0.166639 0)
(24.4036 0.146973 0)
(24.5878 0.161778 0)
(24.5902 0.153318 0)
(24.7414 0.177731 0)
(24.743 0.172552 0)
(24.8498 0.192435 0)
(24.8523 0.186056 0)
(24.9143 0.200445 0)
(24.915 0.196057 0)
(24.933 0.196811 0)
(24.9224 0.193884 0)
(24.9142 0.192159 0)
(24.8789 0.18242 0)
(24.8628 0.177866 0)
(24.7936 0.162387 0)
(24.7786 0.157769 0)
(24.676 0.140729 0)
(24.6682 0.140571 0)
(24.5351 0.135269 0)
(24.5322 0.139682 0)
(24.3703 0.14011 0)
(24.3691 0.144619 0)
(24.1806 0.141203 0)
(24.1788 0.146209 0)
(23.9639 0.140527 0)
(23.963 0.146605 0)
(23.724 0.138249 0)
(23.7211 0.140354 0)
(23.4668 0.129557 0)
(23.4613 0.135589 0)
(23.1932 0.135022 0)
(23.1859 0.139663 0)
(22.9052 0.13424 0)
(22.898 0.135557 0)
(22.6051 0.132876 0)
(22.5987 0.13319 0)
(22.3068 0.132259 0)
(22.2893 0.134537 0)
(22.0006 0.125119 0)
(21.9868 0.125929 0)
(21.6902 0.111969 0)
(21.6791 0.107796 0)
(21.3964 0.101794 0)
(21.3681 0.0922618 0)
(21.1486 0.0906281 0)
(21.0676 0.0797941 0)
(20.9321 0.084172 0)
(20.7783 0.0737146 0)
(20.7092 0.0826544 0)
(20.5047 0.074335 0)
(20.4782 0.0849058 0)
(20.2577 0.0756761 0)
(20.2474 0.0840867 0)
(20.0443 0.0677152 0)
(20.0389 0.0718823 0)
(19.8537 0.0524243 0)
(19.8515 0.0546011 0)
(19.6852 0.0533897 0)
(19.6846 0.0562571 0)
(19.5353 0.0599679 0)
(19.5346 0.0627448 0)
(19.4024 0.0620447 0)
(19.4019 0.0629565 0)
(19.29 0.0596865 0)
(19.2894 0.0573325 0)
(19.2044 0.0535046 0)
(19.2032 0.0502769 0)
(19.1444 0.0436512 0)
(19.143 0.0398783 0)
(19.1091 0.0380693 0)
(19.1092 0.0370057 0)
(19.0945 0.0396669 0)
(19.0971 0.0398702 0)
(19.0961 0.0399069 0)
(19.1215 0.0367609 0)
(19.1229 0.0367792 0)
(19.1629 0.0287167 0)
(19.1654 0.0294208 0)
(19.2302 0.0243624 0)
(19.2316 0.0262284 0)
(19.3186 0.0223665 0)
(19.319 0.0235024 0)
(19.4274 0.0209509 0)
(19.428 0.021744 0)
(19.5542 0.0201707 0)
(19.5563 0.0199724 0)
(19.7057 0.0203229 0)
(19.7058 0.018952 0)
(19.8752 0.0240508 0)
(19.8752 0.021703 0)
(20.0619 0.0292155 0)
(20.0625 0.0271543 0)
(20.2672 0.0319322 0)
(20.2686 0.0307765 0)
(20.4851 0.0356953 0)
(20.489 0.0349592 0)
(20.7188 0.0441639 0)
(20.7221 0.036828 0)
(20.973 0.044856 0)
(20.9737 0.0355671 0)
(21.2395 0.0445097 0)
(21.2411 0.0339057 0)
(21.5171 0.0433708 0)
(21.5211 0.0328346 0)
(21.8059 0.0539383 0)
(21.8081 0.0461639 0)
(22.0968 0.0688611 0)
(22.1024 0.0592683 0)
(22.384 0.0679854 0)
(22.3953 0.0482359 0)
(22.6701 0.062418 0)
(22.6811 0.0430127 0)
(22.9481 0.061645 0)
(22.9569 0.0444149 0)
(23.2217 0.0698372 0)
(23.227 0.0561022 0)
(23.4791 0.0734891 0)
(23.4849 0.0540851 0)
(23.7163 0.0728114 0)
(23.7214 0.0580685 0)
(23.9348 0.0747364 0)
(23.9395 0.0612153 0)
(24.1321 0.0770004 0)
(24.1347 0.070881 0)
(24.3013 0.0826548 0)
(24.3094 0.0808981 0)
(24.438 0.083132 0)
(24.4589 0.0822393 0)
(24.5428 0.0837305 0)
(24.5758 0.085694 0)
(24.624 0.0861893 0)
(24.652 0.0938671 0)
(24.6814 0.0913822 0)
(24.6892 0.0858048 0)
(-0.0121742 0.0622921 0)
(-0.0968133 0.12159 0)
(-0.210723 0.15388 0)
(-0.344133 0.177442 0)
(-0.491857 0.18573 0)
(-0.644531 0.184622 0)
(-0.794982 0.175025 0)
(-0.936681 0.158769 0)
(-1.06443 0.136432 0)
(-1.17374 0.107906 0)
(-1.26088 0.0745301 0)
(-1.32287 0.0378372 0)
(-1.3609 0.00411771 0)
(-1.36955 -0.030489 0)
(-1.34359 -0.0646953 0)
(-1.29405 -0.102349 0)
(-1.21761 -0.135567 0)
(-1.1224 -0.162445 0)
(-1.00383 -0.184082 0)
(-0.87965 -0.199972 0)
(-0.734912 -0.211003 0)
(-0.598771 -0.223416 0)
(-0.448452 -0.223326 0)
(-0.322844 -0.219863 0)
(-0.198575 -0.199062 0)
(-0.107331 -0.176721 0)
(-0.0317222 -0.142025 0)
(0.0111953 -0.0955835 0)
(0.0226334 -0.0291104 0)
(0.016784 0.0329809 0)
(-0.0882564 0.137236 0)
(-0.108154 0.177388 0)
(-0.485733 0.379659 0)
(-0.577499 0.370594 0)
(-1.32976 0.77092 0)
(-1.57367 0.751709 0)
(-2.6445 1.16681 0)
(-3.12782 1.22882 0)
(-4.40918 1.61194 0)
(-5.23575 1.7854 0)
(-6.66738 2.13786 0)
(-7.84853 2.35819 0)
(-9.3457 2.63247 0)
(-10.7053 2.82239 0)
(-12.1474 2.97517 0)
(-13.4707 3.03624 0)
(-14.718 3.01853 0)
(-15.8043 2.9118 0)
(-16.7201 2.71863 0)
(-17.4439 2.44527 0)
(-17.9585 2.06226 0)
(-18.332 1.65349 0)
(-18.5237 1.18173 0)
(-18.6306 0.72089 0)
(-18.7158 0.288512 0)
(-18.6525 -0.117008 0)
(-18.5267 -0.585611 0)
(-18.283 -0.946748 0)
(-17.5608 -1.51868 0)
(-17.0024 -1.68379 0)
(-15.7027 -2.39659 0)
(-14.9625 -2.41188 0)
(-13.3783 -2.90668 0)
(-12.5151 -2.82601 0)
(-10.7996 -3.20102 0)
(-9.81293 -3.09894 0)
(-8.06083 -3.38847 0)
(-6.91953 -3.26895 0)
(-5.257 -3.37467 0)
(-4.04134 -3.19973 0)
(-2.59289 -3.05573 0)
(-1.47936 -2.73244 0)
(-0.226793 -2.39996 0)
(0.710508 -2.08805 0)
(2.08755 -1.95306 0)
(2.89755 -1.81691 0)
(4.56552 -1.84358 0)
(5.15425 -1.62737 0)
(7.0257 -1.68835 0)
(7.30046 -1.56412 0)
(9.23621 -1.59585 0)
(9.357 -1.51107 0)
(11.2005 -1.4955 0)
(11.2933 -1.3998 0)
(12.9574 -1.32596 0)
(13.0785 -1.22659 0)
(14.4566 -1.07293 0)
(14.6449 -1.00648 0)
(15.625 -0.808097 0)
(15.9006 -0.74135 0)
(16.5127 -0.551761 0)
(16.8035 -0.437118 0)
(17.1388 -0.266237 0)
(17.3404 -0.133809 0)
(17.4828 -0.0091217 0)
(17.5476 0.0977289 0)
(17.5187 0.216336 0)
(17.4564 0.310095 0)
(17.2439 0.420433 0)
(17.1413 0.484415 0)
(16.7123 0.533173 0)
(16.6159 0.619378 0)
(16.0121 0.601588 0)
(15.9289 0.699305 0)
(15.198 0.624526 0)
(15.1164 0.739926 0)
(14.3196 0.619142 0)
(14.2351 0.743381 0)
(13.4141 0.595263 0)
(13.3299 0.719617 0)
(12.5152 0.562546 0)
(12.4365 0.681512 0)
(11.6519 0.524376 0)
(11.587 0.629564 0)
(10.8417 0.478239 0)
(10.8028 0.551476 0)
(10.1166 0.409347 0)
(10.0956 0.460296 0)
(9.49973 0.332844 0)
(9.48901 0.369034 0)
(8.98321 0.257296 0)
(8.9763 0.288586 0)
(8.56155 0.19213 0)
(8.55064 0.22759 0)
(8.20749 0.146233 0)
(8.19109 0.178478 0)
(7.91514 0.107147 0)
(7.89975 0.136718 0)
(7.6799 0.0808881 0)
(7.66778 0.106403 0)
(7.49551 0.0625171 0)
(7.48628 0.0811853 0)
(7.35013 0.0416953 0)
(7.34578 0.0508078 0)
(7.24176 0.0176733 0)
(7.24093 0.0105082 0)
(7.20055 -0.0154091 0)
(7.1979 -0.0288212 0)
(7.20541 -0.0512151 0)
(7.21877 -0.0693168 0)
(7.27076 -0.097412 0)
(7.28862 -0.116771 0)
(7.40158 -0.136292 0)
(7.41342 -0.155275 0)
(7.57992 -0.160727 0)
(7.58679 -0.181244 0)
(7.7809 -0.176776 0)
(7.78723 -0.196923 0)
(7.99276 -0.183603 0)
(7.99924 -0.203022 0)
(8.20715 -0.184056 0)
(8.21304 -0.201886 0)
(8.41831 -0.179445 0)
(8.42288 -0.19283 0)
(8.61653 -0.17 0)
(8.6218 -0.181561 0)
(8.79845 -0.16053 0)
(8.80125 -0.168074 0)
(8.96494 -0.147214 0)
(8.96535 -0.15215 0)
(9.10865 -0.131794 0)
(9.10889 -0.135636 0)
(9.22904 -0.1156 0)
(9.23017 -0.117072 0)
(9.32858 -0.0990463 0)
(9.32992 -0.0976983 0)
(9.40581 -0.0821819 0)
(9.409 -0.0794236 0)
(9.46549 -0.066789 0)
(9.46855 -0.0642161 0)
(9.5131 -0.0544125 0)
(9.51562 -0.0536308 0)
(9.5543 -0.0497323 0)
(9.55631 -0.0495624 0)
(9.59465 -0.0514295 0)
(9.59701 -0.0521328 0)
(9.63828 -0.0545194 0)
(9.64071 -0.0551056 0)
(9.68638 -0.0546325 0)
(9.68732 -0.0532256 0)
(9.73376 -0.0485936 0)
(9.7345 -0.0456762 0)
(9.77394 -0.0374509 0)
(9.77595 -0.0331425 0)
(9.80298 -0.0243293 0)
(9.80599 -0.0195911 0)
(9.82144 -0.0119183 0)
(9.8238 -0.00708953 0)
(9.8337 -0.00284972 0)
(9.83417 0.000475501 0)
(9.84584 0.0015442 0)
(9.84596 0.00338097 0)
(9.86231 0.00208133 0)
(9.86246 0.00164267 0)
(9.88749 -0.00312336 0)
(9.8879 -0.00506409 0)
(9.92522 -0.010104 0)
(9.92685 -0.0117116 0)
(9.97465 -0.0141786 0)
(9.97742 -0.0139686 0)
(10.0307 -0.0132071 0)
(10.0327 -0.0109821 0)
(10.0884 -0.0068955 0)
(10.0889 -0.00390997 0)
(10.1425 -0.000976843 0)
(10.1428 0.00199962 0)
(10.1963 -0.00148115 0)
(10.1957 -0.000494575 0)
(10.2551 -0.00694418 0)
(10.2561 -0.00909768 0)
(10.3197 -0.01344 0)
(10.3347 -0.0177804 0)
(10.3792 -0.0168125 0)
(10.4233 -0.0200545 0)
(10.4417 -0.0160534 0)
(10.5107 -0.0159874 0)
(10.5145 -0.0109832 0)
(10.5872 -0.00861438 0)
(10.5881 -0.00673725 0)
(10.656 -0.00405658 0)
(10.6565 -0.00305385 0)
(10.7228 -0.00409666 0)
(10.7231 -0.00293325 0)
(10.7898 -0.00526398 0)
(10.7891 -0.00562653 0)
(10.8591 -0.00880627 0)
(10.8577 -0.00899008 0)
(10.9278 -0.0118081 0)
(10.928 -0.0114054 0)
(10.9959 -0.0129235 0)
(10.9976 -0.0133802 0)
(11.065 -0.0141551 0)
(11.0651 -0.014557 0)
(11.1302 -0.0148105 0)
(11.1322 -0.015202 0)
(11.1896 -0.0153549 0)
(11.1915 -0.0162821 0)
(11.2443 -0.0175601 0)
(11.2468 -0.0179048 0)
(11.2946 -0.0211913 0)
(11.3006 -0.0208546 0)
(11.3389 -0.0251403 0)
(11.3504 -0.0252476 0)
(11.3825 -0.0293179 0)
(11.3974 -0.0295225 0)
(11.4263 -0.0330666 0)
(11.4421 -0.032866 0)
(11.4686 -0.035965 0)
(11.4838 -0.0355076 0)
(11.508 -0.0383387 0)
(11.522 -0.0376507 0)
(11.5439 -0.040201 0)
(11.5566 -0.039384 0)
(11.5758 -0.0414797 0)
(11.5874 -0.0405533 0)
(11.6042 -0.0418037 0)
(11.615 -0.0414408 0)
(11.6295 -0.0424935 0)
(11.6389 -0.0420174 0)
(11.6505 -0.0422037 0)
(11.6579 -0.0406004 0)
(11.6683 -0.0395262 0)
(11.6734 -0.0373612 0)
(11.681 -0.034553 0)
(11.6853 -0.0327911 0)
(11.6912 -0.0305893 0)
(11.6962 -0.0287998 0)
(11.7024 -0.0280176 0)
(11.7101 -0.0281712 0)
(11.7193 -0.0292147 0)
(11.7313 -0.0303328 0)
(11.7455 -0.0316171 0)
(11.7626 -0.0327098 0)
(11.7822 -0.0338029 0)
(11.8045 -0.0355369 0)
(11.8292 -0.036612 0)
(11.8575 -0.0412972 0)
(11.8853 -0.0456898 0)
(11.9255 -0.0540091 0)
(11.9471 -0.0584454 0)
(12.0131 -0.0646393 0)
(12.0199 -0.0669634 0)
(12.1177 -0.0683802 0)
(12.1167 -0.0691021 0)
(12.2268 -0.062395 0)
(12.2251 -0.0639993 0)
(12.3438 -0.0545662 0)
(12.3449 -0.0556094 0)
(12.4706 -0.0491247 0)
(12.471 -0.0503906 0)
(12.6138 -0.0440561 0)
(12.612 -0.0473288 0)
(12.7722 -0.0424175 0)
(12.7756 -0.0489472 0)
(12.9503 -0.0418523 0)
(12.956 -0.0498985 0)
(13.1558 -0.04099 0)
(13.1583 -0.0513425 0)
(13.3882 -0.040872 0)
(13.3897 -0.0537517 0)
(13.6423 -0.0396215 0)
(13.6426 -0.0529151 0)
(13.9183 -0.0342253 0)
(13.9193 -0.0479945 0)