/*--------------------------------*- C++ -*----------------------------------*\
| =========                 |                                                 |
| \\      /  F ield         | OpenFOAM: The Open Source CFD Toolbox           |
|  \\    /   O peration     | Version:  v1812                                 |
|   \\  /    A nd           | Web:      www.OpenFOAM.com                      |
|    \\/     M anipulation  |                                                 |
\*---------------------------------------------------------------------------*/
FoamFile
{
    version     2.0;
    format      ascii;
    class       volScalarField;
    location    "0.8";
    object      p;
}
// * * * * * * * * * * * * * * * * * * * * * * * * * * * * * * * * * * * * * //

dimensions      [1 -1 -2 0 0 0 0];


internalField   nonuniform List<scalar> 
20400
(
96825.6
96828.3
96826.3
96825.3
96823.7
96821.1
96817.4
96812.9
96809.4
96803.8
96796.6
96790.6
96784.4
96778.7
96774.2
96768.9
96762.8
96758
96753.6
96749.7
96746
96742.5
96738.7
96734.9
96731.6
96728.2
96723.8
96718.9
96714.8
96711.4
96708
96703
96698.1
96693.5
96690
96683.8
96680.9
96676.3
96672.2
96669.6
96666.8
96664.2
96663
96662.6
96663
96665.1
96667.2
96669.4
96672.1
96676.7
96681.7
96688.1
96694.9
96701.9
96709
96716.6
96726.6
96734
96743.2
96749.4
96757.2
96762.4
96766
96767.4
96765.8
96765.2
96764.3
96765.3
96765.3
96764.4
96761.3
96759.2
96760.1
96758.7
96759.4
96761.9
96762.3
96766.2
96767.2
96770.3
96779.8
96786.1
96792.5
96802.1
96819.1
96831.1
96852.3
96873.3
96886.5
96903.3
96925.7
96945.5
96962.5
96980.4
96998.8
97015.5
97031.2
97047.5
97061
97091
97090.1
97092.6
97103.6
97113
97122.6
97131
97130.7
97135.9
97139.7
97141.3
97140.5
97137.5
97134.3
97130.7
97126.1
97123.1
97120.1
97115.7
97106.8
97100.5
97101.4
97100.4
97101.7
97093.5
97093.4
97093.8
97095.8
97098.5
97102.4
97107
97113.7
97121.6
97130.8
97140.7
97151.2
97163.6
97178.9
97196.1
97214.3
97233.8
97255.4
97277.6
97300.4
97323.9
97348.8
97375.7
97403.1
97431.3
97460.6
97490.2
97520.4
97551.9
97582.3
97613.4
97644.7
97675.8
97706.7
97736.9
97766.1
97794.4
97822
97847.3
97871.9
97895.1
97917.2
97934.5
97952.7
97968.5
97983.2
97995.2
98005.2
98013.4
98020.5
98026.9
98032.7
98037.9
98040.4
98039.8
98036.8
98032.3
98026.1
98018.1
98010.2
98001.7
97992.4
97981.8
97969.5
97954.7
97938.5
97915.8
97902.1
97885.3
97867.3
97847.7
97824.7
97801.1
97777.1
97751.9
97725.2
97698.8
97672.4
97645.4
97617.7
97590.1
97560.7
97532.1
97502.6
97473
97443.6
97413.3
97384.1
97355.8
97324.5
97297.3
97267
97234.4
97205.9
97174.1
97146.8
97120.4
97093.3
97066.7
97043.2
97018.8
96993.5
96970.4
96949
96926.1
96905.6
96887.5
96868.5
96845.3
96828.7
96825.3
96818.8
96811.3
96805.9
96805.2
96804.1
96806.2
96811.5
96817.8
96827.3
96837.4
96852.3
96871.5
96891.6
96912.8
96939.3
96967.9
96996.9
97026
97055.4
97088.1
97123.4
97157.9
97191.4
97224.7
97257.9
97291.4
97324.4
97356
97387.4
97420.3
97453.6
97486.3
97517.6
97548.6
97580.2
97612
97642.2
97671.4
97700.5
97729.4
97758.9
97788.7
97817.9
97846.8
97875.6
97904
97932.2
97959.6
97986.9
98015.3
98042.7
98070
98096.9
98124
98150.5
98176.9
98202.9
98228.5
98254
98279.4
98304.4
98329.1
98353.5
98377.6
98401.4
98424.9
98448.3
98471.4
98494.3
98517
98539.6
98562
98584.4
98606.8
98629.2
98651.5
98673.7
98696.1
98718.4
98740.8
98763.4
98786.1
98809
98832.1
98855.4
98878.9
98902.7
98926.8
98951.2
98975.9
99001
99026.4
99052
99078.1
99104.4
99131.1
99158.2
99185.6
99213.3
99241.4
99269.9
99298.7
99327.9
99357.4
99387.3
99417.4
99447.7
99478.3
99509.1
99540
99571.1
99602.3
99633.7
99665.2
99696.8
99728.6
99760.4
99792.1
99823.8
99855.5
99887.1
99918.7
99950.1
99981.4
100013
100043
100074
100105
100135
100165
100195
100224
100253
100282
100310
100338
100365
100392
100419
100445
100470
100495
100519
100543
100567
100590
100612
100633
100654
100675
100695
100714
100732
100750
100768
100784
100801
100816
100831
100846
100860
100874
100887
100899
100911
100923
100934
100945
100955
100965
100974
100983
100992
101001
101009
101017
101024
101032
101039
101046
101053
101060
101066
101072
101079
101085
101091
101097
101103
101109
101114
101120
101126
101132
101138
101144
101150
101156
101162
101168
101174
101180
101187
101193
101199
101205
101211
101217
101224
101230
101236
101242
101248
101254
101260
101266
101272
101278
101284
101289
101294
101300
101305
101310
101315
101320
101324
101329
101333
101337
101341
101344
101348
101351
101354
101356
101359
101361
101363
101364
101366
101367
101368
101368
101369
101369
101369
101368
101368
101367
101366
101364
101363
101361
101359
101357
101355
101352
101349
101346
101343
101340
101337
101334
101330
101327
96824.9
96828.7
96825.8
96824.1
96821.2
96817.6
96812.6
96807.9
96802.4
96799.8
96792.6
96786.3
96780.1
96774.8
96769.5
96771.1
96765.8
96762.4
96758.8
96754.9
96751
96747.1
96743.1
96739.3
96735.9
96732.2
96727.8
96723.2
96719.4
96715.7
96711.1
96705.5
96701.1
96697
96691.7
96685.7
96681.4
96677.8
96673.5
96670.4
96668.6
96667
96666
96665.4
96665.8
96668
96670.9
96674.6
96677.4
96681.8
96686.4
96691.9
96697.5
96703.2
96708.8
96716.2
96717.4
96721.1
96729.2
96737.9
96748.7
96758.5
96768.1
96773.5
96776.7
96779.7
96780
96781
96780.2
96779.3
96778.3
96779.7
96782.5
96778.8
96772.7
96768.3
96764.3
96763.4
96762.4
96767.6
96773.4
96784.4
96785.8
96806.1
96811.7
96791.8
96808.5
96855.5
96856.2
96847.4
96866.5
96897.5
96911.6
96922
96930.9
96938.7
96945.7
96949.2
96954.3
96963
96997.5
97011.7
97024.9
97038
97050.2
97077.3
97095.4
97110.9
97123
97129.7
97134
97136.7
97138.4
97141.2
97145
97147.7
97135.3
97119.6
97103.6
97098.1
97094.7
97091.3
97089.6
97091.2
97087.2
97085.2
97081.7
97077.6
97075.1
97078.3
97083.5
97091.3
97102.2
97115.4
97130.2
97146.8
97166.1
97186.8
97206.3
97227.1
97249.8
97272.2
97296.5
97322
97347.7
97375.1
97402.3
97430.2
97459.5
97488.7
97518.2
97548.9
97579
97610
97641.5
97673.1
97703.7
97734.2
97763.2
97791.9
97819.6
97845.4
97870.3
97894
97916.3
97936.1
97954.5
97971
97986.2
97998.8
98009.4
98017.9
98025.3
98031.4
98036.9
98041.7
98044.9
98045.7
98044.3
98041.2
98035.2
98026.1
98016.3
98005.8
97996.5
97986
97973.7
97958.2
97940.9
97919.3
97905.2
97887
97866.9
97846.8
97824
97801.2
97777.8
97752.1
97726.4
97699.4
97672.3
97644.6
97616.8
97589.2
97559.5
97531.9
97503
97473.9
97445.4
97415.4
97388.2
97360.9
97330.9
97306.8
97280.3
97250.9
97224.4
97193.6
97165
97137.6
97109.8
97081.9
97056.4
97032.1
97007.2
96984.4
96963.3
96942
96922.6
96906.4
96892.8
96884.4
96870.8
96850.9
96838.1
96826.1
96813.6
96807.6
96803.7
96803.1
96807.7
96810.8
96819.8
96829.1
96841.2
96855.5
96872.2
96890
96911.7
96936.5
96963.2
96991.6
97021
97052.5
97088.3
97125.3
97162.1
97199.1
97236.1
97273.5
97311.2
97348.4
97383.9
97419.1
97453.4
97485.6
97515.6
97544.1
97574.2
97607.6
97639.9
97671.3
97701.8
97731.5
97760.5
97790.4
97820.2
97849.9
97879.2
97907.8
97936
97963.2
97989.7
98017.6
98044.6
98071.5
98098.6
98125.9
98152.5
98179.5
98205.7
98231.3
98256.7
98281.7
98306.4
98330.8
98354.9
98378.7
98402.4
98425.9
98449.2
98472.3
98495.1
98517.7
98540
98562.3
98584.6
98606.9
98629.4
98651.8
98674
98696.2
98718.5
98740.8
98763.3
98785.9
98808.9
98832.2
98855.6
98879.1
98902.7
98926.6
98950.8
98975.5
99000.6
99026.1
99051.9
99078
99104.3
99131
99158
99185.3
99213.1
99241.3
99269.9
99298.8
99328
99357.4
99387
99417
99447.3
99477.9
99508.8
99539.7
99570.9
99602.2
99633.7
99665.4
99697
99728.7
99760.2
99791.8
99823.5
99855.2
99886.9
99918.5
99950
99981.4
100013
100044
100075
100105
100135
100165
100195
100224
100253
100282
100310
100338
100365
100392
100419
100445
100470
100495
100520
100544
100567
100590
100612
100633
100654
100675
100694
100714
100732
100750
100768
100785
100801
100816
100831
100846
100860
100874
100887
100899
100911
100923
100934
100944
100955
100964
100974
100983
100992
101001
101009
101017
101025
101032
101039
101046
101053
101059
101066
101072
101079
101085
101091
101097
101103
101109
101114
101120
101126
101132
101138
101144
101150
101156
101162
101168
101174
101180
101186
101193
101199
101205
101211
101217
101223
101230
101236
101242
101248
101254
101260
101266
101272
101278
101284
101289
101295
101300
101305
101310
101315
101320
101324
101329
101333
101337
101341
101344
101347
101351
101354
101357
101359
101361
101363
101364
101366
101367
101368
101368
101369
101369
101369
101368
101368
101367
101366
101364
101363
101361
101359
101357
101355
101352
101349
101346
101343
101340
101337
101334
101330
101327
96826
96830.3
96826.5
96823.5
96820.6
96817.7
96814.1
96810.6
96807.1
96802.6
96797.7
96793
96786.5
96780
96774.3
96764.8
96754
96747.5
96744.4
96740.4
96735.7
96730.4
96725.6
96722.2
96719.6
96716.1
96711.1
96707.2
96705.7
96704.9
96700.7
96693.5
96689.2
96692.4
96688.9
96681.6
96680.6
96679.1
96676.3
96673.2
96673.8
96673.5
96672.3
96670.7
96670
96671.1
96672.7
96677.3
96685.5
96690.8
96697.1
96703.5
96709.9
96716.3
96724.5
96726.7
96735.4
96742.4
96752.9
96754.4
96764.9
96776.5
96789
96794
96796.6
96799.3
96801.6
96805.2
96806.3
96804
96797.6
96794.6
96799.1
96802.9
96804.7
96799.3
96795.6
96792.4
96787.6
96782.4
96779.1
96775.8
96783
96775.2
96773.9
96812.1
96817.9
96789.4
96823.2
96872.3
96893.3
96909.7
96933.5
96959.5
96980.6
96997.8
97014.8
97031.9
97048.1
97066.3
97079.6
97091
97101.9
97107.8
97111.1
97109.4
97105
97106.5
97111.4
97117.5
97122.3
97123.7
97124.5
97124.1
97126.4
97133.2
97123.9
97112.6
97103.9
97105.8
97110.3
97108.4
97093.4
97096.1
97100.2
97103.8
97106.4
97111
97121.9
97134.6
97141.6
97143.5
97145.6
97152.1
97160.8
97171.2
97185.4
97201.7
97219.9
97238.3
97259.5
97284.2
97306.2
97328
97350
97376.3
97402.9
97431
97459.4
97490
97520.1
97551.1
97581.4
97612
97641.8
97672.2
97703.8
97735.7
97766.6
97797
97825.9
97852.6
97877.1
97901.6
97918.2
97937.5
97954.8
97970.9
97986.4
97999
98009.5
98017.1
98023.4
98029.4
98035.4
98040.8
98044.5
98045.1
98041.4
98035.6
98027.1
98017.7
98010.1
98000.9
97991.6
97980.8
97968.9
97955.3
97939
97916.5
97904.4
97885.8
97869.7
97851.7
97829.6
97804.1
97778.2
97752.1
97723
97697.4
97672.7
97647.5
97618.3
97591.2
97563.2
97532.7
97502.5
97473
97444.1
97416
97388.5
97360.6
97327.3
97291.9
97262.9
97235.3
97206.7
97174.8
97147.8
97122.6
97095.5
97069.6
97047.9
97027.4
97005.8
96983.2
96960.7
96937.1
96916.1
96898.1
96881.2
96865.4
96853.3
96839.8
96828.6
96817.2
96808.6
96808.3
96805.7
96803
96810.6
96816.4
96828.5
96841.1
96858.9
96878.5
96900.4
96922.3
96948.6
96977.5
97007.3
97037.9
97068.3
97098.5
97124.5
97150.9
97180.9
97212.2
97244
97277.3
97311.4
97344.8
97377.7
97412.5
97449.2
97484.6
97519.9
97555
97589.4
97618.3
97646.5
97671.9
97701.3
97730
97759.7
97789.9
97818.7
97846.9
97875.9
97904.2
97932.4
97960.4
97986.9
98017
98044.8
98072.5
98099.7
98125.2
98151
98176.5
98202.1
98227.4
98253.2
98278.4
98303.7
98328.7
98353.5
98377.8
98401.5
98424.9
98448.1
98471
98493.8
98516.6
98539.6
98562
98584.4
98606.7
98628.6
98650.7
98673.1
98695.7
98718.3
98740.8
98763.3
98785.9
98808.5
98831.1
98854.2
98877.8
98901.9
98926.4
98951
98975.6
99000.5
99025.5
99051
99077.1
99103.7
99130.6
99157.8
99185.1
99212.8
99240.7
99268.9
99297.5
99326.7
99356.4
99386.5
99416.9
99447.3
99478
99508.7
99539.5
99570.4
99601.5
99632.7
99664
99695.6
99727.5
99759.8
99791.8
99823.6
99855.3
99886.9
99918.3
99949.6
99980.8
100012
100043
100073
100104
100135
100165
100195
100224
100253
100281
100310
100337
100365
100392
100419
100445
100470
100495
100519
100543
100566
100589
100612
100634
100655
100675
100695
100714
100732
100750
100767
100784
100801
100816
100832
100846
100860
100873
100886
100899
100911
100922
100934
100945
100955
100965
100974
100983
100992
101000
101008
101016
101024
101031
101039
101046
101053
101060
101066
101072
101078
101084
101090
101096
101102
101108
101114
101120
101126
101132
101137
101143
101149
101155
101162
101168
101174
101180
101186
101192
101198
101204
101211
101217
101223
101230
101236
101242
101248
101254
101260
101266
101272
101278
101283
101289
101294
101300
101305
101310
101315
101319
101324
101328
101333
101337
101341
101344
101348
101351
101353
101356
101358
101361
101363
101365
101366
101367
101368
101369
101369
101369
101368
101368
101367
101367
101366
101365
101363
101362
101359
101357
101355
101352
101349
101346
101344
101341
101337
101334
101330
101327
96827.4
96834.2
96827.2
96823.6
96820
96816.5
96812.1
96807.5
96802.3
96796.9
96791.3
96785.7
96779.8
96773.9
96769.7
96763.6
96761.3
96756.4
96749.3
96743
96738
96734.5
96731
96726.3
96721.6
96718.3
96716.3
96714.1
96709.6
96702.9
96699.6
96700.8
96699.6
96690.1
96686.1
96688.2
96686.2
96682.6
96682.2
96679.8
96673.7
96670
96669.2
96668.2
96667
96667.3
96668.1
96670.9
96673.9
96678.3
96683.1
96689.6
96697
96704.9
96713.1
96721.4
96732.1
96744.7
96752.5
96756.3
96769.1
96775.7
96783.7
96787.7
96789.5
96789.9
96785.6
96782.4
96778.9
96777.7
96776.8
96772
96763.3
96754.3
96751.8
96745.2
96743.7
96744.5
96744
96747.7
96755.8
96760.1
96767.8
96781.2
96795.1
96816.3
96829.5
96837
96852
96868.5
96879.8
96892.8
96907.2
96927.5
96952
96977.3
97001.4
97023.3
97045.2
97066.1
97086.5
97103.8
97123.3
97139.8
97148.7
97151.6
97150
97147.5
97142.7
97140.3
97137.7
97133.3
97128.8
97123.6
97121.2
97120.9
97117.9
97111.4
97097.4
97091.6
97092.1
97089.2
97087
97088.8
97089
97090.3
97094.2
97095.6
97085.4
97085.3
97090
97097
97108.8
97122
97136.2
97151
97171.4
97195
97217.9
97237.3
97253.2
97268.4
97289.9
97317
97341.7
97370.2
97399.3
97427.8
97458.4
97488.7
97518.7
97550.6
97581.4
97612.5
97645.2
97678.2
97708.5
97738.4
97767
97794.9
97820.9
97845.1
97867.7
97891.3
97914.7
97936.7
97956.3
97972.9
97985.6
97996.4
98006.5
98015.1
98022.8
98029.3
98034.4
98039
98042.3
98043.1
98040.8
98037
98030
98021.9
98011.1
97999.1
97992.4
97984.8
97976.4
97958.2
97931.2
97911
97902.3
97885.5
97864.2
97843.2
97820.9
97798
97775.5
97751.6
97731.1
97700.9
97669
97640.7
97614.1
97588.8
97558.1
97531.9
97503.3
97475.6
97449.3
97405.5
97375.3
97351.6
97321.1
97287.1
97263.2
97234.1
97204.3
97171
97145.4
97125.4
97100.8
97072.4
97042.1
97016.3
96992
96967.7
96942.1
96922.2
96902.4
96884.9
96871.5
96859.6
96847.2
96832.8
96815.9
96805.7
96801.1
96792.1
96790
96800.4
96802.3
96806.1
96815
96827.2
96844.7
96863.7
96887.4
96911.5
96939.5
96970.9
97003.3
97039.6
97078.4
97113.2
97142.2
97171.7
97204.3
97237.2
97269.5
97302.4
97335.8
97368.1
97399.7
97428.3
97454.6
97482.5
97512.6
97542.4
97573.9
97609.1
97642.2
97675.2
97703.6
97731.2
97759.7
97789
97818.8
97847.9
97877.3
97906.4
97935.3
97961.9
97986.3
98013.2
98039.5
98066.9
98094.9
98121.9
98149
98176.4
98203.6
98229.9
98255.9
98281.5
98306
98329.9
98353.5
98377.4
98401.1
98424.7
98448.1
98471.5
98494.6
98517
98539.2
98561.5
98583.7
98606.1
98628.8
98651.5
98673.7
98695.7
98717.7
98739.8
98762.3
98785.1
98808.2
98831.8
98855.5
98879
98902.2
98925.5
98949.5
98974.2
98999.6
99025.3
99051.3
99077.3
99103.5
99129.9
99156.8
99184.2
99212
99240.2
99269
99298.3
99327.5
99356.6
99385.9
99415.6
99445.9
99476.6
99507.6
99538.7
99569.8
99601.2
99632.8
99665
99696.7
99728.2
99759.3
99790.6
99822.3
99854.2
99886.1
99917.8
99949.3
99980.7
100012
100043
100074
100105
100135
100164
100194
100224
100253
100282
100310
100338
100365
100392
100418
100444
100470
100495
100520
100544
100567
100590
100612
100633
100654
100674
100694
100714
100732
100751
100768
100785
100801
100816
100831
100846
100860
100874
100887
100899
100912
100923
100934
100944
100954
100964
100974
100983
100992
101000
101009
101017
101025
101032
101038
101045
101052
101058
101065
101072
101078
101084
101091
101097
101102
101108
101113
101119
101125
101131
101137
101144
101150
101156
101161
101167
101173
101179
101186
101192
101198
101205
101211
101217
101223
101229
101235
101242
101248
101254
101260
101266
101272
101278
101283
101289
101294
101300
101305
101310
101315
101319
101324
101329
101333
101337
101340
101344
101347
101351
101354
101357
101359
101361
101363
101364
101366
101367
101367
101368
101369
101369
101370
101369
101368
101367
101365
101364
101363
101361
101359
101357
101355
101353
101350
101347
101343
101340
101337
101334
101330
101327
96833.4
96839.3
96832.9
96830.8
96828.4
96826
96822.6
96818.8
96813.8
96809
96803.5
96798
96791.9
96785.6
96779.6
96772.8
96767.5
96762.2
96756.3
96750.7
96746.3
96742.8
96739.5
96735.3
96731.7
96729.1
96726.4
96723.2
96719.5
96715.4
96712.4
96709.9
96706.1
96699.8
96696.8
96694.5
96689.4
96685.4
96682.1
96679
96675.1
96672.7
96671.7
96670.5
96670.3
96671.6
96672.6
96673.6
96675.3
96678.8
96682.8
96689
96696.3
96704.1
96712.9
96721.9
96733.6
96745.5
96755.6
96763.2
96769.8
96785.4
96784.3
96786.5
96787.7
96787.5
96782.9
96780.3
96776
96773.3
96767.7
96764.6
96764.5
96758.7
96751.6
96750.3
96749.5
96751.1
96751.3
96750.8
96762.8
96765.6
96773.6
96793.7
96812.8
96831.5
96851.6
96874.5
96897.9
96913.7
96931.9
96949.7
96965.4
96980.6
96995.7
97009.7
97022.1
97030.6
97039.7
97038.8
97038.3
97044.4
97058.2
97073.9
97086.8
97099.3
97108.7
97115.4
97120.7
97124.7
97126.5
97125.1
97122.5
97119.5
97120.3
97122.8
97118.4
97110
97099.6
97093.5
97089.6
97089.9
97087.9
97086.6
97082.8
97082.6
97083
97083.6
97085.6
97096.3
97107.2
97122.9
97141.2
97152.4
97159.6
97165.6
97173.3
97188
97206.3
97223.6
97241.5
97265.4
97286.4
97317.4
97346.2
97376.6
97403.2
97429.9
97458.8
97490.5
97520.6
97552
97582.5
97613.2
97643.2
97674.2
97705.9
97738.4
97768.4
97798.3
97826.5
97852.6
97877
97898.7
97916.6
97934.5
97950.8
97966.5
97981
97993.3
98005.3
98014.3
98019.8
98025.8
98032.6
98038.2
98042.2
98044
98043.2
98038.9
98028
98016.8
98006.9
98000
97995.5
97983.5
97968.7
97946.9
97923.1
97901.4
97900.8
97881.5
97865.9
97844.5
97825.8
97803.2
97780.1
97751
97722
97694.4
97667.1
97645.5
97618.8
97593.6
97566.1
97529.8
97497.3
97470.6
97443.2
97408.2
97382.8
97358.4
97321.7
97293.8
97268
97238.4
97213.4
97181
97144.1
97114
97092.5
97065.8
97035.5
97009.9
96991.3
96966.4
96942.8
96926.4
96910.2
96888.4
96866.1
96851.3
96838.6
96822.4
96810.7
96793.4
96795.1
96795.1
96791.8
96791.6
96804.3
96813.3
96822.7
96835.4
96849.7
96865.2
96885.7
96905
96927.4
96948.5
96974
97005.4
97040.8
97074.3
97109.8
97145.9
97182.6
97219.4
97255.2
97291.8
97330.2
97369.8
97409.4
97442.6
97470.8
97499.6
97530.1
97560.1
97591.5
97615.6
97642.7
97672.7
97700.8
97729.4
97760
97791.3
97819.4
97847.6
97876
97902.4
97930.2
97958.5
97986
98014.2
98041.1
98069.7
98098.8
98126.4
98152.9
98178.5
98202.9
98228.2
98252.9
98277.4
98303.2
98327.7
98352.6
98377.1
98401.3
98425.1
98448.3
98471.1
98493.8
98516.5
98539.1
98561.6
98584.3
98606.6
98628.7
98650.7
98672.9
98695.3
98717.7
98740.4
98763
98785.8
98808.3
98830.8
98853.9
98877.4
98901.4
98925.5
98950
98974.8
98999.8
99024.8
99050.2
99076.2
99102.7
99129.5
99156.7
99184.2
99211.9
99239.9
99268.1
99296.7
99326
99355.6
99385.5
99415.5
99445.9
99476.6
99507.5
99538.5
99569.6
99600.7
99632
99663.2
99695
99727
99758.9
99790.7
99822.5
99854.3
99886.1
99917.7
99949.1
99980.4
100011
100042
100073
100104
100134
100165
100194
100224
100253
100281
100310
100338
100365
100392
100419
100445
100471
100495
100520
100543
100567
100590
100612
100634
100655
100675
100695
100714
100733
100750
100768
100785
100801
100817
100832
100847
100861
100874
100887
100899
100911
100923
100934
100944
100955
100965
100974
100983
100992
101000
101008
101016
101024
101031
101038
101045
101052
101059
101065
101072
101077
101083
101089
101095
101101
101107
101113
101119
101125
101131
101137
101142
101148
101155
101161
101167
101173
101179
101186
101192
101198
101204
101210
101216
101223
101229
101235
101241
101248
101254
101260
101266
101272
101277
101283
101289
101294
101299
101305
101310
101315
101319
101324
101328
101333
101337
101341
101345
101348
101351
101354
101356
101359
101361
101363
101365
101366
101368
101368
101369
101369
101369
101369
101368
101368
101367
101366
101365
101364
101362
101360
101357
101355
101352
101349
101346
101344
101341
101337
101334
101330
101327
96839.3
96845.9
96837.9
96836.1
96833.1
96830.4
96826.6
96822.9
96817.8
96812.5
96806.7
96800.4
96793.8
96787.4
96780.9
96773.9
96768
96762.7
96758.3
96753.6
96749.1
96745.2
96742.1
96738.6
96735.1
96732
96728.7
96726
96724
96720.7
96716.7
96713.1
96709.1
96704.3
96699.6
96696.2
96693
96688.6
96684.5
96679.7
96674.5
96671
96668.5
96665.7
96664.2
96665
96665.5
96667.5
96670.8
96675
96679.7
96686.7
96695.3
96703.2
96712.6
96721.9
96732.5
96744.6
96755.5
96763.9
96773.2
96782.6
96783.9
96786.6
96787.9
96788.2
96782.1
96778.6
96773.5
96768.8
96762.4
96754.2
96756.7
96746.7
96748.9
96739
96744.2
96746.7
96741.5
96759.6
96758.3
96762.9
96771.9
96772.1
96780.1
96791.2
96808.8
96828.5
96850.1
96872.8
96896.2
96922.4
96946.7
96969.5
96991.4
97013
97033.4
97054.6
97075.7
97084.7
97088.4
97091.9
97094
97094.9
97096.3
97096.8
97097.3
97096.7
97096.8
97098.6
97099.8
97099.1
97097.2
97092.9
97091.6
97093.4
97092.6
97086.5
97080.3
97076.2
97074.1
97074.2
97073.4
97072.7
97071.1
97072.5
97075.9
97080.2
97085.2
97096.8
97099
97098.7
97104.1
97112.5
97127.7
97143.8
97162.5
97185.3
97208.6
97230.5
97249.9
97277.5
97305.7
97323.9
97341.6
97368.7
97400.3
97427.9
97459.8
97490.3
97520.8
97552.7
97583.4
97614.2
97646.1
97678.2
97706.1
97734.3
97762.4
97791.6
97820
97847
97873
97897.8
97919.7
97938.3
97955.5
97971.1
97983.8
97993
98003
98011.2
98018.2
98026.1
98031.4
98035.4
98038.7
98039.3
98037.3
98032.7
98024.2
98017.5
98007.8
97997.3
97990.7
97979.6
97968.4
97953.4
97918.4
97926.5
97910.5
97892.9
97876.7
97854.7
97826.9
97800.1
97771.7
97749.1
97724.1
97695.6
97675.7
97645.3
97613.5
97587.2
97557.1
97526.8
97499.8
97470.7
97440.3
97409.4
97383.8
97355.1
97327.7
97299.5
97272.1
97232.9
97200.7
97175.5
97144.1
97113.3
97091.5
97067.3
97040.4
97016.4
97001.5
96979.8
96949.6
96922.7
96901.6
96881.6
96861.6
96850.1
96836.4
96822.9
96814.1
96808.1
96798.9
96794.1
96793.6
96790.4
96800.8
96809.8
96821.6
96838
96855.7
96872.1
96893.4
96921.4
96948.3
96970.4
96996.3
97023.5
97050.9
97080.3
97112.7
97145.2
97178.2
97211.9
97244.8
97276.1
97306.7
97341.6
97380.8
97417.6
97453.2
97485.8
97519.9
97554.8
97592.5
97619.7
97647.4
97675.6
97706.3
97733
97761.1
97791.6
97820.1
97847.7
97876.2
97903.9
97932.9
97961
97990.2
98017.9
98042.4
98068.5
98094
98120.3
98148
98175.5
98201.8
98228.8
98254.2
98280.1
98305.5
98330.7
98354.8
98378.6
98401.9
98425.2
98448.3
98471.4
98494.3
98517.1
98539.8
98562.2
98584.4
98606.5
98628.7
98650.8
98673.2
98695.6
98718
98740.4
98762.7
98785.3
98808
98830.8
98854
98877.5
98901.5
98925.6
98949.9
98974.3
98999.1
99024.4
99050.1
99076
99102.5
99129.2
99156.2
99183.6
99211.3
99239.4
99267.8
99296.6
99325.8
99355.3
99385.2
99415.2
99445.4
99475.9
99506.7
99537.7
99568.9
99600.3
99631.7
99663.2
99694.9
99726.8
99758.7
99790.5
99822.2
99853.9
99885.5
99917.2
99948.7
99980.1
100011
100042
100073
100104
100134
100165
100194
100224
100253
100281
100310
100338
100365
100392
100419
100445
100470
100495
100520
100544
100567
100590
100612
100634
100655
100675
100695
100714
100733
100751
100768
100785
100801
100817
100832
100847
100861
100874
100887
100899
100911
100923
100934
100945
100955
100964
100974
100983
100992
101000
101008
101016
101023
101031
101038
101045
101052
101058
101065
101071
101077
101083
101089
101095
101101
101107
101113
101119
101124
101130
101136
101142
101148
101154
101161
101167
101173
101179
101185
101191
101197
101204
101210
101216
101222
101229
101235
101241
101247
101253
101259
101265
101271
101277
101283
101289
101294
101299
101305
101310
101314
101319
101324
101328
101333
101337
101341
101344
101348
101351
101354
101356
101359
101361
101363
101365
101366
101367
101368
101369
101369
101369
101369
101369
101368
101367
101366
101365
101363
101361
101359
101357
101355
101352
101350
101347
101344
101341
101337
101334
101330
101327
96845.7
96853
96844.5
96843.1
96839.9
96837.5
96832.6
96828.5
96823.3
96818.1
96812.3
96806.3
96799.5
96792.1
96784.9
96777.8
96771.3
96765
96760.1
96755.7
96751.2
96747.2
96744.1
96740.8
96737.9
96735.5
96732.7
96730.3
96728.7
96725.8
96722
96718.2
96713.5
96709.6
96705.3
96699.5
96695.3
96690.2
96686
96681.9
96677.8
96675.1
96672.2
96668.1
96665
96664.7
96663.4
96664.3
96666.7
96670.7
96675.6
96682.1
96689.7
96699.2
96710.9
96720.9
96731.4
96741.9
96750.5
96759.5
96768.8
96777
96782.1
96787.1
96788.2
96789.3
96782.9
96779.6
96774.5
96772.9
96756.2
96756.4
96752.7
96755.9
96752.9
96748.3
96744.3
96752.7
96754.1
96745.9
96774.9
96786.9
96780.1
96798.7
96811.2
96822.2
96836.1
96850.7
96866.9
96882.8
96898.5
96917.2
96932.7
96945.2
96953.8
96959.6
96970.4
96986.7
97006.5
97024
97041.5
97056.7
97069.9
97082.2
97093.7
97103.4
97109.9
97108.9
97106.2
97104.2
97101.5
97098.9
97096.4
97092.4
97091.2
97089
97084.1
97076.6
97070.7
97066.6
97063.6
97063
97063.2
97064.2
97063.6
97065.6
97067.1
97070.1
97072.3
97078.8
97084.4
97091.7
97107.5
97124.3
97148.7
97169
97188.7
97206
97223.1
97233.8
97251.3
97269.3
97287.8
97315.9
97342.7
97370.6
97401
97431.5
97463.6
97493.1
97523.7
97554.8
97585.4
97616.5
97647.1
97678
97708.6
97739.6
97767.7
97795.7
97821.7
97844.8
97864.8
97885.8
97909.9
97930.7
97948.5
97966
97981.3
97991.9
98001.5
98013.3
98016.1
98021.7
98028.1
98032.9
98036
98036.9
98035.9
98032.6
98023.8
98018.2
98005.2
97997.1
97992.5
97988.9
97982.7
97956.9
97943.6
97921.5
97905.6
97883.7
97867.9
97843.8
97817.3
97793.9
97771.1
97750.7
97725.1
97697.3
97668.7
97639.9
97613.2
97586.5
97556
97525.9
97502.5
97475.7
97446.6
97418.1
97387
97357.9
97322.3
97293.3
97267.5
97235.1
97202.5
97179.1
97150.6
97122.6
97099.7
97076.6
97049.4
97016.3
96989.5
96967.5
96942.2
96921.8
96903.3
96883.3
96866.6
96859
96842.7
96825.7
96810.7
96797.2
96790.8
96784.5
96785.9
96786.3
96795.3
96799.7
96806.2
96823.6
96830.9
96843.9
96863.6
96892.5
96916.5
96945.1
96977.8
97010.3
97043.4
97077.2
97113.5
97149.5
97185.4
97226.1
97266.3
97300.2
97329.9
97360.1
97391.6
97424.2
97457.7
97487.3
97514
97542.8
97577.2
97612.2
97643.3
97674.1
97704.4
97731.8
97759.7
97788.6
97818.7
97849.3
97878.1
97905.7
97931.2
97957.6
97984.7
98013
98041.3
98067.1
98095.3
98123.1
98151.2
98179.1
98205.6
98231.1
98255.6
98280.2
98304.8
98329.1
98353.5
98377.5
98401.4
98425.1
98448.6
98471.8
98494.8
98517.3
98539.8
98562.1
98584.3
98606.7
98629
98651.3
98673.4
98695.6
98717.8
98740
98762.4
98785.1
98808
98831.2
98854.4
98877.6
98901.2
98925
98949.2
98973.8
98998.8
99024.1
99049.9
99075.7
99102
99128.6
99155.6
99182.9
99210.7
99238.9
99267.5
99296.3
99325.4
99354.8
99384.5
99414.5
99444.7
99475.3
99506.1
99537.1
99568.3
99599.8
99631.4
99663
99694.6
99726.3
99758
99789.8
99821.6
99853.4
99885.1
99916.8
99948.4
99979.9
100011
100042
100073
100104
100134
100164
100194
100223
100253
100282
100310
100338
100365
100392
100419
100445
100470
100496
100520
100544
100568
100590
100613
100634
100655
100675
100695
100715
100733
100751
100769
100785
100802
100817
100832
100847
100861
100874
100887
100900
100912
100923
100934
100945
100955
100964
100974
100983
100992
101000
101008
101016
101023
101031
101038
101044
101051
101058
101064
101071
101077
101083
101089
101095
101101
101106
101112
101118
101124
101130
101136
101142
101148
101154
101160
101166
101172
101178
101185
101191
101197
101203
101210
101216
101222
101228
101235
101241
101247
101253
101259
101265
101271
101277
101283
101288
101294
101299
101305
101310
101314
101319
101324
101328
101333
101337
101341
101344
101348
101351
101354
101357
101359
101361
101363
101365
101366
101367
101368
101369
101369
101370
101369
101369
101368
101367
101366
101365
101363
101362
101360
101357
101355
101353
101350
101347
101344
101341
101337
101334
101330
101327
96853.4
96860.2
96851.1
96849.8
96846
96843.8
96839.2
96834.8
96828.4
96822.7
96816.3
96809.4
96801.9
96794.3
96786.9
96779.9
96773.2
96766.6
96760.9
96756.4
96752.4
96748.8
96746.6
96744.1
96741.7
96739.8
96737.4
96735.4
96734.3
96731.8
96728.4
96724.7
96719.7
96716.7
96712.5
96707.4
96703.6
96697.2
96691.3
96685.6
96679.6
96676
96671.8
96666.7
96663.6
96662.9
96660
96661.1
96663
96665.7
96670.4
96677
96687.1
96696.5
96708.4
96722.4
96732.1
96743.1
96753.9
96764.7
96774.7
96782.4
96792.6
96797.1
96800
96798
96787.1
96778.1
96774
96763.3
96762.1
96750
96757.4
96748.8
96752.4
96740.1
96737.2
96746.4
96735.2
96749.7
96753
96755.2
96756
96768.9
96785.9
96802.1
96822.4
96842
96863.5
96884.9
96906.9
96929.9
96952.2
96975.3
96994.6
97006.8
97016.6
97023.4
97028
97033.2
97041.1
97046.7
97048.4
97049.8
97054.1
97061.5
97070.4
97074.7
97076.8
97078.1
97076.9
97075.5
97072.3
97067.7
97068.6
97067.5
97064.8
97058.6
97053.6
97050
97048.9
97048.7
97047.6
97047.8
97048.3
97050
97053.7
97058.9
97064.9
97073.6
97083.2
97100.9
97113.6
97125.7
97136.9
97152.2
97166.3
97180.2
97200
97214.1
97243.5
97268.9
97297.7
97324.4
97355.5
97377.6
97410.2
97437.5
97464.3
97493.7
97525.3
97556.8
97587.6
97618.3
97648.1
97677.8
97708.2
97737.8
97766.2
97794.8
97823.2
97849.4
97870.5
97890.7
97910.9
97929.3
97944.1
97957.5
97972.3
97983.8
97994.4
98006.4
98011.8
98020.6
98024.9
98028
98031.3
98032.6
98030.5
98026.6
98022.3
98013.9
98005.8
98004.8
98000
97987.1
97967.7
97944.7
97925.8
97918.7
97902.8
97882.9
97866.7
97848.4
97831.1
97801.7
97782.4
97757.4
97725.9
97698.9
97676.9
97646.1
97622.5
97595.1
97562.2
97530.5
97499.9
97470.4
97441.2
97413.3
97384.9
97354.6
97323.4
97296.4
97268.1
97235.5
97209.6
97181.6
97153.9
97124.9
97094.4
97065.1
97041.5
97014.4
96991.6
96970.9
96946.9
96929.4
96908.7
96889.9
96867.7
96849.3
96833.1
96820.9
96807
96799.8
96791.7
96787
96785.6
96786.4
96794.8
96800.8
96811.6
96830.9
96842.5
96856.1
96876.2
96894.7
96916.1
96942.5
96972.6
97003.2
97034.8
97066.9
97101.6
97135.8
97168.9
97202.8
97240.6
97278.1
97315.1
97350.3
97385.4
97420.6
97457.2
97493.5
97524.4
97552.5
97583.4
97614.1
97643.2
97670.5
97699.3
97728.9
97758.8
97788.4
97817.8
97846.7
97875.8
97904
97932.3
97958.4
97987.2
98015.4
98044.6
98072.5
98098.2
98122.2
98148.4
98174.7
98202.4
98228.8
98254.4
98279.5
98305.1
98330.1
98354.8
98379.2
98403
98426.5
98449.6
98472.5
98495.3
98517.9
98540.5
98562.8
98585.1
98607.2
98629.2
98651.4
98673.6
98695.8
98718.1
98740.4
98762.8
98785.3
98808
98830.8
98853.8
98877.2
98901
98925
98949.3
98973.7
98998.6
99023.7
99049.2
99075.1
99101.5
99128.2