/*--------------------------------*- C++ -*----------------------------------*\
| =========                 |                                                 |
| \\      /  F ield         | OpenFOAM: The Open Source CFD Toolbox           |
|  \\    /   O peration     | Version:  v1812                                 |
|   \\  /    A nd           | Web:      www.OpenFOAM.com                      |
|    \\/     M anipulation  |                                                 |
\*---------------------------------------------------------------------------*/
FoamFile
{
    version     2.0;
    format      ascii;
    class       surfaceScalarField;
    location    "0.8";
    object      phi;
}
// * * * * * * * * * * * * * * * * * * * * * * * * * * * * * * * * * * * * * //

dimensions      [1 0 -1 0 0 0 0];
oriented        oriented;


internalField   nonuniform List<scalar> 
40240
(
0.000233969
-0.000232785
0.000529053
-0.000286429
0.000749286
-0.000211805
0.000933122
-0.000180421
0.00112216
-0.000189609
0.00131876
-0.000197239
0.00150271
-0.000188244
0.00166523
-0.000172953
0.00176034
-0.00011027
0.00179385
-5.11112e-05
0.00183738
-6.82132e-05
0.00183666
-2.71372e-05
0.00182219
-1.69793e-05
0.00181758
-3.43153e-05
0.00182939
-6.27598e-05
0.00181412
-3.96579e-05
0.00181677
-5.81874e-05
0.0018401
-8.50798e-05
0.00188043
-0.000116568
0.00194213
-0.000147915
0.00202671
-0.000178036
0.00214462
-0.000216124
0.00228819
-0.000249832
0.0024418
-0.000272434
0.00260395
-0.00029242
0.00277093
-0.000302282
0.00293099
-0.000297668
0.00307282
-0.000289257
0.0031963
-0.000288094
0.00330704
-0.000286007
0.00341464
-0.000275279
0.00349314
-0.000239855
0.00351311
-0.000193105
0.00347893
-0.000161373
0.00339091
-0.000107833
0.00324222
-4.51629e-05
0.00298286
5.76744e-05
0.00266678
0.000108545
0.00229406
0.00016529
0.0018842
0.000197969
0.0014335
0.000227823
0.000959921
0.000246025
0.000492156
0.000242563
2.57964e-05
0.000242925
-0.000440352
0.000242346
-0.000881655
0.000216923
-0.0013047
0.000198564
-0.00171859
0.000188648
-0.00210424
0.000164029
-0.00242637
0.00010121
-0.00269154
4.57657e-05
-0.0029037
-5.17588e-06
-0.00309583
-2.21386e-05
-0.00330534
-5.95138e-07
-0.00355064
3.97505e-05
-0.00374591
-4.2257e-06
-0.00389026
-4.72001e-05
-0.00397296
-9.97102e-05
-0.00423666
8.89381e-05
-0.00450705
9.9665e-05
-0.00458935
-7.72381e-05
-0.00457447
-0.000173348
-0.00451317
-0.000197583
-0.00450879
-0.000133899
-0.00470166
7.49266e-05
-0.00522909
0.000416989
-0.00614737
0.000813316
-0.00737795
0.00113206
-0.00888778
0.00142114
-0.0106568
0.00169853
-0.0126525
0.00194213
-0.0147096
0.00201586
-0.0166362
0.00190157
-0.0184163
0.00176532
-0.0200252
0.00160268
-0.0214743
0.00145361
-0.0228611
0.00140477
-0.0241738
0.00134604
-0.0254641
0.00133604
-0.0266663
0.00125288
-0.027612
0.0010125
-0.0283779
0.000852398
-0.0288654
0.000594012
-0.0289847
0.000231408
-0.0291504
0.000256435
-0.0291699
0.000130439
-0.0288885
-8.42191e-05
-0.0283004
-0.000466481
-0.0275922
-0.00059577
-0.026669
-0.000788509
-0.0255648
-0.000925561
-0.0245655
-0.000774672
-0.0232774
-0.00105373
-0.0219132
-0.0011438
-0.0203741
-0.00132122
-0.0186535
-0.00148497
-0.0168575
-0.00153602
-0.0150306
-0.00155388
-0.0131057
-0.00164796
-0.0109945
-0.00187618
-0.00921708
-0.00150786
-0.00737971
-0.00154671
-0.00537363
-0.00170962
-0.00313254
-0.00194051
-0.000778479
-0.00204611
0.00152359
-0.00198908
0.00360739
-0.00176638
0.00577262
-0.00184303
0.00801741
-0.00191883
0.0102233
-0.00187621
0.0122557
-0.00170087
0.0140164
-0.00142836
0.0154891
-0.00114149
0.0166935
-0.000874144
0.017638
-0.000617503
0.0183275
-0.000367567
0.0188468
-0.00020247
0.0190828
6.81732e-05
0.0190341
0.000347229
0.0189968
0.000329119
0.0190016
0.000275357
0.0190523
0.000220925
0.0189225
0.000395886
0.0186207
0.000557999
0.0179404
0.000917672
0.017052
0.00111334
0.0161622
0.00110369
0.0153335
0.00103281
0.014496
0.00103094
0.0136444
0.0010342
0.0128327
0.000983111
0.0120843
0.000907963
0.0113761
0.000856063
0.01066
0.000851627
0.00990883
0.000875053
0.00917315
0.000849086
0.00853141
0.000744595
0.0079952
0.000628838
0.00752048
0.00055739
0.00707887
0.000514798
0.00666351
0.000479084
0.00624142
0.000475657
0.00579613
0.000489192
0.00533434
0.000495378
0.00490385
0.000455651
0.00455387
0.000365625
0.00427617
0.000284529
0.00406522
0.000208673
0.00391771
0.000136734
0.00382837
7.00649e-05
0.00379985
1.40184e-06
0.00381338
-4.79677e-05
0.00387101
-9.92384e-05
0.00397775
-0.000154683
0.00415323
-0.000229485
0.00439952
-0.000306124
0.00470124
-0.000366412
0.00501019
-0.000378823
0.0052921
-0.000356198
0.00554023
-0.000327616
0.00574312
-0.000286865
0.00587169
-0.000216235
0.00597449
-0.000194463
0.0060405
-0.000160783
0.00605623
-0.000115894
0.0060088
-5.16939e-05
0.00586028
4.79229e-05
0.00562815
0.000130356
0.00534187
0.000183754
0.00499582
0.000242757
0.00459194
0.000299815
0.0041629
0.000325052
0.00377736
0.000282441
0.00349799
0.000178368
0.0033401
5.95858e-05
0.00325664
-1.25257e-05
0.00317285
-9.58427e-06
0.00299347
8.94663e-05
0.00265626
0.00024997
0.00217306
0.000398904
0.00161613
0.000475576
0.00107997
0.00045783
0.000670056
0.000334382
0.00041731
0.000180801
0.000292513
5.65746e-05
0.000238478
-1.0931e-05
0.000160921
1.55093e-05
2.71121e-05
7.52908e-05
-0.000204309
0.000175245
-0.000568516
0.00031478
-0.000821516
0.00020338
-0.000903173
3.877e-05
-0.000895935
-5.07261e-05
-0.000865876
-6.51472e-05
-0.000860119
-4.07133e-05
-0.000895065
6.3071e-06
-0.000957072
3.69549e-05
-0.00104015
6.17844e-05
-0.00114017
8.11619e-05
-0.00121155
5.74744e-05
-0.0012331
1.15091e-05
-0.00123219
-8.15088e-06
-0.00122577
-9.91753e-06
-0.00117831
-4.97765e-05
-0.00110823
-6.92806e-05
-0.00101761
-8.78578e-05
-0.000919496
-9.25599e-05
-0.000819362
-9.21105e-05
-0.000719247
-9.05726e-05
-0.000635442
-7.17305e-05
-0.000539821
-8.15894e-05
-0.000463884
-6.08192e-05
-0.000453251
9.63062e-06
-0.000384718
-4.93676e-05
-0.000338322
-2.79628e-05
-0.000411456
9.28818e-05
-0.000643309
0.000251356
-0.00106426
0.000440411
-0.00154346
0.000499436
-0.00197281
0.000448502
-0.00235723
0.000402747
-0.00267872
0.000339435
-0.00291293
0.000251275
-0.00314992
0.000252605
-0.00347642
0.000341042
-0.00388894
0.000425817
-0.00436596
0.000488992
-0.00496677
0.000611036
-0.00565237
0.000695506
-0.00631746
0.000686314
-0.00693737
0.000661134
-0.00761922
0.000810681
-0.00834013
0.000761187
-0.00897881
0.00056286
-0.00956497
0.000596837
-0.0101604
0.000613028
-0.0107425
0.000591389
-0.0112391
0.000503315
-0.0117128
0.000479335
-0.0121526
0.000448123
-0.0125468
0.000400042
-0.0129245
0.000385259
-0.0132622
0.000344282
-0.0135286
0.0002742
-0.0136331
0.000110562
-0.0135953
-2.7181e-05
-0.0134072
-0.000178707
-0.0131256
-0.000268994
-0.0127032
-0.000407527
-0.0121248
-0.000561371
-0.0114776
-0.000628299
-0.0108534
-0.000603911
-0.0102629
-0.000567765
-0.00958882
-0.000648197
-0.00877019
-0.000790431
-0.00789145
-0.00084883
-0.00706507
-0.000794157
-0.00633456
-0.000695888
-0.00569075
-0.000606325
-0.00511896
-0.000531481
-0.00463422
-0.000442163
-0.00425224
-0.000336399
-0.00393722
-0.000264991
-0.00362418
-0.00025779
-0.0033094
-0.000255353
-0.00303246
-0.000212572
-0.00282267
-0.000140965
-0.0026545
-9.38914e-05
-0.00249454
-7.94171e-05
-0.0023541
-5.3958e-05
-0.00228072
1.83177e-05
-0.00228075
9.83347e-05
-0.00231921
0.000143943
-0.00238016
0.00017314
-0.00242686
0.000167031
-0.00244749
0.000148485
-0.00245469
0.000143132
-0.00248106
0.000169427
-0.00253818
0.00020811
-0.0026249
0.000245536
-0.00273287
0.000274504
-0.00285863
0.000299638
-0.00297427
0.000298295
-0.00304516
0.000260745
-0.00308925
0.000241855
-0.00311524
0.000231524
-0.00312412
0.000221815
-0.00312256
0.000218153
-0.00310835
0.000213925
-0.00307576
0.000202279
-0.00302886
0.000195188
-0.00297681
0.000197082
-0.00291598
0.000195032
-0.00283763
0.000184247
-0.00273961
0.000170796
-0.00262726
0.000162466
-0.00250316
0.000156519
-0.0023707
0.000153531
-0.00223278
0.00015319
-0.00208881
0.000151839
-0.00193618
0.000147522
-0.0017744
0.000142292
-0.00160591
0.000139153
-0.00143043
0.000135449
-0.00124888
0.000132287
-0.00106438
0.000131899
-0.000871998
0.000126237
-0.000669576
0.000118014
-0.000458812
0.000111056
-0.000243755
0.000107762
-2.86472e-05
0.000108388
0.000184307
0.000110861
0.000393005
0.000115008
0.000597843
0.000118493
0.000802019
0.000118457
0.00100895
0.000114691
0.00122091
0.000108318
0.00143541
0.000104142
0.00164895
0.000103164
0.00185874
0.000104758
0.00206529
0.00010552
0.00227002
0.000104591
0.00247471
0.000101657
0.00268086
9.70162e-05
0.00288845
9.2126e-05
0.00309462
8.98478e-05
0.00329409
9.26486e-05
0.00348545
9.66823e-05
0.00366865
0.000100642
0.00384327
0.00010489
0.00400909
0.000109307
0.00416743
0.0001124
0.00432055
0.000113157
0.0044709
0.000111431
0.00461922
0.000108939
0.00476655
0.000105385
0.00491315
0.0001016
0.00506006
9.67439e-05
0.00520807
9.11226e-05
0.00535387
8.87587e-05
0.00549451
8.94234e-05
0.00562845
9.16178e-05
0.00575365
9.58384e-05
0.00586853
0.00010165
0.00597382
0.000106799
0.00607273
0.000108828
0.00616851
0.000107687
0.00626494
0.000102887
0.00636287
9.73661e-05
0.00646446
8.98107e-05
0.00656818
8.39448e-05
0.00666894
8.32963e-05
0.00676617
8.34303e-05
0.00686083
8.27453e-05
0.0069523
8.28763e-05
0.00703951
8.42175e-05
0.00712226
8.59494e-05
0.00720129
8.70421e-05
0.00727758
8.73244e-05
0.0073526
8.62528e-05
0.00742745
8.42145e-05
0.00750261
8.18002e-05
0.0075774
8.024e-05
0.00765074
7.98189e-05
0.00772365
7.86105e-05
0.0077982
7.54687e-05
0.00787564
7.12164e-05
0.00795469
6.83848e-05
0.0080341
6.69337e-05
0.00811451
6.49745e-05
0.00819501
6.40164e-05
0.00827298
6.57291e-05
0.00834658
6.93715e-05
0.00841646
7.24286e-05
0.00848539
7.28171e-05
0.00855593
7.07351e-05
0.00862982
6.69488e-05
0.0087077
6.26108e-05
0.00879218
5.5773e-05
0.00888632
4.60145e-05
0.00898484
4.1506e-05
0.00908115
4.37319e-05
0.00917667
4.46628e-05
0.00927326
4.38075e-05
0.0093708
4.3121e-05
0.00946894
4.28522e-05
0.00956679
4.35457e-05
0.00966308
4.55149e-05
0.00975919
4.62315e-05
0.00985673
4.54241e-05
0.00995484
4.54435e-05
0.0100525
4.66004e-05
0.0101515
4.59645e-05
0.0102539
4.32092e-05
0.0103604
3.98463e-05
0.0104703
3.69245e-05
0.0105827
3.50694e-05
0.0106973
3.3158e-05
0.0108177
2.78628e-05
0.0109437
2.24753e-05
0.0110727
1.97686e-05
0.0112017
1.9864e-05
0.0113291
2.15641e-05
0.0114532
2.48093e-05
0.0115742
2.77596e-05
0.0116927
2.98719e-05
0.0118092
3.14547e-05
0.0119248
3.17633e-05
0.0120401
3.12575e-05
0.0121578
2.80795e-05
0.0122816
2.07895e-05
0.0124101
1.50015e-05
0.012538
1.42357e-05
0.0126618
1.68488e-05
0.0127796
2.13357e-05
0.012893
2.41114e-05
0.0130026
2.60991e-05
0.0131088
2.76406e-05
0.0132106
2.98699e-05
0.0133056
3.45963e-05
0.0133972
3.57736e-05
0.013489
3.31452e-05
0.0135809
3.06142e-05
0.0136701
3.0648e-05
0.0137539
3.34874e-05
0.0138358
3.25667e-05
0.0139175
2.99708e-05
0.0139989
2.74696e-05
0.0140776
2.71527e-05
0.0141511
2.94463e-05
0.0142223
2.88099e-05
0.0142928
2.63255e-05
0.0143612
2.52908e-05
0.0144238
2.78268e-05
0.01448
3.09999e-05
0.014533
3.07088e-05
0.0145831
3.02909e-05
0.0146288
3.11523e-05
0.014667
3.52283e-05
0.0147009
3.59336e-05
0.014734
3.32162e-05
0.0147667
2.98914e-05
0.0147976
2.81377e-05
0.0148257
2.73236e-05
0.0148509
2.65345e-05
0.0148728
2.63277e-05
0.0148916
2.59958e-05
0.0149075
2.53873e-05
0.0149207
2.46384e-05
0.0149315
2.37134e-05
0.0149391
2.35146e-05
0.0149437
2.33866e-05
0.0149454
2.30733e-05
0.0149447
2.19517e-05
0.0149417
2.13354e-05
0.0149363
2.06818e-05
0.0149293
1.92094e-05
0.0149206
1.80017e-05
0.0149097
1.74816e-05
0.0148965
1.71683e-05
0.0148817
1.63177e-05
0.0148646
1.61206e-05
0.0148448
1.67102e-05
0.0148226
1.68919e-05
0.0148001
1.5255e-05
0.0147765
1.45004e-05
0.0147508
1.47717e-05
0.0147242
1.40431e-05
0.0147012
8.91549e-06
0.0146785
7.31414e-06
0.0146544
7.51984e-06
0.0146286
8.13745e-06
0.0146033
6.88812e-06
0.0145794
4.64466e-06
0.0145541
5.27874e-06
0.014525
8.67158e-06
0.014493
1.1181e-05
0.0144615
1.0368e-05
0.0144337
6.6244e-06
0.014411
1.4905e-06
0.0143892
8.01402e-07
0.0143672
1.22721e-06
0.0143471
-3.40512e-07
0.0143319
-4.51727e-06
0.0143207
-7.91633e-06
0.0143107
-8.43041e-06
0.0142989
-5.95331e-06
0.0142824
-6.04104e-07
0.0142656
9.78413e-07
0.0142504
4.29684e-07
0.0142357
1.02888e-06
0.0142195
3.66565e-06
0.0142051
3.17804e-06
0.0141939
1.3193e-06
0.0141873
-1.94023e-06
0.0141813
-1.05575e-06
0.0141762
-5.01157e-07
0.0141739
-1.66674e-06
0.0141742
-2.78191e-06
-2.49085e-06
0.000300845
-0.000536954
0.000567837
-0.000554573
0.000770141
-0.000420371
0.000968227
-0.000387458
0.00117074
-0.000405561
0.00136291
-0.000406357
0.00152903
-0.000372784
0.00167649
-0.000338502
0.00182196
-0.000274923
0.00199968
-0.000248525
0.00207617
-0.000171221
0.00209767
-7.62506e-05
0.0020893
-3.90982e-05
0.00202399
-9.78519e-06
0.00194009
-2.45298e-05
0.00201739
-0.00016414
0.00215243
-0.000246688
0.00228878
-0.000287894
0.00243323
-0.000339025
0.0025863
-0.000387393
0.00275156
-0.000435702
0.00293665
-0.000499458
0.00314076
-0.000562282
0.00335728
-0.000609344
0.00359025
-0.000655081
0.00384046
-0.000686217
0.00409283
-0.000688831
0.00433132
-0.000679757
0.00455174
-0.000673951
0.0047571
-0.000660678
0.0049414
-0.000618223
0.00507745
-0.0005417
0.0051539
-0.000454949
0.00516266
-0.000367946
0.00508727
-0.000220511
0.00490899
-5.99894e-05
0.00466355
9.65169e-05
0.00435838
0.000198126
0.00399806
0.000301965
0.00359422
0.000386475
0.00314554
0.000462446
0.00264364
0.000528724
0.0021025
0.000558459
0.00152881
0.000590351
0.000936361
0.000609456
0.000358649
0.000570195
-0.000193635
0.000527025
-0.000727438
0.00049806
-0.00126894
0.000482381
-0.00178743
0.000397831
-0.00226156
0.000299819
-0.00266973
0.000185052
-0.00301187
0.000104595
-0.00329789
7.36741e-05
-0.0035236
5.85947e-05
-0.00371479
-1.23674e-05
-0.00419758
0.000242942
-0.00510902
0.000630265
-0.00627698
0.00108226
-0.00758777
0.00124191
-0.00890253
0.00107873
-0.0101462
0.000921406
-0.0113292
0.000850193
-0.0125608
0.000970822
-0.0139463
0.00134157
-0.0155458
0.00190621
-0.0174812
0.00265192
-0.0197723
0.00334146
-0.0223655
0.00394432
-0.0251798
0.00444409
-0.0281071
0.00479191
-0.0309436
0.00477329
-0.0335299
0.00443429
-0.035916
0.00412733
-0.0381321
0.00381095
-0.040118
0.0034368
-0.041767
0.00306354
-0.0429572
0.00256232
-0.0437031
0.00211901
-0.0439347
0.00152418
-0.043959
0.00108892
-0.0437931
0.000764843
-0.0435714
0.000523234
-0.0429837
-0.00027325
-0.0421518
-0.000623057
-0.0413959
-0.000665569
-0.040226
-0.000709929
-0.0384702
-0.00181434
-0.0368044
-0.00242922
-0.0349444
-0.00259013
-0.0325433
-0.00302199
-0.029744
-0.00332692
-0.0268808
-0.00376497
-0.0240817
-0.00376676
-0.021588
-0.00359031
-0.0194133
-0.00342424
-0.0174039
-0.00331905
-0.01546
-0.00327578
-0.0134252
-0.00345468
-0.0109936
-0.00401579
-0.00765191
-0.00457772
-0.00402427
-0.00491163
-0.000526119
-0.00494188
0.00276873
-0.00496057
0.00601361
-0.00500978
0.00973311
-0.00542159
0.0138346
-0.00558225
0.0180311
-0.00575165
0.0221222
-0.00572181
0.0259643
-0.00542775
0.0295642
-0.0050074
0.0329844
-0.00455305
0.0363022
-0.00416027
0.0395606
-0.00382702
0.0425947
-0.00333546
0.0449221
-0.00236813
0.0459219
-0.000877655
0.0459917
0.000310556
0.0459413
0.000702586
0.0458045
0.000762673
0.0456341
0.000738095
0.0453697
0.000778665
0.044822
0.00123778
0.0439659
0.0016956
0.0428721
0.00227753
0.0414903
0.00274239
0.0398141
0.00300923
0.0378628
0.0031998
0.0357312
0.00336545
0.0336592
0.00329493
0.0317336
0.00308544
0.0299833
0.00282258
0.0284081
0.00258412
0.0269735
0.00242674
0.0256576
0.0023187
0.024488
0.00213482
0.0234884
0.00184859
0.0226192
0.00159018
0.0218036
0.00145415
0.0210535
0.00133627
0.0203786
0.0012147
0.0197296
0.00117523
0.0191438
0.0011161
0.0186577
0.00101219
0.0182778
0.000857513
0.0180064
0.000649682
0.0178276
0.00046729
0.0177474
0.000283988
0.0177577
0.000113718
0.0178626
-5.59883e-05
0.0180596
-0.00022361
0.0183645
-0.000387735
0.0187442
-0.000519516
0.0191916
-0.000647994
0.0197029
-0.000791053
0.0202465
-0.000904597
0.0207859
-0.000964255
0.0213051
-0.000960594
0.0217616
-0.000878485
0.0221505
-0.000786849
0.0224435
-0.000654554
0.022634
-0.000486532
0.0227052
-0.000350313
0.0226907
-0.000233885
0.0225914
-0.000108784
0.0223836
5.93814e-05
0.0220381
0.000296807
0.0215371
0.000532242
0.0209322
0.000688895
0.0202425
0.00083182
0.0194837
0.000957111
0.0186848
0.00102266
0.0178956
0.000971015
0.0171565
0.000818016
0.0164931
0.000625432
0.015902
0.000483078
0.0153307
0.000468027
0.0147192
0.000610081
0.0140411
0.000840746
0.0133035
0.00105185
0.0125129
0.00118503
0.0116962
0.00119624
0.0109481
0.00100719
0.0103609
0.000697118
0.00998231
0.000367048
0.00974055
0.000165826
0.00952521
0.000168076
0.00925251
0.000289326
0.00887766
0.000495995
0.0084612
0.000680592
0.00818328
0.000434226
0.00802432
0.000155885
0.00791485
1.93113e-05
0.00783917
-2.53415e-05
0.00776632
2.43656e-07
0.0077031
4.26073e-05
0.00765255
6.34845e-05
0.00761067
8.33394e-05
0.00760391
6.88266e-05
0.0075662
8.17615e-05
0.00753464
3.33298e-05
0.00752209
-2.93964e-06
0.00752211
-1.53151e-05
0.00755302
-8.29388e-05
0.00757398
-8.94158e-05
0.00760849
-0.000119408
0.00762265
-0.000101252
0.00762016
-8.19402e-05
0.00759785
-5.87741e-05
0.00747769
6.02581e-05
0.00731022
0.000100325
0.00711334
0.000152538
0.00682955
0.000312858
0.00652566
0.000274167
0.00615357
0.000362814
0.0055779
0.000687874
0.0048147
0.00103393
0.00383356
0.00143989
0.00276615
0.00158607
0.00176952
0.00146339
0.000878584
0.0013108
8.90008e-05
0.00114547
-0.000591443
0.000947501
-0.00121775
0.000893521
-0.00188806
0.00102468
-0.00261348
0.00116319
-0.00337957
0.00126613
-0.00422172
0.00146266
-0.00511694
0.00159802
-0.00601576
0.00158007
-0.0068908
0.00151277
-0.00764604
0.00147137
-0.00830439
0.00143219
-0.00894579
0.00129196
-0.00952916
0.0011857
-0.0100823
0.00116082
-0.0105485
0.00105222
-0.010863
0.00081754
-0.0110161
0.000631184
-0.0110339
0.000468314
-0.0109118
0.000277962
-0.0106025
7.62334e-05
-0.0101128
-0.000145082
-0.00953024
-0.000307514
-0.00888665
-0.000531882
-0.008183
-0.000728597
-0.00742136
-0.000937755
-0.00661143
-0.00107402
-0.00570066
-0.00131094
-0.00465131
-0.00160041
-0.00349663
-0.00176978
-0.00230504
-0.00177949
-0.00112262
-0.00173116
9.90285e-05
-0.00184655
0.00144528
-0.00210872
0.00290437
-0.00227633
0.00439817
-0.00225243
0.00587385
-0.00213226
0.00731416
-0.00200313
0.00872349
-0.00189322
0.0100905
-0.00175706
0.0113754
-0.00156669
0.0125195
-0.0013505
0.0135011
-0.00117645
0.0142848
-0.000972707
0.0148279
-0.000685601
0.0151458
-0.000385421
0.0153262
-0.000196465
0.0154905
-0.000157896
0.0157336
-0.000205089
0.0159899
-0.000140822
0.0161661
2.45018e-05
0.0162283
0.000190652
0.0162314
0.000284483
0.0162043
0.00031642
0.0161739
0.0003081
0.0161643
0.000289661
0.0161512
0.00032654
0.0161189
0.000392158
0.016043
0.00048062
0.0159133
0.000570919
0.0157231
0.000663628
0.0155111
0.000692521
0.0153533
0.000608655
0.0152498
0.000543122
0.0151986
0.000488157
0.0151926
0.000440627
0.015194
0.000436744
0.0152089
0.000427018
0.0152665
0.000379498
0.0153579
0.000345774
0.0154603
0.000343687
0.0155673
0.00034398
0.0156776
0.000336269
0.0157937
0.000323204
0.0159199
0.000310728
0.0160597
0.000296812
0.016216
0.000282806
0.0163945
0.000265658
0.0165937
0.00024832
0.0168106
0.000230681
0.0170415
0.000215416
0.0172784
0.000209881
0.0175162
0.00020848
0.017753
0.000209279
0.0179961
0.000205248
0.018253
0.000187966
0.0185283
0.000163289
0.0188248
0.000136524
0.0191307
0.000124802
0.0194315
0.000131179
0.0197206
0.000145593
0.020001
0.000158481
0.020278
0.000165036
0.0205571
0.00016221
0.0208437
0.000149899
0.0211438
0.000129002
0.021457
0.000110046
0.021771
0.000106243
0.022073
0.000117625
0.0223605
0.000130417
0.0226364
0.000138314
0.0229095
0.000135296
0.0231884
0.00012177
0.0234781
0.000102665
0.0237774
8.71667e-05
0.0240738
8.88239e-05
0.0243563
0.000102629
0.0246207
0.000120542
0.0248685
0.000136988
0.0251054
0.000147961
0.0253366
0.000152408
0.0255667
0.000149828
0.0258
0.000140425
0.0260382
0.000128622
0.0262755
0.000121419
0.0265048
0.000121111
0.0267242
0.000121479
0.0269339
0.000120993
0.027138
0.000119704
0.0273392
0.000118714
0.0275391
0.000117639
0.027737
0.000119406
0.0279295
0.000126175
0.0281149
0.000133975
0.0282953
0.000136702
0.0284751
0.000131975
0.0286549
0.000123045
0.0288289
0.000119206
0.0289951
0.000115457
0.02915
0.00011712
0.0292981
0.000119734
0.0294447
0.000117987
0.029594
0.000111311
0.0297459
0.000105869
0.0298971
0.00010491
0.0300461
0.000106173
0.0301934
0.000106437
0.0303394
0.000105508
0.0304823
0.000105133
0.0306188
0.000107203
0.0307462
0.000111906
0.030863
0.000118876
0.0309742
0.000122307
0.0310858
0.000119046
0.031202
0.00010986
0.0313259
9.65932e-05
0.0314587
8.36479e-05
0.0315927
7.98991e-05
0.0317214
8.21654e-05
0.0318407
8.97436e-05
0.0319509
9.9704e-05
0.0320548
0.000108943
0.0321554
0.000114753
0.0322567
0.000113857
0.0323644
0.000104952
0.0324824
9.06263e-05
0.0326089
7.72928e-05
0.0327403
6.52803e-05
0.0328735
5.36213e-05
0.0329997
5.59183e-05
0.033117
6.69999e-05
0.0332304
7.21094e-05
0.0333446
7.05162e-05
0.0334639
6.52092e-05
0.0335909
5.74745e-05
0.0337245
5.2087e-05
0.033861
5.14623e-05
0.0339946
5.56096e-05
0.0341208
6.26422e-05
0.0342372
7.31293e-05
0.0343468
8.1715e-05
0.0344548
8.33715e-05
0.0345677
7.65177e-05
0.0346906
6.3895e-05
0.0348245
5.0526e-05
0.0349686
3.90377e-05
0.0351181
3.21432e-05
0.0352698
2.50327e-05
0.0354185
2.28067e-05
0.0355635
2.39411e-05
0.0357055
2.72452e-05
0.0358456
3.09168e-05
0.035984
3.5711e-05
0.0361227
3.82802e-05
0.0362642
3.73721e-05
0.0364091
3.51419e-05
0.036558
3.07232e-05
0.0367093
2.70974e-05
0.0368621
2.15294e-05
0.0370148
1.31131e-05
0.0371614
1.21644e-05
0.0372996
1.84721e-05
0.0374296
2.77961e-05
0.0375534
3.70116e-05
0.0376754
3.99282e-05
0.0377989
3.86671e-05
0.0379256
3.52032e-05
0.0380567
3.09806e-05
0.0381856
3.56522e-05
0.0383073
4.16381e-05
0.03842
4.56656e-05
0.0385221
5.11063e-05
0.0386126
6.01711e-05
0.0386947
6.87e-05
0.0387758
6.61669e-05
0.0388632
5.46206e-05
0.0389586
4.11877e-05
0.0390618
3.01016e-05
0.0391646
2.98183e-05
0.0392606
3.2891e-05
0.0393476
3.62845e-05
0.0394236
4.30499e-05
0.0394887
5.32561e-05
0.0395459
6.09347e-05
0.0396016
5.8983e-05
0.03966
5.23689e-05
0.0397217
4.65246e-05
0.0397792
5.11406e-05
0.0398301
5.50026e-05
0.0398743
5.52831e-05
0.0399131
5.38317e-05
0.0399479
5.24322e-05
0.0399807
5.00066e-05
0.0400132
4.58739e-05
0.0400451
4.2808e-05
0.0400746
4.12768e-05
0.0401002
4.10783e-05
0.0401216
4.12307e-05
0.0401389
4.09884e-05
0.0401535
4.02551e-05
0.040165
3.99367e-05
0.0401733
3.9602e-05
0.0401784
3.84681e-05
0.0401805
3.75953e-05
0.0401792
3.73019e-05
0.0401744
3.63698e-05
0.0401678
3.41137e-05
0.0401595
3.23795e-05
0.0401507
2.9933e-05
0.0401415
2.71141e-05
0.0401289
2.7827e-05
0.0401105
3.19839e-05
0.0400857
3.65168e-05
0.0400573
3.6476e-05
0.0400275
3.54283e-05
0.0399975
3.40253e-05
0.0399719
2.73483e-05
0.0399566
1.05771e-05
0.0399439
4.76627e-06
0.0399271
7.91224e-06
0.0399011
1.64895e-05
0.0398639
2.5649e-05
0.0398225
2.68381e-05
0.0397819
2.60422e-05
0.039741
2.9359e-05
0.0397009
3.06701e-05
0.0396661
2.43119e-05
0.0396438
8.0995e-06
0.0396328
-8.20201e-06
0.039625
-1.20861e-05
0.0396154
-9.62398e-06
0.039599
-4.16171e-06
0.0395724
2.42456e-06
0.0395429
2.67596e-06
0.0395162
-2.1271e-07
0.0394924
2.04603e-07
0.0394712
3.85237e-06
0.0394563
3.29258e-07
0.0394503
-7.97319e-06
0.0394466
-8.55522e-06
0.0394407
-2.58671e-06
0.0394277
5.19232e-06
0.0394073
1.19427e-05
0.0393885
8.59099e-06
0.0393737
6.92104e-06
0.0393659
1.97065e-06
0.0393648
-4.29536e-06
0.0393658
-6.14907e-06
-5.28532e-06
0.000313768
-0.000845589
0.000597401
-0.000829766
0.000868855
-0.000691482
0.00113955
-0.000661455
0.0013993
-0.000669131
0.00164023
-0.000655099
0.001852
-0.000594014
0.00203202
-0.000528733
0.00218631
-0.000440693
0.00230235
-0.000379576
0.00240296
-0.000288627
0.00252384
-0.000220565
0.0026588
-0.000202361
0.00280867
-0.000198186
0.00296591
-0.000222668
0.00311458
-0.000342483
0.00321989
-0.000374575
0.00331004
-0.00044767
0.00341923
-0.000548968
0.00355528
-0.000617255
0.00371532
-0.000683387
0.00389581
-0.000769046
0.00409122
-0.000865495
0.00429888
-0.0009439
0.00452533
-0.00101268
0.0047757
-0.00105881
0.00502455
-0.00106573
0.0052419
-0.00105596
0.00542735
-0.00104345
0.00559951
-0.00100458
0.00575556
-0.000906536
0.00582752
-0.000758656
0.00580963
-0.000643361
0.00577487
-0.0005664
0.0057259
-0.000347201
0.00560214
-0.000110306
0.00542395
6.83237e-05
0.0051718
0.000231836
0.00484992
0.000385332
0.00444987
0.000581068
0.00399504
0.000721979
0.00345833
0.000849591
0.00285377
0.000930778
0.00219397
0.00102001
0.00148687
0.00109156
0.000773267
0.00105947
0.000102303
0.000973877
-0.000449139
0.00083083
-0.000886482
0.000697979
-0.00133338
0.000626758
-0.00179549
0.000545858
-0.00225381
0.000429033
-0.0026998
0.000337935
-0.00312832
0.000292275
-0.00355887
0.000283772
-0.00419749
0.000427122
-0.00496835
0.000822085
-0.0058661
0.00134652
-0.00699641
0.0020384
-0.00886408
0.00294444
-0.0113301
0.00338871
-0.014034
0.00348052
-0.0167656
0.00345107
-0.0196112
0.0036959
-0.0225803
0.00419484
-0.0255929
0.00480266
-0.0285886
0.00553342
-0.0314249
0.00608639
-0.033948
0.00642084
-0.0360134
0.0065128
-0.0376268
0.00642921
-0.0388565
0.0059937
-0.0398705
0.00536202
-0.040807
0.00496339
-0.0416494
0.00460385
-0.0424284
0.00419881
-0.0429796
0.00361896
-0.0434103
0.00300931
-0.043746
0.00248138
-0.0439533
0.00177025
-0.0439669
0.00114767
-0.0438531
0.000700512
-0.0435379
0.000210838
-0.0431565
-0.00058251
-0.0424494
-0.00109668
-0.0412379
-0.00154467
-0.0399657
-0.00231949
-0.0386578
-0.00317383
-0.0365096
-0.00411824
-0.0337292
-0.00505593
-0.0307254
-0.00596159
-0.0273849
-0.00656591
-0.0239303
-0.00702506
-0.020502
-0.00697775
-0.0171401
-0.00674767
-0.0137731
-0.00658594
-0.0102925
-0.00658327
-0.00662229
-0.00672151
-0.00274186
-0.00710198
0.00140692
-0.00792345
0.00568883
-0.00861167
0.0100273
-0.00900114
0.0143787
-0.00904016
0.0185928
-0.00891628
0.0225329
-0.00868704
0.0260947
-0.00871758
0.0292838
-0.00850144
0.032324
-0.00851887
0.0354149
-0.00853937
0.0386545
-0.00839615
0.0419542
-0.00804174
0.0452012
-0.00754005
0.0483862
-0.00709008
0.0515047
-0.00669291
0.0545301
-0.0061073
0.0572143
-0.00479522
0.0593333
-0.00274872
0.0610743
-0.00117212
0.0627096
-0.000665111
0.0641521
-0.000408616
0.065089
7.39233e-05
0.0652388
0.000910578
0.0650108
0.00176823
0.0641628
0.00285454
0.0627442
0.00400805
0.0608877
0.00489647
0.0587754
0.00539836
0.0566798
0.00555333
0.0549435
0.00533971
0.0534451
0.00500727
0.0518869
0.00483469
0.0500063
0.0048741
0.04782
0.00492886
0.0455626
0.0048339
0.0434257
0.00459344
0.0415079
0.00417808
0.0398874
0.00358198
0.0385509
0.00302732
0.0374325
0.00265982
0.03647
0.00237413
0.0356789
0.00207191
0.0350656
0.00184253
0.0344798
0.00174426
0.0338579
0.00166366
0.0332532
0.00148348
0.032809
0.00110481
0.0325451
0.000731607
0.0324404
0.000379685
0.0324693
6.65578e-05
0.0326527
-0.000266999
0.0329584
-0.000565131
0.0333858
-0.00085911
0.0339148
-0.00109896
0.0345152
-0.00130521
0.035186
-0.00152262
0.0359772
-0.00175893
0.0369363
-0.00198577
0.0380092
-0.00209545
0.0390843
-0.00201493
0.0400335
-0.00179926
0.040738
-0.00142388
0.0411687
-0.000986034
0.0413778
-0.000632343
0.0414183
-0.000355447
0.0413334
-0.000106958
0.0410622
0.000245972
0.0406421
0.000630694
0.0401149
0.000971118
0.0394976
0.00121693
0.0387835
0.00145491
0.0379363
0.00171154
0.0369334
0.00193214
0.0358336
0.00197801
0.0347571
0.00180348
0.0337852
0.00150728
0.0329117
0.00126799
0.0320482
0.00124285
0.0310547
0.00151411
0.0298112
0.00199422
0.0283117
0.00246299
0.0266805
0.0027331
0.0251628
0.00263504
0.0239862
0.00210893
0.023161
0.00145106
0.0225463
0.00091253
0.0220381
0.000606271
0.0215738
0.000567194
0.0211358
0.00066687
0.0206465
0.000930128
0.0201862
0.00108697
0.0197582
0.00081385
0.0194462
0.000427775
0.0193498
8.05126e-05
0.0193513
-6.29555e-05
0.0193447
-2.34896e-05
0.019194
0.000169342
0.0189126
0.000321153
0.0186552
0.000320445
0.0184892
0.000216328
0.0184606
9.83138e-05
0.0184701
1.4067e-05
0.0186335
-0.000175423
0.0188251
-0.000213549
0.019008
-0.00027
0.0191154
-0.000198946
0.0191334
-0.000138091
0.0191355
-0.000100135
0.0190892
-3.03393e-05
0.0190254
1.31462e-05
0.0190282
6.76353e-05
0.019047
9.33049e-05
0.019037
0.000176532
0.018853
0.000509962
0.0178831
0.00125604
0.016273
0.00198928
0.0144036
0.00257273
0.0125813
0.00287104
0.0109078
0.00312699
0.00955164
0.00295727
0.00848946
0.00253929
0.00759482
0.00221786
0.00682673
0.00192608
0.00620684
0.00157983
0.00566616
0.00144552
0.00500986
0.00169048
0.00412356
0.00205741
0.00296522
0.00243087
0.00156537
0.00286746
0.000135492
0.00303341
-0.0011221
0.00284221
-0.00217177
0.00256354
-0.00306286
0.00234554
-0.00380667
0.00215079
-0.00445385
0.00194634
-0.00504164
0.00177212
-0.00564302
0.00176162
-0.00615579
0.00156531
-0.00642024
0.00107992
-0.00659552
0.000802764
-0.00677689
0.000646454
-0.00676042
0.000258801
-0.00645928
-0.000229258
-0.0058753
-0.000733393
-0.00499208
-0.00119504
-0.00385595
-0.00167229
-0.00250773
-0.0020813
-0.00100248
-0.00244781
0.000605412
-0.00268555
0.00239954
-0.00310741
0.0044467
-0.00364891
0.00671507
-0.00403839
0.00910646
-0.00416926
0.0114628
-0.00408331
0.0136002
-0.00397698
0.0153778
-0.00387682
0.0168649
-0.00374846
0.0182525
-0.00362004
0.0196352
-0.00349081
0.0210444
-0.00338342
0.0224895
-0.00330303
0.0239333
-0.00315824
0.0252916
-0.00287605
0.0265449
-0.00254696
0.0277537
-0.00231849
0.0289666
-0.00211196
0.0301574
-0.00179543
0.0313076
-0.00144919
0.0323577
-0.00115424
0.0331662
-0.000872259
0.0336242
-0.000563301
0.0337656
-0.000176031
0.0337909
0.000110847
0.0338359
0.000264017
0.0339063
0.00033734
0.0339679
0.000385713
0.0340157
0.000397108
0.0340242
0.000424035
0.0339846
0.000514884
0.0338497
0.000682267
0.0336219
0.000870957
0.0333758
0.000986965
0.0331735
0.00104317
0.0330765
0.00097482
0.0330433
0.00083426
0.0330639
0.000722379
0.03311
0.000648564
0.0331231
0.000641252
0.0331043
0.000675965
0.0330552