/*--------------------------------*- C++ -*----------------------------------*\
| =========                 |                                                 |
| \\      /  F ield         | OpenFOAM: The Open Source CFD Toolbox           |
|  \\    /   O peration     | Version:  v1812                                 |
|   \\  /    A nd           | Web:      www.OpenFOAM.com                      |
|    \\/     M anipulation  |                                                 |
\*---------------------------------------------------------------------------*/
FoamFile
{
    version     2.0;
    format      ascii;
    class       volScalarField;
    location    "0.8";
    object      T;
}
// * * * * * * * * * * * * * * * * * * * * * * * * * * * * * * * * * * * * * //

dimensions      [0 0 0 1 0 0 0];


internalField   nonuniform List<scalar> 
20400
(
288.347
288.322
288.27
288.199
288.121
288.041
287.964
287.893
287.832
287.778
287.733
287.697
287.672
287.656
287.65
287.653
287.664
287.685
287.713
287.749
287.791
287.836
287.883
287.93
287.974
288.013
288.046
288.072
288.093
288.11
288.127
288.144
288.164
288.191
288.227
288.268
288.318
288.375
288.442
288.518
288.605
288.703
288.814
288.934
289.064
289.195
289.315
289.41
289.459
289.46
289.398
289.267
289.063
288.793
288.484
288.18
287.93
287.772
287.717
287.746
287.849
288.003
288.187
288.384
288.583
288.778
288.965
289.147
289.32
289.485
289.632
289.759
289.865
289.952
290.026
290.089
290.143
290.192
290.233
290.273
290.317
290.361
290.407
290.453
290.498
290.529
290.549
290.546
290.523
290.496
290.468
290.439
290.429
290.43
290.436
290.436
290.429
290.415
290.399
290.393
290.352
290.31
290.276
290.236
290.183
290.105
289.975
289.882
289.779
289.648
289.491
289.315
289.129
288.936
288.737
288.547
288.375
288.224
288.087
287.961
287.843
287.729
287.629
287.535
287.468
287.423
287.396
287.384
287.384
287.392
287.408
287.428
287.453
287.482
287.514
287.552
287.594
287.641
287.691
287.743
287.798
287.854
287.913
287.974
288.038
288.106
288.173
288.241
288.309
288.376
288.441
288.506
288.57
288.634
288.698
288.761
288.823
288.883
288.942
289.001
289.061
289.12
289.177
289.231
289.28
289.322
289.36
289.392
289.419
289.441
289.459
289.475
289.49
289.505
289.52
289.534
289.546
289.554
289.558
289.559
289.558
289.558
289.56
289.564
289.571
289.578
289.587
289.595
289.604
289.61
289.625
289.639
289.655
289.672
289.687
289.704
289.72
289.737
289.752
289.767
289.78
289.792
289.802
289.811
289.818
289.826
289.832
289.84
289.848
289.856
289.865
289.876
289.886
289.899
289.913
289.926
289.945
289.96
289.977
289.993
290.004
290.013
290.023
290.029
290.032
290.034
290.036
290.036
290.037
290.037
290.032
290.016
289.996
289.985
289.968
289.951
289.936
289.926
289.917
289.912
289.911
289.909
289.909
289.908
289.909
289.914
289.919
289.924
289.934
289.945
289.957
289.971
289.985
290.003
290.025
290.046
290.067
290.09
290.113
290.137
290.161
290.185
290.21
290.238
290.267
290.297
290.327
290.359
290.391
290.425
290.459
290.492
290.525
290.558
290.592
290.626
290.661
290.694
290.727
290.758
290.789
290.819
290.848
290.879
290.908
290.938
290.967
290.996
291.023
291.051
291.077
291.104
291.13
291.155
291.181
291.206
291.23
291.254
291.278
291.301
291.324
291.346
291.368
291.39
291.412
291.433
291.454
291.476
291.497
291.518
291.538
291.559
291.58
291.6
291.62
291.641
291.661
291.682
291.704
291.725
291.747
291.768
291.79
291.812
291.834
291.857
291.879
291.902
291.926
291.95
291.973
291.998
292.022
292.047
292.071
292.097
292.122
292.148
292.174
292.201
292.227
292.254
292.281
292.308
292.335
292.362
292.389
292.417
292.444
292.472
292.5
292.527
292.555
292.583
292.61
292.638
292.665
292.692
292.719
292.746
292.773
292.8
292.826
292.853
292.878
292.904
292.929
292.955
292.979
293.004
293.028
293.051
293.074
293.097
293.119
293.141
293.163
293.184
293.205
293.225
293.245
293.264
293.282
293.3
293.318
293.335
293.351
293.367
293.383
293.398
293.413
293.427
293.44
293.453
293.465
293.478
293.489
293.501
293.512
293.523
293.533
293.544
293.553
293.562
293.571
293.58
293.588
293.597
293.605
293.613
293.62
293.628
293.635
293.642
293.648
293.655
293.661
293.668
293.674
293.68
293.686
293.692
293.698
293.704
293.71
293.715
293.721
293.727
293.733
293.739
293.746
293.752
293.758
293.764
293.77
293.776
293.783
293.789
293.795
293.801
293.807
293.813
293.819
293.826
293.832
293.838
293.845
293.851
293.857
293.863
293.868
293.874
293.88
293.885
293.891
293.896
293.902
293.907
293.912
293.917
293.922
293.926
293.93
293.934
293.938
293.942
293.946
293.949
293.953
293.956
293.959
293.962
293.964
293.967
293.969
293.971
293.972
293.974
293.975
293.976
293.977
293.978
293.979
293.979
293.98
293.98
293.98
293.979
293.979
293.978
293.977
293.976
293.974
293.972
293.971
293.969
293.967
293.965
293.962
293.959
288.272
288.245
288.189
288.114
288.031
287.947
287.867
287.796
287.735
287.686
287.644
287.612
287.589
287.576
287.572
287.581
287.594
287.616
287.646
287.684
287.727
287.775
287.826
287.878
287.929
287.978
288.022
288.061
288.096
288.128
288.158
288.188
288.219
288.255
288.294
288.336
288.383
288.435
288.491
288.553
288.622
288.698
288.784
288.878
288.981
289.088
289.192
289.281
289.338
289.35
289.308
289.204
289.028
288.783
288.49
288.195
287.947
287.795
287.755
287.819
287.969
288.171
288.403
288.642
288.875
289.091
289.288
289.477
289.657
289.829
289.987
290.134
290.268
290.385
290.487
290.578
290.66
290.739
290.814
290.889
290.964
291.042
291.11
291.186
291.229
291.239
291.272
291.308
291.287
291.268
291.27
291.272
291.269
291.269
291.271
291.271
291.267
291.257
291.245
291.23
291.23
291.21
291.189
291.168
291.144
291.121
291.084
291.052
291.019
290.974
290.917
290.845
290.755
290.638
290.478
290.252
289.955
289.664
289.423
289.228
289.035
288.814
288.565
288.309
288.07
287.876
287.729
287.624
287.555
287.516
287.495
287.486
287.487
287.496
287.515
287.544
287.584
287.632
287.683
287.739
287.799
287.86
287.923
287.989
288.058
288.131
288.207
288.284
288.362
288.439
288.513
288.584
288.651
288.714
288.772
288.822
288.864
288.898
288.927
288.955
288.982
289.012
289.046
289.082
289.12
289.157
289.192
289.223
289.25
289.272
289.29
289.303
289.316
289.329
289.347
289.371
289.399
289.429
289.455
289.471
289.476
289.474
289.47
289.468
289.471
289.477
289.485
289.49
289.493
289.491
289.496
289.496
289.5
289.507
289.515
289.526
289.54
289.555
289.573
289.593
289.613
289.634
289.655
289.675
289.694
289.713
289.731
289.748
289.766
289.782
289.801
289.821
289.841
289.868
289.898
289.93
289.967
290.003
290.041
290.078
290.112
290.143
290.171
290.193
290.208
290.219
290.228
290.237
290.251
290.27
290.285
290.295
290.293
290.269
290.246
290.22
290.195
290.177
290.162
290.152
290.15
290.148
290.152
290.156
290.162
290.168
290.175
290.182
290.192
290.204
290.217
290.229
290.241
290.252
290.263
290.272
290.277
290.281
290.283
290.282
290.281
290.279
290.276
290.275
290.276
290.279
290.285
290.292
290.303
290.32
290.339
290.36
290.383
290.409
290.437
290.468
290.502
290.538
290.574
290.61
290.644
290.676
290.706
290.737
290.768
290.799
290.832
290.865
290.897
290.928
290.958
290.987
291.016
291.044
291.071
291.099
291.127
291.154
291.181
291.207
291.232
291.257
291.281
291.306
291.329
291.353
291.376
291.399
291.421
291.444
291.466
291.489
291.511
291.533
291.555
291.576
291.598
291.619
291.641
291.663
291.685
291.707
291.729
291.751
291.773
291.796
291.819
291.842
291.866
291.89
291.915
291.939
291.963
291.988
292.012
292.037
292.061
292.087
292.112
292.139
292.165
292.193
292.22
292.247
292.274
292.301
292.328
292.355
292.382
292.409
292.437
292.464
292.492
292.519
292.547
292.574
292.601
292.628
292.656
292.682
292.709
292.736
292.762
292.788
292.813
292.839
292.864
292.889
292.913
292.938
292.962
292.985
293.009
293.031
293.053
293.075
293.096
293.117
293.137
293.157
293.176
293.195
293.214
293.232
293.249
293.266
293.283
293.299
293.314
293.329
293.344
293.358
293.372
293.385
293.397
293.409
293.42
293.431
293.442
293.452
293.462
293.473
293.482
293.492
293.501
293.509
293.517
293.525
293.532
293.54
293.547
293.555
293.562
293.569
293.576
293.582
293.589
293.595
293.601
293.607
293.613
293.619
293.626
293.632
293.637
293.643
293.648
293.654
293.66
293.665
293.671
293.678
293.684
293.69
293.696
293.702
293.708
293.714
293.72
293.726
293.732
293.738
293.744
293.75
293.756
293.762
293.768
293.774
293.78
293.786
293.792
293.798
293.803
293.809
293.814
293.819
293.824
293.829
293.834
293.84
293.845
293.849
293.854
293.858
293.862
293.866
293.869
293.872
293.876
293.879
293.882
293.885
293.888
293.891
293.893
293.894
293.896
293.897
293.897
293.898
293.899
293.9
293.901
293.901
293.902
293.902
293.901
293.901
293.9
293.9
293.899
293.897
293.896
293.895
293.893
293.891
293.89
293.888
293.886
293.884
288.137
288.108
288.045
287.96
287.868
287.779
287.697
287.628
287.572
287.527
287.493
287.469
287.452
287.444
287.445
287.453
287.466
287.491
287.528
287.572
287.622
287.676
287.737
287.802
287.869
287.934
287.996
288.056
288.117
288.177
288.232
288.281
288.329
288.381
288.427
288.467
288.509
288.55
288.589
288.627
288.672
288.718
288.769
288.826
288.89
288.959
289.026
289.085
289.124
289.123
289.08
288.986
288.836
288.631
288.393
288.152
287.966
287.872
287.882
287.997
288.2
288.453
288.736
289.023
289.297
289.545
289.77
289.983
290.182
290.365
290.532
290.694
290.854
291.002
291.136
291.251
291.354
291.446
291.524
291.589
291.638
291.675
291.706
291.708
291.706
291.725
291.702
291.654
291.656
291.659
291.634
291.611
291.597
291.585
291.57
291.551
291.53
291.506
291.479
291.45
291.416
291.382
291.349
291.315
291.281
291.247
291.216
291.193
291.181
291.182
291.195
291.22
291.253
291.289
291.328
291.358
291.352
291.311
291.232
291.128
290.988
290.78
290.48
290.099
289.661
289.222
288.832
288.514
288.276
288.105
287.984
287.895
287.827
287.773
287.73
287.704
287.709
287.726
287.759
287.804
287.86
287.926
287.994
288.064
288.138
288.22
288.307
288.402
288.503
288.61
288.719
288.83
288.938
289.046
289.147
289.238
289.31
289.354
289.368
289.364
289.344
289.315
289.287
289.265
289.24
289.222
289.205
289.19
289.177
289.165
289.152
289.14
289.127
289.113
289.107
289.108
289.117
289.145
289.192
289.241
289.271
289.278
289.275
289.271
289.272
289.282
289.3
289.319
289.334
289.339
289.346
289.34
289.331
289.324
289.318
289.314
289.314
289.319
289.327
289.343
289.367
289.396
289.428
289.464
289.502
289.54
289.577
289.613
289.648
289.683
289.72
289.758
289.796
289.833
289.876
289.927
289.984
290.046
290.115
290.19
290.262
290.332
290.4
290.457
290.498
290.525
290.544
290.561
290.584
290.612
290.636
290.649
290.646
290.62
290.575
290.521
290.467
290.418
290.373
290.336
290.311
290.287
290.272
290.26
290.255
290.255
290.261
290.272
290.293
290.324
290.366
290.414
290.464
290.512
290.553
290.588
290.621
290.651
290.679
290.702
290.712
290.709
290.691
290.659
290.619
290.572
290.526
290.485
290.447
290.406
290.367
290.331
290.307
290.292
290.286
290.286
290.294
290.31
290.333
290.359
290.388
290.417
290.444
290.474
290.504
290.536
290.57
290.605
290.642
290.678
290.714
290.747
290.78
290.811
290.843
290.874
290.907
290.941
290.975
291.007
291.039
291.069
291.098
291.127
291.156
291.185
291.214
291.241
291.268
291.295
291.321
291.347
291.374
291.401
291.427
291.453
291.477
291.501
291.524
291.548
291.572
291.596
291.621
291.645
291.669
291.693
291.716
291.74
291.764
291.789
291.815
291.84
291.866
291.891
291.916
291.94
291.964
291.989
292.014
292.04
292.066
292.093
292.121
292.149
292.176
292.204
292.23
292.257
292.283
292.31
292.337
292.364
292.392
292.42
292.448
292.475
292.502
292.529
292.555
292.582
292.608
292.634
292.66
292.686
292.712
292.738
292.763
292.787
292.811
292.835
292.859
292.882
292.906
292.929
292.952
292.973
292.994
293.014
293.033
293.052
293.071
293.09
293.108
293.127
293.145
293.162
293.179
293.194
293.209
293.223
293.238
293.252
293.266
293.28
293.293
293.305
293.316
293.326
293.336
293.345
293.355
293.365
293.375
293.385
293.395
293.404
293.412
293.419
293.425
293.431
293.438
293.444
293.451
293.459
293.466
293.474
293.481
293.487
293.492
293.497
293.502
293.508
293.514
293.52
293.527
293.534
293.54
293.546
293.551
293.556
293.561
293.566
293.572
293.579
293.585
293.592
293.598
293.604
293.61
293.615
293.621
293.627
293.633
293.639
293.644
293.65
293.656
293.661
293.667
293.674
293.679
293.685
293.69
293.695
293.7
293.705
293.71
293.715
293.72
293.725
293.729
293.734
293.738
293.743
293.748
293.752
293.756
293.759
293.762
293.764
293.766
293.769
293.771
293.774
293.777
293.78
293.782
293.784
293.784
293.784
293.783
293.783
293.782
293.782
293.783
293.784
293.784
293.784
293.784
293.783
293.782
293.78
293.778
293.777
293.775
293.774
293.772
293.77
293.767
293.766
287.944
287.911
287.837
287.74
287.637
287.54
287.456
287.388
287.338
287.302
287.278
287.266
287.262
287.267
287.282
287.303
287.336
287.377
287.423
287.478
287.543
287.616
287.694
287.776
287.861
287.95
288.042
288.134
288.223
288.306
288.385
288.458
288.519
288.559
288.593
288.624
288.644
288.658
288.67
288.678
288.684
288.696
288.716
288.741
288.77
288.8
288.827
288.843
288.838
288.807
288.743
288.648
288.523
288.374
288.219
288.085
288.013
288.008
288.096
288.256
288.48
288.741
289.033
289.34
289.638
289.913
290.164
290.401
290.624
290.834
291.028
291.203
291.35
291.469
291.564
291.633
291.686
291.722
291.738
291.742
291.737
291.719
291.69
291.652
291.614
291.573
291.52
291.464
291.414
291.36
291.303
291.258
291.218
291.181
291.145
291.106
291.062
291.012
290.955
290.893
290.831
290.768
290.709
290.65
290.589
290.521
290.457
290.394
290.332
290.282
290.255
290.255
290.279
290.349
290.486
290.707
290.995
291.271
291.486
291.664
291.798
291.835
291.817
291.712
291.455
291.069
290.62
290.16
289.715
289.32
288.989
288.733
288.547
288.404
288.284
288.184
288.111
288.066
288.039
288.045
288.067
288.107
288.164
288.238
288.318
288.407
288.504
288.607
288.72
288.842
288.975
289.118
289.269
289.427
289.594
289.768
289.937
290.078
290.17
290.204
290.201
290.172
290.118
290.051
289.973
289.881
289.779
289.678
289.582
289.492
289.411
289.337
289.273
289.217
289.164
289.108
289.041
288.975
288.947
288.949
288.964
288.978
288.974
288.964
288.963
288.973
289.001
289.041
289.085
289.128
289.161
289.173
289.175
289.173
289.166
289.155
289.142
289.132
289.132
289.136
289.148
289.173
289.21
289.257
289.308
289.367
289.427
289.491
289.557
289.608
289.663
289.723
289.777
289.828
289.886
289.945
290.014
290.09
290.183
290.292
290.407
290.523
290.633
290.734
290.809
290.853
290.877
290.897
290.917
290.933
290.935
290.918
290.878
290.805
290.697
290.566
290.432
290.306
290.185
290.078
289.984
289.894
289.811
289.739
289.682
289.638
289.611
289.594
289.59
289.61
289.664
289.756
289.881
290.024
290.167
290.301
290.428
290.546
290.657
290.764
290.865
290.954
291.027
291.08
291.112
291.125
291.119
291.087
291.031
290.957
290.863
290.757
290.647
290.547
290.462
290.393
290.336
290.288
290.249
290.223
290.208
290.201
290.199
290.206
290.219
290.237
290.259
290.286
290.316
290.349
290.383
290.417
290.452
290.486
290.52
290.555
290.589
290.626
290.663
290.702
290.741
290.779
290.818
290.855
290.893
290.929
290.965
291.001
291.035
291.07
291.104
291.139
291.174
291.208
291.241
291.274
291.306
291.337
291.367
291.397
291.427
291.457
291.486
291.515
291.543
291.57
291.597
291.624
291.651
291.679
291.706
291.733
291.76
291.787
291.813
291.84
291.867
291.893
291.92
291.946
291.971
291.997
292.023
292.049
292.076
292.103
292.131
292.159
292.186
292.214
292.242
292.269
292.296
292.323
292.35
292.376
292.403
292.429
292.456
292.483
292.509
292.536
292.562
292.588
292.613
292.639
292.663
292.688
292.712
292.736
292.759
292.782
292.805
292.828
292.85
292.872
292.893
292.913
292.933
292.953
292.972
292.99
293.008
293.025
293.042
293.058
293.074
293.09
293.105
293.12
293.135
293.149
293.162
293.176
293.188
293.2
293.211
293.222
293.233
293.243
293.253
293.262
293.271
293.28
293.288
293.296
293.304
293.312
293.319
293.326
293.333
293.339
293.346
293.352
293.358
293.365
293.371
293.377
293.383
293.389
293.394
293.4
293.406
293.412
293.418
293.423
293.429
293.434
293.44
293.446
293.451
293.457
293.464
293.47
293.476
293.482
293.487
293.492
293.498
293.504
293.51
293.516
293.522
293.528
293.534
293.539
293.544
293.55
293.555
293.561
293.566
293.572
293.577
293.582
293.587
293.592
293.597
293.602
293.606
293.611
293.615
293.619
293.623
293.627
293.632
293.636
293.639
293.643
293.646
293.649
293.652
293.655
293.657
293.66
293.661
293.663
293.664
293.665
293.666
293.667
293.668
293.668
293.669
293.668
293.668
293.667
293.666
293.664
293.663
293.662
293.661
293.66
293.66
293.659
293.657
293.655
293.653
293.65
293.647
293.645
287.72
287.682
287.598
287.491
287.379
287.279
287.197
287.138
287.099
287.078
287.071
287.075
287.089
287.111
287.143
287.182
287.231
287.29
287.357
287.433
287.518
287.613
287.717
287.828
287.945
288.067
288.191
288.312
288.426
288.528
288.612
288.672
288.706
288.714
288.71
288.695
288.669
288.64
288.613
288.588
288.568
288.554
288.547
288.545
288.547
288.546
288.537
288.516
288.481
288.432
288.37
288.302
288.234
288.175
288.138
288.125
288.159
288.253
288.401
288.583
288.787
289.024
289.285
289.581
289.884
290.172
290.435
290.675
290.887
291.073
291.227
291.35
291.443
291.503
291.537
291.546
291.536
291.504
291.45
291.368
291.283
291.201
291.126
291.05
290.979
290.912
290.854
290.805
290.764
290.72
290.682
290.654
290.631
290.609
290.584
290.555
290.523
290.483
290.437
290.375
290.307
290.239
290.173
290.105
290.034
289.959
289.878
289.789
289.693
289.594
289.496
289.405
289.322
289.271
289.276
289.346
289.517
289.773
290.077
290.418
290.787
291.182
291.58
291.935
292.109
292.111
292.042
291.829
291.468
291.023
290.559
290.146
289.816
289.555
289.343
289.165
289.008
288.862
288.718
288.586
288.52
288.53
288.565
288.632
288.712
288.802
288.898
289.002
289.118
289.246
289.386
289.542
289.709
289.89
290.084
290.294
290.517
290.741
290.942
291.097
291.191
291.228
291.228
291.207
291.144
291.036
290.887
290.716
290.539
290.367
290.205
290.05
289.901
289.764
289.641
289.519
289.386
289.236
289.091
288.97
288.867
288.789
288.728
288.682
288.654
288.642
288.65
288.686
288.749
288.81
288.858
288.89
288.935
288.98
289.018
289.033
289.028
289.012
288.995
288.984
288.986
289.005
289.039
289.092
289.16
289.235
289.319
289.412
289.503
289.583
289.663
289.739
289.803
289.868
289.933
289.997
290.072
290.16
290.268
290.399
290.555
290.715
290.87
291.008
291.117
291.176
291.2
291.208
291.199
291.167
291.098
290.992
290.865
290.714
290.527
290.294
290.044
289.802
289.566
289.349
289.177
289.026
288.89
288.772
288.671
288.589
288.528
288.478
288.436
288.409
288.409
288.444
288.528
288.652
288.804
288.969
289.14
289.32
289.512
289.721
289.952
290.205
290.475
290.742
290.985
291.185
291.34
291.453
291.528
291.55
291.542
291.494
291.389
291.257
291.129
291.006
290.879
290.747
290.615
290.489
290.377
290.284
290.208
290.147
290.102
290.077
290.063
290.055
290.053
290.058
290.067
290.082
290.1
290.121
290.146
290.173
290.202
290.233
290.268
290.305
290.345
290.387
290.431
290.476
290.522
290.567
290.612
290.656
290.7
290.744
290.79
290.836
290.883
290.929
290.975
291.02
291.063
291.105
291.146
291.187
291.227
291.267
291.306
291.344
291.382
291.418
291.453
291.487
291.522
291.555
291.588
291.621
291.652
291.683
291.714
291.743
291.773
291.802
291.831
291.859
291.887
291.915
291.942
291.969
291.996
292.023
292.05
292.077
292.104
292.132
292.159
292.187
292.214
292.242
292.269
292.296
292.323
292.349
292.376
292.402
292.428
292.454
292.48
292.505
292.531
292.556
292.581
292.606
292.629
292.653
292.677
292.7
292.723
292.745
292.767
292.789
292.81
292.83
292.849
292.869
292.888
292.906
292.924
292.941
292.958
292.974
292.99
293.005
293.02
293.035
293.049
293.063
293.076
293.089
293.101
293.113
293.125
293.135
293.146
293.156
293.165
293.174
293.183
293.192
293.2
293.209
293.217
293.224
293.232
293.238
293.245
293.251
293.257
293.263
293.268
293.274
293.28
293.286
293.292
293.298
293.304
293.31
293.315
293.32
293.325
293.331
293.336
293.342
293.347
293.353
293.358
293.364
293.371
293.377
293.382
293.388
293.394
293.4
293.405
293.41
293.416
293.422
293.428
293.434
293.439
293.445
293.45
293.456
293.461
293.467
293.472
293.477
293.482
293.487
293.492
293.497
293.502
293.506
293.51
293.515
293.519
293.523
293.526
293.53
293.534
293.538
293.541
293.545
293.548
293.551
293.554
293.556
293.558
293.561
293.563
293.564
293.565
293.566
293.567
293.568
293.569
293.569
293.569
293.568
293.568
293.568
293.566
293.565
293.563
293.562
293.56
293.559
293.558
293.556
293.555
293.553
293.551
293.548
293.546
293.543
287.49
287.449
287.355
287.24
287.124
287.026
286.953
286.908
286.886
286.884
286.897
286.922
286.957
287.001
287.054
287.115
287.185
287.265
287.356
287.457
287.569
287.693
287.83
287.978
288.134
288.292
288.444
288.58
288.693
288.774
288.814
288.816
288.79
288.736
288.668
288.595
288.523
288.455
288.395
288.347
288.31
288.284
288.266
288.252
288.242
288.228
288.21
288.189
288.168
288.151
288.142
288.147
288.171
288.207
288.258
288.335
288.445
288.586
288.749
288.92
289.092
289.278
289.492
289.743
290.002
290.242
290.463
290.673
290.863
291.022
291.141
291.219
291.258
291.258
291.223
291.14
291.049
290.946
290.839
290.738
290.605
290.494
290.419
290.339
290.272
290.221
290.182
290.154
290.133
290.118
290.106
290.102
290.098
290.093
290.084
290.074
290.062
290.047
290.03
289.999
289.956
289.904
289.844
289.776
289.7
289.615
289.522
289.421
289.312
289.199
289.082
288.963
288.841
288.715
288.601
288.557
288.565
288.614
288.732
288.923
289.191
289.551
290.032
290.614
291.198
291.689
292.085
292.343
292.366
292.303
292.092
291.754
291.371
291.014
290.718
290.474
290.25
290.011
289.744
289.487
289.305
289.284
289.304
289.347
289.408
289.485
289.573
289.673
289.794
289.932
290.079
290.242
290.415
290.599
290.797
291.012
291.242
291.479
291.707
291.911
292.081
292.214
292.302
292.323
292.312
292.263
292.16
292.006
291.82
291.618
291.415
291.207
290.993
290.784
290.581
290.379
290.163
289.918
289.646
289.373
289.139
288.968
288.843
288.743
288.649
288.535
288.444
288.42
288.422
288.449
288.466
288.492
288.55
288.644
288.755
288.849
288.891
288.894
288.882
288.863
288.865
288.875
288.903
288.954
289.025
289.115
289.223
289.34
289.458
289.568
289.673
289.766
289.851
289.932
290.014
290.09
290.175
290.279
290.404
290.557
290.738
290.926
291.105
291.262
291.389
291.46
291.46
291.436
291.374
291.263
291.104
290.917
290.694
290.441
290.156
289.843
289.506
289.192
288.909
288.661
288.468
288.316
288.192
288.088
287.994
287.912
287.842
287.784
287.731
287.679
287.637
287.609
287.599
287.608
287.642
287.697
287.772
287.874
288.003
288.164
288.36
288.602
288.902
289.256
289.652
290.061
290.464
290.845
291.196
291.488
291.706
291.847
291.917
291.925
291.915
291.871
291.771
291.619
291.434
291.228
291.019
290.817
290.639
290.489
290.366
290.269
290.189
290.121
290.059
290
289.947
289.902
289.867
289.845
289.832
289.826
289.826
289.832
289.845
289.865
289.891
289.923
289.96
290.002
290.047
290.093
290.14
290.189
290.239
290.292
290.347
290.404
290.463
290.522
290.582
290.641
290.701
290.759
290.817
290.874
290.93
290.985
291.039
291.091
291.143
291.193
291.243
291.292
291.339
291.385
291.43
291.473
291.515
291.555
291.594
291.632
291.669
291.705
291.74
291.773
291.805
291.837
291.867
291.897
291.926
291.955
291.983
292.011
292.039
292.066
292.094
292.122
292.149
292.177
292.204
292.231
292.258
292.285
292.312
292.338
292.364
292.39
292.415
292.441
292.466
292.491
292.515
292.54
292.564
292.588
292.611
292.635
292.657
292.679
292.701
292.723
292.743
292.764
292.783
292.803
292.822
292.84
292.858
292.875
292.891
292.907
292.923
292.938
292.953
292.967
292.981
292.995
293.008
293.02
293.032
293.044
293.055
293.066
293.076
293.087
293.096
293.105
293.114
293.122
293.13
293.138
293.146
293.154
293.161
293.168
293.174
293.181
293.187
293.192
293.198
293.203
293.209
293.214
293.22
293.226
293.231
293.237
293.243
293.248
293.253
293.258
293.263
293.268
293.273
293.278
293.284
293.29
293.296
293.302
293.308
293.313
293.319
293.325
293.33
293.336
293.341
293.347
293.353
293.358
293.364
293.369
293.375
293.38
293.386
293.391
293.396
293.401
293.406
293.411
293.416
293.421
293.426
293.43
293.434
293.438
293.442
293.446
293.45
293.453
293.457
293.46
293.463
293.466
293.469
293.472
293.475
293.478
293.48
293.482
293.484
293.485
293.486
293.487
293.487
293.488
293.488
293.488
293.489
293.489
293.488
293.488
293.487
293.485
293.483
293.481
293.479
293.478
293.476
293.475
293.473
293.471
293.469
293.466
293.464
293.461
287.277
287.234
287.135
287.018
286.906
286.819
286.763
286.739
286.74
286.761
286.798
286.846
286.904
286.97
287.044
287.127
287.22
287.323
287.438
287.567
287.71
287.869
288.044
288.23
288.421
288.602
288.757
288.871
288.934
288.941
288.897
288.815
288.71
288.594
288.472
288.351
288.241
288.148
288.078
288.03
287.999
287.982
287.974
287.973
287.976
287.983
287.993
288.014
288.048
288.096
288.157
288.229
288.316
288.413
288.522
288.638
288.764
288.899
289.039
289.179
289.315
289.455
289.61
289.789
289.988
290.196
290.383
290.549
290.687
290.791
290.838
290.851
290.832
290.779
290.676
290.546
290.411
290.281
290.165
290.065
289.966
289.873
289.814
289.784
289.764
289.754
289.751
289.75
289.751
289.752
289.752
289.755
289.756
289.752
289.741
289.722
289.703
289.684
289.664
289.637
289.604
289.559
289.5
289.43
289.351
289.266
289.172
289.068
288.958
288.847
288.735
288.625
288.513
288.396
288.282
288.177
288.083
288.014
288.011
288.038
288.122
288.291
288.575
289.001
289.566
290.243
290.957
291.579
292.037
292.396
292.621
292.634
292.563
292.386
292.152
291.897
291.625
291.317
290.976
290.649
290.43
290.346
290.335
290.343
290.362
290.407
290.485
290.597
290.739
290.893
291.05
291.212
291.381
291.559
291.745
291.943
292.155
292.373
292.583
292.775
292.941
293.083
293.201
293.283
293.304
293.295
293.254
293.167
293.035
292.871
292.689
292.49
292.267
292.028
291.78
291.523
291.247
290.937
290.587
290.214
289.858
289.565
289.338
289.157
288.977
288.777
288.58
288.405
288.283
288.19
288.143
288.126
288.148
288.23
288.381
288.551
288.664
288.714
288.72
288.725
288.734
288.75
288.778
288.821
288.884
288.969
289.083
289.216
289.361
289.508
289.649
289.783
289.9
290.01
290.119
290.224
290.33
290.454
290.591
290.751
290.935
291.126
291.311
291.473
291.605
291.65
291.634
291.574
291.455
291.269
291.036
290.764
290.452
290.114
289.757
289.396
289.051
288.746
288.499
288.303
288.162
288.051
287.959
287.883
287.804
287.73
287.664
287.608
287.547
287.487
287.429
287.371
287.312
287.251
287.196
287.151
287.119
287.111
287.125
287.171
287.251
287.367
287.529
287.753
288.045
288.398
288.801
289.248
289.733
290.24
290.735
291.187
291.569
291.865
292.084
292.238
292.312
292.312
292.274
292.168
291.99
291.769
291.534
291.307
291.1
290.917
290.758
290.614
290.479
290.348
290.219
290.095
289.978
289.869
289.771
289.686
289.616
289.563
289.528
289.507
289.495
289.492
289.495
289.508
289.529
289.557
289.59
289.629
289.673
289.722
289.776
289.835
289.899
289.967
290.038
290.112
290.187
290.264
290.34
290.415
290.49
290.563
290.636
290.708
290.779
290.85
290.92
290.988
291.055
291.121
291.184
291.245
291.304
291.362
291.417
291.47
291.52
291.569
291.616
291.661
291.703
291.743
291.781
291.817
291.852
291.886
291.918
291.949
291.979
292.009
292.038
292.066
292.095
292.122
292.15
292.178
292.205
292.232
292.259
292.285
292.312
292.337
292.363
292.388
292.413
292.438
292.462
292.487
292.511
292.534
292.558
292.581
292.603
292.626
292.647
292.669
292.689
292.71
292.73
292.749
292.768
292.786
292.804
292.821
292.837
292.854
292.869
292.884
292.899
292.913
292.927
292.94
292.953
292.965
292.977
292.988
293
293.01
293.021
293.03
293.04
293.049
293.058
293.066
293.074
293.081
293.089
293.096
293.103
293.11
293.117
293.123
293.129
293.135
293.141
293.146
293.151
293.156
293.162
293.167
293.173
293.178
293.184
293.189
293.194
293.199
293.204
293.209
293.214
293.219
293.224
293.229
293.235
293.241
293.247
293.253
293.259
293.264
293.27
293.275
293.281
293.286
293.291
293.297
293.302
293.308
293.313
293.319
293.324
293.33
293.335
293.34
293.345
293.35
293.354
293.359
293.364
293.368
293.372
293.376
293.38
293.384
293.387
293.391
293.394
293.397
293.4
293.403
293.406
293.409
293.411
293.414
293.416
293.418
293.42
293.421
293.422
293.423
293.423
293.423
293.423
293.423
293.423
293.423
293.423
293.423
293.422
293.42
293.418
293.416
293.414
293.412
293.41
293.408
293.406
293.405
293.402
293.4
293.397
293.394
287.094
287.05
286.949
286.838
286.739
286.673
286.643
286.645
286.672
286.72
286.782
286.853
286.932
287.019
287.115
287.22
287.336
287.465
287.608
287.768
287.945
288.14
288.348
288.56
288.759
288.926
289.04
289.089
289.069
288.974
288.83
288.662
288.493
288.334
288.185
288.048
287.931
287.841
287.782
287.75
287.74
287.746
287.769
287.802
287.849
287.908
287.973
288.045
288.127
288.223
288.333
288.454
288.578
288.698
288.815
288.927
289.03
289.132
289.232
289.331
289.424
289.514
289.622
289.759
289.914
290.066
290.194
290.29
290.356
290.383
290.369
290.312
290.249
290.161
290.049
289.913
289.785
289.673
289.567
289.5
289.438
289.383
289.363
289.378
289.409
289.447
289.487
289.518
289.54
289.553
289.556
289.555
289.552
289.547
289.536
289.516
289.488
289.452
289.408
289.358
289.3
289.226
289.135
289.031
288.921
288.808
288.697
288.585
288.478
288.378
288.289
288.209
288.131
288.054
287.979
287.902
287.82
287.73
287.641
287.597
287.605
287.648
287.752
287.945
288.259
288.714
289.313
290.024
290.793
291.541
292.133
292.545
292.868
293.016
293.005
292.928
292.754
292.488
292.172
291.867
291.663
291.554
291.495
291.428
291.425
291.446
291.52
291.637
291.783
291.944
292.104
292.259
292.414
292.575
292.74
292.911
293.089
293.267
293.436
293.592
293.728
293.846
293.944
294.024
294.073
294.08
294.07
294.034
293.966
293.863
293.735
293.586
293.402
293.191
292.958
292.703
292.419
292.094
291.724
291.322
290.923
290.562
290.258
289.992
289.711
289.378
289.005
288.656
288.413
288.254