/*--------------------------------*- C++ -*----------------------------------*\
| =========                 |                                                 |
| \\      /  F ield         | OpenFOAM: The Open Source CFD Toolbox           |
|  \\    /   O peration     | Version:  v1812                                 |
|   \\  /    A nd           | Web:      www.OpenFOAM.com                      |
|    \\/     M anipulation  |                                                 |
\*---------------------------------------------------------------------------*/
FoamFile
{
    version     2.0;
    format      ascii;
    class       volVectorField;
    location    "0.8";
    object      U;
}
// * * * * * * * * * * * * * * * * * * * * * * * * * * * * * * * * * * * * * //

dimensions      [0 1 -1 0 0 0 0];


internalField   nonuniform List<vector> 
20400
(
(0.0374534 -0.036014 0)
(0.131118 -0.0439608 0)
(0.219975 -0.0345726 0)
(0.286654 -0.0220487 0)
(0.350004 -0.0168115 0)
(0.416006 -0.0148178 0)
(0.481182 -0.0162116 0)
(0.539088 -0.0149015 0)
(0.589311 -0.00714585 0)
(0.606738 0.0642412 0)
(0.618908 -0.0201475 0)
(0.630012 -0.0692067 0)
(0.623156 -0.084655 0)
(0.620052 -0.100984 0)
(0.622431 -0.092934 0)
(0.625208 0.0629821 0)
(0.61598 0.0964211 0)
(0.622291 0.10614 0)
(0.634075 0.111643 0)
(0.652002 0.113345 0)
(0.676909 0.114021 0)
(0.711415 0.112684 0)
(0.756524 0.113894 0)
(0.80749 0.119067 0)
(0.861504 0.125413 0)
(0.917664 0.133919 0)
(0.973476 0.144273 0)
(1.02516 0.153659 0)
(1.07102 0.159155 0)
(1.11102 0.161568 0)
(1.14769 0.160708 0)
(1.18025 0.158356 0)
(1.20101 0.149641 0)
(1.199 0.121011 0)
(1.17314 0.0680212 0)
(1.14309 -0.0243687 0)
(1.0631 -0.040266 0)
(0.965545 -0.032391 0)
(0.848268 -0.00436743 0)
(0.715664 0.0308674 0)
(0.568517 0.0576988 0)
(0.4093 0.0734935 0)
(0.248381 0.0780109 0)
(0.0890461 0.0808001 0)
(-0.070441 0.0822586 0)
(-0.227023 0.0738862 0)
(-0.374878 0.0680721 0)
(-0.518683 0.0655071 0)
(-0.656758 0.0542563 0)
(-0.778087 0.0328046 0)
(-0.87865 0.0140595 0)
(-0.959841 -0.00308239 0)
(-1.0283 -0.00854354 0)
(-1.0955 -0.000850468 0)
(-1.1714 0.0132588 0)
(-1.25761 -0.00192369 0)
(-1.31257 -0.114107 0)
(-1.33566 -0.283368 0)
(-1.40193 -0.278008 0)
(-1.49727 -0.244407 0)
(-1.56709 -0.179789 0)
(-1.56612 -0.091217 0)
(-1.54943 -0.0919844 0)
(-1.53884 -0.103127 0)
(-1.57266 -0.0887464 0)
(-1.69855 -0.0602054 0)
(-1.94959 -0.073099 0)
(-2.31787 -0.131882 0)
(-2.78853 -0.187197 0)
(-3.35275 -0.211237 0)
(-4.00161 -0.180728 0)
(-4.70486 -0.0621264 0)
(-5.38618 0.142934 0)
(-6.01958 0.329728 0)
(-6.60679 0.41538 0)
(-7.13303 0.426438 0)
(-7.62075 0.436078 0)
(-8.08655 0.437465 0)
(-8.53469 0.446882 0)
(-8.96576 0.402578 0)
(-9.33873 0.342862 0)
(-9.62805 0.250928 0)
(-9.85138 0.181381 0)
(-9.95187 0.0921516 0)
(-9.99891 0.205505 0)
(-10.0405 0.240585 0)
(-9.98719 0.258105 0)
(-9.82501 0.320754 0)
(-9.6098 0.472823 0)
(-9.33347 0.674695 0)
(-8.97517 0.896603 0)
(-8.62465 1.14328 0)
(-8.20746 1.06807 0)
(-7.74928 0.889556 0)
(-7.271 0.583103 0)
(-6.70715 0.322525 0)
(-6.09582 0.170021 0)
(-5.46862 0.0710924 0)
(-4.8309 -0.0399039 0)
(-4.1012 -0.158306 0)
(-3.47632 -0.514651 0)
(-2.83926 -0.52698 0)
(-2.18837 -0.58615 0)
(-1.46121 -0.666129 0)
(-0.665637 -0.700024 0)
(0.147641 -0.488431 0)
(0.868698 -0.152293 0)
(1.60265 -0.039137 0)
(2.36162 -0.112969 0)
(3.11761 -0.275887 0)
(3.83975 -0.393602 0)
(4.48779 -0.425931 0)
(5.0359 -0.451115 0)
(5.48994 -0.450459 0)
(5.85395 -0.42895 0)
(6.14065 -0.35903 0)
(6.34175 -0.173203 0)
(6.47131 0.0418832 0)
(6.49554 0.190771 0)
(6.46289 0.203911 0)
(6.45259 0.105739 0)
(6.46635 -0.180233 0)
(6.47898 -0.479676 0)
(6.37216 -0.547954 0)
(6.20654 -0.436744 0)
(5.94427 -0.27404 0)
(5.64078 -0.153332 0)
(5.33461 -0.172538 0)
(5.06236 -0.334337 0)
(4.78141 -0.503278 0)
(4.49552 -0.60461 0)
(4.22827 -0.639704 0)
(3.9795 -0.620752 0)
(3.73827 -0.557286 0)
(3.49047 -0.46168 0)
(3.23762 -0.353242 0)
(3.00357 -0.249393 0)
(2.80481 -0.1625 0)
(2.63395 -0.0959397 0)
(2.47812 -0.0454866 0)
(2.33274 -0.00888542 0)
(2.19003 0.005777 0)
(2.04269 0.0256148 0)
(1.88927 0.0584181 0)
(1.73711 0.0826965 0)
(1.604 0.0838893 0)
(1.49799 0.0746915 0)
(1.41467 0.062451 0)
(1.35428 0.0460911 0)
(1.31286 0.0351776 0)
(1.29119 0.0189943 0)
(1.28828 0.00650683 0)
(1.30239 -0.0096153 0)
(1.32989 -0.0309955 0)
(1.37667 -0.060242 0)
(1.44895 -0.0834324 0)
(1.54291 -0.0844753 0)
(1.64693 -0.071258 0)
(1.74613 -0.0455681 0)
(1.83505 -0.0242837 0)
(1.91219 -0.0115407 0)
(1.9682 0.0021916 0)
(2.00732 -0.011119 0)
(2.0357 -0.0251012 0)
(2.05072 -0.0358832 0)
(2.04526 -0.0351293 0)
(2.01004 -0.02855 0)
(1.94569 -0.0130382 0)
(1.85787 0.000762068 0)
(1.75133 0.015833 0)
(1.62444 0.0306478 0)
(1.48303 0.0398262 0)
(1.34402 0.0351748 0)
(1.23045 0.0120827 0)
(1.15663 -0.0179482 0)
(1.11815 -0.0377333 0)
(1.08903 -0.0379942 0)
(1.04514 -0.00797097 0)
(0.959197 0.0411162 0)
(0.819545 0.0950325 0)
(0.642588 0.130857 0)
(0.45569 0.13585 0)
(0.29382 0.103094 0)
(0.182073 0.055871 0)
(0.119504 0.0167139 0)
(0.0905095 -0.00394836 0)
(0.0671689 0.00589292 0)
(0.0325887 0.0259451 0)
(-0.0268655 0.0580533 0)
(-0.130015 0.104533 0)
(-0.244156 0.068403 0)
(-0.298084 0.0128403 0)
(-0.308274 -0.0172183 0)
(-0.299066 -0.0218437 0)
(-0.289858 -0.0130885 0)
(-0.296174 0.00273587 0)
(-0.314452 0.0127211 0)
(-0.338811 0.0207185 0)
(-0.370393 0.0277654 0)
(-0.401847 0.0190267 0)
(-0.417051 0.00363191 0)
(-0.420086 -0.00269808 0)
(-0.419047 -0.00371859 0)
(-0.410747 -0.0166787 0)
(-0.389313 -0.0232451 0)
(-0.362453 -0.0291124 0)
(-0.330068 -0.0308808 0)
(-0.296634 -0.030689 0)
(-0.262202 -0.0296696 0)
(-0.23134 -0.0240863 0)
(-0.20173 -0.0266937 0)
(-0.169142 -0.0195914 0)
(-0.157606 0.00260654 0)
(-0.144671 -0.016879 0)
(-0.116883 -0.00788219 0)
(-0.11983 0.0332977 0)
(-0.176084 0.0871254 0)
(-0.287912 0.150875 0)
(-0.4483 0.169493 0)
(-0.602881 0.152565 0)
(-0.741529 0.137374 0)
(-0.864417 0.115745 0)
(-0.958138 0.086241 0)
(-1.03949 0.0878358 0)
(-1.13491 0.117659 0)
(-1.26342 0.146262 0)
(-1.41635 0.168001 0)
(-1.59931 0.20976 0)
(-1.82217 0.23786 0)
(-2.05604 0.235504 0)
(-2.27803 0.229298 0)
(-2.50074 0.216478 0)
(-2.74211 0.167311 0)
(-2.97607 0.180561 0)
(-3.18562 0.20685 0)
(-3.38621 0.207968 0)
(-3.59322 0.200383 0)
(-3.77525 0.170725 0)
(-3.94074 0.161824 0)
(-4.09781 0.14919 0)
(-4.24072 0.135856 0)
(-4.37283 0.129756 0)
(-4.49534 0.116251 0)
(-4.6023 0.0916992 0)
(-4.67076 0.0356891 0)
(-4.68341 -0.0128427 0)
(-4.63641 -0.0634626 0)
(-4.55078 -0.0942073 0)
(-4.43208 -0.141962 0)
(-4.25864 -0.192863 0)
(-4.04474 -0.213486 0)
(-3.82514 -0.204064 0)
(-3.61702 -0.193327 0)
(-3.40157 -0.222386 0)
(-3.1457 -0.269815 0)
(-2.85138 -0.286974 0)
(-2.55814 -0.266876 0)
(-2.29196 -0.233196 0)
(-2.05702 -0.203042 0)
(-1.84846 -0.177384 0)
(-1.66651 -0.146191 0)
(-1.51848 -0.11069 0)
(-1.39998 -0.0882461 0)
(-1.29252 -0.0867441 0)
(-1.18424 -0.0848256 0)
(-1.08173 -0.0695924 0)
(-0.999239 -0.0453962 0)
(-0.935315 -0.0307383 0)
(-0.879224 -0.026371 0)
(-0.825734 -0.0164425 0)
(-0.787315 0.00884826 0)
(-0.773732 0.0343724 0)
(-0.782123 0.0496914 0)
(-0.800538 0.0593725 0)
(-0.820163 0.0565742 0)
(-0.830573 0.0504666 0)
(-0.835588 0.0490289 0)
(-0.839806 0.0581242 0)
(-0.854077 0.0713902 0)
(-0.87881 0.0838305 0)
(-0.911913 0.0933656 0)
(-0.951265 0.101558 0)
(-0.99357 0.100194 0)
(-1.02466 0.0879944 0)
(-1.04365 0.0815495 0)
(-1.05543 0.0780774 0)
(-1.06155 0.075212 0)
(-1.06246 0.0735348 0)
(-1.05953 0.072009 0)
(-1.05142 0.0682141 0)
(-1.03742 0.0660576 0)
(-1.02041 0.066673 0)
(-1.00118 0.0660353 0)
(-0.977537 0.0621411 0)
(-0.947337 0.0575716 0)
(-0.911367 0.0548131 0)
(-0.871097 0.0527753 0)
(-0.827356 0.0518113 0)
(-0.781331 0.051652 0)
(-0.733413 0.0511668 0)
(-0.683017 0.0496537 0)
(-0.629528 0.0478908 0)
(-0.573389 0.0468093 0)
(-0.515006 0.0455117 0)
(-0.454302 0.0444585 0)
(-0.392176 0.0443117 0)
(-0.328328 0.0423507 0)
(-0.261356 0.0395545 0)
(-0.191261 0.0372471 0)
(-0.119034 0.0361683 0)
(-0.0461375 0.0363557 0)
(0.0263944 0.0371316 0)
(0.0978165 0.0385103 0)
(0.167802 0.0395936 0)
(0.236994 0.0394573 0)
(0.306513 0.0380872 0)
(0.377361 0.0359044 0)
(0.44952 0.034352 0)
(0.521911 0.0338683 0)
(0.593449 0.0342935 0)
(0.66375 0.0346108 0)
(0.733178 0.0344235 0)
(0.802261 0.0336526 0)
(0.871558 0.0320665 0)
(0.941331 0.0302541 0)
(1.01115 0.0291059 0)
(1.07954 0.0298923 0)
(1.14533 0.0311155 0)
(1.20838 0.0323896 0)
(1.26859 0.033962 0)
(1.32583 0.035483 0)
(1.38029 0.0362787 0)
(1.43256 0.0362104 0)
(1.48349 0.0353532 0)
(1.53359 0.0341625 0)
(1.58314 0.0326266 0)
(1.63239 0.0313872 0)
(1.6815 0.0298983 0)
(1.73086 0.0285832 0)
(1.78006 0.0286325 0)
(1.82794 0.0292598 0)
(1.87379 0.0300916 0)
(1.91705 0.031209 0)
(1.95708 0.0323555 0)
(1.99369 0.0333471 0)
(2.02761 0.0336001 0)
(2.0599 0.0324508 0)
(2.09176 0.0301394 0)
(2.12399 0.0284404 0)
(2.15702 0.0266847 0)
(2.19115 0.0260113 0)
(2.22506 0.0267777 0)
(2.25778 0.0270661 0)
(2.28951 0.0268129 0)
(2.32028 0.026477 0)
(2.34979 0.0262597 0)
(2.3778 0.0263312 0)
(2.40443 0.0263763 0)
(2.42997 0.0255879 0)
(2.45481 0.0247079 0)
(2.47942 0.0241347 0)
(2.50405 0.0240519 0)
(2.52869 0.0246393 0)
(2.553 0.0248345 0)
(2.57696 0.0244061 0)
(2.60112 0.023267 0)
(2.62606 0.0217225 0)
(2.65178 0.0201599 0)
(2.67778 0.0194529 0)
(2.704 0.0191209 0)
(2.73045 0.0196868 0)
(2.75649 0.0206315 0)
(2.78135 0.0217521 0)
(2.80483 0.0223429 0)
(2.82754 0.0221437 0)
(2.85038 0.0206885 0)
(2.87405 0.0186779 0)
(2.89897 0.0167818 0)
(2.92554 0.014476 0)
(2.95495 0.0125665 0)
(2.98686 0.0132296 0)
(3.01895 0.0148554 0)
(3.05048 0.0153591 0)
(3.08213 0.0151487 0)
(3.11415 0.0146194 0)
(3.14642 0.0139045 0)
(3.17877 0.012826 0)
(3.21079 0.0121879 0)
(3.24249 0.0118848 0)
(3.27445 0.0122541 0)
(3.30678 0.0135666 0)
(3.33909 0.0147409 0)
(3.37153 0.014717 0)
(3.40478 0.0136725 0)
(3.43931 0.0121759 0)
(3.47511 0.0106116 0)
(3.51191 0.00926312 0)
(3.54943 0.00830229 0)
(3.58829 0.00688964 0)
(3.62915 0.00693461 0)
(3.67143 0.00747005 0)
(3.71419 0.00838625 0)
(3.75669 0.00951535 0)
(3.79837 0.0106815 0)
(3.83897 0.011099 0)
(3.87867 0.0102605 0)
(3.91762 0.00888906 0)
(3.95609 0.00715525 0)
(3.99438 0.00587299 0)
(4.03292 0.00432601 0)
(4.07293 0.00289406 0)
(4.11488 0.00376242 0)
(4.15744 0.0058095 0)
(4.1992 0.00834075 0)
(4.23924 0.010348 0)
(4.27755 0.0109492 0)
(4.31452 0.00969182 0)
(4.35028 0.00774712 0)
(4.3848 0.00527456 0)
(4.41745 0.00482982 0)
(4.44826 0.00436727 0)
(4.47863 0.00525462 0)
(4.5091 0.00692457 0)
(4.53916 0.0094463 0)
(4.56776 0.0119101 0)
(4.59515 0.0113528 0)
(4.62224 0.00891883 0)
(4.64917 0.00520522 0)
(4.67574 0.00289318 0)
(4.70093 0.00282279 0)
(4.72476 0.0027954 0)
(4.74819 0.00373937 0)
(4.77119 0.00599938 0)
(4.79282 0.00863513 0)
(4.81237 0.0109843 0)
(4.83039 0.00904355 0)
(4.84729 0.0061647 0)
(4.8631 0.0038342 0)
(4.87693 0.00385232 0)
(4.88863 0.00411103 0)
(4.89958 0.00427709 0)
(4.91037 0.00481776 0)
(4.92079 0.00518981 0)
(4.9304 0.004926 0)
(4.93907 0.00438827 0)
(4.94673 0.00420645 0)
(4.95329 0.0043802 0)
(4.95886 0.00461985 0)
(4.96351 0.00475179 0)
(4.96734 0.00420686 0)
(4.97024 0.0032336 0)
(4.97201 0.00224572 0)
(4.97293 0.00192198 0)
(4.973 0.00224445 0)
(4.97215 0.00289484 0)
(4.97054 0.00345087 0)
(4.96829 0.00332934 0)
(4.96556 0.00293686 0)
(4.96216 0.00241261 0)
(4.95798 0.00217218 0)
(4.95316 0.00214646 0)
(4.94774 0.0027673 0)
(4.9415 0.00358276 0)
(4.93435 0.00427285 0)
(4.92676 0.00390928 0)
(4.91903 0.00268176 0)
(4.91071 0.00136142 0)
(4.90184 -0.000986921 0)
(4.89367 -0.00430008 0)
(4.88587 -0.00378909 0)
(4.87803 -0.00201435 0)
(4.86974 0.00118019 0)
(4.86125 0.00439305 0)
(4.85294 0.00507231 0)
(4.84479 0.00488365 0)
(4.83571 0.00451764 0)
(4.8255 0.00356657 0)
(4.8148 0.00148253 0)
(4.80506 -0.00251217 0)
(4.79678 -0.00565538 0)
(4.78925 -0.00612812 0)
(4.78193 -0.00467564 0)
(4.77503 -0.00137139 0)
(4.76933 0.00172948 0)
(4.76488 0.00258767 0)
(4.76148 0.00338426 0)
(4.75792 0.00340609 0)
(4.75325 0.00210979 0)
(4.74778 -0.000204065 0)
(4.74264 -0.00238277 0)
(4.73774 -0.00334344 0)
(4.73266 -0.00249666 0)
(4.72766 -0.00108081 0)
(4.72348 0.000348304 0)
(4.7207 0.00138775 0)
(4.71874 0.00153464 0)
(4.7169 0.00109261 0)
(4.71568 -3.36979e-05 0)
(4.71551 -0.00117577 0)
(4.7164 -0.00111011 0)
(0.0506653 -0.131318 0)
(0.150338 -0.141967 0)
(0.227523 -0.105947 0)
(0.29603 -0.0974826 0)
(0.364478 -0.105249 0)
(0.432188 -0.110331 0)
(0.493064 -0.104441 0)
(0.547389 -0.0962333 0)
(0.593412 -0.0744309 0)
(0.652234 -0.0653846 0)
(0.699507 -0.0320236 0)
(0.712234 0.00246676 0)
(0.715231 0.0152665 0)
(0.70223 0.0208734 0)
(0.665071 0.0108786 0)
(0.660617 -0.0618911 0)
(0.710321 -0.0923897 0)
(0.756676 -0.107609 0)
(0.804804 -0.12269 0)
(0.855747 -0.137071 0)
(0.910285 -0.151022 0)
(0.969758 -0.168552 0)
(1.03658 -0.184373 0)
(1.10888 -0.195569 0)
(1.1856 -0.205912 0)
(1.26819 -0.212035 0)
(1.35446 -0.210973 0)
(1.43868 -0.206047 0)
(1.51766 -0.20212 0)
(1.5901 -0.196852 0)
(1.6571 -0.188033 0)
(1.71397 -0.166351 0)
(1.75215 -0.135017 0)
(1.76996 -0.104319 0)
(1.75607 -0.0659541 0)
(1.71311 -0.00948844 0)
(1.6399 0.0414009 0)
(1.54389 0.0646962 0)
(1.42977 0.0825209 0)
(1.29917 0.0849668 0)
(1.15427 0.0892799 0)
(0.991379 0.0924042 0)
(0.812795 0.0890692 0)
(0.622328 0.0887412 0)
(0.423196 0.0888146 0)
(0.221849 0.08022 0)
(0.0281797 0.0762032 0)
(-0.157598 0.0743575 0)
(-0.34226 0.0672748 0)
(-0.524495 0.0465491 0)
(-0.694759 0.0274145 0)
(-0.845709 0.00880467 0)
(-0.973794 0.00205987 0)
(-1.08027 0.00917868 0)
(-1.16786 0.0165231 0)
(-1.23522 -0.00211729 0)
(-1.34368 0.0525428 0)
(-1.58684 0.0999787 0)
(-1.94152 0.162611 0)
(-2.36864 0.142736 0)
(-2.81464 0.0339532 0)
(-3.25318 -0.0480203 0)
(-3.67144 -0.0495112 0)
(-4.08844 0.00553208 0)
(-4.54093 0.141748 0)
(-5.05154 0.357672 0)
(-5.65226 0.639858 0)
(-6.38335 0.890278 0)
(-7.22815 1.08521 0)
(-8.1615 1.21418 0)
(-9.1549 1.25962 0)
(-10.1573 1.15258 0)
(-11.0894 0.925402 0)
(-11.9468 0.736549 0)
(-12.7429 0.604848 0)
(-13.471 0.523223 0)
(-14.1048 0.495097 0)
(-14.5963 0.464409 0)
(-14.9323 0.455255 0)
(-15.1162 0.432045 0)
(-15.1651 0.340689 0)
(-15.125 0.298621 0)
(-15.0708 0.201243 0)
(-14.9326 0.0838123 0)
(-14.6842 0.0735576 0)
(-14.4226 -0.029591 0)
(-14.0821 -0.115644 0)
(-13.5357 -0.219254 0)
(-12.9829 -0.307238 0)
(-12.3813 -0.456875 0)
(-11.6347 -0.565137 0)
(-10.7255 -0.607291 0)
(-9.7636 -0.784997 0)
(-8.78132 -0.859753 0)
(-7.86475 -0.910299 0)
(-7.06248 -0.926868 0)
(-6.34225 -0.908069 0)
(-5.66035 -0.881369 0)
(-4.97006 -0.927334 0)
(-4.20772 -1.09762 0)
(-3.21408 -1.3096 0)
(-2.00323 -1.38879 0)
(-0.777884 -1.3616 0)
(0.390532 -1.34968 0)
(1.51288 -1.34255 0)
(2.70049 -1.49897 0)
(4.05206 -1.5295 0)
(5.48185 -1.46882 0)
(6.90472 -1.24842 0)
(8.26208 -0.976294 0)
(9.53598 -0.733843 0)
(10.7385 -0.535106 0)
(11.8883 -0.345246 0)
(13.009 -0.186732 0)
(14.0784 -0.045272 0)
(14.986 0.0600022 0)
(15.5586 0.0227562 0)
(15.7297 0.019693 0)
(15.7125 0.0649245 0)
(15.6677 0.0443883 0)
(15.5934 0.070989 0)
(15.5269 0.240128 0)
(15.4036 0.555434 0)
(15.1246 0.729314 0)
(14.7805 0.856002 0)
(14.3412 0.851255 0)
(13.8206 0.748032 0)
(13.1947 0.713884 0)
(12.4976 0.842484 0)
(11.7855 1.00823 0)
(11.1044 1.09369 0)
(10.4782 1.10379 0)
(9.91256 1.07234 0)
(9.40122 1.02577 0)
(8.93203 0.967893 0)
(8.50607 0.86509 0)
(8.13959 0.712183 0)
(7.82744 0.563411 0)
(7.54097 0.457388 0)
(7.27301 0.385302 0)
(7.03241 0.329813 0)
(6.80678 0.317048 0)
(6.596 0.314363 0)
(6.41224 0.291464 0)
(6.26392 0.239058 0)
(6.15581 0.172593 0)
(6.07789 0.122681 0)
(6.03148 0.0788253 0)
(6.01647 0.0436803 0)
(6.03915 0.00358929 0)
(6.09171 -0.0317579 0)
(6.17825 -0.0569425 0)
(6.29459 -0.0769223 0)
(6.43403 -0.0923555 0)
(6.59585 -0.111271 0)
(6.77501 -0.136986 0)
(6.95535 -0.185124 0)
(7.13436 -0.210224 0)
(7.29822 -0.225227 0)
(7.44001 -0.22835 0)
(7.55649 -0.212122 0)
(7.63657 -0.17352 0)
(7.68519 -0.139006 0)
(7.69432 -0.0943408 0)
(7.6707 -0.0460281 0)
(7.61752 0.00678327 0)
(7.52503 0.0768444 0)
(7.37749 0.123877 0)
(7.1885 0.150083 0)
(6.96946 0.180743 0)
(6.72445 0.211959 0)
(6.45967 0.225333 0)
(6.18959 0.20154 0)
(5.93124 0.149874 0)
(5.69494 0.0940527 0)
(5.48299 0.0620473 0)
(5.28638 0.0676171 0)
(5.08577 0.111787 0)
(4.87011 0.182758 0)
(4.63033 0.23634 0)
(4.37126 0.251929 0)
(4.09824 0.227334 0)
(3.83339 0.163608 0)
(3.60787 0.0950855 0)
(3.44452 0.0464184 0)
(3.34111 0.0183343 0)
(3.26403 0.0249293 0)
(3.18286 0.0431014 0)
(3.07527 0.0781768 0)
(2.93931 0.134256 0)
(2.81274 0.088885 0)
(2.74752 0.0240298 0)
(2.70629 -0.0193887 0)
(2.67261 -0.0283336 0)
(2.64717 -0.0201994 0)
(2.62608 -1.82353e-05 0)
(2.60801 0.0140667 0)
(2.59182 0.0233291 0)
(2.58498 0.0337644 0)
(2.57743 0.0247024 0)
(2.56743 0.00443734 0)
(2.56132 -0.00765297 0)
(2.55893 -0.00694341 0)
(2.56442 -0.0235612 0)
(2.57515 -0.0316721 0)
(2.58553 -0.0341912 0)
(2.596 -0.0319798 0)
(2.59892 -0.0289738 0)
(2.59603 -0.0251207 0)
(2.57179 -0.0157515 0)
(2.52185 -0.00928654 0)
(2.46169 0.00718075 0)
(2.38228 0.048235 0)
(2.27884 0.0462009 0)
(2.16666 0.0700754 0)
(2.00734 0.129447 0)
(1.77862 0.195528 0)
(1.4828 0.269672 0)
(1.12814 0.292274 0)
(0.775168 0.274271 0)
(0.453155 0.262585 0)
(0.164787 0.243439 0)
(-0.0864887 0.206857 0)
(-0.311616 0.216722 0)
(-0.53174 0.273965 0)
(-0.771891 0.330273 0)
(-1.02932 0.371861 0)
(-1.3029 0.437601 0)
(-1.6038 0.479561 0)
(-1.91254 0.473421 0)
(-2.21668 0.452514 0)
(-2.4983 0.434149 0)
(-2.74437 0.429631 0)
(-2.9654 0.390318 0)
(-3.1736 0.358309 0)
(-3.37008 0.355535 0)
(-3.55175 0.332277 0)
(-3.68246 0.25966 0)
(-3.76659 0.203333 0)
(-3.79808 0.158657 0)
(-3.77837 0.108947 0)
(-3.696 0.0915516 0)
(-3.55969 0.0780116 0)
(-3.3716 0.0560095 0)
(-3.1641 -0.013494 0)
(-2.93211 -0.0809981 0)
(-2.68117 -0.155251 0)
(-2.40869 -0.206729 0)
(-2.11518 -0.28105 0)
(-1.77954 -0.364311 0)
(-1.39874 -0.41296 0)
(-0.99431 -0.417641 0)
(-0.586721 -0.403018 0)
(-0.175753 -0.434659 0)
(0.262834 -0.48457 0)
(0.745857 -0.495008 0)
(1.25226 -0.455154 0)
(1.75959 -0.39406 0)
(2.25753 -0.336295 0)
(2.74402 -0.286604 0)
(3.2185 -0.231107 0)
(3.66959 -0.152057 0)
(4.08361 -0.102904 0)
(4.44537 -0.0925262 0)
(4.74584 -0.0936579 0)
(4.97193 -0.0820539 0)
(5.11763 -0.0649318 0)
(5.20043 -0.0574413 0)
(5.25604 -0.0584324 0)
(5.32482 -0.0460359 0)
(5.411 -0.0130503 0)
(5.482 0.030406 0)
(5.52318 0.0537684 0)
(5.53156 0.0681114 0)
(5.5259 0.0657684 0)
(5.51482 0.0592447 0)
(5.5058 0.0594839 0)
(5.50277 0.0716421 0)
(5.49518 0.0869072 0)
(5.47513 0.101425 0)
(5.43873 0.112242 0)
(5.3834 0.120247 0)
(5.31253 0.118826 0)
(5.24901 0.102314 0)
(5.20422 0.0924808 0)
(5.17687 0.0852451 0)
(5.16604 0.0809496 0)
(5.16451 0.0855477 0)
(5.1665 0.0849416 0)
(5.17807 0.0833748 0)
(5.20299 0.0806209 0)
(5.23505 0.0811872 0)
(5.26966 0.0797836 0)
(5.30564 0.0752078 0)
(5.34308 0.0688709 0)
(5.38342 0.0645594 0)
(5.42779 0.0610291 0)
(5.47718 0.0583222 0)
(5.53319 0.0579415 0)
(5.59652 0.0571327 0)
(5.66623 0.0553991 0)
(5.74137 0.0535118 0)
(5.81991 0.0521983 0)
(5.89958 0.0503438 0)
(5.97914 0.0477348 0)
(6.05949 0.0473857 0)
(6.14331 0.0448845 0)
(6.2325 0.0415503 0)
(6.32848 0.0397858 0)
(6.42979 0.0388401 0)
(6.53169 0.0389378 0)
(6.63056 0.0391905 0)
(6.72592 0.0402692 0)
(6.81922 0.0414047 0)
(6.91229 0.0413478 0)
(7.00692 0.040147 0)
(7.10502 0.0382216 0)
(7.2077 0.0375432 0)
(7.31282 0.0378313 0)
(7.41586 0.0382642 0)
(7.51428 0.0378269 0)
(7.60825 0.0367688 0)
(7.69968 0.0344317 0)
(7.79159 0.0326145 0)
(7.88625 0.0314835 0)
(7.98444 0.0321995 0)
(8.08378 0.0335179 0)
(8.18012 0.0350408 0)
(8.27094 0.036369 0)
(8.35582 0.0373787 0)
(8.43601 0.0386126 0)
(8.51338 0.0399382 0)
(8.58952 0.0407277 0)
(8.66595 0.0406374 0)
(8.74375 0.0404109 0)
(8.82224 0.0398523 0)
(8.89907 0.0383233 0)
(8.97283 0.0361878 0)
(9.04323 0.0332707 0)
(9.11099 0.0308901 0)
(9.17732 0.0301673 0)
(9.2429 0.030751 0)
(9.30793 0.0328334 0)
(9.37166 0.036136 0)
(9.4332 0.0389978 0)
(9.49262 0.0402717 0)
(9.55103 0.0410167 0)
(9.60943 0.0405728 0)
(9.66679 0.0384476 0)
(9.72184 0.0347091 0)
(9.77365 0.0307102 0)
(9.82233 0.0289504 0)
(9.8696 0.0284206 0)
(9.91709 0.0282147 0)
(9.96552 0.0288899 0)
(10.0142 0.0303443 0)
(10.0624 0.0316538 0)
(10.1099 0.0324258 0)
(10.1568 0.0338768 0)
(10.2031 0.0343285 0)
(10.2478 0.0335357 0)
(10.2899 0.0317429 0)
(10.3286 0.0295354 0)
(10.3646 0.0288475 0)
(10.3997 0.0283946 0)
(10.4358 0.027389 0)
(10.4738 0.0261302 0)
(10.5147 0.0261818 0)
(10.5574 0.0261003 0)
(10.5994 0.0250777 0)
(10.6388 0.0235921 0)
(10.6752 0.0236278 0)
(10.7091 0.0248917 0)
(10.7413 0.0263827 0)
(10.7732 0.0268297 0)
(10.8062 0.0270754 0)
(10.8421 0.0268233 0)
(10.8812 0.0260509 0)
(10.9225 0.0238063 0)
(10.965 0.0189487 0)
(11.0067 0.0147998 0)
(11.0458 0.0143778 0)
(11.0826 0.0143434 0)
(11.119 0.0138066 0)
(11.1565 0.0138754 0)
(11.1961 0.0146215 0)
(11.2382 0.0163845 0)
(11.2819 0.0187158 0)
(11.3257 0.0196165 0)
(11.3678 0.0186541 0)
(11.407 0.017114 0)
(11.4435 0.0165858 0)
(11.4785 0.0159385 0)
(11.5142 0.0150031 0)
(11.5524 0.0142742 0)
(11.5942 0.0139237 0)
(11.6395 0.0142102 0)
(11.6875 0.0139983 0)
(11.7368 0.0118771 0)
(11.7859 0.00805773 0)
(11.834 0.00564586 0)
(11.881 0.00461636 0)
(11.9272 0.00450703 0)
(11.9729 0.00540245 0)
(12.0183 0.00686608 0)
(12.0642 0.00908577 0)
(12.1112 0.0114917 0)
(12.1594 0.0136162 0)
(12.2088 0.0145031 0)
(12.2588 0.0140553 0)
(12.3091 0.010723 0)
(12.3584 0.00607148 0)
(12.4053 0.00368312 0)
(12.4494 0.00268488 0)
(12.4911 0.00358648 0)
(12.5315 0.00471095 0)
(12.5719 0.00707874 0)
(12.613 0.00979973 0)
(12.6554 0.0138444 0)
(12.6982 0.0172682 0)
(12.7395 0.0184988 0)
(12.778 0.0160394 0)
(12.8133 0.0129197 0)
(12.845 0.0106406 0)
(12.8732 0.00996719 0)
(12.8998 0.00964782 0)
(12.9273 0.0101176 0)
(12.9572 0.0118083 0)
(12.9898 0.0139809 0)
(13.0237 0.0155088 0)
(13.0563 0.0151267 0)
(13.0862 0.0128406 0)
(13.1129 0.0103202 0)
(13.1359 0.00951746 0)
(13.1557 0.00925596 0)
(13.1739 0.0105762 0)
(13.1923 0.0127075 0)
(13.2118 0.0155271 0)
(13.2312 0.018043 0)
(13.2487 0.0182534 0)
(13.264 0.0164704 0)
(13.2772 0.0139858 0)
(13.2889 0.0125332 0)
(13.2996 0.0121835 0)
(13.3099 0.0121801 0)
(13.3201 0.0122678 0)
(13.3298 0.0119583 0)
(13.3385 0.0113915 0)
(13.3458 0.0108102 0)
(13.3517 0.0106512 0)
(13.3565 0.0113845 0)
(13.3603 0.0121304 0)
(13.3631 0.0122219 0)
(13.3649 0.0113805 0)
(13.3658 0.0105351 0)
(13.3654 0.00958331 0)
(13.3638 0.00874129 0)
(13.3614 0.00832354 0)
(13.3585 0.00841625 0)
(13.3553 0.0085282 0)
(13.3519 0.00813084 0)
(13.348 0.00753301 0)
(13.3425 0.00723713 0)
(13.335 0.00671595 0)
(13.3258 0.00595274 0)
(13.3158 0.00647501 0)
(13.3056 0.00767447 0)
(13.296 0.00921509 0)
(13.2888 0.00919482 0)
(13.2842 0.00794499 0)
(13.2791 0.00672306 0)
(13.2719 0.00445749 0)
(13.2613 0.000736703 0)
(13.248 -0.00141841 0)
(13.2343 -0.00087391 0)
(13.2207 0.00138739 0)
(13.2073 0.00361146 0)
(13.1947 0.00483381 0)
(13.1851 0.00595605 0)
(13.1798 0.00588475 0)
(13.1764 0.00612715 0)
(13.1736 0.00531138 0)
(13.1697 0.00157928 0)
(13.1629 -0.00409785 0)
(13.1533 -0.00697162 0)
(13.1442 -0.00806552 0)
(13.1358 -0.00686233 0)
(13.1289 -0.0023725 0)
(13.1229 0.000551468 0)
(13.1195 0.00228292 0)
(13.1185 0.00376446 0)
(13.1171 0.00473495 0)
(13.1142 0.00327994 0)
(13.109 0.000756114 0)
(13.1029 -0.00240224 0)
(13.0975 -0.00196554 0)
(13.0941 -0.00131186 0)
(13.0928 -0.00105531 0)
(13.0931 -0.000631233 0)
(13.0946 -0.000467108 0)
(0.0645679 -0.237642 0)
(0.155665 -0.235419 0)
(0.248473 -0.188397 0)
(0.342528 -0.176406 0)
(0.432739 -0.178579 0)
(0.518578 -0.174419 0)
(0.595255 -0.155659 0)
(0.662544 -0.137838 0)
(0.717969 -0.111917 0)
(0.766376 -0.0984461 0)
(0.801368 -0.0738898 0)
(0.83703 -0.0451952 0)
(0.882483 -0.0300898 0)
(0.929692 -0.0165636 0)
(0.986665 -0.0172655 0)
(1.0353 -0.0637444 0)
(1.07751 -0.102917 0)
(1.11279 -0.121709 0)
(1.14619 -0.139147 0)
(1.18857 -0.156519 0)
(1.23954 -0.175236 0)
(1.29729 -0.200751 0)
(1.36192 -0.225543 0)
(1.4318 -0.242943 0)
(1.50563 -0.259644 0)
(1.5867 -0.271764 0)
(1.67297 -0.273418 0)
(1.75352 -0.269191 0)
(1.82364 -0.263724 0)
(1.8836 -0.251879 0)
(1.93938 -0.234338 0)
(1.98386 -0.208049 0)
(1.99689 -0.177398 0)
(1.98059 -0.13591 0)
(1.9664 -0.0794066 0)
(1.94017 -0.0282574 0)
(1.89102 0.0303341 0)
(1.81426 0.0682062 0)
(1.71509 0.108068 0)
(1.59105 0.145025 0)
(1.44725 0.184676 0)
(1.277 0.217524 0)
(1.08043 0.237397 0)
(0.864885 0.260594 0)
(0.631649 0.280826 0)
(0.387485 0.274472 0)
(0.150295 0.259095 0)
(-0.0611877 0.23508 0)
(-0.228297 0.202238 0)
(-0.379387 0.175552 0)
(-0.536571 0.144857 0)
(-0.693534 0.105158 0)
(-0.848086 0.0758995 0)
(-0.998358 0.0628551 0)
(-1.14154 0.0593211 0)
(-1.3249 0.112101 0)
(-1.56815 0.233606 0)
(-1.85109 0.407122 0)
(-2.17321 0.622113 0)
(-2.69443 0.752225 0)
(-3.45032 0.735497 0)
(-4.3387 0.662255 0)
(-5.26786 0.576044 0)
(-6.22822 0.581777 0)
(-7.23209 0.68373 0)
(-8.26482 0.847389 0)
(-9.29804 1.07667 0)
(-10.3064 1.29477 0)
(-11.2364 1.49312 0)
(-12.0361 1.66042 0)
(-12.6745 1.77582 0)
(-13.1765 1.76687 0)
(-13.5612 1.65186 0)
(-13.9072 1.55051 0)
(-14.2242 1.4416 0)
(-14.51 1.30062 0)
(-14.757 1.14931 0)
(-14.9133 0.957594 0)
(-15.0693 0.789312 0)
(-15.156 0.565517 0)
(-15.2096 0.383976 0)
(-15.185 0.2623 0)
(-15.0984 0.0884968 0)
(-15.0158 -0.155171 0)
(-14.7879 -0.305799 0)
(-14.4346 -0.461268 0)
(-14.0331 -0.695149 0)
(-13.605 -0.945723 0)
(-12.989 -1.30105 0)
(-12.1129 -1.61568 0)
(-11.1378 -1.9067 0)
(-10.0316 -2.0707 0)
(-8.84768 -2.18813 0)
(-7.65486 -2.09567 0)
(-6.48877 -1.89541 0)
(-5.33013 -1.70685 0)
(-4.14867 -1.58157 0)
(-2.91534 -1.50024 0)
(-1.61201 -1.49551 0)
(-0.229662 -1.64787 0)
(1.22125 -1.81963 0)
(2.70315 -1.93827 0)
(4.19945 -1.96925 0)
(5.67209 -2.00185 0)
(7.07739 -2.05858 0)
(8.36309 -2.23052 0)
(9.52516 -2.31407 0)
(10.5932 -2.46494 0)
(11.6417 -2.62555 0)
(12.734 -2.64603 0)
(13.8619 -2.55409 0)
(14.9861 -2.40521 0)
(16.0932 -2.27495 0)
(17.1828 -2.15185 0)
(18.2561 -1.91516 0)
(19.2793 -1.38457 0)
(20.0455 -0.516492 0)
(20.6688 0.147676 0)
(21.2753 0.351052 0)
(21.8014 0.413355 0)
(22.2103 0.400335 0)
(22.3875 0.318874 0)
(22.3477 0.3423 0)
(22.1307 0.484896 0)
(21.7136 0.747439 0)
(21.1216 1.04003 0)
(20.4162 1.30589 0)
(19.6735 1.48926 0)
(18.9876 1.52751 0)
(18.4292 1.35774 0)
(17.914 1.14585 0)
(17.3232 0.950531 0)
(16.6247 0.80202 0)
(15.8603 0.724244 0)
(15.1102 0.690106 0)
(14.419 0.648639 0)
(13.8163 0.591667 0)
(13.3135 0.553208 0)
(12.8965 0.565629 0)
(12.5429 0.554001 0)
(12.2438 0.523489 0)
(12.0042 0.512919 0)
(11.8036 0.466627 0)
(11.5993 0.408513 0)
(11.388 0.346377 0)
(11.2085 0.269445 0)
(11.0856 0.194492 0)
(11.0208 0.115174 0)
(11.0052 0.0338208 0)
(11.049 -0.0374805 0)
(11.1357 -0.113221 0)
(11.26 -0.196377 0)
(11.4267 -0.262995 0)
(11.6194 -0.333429 0)
(11.8331 -0.411705 0)
(12.082 -0.461476 0)
(12.3792 -0.454923 0)
(12.7239 -0.427788 0)
(13.0841 -0.355281 0)
(13.4249 -0.288791 0)
(13.7022 -0.215864 0)
(13.8889 -0.140298 0)
(13.9915 -0.0844069 0)
(14.0345 -0.0473522 0)
(14.0221 -0.0236491 0)
(13.9538 0.0343247 0)
(13.8321 0.123173 0)
(13.6734 0.236325 0)
(13.4738 0.318248 0)
(13.2466 0.386215 0)
(12.981 0.441516 0)
(12.6655 0.473919 0)
(12.3062 0.461977 0)
(11.9357 0.411322 0)
(11.5891 0.340685 0)
(11.2784 0.276956 0)
(10.9845 0.261038 0)
(10.6705 0.313435 0)
(10.2972 0.39316 0)
(9.83485 0.476454 0)
(9.30657 0.548398 0)
(8.77102 0.584537 0)
(8.30947 0.527729 0)
(7.96762 0.387772 0)
(7.74162 0.199804 0)
(7.55491 0.0850276 0)
(7.38067 0.0803591 0)
(7.22886 0.152662 0)
(7.08911 0.266483 0)
(6.91143 0.330851 0)
(6.7595 0.206778 0)
(6.65095 0.0797254 0)
(6.57265 0.0402295 0)
(6.56041 0.0238107 0)
(6.56353 0.0337424 0)
(6.538 0.0352857 0)
(6.46488 0.0291817 0)
(6.37504 0.0330765 0)
(6.30591 0.00495808 0)
(6.27195 0.0260216 0)
(6.27108 0.0189479 0)
(6.3053 0.0123899 0)
(6.36979 -0.000134668 0)
(6.43236 -0.0275525 0)
(6.48874 -0.0204253 0)
(6.5124 -0.0445306 0)
(6.51947 -0.0378442 0)
(6.51407 -0.0290087 0)
(6.4899 -0.0182651 0)
(6.48363 0.0567071 0)
(6.4953 0.076439 0)
(6.50787 0.0936994 0)
(6.47599 0.155231 0)
(6.27712 0.108566 0)
(5.82777 0.131028 0)
(5.24081 0.300551 0)
(4.61008 0.478496 0)
(4.02592 0.706076 0)
(3.50235 0.816813 0)
(3.08743 0.77884 0)
(2.75675 0.698026 0)
(2.47199 0.608359 0)
(2.23647 0.523971 0)
(2.03911 0.471265 0)
(1.8348 0.498104 0)
(1.57094 0.529016 0)
(1.2187 0.553862 0)
(0.780108 0.630225 0)
(0.291555 0.698834 0)
(-0.172364 0.710781 0)
(-0.567273 0.697852 0)
(-0.900897 0.684101 0)
(-1.18266 0.656526 0)
(-1.42313 0.6135 0)
(-1.63312 0.57223 0)
(-1.83901 0.535836 0)
(-2.04113 0.452227 0)
(-2.17226 0.349665 0)
(-2.24126 0.263597 0)
(-2.29843 0.16649 0)
(-2.34991 0.0792865 0)
(-2.28588 -0.0671525 0)
(-2.13197 -0.207236 0)
(-1.86782 -0.272302 0)
(-1.52097 -0.32284 0)
(-1.09274 -0.364088 0)
(-0.601942 -0.411645 0)
(-0.0663621 -0.437266 0)
(0.515171 -0.5078 0)
(1.17275 -0.604459 0)
(1.91476 -0.657163 0)
(2.71474 -0.653575 0)
(3.5295 -0.646898 0)
(4.30513 -0.702126 0)
(4.97375 -0.846092 0)
(5.5286 -0.962171 0)
(6.02083 -0.991684 0)
(6.49482 -0.975071 0)
(6.97185 -0.947854 0)
(7.45932 -0.923537 0)
(7.9529 -0.886373 0)
(8.43209 -0.8365 0)
(8.87449 -0.751949 0)
(9.29169 -0.659078 0)
(9.70259 -0.529166 0)
(10.1055 -0.352109 0)
(10.4948 -0.173094 0)
(10.8651 -0.0505182 0)
(11.1838 -0.0173445 0)
(11.394 -0.0647025 0)
(11.4986 -0.0603164 0)
(11.5239 -0.00881982 0)
(11.5132 0.0727971 0)
(11.5367 0.116864 0)
(11.5542 0.139729 0)
(11.5732 0.141326 0)
(11.5797 0.126907 0)
(11.5723 0.136406 0)
(11.5394 0.163806 0)
(11.4752 0.206409 0)
(11.3898 0.254309 0)
(11.3166 0.308477 0)
(11.2581 0.32949 0)
(11.229 0.295556 0)
(11.2279 0.262169 0)
(11.2405 0.23385 0)
(11.2518 0.207312 0)
(11.2487 0.199463 0)
(11.2308 0.192634 0)
(11.2154 0.159254 0)
(11.1897 0.139412 0)
(11.1705 0.137141 0)
(11.1641 0.139319 0)
(11.1673 0.138665 0)
(11.1834 0.137456 0)
(11.2198 0.134591 0)
(11.2756 0.130136 0)
(11.3435 0.125317 0)
(11.4121 0.114764 0)
(11.4758 0.104304 0)
(11.5356 0.0943385 0)
(11.5945 0.0859693 0)
(11.6568 0.0836333 0)
(11.7274 0.0847879 0)
(11.811 0.0892117 0)
(11.906 0.087117 0)
(12.0068 0.0787034 0)
(12.1086 0.0662009 0)
(12.2058 0.0497414 0)
(12.2997 0.0427681 0)