/*--------------------------------*- C++ -*----------------------------------*\
| =========                 |                                                 |
| \\      /  F ield         | OpenFOAM: The Open Source CFD Toolbox           |
|  \\    /   O peration     | Version:  v1812                                 |
|   \\  /    A nd           | Web:      www.OpenFOAM.com                      |
|    \\/     M anipulation  |                                                 |
\*---------------------------------------------------------------------------*/
FoamFile
{
    version     2.0;
    format      ascii;
    class       volScalarField;
    location    "0.8";
    object      p;
}
// * * * * * * * * * * * * * * * * * * * * * * * * * * * * * * * * * * * * * //

dimensions      [1 -1 -2 0 0 0 0];


internalField   nonuniform List<scalar> 
20400
(
96788.1
96787.4
96786.6
96785
96783.9
96781.6
96779.3
96776.4
96773.2
96769.6
96765.9
96761.8
96757.5
96753.2
96748.4
96744.1
96739.1
96735.1
96730.2
96726.4
96722.1
96718.7
96714.9
96711.8
96708.8
96706.2
96703.4
96701.7
96699.6
96697.9
96696.4
96695.1
96694
96693.2
96692.7
96692.5
96692.2
96692.4
96692.4
96692.6
96692.9
96693.4
96693.8
96694.4
96695.2
96695.9
96696.8
96697.6
96698.4
96699.2
96700
96700.8
96701.6
96702.7
96703.4
96702.7
96702.5
96702.4
96701.6
96700.7
96699.6
96698.2
96696.3
96693.9
96690.9
96687.5
96683.5
96678.9
96673.6
96667.7
96660.9
96653.9
96646.4
96639.1
96631.4
96624
96617.5
96611.5
96605.6
96602.8
96600.5
96601.7
96605.5
96609.9
96617
96624.2
96636.5
96654.3
96667.5
96683.3
96707.6
96730.9
96756.1
96780.9
96806.7
96831.1
96857.1
96879.3
96903.7
96923.7
96941.5
96961.4
96971.8
96989
97006.3
97019.2
97032.6
97049.9
97056.3
97065.9
97076
97083.3
97090.9
97097.5
97103.6
97109.3
97114.4
97119.5
97124.3
97130
97134.4
97140.1
97144.1
97149.1
97153.4
97158.1
97163.1
97167.8
97173
97178.3
97183.9
97189
97195.2
97200.4
97206.4
97211.6
97217.7
97222.9
97229.1
97234.7
97241.7
97247.9
97255.2
97262.3
97270.1
97278.5
97287.5
97297.9
97308.5
97320.9
97332.9
97346.3
97359.2
97373.5
97387.2
97402.2
97417.1
97432.1
97446.2
97460.2
97471.5
97483.9
97494.1
97504.5
97514.5
97522.7
97530.7
97537.4
97543.3
97548.4
97552.1
97555.3
97556.8
97557.3
97556.8
97555.1
97551.5
97548
97543.4
97538.5
97531.9
97526
97517.2
97510.3
97500.2
97491.8
97480.3
97471.1
97458.8
97448.7
97435.8
97424.7
97411.4
97398.7
97384.4
97370.7
97355.2
97340.7
97324.3
97309.1
97292
97276.5
97258.5
97242.9
97224.9
97208.4
97190.9
97175.1
97159.6
97136.6
97122.1
97103.9
97090.9
97075.6
97060.6
97045.7
97032
97018.1
97004.4
96991.8
96978.6
96967.7
96956.7
96947
96937.8
96929.2
96921.1
96913.7
96907.1
96900.6
96894.5
96888.9
96883.8
96878.9
96874.3
96870.5
96866
96862.6
96858.2
96855.2
96851.4
96848.6
96845.4
96843.3
96841.2
96840.2
96839.6
96840.2
96840.8
96841
96845.4
96851.5
96857.5
96864.4
96872.9
96882.5
96893.5
96905.4
96920
96934.8
96951.3
96969.1
96988.3
97008.8
97031.4
97053.6
97081.2
97109.2
97132.9
97159.4
97185.9
97212.4
97238.4
97265.2
97292.6
97319.6
97345.5
97371.9
97397.9
97423.2
97448.8
97474.6
97500.3
97525.9
97551
97576.4
97601.4
97626.6
97651.5
97676.8
97702.3
97728
97753.9
97779.4
97804.5
97829.4
97854.1
97878.8
97903.6
97928.8
97954.1
97979.7
98005.1
98030.8
98056.3
98082.1
98107.8
98134.1
98160.2
98186.8
98213.4
98240.4
98267.2
98294.7
98321.8
98349.5
98376.9
98404.7
98432.2
98460.2
98487.9
98516.1
98544
98572.5
98600.6
98629.3
98657.6
98686.5
98714.9
98744
98772.7
98802
98830.9
98860.4
98889.5
98919.2
98948.4
98978.4
99007.7
99037.8
99067.3
99097.5
99127.1
99157.4
99187.1
99217.7
99247.5
99278.2
99308
99338.7
99368.6
99399.3
99429.3
99459.8
99489.5
99520
99549.6
99579.8
99609
99639
99668
99697.6
99726.4
99755.6
99783.8
99812.5
99840.4
99868.8
99896.5
99924.5
99951.5
99978.9
100005
100033
100059
100085
100110
100136
100161
100186
100210
100234
100258
100282
100305
100328
100350
100373
100395
100417
100438
100459
100479
100500
100520
100539
100558
100577
100595
100614
100631
100648
100665
100682
100697
100713
100728
100743
100758
100772
100786
100799
100812
100825
100838
100850
100862
100874
100885
100896
100907
100918
100928
100938
100948
100958
100968
100977
100986
100995
101004
101013
101021
101029
101037
101045
101052
101060
101067
101075
101081
101088
101095
101102
101108
101114
101120
101126
101132
101138
101144
101150
101155
101160
101166
101171
101176
101181
101186
101191
101196
101200
101205
101210
101214
101218
101223
101227
101231
101235
101239
101243
101247
101251
101254
101258
101261
101264
101268
101271
101274
101277
101280
101283
101286
101289
101292
101294
101297
101300
101302
101305
101307
101309
101312
101314
101317
101319
101321
101324
96789
96788.2
96787.9
96786.6
96785.6
96783.4
96780.9
96778.3
96774.8
96771.5
96767.2
96763.4
96758.7
96754.3
96749.7
96744.8
96740.5
96735.4
96731.6
96726.9
96723.4
96719.1
96715.6
96712
96708.9
96706
96703.6
96701.8
96699.8
96698.3
96696.7
96695.4
96694.4
96693.3
96692.9
96692.2
96692.2
96691.9
96692
96692.2
96692.6
96693.2
96693.8
96694.6
96695.4
96696.2
96697.1
96697.9
96698.8
96699.7
96700.5
96701.4
96702.2
96702.9
96703.9
96702.9
96703.3
96702.9
96702.2
96701.5
96700.5
96699.2
96697.4
96695.1
96692.4
96689.1
96685.4
96680.9
96675.8
96670
96663.6
96656.6
96649.2
96641.8
96634.2
96626.5
96620
96613.3
96606.9
96603.2
96599.4
96598.8
96600.1
96602.6
96609.7
96620
96635.9
96656.6
96673.2
96686.7
96706.7
96725
96743.3
96767
96788.2
96814.8
96836.5
96863.8
96884.9
96910.1
96929.2
96945.6
96966.7
96968.7
96988
96998.1
97021.9
97032.7
97051.9
97062.6
97071.7
97082.1
97088
97097
97102.2
97107.7
97114.5
97118.5
97124.4
97128.4
97135.3
97139
97145.2
97148.4
97153.8
97158.3
97162.9
97168.2
97172.5
97178.7
97183.3
97189.7
97194.7
97200.9
97205.8
97212.3
97217.1
97223.6
97228.5
97235.6
97240.9
97248.3
97255
97262.3
97270
97278.3
97288.1
97297
97308.3
97320.2
97333.1
97344.7
97359.3
97371.8
97386.8
97400.9
97415.5
97430.6
97446.9
97456.9
97471.1
97482.9
97492.9
97503.3
97514.1
97521.5
97529.6
97537.4
97542.4
97547.1
97552
97554
97557.7
97555.4
97556.6
97554.4
97551.8
97547.4
97543.4
97537.3
97533
97524.3
97518.8
97508.2
97502.2
97489
97482.5
97468.1
97460.7
97446.5
97436.9
97423.4
97412.2
97397.4
97385.2
97369.5
97356.1
97339.3
97325.8
97307
97293.6
97274.3
97260
97240.5
97224.9
97207
97193.1
97175.5
97154.8
97143.8
97115.1
97107.6
97089.7
97075.7
97060.1
97046.2
97031.5
97018.3
97005.7
96990.9
96980
96967.9
96956.9
96947.5
96938.5
96929.6
96922.1
96914.4
96907.8
96901.7
96895.5
96889.8
96884.9
96880
96876
96871
96868
96863.1
96860.2
96855.5
96853.7
96849.8
96847.6
96845.1
96843.9
96842.4
96842.8
96843.2
96845
96850.1
96853.1
96857.6
96862.7
96868.9
96876.3
96884.9
96894.8
96906.5
96919.6
96933.5
96949.2
96966.3
96985.6
97005.8
97028.8
97052.2
97077.1
97101.3
97127.6
97153.9
97181.3
97208.6
97234.5
97261.9
97289.7
97317.3
97343.7
97370.3
97396
97421.8
97447.5
97473.2
97500.3
97525.6
97550.7
97575.8
97601.5
97626.4
97652
97676.7
97702.4
97727.9
97754
97779.5
97804.8
97829.7
97854.6
97879.1
97904.1
97929
97954.4
97979.9
98005.6
98030.9
98056.8
98082.2
98108.5
98134.1
98160.8
98186.7
98214
98240.2
98267.9
98294.4
98322.4
98349.2
98377.5
98404.4
98432.9
98459.8
98488.5
98515.7
98544.7
98572.1
98601.3
98628.8
98658.3
98685.9
98715.6
98743.4
98773.4
98801.4
98831.6
98859.8
98890.2
98918.5
98949.2
98977.7
99008.5
99037.1
99068.1
99096.7
99127.9
99156.6
99187.9
99216.8
99248.3
99277.2
99308.7
99337.7
99369.3
99398.4
99430.1
99458.7
99490.1
99519
99550.3
99578.7
99609.7
99638
99668.4
99696.6
99727
99754.6
99784.3
99811.6
99840.8
99867.9
99897
99923.4
99951.9
99977.9
100006
100032
100059
100084
100111
100135
100161
100185
100210
100233
100258
100281
100305
100327
100351
100372
100395
100416
100438
100458
100480
100499
100520
100538
100559
100576
100596
100613
100631
100647
100665
100681
100697
100712
100728
100742
100758
100771
100786
100798
100812
100824
100838
100849
100862
100873
100885
100895
100907
100917
100928
100938
100948
100958
100968
100977
100986
100995
101004
101012
101021
101028
101037
101044
101053
101060
101067
101074
101082
101088
101095
101101
101108
101114
101120
101126
101132
101138
101144
101149
101155
101160
101166
101171
101176
101181
101186
101191
101196
101200
101205
101209
101214
101218
101223
101227
101231
101235
101239
101243
101247
101250
101254
101258
101261
101264
101268
101271
101274
101277
101280
101283
101286
101289
101291
101294
101297
101299
101302
101305
101307
101309
101312
101314
101317
101319
101321
101324
96789.5
96788.1
96788
96786.5
96785.9
96783.3
96781.4
96778.2
96775.4
96771.3
96767.9
96763.4
96759.3
96754.6
96750.1
96745.3
96740.5
96736.1
96731.4
96727.3
96723
96719.3
96715.5
96712.3
96709.2
96706.5
96704.1
96701.8
96699.9
96698.1
96696.7
96695.5
96694.5
96694
96693.4
96693.2
96693
96693.1
96693
96693.3
96693.7
96694.2
96694.7
96695.4
96696
96696.7
96697.4
96698.3
96699
96700
96700.8
96701.9
96702.5
96703
96704.1
96703.4
96704.1
96704.3
96703.8
96703
96702.1
96700.8
96699
96696.8
96694
96690.6
96686.8
96682.2
96677.1
96671.2
96664.8
96657.6
96650.1
96642.6
96634.8
96626.6
96620.7
96613.7
96609.3
96604.3
96601.2
96602.3
96603.3
96607.5
96615.5
96621.2
96629.1
96639
96654.2
96684.2
96695.4
96728.3
96743.1
96776.1
96794.3
96822.6
96845.3
96866.8
96894.8
96912.6
96931.7
96951.2
96964
96987.9
97000.1
97019.6
97024.7
97041.6
97048.6
97060.7
97072.1
97080.2
97090
97095.5
97103.1
97108.8
97112.6
97119.9
97122.4
97130.4
97132.7
97141.9
97141.6
97149.7
97153
97157.7
97163.1
97167.7
97172.4
97177.3
97184
97188.2
97195.4
97199.6
97206.8
97210.9
97217.9
97222.2
97229.4
97234
97241.9
97247.2
97254.6
97262
97269.4
97278.2
97286.1
97296.9
97307.6
97319.8
97330.7
97345.5
97356.7
97372
97385.1
97400
97415.4
97431.1
97442.3
97461.3
97469.2
97485.6
97490.5
97503.5
97513.9
97520.1
97531.5
97536
97542.8
97548.6
97551.4
97556.7
97553.6
97559.8
97555
97554.1
97551.4
97548.3
97542.3
97538.8
97531.2
97526.6
97515.3
97512.6
97498.6
97493.4
97477.2
97473.6
97456.1
97450.4
97434.1
97425.7
97410.3
97399.5
97383.7
97371.8
97354.7
97341.6
97324
97310.4
97291.5
97277.6
97256.8
97244
97224
97208.7
97190.4
97176.2
97164.1
97132.5
97126.3
97102.1
97091.6
97075.7
97060.9
97045.4
97033.1
97018.6
97004.2
96994.3
96977.5
96967.5
96957.1
96948.4
96938.6
96929.7
96922.1
96914.4
96908.1
96902
96896.6
96890.4
96885.2
96881.8
96875.8
96873.5
96867.7
96866.3
96860.2
96858
96853.3
96851.7
96847.7
96847.6
96843.7
96845.2
96842.8
96845.2
96846
96848.4
96849.6
96853.4
96858.3
96863.4
96872.2
96880.8
96892.2
96904.4
96917.2
96933.6
96948.7
96967.9
96986.4
97008.7
97030.9
97054.6
97077.7
97102.6
97126.8
97155
97180.2
97207.5
97234.1
97261.9
97289.6
97317.1
97343.8
97369.7
97395.4
97422.2
97447.1
97474.3
97499.3
97526.1
97550.1
97576.3
97600.5
97627
97651.4
97677.2
97702
97728
97753.5
97779.3
97804.2
97829.8
97854
97879
97903.5
97928.9
97953.9
97979.8
98004.9
98030.8
98056.1
98082.4
98107.7
98134.2
98159.9
98187.2
98212.8
98240.6
98266.5
98294.9
98321
98349.8
98376.1
98405.2
98431.3
98460.7
98487
98516.6
98543
98573
98599.5
98629.8
98656.4
98687.1
98713.7
98744.7
98771.4
98802.7
98829.5
98861.2
98888
98920
98946.9
98979.1
99006.2
99038.6
99065.7
99098.3
99125.4
99158.2
99185.5
99218.5
99245.8
99278.9
99306.2
99339.1
99367
99399.8
99427.3
99460.3
99487.7
99520.6
99548
99580.3
99607.3
99639.1
99666.5
99697.7
99724.7
99756
99782.2
99812.4
99839.1
99868.7
99895
99924.8
99950
99978.8
100004
100033
100057
100085
100109
100136
100159
100186
100209
100235
100257
100282
100303
100328
100349
100373
100393
100417
100436
100459
100478
100500
100518
100540
100557
100577
100594
100614
100630
100648
100664
100682
100696
100713
100727
100743
100756
100772
100785
100799
100811
100825
100837
100850
100861
100874
100884
100896
100906
100917
100927
100939
100947
100958
100967
100977
100985
100995
101003
101012
101020
101029
101036
101045
101052
101060
101067
101075
101081
101088
101095
101102
101107
101114
101120
101126
101132
101138
101143
101150
101154
101160
101165
101171
101176
101181
101186
101191
101195
101201
101205
101210
101214
101218
101222
101227
101231
101235
101239
101243
101247
101251
101254
101257
101261
101264
101267
101271
101274
101277
101280
101283
101286
101289
101291
101294
101297
101299
101302
101305
101307
101309
101312
101314
101317
101319
101321
101323
96791.1
96789.6
96789.3
96787.9
96787
96784.5
96782
96779.4
96775.5
96772.4
96768.1
96764.3
96759.5
96755.2
96750.3
96745.7
96741
96736.3
96731.9
96727.6
96723.5
96719.6
96715.8
96712.4
96709.2
96706.3
96704.2
96701.7
96700.6
96698.7
96697.8
96696.1
96695.5
96694.3
96694
96693.2
96693.3
96692.8
96693.1
96693
96693.5
96694
96694.8
96695.6
96696.7
96697.5
96698.8
96699.8
96700.9
96701.8
96703
96704
96704.8
96705.8
96705.7
96705.9
96706.5
96706.2
96706.1
96705.8
96705.1
96704.1
96702.5
96700.6
96697.9
96694.9
96690.7
96686.6
96680.9
96675.2
96667.9
96660.9
96652.2
96646.1
96635.1
96629.1
96618.9
96612.8
96604.6
96597.6
96594.7
96591.5
96593.8
96594.1
96600.1
96610.8
96625.2
96637.1
96655
96665.5
96693.8
96704.5
96735.7
96756.2
96788.3
96809.9
96839.1
96862.5
96886.2
96912.4
96930.7
96947.8
96968.5
96985.2
97002.3
97011.2
97028
97036.8
97048.3
97060
97069.6
97079.4
97087
97095.6
97100.9
97105.4
97114.8
97117.3
97124.6
97126.6
97136.6
97135.1
97146.5
97146
97153.9
97157.9
97162.5
97167.3
97172
97177.6
97181.7
97189.6
97193
97201.2
97204.3
97212.1
97216
97223.4
97227.3
97235.4
97239.7
97247.9
97253.8
97261.2
97269.3
97275.8
97286.6
97295.3
97306.5
97317.4
97331.4
97341.1
97357.7
97368.6
97384.4
97398.5
97414.7
97427.7
97448
97451.9
97475.9
97478.3
97494
97502.5
97511.1
97521.4
97529.9
97537.9
97541.7
97549.2
97552.5
97552.1
97557.3
97554.1
97556.9
97552.7
97551
97546.7
97543.6
97536.5
97533.3
97523.1
97520.4
97506.3
97504.3
97484.4
97487
97463.1
97465
97441.7
97439.3
97421.3
97414.5
97396.1
97387.6
97369.6
97356.9
97339.6
97326.7
97308.1
97295.2
97274.7
97261.3
97240.9
97226.6
97205.9
97196.1
97179.7
97150.8
97151.9
97111.3
97109.5
97092.2
97076.3
97059.4
97048.2
97030.9
97018.9
97008
96989.6
96980.4
96967.1
96957.4
96948.5
96937.8
96930
96923.3
96914.5
96909.4
96904.2
96897.6
96892.5
96888.5
96881.7
96880.8
96872.3
96874.3
96864.6
96866.8
96858.5
96859.3
96852.4
96853.9
96847.2
96850.4
96844.4
96849
96844.5
96849.7
96847.7
96852.7
96854
96858
96864.9
96870.9
96880.7
96891
96902.7
96917.4
96929.7
96948.3
96964.8
96986.3
97006.6
97029.4
97052.4
97077.5
97100.9
97127.2
97153.4
97181.1
97205
97235.3
97260.6
97290.4
97316.5
97343.8
97370.4
97396.1
97421.9
97448.2
97472.5
97501
97525.2
97552.2
97575.4
97602.5
97625.6
97653
97676.6
97703.6
97727.2
97754.6
97778.6
97805
97829.2
97854.6
97878.3
97904.2
97928.4
97954.4
97979.2
98005.5
98030.5
98056.7
98081.7
98108.3
98133.6
98160.5
98186.2
98213.8
98239.4
98267.8
98293.8
98322.3
98348.2
98377.6
98403.4
98433.1
98458.7
98488.7
98514.6
98544.9
98570.6
98601.7
98627.2
98658.8
98684.2
98716.4
98741.6
98774.3
98799.5
98832.5
98857.7
98891.2
98916.3
98950.2
98975.4
99009.6
99034.8
99069.2
99094.4
99129
99154.3
99189.1
99214.4
99249.4
99274.7
99309.5
99335.6
99369.9
99396.1
99430.6
99456
99490.6
99516.9
99551.2
99576.6
99610
99636.3
99668.3
99695
99727.3
99752.5
99784.3
99810.3
99840.3
99866.7
99897
99921.9
99951.7
99976.9
100005
100030
100059
100082
100111
100134
100161
100184
100210
100232
100258
100280
100305
100326
100351
100371
100395
100415
100438
100457
100479
100498
100520
100537
100559
100575
100595
100612
100631
100647
100665
100680
100697
100712
100728
100742
100758
100770
100785
100798
100812
100824
100837
100849
100861
100872
100885
100895
100907
100916
100928
100937
100948
100957
100967
100976
100986
100994
101004
101011
101020
101028
101037
101044
101052
101059
101067
101073
101082
101088
101095
101101
101108
101113
101120
101126
101132
101138
101144
101149
101155
101160
101166
101170
101176
101180
101186
101190
101196
101200
101205
101209
101214
101218
101223
101226
101231
101235
101239
101243
101247
101250
101254
101258
101261
101264
101267
101271
101274
101277
101280
101283
101286
101289
101291
101294
101297
101299
101302
101305
101307
101309
101312
101314
101317
101319
101321
101324
96792.3
96790.5
96790.1
96788.5
96787.9
96784.9
96782.7
96779.4
96776.1
96772.3
96768.5
96764.1
96759.8
96755.1
96750.3
96745.7
96740.5
96736.3
96731.2
96727.5
96722.7
96719.3
96715.7
96712.7
96709.6
96707.5
96704.3
96702.8
96700.2
96699
96697.2
96696.5
96695.2
96695.3
96694.4
96694.8
96694.1
96694.8
96694.2
96695.2
96695
96695.9
96696.2
96697.3
96697.8
96698.7
96699.3
96700.3
96701.1
96702.3
96703.2
96704.3
96705.3
96706.1
96706.5
96707.5
96708.6
96708.6
96708.6
96708.4
96708
96707
96705.7
96703.4
96701.1
96697.3
96693.8
96688.3
96683.4
96675.8
96669.6
96659.1
96654
96641.4
96635.1
96622.1
96614.5
96607.3
96596
96596.3
96585.6
96588.5
96585.7
96590.1
96594.6
96602.4
96611.2
96626.9
96639.3
96669.7
96680.2
96708.2
96727.1
96758.7
96781.5
96812.9
96836.3
96861.5
96884.9
96909
96929.4
96951
96967.5
96986.6
97001.8
97016.2
97025.4
97039
97046.8
97059.7
97067.8
97078.7
97086.1
97093.7
97100.7
97106.8
97111.1
97119.2
97120.6
97128.6
97130.5
97139.4
97138.8
97148
97152
97157.4
97161.7
97166.1
97171.4
97176
97182.8
97186.1
97195.9
97197.3
97208
97207.9
97217.6
97221.1
97229.1
97233.2
97241.5
97246.4
97253.7
97261.4
97266.8
97277.4
97284.4
97295.2
97305.3
97317.3
97327.3
97343
97352.3
97369.7
97381
97397.9
97410.6
97434.6
97433.4
97468.4
97459.5
97488.2
97483.9
97503.9
97511.4
97519.8
97529
97537.8
97540.3
97546.9
97549.4
97553.6
97553.3
97556.8
97552.3
97552.2
97548.9
97546.2
97540.9
97537.1
97529.4
97526
97512.8
97513.6
97492.9
97496.5
97472.5
97477.4
97449.5
97454.2
97428.1
97429
97405.2
97401.8
97381.5
97373.6
97354.3
97341.9
97323.5
97310.6
97292.2
97277.8
97257.4
97244.3
97220.8
97213.1
97192.6
97173.3
97172.1
97129
97128.8
97103.3
97092.5
97074
97062.1
97044.3
97033.1
97020.1
97002.6
96997.8
96973.3
96968
96957.2
96948
96937
96931.3
96922.3
96916.4
96910.1
96904.5
96899.1
96893.5
96886.5
96887.2
96876
96880.5
96868.2
96873.6
96861.6
96864.7
96856
96857.6
96850.3
96853.2
96844.9
96851.2
96842.7
96850.3
96842.9
96850.6
96846.8
96854.5
96856.2
96860.7
96869.6
96877.8
96888
96901.5
96912.5
96931.2
96944.6
96965.1
96983.3
97005.8
97027.6
97052.3
97075
97101.2
97127.6
97155.2
97178.7
97210
97233.4
97263.8
97290.3
97318.3
97344
97371.2
97397.6
97423.5
97447.6
97475
97499.3
97526.8
97550.7
97578.4
97600.7
97628.6
97651
97679.2
97702
97730.2
97751.4
97780.4
97803.1
97830.1
97853.4
97879.4
97902.8
97929.1
97953.1
97980.2
98004.4
98031.1
98055.8
98082.5
98107.4
98134.2
98159.6
98187
98212.8
98240.2
98266.5
98294.7
98320.9
98349.7
98375.6
98405.2
98431
98460.6
98486.3
98516.7
98542.4
98573.3
98598.7
98629.9
98655.2
98687.7
98712.1
98745.6
98769.7
98803.9
98827.6
98862.4
98886
98921.2
98944.7
98980.5
99003.9
99040
99063.4
99099.7
99123.1
99159.7
99183.1
99219.9
99243.4
99280
99303.9
99340.1
99364.8
99400.6
99424.9
99460.9
99485.6
99520.8
99545.8
99581.2
99605.5
99639.1
99665.2
99697.6
99723.1
99756.3
99780.6
99812
99838.1
99867.9
99894.2
99924.5
99949.1
99978.3
100003
100032
100056
100085
100108
100136
100159
100186
100208
100234
100256
100281
100303
100328
100349
100373
100393
100417
100436
100459
100478
100499
100518
100539
100556
100577
100594
100613
100629
100648
100663
100681
100696
100713
100727
100743
100756
100772
100784
100799
100811
100825
100836
100849
100860
100873
100883
100896
100906
100917
100927
100938
100947
100958
100966
100976
100985
100995
101002
101012
101019
101028
101036
101045
101051
101059
101066
101074
101080
101088
101094
101101
101107
101114
101120
101126
101132
101138
101143
101150
101154
101160
101165
101171
101175
101181
101185
101191
101195
101200
101204
101210
101213
101218
101222
101227
101230
101235
101239
101243
101246
101250
101254
101257
101261
101264
101267
101271
101274
101277
101280
101283
101286
101289
101291
101294
101297
101299
101302
101305
101307
101309
101312
101314
101317
101319
101321
101323
96794.5
96792.7
96792.3
96790.8
96790.2
96787.2
96784.7
96781.5
96777.8
96773.9
96769.5
96764.9
96760.3
96754.8
96750.7
96744.9
96741.7
96735.5
96732.7
96726.8
96723.6
96719
96715.6
96712.3
96709.5
96706.7
96704.3
96702.7
96700.6
96699.6
96698.1
96697.4
96696.5
96695.9
96695.9
96695.1
96695.5
96694.7
96695.4
96694.9
96695.9
96695.9
96696.9
96697.4
96698.5
96699.1
96700.5
96701
96702.6
96703.5
96704.8
96705.8
96706.9
96707.7
96709
96709.8
96710.4
96711.3
96711.5
96711.5
96711.2
96710.5
96709
96707.1
96703.8
96701.1
96695.7
96691.8
96684.3
96679
96667.9
96662.6
96650
96642.4
96632.5
96623
96613.2
96602.8
96596.6
96580
96583.2
96574.2
96576.7
96578.1
96582.8
96587.3
96601.5
96610.9
96633.3
96648.5
96674.3
96692
96725.7
96745.8
96777.4
96800.6
96831
96855
96882.6
96906.9
96928.4
96947.1
96965.7
96982.1
97000.2
97009.4
97025.3
97034.4
97045.9
97055.6
97068.9
97072.6
97084.3
97090.3
97099.4
97102.6
97111.7
97113.5
97122
97124.1
97131.1
97133.3
97139.7
97144.9
97149.9
97155.4
97159.5
97164.7
97169.9
97175.5
97180.1
97188.2
97189.9
97202.3
97200.7
97213.5
97212.5
97223.5
97225.4
97235.5
97238.9
97247
97253.4
97259.4
97268
97275.2
97284.6
97294.1
97304.8
97315.1
97328.7
97338.1
97355.8
97364.1
97382.6
97393.5
97415.3
97419.3
97455.7
97438.6
97481.9
97467.3
97497.3
97495.7
97511.8
97517.3
97526.6
97532.5
97540.2
97544.3
97548.8
97550.7
97552.4
97551.9
97551.8
97548.9
97547.6
97543.8
97540
97534
97528.7
97520.5
97516.6
97502.4
97502.8
97480.1
97486
97457.9
97465.7
97435.7
97442
97412.1
97417.4
97388.4
97388.3
97365.7
97358.4
97336.1
97326.6
97306.6
97293.6
97273.2
97261.4
97238.6
97228.8
97205.9
97193.1
97184.1
97147.1
97152.6
97110.2
97109.1
97092.3
97076.8
97056.4
97047.5
97028.4
97019.4
97013.4
96984.4
96981.5
96965.7
96959.5
96945.5
96940.1
96929.6
96924.2
96915.3
96911.5
96905
96899.6
96894.5
96890.9
96882
96885.4
96871.9
96880.1
96864.3
96872.4
96859.5
96862.3
96855.2
96856.1
96848.6
96851.9
96843.7
96851.7
96841.3
96850.3
96841.6
96853.1
96848.6
96855.1
96861.2
96866.8
96876.2
96886.5
96897.7
96913.5
96924.4
96945.6
96960.4
96982.7
97003.1
97026.2
97049.3
97075.3
97099.6
97127.1
97154.3
97181.6
97206.5
97237.5
97262.5
97292.7
97316.5
97345.7
97371.5
97397.4
97424
97450.3
97473.4
97501.6
97526.2
97553.3
97576.3
97604.5
97625.4
97654.7
97676
97705.8
97726.2
97756.8
97775.8
97806.3
97827.4
97855.1
97877
97904.7
97927.2
97954.4
97978.5
98005.8
98030
98056.9
98081.3
98108.5
98133.3
98160.6
98186.1
98213.6
98239.5
98267.6
98293.6
98322
98348.3
98377.2
98403.4
98433
98458.5
98488.7
98514.2
98544.4
98570.4
98601.5
98626.8
98658.6
98683.5
98716.2
98740.7
98774.7
98798.1
98833.4
98856.1
98892.2
98914.5
98951.3
98973.4
99010.7
99032.7
99070.4
99092.2
99130.3
99152.1
99190.5
99212.2
99250.6
99272.6
99310.6
99333.5
99370.8
99393.8
99431.3
99454.3
99491
99514.8
99551.3
99574.4
99610.7
99634.7
99668.2
99693.6
99727.4
99750.8
99784.5
99809.2
99839.7
99865.9
99895.8
99921.2
99951.2
99976
100005
100030
100058
100082
100110
100133
100161
100184
100210
100233
100258
100280
100305
100326
100350
100371
100394
100415
100438
100457
100479
100498
100519
100537
100558
100575
100595
100612
100630
100647
100664
100679
100697
100711
100728
100742
100757
100770
100785
100798
100812
100823
100837
100848
100861
100872
100884
100894
100906
100916
100927
100937
100948
100956
100967
100975
100985
100994
101003
101011
101020
101028
101036
101043
101052
101059
101067
101073
101081
101087
101095
101101
101108
101113
101120
101126
101132
101137
101144
101148
101155
101159
101166
101170
101176
101180
101186
101190
101195
101199
101205
101209
101214
101218
101222
101226
101231
101234
101239
101242
101247
101250
101254
101257
101261
101264
101267
101270
101274
101277
101280
101283
101286
101289
101291
101294
101297
101299
101302
101304
101307
101309
101312
101314
101317
101319
101321
101324
96797.1
96795
96794.6
96793
96792.5
96789.3
96786.7
96783.3
96779.7
96775.6
96771
96766.6
96760.7
96757.1
96750.1
96747.3
96739.9
96737.1
96731
96727.1
96723
96718.2
96715.5
96712.4
96709.8
96706.9
96705.2
96702.4
96701.5
96699.7
96698.9
96697.8
96697.4
96696.7
96696.9
96695.9
96696.4
96695.9
96696.1
96696.2
96696.5
96697
96697.4
96698.5
96698.9
96700.4
96701
96702.9
96703.6
96705.3
96706.3
96707.7
96708.8
96710.1
96711.6
96712.8
96713.4
96714.5
96714.7
96715
96714.9
96714.4
96713.2
96710.7
96708.4
96703.9
96700.3
96693.2
96688.7
96678.5
96673.7
96660.8
96651.2
96641.8
96631
96619.9
96607.6
96599.2
96579.3
96582.7
96568.2
96568.6
96567.4
96568.4
96568.7
96579
96581.9
96603.4
96616.4
96642.7
96662
96691.6
96712.6
96745.9
96771.6
96798.9
96823.5
96854.5
96879.6
96901.5
96925.1
96945.3
96961.1
96980.3
96993.1
97010.2
97018
97035.9
97039.1
97057
97056.5
97078.6
97074.3
97092.7
97089.9
97104.9
97103.2
97113.2
97117.2
97121.8
97126.7
97132
97137.2
97142.7
97148.2
97152
97157.6
97162.3
97167.8
97173.7
97179.6
97184.1
97193.8
97193.2
97207.8
97204.5
97218.7
97217
97228.9
97231.9
97241.1
97246.4
97251.6
97260.4
97267.7
97275.4
97284.8
97294.2
97304.6
97316.4
97326.5
97342
97350.2
97370.5
97373.8
97397.5
97403.8
97439.9
97424.4
97471.8
97447.8
97491.6
97478.1
97503.6
97505.9
97517.6
97523
97531.5
97537.1
97541.3
97546.4
97548.1
97549.3
97550.6
97547.5
97547.1
97543.6
97539.9
97536.4
97532.2
97524.8
97519.4
97509.9
97505.9
97492.5
97489
97469.6
97472.2
97444.2
97452.1
97420.8
97428.9
97396.8
97401.8
97372.2
97373.7
97347.4
97340.8
97319.8
97308.7
97288
97276.4
97253.8
97244.7
97219.9
97210.5
97192.5
97168.3
97173.3
97123.2
97127.7
97104.2
97092.8
97072.8
97062
97041.1
97033.5
97022.8
96998.5
97002.1
96966.4
96972.6
96956.5
96950.4
96936.3
96932.6
96920.5
96918.5
96909.9
96906.5
96900.1
96894.9
96888.1
96888.9
96876.7
96883.5
96867.5
96878.1
96860.6
96869.7
96856
96859
96852.2
96853.8
96846.1
96849.8
96840.8
96849.1
96839.3
96849.7
96842.1
96850.5
96852.9
96857.7
96864.9
96873.1
96882.8
96895.7
96907.6
96926.2
96938.1
96961.5
96978.2
97002.1
97024
97048.6
97073
97100.1
97125.8
97154.9
97182.4
97209.6
97236.3
97264.6
97290.9
97320.2
97344.5
97372.8
97398.8
97427.9
97446.2
97476.3
97500.1
97527.8
97551.5
97579.6
97601.5
97630.6
97650
97680.7
97700.3
97731.6
97749.9
97783.1
97799.5
97831.6
97851.1
97880.6
97901
97929.8
97951.8
97980.7
98003.4
98031.7
98055.4
98082.6
98106.9
98134.6
98159.3
98187.2
98212.6
98240.5
98266.6
98294.7
98321
98349.4
98375.9
98404.8
98431.3
98460.6
98486.6
98516.9
98541.9
98572.9
98598.7
98628.9
98655.3
98686.8
98712.1
98745.2
98769.3
98803.7
98827.2
98862.7
98885
98921.8
98943.5
98981.3
99002.3
99041
99061.7
99100.8
99121.4
99160.8
99181.3
99221
99241.5
99281.1
99302.1
99341.3
99362.8
99401.4
99422.8
99461.7
99483.8
99521.4
99543.5
99581.8
99603.4
99640.1
99663.3
99698.4
99721.1
99756.6
99779
99812.2
99837
99867.2
99894.1
99923.1
99948.7
99977.8
100003
100031
100056
100083
100108
100135
100159
100185
100208
100234
100257
100281
100303
100327
100349
100372
100393
100416
100436
100458
100478
100499
100518
100539
100557
100576
100594
100613
100630
100647
100664
100681
100696
100712
100727
100742
100756
100771
100784
100798
100811
100824
100836
100849
100860
100872
100883
100895
100905
100917
100926
100937
100947
100957
100966
100976
100984
100994
101002
101011
101019
101028
101035
101044
101051
101059
101066
101074
101080
101088
101094
101101
101107
101114
101119
101126
101131
101138
101143
101149
101154
101160
101165
101171
101175
101181
101185
101191
101195
101200
101204
101209
101213
101218
101222
101227
101230
101235
101238
101243
101246
101250
101253
101257
101261
101264
101267
101270
101274
101277
101280
101283
101286
101289
101291
101294
101297
101299
101302
101304
101307
101309
101312
101314
101317
101319
101321
101324
96799.9
96797.8
96797.4
96795.8
96795.4
96792.4
96789.4
96785.9
96782
96777.7
96773.2
96767.6
96763.6
96756.1
96753.3
96745.5
96741.9
96736.6
96730.7
96727.7
96721.4
96719.2
96715.2
96712
96709.2
96707
96704.6
96703.3
96701.7
96700.6
96699.4
96698.8
96698.1
96698
96697.4
96697.7
96696.9
96697.5
96696.8
96697.6
96697.2
96698.2
96698.1
96699.6
96700.4
96701.4
96703.1
96703.5
96705.8
96706.5
96708.3
96709.5
96711.3
96712.8
96715
96715.8
96717.2
96717.7
96718.8
96719.2
96719.3
96718.9
96717.6
96715.7
96711.9
96709.1
96703
96698.3
96689.7
96685
96670.7
96662.5
96650.9
96639.8
96629.4
96616.2
96608.5
96587.3
96584.7
96567.8
96562.4
96556.8
96554.2
96553.9
96559
96559
96578
96584.1
96610.8
96628
96657.4
96676.4
96710.9
96731.1
96764.6
96789
96822.2
96845.9
96873.2
96897.8
96918
96937.4
96957.7
96973.8
96989.3
97001
97018.8
97025.1
97043.5
97043.4
97064.4
97058.3
97084.1
97074.5
97096.2
97087.5
97108.5
97103.2
97115.2
97117.9
97123.3
97130
97132.8
97139.9
97143.3
97149.5
97153.9
97159.4
97164.9
97170.4
97177.4
97183.1
97187.9
97197.6
97197
97212.4
97208.8
97223.4
97222.8
97235.6
97238.6
97245.9
97252.5
97260.2
97267.8
97276.6
97285.5
97295.4
97305.9
97317
97329.7
97340
97356.3
97363.4
97387.6
97385.5
97423.1
97411.3
97457.4
97433.8
97482.2
97462
97496.3
97491.6
97509.7
97511.6
97521.4
97527.9
97533
97539.8
97542
97545
97546.9
97544.7
97545.6
97542
97540.3
97535.9
97534
97529.7
97522.5
97515.9
97507.5
97499.1
97490.4
97478.9
97472.6
97456.5
97454
97432
97434.4
97405.1
97413.9
97379.1
97385.6
97354.1
97358.5
97324.6
97325.4
97297.6
97292.6
97268.1
97257.7
97235.8
97224
97205.2
97186.2
97185.7
97142.5
97146.6
97116.4
97107.9
97088.1
97075.9
97056.9
97048.3
97026.9
97016.3
97021.4
96976.4
96984.8
96963.8
96965.4
96941.1
96945.9
96925.1
96928.4
96913.6
96913.8
96903.8
96902.6
96895.7
96890
96882.9
96886.1
96872.2
96880.9
96863.6
96875
96857.1
96866.3
96852.9
96855.6
96848.6
96850.2
96844.5
96847.7
96839.2
96846.5
96839.5
96847.6
96846.1
96850.5
96856.6
96862.4
96870.7
96880.9
96892.8
96906.3
96919.7
96940.4
96953.6
96978.9
96996.9
97023.7
97045
97072.2
97097.9
97125.9
97152.4
97181.7
97207.8
97236.5
97263.2
97291.3
97317
97345.9
97371.3
97398.6
97422.1
97452.4
97473.5
97504
97525.3
97554.1
97576.6
97605
97625.8
97656.2
97674.9
97706.3
97723.8
97757.8
97773.6
97808.3
97823.9
97856.6
97874.5
97906.1
97924.5
97955.8
97976.7
98006.2
98028.7
98057.6
98080.5
98109.2
98132.6
98160.9
98185.9
98214.1
98239.2
98267.9
98293.5
98322.5
98348.2
98377.3
98403.5
98432.8
98459
98488.3
98514.4
98544.7
98570.3
98601.2