/*--------------------------------*- C++ -*----------------------------------*\
| =========                 |                                                 |
| \\      /  F ield         | OpenFOAM: The Open Source CFD Toolbox           |
|  \\    /   O peration     | Version:  v1812                                 |
|   \\  /    A nd           | Web:      www.OpenFOAM.com                      |
|    \\/     M anipulation  |                                                 |
\*---------------------------------------------------------------------------*/
FoamFile
{
    version     2.0;
    format      ascii;
    class       surfaceScalarField;
    location    "0.8";
    object      phi;
}
// * * * * * * * * * * * * * * * * * * * * * * * * * * * * * * * * * * * * * //

dimensions      [1 0 -1 0 0 0 0];
oriented        oriented;


internalField   nonuniform List<scalar> 
40240
(
1.26547e-05
-1.18169e-07
6.68793e-06
1.79851e-05
-2.74635e-05
4.55253e-05
-0.0001045
8.6721e-05
-0.00021255
0.000115624
-0.000341689
0.000134848
-0.000504243
0.000165734
-0.000666571
0.000164171
-0.000869642
0.000201297
-0.00106506
0.000191306
-0.00130038
0.000227509
-0.00152425
0.000213525
-0.00177809
0.00024162
-0.00202078
0.000228022
-0.00227523
0.000237996
-0.00252396
0.000228488
-0.00276503
0.000219399
-0.00300779
0.000214737
-0.0032283
0.00019237
-0.00344991
0.000188747
-0.00364299
0.000157748
-0.00383176
0.000148821
-0.00398838
0.000113164
-0.00411797
8.15856e-05
-0.00420557
3.56102e-05
-0.00425563
-6.04396e-06
-0.00427448
-4.12399e-05
-0.00426944
-6.85097e-05
-0.00425114
-8.54693e-05
-0.00421142
-0.000110635
-0.0041665
-0.000119141
-0.00411502
-0.000128892
-0.004067
-0.000128408
-0.00402817
-0.000121916
-0.00398079
-0.000133205
-0.00393757
-0.00013176
-0.00387943
-0.00014877
-0.00381109
-0.000160689
-0.00373227
-0.000172975
-0.00364145
-0.000186847
-0.00354709
-0.00019212
-0.00344524
-0.000200627
-0.00334334
-0.000201154
-0.00323849
-0.000204598
-0.0031346
-0.000203773
-0.00302774
-0.000206357
-0.00291996
-0.000206156
-0.00280833
-0.000208053
-0.00269983
-0.000202676
-0.00259862
-0.000193044
-0.00251476
-0.00017426
-0.00245108
-0.000152816
-0.00241161
-0.00012715
-0.00237702
-0.000120321
-0.00233256
-0.000128453
-0.00228979
-0.000124671
-0.00224452
-0.000125141
-0.00222643
-9.64076e-05
-0.00223399
-6.9717e-05
-0.00229709
-1.17954e-05
-0.00243839
6.96439e-05
-0.00264888
0.000142622
-0.00293091
0.000218433
-0.00327877
0.000288513
-0.00370281
0.000369281
-0.00420368
0.000450638
-0.00479094
0.000541768
-0.00546696
0.000635965
-0.00624171
0.000740326
-0.00711784
0.000847033
-0.00810899
0.000967195
-0.00921216
0.00108367
-0.0104437
0.0012165
-0.0117864
0.0013318
-0.0132689
0.00147702
-0.0148648
0.00159494
-0.0165793
0.00171747
-0.0183743
0.00180124
-0.0202528
0.00188948
-0.0221114
0.00187731
-0.0239475
0.00186366
-0.0256669
0.0017533
-0.0271228
0.00149823
-0.0282729
0.00120088
-0.0290053
0.000789728
-0.0293823
0.000438406
-0.029408
9.52841e-05
-0.0291308
-0.000207961
-0.0285978
-0.000452628
-0.0280719
-0.000437941
-0.0271287
-0.000851987
-0.0259545
-0.00107726
-0.0245394
-0.00132121
-0.0228743
-0.00156121
-0.021131
-0.00163479
-0.0191371
-0.0018844
-0.0171452
-0.00187405
-0.0150114
-0.00201064
-0.0128907
-0.00199556
-0.0107504
-0.00201328
-0.0087138
-0.00190599
-0.0068833
-0.00169504
-0.00525179
-0.00148652
-0.00346675
-0.00163326
-0.00195961
-0.00135807
-0.000823051
-0.000982798
8.98343e-05
-0.000757855
0.000515793
-0.000263608
0.00121806
-0.000536353
0.00184028
-0.000457695
0.00245441
-0.000446962
0.00301984
-0.000392467
0.00360695
-0.000410859
0.00415444
-0.000370235
0.00465509
-0.000320872
0.00513181
-0.000289585
0.00554427
-0.00022775
0.00595073
-0.000217019
0.00627042
-0.000129664
0.00659628
-0.000135675
0.00683022
-4.53335e-05
0.00707452
-5.38272e-05
0.00722907
3.0205e-05
0.00738197
2.95627e-05
0.00746603
9.27714e-05
0.00753966
9.84119e-05
0.00755239
0.00015127
0.00755365
0.000155556
0.00752175
0.000180954
0.00747487
0.000188602
0.0073784
0.000231116
0.00726829
0.000237987
0.00713111
0.0002592
0.00697193
0.000274171
0.00680327
0.000278855
0.00661366
0.000293262
0.00642894
0.000282752
0.00622202
0.000298946
0.00602375
0.000284447
0.00580455
0.000296894
0.00559915
0.000278774
0.00539084
0.000275771
0.00519359
0.000261265
0.00499106
0.000258577
0.00482823
0.000211073
0.00466509
0.000213103
0.00457008
0.000134722
0.00447903
0.000126952
0.00444823
6.1544e-05
0.00444958
2.51091e-05
0.0045217
-5.0465e-05
0.00463162
-8.9756e-05
0.00484181
-0.000196392
0.00508277
-0.000228635
0.00542068
-0.000332448
0.00579233
-0.000367048
0.00623247
-0.000439519
0.00670621
-0.000481075
0.00721212
-0.000510373
0.007734
-0.000529932
0.00830339
-0.000571911
0.00887997
-0.000594088
0.00944655
-0.000578062
0.0099994
-0.000569128
0.0105537
-0.000580147
0.0110727
-0.000537435
0.0115803
-0.000531429
0.0120768
-0.000524015
0.0125134
-0.000462174
0.0129337
-0.000437521
0.0132426
-0.000330709
0.0135412
-0.000314623
0.0137189
-0.00019774
0.0138874
-0.000181794
0.0139433
-6.99774e-05
0.0139811
-5.36881e-05
0.0139576
6.5242e-06
0.0138757
6.28601e-05
0.0137534
0.000100236
0.0135698
0.000160296
0.0133743
0.000171154
0.0131169
0.000233468
0.0128307
0.000261682
0.012535
0.000268168
0.0121994
0.000306902
0.0118659
0.000303303
0.0114869
0.000345322
0.0111273
0.000321857
0.0107284
0.000356702
0.0103561
0.000327673
0.00994561
0.000361967
0.00958477
0.000315662
0.00918691
0.00034838
0.00882793
0.000313658
0.00844091
0.000338418
0.00808623
0.000303255
0.00770448
0.000327402
0.00735928
0.000286128
0.00697892
0.000321764
0.00664332
0.000273359
0.00628427
0.000296664
0.00596687
0.000256859
0.00562233
0.000285152
0.00532928
0.000231031
0.00502929
0.000253921
0.00474103
0.000230898
0.00445194
0.000236513
0.00424045
0.00016513
0.00398474
0.000203527
0.00383389
0.000108457
0.00358402
0.000208721
0.00339011
0.000155312
0.00320043
0.000154902
0.00304679
0.00012489
0.00291937
9.71427e-05
0.00278795
0.000104868
0.00268473
7.54149e-05
0.0025791
7.82393e-05
0.00253666
1.7797e-05
0.00247719
3.45955e-05
0.00243963
1.58607e-05
0.002408
1.12745e-05
0.00238743
3.4836e-06
0.00238821
-1.414e-05
0.00239987
-2.3518e-05
0.00241314
-2.24538e-05
0.00243905
-3.36056e-05
0.00246007
-2.88866e-05
0.00247658
-2.52369e-05
0.00248812
-2.01111e-05
0.00248513
-3.4766e-06
0.00246203
1.83673e-05
0.00243058
2.92051e-05
0.00236252
6.96899e-05
0.00227175
9.25312e-05
0.00214921
0.000125947
0.0020052
0.000149018
0.00185498
0.000155019
0.00168095
0.000182147
0.0015196
0.000171582
0.00134683
0.000186614
0.00117933
0.000180979
0.000994417
0.00020138
0.000838997
0.000172978
0.000667258
0.00019212
0.000517619
0.000176314
0.000366681
0.000178876
0.00025534
0.000141402
8.9329e-05
0.000199002
-5.03621e-05
0.000178887
-0.000330169
0.000321652
-0.000658666
0.000372152
-0.000998168
0.000385892
-0.00129306
0.00034416
-0.00153147
0.000289991
-0.0017044
0.000228107
-0.00181224
0.000166049
-0.00185228
0.000103014
-0.00182519
4.05889e-05
-0.0017358
-1.61068e-05
-0.00156749
-9.15898e-05
-0.00134226
-0.000145567
-0.00104946
-0.000209272
-0.000738737
-0.000224744
-0.000405427
-0.000241515
-0.000163757
-0.000141251
9.65405e-05
-0.000158955
0.000230849
-3.19866e-05
0.000440234
-9.6203e-05
0.000670981
-0.000100598
0.00092922
-0.000133438
0.00118607
-0.000133707
0.00146757
-0.000146381
0.00174608
-0.000137136
0.00203654
-0.000149856
0.00233052
-0.000142999
0.002584
-0.000103746
0.0028443
-0.000100833
0.00308817
-7.77935e-05
0.0033234
-6.5371e-05
0.00354103
-4.30046e-05
0.00375971
-3.96565e-05
0.00394804
-4.62553e-06
0.00411552
4.43223e-06
0.00426178
3.99972e-05
0.00440499
4.75996e-05
0.00452109
7.29567e-05
0.00464268
7.67322e-05
0.00473734
0.000105983
0.00483265
0.000111089
0.00491504
0.000130539
0.00499737
0.000134622
0.00506187
0.000154642
0.00512681
0.000155927
0.00517562
0.000172886
0.00522349
0.000173436
0.0052641
0.000182646
0.00530577
0.000184565
0.00534542
0.000191357
0.00538853
0.000191642
0.00542936
0.00019763
0.00547301
0.000196239
0.00551544
0.000200134
0.0055596
0.000199487
0.00560254
0.000203382
0.00564969
0.000201304
0.00569735
0.000203525
0.00574922
0.000200991
0.00579974
0.00020412
0.00585825
0.000199624
0.00591377
0.000203041
0.00597564
0.000199138
0.00603536
0.000201446
0.00610156
0.000196593
0.00616426
0.000199959
0.00623339
0.000193978
0.00629703
0.000198517
0.00636727
0.000192741
0.00643158
0.000197554
0.00650248
0.000191623
0.0065684
0.000196405
0.00664132
0.00019007
0.00670954
0.000194838
0.00678561
0.000187679
0.00685599
0.000193475
0.00693439
0.00018582
0.00700682
0.00019191
0.00708726
0.000183951
0.007161
0.000190491
0.00724282
0.000182194
0.00731695
0.000189494
0.00739966
0.00018053
0.00747453
0.000187879
0.00755819
0.000178551
0.00763413
0.000185633
0.00771912
0.000175805
0.007796
0.000182964
0.0078821
0.000172732
0.00795963
0.000180204
0.00804658
0.000169747
0.00812474
0.000177428
0.00821254
0.000166647
0.00829134
0.000174322
0.00837997
0.000163095
0.00845975
0.000170453
0.00854974
0.000158794
0.00862969
0.000167366
0.00871897
0.000156634
0.00879872
0.000164636
0.00888821
0.000153335
0.00897071
0.000158668
0.00906506
0.000145044
0.00914593
0.00015668
0.00923477
0.000146972
0.00931809
0.000150423
0.00941311
0.000136546
0.00949659
0.000145897
0.00959011
0.000134241
0.00967329
0.000142817
0.00976466
0.000132778
0.00984785
0.000139137
0.00994216
0.000125511
0.0100259
0.000133616
0.0101201
0.000121759
0.0101996
0.000133778
0.0102845
0.000126397
0.0103618
0.000131954
0.0104498
0.000118632
0.0105281
0.00012645
0.0106155
0.000115576
0.01069
0.000126587
0.0107717
0.000117225
0.0108466
0.000121894
0.0109332
0.0001078
0.0110085
0.000116979
0.0110945
0.000104602
0.0111667
0.000116259
0.0112474
0.000105952
0.0113211
0.000111143
0.0114035
0.0001005
0.0114764
0.000108952
0.0115583
9.83213e-05
0.0116296
0.000107573
0.0117099
9.75082e-05
0.0117811
0.000105857
0.0118617
9.5406e-05
0.0119332
0.000103085
0.0120134
9.27814e-05
0.0120834
0.000101396
0.0121625
9.09375e-05
0.0122314
0.000100193
0.0123099
8.97284e-05
0.0123791
9.79186e-05
0.0124574
8.70659e-05
0.0125267
9.4723e-05
0.0126056
8.36955e-05
0.0126742
9.26462e-05
0.0127497
8.37873e-05
0.0128176
9.00664e-05
0.0128924
8.05313e-05
0.0129591
8.77093e-05
0.0130349
7.65226e-05
0.0131004
8.52973e-05
0.0131719
7.72261e-05
0.0132364
8.29783e-05
0.0133069
7.43392e-05
0.0133705
8.03519e-05
0.0134418
6.99565e-05
0.0135031
7.90551e-05
0.0135701
7.14552e-05
0.0136315
7.55939e-05
0.0136996
6.67965e-05
0.0137581
7.44438e-05
0.0138241
6.55912e-05
0.0138815
7.15809e-05
0.0139459
6.37967e-05
0.0140013
7.01679e-05
0.0140643
6.11135e-05
0.014119
6.77115e-05
0.014178
6.13673e-05
0.0142312
6.51793e-05
0.0142897
5.81104e-05
0.0143395
6.41737e-05
0.0143965
5.58126e-05
0.0144456
6.17559e-05
0.0144991
5.53593e-05
0.0145468
5.92891e-05
0.0146001
5.16671e-05
0.0146455
5.69972e-05
0.0146975
4.90999e-05
0.0147413
5.45633e-05
0.0147895
4.81081e-05
0.0148322
5.11795e-05
0.0148807
4.34352e-05
0.0149224
4.73452e-05
0.0149688
4.06527e-05
0.0150089
4.40376e-05
0.0150532
3.77279e-05
0.0150907
4.23649e-05
0.015132
3.61453e-05
0.0151678
3.92043e-05
0.0152063
3.38927e-05
0.0152379
3.88171e-05
0.0152726
3.37978e-05
0.0152995
3.94202e-05
0.0153285
3.50683e-05
0.0153514
3.91077e-05
0.0153753
3.59262e-05
0.0153925
4.03308e-05
0.0154123
3.57729e-05
0.0154262
3.97304e-05
0.0154428
3.56134e-05
0.0154555
3.74822e-05
0.0154712
3.2943e-05
0.015484
3.40455e-05
0.0154994
2.96062e-05
0.0155128
3.01038e-05
0.0155288
2.5546e-05
0.0155437
2.50058e-05
0.0155616
2.04624e-05
0.015578
2.01927e-05
0.0155972
1.59464e-05
0.0156149
1.59845e-05
0.0156346
1.24221e-05
0.0156524
1.28372e-05
0.0156717
9.57932e-06
0.0156879
1.1302e-05
0.0157058
7.99882e-06
0.0157196
1.07464e-05
0.0157344
8.22427e-06
0.0157462
1.01447e-05
0.0157593
7.71104e-06
0.0157686
1.05819e-05
0.0157802
7.46737e-06
0.0157863
1.17445e-05
0.0157965
6.43874e-06
0.0158022
1.00576e-05
0.0158088
8.04353e-06
0.0158141
8.09699e-06
0.0158194
7.94883e-06
0.0158245
7.50552e-06
0.0158279
7.82981e-06
0.0158335
5.33206e-06
0.0158356
7.92488e-06
0.0158379
7.01574e-06
0.0158404
6.16107e-06
0.0158415
6.85206e-06
0.0158417
7.10783e-06
0.0158409
7.56481e-06
0.015839
8.08963e-06
0.0158361
8.42132e-06
0.0158321
8.93613e-06
0.0158281
8.36301e-06
0.0158231
8.73149e-06
0.0158181
8.15399e-06
0.0158132
7.50305e-06
0.015808
7.30684e-06
0.0158045
5.16334e-06
0.0157974
7.85946e-06
7.32722e-06
-3.63268e-07
1.34932e-05
-6.00484e-05
9.02789e-05
-0.000200182
0.000197834
-0.000448521
0.000345323
-0.000750974
0.000426826
-0.00113755
0.000527355
-0.00153264
0.000565431
-0.00199346
0.000626761
-0.00243327
0.000641073
-0.00293782
0.000691743
-0.00340023
0.000683643
-0.00391454
0.000718034
-0.00437365
0.000690282
-0.00485742
0.000698564
-0.00529184
0.000656898
-0.00571442
0.000632751
-0.00610826
0.000589917
-0.00645748
0.000540511
-0.00680072
0.000505894
-0.00708072
0.000437248
-0.00736024
0.000400791
-0.00757469
0.00032415
-0.00776522
0.000259853
-0.00789247
0.000161177
-0.00797922
7.03417e-05
-0.00802233
-1.89263e-05
-0.00803083
-9.26651e-05
-0.00801132
-0.000151516
-0.00796099
-0.000202984
-0.00789396
-0.00024853
-0.00780147
-0.000285822
-0.00769908
-0.000308699
-0.00758677
-0.000321116
-0.00746032
-0.000331863
-0.00733528
-0.000344371
-0.00718999
-0.000365229
-0.00704267
-0.000386988
-0.00687689
-0.000418825
-0.00670099
-0.000443137
-0.00651181
-0.000472146
-0.00630892
-0.000492715
-0.00609776
-0.000510443
-0.00587417
-0.000523797
-0.005649
-0.000529369
-0.00541553
-0.000537029
-0.00518579
-0.000535437
-0.00495241
-0.000537837
-0.00472296
-0.000533891
-0.00449688
-0.00052311
-0.00428299
-0.00049909
-0.00408706
-0.000460959
-0.00392121
-0.000408063
-0.00379632
-0.000339749
-0.00372185
-0.000280717
-0.0037002
-0.000233775
-0.00372017
-0.000185958
-0.00378139
-0.000143752
-0.00391815
-3.87249e-05
-0.00414729
8.21866e-05
-0.00447646
0.000242488
-0.0049008
0.000422279
-0.00544208
0.000616029
-0.00609086
0.000803499
-0.00686894
0.00100729
-0.00776467
0.00121002
-0.00879696
0.00143251
-0.00995136
0.0016511
-0.0112411
0.00188549
-0.012648
0.00211248
-0.0141833
0.00235307
-0.0158257
0.00258515
-0.0175851
0.00282336
-0.0194171
0.00303276
-0.0213367
0.00323989
-0.0232609
0.00339389
-0.0252357
0.00356743
-0.0271048
0.00358729
-0.0289111
0.00361351
-0.030551
0.00353988
-0.0319786
0.00332184
-0.0332096
0.00312276
-0.0341279
0.00270595
-0.0348416
0.00225249
-0.035299
0.00170778
-0.035592
0.00113868
-0.0356847
0.000592288
-0.0356389
0.000112954
-0.035264
-0.000516259
-0.0346905
-0.00094927
-0.0337943
-0.0012437
-0.0326213
-0.00193933
-0.0312972
-0.00229716
-0.0295954
-0.00292673
-0.0277486
-0.00329562
-0.0255011
-0.00377154
-0.0231885
-0.00408505
-0.0205637
-0.0043831
-0.017914
-0.00453708
-0.0150763
-0.0047092
-0.0123101
-0.00465122
-0.00961466
-0.00446913
-0.00716432
-0.00401251
-0.00486871
-0.00365201
-0.00310143
-0.00326069
-0.00156545
-0.00274712
9.46009e-05
-0.00248926
0.00148255
-0.001987
0.00342354
-0.00203498
0.0049727
-0.00192927
0.00664685
-0.00195625
0.00818092
-0.00182894
0.00967094
-0.00171763
0.0110581
-0.00161086
0.0123488
-0.00148744
0.0135845
-0.0013684
0.01464
-0.00117179
0.0156905
-0.00108374
0.0165459
-0.00089601
0.0174122
-0.000804627
0.0180615
-0.0005952
0.018739
-0.000534877
0.0191982
-0.000323922
0.0196722
-0.000256288
0.0199607
-7.90584e-05
0.0202597
-2.59226e-05
0.0203795
0.000148688
0.0204909
0.00020518
0.0204997
0.000305042
0.0204637
0.0003671
0.0203304
0.000464606
0.020167
0.000529659
0.0199101
0.000625956
0.019608
0.000680318
0.0192661
0.000735544
0.0188674
0.000784811
0.0184563
0.000809333
0.0180066
0.000830299
0.017551
0.000845093
0.0170632
0.000857737
0.0165928
0.000844863
0.0161049
0.000841322
0.0156461
0.000804309
0.0151673
0.000802381
0.0147776
0.000707925
0.0143699
0.000670154
0.0140999
0.000517659
0.0138225
0.000459233
0.0137161
0.00026891
0.0136511
0.000156029
0.0137336
-3.05476e-05
0.0138959
-0.000188766
0.0142789
-0.000456925
0.0147418
-0.000636695
0.015425
-0.000905519
0.0161773
-0.00107653
0.0170827
-0.00127589
0.0180721
-0.00142676
0.0191105
-0.00152252
0.0202449
-0.00164584
0.0213877
-0.00168989
0.0225911
-0.00178676
0.0238202
-0.00184212
0.0250365
-0.00179614
0.0262494
-0.00177633
0.0274011
-0.00176942
0.0285306
-0.00167503
0.0296076
-0.00165103
0.0306178
-0.0015557
0.0316075
-0.00147865
0.0324308
-0.00128
0.0332285
-0.00115781
0.0338138
-0.000911276
0.034373
-0.000776297
0.0346923
-0.000517183
0.035018
-0.000409104
0.0351216
-0.000168273
0.0351763
-6.65041e-05
0.0351155
0.000104971
0.0349327
0.000261913
0.0347009
0.000368022
0.0343235
0.000524418
0.0338997
0.000634562
0.0333917
0.000747083
0.0328076
0.0008231
0.0321947
0.000888526
0.0314773
0.000993737
0.030771
0.00101947
0.029962
0.001093
0.0291829
0.00109937
0.0282979
0.00116039
0.0274798
0.00113689
0.0265678
0.00117581
0.0257205
0.00114782
0.0248024
0.00118764
0.0239272
0.00116434
0.0229904
0.00119034
0.0221091
0.00115606
0.0211492
0.00119129
0.0202911
0.00112474
0.019328
0.00117059
0.0184784
0.00108422
0.0175544
0.00111752
0.0167377
0.00103959
0.0158947
0.00102567
0.0151205
0.000959386
0.0143247
0.0009878
0.0136028
0.000903331
0.0128737
0.000837067
0.0124188
0.00062388
0.0116652
0.00081474
0.0112201
0.000610122
0.0106104
0.000732717
0.0101152
0.000610679
0.00972157
0.000482427
0.00930844
0.000489096
0.00898542
0.000398222
0.00865807
0.00037371
0.00844574
0.000268138
0.00821003
0.000226066
0.00812533
9.62918e-05
0.00798572
0.000132817
0.00790201
7.44796e-05
0.00786837
1.98612e-05
0.0078744
-3.37402e-05
0.00789833
-5.8532e-05
0.00793925
-7.28952e-05
0.00799265
-9.64663e-05
0.00804398
-8.78328e-05
0.00810256
-9.11653e-05
0.00813411
-6.02596e-05
0.00814114
-1.82146e-05
0.00810334
5.18394e-05
0.00799707
0.000132238
0.00783963
0.000223771
0.00758026
0.000353605
0.00727015
0.00044082
0.00688214
0.000542083
0.00644367
0.000604061
0.00597963
0.000651545
0.0054788
0.000686897
0.00498236
0.000696335
0.00443878
0.000740088
0.00394151
0.000718934
0.00340318
0.00073106
0.00290613
0.000708724
0.00239934
0.000705456
0.00192967
0.000677111
0.00145242
0.000652331
0.00104364
0.000642448
0.000559813
0.000701635
0.000203375
0.00071853
-0.000184302
0.000802831
-0.000503899
0.000750721
-0.000816577
0.000705731
-0.0010323
0.000556111
-0.00120518
0.000455095
-0.0012981
0.000316482
-0.00130842
0.000176388
-0.00126127
6.14326e-05
-0.00110872
-9.63923e-05
-0.000907116
-0.0002149
-0.000600882
-0.000372035
-0.000262741
-0.00046491
0.000178659
-0.000579421
0.000616649
-0.000590337
0.00119585
-0.000625482
0.00178391
-0.000641475
0.00256771
-0.000707242
0.00333082
-0.000738382
0.00417168
-0.000816717
0.00496495
-0.000817205
0.00582682
-0.000855359
0.00665753
-0.000845658
0.00749898
-0.000840906
0.00834182
-0.000842046
0.00911905
-0.000775518
0.00988774
-0.000716463
0.0105741
-0.000637579
0.0112886
-0.000613308
0.01191
-0.000520833
0.0125301
-0.000490175
0.0130843
-0.000409131
0.0135946
-0.00035626
0.0140474
-0.000254682
0.0144807
-0.000213547
0.014845
-0.000126736
0.0152206
-9.99724e-05
0.0155053
-1.74248e-05
0.0158003
1.19488e-05
0.0160427
7.5069e-05
0.0162906
9.53914e-05
0.0164852
0.000156133
0.0166868
0.000173466
0.0168399
0.000226201
0.0169908
0.000243972
0.0171142
0.000270622
0.0172393
0.000280175
0.0173475
0.000303369
0.0174641
0.000305656
0.0175699
0.000321755
0.0176844
0.000320986
0.0177904
0.000331217
0.0179063
0.000328323
0.0180132
0.000338304
0.0181338
0.000331166
0.0182472
0.000336374
0.0183704
0.00033067
0.0184937
0.000332234
0.0186303
0.000323406
0.0187635
0.000324196
0.0189111
0.000315304
0.0190521
0.000319063
0.0192086
0.000307861
0.0193577
0.000311266
0.0195213
0.000299821
0.0196733
0.000305378
0.019842
0.000293859
0.0199962
0.000301735
0.0201671
0.000290452
0.020323
0.000298766
0.0204951
0.000287696
0.0206549
0.000293268
0.0208313
0.000282725
0.0209936
0.000289024
0.0211748
0.000277153
0.0213395
0.000285183
0.0215256
0.000270935
0.0216935
0.000280568
0.021883
0.000265605
0.022053
0.000276449
0.0222447
0.000261816
0.022416
0.000272884
0.0226092
0.000257721
0.0227813
0.000269071
0.0229762
0.00025259
0.0231495
0.000263722
0.0233462
0.000246523
0.0235204
0.00025776
0.0237185
0.000240303
0.0238934
0.000252022
0.0240927
0.000234134
0.0242681
0.000246068
0.0244686
0.000227345
0.0246449
0.000238893
0.0248469
0.000218967
0.0250239
0.000230972
0.0252268
0.000212172
0.0254039
0.000225945
0.0256037
0.000209552
0.0257842
0.000216219
0.0259902
0.000194067
0.0261672
0.000208117
0.0263705
0.000191661
0.0265493
0.000204347
0.0267536
0.000180638
0.0269349
0.000187328
0.0271432
0.000167393
0.0273222
0.000182561
0.0275275
0.000165424
0.0277062
0.00017877
0.0279077
0.000160026
0.0280867
0.000167164
0.0282942
0.000145058
0.0284672
0.000164209
0.0286617
0.000153502
0.0288318
0.000168624
0.0290178
0.0001549
0.0291824
0.000162101
0.0293737
0.000140712
0.0295338
0.000159299
0.0297143
0.000147613
0.0298754
0.000158243
0.0300517
0.000141054
0.0302043
0.000149536
0.0303887
0.000127467
0.0305405
0.000144004
0.0307156
0.000130795
0.0308649
0.00014353
0.0310381
0.00012408
0.0311866
0.000135945
0.0313593
0.000118868
0.0315067
0.000132674
0.0316754
0.000117868
0.0318165
0.000134004
0.0319835
0.000116978
0.0321264
0.000129035
0.0322917
0.000112755
0.0324323
0.000126989
0.0325956
0.000110535
0.0327329
0.000125115
0.032892
0.000110481
0.0330269
0.000123153
0.0331852
0.000107695
0.033319
0.00011898
0.0334761
0.000101564
0.0336087
0.000113952
0.0337635
0.000100328
0.0338947
0.000112873
0.0340441
9.92602e-05
0.034173
0.000107861
0.0343203
9.43167e-05
0.0344463
0.000103228
0.0345917
9.1468e-05
0.034716
0.00010262
0.034855
9.11839e-05
0.0349792
9.70713e-05
0.0351163
8.51288e-05
0.0352345
9.43502e-05
0.0353689
8.51799e-05
0.0354856
9.34226e-05
0.0356179
8.07912e-05
0.0357313
8.88489e-05
0.0358617
7.79369e-05
0.0359728
8.5911e-05
0.0360986
7.60836e-05
0.036206
8.3989e-05
0.0363298
7.28933e-05
0.0364347
8.04469e-05
0.0365526
7.1926e-05
0.0366557
7.91103e-05
0.0367708
6.9494e-05
0.036869
7.66959e-05
0.0369805
6.75306e-05
0.0370743
7.41325e-05
0.0371813
6.59072e-05
0.0372731
7.27319e-05
0.0373771
6.3443e-05
0.0374653
6.86405e-05
0.0375669
5.84725e-05
0.0376506
6.55545e-05
0.0377465
5.76559e-05
0.037829
6.24843e-05
0.0379235
5.2267e-05
0.0380036
5.50318e-05
0.0380936
4.63637e-05
0.0381699
5.08781e-05
0.0382571
4.12697e-05
0.0383304
4.72499e-05
0.0384135
3.96516e-05
0.0384828
4.43366e-05
0.0385615
3.58353e-05
0.038625
4.3057e-05
0.038697
3.74333e-05
0.0387529
4.67441e-05
0.0388167
4.21476e-05
0.0388654
5.08262e-05
0.0389205
4.66581e-05
0.03896
5.62389e-05
0.0390059
5.26703e-05
0.0390366
6.06558e-05
0.0390743
5.6154e-05
0.0391004
6.17135e-05
0.0391329
5.5533e-05
0.0391572
5.73615e-05
0.0391884
5.00345e-05
0.0392118
5.14819e-05
0.0392414
4.42037e-05
0.039267
4.18888e-05
0.0392986
3.36081e-05
0.0393259
3.15915e-05
0.03936
2.29234e-05
0.0393901
2.12161e-05
0.0394265
1.35701e-05
0.0394588
1.27039e-05
0.0394963
6.03619e-06
0.0395279
7.25749e-06
0.0395651
1.76539e-06
0.0395937
5.38515e-06
0.0396271
1.85067e-06
0.0396527
6.11814e-06
0.0396824
2.79713e-06
0.0397037
7.40613e-06
0.0397297
4.81044e-06
0.0397448
1.09697e-05
0.0397701
5.19946e-06
0.0397794
1.40237e-05
0.0397967
7.36356e-06
0.0398095
1.01341e-05
0.0398207
1.1158e-05
0.039832
1.03795e-05
0.0398407
1.06085e-05
0.0398522
8.63316e-06
0.0398565
1.22088e-05
0.0398653
8.43589e-06
0.0398714
1.0789e-05
0.039874
1.23254e-05
0.0398774
1.17587e-05
0.0398789
1.30186e-05
0.0398789
1.45298e-05
0.0398767
1.65578e-05
0.0398727
1.82077e-05
0.0398672
1.94637e-05
0.0398589
2.09483e-05
0.0398522
1.95022e-05
0.039843
2.07706e-05
0.0398334
1.98549e-05
0.0398245
1.85895e-05
0.0398119
1.93843e-05
0.0398032
1.7483e-05
2.19979e-05
-2.40669e-05
5.08145e-05
-0.000165469
0.000243877
-0.000439997
0.000484022
-0.000834453
0.000750128
-0.00132639
0.000926871
-0.00187871
0.00108706
-0.00248891
0.00117964
-0.0030992
0.00124072
-0.00374805
0.00128877
-0.00436159
0.00130314
-0.00499899
0.00131313
-0.00557508
0.00128813
-0.00615746
0.00126276
-0.00667043
0.00120147
-0.00716421
0.0011365
-0.00759928
0.00105137
-0.00799084
0.000961101
-0.00834625
0.000871916
-0.00863972
0.000772194
-0.00891893
0.00068483
-0.00913355
0.000580575
-0.00932469
0.00047576
-0.0094512
0.000343018
-0.00954155
0.000203658
-0.00959204
6.90289e-05
-0.00961467
-5.2096e-05
-0.00961027
-0.000156746
-0.00957785
-0.000247482
-0.0095211
-0.000327085
-0.00943907
-0.000401519
-0.00933606
-0.000463005
-0.00921035
-0.000511933
-0.00905763
-0.000554596
-0.00889522
-0.000577954
-0.0087055
-0.000620151
-0.00851147
-0.00064741
-0.00829917
-0.000689808
-0.00807776
-0.000732305
-0.00784791
-0.000767174
-0.00760273
-0.000813198
-0.0073505
-0.000842473
-0.00708111
-0.000878335
-0.00680308
-0.000900801
-0.00651308
-0.000919016
-0.0062204
-0.000929371
-0.00592461
-0.000930843
-0.00563226
-0.000928664
-0.00534293
-0.000921506
-0.00506533
-0.000896217
-0.00480117
-0.000857781
-0.00456059
-0.000793814
-0.0043526
-0.000706636
-0.00419384
-0.000586994
-0.00409502
-0.000465683
-0.00407151
-0.000340794
-0.00413563
-0.000203299
-0.00430626
-5.24695e-05
-0.0045789
0.000155489
-0.00497073
0.000396954
-0.00547073
0.000668183
-0.00608965
0.000970004
-0.00682757
0.00128677
-0.00770251
0.00161542
-0.0087088
0.00195501
-0.00985775
0.00230439
-0.0111382
0.00266385
-0.0125495
0.0030159
-0.014075
0.00337193
-0.0157078
0.00371065
-0.0174266
0.00404297
-0.019226
0.00436064
-0.0210803
0.00465875
-0.0229684
0.00490505
-0.024842
0.00510156
-0.0266855
0.005228
-0.0284497
0.00532638
-0.030087
0.00522475
-0.0315684
0.00510185
-0.0328314
0.00481701
-0.0339127
0.00442561
-0.034718
0.00395567
-0.0353178
0.00334231
-0.0357084
0.00268342
-0.0359542
0.00200164
-0.0360903
0.00132707
-0.0361218
0.000680443
-0.0359695
2.08679e-05
-0.0357623
-0.000664103
-0.0350952
-0.00153836
-0.0339805
-0.0022971
-0.0326599
-0.00316724
-0.0308132
-0.00405955
-0.0289754
-0.00464645
-0.0266952
-0.00548061
-0.0244065
-0.00594123
-0.0217863
-0.0065992
-0.0191651
-0.00688956
-0.0162998
-0.00727985
-0.0135133
-0.00737303
-0.0106493
-0.00738976
-0.00811826
-0.0068692
-0.00576517
-0.00623823
-0.00355844
-0.00571799
-0.00142344
-0.00524909
0.000887855
-0.00490838
0.00286178
-0.00431283
0.00532549
-0.00429006
0.00767587
-0.00422791
0.0101295
-0.00421066
0.0124332
-0.00411159
0.0145794
-0.00379611
0.0166188
-0.00360386
0.0185106
-0.00335345
0.0203056
-0.00309985
0.0219168
-0.00282345
0.0233923
-0.00246092
0.0247319
-0.00225267
0.0259897
-0.00197618
0.0270565
-0.00169584
0.0280611
-0.00141873
0.0288551
-0.00114061
0.0296221
-0.000900664
0.0301579
-0.000620287
0.0307164
-0.000443523
0.0310028
-0.000139383
0.0313272
2.82144e-06
0.0314495
0.000249018
0.0315225
0.000393163
0.0314745
0.000568361
0.0313632
0.000721376
0.0311241
0.000907244
0.0308457
0.00103495
0.0304672
0.00118826
0.0300209
0.00129777
0.0295438
0.00138019
0.028976
0.00147697
0.0284015
0.00150285
0.0277809
0.00155665
0.0271625
0.00155848
0.0265263
0.00156232
0.0259044
0.00153544
0.0252739
0.00150805
0.0247424
0.00140155
0.0241683
0.00133884
0.0237543
0.00112353
0.0233344
0.00099005
0.0231332
0.000699949
0.0229581
0.000476981
0.0229786
0.00016632
0.0230957
-0.000121519
0.0234585
-0.000531202
0.0239013
-0.000870961
0.024634
-0.00137168
0.0255006
-0.00174598
0.0265756
-0.00215829
0.0277637
-0.00246444
0.0290074
-0.002678
0.0303971
-0.00292433
0.0317295
-0.00299232
0.0332046
-0.00317069
0.034695
-0.00327755
0.036216
-0.00339313
0.0377325
-0.00331326
0.0392412
-0.00331135
0.0406968
-0.0032433
0.042124
-0.00313753
0.0434635
-0.00302355
0.0448237
-0.00292831
0.0459773
-0.00266104
0.0471191
-0.00243963
0.0481006
-0.00213483
0.0489921
-0.00185085
0.0496682
-0.00147349
0.0503346
-0.00119395
0.0506833
-0.000777037
0.0510713
-0.000570104
0.0512171
-0.00023175
0.051282
2.12187e-05
0.0512348
0.000285702
0.0510324
0.000545362
0.0507574
0.000775778
0.0503382
0.00103266
0.0498615
0.00121522
0.0492607
0.00138614
0.048536
0.00155732
0.047813
0.00171222
0.0469648
0.0018406
0.0460664
0.00195913
0.0450498
0.00207532
0.0440504
0.00212285
0.042935
0.0021981
0.0418896
0.00218359
0.0406853
0.00229569
0.0395301
0.00229059
0.0382999
0.00235489
0.0370582
0.00237417
0.0357703
0.00240651
0.0345196
0.002392
0.0331662
0.00240981
0.0319278
0.00236004
0.0305797
0.00236728
0.0293373
0.00229651
0.0280393
0.00228638
0.026857
0.00215036
0.0256279
0.00215032
0.0245024
0.00203593
0.0233922
0.00196656
0.0224504
0.0017366
0.021226
0.00179107
0.0206257
0.00138085
0.0195019
0.00169847
0.0187911
0.00139387
0.0180965
0.00126856
0.0173689
0.00119711
0.0167807
0.0010372
0.0162098
0.000942052
0.015758
0.000798319
0.0153079
0.000687716
0.015097
0.000417386
0.0147664
0.000397594
0.0146251
0.000253696
0.0144934
0.000188833
0.0143951
0.000101448
0.0143897
-4.2814e-05
0.0144005
-8.20356e-05
0.0144363
-0.000118499
0.0144861
-0.000153615
0.0145414
-0.000148388
0.0145989
-0.000154543
0.0146513
-0.00012007
0.0146466
-1.80916e-05
0.0145837
0.00011429
0.0144386
0.000275469
0.0141784
0.000479285
0.0138406
0.000683611
0.0133597
0.000932644
0.0128164
0.00109181
0.0121305
0.00129561
0.0114266
0.00138167
0.0106368
0.00147387
0.0098243
0.00152736
0.00899325
0.00158844
0.00812532
0.00160255
0.00728151
0.00159965
0.00642885
0.00158152
0.00560336
0.0015593
0.00479077
0.00151527
0.00403542
0.00144434
0.0032777
0.00143102
0.00266639
0.00135001
0.00209116
0.00133282
0.00168143
0.00125182
0.00125954
0.00121845
0.00101531
0.000998663
0.00076218
0.000860267
0.000636869
0.000634727
0.000593796
0.000416797
0.000631753
0.000200367
0.00082007
-6.10867e-05
0.00105682
-0.000261295
0.0014475
-0.000536857
0.00190114
-0.000741013
0.00251661
-0.00100132
0.00317471
-0.00115721
0.00402448
-0.00136438
0.00502168
-0.00151348
0.00621179
-0.00173228
0.00743989
-0.00183349
0.00875689
-0.00191902
0.0100292
-0.00200116
0.0113601
-0.00201883
0.0126523
-0.00203324
0.0139201
-0.00197108
0.0152001
-0.0019729
0.0163877
-0.00190049
0.0175841
-0.00182279
0.0186794
-0.00165446
0.0197803
-0.00156834
0.0207407
-0.00143507
0.0217398
-0.00132672
0.0225954
-0.00117256
0.0234284
-0.00107216
0.0241791
-0.000915232
0.0248889
-0.00079426
0.0254917
-0.000625475
0.0261208
-0.000550808
0.0265913
-0.000398635
0.0271133
-0.000326029
0.0275163