/*--------------------------------*- C++ -*----------------------------------*\
| =========                 |                                                 |
| \\      /  F ield         | OpenFOAM: The Open Source CFD Toolbox           |
|  \\    /   O peration     | Version:  v1812                                 |
|   \\  /    A nd           | Web:      www.OpenFOAM.com                      |
|    \\/     M anipulation  |                                                 |
\*---------------------------------------------------------------------------*/
FoamFile
{
    version     2.0;
    format      ascii;
    class       volScalarField;
    location    "0.8";
    object      T;
}
// * * * * * * * * * * * * * * * * * * * * * * * * * * * * * * * * * * * * * //

dimensions      [0 0 0 1 0 0 0];


internalField   nonuniform List<scalar> 
20400
(
287.667
287.666
287.662
287.654
287.642
287.627
287.614
287.606
287.604
287.605
287.608
287.617
287.638
287.675
287.735
287.822
287.936
288.074
288.232
288.403
288.583
288.763
288.941
289.112
289.272
289.419
289.552
289.671
289.775
289.865
289.941
290.004
290.052
290.087
290.111
290.125
290.132
290.135
290.136
290.135
290.131
290.12
290.101
290.076
290.045
290.01
289.974
289.94
289.911
289.888
289.873
289.864
289.86
289.858
289.858
289.862
289.873
289.896
289.931
289.978
290.035
290.099
290.168
290.238
290.31
290.381
290.45
290.516
290.579
290.636
290.686
290.729
290.765
290.793
290.816
290.834
290.845
290.85
290.852
290.85
290.846
290.841
290.837
290.833
290.83
290.826
290.822
290.817
290.82
290.813
290.799
290.798
290.789
290.793
290.797
290.813
290.839
290.865
290.879
290.883
290.884
290.881
290.885
290.872
290.861
290.852
290.855
290.839
290.831
290.827
290.82
290.807
290.772
290.722
290.651
290.573
290.477
290.374
290.253
290.125
289.985
289.844
289.702
289.568
289.441
289.329
289.23
289.148
289.084
289.043
289.021
289.013
289.012
289.016
289.028
289.05
289.081
289.124
289.178
289.239
289.307
289.378
289.45
289.522
289.597
289.672
289.753
289.836
289.924
290.01
290.096
290.179
290.262
290.345
290.426
290.504
290.57
290.623
290.66
290.688
290.709
290.72
290.728
290.736
290.734
290.739
290.735
290.729
290.705
290.677
290.627
290.571
290.49
290.398
290.284
290.159
290.021
289.884
289.747
289.614
289.485
289.36
289.239
289.125
289.021
288.933
288.858
288.799
288.753
288.717
288.697
288.688
288.688
288.689
288.698
288.722
288.765
288.827
288.901
288.983
289.062
289.132
289.183
289.213
289.224
289.225
289.222
289.206
289.169
289.125
289.075
289.045
289.013
288.985
288.955
288.922
288.89
288.857
288.827
288.797
288.775
288.755
288.74
288.728
288.72
288.718
288.718
288.722
288.734
288.754
288.779
288.809
288.842
288.88
288.923
288.969
289.015
289.058
289.1
289.139
289.179
289.222
289.267
289.313
289.359
289.404
289.447
289.486
289.518
289.552
289.581
289.613
289.645
289.677
289.708
289.737
289.764
289.787
289.807
289.821
289.831
289.835
289.835
289.834
289.83
289.826
289.827
289.82
289.817
289.813
289.808
289.804
289.8
289.795
289.787
289.784
289.779
289.774
289.763
289.752
289.738
289.727
289.717
289.711
289.704
289.699
289.694
289.693
289.692
289.693
289.698
289.709
289.722
289.739
289.758
289.779
289.801
289.826
289.853
289.882
289.913
289.945
289.978
290.014
290.049
290.087
290.126
290.167
290.209
290.253
290.299
290.347
290.396
290.447
290.5
290.555
290.611
290.669
290.728
290.788
290.848
290.907
290.965
291.022
291.076
291.128
291.178
291.226
291.271
291.314
291.355
291.396
291.434
291.473
291.509
291.546
291.581
291.615
291.649
291.682
291.713
291.745
291.774
291.804
291.832
291.86
291.887
291.914
291.94
291.965
291.99
292.015
292.039
292.064
292.087
292.11
292.133
292.155
292.176
292.198
292.22
292.243
292.266
292.288
292.309
292.33
292.351
292.374
292.396
292.419
292.441
292.463
292.484
292.507
292.529
292.553
292.575
292.597
292.618
292.639
292.659
292.681
292.702
292.723
292.743
292.762
292.782
292.802
292.821
292.841
292.859
292.878
292.896
292.913
292.93
292.948
292.964
292.98
292.995
293.01
293.025
293.04
293.055
293.069
293.082
293.095
293.108
293.121
293.133
293.146
293.157
293.168
293.179
293.189
293.199
293.209
293.219
293.229
293.238
293.247
293.256
293.265
293.274
293.284
293.292
293.301
293.309
293.318
293.328
293.337
293.346
293.355
293.363
293.372
293.38
293.389
293.397
293.405
293.412
293.419
293.425
293.432
293.438
293.445
293.451
293.457
293.462
293.468
293.474
293.481
293.487
293.494
293.5
293.507
293.513
293.52
293.526
293.533
293.539
293.545
293.551
293.557
293.562
293.568
293.572
293.577
293.581
293.586
293.59
293.594
293.598
293.602
293.606
293.609
293.612
293.616
293.618
293.62
293.622
293.623
293.624
293.626
293.627
293.628
293.63
293.631
293.633
293.635
293.636
293.638
293.64
293.642
293.644
293.646
293.649
293.651
293.652
293.652
293.651
293.65
287.667
287.666
287.663
287.654
287.642
287.627
287.615
287.606
287.605
287.605
287.609
287.618
287.64
287.677
287.739
287.826
287.941
288.08
288.237
288.41
288.587
288.768
288.945
289.115
289.275
289.421
289.553
289.671
289.775
289.865
289.941
290.003
290.051
290.086
290.109
290.123
290.13
290.134
290.134
290.134
290.129
290.118
290.1
290.075
290.044
290.009
289.973
289.939
289.91
289.888
289.872
289.864
289.859
289.858
289.858
289.862
289.873
289.896
289.931
289.978
290.035
290.1
290.168
290.239
290.311
290.381
290.45
290.516
290.578
290.634
290.685
290.728
290.763
290.789
290.81
290.824
290.837
290.839
290.841
290.839
290.836
290.83
290.828
290.824
290.822
290.819
290.815
290.811
290.8
290.793
290.774
290.78
290.772
290.78
290.779
290.8
290.824
290.857
290.875
290.881
290.881
290.878
290.869
290.878
290.868
290.872
290.854
290.846
290.827
290.824
290.83
290.814
290.794
290.733
290.684
290.593
290.524
290.41
290.317
290.174
290.052
289.896
289.765
289.619
289.497
289.374
289.274
289.183
289.114
289.066
289.037
289.024
289.018
289.022
289.029
289.05
289.079
289.123
289.173
289.235
289.3
289.373
289.441
289.515
289.584
289.666
289.74
289.827
289.911
289.999
290.083
290.164
290.25
290.329
290.417
290.492
290.569
290.62
290.666
290.682
290.713
290.718
290.74
290.732
290.744
290.735
290.745
290.724
290.723
290.676
290.653
290.579
290.521
290.413
290.315
290.183
290.053
289.911
289.777
289.643
289.519
289.386
289.271
289.144
289.049
288.943
288.877
288.799
288.757
288.713
288.698
288.684
288.687
288.685
288.697
288.714
288.759
288.807
288.889
288.952
289.038
289.094
289.157
289.183
289.204
289.204
289.203
289.186
289.166
289.097
289.073
289.033
289.015
288.984
288.948
288.918
288.883
288.855
288.819
288.796
288.769
288.755
288.738
288.726
288.718
288.714
288.713
288.717
288.728
288.747
288.773
288.8
288.834
288.872
288.916
288.961
289.01
289.052
289.095
289.131
289.172
289.212
289.259
289.304
289.354
289.398
289.444
289.481
289.519
289.545
289.582
289.611
289.645
289.674
289.707
289.736
289.764
289.789
289.809
289.825
289.835
289.844
289.845
289.846
289.844
289.842
289.839
289.836
289.834
289.827
289.826
289.824
289.822
289.814
289.811
289.8
289.803
289.79
289.786
289.768
289.761
289.74
289.736
289.721
289.719
289.708
289.706
289.7
289.701
289.7
289.705
289.711
289.725
289.739
289.758
289.778
289.801
289.825
289.851
289.878
289.909
289.939
289.973
290.005
290.042
290.076
290.116
290.153
290.196
290.236
290.283
290.326
290.376
290.422
290.476
290.525
290.583
290.636
290.697
290.752
290.814
290.869
290.931
290.984
291.043
291.092
291.147
291.191
291.241
291.281
291.328
291.364
291.408
291.442
291.484
291.516
291.557
291.587
291.626
291.654
291.692
291.718
291.754
291.778
291.812
291.836
291.869
291.891
291.922
291.942
291.972
291.992
292.022
292.042
292.071
292.089
292.117
292.134
292.16
292.176
292.203
292.221
292.25
292.267
292.293
292.308
292.333
292.35
292.378
292.396
292.423
292.439
292.464
292.481
292.509
292.527
292.556
292.572
292.598
292.612
292.638
292.654
292.68
292.696
292.721
292.736
292.76
292.774
292.799
292.814
292.837
292.85
292.873
292.886
292.908
292.92
292.941
292.953
292.972
292.982
293
293.011
293.031
293.041
293.058
293.067
293.083
293.092
293.109
293.117
293.132
293.139
293.153
293.16
293.174
293.179
293.193
293.199
293.213
293.218
293.229
293.234
293.247
293.253
293.266
293.27
293.281
293.287
293.299
293.306
293.319
293.324
293.335
293.34
293.352
293.357
293.368
293.373
293.383
293.387
293.396
293.4
293.409
293.413
293.421
293.425
293.432
293.436
293.443
293.448
293.456
293.462
293.47
293.475
293.482
293.488
293.495
293.5
293.507
293.512
293.52
293.524
293.531
293.535
293.541
293.544
293.55
293.553
293.558
293.561
293.566
293.569
293.574
293.576
293.581
293.583
293.586
293.588
293.589
293.591
293.592
293.594
293.595
293.597
293.598
293.6
293.601
293.603
293.605
293.606
293.608
293.61
293.612
293.614
293.617
293.619
293.62
293.62
293.62
293.618
287.669
287.668
287.664
287.656
287.643
287.629
287.616
287.61
287.607
287.609
287.611
287.624
287.644
287.686
287.749
287.84
287.957
288.096
288.255
288.424
288.603
288.78
288.956
289.123
289.28
289.425
289.556
289.672
289.775
289.865
289.939
290
290.048
290.081
290.104
290.117
290.125
290.128
290.129
290.128
290.124
290.113
290.095
290.07
290.04
290.006
289.971
289.937
289.909
289.886
289.872
289.863
289.859
289.858
289.858
289.862
289.873
289.896
289.932
289.979
290.036
290.101
290.17
290.241
290.311
290.382
290.449
290.516
290.574
290.633
290.682
290.729
290.764
290.79
290.804
290.817
290.823
290.828
290.824
290.827
290.818
290.817
290.812
290.812
290.812
290.81
290.807
290.797
290.793
290.773
290.788
290.767
290.78
290.765
290.778
290.781
290.817
290.834
290.866
290.879
290.881
290.876
290.879
290.873
290.876
290.861
290.86
290.843
290.832
290.836
290.83
290.838
290.812
290.797
290.726
290.699
290.611
290.577
290.454
290.378
290.22
290.115
289.942
289.827
289.673
289.559
289.43
289.329
289.238
289.169
289.121
289.084
289.067
289.054
289.061
289.064
289.093
289.121
289.175
289.227
289.299
289.361
289.435
289.496
289.573
289.641
289.728
289.804
289.891
289.974
290.054
290.138
290.213
290.312
290.39
290.488
290.564
290.631
290.65
290.718
290.733
290.786
290.762
290.789
290.779
290.79
290.78
290.794
290.761
290.77
290.718
290.706
290.601
290.551
290.415
290.316
290.174
290.045
289.909
289.783
289.647
289.529
289.38
289.277
289.134
289.056
288.933
288.879
288.785
288.758
288.705
288.709
288.69
288.7
288.693
288.719
288.736
288.799
288.829
288.92
288.944
289.025
289.048
289.118
289.124
289.139
289.132
289.14
289.094
289.072
289.017
289.03
289.006
288.96
288.934
288.89
288.869
288.829
288.811
288.77
288.764
288.745
288.732
288.719
288.707
288.701
288.699
288.7
288.707
288.725
288.745
288.777
288.807
288.85
288.888
288.941
288.985
289.041
289.074
289.116
289.142
289.187
289.224
289.284
289.322
289.383
289.418
289.472
289.502
289.544
289.572
289.611
289.634
289.672
289.698
289.736
289.764
289.791
289.814
289.83
289.849
289.86
289.871
289.878
289.88
289.886
289.885
289.886
289.88
289.881
289.879
289.892
289.891
289.895
289.879
289.883
289.865
289.868
289.846
289.851
289.823
289.818
289.784
289.784
289.762
289.765
289.741
289.743
289.732
289.734
289.729
289.735
289.736
289.752
289.76
289.783
289.8
289.825
289.848
289.877
289.903
289.934
289.962
289.995
290.023
290.06
290.089
290.129
290.159
290.202
290.234
290.281
290.313
290.364
290.399
290.453
290.492
290.551
290.593
290.656
290.7
290.766
290.812
290.879
290.924
290.991
291.033
291.096
291.133
291.192
291.225
291.281
291.31
291.364
291.39
291.443
291.467
291.518
291.54
291.589
291.609
291.657
291.675
291.721
291.737
291.783
291.799
291.843
291.856
291.897
291.907
291.948
291.961
292.003
292.012
292.052
292.061
292.1
292.108
292.141
292.148
292.185
292.197
292.236
292.244
292.273
292.279
292.313
292.324
292.362
292.371
292.401
292.408
292.442
292.451
292.49
292.5
292.537
292.543
292.574
292.58
292.614
292.624
292.658
292.665
292.697
292.703
292.733
292.741
292.774
292.781
292.811
292.816
292.845
292.85
292.88
292.886
292.914
292.918
292.94
292.943
292.968
292.975
293.001
293.005
293.023
293.026
293.048
293.053
293.075
293.077
293.095
293.098
293.118
293.12
293.135
293.136
293.155
293.159
293.175
293.175
293.188
293.19
293.208
293.211
293.226
293.226
293.239
293.242
293.26
293.263
293.279
293.279
293.291
293.294
293.309
293.312
293.324
293.326
293.339
293.34
293.351
293.351
293.362
293.364
293.376
293.377
293.385
293.386
293.396
293.399
293.41
293.412
293.422
293.425
293.435
293.438
293.447
293.45
293.459
293.461
293.47
293.473
293.481
293.483
293.49
293.491
293.498
293.5
293.507
293.509
293.514
293.515
293.521
293.523
293.529
293.53
293.532
293.534
293.536
293.538
293.539
293.541
293.542
293.544
293.546
293.547
293.549
293.551
293.552
293.554
293.556
293.558
293.56
293.563
293.565
293.566
293.567
293.566
293.565
287.674
287.673
287.669
287.66
287.648
287.633
287.623
287.616
287.616
287.615
287.622
287.632
287.659
287.701
287.769
287.864
287.981
288.124
288.279
288.449
288.621
288.797
288.967
289.131
289.285
289.428
289.556
289.673
289.774
289.862
289.934
289.995
290.038
290.073
290.092
290.107
290.112
290.116
290.117
290.116
290.112
290.103
290.085
290.062
290.031
290
289.965
289.934
289.905
289.885
289.871
289.863
289.858
289.857
289.858
289.861
289.873
289.896
289.932
289.98
290.037
290.102
290.171
290.241
290.312
290.38
290.449
290.508
290.572
290.625
290.68
290.727
290.768
290.79
290.805
290.805
290.815
290.808
290.814
290.804
290.798
290.795
290.792
290.795
290.795
290.796
290.793
290.801
290.766
290.792
290.77
290.781
290.765
290.783
290.769
290.796
290.777
290.823
290.841
290.866
290.874
290.877
290.869
290.865
290.867
290.861
290.852
290.834
290.841
290.834
290.842
290.834
290.846
290.822
290.817
290.771
290.804
290.75
290.736
290.626
290.581
290.419
290.34
290.167
290.066
289.907
289.779
289.64
289.524
289.421
289.332
289.267
289.204
289.178
289.143
289.143
289.134
289.159
289.182
289.245
289.294
289.368
289.423
289.496
289.556
289.639
289.709
289.795
289.873
289.952
290.029
290.104
290.194
290.276
290.392
290.477
290.571
290.612
290.713
290.743
290.879
290.898
290.91
290.903
290.945
290.924
290.953
290.938
290.948
290.935
290.949
290.892
290.888
290.763
290.714
290.564
290.455
290.319
290.201
290.07
289.951
289.802
289.677
289.506
289.413
289.237
289.183
289.012
288.985
288.846
288.819
288.755
288.763
288.718
288.73
288.719
288.754
288.764
288.828
288.825
288.89
288.878
288.944
288.951
289.009
288.995
289.015
289.005
289.011
288.951
288.975
288.963
288.938
288.919
288.864
288.852
288.799
288.796
288.749
288.747
288.724
288.725
288.715
288.698
288.688
288.674
288.67
288.667
288.671
288.678
288.703
288.724
288.763
288.792
288.848
288.882
288.957
288.991
289.063
289.071
289.115
289.127
289.189
289.212
289.291
289.315
289.395
289.416
289.487
289.506
289.562
289.588
289.633
289.649
289.697
289.727
289.765
289.793
289.813
289.836
289.856
289.878
289.9
289.913
289.934
289.94
289.96
289.957
289.961
289.955
289.988
289.993
290.038
290.026
290.041
290.019
290.025
289.997
290.009
289.983
289.991
289.947
289.939
289.895
289.902
289.868
289.867
289.827
289.83
289.81
289.812
289.793
289.796
289.785
289.795
289.799
289.82
289.831
289.859
289.877
289.907
289.93
289.961
289.986
290.018
290.042
290.075
290.097
290.133
290.154
290.191
290.21
290.25
290.268
290.311
290.33
290.378
290.401
290.454
290.479
290.537
290.566
290.632
290.666
290.74
290.777
290.853
290.888
290.963
290.993
291.066
291.091
291.161
291.183
291.251
291.27
291.337
291.353
291.418
291.432
291.497
291.509
291.572
291.582
291.644
291.653
291.715
291.725
291.784
291.787
291.837
291.841
291.898
291.906
291.96
291.96
292.012
292.019
292.069
292.069
292.105
292.107
292.156
292.17
292.212
292.212
292.239
292.241
292.285
292.294
292.335
292.337
292.367
292.369
292.412
292.418
292.464
292.469
292.508
292.508
292.542
292.547
292.586
292.59
292.63
292.632
292.664
292.666
292.701
292.706
292.744
292.745
292.778
292.778
292.812
292.813
292.848
292.852
292.881
292.88
292.902
292.904
292.935
292.942
292.966
292.966
292.983
292.986
293.014
293.016
293.036
293.036
293.055
293.06
293.08
293.079
293.094
293.096
293.119
293.12
293.135
293.133
293.146
293.149
293.171
293.172
293.183
293.182
293.197
293.201
293.222
293.223
293.235
293.234
293.247
293.25
293.266
293.267
293.279
293.28
293.294
293.294
293.303
293.304
293.316
293.319
293.329
293.328
293.336
293.337
293.349
293.351
293.363
293.363
293.374
293.376
293.387
293.388
293.397
293.398
293.408
293.41
293.42
293.421
293.43
293.43
293.437
293.438
293.446
293.447
293.455
293.455
293.46
293.461
293.469
293.47
293.475
293.476
293.478
293.48
293.481
293.485
293.485
293.489
293.49
293.492
293.494
293.495
293.497
293.499
293.501
293.503
293.505
293.507
293.51
293.512
293.514
293.514
293.513
293.511
287.682
287.681
287.677
287.668
287.655
287.643
287.632
287.628
287.627
287.629
287.634
287.649
287.677
287.724
287.798
287.891
288.016
288.15
288.308
288.469
288.639
288.807
288.975
289.135
289.287
289.427
289.556
289.669
289.77
289.853
289.925
289.98
290.026
290.053
290.076
290.085
290.093
290.094
290.096
290.095
290.093
290.083
290.069
290.045
290.02
289.987
289.958
289.926
289.902
289.881
289.869
289.861
289.857
289.856
289.857
289.86
289.873
289.896
289.932
289.98
290.038
290.102
290.171
290.242
290.309
290.379
290.438
290.505
290.558
290.622
290.672
290.731
290.764
290.796
290.791
290.807
290.792
290.799
290.783
290.77
290.774
290.766
290.769
290.763
290.766
290.764
290.772
290.748
290.77
290.735
290.757
290.732
290.747
290.729
290.747
290.739
290.758
290.748
290.784
290.806
290.824
290.828
290.823
290.822
290.817
290.824
290.808
290.825
290.808
290.829
290.817
290.848
290.834
290.856
290.84
290.884
290.9
290.952
290.929
290.948
290.887
290.867
290.743
290.693
290.549
290.439
290.281
290.141
289.991
289.852
289.727
289.603
289.515
289.413
289.371
289.292
289.276
289.246
289.266
289.278
289.337
289.369
289.439
289.488
289.57
289.628
289.713
289.789
289.868
289.942
290.018
290.096
290.175
290.278
290.365
290.482
290.546
290.689
290.723
290.963
291.005
291.167
291.111
291.19
291.2
291.226
291.218
291.263
291.231
291.265
291.25
291.272
291.21
291.202
291.066
290.977
290.844
290.74
290.62
290.509
290.376
290.248
290.074
289.955
289.758
289.672
289.462
289.409
289.196
289.159
288.986
288.978
288.859
288.846
288.776
288.79
288.763
288.796
288.788
288.817
288.803
288.811
288.781
288.818
288.804
288.839
288.818
288.845
288.808
288.835
288.826
288.832
288.831
288.783
288.781
288.723
288.72
288.682
288.688
288.657
288.668
288.671
288.663
288.662
288.643
288.639
288.621
288.618
288.613
288.621
288.628
288.661
288.678
288.736
288.757
288.837
288.864
288.963
288.995
289.061
289.054
289.088
289.097
289.174
289.182
289.276
289.285
289.386
289.395
289.486
289.495
289.567
289.589
289.647
289.671
289.725
289.759
289.788
289.815
289.835
289.858
289.888
289.91
289.944
289.96
290.004
290.01
290.036
290.021
290.067
290.071
290.164
290.164
290.232
290.222
290.251
290.23
290.241
290.212
290.231
290.198
290.202
290.145
290.141
290.093
290.1
290.047
290.039
289.984
289.986
289.95
289.949
289.898
289.896
289.868
289.874
289.869
289.884
289.886
289.91
289.918
289.947
289.963
289.994
290.013
290.043
290.063
290.093
290.11
290.138
290.15
290.175
290.182
290.208
290.211
290.239
290.24
290.273
290.275
290.311
290.314
290.358
290.369
290.431
290.454
290.53
290.558
290.642
290.671
290.757
290.782
290.868
290.888
290.973
290.989
291.073
291.087
291.17
291.181
291.264
291.272
291.354
291.361
291.442
291.447
291.529
291.535
291.615
291.624
291.691
291.691
291.752
291.76
291.835
291.838
291.898
291.898
291.964
291.978
292.028
292.027
292.062
292.071
292.134
292.149
292.185
292.179
292.206
292.211
292.26
292.27
292.307
292.307
292.341
292.345
292.391
292.396
292.444
292.446
292.484
292.485
292.521
292.528
292.566
292.571
292.607
292.608
292.64
292.643
292.679
292.687
292.721
292.722
292.752
292.754
292.789
292.79
292.825
292.829
292.854
292.853
292.875
292.881
292.914
292.917
292.938
292.937
292.956
292.963
292.988
292.989
293.006
293.007
293.03
293.034
293.052
293.05
293.066
293.071
293.092
293.092
293.103
293.102
293.12
293.125
293.143
293.142
293.152
293.152
293.17
293.175
293.193
293.192
293.201
293.2
293.217
293.221
293.233
293.233
293.245
293.247
293.26
293.259
293.267
293.268
293.283
293.284
293.292
293.291
293.298
293.3
293.313
293.314
293.325
293.325
293.336
293.338
293.348
293.349
293.357
293.358
293.369
293.369
293.38
293.38
293.388
293.388
293.395
293.396
293.405
293.406
293.411
293.411
293.417
293.418
293.427
293.428
293.431
293.433
293.434
293.437
293.438
293.442
293.443
293.446
293.448
293.45
293.453
293.454
293.456
293.458
293.46
293.462
293.464
293.467
293.47
293.471
293.472
293.471
293.47
287.693
287.692
287.688
287.679
287.668
287.655
287.647
287.643
287.644
287.646
287.653
287.67
287.699
287.753
287.821
287.925
288.036
288.178
288.32
288.483
288.644
288.812
288.977
289.136
289.287
289.426
289.552
289.662
289.76
289.838
289.908
289.959
290.001
290.03
290.046
290.057
290.059
290.063
290.062
290.064
290.06
290.055
290.039
290.022
289.994
289.97
289.94
289.917
289.891
289.877
289.864
289.858
289.854
289.853
289.854
289.859
289.872
289.896
289.932
289.98
290.037
290.101
290.17
290.238
290.308
290.367
290.434
290.486
290.555
290.608
290.68
290.719
290.773
290.779
290.8
290.789
290.781
290.769
290.752
290.749
290.734
290.741
290.726
290.724
290.704
290.712
290.68
290.705
290.66
290.683
290.645
290.659
290.628
290.639
290.623
290.627
290.625
290.637
290.645
290.659
290.68
290.684
290.687
290.679
290.702
290.68
290.721
290.718
290.732
290.722
290.783
290.79
290.845
290.82
290.868
290.891
290.982
291.002
291.093
291.113
291.168
291.158
291.178
291.135
291.097
290.993
290.891
290.75
290.601
290.444
290.282
290.134
289.975
289.861
289.709
289.637
289.511
289.475
289.419
289.423
289.414
289.448
289.466
289.538
289.576
289.658
289.724
289.802
289.876
289.949
290.025
290.098
290.187
290.266
290.381
290.462
290.626
290.697
290.983
291.027
291.357
291.365
291.53
291.519
291.609
291.591
291.65
291.627
291.671
291.655
291.688
291.665
291.679
291.606
291.547
291.421
291.329
291.216
291.118
291
290.884
290.74
290.605
290.422
290.299
290.089
289.99
289.761
289.69
289.449
289.408
289.189
289.167
288.985
288.979
288.873
288.864
288.793
288.821
288.789
288.799
288.736
288.734
288.651
288.672
288.598
288.613
288.588
288.625
288.604
288.636
288.656
288.622
288.632
288.584
288.582
288.534
288.567
288.53
288.543
288.543
288.559
288.583
288.578
288.591
288.573
288.569
288.55
288.552
288.545
288.559
288.566
288.61
288.621
288.702
288.716
288.821
288.847
288.964
288.996
289.048
289.039
289.07
289.071
289.144
289.144
289.244
289.249
289.364
289.367
289.468
289.48
289.57
289.594
289.669
289.704
289.753
289.787
289.811
289.837
289.859
289.882
289.919
289.944
289.986
290.013
290.053
290.047
290.101
290.112
290.211
290.227
290.347
290.355
290.448
290.442
290.504
290.492
290.5
290.491
290.498
290.458
290.477
290.425
290.421
290.371
290.374
290.299
290.288
290.218
290.218
290.152
290.143
290.056
290.053
290.006
290.007
289.986
289.988
289.975
289.985
289.986
290.009
290.012
290.037
290.048
290.076
290.09
290.115
290.127
290.147
290.153
290.164
290.161
290.169
290.165
290.168
290.155
290.159
290.142
290.146
290.133
290.148
290.148
290.195
290.207
290.276
290.299
290.383
290.408
290.5
290.522
290.617
290.634
290.732
290.746
290.844
290.855
290.955
290.964
291.065
291.072
291.172
291.178
291.279
291.284
291.385
291.393
291.491
291.497
291.575
291.577
291.662
291.677
291.757
291.76
291.83
291.837
291.922
291.937
291.987
291.986
292.035
292.053
292.125
292.132
292.16
292.154
292.186
292.195
292.246
292.255
292.293
292.294
292.333
292.34
292.382
292.392
292.434
292.442
292.478
292.487
292.52
292.531
292.562
292.571
292.598
292.607
292.634
292.643
292.674
292.681
292.711
292.715
292.744
292.75
292.78
292.784
292.814
292.819
292.843
292.844
292.869
292.873
292.901
292.905
292.925
292.927
292.947
292.953
292.973
292.974
292.992
292.994
293.018
293.02
293.037
293.036
293.054
293.06
293.078
293.076
293.087
293.088
293.108
293.113
293.129
293.126
293.136
293.138
293.157
293.162
293.176
293.172
293.182
293.185
293.201
293.203
293.212
293.213
293.226
293.228
293.238
293.237
293.246
293.248
293.26
293.261
293.267
293.267
293.276
293.278
293.29
293.29
293.3
293.3
293.312
293.313
293.322
293.323
293.331
293.332
293.342
293.342
293.352
293.352
293.36
293.36
293.367
293.369
293.376
293.376
293.381
293.382
293.389
293.39
293.397
293.398
293.4
293.402
293.403
293.407
293.408
293.412
293.414
293.416
293.419
293.421
293.424
293.426
293.428
293.43
293.432
293.434
293.437
293.439
293.441
293.442
293.442
293.441
287.703
287.702
287.698
287.691
287.68
287.67
287.663
287.661
287.661
287.664
287.673
287.689
287.724
287.77
287.849
287.936
288.058
288.181
288.33
288.482
288.644
288.812
288.975
289.134
289.281
289.42
289.537
289.649
289.732
289.816
289.872
289.928
289.96
289.991
290.003
290.012
290.011
290.015
290.016
290.016
290.016
290.01
290
289.98
289.962
289.936
289.917
289.893
289.879
289.863
289.856
289.85
289.848
289.847
289.849
289.855
289.87
289.894
289.931
289.977
290.034
290.098
290.164
290.234
290.295
290.365
290.417
290.486
290.539
290.616
290.669
290.733
290.751
290.773
290.776
290.769
290.751
290.735
290.733
290.713
290.722
290.699
290.694
290.654
290.654
290.59
290.602
290.533
290.545
290.51
290.509
290.474
290.453
290.423
290.412
290.399
290.399
290.406
290.398
290.415
290.405
290.423
290.41
290.444
290.412
290.46
290.457
290.536
290.5
290.567
290.57
290.705
290.708
290.801
290.795
290.903
290.935
291.058
291.101
291.204
291.254
291.356
291.41
291.483
291.497
291.499
291.45
291.37
291.252
291.108
290.951
290.775
290.615
290.42
290.279
290.083
289.977
289.811
289.751
289.656
289.634
289.6
289.622
289.626
289.683
289.725
289.793
289.856
289.925
289.994
290.063
290.144
290.215
290.317
290.405
290.562
290.657
290.957
291.029
291.436
291.484
291.829
291.836
291.989
291.994
292.071
292.063
292.11
292.09
292.127
292.111
292.128
292.089
292.066
291.965
291.885
291.777
291.689
291.584
291.478
291.355
291.233
291.082
290.946
290.769
290.622
290.416
290.304
290.072
289.983
289.735
289.668
289.409
289.362
289.155
289.137
288.957
288.905
288.814
288.837
288.769
288.749
288.649
288.635
288.488
288.448
288.352
288.398
288.351
288.389
288.422
288.395
288.408
288.368
288.392
288.347
288.35
288.335
288.347
288.323
288.353
288.412
288.414
288.485
288.49
288.5
288.482
288.491
288.477
288.482
288.473
288.491
288.492
288.562
288.568
288.672
288.684
288.808
288.839
288.962
288.995
289.042
289.034
289.057
289.054
289.115
289.116
289.222
289.225
289.338
289.352
289.457
289.488
289.583
289.623
289.696
289.738
289.779
289.812
289.834
289.861
289.888
289.908
289.952
289.976
290.021
290.039
290.086
290.098
290.18
290.218
290.323
290.37
290.506
290.533
290.658
290.672
290.758
290.735
290.777
290.742
290.789
290.779
290.79
290.748
290.755
290.7
290.705
290.608
290.603
290.514
290.51
290.404
290.393
290.283
290.278
290.208
290.204
290.147
290.141
290.106
290.11
290.093
290.095
290.088
290.099
290.102
290.122
290.125
290.144
290.147
290.157
290.154
290.157
290.149
290.146
290.121
290.11
290.071
290.057
290.008
289.993
289.947
289.946
289.928
289.948
289.954
290.009
290.022
290.101
290.121
290.214
290.233
290.334
290.349
290.456
290.469
290.58
290.592
290.707
290.718
290.834
290.844
290.963
290.972
291.092
291.102
291.221
291.233
291.345
291.351
291.454
291.46
291.57
291.581
291.674
291.674
291.771
291.783
291.881
291.891
291.955
291.954
292.031
292.054
292.118
292.117
292.141
292.143
292.182
292.201
292.247
292.26
292.293
292.305
292.339
292.354
292.39
292.406
292.443
292.457
292.489
292.503
292.532
292.545
292.572
292.581
292.607
292.618
292.643
292.653
292.68
292.69
292.715
292.725
292.751
292.759
292.783
292.791
292.817
292.824
292.844
292.85
292.872
292.879
292.901
292.907
292.926
292.929
292.949
292.954
292.972
292.974
292.994
292.997
293.016
293.018
293.034
293.036
293.054
293.059
293.074
293.074
293.087
293.089
293.105
293.111
293.124
293.123
293.134
293.137
293.153
293.156
293.167
293.167
293.177
293.182
293.194
293.194
293.203
293.205
293.219
293.219
293.226
293.225
293.235
293.238
293.249
293.248
293.254
293.254
293.265
293.266
293.277
293.277
293.285
293.287
293.298
293.299
293.307
293.308
293.316
293.317
293.326
293.326
293.335
293.336
293.344
293.344
293.352
293.352
293.359
293.359
293.364
293.365
293.372
293.373
293.378
293.379
293.38
293.383
293.384
293.387
293.39
293.392
293.396
293.398
293.401
293.403
293.406
293.408
293.41
293.412
293.415
293.417
293.419
293.422
293.423
293.423
293.423
287.71
287.709
287.705
287.699
287.69
287.681
287.677
287.675
287.676
287.68
287.688
287.708
287.735
287.789
287.852
287.95
288.056
288.188
288.331
288.48
288.645
288.806
288.969
289.121
289.268
289.392
289.514
289.601
289.694
289.756
289.821
289.862
289.902
289.92
289.939
289.942
289.947
289.946
289.949
289.947
289.949
289.944
289.939
289.923
289.907
289.891
289.871
289.863
289.848
289.844
289.836
289.835
289.833
289.835
289.837
289.848
289.862
289.89
289.924
289.972
290.026
290.088
290.154
290.217
290.288
290.345
290.417
290.471
290.548
290.605
290.678
290.714
290.734
290.739
290.744
290.735
290.722
290.721
290.696
290.705
290.683
290.672
290.63
290.63
290.542
290.521
290.408
290.39
290.331
290.309
290.276
290.218
290.182
290.112
290.103
290.071
290.091
290.051
290.057
290.043
290.042
290.024
290.053
290.028
290.061
290.036
290.107
290.11
290.21
290.197
290.324
290.334
290.527
290.537
290.71
290.717
290.923
290.953
291.104
291.172
291.301
291.387
291.522
291.629
291.751
291.829
291.875
291.871
291.831
291.744
291.615
291.471
291.295
291.128
290.913
290.75
290.525
290.387
290.193
290.098
289.972
289.923
289.873
289.873
289.878
289.912
289.949
290.001
290.059
290.12
290.191
290.256
290.352
290.43
290.582
290.673
290.938
291.043
291.451
291.543
291.976
292.037
292.318
292.333
292.453
292.459
292.517
292.5
292.536
292.519
292.531
292.498
292.479
292.4
292.339
292.239
292.154
292.053
291.959
291.845
291.741
291.607
291.483
291.331
291.191
291.019
290.88
290.692
290.554
290.342
290.231
289.985
289.887
289.626
289.555
289.309