/*--------------------------------*- C++ -*----------------------------------*\
| =========                 |                                                 |
| \\      /  F ield         | OpenFOAM: The Open Source CFD Toolbox           |
|  \\    /   O peration     | Version:  v1812                                 |
|   \\  /    A nd           | Web:      www.OpenFOAM.com                      |
|    \\/     M anipulation  |                                                 |
\*---------------------------------------------------------------------------*/
FoamFile
{
    version     2.0;
    format      ascii;
    class       volVectorField;
    location    "0.8";
    object      U;
}
// * * * * * * * * * * * * * * * * * * * * * * * * * * * * * * * * * * * * * //

dimensions      [0 1 -1 0 0 0 0];


internalField   nonuniform List<vector> 
20400
(
(0.00309735 0.00107966 0)
(0.00421191 0.00540544 0)
(-0.00230801 0.00872504 0)
(-0.0237123 0.0133071 0)
(-0.0503195 0.0124498 0)
(-0.0988803 0.0132369 0)
(-0.134809 0.0136259 0)
(-0.209247 0.0132077 0)
(-0.246245 0.0145016 0)
(-0.346172 0.0144375 0)
(-0.381253 0.0160294 0)
(-0.504383 0.0176444 0)
(-0.536973 0.01835 0)
(-0.67508 0.0211161 0)
(-0.707255 0.0191439 0)
(-0.846489 0.0239267 0)
(-0.882181 0.0183808 0)
(-1.00862 0.025276 0)
(-1.05189 0.0162414 0)
(-1.15633 0.0222993 0)
(-1.20643 0.0118725 0)
(-1.28634 0.0140218 0)
(-1.33737 0.00927083 0)
(-1.39168 0.0108036 0)
(-1.42767 0.0075834 0)
(-1.45242 0.002754 0)
(-1.46579 -0.00106247 0)
(-1.46829 -0.00420583 0)
(-1.46406 -0.00674104 0)
(-1.45654 -0.0102627 0)
(-1.43843 -0.00779133 0)
(-1.42761 -0.00210209 0)
(-1.40487 0.00557757 0)
(-1.39522 0.0117958 0)
(-1.37685 0.0108511 0)
(-1.36296 0.0142626 0)
(-1.34576 0.00762855 0)
(-1.32204 0.00520588 0)
(-1.29943 -0.00238827 0)
(-1.26672 -0.0086941 0)
(-1.23817 -0.0146071 0)
(-1.20073 -0.0215513 0)
(-1.16912 -0.0252999 0)
(-1.13019 -0.0275568 0)
(-1.09712 -0.0290216 0)
(-1.05818 -0.0302394 0)
(-1.02322 -0.0318088 0)
(-0.983659 -0.0318153 0)
(-0.947126 -0.0309913 0)
(-0.910007 -0.0282898 0)
(-0.87897 -0.025663 0)
(-0.852893 -0.0232315 0)
(-0.835222 -0.0195925 0)
(-0.823121 -0.0119305 0)
(-0.809505 -0.0143657 0)
(-0.796016 -0.00856086 0)
(-0.780165 -0.00460093 0)
(-0.769203 -0.00259383 0)
(-0.766626 -0.00230922 0)
(-0.780334 -0.00238024 0)
(-0.813437 -0.0017172 0)
(-0.878484 0.000354037 0)
(-0.957079 0.0018837 0)
(-1.07347 0.00550941 0)
(-1.19717 0.00763594 0)
(-1.36744 0.0132367 0)
(-1.54352 0.0162365 0)
(-1.77427 0.023108 0)
(-2.01156 0.0274959 0)
(-2.31059 0.0363529 0)
(-2.61872 0.0432625 0)
(-2.99551 0.0556399 0)
(-3.38255 0.069759 0)
(-3.84521 0.0858763 0)
(-4.31309 0.11206 0)
(-4.86868 0.134352 0)
(-5.41453 0.176982 0)
(-6.04783 0.21716 0)
(-6.65562 0.258519 0)
(-7.32638 0.304214 0)
(-7.93951 0.338481 0)
(-8.57286 0.356185 0)
(-9.1075 0.333209 0)
(-9.56863 0.263199 0)
(-9.89 0.14107 0)
(-10.0781 0.0272268 0)
(-10.1534 -0.0268592 0)
(-10.096 -0.0733317 0)
(-9.98058 -0.0999713 0)
(-9.72553 0.0271046 0)
(-9.58639 0.135203 0)
(-9.08318 0.349539 0)
(-8.77038 0.395856 0)
(-8.10327 0.544907 0)
(-7.63313 0.52085 0)
(-6.89136 0.540779 0)
(-6.27703 0.480823 0)
(-5.51754 0.423912 0)
(-4.8124 0.320059 0)
(-4.06118 0.195255 0)
(-3.35802 0.0524655 0)
(-2.64989 -0.0691317 0)
(-2.11912 -0.34361 0)
(-1.48456 -0.524049 0)
(-0.938427 -0.466843 0)
(-0.45909 -0.309013 0)
(-0.15527 -0.218629 0)
(0.151656 -0.0483534 0)
(0.187947 -0.0307845 0)
(0.629001 -0.0480189 0)
(0.637126 0.0144146 0)
(1.04496 -0.028779 0)
(1.03851 0.00982377 0)
(1.43787 -0.00880829 0)
(1.42219 0.000774021 0)
(1.77032 0.0189684 0)
(1.75573 0.00149066 0)
(2.04503 0.0226563 0)
(2.03839 0.00313788 0)
(2.25979 0.0282424 0)
(2.26055 0.00533039 0)
(2.41891 0.0278932 0)
(2.42161 0.00783819 0)
(2.52368 0.0253742 0)
(2.52412 0.0171284 0)
(2.57592 0.0177558 0)
(2.57551 0.0202557 0)
(2.58003 0.021452 0)
(2.57684 0.0241898 0)
(2.554 0.023145 0)
(2.54842 0.0300317 0)
(2.48296 0.0197074 0)
(2.47762 0.0306953 0)
(2.38087 0.0162842 0)
(2.37481 0.0301959 0)
(2.25994 0.0127548 0)
(2.25263 0.0293486 0)
(2.12685 0.011 0)
(2.1186 0.0282431 0)
(1.98606 0.00800525 0)
(1.97633 0.0278521 0)
(1.84338 0.00638634 0)
(1.8375 0.0125863 0)
(1.70711 0.0162645 0)
(1.70081 0.0143703 0)
(1.59649 0.0223314 0)
(1.58815 0.0136821 0)
(1.53565 0.0171915 0)
(1.5247 0.0104069 0)
(1.52058 0.00682714 0)
(1.5184 0.00275807 0)
(1.58016 0.00949743 0)
(1.585 -0.0073453 0)
(1.73258 0.00468687 0)
(1.74102 -0.0172169 0)
(1.97279 -0.0148748 0)
(1.98605 -0.0281115 0)
(2.28416 -0.010678 0)
(2.30036 -0.0400582 0)
(2.63639 0.00391061 0)
(2.64743 -0.0313716 0)
(3.03431 -0.0284625 0)
(3.03638 -0.0263447 0)
(3.42324 -0.0356461 0)
(3.4203 -0.0190375 0)
(3.79201 -0.0316958 0)
(3.78382 -0.0172858 0)
(4.13476 -0.0248758 0)
(4.1295 -0.0243685 0)
(4.42353 -0.00879858 0)
(4.42209 -0.0229821 0)
(4.62613 0.00213107 0)
(4.62859 -0.0153606 0)
(4.74088 0.00247807 0)
(4.74137 -0.00111993 0)
(4.77121 -0.000568958 0)
(4.76222 0.00173167 0)
(4.75052 0.00612976 0)
(4.69666 0.00217617 0)
(4.67072 0.0154978 0)
(4.56528 -0.00706255 0)
(4.54037 0.0137783 0)
(4.37885 -0.00930214 0)
(4.35451 0.0228146 0)
(4.16208 -0.0100386 0)
(4.13772 0.0263184 0)
(3.91885 -0.0123494 0)
(3.89506 0.0277986 0)
(3.65959 -0.0156654 0)
(3.64115 0.0231816 0)
(3.39079 -0.0136034 0)
(3.37622 0.0195505 0)
(3.13159 -0.0123495 0)
(3.11652 0.0187867 0)
(2.87824 -0.0138825 0)
(2.86327 0.0191486 0)
(2.62895 -0.0170753 0)
(2.61433 0.0169952 0)
(2.38592 -0.0241497 0)
(2.36852 0.0178513 0)
(2.15039 -0.0279594 0)
(2.13387 0.0143095 0)
(1.92599 -0.023775 0)
(1.91202 0.0154382 0)
(1.7202 -0.02229 0)
(1.7137 0.005954 0)
(1.52151 -0.0130434 0)
(1.52006 0.0134505 0)
(1.3677 -0.000583654 0)
(1.34049 -0.0321874 0)
(1.27656 0.0148468 0)
(1.17192 -0.0174937 0)
(1.15216 0.0080837 0)
(1.04022 -0.00599617 0)
(1.04111 0.00253502 0)
(0.951407 -0.00639212 0)
(0.953683 0.00251497 0)
(0.87991 -0.00258004 0)
(0.879415 -0.00540246 0)
(0.851693 0.00580562 0)
(0.838601 -0.00171222 0)
(0.830683 0.00248717 0)
(0.816814 0.00411449 0)
(0.815962 0.00274525 0)
(0.81641 0.00136067 0)
(0.824162 0.00340531 0)
(0.824518 0.00292224 0)
(0.840179 0.00450688 0)
(0.840148 0.00629264 0)
(0.85025 0.00577161 0)
(0.849392 0.00714861 0)
(0.849513 0.00752932 0)
(0.832118 0.00829262 0)
(0.830785 0.0142224 0)
(0.780047 0.00860976 0)
(0.775758 0.0206358 0)
(0.690317 0.00683845 0)
(0.685084 0.0243957 0)
(0.580528 0.00551422 0)
(0.574487 0.0275412 0)
(0.464389 0.00576684 0)
(0.459855 0.0278058 0)
(0.34417 0.00984856 0)
(0.33923 0.0309738 0)
(0.232201 0.0105485 0)
(0.226409 0.034732 0)
(0.126769 0.0155634 0)
(0.12533 0.0250403 0)
(0.0375371 0.0434756 0)
(0.0191893 0.0617838 0)
(-0.0668409 0.115572 0)
(-0.166677 0.134598 0)
(-0.28706 0.133197 0)
(-0.392253 0.122228 0)
(-0.4856 0.100351 0)
(-0.555363 0.0794317 0)
(-0.604502 0.056093 0)
(-0.63263 0.0355994 0)
(-0.635352 0.0129624 0)
(-0.611793 -0.00893185 0)
(-0.569238 -0.0310443 0)
(-0.496851 -0.0547888 0)
(-0.414618 -0.0708585 0)
(-0.30064 -0.0804018 0)
(-0.20232 -0.0803632 0)
(-0.0879836 -0.0469029 0)
(-0.0264065 -0.0481203 0)
(0.0728965 -0.00385396 0)
(0.0748275 -0.00696872 0)
(0.229582 -0.00729581 0)
(0.22843 -0.0064596 0)
(0.409671 -0.00502086 0)
(0.398269 0.00091911 0)
(0.605203 -0.00266389 0)
(0.591741 0.00644182 0)
(0.79846 0.00277654 0)
(0.792697 0.0155288 0)
(0.971458 0.00705427 0)
(0.973371 0.0166234 0)
(1.13324 0.0155224 0)
(1.13584 0.0200415 0)
(1.27993 0.0220049 0)
(1.28307 0.0199063 0)
(1.40435 0.03065 0)
(1.39946 0.0238184 0)
(1.50331 0.0337327 0)
(1.49749 0.0296448 0)
(1.58012 0.034868 0)
(1.57913 0.0372263 0)
(1.64394 0.0358815 0)
(1.64257 0.0370177 0)
(1.69881 0.0405109 0)
(1.69909 0.0381261 0)
(1.74143 0.0432654 0)
(1.74253 0.0408113 0)
(1.77383 0.0453739 0)
(1.77428 0.0421123 0)
(1.80149 0.0465208 0)
(1.80105 0.0436529 0)
(1.82922 0.0472463 0)
(1.82857 0.0445802 0)
(1.85724 0.0485852 0)
(1.85711 0.0448713 0)
(1.88588 0.0490491 0)
(1.88618 0.0451691 0)
(1.9153 0.0508057 0)
(1.9165 0.0460692 0)
(1.94844 0.0517804 0)
(1.94951 0.0462183 0)
(1.98465 0.0521318 0)
(1.98625 0.0459273 0)
(2.02395 0.0529127 0)
(2.02573 0.0459914 0)
(2.06621 0.0529678 0)
(2.06816 0.0459862 0)
(2.1102 0.0532801 0)
(2.11249 0.0459141 0)
(2.15506 0.0537412 0)
(2.15748 0.0460782 0)
(2.20053 0.0540993 0)
(2.203 0.0461091 0)
(2.24707 0.0538027 0)
(2.24982 0.0454827 0)
(2.29531 0.0533596 0)
(2.29842 0.0448036 0)
(2.34503 0.0530403 0)
(2.34847 0.044286 0)
(2.39603 0.0528526 0)
(2.39973 0.0437938 0)
(2.44785 0.0525395 0)
(2.45171 0.0431865 0)
(2.50001 0.0521043 0)
(2.50407 0.0425258 0)
(2.55266 0.0516227 0)
(2.55691 0.0418499 0)
(2.60603 0.0510398 0)
(2.61047 0.0411041 0)
(2.66003 0.0503932 0)
(2.66465 0.0402991 0)
(2.71448 0.0497286 0)
(2.71926 0.0394903 0)
(2.76937 0.0490644 0)
(2.77429 0.0386736 0)
(2.82467 0.0483823 0)
(2.82973 0.0377848 0)
(2.88063 0.0475283 0)
(2.8859 0.0371156 0)
(2.93643 0.0474006 0)
(2.94154 0.0363708 0)
(2.99252 0.0462213 0)
(2.99734 0.0356807 0)
(3.05028 0.0443549 0)
(3.05574 0.0338922 0)
(3.10639 0.0453805 0)
(3.11145 0.0340483 0)
(3.16482 0.0427838 0)
(3.17006 0.0324753 0)
(3.22309 0.0431119 0)
(3.22833 0.0322453 0)
(3.28061 0.0418943 0)
(3.28527 0.0314307 0)
(3.33853 0.0401058 0)
(3.34372 0.0298293 0)
(3.39687 0.0400873 0)
(3.40214 0.0303755 0)
(3.45142 0.0399735 0)
(3.4555 0.0300137 0)
(3.50509 0.0372508 0)
(3.50984 0.0277553 0)
(3.5591 0.037556 0)
(3.56399 0.02808 0)
(3.61064 0.0374081 0)
(3.61495 0.0280814 0)
(3.66282 0.0358406 0)
(3.66789 0.0262843 0)
(3.71518 0.0352468 0)
(3.72067 0.0255401 0)
(3.76554 0.035289 0)
(3.77068 0.0255114 0)
(3.81654 0.0333075 0)
(3.82146 0.0241784 0)
(3.867 0.0330603 0)
(3.87206 0.0240392 0)
(3.91646 0.0330843 0)
(3.92158 0.0237919 0)
(3.96609 0.0322568 0)
(3.9711 0.0234677 0)
(4.01554 0.0319832 0)
(4.02062 0.0232804 0)
(4.06412 0.031792 0)
(4.06926 0.022862 0)
(4.11225 0.0312041 0)
(4.11741 0.0225939 0)
(4.16034 0.0305784 0)
(4.1656 0.0217762 0)
(4.20858 0.0295673 0)
(4.21396 0.0210243 0)
(4.25604 0.0296252 0)
(4.2608 0.0215162 0)
(4.30291 0.0285275 0)
(4.30728 0.0212141 0)
(4.34904 0.0281252 0)
(4.35392 0.0202013 0)
(4.39417 0.0282466 0)
(4.39842 0.0207322 0)
(4.43864 0.0268272 0)
(4.44242 0.0202228 0)
(4.48233 0.0264672 0)
(4.48647 0.0188743 0)
(4.52468 0.0262955 0)
(4.52835 0.0193357 0)
(4.56691 0.024964 0)
(4.57053 0.0184981 0)
(4.60757 0.0253622 0)
(4.61104 0.0185988 0)
(4.64771 0.0240709 0)
(4.65078 0.0181168 0)
(4.68618 0.023808 0)
(4.6896 0.016912 0)
(4.72389 0.0227509 0)
(4.72651 0.0170471 0)
(4.76044 0.0216279 0)
(4.76304 0.0165388 0)
(4.79497 0.0223046 0)
(4.7979 0.0162441 0)
(4.82915 0.0210944 0)
(4.83141 0.0159873 0)
(4.86197 0.020127 0)
(4.8646 0.0152585 0)
(4.89344 0.0205589 0)
(4.8963 0.0148703 0)
(4.92421 0.0194372 0)
(4.92638 0.014596 0)
(4.95388 0.0180369 0)
(4.95648 0.0134922 0)
(4.98258 0.0183729 0)
(4.98513 0.0134407 0)
(5.0105 0.0170759 0)
(5.01275 0.0126939 0)
(5.03631 0.0168643 0)
(5.0385 0.0124843 0)
(5.0608 0.0159391 0)
(5.06265 0.0123669 0)
(5.08238 0.0154814 0)
(5.0842 0.0118324 0)
(5.10083 0.015136 0)
(5.10228 0.0120892 0)
(5.1163 0.0144755 0)
(5.11727 0.0122785 0)
(5.12809 0.0142247 0)
(5.12928 0.0118241 0)
(5.13787 0.0138549 0)
(5.13904 0.0115488 0)
(5.14699 0.0130187 0)
(5.14828 0.0109706 0)
(5.15603 0.0125167 0)
(5.15734 0.0104503 0)
(5.16553 0.0119111 0)
(5.16694 0.00995364 0)
(5.17601 0.0115161 0)
(5.17763 0.00939913 0)
(5.18753 0.0111687 0)
(5.18925 0.00888361 0)
(5.19975 0.0108642 0)
(5.20134 0.00860847 0)
(5.21198 0.0104958 0)
(5.21327 0.00847007 0)
(5.22307 0.0100565 0)
(5.22424 0.00798684 0)
(5.23255 0.00973576 0)
(5.23339 0.00795408 0)
(5.24066 0.00910749 0)
(5.24145 0.00781837 0)
(5.2471 0.00882566 0)
(5.24851 0.00774522 0)
(5.25081 0.00803321 0)
(5.25443 0.00792084 0)
(5.25481 0.00758125 0)
(5.25853 0.0074515 0)
(5.25837 0.00761501 0)
(5.26163 0.00747955 0)
(5.26184 0.00745056 0)
(5.26351 0.00724584 0)
(5.26475 0.00751735 0)
(5.26497 0.00723864 0)
(5.26602 0.00713865 0)
(5.26638 0.00723385 0)
(5.26644 0.00718151 0)
(5.26625 0.0071386 0)
(5.26568 0.00706433 0)
(5.2648 0.00704747 0)
(5.26364 0.00691431 0)
(5.26193 0.00674987 0)
(5.26097 0.00725659 0)
(5.25819 0.0065353 0)
(5.25761 0.00717865 0)
(5.25453 0.00643655 0)
(5.25439 0.00562493 0)
(5.25124 0.00634005 0)
(5.24993 0.00611317 0)
(0.000557321 0.00195582 0)
(-0.00724883 0.0166528 0)
(-0.045593 0.0396028 0)
(-0.104661 0.0659649 0)
(-0.211152 0.082671 0)
(-0.309267 0.0944446 0)
(-0.46949 0.105706 0)
(-0.576759 0.107719 0)
(-0.780887 0.119501 0)
(-0.878213 0.118505 0)
(-1.11896 0.128266 0)
(-1.19835 0.123229 0)
(-1.46125 0.129627 0)
(-1.52184 0.121452 0)
(-1.78303 0.123249 0)
(-1.83166 0.113158 0)
(-2.0654 0.110934 0)
(-2.11262 0.100908 0)
(-2.30004 0.0957973 0)
(-2.35442 0.0853872 0)
(-2.48908 0.0782311 0)
(-2.54921 0.0680859 0)
(-2.63474 0.0539559 0)
(-2.6835 0.0349029 0)
(-2.72425 0.0136835 0)
(-2.74776 -0.00541888 0)
(-2.75869 -0.0201852 0)
(-2.75729 -0.0314627 0)
(-2.74648 -0.0386067 0)
(-2.72339 -0.0483772 0)
(-2.70392 -0.0541569 0)
(-2.66084 -0.0617446 0)
(-2.63504 -0.064185 0)
(-2.58429 -0.0649321 0)
(-2.54841 -0.0687454 0)
(-2.49892 -0.0713415 0)
(-2.44838 -0.0750348 0)
(-2.39764 -0.0811335 0)
(-2.3333 -0.0833078 0)
(-2.27644 -0.0873309 0)
(-2.20192 -0.0872186 0)
(-2.13728 -0.087826 0)
(-2.05602 -0.0860652 0)
(-1.98446 -0.0862687 0)
(-1.90036 -0.0848753 0)
(-1.82461 -0.0849829 0)
(-1.74131 -0.0841407 0)
(-1.66424 -0.0843674 0)
(-1.58362 -0.0819393 0)
(-1.50968 -0.0778818 0)
(-1.43792 -0.0699339 0)
(-1.3767 -0.0607133 0)
(-1.32641 -0.0497669 0)
(-1.29264 -0.0494724 0)
(-1.27454 -0.0514167 0)
(-1.27547 -0.0525034 0)
(-1.29085 -0.0544275 0)
(-1.32348 -0.0441188 0)
(-1.38924 -0.0324907 0)
(-1.4812 -0.00425578 0)
(-1.61654 0.0370407 0)
(-1.77403 0.0748901 0)
(-1.99118 0.11517 0)
(-2.2226 0.151841 0)
(-2.5287 0.194878 0)
(-2.84187 0.235752 0)
(-3.2407 0.28324 0)
(-3.64007 0.328343 0)
(-4.12955 0.379913 0)
(-4.61341 0.42693 0)
(-5.1876 0.481694 0)
(-5.74923 0.529054 0)
(-6.39787 0.581566 0)
(-7.01448 0.625147 0)
(-7.71493 0.672368 0)
(-8.34733 0.712256 0)
(-9.05993 0.735765 0)
(-9.64298 0.751964 0)
(-10.2898 0.758336 0)
(-10.774 0.733154 0)
(-11.2725 0.703078 0)
(-11.6189 0.64356 0)
(-11.9157 0.531475 0)
(-12.1156 0.415859 0)
(-12.2403 0.268669 0)
(-12.3191 0.154891 0)
(-12.3137 0.0415484 0)
(-12.2679 -0.0586785 0)
(-12.0337 -0.132614 0)
(-11.8808 -0.147234 0)
(-11.3593 -0.341787 0)
(-11.1405 -0.424075 0)
(-10.3704 -0.627812 0)
(-10.0108 -0.669046 0)
(-9.04911 -0.859071 0)
(-8.4988 -0.87021 0)
(-7.43239 -1.04341 0)
(-6.71006 -1.01093 0)
(-5.60946 -1.16525 0)
(-4.76536 -1.09738 0)
(-3.72628 -1.1351 0)
(-2.92972 -0.964656 0)
(-2.00197 -0.995849 0)
(-1.40081 -0.792959 0)
(-0.734583 -0.734499 0)
(-0.368659 -0.561514 0)
(0.408164 -0.502626 0)
(0.586547 -0.337013 0)
(1.69088 -0.423787 0)
(1.72094 -0.318432 0)
(2.82311 -0.3693 0)
(2.81541 -0.264727 0)
(3.82886 -0.312729 0)
(3.79087 -0.256728 0)
(4.69133 -0.230527 0)
(4.64702 -0.227295 0)
(5.41027 -0.163939 0)
(5.36602 -0.177452 0)
(5.9864 -0.104988 0)
(5.96154 -0.131684 0)
(6.42362 -0.0494058 0)
(6.41505 -0.0757796 0)
(6.73285 0.000241892 0)
(6.72768 -0.0173637 0)
(6.92477 0.0313921 0)
(6.92392 0.0382494 0)
(6.99575 0.0674557 0)
(6.99849 0.0740096 0)
(6.98879 0.0857023 0)
(6.98084 0.0968637 0)
(6.88419 0.115339 0)
(6.87892 0.135297 0)
(6.69225 0.136034 0)
(6.68482 0.162181 0)
(6.44104 0.150325 0)
(6.42846 0.179545 0)
(6.14881 0.156864 0)
(6.13515 0.186408 0)
(5.82887 0.162952 0)
(5.81718 0.191185 0)
(5.49951 0.161523 0)
(5.49382 0.17861 0)
(5.17939 0.168785 0)
(5.17451 0.159022 0)
(4.90945 0.136962 0)
(4.89931 0.122991 0)
(4.72825 0.0897135 0)
(4.71039 0.0689478 0)
(4.66856 0.0377442 0)
(4.65886 0.0116003 0)
(4.74699 -0.0317444 0)
(4.74658 -0.0731734 0)
(5.03422 -0.121742 0)
(5.04 -0.161684 0)
(5.52545 -0.204687 0)
(5.53789 -0.231332 0)
(6.16829 -0.264852 0)
(6.19311 -0.314947 0)
(6.90524 -0.293779 0)
(6.93447 -0.359124 0)
(7.71124 -0.334224 0)
(7.74165 -0.359067 0)
(8.55089 -0.338677 0)
(8.5782 -0.329219 0)
(9.36698 -0.339642 0)
(9.37592 -0.305922 0)
(10.1366 -0.313251 0)
(10.1295 -0.296745 0)
(10.8219 -0.264417 0)
(10.8149 -0.263247 0)
(11.3631 -0.186271 0)
(11.3639 -0.197593 0)
(11.7431 -0.109687 0)
(11.7414 -0.12118 0)
(11.9511 -0.0474856 0)
(11.9511 -0.03691 0)
(12.0002 -0.00315532 0)
(11.975 0.0256363 0)
(11.9578 0.0532325 0)
(11.827 0.0743755 0)
(11.8057 0.106531 0)
(11.5453 0.120235 0)
(11.5269 0.16602 0)
(11.1678 0.134742 0)
(11.1461 0.197849 0)
(10.7142 0.153817 0)
(10.6881 0.229241 0)
(10.1978 0.165824 0)
(10.1728 0.244986 0)
(9.63189 0.183348 0)
(9.60845 0.246124 0)
(9.04395 0.184791 0)
(9.0203 0.23793 0)
(8.4436 0.186428 0)
(8.4244 0.234493 0)
(7.82671 0.185707 0)
(7.8129 0.233996 0)
(7.20466 0.185083 0)
(7.18908 0.243294 0)
(6.59631 0.175047 0)
(6.57143 0.237005 0)
(5.99728 0.167411 0)
(5.97067 0.228016 0)
(5.43114 0.144114 0)
(5.41448 0.200148 0)
(4.89075 0.155642 0)
(4.89794 0.190804 0)
(4.38348 0.11181 0)
(4.37737 0.117523 0)
(4.06075 0.166366 0)
(3.88406 0.0974602 0)
(3.79935 0.157191 0)
(3.46269 0.0965135 0)
(3.45757 0.0964859 0)
(3.17581 0.0683758 0)
(3.18235 0.0859262 0)
(2.95169 0.0530993 0)
(2.95784 0.0612054 0)
(2.80634 0.0311827 0)
(2.79314 0.0134099 0)
(2.75418 0.0253272 0)
(2.70437 0.00684367 0)
(2.69639 -0.00133408 0)
(2.68409 -0.0126134 0)
(2.69739 -0.0152386 0)
(2.69699 -0.0181418 0)
(2.72918 -0.0224023 0)
(2.72871 -0.0222544 0)
(2.76803 -0.0210012 0)
(2.76827 -0.0166084 0)
(2.78861 -0.00636652 0)
(2.77147 0.00897734 0)
(2.7712 0.0192134 0)
(2.68523 0.0378293 0)
(2.68063 0.0675297 0)
(2.49307 0.0720892 0)
(2.48482 0.113254 0)
(2.21353 0.0926544 0)
(2.20367 0.142404 0)
(1.88116 0.104608 0)
(1.87441 0.151391 0)
(1.52673 0.116143 0)
(1.51859 0.16287 0)
(1.16992 0.108306 0)
(1.15631 0.165494 0)
(0.828996 0.111037 0)
(0.81452 0.162976 0)
(0.505334 0.11213 0)
(0.486098 0.155755 0)
(0.213937 0.153933 0)
(0.163047 0.189538 0)
(-0.0270626 0.21284 0)
(-0.0988096 0.21049 0)
(-0.244006 0.18767 0)
(-0.310389 0.156828 0)
(-0.389987 0.122953 0)
(-0.431087 0.0876691 0)
(-0.454943 0.052002 0)
(-0.440293 0.0154426 0)
(-0.425325 -0.0150381 0)
(-0.326105 -0.0603592 0)
(-0.299678 -0.0872097 0)
(-0.107122 -0.127392 0)
(-0.0771743 -0.141123 0)
(0.19865 -0.146642 0)
(0.221033 -0.127689 0)
(0.599906 -0.13984 0)
(0.620275 -0.114582 0)
(1.13439 -0.141753 0)
(1.14854 -0.135924 0)
(1.69648 -0.143856 0)
(1.6966 -0.146511 0)
(2.29267 -0.151368 0)
(2.25971 -0.138525 0)
(2.86983 -0.15049 0)
(2.83987 -0.13546 0)
(3.38645 -0.117325 0)
(3.37714 -0.0991424 0)
(3.851 -0.094046 0)
(3.86 -0.0798378 0)
(4.2705 -0.0657937 0)
(4.28209 -0.0655186 0)
(4.63398 -0.0321319 0)
(4.63485 -0.0360602 0)
(4.94175 -0.00364792 0)
(4.92538 -0.00837528 0)
(5.18895 0.0166162 0)
(5.17542 0.0145457 0)
(5.37894 0.0344036 0)
(5.37143 0.0384594 0)
(5.54174 0.0513377 0)
(5.53614 0.0504914 0)
(5.67145 0.0678014 0)
(5.67187 0.0644506 0)
(5.77253 0.0797525 0)
(5.77199 0.0754221 0)
(5.85556 0.0858625 0)
(5.85264 0.0829107 0)
(5.93043 0.0910078 0)
(5.92649 0.0875673 0)
(6.0035 0.0946129 0)
(5.99962 0.0900242 0)
(6.07659 0.09697 0)
(6.07308 0.0927307 0)
(6.15094 0.0993983 0)
(6.14968 0.0926469 0)
(6.22978 0.0998098 0)
(6.22805 0.0918553 0)
(6.31536 0.100303 0)
(6.31524 0.0908389 0)
(6.4087 0.100956 0)
(6.40878 0.0901447 0)
(6.50811 0.100665 0)
(6.50843 0.0890717 0)
(6.61243 0.100411 0)
(6.61348 0.0876935 0)
(6.71896 0.100509 0)
(6.72109 0.0869404 0)
(6.8281 0.100369 0)
(6.8299 0.0859923 0)
(6.93805 0.0997458 0)
(6.94017 0.0850609 0)
(7.05031 0.0991353 0)
(7.0531 0.0833349 0)
(7.16466 0.0983185 0)
(7.16829 0.0816548 0)
(7.28127 0.0970348 0)
(7.28564 0.0796763 0)
(7.39993 0.0959247 0)
(7.40487 0.0780709 0)
(7.51978 0.095276 0)
(7.52517 0.0767364 0)
(7.64036 0.0943596 0)
(7.64602 0.0753097 0)
(7.76163 0.0930206 0)
(7.76755 0.0735638 0)
(7.88372 0.0915134 0)
(7.88987 0.0717676 0)
(8.00642 0.090063 0)
(8.01276 0.0700624 0)
(8.12954 0.0885939 0)
(8.13606 0.0682753 0)
(8.25307 0.0869333 0)
(8.25974 0.0662728 0)
(8.37715 0.0848676 0)
(8.38399 0.0640099 0)
(8.50156 0.0829709 0)
(8.5084 0.0619891 0)
(8.62576 0.0815416 0)
(8.63178 0.0613737 0)
(8.75175 0.0775055 0)
(8.75792 0.0575964 0)
(8.87586 0.0780961 0)
(8.88212 0.0571001 0)
(9.00133 0.0733631 0)
(9.00714 0.0535566 0)
(9.12788 0.0714725 0)
(9.13424 0.0512084 0)
(9.25358 0.0695508 0)
(9.25954 0.0522784 0)
(9.37741 0.0675004 0)
(9.3832 0.0492066 0)
(9.50227 0.0654125 0)
(9.50969 0.0467631 0)
(9.62262 0.0651323 0)
(9.62919 0.0505839 0)
(9.73846 0.0640161 0)
(9.74389 0.0485377 0)
(9.8529 0.0628973 0)
(9.85949 0.0455048 0)
(9.96443 0.0624648 0)
(9.9699 0.0471659 0)
(10.0743 0.059667 0)
(10.0782 0.0433152 0)
(10.1819 0.0585256 0)
(10.1881 0.04129 0)
(10.2881 0.0589049 0)
(10.2941 0.0421648 0)
(10.3929 0.0557112 0)
(10.3981 0.0413058 0)
(10.4967 0.0556202 0)
(10.502 0.0402251 0)
(10.5994 0.0550615 0)
(10.6041 0.0397067 0)
(10.6989 0.0540754 0)
(10.7042 0.0391608 0)
(10.7986 0.0525334 0)
(10.8037 0.0379313 0)
(10.8968 0.051733 0)
(10.9019 0.0368696 0)
(10.993 0.051327 0)
(10.9977 0.0366092 0)
(11.0878 0.0498927 0)
(11.0927 0.0356658 0)
(11.1817 0.0488836 0)
(11.1868 0.0344516 0)
(11.2748 0.0482321 0)
(11.2798 0.0343735 0)
(11.3664 0.0459085 0)
(11.3706 0.0340805 0)
(11.4556 0.0444835 0)
(11.46 0.0317325 0)
(11.5433 0.0444537 0)
(11.548 0.0319109 0)
(11.6294 0.0422388 0)
(11.633 0.0319666 0)
(11.7142 0.0410905 0)
(11.7168 0.0295135 0)
(11.7966 0.0420436 0)
(11.7984 0.0307052 0)
(11.878 0.0390713 0)
(11.8791 0.0293639 0)
(11.9563 0.0391239 0)
(11.9584 0.0281672 0)
(12.0337 0.0375573 0)
(12.0349 0.0287613 0)
(12.1085 0.036777 0)
(12.1102 0.026964 0)
(12.1811 0.0370519 0)
(12.1824 0.0282461 0)
(12.2527 0.0352516 0)
(12.253 0.0280298 0)
(12.3199 0.0348905 0)
(12.3213 0.0253477 0)
(12.3853 0.0342005 0)
(12.3864 0.0265837 0)
(12.4495 0.032999 0)
(12.4501 0.0257545 0)
(12.5104 0.0320352 0)
(12.5119 0.0231921 0)
(12.5693 0.0314243 0)
(12.5703 0.0239821 0)
(12.627 0.0293262 0)
(12.6282 0.0227358 0)
(12.6821 0.0283162 0)
(12.6833 0.0204484 0)
(12.7357 0.0264791 0)
(12.7364 0.0200629 0)
(12.7864 0.0259258 0)
(12.7874 0.0192 0)
(12.8346 0.0245756 0)
(12.8354 0.0189163 0)
(12.8787 0.0243588 0)
(12.8794 0.0192066 0)
(12.9173 0.0254247 0)
(12.9183 0.0201308 0)
(12.9513 0.0250218 0)
(12.9517 0.0216238 0)
(12.9784 0.0255817 0)
(12.9793 0.0217051 0)
(13 0.0259417 0)
(13.0013 0.021616 0)
(13.0189 0.0247604 0)
(13.02 0.0208525 0)
(13.0364 0.0231846 0)
(13.0376 0.0191795 0)
(13.0535 0.0213666 0)
(13.0546 0.0174118 0)
(13.0717 0.0187412 0)
(13.0728 0.0148198 0)
(13.0913 0.0164347 0)
(13.0926 0.0123484 0)
(13.1128 0.0144222 0)
(13.114 0.0105184 0)
(13.1354 0.0128313 0)
(13.1363 0.00935004 0)
(13.1576 0.0119503 0)
(13.1585 0.00879705 0)
(13.1776 0.0122117 0)
(13.1784 0.00911984 0)
(13.1955 0.0117984 0)
(13.1961 0.00950657 0)
(13.2105 0.0119708 0)
(13.2116 0.00979276 0)
(13.2214 0.012319 0)
(13.2255 0.0104212 0)
(13.2274 0.0112851 0)
(13.2361 0.0107693 0)
(13.236 0.0111947 0)
(13.243 0.0107163 0)
(13.2427 0.0105625 0)
(13.2485 0.0104538 0)
(13.2493 0.00996336 0)
(13.2505 0.0102639 0)
(13.2543 0.0103411 0)
(13.2545 0.0102349 0)
(13.2554 0.0102615 0)
(13.2559 0.0105281 0)
(13.2559 0.0108336 0)
(13.2552 0.0111845 0)
(13.2539 0.0114702 0)
(13.252 0.0117197 0)
(13.2502 0.0119042 0)
(13.2461 0.0112095 0)
(13.2456 0.0119448 0)
(13.2388 0.010734 0)
(13.2387 0.0111264 0)
(13.2317 0.0108207 0)
(13.2306 0.0112843 0)
(13.2249 0.0121347 0)
(-0.0015632 0.0105517 0)
(-0.0288315 0.0591714 0)
(-0.0992381 0.113611 0)
(-0.217975 0.188493 0)
(-0.361391 0.223447 0)
(-0.554566 0.272182 0)
(-0.729385 0.282445 0)
(-0.969893 0.309505 0)
(-1.14258 0.308315 0)
(-1.40933 0.328073 0)
(-1.56173 0.317915 0)
(-1.83795 0.329315 0)
(-1.96052 0.311552 0)
(-2.2271 0.310836 0)
(-2.32159 0.287828 0)
(-2.55692 0.274312 0)
(-2.63127 0.25171 0)
(-2.81983 0.229185 0)
(-2.8845 0.209162 0)
(-3.01958 0.180751 0)
(-3.08136 0.160432 0)
(-3.16752 0.129346 0)
(-3.21745 0.101629 0)
(-3.25868 0.0634572 0)
(-3.28468 0.0277543 0)
(-3.29777 -0.00606387 0)
(-3.30345 -0.0362791 0)
(-3.29913 -0.0606802 0)
(-3.28193 -0.0828565 0)
(-3.26315 -0.101516 0)
(-3.22562 -0.11705 0)
(-3.19441 -0.12461 0)
(-3.13844 -0.130521 0)
(-3.0916 -0.132369 0)
(-3.02668 -0.139121 0)
(-2.96234 -0.143585 0)
(-2.89371 -0.154755 0)
(-2.81595 -0.165136 0)
(-2.74198 -0.176632 0)
(-2.65614 -0.188459 0)
(-2.57421 -0.198651 0)
(-2.4805 -0.207786 0)
(-2.38979 -0.215894 0)
(-2.28877 -0.221206 0)
(-2.19095 -0.226677 0)
(-2.08729 -0.227762 0)
(-1.98747 -0.230036 0)
(-1.88598 -0.228971 0)
(-1.78921 -0.225272 0)
(-1.6952 -0.215556 0)
(-1.60884 -0.200204 0)
(-1.53028 -0.17732 0)
(-1.46799 -0.145881 0)
(-1.42347 -0.113345 0)
(-1.39826 -0.0889032 0)
(-1.40727 -0.0673615 0)
(-1.45224 -0.0488504 0)
(-1.5282 -0.00107958 0)
(-1.64096 0.0569139 0)
(-1.79711 0.127534 0)
(-1.98538 0.203616 0)
(-2.225 0.288312 0)
(-2.49552 0.369572 0)
(-2.82938 0.4601 0)
(-3.19022 0.546857 0)
(-3.62175 0.643216 0)
(-4.07337 0.733526 0)
(-4.59412 0.830345 0)
(-5.126 0.918554 0)
(-5.71886 1.01297 0)
(-6.31355 1.09956 0)
(-6.95858 1.18801 0)
(-7.59232 1.26307 0)
(-8.25578 1.33079 0)
(-8.88287 1.38646 0)
(-9.525 1.42673 0)
(-10.0924 1.4318 0)
(-10.6554 1.40252 0)
(-11.1043 1.38069 0)
(-11.5357 1.25397 0)
(-11.846 1.18403 0)
(-12.1071 0.997084 0)
(-12.2663 0.832298 0)
(-12.3834 0.622231 0)
(-12.4311 0.417547 0)
(-12.4857 0.210871 0)
(-12.4459 0.0286026 0)
(-12.3758 -0.216235 0)
(-12.3057 -0.39776 0)
(-11.831 -0.795312 0)
(-11.657 -0.802054 0)
(-10.7602 -1.36378 0)
(-10.5299 -1.25048 0)
(-9.35273 -1.79647 0)
(-9.07132 -1.64009 0)
(-7.69059 -2.09217 0)
(-7.32804 -1.92315 0)
(-5.8335 -2.25084 0)
(-5.36535 -2.08261 0)
(-3.93392 -2.22443 0)
(-3.40283 -2.00583 0)
(-2.21592 -1.8906 0)
(-1.78496 -1.65017 0)
(-0.666626 -1.59305 0)
(-0.336495 -1.37164 0)
(0.894717 -1.26663 0)
(1.05005 -1.05095 0)
(2.59952 -1.17724 0)
(2.66527 -1.00511 0)
(4.27163 -1.09978 0)
(4.28816 -0.933496 0)
(5.72337 -0.938934 0)
(5.71638 -0.811252 0)
(7.01511 -0.791 0)
(6.97793 -0.703192 0)
(8.08003 -0.598308 0)
(8.0232 -0.575817 0)
(8.96446 -0.467065 0)
(8.91532 -0.444516 0)
(9.65287 -0.311758 0)
(9.62399 -0.321157 0)
(10.1659 -0.179311 0)
(10.1582 -0.1904 0)
(10.5109 -0.0700132 0)
(10.5147 -0.06059 0)
(10.6991 0.0287574 0)
(10.7166 0.0573913 0)
(10.7624 0.109619 0)
(10.7661 0.144404 0)
(10.7111 0.193341 0)
(10.6998 0.229211 0)
(10.5306 0.268956 0)
(10.5227 0.310215 0)
(10.2473 0.320948 0)
(10.237 0.365978 0)
(9.88958 0.355373 0)
(9.87128 0.394413 0)
(9.48583 0.376725 0)
(9.46658 0.412768 0)
(9.05697 0.377617 0)
(9.04607 0.405303 0)
(8.62579 0.370547 0)
(8.62404 0.369154 0)
(8.25188 0.337751 0)
(8.24249 0.312628 0)
(7.97177 0.25142 0)
(7.95585 0.212529 0)
(7.8481 0.127711 0)
(7.83193 0.0690352 0)
(7.88477 -0.0254515 0)
(7.88989 -0.0993764 0)
(8.16547 -0.229788 0)
(8.16408 -0.30668 0)
(8.71036 -0.450473 0)
(8.72626 -0.513078 0)
(9.47957 -0.628649 0)
(9.50941 -0.696392 0)
(10.3711 -0.710217 0)
(10.4142 -0.814783 0)
(11.3253 -0.764117 0)
(11.3752 -0.865691 0)
(12.3775 -0.861718 0)
(12.406 -0.855579 0)
(13.4183 -0.840018 0)
(13.4294 -0.823822 0)
(14.4183 -0.792721 0)
(14.4151 -0.757102 0)
(15.3376 -0.730788 0)
(15.3465 -0.687195 0)
(16.1217 -0.592996 0)
(16.1308 -0.555527 0)
(16.7706 -0.425823 0)
(16.7623 -0.396095 0)
(17.2011 -0.238844 0)
(17.2045 -0.217257 0)
(17.4149 -0.098453 0)
(17.4455 -0.0504408 0)
(17.4883 0.0257463 0)
(17.4704 0.0952784 0)
(17.4525 0.148943 0)
(17.2956 0.214342 0)
(17.2746 0.272107 0)
(16.9657 0.304494 0)
(16.9435 0.380483 0)
(16.5229 0.372604 0)
(16.4899 0.4719 0)
(15.9714 0.424639 0)
(15.9315 0.536607 0)
(15.3343 0.46307 0)
(15.2935 0.577227 0)
(14.615 0.497984 0)
(14.5821 0.589404 0)
(13.8506 0.520781 0)
(13.8125 0.600643 0)
(13.0329 0.5451 0)
(13.0073 0.60937 0)
(12.1666 0.563711 0)
(12.1532 0.616066 0)
(11.2876 0.571198 0)
(11.263 0.619289 0)
(10.426 0.541709 0)
(10.3882 0.603211 0)
(9.56178 0.513497 0)
(9.52808 0.571317 0)
(8.75464 0.479242 0)
(8.73245 0.538563 0)
(7.97273 0.437605 0)
(7.98338 0.463014 0)
(7.27661 0.407587 0)
(7.15151 0.329714 0)
(6.91851 0.428059 0)
(6.44002 0.325252 0)
(6.42313 0.34382 0)
(5.93119 0.25399 0)
(5.92596 0.281651 0)
(5.53058 0.20319 0)
(5.54076 0.219671 0)
(5.22053 0.141388 0)
(5.22026 0.118839 0)
(5.07894 0.0905548 0)
(5.0117 0.0530876 0)
(4.99258 0.0500714 0)
(4.91304 0.0168311 0)
(4.92576 -0.00705292 0)
(4.90441 -0.0237638 0)
(4.9345 -0.0314219 0)
(4.9292 -0.0442123 0)
(4.968 -0.0374205 0)
(4.96664 -0.0381826 0)
(5.00844 -0.024693 0)
(5.00211 -0.0013275 0)
(5.0097 0.0293338 0)
(4.94264 0.0800032 0)
(4.93541 0.127784 0)
(4.73924 0.187142 0)
(4.73062 0.252146 0)
(4.38866 0.277768 0)
(4.37737 0.354049 0)
(3.91467 0.334595 0)
(3.90607 0.402624 0)
(3.36646 0.362549 0)
(3.35955 0.433758 0)
(2.78251 0.375649 0)
(2.77118 0.453192 0)
(2.20522 0.371667 0)
(2.19154 0.44641 0)
(1.6445 0.358421 0)
(1.63204 0.417952 0)
(1.13119 0.352172 0)
(1.11328 0.410694 0)
(0.721271 0.367467 0)
(0.709722 0.39647 0)
(0.435646 0.362042 0)
(0.416642 0.33466 0)
(0.27548 0.266965 0)
(0.241424 0.213027 0)
(0.199794 0.143876 0)
(0.209591 0.0738081 0)
(0.215767 0.0121061 0)
(0.353595 -0.0745019 0)
(0.357682 -0.119572 0)
(0.64407 -0.215309 0)
(0.649608 -0.245986 0)
(1.08182 -0.320047 0)
(1.08801 -0.32903 0)
(1.69963 -0.393243 0)
(1.73434 -0.393408 0)
(2.52872 -0.464943 0)
(2.56258 -0.438902 0)
(3.42377 -0.494725 0)
(3.43054 -0.481728 0)
(4.33922 -0.49749 0)
(4.30647 -0.476939 0)
(5.22593 -0.480827 0)
(5.17766 -0.458199 0)
(6.0333 -0.430022 0)
(5.99679 -0.392097 0)
(6.77145 -0.362474 0)
(6.75687 -0.337647 0)
(7.42129 -0.298721 0)
(7.43255 -0.277921 0)
(7.99353 -0.229515 0)
(8.00053 -0.218919 0)
(8.49883 -0.150646 0)
(8.47193 -0.147155 0)
(8.91424 -0.0893341 0)
(8.89194 -0.0895596 0)
(9.2291 -0.0329641 0)
(9.23035 -0.0303526 0)
(9.5028 0.00852951 0)
(9.49871 0.0105842 0)
(9.73073 0.0503733 0)
(9.72482 0.0486517 0)
(9.90173 0.0844149 0)
(9.90532 0.0830776 0)
(10.0433 0.107353 0)
(10.0417 0.103076 0)
(10.1629 0.122608 0)
(10.1596 0.116395 0)
(10.272 0.13086 0)
(10.2656 0.12485 0)
(10.3763 0.13427 0)
(10.3693 0.130686 0)
(10.48 0.137217 0)
(10.4745 0.132633 0)
(10.5819 0.137096 0)
(10.5796 0.131888 0)
(10.6974 0.135208 0)
(10.6946 0.12841 0)
(10.8164 0.133007 0)
(10.815 0.123367 0)
(10.9454 0.131283 0)
(10.944 0.119952 0)