/*--------------------------------*- C++ -*----------------------------------*\
| =========                 |                                                 |
| \\      /  F ield         | OpenFOAM: The Open Source CFD Toolbox           |
|  \\    /   O peration     | Version:  v1812                                 |
|   \\  /    A nd           | Web:      www.OpenFOAM.com                      |
|    \\/     M anipulation  |                                                 |
\*---------------------------------------------------------------------------*/
FoamFile
{
    version     2.0;
    format      ascii;
    class       surfaceScalarField;
    location    "0.0015";
    object      phi;
}
// * * * * * * * * * * * * * * * * * * * * * * * * * * * * * * * * * * * * * //

dimensions      [1 0 -1 0 0 0 0];
oriented        oriented;


internalField   nonuniform List<scalar> 
16762
(
0.0423011
-1.92231e-19
0.0423011
-3.6926e-17
0.0423011
-7.50579e-17
0.0423011
-2.9008e-17
0.0423011
-5.66566e-17
0.0423011
-2.74098e-17
0.0423011
-3.05167e-17
0.0423011
-3.32834e-17
0.0423011
-1.68084e-17
0.0423011
-2.70947e-17
0.0423011
-1.92793e-17
0.0423011
-3.57902e-17
0.0423011
-1.70979e-17
0.0423011
-1.78876e-17
0.0423011
1.46246e-17
0.0423011
4.62908e-18
0.0423011
-3.39703e-18
0.0423011
4.51978e-17
0.0423011
6.36822e-17
0.0423011
8.33809e-17
0.0423011
7.76283e-17
0.0423011
7.02219e-17
0.0423011
6.96891e-17
0.0423011
4.67388e-17
0.0423011
5.71376e-17
0.0423011
4.35792e-17
0.0423011
7.55084e-17
0.0423011
4.41806e-17
0.0423011
6.60598e-17
0.0423011
7.85642e-17
0.0423011
6.81059e-17
0.0423011
3.9999e-16
0.0423011
1.01407e-14
0.0423011
1.17101e-12
0.0423011
4.68334e-11
0.0423011
5.56297e-09
0.0423009
2.2991e-07
2.87436e-05
0.0422725
0.0423011
1.94915e-17
0.0423011
-1.12342e-17
0.0423011
4.56685e-18
0.0423011
-8.52918e-18
0.0423011
9.14096e-18
0.0423011
-2.13531e-17
0.0423011
-6.13441e-17
0.0423011
-3.54882e-17
0.0423011
-3.99088e-17
0.0423011
-4.02584e-17
0.0423011
-4.78947e-17
0.0423011
-4.81514e-18
0.0423011
-2.09183e-17
0.0423011
-2.09052e-17
0.0423011
-1.34107e-17
0.0423011
1.1896e-17
0.0423011
8.67218e-18
0.0423011
3.63161e-17
0.0423011
2.03989e-17
0.0423011
5.838e-17
0.0423011
5.53185e-17
0.0423011
6.53074e-17
0.0423011
4.34945e-17
0.0423011
4.7535e-17
0.0423011
5.77922e-17
0.0423011
5.59604e-17
0.0423011
7.72303e-17
0.0423011
8.94119e-17
0.0423011
7.75338e-17
0.0423011
7.92779e-17
0.0423011
6.73199e-17
0.0423011
2.54449e-16
0.0423011
4.54386e-15
0.0423011
6.61266e-13
0.0423011
1.41045e-11
0.0423011
1.87863e-09
0.0423013
3.49159e-08
3.81972e-06
0.042326
0.0423011
5.75997e-19
0.0423011
1.46922e-18
0.0423011
1.44338e-17
0.0423011
-8.54679e-20
0.0423011
-2.25328e-17
0.0423011
-5.54449e-17
0.0423011
-2.53565e-17
0.0423011
-4.13288e-17
0.0423011
-4.33716e-17
0.0423011
-2.50301e-17
0.0423011
-2.70038e-18
0.0423011
-2.77659e-17
0.0423011
-2.71482e-17
0.0423011
-1.27481e-17
0.0423011
-1.15695e-17
0.0423011
-1.26204e-17
0.0423011
1.64835e-18
0.0423011
4.77834e-19
0.0423011
5.60796e-18
0.0423011
4.99343e-18
0.0423011
1.04646e-17
0.0423011
1.7938e-17
0.0423011
4.15047e-17
0.0423011
2.72108e-17
0.0423011
3.40344e-17
0.0423011
5.28573e-17
0.0423011
5.43204e-17
0.0423011
5.66371e-17
0.0423011
7.27749e-17
0.0423011
4.44023e-17
0.0423011
7.1387e-17
0.0423011
1.05594e-16
0.0423011
4.60231e-16
0.0423011
1.33453e-13
0.0423011
9.75161e-13
0.0423011
2.44993e-10
0.0423012
1.4492e-09
3.60388e-07
0.0423046
0.0423011
-3.52736e-18
0.0423011
1.902e-17
0.0423011
1.16129e-18
0.0423011
-2.67714e-17
0.0423011
-3.2184e-17
0.0423011
-2.73872e-17
0.0423011
-9.97267e-18
0.0423011
1.30899e-17
0.0423011
-9.16653e-18
0.0423011
-1.79047e-17
0.0423011
-4.79826e-17
0.0423011
-4.07158e-17
0.0423011
-3.37751e-17
0.0423011
-2.2072e-17
0.0423011
-8.42326e-18
0.0423011
2.23505e-18
0.0423011
-4.89258e-18
0.0423011
-8.84601e-18
0.0423011
-1.07903e-17
0.0423011
-9.596e-20
0.0423011
1.01194e-17
0.0423011
1.89988e-17
0.0423011
5.60969e-18
0.0423011
2.97967e-17
0.0423011
3.34242e-17
0.0423011
3.86339e-17
0.0423011
4.89796e-17
0.0423011
4.89002e-17
0.0423011
5.20988e-17
0.0423011
7.50221e-17
0.0423011
7.27664e-17
0.0423011
6.14854e-17
0.0423011
2.18547e-17
0.0423011
1.21151e-14
0.0423011
2.13783e-14
0.0423011
1.59002e-11
0.0423011
3.41001e-11
2.04888e-08
0.0423015
0.0423011
4.73357e-18
0.0423011
-1.44719e-17
0.0423011
-7.51942e-18
0.0423011
-4.13955e-18
0.0423011
-1.83512e-17
0.0423011
-7.35877e-19
0.0423011
1.17655e-18
0.0423011
-9.19217e-18
0.0423011
-9.87153e-18
0.0423011
-1.60144e-17
0.0423011
-1.83421e-17
0.0423011
-1.49703e-17
0.0423011
-1.5291e-17
0.0423011
-3.43151e-17
0.0423011
-2.6577e-17
0.0423011
-1.87759e-17
0.0423011
4.25648e-18
0.0423011
-1.78577e-17
0.0423011
-1.34484e-17
0.0423011
-1.07495e-17
0.0423011
-4.57726e-18
0.0423011
-1.03246e-17
0.0423011
1.19121e-17
0.0423011
8.10038e-18
0.0423011
1.46559e-17
0.0423011
2.20738e-17
0.0423011
3.61858e-17
0.0423011
3.94587e-17
0.0423011
5.62807e-17
0.0423011
6.13169e-17
0.0423011
5.4551e-17
0.0423011
3.35931e-17
0.0423011
2.75889e-17
0.0423011
5.77654e-16
0.0423011
4.83841e-17
0.0423011
6.3054e-13
0.0423011
7.8799e-13
8.20756e-10
0.0423011
0.0423011
3.15068e-18
0.0423011
-8.60643e-18
0.0423011
-2.70381e-17
0.0423011
3.96708e-18
0.0423011
2.83243e-17
0.0423011
1.13398e-17
0.0423011
-4.8428e-18
0.0423011
2.69816e-18
0.0423011
1.92721e-17
0.0423011
5.2962e-18
0.0423011
2.08335e-17
0.0423011
-1.45357e-17
0.0423011
8.39572e-18
0.0423011
7.80161e-18
0.0423011
-1.20809e-17
0.0423011
-6.88682e-18
0.0423011
-1.85795e-17
0.0423011
-6.08157e-18
0.0423011
-7.74216e-18
0.0423011
-1.3917e-17
0.0423011
-1.25598e-17
0.0423011
-2.46944e-17
0.0423011
1.6932e-18
0.0423011
3.61418e-18
0.0423011
2.34401e-17
0.0423011
2.95421e-17
0.0423011
1.04133e-17
0.0423011
2.75094e-17
0.0423011
2.94174e-17
0.0423011
4.04621e-17
0.0423011
2.69389e-17
0.0423011
2.84397e-17
0.0423011
3.398e-17
0.0423011
4.9598e-17
0.0423011
-1.73141e-17
0.0423011
1.73369e-14
0.0423011
2.39641e-14
2.49031e-11
0.0423011
0.0423011
-3.51033e-19
0.0423011
1.89863e-17
0.0423011
4.7212e-18
0.0423011
-1.14907e-17
0.0423011
8.68203e-18
0.0423011
1.56598e-17
0.0423011
2.91487e-17
0.0423011
1.29675e-17
0.0423011
1.51558e-18
0.0423011
5.00785e-18
0.0423011
-3.1575e-18
0.0423011
1.58272e-17
0.0423011
3.10348e-17
0.0423011
2.6028e-17
0.0423011
3.36237e-17
0.0423011
9.95709e-18
0.0423011
7.45372e-18
0.0423011
5.47301e-18
0.0423011
-1.41465e-17
0.0423011
-1.37451e-17
0.0423011
-1.28621e-17
0.0423011
-1.8965e-17
0.0423011
-1.20872e-17
0.0423011
2.47161e-17
0.0423011
-9.0838e-18
0.0423011
-1.53271e-17
0.0423011
-5.68009e-19
0.0423011
4.37868e-18
0.0423011
2.32998e-17
0.0423011
-5.97414e-18
0.0423011
2.53512e-17
0.0423011
3.40637e-17
0.0423011
4.25752e-17
0.0423011
2.76657e-17
0.0423011
4.85298e-18
0.0423011
2.98536e-16
0.0423011
5.10682e-16
6.09137e-13
0.0423011
0.0423011
-9.43814e-18
0.0423011
-1.98426e-17
0.0423011
-9.03899e-18
0.0423011
4.84981e-18
0.0423011
1.20354e-17
0.0423011
1.03309e-17
0.0423011
1.10874e-18
0.0423011
9.21201e-18
0.0423011
-4.79296e-19
0.0423011
-9.01544e-19
0.0423011
1.54e-17
0.0423011
2.38109e-17
0.0423011
-5.10254e-18
0.0423011
-4.3468e-18
0.0423011
-1.77801e-18
0.0423011
-2.44722e-17
0.0423011
-1.03443e-17
0.0423011
1.37397e-17
0.0423011
-1.56249e-18
0.0423011
-2.11812e-17
0.0423011
-8.23851e-18
0.0423011
-5.86772e-18
0.0423011
2.20296e-18
0.0423011
-1.507e-17
0.0423011
-9.83359e-18
0.0423011
-6.40226e-18
0.0423011
-1.8721e-18
0.0423011
-2.17085e-17
0.0423011
-2.63617e-17
0.0423011
-7.05418e-18
0.0423011
9.50175e-19
0.0423011
1.03553e-17
0.0423011
1.11286e-17
0.0423011
4.18632e-17
0.0423011
2.27585e-17
0.0423011
-1.47913e-18
0.0423011
-1.87548e-17
1.29436e-14
0.0423011
0.0423011
-3.01861e-18
0.0423011
9.21998e-18
0.0423011
2.51009e-18
0.0423011
-9.73328e-20
0.0423011
7.22747e-18
0.0423011
-5.6435e-18
0.0423011
-7.22016e-19
0.0423011
-6.41564e-20
0.0423011
2.32364e-17
0.0423011
2.59448e-17
0.0423011
2.41215e-17
0.0423011
1.24391e-18
0.0423011
1.32152e-18
0.0423011
-1.81458e-17
0.0423011
-1.38562e-17
0.0423011
-3.35475e-18
0.0423011
-7.09358e-18
0.0423011
8.05467e-19
0.0423011
1.11028e-18
0.0423011
1.76845e-17
0.0423011
1.92763e-18
0.0423011
2.54606e-17
0.0423011
7.86657e-18
0.0423011
-9.23163e-18
0.0423011
-1.2107e-20
0.0423011
-1.01573e-17
0.0423011
3.42894e-18
0.0423011
8.26472e-18
0.0423011
-1.45944e-17
0.0423011
-1.96418e-17
0.0423011
-2.13255e-17
0.0423011
-1.23441e-17
0.0423011
-7.09172e-18
0.0423011
-2.36017e-17
0.0423011
-1.43325e-17
0.0423011
-7.10812e-18
0.0423011
-2.52095e-17
2.12118e-16
0.0423011
0.0423011
1.54006e-18
0.0423011
-8.97922e-18
0.0423011
-8.08962e-18
0.0423011
-1.4203e-17
0.0423011
-1.69585e-17
0.0423011
-2.69599e-18
0.0423011
-9.1476e-18
0.0423011
8.38722e-18
0.0423011
4.35297e-17
0.0423011
-3.63011e-18
0.0423011
7.88522e-18
0.0423011
1.29617e-17
0.0423011
7.52042e-18
0.0423011
1.94591e-17
0.0423011
-1.08301e-17
0.0423011
-3.38178e-17
0.0423011
-1.23087e-17
0.0423011
-2.63045e-18
0.0423011
2.55694e-17
0.0423011
2.12488e-17
0.0423011
9.15319e-18
0.0423011
7.92143e-18
0.0423011
-1.05461e-17
0.0423011
-1.80661e-18
0.0423011
-7.55317e-18
0.0423011
2.17533e-18
0.0423011
-3.7394e-17
0.0423011
-4.44457e-17
0.0423011
-4.74892e-17
0.0423011
-2.87136e-17
0.0423011
-4.20227e-17
0.0423011
-2.26674e-17
0.0423011
-2.84357e-17
0.0423011
-7.83786e-18
0.0423011
-2.95e-18
0.0423011
-1.62325e-18
0.0423011
-1.67214e-17
-5.03813e-18
0.0423011
0.0423011
2.59623e-19
0.0423011
-1.91956e-18
0.0423011
8.50427e-18
0.0423011
-6.51403e-18
0.0423011
-1.27362e-17
0.0423011
-6.49105e-18
0.0423011
5.28096e-18
0.0423011
-1.13216e-17
0.0423011
-3.62221e-19
0.0423011
4.50226e-18
0.0423011
-5.68209e-18
0.0423011
-3.73556e-17
0.0423011
5.86047e-18
0.0423011
2.19107e-17
0.0423011
1.8378e-18
0.0423011
-3.97763e-18
0.0423011
-2.9431e-18
0.0423011
-1.14264e-17
0.0423011
-1.04766e-17
0.0423011
-1.60807e-18
0.0423011
7.91932e-18
0.0423011
6.49349e-18
0.0423011
1.57009e-17
0.0423011
3.04984e-17
0.0423011
-5.72715e-19
0.0423011
-1.66729e-17
0.0423011
-1.17696e-17
0.0423011
-7.33608e-18
0.0423011
-2.36416e-17
0.0423011
-2.60669e-17
0.0423011
-1.27332e-17
0.0423011
-4.42976e-17
0.0423011
-1.84618e-17
0.0423011
-1.40722e-17
0.0423011
-3.50755e-17
0.0423011
-6.97758e-18
0.0423011
3.72287e-19
-1.3898e-17
0.0423011
0.0423011
8.60333e-18
0.0423011
-6.4271e-18
0.0423011
-7.03485e-18
0.0423011
-1.01007e-18
0.0423011
2.13442e-18
0.0423011
-8.9924e-18
0.0423011
-1.44868e-17
0.0423011
2.12733e-17
0.0423011
1.19615e-18
0.0423011
2.24448e-18
0.0423011
-1.94817e-17
0.0423011
4.57923e-18
0.0423011
-8.79104e-18
0.0423011
-3.31987e-17
0.0423011
1.90537e-17
0.0423011
-5.27001e-18
0.0423011
-9.06902e-18
0.0423011
-5.50013e-18
0.0423011
1.60177e-17
0.0423011
8.26064e-18
0.0423011
1.9135e-17
0.0423011
1.19385e-17
0.0423011
1.32687e-18
0.0423011
-8.47979e-18
0.0423011
-7.96652e-20
0.0423011
-2.41917e-17
0.0423011
-3.37308e-17
0.0423011
-3.66282e-17
0.0423011
-1.02811e-17
0.0423011
-2.28565e-17
0.0423011
-2.27284e-17
0.0423011
-5.6045e-18
0.0423011
-4.87412e-18
0.0423011
-1.8888e-17
0.0423011
-1.45558e-17
0.0423011
-1.6329e-17
0.0423011
3.3978e-18
2.99323e-17
0.0423011
0.0423011
-1.19441e-17
0.0423011
2.30765e-18
0.0423011
4.68972e-18
0.0423011
1.23811e-17
0.0423011
-7.20569e-18
0.0423011
-4.27388e-18
0.0423011
-9.3627e-18
0.0423011
-8.72691e-18
0.0423011
-4.54302e-18
0.0423011
4.93455e-19
0.0423011
-7.21764e-18
0.0423011
-9.40536e-18
0.0423011
-3.22053e-17
0.0423011
-3.58498e-17
0.0423011
-5.50607e-17
0.0423011
-3.3609e-17
0.0423011
-2.62449e-17
0.0423011
9.75958e-18
0.0423011
-2.20842e-18
0.0423011
4.28994e-18
0.0423011
1.20907e-17
0.0423011
2.4653e-17
0.0423011
2.27153e-18
0.0423011
4.74975e-19
0.0423011
1.22129e-18
0.0423011
-1.56708e-19
0.0423011
1.23962e-17
0.0423011
-1.04619e-17
0.0423011
-6.94532e-18
0.0423011
-6.59494e-18
0.0423011
-9.50059e-18
0.0423011
-1.02878e-17
0.0423011
-2.10292e-17
0.0423011
-3.27271e-17
0.0423011
-1.53286e-17
0.0423011
-2.89822e-17
0.0423011
-2.07578e-17
-3.52534e-17
0.0423011
0.0423011
-4.71874e-19
0.0423011
1.69713e-17
0.0423011
6.11496e-18
0.0423011
-7.01289e-18
0.0423011
6.43493e-18
0.0423011
4.33196e-18
0.0423011
1.97766e-18
0.0423011
-6.95644e-18
0.0423011
-3.8563e-19
0.0423011
-8.7004e-18
0.0423011
-1.74254e-18
0.0423011
-2.71533e-17
0.0423011
2.25913e-19
0.0423011
-1.65763e-17
0.0423011
-2.01402e-17
0.0423011
-1.99888e-17
0.0423011
-1.7112e-18
0.0423011
-1.44091e-17
0.0423011
-1.20152e-17
0.0423011
8.30278e-18
0.0423011
9.94116e-18
0.0423011
-4.47904e-18
0.0423011
-1.88341e-18
0.0423011
-1.30204e-18
0.0423011
4.01919e-18
0.0423011
-1.57362e-17
0.0423011
-3.49953e-17
0.0423011
-3.34258e-17
0.0423011
-6.6385e-19
0.0423011
-1.64196e-17
0.0423011
3.245e-18
0.0423011
5.55336e-18
0.0423011
-2.66928e-18
0.0423011
-5.02648e-18
0.0423011
-1.15947e-17
0.0423011
-1.43225e-17
0.0423011
3.46715e-18
-2.41541e-18
0.0423011
0.0423011
-4.66749e-18
0.0423011
-1.56903e-17
0.0423011
-4.34754e-18
0.0423011
5.83679e-19
0.0423011
1.97812e-18
0.0423011
9.39109e-18
0.0423011
7.99559e-18
0.0423011
-1.83503e-17
0.0423011
-1.1527e-17
0.0423011
-3.99114e-17
0.0423011
-1.15264e-17
0.0423011
9.26338e-18
0.0423011
1.61379e-17
0.0423011
3.04632e-18
0.0423011
-2.61679e-17
0.0423011
1.92288e-17
0.0423011
-3.56612e-18
0.0423011
-4.79483e-19
0.0423011
1.19718e-17
0.0423011
-5.3314e-18
0.0423011
-7.07449e-18
0.0423011
-6.52317e-18
0.0423011
1.5068e-17
0.0423011
-4.96912e-18
0.0423011
-1.62065e-17
0.0423011
5.61524e-18
0.0423011
-1.2247e-18
0.0423011
-3.54716e-18
0.0423011
1.02909e-17
0.0423011
1.48237e-17
0.0423011
2.14424e-17
0.0423011
1.60903e-17
0.0423011
1.1451e-18
0.0423011
-1.28198e-17
0.0423011
-9.29076e-18
0.0423011
1.84202e-17
0.0423011
-7.82342e-18
-1.85428e-17
0.0423011
0.0423011
1.95176e-18
0.0423011
9.74782e-18
0.0423011
6.49344e-19
0.0423011
1.89376e-18
0.0423011
7.89855e-18
0.0423011
6.93966e-18
0.0423011
5.75699e-18
0.0423011
2.75181e-17
0.0423011
-1.95234e-17
0.0423011
-8.79111e-18
0.0423011
-2.5587e-17
0.0423011
-2.25537e-17
0.0423011
-1.52102e-17
0.0423011
-5.57856e-18
0.0423011
1.70061e-17
0.0423011
2.8059e-17
0.0423011
5.98282e-18
0.0423011
1.71128e-17
0.0423011
1.08813e-17
0.0423011
-1.10516e-17
0.0423011
-1.11165e-17
0.0423011
-4.53767e-19
0.0423011
-1.0106e-17
0.0423011
-1.34145e-17
0.0423011
-6.55966e-18
0.0423011
-7.4495e-18
0.0423011
-3.58001e-18
0.0423011
-5.64255e-18
0.0423011
-3.39808e-17
0.0423011
-9.84004e-18
0.0423011
4.66505e-17
0.0423011
3.21176e-17
0.0423011
2.49143e-17
0.0423011
1.48806e-17
0.0423011
-5.03971e-18
0.0423011
-2.28103e-17
0.0423011
-1.51e-17
-1.24744e-17
0.0423011
0.0423011
1.8215e-18
0.0423011
-2.6096e-18
0.0423011
2.46497e-17
0.0423011
1.44807e-17
0.0423011
-6.4332e-18
0.0423011
7.04791e-18
0.0423011
4.87605e-18
0.0423011
-2.46667e-19
0.0423011
-1.12324e-17
0.0423011
-3.15814e-17
0.0423011
-3.2771e-17
0.0423011
-2.64106e-17
0.0423011
-2.11479e-17
0.0423011
3.28178e-18
0.0423011
1.58999e-17
0.0423011
-4.18467e-18
0.0423011
-8.90022e-18
0.0423011
-5.43373e-18
0.0423011
9.8567e-18
0.0423011
-8.72975e-19
0.0423011
-2.97163e-18
0.0423011
-1.2549e-17
0.0423011
-1.55695e-17
0.0423011
-2.04828e-17
0.0423011
-1.57006e-17
0.0423011
-9.39126e-18
0.0423011
6.49014e-19
0.0423011
7.04222e-18
0.0423011
-3.46924e-18
0.0423011
-1.77296e-17
0.0423011
-3.09415e-17
0.0423011
-1.05605e-17
0.0423011
-6.65326e-18
0.0423011
8.03015e-18
0.0423011
1.04951e-17
0.0423011
1.66331e-17
0.0423011
-5.44905e-18
-3.4107e-18
0.0423011
0.0423011
3.05562e-18
0.0423011
7.28262e-18
0.0423011
3.76941e-18
0.0423011
-3.22493e-18
0.0423011
2.42957e-17
0.0423011
6.06601e-18
0.0423011
-6.69417e-18
0.0423011
-1.25923e-17
0.0423011
-8.78146e-18
0.0423011
-2.7023e-18
0.0423011
-9.93011e-18
0.0423011
-1.73093e-17
0.0423011
6.30373e-18
0.0423011
-2.43202e-17
0.0423011
-1.7545e-17
0.0423011
-1.21551e-17
0.0423011
5.06492e-18
0.0423011
-2.20459e-17
0.0423011
-3.53434e-17
0.0423011
-1.29734e-17
0.0423011
-1.67758e-18
0.0423011
7.65267e-18
0.0423011
-1.42961e-17
0.0423011
1.07456e-19
0.0423011
-3.68178e-18
0.0423011
-4.06283e-17
0.0423011
-6.41e-18
0.0423011
-1.59212e-17
0.0423011
-1.61137e-17
0.0423011
-1.6288e-17
0.0423011
-3.42542e-17
0.0423011
-4.27176e-18
0.0423011
-4.03537e-18
0.0423011
2.29159e-18
0.0423011
2.43348e-18
0.0423011
2.99269e-17
0.0423011
1.02316e-17
-1.26615e-18
0.0423011
0.0423011
-1.75778e-17
0.0423011
1.60705e-17
0.0423011
1.40886e-17
0.0423011
-7.42549e-18
0.0423011
-3.2399e-17
0.0423011
-2.52317e-17
0.0423011
-7.25543e-18
0.0423011
1.50481e-17
0.0423011
-4.01156e-18
0.0423011
-1.68483e-18
0.0423011
9.29242e-19
0.0423011
-2.31372e-17
0.0423011
-2.37886e-17
0.0423011
-2.1119e-17
0.0423011
-1.06085e-17
0.0423011
-2.8883e-17
0.0423011
-1.47143e-17
0.0423011
-5.27348e-18
0.0423011
-4.10372e-18
0.0423011
-1.39881e-18
0.0423011
5.13422e-20
0.0423011
-3.86473e-18
0.0423011
1.93048e-17
0.0423011
-1.08658e-17
0.0423011
-2.46504e-18
0.0423011
-2.54195e-17
0.0423011
-5.1496e-18
0.0423011
-1.18188e-17
0.0423011
7.003e-18
0.0423011
5.29822e-18
0.0423011
1.91899e-17
0.0423011
1.10887e-17
0.0423011
1.46127e-17
0.0423011
1.81058e-17
0.0423011
1.99833e-17
0.0423011
-4.01279e-18
0.0423011
1.92026e-17
-1.52618e-17
0.0423011
0.0423011
-8.86516e-19
0.0423011
-1.24027e-17
0.0423011
-8.65637e-18
0.0423011
6.15738e-18
0.0423011
-5.56265e-18
0.0423011
-9.33633e-18
0.0423011
2.48385e-18
0.0423011
-9.40896e-18
0.0423011
2.65186e-18
0.0423011
-8.69741e-18
0.0423011
-1.72034e-17
0.0423011
5.69489e-19
0.0423011
-3.07719e-17
0.0423011
-6.80638e-18
0.0423011
-3.51111e-18
0.0423011
2.35533e-17
0.0423011
1.30699e-18
0.0423011
-2.19755e-17
0.0423011
1.73957e-18
0.0423011
-4.48409e-18
0.0423011
-1.97332e-17
0.0423011
5.24413e-18
0.0423011
-3.63017e-18
0.0423011
5.83305e-18
0.0423011
-4.71897e-18
0.0423011
1.43724e-17
0.0423011
-1.27224e-17
0.0423011
1.75944e-18
0.0423011
-1.74303e-17
0.0423011
2.77786e-17
0.0423011
-1.5115e-17
0.0423011
-3.9219e-19
0.0423011
2.98684e-17
0.0423011
2.33131e-18
0.0423011
-1.64217e-17
0.0423011
-8.54879e-19
0.0423011
5.5134e-18
1.14814e-17
0.0423011
0.0423011
-3.0423e-19
0.0423011
-7.86512e-19
0.0423011
-8.54929e-18
0.0423011
-2.83749e-17
0.0423011
9.29026e-18
0.0423011
-1.53472e-17
0.0423011
-2.24265e-17
0.0423011
-2.20961e-17
0.0423011
-2.00889e-17
0.0423011
-2.34591e-17
0.0423011
-1.39232e-17
0.0423011
-2.73347e-17
0.0423011
4.02604e-19
0.0423011
-9.78905e-19
0.0423011
-3.59691e-18
0.0423011
-2.20342e-18
0.0423011
-1.24091e-17
0.0423011
1.9923e-17
0.0423011
-8.49399e-18
0.0423011
3.26662e-18
0.0423011
3.50892e-18
0.0423011
-4.08707e-18
0.0423011
-2.82339e-18
0.0423011
2.10002e-18
0.0423011
3.50497e-17
0.0423011
3.63724e-17
0.0423011
1.34715e-17
0.0423011
6.33519e-18
0.0423011
2.73472e-17
0.0423011
-1.43984e-18
0.0423011
-6.94135e-18
0.0423011
-1.59843e-17
0.0423011
-2.07998e-17
0.0423011
8.11537e-18
0.0423011
1.43423e-17
0.0423011
-6.50592e-18
0.0423011
-1.22e-17
-1.48444e-17
0.0423011
0.0423011
1.27267e-17
0.0423011
-1.17753e-17
0.0423011
-1.23967e-17
0.0423011
3.96286e-18
0.0423011
1.45231e-17
0.0423011
1.77525e-17
0.0423011
-5.51566e-19
0.0423011
-3.07689e-18
0.0423011
3.68283e-18
0.0423011
-1.79217e-19
0.0423011
-3.77091e-18
0.0423011
2.2822e-18
0.0423011
2.15134e-17
0.0423011
-7.59713e-18
0.0423011
3.61604e-18
0.0423011
-2.59071e-17
0.0423011
-3.37181e-18
0.0423011
-1.64098e-17
0.0423011
-2.99976e-18
0.0423011
1.29791e-18
0.0423011
-3.71826e-18
0.0423011
-1.79543e-17
0.0423011
-1.70292e-17
0.0423011
6.29478e-18
0.0423011
2.02769e-17
0.0423011
3.29562e-17
0.0423011
4.79583e-17
0.0423011
3.85524e-17
0.0423011
1.03374e-17
0.0423011
-3.92964e-18
0.0423011
2.53179e-17
0.0423011
-5.38583e-18
0.0423011
-2.83492e-17
0.0423011
-1.29615e-17
0.0423011
-1.44328e-18
0.0423011
-1.02626e-17
0.0423011
-5.11316e-18
-5.30457e-18
0.0423011
0.0423011
-7.86722e-19
0.0423011
-5.2754e-21
0.0423011
-1.97155e-18
0.0423011
-1.30226e-17
0.0423011
-8.88305e-18
0.0423011
1.57195e-17
0.0423011
1.7566e-17
0.0423011
-2.11543e-17
0.0423011
-4.65156e-18
0.0423011
-2.85733e-18
0.0423011
1.38657e-17
0.0423011
1.48561e-17
0.0423011
6.62817e-18
0.0423011
2.85707e-17
0.0423011
5.47482e-18
0.0423011
1.38654e-17
0.0423011
-1.31821e-17
0.0423011
-1.87894e-18
0.0423011
-4.99687e-18
0.0423011
-9.40181e-18
0.0423011
-5.47041e-18
0.0423011
1.04791e-17
0.0423011
1.9651e-17
0.0423011
7.66214e-18
0.0423011
1.42049e-17
0.0423011
2.30126e-17
0.0423011
1.64333e-17
0.0423011
2.13041e-17
0.0423011
3.32304e-18
0.0423011
1.75604e-17
0.0423011
3.9568e-17
0.0423011
9.00899e-18
0.0423011
1.81146e-17
0.0423011
-1.50037e-17
0.0423011
-5.08525e-18
0.0423011
7.49459e-18
0.0423011
-5.52562e-18
-6.05977e-18
0.0423011
0.0423011
-5.04679e-19
0.0423011
2.43336e-18
0.0423011
8.87384e-18
0.0423011
9.90144e-18
0.0423011
-5.96779e-18
0.0423011
-5.22458e-18
0.0423011
-4.01457e-18
0.0423011
5.06995e-18
0.0423011
5.13771e-18
0.0423011
4.13259e-18
0.0423011
-1.012e-18
0.0423011
3.33085e-17
0.0423011
-2.94738e-19
0.0423011
-3.97884e-18
0.0423011
9.54328e-18
0.0423011
-1.62931e-17
0.0423011
-1.31313e-17
0.0423011
-8.28498e-18
0.0423011
-1.93626e-17
0.0423011
-8.89499e-18
0.0423011
-9.69581e-19
0.0423011
-4.96652e-18
0.0423011
-4.51626e-18
0.0423011
2.97279e-19
0.0423011
1.34637e-18
0.0423011
5.88784e-18
0.0423011
6.55766e-18
0.0423011
1.06241e-17
0.0423011
3.91395e-17
0.0423011
4.46871e-18
0.0423011
-2.47715e-18
0.0423011
1.15419e-17
0.0423011
3.97906e-18
0.0423011
5.25563e-18
0.0423011
1.35292e-19
0.0423011
1.93381e-17
0.0423011
8.41008e-18
1.201e-17
0.0423011
0.0423011
1.31943e-17
0.0423011
1.21165e-17
0.0423011
2.66973e-18
0.0423011
4.85832e-18
0.0423011
5.01877e-18
0.0423011
-4.7847e-18
0.0423011
-7.81673e-18
0.0423011
1.9314e-18
0.0423011
5.26622e-18
0.0423011
1.66156e-17
0.0423011
2.30052e-17
0.0423011
-2.05275e-17
0.0423011
-1.83223e-17
0.0423011
3.34002e-17
0.0423011
6.31698e-18
0.0423011
4.83776e-19
0.0423011
-3.25921e-18
0.0423011
-4.04734e-18
0.0423011
-2.06294e-18
0.0423011
5.36421e-18
0.0423011
-1.16787e-17
0.0423011
-1.09607e-17
0.0423011
-9.43116e-18
0.0423011
-2.39311e-18
0.0423011
-5.15827e-18
0.0423011
1.18008e-17
0.0423011
-4.11651e-18
0.0423011
5.95597e-19
0.0423011
-3.51161e-19
0.0423011
-1.02726e-17
0.0423011
-1.15129e-17
0.0423011
-6.29021e-18
0.0423011
1.61952e-18
0.0423011
2.86523e-19
0.0423011
-8.52363e-19
0.0423011
3.01395e-19
0.0423011
-5.48838e-18
-3.19524e-18
0.0423011
0.0423011
1.14907e-18
0.0423011
3.93549e-19
0.0423011
1.93158e-17
0.0423011
1.00095e-17
0.0423011
-9.30999e-19
0.0423011
-2.07784e-17
0.0423011
-1.80715e-17
0.0423011
3.75099e-18
0.0423011
2.01164e-19
0.0423011
-9.57746e-18
0.0423011
4.81734e-19
0.0423011
7.37742e-18
0.0423011
2.61073e-17
0.0423011
-1.2907e-18
0.0423011
-2.163e-18
0.0423011
6.28958e-18
0.0423011
-5.63181e-19
0.0423011
-1.29923e-17
0.0423011
-5.67471e-18
0.0423011
-1.94332e-17
0.0423011
-8.41678e-18
0.0423011
-6.74211e-18
0.0423011
-9.47651e-18
0.0423011
-8.19707e-19
0.0423011
-3.4029e-17
0.0423011
-1.22126e-17
0.0423011
8.15513e-19
0.0423011
-2.64469e-17
0.0423011
-3.34736e-17
0.0423011
-1.38057e-17
0.0423011
3.49649e-18
0.0423011
9.97161e-18
0.0423011
2.49027e-18
0.0423011
1.78742e-17
0.0423011
8.26659e-18
0.0423011
8.41262e-18
0.0423011
-2.27259e-18
1.00783e-17
0.0423011
0.0423011
-1.39206e-17
0.0423011
-2.19434e-18
0.0423011
-1.5697e-17
0.0423011
-3.01205e-18
0.0423011
1.84677e-17
0.0423011
6.27581e-18
0.0423011
7.44567e-18
0.0423011
7.09981e-18
0.0423011
1.64741e-17
0.0423011
-1.92991e-18
0.0423011
-5.33845e-18
0.0423011
2.13104e-17
0.0423011
2.08597e-18
0.0423011
-1.5791e-17
0.0423011
-3.50045e-17
0.0423011
-3.72318e-18
0.0423011
2.14915e-18
0.0423011
-6.58686e-18
0.0423011
-1.81416e-17
0.0423011
-8.5803e-18
0.0423011
-3.12746e-19
0.0423011
-2.13478e-17
0.0423011
1.38484e-18
0.0423011
2.40043e-18
0.0423011
5.60475e-18
0.0423011
-1.00464e-17
0.0423011
-1.32834e-17
0.0423011
-3.29946e-17
0.0423011
-4.71635e-17
0.0423011
-1.32969e-17
0.0423011
-1.09621e-17
0.0423011
-1.37429e-18
0.0423011
1.01288e-17
0.0423011
-2.77411e-18
0.0423011
1.14829e-18
0.0423011
-1.94844e-17
0.0423011
-2.71592e-17
-2.26219e-17
0.0423011
0.0423011
5.0451e-18
0.0423011
6.32644e-18
0.0423011
1.74772e-17
0.0423011
5.56683e-18
0.0423011
-1.54962e-17
0.0423011
-7.80633e-18
0.0423011
7.30024e-19
0.0423011
4.23013e-18
0.0423011
5.48855e-18
0.0423011
1.53412e-17
0.0423011
2.94056e-17
0.0423011
3.33313e-17
0.0423011
1.41196e-17
0.0423011
1.28425e-18
0.0423011
-1.9561e-18
0.0423011
-8.20016e-19
0.0423011
-2.2798e-18
0.0423011
1.2288e-17
0.0423011
2.78209e-17
0.0423011
-2.46963e-18
0.0423011
-8.2896e-19
0.0423011
9.00196e-18
0.0423011
-2.5401e-17
0.0423011
-1.69312e-17
0.0423011
8.74758e-18
0.0423011
8.9736e-18
0.0423011
-6.13134e-18
0.0423011
-1.87827e-17
0.0423011
3.28449e-18
0.0423011
-1.7805e-17
0.0423011
-7.03007e-18
0.0423011
-1.48283e-18
0.0423011
-3.07885e-18
0.0423011
2.91986e-20
0.0423011
2.89678e-17
0.0423011
-5.59615e-18
0.0423011
-2.40849e-18
8.55531e-18
0.0423011
0.0423011
-7.51883e-18
0.0423011
2.78552e-17
0.0423011
9.69411e-18
0.0423011
2.63598e-18
0.0423011
-9.06495e-18
0.0423011
3.9436e-18
0.0423011
7.26439e-18
0.0423011
5.23291e-18
0.0423011
1.2242e-17
0.0423011
8.16329e-18
0.0423011
-9.13845e-18
0.0423011
-7.52264e-18
0.0423011
2.95433e-17
0.0423011
1.4472e-17
0.0423011
6.11357e-18
0.0423011
2.14159e-18
0.0423011
-2.32082e-18
0.0423011
3.41906e-19
0.0423011
4.9799e-18
0.0423011
5.82774e-18
0.0423011
3.68025e-18
0.0423011
1.12236e-17
0.0423011
2.4911e-17
0.0423011
1.75446e-17
0.0423011
1.22682e-17
0.0423011
6.23553e-20
0.0423011
7.65092e-18
0.0423011
1.52672e-17
0.0423011
3.31537e-17
0.0423011
1.44147e-17
0.0423011
1.52707e-17
0.0423011
-4.49981e-18
0.0423011
-4.45868e-18
0.0423011
-1.09793e-17
0.0423011
-1.66104e-17
0.0423011
-5.39612e-18
0.0423011
1.44313e-17
2.97742e-18
0.0423011
0.0423011
1.58254e-17
0.0423011
-5.2671e-18
0.0423011
-2.37776e-18
0.0423011
-9.39983e-18
0.0423011
7.86236e-18
0.0423011
6.15343e-18
0.0423011
4.36355e-18
0.0423011
5.71309e-18
0.0423011
-1.16539e-17
0.0423011
2.97528e-18
0.0423011
1.40053e-17
0.0423011
4.83368e-18
0.0423011
-1.37703e-18
0.0423011
1.43681e-17
0.0423011
2.13734e-17
0.0423011
4.9681e-18
0.0423011
1.90818e-18
0.0423011
5.11116e-18
0.0423011
2.25098e-17
0.0423011
6.87997e-18
0.0423011
4.1141e-18
0.0423011
4.28058e-19
0.0423011
1.54178e-17
0.0423011
2.13054e-17
0.0423011
2.13647e-17
0.0423011
1.75129e-17
0.0423011
1.85261e-17
0.0423011
1.934e-17
0.0423011
1.24944e-17
0.0423011
3.1777e-17
0.0423011
1.44712e-17
0.0423011
-2.06642e-17
0.0423011
-4.4193e-18
0.0423011
-6.42381e-18
0.0423011
-4.14085e-17
0.0423011
1.05397e-17
0.0423011
1.22451e-17
1.75481e-17
0.0423011
0.0423011
-8.22514e-18
0.0423011
5.13404e-18
0.0423011
-1.67257e-17
0.0423011
9.89461e-18
0.0423011
1.09292e-17
0.0423011
2.18059e-17
0.0423011
1.69509e-18
0.0423011
8.15582e-19
0.0423011
-4.08542e-18
0.0423011
-7.74328e-18
0.0423011
-3.53222e-19
0.0423011
5.0179e-18
0.0423011
-4.06143e-18
0.0423011
6.24211e-19
0.0423011
1.25703e-18
0.0423011
5.50586e-18
0.0423011
1.73977e-17
0.0423011
8.21127e-18
0.0423011
-8.26022e-18
0.0423011
2.01272e-17
0.0423011
1.01123e-19
0.0423011
9.11019e-18
0.0423011
6.01211e-18
0.0423011
2.36787e-17
0.0423011
2.88094e-17
0.0423011
2.86504e-17
0.0423011
2.32011e-17
0.0423011
2.91885e-17
0.0423011
4.30305e-18
0.0423011
2.02554e-17
0.0423011
4.29657e-18
0.0423011
2.0636e-17
0.0423011
3.5739e-17
0.0423011
2.56347e-17
0.0423011
5.85235e-17
0.0423011
1.67145e-17
0.0423011
2.7052e-17
-2.46211e-18
0.0423011
0.0423011
1.31355e-17
0.0423011
9.68878e-18
0.0423011
1.71522e-17
0.0423011
3.78673e-18
0.0423011
6.24245e-18
0.0423011
2.71459e-18
0.0423011
-1.2194e-18
0.0423011
5.72572e-18
0.0423011
5.55548e-18
0.0423011
-1.1497e-17
0.0423011
-1.19988e-17
0.0423011
-2.4243e-17
0.0423011
-3.38923e-17
0.0423011
-1.4122e-17
0.0423011
1.43412e-18
0.0423011
2.7256e-17
0.0423011
4.78188e-18
0.0423011
9.4752e-18
0.0423011
1.15218e-17
0.0423011
3.40244e-17
0.0423011
4.21772e-17
0.0423011
1.54116e-17
0.0423011
1.81971e-17
0.0423011
-1.79516e-17
0.0423011
-9.65773e-18
0.0423011
-1.96024e-17
0.0423011
1.24965e-17
0.0423011
7.46779e-18
0.0423011
3.09796e-17
0.0423011
2.25481e-17
0.0423011
5.44889e-17
0.0423011
2.61281e-17
0.0423011
1.64826e-18
0.0423011
6.85531e-18
0.0423011
1.12208e-17
0.0423011
3.265e-17
0.0423011
1.28079e-17
1.02855e-17
0.0423011
0.0423011
-5.34755e-18
0.0423011
-2.23476e-17
0.0423011
-1.84363e-17
0.0423011
1.27638e-17
0.0423011
2.06194e-17
0.0423011
1.19001e-17
0.0423011
3.53132e-17
0.0423011
9.006e-18
0.0423011
2.56726e-17
0.0423011
5.30639e-18
0.0423011
3.21911e-18
0.0423011
-1.91254e-17
0.0423011
-1.54384e-17
0.0423011
-2.85802e-17
0.0423011
-1.21176e-17
0.0423011
-7.78707e-18
0.0423011
4.31477e-18
0.0423011
1.38388e-17
0.0423011
7.95005e-18
0.0423011
9.01543e-18
0.0423011
9.69729e-18
0.0423011
-3.78261e-18
0.0423011
3.13705e-17
0.0423011
4.43641e-18
0.0423011
6.069e-18
0.0423011
2.67818e-18
0.0423011
-3.11785e-17
0.0423011
-3.87207e-20
0.0423011
6.39421e-18
0.0423011
-2.05853e-18
0.0423011
-8.25074e-18
0.0423011
7.54825e-19
0.0423011
2.09807e-17
0.0423011
-2.4192e-17
0.0423011
8.70361e-18
0.0423011
3.10539e-17
0.0423011
3.02442e-17
9.60746e-18
0.0423011
0.0423011
7.59801e-18
0.0423011
7.81922e-18
0.0423011
2.24549e-17
0.0423011
8.19077e-19
0.0423011
4.21611e-18
0.0423011
1.22432e-17
0.0423011
3.70714e-18
0.0423011
2.78023e-17
0.0423011
-3.89093e-18
0.0423011
1.66238e-17
0.0423011
-5.8349e-18
0.0423011
-8.89422e-19
0.0423011
1.02742e-17
0.0423011
1.49328e-17
0.0423011
-1.54058e-17
0.0423011
-6.82853e-18
0.0423011
-1.48829e-18
0.0423011
9.44404e-18
0.0423011
9.52391e-18
0.0423011
1.17354e-17
0.0423011
5.44837e-18
0.0423011
3.775e-17
0.0423011
-2.47643e-18
0.0423011
3.35953e-18
0.0423011
4.85763e-18
0.0423011
7.14725e-18
0.0423011
6.52982e-18
0.0423011
-1.00191e-17
0.0423011
1.46093e-17
0.0423011
8.17123e-18
0.0423011
2.12116e-17
0.0423011
2.75592e-17
0.0423011
2.51131e-17
0.0423011
4.2827e-17
0.0423011
1.75509e-17
0.0423011
2.13137e-17
0.0423011
2.92295e-17
3.23738e-17
0.0423011
0.0423011
-4.38988e-18
0.0423011
1.39342e-18
0.0423011
3.13275e-18
0.0423011
7.46239e-18
0.0423011
1.88018e-18
0.0423011
-6.6351e-18
0.0423011
1.62482e-18
0.0423011
-1.15425e-17
0.0423011
-3.91784e-18
0.0423011