/*--------------------------------*- C++ -*----------------------------------*\
| =========                 |                                                 |
| \\      /  F ield         | OpenFOAM: The Open Source CFD Toolbox           |
|  \\    /   O peration     | Version:  v1812                                 |
|   \\  /    A nd           | Web:      www.OpenFOAM.com                      |
|    \\/     M anipulation  |                                                 |
\*---------------------------------------------------------------------------*/
FoamFile
{
    version     2.0;
    format      ascii;
    class       volVectorField;
    location    "0.0015";
    object      U;
}
// * * * * * * * * * * * * * * * * * * * * * * * * * * * * * * * * * * * * * //

dimensions      [0 1 -1 0 0 0 0];


internalField   nonuniform List<vector> 
8475
(
(851.84 2.53924e-13 0)
(851.84 -3.07796e-13 0)
(851.84 -5.63579e-13 0)
(851.84 -3.82414e-13 0)
(851.84 -4.78458e-13 0)
(851.84 -4.22731e-13 0)
(851.84 -6.15408e-13 0)
(851.84 -5.31349e-13 0)
(851.84 -4.59527e-13 0)
(851.84 -7.0487e-13 0)
(851.84 -6.28129e-13 0)
(851.84 -5.98238e-13 0)
(851.84 -4.71745e-13 0)
(851.84 -7.87592e-13 0)
(851.84 -1.4238e-13 0)
(851.84 -1.80948e-13 0)
(851.84 -2.60107e-13 0)
(851.84 5.79922e-13 0)
(851.84 1.38494e-12 0)
(851.84 1.84479e-12 0)
(851.84 2.29979e-12 0)
(851.84 2.52166e-12 0)
(851.84 2.51866e-12 0)
(851.84 2.34297e-12 0)
(851.84 2.44159e-12 0)
(851.84 2.16038e-12 0)
(851.84 2.84814e-12 0)
(851.84 2.86509e-12 0)
(851.84 3.29278e-12 0)
(851.84 3.13298e-12 0)
(851.84 2.50044e-12 0)
(851.84 5.85375e-12 0)
(851.84 -2.45197e-11 0)
(851.84 7.89384e-09 0)
(851.84 -1.45645e-07 0)
(851.84 4.11666e-05 0)
(851.832 -0.00119763 0)
(851.346 0.253453 0)
(851.84 1.13806e-13 0)
(851.84 -2.60711e-13 0)
(851.84 -5.53332e-13 0)
(851.84 -6.01643e-13 0)
(851.84 -6.07087e-13 0)
(851.84 -6.80742e-13 0)
(851.84 -8.22365e-13 0)
(851.84 -8.92032e-13 0)
(851.84 -7.05289e-13 0)
(851.84 -8.39366e-13 0)
(851.84 -8.60691e-13 0)
(851.84 -3.84511e-13 0)
(851.84 -5.73757e-13 0)
(851.84 -3.82239e-13 0)
(851.84 -2.16686e-13 0)
(851.84 1.45213e-13 0)
(851.84 2.53453e-13 0)
(851.84 7.61999e-13 0)
(851.84 9.21913e-13 0)
(851.84 1.11443e-12 0)
(851.84 1.09783e-12 0)
(851.84 9.48119e-13 0)
(851.84 9.36018e-13 0)
(851.84 7.90635e-13 0)
(851.84 9.03586e-13 0)
(851.84 1.17633e-12 0)
(851.84 1.29886e-12 0)
(851.84 1.32136e-12 0)
(851.84 1.42388e-12 0)
(851.84 1.35549e-12 0)
(851.84 1.29355e-12 0)
(851.84 4.37305e-12 0)
(851.84 7.34011e-11 0)
(851.84 1.61545e-08 0)
(851.84 2.84181e-07 0)
(851.84 5.97082e-05 0)
(851.837 0.00118603 0)
(851.714 0.190756 0)
(851.84 1.94765e-14 0)
(851.84 -1.39039e-14 0)
(851.84 1.77443e-13 0)
(851.84 -5.29194e-14 0)
(851.84 -1.87567e-13 0)
(851.84 -4.70955e-13 0)
(851.84 -6.04526e-13 0)
(851.84 -7.26271e-13 0)
(851.84 -9.19846e-13 0)
(851.84 -5.64643e-13 0)
(851.84 -5.74165e-13 0)
(851.84 -5.35799e-13 0)
(851.84 -4.47901e-13 0)
(851.84 -3.9839e-13 0)
(851.84 -2.89463e-13 0)
(851.84 -1.95178e-13 0)
(851.84 -4.0893e-14 0)
(851.84 -7.73649e-14 0)
(851.84 -9.46442e-14 0)
(851.84 -1.4261e-13 0)
(851.84 3.04317e-15 0)
(851.84 2.96713e-13 0)
(851.84 6.78688e-13 0)
(851.84 5.99674e-13 0)
(851.84 6.57948e-13 0)
(851.84 9.69323e-13 0)
(851.84 1.06656e-12 0)
(851.84 1.40239e-12 0)
(851.84 1.51397e-12 0)
(851.84 1.33803e-12 0)
(851.84 1.33399e-12 0)
(851.84 3.40233e-12 0)
(851.84 7.63414e-12 0)
(851.84 7.32036e-09 0)
(851.84 1.78129e-08 0)
(851.84 1.8375e-05 0)
(851.84 5.25456e-05 0)
(851.823 0.0363081 0)
(851.84 -3.81257e-14 0)
(851.84 6.28408e-14 0)
(851.84 -1.15869e-14 0)
(851.84 -1.49051e-13 0)
(851.84 -5.02139e-13 0)
(851.84 -7.23998e-13 0)
(851.84 -5.61431e-13 0)
(851.84 -2.65063e-13 0)
(851.84 -3.86157e-13 0)
(851.84 -5.60444e-13 0)
(851.84 -3.9826e-13 0)
(851.84 -6.34417e-13 0)
(851.84 -6.78931e-13 0)
(851.84 -3.83686e-13 0)
(851.84 -8.07804e-14 0)
(851.84 -1.23074e-13 0)
(851.84 6.04972e-14 0)
(851.84 8.06091e-14 0)
(851.84 -2.21439e-13 0)
(851.84 1.46407e-13 0)
(851.84 3.27023e-13 0)
(851.84 4.83498e-13 0)
(851.84 2.61115e-13 0)
(851.84 6.81454e-13 0)
(851.84 7.53461e-13 0)
(851.84 1.04741e-12 0)
(851.84 1.14066e-12 0)
(851.84 9.28725e-13 0)
(851.84 1.15154e-12 0)
(851.84 1.3558e-12 0)
(851.84 1.5034e-12 0)
(851.84 1.99755e-12 0)
(851.84 -2.39492e-12 0)
(851.84 1.25881e-09 0)
(851.84 -1.50937e-09 0)
(851.84 2.14634e-06 0)
(851.84 8.16686e-07 0)
(851.839 0.00313221 0)
(851.84 1.75027e-14 0)
(851.84 9.72073e-14 0)
(851.84 8.90723e-16 0)
(851.84 -7.9324e-14 0)
(851.84 -5.63998e-13 0)
(851.84 -5.12097e-13 0)
(851.84 -1.11392e-13 0)
(851.84 -7.35322e-14 0)
(851.84 -1.66769e-13 0)
(851.84 -3.6515e-13 0)
(851.84 -6.68896e-13 0)
(851.84 -5.94534e-13 0)
(851.84 -5.40207e-13 0)
(851.84 -5.08502e-13 0)
(851.84 -4.91174e-13 0)
(851.84 -1.47552e-13 0)
(851.84 -1.39129e-13 0)
(851.84 -3.02365e-13 0)
(851.84 -2.25856e-13 0)
(851.84 -6.54412e-14 0)
(851.84 -1.09589e-14 0)
(851.84 2.01524e-14 0)
(851.84 1.27471e-13 0)
(851.84 8.91809e-14 0)
(851.84 2.72011e-13 0)
(851.84 3.82968e-13 0)
(851.84 7.98476e-13 0)
(851.84 1.01051e-12 0)
(851.84 1.17233e-12 0)
(851.84 1.15927e-12 0)
(851.84 1.01184e-12 0)
(851.84 9.74747e-13 0)
(851.84 2.98979e-14 0)
(851.84 1.091e-10 0)
(851.84 -2.35492e-10 0)
(851.84 1.36142e-07 0)
(851.84 -9.27691e-08 0)
(851.84 0.000178669 0)
(851.84 1.91556e-14 0)
(851.84 -2.521e-13 0)
(851.84 -2.66452e-13 0)
(851.84 -6.34946e-14 0)
(851.84 6.42168e-15 0)
(851.84 2.24558e-13 0)
(851.84 1.0287e-13 0)
(851.84 3.11681e-14 0)
(851.84 1.2644e-13 0)
(851.84 8.67872e-14 0)
(851.84 1.12545e-13 0)
(851.84 -2.36461e-14 0)
(851.84 -5.42512e-14 0)
(851.84 9.83471e-15 0)
(851.84 -3.51527e-13 0)
(851.84 -3.5523e-13 0)
(851.84 -2.41805e-13 0)
(851.84 -4.10695e-13 0)
(851.84 -3.03635e-13 0)
(851.84 -3.70555e-13 0)
(851.84 -4.31861e-13 0)
(851.84 -4.01599e-13 0)
(851.84 -6.66935e-14 0)
(851.84 5.60372e-14 0)
(851.84 3.92898e-13 0)
(851.84 5.18892e-13 0)
(851.84 4.02191e-13 0)
(851.84 6.00728e-13 0)
(851.84 5.1335e-13 0)
(851.84 8.27035e-13 0)
(851.84 7.21279e-13 0)
(851.84 5.71518e-13 0)
(851.84 7.8261e-13 0)
(851.84 4.53957e-12 0)
(851.84 -8.85684e-12 0)
(851.84 5.34848e-09 0)
(851.84 -3.01672e-09 0)
(851.84 7.24814e-06 0)
(851.84 1.46084e-14 0)
(851.84 -1.01981e-16 0)
(851.84 -1.77373e-13 0)
(851.84 -1.60867e-13 0)
(851.84 1.27247e-13 0)
(851.84 2.38456e-13 0)
(851.84 3.38952e-13 0)
(851.84 2.17145e-13 0)
(851.84 6.78614e-14 0)
(851.84 6.40412e-14 0)
(851.84 1.01848e-13 0)
(851.84 8.87859e-14 0)
(851.84 4.76763e-13 0)
(851.84 3.61996e-13 0)
(851.84 1.82104e-13 0)
(851.84 3.94139e-14 0)
(851.84 2.86219e-14 0)
(851.84 4.08914e-14 0)
(851.84 -1.64214e-13 0)
(851.84 -3.11787e-13 0)
(851.84 -2.58689e-13 0)
(851.84 -4.73425e-13 0)
(851.84 -5.80307e-14 0)
(851.84 6.9747e-14 0)
(851.84 -1.71336e-13 0)
(851.84 -2.05257e-13 0)
(851.84 -2.83253e-13 0)
(851.84 2.66011e-14 0)
(851.84 6.37509e-13 0)
(851.84 3.27863e-13 0)
(851.84 3.10949e-13 0)
(851.84 6.06361e-13 0)
(851.84 6.70903e-13 0)
(851.84 1.84235e-13 0)
(851.84 -4.66876e-13 0)
(851.84 1.49723e-10 0)
(851.84 -2.99874e-11 0)
(851.84 2.24059e-07 0)
(851.84 -1.14636e-13 0)
(851.84 3.42439e-15 0)
(851.84 -4.8281e-14 0)
(851.84 1.42562e-13 0)
(851.84 3.82416e-13 0)
(851.84 2.76147e-13 0)
(851.84 3.35986e-13 0)
(851.84 1.24234e-13 0)
(851.84 9.09671e-14 0)
(851.84 2.03321e-13 0)
(851.84 2.88769e-13 0)
(851.84 4.58696e-13 0)
(851.84 3.62782e-13 0)
(851.84 2.20232e-13 0)
(851.84 1.5964e-13 0)
(851.84 4.19237e-14 0)
(851.84 -3.54948e-14 0)
(851.84 3.73279e-13 0)
(851.84 -8.28026e-14 0)
(851.84 -3.29664e-13 0)
(851.84 -2.2453e-13 0)
(851.84 -3.40757e-13 0)
(851.84 -2.4668e-13 0)
(851.84 -1.30306e-13 0)
(851.84 -6.96934e-14 0)
(851.84 -2.71644e-13 0)
(851.84 -6.29111e-14 0)
(851.84 -3.94896e-14 0)
(851.84 -1.0588e-13 0)
(851.84 -1.17385e-13 0)
(851.84 1.63776e-14 0)
(851.84 2.56373e-13 0)
(851.84 4.40525e-13 0)
(851.84 7.93559e-13 0)
(851.84 3.91418e-13 0)
(851.84 2.95672e-12 0)
(851.84 -1.815e-12 0)
(851.84 5.61491e-09 0)
(851.84 -6.0034e-14 0)
(851.84 -4.73571e-14 0)
(851.84 -3.30872e-14 0)
(851.84 1.23044e-13 0)
(851.84 -1.53645e-14 0)
(851.84 2.33837e-13 0)
(851.84 -3.05117e-14 0)
(851.84 2.30397e-13 0)
(851.84 3.30767e-13 0)
(851.84 4.54594e-13 0)
(851.84 4.06932e-13 0)
(851.84 2.83821e-13 0)
(851.84 -3.09985e-13 0)
(851.84 -4.17356e-13 0)
(851.84 -1.26786e-13 0)
(851.84 -9.26346e-14 0)
(851.84 -1.12677e-13 0)
(851.84 8.15697e-14 0)
(851.84 9.12951e-15 0)
(851.84 2.24936e-13 0)
(851.84 5.40855e-14 0)
(851.84 1.84892e-13 0)
(851.84 3.68181e-14 0)
(851.84 -2.04046e-13 0)
(851.84 -1.45413e-13 0)
(851.84 -1.9417e-13 0)
(851.84 -2.65512e-14 0)
(851.84 -1.64843e-13 0)
(851.84 -3.19402e-13 0)
(851.84 -1.93874e-13 0)
(851.84 8.42896e-14 0)
(851.84 1.05086e-14 0)
(851.84 9.77161e-14 0)
(851.84 -4.2907e-14 0)
(851.84 -2.9829e-14 0)
(851.84 -5.23949e-14 0)
(851.84 -6.69193e-13 0)
(851.84 1.24704e-10 0)
(851.84 -1.16185e-14 0)
(851.84 -8.68579e-14 0)
(851.84 -1.99429e-13 0)
(851.84 -1.89246e-13 0)
(851.84 -2.40212e-13 0)
(851.84 -1.19779e-13 0)
(851.84 -3.45608e-13 0)
(851.84 -7.11774e-16 0)
(851.84 4.76938e-13 0)
(851.84 5.88035e-13 0)
(851.84 5.55996e-13 0)
(851.84 5.41137e-13 0)
(851.84 2.77731e-13 0)
(851.84 -9.45824e-16 0)
(851.84 -2.4059e-13 0)
(851.84 -1.43713e-13 0)
(851.84 -1.9757e-13 0)
(851.84 -7.40255e-14 0)
(851.84 1.7119e-13 0)
(851.84 2.5032e-13 0)
(851.84 2.33215e-13 0)
(851.84 3.02406e-13 0)
(851.84 1.3641e-13 0)
(851.84 -7.27392e-14 0)
(851.84 -1.51856e-13 0)
(851.84 -9.78044e-15 0)
(851.84 -3.94605e-13 0)
(851.84 -6.15602e-13 0)
(851.84 -6.30605e-13 0)
(851.84 -5.81875e-13 0)
(851.84 -6.75874e-13 0)
(851.84 -5.69313e-13 0)
(851.84 -3.54635e-13 0)
(851.84 -2.24173e-13 0)
(851.84 -1.86594e-13 0)
(851.84 -1.15638e-14 0)
(851.84 -5.30476e-13 0)
(851.84 6.75109e-13 0)
(851.84 2.14013e-14 0)
(851.84 -1.69188e-13 0)
(851.84 1.36849e-13 0)
(851.84 -1.46032e-13 0)
(851.84 -1.87333e-13 0)
(851.84 -1.93044e-13 0)
(851.84 -6.58346e-14 0)
(851.84 -3.38366e-13 0)
(851.84 -2.01688e-13 0)
(851.84 -1.80811e-13 0)
(851.84 -8.3235e-14 0)
(851.84 -1.45313e-13 0)
(851.84 1.50461e-13 0)
(851.84 7.95753e-13 0)
(851.84 -8.0909e-14 0)
(851.84 -2.08739e-13 0)
(851.84 1.02241e-13 0)
(851.84 -8.20517e-14 0)
(851.84 2.38443e-13 0)
(851.84 3.7161e-13 0)
(851.84 9.01167e-14 0)
(851.84 1.34273e-13 0)
(851.84 2.9976e-13 0)
(851.84 3.5298e-13 0)
(851.84 6.59351e-14 0)
(851.84 -1.69399e-13 0)
(851.84 -2.492e-13 0)
(851.84 -3.05104e-13 0)
(851.84 -6.89806e-13 0)
(851.84 -6.35228e-13 0)
(851.84 -6.25547e-13 0)
(851.84 -5.69477e-13 0)
(851.84 -4.50852e-13 0)
(851.84 -2.90047e-13 0)
(851.84 -1.88407e-13 0)
(851.84 2.04617e-14 0)
(851.84 5.52276e-15 0)
(851.84 -1.18532e-13 0)
(851.84 4.77452e-14 0)
(851.84 -1.86815e-14 0)
(851.84 3.13295e-14 0)
(851.84 -5.2306e-14 0)
(851.84 -1.51643e-13 0)
(851.84 -2.10684e-13 0)
(851.84 -7.60314e-15 0)
(851.84 2.48383e-13 0)
(851.84 1.05786e-13 0)
(851.84 2.7608e-13 0)
(851.84 -2.22267e-13 0)
(851.84 -3.70453e-13 0)
(851.84 -2.4346e-13 0)
(851.84 -1.46163e-13 0)
(851.84 1.06086e-13 0)
(851.84 -3.10748e-14 0)
(851.84 -1.29675e-13 0)
(851.84 -1.65218e-13 0)
(851.84 8.16531e-14 0)
(851.84 -3.32918e-14 0)
(851.84 4.44343e-13 0)
(851.84 1.9177e-13 0)
(851.84 -1.97762e-13 0)
(851.84 -2.172e-13 0)
(851.84 -1.31064e-13 0)
(851.84 -5.14498e-13 0)
(851.84 -6.47056e-13 0)
(851.84 -4.19957e-13 0)
(851.84 -4.6229e-13 0)
(851.84 -4.11199e-13 0)
(851.84 -4.19373e-13 0)
(851.84 -4.60962e-13 0)
(851.84 -3.0059e-13 0)
(851.84 -2.73866e-13 0)
(851.84 -4.13208e-13 0)
(851.84 -1.95569e-13 0)
(851.84 -4.91422e-14 0)
(851.84 2.98852e-13 0)
(851.84 9.9458e-15 0)
(851.84 9.22681e-14 0)
(851.84 1.38835e-14 0)
(851.84 6.36561e-14 0)
(851.84 -7.18805e-14 0)
(851.84 -9.68758e-14 0)
(851.84 -2.34805e-13 0)
(851.84 -7.60426e-14 0)
(851.84 -8.60919e-14 0)
(851.84 -1.17846e-13 0)
(851.84 -3.14944e-13 0)
(851.84 -2.72035e-13 0)
(851.84 -4.66565e-13 0)
(851.84 -6.54086e-13 0)
(851.84 -6.99104e-13 0)
(851.84 -4.23332e-13 0)
(851.84 -3.15687e-13 0)
(851.84 -1.02741e-13 0)
(851.84 -5.71551e-14 0)
(851.84 5.38444e-14 0)
(851.84 2.57439e-13 0)
(851.84 3.63227e-13 0)
(851.84 3.27347e-13 0)
(851.84 3.92014e-13 0)
(851.84 1.72955e-13 0)
(851.84 1.93755e-13 0)
(851.84 2.63097e-13 0)
(851.84 -2.08874e-13 0)
(851.84 -1.03814e-13 0)
(851.84 -3.47665e-13 0)
(851.84 -3.90406e-13 0)
(851.84 -3.98713e-13 0)
(851.84 -4.82991e-13 0)
(851.84 -5.13773e-13 0)
(851.84 -4.06538e-13 0)
(851.84 -5.61871e-13 0)
(851.84 -4.04457e-13 0)
(851.84 -3.29077e-13 0)
(851.84 -5.06087e-14 0)
(851.84 1.19477e-13 0)
(851.84 1.57658e-13 0)
(851.84 2.36895e-14 0)
(851.84 7.25424e-14 0)
(851.84 -4.08375e-14 0)
(851.84 6.29095e-14 0)
(851.84 -1.89479e-13 0)
(851.84 -2.31703e-14 0)
(851.84 -7.83136e-14 0)
(851.84 -5.67986e-14 0)
(851.84 -1.52088e-13 0)
(851.84 -1.96242e-13 0)
(851.84 -4.8038e-13 0)
(851.84 -6.76754e-13 0)
(851.84 -6.09137e-13 0)
(851.84 -5.14933e-13 0)
(851.84 -3.1874e-13 0)
(851.84 -1.17421e-13 0)
(851.84 1.00754e-13 0)
(851.84 1.80694e-13 0)
(851.84 6.95408e-14 0)
(851.84 3.72645e-14 0)
(851.84 -4.35939e-14 0)
(851.84 4.88936e-14 0)
(851.84 -2.22152e-13 0)
(851.84 -3.23285e-13 0)
(851.84 -3.123e-13 0)
(851.84 -1.67421e-13 0)
(851.84 -2.15172e-13 0)
(851.84 -1.17155e-13 0)
(851.84 -5.44573e-14 0)
(851.84 -1.88647e-13 0)
(851.84 -4.39944e-13 0)
(851.84 -4.04861e-13 0)
(851.84 -6.21768e-13 0)
(851.84 -4.88693e-13 0)
(851.84 -6.53255e-13 0)
(851.84 -5.57995e-14 0)
(851.84 -7.08456e-14 0)
(851.84 -1.21005e-13 0)
(851.84 4.26863e-14 0)
(851.84 -1.30137e-14 0)
(851.84 2.09692e-13 0)
(851.84 -3.48254e-14 0)
(851.84 -1.22997e-13 0)
(851.84 -2.36286e-13 0)
(851.84 -3.01509e-13 0)
(851.84 -1.58383e-13 0)
(851.84 2.02171e-14 0)
(851.84 2.75236e-14 0)
(851.84 -1.26994e-13 0)
(851.84 -5.35451e-13 0)
(851.84 -2.49996e-13 0)
(851.84 -1.89398e-13 0)
(851.84 -2.23565e-13 0)
(851.84 -2.30606e-13 0)
(851.84 -2.42845e-14 0)
(851.84 -1.40556e-13 0)
(851.84 -8.08201e-14 0)
(851.84 -2.53851e-13 0)
(851.84 -4.10504e-13 0)
(851.84 -3.30743e-13 0)
(851.84 -1.87632e-13 0)
(851.84 -3.10582e-13 0)
(851.84 -2.15729e-13 0)
(851.84 1.2532e-13 0)
(851.84 1.65162e-13 0)
(851.84 3.39977e-13 0)
(851.84 3.48087e-13 0)
(851.84 -3.00611e-14 0)
(851.84 -1.25233e-13 0)
(851.84 -2.43881e-13 0)
(851.84 -3.59844e-14 0)
(851.84 -1.7586e-13 0)
(851.84 -3.62743e-13 0)
(851.84 3.41689e-14 0)
(851.84 -9.50109e-15 0)
(851.84 -5.30924e-14 0)
(851.84 -7.78177e-14 0)
(851.84 3.98774e-14 0)
(851.84 -6.32972e-15 0)
(851.84 1.69644e-13 0)
(851.84 -7.89418e-15 0)
(851.84 -2.55429e-13 0)
(851.84 -4.30539e-13 0)
(851.84 -4.61803e-13 0)
(851.84 -2.32681e-13 0)
(851.84 -1.92562e-13 0)
(851.84 -8.61291e-16 0)
(851.84 2.63118e-13 0)
(851.84 6.53608e-13 0)
(851.84 4.72126e-13 0)
(851.84 3.35351e-13 0)
(851.84 2.14459e-13 0)
(851.84 -1.2917e-13 0)
(851.84 -1.2351e-13 0)
(851.84 -1.60611e-13 0)
(851.84 -1.35324e-13 0)
(851.84 -2.69154e-13 0)
(851.84 -2.48871e-13 0)
(851.84 -1.15202e-13 0)
(851.84 9.86731e-14 0)
(851.84 -9.80197e-14 0)
(851.84 -1.87857e-13 0)
(851.84 5.76893e-14 0)
(851.84 5.4236e-13 0)
(851.84 4.97158e-13 0)
(851.84 5.04583e-13 0)
(851.84 2.62893e-13 0)
(851.84 1.59856e-14 0)
(851.84 -1.59537e-13 0)
(851.84 -2.56538e-13 0)
(851.84 -1.78391e-14 0)
(851.84 1.9276e-14 0)
(851.84 -6.03145e-15 0)
(851.84 2.82586e-13 0)
(851.84 3.2412e-13 0)
(851.84 2.44394e-13 0)
(851.84 2.77926e-13 0)
(851.84 1.24549e-13 0)
(851.84 5.77992e-14 0)
(851.84 -2.38792e-13 0)
(851.84 -3.80246e-13 0)
(851.84 -5.05632e-13 0)
(851.84 -4.92194e-13 0)
(851.84 -2.85324e-13 0)
(851.84 2.71654e-14 0)
(851.84 3.26901e-13 0)
(851.84 1.80246e-13 0)
(851.84 -1.18716e-13 0)
(851.84 2.3795e-14 0)
(851.84 1.70279e-13 0)
(851.84 2.80452e-14 0)
(851.84 -7.39363e-14 0)
(851.84 -1.29179e-13 0)
(851.84 -2.03031e-13 0)
(851.84 -2.23054e-13 0)
(851.84 -2.72283e-13 0)
(851.84 -1.79453e-13 0)
(851.84 -3.61272e-13 0)
(851.84 -9.62769e-14 0)
(851.84 -3.70763e-13 0)
(851.84 -2.79204e-13 0)
(851.84 -2.95322e-13 0)
(851.84 -2.50812e-13 0)
(851.84 -1.73593e-13 0)
(851.84 6.62141e-14 0)
(851.84 3.29729e-13 0)
(851.84 2.25094e-13 0)
(851.84 -3.48211e-14 0)
(851.84 -1.76143e-13 0)
(851.84 -7.29085e-14 0)
(851.84 -1.18303e-14 0)
(851.84 2.06066e-13 0)
(851.84 1.80006e-13 0)
(851.84 2.33913e-13 0)
(851.84 2.32687e-13 0)
(851.84 -6.60841e-14 0)
(851.84 -2.57564e-14 0)
(851.84 -1.84508e-13 0)
(851.84 -2.36905e-13 0)
(851.84 -2.54299e-13 0)
(851.84 -3.77401e-13 0)
(851.84 -3.73811e-13 0)
(851.84 -3.21401e-13 0)
(851.84 -1.58497e-13 0)
(851.84 -2.18772e-13 0)
(851.84 -1.89953e-13 0)
(851.84 -2.53569e-13 0)
(851.84 -1.11209e-13 0)
(851.84 -1.18272e-13 0)
(851.84 -1.23237e-13 0)
(851.84 -4.50922e-14 0)
(851.84 -3.74747e-13 0)
(851.84 -3.73232e-13 0)
(851.84 -4.47681e-13 0)
(851.84 -3.99881e-13 0)
(851.84 3.93634e-14 0)
(851.84 -1.27815e-13 0)
(851.84 -4.73178e-15 0)
(851.84 -4.23468e-13 0)
(851.84 -6.03665e-13 0)
(851.84 -1.57263e-13 0)
(851.84 -1.94343e-14 0)
(851.84 2.13309e-13 0)
(851.84 1.06793e-13 0)
(851.84 3.81508e-13 0)
(851.84 8.89307e-15 0)
(851.84 -2.43571e-13 0)
(851.84 -3.44088e-14 0)
(851.84 2.11479e-13 0)
(851.84 7.59179e-14 0)
(851.84 -1.62398e-13 0)
(851.84 -2.42144e-13 0)
(851.84 -1.87512e-13 0)
(851.84 -8.96328e-14 0)
(851.84 -9.77935e-14 0)
(851.84 -1.64348e-13 0)
(851.84 -2.53321e-14 0)
(851.84 -1.2216e-13 0)
(851.84 -4.07313e-13 0)
(851.84 -4.24272e-13 0)
(851.84 -5.39003e-13 0)
(851.84 -4.59761e-13 0)
(851.84 -3.03292e-13 0)
(851.84 -9.36015e-14 0)
(851.84 -7.19698e-14 0)
(851.84 -1.09368e-13 0)
(851.84 -2.99211e-15 0)
(851.84 -9.1821e-15 0)
(851.84 -1.7209e-13 0)
(851.84 6.58158e-14 0)
(851.84 -1.03797e-13 0)
(851.84 -2.32756e-15 0)
(851.84 -5.7632e-13 0)
(851.84 -3.10348e-13 0)
(851.84 -3.70851e-13 0)
(851.84 2.75447e-13 0)
(851.84 1.57029e-13 0)
(851.84 2.30616e-13 0)
(851.84 1.49429e-13 0)
(851.84 1.73588e-13 0)
(851.84 2.70733e-13 0)
(851.84 3.0621e-13 0)
(851.84 3.03952e-13 0)
(851.84 3.62017e-13 0)
(851.84 2.06132e-13 0)
(851.84 -2.34998e-14 0)
(851.84 2.02361e-14 0)
(851.84 -1.22518e-13 0)
(851.84 -1.24515e-13 0)
(851.84 -4.72275e-13 0)
(851.84 -3.90955e-13 0)
(851.84 -2.21074e-13 0)
(851.84 -6.77769e-14 0)
(851.84 -8.87765e-15 0)
(851.84 -1.49874e-13 0)
(851.84 -2.22321e-13 0)
(851.84 -2.76214e-13 0)
(851.84 -5.05117e-13 0)
(851.84 -3.5186e-13 0)
(851.84 -1.69336e-13 0)
(851.84 5.38822e-14 0)
(851.84 -7.62409e-16 0)
(851.84 -2.4587e-13 0)
(851.84 -4.38769e-14 0)
(851.84 -1.44459e-13 0)
(851.84 -9.44801e-14 0)
(851.84 2.14234e-15 0)
(851.84 -5.08521e-14 0)
(851.84 -6.40121e-14 0)
(851.84 -2.73239e-13 0)
(851.84 -2.28778e-13 0)
(851.84 -2.71677e-13 0)
(851.84 -8.54239e-14 0)
(851.84 -1.77457e-13 0)
(851.84 2.53262e-14 0)
(851.84 -1.41206e-13 0)
(851.84 1.58206e-13 0)
(851.84 3.55766e-13 0)
(851.84 2.07499e-13 0)
(851.84 6.36823e-14 0)
(851.84 -1.73185e-15 0)
(851.84 8.54541e-14 0)
(851.84 1.51435e-13 0)
(851.84 -1.03702e-13 0)
(851.84 -7.26681e-14 0)
(851.84 -8.04308e-14 0)
(851.84 -6.99857e-14 0)
(851.84 -4.5278e-14 0)
(851.84 -2.91477e-13 0)
(851.84 -3.86766e-13 0)
(851.84 -2.42578e-13 0)
(851.84 -1.53168e-13 0)
(851.84 -2.98769e-13 0)
(851.84 -3.84713e-13 0)
(851.84 -3.13006e-13 0)
(851.84 -2.11759e-13 0)
(851.84 -1.7207e-13 0)
(851.84 -1.07436e-13 0)
(851.84 3.29137e-14 0)
(851.84 8.9926e-15 0)
(851.84 5.99761e-14 0)
(851.84 -1.30881e-13 0)
(851.84 -1.53228e-14 0)
(851.84 7.04118e-15 0)
(851.84 3.91628e-14 0)
(851.84 4.87214e-14 0)
(851.84 9.05808e-14 0)
(851.84 3.50278e-13 0)
(851.84 4.32993e-13 0)
(851.84 1.57419e-13 0)
(851.84 2.19489e-13 0)
(851.84 1.14439e-14 0)
(851.84 -1.3332e-13 0)
(851.84 -3.33693e-13 0)
(851.84 -2.83056e-13 0)
(851.84 -1.48662e-13 0)
(851.84 5.06049e-14 0)
(851.84 3.10004e-14 0)
(851.84 -4.87614e-14 0)
(851.84 -1.39302e-13 0)
(851.84 -1.31495e-13 0)
(851.84 1.7521e-13 0)
(851.84 -2.65107e-13 0)
(851.84 -1.21484e-13 0)
(851.84 -1.11225e-13 0)
(851.84 3.18252e-13 0)
(851.84 2.59865e-13 0)
(851.84 -9.01455e-14 0)
(851.84 -2.5438e-13 0)
(851.84 -1.99926e-13 0)
(851.84 -1.40615e-13 0)
(851.84 -2.17622e-13 0)
(851.84 -2.62502e-13 0)
(851.84 1.63004e-13 0)
(851.84 1.73072e-13 0)
(851.84 -6.0353e-14 0)
(851.84 -1.07818e-13 0)
(851.84 -2.877e-14 0)
(851.84 -8.19919e-14 0)
(851.84 3.45161e-14 0)
(851.84 7.54099e-15 0)
(851.84 6.99356e-15 0)
(851.84 -2.56396e-13 0)
(851.84 -1.01634e-13 0)
(851.84 1.81347e-13 0)
(851.84 3.82331e-13 0)
(851.84 6.26946e-13 0)
(851.84 6.44027e-13 0)
(851.84 4.84967e-13 0)
(851.84 1.91614e-13 0)
(851.84 1.07026e-13 0)
(851.84 1.97062e-13 0)
(851.84 -1.05467e-13 0)
(851.84 -5.64972e-13 0)
(851.84 -2.54611e-13 0)
(851.84 4.44319e-14 0)
(851.84 -2.19875e-13 0)
(851.84 -7.034e-14 0)
(851.84 -2.70582e-13 0)
(851.84 -1.22106e-14 0)
(851.84 4.22198e-14 0)
(851.84 -2.16975e-13 0)
(851.84 -1.28143e-13 0)
(851.84 -3.9582e-14 0)
(851.84 2.22881e-13 0)
(851.84 1.33594e-13 0)
(851.84 -8.7219e-14 0)
(851.84 -1.18924e-13 0)
(851.84 -4.39448e-14 0)
(851.84 5.19547e-14 0)
(851.84 2.12332e-13 0)
(851.84 3.42683e-13 0)
(851.84 3.1044e-13 0)
(851.84 2.20306e-13 0)
(851.84 7.82244e-14 0)
(851.84 -1.97524e-13 0)
(851.84 -1.56594e-13 0)
(851.84 -2.49368e-13 0)
(851.84 -1.4426e-13 0)
(851.84 -1.50583e-13 0)
(851.84 -1.04969e-13 0)
(851.84 -8.82987e-14 0)
(851.84 9.9107e-14 0)
(851.84 4.37352e-13 0)
(851.84 5.87601e-13 0)
(851.84 5.78189e-13 0)
(851.84 5.60504e-13 0)
(851.84 2.94292e-13 0)
(851.84 4.26642e-13 0)
(851.84 5.3051e-13 0)
(851.84 1.44865e-13 0)
(851.84 -4.86278e-14 0)
(851.84 -2.2844e-13 0)
(851.84 -1.22316e-13 0)
(851.84 -1.44459e-13 0)
(851.84 -2.54407e-13 0)
(851.84 -9.79785e-14 0)
(851.84 4.46176e-14 0)
(851.84 2.19821e-14 0)
(851.84 1.17308e-13 0)
(851.84 1.48859e-13 0)
(851.84 -1.62937e-13 0)
(851.84 6.79021e-14 0)
(851.84 1.64295e-13 0)
(851.84 6.83331e-14 0)
(851.84 2.69684e-14 0)
(851.84 -2.08661e-14 0)
(851.84 1.89538e-13 0)
(851.84 3.95619e-13 0)
(851.84 1.65953e-13 0)
(851.84 1.1494e-13 0)
(851.84 2.40448e-13 0)
(851.84 -3.11676e-14 0)
(851.84 -1.96517e-13 0)
(851.84 -4.42719e-13 0)
(851.84 -4.68853e-13 0)
(851.84 -4.18259e-13 0)
(851.84 -1.81669e-13 0)
(851.84 -1.52048e-13 0)
(851.84 -7.78996e-14 0)
(851.84 1.29921e-13 0)
(851.84 2.84558e-13 0)
(851.84 1.32663e-14 0)
(851.84 6.66511e-14 0)
(851.84 2.48489e-13 0)
(851.84 6.34656e-13 0)
(851.84 9.92344e-14 0)
(851.84 2.10574e-13 0)
(851.84 1.67633e-13 0)
(851.84 2.19894e-13 0)
(851.84 -4.92014e-14 0)
(851.84 -8.92604e-14 0)
(851.84 -1.41534e-13 0)
(851.84 5.56571e-14 0)
(851.84 8.09138e-14 0)
(851.84 6.15114e-14 0)
(851.84 9.23372e-14 0)
(851.84 7.04083e-15 0)
(851.84 3.27228e-14 0)
(851.84 -3.75631e-14 0)
(851.84 -1.61833e-13 0)
(851.84 -8.3717e-14 0)
(851.84 3.02166e-14 0)
(851.84 2.02008e-13 0)
(851.84 2.4672e-13 0)
(851.84 3.12151e-13 0)
(851.84 6.39307e-14 0)
(851.84 5.17022e-14 0)
(851.84 6.00134e-14 0)
(851.84 6.43433e-14 0)
(851.84 -1.07295e-13 0)
(851.84 -3.00821e-13 0)
(851.84 1.05013e-13 0)
(851.84 -1.14797e-14 0)
(851.84 9.70476e-14 0)
(851.84 -4.64052e-14 0)
(851.84 -8.54257e-14 0)
(851.84 -5.75764e-14 0)
(851.84 2.9233e-15 0)
(851.84 -1.36016e-14 0)
(851.84 1.67909e-13 0)
(851.84 5.52635e-14 0)
(851.84 1.29061e-13 0)
(851.84 1.25461e-13 0)
(851.84 -9.25636e-14 0)
(851.84 -2.48994e-13 0)
(851.84 3.64024e-15 0)
(851.84 1.61503e-13 0)
(851.84 1.6901e-13 0)
(851.84 3.43804e-13 0)
(851.84 5.71381e-13 0)
(851.84 2.89082e-13 0)
(851.84 3.11403e-13 0)
(851.84 4.14125e-14 0)
(851.84 9.84276e-14 0)
(851.84 2.49688e-13 0)
(851.84 2.56986e-13 0)
(851.84 2.0995e-14 0)
(851.84 -1.16437e-13 0)
(851.84 -2.56456e-13 0)
(851.84 -4.78194e-14 0)
(851.84 2.06577e-14 0)
(851.84 -4.16829e-14 0)
(851.84 5.83336e-14 0)
(851.84 1.98297e-13 0)
(851.84 1.97045e-13 0)
(851.84 1.52183e-13 0)
(851.84 -4.03129e-14 0)
(851.84 -1.86207e-14 0)
(851.84 -2.25088e-14 0)
(851.84 -2.03167e-13 0)
(851.84 -1.3184e-13 0)
(851.84 -1.02289e-13 0)
(851.84 -1.53811e-13 0)
(851.84 -2.49233e-14 0)
(851.84 -1.69378e-13 0)
(851.84 -2.41419e-13 0)
(851.84 -6.72358e-13 0)
(851.84 -3.59697e-13 0)
(851.84 -2.83207e-13 0)
(851.84 -2.40329e-13 0)
(851.84 -2.08877e-13 0)
(851.84 -1.47325e-13 0)
(851.84 -1.07116e-14 0)
(851.84 8.59503e-14 0)
(851.84 2.89714e-14 0)
(851.84 1.7876e-13 0)
(851.84 1.2447e-13 0)
(851.84 2.53084e-13 0)
(851.84 1.93354e-13 0)
(851.84 3.25907e-13 0)
(851.84 -1.10863e-13 0)
(851.84 -5.47367e-14 0)
(851.84 -1.46411e-13 0)
(851.84 -3.55839e-14 0)
(851.84 2.40082e-13 0)
(851.84 -2.13202e-13 0)
(851.84 6.45685e-14 0)
(851.84 2.9613e-13 0)
(851.84 2.66231e-13 0)
(851.84 -4.38107e-14 0)
(851.84 -1.49211e-13 0)
(851.84 2.84871e-13 0)
(851.84 2.22427e-13 0)
(851.84 1.08651e-14 0)
(851.84 -1.81881e-13 0)
(851.84 -9.09235e-16 0)
(851.84 -4.21469e-14 0)
(851.84 -4.42345e-13 0)
(851.84 -6.97908e-13 0)
(851.84 -5.23839e-13 0)
(851.84 -1.52014e-13 0)
(851.84 -2.86749e-13 0)
(851.84 -1.24145e-13 0)
(851.84 7.7091e-14 0)
(851.84 -7.11843e-14 0)
(851.84 -2.422e-13 0)
(851.84 -7.59298e-14 0)
(851.84 -5.24717e-13 0)
(851.84 -7.15638e-13 0)
(851.84 -3.84301e-13 0)
(851.84 -3.349e-13 0)
(851.84 -1.66057e-13 0)
(851.84 3.94111e-14 0)
(851.84 5.96151e-14 0)
(851.84 3.41168e-14 0)
(851.84 -1.16073e-13 0)
(851.84 -2.1518e-13 0)
(851.84 -2.00881e-13 0)
(851.84 7.49294e-14 0)
(851.84 -5.73292e-14 0)
(851.84 4.26664e-15 0)
(851.84 4.51788e-14 0)
(851.84 -1.31562e-13 0)
(851.84 -7.37422e-14 0)
(851.84 -7.15735e-15 0)
(851.84 7.30404e-14 0)
(851.84 1.55622e-13 0)
(851.84 3.43376e-13 0)
(851.84 2.72747e-13 0)
(851.84 5.02964e-13 0)
(851.84 1.21324e-13 0)
(851.84 -9.82539e-14 0)
(851.84 -2.41294e-13 0)
(851.84 -1.11737e-13 0)
(851.84 2.31809e-14 0)
(851.84 1.02648e-13 0)
(851.84 2.18819e-13 0)
(851.84 -1.18489e-13 0)
(851.84 -2.3838e-14 0)
(851.84 1.80559e-13 0)
(851.84 2.44377e-14 0)
(851.84 -1.01556e-13 0)
(851.84 2.25549e-13 0)
(851.84 1.10508e-13 0)
(851.84 -1.41208e-13 0)
(851.84 -4.40492e-13 0)
(851.84 -3.53528e-13 0)
(851.84 -1.44703e-13 0)
(851.84 -3.47014e-14 0)
(851.84 -3.22196e-14 0)
(851.84 1.04989e-14 0)
(851.84 9.48063e-14 0)
(851.84 4.56031e-13 0)
(851.84 -2.70683e-13 0)
(851.84 -2.33204e-13 0)
(851.84 -2.25662e-14 0)
(851.84 -6.58287e-14 0)
(851.84 2.10481e-13 0)
(851.84 2.58305e-13 0)
(851.84 1.23923e-14 0)
(851.84 -2.31694e-13 0)
(851.84 -2.23584e-14 0)
(851.84 6.49182e-14 0)
(851.84 8.93235e-14 0)
(851.84 9.7945e-14 0)
(851.84 1.33399e-13 0)
(851.84 1.46813e-13 0)
(851.84 1.57068e-14 0)
(851.84 3.03843e-13 0)
(851.84 3.3454e-13 0)
(851.84 1.56934e-13 0)
(851.84 4.6347e-14 0)
(851.84 -1.33244e-14 0)
(851.84 1.11838e-13 0)
(851.84 2.58088e-13 0)
(851.84 9.01001e-14 0)
(851.84 1.85783e-13 0)
(851.84 2.56703e-13 0)
(851.84 3.48172e-13 0)
(851.84 4.82187e-13 0)
(851.84 3.28615e-13 0)
(851.84 2.06703e-13 0)
(851.84 2.78249e-13 0)
(851.84 2.29345e-13 0)
(851.84 4.14357e-13 0)
(851.84 2.60027e-13 0)
(851.84 1.69123e-13 0)
(851.84 8.08477e-14 0)
(851.84 -3.85388e-14 0)
(851.84 -8.86184e-14 0)
(851.84 -1.87373e-13 0)
(851.84 -6.06412e-14 0)
(851.84 4.42517e-14 0)
(851.84 3.53335e-13 0)
(851.84 7.79719e-14 0)
(851.84 1.63542e-13 0)
(851.84 -1.38232e-15 0)
(851.84 7.14499e-14 0)
(851.84 4.6684e-14 0)
(851.84 1.94003e-13 0)
(851.84 2.52484e-13 0)
(851.84 1.14304e-13 0)
(851.84 9.65799e-14 0)
(851.84 1.78074e-14 0)
(851.84 1.26811e-14 0)
(851.84 2.35583e-14 0)
(851.84 -7.91752e-14 0)
(851.84 2.78396e-13 0)
(851.84 2.10129e-13 0)
(851.84 1.38433e-13 0)
(851.84 1.80999e-14 0)
(851.84 2.70399e-14 0)
(851.84 4.62114e-13 0)
(851.84 1.21969e-13 0)
(851.84 -3.86274e-14 0)
(851.84 1.97282e-13 0)
(851.84 3.15153e-13 0)
(851.84 3.40108e-13 0)
(851.84 2.28946e-13 0)
(851.84 2.43012e-13 0)
(851.84 1.39191e-13 0)
(851.84 3.06122e-13 0)
(851.84 2.57947e-13 0)
(851.84 3.29647e-13 0)
(851.84 1.9379e-13 0)
(851.84 -2.51772e-13 0)
(851.84 -1.49613e-13 0)
(851.84 -2.09591e-13 0)
(851.84 -5.19955e-13 0)
(851.84 -3.52265e-13 0)
(851.84 -1.70993e-13 0)
(851.84 -3.27334e-14 0)
(851.84 -5.71403e-14 0)
(851.84 -1.98599e-13 0)
(851.84 -7.79236e-14 0)
(851.84 -2.15625e-14 0)
(851.84 4.59593e-14 0)
(851.84 1.95895e-13 0)
(851.84 3.21791e-14 0)
(851.84 -3.86077e-15 0)
(851.84 -9.36821e-14 0)
(851.84 -1.90232e-13 0)
(851.84 1.72635e-13 0)
(851.84 1.70886e-14 0)
(851.84 1.75641e-13 0)
(851.84 2.73886e-13 0)
(851.84 2.56173e-13 0)
(851.84 1.49292e-13 0)
(851.84 2.26557e-13 0)
(851.84 2.51391e-13 0)
(851.84 4.11184e-14 0)
(851.84 1.79264e-13 0)
(851.84 1.34581e-13 0)
(851.84 1.58928e-13 0)
(851.84 2.7271e-13 0)
(851.84 4.39631e-13 0)
(851.84 4.47219e-13 0)
(851.84 4.99199e-13 0)
(851.84 6.73702e-13 0)
(851.84 7.04788e-13 0)
(851.84 2.84968e-13 0)
(851.84 2.26733e-13 0)
(851.84 2.31301e-13 0)
(851.84 2.7486e-13 0)
(851.84 4.09994e-13 0)
(851.84 4.18136e-13 0)
(851.84 6.80427e-13 0)
(851.84 4.21363e-13 0)
(851.84 4.27573e-13 0)
(851.84 1.43061e-13 0)
(851.84 1.24068e-13 0)
(851.84 1.15064e-13 0)
(851.84 1.24781e-13 0)
(851.84 1.39701e-13 0)
(851.84 1.71932e-13 0)
(851.84 2.2174e-13 0)
(851.84 3.69752e-14 0)
(851.84 1.64908e-13 0)
(851.84 -1.09355e-13 0)
(851.84 -7.67533e-14 0)
(851.84 -1.86878e-13 0)
(851.84 -1.59348e-13 0)
(851.84 -2.97225e-13 0)
(851.84 -2.97206e-13 0)
(851.84 -2.24932e-14 0)
(851.84 9.80736e-14 0)
(851.84 9.56821e-14 0)
(851.84 2.23635e-13 0)
(851.84 1.93638e-14 0)
(851.84 6.04245e-13 0)
(851.84 4.3201e-13 0)
(851.84 1.19888e-13 0)
(851.84 1.10389e-13 0)
(851.84 -1.82854e-13 0)
(851.84 1.14687e-13 0)
(851.84 -1.10832e-13 0)
(851.84 3.2023e-13 0)
(851.84 2.76871e-13 0)
(851.84 3.61424e-13 0)
(851.84 5.40656e-13 0)
(851.84 5.60411e-13 0)
(851.84 4.4742e-13 0)
(851.84 2.67871e-13 0)
(851.84 3.10094e-13 0)
(851.84 2.24686e-13 0)
(851.84 2.84e-13 0)
(851.84 2.76807e-13 0)
(851.84 -1.1308e-14 0)
(851.84 -2.60911e-15 0)
(851.84 -9.88325e-14 0)
(851.84 -5.15208e-14 0)
(851.84 4.69354e-14 0)
(851.84 3.13242e-13 0)
(851.84 2.07091e-13 0)
(851.84 2.73242e-13 0)
(851.84 2.25994e-13 0)
(851.84 3.63321e-13 0)
(851.84 6.15001e-14 0)
(851.84 4.01165e-14 0)
(851.84 -4.66127e-13 0)
(851.84 -6.849e-13 0)
(851.84 -3.75187e-13 0)
(851.84 -2.67788e-13 0)
(851.84 -8.11487e-14 0)
(851.84 2.13335e-13 0)
(851.84 1.21799e-13 0)
(851.84 2.17883e-13 0)
(851.84 2.54218e-13 0)
(851.84 1.91563e-13 0)
(851.84 2.93036e-13 0)
(851.84 4.56758e-13 0)
(851.84 2.72408e-15 0)
(851.84 -1.44085e-13 0)
(851.84 -1.08939e-13 0)
(851.84 -1.28518e-13 0)
(851.84 7.0521e-14 0)