/*--------------------------------*- C++ -*----------------------------------*\
| =========                 |                                                 |
| \\      /  F ield         | OpenFOAM: The Open Source CFD Toolbox           |
|  \\    /   O peration     | Version:  v1812                                 |
|   \\  /    A nd           | Web:      www.OpenFOAM.com                      |
|    \\/     M anipulation  |                                                 |
\*---------------------------------------------------------------------------*/
FoamFile
{
    version     2.0;
    format      ascii;
    class       volScalarField;
    location    "0.2";
    object      p;
}
// * * * * * * * * * * * * * * * * * * * * * * * * * * * * * * * * * * * * * //

dimensions      [1 -1 -2 0 0 0 0];


internalField   nonuniform List<scalar> 
1000
(
1
1
1
1
1
1
1
1
1
1
1
1
1
1
1
1
1
1
1
1
1
1
1
1
1
1
1
1
1
1
1
1
1
1
1
1
1
1
1
1
1
1
1
1
1
1
1
1
1
1
1
1
1
1
1
1
1
1
1
1
1
1
1
1
1
1
1
1
1
1
1
1
1
1
1
1
1
1
1
1
1
1
1
1
1
1
1
1
1
1
1
1
1
1
1
1
1
1
1
1
1
1
1
1
1
1
1
1
1
1
1
1
1
1
1
1
1
1
1
1
1
1
1
1
1
1
1
1
1
1
1
1
1
1
1
1
1
1
1
1
1
1
1
1
1
1
1
1
1
1
1
1
1
1
1
1
1
1
1
1
1
1
1
1
1
1
1
1
1
1
1
1
1
1
1
1
1
1
1
1
1
1
1
1
1
1
1
1
1
1
1
1
1
1
1
1
1
1
1
1
1
1
1
1
1
1
1
1
1
1
1
1
1
1
1
1
1
1
1
1
1
1
1
1
1
1
0.9999999996
0.9999999978
0.9999999906
0.9999999669
0.9999998998
0.9999997311
0.999999343
0.9999985153
0.9999968589
0.9999937228
0.9999880687
0.9999783135
0.9999621406
0.9999362926
0.9998963574
0.9998365723
0.9997496717
0.9996268066
0.999457561
0.9992300827
0.9989313352
0.9985474632
0.9980642485
0.997467624
0.9967442034
0.9958817831
0.9948697788
0.9936995645
0.9923646968
0.9908610186
0.9891866474
0.9873418647
0.9853289263
0.9831518175
0.9808159764
0.978328006
0.975695392
0.9729262392
0.9700290349
0.9670124437
0.9638851365
0.9606556519
0.9573322879
0.9539230219
0.9504354538
0.9468767693
0.9432537199
0.9395726156
0.9358393275
0.9320592987
0.92823756
0.9243787495
0.9204871346
0.9165666354
0.9126208482
0.9086530692
0.9046663172
0.9006633557
0.8966467136
0.8926187049
0.8885814471
0.8845368777
0.8804867703
0.8764327485
0.8723762997
0.8683187865
0.8642614582
0.8602054603
0.8561518443
0.8521015753
0.8480555398
0.8440145527
0.8399793633
0.8359506609
0.8319290799
0.8279152047
0.8239095734
0.8199126823
0.8159249886
0.8119469144
0.8079788487
0.8040211507
0.800074152
0.7961381584
0.7922134525
0.7883002949
0.7843989263
0.7805095689
0.7766324277
0.7727676916
0.768915535
0.7650761186
0.7612495902
0.757436086
0.7536357312
0.7498486407
0.7460749198
0.7423146652
0.7385679651
0.7348349
0.7311155432
0.7274099613
0.7237182145
0.7200403572
0.7163764381
0.7127265008
0.7090905841
0.7054687222
0.7018609448
0.6982672778
0.6946877433
0.6911223596
0.687571142
0.6840341024
0.6805112497
0.67700259
0.673508127
0.6700278615
0.6665617923
0.6631099158
0.6596722262
0.6562487159
0.6528393753
0.649444193
0.6460631562
0.64269625
0.6393434583
0.6360047637
0.6326801471
0.6293695884
0.626073066
0.6227905575
0.6195220391
0.616267486
0.6130268726
0.6098001722
0.6065873571
0.6033883991
0.6002032689
0.5970319365
0.5938743711
0.5907305415
0.5876004155
0.5844839604
0.581381143
0.5782919294
0.5752162852
0.5721541755
0.5691055649
0.5660704176
0.5630486972
0.560040367
0.5570453899
0.5540637283
0.5510953445
0.5481402001
0.5451982567
0.5422694754
0.5393538169
0.5364512419
0.5335617106
0.5306851831
0.5278216191
0.5249709783
0.5221332198
0.5193083029
0.5164961864
0.5136968291
0.5109101895
0.5081362261
0.505374897
0.5026261602
0.4998899738
0.4971662955
0.494455083
0.4917562938
0.4890698853
0.4863958149
0.4837340399
0.4810845172
0.4784472041
0.4758220575
0.4732090342
0.4706080912
0.4680191853
0.4654422732
0.4628773116
0.4603242571
0.4577830665
0.4552536964
0.4527361034
0.4502302441
0.4477360751
0.4452535531
0.4427826348
0.4403232767
0.4378754357
0.4354390686
0.4330141322
0.4306005833
0.4281983791
0.4258074766
0.4234278329
0.4210594054
0.4187021515
0.4163560288
0.4140209949
0.4116970077
0.4093840252
0.4070820055
0.404790907
0.4025106881
0.4002413076
0.3979827241
0.3957348969
0.3934977848
0.3912713473
0.3890555437
0.3868503335
0.3846556763
0.3824715318
0.3802978596
0.3781346194
0.375981771
0.373839274
0.3717070879
0.3695851722
0.3674734864
0.3653719897
0.3632806413
0.3611994
0.3591282247
0.357067074
0.3550159061
0.3529746793
0.3509433511
0.3489218787
0.3469102188
0.3449083268
0.3429161573
0.3409336628
0.3389607933
0.3369974954
0.3350437103
0.3330993719
0.331164403
0.3292387106
0.3273221751
0.3254146381
0.3235158814
0.3216255913
0.3197432974
0.3178682657
0.315999321
0.3141345721
0.312271089
0.3104049095
0.3085329023
0.3066612642
0.304836495
0.3032178726
0.3021250411
0.3017317955
0.3017123588
0.3017226821
0.301810574
0.3021633664
0.3029933615
0.3040619617
0.3044840935
0.3044698315
0.3043011842
0.3039251217
0.3035908053
0.3035939598
0.3036719946
0.303935851
0.3042216929
0.3042368219
0.3042021387
0.3040894485
0.3039991652
0.3040034946
0.3040529215
0.3041272667
0.3041524339
0.3041474591
0.3041185506
0.3040974634
0.3041005449
0.3041179974
0.3041273331
0.3041259412
0.3041188945
0.3041150051
0.3041154365
0.3041181381
0.3041195093
0.3041186417
0.304115888
0.3041150701
0.3041157195
0.3041160161
0.3041152468
0.3041130717
0.3041125098
0.3041128474
0.3041126614
0.3041112314
0.3041108107
0.3041112904
0.304111049
0.3041094926
0.3041058331
0.3041042229
0.3041044867
0.3041055643
0.3041062351
0.3041052861
0.30410204
0.3041004623
0.3041005207
0.3041010691
0.3041008333
0.3040996373
0.3040973905
0.304096197
0.3040962462
0.3040958335
0.3040938321
0.304092898
0.3040937897
0.3040948385
0.3040943762
0.3040914679
0.30408845
0.3040878015
0.3040884209
0.3040889833
0.3040888534
0.3040884092
0.3040860847
0.3040853866
0.3040861716
0.3040858766
0.3040839142
0.3040830516
0.3040837477
0.3040834215
0.3040816376
0.3040804184
0.304080775
0.3040810535
0.3040806025
0.3040789291
0.3040780814
0.3040786629
0.3040781341
0.3040755389
0.3040741224
0.3040749633
0.3040758225
0.3040753039
0.3040732475
0.3040723607
0.3040733898
0.3040730069
0.3040714932
0.3040705478
0.3040715506
0.3040712009
0.3040699272
0.3040686631
0.3040692172
0.3040689844
0.304068407
0.3040676236
0.3040665357
0.3040667074
0.3040665832
0.3040661141
0.3040652708
0.3040640833
0.304064453
0.3040643535
0.3040638523
0.3040629822
0.3040620072
0.3040630048
0.3040624743
0.3040615173
0.3040602638
0.3040611596
0.3040608682
0.3040602443
0.3040595201
0.3040589567
0.304059271
0.3040590466
0.304058533
0.3040580494
0.3040581022
0.3040578227
0.3040571948
0.3040565962
0.304056693
0.3040564503
0.3040559414
0.3040553873
0.3040549815
0.3040548256
0.3040544995
0.3040540218
0.304053509
0.3040530725
0.3040526966
0.3040523133
0.3040519203
0.3040515251
0.304051099
0.3040505976
0.3040500518
0.3040497482
0.3040496993
0.3040494848
0.3040490117
0.3040485297
0.3040485075
0.3040483268
0.304047945
0.3040476807
0.3040475389
0.3040473244
0.3040470781
0.3040468966
0.3040466951
0.30404645
0.3040462424
0.3040460732
0.3040458554
0.3040455742
0.3040453031
0.3040450846
0.3040448116
0.3040444253
0.3040441138
0.3040439708
0.3040437152
0.3040431461
0.3040430792
0.3040429278
0.3040426831
0.3040423522
0.3040422385
0.3040421791
0.3040418834
0.3040416068
0.3040416796
0.3040414264
0.3040411846
0.3040411428
0.3040410239
0.3040408847
0.3040411516
0.3040410548
0.3040409245
0.3040409948
0.3040412556
0.3040414508
0.3040416496
0.3040418493
0.3040420371
0.3040421839
0.3040423568
0.3040425341
0.3040427317
0.3040428931
0.3040430685
0.3040432281
0.3040433935
0.304043669
0.3040437327
0.3040439501
0.3040440903
0.3040442242
0.3040443832
0.3040445314
0.3040446783
0.3040448232
0.3040449603
0.3040450907
0.3040452157
0.3040453336
0.3040454413
0.3040455376
0.3040456268
0.3040457156
0.3040458074
0.3040458994
0.3040459877
0.3040460711
0.3040461514
0.3040462297
0.3040463073
0.3040463862
0.3040464668
0.3040465463
0.3040466214
0.3040466947
0.3040467736
0.3040468623
0.3040469578
0.304047056
0.3040471571
0.3040472612
0.3040473635
0.3040474616
0.3040475641
0.304047681
0.3040478079
0.3040479308
0.3040480496
0.3040481849
0.3040483464
0.3040485127
0.3040486576
0.3040487914
0.30404895
0.3040491405
0.3040493311
0.3040495015
0.3040496825
0.3040499115
0.3040501528
0.3040503702
0.3040505625
0.3040507783
0.3040510329
0.3040512913
0.3040514982
0.304051678
0.3040519032
0.3040521709
0.3040524185
0.3040525911
0.3040527626
0.3040529963
0.3040532548
0.3040534443
0.3040535327
0.3040536643
0.3040538635
0.3040540622
0.3040541254
0.3040541703
0.304054286
0.3040544862
0.304054614
0.3040545941
0.3040546179
0.304054728
0.304054919
0.304054951
0.3040548971
0.3040549995
0.3040552532
0.3040554485
0.3040554065
0.3040554839
0.30405574
0.3040560166
0.3040560153
0.3040559893
0.3040562023
0.3040566288
0.30405685
0.3040567965
0.3040569964
0.30405744
0.3040578335
0.3040578017
0.3040578636
0.3040581701
0.304058718
0.3040589601
0.3040588486
0.3040590475
0.3040595805
0.3040601102
0.3040601406
0.3040599608
0.3040602492
0.3040610204
0.3040614913
0.3040611734
0.3040611731
0.304061738
0.3040627146
0.3040626448
0.3040618574
0.3040621801
0.3040637033
0.3040646209
0.3040636226
0.3040627086
0.3040638051
0.3040655102
0.3040644045
0.3040615837
0.3040597774
0.3040583588
0.3040485702
0.3040239983
0.3039754922
0.3038666294
0.3036170047
0.30305892
0.3018169323
0.2990582983
0.2929948525
0.2799791827
0.2535307368
0.2068485193
0.1480792475
0.110502992
0.1009445753
0.1000264132
0.1000001653
0.1000000002
0.1
0.1
0.1
0.1
0.1
0.1
0.1
0.1
0.1
0.1
0.1
0.1
0.1
0.1
0.1
0.1
0.1
0.1
0.1
0.1
0.1
0.1
0.1
0.1
0.1
0.1
0.1
0.1
0.1
0.1
0.1
0.1
0.1
0.1
0.1
0.1
0.1
0.1
0.1
0.1
0.1
0.1
0.1
0.1
0.1
0.1
0.1
0.1
0.1
0.1
0.1
0.1
0.1
0.1
0.1
0.1
0.1
0.1
0.1
0.1
0.1
0.1
0.1
0.1
0.1
0.1
0.1
0.1
0.1
0.1
0.1
0.1
0.1
0.1
0.1
0.1
0.1
0.1
0.1
0.1
0.1
0.1
0.1
0.1
0.1
0.1
0.1
0.1
0.1
0.1
0.1
0.1
0.1
0.1
0.1
0.1
0.1
0.1
0.1
0.1
0.1
0.1
0.1
0.1
0.1
0.1
0.1
0.1
0.1
0.1
0.1
0.1
0.1
0.1
0.1
0.1
0.1
0.1
0.1
0.1
0.1
0.1
0.1
0.1
0.1
0.1
0.1
0.1
0.1
0.1
0.1
0.1
0.1
0.1
0.1
0.1
0.1
0.1
0.1
0.1
0.1
0.1
0.1
0.1
0.1
)
;

boundaryField
{
    sides
    {
        type            zeroGradient;
    }
    empty
    {
        type            empty;
    }
}


// ************************************************************************* //
