/*--------------------------------*- C++ -*----------------------------------*\
| =========                 |                                                 |
| \\      /  F ield         | OpenFOAM: The Open Source CFD Toolbox           |
|  \\    /   O peration     | Version:  v1812                                 |
|   \\  /    A nd           | Web:      www.OpenFOAM.com                      |
|    \\/     M anipulation  |                                                 |
\*---------------------------------------------------------------------------*/
FoamFile
{
    version     2.0;
    format      ascii;
    class       surfaceScalarField;
    location    "0.2";
    object      phi;
}
// * * * * * * * * * * * * * * * * * * * * * * * * * * * * * * * * * * * * * //

dimensions      [1 0 -1 0 0 0 0];
oriented        oriented;


internalField   nonuniform List<scalar> 
999
(
-7.400392719e-16
-1.298696205e-15
-2.56951263e-15
-2.993489196e-15
-2.477102268e-15
-2.621154837e-15
-2.439323739e-15
-2.7733359e-15
-2.037085114e-15
-3.188644851e-15
-3.088449999e-15
-1.983831517e-15
-4.363917997e-15
-5.234532356e-15
-7.448961548e-15
-4.894898031e-15
-5.707389078e-15
-7.172463385e-15
-5.692218674e-15
-5.736360105e-15
-5.634201923e-15
-6.955664808e-15
-7.177295674e-15
-6.943081972e-15
-6.826470335e-15
-5.295486022e-15
-5.781739197e-15
-5.620660881e-15
-5.432120135e-15
-6.03083404e-15
-5.216251275e-15
-5.043338615e-15
-5.353504098e-15
-6.130436656e-15
-5.567032617e-15
-6.503102961e-15
-6.10143378e-15
-5.900138421e-15
-5.236321441e-15
-4.765745796e-15
-3.299012415e-15
-3.118319769e-15
-4.232335786e-15
-5.371053911e-15
-5.770920159e-15
-5.066667625e-15
-4.446794267e-15
-5.497627995e-15
-5.498386438e-15
-4.940966598e-15
-5.141393924e-15
-4.745413281e-15
-4.670426529e-15
-5.298457091e-15
-5.038106563e-15
-5.002259242e-15
-5.928061514e-15
-6.537519796e-15
-5.934508752e-15
-5.912491691e-15
-6.831668744e-15
-6.246432395e-15
-6.923366669e-15
-6.776364047e-15
-6.658990983e-15
-6.308864737e-15
-6.870615856e-15
-5.771864701e-15
-5.592644087e-15
-5.196795418e-15
-2.251493123e-15
-3.352570712e-15
-1.082657035e-15
5.160961774e-16
3.061381936e-15
9.15845187e-15
1.005211969e-14
1.076858042e-14
1.248894322e-14
1.267666679e-14
1.288741364e-14
1.213762896e-14
1.129803141e-14
9.816455749e-15
8.645228762e-15
7.682372233e-15
8.108842835e-15
7.998651901e-15
8.99395184e-15
8.726406981e-15
7.200077955e-15
7.764618392e-15
6.215995292e-15
4.773522643e-15
4.670231117e-15
5.458760469e-15
4.167350848e-15
5.041655821e-15
5.485826941e-15
5.462885736e-15
5.509197895e-15
3.871109122e-15
4.708159343e-15
4.981725125e-15
5.497842314e-15
3.993201129e-15
4.560311903e-15
3.561377762e-15
2.757432221e-15
2.564575858e-15
1.88984842e-16
-6.022653531e-16
-6.615516501e-16
-3.266808295e-16
-3.831447559e-16
-2.00190653e-16
-1.363218869e-15
-9.113373258e-16
-9.390364592e-16
-3.895005614e-16
-1.837024593e-15
-2.260394615e-15
-2.123510395e-15
-1.211200588e-15
-2.429748639e-15
-4.013714181e-15
-3.246895192e-15
-5.094641926e-15
-3.955589826e-15
-4.845706118e-15
-4.656737686e-15
-4.624593791e-15
-4.567344823e-15
-4.840943621e-15
-4.272290512e-15
-6.140711171e-15
-7.184163024e-15
-8.308387335e-15
-7.816538143e-15
-7.854239754e-15
-6.742271594e-15
-5.862823944e-15
-4.023997881e-15
-1.821257033e-15
-4.898798151e-15
-3.69794207e-15
-2.500968545e-15
-2.475124598e-15
-1.372942672e-15
1.006044294e-16
6.279850843e-16
3.04850679e-16
-4.877039158e-16
1.0613178e-15
8.03027878e-16
1.774228881e-15
3.293117004e-15
3.44750397e-15
5.76787672e-15
6.336395443e-15
7.715696923e-15
6.28094512e-15
4.956560835e-15
2.118628383e-15
8.54509381e-16
-2.559984252e-15
-7.965384061e-15
-8.948617781e-15
-9.347796155e-15
-1.133208245e-14
-1.241444353e-14
-1.395439502e-14
-1.340526662e-14
-1.288986827e-14
-1.381148786e-14
-1.383468787e-14
-1.398992802e-14
-1.409963181e-14
-1.430021349e-14
-1.577809617e-14
-1.498340649e-14
-1.443433472e-14
-1.535369056e-14
-1.441557454e-14
-1.387794796e-14
-1.455076311e-14
-1.509022575e-14
-1.440324348e-14
-1.397405832e-14
-1.487957196e-14
-1.466162518e-14
-1.471602745e-14
-1.540257422e-14
-1.434599015e-14
-1.53792798e-14
-1.497627384e-14
-1.528898721e-14
-1.558309262e-14
-1.524078474e-14
-1.56652325e-14
-1.594106252e-14
-1.593933569e-14
-1.593407396e-14
-1.521671229e-14
-1.577928666e-14
-1.52143483e-14
-1.521789805e-14
-1.596958767e-14
-1.677678991e-14
-1.613833869e-14
-1.634477226e-14
-1.643118714e-14
-1.350090839e-14
-1.055170412e-14
-7.723145328e-15
-5.017010489e-15
-3.888650682e-15
-3.718885899e-15
-2.907153756e-15
-4.389276265e-15
-5.371423829e-15
-4.809902797e-15
-1.500985105e-15
5.062373525e-13
2.053158721e-11
3.139794763e-10
2.521601018e-09
1.3386563e-08
5.405996691e-08
1.802311235e-07
5.21316654e-07
1.35058992e-06
3.201820663e-06
7.050995516e-06
1.458272776e-05
2.855863602e-05
5.329796084e-05
9.526811377e-05
0.0001637648461
0.000271639743
0.0004360098109
0.0006788643872
0.001027473462
0.001514503327
0.002177763033
0.003059538256
0.004205514263
0.005663339854
0.007480930872
0.009704646663
0.01237748947
0.01553747256
0.01921627962
0.02343830069
0.0282200858
0.03357021402
0.03948953859
0.04597174291
0.05300412735
0.06056854371
0.06864239954
0.07719966618
0.08621183871
0.09564881135
0.1054796459
0.1156732231
0.1261987752
0.137026307
0.1481269134
0.159473008
0.1710384751
0.1827987582
0.1947308983
0.2068135326
0.2190268625
0.2313526011
0.2437739038
0.2562752907
0.2688425623
0.2814627132
0.2941238465
0.3068150892
0.3195265116
0.3322490501
0.3449744347
0.3576951215
0.3704042298
0.3830954843
0.3957631614
0.4084020405
0.4210073593
0.433574773
0.4461003171
0.4585803737
0.4710116409
0.4833911047
0.495716014
0.5079838575
0.5201923429
0.5323393784
0.544423055
0.5564416313
0.5683935197
0.5802772731
0.5920915735
0.6038352215
0.6155071267
0.6271062987
0.6386318395
0.650082936
0.6614588535
0.6727589296
0.6839825686
0.6951292365
0.7061984566
0.7171898049
0.7281029065
0.7389374318
0.7496930935
0.7603696434
0.7709668696
0.7814845943
0.791922671
0.8022809825
0.812559439
0.8227579765
0.8328765542
0.8429151541
0.8528737786
0.8627524496
0.8725512072
0.8822701085
0.8919092264
0.9014686488
0.9109484775
0.9203488275
0.9296698259
0.9389116114
0.9480743335
0.9571581521
0.9661632362
0.9750897642
0.9839379225
0.9927079058
1.001399916
1.010014162
1.01855086
1.027010231
1.035392503
1.043697909
1.051926687
1.06007908
1.068155337
1.076155709
1.084080452
1.091929827
1.099704095
1.107403525
1.115028387
1.122578952
1.130055498
1.137458302
1.144787646
1.152043812
1.159227086
1.166337755
1.173376108
1.180342436
1.187237033
1.194060192
1.200812209
1.207493381
1.214104006
1.220644384
1.227114815
1.233515601
1.239847043
1.246109446
1.252303112
1.258428347
1.264485457
1.270474745
1.27639652
1.282251088
1.288038756
1.293759831
1.299414621
1.305003435
1.310526579
1.315984364
1.321377097
1.326705086
1.331968641
1.337168069
1.34230368
1.347375781
1.352384682
1.357330689
1.362214111
1.367035255
1.37179443
1.376491942
1.381128098
1.385703204
1.390217568
1.394671494
1.399065288
1.403399255
1.4076737
1.411888926
1.416045237
1.420142937
1.424182326
1.428163709
1.432087384
1.435953654
1.439762818
1.443515176
1.447211025
1.450850666
1.454434393
1.457962505
1.461435296
1.464853062
1.468216097
1.471524694
1.474779146
1.477979745
1.481126781
1.484220544
1.487261324
1.490249409
1.493185085
1.49606864
1.498900358
1.501680525
1.504409424
1.507087338
1.509714548
1.512291335
1.51481798
1.517294762
1.519721958
1.522099847
1.524428706
1.526708809
1.528940433
1.531123851
1.533259338
1.535347165
1.537387607
1.539380934
1.541327417
1.543227326
1.545080931
1.5468885
1.548650303
1.550366606
1.552037675
1.553663778
1.555245179
1.556782142
1.558274933
1.559723813
1.561129047
1.562490898
1.563809627
1.565085498
1.566318776
1.567509725
1.568658614
1.569765716
1.570831308
1.57185568
1.572839137
1.573782007
1.574684656
1.575547511
1.576371102
1.577156128
1.577903553
1.578614682
1.579291038
1.579933319
1.580537037
1.581078353
1.581494286
1.581685433
1.581713933
1.581702985
1.581672067
1.581595174
1.581436995
1.581168275
1.580949257
1.580941811
1.580939809
1.581012925
1.5811359
1.581155936
1.581152584
1.581108243
1.581032427
1.580985424
1.580986434
1.5809969
1.581014138
1.58101498
1.581015299
1.581001823
1.580983325
1.580983953
1.580988008
1.580989421
1.580989165
1.580988661
1.580985834
1.580983526
1.580982226
1.580982164
1.580981996
1.580981548
1.580980893
1.5809801
1.580979337
1.580977691
1.580975684
1.58097386
1.58097252
1.580971411
1.580970487
1.58097011
1.580969503
1.580968946
1.58096834
1.580966851
1.580965172
1.5809634
1.580962037
1.580960209
1.580957785
1.580955273
1.580952866
1.580951108
1.580949584
1.580948228
1.580946658
1.580944956
1.580943152
1.580941275
1.580939723
1.580937918
1.580935531
1.580933225
1.58093085
1.580928378
1.58092585
1.580923464
1.580921357
1.580919235
1.580917618
1.580916173
1.580914538
1.580912698
1.580910979
1.5809094
1.580907921
1.580906428
1.580905077
1.580903599
1.58090192
1.580900077
1.580898044
1.580895734
1.580893351
1.580890953
1.580888219
1.580885251
1.580882042
1.580878789
1.580875625
1.580872341
1.580869243
1.580866019
1.580862723
1.580859269
1.580855807
1.580852132
1.580848469
1.580845143
1.580841906
1.580838683
1.580835297
1.580831812
1.580828436
1.580825067
1.580821729
1.580818452
1.580814872
1.580811074
1.580807174
1.580803202
1.580798993
1.580794916
1.580789783
1.580784725
1.580779727
1.580774755
1.580769809
1.580764271
1.580759081
1.580754045
1.580748999
1.580743777
1.580738642
1.580733474
1.580728339
1.580723065
1.580717324
1.580711501
1.580705691
1.580699797
1.580693247
1.580686336
1.580679093
1.580671556
1.580663691
1.580655375
1.580646754
1.580637812
1.580628403
1.580618458
1.580608184
1.580597618
1.580586729
1.580575321
1.580563417
1.580551088
1.580538399
1.580525317
1.580511793
1.580497813
1.580483367
1.580468418
1.58045292
1.580436811
1.58042004
1.580402543
1.580383799
1.580364513
1.580344194
1.58032231
1.580298553
1.580271583
1.580240097
1.580201775
1.580152873
1.580087517
1.579997165
1.579869294
1.579685562
1.579419862
1.579035709
1.578482948
1.577694044
1.57658006
1.575026419
1.572889016
1.569991379
1.566123384
1.561042654
1.554479688
1.546146897
1.535752704
1.523020426
1.50771114
1.489648093
1.468740286
1.445005288
1.418582213
1.389739511
1.358868604
1.326469517
1.293126637
1.259476889
1.22617499
1.193856076
1.163103848
1.134422248
1.108213181
1.084762306
1.06423766
1.046685484
1.032039597
1.020133802
1.010724744
1.003512409
0.9981650211
0.9943429553
0.9917205605
0.9900030407
0.9889377464
0.9883201296
0.9879938011
0.9878461586
0.9878000958
0.9877966993
0.9877981827
0.9878068478
0.9878227996
0.9878440811
0.9878674319
0.987890131
0.9879105462
0.9879280099
0.9879425339
0.9879544803
0.9879643199
0.9879725024
0.9879793982
0.9879852853
0.9879903639
0.9879947793
0.9879986426
0.9880020429
0.9880050519
0.9880077286
0.9880101239
0.988012282
0.9880142403
0.988016032
0.9880176881
0.9880192366
0.9880206982
0.9880220853
0.9880234085
0.9880246809
0.9880259161
0.9880271238
0.9880283114
0.9880294885
0.9880306631
0.9880318337
0.988032994
0.9880341464
0.9880353033
0.988036472
0.9880376413
0.9880388023
0.9880399691
0.9880411657
0.9880424001
0.9880436492
0.988044901
0.9880461747
0.9880474915
0.9880488381
0.9880501753
0.9880515065
0.9880528755
0.9880543047
0.9880557431
0.9880571608
0.9880585701
0.9880600064
0.9880614604
0.9880628838
0.9880642491
0.9880655779
0.9880669179
0.9880682352
0.9880694535
0.9880705839
0.9880716732
0.9880728017
0.9880738401
0.9880747379
0.9880755491
0.9880763172
0.9880771366
0.9880778026
0.9880783062
0.9880787868
0.9880793763
0.9880799729
0.9880804335
0.9880807937
0.988081241
0.9880819004
0.9880824971
0.988083048
0.9880836313
0.9880843605
0.9880851255
0.9880858206
0.9880864181
0.9880871736
0.988088263
0.9880891687
0.9880900823
0.9880911101
0.9880924327
0.9880937347
0.9880949214
0.9880960167
0.9880972397
0.9880988262
0.988100228
0.9881013871
0.9881026566
0.9881043179
0.9881059376
0.988107374
0.9881085118
0.9881098554
0.9881116544
0.9881129633
0.9881141757
0.9881156011
0.9881174155
0.9881195776
0.9881205754
0.9881211892
0.9881224416
0.988124653
0.9881265273
0.9881278097
0.9881290245
0.9881315427
0.9881337676
0.9881340555
0.9881334886
0.9881335354
0.9881320507
0.9881260493
0.9881121386
0.9880815908
0.9880112657
0.9878522949
0.9874921939
0.9866808782
0.9848646088
0.9808066918
0.9717639989
0.9517540106
0.908141159
0.8161897331
0.6380669669
0.3625366327
0.1089649756
0.01273247329
0.000418836216
2.878826273e-06
3.808946052e-09
8.790488988e-13
-3.149844935e-16
-3.541599256e-16
-1.899162073e-16
-1.906457544e-16
-1.60486203e-16
-1.679219298e-16
-1.165832008e-16
-1.685245291e-16
-4.582706079e-17
-1.451529087e-16
-1.215516551e-16
-1.017022925e-16
-1.596030972e-16
-2.134553837e-16
-3.250901968e-16
-4.644069549e-16
-6.661410335e-17
-4.139258392e-16
-1.975378527e-16
-2.476097772e-16
-2.002823989e-16
-1.770102093e-16
-2.333891219e-16
-1.72485837e-16
-1.847595675e-16
-1.953134929e-16
-2.431891195e-16
-4.069830872e-16
-3.238377077e-16
-2.135414917e-16
-3.536093893e-16
-2.216638522e-16
-4.09059098e-16
-3.723626119e-16
-2.22425341e-16
-1.490358996e-16
-2.001896433e-17
-3.874680627e-17
9.270048832e-17
1.103044029e-16
6.159670993e-17
3.575284893e-18
3.764811833e-17
-2.602058074e-17
-1.481379778e-16
-2.859160095e-17
-2.39623369e-16
-2.245560271e-16
-1.355386407e-16
-4.822939934e-16
-2.846641181e-16
-1.784415345e-16
-4.963202977e-16
-3.829433503e-16
-1.632340911e-16
-2.237436801e-16
5.015410309e-18
-1.198751641e-16
-3.025927917e-17
-1.855841483e-16
-2.266036463e-16
-7.740508422e-17
4.326060536e-17
-1.258266273e-16
-2.029354528e-17
-5.790116347e-17
5.690852724e-18
-1.060846783e-17
-2.844870668e-17
1.552982232e-16
-5.080172647e-17
-3.572585666e-17
5.028715661e-17
-6.726620283e-17
7.390887674e-17
-1.617978459e-16
4.567601748e-17
6.860473763e-17
-2.197192557e-17
2.449687612e-17
5.093106703e-17
2.209208379e-16
6.148825387e-17
-3.217244371e-17
-5.094145798e-17
-1.999054117e-17
-1.513946265e-16
-2.153361617e-16
-5.13648625e-16
-2.549991591e-16
-1.582659583e-16
-1.837879828e-16
-1.018063383e-16
3.017206255e-16
9.969589647e-17
2.665549965e-16
1.572588795e-16
3.811367478e-16
4.729039487e-16
2.942453979e-16
1.051715752e-16
-7.62068616e-18
-5.512595602e-17
6.484801796e-17
1.553105614e-16
9.616511764e-17
3.067431903e-16
1.283441164e-16
1.150840367e-16
6.134310387e-17
-2.011883451e-16
-3.713356526e-17
-5.550718855e-17
-1.281255703e-16
3.753057819e-17
-1.628637577e-16
-2.009750769e-16
-1.415598284e-16
-9.706485378e-17
4.661296016e-17
2.873358151e-17
-1.342607229e-16
2.428079116e-16
1.056463593e-16
-3.48728911e-17
9.762304328e-17
1.317177863e-16
1.614235505e-16
5.792306159e-17
1.009498391e-16
6.697835589e-17
1.306548483e-16
-7.950024524e-19
2.076563367e-16
1.377747748e-16
1.012770163e-16
1.925868729e-16
7.149132196e-17
1.084026521e-16
2.506640073e-16
-1.974664068e-17
1.298397235e-16
3.485804977e-16
3.536533061e-16
)
;

boundaryField
{
    sides
    {
        type            calculated;
        value           uniform 0;
    }
    empty
    {
        type            empty;
        value           nonuniform 0();
    }
}


// ************************************************************************* //
