/*--------------------------------*- C++ -*----------------------------------*\
| =========                 |                                                 |
| \\      /  F ield         | OpenFOAM: The Open Source CFD Toolbox           |
|  \\    /   O peration     | Version:  v1812                                 |
|   \\  /    A nd           | Web:      www.OpenFOAM.com                      |
|    \\/     M anipulation  |                                                 |
\*---------------------------------------------------------------------------*/
FoamFile
{
    version     2.0;
    format      ascii;
    class       volScalarField;
    location    "0.2";
    object      rho;
}
// * * * * * * * * * * * * * * * * * * * * * * * * * * * * * * * * * * * * * //

dimensions      [1 -3 0 0 0 0 0];


internalField   nonuniform List<scalar> 
1000
(
0.9999989024
0.9999989024
0.9999989024
0.9999989024
0.9999989024
0.9999989024
0.9999989024
0.9999989024
0.9999989024
0.9999989024
0.9999989024
0.9999989024
0.9999989024
0.9999989024
0.9999989024
0.9999989024
0.9999989024
0.9999989024
0.9999989024
0.9999989024
0.9999989024
0.9999989024
0.9999989024
0.9999989024
0.9999989024
0.9999989024
0.9999989024
0.9999989024
0.9999989024
0.9999989024
0.9999989024
0.9999989024
0.9999989024
0.9999989024
0.9999989024
0.9999989024
0.9999989024
0.9999989024
0.9999989024
0.9999989024
0.9999989024
0.9999989024
0.9999989024
0.9999989024
0.9999989024
0.9999989024
0.9999989024
0.9999989024
0.9999989024
0.9999989024
0.9999989024
0.9999989024
0.9999989024
0.9999989024
0.9999989024
0.9999989024
0.9999989024
0.9999989024
0.9999989024
0.9999989024
0.9999989024
0.9999989024
0.9999989024
0.9999989024
0.9999989024
0.9999989024
0.9999989024
0.9999989024
0.9999989024
0.9999989024
0.9999989024
0.9999989024
0.9999989024
0.9999989024
0.9999989024
0.9999989024
0.9999989024
0.9999989024
0.9999989024
0.9999989024
0.9999989024
0.9999989024
0.9999989024
0.9999989024
0.9999989024
0.9999989024
0.9999989024
0.9999989024
0.9999989024
0.9999989024
0.9999989024
0.9999989024
0.9999989024
0.9999989024
0.9999989024
0.9999989024
0.9999989024
0.9999989024
0.9999989024
0.9999989024
0.9999989024
0.9999989024
0.9999989024
0.9999989024
0.9999989024
0.9999989024
0.9999989024
0.9999989024
0.9999989024
0.9999989024
0.9999989024
0.9999989024
0.9999989024
0.9999989024
0.9999989024
0.9999989024
0.9999989024
0.9999989024
0.9999989024
0.9999989024
0.9999989024
0.9999989024
0.9999989024
0.9999989024
0.9999989024
0.9999989024
0.9999989024
0.9999989024
0.9999989024
0.9999989024
0.9999989024
0.9999989024
0.9999989024
0.9999989024
0.9999989024
0.9999989024
0.9999989024
0.9999989024
0.9999989024
0.9999989024
0.9999989024
0.9999989024
0.9999989024
0.9999989024
0.9999989024
0.9999989024
0.9999989024
0.9999989024
0.9999989024
0.9999989024
0.9999989024
0.9999989024
0.9999989024
0.9999989024
0.9999989024
0.9999989024
0.9999989024
0.9999989024
0.9999989024
0.9999989024
0.9999989024
0.9999989024
0.9999989024
0.9999989024
0.9999989024
0.9999989024
0.9999989024
0.9999989024
0.9999989024
0.9999989024
0.9999989024
0.9999989024
0.9999989024
0.9999989024
0.9999989024
0.9999989024
0.9999989024
0.9999989024
0.9999989024
0.9999989024
0.9999989024
0.9999989024
0.9999989024
0.9999989024
0.9999989024
0.9999989024
0.9999989024
0.9999989024
0.9999989024
0.9999989024
0.9999989024
0.9999989024
0.9999989024
0.9999989024
0.9999989024
0.9999989024
0.9999989024
0.9999989024
0.9999989024
0.9999989024
0.9999989024
0.9999989024
0.9999989024
0.9999989024
0.9999989024
0.9999989024
0.9999989024
0.9999989024
0.9999989024
0.9999989024
0.9999989024
0.9999989024
0.9999989024
0.9999989024
0.9999989024
0.9999989024
0.9999989024
0.9999989024
0.9999989024
0.9999989024
0.9999989024
0.9999989024
0.9999989024
0.9999989024
0.9999989024
0.9999989024
0.9999989021
0.9999989007
0.9999988953
0.9999988775
0.9999988278
0.9999987031
0.9999984174
0.9999978102
0.9999965983
0.999994309
0.99999019
0.9999830958
0.9999713533
0.9999526129
0.9999236963
0.9998804577
0.9998176758
0.9997289977
0.9996069526
0.9994430463
0.9992279418
0.9989517199
0.998604204
0.9981753239
0.9976554912
0.9970359542
0.996309105
0.9954687183
0.9945101092
0.993430205
0.9922275376
0.9909021649
0.9894555378
0.9878903281
0.9862102351
0.9844197835
0.9825241256
0.9805288567
0.9784398492
0.9762631089
0.9740046548
0.9716704213
0.9692661826
0.9667974956
0.9642696597
0.9616876908
0.9590563063
0.9563799193
0.9536626407
0.9509082854
0.9481203832
0.9453021921
0.9424567132
0.9395867069
0.9366947087
0.9337830459
0.9308538527
0.9279090861
0.9249505398
0.9219798578
0.9189985473
0.9160079901
0.9130094536
0.9100041008
0.9069929993
0.9039771299
0.9009573939
0.8979346206
0.8949095728
0.8918829537
0.8888554109
0.8858275421
0.882799899
0.8797729913
0.8767472903
0.8737232319
0.87070122
0.8676816286
0.8646648049
0.8616510707
0.8586407251
0.8556340461
0.8526312921
0.8496327034
0.8466385041
0.8436489027
0.8406640936
0.8376842583
0.8347095659
0.8317401744
0.8287762314
0.8258178748
0.8228652334
0.8199184278
0.8169775706
0.8140427673
0.8111141166
0.8081917109
0.8052756367
0.8023659749
0.7994628014
0.796566187
0.7936761984
0.7907928976
0.787916343
0.785046589
0.7821836867
0.7793276837
0.7764786247
0.7736365514
0.7708015027
0.7679735148
0.7651526218
0.7623388552
0.7595322444
0.7567328168
0.7539405976
0.7511556106
0.7483778775
0.7456074184
0.7428442519
0.7400883951
0.7373398638
0.7345986722
0.7318648334
0.7291383593
0.7264192607
0.723707547
0.721003227
0.7183063082
0.7156167973
0.7129346999
0.710260021
0.7075927646
0.7049329341
0.7022805319
0.6996355598
0.6969980191
0.6943679101
0.6917452327
0.6891299862
0.6865221692
0.6839217798
0.6813288157
0.678743274
0.6761651512
0.6735944434
0.6710311463
0.6684752553
0.665926765
0.66338567
0.6608519642
0.6583256414
0.6558066949
0.6532951175
0.650790902
0.6482940407
0.6458045255
0.6433223482
0.6408475002
0.6383799725
0.6359197561
0.6334668414
0.631021219
0.6285828788
0.6261518107
0.6237280043
0.621311449
0.618902134
0.6165000482
0.6141051804
0.6117175192
0.6093370528
0.6069637696
0.6045976574
0.6022387041
0.5998868973
0.5975422246
0.5952046731
0.5928742302
0.5905508827
0.5882346176
0.5859254215
0.5836232811
0.5813281828
0.5790401129
0.5767590577
0.5744850032
0.5722179354
0.5699578402
0.5677047034
0.5654585107
0.5632192476
0.5609868998
0.5587614526
0.5565428915
0.5543312018
0.5521263688
0.5499283779
0.5477372141
0.5455528628
0.5433753091
0.5412045383
0.5390405355
0.5368832861
0.5347327752
0.5325889881
0.5304519103
0.528321527
0.5261978238
0.5240807861
0.5219703996
0.5198666498
0.5177695225
0.5156790034
0.5135950783
0.511517733
0.5094469535
0.5073827256
0.5053250352
0.5032738681
0.5012292101
0.4991910468
0.497159364
0.495134147
0.4931153813
0.4911030518
0.4890971436
0.4870976413
0.4851045296
0.4831177925
0.4811374142
0.4791633782
0.4771956678
0.4752342661
0.4732791555
0.4713303179
0.4693877345
0.4674513853
0.4655212493
0.4635973032
0.4616795214
0.4597678746
0.457862328
0.4559628397
0.4540693563
0.4521818088
0.4503001014
0.4484240995
0.4465536088
0.444688339
0.4428278426
0.4409714082
0.4391178809
0.4372653859
0.4354110011
0.4335507571
0.4316814933
0.4298094972
0.4279808566
0.4263602201
0.4252520922
0.4248744636
0.4248467585
0.4248549804
0.4249416948
0.4252960692
0.4261296087
0.4272026478
0.4276286797
0.4276137975
0.4274460381
0.4270686033
0.4267321401
0.4267349611
0.4268119356
0.4270750719
0.4273627361
0.4273771765
0.4273424073
0.4272292872
0.4271382134
0.4271425969
0.4271919155
0.4272663341
0.4272917382
0.4272867253
0.4272575997
0.4272359291
0.4272387538
0.4272558657
0.4272642982
0.427262632
0.4272551846
0.427250677
0.4272509706
0.4272535275
0.4272546844
0.4272537517
0.4272509356
0.4272496461
0.4272500379
0.4272497008
0.4272486936
0.4272461209
0.4272451521
0.4272451905
0.4272445373
0.4272428536
0.4272420594
0.4272422485
0.4272414414
0.4272395572
0.4272357124
0.4272333122
0.4272332316
0.4272339342
0.4272339072
0.4272327136
0.4272293417
0.4272270323
0.4272268279
0.4272270876
0.4272262851
0.4272247978
0.4272222695
0.4272204189
0.4272200753
0.4272190878
0.4272166902
0.427215157
0.4272155824
0.4272162256
0.4272150577
0.4272116904
0.4272080953
0.4272068958
0.427207015
0.4272070838
0.427206401
0.4272052232
0.4272023847
0.4272011201
0.4272014892
0.4272003068
0.4271978481
0.42719632
0.4271965187
0.4271952536
0.4271929947
0.4271910061
0.4271907966
0.4271904707
0.4271891365
0.4271868685
0.4271853427
0.4271853879
0.4271839628
0.4271808148
0.4271785066
0.4271786677
0.4271788644
0.427177171
0.427174341
0.4271726595
0.4271730171
0.4271715016
0.4271691337
0.4271672442
0.4271674763
0.4271660121
0.4271639356
0.4271616339
0.4271613646
0.4271601388
0.4271585537
0.4271567184
0.4271544399
0.4271535458
0.4271522309
0.4271505148
0.4271484498
0.4271458854
0.4271450772
0.4271436759
0.4271418767
0.4271397259
0.4271373705
0.4271371028
0.4271351989
0.4271329047
0.4271301546
0.4271297366
0.4271279177
0.4271257426
0.4271234049
0.4271210831
0.4271196293
0.4271174857
0.4271149896
0.4271123691
0.4271102539
0.4271077178
0.427104768
0.4271016681
0.4270992456
0.4270963847
0.4270931783
0.4270898358
0.427086545
0.4270834363
0.427080079
0.4270764846
0.4270727612
0.4270690166
0.4270652236
0.4270612994
0.4270572246
0.4270529884
0.4270485406
0.4270438145
0.4270388279
0.4270338102
0.4270288156
0.4270233377
0.4270172386
0.4270105729
0.4270037287
0.4269956902
0.4269858707
0.426973772
0.4269581235
0.4269367971
0.4269069757
0.426864591
0.4268035597
0.4267154006
0.4265884865
0.4264069162
0.4261494488
0.4257885486
0.4252893075
0.4246084065
0.4236934223
0.422483044
0.4209081576
0.4188933857
0.4163598666
0.4132306509
0.4094360189
0.4049195424
0.3996444246
0.3936010331
0.3868107094
0.3793288218
0.3712450048
0.362680547
0.3537830093
0.3447180092
0.3356609218
0.3267867473
0.3182601755
0.3102282983
0.3028131782
0.2961069877
0.2901702986
0.2850314993
0.28068725
0.2771055844
0.2742308535
0.2719894547
0.2702959829
0.2690597619
0.2681910345
0.2676060717
0.2672310556
0.2670042745
0.2668770765
0.2668130654
0.2667868277
0.2667807079
0.2667808047
0.2667821856
0.2667853818
0.2667902492
0.266796112
0.2668021703
0.2668078453
0.2668128272
0.2668170243
0.2668204864
0.2668233247
0.2668256609
0.2668276015
0.2668292324
0.2668306208
0.2668318179
0.2668328601
0.2668337713
0.2668345693
0.26683527
0.2668358883
0.2668364373
0.2668369282
0.2668373713
0.2668377746
0.2668381428
0.2668384793
0.2668387901
0.2668390836
0.2668393656
0.2668396367
0.2668398964
0.2668401467
0.2668403887
0.2668406207
0.2668408417
0.2668410576
0.2668412748
0.2668414907
0.266841697
0.2668418939
0.2668420945
0.2668423047
0.2668425124
0.2668427012
0.2668428786
0.2668430671
0.2668432705
0.2668434715
0.2668436536
0.266843847
0.266844051
0.266844264
0.2668444612
0.2668446425
0.2668448298
0.266845042
0.2668452544
0.2668454278
0.2668455816
0.2668457645
0.266845972
0.2668461637
0.2668463068
0.2668464434
0.2668466181
0.2668468074
0.2668469503
0.2668470305
0.2668471348
0.2668472823
0.2668474242
0.2668474846
0.2668475355
0.2668476218
0.2668477573
0.2668478665
0.2668478607
0.2668478986
0.2668479812
0.26684811
0.2668481509
0.2668481428
0.2668482124
0.2668483818
0.2668485252
0.2668485101
0.2668485658
0.2668487448
0.2668489264
0.2668489335
0.2668489439
0.2668490829
0.2668493535
0.2668495159
0.2668494976
0.2668496294
0.2668499225
0.2668501845
0.2668501785
0.2668502398
0.266850451
0.2668507956
0.2668509805
0.266850928
0.2668510617
0.2668514157
0.2668517721
0.2668518065
0.2668517365
0.2668519193
0.2668524047
0.2668527321
0.2668525391
0.2668525656
0.2668529257
0.2668535414
0.266853531
0.2668530943
0.2668532946
0.2668542335
0.2668548606
0.2668542663
0.2668536781
0.2668543856
0.266855541
0.2668547927
0.2668531486
0.2668521397
0.2668510854
0.2668453597
0.2668307467
0.2668015085
0.2667361552
0.2665863888
0.2662511408
0.2655046281
0.2638445183
0.2601852962
0.2522800931
0.2359703798
0.206117121
0.1655515324
0.1353330342
0.1260319274
0.1250299445
0.1250000643
0.124999872
0.1249998718
0.1249998718
0.1249998718
0.1249998718
0.1249998718
0.1249998718
0.1249998718
0.1249998718
0.1249998718
0.1249998718
0.1249998718
0.1249998718
0.1249998718
0.1249998718
0.1249998718
0.1249998718
0.1249998718
0.1249998718
0.1249998718
0.1249998718
0.1249998718
0.1249998718
0.1249998718
0.1249998718
0.1249998718
0.1249998718
0.1249998718
0.1249998718
0.1249998718
0.1249998718
0.1249998718
0.1249998718
0.1249998718
0.1249998718
0.1249998718
0.1249998718
0.1249998718
0.1249998718
0.1249998718
0.1249998718
0.1249998718
0.1249998718
0.1249998718
0.1249998718
0.1249998718
0.1249998718
0.1249998718
0.1249998718
0.1249998718
0.1249998718
0.1249998718
0.1249998718
0.1249998718
0.1249998718
0.1249998718
0.1249998718
0.1249998718
0.1249998718
0.1249998718
0.1249998718
0.1249998718
0.1249998718
0.1249998718
0.1249998718
0.1249998718
0.1249998718
0.1249998718
0.1249998718
0.1249998718
0.1249998718
0.1249998718
0.1249998718
0.1249998718
0.1249998718
0.1249998718
0.1249998718
0.1249998718
0.1249998718
0.1249998718
0.1249998718
0.1249998718
0.1249998718
0.1249998718
0.1249998718
0.1249998718
0.1249998718
0.1249998718
0.1249998718
0.1249998718
0.1249998718
0.1249998718
0.1249998718
0.1249998718
0.1249998718
0.1249998718
0.1249998718
0.1249998718
0.1249998718
0.1249998718
0.1249998718
0.1249998718
0.1249998718
0.1249998718
0.1249998718
0.1249998718
0.1249998718
0.1249998718
0.1249998718
0.1249998718
0.1249998718
0.1249998718
0.1249998718
0.1249998718
0.1249998718
0.1249998718
0.1249998718
0.1249998718
0.1249998718
0.1249998718
0.1249998718
0.1249998718
0.1249998718
0.1249998718
0.1249998718
0.1249998718
0.1249998718
0.1249998718
0.1249998718
0.1249998718
0.1249998718
0.1249998718
0.1249998718
0.1249998718
0.1249998718
0.1249998718
0.1249998718
0.1249998718
0.1249998718
0.1249998718
0.1249998718
0.1249998718
0.1249998718
0.1249998718
0.1249998718
0.1249998718
)
;

boundaryField
{
    sides
    {
        type            calculated;
        value           nonuniform List<scalar> 2(0.1249998718 0.9999989024);
    }
    empty
    {
        type            empty;
    }
}


// ************************************************************************* //
