/*--------------------------------*- C++ -*----------------------------------*\
| =========                 |                                                 |
| \\      /  F ield         | OpenFOAM: The Open Source CFD Toolbox           |
|  \\    /   O peration     | Version:  v1812                                 |
|   \\  /    A nd           | Web:      www.OpenFOAM.com                      |
|    \\/     M anipulation  |                                                 |
\*---------------------------------------------------------------------------*/
FoamFile
{
    version     2.0;
    format      ascii;
    class       volScalarField;
    location    "0.2";
    object      T;
}
// * * * * * * * * * * * * * * * * * * * * * * * * * * * * * * * * * * * * * //

dimensions      [0 0 0 1 0 0 0];


internalField   nonuniform List<scalar> 
1000
(
0.003487899
0.003487899
0.003487899
0.003487899
0.003487899
0.003487899
0.003487899
0.003487899
0.003487899
0.003487899
0.003487899
0.003487899
0.003487899
0.003487899
0.003487899
0.003487899
0.003487899
0.003487899
0.003487899
0.003487899
0.003487899
0.003487899
0.003487899
0.003487899
0.003487899
0.003487899
0.003487899
0.003487899
0.003487899
0.003487899
0.003487899
0.003487899
0.003487899
0.003487899
0.003487899
0.003487899
0.003487899
0.003487899
0.003487899
0.003487899
0.003487899
0.003487899
0.003487899
0.003487899
0.003487899
0.003487899
0.003487899
0.003487899
0.003487899
0.003487899
0.003487899
0.003487899
0.003487899
0.003487899
0.003487899
0.003487899
0.003487899
0.003487899
0.003487899
0.003487899
0.003487899
0.003487899
0.003487899
0.003487899
0.003487899
0.003487899
0.003487899
0.003487899
0.003487899
0.003487899
0.003487899
0.003487899
0.003487899
0.003487899
0.003487899
0.003487899
0.003487899
0.003487899
0.003487899
0.003487899
0.003487899
0.003487899
0.003487899
0.003487899
0.003487899
0.003487899
0.003487899
0.003487899
0.003487899
0.003487899
0.003487899
0.003487899
0.003487899
0.003487899
0.003487899
0.003487899
0.003487899
0.003487899
0.003487899
0.003487899
0.003487899
0.003487899
0.003487899
0.003487899
0.003487899
0.003487899
0.003487899
0.003487899
0.003487899
0.003487899
0.003487899
0.003487899
0.003487899
0.003487899
0.003487899
0.003487899
0.003487899
0.003487899
0.003487899
0.003487899
0.003487899
0.003487899
0.003487899
0.003487899
0.003487899
0.003487899
0.003487899
0.003487899
0.003487899
0.003487899
0.003487899
0.003487899
0.003487899
0.003487899
0.003487899
0.003487899
0.003487899
0.003487899
0.003487899
0.003487899
0.003487899
0.003487899
0.003487899
0.003487899
0.003487899
0.003487899
0.003487899
0.003487899
0.003487899
0.003487899
0.003487899
0.003487899
0.003487899
0.003487899
0.003487899
0.003487899
0.003487899
0.003487899
0.003487899
0.003487899
0.003487899
0.003487899
0.003487899
0.003487899
0.003487899
0.003487899
0.003487899
0.003487899
0.003487899
0.003487899
0.003487899
0.003487899
0.003487899
0.003487899
0.003487899
0.003487899
0.003487899
0.003487899
0.003487899
0.003487899
0.003487899
0.003487899
0.003487899
0.003487899
0.003487899
0.003487899
0.003487899
0.003487899
0.003487899
0.003487899
0.003487899
0.003487899
0.003487899
0.003487899
0.003487899
0.003487899
0.003487899
0.003487899
0.003487899
0.003487899
0.003487899
0.003487899
0.003487899
0.003487899
0.003487899
0.003487899
0.003487899
0.003487899
0.003487899
0.003487899
0.003487899
0.003487899
0.003487899
0.003487899
0.003487899
0.003487899
0.003487899
0.003487899
0.003487899
0.003487899
0.003487899
0.003487899
0.003487899
0.003487899
0.003487899
0.003487899
0.003487899
0.003487898998
0.003487898992
0.003487898971
0.003487898911
0.003487898757
0.0034878984
0.003487897631
0.003487896081
0.003487893127
0.003487887773
0.003487878491
0.003487863038
0.003487838246
0.003487799809
0.003487742085
0.003487657937
0.003487538643
0.003487373905
0.003487151963
0.00348685984
0.003486483687
0.003486009231
0.003485422277
0.003484709226
0.003483857576
0.003482856355
0.00348169646
0.003480370891
0.003478874857
0.003477205782
0.003475363204
0.003473348598
0.003471165148
0.003468817486
0.003466311411
0.003463653623
0.003460851467
0.003457912706
0.00345484532
0.003451657338
0.003448356702
0.003444951165
0.003441448202
0.003437854958
0.003434178209
0.003430424339
0.003426599329
0.003422708757
0.00341875781
0.003414751292
0.003410693643
0.003406588958
0.003402441008
0.003398253263
0.00339402891
0.003389770876
0.00338548185
0.003381164299
0.003376820485
0.00337245249
0.00336806222
0.00336365143
0.003359221732
0.003354774608
0.003350311421
0.003345833429
0.003341341789
0.003336837569
0.003332321756
0.003327795259
0.003323258923
0.003318713526
0.003314159792
0.003309598391
0.003305029945
0.003300455032
0.003295874191
0.003291287921
0.00328669669
0.003282100933
0.003277501056
0.003272897438
0.003268290436
0.003263680381
0.003259067586
0.003254452341
0.003249834923
0.003245215588
0.003240594579
0.003235972124
0.003231348438
0.003226723724
0.003222098172
0.003217471964
0.003212845269
0.003208218249
0.003203591056
0.003198963835
0.003194336724
0.003189709851
0.00318508334
0.003180457309
0.003175831868
0.003171207123
0.003166583176
0.003161960121
0.003157338051
0.003152717052
0.003148097207
0.003143478596
0.003138861295
0.003134245375
0.003129630907
0.003125017956
0.003120406586
0.003115796857
0.003111188827
0.003106582553
0.003101978087
0.003097375482
0.003092774786
0.003088176046
0.003083579308
0.003078984616
0.003074392011
0.003069801535
0.003065213225
0.00306062712
0.003056043255
0.003051461666
0.003046882385
0.003042305444
0.003037730876
0.00303315871
0.003028588975
0.003024021699
0.003019456909
0.00301489463
0.003010334889
0.00300577771
0.003001223116
0.002996671129
0.002992121772
0.002987575066
0.002983031032
0.002978489689
0.002973951056
0.002969415153
0.002964881996
0.002960351604
0.002955823993
0.00295129918
0.00294677718
0.002942258008
0.002937741679
0.002933228208
0.002928717607
0.002924209891
0.002919705072
0.002915203162
0.002910704173
0.002906208118
0.002901715006
0.002897224849
0.002892737658
0.002888253441
0.002883772209
0.002879293971
0.002874818736
0.002870346513
0.002865877309
0.002861411132
0.00285694799
0.002852487891
0.002848030841
0.002843576846
0.002839125914
0.00283467805
0.002830233259
0.002825791548
0.002821352922
0.002816917384
0.002812484941
0.002808055596
0.002803629353
0.002799206217
0.002794786191
0.002790369278
0.002785955482
0.002781544806
0.002777137252
0.002772732823
0.002768331522
0.002763933351
0.002759538311
0.002755146406
0.002750757636
0.002746372004
0.002741989511
0.002737610158
0.002733233949
0.002728860883
0.002724490962
0.002720124188
0.002715760563
0.002711400088
0.002707042764
0.002702688594
0.002698337578
0.002693989719
0.00268964502
0.002685303481
0.002680965105
0.002676629894
0.002672297851
0.002667968977
0.002663643276
0.00265932075
0.002655001401
0.002650685231
0.002646372242
0.002642062436
0.002637755816
0.002633452381
0.002629152134
0.002624855075
0.002620561203
0.002616270519
0.002611983021
0.002607698708
0.002603417577
0.002599139625
0.00259486485
0.002590593245
0.002586324805
0.002582059524
0.00257779739
0.002573538395
0.002569282522
0.002565029754
0.002560780064
0.002556533421
0.002552289778
0.002548049073
0.002543811218
0.002539576088
0.002535343498
0.002531113172
0.002526884697
0.002522657441
0.002518430405
0.002514201983
0.002509969541
0.002505728769
0.002501472909
0.002497192698
0.002492880601
0.002488549811
0.002484311442
0.0024805132
0.00247801361
0.002476987823
0.002476989781
0.002477026597
0.002477242541
0.002478071685
0.002480017959
0.002482513284
0.002483483101
0.002483453203
0.002483051746
0.002482174893
0.002481399465
0.002481408844
0.002481599026
0.002482224922
0.002482886981
0.002482926559
0.002482845495
0.002482582892
0.002482374996
0.002482384873
0.002482501842
0.002482676355
0.002482734185
0.002482722704
0.002482655955
0.002482609729
0.002482618472
0.002482661515
0.002482688727
0.002482687047
0.002482672797
0.002482667238
0.002482669053
0.00248267625
0.002482680721
0.002482679059
0.002482672942
0.002482673759
0.002482676783
0.002482681164
0.002482680736
0.002482677929
0.002482678971
0.002482681504
0.002482683781
0.002482681891
0.002482683072
0.002482685889
0.002482688608
0.002482686851
0.002482679318
0.00248268012
0.002482682742
0.002482687456
0.00248269309
0.002482692278
0.002482685371
0.002482685912
0.002482687577
0.002482690544
0.002482693283
0.002482692162
0.002482688511
0.002482689521
0.00248269192
0.002482694288
0.002482691882
0.002482693166
0.002482697974
0.002482702798
0.002482705811
0.002482701636
0.002482697889
0.002482699565
0.00248270393
0.002482708122
0.00248271103
0.002482714247
0.002482711765
0.002482713415
0.002482717679
0.002482722142
0.002482720409
0.002482722247
0.002482726776
0.002482731465
0.002482730028
0.00248273163
0.00248273576
0.002482739928
0.002482744
0.002482743518
0.002482745464
0.002482749949
0.002482753914
0.00248275102
0.00248275287
0.002482758799
0.002482764672
0.00248277028
0.002482769938
0.00248277247
0.002482778794
0.002482784476
0.002482785879
0.002482789141
0.00248279598
0.002482801635
0.002482803305
0.002482806362
0.002482812451
0.002482817675
0.002482822173
0.002482826444
0.002482830804
0.002482837404
0.002482844033
0.002482850177
0.002482855294
0.002482860503
0.00248286822
0.002482875553
0.002482881918
0.002482887315
0.002482893046
0.002482902748
0.002482909483
0.002482915005
0.002482920756
0.0024829305
0.002482938694
0.002482946244
0.002482953919
0.002482962815
0.002482973833
0.002482984463
0.002482994779
0.002483006064
0.002483018792
0.002483031253
0.002483043274
0.002483056408
0.002483071282
0.002483085934
0.002483100419
0.002483115327
0.002483131146
0.002483147947
0.002483164804
0.002483181802
0.002483199264
0.002483217471
0.002483236457
0.002483256144
0.002483276628
0.002483298034
0.002483320417
0.002483343805
0.002483368346
0.002483395045
0.002483423693
0.002483453798
0.002483485405
0.002483520235
0.002483559861
0.00248360514
0.002483659137
0.002483727355
0.002483817228
0.002483939548
0.00248411105
0.002484356222
0.002484709829
0.002485221165
0.002485958845
0.002487016018
0.00248851682
0.002490623793
0.002493545279
0.002497542126
0.002502933429
0.002510100933
0.002519490244
0.002531607167
0.00254700967
0.002566292261
0.002590075956
0.002618964384
0.002653531342
0.002694271008
0.002741566947
0.00279564111
0.002856513094
0.002923965073
0.002997502646
0.003076324981
0.003159330476
0.00324512436
0.00333206383
0.003418330112
0.003502039347
0.003581351913
0.003654622398
0.003720512015
0.00377809832
0.003826933732
0.003867053573
0.003898923579
0.003923353733
0.003941381862
0.003954151079
0.003962796808
0.003968360538
0.00397173319
0.003973628475
0.003974583874
0.003974976926
0.003975071712
0.003975071101
0.003975053369
0.003975007579
0.003974936808
0.003974851537
0.003974763219
0.003974680595
0.003974608275
0.003974547544
0.00397449768
0.003974457034
0.003974423778
0.003974396279
0.003974373246
0.003974353733
0.003974337064
0.003974322741
0.00397431037
0.003974299638
0.003974290294
0.003974282133
0.003974274981
0.003974268683
0.003974263114
0.003974258161
0.003974253716
0.003974249687
0.003974246016
0.003974242675
0.003974239636
0.003974236847
0.003974234261
0.003974231855
0.00397422961
0.003974227493
0.003974225484
0.003974223609
0.003974221902
0.003974220345
0.003974218878
0.003974217499
0.00397421628
0.003974215259
0.00397421434
0.003974213422
0.00397421253
0.003974211795
0.003974211256
0.003974210754
0.003974210268
0.003974209754
0.00397420971
0.00397420969
0.003974209596
0.003974209409
0.00397420944
0.003974209607
0.003974209823
0.003974209943
0.003974210004
0.003974210223
0.003974210632
0.003974211013
0.003974211137
0.003974211345
0.003974211797
0.003974212357
0.003974212706
0.003974212666
0.003974212834
0.003974213241
0.003974213723
0.00397421365
0.003974213478
0.003974213707
0.003974214306
0.003974214349
0.003974214176
0.003974213923
0.003974214131
0.003974214708
0.003974214519
0.003974213934
0.003974214237
0.003974215029
0.003974215446
0.003974215123
0.003974215305
0.003974215986
0.003974216897
0.003974216774
0.003974216279
0.003974216994
0.003974218538
0.003974219011
0.003974218584
0.003974219234
0.003974220666
0.003974221908
0.003974221581
0.003974221478
0.003974222338
0.003974224368
0.003974224779
0.003974224102
0.003974224711
0.003974226406
0.003974228023
0.003974227907
0.003974226599
0.003974227645
0.003974230497
0.003974231775
0.003974230495
0.003974230096
0.003974232116
0.003974235712
0.003974234955
0.003974231166
0.003974232402
0.003974238327
0.003974240982
0.003974236783
0.003974233598
0.003974237393
0.003974242472
0.003974239165
0.003974226781
0.003974218196
0.003974215358
0.003974172686
0.003974069139
0.003973870529
0.00397342066
0.003972386923
0.003970077802
0.003964924561
0.003953404079
0.003927721305
0.003870848577
0.003747456072
0.003500271827
0.003119783217
0.002847958405
0.002793610348
0.002790384697
0.002790319314
0.002790319
0.002790319
0.002790319
0.002790319
0.002790319
0.002790319
0.002790319
0.002790319
0.002790319
0.002790319
0.002790319
0.002790319
0.002790319
0.002790319
0.002790319
0.002790319
0.002790319
0.002790319
0.002790319
0.002790319
0.002790319
0.002790319
0.002790319
0.002790319
0.002790319
0.002790319
0.002790319
0.002790319
0.002790319
0.002790319
0.002790319
0.002790319
0.002790319
0.002790319
0.002790319
0.002790319
0.002790319
0.002790319
0.002790319
0.002790319
0.002790319
0.002790319
0.002790319
0.002790319
0.002790319
0.002790319
0.002790319
0.002790319
0.002790319
0.002790319
0.002790319
0.002790319
0.002790319
0.002790319
0.002790319
0.002790319
0.002790319
0.002790319
0.002790319
0.002790319
0.002790319
0.002790319
0.002790319
0.002790319
0.002790319
0.002790319
0.002790319
0.002790319
0.002790319
0.002790319
0.002790319
0.002790319
0.002790319
0.002790319
0.002790319
0.002790319
0.002790319
0.002790319
0.002790319
0.002790319
0.002790319
0.002790319
0.002790319
0.002790319
0.002790319
0.002790319
0.002790319
0.002790319
0.002790319
0.002790319
0.002790319
0.002790319
0.002790319
0.002790319
0.002790319
0.002790319
0.002790319
0.002790319
0.002790319
0.002790319
0.002790319
0.002790319
0.002790319
0.002790319
0.002790319
0.002790319
0.002790319
0.002790319
0.002790319
0.002790319
0.002790319
0.002790319
0.002790319
0.002790319
0.002790319
0.002790319
0.002790319
0.002790319
0.002790319
0.002790319
0.002790319
0.002790319
0.002790319
0.002790319
0.002790319
0.002790319
0.002790319
0.002790319
0.002790319
0.002790319
0.002790319
0.002790319
0.002790319
0.002790319
0.002790319
0.002790319
0.002790319
0.002790319
0.002790319
0.002790319
0.002790319
0.002790319
0.002790319
0.002790319
0.002790319
0.002790319
)
;

boundaryField
{
    sides
    {
        type            zeroGradient;
    }
    empty
    {
        type            empty;
    }
}


// ************************************************************************* //
