/*--------------------------------*- C++ -*----------------------------------*\
| =========                 |                                                 |
| \\      /  F ield         | OpenFOAM: The Open Source CFD Toolbox           |
|  \\    /   O peration     | Version:  v1812                                 |
|   \\  /    A nd           | Web:      www.OpenFOAM.com                      |
|    \\/     M anipulation  |                                                 |
\*---------------------------------------------------------------------------*/
FoamFile
{
    version     2.0;
    format      ascii;
    class       volVectorField;
    location    "0.2";
    object      U;
}
// * * * * * * * * * * * * * * * * * * * * * * * * * * * * * * * * * * * * * //

dimensions      [0 1 -1 0 0 0 0];


internalField   nonuniform List<vector> 
1000
(
(-1.337502251e-16 0 0)
(-2.376777589e-16 0 0)
(-5.240766548e-16 0 0)
(-6.380948818e-16 0 0)
(-6.709893329e-16 0 0)
(-6.613941733e-16 0 0)
(-5.275980644e-16 0 0)
(-7.198207496e-16 0 0)
(-6.007733157e-16 0 0)
(-6.340118262e-16 0 0)
(-8.101462893e-16 0 0)
(-5.741739854e-16 0 0)
(-8.855036009e-16 0 0)
(-1.114861905e-15 0 0)
(-1.591566346e-15 0 0)
(-1.401804873e-15 0 0)
(-1.373680815e-15 0 0)
(-1.546092263e-15 0 0)
(-1.543232694e-15 0 0)
(-1.479977598e-15 0 0)
(-1.443716815e-15 0 0)
(-1.545550568e-15 0 0)
(-1.697250859e-15 0 0)
(-1.777174549e-15 0 0)
(-1.644319285e-15 0 0)
(-1.530238834e-15 0 0)
(-1.406238842e-15 0 0)
(-1.512389536e-15 0 0)
(-1.297943989e-15 0 0)
(-1.390363453e-15 0 0)
(-1.381012233e-15 0 0)
(-1.311254491e-15 0 0)
(-1.268752351e-15 0 0)
(-1.418892473e-15 0 0)
(-1.550505443e-15 0 0)
(-1.579425934e-15 0 0)
(-1.657937434e-15 0 0)
(-1.4761091e-15 0 0)
(-1.456708348e-15 0 0)
(-1.307924248e-15 0 0)
(-9.106629531e-16 0 0)
(-8.541269859e-16 0 0)
(-9.341022049e-16 0 0)
(-1.100060735e-15 0 0)
(-1.382897637e-15 0 0)
(-1.314903584e-15 0 0)
(-1.301699828e-15 0 0)
(-1.230948391e-15 0 0)
(-1.396282004e-15 0 0)
(-1.259083219e-15 0 0)
(-1.226865425e-15 0 0)
(-1.300616118e-15 0 0)
(-1.221435352e-15 0 0)
(-1.245931289e-15 0 0)
(-1.309469151e-15 0 0)
(-1.209586896e-15 0 0)
(-1.236034258e-15 0 0)
(-1.689679951e-15 0 0)
(-1.498954419e-15 0 0)
(-1.333014697e-15 0 0)
(-1.648683731e-15 0 0)
(-1.76946066e-15 0 0)
(-1.635252005e-15 0 0)
(-1.826435129e-15 0 0)
(-1.589506219e-15 0 0)
(-1.712237321e-15 0 0)
(-1.625864976e-15 0 0)
(-1.621675618e-15 0 0)
(-1.474213822e-15 0 0)
(-1.261946416e-15 0 0)
(-9.451288271e-16 0 0)
(-8.297392145e-16 0 0)
(-5.898827738e-16 0 0)
(-2.010208457e-16 0 0)
(4.259123076e-16 0 0)
(1.455009173e-15 0 0)
(2.264530511e-15 0 0)
(2.582325353e-15 0 0)
(2.808385384e-15 0 0)
(3.234261767e-15 0 0)
(3.104078583e-15 0 0)
(3.151973285e-15 0 0)
(2.807945247e-15 0 0)
(2.676358021e-15 0 0)
(2.223730115e-15 0 0)
(2.103432296e-15 0 0)
(2.04856995e-15 0 0)
(1.906191684e-15 0 0)
(2.253045076e-15 0 0)
(2.20834193e-15 0 0)
(1.978156744e-15 0 0)
(1.990733034e-15 0 0)
(1.727317782e-15 0 0)
(1.385289495e-15 0 0)
(1.192249497e-15 0 0)
(1.264455243e-15 0 0)
(1.170717433e-15 0 0)
(1.15165962e-15 0 0)
(1.405602035e-15 0 0)
(1.422470087e-15 0 0)
(1.217264168e-15 0 0)
(1.145023454e-15 0 0)
(1.059141561e-15 0 0)
(1.219812903e-15 0 0)
(1.37393579e-15 0 0)
(1.157771468e-15 0 0)
(1.123535723e-15 0 0)
(1.037016042e-15 0 0)
(7.16168269e-16 0 0)
(5.635425108e-16 0 0)
(3.479911127e-16 0 0)
(2.944149929e-17 0 0)
(-1.667764509e-16 0 0)
(-9.392838273e-17 0 0)
(-1.306644691e-16 0 0)
(-8.866372521e-17 0 0)
(-1.262485477e-16 0 0)
(-2.35691361e-16 0 0)
(-2.45560811e-16 0 0)
(-2.155663363e-16 0 0)
(-2.026702487e-16 0 0)
(-4.552283123e-16 0 0)
(-5.9051227e-16 0 0)
(-3.774130801e-16 0 0)
(-5.19367322e-16 0 0)
(-6.889500305e-16 0 0)
(-8.166302542e-16 0 0)
(-9.735065229e-16 0 0)
(-1.173771439e-15 0 0)
(-1.113386487e-15 0 0)
(-1.317973838e-15 0 0)
(-1.170579998e-15 0 0)
(-1.085932206e-15 0 0)
(-1.197742712e-15 0 0)
(-1.184411954e-15 0 0)
(-1.332303333e-15 0 0)
(-1.553219462e-15 0 0)
(-1.919837197e-15 0 0)
(-2.01786979e-15 0 0)
(-2.002436475e-15 0 0)
(-1.731615962e-15 0 0)
(-1.694306341e-15 0 0)
(-1.240838785e-15 0 0)
(-9.612325851e-16 0 0)
(-1.103124693e-15 0 0)
(-1.100015349e-15 0 0)
(-6.673947718e-16 0 0)
(-6.302315282e-16 0 0)
(-4.858721949e-16 0 0)
(-2.695146296e-16 0 0)
(1.636855211e-16 0 0)
(1.048904793e-16 0 0)
(-6.695450596e-17 0 0)
(-2.315944171e-17 0 0)
(1.278384434e-16 0 0)
(3.522584133e-16 0 0)
(6.030904351e-16 0 0)
(8.221645198e-16 0 0)
(1.055509191e-15 0 0)
(1.519440892e-15 0 0)
(1.715748173e-15 0 0)
(1.676929583e-15 0 0)
(1.474966163e-15 0 0)
(9.018230889e-16 0 0)
(4.517076202e-16 0 0)
(-1.134201033e-16 0 0)
(-1.308703763e-15 0 0)
(-2.070915119e-15 0 0)
(-2.298304418e-15 0 0)
(-2.594614886e-15 0 0)
(-2.858506767e-15 0 0)
(-3.394785033e-15 0 0)
(-3.392605474e-15 0 0)
(-3.218356814e-15 0 0)
(-3.233702294e-15 0 0)
(-3.444146556e-15 0 0)
(-3.469661942e-15 0 0)
(-3.541753909e-15 0 0)
(-3.638638173e-15 0 0)
(-3.678491459e-15 0 0)
(-3.84993659e-15 0 0)
(-3.669530486e-15 0 0)
(-3.735306823e-15 0 0)
(-3.630332749e-15 0 0)
(-3.616628945e-15 0 0)
(-3.500569258e-15 0 0)
(-3.691553462e-15 0 0)
(-3.721416879e-15 0 0)
(-3.629554991e-15 0 0)
(-3.61121927e-15 0 0)
(-3.67923265e-15 0 0)
(-3.679343594e-15 0 0)
(-3.828020431e-15 0 0)
(-3.741124318e-15 0 0)
(-3.751691467e-15 0 0)
(-3.760859042e-15 0 0)
(-3.894689825e-15 0 0)
(-3.881092894e-15 0 0)
(-3.854950756e-15 0 0)
(-3.793059927e-15 0 0)
(-4.043739044e-15 0 0)
(-3.988847906e-15 0 0)
(-3.953199664e-15 0 0)
(-3.830379012e-15 0 0)
(-3.773663924e-15 0 0)
(-3.806739419e-15 0 0)
(-3.883709898e-15 0 0)
(-3.815935677e-15 0 0)
(-3.976669821e-15 0 0)
(-4.082407979e-15 0 0)
(-4.042281435e-15 0 0)
(-3.980771441e-15 0 0)
(-3.779866112e-15 0 0)
(-2.939512616e-15 0 0)
(-2.229309816e-15 0 0)
(-1.628326089e-15 0 0)
(-1.046200677e-15 0 0)
(-8.71582554e-16 0 0)
(-8.441063544e-16 0 0)
(-8.091420504e-16 0 0)
(-1.179693651e-15 0 0)
(-1.202907475e-15 0 0)
(-9.457312966e-16 0 0)
(3.686995771e-14 0 0)
(1.899243978e-12 0 0)
(3.48824567e-11 0 0)
(3.216844374e-10 0 0)
(1.882636595e-09 0 0)
(8.15357921e-09 0 0)
(2.864941303e-08 0 0)
(8.635545108e-08 0 0)
(2.313613774e-07 0 0)
(5.641687018e-07 0 0)
(1.272940126e-06 0 0)
(2.689468942e-06 0 0)
(5.36848702e-06 0 0)
(1.019377202e-05 0 0)
(1.851207666e-05 0 0)
(3.229210038e-05 0 0)
(5.430075649e-05 0 0)
(8.828342151e-05 0 0)
(0.0001391296112 0 0)
(0.0002130017766 0 0)
(0.0003174038335 0 0)
(0.0004611685256 0 0)
(0.000654349055 0 0)
(0.0009080100908 0 0)
(0.001233924949 0 0)
(0.001644197498 0 0)
(0.002150837114 0 0)
(0.002765320996 0 0)
(0.003498179392 0 0)
(0.004358635725 0 0)
(0.00535432616 0 0)
(0.006491113329 0 0)
(0.007772998513 0 0)
(0.009202127158 0 0)
(0.01077887526 0 0)
(0.01250199956 0 0)
(0.01436883245 0 0)
(0.01637550298 0 0)
(0.01851716726 0 0)
(0.02078823462 0 0)
(0.02318257937 0 0)
(0.02569373133 0 0)
(0.02831504131 0 0)
(0.03103982009 0 0)
(0.03386145139 0 0)
(0.03677348048 0 0)
(0.03976968096 0 0)
(0.0428441025 0 0)
(0.0459911026 0 0)
(0.04920536515 0 0)
(0.05248190846 0 0)
(0.05581608506 0 0)
(0.05920357536 0 0)
(0.06264037668 0 0)
(0.06612278923 0 0)
(0.06964739995 0 0)
(0.07321106528 0 0)
(0.07681089335 0 0)
(0.08044422624 0 0)
(0.08410862253 0 0)
(0.08780184052 0 0)
(0.09152182232 0 0)
(0.09526667869 0 0)
(0.09903467501 0 0)
(0.1028242182 0 0)
(0.1066338444 0 0)
(0.110462208 0 0)
(0.1143080715 0 0)
(0.1181702956 0 0)
(0.1220478312 0 0)
(0.125939711 0 0)
(0.129845043 0 0)
(0.1337630032 0 0)
(0.1376928305 0 0)
(0.1416338208 0 0)
(0.1455853222 0 0)
(0.1495467306 0 0)
(0.153517486 0 0)
(0.157497068 0 0)
(0.1614849934 0 0)
(0.1654808127 0 0)
(0.1694841072 0 0)
(0.173494487 0 0)
(0.177511588 0 0)
(0.1815350708 0 0)
(0.1855646178 0 0)
(0.189599932 0 0)
(0.1936407355 0 0)
(0.1976867677 0 0)
(0.2017377844 0 0)
(0.2057935562 0 0)
(0.2098538676 0 0)
(0.2139185161 0 0)
(0.2179873109 0 0)
(0.2220600724 0 0)
(0.2261366315 0 0)
(0.2302168283 0 0)
(0.2343005121 0 0)
(0.2383875405 0 0)
(0.2424777788 0 0)
(0.2465710994 0 0)
(0.2506673817 0 0)
(0.2547665113 0 0)
(0.2588683797 0 0)
(0.2629728841 0 0)
(0.2670799266 0 0)
(0.2711894144 0 0)
(0.2753012592 0 0)
(0.2794153769 0 0)
(0.2835316876 0 0)
(0.287650115 0 0)
(0.2917705865 0 0)
(0.2958930328 0 0)
(0.3000173878 0 0)
(0.3041435882 0 0)
(0.3082715739 0 0)
(0.3124012871 0 0)
(0.3165326726 0 0)
(0.3206656777 0 0)
(0.3248002518 0 0)
(0.3289363465 0 0)
(0.3330739154 0 0)
(0.3372129139 0 0)
(0.3413532995 0 0)
(0.3454950312 0 0)
(0.3496380695 0 0)
(0.3537823768 0 0)
(0.3579279167 0 0)
(0.3620746542 0 0)
(0.3662225559 0 0)
(0.3703715894 0 0)
(0.3745217236 0 0)
(0.3786729286 0 0)
(0.3828251755 0 0)
(0.3869784365 0 0)
(0.391132685 0 0)
(0.395287895 0 0)
(0.3994440416 0 0)
(0.4036011009 0 0)
(0.4077590497 0 0)
(0.4119178656 0 0)
(0.4160775269 0 0)
(0.420238013 0 0)
(0.4243993035 0 0)
(0.4285613792 0 0)
(0.4327242211 0 0)
(0.4368878112 0 0)
(0.4410521319 0 0)
(0.4452171663 0 0)
(0.4493828979 0 0)
(0.453549311 0 0)
(0.4577163903 0 0)
(0.4618841209 0 0)
(0.4660524886 0 0)
(0.4702214795 0 0)
(0.4743910804 0 0)
(0.4785612783 0 0)
(0.4827320608 0 0)
(0.4869034157 0 0)
(0.4910753316 0 0)
(0.4952477972 0 0)
(0.4994208017 0 0)
(0.5035943346 0 0)
(0.5077683858 0 0)
(0.5119429457 0 0)
(0.5161180049 0 0)
(0.5202935543 0 0)
(0.5244695854 0 0)
(0.5286460897 0 0)
(0.5328230592 0 0)
(0.5370004863 0 0)
(0.5411783636 0 0)
(0.5453566839 0 0)
(0.5495354406 0 0)
(0.553714627 0 0)
(0.557894237 0 0)
(0.5620742648 0 0)
(0.5662547046 0 0)
(0.5704355511 0 0)
(0.5746167992 0 0)
(0.5787984441 0 0)
(0.5829804811 0 0)
(0.5871629062 0 0)
(0.591345715 0 0)
(0.5955289039 0 0)
(0.5997124692 0 0)
(0.6038964077 0 0)
(0.6080807162 0 0)
(0.6122653919 0 0)
(0.616450432 0 0)
(0.6206358342 0 0)
(0.6248215961 0 0)
(0.6290077158 0 0)
(0.6331941914 0 0)
(0.6373810212 0 0)
(0.6415682037 0 0)
(0.6457557375 0 0)
(0.6499436215 0 0)
(0.6541318546 0 0)
(0.6583204359 0 0)
(0.6625093646 0 0)
(0.6666986398 0 0)
(0.6708882611 0 0)
(0.6750782277 0 0)
(0.6792685393 0 0)
(0.6834591952 0 0)
(0.687650195 0 0)
(0.6918415382 0 0)
(0.6960332243 0 0)
(0.7002252527 0 0)
(0.7044176229 0 0)
(0.708610334 0 0)
(0.7128033855 0 0)
(0.7169967764 0 0)
(0.7211905058 0 0)
(0.7253845725 0 0)
(0.7295789756 0 0)
(0.7337737136 0 0)
(0.7379687854 0 0)
(0.7421641894 0 0)
(0.7463599244 0 0)
(0.7505559889 0 0)
(0.7547523814 0 0)
(0.7589491009 0 0)
(0.763146146 0 0)
(0.7673435159 0 0)
(0.7715412098 0 0)
(0.7757392273 0 0)
(0.7799375684 0 0)
(0.7841362334 0 0)
(0.7883352232 0 0)
(0.792534539 0 0)
(0.7967341828 0 0)
(0.8009341569 0 0)
(0.8051344646 0 0)
(0.8093351096 0 0)
(0.8135360966 0 0)
(0.8177374313 0 0)
(0.8219391202 0 0)
(0.8261411715 0 0)
(0.830343595 0 0)
(0.834546403 0 0)
(0.8387496108 0 0)
(0.8429532381 0 0)
(0.8471573108 0 0)
(0.8513618629 0 0)
(0.8555669408 0 0)
(0.8597726082 0 0)
(0.8639789537 0 0)
(0.8681861037 0 0)
(0.872394245 0 0)
(0.8766036544 0 0)
(0.8808147472 0 0)
(0.8850281603 0 0)
(0.8892448956 0 0)
(0.8934665684 0 0)
(0.8976958272 0 0)
(0.9019370044 0 0)
(0.9061969111 0 0)
(0.9104848905 0 0)
(0.914808596 0 0)
(0.9191556623 0 0)
(0.9234143629 0 0)
(0.9272212288 0 0)
(0.9297736131 0 0)
(0.930672821 0 0)
(0.9307548516 0 0)
(0.9307369505 0 0)
(0.930541422 0 0)
(0.9297091776 0 0)
(0.9277197574 0 0)
(0.9251878186 0 0)
(0.9242049225 0 0)
(0.9242468054 0 0)
(0.9246516879 0 0)
(0.9255631271 0 0)
(0.9262837658 0 0)
(0.9263376359 0 0)
(0.9261570717 0 0)
(0.9255123284 0 0)
(0.9248693684 0 0)
(0.9248001698 0 0)
(0.92488347 0 0)
(0.9251583133 0 0)
(0.9253682215 0 0)
(0.9253542551 0 0)
(0.9252306649 0 0)
(0.9250568005 0 0)
(0.9249968496 0 0)
(0.9250092711 0 0)
(0.9250822287 0 0)
(0.9251325241 0 0)
(0.9251236821 0 0)
(0.9250797372 0 0)
(0.9250594235 0 0)
(0.9250636722 0 0)
(0.9250818004 0 0)
(0.925091323 0 0)
(0.9250901691 0 0)
(0.9250835798 0 0)
(0.9250799201 0 0)
(0.9250819643 0 0)
(0.9250885955 0 0)
(0.9250894977 0 0)
(0.925087544 0 0)
(0.9250864868 0 0)
(0.9250884659 0 0)
(0.9250939164 0 0)
(0.9250956977 0 0)
(0.9250951141 0 0)
(0.925095817 0 0)
(0.9251002853 0 0)
(0.9251006099 0 0)
(0.9250992379 0 0)
(0.9250995767 0 0)
(0.9251028873 0 0)
(0.925111411 0 0)
(0.9251142668 0 0)
(0.92511333 0 0)
(0.9251103624 0 0)
(0.9251080364 0 0)
(0.9251102409 0 0)
(0.9251179212 0 0)
(0.9251212172 0 0)
(0.9251209522 0 0)
(0.9251192108 0 0)
(0.9251195753 0 0)
(0.9251220484 0 0)
(0.9251272282 0 0)
(0.9251290177 0 0)
(0.925128297 0 0)
(0.9251290845 0 0)
(0.9251337694 0 0)
(0.9251351968 0 0)
(0.9251326765 0 0)
(0.9251297084 0 0)
(0.925130812 0 0)
(0.9251378958 0 0)
(0.9251449624 0 0)
(0.9251462202 0 0)
(0.9251446978 0 0)
(0.9251437624 0 0)
(0.9251441489 0 0)
(0.9251454755 0 0)
(0.9251515366 0 0)
(0.9251533338 0 0)
(0.9251515413 0 0)
(0.9251524545 0 0)
(0.9251577968 0 0)
(0.9251596187 0 0)
(0.9251578148 0 0)
(0.9251586141 0 0)
(0.9251631045 0 0)
(0.925165248 0 0)
(0.9251641462 0 0)
(0.9251628177 0 0)
(0.9251637339 0 0)
(0.9251680648 0 0)
(0.9251683345 0 0)
(0.925166233 0 0)
(0.9251672658 0 0)
(0.9251734144 0 0)
(0.9251757036 0 0)
(0.9251732277 0 0)
(0.925170685 0 0)
(0.9251719055 0 0)
(0.9251771079 0 0)
(0.9251782617 0 0)
(0.9251755277 0 0)
(0.9251763864 0 0)
(0.9251802708 0 0)
(0.9251821246 0 0)
(0.9251795831 0 0)
(0.925180384 0 0)
(0.9251835354 0 0)
(0.925186156 0 0)
(0.9251846581 0 0)
(0.9251850916 0 0)
(0.9251862501 0 0)
(0.9251879649 0 0)
(0.9251898078 0 0)
(0.925189405 0 0)
(0.9251894204 0 0)
(0.925190091 0 0)
(0.9251918232 0 0)
(0.9251938165 0 0)
(0.9251930007 0 0)
(0.9251928859 0 0)
(0.9251937355 0 0)
(0.9251956935 0 0)
(0.925197447 0 0)
(0.9251948751 0 0)
(0.9251960273 0 0)
(0.9251983833 0 0)
(0.9252008907 0 0)
(0.9251987743 0 0)
(0.9251994807 0 0)
(0.9252009403 0 0)
(0.9252026146 0 0)
(0.9252037639 0 0)
(0.9252029992 0 0)
(0.9252035379 0 0)
(0.9252048192 0 0)
(0.9252057118 0 0)
(0.9252054783 0 0)
(0.925206102 0 0)
(0.9252076216 0 0)
(0.925208637 0 0)
(0.9252081956 0 0)
(0.9252086497 0 0)
(0.925209634 0 0)
(0.9252106136 0 0)
(0.9252111512 0 0)
(0.9252109947 0 0)
(0.9252112459 0 0)
(0.9252117604 0 0)
(0.9252122982 0 0)
(0.9252126082 0 0)
(0.9252127628 0 0)
(0.925212953 0 0)
(0.9252131847 0 0)
(0.9252134481 0 0)
(0.9252138245 0 0)
(0.9252144245 0 0)
(0.9252152682 0 0)
(0.9252153191 0 0)
(0.9252150478 0 0)
(0.925215352 0 0)
(0.9252163485 0 0)
(0.9252172136 0 0)
(0.9252172201 0 0)
(0.9252176617 0 0)
(0.925218645 0 0)
(0.9252193082 0 0)
(0.9252197618 0 0)
(0.9252204343 0 0)
(0.9252211627 0 0)
(0.9252217262 0 0)
(0.9252223393 0 0)
(0.9252230317 0 0)
(0.9252235875 0 0)
(0.9252240145 0 0)
(0.9252245263 0 0)
(0.9252251634 0 0)
(0.9252257682 0 0)
(0.925226337 0 0)
(0.9252272542 0 0)
(0.9252288325 0 0)
(0.9252309332 0 0)
(0.9252337456 0 0)
(0.9252385861 0 0)
(0.9252460148 0 0)
(0.9252562707 0 0)
(0.9252704283 0 0)
(0.9252897121 0 0)
(0.9253143859 0 0)
(0.9253445776 0 0)
(0.9253797545 0 0)
(0.9254206268 0 0)
(0.9254645022 0 0)
(0.9255090413 0 0)
(0.9255538565 0 0)
(0.9255951329 0 0)
(0.9256306109 0 0)
(0.9256591755 0 0)
(0.9256802732 0 0)
(0.9256922312 0 0)
(0.925696957 0 0)
(0.9256964638 0 0)
(0.9256922587 0 0)
(0.9256854318 0 0)
(0.9256783489 0 0)
(0.9256718844 0 0)
(0.9256667838 0 0)
(0.9256633404 0 0)
(0.9256612308 0 0)
(0.9256602644 0 0)
(0.9256601832 0 0)
(0.9256603629 0 0)
(0.9256608328 0 0)
(0.9256613712 0 0)
(0.9256618788 0 0)
(0.9256625255 0 0)
(0.9256632429 0 0)
(0.9256639851 0 0)
(0.9256643157 0 0)
(0.925664865 0 0)
(0.9256653759 0 0)
(0.9256658081 0 0)
(0.9256662498 0 0)
(0.9256666631 0 0)
(0.9256670497 0 0)
(0.9256674262 0 0)
(0.9256677884 0 0)
(0.925668133 0 0)
(0.9256684651 0 0)
(0.9256687955 0 0)
(0.9256691284 0 0)
(0.925669453 0 0)
(0.9256697509 0 0)
(0.9256700142 0 0)
(0.9256702549 0 0)
(0.925670489 0 0)
(0.9256707225 0 0)
(0.9256709537 0 0)
(0.925671182 0 0)
(0.9256714076 0 0)
(0.9256716278 0 0)
(0.9256718431 0 0)
(0.9256720659 0 0)
(0.9256723089 0 0)
(0.9256725673 0 0)
(0.9256728204 0 0)
(0.9256730567 0 0)
(0.9256732894 0 0)
(0.9256735333 0 0)
(0.9256737885 0 0)
(0.9256740554 0 0)
(0.925674351 0 0)
(0.9256746843 0 0)
(0.9256750315 0 0)
(0.9256753609 0 0)
(0.9256756882 0 0)
(0.9256760606 0 0)
(0.9256764786 0 0)
(0.9256768815 0 0)
(0.925677235 0 0)
(0.9256776155 0 0)
(0.9256781 0 0)
(0.9256786589 0 0)
(0.925679183 0 0)
(0.9256796452 0 0)
(0.9256801575 0 0)
(0.9256807743 0 0)
(0.9256813978 0 0)
(0.9256819102 0 0)
(0.9256824294 0 0)
(0.9256830572 0 0)
(0.9256837857 0 0)
(0.9256844782 0 0)
(0.9256850568 0 0)
(0.9256856433 0 0)
(0.9256863928 0 0)
(0.9256872328 0 0)
(0.9256879138 0 0)
(0.9256884278 0 0)
(0.9256890103 0 0)
(0.9256897632 0 0)
(0.9256905077 0 0)
(0.9256910063 0 0)
(0.9256913563 0 0)
(0.925691917 0 0)
(0.9256926588 0 0)
(0.9256932407 0 0)
(0.9256934963 0 0)
(0.9256937619 0 0)
(0.9256942742 0 0)
(0.9256948352 0 0)
(0.9256950887 0 0)
(0.9256949754 0 0)
(0.9256952222 0 0)
(0.9256957067 0 0)
(0.9256962656 0 0)
(0.9256962162 0 0)
(0.9256961366 0 0)
(0.9256964795 0 0)
(0.9256971913 0 0)
(0.9256975306 0 0)
(0.9256972783 0 0)
(0.9256975762 0 0)
(0.9256982582 0 0)
(0.9256989447 0 0)
(0.925698715 0 0)
(0.9256988728 0 0)
(0.9256995387 0 0)
(0.9257007601 0 0)
(0.9257009397 0 0)
(0.9257007126 0 0)
(0.9257014275 0 0)
(0.925702825 0 0)
(0.9257035688 0 0)
(0.9257033215 0 0)
(0.9257038103 0 0)
(0.925704973 0 0)
(0.9257064322 0 0)
(0.9257066623 0 0)
(0.9257064042 0 0)
(0.9257073089 0 0)
(0.9257090675 0 0)
(0.9257102991 0 0)
(0.9257099153 0 0)
(0.9257100594 0 0)
(0.9257110816 0 0)
(0.9257131221 0 0)
(0.9257137367 0 0)
(0.925712688 0 0)
(0.925713457 0 0)
(0.925715705 0 0)
(0.925718175 0 0)
(0.92571709 0 0)
(0.9257155404 0 0)
(0.9257167263 0 0)
(0.9257204759 0 0)
(0.9257223767 0 0)
(0.925719214 0 0)
(0.9257185143 0 0)
(0.9257229541 0 0)
(0.9257277307 0 0)
(0.9257244675 0 0)
(0.9257179945 0 0)
(0.9257207134 0 0)
(0.9257247863 0 0)
(0.9257178792 0 0)
(0.9256961852 0 0)
(0.9256702817 0 0)
(0.9256151455 0 0)
(0.9254669329 0 0)
(0.9251334598 0 0)
(0.9244030242 0 0)
(0.9227641142 0 0)
(0.9190858035 0 0)
(0.9108732177 0 0)
(0.8926113601 0 0)
(0.8523169168 0 0)
(0.7653170626 0 0)
(0.5919577609 0 0)
(0.3234617357 0 0)
(0.08571838547 0 0)
(0.007976655289 0 0)
(0.0002595895374 0 0)
(2.056047797e-06 0 0)
(2.650483845e-09 0 0)
(6.112103933e-13 0 0)
(-6.182458551e-16 0 0)
(-3.232590608e-16 0 0)
(-4.919177561e-16 0 0)
(-2.429104396e-16 0 0)
(-3.990350308e-16 0 0)
(-3.3367064e-16 0 0)
(-1.959233503e-16 0 0)
(-1.440849706e-16 0 0)
(-2.586806754e-16 0 0)
(-2.906474107e-16 0 0)
(-1.678041044e-16 0 0)
(-3.439117408e-16 0 0)
(-2.112344906e-16 0 0)
(-6.980991285e-16 0 0)
(-5.745073885e-16 0 0)
(-7.863466513e-16 0 0)
(-4.52021961e-16 0 0)
(-5.464899426e-16 0 0)
(-3.485685366e-16 0 0)
(-5.647209346e-16 0 0)
(-3.19676295e-16 0 0)
(-3.328540603e-16 0 0)
(-4.242999824e-16 0 0)
(-2.816300096e-16 0 0)
(-3.550299769e-16 0 0)
(-4.727661297e-16 0 0)
(-5.529303322e-16 0 0)
(-7.909392391e-16 0 0)
(-4.766573166e-16 0 0)
(-6.922283005e-16 0 0)
(-4.907587461e-16 0 0)
(-6.828607421e-16 0 0)
(-8.12471892e-16 0 0)
(-6.47359426e-16 0 0)
(-3.718735445e-16 0 0)
(-8.32091542e-17 0 0)
(-1.017730432e-16 0 0)
(1.871024888e-17 0 0)
(1.971687112e-16 0 0)
(1.943862751e-16 0 0)
(7.129945396e-17 0 0)
(6.969875999e-18 0 0)
(1.158671477e-16 0 0)
(-2.693446272e-16 0 0)
(-2.460572381e-16 0 0)
(-3.156899188e-16 0 0)
(-3.774808164e-16 0 0)
(-5.488425657e-16 0 0)
(-4.306455839e-16 0 0)
(-7.67777262e-16 0 0)
(-5.09658399e-16 0 0)
(-6.533459442e-16 0 0)
(-8.826998104e-16 0 0)
(-4.313761185e-16 0 0)
(-3.583669493e-16 0 0)
(-2.42778742e-16 0 0)
(2.077930798e-17 0 0)
(-1.115609113e-16 0 0)
(-2.662802375e-16 0 0)
(-5.030664967e-16 0 0)
(-1.743324001e-16 0 0)
(-1.822479612e-16 0 0)
(-2.247519377e-16 0 0)
(1.452424027e-17 0 0)
(-4.018729649e-17 0 0)
(-9.231330574e-17 0 0)
(6.53675005e-17 0 0)
(-2.453460307e-17 0 0)
(1.760633837e-16 0 0)
(-5.610599564e-18 0 0)
(-1.72596959e-16 0 0)
(5.744898982e-17 0 0)
(-9.220137053e-17 0 0)
(-1.838029751e-16 0 0)
(-3.982015251e-17 0 0)
(-9.583209841e-17 0 0)
(1.37226541e-16 0 0)
(1.349876492e-16 0 0)
(-9.412469608e-17 0 0)
(1.917921852e-16 0 0)
(3.001855886e-16 0 0)
(3.23321093e-16 0 0)
(1.255738061e-16 0 0)
(-2.690322741e-16 0 0)
(-4.575618325e-17 0 0)
(-2.934136291e-16 0 0)
(-3.12165498e-16 0 0)
(-5.57958468e-16 0 0)
(-8.306665525e-16 0 0)
(-3.281091508e-16 0 0)
(-2.771997278e-16 0 0)
(-1.982694526e-16 0 0)
(-3.689203886e-17 0 0)
(3.198518064e-16 0 0)
(4.106909104e-16 0 0)
(4.795894159e-16 0 0)
(4.850608855e-16 0 0)
(7.830263922e-16 0 0)
(7.918703627e-16 0 0)
(3.154917479e-16 0 0)
(1.80621613e-16 0 0)
(-8.424846684e-17 0 0)
(1.412964819e-16 0 0)
(1.706265715e-16 0 0)
(2.405074574e-16 0 0)
(5.703502164e-16 0 0)
(4.764686304e-16 0 0)
(1.460290395e-16 0 0)
(2.587963714e-16 0 0)
(-1.677250118e-16 0 0)
(-2.115451185e-16 0 0)
(-2.275555238e-16 0 0)
(-1.70647573e-16 0 0)
(6.351485775e-17 0 0)
(-2.494682138e-16 0 0)
(-3.312353867e-16 0 0)
(-2.833606231e-16 0 0)
(-2.937890769e-16 0 0)
(-3.211263658e-17 0 0)
(3.332245953e-17 0 0)
(-5.104987759e-17 0 0)
(1.002346341e-16 0 0)
(3.402810179e-16 0 0)
(5.454924864e-17 0 0)
(1.978284715e-16 0 0)
(1.649084981e-16 0 0)
(2.570569298e-16 0 0)
(1.73358473e-16 0 0)
(9.155656091e-17 0 0)
(1.186590415e-16 0 0)
(1.591062652e-16 0 0)
(1.770162422e-16 0 0)
(2.949399847e-16 0 0)
(3.042342527e-16 0 0)
(2.468654117e-16 0 0)
(1.798825146e-16 0 0)
(2.417006037e-16 0 0)
(3.158794872e-16 0 0)
(2.952553344e-16 0 0)
(3.97216093e-16 0 0)
(1.80990415e-16 0 0)
(3.773054082e-16 0 0)
(7.682691009e-16 0 0)
(4.305895369e-16 0 0)
)
;

boundaryField
{
    sides
    {
        type            fixedValue;
        value           uniform (0 0 0);
    }
    empty
    {
        type            empty;
    }
}


// ************************************************************************* //
