/*--------------------------------*- C++ -*----------------------------------*\
| =========                 |                                                 |
| \\      /  F ield         | OpenFOAM: The Open Source CFD Toolbox           |
|  \\    /   O peration     | Version:  v1812                                 |
|   \\  /    A nd           | Web:      www.OpenFOAM.com                      |
|    \\/     M anipulation  |                                                 |
\*---------------------------------------------------------------------------*/
FoamFile
{
    version     2.0;
    format      ascii;
    class       volScalarField;
    location    "0.7";
    object      p;
}
// * * * * * * * * * * * * * * * * * * * * * * * * * * * * * * * * * * * * * //

dimensions      [1 -1 -2 0 0 0 0];


internalField   nonuniform List<scalar> 
20400
(
106757
106757
106757
106757
106758
106759
106760
106762
106763
106765
106767
106769
106772
106775
106777
106781
106784
106788
106792
106796
106801
106805
106810
106814
106819
106823
106827
106832
106836
106840
106844
106847
106851
106853
106856
106858
106860
106861
106862
106862
106861
106861
106858
106858
106853
106853
106845
106846
106834
106836
106823
106825
106815
106816
106810
106810
106810
106811
106815
106820
106828
106837
106846
106865
106880
106897
106918
106938
106961
106985
107009
107032
107055
107077
107098
107118
107135
107151
107164
107175
107185
107192
107198
107202
107205
107206
107206
107204
107199
107194
107188
107181
107173
107164
107153
107142
107130
107118
107104
107092
107077
107065
107050
107038
107025
107012
107002
106992
106985
106980
106979
106979
106978
106979
106982
106986
106990
106994
107000
107004
107011
107014
107018
107021
107021
107023
107024
107025
107025
107026
107024
107024
107023
107023
107022
107022
107022
107023
107023
107024
107025
107026
107028
107030
107033
107036
107040
107044
107049
107055
107060
107066
107072
107079
107085
107093
107099
107107
107113
107122
107128
107138
107143
107153
107159
107168
107174
107183
107188
107197
107202
107210
107215
107222
107227
107233
107238
107243
107249
107254
107259
107262
107265
107269
107270
107271
107270
107269
107267
107264
107259
107255
107248
107241
107232
107224
107211
107201
107186
107177
107160
107149
107132
107120
107102
107091
107073
107062
107046
107033
107021
107008
106998
106987
106977
106968
106959
106950
106942
106933
106924
106916
106907
106898
106888
106877
106867
106856
106844
106832
106821
106808
106795
106782
106769
106756
106742
106729
106715
106701
106688
106674
106660
106646
106632
106618
106604
106590
106576
106561
106547
106533
106519
106505
106492
106478
106464
106450
106437
106423
106409
106395
106380
106367
106351
106337
106322
106307
106292
106276
106261
106245
106229
106212
106195
106179
106161
106143
106124
106105
106086
106066
106045
106024
106002
105980
105956
105933
105908
105883
105857
105830
105802
105774
105744
105713
105681
105649
105615
105581
105545
105507
105472
105432
105394
105351
105310
105266
105223
105178
105132
105085
105037
104988
104939
104887
104836
104783
104729
104677
104620
104566
104505
104449
104389
104331
104271
104211
104149
104088
104025
103962
103898
103835
103771
103707
103641
103577
103511
103447
103381
103316
103251
103187
103122
103058
102994
102931
102867
102806
102744
102683
102623
102564
102506
102449
102392
102337
102283
102231
102179
102129
102080
102032
101986
101942
101898
101857
101817
101779
101742
101707
101673
101641
101610
101582
101555
101530
101506
101484
101463
101445
101428
101412
101399
101386
101375
101365
101357
101351
101345
101341
101338
101337
101337
101339
101343
101346
101352
101358
101366
101375
101385
101396
101408
101421
101436
101451
101467
101483
101501
101519
101538
101557
101578
101600
101622
101644
101667
101690
101713
101736
101760
101783
101806
101830
101853
101876
101899
101922
101945
101968
101990
102012
102032
102053
102072
102092
102110
102128
102145
102162
102177
102191
102205
102217
102229
102239
102249
102258
102265
102272
102277
102281
102285
102287
102288
102288
102286
102284
102281
102276
102271
102264
102256
102247
102237
102225
102213
102199
102185
102169
102151
102133
102113
102093
102071
102048
102024
101999
101973
101946
101919
101890
101861
101830
101799
101767
101734
101701
101667
101632
101597
101562
101526
101490
101454
101418
101382
101342
106757
106757
106757
106758
106758
106759
106760
106762
106763
106765
106767
106769
106772
106774
106778
106781
106785
106788
106792
106796
106801
106805
106809
106814
106818
106823
106827
106832
106836
106840
106844
106848
106851
106854
106856
106858
106860
106861
106863
106862
106864
106860
106862
106856
106859
106849
106853
106840
106845
106830
106835
106821
106825
106814
106816
106811
106813
106813
106817
106821
106827
106835
106845
106861
106878
106896
106920
106941
106965
106986
107010
107029
107051
107071
107091
107110
107127
107142
107156
107168
107178
107186
107193
107198
107201
107203
107203
107203
107201
107196
107190
107182
107174
107164
107154
107142
107130
107117
107105
107089
107077
107062
107049
107035
107022
107011
107000
106993
106987
106981
106977
106973
106974
106974
106978
106981
106984
106991
106995
107002
107008
107013
107015
107020
107020
107022
107024
107023
107027
107023
107026
107023
107025
107022
107023
107021
107022
107022
107023
107023
107024
107026
107028
107030
107033
107036
107040
107044
107050
107054
107061
107065
107073
107078
107087
107091
107101
107105
107116
107120
107131
107135
107147
107150
107162
107165
107177
107179
107192
107193
107205
107207
107217
107220
107228
107232
107238
107242
107249
107253
107259
107262
107264
107268
107269
107269
107269
107270
107268
107265
107260
107254
107249
107239
107233
107221
107213
107197
107190
107171
107162
107142
107132
107113
107102
107083
107073
107055
107043
107031
107017
107008
106996
106987
106977
106968
106960
106951
106942
106933
106925
106916
106907
106898
106888
106877
106867
106856
106844
106833
106821
106809
106796
106783
106770
106756
106742
106729
106715
106701
106688
106674
106660
106646
106632
106618
106604
106589
106575
106561
106546
106533
106518
106505
106491
106478
106463
106450
106436
106423
106408
106393
106381
106364
106352
106336
106321
106306
106291
106275
106260
106244
106228
106211
106195
106177
106160
106141
106123
106104
106085
106064
106044
106022
106001
105978
105955
105930
105907
105880
105855
105827
105801
105770
105742
105710
105679
105646
105613
105577
105543
105506
105465
105432
105386
105350
105305
105263
105219
105175
105127
105081
105032
104984
104933
104883
104830
104779
104724
104669
104618
104556
104504
104441
104385
104325
104265
104204
104144
104081
104019
103955
103893
103828
103764
103699
103635
103570
103506
103439
103375
103309
103245
103179
103116
103051
102988
102923
102862
102799
102738
102676
102617
102557
102500
102442
102386
102331
102277
102224
102173
102123
102074
102026
101981
101936
101893
101852
101812
101773
101737
101702
101669
101636
101606
101578
101551
101526
101502
101480
101460
101442
101425
101409
101395
101383
101371
101361
101353
101347
101342
101340
101339
101339
101340
101343
101346
101350
101355
101361
101369
101378
101388
101399
101411
101424
101438
101453
101469
101486
101504
101522
101541
101560
101580
101600
101621
101644
101666
101689
101712
101735
101758
101782
101805
101828
101852
101875
101898
101921
101943
101965
101987
102008
102030
102051
102073
102092
102112
102130
102147
102163
102178
102192
102206
102219
102230
102241
102251
102259
102267
102273
102279
102283
102286
102288
102289
102289
102288
102286
102282
102278
102272
102266
102258
102249
102239
102227
102215
102201
102187
102171
102153
102135
102115
102095
102073
102050
102027
102001
101975
101949
101921
101892
101863
101833
101801
101769
101737
101703
101669
101634
101599
101562
101525
101489
101452
101415
101379
101340
106758
106758
106759
106758
106760
106760
106761
106762
106764
106765
106767
106770
106772
106775
106778
106781
106784
106788
106792
106796
106801
106805
106810
106814
106819
106823
106828
106832
106836
106841
106844
106848
106852
106854
106857
106859
106861
106864
106863
106866
106862
106866
106859
106864
106854
106859
106847
106852
106837
106843
106827
106830
106817
106817
106809
106808
106805
106804
106806
106809
106816
106826
106840
106859
106874
106890
106904
106926
106944
106971
106992
107020
107042
107069
107087
107111
107125
107144
107156
107170
107179
107188
107194
107199
107202
107204
107203
107202
107200
107196
107190
107183
107175
107165
107155
107143
107131
107119
107104
107093
107077
107065
107051
107038
107026
107013
107005
106993
106986
106980
106975
106975
106970
106976
106974
106981
106982
106989
106994
107001
107007
107011
107015
107018
107020
107023
107022
107027
107019
107030
107019
107028
107021
107024
107021
107023
107021
107022
107022
107024
107024
107026
107028
107030
107033
107036
107040
107044
107048
107055
107059
107067
107071
107081
107083
107096
107096
107111
107109
107127
107124
107143
107138
107158
107153
107174
107168
107188
107182
107201
107196
107214
107210
107225
107223
107233
107235
107243
107246
107252
107257
107261
107265
107271
107268
107271
107267
107271
107267
107264
107259
107254
107247
107241
107230
107223
107207
107201
107181
107175
107155
107144
107126
107116
107096
107085
107069
107057
107045
107031
107020
107007
106996
106985
106976
106966
106958
106949
106941
106931
106923
106915
106907
106897
106888
106877
106867
106855
106845
106832
106822
106808
106797
106783
106770
106756
106743
106728
106716
106701
106688
106673
106661
106646
106632
106618
106604
106590
106576
106561
106548
106533
106520
106505
106492
106477
106465
106450
106437
106422
106409
106395
106379
106368
106351
106337
106321
106307
106291
106277
106260
106245
106228
106213
106195
106179
106160
106143
106123
106105
106085
106066
106044
106024
106001
105980
105955
105933
105907
105883
105855
105830
105800
105774
105742
105713
105680
105649
105614
105580
105543
105507
105472
105429
105395
105349
105310
105266
105223
105177
105132
105084
105037
104987
104938
104886
104835
104781
104730
104675
104618
104566
104502
104450
104388
104330
104270
104210
104148
104087
104023
103961
103897
103834
103770
103706
103640
103576
103510
103446
103380
103316
103250
103186
103121
103058
102993
102930
102867
102806
102744
102683
102623
102564
102506
102449
102392
102338
102283
102231
102179
102130
102080
102033
101987
101943
101900
101858
101818
101780
101743
101708
101674
101643
101612
101584
101557
101532
101508
101486
101466
101447
101430
101415
101401
101388
101377
101367
101359
101352
101346
101341
101337
101336
101336
101338
101341
101345
101350
101357
101364
101373
101383
101394
101406
101420
101434
101449
101465
101482
101499
101518
101537
101557
101579
101602
101624
101647
101670
101693
101716
101739
101762
101785
101809
101832
101855
101878
101901
101924
101947
101969
101991
102012
102032
102051
102070
102090
102108
102126
102143
102159
102174
102189
102202
102215
102226
102237
102247
102255
102263
102269
102275
102279
102282
102284
102285
102286
102284
102282
102278
102274
102268
102262
102254
102245
102235
102223
102211
102197
102182
102167
102149
102131
102111
102091
102069
102046
102022
101997
101972
101945
101917
101888
101859
101829
101797
101765
101733
101699
101665
101631
101596
101562
101527
101491
101455
101419
101383
101343
106758
106759
106759
106759
106760
106761
106761
106763
106764
106766
106768
106770
106772
106775
106778
106781
106785
106788
106792
106796
106801
106805
106810
106815
106819
106824
106828
106832
106837
106841
106845
106849
106852
106856
106858
106860
106864
106863
106868
106864
106869
106863
106868
106859
106865
106852
106857
106843
106847
106833
106834
106823
106822
106814
106811
106807
106805
106803
106804
106808
106813
106823
106833
106846
106862
106888
106900
106925
106946
106970
106995
107018
107044
107064
107088
107104
107128
107140
107159
107168
107181
107188
107196
107200
107204
107205
107204
107202
107200
107196
107191
107184
107176
107166
107156
107144
107132
107118
107107
107091
107080
107065
107051
107039
107025
107014
106999
106994
106984
106977
106973
106963
106969
106961
106973
106970
106980
106984
106991
106996
107004
107008
107013
107017
107018
107019
107024
107019
107031
107014
107032
107015
107027
107019
107024
107019
107021
107020
107022
107021
107024
107025
107027
107030
107032
107035
107039
107043
107048
107053
107060
107064
107073
107075
107089
107087
107105
107100
107120
107114
107137
107128
107153
107142
107169
107157
107184
107171
107198
107185
107211
107199
107222
107212
107231
107226
107239
107238
107248
107248
107258
107258
107269
107266
107273
107267
107273
107271
107268
107265
107261
107254
107248
107238
107231
107218
107212
107191
107189
107170
107160
107141
107132
107111
107099
107084
107069
107056
107041
107029
107014
107005
106993
106985
106973
106965
106955
106947
106938
106931
106922
106914
106904
106897
106886
106878
106866
106857
106843
106835
106820
106811
106794
106785
106770
106758
106742
106730
106715
106702
106687
106675
106659
106646
106632
106618
106604
106590
106575
106561
106546
106533
106518
106506
106491
106478
106463
106450
106435
106423
106408
106393
106381
106364
106352
106335
106322
106305
106292
106274
106261
106243
106228
106210
106195
106176
106160
106141
106123
106103
106085
106064
106044
106021
106001
105977
105955
105930
105907
105879
105855
105827
105801
105770
105742
105709
105679
105645
105613
105577
105543
105506
105466
105431
105387
105351
105306
105264
105219
105175
105129
105082
105033
104985
104934
104884
104832
104780
104726
104672
104618
104556
104505
104443
104387
104327
104267
104206
104145
104083
104021
103958
103895
103830
103767
103702
103638
103572
103508
103442
103377
103312
103247
103182
103117
103053
102990
102926
102864
102801
102740
102679
102619
102560
102502
102445
102389
102333
102280
102226
102176
102125
102077
102029
101983
101938
101895
101854
101814
101775
101739
101704
101670
101638
101608
101579
101552
101527
101504
101482
101461
101443
101426
101410
101396
101383
101372
101362
101354
101348
101343
101341
101340
101339
101340
101343
101346
101350
101355
101361
101369
101378
101388
101399
101411
101424
101439
101454
101470
101487
101504
101523
101542
101561
101580
101600
101621
101643
101666
101689
101712
101735
101758
101781
101805
101828
101851
101874
101898
101920
101943
101965
101987
102009
102031
102052
102074
102093
102112
102130
102147
102163
102179
102193
102207
102219
102231
102241
102251
102259
102267
102273
102279
102283
102286
102288
102289
102289
102288
102286
102282
102278
102272
102266
102258
102249
102239
102227
102215
102201
102186
102170
102153
102135
102115
102094
102073
102050
102026
102001
101975
101948
101920
101892
101863
101832
101801
101769
101736
101703
101669
101634
101599
101562
101526
101489
101452
101415
101379
101340
106759
106760
106761
106759
106761
106761
106763
106763
106765
106766
106769
106770
106773
106775
106778
106781
106785
106789
106792
106797
106801
106806
106810
106815
106820
106824
106829
106834
106838
106842
106847
106850
106855
106858
106861
106864
106865
106869
106867
106871
106866
106872
106864
106868
106859
106861
106851
106850
106842
106837
106830
106822
106818
106809
106804
106798
106794
106792
106790
106793
106798
106806
106820
106834
106852
106864
106894
106908
106937
106959
106989
107011
107037
107060
107082
107105
107120
107142
107153
107170
107179
107190
107196
107202
107205
107206
107205
107204
107200
107196
107191
107185
107177
107168
107158
107147
107135
107123
107108
107098
107081
107068
107054
107040
107026
107009
107001
106987
106979
106975
106962
106970
106953
106971
106957
106975
106971
106983
106986
106995
107001
107007
107009
107015
107016
107021
107017
107027
107012
107033
107008
107031
107011
107027
107015
107022
107017
107020
107019
107021
107022
107023
107025
107027
107031
107034
107038
107041
107047
107052
107056
107065
107067
107080
107078
107096
107091
107112
107104
107129
107118
107146
107132
107163
107146
107179
107160
107194
107174
107208
107187
107220
107200
107230
107214
107238
107228
107246
107241
107255
107252
107267
107264
107270
107266
107274
107268
107271
107269
107264
107259
107254
107246
107239
107228
107222
107205
107201
107183
107174
107155
107146
107125
107112
107098
107082
107068
107052
107043
107024
107015
107001
106992
106978
106972
106960
106953
106944
106938
106927
106921
106912
106906
106893
106889
106875
106869
106853
106848
106829
106826
106807
106799
106781
106773
106755
106746
106728
106717
106700
106689
106673
106661
106645
106633
106618
106605
106590
106576
106561
106548
106533
106520
106505
106492
106477
106465
106450
106437
106421
106409
106395
106379
106368
106350
106337
106321
106308
106290
106277
106259
106245
106227
106213
106194
106178
106159
106143
106122
106105
106084
106065
106043
106023
106000
105979
105954
105932
105905
105882
105854
105828
105799
105772
105740
105712
105678
105648
105612
105579
105542
105506
105470
105427
105393
105347
105307
105264
105221
105175
105129
105081
105035
104985
104936
104884
104833
104779
104727
104672
104615
104563
104499
104447
104386
104327
104267
104207
104145
104084
104021
103958
103895
103831
103767
103702
103638
103573
103507
103443
103377
103312
103248
103183
103118
103054
102990
102927
102864
102802
102741
102680
102620
102561
102503
102446
102390
102335
102281
102228
102176
102126
102078
102030
101984
101940
101897
101856
101815
101777
101740
101705
101672
101640
101610
101581
101554
101529
101506
101484
101463
101445
101428
101412
101398
101386
101374
101365
101357
101350
101346
101342
101339
101338
101338
101340
101343
101347
101352
101359
101366
101375
101385
101396
101408
101421
101436
101451
101467
101483
101501
101519
101539
101559
101580
101602
101624
101646
101669
101692
101715
101738
101761
101784
101808
101831
101854
101878
101900
101923
101946
101968
101990
102012
102032
102052
102071
102090
102109
102127
102144
102160
102175
102190
102204
102216
102228
102238
102248
102256
102264
102270
102276
102280
102283
102285
102286
102286
102285
102283
102279
102275
102270
102263
102255
102246
102236
102224
102212
102199
102184
102168
102151
102132
102113
102092
102070
102047
102023
101999
101973
101946
101918
101889
101860
101830
101798
101766
101734
101700
101666
101632
101597
101562
101526
101491
101454
101418
101382
101343
106760
106761
106761
106760
106761
106762
106763
106764
106765
106767
106768
106771
106773
106775
106778
106781
106785
106788
106792
106797
106801
106806
106810
106815
106820
106825
106830
106835
106840
106845
106849
106853
106856
106861
106864
106866
106870
106869
106874
106871
106873
106870
106870
106866
106864
106859
106854
106849
106841
106836
106824
106819
106809
106803
106795
106788
106785
106780
106781
106783
106788
106796
106805
106821
106831
106864
106877
106904
106926
106955
106980
107008
107031
107057
107078
107102
107120
107137
107155
107166
107181
107188
107198
107202
107206
107207
107207
107205
107202
107198
107193
107186
107179
107169
107160
107148
107137
107123
107110
107094
107083
107067
107054
107039
107019
107010
106993
106985
106977
106962
106968
106946
106968
106943
106973
106955
106976
106973
106986
106987
106997
107000
107009
107007
107015
107013
107021
107011
107029
107004
107031
107005
107028
107008
107023
107011
107019
107015
107017
107018
107019
107020
107022
107025
107028
107032
107035
107039
107044
107050
107055
107060
107069
107070
107086
107082
107102
107095
107119
107109
107136
107122
107153
107136
107170
107151
107186
107165
107202
107177
107217
107190
107229
107202
107238
107215
107246
107230
107253
107244
107263
107259
107270
107266
107274
107269
107271
107271
107269
107264
107260
107253
107247
107238
107231
107217
107213
107194
107187
107169
107158
107140
107126
107112
107094
107080
107063
107052
107032
107022
107008
106997
106986
106980
106964
106962
106949
106943
106934
106928
106918
106913
106903
106898
106882
106880
106864
106860
106841
106837
106817
106813
106795
106787
106768
106761
106741
106733
106714
106704
106686
106675
106658
106647
106630
106619
106603
106590
106575
106562
106547
106534
106519
106506
106491
106479
106463
106451
106435
106423
106408
106393
106381
106364
106352
106335
106322
106305
106292
106274
106261
106243
106229
106210
106196
106176
106161
106140
106124
106103
106085
106063
106044
106022
106001
105977
105956
105930
105907
105880
105856
105827
105801
105770
105742
105710
105680
105646
105614
105578
105543
105507
105466
105432
105388
105351
105307
105265
105220
105175
105129
105083
105034
104986
104935
104885
104833
104781
104726
104673
104619
104557
104506
104443
104387
104327
104268
104207
104146
104084
104022
103958
103895
103831
103768
103703
103638
103573
103508
103442
103378
103312
103248
103183
103119
103054
102991
102927
102865
102802
102741
102680
102620
102561
102503
102446
102390
102335
102281
102228
102177
102126
102078
102030
101985
101940
101897
101855
101816
101777
101741
101705
101672
101640
101610
101581
101554
101529
101505
101483
101463
101444
101427
101412
101398
101385
101374
101365
101356
101350
101345
101341
101339
101338
101338
101340
101343
101347
101352
101359
101366
101375
101385
101396
101409
101422
101436
101451
101467
101484
101502
101521
101540
101560
101581
101602
101623
101645
101668
101691
101714
101737
101760
101783
101807
101830
101853
101876
101900
101922
101945
101967
101989
102010
102031
102052
102072
102091
102110
102128
102145
102161
102177
102191
102205
102217
102229
102240
102249
102258
102265
102272
102277
102281
102285
102287
102288
102287
102286
102284
102281
102276
102271
102264
102256
102247
102237
102226
102213
102200
102185
102169
102152
102134
102114
102093
102071
102048
102025
102000
101974
101947
101919
101891
101861
101831
101800
101768
101735
101702
101668
101633
101598
101562
101526
101490
101453
101417
101380
101341
106761
106761
106763
106760
106762
106762
106763
106764
106765
106767
106769
106770
106773
106775
106778
106781
106785
106789
106793
106797
106801
106806
106811
106816
106821
106826
106832
106836
106842
106846
106852
106855
106861
106863
106868
106870
106873
106875
106876
106875
106876
106873
106872
106868
106864
106859
106854
106845
106840
106829
106824
106812
106803
106794
106785
106781
106769
106768
106764
106766
106771
106778
106792
106796
106824
106838
106869
106887
106918
106943
106973
106996
107030
107051
107076
107096
107118
107135
107152
107168
107177
107190
107197
107203
107206
107208
107208
107206
107203
107199
107194
107188
107180
107172
107162
107151
107140
107126
107113
107099
107083
107066
107052
107037
107019
107005
106991
106979
106967
106969
106944
106966
106935
106969
106940
106974
106958
106978
106978
106986
106992
106999
107000
107008
107006
107014
107007
107021
107001
107025
107000
107025
107002
107021
107006
107017
107009
107014
107013
107014
107015
107016
107019
107021
107025
107028
107032
107036
107041
107046
107053
107058
107063
107073
107074
107089
107086
107107
107100
107124
107114
107142
107128
107159
107142
107176
107155
107193
107169
107209
107182
107223
107193
107235
107205
107245
107217
107254
107231
107264
107250
107272
107264
107274
107270
107271
107275
107271
107269
107268
107260
107256
107247
107241
107228
107223
107204
107200
107180
107168
107152
107138
107125
107106
107092
107074
107062
107041
107031
107015
107004
106992
106984
106970
106968
106952
106950
106938
106935
106924
106919
106910
106906
106891
106891
106872
106872
106851
106852
106826
106827
106805
106802
106782
106774
106754
106747
106727
106719
106699
106690
106672
106661
106644
106633
106616
106605
106588
106576
106561
106548
106533
106520
106505
106492
106477
106464
106449
106437
106421
106408
106395
106378
106367
106350
106337
106320
106307
106290
106277
106259
106245
106226
106213
106193
106178
106158
106143
106121
106105
106083
106065
106042
106023
105999
105979
105953
105931
105905
105881
105853
105828
105798
105771
105740
105711
105678
105647
105611
105578
105541
105504
105469
105426
105392
105347
105306
105263
105220
105174
105129
105081
105034
104984
104935
104883
104832
104778
104726
104671
104614
104561
104498
104446
104384
104327
104266
104206
104144
104082
104019
103957
103893
103830
103765
103701
103636
103572
103506
103442
103376
103312
103245
103182
103116
103053
102988
102926
102863
102801
102739
102679
102619
102560
102501
102444
102388
102333
102279
102227
102175
102125
102076
102029
101983
101939
101895
101854
101814
101776
101739
101704
101670
101639
101608
101580
101552
101528
101504
101482
101461
101443
101426
101411
101396
101384
101373
101363
101355
101349
101345
101342
101340
101339
101339
101341
101344
101348
101353
101360
101367
101376
101386
101397
101409
101423
101437
101452
101468
101485
101503
101521
101540
101561
101580
101602
101623
101645
101668
101690
101713
101736
101759
101783
101806
101830
101853
101876
101899
101922
101944
101967
101988
102010
102031
102053
102072
102092
102111
102129
102146
102162
102177
102192
102205
102218
102229
102240
102249
102258
102265
102272
102277
102282
102285
102287
102288
102288
102287
102284
102281
102277
102271
102265
102257
102248
102237
102226
102214
102200
102185
102170
102152
102134
102114
102094
102072
102049
102025
102000
101974
101947
101919
101891
101861
101831
101800
101768
101735
101702
101668
101633
101598
101562
101526
101490
101453
101417
101380
101341
106762
106763
106763
106762
106762
106762
106763
106764
106765
106767
106768
106770
106772
106775
106778
106781
106784
106788
106792
106797
106801
106806
106811
106817
106822
106828
106834
106840
106845
106850
106855
106860
106864
106869
106871
106875
106876
106879
106878
106879
106877
106876
106873
106870
106865
106860
106852
106847
106836
106831
106817
106809
106798
106784
106781
106762
106761
106753
106752
106752
106754
106762
106769
106793
106795
106832
106850
106879
106906
106935
106965
106996
107017
107050
107069
107095
107114
107134
107150
107164
107179
107187
107197
107202
107206
107208
107208
107207
107204
107201
107195
107189
107182
107173
107163
107152
107141
107127
107115
107095
107083
107064
107048
107035
107017
107006
106988
106977
106968
106949
106963
106932
106966
106930
106972
106944
106973
106962
106979
106980
106989
106991
106998
106997
107006
107002
107012
107000
107017
106997
107017
106998
107015
107000
107012
107003
107009
107006
107008
107008
107009
107012
107014
107017
107020
107024
107028
107032
107037
107043
107048
107055
107061
107066
107076
107078
107092
107091
107110
107105
107129
107119
107146
107133
107164
107146
107181
107161
107198
107174
107215
107185
107229
107198
107241
107210
107253
107219
107265
107237
107274
107255
107273
107270
107270
107276
107272
107273
107274
107264
107264
107252
107249
107235
107232
107214
107211
107190
107179
107165
107150
107136
107119
107105
107083
107073
107050
107040
107023
107010
106998
106988
106976
106973
106954
106958
106941
106941
106929
106926
106915
106911
106902
106899
106881
106883
106860
106863
106837
106840
106814
106815
106792
106788
106768
106760
106740
106733
106713
106704
106685
106675
106657
106647
106629
106619
106601
106591
106574
106562
106546
106534
106519
106506
106491
106478
106463
106451
106436
106423
106408
106393
106382
106365
106353
106336
106322
106306
106293
106275
106262
106243
106230
106210
106196
106176
106161
106140
106125
106103
106086
106063
106045
106021
106002
105977
105956
105930
105908
105880
105856
105827
105801
105770
105742
105710
105680
105646
105614
105578
105543
105507
105467
105432
105388
105350
105306
105265
105220
105175
105129
105082
105033
104986
104935
104885
104832
104780
104725
104672
104618
104556
104506
104443
104386
104327
104268
104206
104146
104083
104021
103958
103895
103830
103767
103702
103638
103572
103508
103442
103378
103312
103248
103182
103119
103054
102991
102927
102865
102802
102741
102680
102620
102561
102503
102446
102390
102334
102281
102228
102177
102126
102078
102030
101985
101940
101897
101855
101816
101777
101741
101705
101672
101640
101610
101581
101554
101529
101506
101483
101463
101444
101428
101412
101398
101385
101374
101365
101356
101350
101345
101341
101339
101338
101338
101339
101342
101346
101351
101358
101365
101374
101384
101395
101408
101421
101435
101450
101466
101483
101501
101520
101539
101560
101581
101603
101625
101647
101669
101692
101715
101738
101761
101784
101808
101831
101854
101877
101901
101923
101946
101968
101990
102011
102032
102052
102072
102091
102109
102127
102144
102160
102176
102190
102204
102216
102228
102238
102248
102257
102264
102271
102276
102280
102284
102286
102287
102287
102285
102283
102280
102275
102270
102263
102256
102246
102237
102225
102213
102199
102184
102168
102152
102133
102114
102093
102071
102048
102024
101999
101973
101946
101918
101890
101860
101830
101798
101767
101734
101700
101667
101632
101597
101562
101527
101491
101454
101418
101382
101342
106763
106762
106764
106762
106762
106763
106763
106764
106765
106767
106768
106770
106772
106775
106778
106781
106785
106789
106793
106798
106802
106808
106813
106818
106824
106830
106836
106841
106847
106853
106858
106862
106867
106870
106874
106877
106880
106881
106882
106882
106881
106879
106876
106872
106867
106860
106854
106843
106838
106823
106815
106803
106789
106785
106762
106758
106745
106739
106735
106733
106736
106740
106756
106761
106798
106804
106841
106864
106898
106926
106959
106986
107018
107038
107069
107087
107113
107130
107148
107164
107174
107189
107195
107202
107205
107207
107207
107206
107204
107200
107195
107189
107182
107174
107164
107154
107141
107130
107111
107101
107079
107065
107048
107035
107019
107000
106988
106973
106962
106964
106938
106963
106928
106968
106933
106972
106950
106973
106970
106979
106983
106989
106990
106997
106994
107002
106996
107007
106994
107008
106995
107006
106996
107003
106996
107002
106999
107002
107002
107003
107004
107006
107009
107012
107015
107019
107023
107028
107033
107038
107045
107050
107058
107064
107070
107077
107084
107095
107097
107112
107111
107131
107126