/*--------------------------------*- C++ -*----------------------------------*\
| =========                 |                                                 |
| \\      /  F ield         | OpenFOAM: The Open Source CFD Toolbox           |
|  \\    /   O peration     | Version:  v1812                                 |
|   \\  /    A nd           | Web:      www.OpenFOAM.com                      |
|    \\/     M anipulation  |                                                 |
\*---------------------------------------------------------------------------*/
FoamFile
{
    version     2.0;
    format      ascii;
    class       surfaceScalarField;
    location    "0.7";
    object      phi;
}
// * * * * * * * * * * * * * * * * * * * * * * * * * * * * * * * * * * * * * //

dimensions      [1 0 -1 0 0 0 0];
oriented        oriented;


internalField   nonuniform List<scalar> 
40240
(
-4.27233e-05
6.58653e-05
-9.56574e-05
7.60872e-05
-0.000179966
0.000107424
-0.000257041
0.000100232
-0.000374541
0.000140573
-0.000476727
0.000126184
-0.000627886
0.000176215
-0.000748711
0.000147641
-0.000899237
0.000179419
-0.00103509
0.000166562
-0.00117528
0.000172438
-0.00130419
0.000162567
-0.00142505
0.000155963
-0.00153668
0.00014861
-0.00162939
0.000131186
-0.00171641
0.000126853
-0.00177702
0.000101808
-0.00182889
9.47054e-05
-0.0018511
6.65886e-05
-0.00186169
5.67834e-05
-0.00185324
3.95017e-05
-0.00182585
2.17488e-05
-0.00178683
1.09883e-05
-0.00172624
-1.02421e-05
-0.00166522
-9.60041e-06
-0.00159554
-1.89636e-05
-0.00152682
-1.83107e-05
-0.00146429
-1.16437e-05
-0.00140043
-1.38119e-05
-0.00135411
3.23894e-06
-0.00130997
5.16266e-06
-0.00128395
2.23036e-05
-0.00128398
4.71054e-05
-0.00129201
5.40578e-05
-0.00134845
0.000103133
-0.00140796
0.000105368
-0.00154495
0.000179572
-0.00167989
0.000178678
-0.00191701
0.000280212
-0.00215304
0.000275575
-0.00253051
0.000419738
-0.00288331
0.000389533
-0.00342051
0.000579085
-0.00392865
0.000542871
-0.00464807
0.000755357
-0.0053439
0.000727296
-0.00626933
0.000954867
-0.00719433
0.000954516
-0.00832502
0.00115817
-0.00952093
0.00122291
-0.0108732
0.00137846
-0.0123961
0.00154807
-0.0140116
0.00163705
-0.0158653
0.00187535
-0.01777
0.00192324
-0.0198487
0.00209738
-0.021882
0.00205009
-0.0239397
0.00207264
-0.0258265
0.00190144
-0.0274791
0.001664
-0.0287388
0.00126844
-0.0295198
0.000786704
-0.0298354
0.000318618
-0.0297777
-5.31494e-05
-0.0294463
-0.000330886
-0.0288432
-0.000605113
-0.0280675
-0.000782885
-0.0271088
-0.000966017
-0.0259594
-0.00115695
-0.0246832
-0.0012856
-0.0232223
-0.00147554
-0.0217237
-0.00151758
-0.0200903
-0.00165541
-0.0184275
-0.00168767
-0.0166926
-0.00176167
-0.0149445
-0.00177724
-0.013167
-0.00180971
-0.0114035
-0.00179861
-0.00966264
-0.0017789
-0.00798056
-0.00172303
-0.00637478
-0.00164979
-0.00486414
-0.00155779
-0.00346147
-0.00145296
-0.00217962
-0.00133467
-0.00104918
-0.00118581
-0.00014259
-0.000964472
0.000510449
-0.000713166
0.000962017
-0.000513803
0.00129891
-0.000400985
0.00158744
-0.000354183
0.0018363
-0.000315555
0.00203378
-0.000265054
0.00218089
-0.000215483
0.00227826
-0.000166433
0.00233422
-0.000124875
0.00233491
-7.12737e-05
0.00230555
-4.09313e-05
0.00219713
3.78469e-05
0.00204985
7.68377e-05
0.00185023
0.000130005
0.00162339
0.000158109
0.00140323
0.000153219
0.00117603
0.000161556
0.000992502
0.000117934
0.000753861
0.000176619
0.000576693
0.000116041
0.000370264
0.000146936
0.000234344
7.63718e-05
0.0001238
4.98724e-05
6.86533e-05
-1.67132e-07
6.33905e-05
-3.95512e-05
8.02398e-05
-5.43353e-05
0.000158412
-0.00011221
0.000227383
-0.000103704
0.000446392
-0.000255709
0.000686878
-0.000265202
0.00112026
-0.000469355
0.00160552
-0.000497594
0.00228262
-0.000695404
0.002933
-0.000671138
0.00375592
-0.000837029
0.00452976
-0.00078996
0.00536019
-0.00084348
0.00617545
-0.000807311
0.00695138
-0.000770531
0.00768863
-0.000729925
0.00838502
-0.000678739
0.00907619
-0.00068093
0.00969598
-0.000573916
0.0102759
-0.000577084
0.0107994
-0.000498645
0.0113146
-0.000502335
0.0117476
-0.000414009
0.0121601
-0.000392111
0.0125108
-0.000321839
0.0128565
-0.000316272
0.013133
-0.000251173
0.0134178
-0.000259003
0.0136201
-0.000180177
0.01382
-0.000169508
0.0139298
-8.42142e-05
0.0140289
-7.11953e-05
0.0140643
-5.26432e-06
0.0140914
6.78197e-06
0.0140764
5.25248e-05
0.0140476
6.94906e-05
0.0139929
9.7381e-05
0.0139108
0.000126372
0.0138224
0.00013399
0.0136958
0.000172803
0.0135573
0.000184918
0.0133895
0.00021414
0.0132006
0.000235041
0.0130039
0.000242375
0.0127714
0.000277507
0.0125475
0.000268027
0.0122795
0.000310787
0.0120343
0.000286083
0.0117363
0.000336369
0.0114714
0.000300919
0.0111535
0.000351145
0.0108778
0.000306695
0.0105492
0.000357777
0.0102722
0.000303103
0.00994266
0.000355538
0.0096698
0.000296926
0.00934488
0.000350141
0.00907689
0.000293369
0.00876633
0.000338549
0.00852379
0.000272997
0.00824303
0.000311176
0.00802951
0.000245216
0.00778616
0.000276133
0.007603
0.000214709
0.00740167
0.000233594
0.00726544
0.000165288
0.00712021
0.000168092
0.00709698
5.58386e-05
0.00711232
1.71678e-05
0.00720552
-6.25126e-05
0.00737744
-0.000142317
0.0076029
-0.000195635
0.00783461
-0.000205237
0.00811963
-0.000260988
0.00840098
-0.000260068
0.00873764
-0.000317187
0.00904645
-0.000296152
0.00933459
-0.000283339
0.00953192
-0.000196516
0.00960675
-7.87866e-05
0.00960563
-1.00182e-05
0.00947587
0.000117159
0.00924446
0.000213712
0.00891761
0.000305883
0.00851441
0.000379276
0.00801278
0.000474553
0.00736164
0.000620881
0.00679607
0.000531903
0.00610587
0.000652305
0.00557981
0.000484523
0.00493246
0.000602724
0.00445286
0.00043238
0.00386088
0.000541922
0.00342873
0.00037976
0.0028649
0.000508904
0.00252867
0.000279494
0.0020966
0.000374255
0.00181443
0.000222893
0.00144952
0.000302814
0.00120825
0.000176753
0.000971484
0.000172356
0.000842595
6.4736e-05
0.000737511
4.07882e-05
0.000706285
-3.18882e-05
0.000701497
-5.78133e-05
0.000767729
-0.000126637
0.000835233
-0.000130266
0.000993742
-0.000218917
0.0011447
-0.000209585
0.00137225
-0.000290162
0.00160252
-0.000282466
0.00188792
-0.000348257
0.00218506
-0.000347999
0.00252614
-0.000394565
0.0028511
-0.00037431
0.00321196
-0.000406809
0.00355217
-0.000385585
0.00390718
-0.000399288
0.00426012
-0.000388216
0.00461375
-0.000386785
0.004948
-0.000371923
0.00527048
-0.000351614
0.00558565
-0.000340916
0.00586341
-0.000300219
0.00614809
-0.000295302
0.00639086
-0.000246616
0.00661032
-0.000228894
0.00680354
-0.000193014
0.00700158
-0.000194429
0.0071972
-0.000188968
0.00741028
-0.000197206
0.00762216
-0.000194016
0.00784523
-0.0001961
0.00805944
-0.000179303
0.00825982
-0.000164641
0.00843724
-0.000130793
0.00860921
-0.000122832
0.00874979
-8.62518e-05
0.00888695
-8.13479e-05
0.00900321
-5.34493e-05
0.00912196
-5.27895e-05
0.0092242
-3.03394e-05
0.00933604
-3.64111e-05
0.00943404
-1.74165e-05
0.00954292
-2.27203e-05
0.00963867
-3.84465e-06
0.00974459
-7.70461e-06
0.00983765
1.17465e-05
0.00994268
6.22132e-06
0.0100367
2.40763e-05
0.0101458
1.65693e-05
0.0102271
5.0567e-05
0.010336
2.99695e-05
0.0104144
6.71256e-05
0.0105211
4.59308e-05
0.0106168
6.3396e-05
0.0107159
6.80563e-05
0.0108283
6.21635e-05
0.0109352
7.54013e-05
0.0110569
6.76612e-05
0.011171
8.21208e-05
0.0113001
7.37774e-05
0.0114245
8.52064e-05
0.0115626
7.75361e-05
0.0116999
8.36261e-05
0.0118472
7.98022e-05
0.0119986
8.20274e-05
0.0121568
8.06628e-05
0.0123209
8.08034e-05
0.0124905
8.00307e-05
0.0126645
8.1619e-05
0.0128466
7.89929e-05
0.0130292
8.37177e-05
0.0132237
7.65384e-05
0.0134124
8.66668e-05
0.0136169
7.54968e-05
0.0138109
9.0126e-05
0.0140229
7.66223e-05
0.0142252
8.99151e-05
0.0144434
7.77815e-05
0.0146515
9.01839e-05
0.0148798
7.42356e-05
0.0150943
8.99035e-05
0.0153308
7.1467e-05
0.0155516
8.9255e-05
0.0157892
7.48805e-05
0.0160195
8.6081e-05
0.0162615
7.34282e-05
0.016502
7.96467e-05
0.0167532
6.87856e-05
0.0169975
7.66475e-05
0.0172621
5.78233e-05
0.0174719
0.000113319
0.0177351
6.09939e-05
0.0179502
0.000110316
0.018238
4.0297e-05
0.018494
7.39589e-05
0.0187521
7.07068e-05
0.0190247
5.90458e-05
0.0192804
7.61613e-05
0.019548
6.47798e-05
0.0198075
7.32474e-05
0.0200773
6.35763e-05
0.0203396
7.06614e-05
0.0206106
6.26969e-05
0.0208732
7.35645e-05
0.0211442
6.0639e-05
0.0214007
7.74534e-05
0.0216701
6.26786e-05
0.0219092
9.3455e-05
0.0221803
5.5876e-05
0.0224041
0.000103414
0.0227089
2.44573e-05
0.0229485
8.41905e-05
0.0232196
5.37923e-05
0.0234861
5.41831e-05
0.0237359
7.30216e-05
0.0239983
5.67168e-05
0.0242411
7.33512e-05
0.0245007
5.39881e-05
0.0247406
7.07465e-05
0.024997
5.11647e-05
0.0252357
6.57848e-05
0.0254872
4.91176e-05
0.0257216
6.19395e-05
0.025962
5.14976e-05
0.0261759
7.35811e-05
0.026406
5.20901e-05
0.0266084
7.49134e-05
0.0268276
5.46448e-05
0.0270208
7.65459e-05
0.0272297
5.61697e-05
0.0274164
7.3252e-05
0.0276135
5.57728e-05
0.0277871
7.44435e-05
0.0279745
5.62705e-05
0.0281389
7.54125e-05
0.0283157
5.6722e-05
0.0284692
7.31634e-05
0.0286332
5.78506e-05
0.0287781
7.14218e-05
0.0289294
5.85226e-05
0.0290607
7.29641e-05
0.0292017
5.79903e-05
0.0293256
6.93098e-05
0.029452
6.05798e-05
0.0295546
7.88898e-05
0.0296703
6.04517e-05
0.0297713
6.9705e-05
0.0298769
5.94213e-05
0.0299657
7.10446e-05
0.0300563
6.33691e-05
0.0301271
7.77691e-05
0.0302032
6.69164e-05
0.0302577
8.31007e-05
0.0303212
6.93428e-05
0.0303703
7.86504e-05
0.0304217
7.05907e-05
0.0304555
8.35497e-05
0.0304973
7.02797e-05
0.0305229
8.15023e-05
0.0305563
6.87051e-05
0.0305765
7.74535e-05
0.0306029
6.74921e-05
0.0306135
7.7904e-05
0.0306362
5.94519e-05
0.0306468
6.79524e-05
0.0306538
6.79206e-05
0.0306397
8.48654e-05
0.0306207
8.24269e-05
0.0305919
9.05426e-05
0.0305715
8.05616e-05
0.0305374
8.5532e-05
0.0304944
9.41694e-05
0.0304263
0.000115157
0.0303365
0.000131263
0.0302107
0.000163839
0.0300674
0.000178475
0.0299292
0.000170476
0.0298427
0.000115936
0.0298303
3.75746e-05
0.0299
-4.68793e-05
0.0300146
-9.53243e-05
0.030137
-0.000103431
0.0302301
-7.70735e-05
0.0302855
-4.1762e-05
0.0303033
-6.15863e-06
0.0303012
1.38044e-05
0.030276
3.3654e-05
0.0302333
5.01005e-05
0.0301775
6.23629e-05
0.0301114
7.13571e-05
0.0300405
7.48363e-05
0.0299604
8.25915e-05
0.0298722
8.98292e-05
0.0297692
0.000103217
0.0296481
0.000120366
0.0295055
0.000140256
0.0293335
0.000168765
0.0291468
0.000182272
0.0289391
0.000202194
0.0287554
0.000177193
0.028614
0.000134171
0.0285479
5.85017e-05
0.0285583
-1.83817e-05
0.0286214
-7.15741e-05
0.0287022
-8.94987e-05
0.028773
-7.95754e-05
0.0288159
-5.12683e-05
0.028832
-2.51253e-05
0.0288311
-8.76941e-06
0.0288115
9.39021e-06
0.028777
2.44905e-05
0.028736
3.09032e-05
0.0286939
3.20226e-05
0.028656
2.76764e-05
0.028624
2.16606e-05
0.0285941
1.96381e-05
0.0285592
2.43901e-05
0.0285164
3.22186e-05
0.0284666
3.90012e-05
0.0284182
3.7247e-05
0.0283846
2.21834e-05
0.0283829
-1.0096e-05
0.0284195
-4.86327e-05
0.0284873
-8.00439e-05
0.0285659
-9.08483e-05
0.0286351
-8.16336e-05
0.0286827
-5.82881e-05
0.0287094
-3.68197e-05
0.0287124
-1.65959e-05
0.0287067
-5.17713e-06
0.0286873
9.67568e-06
0.0286669
1.12518e-05
0.0286444
1.38479e-05
0.0286319
4.03802e-06
0.0286219
3.01288e-06
0.0286238
-9.15751e-06
0.0286253
-9.2652e-06
0.0286333
-1.4736e-05
0.0286426
-1.53949e-05
0.0286573
-2.00557e-05
0.0286739
-2.23869e-05
0.028696
-2.64787e-05
0.0287183
-2.68457e-05
0.0287416
-2.74038e-05
0.0287618
-2.44961e-05
0.0287797
-2.09077e-05
0.0287922
-1.52299e-05
0.0288023
-1.20992e-05
0.0288079
-7.77369e-06
0.028814
-7.39993e-06
0.0288185
-5.32972e-06
0.0288265
-7.82055e-06
0.0288366
-9.22915e-06
0.028853
-1.41724e-05
0.0288694
-1.32155e-05
0.0288877
-1.48749e-05
0.0289042
-1.26385e-05
0.0289209
-1.3244e-05
0.0289411
-1.64831e-05
0.0289676
-2.29845e-05
0.0289985
-2.70642e-05
0.0290328
-3.02863e-05
0.029061
-2.36878e-05
0.0290818
-1.63005e-05
0.029095
-9.1679e-06
0.0291057
-6.99712e-06
0.0291171
-7.51229e-06
0.0291297
-8.145e-06
0.0291436
-9.3608e-06
0.0291581
-1.06638e-05
0.0291705
-9.53789e-06
0.0291821
-7.72481e-06
0.0291912
-5.62432e-06
0.0291906
3.01886e-06
0.0291801
1.33939e-05
0.0291554
2.76824e-05
0.029118
4.07339e-05
0.0290742
4.76903e-05
0.029034
4.41975e-05
0.0290095
2.85486e-05
0.0290085
5.29532e-06
0.0290284
-1.56922e-05
0.0290589
-2.66571e-05
0.029089
-2.6383e-05
0.0291116
-1.84541e-05
0.0291326
-1.55194e-05
0.0291565
-1.73718e-05
-2.41316e-05
-5.18544e-05
0.00014031
-0.000200559
0.000247358
-0.000372693
0.000301984
-0.000648219
0.000398347
-0.0008978
0.000412983
-0.00126656
0.000518662
-0.00157643
0.000511089
-0.00196854
0.000566492
-0.00228898
0.000528631
-0.00264671
0.000554899
-0.00296264
0.000520371
-0.00326856
0.00050199
-0.00354734
0.000469758
-0.00378674
0.000424591
-0.00401153
0.000394281
-0.00417849
0.000333346
-0.00433806
0.000302289
-0.00443055
0.000229744
-0.00450099
0.000181268
-0.00452559
0.000127337
-0.00451583
7.76433e-05
-0.00447682
3.17505e-05
-0.00439271
-2.34694e-05
-0.00430889
-4.28542e-05
-0.00418985
-7.9786e-05
-0.00407293
-8.34884e-05
-0.0039515
-8.65627e-05
-0.00383228
-8.2231e-05
-0.00374241
-5.2997e-05
-0.00365046
-3.97058e-05
-0.00360396
7.75056e-06
-0.00360148
6.78969e-05
-0.00361992
0.000112145
-0.00373597
0.000217091
-0.00386059
0.00027411
-0.00415385
0.00044537
-0.00442822
0.000497936
-0.00494305
0.000732569
-0.00541229
0.000796385
-0.00618377
0.00108646
-0.0068995
0.00117504
-0.00795999
0.00149799
-0.00892604
0.00157742
-0.0103011
0.00196509
-0.011552
0.0020327
-0.0132421
0.0024536
-0.0148106
0.00255069
-0.0167139
0.00288759
-0.0186568
0.00312831
-0.0206772
0.00327097
-0.0229521
0.00368001
-0.0251033
0.003725
-0.0275412
0.00409618
-0.0297682
0.00412232
-0.0321366
0.0043099
-0.0342418
0.00421958
-0.0362326
0.00405589
-0.0379203
0.00377285
-0.0393383
0.00333158
-0.0404185
0.00275483
-0.0411918
0.00204944
-0.041673
0.00127321
-0.0418471
0.000496023
-0.0417436
-0.000154164
-0.0412583
-0.000816427
-0.040594
-0.00126842
-0.0395405
-0.00184477
-0.038191
-0.00232373
-0.0366463
-0.00271146
-0.0348177
-0.00312163
-0.0328659
-0.00344153
-0.0307431
-0.00365645
-0.0284981
-0.00392178
-0.0261541
-0.00405481
-0.0237136
-0.00422792
-0.0212268
-0.00429195
-0.0186954
-0.00437219
-0.0161897
-0.00433812
-0.0136805
-0.00432507
-0.0112507
-0.00419264
-0.00888075
-0.00406268
-0.00663966
-0.00384481
-0.00454307
-0.0035987
-0.00266305
-0.00326613
-0.00103464
-0.00286827
0.000329776
-0.00238582
0.00150691
-0.00195007
0.00256019
-0.00162914
0.00347727
-0.00138187
0.00424121
-0.00118312
0.00485935
-0.000999823
0.0053468
-0.000819623
0.00570838
-0.000644952
0.0059413
-0.000468132
0.00605107
-0.0003035
0.00605248
-0.000143514
0.00591179
2.99503e-05
0.00569096
0.00018814
0.00528151
0.000416305
0.00484256
0.000499636
0.00430234
0.000629551
0.00375015
0.000638613
0.00320322
0.000642446
0.00262691
0.000631346
0.00213735
0.000602785
0.00162179
0.000573597
0.00127319
0.000439408
0.000905147
0.00039204
0.000711149
0.000192266
0.000624101
3.55038e-05
0.000642492
-0.000108175
0.000866605
-0.000329734
0.00113335
-0.000413843
0.00172482
-0.000751131
0.00241356
-0.00096212
0.00355648
-0.00145798
0.00474783
-0.00167464
0.00638346
-0.00217698
0.00802731
-0.0023544
0.00994654
-0.00261812
0.0118169
-0.0027211
0.0137985
-0.00277792
0.015676
-0.00273296
0.0175399
-0.00265792
0.0192956
-0.00252731
0.0209652
-0.0023877
0.0225531
-0.00225529
0.0239798
-0.00208387
0.0253802
-0.0019649
0.0266368
-0.0017937
0.0278432
-0.00169819
0.0289208
-0.00154895
0.0299507
-0.00144474
0.0308539
-0.00125179
0.0317182
-0.00117704
0.0324346
-0.000995811
0.0331683
-0.000957405
0.0337323
-0.000798661
0.0343216
-0.000738296
0.0347169
-0.000539936
0.0351133
-0.000447397
0.0353397
-0.000271831
0.0355664
-0.000200722
0.0356577
-5.07523e-05
0.0357349
1.34168e-05
0.0357299
0.000115277
0.0356828
0.000186516
0.0355901
0.000262819
0.0354112
0.00035763
0.0352223
0.000407698
0.0349426
0.000510971
0.0346287
0.000574313
0.034266
0.000644156
0.0338357
0.000718592
0.0333998
0.000758915
0.0328721
0.000840424
0.0323667
0.000859642
0.0317564
0.000937663
0.0311902
0.000941555
0.0305128
0.00101454
0.0298998
0.000997751
0.0291707
0.00106712
0.0285296
0.00102809
0.027771
0.00108879
0.02711
0.00104061
0.0263338
0.0010983
0.0256579
0.00104959
0.0248886
0.00108802
0.0242352
0.00101797
0.0235001
0.00103829
0.0228944
0.000947199
0.0222204
0.000950683
0.0216861
0.000843308
0.0210903
0.00084373
0.020643
0.000708031
0.020143
0.000693876
0.0198403
0.000500428
0.0195132
0.000407385
0.0194286
0.00013527
0.0193856
1.05799e-05
0.0195516
-0.000280512
0.0197646
-0.000377406
0.0200428
-0.00045707
0.0203265
-0.000520772
0.0206109
-0.000521178
0.0209035
-0.000590188
0.0211907
-0.000569482
0.0214251
-0.000511847
0.0215194
-0.00028693
0.021466
-2.8435e-05
0.0211646
0.000281523
0.0206925
0.00057658
0.0199729
0.000913637
0.0191517
0.00110763
0.0181466
0.00136028
0.0169918
0.00160207
0.0158025
0.0017799
0.0143768
0.00192302
0.0131907
0.00180074
0.0117902
0.00184239
0.0106989
0.00164871
0.00935087
0.0017323
0.00836553
0.001477
0.00707231
0.00161888
0.00619041
0.001336
0.00509644
0.00132158
0.00436016
0.00104605
0.0035279
0.00100063
0.00303493
0.000733806
0.00251891
0.000627809
0.00225194
0.000374657
0.00198536
0.00026656
0.00190862
5.365e-05
0.00187819
-6.44059e-05
0.00201086
-0.000251765
0.00216546
-0.000341851
0.00253595
-0.000557066
0.00290716
-0.000655127
0.00348245
-0.000846349
0.00403155
-0.000893916
0.00473013
-0.00105287
0.00543704
-0.00109429
0.00624464
-0.00121664
0.00702594
-0.00122284
0.00787048
-0.00126945
0.00867329
-0.00125567
0.00951358
-0.00127036
0.0103006
-0.00123051
0.0110995
-0.00122836
0.0118739
-0.00119502
0.0126316
-0.00116004
0.0133505
-0.00110273
0.0140195
-0.00103591
0.01468
-0.000976831
0.0152474
-0.000880775
0.0158022
-0.000811094
0.0162894
-0.000718006
0.016754
-0.000660499
0.0171874
-0.000623591
0.0176392
-0.00063016
0.0180708
-0.000617135
0.0185279
-0.000629132
0.0189593
-0.000602555
0.0193901
-0.000581315
0.0197881
-0.000518722
0.0201698
-0.000469085
0.0205017
-0.000404176
0.0208226
-0.000354945
0.0210962
-0.000296146
0.0213774
-0.00027262
0.0216113
-0.000219331
0.0218637
-0.000210857
0.0220773
-0.000173854
0.0223156
-0.000173732
0.0225218
-0.000142125
0.022748
-0.000137896
0.0229452
-0.000104778
0.0231603
-0.000100861
0.0233467
-6.91285e-05
0.0235515
-6.27202e-05
0.0237189
-2.53757e-05
0.0239539
-5.2482e-05
0.0240772
4.49072e-05
0.0243111
-2.14707e-05
0.0244628
4.55759e-05
0.0246407
4.51633e-05
0.024841
3.41476e-05
0.0250176
5.8607e-05
0.0252253
5.06558e-05
0.0254115
7.01098e-05
0.0256277
6.16138e-05
0.0258268
7.72226e-05
0.0260544
6.67385e-05
0.0262692
7.81725e-05
0.0265088
6.54147e-05
0.0267394
7.64366e-05
0.0269905
6.34089e-05
0.0272402
7.21187e-05
0.0275077
5.42333e-05
0.0277712
6.63467e-05
0.0280589
5.03452e-05
0.0283318
6.21529e-05
0.0286391
4.61123e-05
0.0289236
6.07452e-05
0.0292442
4.35219e-05
0.0295362
6.14308e-05
0.0298675
4.44064e-05
0.0301685
6.13305e-05
0.030511
4.01861e-05
0.0308191
6.58446e-05
0.0311642
4.23953e-05
0.0314819
6.00114e-05
0.0318473
2.86396e-05
0.0321728
5.49642e-05
0.0325423
2.80884e-05
0.0328724
5.56499e-05
0.0332494
2.60292e-05
0.0335886
4.87391e-05
0.0339731
1.32614e-05
0.0343375
2.43822e-05
0.0347209
1.15905e-05
0.0350411
5.80731e-05
0.0355006
-2.31161e-05
0.0357811
0.000104984
0.036259
-4.04733e-05
0.0365857
4.1951e-05
0.0369659
1.55061e-05
0.0373921
-1.78477e-05
0.0377625
1.83515e-05
0.038173
-5.96655e-06
0.0385498
2.08087e-05
0.0389615
-1.00582e-05
0.0393415
1.81637e-05
0.0397528
-1.39558e-05
0.0401371
1.37616e-05
0.0405455
-3.59238e-06
0.0409273
1.71884e-05
0.0413253
6.63203e-06
0.0416844
3.91451e-05
0.0421179
-1.67689e-05
0.0424333
7.23283e-05
0.0429107
-4.53397e-05
0.0432134
4.82176e-05
0.043658
-2.57989e-05
0.0440315
-6.50371e-06
0.0443957
1.53384e-05
0.0447955
-7.34055e-06
0.0451507
1.55491e-05
0.0455482
-3.31907e-06
0.0458997
1.35646e-05
0.0462902
-9.13465e-06
0.0466394
8.82727e-06
0.0470212
-1.23731e-05
0.0473691
1.25028e-06
0.0477397
-1.43016e-05
0.0480677
1.44381e-05
0.0484324
-4.08561e-06
0.0487434
2.34571e-05
0.0490907
5.77305e-06
0.0493859
3.28642e-05
0.0497194
1.21735e-05
0.0500101
3.30184e-05
0.0503246
1.66223e-05
0.0505975
3.46978e-05
0.0509058
1.4917e-05
0.0511672
3.50948e-05
0.0514632
1.76759e-05
0.0517094
4.44809e-05
0.0519843
2.37338e-05
0.0522208
4.27973e-05
0.0524776
2.79662e-05
0.0527003
4.5156e-05
0.0529445
3.22864e-05
0.0531562
4.36544e-05
0.0533855
3.20316e-05
0.0535785
5.29613e-05
0.0537964
4.19684e-05
0.0539782
5.34879e-05
0.0541726
4.43986e-05
0.0543394
5.60397e-05
0.0545221
4.7301e-05
0.0546756
6.2707e-05
0.0548457
5.52047e-05
0.0549833
7.1222e-05
0.0551376
6.53013e-05
0.0552625
7.53752e-05
0.0554006
6.7348e-05
0.05551
8.29247e-05
0.0556366
7.30993e-05
0.0557337
8.41176e-05
0.0558455
7.58462e-05
0.0559318
8.41202e-05
0.0560346
7.05579e-05
0.0561087
8.32156e-05
0.0562062
7.01001e-05
0.05628
6.74066e-05
0.056364
6.2619e-05
0.0564203
8.70018e-05
0.0564695
0.000101612
0.0564983
0.000117257
0.0565309
0.000119345
0.056549
0.000119586
0.0565604
0.000126165
0.0565651
0.000139877
0.0565636
0.000161544
0.0565394
0.000196173
0.0565112
0.000228572
0.056477
0.000247416
0.0564563
0.000221752
0.0564462
0.000154874
0.0564641
4.48118e-05
0.056509
-6.88336e-05
0.0565795
-0.000145222
0.0566632
-0.000167771
0.0567418
-0.000137854
0.0567987
-8.49092e-05
0.0568347
-2.99271e-05
0.0568434
1.59718e-05
0.056836
5.05264e-05
0.0568119
8.19239e-05
0.0567738
0.000107078
0.0567259
0.000124552
0.0566693
0.000135727
0.0566098
0.000145416
0.056542
0.00015962
0.0564651
0.000181479
0.0563752
0.000209891
0.0562685
0.000245798
0.0561475
0.000286968
0.0560132
0.000313697
0.0558894
0.000321814
0.0557698
0.000292348
0.0556866
0.000210802
0.0556334
0.000104127
0.0556187
-1.21924e-05
0.0556343
-9.59441e-05
0.0556719
-0.000135878
0.0557111
-0.000127688
0.055748
-9.73074e-05
0.0557728
-5.91021e-05
0.0557763
-2.17421e-05
0.0557643
1.1784e-05
0.0557418
3.72071e-05
0.0557128
5.00513e-05
0.0556827
5.19323e-05
0.0556516
4.85809e-05
0.0556225
4.04066e-05
0.0555971
3.44669e-05
0.0555728
3.82971e-05
0.0555457
4.87068e-05
0.0555233
5.07242e-05
0.0554982
5.11827e-05
0.0554818
2.72046e-05
0.0554719
-1.13293e-05
0.0554798
-6.75947e-05
0.0554961
-0.000107125
0.0555235
-0.000128488
0.0555516
-0.000119992
0.0555731
-8.94646e-05
0.055578
-5.17895e-05
0.055569
-1.90896e-05
0.0555465
7.37605e-06
0.0555157
3.1227e-05
0.0554834
3.56464e-05
0.0554557
3.33038e-05
0.0554268
2.57407e-05
0.0554074
1.45512e-05
0.0553895
9.17786e-07
0.0553801
-7.31095e-06
0.0553731
-1.39992e-05
0.0553693
-1.79618e-05
0.0553681
-2.4305e-05
0.0553698
-2.89118e-05
0.0553736
-3.44993e-05
0.0553805
-3.79304e-05
0.0553863
-3.66658e-05
0.0553894
-3.08335e-05
0.055391
-2.56942e-05
0.0553905
-1.69576e-05
0.0553826
-6.3132e-06
0.0553751
-2.04845e-06
0.0553641
2.66323e-06
0.0553561
2.42955e-06
0.055348
1.01101e-06
0.0553472
-8.22192e-06
0.0553459
-1.1747e-05
0.0553531
-1.71677e-05
0.0553592
-1.70905e-05
0.0553697
-1.88128e-05
0.0553785
-1.87114e-05
0.0553907
-2.52789e-05
0.0554035
-3.22428e-05
0.0554236
-4.34695e-05
0.0554427
-4.51477e-05
0.0554607
-3.81912e-05
0.055471
-2.2862e-05
0.0554768
-1.13751e-05
0.0554793
-5.58412e-06
0.0554834
-6.981e-06
0.0554893
-9.32348e-06
0.0554958
-1.19988e-05
0.0555003
-1.11038e-05
0.0555071
-1.20757e-05
0.0555119
-1.12089e-05
0.055511
-2.15484e-06
0.0555073
9.59102e-06
0.0554939
2.9073e-05
0.0554755
4.8357e-05
0.0554511
6.74931e-05
0.0554254
7.61991e-05
0.0554041
6.83381e-05
0.0553912
4.42334e-05
0.0553906
8.54062e-06
0.0554011
-2.38523e-05
0.0554193
-4.26691e-05
0.0554411
-4.59227e-05
0.0554656
-4.01394e-05
0.0554851
-3.07953e-05
0.0555023
-2.88201e-05
-2.22892e-05
-9.54561e-05
0.000257813
-0.000298331
0.000472304
-0.000614839
0.00064063
-0.000967216
0.000772453
-0.00143004
0.000898246
-0.00189683
0.00100879
-0.00244635
0.00108542
-0.00294638
0.00109355
-0.00348303
0.001094
-0.0039471
0.00104945
-0.00440993
0.00101625
-0.00481579
0.000941229
-0.00518484
0.000873539
-0.00551904
0.000795117
-0.00578822
0.000701496
-0.00604051
0.000624972
-0.00621169
0.000514211
-0.00636141
0.000421751
-0.00644575
0.000309795
-0.00648833
0.000216209
-0.00648636
0.00012351
-0.00644195
3.62511e-05
-0.00638405
-3.13783e-05
-0.0062737
-0.000102795
-0.00617592
-0.000126434
-0.0060521
-0.000155819
-0.00593248
-0.000156625
-0.00583275
-0.000132159
-0.00572586
-0.000109223
-0.00567066
-4.69428e-05
-0.00565677
4.32717e-05
-0.00567417
0.000133192
-0.00581854
0.000302285
-0.00595843
0.000410805
-0.00631332
0.00067501
-0.00663081
0.000806085
-0.00725111
0.00115719
-0.00782147
0.00134724
-0.00872605
0.00174286
-0.00956318
0.00196353
-0.010807
0.00246278
-0.0119308
0.00265527
-0.0134784
0.00317813
-0.0149259
0.0034357
-0.0167416
0.00388719
-0.0185096
0.00425241
-0.0205113
0.00458381
-0.0226109
0.00501641
-0.0247057
0.00525076
-0.0270178
0.00561006
-0.029163
0.00585344
-0.0314929
0.00608116
-0.0335996
0.00622318
-0.0357226
0.00626395
-0.037579
0.00618408
-0.0392762
0.00593267
-0.0406532
0.00544768
-0.0417897
0.0049214
-0.0426272
0.00417975
-0.0432279
0.00336399
-0.0436243
0.0024526
-0.0438528
0.00150759
-0.0439383
0.000587587
-0.0437358
-0.000352822
-0.0434324
-0.00112388
-0.0426893
-0.0020092
-0.0417544
-0.00277978
-0.0402884
-0.00377566
-0.0386164
-0.00439692
-0.0365949
-0.00514015
-0.0344631
-0.00559145
-0.0320534
-0.00606904
-0.0296336
-0.00636418
-0.0269666
-0.00674303
-0.0243875
-0.00683033
-0.0215946
-0.00711019
-0.0189476
-0.00704917
-0.0162103
-0.00710734
-0.0135993
-0.00697128
-0.0110087
-0.00682109
-0.00854515
-0.00656667
-0.00620395
-0.00622971
-0.00402575
-0.00582315
-0.00203855
-0.00530214
-0.000236387
-0.00472106
0.00139755
-0.00407482
0.00292139
-0.00353179
0.0043504
-0.003119
0.00564593
-0.00273997
0.00675552
-0.00235677
0.00765455
-0.0019643
0.00834578
-0.00157727
0.00884725
-0.00121379
0.00917416
-0.000863253
0.00933397
-0.000532131
0.00931628
-0.000195651
0.00914875
0.000128084
0.00877209
0.000495305
0.00833896
0.000780495
0.00765355
0.00111609
0.00699248
0.0012225
0.00620166
0.00136203
0.00542924
0.00135263
0.00466621
0.00133076
0.00394448
0.00126099
0.00337968
0.00107741
0.00277432
0.000985724
0.00245625
0.000653293
0.00224729
0.000345436
0.0022196
1.39912e-05
0.00248848
-0.000427315
0.00288969
-0.000774912
0.00380704
-0.00136528
0.00481142
-0.00180052
0.00639994
-0.00257244
0.00810022
-0.0032023
0.0103094
-0.00390262
0.0126062
-0.00450613
0.015188
-0.00495867
0.0177679
-0.0051991
0.0203864
-0.00537833
0.0229839
-0.00537384
0.0254611
-0.00522479
0.0279327
-0.00509113
0.0300944
-0.00474958
0.0323302
-0.00455764
0.0343417
-0.00425923
0.0362597
-0.00398696
0.0380454
-0.00366315
0.039647
-0.00341773
0.0411607
-0.00317083
0.0426168
-0.00298958
0.0439199
-0.00272906
0.0451902
-0.00250449
0.0462805
-0.00223517
0.0473614
-0.00204911
0.0482521
-0.00182211
0.0491376
-0.00164036
0.0498165
-0.00139597
0.0505213
-0.00120015
0.0509899
-0.000890878
0.0514905
-0.000737703
0.0517729
-0.000451215
0.052065
-0.000307097
0.0522087
-9.14131e-05
0.0523045
6.01555e-05
0.05231
0.00022403
0.0522414
0.000375103
0.0521154
0.000527618
0.0518769
0.000691749
0.0516112
0.000823029
0.0512461
0.000985577
0.0508074
0.00112936
0.0503109
0.00126179
0.0497483
0.00136848
0.0491543
0.00148101
0.0484707
0.0015883
0.0477751
0.00167625
0.0469818
0.00177516
0.046205
0.00182876
0.0453182
0.00191925
0.0444739
0.00194379
0.0435171
0.00201487
0.0426225
0.00201174
0.0416143
0.00207521
0.0406827
0.0020551
0.0396415
0.00211507
0.0386934
0.00206092
0.0376463
0.00209066
0.0367173
0.00199398
0.0356972
0.00199434
0.034816
0.00185932
0.0338566
0.00183292
0.0330717
0.00165338
0.0322135
0.00159849
0.0315751
0.00135588
0.0308827
0.00121769
0.0304388
0.000893855
0.029932
0.000659651
0.0297419
0.000233515
0.0295211
-4.21242e-05
0.0295354
-0.000358929
0.0295175
-0.000420179
0.0295382
-0.000518941
0.0295135
-0.000474801
0.0294975
-0.000552187
0.0294646
-0.00051858
0.0293956
-0.00043328
0.0291775
-6.23324e-05
0.0287976
0.000347307
0.0281819
0.000888022
0.0273182
0.00142674
0.0263058
0.00191109
0.0250596
0.00233183
0.0236977
0.00269912
0.022192
0.00307994
0.0205306
0.00341001
0.0188513
0.00356908
0.0171102
0.00350389
0.0156183
0.0032913
0.013869
0.00335379
0.0124678
0.003087
0.0107661
0.00312794
0.00942359
0.00290852
0.00797851
0.00273553
0.00688752
0.00234547
0.00579114
0.0020963
0.00501354
0.0017188
0.00423545
0.0014476
0.00380639
0.000995914
0.00332955
0.000786307
0.00316114
0.000369911
0.00307264
7.79206e-05
0.0032318
-0.000285695
0.00342478
-0.000504197
0.00390401
-0.000867976
0.00440686
-0.00112741
0.00518876
-0.00148596
0.00599164
-0.00170989
0.00696964
-0.00193525
0.00795447
-0.00208703
0.00905246
-0.00224891
0.0101401
-0.00235166
0.0112899
-0.00242484
0.0124193
-0.00244641
0.0135554
-0.00244127
0.0146366
-0.00239129
0.0157119
-0.00235351
0.0167536
-0.00230397
0.0177574
-0.00223398
0.0187563
-0.00218886
0.0196807
-0.00205499
0.0205845
-0.00195943
0.0213558
-0.0017943
0.0221838
-0.00170192
0.0228762
-0.00151324
0.023562
-0.00140314
0.0241922
-0.00128567
0.0247935
-0.00122314
0.0253535
-0.00117989
0.0259344
-0.0011841
0.0264785
-0.00115275
0.0270238
-0.00112448
0.0275302
-0.00104602
0.0280239
-0.000984566
0.0284609
-0.000864861
0.0289208
-0.000801327
0.0293109
-0.000684321
0.0296886
-0.000616722
0.0300246
-0.000541637
0.0303606
-0.000487488
0.0306548
-0.000431832
0.0309666
-0.000406349
0.0312416
-0.000364489
0.0315315
-0.000343406
0.0317905
-0.000302856
0.0320678
-0.000283344
0.0323089
-0.00023644
0.0325664
-0.00021653
0.0327936
-0.000170904
0.0330468
-0.000156578
0.0332053
-7.79529e-05
0.033511
-0.000123245
0.0336512
-1.98891e-05
0.033885
-3.77328e-05
0.0341112
-2.12894e-05
0.0342954
1.52255e-05
0.0345196
8.59354e-06
0.0347171
3.26644e-05
0.0349455
3.00943e-05
0.0351531
4.90297e-05
0.035388
4.34482e-05
0.0356062
5.66282e-05
0.0358524
4.64959e-05
0.0360808
5.70726e-05
0.0363388
4.46952e-05
0.0365797
5.48203e-05
0.0368505
3.72053e-05
0.0371044
4.58765e-05
0.0373877
2.95455e-05
0.0376516
3.78245e-05
0.0379593
1.94724e-05
0.0382342
3.20729e-05
0.0385558
1.10807e-05
0.038843
2.67608e-05
0.0391739
1.36261e-05
0.0394714
2.43176e-05
0.0398143
1.13837e-05
0.0401249
2.00027e-05
0.0404697
1.44041e-05
0.0407907
2.19328e-05
0.0411432
6.05754e-06
0.0414741