/*--------------------------------*- C++ -*----------------------------------*\
| =========                 |                                                 |
| \\      /  F ield         | OpenFOAM: The Open Source CFD Toolbox           |
|  \\    /   O peration     | Version:  v1812                                 |
|   \\  /    A nd           | Web:      www.OpenFOAM.com                      |
|    \\/     M anipulation  |                                                 |
\*---------------------------------------------------------------------------*/
FoamFile
{
    version     2.0;
    format      ascii;
    class       volScalarField;
    location    "0.7";
    object      T;
}
// * * * * * * * * * * * * * * * * * * * * * * * * * * * * * * * * * * * * * //

dimensions      [0 0 0 1 0 0 0];


internalField   nonuniform List<scalar> 
20400
(
295.962
295.96
295.95
295.928
295.887
295.827
295.754
295.675
295.605
295.551
295.518
295.501
295.496
295.495
295.499
295.513
295.547
295.608
295.703
295.835
296.002
296.199
296.421
296.66
296.908
297.157
297.4
297.633
297.85
298.048
298.223
298.375
298.503
298.607
298.686
298.743
298.779
298.8
298.811
298.814
298.815
298.809
298.792
298.751
298.69
298.602
298.509
298.402
298.31
298.218
298.157
298.102
298.075
298.047
298.039
298.028
298.024
298.017
298.012
298.006
298
297.992
297.981
297.966
297.946
297.92
297.887
297.859
297.834
297.813
297.791
297.766
297.738
297.703
297.664
297.619
297.572
297.522
297.47
297.413
297.355
297.294
297.233
297.172
297.114
297.057
297.004
296.953
296.905
296.859
296.815
296.771
296.727
296.683
296.637
296.59
296.543
296.497
296.451
296.402
296.354
296.303
296.257
296.208
296.163
296.125
296.091
296.064
296.043
296.025
296.01
295.996
295.985
295.978
295.971
295.961
295.949
295.939
295.928
295.923
295.917
295.919
295.911
295.906
295.886
295.859
295.809
295.76
295.699
295.646
295.594
295.546
295.507
295.47
295.43
295.395
295.371
295.364
295.363
295.369
295.382
295.403
295.425
295.447
295.47
295.496
295.525
295.56
295.6
295.647
295.7
295.759
295.823
295.894
295.972
296.061
296.16
296.273
296.402
296.549
296.712
296.892
297.085
297.29
297.5
297.71
297.91
298.095
298.253
298.384
298.48
298.545
298.58
298.594
298.597
298.588
298.557
298.493
298.401
298.289
298.159
298.02
297.875
297.731
297.588
297.456
297.337
297.234
297.15
297.082
297.035
297.003
296.981
296.966
296.956
296.95
296.943
296.934
296.925
296.911
296.898
296.878
296.859
296.837
296.819
296.797
296.783
296.764
296.75
296.736
296.724
296.712
296.7
296.688
296.669
296.647
296.622
296.599
296.58
296.561
296.545
296.527
296.512
296.494
296.48
296.462
296.445
296.424
296.405
296.383
296.365
296.346
296.331
296.313
296.299
296.282
296.265
296.249
296.232
296.216
296.201
296.188
296.18
296.173
296.171
296.172
296.18
296.197
296.225
296.258
296.299
296.345
296.398
296.457
296.521
296.588
296.658
296.728
296.795
296.859
296.921
296.979
297.036
297.08
297.121
297.155
297.187
297.216
297.24
297.262
297.279
297.294
297.306
297.314
297.319
297.32
297.32
297.318
297.313
297.309
297.301
297.293
297.282
297.27
297.254
297.238
297.219
297.2
297.179
297.159
297.136
297.113
297.088
297.064
297.038
297.014
296.986
296.959
296.928
296.899
296.866
296.839
296.808
296.782
296.749
296.718
296.682
296.651
296.621
296.586
296.552
296.513
296.475
296.434
296.393
296.349
296.307
296.26
296.219
296.171
296.128
296.079
296.033
295.984
295.939
295.893
295.843
295.795
295.742
295.693
295.64
295.591
295.539
295.49
295.437
295.387
295.333
295.283
295.229
295.178
295.124
295.073
295.019
294.968
294.914
294.864
294.811
294.762
294.71
294.662
294.612
294.565
294.516
294.469
294.42
294.373
294.326
294.282
294.237
294.196
294.153
294.114
294.074
294.037
294
293.964
293.929
293.896
293.862
293.832
293.802
293.774
293.746
293.719
293.692
293.668
293.648
293.632
293.618
293.603
293.587
293.572
293.557
293.544
293.529
293.517
293.503
293.495
293.49
293.49
293.492
293.493
293.493
293.493
293.494
293.496
293.499
293.504
293.51
293.517
293.525
293.533
293.543
293.553
293.565
293.577
293.59
293.603
293.615
293.629
293.643
293.659
293.675
293.693
293.712
293.731
293.751
293.77
293.79
293.81
293.831
293.853
293.874
293.895
293.916
293.937
293.957
293.978
293.997
294.017
294.036
294.056
294.076
294.095
294.112
294.128
294.142
294.155
294.168
294.183
294.198
294.213
294.226
294.238
294.248
294.258
294.266
294.274
294.282
294.289
294.295
294.3
294.305
294.309
294.312
294.314
294.314
294.314
294.314
294.313
294.311
294.309
294.306
294.303
294.302
294.299
294.295
294.288
294.277
294.263
294.249
294.236
294.225
294.214
294.203
294.191
294.176
294.158
294.138
294.118
294.098
294.079
294.061
294.043
294.026
294.008
293.989
293.969
293.949
293.927
293.903
293.879
293.852
293.821
293.784
293.741
293.695
293.656
293.634
293.629
295.963
295.96
295.951
295.928
295.887
295.827
295.753
295.674
295.605
295.551
295.517
295.501
295.496
295.496
295.499
295.514
295.547
295.611
295.707
295.839
296.008
296.206
296.43
296.668
296.916
297.164
297.407
297.638
297.854
298.051
298.225
298.375
298.502
298.604
298.684
298.739
298.775
298.796
298.806
298.81
298.808
298.803
298.783
298.741
298.676
298.589
298.492
298.39
298.293
298.214
298.142
298.101
298.064
298.046
298.03
298.023
298.016
298.011
298.005
298.001
297.995
297.988
297.978
297.963
297.946
297.919
297.887
297.857
297.833
297.811
297.792
297.769
297.743
297.714
297.676
297.636
297.589
297.543
297.49
297.437
297.376
297.316
297.252
297.19
297.129
297.071
297.015
296.963
296.913
296.866
296.821
296.776
296.731
296.686
296.64
296.593
296.545
296.5
296.451
296.406
296.355
296.309
296.26
296.211
296.169
296.128
296.099
296.068
296.053
296.037
296.025
296.015
296.003
296
295.994
295.985
295.976
295.96
295.956
295.942
295.949
295.936
295.941
295.918
295.92
295.877
295.849
295.768
295.73
295.642
295.599
295.539
295.51
295.466
295.432
295.386
295.36
295.335
295.337
295.333
295.347
295.359
295.385
295.402
295.427
295.45
295.479
295.513
295.553
295.599
295.653
295.707
295.777
295.841
295.928
296.006
296.113
296.212
296.351
296.483
296.657
296.822
297.026
297.216
297.438
297.636
297.85
298.026
298.2
298.326
298.439
298.503
298.554
298.569
298.579
298.568
298.545
298.483
298.399
298.291
298.169
298.03
297.891
297.744
297.604
297.466
297.346
297.238
297.153
297.081
297.034
297
296.978
296.962
296.953
296.945
296.939
296.932
296.923
296.913
296.895
296.88
296.856
296.839
296.815
296.803
296.78
296.773
296.756
296.743
296.734
296.721
296.715
296.702
296.687
296.664
296.639
296.618
296.595
296.58
296.557
296.546
296.522
296.511
296.489
296.48
296.454
296.441
296.41
296.396
296.367
296.356
296.331
296.32
296.296
296.283
296.263
296.249
296.23
296.216
296.198
296.188
296.176
296.171
296.167
296.169
296.172
296.189
296.209
296.243
296.276
296.322
296.367
296.427
296.484
296.553
296.618
296.69
296.755
296.823
296.881
296.947
296.998
297.051
297.087
297.123
297.16
297.187
297.215
297.234
297.256
297.268
297.284
297.29
297.299
297.299
297.301
297.297
297.296
297.289
297.286
297.274
297.268
297.251
297.242
297.22
297.207
297.182
297.168
297.141
297.126
297.096
297.079
297.047
297.029
296.995
296.975
296.939
296.917
296.879
296.853
296.814
296.797
296.763
296.739
296.699
296.662
296.636
296.598
296.571
296.528
296.497
296.45
296.417
296.368
296.332
296.282
296.243
296.191
296.157
296.105
296.068
296.011
295.963
295.921
295.869
295.828
295.77
295.726
295.668
295.623
295.565
295.522
295.463
295.419
295.36
295.314
295.255
295.209
295.15
295.103
295.044
294.998
294.939
294.892
294.835
294.789
294.732
294.687
294.632
294.589
294.534
294.492
294.437
294.395
294.342
294.3
294.25
294.211
294.163
294.126
294.081
294.046
294.003
293.971
293.93
293.899
293.861
293.832
293.798
293.771
293.739
293.716
293.684
293.66
293.635
293.617
293.598
293.585
293.567
293.553
293.535
293.523
293.507
293.495
293.479
293.468
293.457
293.454
293.453
293.455
293.456
293.457
293.457
293.458
293.459
293.462
293.466
293.472
293.479
293.486
293.494
293.504
293.514
293.526
293.537
293.551
293.562
293.576
293.588
293.604
293.618
293.635
293.653
293.672
293.692
293.712
293.732
293.752
293.772
293.792
293.813
293.833
293.854
293.876
293.897
293.918
293.938
293.958
293.977
293.997
294.016
294.036
294.054
294.072
294.087
294.101
294.114
294.129
294.142
294.158
294.172
294.187
294.197
294.209
294.217
294.228
294.235
294.243
294.249
294.256
294.261
294.266
294.269
294.272
294.273
294.274
294.274
294.273
294.272
294.271
294.268
294.266
294.263
294.262
294.259
294.256
294.247
294.236
294.222
294.208
294.195
294.184
294.173
294.163
294.15
294.136
294.118
294.098
294.078
294.058
294.039
294.02
294.003
293.984
293.966
293.948
293.928
293.907
293.884
293.861
293.836
293.809
293.779
293.743
293.701
293.656
293.617
293.595
293.591
295.963
295.961
295.951
295.929
295.887
295.827
295.752
295.675
295.603
295.552
295.517
295.503
295.497
295.497
295.501
295.516
295.554
295.618
295.719
295.855
296.026
296.228
296.452
296.692
296.937
297.185
297.425
297.653
297.866
298.057
298.226
298.374
298.496
298.597
298.672
298.727
298.761
298.779
298.787
298.789
298.788
298.781
298.755
298.71
298.634
298.55
298.446
298.352
298.263
298.19
298.136
298.095
298.067
298.043
298.031
298.023
298.017
298.013
298.01
298.008
298.007
298.007
298.004
297.997
297.98
297.956
297.92
297.896
297.877
297.862
297.846
297.828
297.81
297.784
297.757
297.718
297.682
297.632
297.588
297.527
297.471
297.4
297.335
297.261
297.194
297.126
297.064
297.004
296.949
296.896
296.846
296.797
296.749
296.701
296.654
296.604
296.557
296.507
296.463
296.414
296.37
296.323
296.274
296.23
296.184
296.157
296.116
296.105
296.088
296.084
296.079
296.071
296.074
296.073
296.079
296.077
296.07
296.067
296.043
296.058
296.034
296.051
296.018
296.03
295.991
296.002
295.927
295.912
295.776
295.739
295.606
295.583
295.498
295.489
295.426
295.401
295.333
295.305
295.263
295.264
295.252
295.268
295.273
295.298
295.31
295.336
295.36
295.392
295.429
295.476
295.521
295.586
295.636
295.723
295.783
295.889
295.95
296.085
296.171
296.345
296.46
296.67
296.814
297.052
297.214
297.465
297.626
297.861
297.994
298.184
298.269
298.398
298.434
298.5
298.502
298.513
298.493
298.461
298.382
298.297
298.185
298.063
297.927
297.798
297.649
297.518
297.375
297.271
297.162
297.093
297.036
297.002
296.976
296.961
296.949
296.942
296.936
296.927
296.927
296.912
296.897
296.879
296.858
296.837
296.825
296.806
296.798
296.791
296.781
296.778
296.768
296.772
296.769
296.766
296.751
296.73
296.707
296.682
296.666
296.642
296.629
296.601
296.59
296.556
296.553
296.525
296.521
296.479
296.467
296.419
296.412
296.37
296.366
296.325
296.32
296.283
296.274
296.246
296.238
296.215
296.208
296.186
296.178
296.167
296.168
296.164
296.167
296.169
296.189
296.202
296.233
296.255
296.3
296.336
296.395
296.445
296.515
296.574
296.648
296.706
296.778
296.833
296.906
296.949
296.995
297.039
297.073
297.113
297.136
297.168
297.183
297.209
297.218
297.237
297.24
297.251
297.25
297.254
297.25
297.251
297.242
297.242
297.229
297.227
297.206
297.2
297.173
297.166
297.137
297.129
297.097
297.087
297.052
297.042
297.001
296.987
296.946
296.928
296.888
296.866
296.822
296.803
296.77
296.765
296.723
296.683
296.651
296.613
296.589
296.544
296.516
296.468
296.439
296.389
296.357
296.305
296.272
296.219
296.184
296.132
296.107
296.051
296.005
295.952
295.901
295.867
295.808
295.767
295.706
295.664
295.603
295.562
295.5
295.458
295.396
295.354
295.291
295.251
295.187
295.145
295.081
295.039
294.977
294.933
294.871
294.828
294.766
294.726
294.664
294.625
294.567
294.525
294.469
294.428
294.372
294.332
294.278
294.241
294.189
294.152
294.103
294.068
294.022
293.99
293.947
293.916
293.875
293.847
293.809
293.783
293.747
293.724
293.69
293.669
293.639
293.621
293.597
293.582
293.559
293.546
293.525
293.514
293.496
293.485
293.468
293.456
293.44
293.433
293.427
293.429
293.429
293.431
293.432
293.433
293.433
293.435
293.437
293.44
293.444
293.45
293.457
293.465
293.474
293.485
293.496
293.509
293.519
293.532
293.543
293.558
293.571
293.587
293.603
293.622
293.642
293.663
293.684
293.704
293.724
293.742
293.761
293.78
293.8
293.821
293.842
293.864
293.885
293.906
293.925
293.945
293.964
293.985
294.002
294.021
294.036
294.053
294.067
294.082
294.094
294.112
294.123
294.14
294.151
294.165
294.174
294.187
294.194
294.205
294.211
294.219
294.224
294.23
294.233
294.237
294.238
294.239
294.238
294.238
294.237
294.237
294.235
294.234
294.23
294.229
294.226
294.225
294.219
294.212
294.199
294.185
294.17
294.158
294.146
294.137
294.126
294.114
294.1
294.083
294.064
294.043
294.022
294.002
293.983
293.964
293.946
293.927
293.907
293.887
293.865
293.841
293.817
293.792
293.766
293.737
293.703
293.662
293.618
293.58
293.56
293.557
295.965
295.961
295.953
295.929
295.889
295.827
295.753
295.673
295.605
295.551
295.522
295.505
295.503
295.502
295.507
295.526
295.566
295.638
295.744
295.886
296.062
296.267
296.494
296.731
296.977
297.218
297.453
297.674
297.877
298.061
298.225
298.363
298.485
298.575
298.647
298.696
298.726
298.741
298.745
298.747
298.747
298.734
298.706
298.645
298.574
298.476
298.388
298.293
298.226
298.166
298.13
298.1
298.076
298.051
298.041
298.028
298.027
298.024
298.027
298.033
298.046
298.059
298.081
298.093
298.102
298.068
298.06
298.025
298.046
298.035
298.035
298.011
298.008
297.988
297.967
297.936
297.897
297.861
297.802
297.755
297.675
297.61
297.516
297.438
297.346
297.265
297.184
297.112
297.041
296.976
296.914
296.855
296.797
296.743
296.688
296.637
296.584
296.538
296.486
296.447
296.401
296.358
296.319
296.268
296.242
296.198
296.189
296.172
296.177
296.178
296.177
296.187
296.203
296.222
296.263
296.271
296.281
296.28
296.284
296.26
296.282
296.248
296.26
296.215
296.232
296.182
296.201
296.09
296.065
295.849
295.81
295.615
295.589
295.485
295.474
295.389
295.349
295.257
295.219
295.145
295.137
295.113
295.124
295.121
295.137
295.149
295.172
295.196
295.23
295.268
295.32
295.363
295.44
295.491
295.595
295.627
295.755
295.796
295.961
296.025
296.231
296.32
296.562
296.672
296.941
297.063
297.341
297.46
297.722
297.816
298.039
298.096
298.262
298.281
298.377
298.377
298.407
298.381
298.36
298.277
298.202
298.091
297.992
297.856
297.747
297.589
297.469
297.311
297.216
297.112
297.059
297.01
296.984
296.962
296.953
296.943
296.936
296.938
296.93
296.918
296.91
296.886
296.869
296.854
296.844
296.836
296.842
296.842
296.857
296.846
296.87
296.884
296.899
296.898
296.896
296.877
296.858
296.842
296.814
296.801
296.771
296.762
296.72
296.707
296.667
296.667
296.633
296.623
296.556
296.541
296.474
296.471
296.412
296.406
296.347
296.337
296.285
296.278
296.244
296.245
296.217
296.211
296.182
296.178
296.165
296.167
296.16
296.163
296.162
296.172
296.166
296.181
296.187
296.22
296.24
296.288
296.324
296.39
296.44
296.514
296.566
296.65
296.705
296.772
296.821
296.867
296.923
296.956
297.002
297.026
297.064
297.08
297.112
297.121
297.147
297.151
297.169
297.169
297.18
297.176
297.182
297.177
297.179
297.168
297.166
297.146
297.145
297.121
297.119
297.087
297.081
297.05
297.049
297.008
296.999
296.955
296.942
296.904
296.885
296.843
296.818
296.781
296.781
296.75
296.724
296.677
296.636
296.616
296.572
296.545
296.498
296.468
296.42
296.389
296.34
296.305
296.257
296.222
296.17
296.14
296.09
296.057
295.997
295.945
295.909
295.856
295.814
295.756
295.711
295.653
295.611
295.55
295.505
295.447
295.401
295.342
295.301
295.239
295.195
295.133
295.09
295.028
294.981
294.921
294.877
294.817
294.775
294.714
294.674
294.615
294.57
294.515
294.471
294.417
294.375
294.322
294.284
294.231
294.191
294.141
294.104
294.058
294.023
293.98
293.947
293.906
293.876
293.837
293.81
293.773
293.748
293.713
293.689
293.66
293.643
293.618
293.6
293.574
293.556
293.534
293.522
293.503
293.491
293.475
293.463
293.447
293.434
293.423
293.424
293.421
293.424
293.424
293.426
293.426
293.427
293.428
293.429
293.432
293.436
293.44
293.447
293.454
293.463
293.473
293.485
293.497
293.509
293.52
293.532
293.544
293.56
293.574
293.592
293.611
293.632
293.654
293.675
293.695
293.714
293.732
293.749
293.768
293.786
293.806
293.827
293.849
293.871
293.892
293.912
293.931
293.953
293.971
293.99
294.005
294.023
294.038
294.055
294.069
294.085
294.096
294.112
294.123
294.138
294.149
294.163
294.172
294.183
294.191
294.201
294.207
294.214
294.217
294.222
294.223
294.224
294.223
294.223
294.222
294.222
294.22
294.22
294.217
294.215
294.212
294.211
294.207
294.203
294.192
294.181
294.166
294.153
294.139
294.128
294.117
294.107
294.095
294.082
294.065
294.046
294.026
294.005
293.984
293.963
293.943
293.923
293.903
293.882
293.86
293.837
293.812
293.787
293.762
293.736
293.707
293.674
293.636
293.594
293.558
293.54
293.539
295.966
295.966
295.954
295.935
295.889
295.83
295.752
295.676
295.605
295.558
295.527
295.516
295.512
295.514
295.521
295.544
295.592
295.67
295.785
295.934
296.115
296.323
296.549
296.786
297.024
297.26
297.483
297.693
297.884
298.059
298.211
298.347
298.449
298.538
298.598
298.641
298.668
298.677
298.68
298.679
298.68
298.665
298.624
298.568
298.48
298.403
298.307
298.241
298.178
298.147
298.121
298.112
298.089
298.08
298.054
298.051
298.043
298.046
298.057
298.078
298.104
298.146
298.181
298.238
298.257
298.265
298.23
298.296
298.303
298.363
298.343
298.362
298.336
298.351
298.327
298.307
298.277
298.231
298.192
298.111
298.056
297.945
297.863
297.74
297.638
297.521
297.421
297.319
297.229
297.139
297.057
296.977
296.903
296.832
296.767
296.704
296.65
296.595
296.554
296.505
296.47
296.433
296.385
296.362
296.321
296.315
296.295
296.304
296.309
296.322
296.34
296.38
296.404
296.498
296.525
296.616
296.606
296.647
296.634
296.644
296.629
296.64
296.59
296.604
296.556
296.585
296.526
296.531
296.339
296.283
295.983
295.925
295.672
295.636
295.48
295.461
295.332
295.268
295.149
295.078
294.992
294.966
294.926
294.921
294.914
294.922
294.931
294.951
294.973
295.007
295.044
295.101
295.148
295.24
295.268
295.381
295.395
295.541
295.564
295.752
295.792
296.022
296.08
296.345
296.416
296.706
296.785
297.086
297.164
297.461
297.526
297.793
297.831
298.042
298.05
298.198
298.207
298.274
298.255
298.249
298.174
298.117
298.012
297.941
297.811
297.718
297.542
297.434
297.265
297.183
297.089
297.04
296.998
296.977
296.961
296.953
296.953
296.948
296.942
296.943
296.928
296.916
296.898
296.894
296.879
296.899
296.908
296.959
296.961
297.015
297.039
297.092
297.116
297.135
297.129
297.127
297.125
297.106
297.091
297.053
297.05
297.011
297.007
296.945
296.926
296.878
296.881
296.817
296.795
296.701
296.681
296.594
296.586
296.501
296.483
296.401
296.38
296.319
296.318
296.28
296.283
296.241
296.231
296.191
296.184
296.166
296.166
296.155
296.155
296.138
296.13
296.104
296.1
296.084
296.088
296.086
296.111
296.134
296.187
296.224
296.297
296.35
296.437
296.491
296.554
296.621
296.669
296.734
296.77
296.826
296.854
296.902
296.922
296.963
296.977
297.012
297.022
297.05
297.054
297.076
297.076
297.092
297.091
297.099
297.092
297.093
297.081
297.084
297.065
297.061
297.038
297.039
297.011
297.005
296.962
296.956
296.92
296.907
296.869
296.846
296.806
296.792
296.767
296.758
296.714
296.671
296.642
296.605
296.579
296.534
296.505
296.455
296.426
296.378
296.348
296.301
296.263
296.211
296.179
296.127
296.1
296.047
296
295.948
295.9
295.863
295.809
295.763
295.706
295.66
295.601
295.557
295.5
295.454
295.396
295.349
295.292
295.244
295.184
295.139
295.08
295.033
294.976
294.928
294.871
294.824
294.765
294.721
294.664
294.62
294.566
294.521
294.468
294.423
294.371
294.328
294.277
294.235
294.187
294.148
294.101
294.063
294.02
293.984
293.944
293.911
293.872
293.842
293.804
293.777
293.741
293.717
293.687
293.664
293.638
293.619
293.595
293.577
293.554
293.538
293.517
293.505
293.49
293.478
293.462
293.448
293.433
293.425
293.42
293.422
293.421
293.424
293.424
293.425
293.425
293.427
293.428
293.43
293.433
293.439
293.445
293.452
293.46
293.471
293.482
293.495
293.506
293.518
293.529
293.543
293.555
293.572
293.589
293.609
293.63
293.652
293.673
293.692
293.711
293.728
293.746
293.763
293.782
293.801
293.822
293.843
293.865
293.887
293.907
293.929
293.947
293.968
293.983
294.002
294.017
294.035
294.052
294.069
294.08
294.096
294.106
294.121
294.133
294.147
294.158
294.17
294.18
294.189
294.197
294.205
294.21
294.215
294.218
294.219
294.219
294.219
294.218
294.218
294.216
294.216
294.214
294.213
294.209
294.208
294.204
294.201
294.193
294.184
294.171
294.159
294.144
294.132
294.119
294.109
294.097
294.086
294.072
294.057
294.038
294.018
293.997
293.975
293.954
293.932
293.912
293.889
293.867
293.843
293.818
293.793
293.767
293.741
293.714
293.686
293.654
293.618
293.578
293.544
293.528
293.528
295.972
295.968
295.965
295.939
295.901
295.834
295.76
295.68
295.617
295.57
295.547
295.536
295.535
295.536
295.548
295.578
295.634
295.722
295.844
296
296.185
296.393
296.616
296.845
297.077
297.298
297.51
297.703
297.883
298.044
298.188
298.299
298.4
298.466
298.525
298.56
298.581
298.59
298.591
298.592
298.59
298.566
298.53
298.457
298.39
298.303
298.243
298.178
298.15
298.125
298.126
298.111
298.114
298.092
298.087
298.072
298.066
298.075
298.093
298.127
298.175
298.215
298.283
298.321
298.39
298.358
298.467
298.52
298.67
298.687
298.768
298.762
298.804
298.804
298.825
298.798
298.783
298.747
298.683
298.645
298.535
298.47
298.325
298.219
298.065
297.939
297.796
297.671
297.543
297.426
297.311
297.203
297.099
297.003
296.914
296.836
296.765
296.711
296.66
296.624
296.585
296.549
296.523
296.492
296.49
296.471
296.479
296.477
296.5
296.52
296.585
296.614
296.748
296.771
296.969
296.983
297.112
297.096
297.147
297.109
297.14
297.106
297.122
297.064
297.073
297.054
297.071
296.947
296.927
296.615
296.522
296.164
296.062
295.768
295.688
295.481
295.407
295.255
295.151
295.017
294.919
294.817
294.763
294.711
294.691
294.678
294.681
294.686
294.702
294.719
294.754
294.788
294.851
294.895
294.986
295.002
295.118
295.124
295.278
295.291
295.488
295.511
295.75
295.782
296.055
296.092
296.386
296.427
296.743
296.795
297.124
297.17
297.476
297.495
297.756
297.77
297.985
298.013
298.124
298.117
298.14
298.085
298.043
297.946
297.884
297.768
297.692
297.5
297.404
297.254
297.169
297.084
297.037
297.004
296.986
296.982
296.977
296.975
296.975
296.976
296.972
296.955
296.958
296.94
296.964
296.974
297.06
297.082
297.184
297.222
297.311
297.362
297.424
297.448
297.475
297.482
297.489
297.496
297.472
297.46
297.424
297.43
297.376
297.357
297.276
297.258
297.188
297.18
297.072
297.045
296.926
296.898
296.786
296.757
296.647
296.604
296.502
296.475
296.408
296.409
296.357
296.35
296.287
296.268
296.216
296.204
296.172
296.17
296.146
296.135
296.1
296.075
296.028
296
295.951
295.926
295.896
295.896
295.894
295.924
295.952
296.023
296.075
296.148
296.213
296.275
296.354
296.406
296.479
296.521
296.588
296.622
296.681
296.709
296.763
296.786
296.834
296.852
296.894
296.906
296.942
296.95
296.978
296.983
297.001
296.999
297.011
297.01
297.011
297
297.008
296.994
296.993
296.961
296.959
296.926
296.922
296.889
296.873
296.833
296.813
296.78
296.773
296.745
296.714
296.674
296.636
296.612
296.568
296.54
296.495
296.464
296.416
296.386
296.337
296.303
296.253
296.22
296.168
296.136
296.085
296.054
295.995
295.944
295.907
295.857
295.816
295.757
295.712
295.654
295.61
295.551
295.506
295.445
295.402
295.343
295.297
295.236
295.193
295.131
295.087
295.025
294.981
294.922
294.876
294.816
294.772
294.713
294.671
294.612
294.57
294.514
294.471
294.416
294.375
294.323
294.281
294.229
294.19
294.141
294.104
294.058
294.023
293.979
293.946
293.905
293.875
293.836
293.808
293.772
293.746
293.712
293.688
293.659
293.64
293.613
293.596
293.572
293.556
293.533
293.52
293.502
293.49
293.473
293.461
293.445
293.434
293.424
293.422
293.42
293.422
293.422
293.424
293.424
293.425
293.426
293.428
293.429
293.433
293.438
293.445
293.451
293.46
293.47
293.482
293.493
293.506
293.517
293.53
293.541
293.556
293.571
293.59
293.609
293.63
293.652
293.672
293.691
293.709
293.727
293.744
293.762
293.78
293.798
293.819
293.84
293.862
293.883
293.906
293.924
293.946
293.962
293.983
293.997
294.018
294.035
294.053
294.066
294.082
294.093
294.107
294.12
294.134
294.146
294.159
294.17
294.18
294.189
294.197
294.204
294.211
294.215
294.218
294.218
294.218
294.217
294.218
294.216
294.216
294.214
294.214
294.211
294.209
294.206
294.204
294.197
294.19
294.178
294.169
294.155
294.144
294.129
294.118
294.104
294.093
294.079
294.066
294.051
294.034
294.014
293.993
293.971
293.949
293.927
293.903
293.88
293.855
293.831
293.804
293.778
293.752
293.725
293.698
293.67
293.639
293.603
293.564
293.533
293.519
293.519
295.984
295.985
295.974
295.958
295.911
295.852
295.773
295.701
295.639
295.602
295.582
295.576
295.574
295.579
295.596
295.634
295.7
295.797
295.926
296.086
296.27
296.475
296.689
296.909
297.124
297.333
297.527
297.707
297.87
298.017
298.135
298.241
298.314
298.382
298.42
298.456
298.468
298.479
298.477
298.48
298.468
298.451
298.402
298.351
298.28
298.227
298.171
298.147
298.123
298.129
298.118
298.125
298.115
298.11
298.101
298.087
298.091
298.095
298.128
298.174
298.218
298.278
298.31
298.368
298.361
298.481
298.568
298.784
298.884
299.05
299.107
299.206
299.247
299.312
299.347
299.366
299.352
299.325
299.289
299.206
299.174
299.04
298.958
298.79
298.66
298.486
298.335
298.168
298.015
297.859
297.711
297.565
297.425
297.292
297.17
297.061
296.97
296.897
296.844
296.802
296.772
296.746
296.724
296.724
296.71
296.72
296.713
296.733
296.742
296.817
296.847
297.007
297.035
297.282
297.297
297.568
297.569
297.695
297.686
297.705
297.692
297.704
297.664
297.674
297.63
297.661
297.588
297.587
297.345
297.267
296.895
296.735
296.353
296.178
295.86
295.706
295.469
295.321
295.153
295.018
294.868
294.744
294.629
294.554
294.493
294.461
294.444
294.441
294.444
294.458
294.47
294.502
294.533
294.593
294.632
294.717
294.731
294.842
294.853
295.004
295.016
295.209
295.222
295.455
295.471
295.733
295.744
296.025
296.044
296.367
296.408
296.757
296.784
297.112
297.12
297.433
297.469
297.756
297.795
297.984
297.99
298.046
297.996
297.963
297.869
297.838
297.726
297.662
297.498
297.392
297.251
297.163
297.092
297.053
297.033
297.025
297.025
297.02
297.025
297.03
297.017
297.029
297.014
297.038
297.041
297.143
297.183
297.329
297.397
297.525
297.601
297.698
297.758
297.829
297.858
297.901
297.945
297.956
297.964
297.935
297.938
297.901
297.899
297.809
297.794
297.691
297.683
297.567
297.553
297.405
297.376
297.229
297.182
297.045
296.984
296.851
296.785
296.674
296.641
296.561
296.549
296.471
296.445
296.363
296.331
296.264
296.24
296.189
296.171
296.131
296.104
296.055
296.013
295.946
295.888
295.811
295.756
295.69
295.655
295.628
295.64
295.656
295.711
295.754
295.813
295.889
295.949
296.034
296.088
296.17
296.218
296.294
296.337
296.409
296.448
296.516
296.55
296.614
296.644
296.701
296.726
296.776
296.795
296.839
296.851
296.886
296.895
296.92
296.919
296.938
296.94
296.947
296.934
296.936
296.916
296.916
296.892
296.886
296.849
296.834
296.796
296.788
296.761
296.748
296.706
296.664
296.641
296.601
296.575
296.529
296.497
296.454
296.423
296.374
296.339
296.288
296.255
296.205
296.171
296.121
296.094
296.042
295.998
295.947
295.897
295.862
295.805
295.761
295.701
295.659
295.599
295.557
295.496
295.452
295.391
295.348
295.288
295.242
295.182
295.139
295.076
295.034
294.971
294.927
294.867
294.823
294.761
294.72
294.662
294.618
294.56
294.519
294.463
294.423
294.367
294.326
294.274
294.235
294.182
294.144
294.096
294.062
294.016
293.984
293.94
293.908
293.867
293.839
293.802
293.775
293.74
293.716
293.684
293.662
293.635
293.616
293.59
293.573
293.549
293.534
293.514
293.502
293.484
293.472
293.456
293.446
293.433
293.425
293.419
293.42
293.419
293.421
293.422
293.423
293.423
293.425
293.426
293.429
293.432
293.438
293.444
293.452
293.46
293.47
293.481
293.493
293.505
293.517
293.528
293.542
293.555
293.571
293.589
293.609
293.63
293.65
293.67
293.688
293.707
293.724
293.742
293.759
293.778
293.796
293.816
293.837
293.857
293.881
293.9
293.923
293.94
293.961
293.976
293.997
294.013
294.034
294.05
294.068
294.08
294.095
294.106
294.12
294.132
294.146
294.158
294.17
294.18
294.189
294.196
294.204
294.21
294.215
294.217
294.218
294.217
294.218
294.217
294.217
294.215
294.215
294.212
294.211
294.208
294.206
294.201
294.196
294.185
294.177
294.164
294.154
294.141
294.129
294.114
294.101
294.087
294.074
294.06
294.045
294.029
294.01
293.989
293.967
293.944
293.92
293.897
293.87
293.845
293.818
293.792
293.764
293.737
293.711
293.683
293.655
293.624
293.589
293.552
293.522
293.509
293.511
296.011
296.007
296.004
295.979
295.943
295.877
295.807
295.738
295.688
295.657
295.644
295.64
295.641
295.65
295.675
295.722
295.797
295.901
296.034
296.193
296.373
296.567
296.77
296.972
297.172
297.359
297.537
297.699
297.845
297.968
298.074
298.153
298.224
298.268
298.31
298.327
298.346
298.346
298.35
298.345
298.34
298.317
298.286
298.237
298.197
298.153
298.135
298.116
298.124
298.115
298.125
298.118
298.117
298.113
298.098
298.102
298.097
298.119
298.156
298.202
298.253
298.284
298.33
298.331
298.404
298.457
298.666
298.859
299.084
299.224
299.392
299.52
299.63
299.752
299.832
299.908
299.92
299.915
299.874
299.856
299.765
299.729
299.583
299.483
299.311
299.165
298.98
298.809
298.623
298.445
298.263
298.084
297.907
297.734
297.57
297.42
297.294
297.194
297.124
297.079
297.053
297.038
297.042
297.033
297.045
297.031
297.055
297.049
297.103
297.12
297.284
297.321
297.579
297.607
297.926
297.951
298.211
298.213
298.302
298.284
298.306
298.273
298.289
298.24
298.271
298.205
298.202
298.034
297.976
297.668
297.501
297.115
296.872
296.487
296.231
295.901
295.663
295.411
295.218
295.03
294.866
294.703
294.565
294.445
294.358
294.292
294.254
294.235
294.23
294.231
294.242
294.25
294.278
294.305
294.358
294.394
294.468
294.488
294.592
294.614
294.751
294.771
294.944
294.962
295.171
295.183
295.412
295.411
295.671
295.687
296.007
296.043
296.388
296.393
296.725
296.74
297.107
297.172
297.534
297.594
297.853
297.868
297.951
297.89
297.884
297.813
297.81
297.721
297.655
297.498
297.379
297.249
297.175
297.124
297.097
297.093