/*--------------------------------*- C++ -*----------------------------------*\
| =========                 |                                                 |
| \\      /  F ield         | OpenFOAM: The Open Source CFD Toolbox           |
|  \\    /   O peration     | Version:  v1812                                 |
|   \\  /    A nd           | Web:      www.OpenFOAM.com                      |
|    \\/     M anipulation  |                                                 |
\*---------------------------------------------------------------------------*/
FoamFile
{
    version     2.0;
    format      ascii;
    class       volVectorField;
    location    "0.7";
    object      U;
}
// * * * * * * * * * * * * * * * * * * * * * * * * * * * * * * * * * * * * * //

dimensions      [0 1 -1 0 0 0 0];


internalField   nonuniform List<vector> 
20400
(
(-0.00664772 0.0109052 0)
(-0.0221972 0.00902793 0)
(-0.0402042 0.00470903 0)
(-0.072378 0.00203932 0)
(-0.0880883 -0.00433877 0)
(-0.144469 0.000609983 0)
(-0.154694 -0.00405205 0)
(-0.234787 0.000834924 0)
(-0.238739 -0.00571111 0)
(-0.32653 0.004125 0)
(-0.330077 -0.00573211 0)
(-0.412545 0.00452417 0)
(-0.416311 -0.00495084 0)
(-0.486754 0.00435975 0)
(-0.491071 -0.00368405 0)
(-0.54375 0.00534233 0)
(-0.549268 -0.000442602 0)
(-0.579777 0.00432478 0)
(-0.584114 0.00229938 0)
(-0.592562 0.00225575 0)
(-0.5918 0.00197523 0)
(-0.588821 0.00167778 0)
(-0.573194 0.0025618 0)
(-0.56728 -0.000577609 0)
(-0.534756 0.00371814 0)
(-0.530233 0.00134431 0)
(-0.490178 0.00111805 0)
(-0.486421 0.00298361 0)
(-0.450841 0.000612676 0)
(-0.44588 0.00212216 0)
(-0.422806 0.00239139 0)
(-0.417896 0.00319091 0)
(-0.408576 0.00433109 0)
(-0.416585 0.00511195 0)
(-0.413043 0.00567993 0)
(-0.452613 0.0104819 0)
(-0.452148 0.00455783 0)
(-0.537591 0.0184791 0)
(-0.541539 -0.00302838 0)
(-0.689066 0.0266514 0)
(-0.698237 -0.00430007 0)
(-0.923598 0.0363967 0)
(-0.940772 -0.0116999 0)
(-1.25405 0.0473312 0)
(-1.28807 -0.0197543 0)
(-1.69879 0.0666336 0)
(-1.76303 -0.020938 0)
(-2.2705 0.0938356 0)
(-2.39158 -0.0173018 0)
(-2.96914 0.116588 0)
(-3.18779 -0.0111157 0)
(-3.8144 0.122522 0)
(-4.17164 5.94005e-05 0)
(-4.83831 0.117279 0)
(-5.34959 0.0259297 0)
(-6.04618 0.113652 0)
(-6.65897 0.0669712 0)
(-7.34051 0.112188 0)
(-7.95473 0.102555 0)
(-8.5289 0.104546 0)
(-8.99006 0.0789061 0)
(-9.31765 0.0399441 0)
(-9.49507 0.0118023 0)
(-9.53858 -0.0144554 0)
(-9.45998 -0.0546834 0)
(-9.33123 -0.138522 0)
(-9.07211 -0.244614 0)
(-8.84195 -0.26328 0)
(-8.44146 -0.26592 0)
(-8.11299 -0.180371 0)
(-7.61803 -0.139369 0)
(-7.19032 -0.0674148 0)
(-6.65098 -0.00502628 0)
(-6.15419 0.0957138 0)
(-5.58679 0.135568 0)
(-5.04791 0.219588 0)
(-4.47219 0.213946 0)
(-3.91492 0.229373 0)
(-3.35101 0.206909 0)
(-2.80777 0.177097 0)
(-2.28245 0.129607 0)
(-1.78661 0.0688975 0)
(-1.32324 -0.00515588 0)
(-0.897477 -0.0842667 0)
(-0.514261 -0.14767 0)
(-0.187291 -0.161206 0)
(0.0622709 -0.106221 0)
(0.232637 -0.031892 0)
(0.357371 0.00594218 0)
(0.457898 0.00656506 0)
(0.542991 0.00733319 0)
(0.614723 0.0118424 0)
(0.66931 0.00527392 0)
(0.708198 -0.0102828 0)
(0.731979 -0.022484 0)
(0.743491 -0.0294498 0)
(0.734705 -0.0375073 0)
(0.728586 -0.0387732 0)
(0.658695 -0.0455756 0)
(0.645037 -0.0283855 0)
(0.525348 -0.0465137 0)
(0.512108 -0.0194787 0)
(0.377714 -0.0448917 0)
(0.374092 -0.0339149 0)
(0.245568 -0.0354413 0)
(0.23153 -0.0237915 0)
(0.130058 -0.00664149 0)
(0.104361 -0.00381794 0)
(0.0498423 0.00418585 0)
(0.0289371 -0.0012206 0)
(0.0171642 -0.0128289 0)
(0.0243203 -0.0232635 0)
(0.0257774 -0.028883 0)
(0.0735158 -0.0195045 0)
(0.0744766 -0.0336229 0)
(0.214161 -0.0353767 0)
(0.220095 -0.0387417 0)
(0.502194 -0.0574156 0)
(0.52232 -0.0327941 0)
(0.924525 -0.0633082 0)
(0.94888 -0.023143 0)
(1.42879 -0.065863 0)
(1.45618 -0.0208444 0)
(1.94564 -0.0621343 0)
(1.97594 -0.0283489 0)
(2.42876 -0.0384473 0)
(2.45408 -0.03574 0)
(2.86406 -0.00603 0)
(2.89313 -0.0384898 0)
(3.24398 0.00755614 0)
(3.26015 -0.0244851 0)
(3.57751 -0.00218882 0)
(3.58402 -0.0231742 0)
(3.85263 0.00325414 0)
(3.84955 -0.0113458 0)
(4.07558 0.000898393 0)
(4.06876 -0.00671122 0)
(4.24815 0.00555295 0)
(4.2449 -0.00390304 0)
(4.37661 0.00131617 0)
(4.37159 0.00316304 0)
(4.44344 0.00597203 0)
(4.44006 0.00890726 0)
(4.46353 0.00883035 0)
(4.45769 0.010189 0)
(4.45452 0.011031 0)
(4.43652 0.0151672 0)
(4.4228 0.019263 0)
(4.38516 0.014774 0)
(4.36979 0.0237274 0)
(4.30329 0.0133755 0)
(4.28828 0.0270326 0)
(4.19228 0.0117635 0)
(4.17697 0.0298758 0)
(4.05996 0.00913934 0)
(4.04225 0.0322397 0)
(3.90821 0.00663468 0)
(3.88816 0.034107 0)
(3.74003 0.00491558 0)
(3.71778 0.0359103 0)
(3.55915 0.00314507 0)
(3.53603 0.0363688 0)
(3.37122 0.00100095 0)
(3.34803 0.0356467 0)
(3.18189 -0.0016086 0)
(3.15917 0.0338953 0)
(2.99429 -0.00355308 0)
(2.97231 0.0330119 0)
(2.81122 -0.00453789 0)
(2.79207 0.030639 0)
(2.64285 -0.0058836 0)
(2.62793 0.0263054 0)
(2.49519 -0.00727678 0)
(2.48519 0.020673 0)
(2.36889 -0.00203106 0)
(2.36625 0.0140083 0)
(2.27444 0.00152402 0)
(2.27784 0.00170302 0)
(2.25734 -0.00456911 0)
(2.29361 -0.0207826 0)
(2.31 -0.0335865 0)
(2.40462 -0.0406421 0)
(2.44244 -0.0349904 0)
(2.55824 -0.0310546 0)
(2.61163 -0.0485026 0)
(2.74344 -0.0429712 0)
(2.81009 -0.0519885 0)
(2.93598 -0.0633764 0)
(2.98671 -0.0632964 0)
(3.04917 -0.0501823 0)
(3.05112 -0.0404977 0)
(3.05276 -0.0286935 0)
(2.94514 -0.0146878 0)
(2.93093 0.0108932 0)
(2.71769 -0.0314898 0)
(2.69443 0.00244934 0)
(2.366 -0.0111949 0)
(2.32542 0.0531374 0)
(1.96995 -0.0122254 0)
(1.92777 0.0641206 0)
(1.59495 -0.00469082 0)
(1.55704 0.0538703 0)
(1.25385 -0.0278717 0)
(1.21547 0.0257851 0)
(0.941868 -0.0574555 0)
(0.900017 -0.00761583 0)
(0.691272 -0.0922466 0)
(0.654674 -0.0431476 0)
(0.483262 -0.0768568 0)
(0.443666 -0.0439299 0)
(0.329494 -0.0210088 0)
(0.292991 -0.0261373 0)
(0.250222 -0.00870442 0)
(0.227038 -0.00425929 0)
(0.226114 0.00162413 0)
(0.221411 0.00385269 0)
(0.268248 -0.000330622 0)
(0.264201 0.00264597 0)
(0.366269 -0.00771843 0)
(0.364182 -0.000328082 0)
(0.509329 -0.0143067 0)
(0.514083 -0.00515738 0)
(0.690557 -0.0195435 0)
(0.702975 -0.00654345 0)
(0.90177 -0.0237612 0)
(0.914804 -0.0105756 0)
(1.1259 -0.0196787 0)
(1.13655 -0.0237653 0)
(1.35013 -0.0169506 0)
(1.36254 -0.0237735 0)
(1.57032 -0.0252276 0)
(1.57957 -0.0284268 0)
(1.7738 -0.028511 0)
(1.78298 -0.0363213 0)
(1.95091 -0.0295541 0)
(1.96311 -0.035818 0)
(2.10104 -0.0201437 0)
(2.1062 -0.0184338 0)
(2.22671 -0.00371402 0)
(2.23173 -0.000377144 0)
(2.35549 0.0112671 0)
(2.36426 0.0134548 0)
(2.49325 0.0308905 0)
(2.50446 0.0373863 0)
(2.62743 0.0456239 0)
(2.63418 0.0481151 0)
(2.73984 0.0531962 0)
(2.74551 0.0506235 0)
(2.82988 0.0613296 0)
(2.83539 0.0535029 0)
(2.90646 0.0639372 0)
(2.91117 0.0552643 0)
(2.9765 0.0658632 0)
(2.98106 0.0576691 0)
(3.04451 0.0689608 0)
(3.04928 0.061158 0)
(3.11112 0.072546 0)
(3.11611 0.0647278 0)
(3.17671 0.0754706 0)
(3.18291 0.0663296 0)
(3.2434 0.0783779 0)
(3.25348 0.0790798 0)
(3.29571 0.0697309 0)
(3.32515 0.0859552 0)
(3.34319 0.0737596 0)
(3.39813 0.0854183 0)
(3.40483 0.0804954 0)
(3.46818 0.089001 0)
(3.47546 0.0811462 0)
(3.54195 0.0921621 0)
(3.55107 0.0834032 0)
(3.62056 0.0959931 0)
(3.63105 0.0870012 0)
(3.70541 0.10095 0)
(3.71693 0.0917298 0)
(3.79865 0.105884 0)
(3.80966 0.097709 0)
(3.9003 0.111155 0)
(3.91024 0.104895 0)
(4.00912 0.117361 0)
(4.01884 0.111314 0)
(4.12445 0.124901 0)
(4.1352 0.11859 0)
(4.24603 0.132944 0)
(4.25875 0.125433 0)
(4.37212 0.142027 0)
(4.38745 0.131142 0)
(4.50298 0.149518 0)
(4.5203 0.139446 0)
(4.63902 0.159946 0)
(4.65766 0.148956 0)
(4.78017 0.16844 0)
(4.80051 0.15575 0)
(4.92606 0.178152 0)
(4.94793 0.163293 0)
(5.07633 0.186279 0)
(5.09803 0.173116 0)
(5.23117 0.194486 0)
(5.25297 0.180827 0)
(5.39285 0.204152 0)
(5.41531 0.197677 0)
(5.55553 0.189874 0)
(5.5927 0.221231 0)
(5.68844 0.193416 0)
(5.76659 0.22955 0)
(5.82299 0.203525 0)
(5.95802 0.232645 0)
(5.98767 0.222911 0)
(6.1371 0.244034 0)
(6.16288 0.230484 0)
(6.31187 0.253734 0)
(6.33622 0.240022 0)
(6.48762 0.263066 0)
(6.51043 0.250509 0)
(6.66655 0.27165 0)
(6.68674 0.266352 0)
(6.84554 0.272647 0)
(6.86732 0.282325 0)
(7.01698 0.27053 0)
(7.05237 0.299561 0)
(7.17128 0.271365 0)
(7.23763 0.314188 0)
(7.31353 0.287908 0)
(7.43879 0.323867 0)
(7.47103 0.315826 0)
(7.62908 0.336088 0)
(7.64967 0.327319 0)
(7.80316 0.348038 0)
(7.82298 0.335957 0)
(7.97284 0.357367 0)
(7.99359 0.344889 0)
(8.1412 0.367408 0)
(8.16244 0.355038 0)
(8.30909 0.378989 0)
(8.32933 0.371522 0)
(8.47245 0.393697 0)
(8.49063 0.381193 0)
(8.62539 0.401371 0)
(8.64322 0.38992 0)
(8.77116 0.411567 0)
(8.78877 0.399984 0)
(8.91124 0.42128 0)
(8.92786 0.409955 0)
(9.04641 0.429907 0)
(9.06077 0.418954 0)
(9.17357 0.438951 0)
(9.18695 0.428367 0)
(9.29434 0.447044 0)
(9.30665 0.436188 0)
(9.40773 0.454597 0)
(9.4183 0.447464 0)
(9.51443 0.463959 0)
(9.52317 0.455503 0)
(9.61254 0.472259 0)
(9.62051 0.465444 0)
(9.70348 0.479545 0)
(9.70944 0.469023 0)
(9.78315 0.482545 0)
(9.78898 0.475993 0)
(9.85939 0.491273 0)
(9.86369 0.484661 0)
(9.92672 0.496465 0)
(9.92916 0.48883 0)
(9.98221 0.497348 0)
(9.98382 0.489232 0)
(10.0278 0.498137 0)
(10.0291 0.491927 0)
(10.0674 0.499107 0)
(10.0676 0.489826 0)
(10.098 0.495402 0)
(10.0977 0.488167 0)
(10.1229 0.494196 0)
(10.1222 0.487194 0)
(10.1442 0.491275 0)
(10.1405 0.482699 0)
(10.1589 0.483728 0)
(10.1573 0.480235 0)
(10.1695 0.482731 0)
(10.1658 0.480625 0)
(10.1652 0.480369 0)
(10.1537 0.477637 0)
(10.1525 0.478388 0)
(10.138 0.478812 0)
(10.133 0.479872 0)
(10.108 0.475648 0)
(10.0899 0.47203 0)
(10.0471 0.449043 0)
(10.0069 0.409916 0)
(9.95416 0.327626 0)
(9.9187 0.202331 0)
(9.90109 0.0393269 0)
(9.91341 -0.127835 0)
(9.94109 -0.263027 0)
(9.98633 -0.345626 0)
(10.0225 -0.384363 0)
(10.0506 -0.392808 0)
(10.0617 -0.395996 0)
(10.0646 -0.394428 0)
(10.0595 -0.393436 0)
(10.0477 -0.391038 0)
(10.0304 -0.387954 0)
(10.0105 -0.383323 0)
(9.98554 -0.383791 0)
(9.96187 -0.378392 0)
(9.93034 -0.373922 0)
(9.90116 -0.365437 0)
(9.85907 -0.356495 0)
(9.81866 -0.341585 0)
(9.76022 -0.326498 0)
(9.70369 -0.297207 0)
(9.63178 -0.256049 0)
(9.5657 -0.194347 0)
(9.5081 -0.103989 0)
(9.47212 0.00524899 0)
(9.46262 0.117909 0)
(9.47498 0.214021 0)
(9.49844 0.281306 0)
(9.52433 0.320377 0)
(9.5417 0.340542 0)
(9.55125 0.346301 0)
(9.55229 0.346108 0)
(9.54655 0.345456 0)
(9.53642 0.341721 0)
(9.52228 0.335295 0)
(9.5073 0.328354 0)
(9.49233 0.322857 0)
(9.47962 0.316528 0)
(9.46718 0.317185 0)
(9.4552 0.309435 0)
(9.43985 0.298987 0)
(9.42256 0.274277 0)
(9.40396 0.2318 0)
(9.38873 0.162194 0)
(9.38093 0.0675272 0)
(9.38544 -0.0420827 0)
(9.40186 -0.143881 0)
(9.42395 -0.219412 0)
(9.44978 -0.262086 0)
(9.46666 -0.278754 0)
(9.48036 -0.28312 0)
(9.48346 -0.284326 0)
(9.48303 -0.282243 0)
(9.47518 -0.280868 0)
(9.47213 -0.275856 0)
(9.45861 -0.276339 0)
(9.45725 -0.272175 0)
(9.44789 -0.271925 0)
(9.449 -0.269184 0)
(9.44696 -0.269881 0)
(9.44952 -0.267888 0)
(9.45028 -0.266367 0)
(9.45583 -0.264329 0)
(9.45842 -0.264787 0)
(9.46741 -0.262819 0)
(9.47157 -0.262516 0)
(9.48199 -0.260206 0)
(9.48696 -0.260307 0)
(9.49407 -0.257757 0)
(9.49773 -0.258152 0)
(9.50323 -0.256046 0)
(9.50496 -0.256761 0)
(9.50871 -0.254908 0)
(9.50926 -0.253587 0)
(9.51326 -0.251038 0)
(9.5152 -0.249552 0)
(9.52206 -0.247559 0)
(9.52716 -0.247452 0)
(9.53493 -0.245156 0)
(9.54092 -0.244005 0)
(9.54756 -0.239938 0)
(9.55379 -0.238175 0)
(9.56318 -0.237864 0)
(9.57303 -0.240245 0)
(9.58577 -0.241306 0)
(9.59736 -0.242125 0)
(9.60745 -0.240649 0)
(9.61482 -0.237471 0)
(9.62 -0.232789 0)
(9.62514 -0.228603 0)
(9.63068 -0.225318 0)
(9.63705 -0.223496 0)
(9.64336 -0.222651 0)
(9.6504 -0.221705 0)
(9.65569 -0.220448 0)
(9.66215 -0.219741 0)
(9.66602 -0.217931 0)
(9.66687 -0.213213 0)
(9.66289 -0.204415 0)
(9.65434 -0.189155 0)
(9.64257 -0.163455 0)
(9.63064 -0.122936 0)
(9.62199 -0.0671904 0)
(9.61987 -0.00210837 0)
(9.62588 0.0608816 0)
(9.63636 0.110247 0)
(9.64987 0.14011 0)
(9.66179 0.152462 0)
(9.67237 0.151672 0)
(9.68242 0.149875 0)
(9.67944 0.148307 0)
(-0.00159906 0.033537 0)
(-0.0356332 0.0487093 0)
(-0.0957686 0.0673533 0)
(-0.145678 0.0695578 0)
(-0.262358 0.087995 0)
(-0.306891 0.082875 0)
(-0.483995 0.103856 0)
(-0.511403 0.0928812 0)
(-0.720945 0.104643 0)
(-0.729821 0.0961032 0)
(-0.939702 0.100532 0)
(-0.942508 0.0903566 0)
(-1.12612 0.0902527 0)
(-1.1284 0.0795876 0)
(-1.27356 0.0756103 0)
(-1.27838 0.0649599 0)
(-1.37513 0.0572464 0)
(-1.38417 0.0474886 0)
(-1.42755 0.034613 0)
(-1.4347 0.0284156 0)
(-1.44159 0.0187116 0)
(-1.42868 0.00925082 0)
(-1.42277 0.00147227 0)
(-1.3769 -0.00575488 0)
(-1.37271 -0.0106919 0)
(-1.30238 -0.0130496 0)
(-1.2998 -0.0128495 0)
(-1.22634 -0.0108955 0)
(-1.22412 -0.00870886 0)
(-1.1708 -0.00141146 0)
(-1.16627 0.000978164 0)
(-1.14657 0.0112233 0)
(-1.1627 0.0242224 0)
(-1.15789 0.0299838 0)
(-1.23947 0.058215 0)
(-1.23682 0.0582714 0)
(-1.42489 0.108109 0)
(-1.41846 0.0955107 0)
(-1.74192 0.176982 0)
(-1.73841 0.147579 0)
(-2.21465 0.258688 0)
(-2.22413 0.205042 0)
(-2.86552 0.350912 0)
(-2.88242 0.278907 0)
(-3.70585 0.44687 0)
(-3.7353 0.357952 0)
(-4.74119 0.543776 0)
(-4.80037 0.442389 0)
(-5.93266 0.637394 0)
(-6.08386 0.546797 0)
(-7.21781 0.729663 0)
(-7.53964 0.689165 0)
(-8.57951 0.81386 0)
(-9.08059 0.826048 0)
(-9.98365 0.887449 0)
(-10.5779 0.893293 0)
(-11.3032 0.87677 0)
(-11.847 0.844926 0)
(-12.3707 0.759219 0)
(-12.7618 0.645396 0)
(-13.065 0.484172 0)
(-13.265 0.299132 0)
(-13.3764 0.121146 0)
(-13.3821 -0.0234916 0)
(-13.2958 -0.117086 0)
(-13.0525 -0.202102 0)
(-12.8452 -0.241203 0)
(-12.3667 -0.305672 0)
(-11.9895 -0.369775 0)
(-11.3709 -0.452306 0)
(-10.8275 -0.527741 0)
(-10.1265 -0.575293 0)
(-9.46174 -0.634773 0)
(-8.70427 -0.700207 0)
(-7.95417 -0.731142 0)
(-7.15682 -0.797099 0)
(-6.3617 -0.809855 0)
(-5.55302 -0.848669 0)
(-4.75655 -0.850018 0)
(-3.96644 -0.856214 0)
(-3.20336 -0.838673 0)
(-2.46794 -0.819151 0)
(-1.77782 -0.781963 0)
(-1.14408 -0.73123 0)
(-0.584365 -0.656634 0)
(-0.109074 -0.549673 0)
(0.291223 -0.432318 0)
(0.642979 -0.333672 0)
(0.957474 -0.265344 0)
(1.22485 -0.221972 0)
(1.44539 -0.194979 0)
(1.62017 -0.167968 0)
(1.75691 -0.132047 0)
(1.85002 -0.0896438 0)
(1.90898 -0.0535327 0)
(1.92621 -0.0175476 0)
(1.91755 0.00878174 0)
(1.82102 0.0523057 0)
(1.7971 0.0841927 0)
(1.55051 0.0953945 0)
(1.53405 0.131469 0)
(1.19596 0.103881 0)
(1.18945 0.129536 0)
(0.838625 0.10439 0)
(0.8285 0.136369 0)
(0.520378 0.113677 0)
(0.498264 0.102081 0)
(0.306126 0.0786998 0)
(0.268034 0.0432707 0)
(0.199009 0.00625397 0)
(0.199369 -0.0263178 0)
(0.200125 -0.055062 0)
(0.357606 -0.0792634 0)
(0.362198 -0.114833 0)
(0.754169 -0.198036 0)
(0.776586 -0.224168 0)
(1.49319 -0.34541 0)
(1.5357 -0.338807 0)
(2.5241 -0.474766 0)
(2.58535 -0.423753 0)
(3.72472 -0.535023 0)
(3.79111 -0.461345 0)
(4.9609 -0.515396 0)
(5.02152 -0.45243 0)
(6.10921 -0.446599 0)
(6.15958 -0.417162 0)
(7.14122 -0.37448 0)
(7.19085 -0.406615 0)
(8.02328 -0.300032 0)
(8.07785 -0.352471 0)
(8.80117 -0.254373 0)
(8.83667 -0.287101 0)
(9.47612 -0.209379 0)
(9.48722 -0.225081 0)
(10.0544 -0.16885 0)
(10.0309 -0.172492 0)
(10.514 -0.130399 0)
(10.4932 -0.13554 0)
(10.8704 -0.0870322 0)
(10.857 -0.0834689 0)
(11.1175 -0.0398018 0)
(11.1097 -0.0290291 0)
(11.2592 0.000909693 0)
(11.2584 0.0127075 0)
(11.3131 0.0339721 0)
(11.3123 0.0439767 0)
(11.3088 0.0559393 0)
(11.277 0.0686445 0)
(11.2592 0.0796085 0)
(11.1628 0.0912057 0)
(11.1497 0.11069 0)
(10.9778 0.112714 0)
(10.9662 0.140928 0)
(10.7337 0.126669 0)
(10.7174 0.169139 0)
(10.4397 0.139028 0)
(10.416 0.19361 0)
(10.0965 0.149017 0)
(10.0669 0.213352 0)
(9.71413 0.156726 0)
(9.68021 0.226616 0)
(9.30087 0.160562 0)
(9.26379 0.235525 0)
(8.86848 0.160039 0)
(8.82942 0.238722 0)
(8.42315 0.158371 0)
(8.38539 0.239033 0)
(7.97421 0.153805 0)
(7.93597 0.231236 0)
(7.53393 0.140831 0)
(7.50067 0.21245 0)
(7.12221 0.123846 0)
(7.09431 0.186193 0)
(6.74975 0.108899 0)
(6.73813 0.150201 0)
(6.43699 0.08824 0)
(6.43668 0.102281 0)
(6.22999 0.0313656 0)
(6.23836 0.015389 0)
(6.15206 -0.0228908 0)
(6.23273 -0.0567614 0)
(6.23215 -0.0823958 0)
(6.3762 -0.0950977 0)
(6.39226 -0.128571 0)
(6.54935 -0.112098 0)
(6.56813 -0.150765 0)
(6.73024 -0.125398 0)
(6.74709 -0.106086 0)
(6.8471 -0.0573095 0)
(6.8217 -0.00291827 0)
(6.81084 0.0240244 0)
(6.59646 0.0777408 0)
(6.54854 0.121134 0)
(6.11196 0.144993 0)
(6.06134 0.20859 0)
(5.43214 0.237922 0)
(5.38067 0.317719 0)
(4.60726 0.226902 0)
(4.55215 0.335612 0)
(3.78239 0.189987 0)
(3.7376 0.298615 0)
(3.00976 0.172185 0)
(2.9629 0.276477 0)
(2.2964 0.161063 0)
(2.23586 0.273497 0)
(1.66052 0.12953 0)
(1.61047 0.227809 0)
(1.14416 0.136402 0)
(1.11551 0.183433 0)
(0.807543 0.131931 0)
(0.789253 0.0912685 0)
(0.645683 0.0584068 0)
(0.616509 0.0227878 0)
(0.605249 -0.0151881 0)
(0.591272 -0.0449819 0)
(0.693259 -0.0838999 0)
(0.68459 -0.0918726 0)
(0.929074 -0.142143 0)
(0.922477 -0.139514 0)
(1.28922 -0.185014 0)
(1.28634 -0.17512 0)
(1.72919 -0.213365 0)
(1.74415 -0.207011 0)
(2.22976 -0.233154 0)
(2.25177 -0.212626 0)
(2.75425 -0.2329 0)
(2.77628 -0.21969 0)
(3.27336 -0.212361 0)
(3.29159 -0.218204 0)
(3.77349 -0.200374 0)
(3.79181 -0.197233 0)
(4.24533 -0.174994 0)
(4.25906 -0.173232 0)
(4.66737 -0.140579 0)
(4.68154 -0.141884 0)
(5.02497 -0.10806 0)
(5.03571 -0.111486 0)
(5.33202 -0.0910264 0)
(5.33716 -0.103593 0)
(5.61293 -0.102373 0)
(5.62198 -0.116164 0)
(5.8938 -0.1141 0)
(5.90784 -0.128022 0)
(6.17061 -0.122702 0)
(6.1821 -0.121053 0)
(6.42323 -0.104012 0)
(6.4285 -0.1005 0)
(6.63413 -0.0793168 0)
(6.63786 -0.0831789 0)
(6.8134 -0.0616689 0)
(6.81802 -0.0689125 0)
(6.97134 -0.0487597 0)
(6.97756 -0.0597824 0)
(7.11834 -0.0410508 0)
(7.1269 -0.0533617 0)
(7.261 -0.0350616 0)
(7.26949 -0.047501 0)
(7.39865 -0.0288678 0)
(7.40526 -0.0426704 0)
(7.53156 -0.0227372 0)
(7.53821 -0.0364201 0)
(7.65568 -0.0246631 0)
(7.68581 -0.0168991 0)
(7.72973 -0.0263701 0)
(7.8317 -0.0132622 0)
(7.83535 -0.0195581 0)
(7.96206 -0.0113737 0)
(7.96338 -0.0225248 0)
(8.08611 -0.00796533 0)
(8.09063 -0.0223177 0)
(8.21791 -0.00586165 0)
(8.22344 -0.0217384 0)
(8.35761 -0.00655504 0)
(8.36325 -0.0232399 0)
(8.50682 -0.00978354 0)
(8.51187 -0.025423 0)
(8.66746 -0.0144065 0)
(8.67038 -0.02762 0)
(8.83813 -0.0200532 0)
(8.83946 -0.0316207 0)
(9.01749 -0.0234616 0)
(9.01876 -0.0361996 0)
(9.20668 -0.0269299 0)
(9.20918 -0.041571 0)
(9.40278 -0.0294402 0)
(9.40792 -0.0470874 0)
(9.60442 -0.0293193 0)
(9.61198 -0.0496809 0)
(9.81349 -0.033722 0)
(9.82232 -0.0551197 0)
(10.0279 -0.0390639 0)
(10.0363 -0.060352 0)
(10.2498 -0.0413545 0)
(10.2589 -0.0662527 0)
(10.479 -0.0446374 0)
(10.4857 -0.0682791 0)
(10.7122 -0.0517727 0)
(10.7173 -0.0722858 0)
(10.9515 -0.0583774 0)
(10.9543 -0.0811397 0)
(11.2051 -0.0660647 0)
(11.2082 -0.0630669 0)
(11.4376 -0.0805305 0)
(11.4977 -0.0537391 0)
(11.603 -0.0899233 0)
(11.7999 -0.0766412 0)
(11.8194 -0.0902057 0)
(12.0798 -0.0840431 0)
(12.0934 -0.0988394 0)
(12.3378 -0.0838754 0)
(12.3549 -0.100025 0)
(12.6002 -0.0885475 0)
(12.6174 -0.103907 0)
(12.8657 -0.0939323 0)
(12.8822 -0.107559 0)
(13.1318 -0.101332 0)
(13.1452 -0.107685 0)
(13.3986 -0.10282 0)
(13.4076 -0.0970762 0)
(13.6604 -0.114833 0)
(13.7014 -0.0853508 0)
(13.8626 -0.127272 0)
(14.0067 -0.107755 0)
(14.0502 -0.129736 0)
(14.3177 -0.125578 0)
(14.3151 -0.133764 0)
(14.5812 -0.125917 0)
(14.5797 -0.137974 0)
(14.8353 -0.127272 0)
(14.8375 -0.142555 0)
(15.0888 -0.130022 0)
(15.0924 -0.146573 0)
(15.341 -0.13632 0)
(15.3447 -0.151989 0)
(15.5903 -0.145301 0)
(15.5925 -0.156368 0)
(15.8289 -0.141412 0)
(15.8327 -0.157367 0)
(16.0582 -0.142922 0)
(16.0623 -0.15967 0)
(16.2782 -0.145535 0)
(16.2827 -0.162786 0)
(16.4929 -0.150129 0)
(16.4941 -0.165269 0)
(16.6986 -0.152502 0)
(16.6997 -0.168091 0)
(16.8964 -0.155769 0)
(16.8979 -0.169921 0)
(17.0828 -0.158391 0)
(17.0837 -0.17119 0)
(17.2612 -0.16447 0)
(17.2613 -0.174452 0)
(17.4288 -0.165642 0)
(17.429 -0.177376 0)
(17.5888 -0.17042 0)
(17.5877 -0.177942 0)
(17.7374 -0.165593 0)
(17.7368 -0.178396 0)
(17.8764 -0.172583 0)
(17.8735 -0.181888 0)
(18.0058 -0.174596 0)
(18.0011 -0.181073 0)
(18.125 -0.172439 0)
(18.1205 -0.178831 0)
(18.2327 -0.169263 0)
(18.2293 -0.177828 0)
(18.331 -0.172022 0)
(18.3269 -0.17679 0)
(18.4184 -0.167498 0)
(18.4159 -0.174802 0)
(18.4968 -0.167451 0)
(18.4946 -0.174957 0)
(18.5679 -0.168947 0)
(18.5662 -0.174031 0)
(18.6313 -0.164873 0)
(18.6323 -0.172911 0)
(18.6902 -0.169386 0)
(18.6913 -0.169013 0)
(18.7347 -0.16165 0)
(18.7312 -0.161683 0)
(18.7612 -0.156603 0)
(18.7572 -0.161237 0)
(18.7775 -0.161317 0)
(18.7686 -0.155466 0)
(18.7838 -0.146981 0)
(18.7682 -0.134335 0)
(18.774 -0.113469 0)
(18.7509 -0.0887355 0)
(18.7536 -0.0609346 0)
(18.7394 -0.0288466 0)
(18.7478 0.00884701 0)
(18.7549 0.0509236 0)
(18.7771 0.0945903 0)
(18.8016 0.129014 0)
(18.8329 0.160276 0)
(18.8516 0.182395 0)
(18.8687 0.200427 0)
(18.8757 0.209764 0)
(18.8758 0.21821 0)
(18.8688 0.224371 0)
(18.8577 0.229232 0)
(18.8408 0.231977 0)
(18.8246 0.234388 0)
(18.8001 0.236062 0)
(18.7826 0.237277 0)
(18.7507 0.24172 0)
(18.7283 0.245084 0)
(18.6859 0.250596 0)
(18.6543 0.257343 0)
(18.6009 0.253743 0)
(18.5613 0.24507 0)
(18.5103 0.208217 0)
(18.4784 0.144771 0)
(18.4526 0.0550701 0)
(18.4405 -0.0397889 0)
(18.4385 -0.116362 0)
(18.4435 -0.15819 0)
(18.4563 -0.171744 0)
(18.4673 -0.168916 0)
(18.4755 -0.160491 0)
(18.4774 -0.151518 0)
(18.4718 -0.142388 0)
(18.4634 -0.133375 0)
(18.4514 -0.127599 0)
(18.4387 -0.124203 0)
(18.4255 -0.124278 0)
(18.4129 -0.124496 0)
(18.4003 -0.126005 0)
(18.3901 -0.119915 0)
(18.3768 -0.112202 0)
(18.3676 -0.0986455 0)
(18.3548 -0.081167 0)
(18.3466 -0.0573244 0)
(18.3379 -0.0279287 0)
(18.3367 0.00778787 0)
(18.3357 0.0444287 0)
(18.3447 0.0797149 0)
(18.345 0.105298 0)
(18.3581 0.125103 0)
(18.3552 0.138497 0)
(18.3569 0.148312 0)
(18.3427 0.153233 0)
(18.3412 0.159211 0)
(18.3175 0.158022 0)
(18.3171 0.158591 0)
(18.2947 0.153268 0)
(18.2951 0.151446 0)
(18.2796 0.145524 0)
(18.2806 0.144726 0)
(18.2712 0.141945 0)
(18.2735 0.139802 0)
(18.2671 0.137473 0)
(18.2711 0.135924 0)
(18.2672 0.133977 0)
(18.2723 0.132521 0)
(18.2719 0.131958 0)
(18.2762 0.133044 0)
(18.2726 0.133761 0)
(18.2766 0.136312 0)
(18.2725 0.136578 0)
(18.2739 0.138934 0)
(18.2677 0.13881 0)
(18.2689 0.138747 0)
(18.2641 0.137262 0)
(18.2664 0.135066 0)
(18.2658 0.132379 0)
(18.27 0.132004 0)
(18.2726 0.130794 0)
(18.2781 0.131156 0)
(18.2818 0.129127 0)
(18.2877 0.126391 0)
(18.2928 0.123373 0)
(18.3013 0.122273 0)
(18.3099 0.12153 0)
(18.3193 0.12478 0)
(18.3268 0.12792 0)
(18.3325 0.129833 0)
(18.3372 0.128731 0)
(18.341 0.12664 0)
(18.3459 0.124567 0)
(18.3514 0.123072 0)
(18.3571 0.122569 0)
(18.3616 0.122477 0)
(18.3694 0.122693 0)
(18.3727 0.123441 0)
(18.3777 0.12655 0)
(18.3787 0.129868 0)
(18.378 0.132625 0)
(18.3746 0.132481 0)
(18.3707 0.124839 0)
(18.3678 0.104868 0)
(18.3666 0.0708042 0)
(18.3688 0.0270945 0)
(18.3749 -0.0159843 0)
(18.3837 -0.0484251 0)
(18.3962 -0.0656612 0)
(18.4092 -0.0703213 0)
(18.4214 -0.0692645 0)
(18.4326 -0.0690493 0)
(18.4268 -0.0690428 0)
(0.00424441 0.0620632 0)
(-0.0628067 0.117685 0)
(-0.133712 0.140552 0)
(-0.262226 0.189649 0)
(-0.352809 0.190671 0)
(-0.553826 0.245857 0)
(-0.645981 0.23155 0)
(-0.895565 0.258796 0)
(-0.966586 0.233885 0)
(-1.22783 0.242689 0)
(-1.27212 0.223689 0)
(-1.51401 0.214596 0)
(-1.54236 0.198282 0)
(-1.74156 0.179362 0)
(-1.76462 0.162723 0)
(-1.90729 0.139492 0)
(-1.93152 0.122452 0)
(-2.01029 0.0937327 0)
(-2.03185 0.0727415 0)
(-2.06086 0.0487445 0)
(-2.06593 0.027471 0)
(-2.06263 0.00824256 0)
(-2.03869 -0.0139976 0)
(-2.03177 -0.0247676 0)
(-1.97201 -0.0376888 0)
(-1.97103 -0.0409145 0)
(-1.89511 -0.0422227 0)
(-1.89474 -0.0401657 0)
(-1.83328 -0.0272132 0)
(-1.8271 -0.0207625 0)
(-1.80505 0.00232338 0)
(-1.82005 0.0302951 0)
(-1.81383 0.0504888 0)
(-1.91504 0.104045 0)
(-1.90603 0.118963 0)
(-2.138 0.218174 0)
(-2.12084 0.214066 0)
(-2.51665 0.360834 0)
(-2.50585 0.331579 0)
(-3.07381 0.521666 0)
(-3.07351 0.483737 0)
(-3.83001 0.701483 0)
(-3.84563 0.636095 0)
(-4.7796 0.897923 0)
(-4.82298 0.810517 0)
(-5.90819 1.09542 0)
(-5.99861 1.00729 0)
(-7.17649 1.25907 0)
(-7.36666 1.2185 0)
(-8.5063 1.3731 0)
(-8.85062 1.40953 0)
(-9.85215 1.47838 0)
(-10.3374 1.5365 0)
(-11.1661 1.54615 0)
(-11.6942 1.5665 0)
(-12.3255 1.51568 0)
(-12.7802 1.41913 0)
(-13.2054 1.29624 0)
(-13.5132 1.12124 0)
(-13.7523 0.909485 0)
(-13.9053 0.662062 0)
(-14.0039 0.407543 0)
(-14.052 0.156914 0)
(-14.0421 -0.0524213 0)
(-13.9358 -0.286523 0)
(-13.8098 -0.443075 0)
(-13.4564 -0.733602 0)
(-13.1698 -0.870122 0)
(-12.5454 -1.15752 0)
(-12.0656 -1.23947 0)
(-11.2907 -1.48405 0)
(-10.6616 -1.49621 0)
(-9.79476 -1.70531 0)
(-9.06793 -1.69284 0)
(-8.1438 -1.83862 0)
(-7.3641 -1.81408 0)
(-6.4234 -1.89704 0)
(-5.62839 -1.84266 0)
(-4.71984 -1.87094 0)
(-3.9361 -1.78881 0)
(-3.09527 -1.75459 0)
(-2.35512 -1.64672 0)
(-1.618 -1.55195 0)
(-0.965699 -1.4091 0)
(-0.354385 -1.25252 0)
(0.183571 -1.06615 0)
(0.683946 -0.898357 0)
(1.15373 -0.769009 0)
(1.58767 -0.655107 0)
(1.97082 -0.547935 0)
(2.28872 -0.445525 0)
(2.54169 -0.353351 0)
(2.73122 -0.276185 0)
(2.8642 -0.204602 0)
(2.94573 -0.138054 0)
(2.97647 -0.0712597 0)
(2.92666 0.00661785 0)
(2.8822 0.0750892 0)
(2.67525 0.173599 0)
(2.63008 0.234956 0)
(2.23415 0.270092 0)
(2.21458 0.318686 0)
(1.72749 0.298317 0)
(1.72232 0.327948 0)
(1.24533 0.285713 0)
(1.24513 0.278954 0)
(0.890183 0.232025 0)
(0.853892 0.194359 0)
(0.716204 0.0948538 0)
(0.709768 0.00977819 0)
(0.687863 -0.0822528 0)
(0.904903 -0.211289 0)
(0.904847 -0.283128 0)
(1.52404 -0.468531 0)
(1.51134 -0.532434 0)
(2.58192 -0.829574 0)
(2.56412 -0.826804 0)
(4.01049 -1.14745 0)
(4.00447 -1.10274 0)
(5.64821 -1.29902 0)
(5.6534 -1.23843 0)
(7.30479 -1.31378 0)
(7.31994 -1.22606 0)
(8.86806 -1.224 0)
(8.8988 -1.13378 0)
(10.253 -1.07045 0)
(10.3206 -1.01966 0)
(11.4971 -0.904009 0)
(11.5632 -0.917918 0)
(12.5692 -0.750029 0)
(12.6008 -0.80187 0)
(13.5112 -0.646867 0)
(13.5185 -0.661182 0)
(14.3294 -0.536033 0)
(14.3143 -0.534814 0)
(15.0091 -0.430196 0)
(14.9993 -0.420514 0)
(15.5624 -0.340932 0)
(15.5607 -0.32603 0)
(15.9912 -0.230465 0)
(15.9891 -0.201201 0)
(16.288 -0.124798 0)
(16.298 -0.0926141 0)
(16.4624 -0.0322704 0)
(16.4877 -0.00147729 0)
(16.5445 0.0410874 0)
(16.5569 0.0741238 0)
(16.5532 0.10741 0)
(16.5066 0.148791 0)
(16.487 0.172558 0)
(16.3492 0.213954 0)
(16.3352 0.247877 0)
(16.1029 0.268743 0)
(16.0874 0.320599 0)
(15.7805 0.311175 0)
(15.7569 0.382978 0)
(15.387 0.352718 0)
(15.3532 0.436233 0)
(14.9294 0.385749 0)
(14.8884 0.479532 0)
(14.4198 0.410094 0)
(14.371 0.512761 0)
(13.867 0.422432 0)
(13.8129 0.531605 0)
(13.2806 0.428566 0)
(13.2232 0.542999 0)
(12.6683 0.431793 0)
(12.6096 0.54533 0)
(12.0439 0.417881 0)
(11.9865 0.526075 0)
(11.4266 0.386881 0)
(11.3737 0.485234 0)
(10.8371 0.343747 0)
(10.7948 0.426023 0)
(10.3117 0.291009 0)
(10.2887 0.345669 0)
(9.87157 0.207456 0)
(9.86732 0.215692 0)
(9.54983 0.0651013 0)
(9.55926 0.0203221 0)
(9.40579 -0.126003 0)
(9.41707 -0.163274 0)
(9.40213 -0.187925 0)
(9.40812 -0.20031 0)
(9.39544 -0.21454 0)
(9.39134 -0.219304 0)
(9.37015 -0.225834 0)
(9.36724 -0.209789 0)
(9.28989 -0.116566 0)
(9.23838 -0.0220116 0)
(9.01841 0.124014 0)
(8.87076 0.247389 0)
(8.44999 0.388693 0)
(8.2577 0.480352 0)
(7.62747 0.568284 0)
(7.43646 0.671845 0)
(6.61956 0.716843 0)
(6.45636 0.848134 0)
(5.49787 0.717712 0)
(5.4077 0.829119 0)
(4.46069 0.687507 0)
(4.38092 0.786758 0)
(3.4865 0.619876 0)
(3.38926 0.749091 0)
(2.57813 0.543297 0)
(2.52626 0.618095 0)
(1.85036 0.4183 0)
(1.8391 0.452137 0)
(1.34125 0.29098 0)
(1.34274 0.25216 0)
(1.06617 0.163297 0)
(1.03997 0.102432 0)
(0.982063 0.0080122 0)
(0.968157 -0.0479331 0)
(1.09345 -0.123864 0)
(1.08159 -0.16276 0)
(1.40663 -0.285137 0)
(1.39766 -0.310054 0)
(1.90785 -0.421272 0)
(1.90464 -0.417658 0)
(2.53484 -0.512746 0)
(2.53397 -0.505511 0)
(3.23369 -0.570878 0)
(3.23643 -0.557774 0)
(3.95943 -0.589672 0)
(3.96308 -0.565392 0)
(4.67187 -0.573998 0)
(4.66444 -0.562364 0)
(5.34707 -0.543342 0)
(5.33645 -0.544433 0)
(5.98189 -0.51501 0)
(5.97544 -0.505006 0)
(6.56789 -0.458609 0)
(6.56017 -0.452613 0)
(7.06277 -0.392939 0)
(7.08005 -0.383418 0)
(7.49439 -0.318415 0)
(7.51449 -0.30531 0)
(7.88977 -0.271032 0)
(7.90322 -0.277957 0)
(8.25261 -0.25769 0)
(8.26892 -0.267218 0)
(8.60124 -0.235324 0)
(8.61308 -0.2288 0)
(8.92711 -0.195431 0)
(8.93038 -0.178011 0)
(9.21188 -0.147991 0)
(9.21838 -0.125861 0)
(9.45917 -0.0993096 0)
(9.46605 -0.0929492 0)
(9.67789 -0.0639421 0)
(9.68343 -0.0655031 0)
(9.87458 -0.0426846 0)
(9.883 -0.0499905 0)
(10.0603 -0.0277535 0)
(10.0698 -0.0340135 0)
(10.2373 -0.0103457 0)
(10.2479 -0.0187824 0)
(10.4039 0.00608494 0)
(10.4138 -0.00479373 0)
(10.5669 0.0204138 0)
(10.5829 0.014263 0)
(10.6796 0.0311997 0)
(10.7611 0.0336154 0)
(10.7768 0.037958 0)
(10.9275 0.0469166 0)
(10.9267 0.0377116 0)
(11.0612 0.0555089 0)
(11.0652 0.0415927 0)
(11.2021 0.0604462 0)
(11.2072 0.0452708 0)
(11.3483 0.0632493 0)
(11.3533 0.0478496 0)
(11.5014 0.0641695 0)
(11.5066 0.0482093 0)
(11.6625 0.0638999 0)
(11.6671 0.0488006 0)
(11.8334 0.0618244 0)
(11.8367 0.04789 0)
(12.0129 0.0609149 0)
(12.014 0.0484488 0)
(12.2017 0.0598142 0)
(12.2021 0.0492915 0)
(12.3975 0.0610416 0)
(12.4005 0.0498093 0)
(12.5986 0.0653135 0)
(12.6057 0.051101 0)
(12.8069 0.0667475 0)
(12.8184 0.0529601 0)
(13.0211 0.0731216 0)
(13.0335 0.0574284 0)
(13.2429 0.07352 0)
(13.2532 0.0570151 0)
(13.4726 0.0778704 0)
(13.4774 0.0589614 0)
(13.7087 0.0769129 0)
(13.7118 0.0625116 0)
(13.9479 0.0737027 0)
(13.9501 0.059141 0)
(14.1965 0.0682868 0)
(14.1938 0.0616443 0)
(14.4583 0.065751 0)
(14.4759 0.075655 0)
(14.6631 0.0715808 0)
(14.7882 0.0683332 0)
(14.8364 0.0635025 0)
(15.0998 0.0691164 0)
(15.112 0.0608319 0)
(15.3625 0.0724094 0)
(15.3777 0.0666486 0)
(15.6307 0.0748249 0)
(15.6478 0.067183 0)
(15.902 0.0751907 0)
(15.9194 0.0683129 0)
(16.1746 0.0749169 0)
(16.1921 0.080266 0)
(16.449 0.0774758 0)
(16.4628 0.0792674 0)
(16.7272 0.0832849 0)
(16.7457 0.0885467 0)