/*--------------------------------*- C++ -*----------------------------------*\
| =========                 |                                                 |
| \\      /  F ield         | OpenFOAM: The Open Source CFD Toolbox           |
|  \\    /   O peration     | Version:  v1812                                 |
|   \\  /    A nd           | Web:      www.OpenFOAM.com                      |
|    \\/     M anipulation  |                                                 |
\*---------------------------------------------------------------------------*/
FoamFile
{
    version     2.0;
    format      ascii;
    class       volScalarField;
    location    "0.7";
    object      p;
}
// * * * * * * * * * * * * * * * * * * * * * * * * * * * * * * * * * * * * * //

dimensions      [1 -1 -2 0 0 0 0];


internalField   nonuniform List<scalar> 
20400
(
106559
106558
106559
106562
106563
106562
106563
106563
106565
106566
106567
106569
106572
106575
106579
106584
106588
106594
106600
106606
106613
106621
106628
106636
106645
106653
106662
106672
106681
106686
106694
106702
106710
106716
106720
106724
106731
106732
106733
106736
106735
106732
106730
106722
106728
106738
106739
106739
106733
106730
106726
106720
106720
106719
106717
106717
106719
106721
106724
106731
106742
106757
106774
106788
106812
106828
106852
106877
106905
106947
106992
107027
107064
107103
107140
107175
107206
107234
107258
107281
107300
107316
107329
107336
107340
107340
107336
107331
107329
107312
107297
107281
107264
107249
107225
107203
107186
107169
107152
107135
107113
107089
107052
107034
107018
107000
106982
106966
106948
106928
106909
106894
106883
106869
106856
106846
106834
106824
106815
106806
106798
106790
106784
106779
106774
106769
106760
106753
106747
106743
106740
106738
106738
106739
106737
106741
106744
106748
106751
106756
106764
106770
106779
106790
106801
106812
106823
106834
106847
106858
106872
106883
106901
106914
106931
106947
106963
106977
106996
107014
107034
107049
107063
107079
107100
107124
107130
107148
107161
107174
107190
107201
107213
107226
107238
107249
107253
107260
107266
107270
107268
107272
107272
107273
107274
107270
107264
107261
107257
107255
107249
107246
107246
107243
107243
107243
107240
107236
107237
107241
107239
107235
107239
107237
107233
107233
107231
107227
107222
107216
107211
107201
107188
107175
107161
107147
107133
107116
107098
107079
107062
107044
107024
107003
106984
106962
106938
106919
106894
106872
106849
106825
106801
106779
106754
106736
106716
106696
106675
106655
106633
106617
106597
106578
106562
106546
106529
106516
106499
106487
106472
106461
106449
106438
106426
106416
106405
106394
106386
106377
106370
106361
106355
106351
106340
106336
106326
106325
106315
106307
106300
106295
106290
106289
106279
106271
106266
106253
106246
106239
106232
106224
106212
106203
106210
106183
106179
106156
106146
106138
106122
106120
106088
106075
106052
106045
106027
105997
105977
105948
105929
105924
105876
105852
105817
105786
105755
105728
105697
105664
105632
105581
105541
105500
105458
105424
105383
105327
105294
105230
105171
105121
105065
105017
104964
104905
104884
104803
104737
104700
104618
104557
104500
104426
104349
104312
104224
104149
104115
104025
103963
103886
103811
103745
103667
103594
103516
103477
103386
103314
103263
103167
103091
103014
102953
102887
102825
102762
102718
102637
102581
102525
102459
102393
102341
102289
102230
102172
102121
102082
102025
101970
101935
101890
101856
101816
101789
101741
101697
101675
101646
101619
101595
101571
101565
101539
101515
101505
101493
101483
101475
101468
101463
101442
101449
101445
101448
101453
101463
101465
101469
101476
101489
101500
101515
101525
101541
101555
101572
101591
101612
101634
101656
101673
101697
101722
101748
101778
101796
101826
101837
101869
101897
101922
101951
101976
102003
102029
102052
102075
102101
102131
102158
102186
102207
102228
102253
102280
102299
102314
102340
102358
102386
102391
102414
102423
102439
102454
102468
102474
102486
102499
102502
102508
102518
102518
102518
102522
102525
102527
102529
102516
102518
102503
102502
102488
102485
102470
102450
102437
102415
102397
102376
102359
102333
102306
102277
102250
102218
102195
102155
102125
102091
102051
102012
101976
101935
101903
101853
101812
101765
101719
101678
101634
101591
101540
101494
101443
101398
101360
106563
106562
106562
106562
106563
106561
106562
106563
106564
106566
106568
106571
106573
106577
106580
106585
106589
106594
106600
106606
106612
106618
106624
106632
106637
106642
106650
106661
106669
106671
106676
106690
106703
106704
106704
106715
106728
106728
106738
106741
106757
106763
106768
106781
106778
106786
106792
106794
106794
106796
106796
106795
106792
106787
106783
106782
106783
106781
106779
106775
106779
106780
106785
106795
106832
106858
106881
106904
106924
106949
106974
106996
107019
107045
107073
107100
107127
107151
107174
107193
107212
107227
107240
107249
107255
107255
107254
107258
107236
107237
107233
107226
107221
107221
107219
107209
107193
107175
107159
107140
107113
107085
107062
107038
107023
107003
106985
106966
106946
106927
106914
106899
106885
106870
106856
106842
106827
106815
106806
106799
106794
106789
106787
106787
106786
106771
106751
106747
106743
106740
106737
106736
106736
106735
106738
106743
106748
106752
106756
106759
106766
106771
106779
106789
106803
106813
106826
106840
106855
106867
106879
106881
106896
106906
106914
106942
106961
106976
106994
107011
107030
107045
107062
107080
107105
107109
107126
107150
107166
107182
107197
107208
107213
107223
107234
107243
107250
107257
107266
107272
107271
107275
107274
107275
107277
107277
107288
107287
107283
107278
107275
107272
107266
107258
107253
107250
107245
107242
107236
107241
107237
107234
107229
107222
107217
107213
107208
107202
107199
107191
107185
107183
107180
107171
107159
107145
107131
107116
107100
107082
107059
107036
107015
106996
106978
106957
106934
106915
106892
106870
106848
106826
106805
106786
106766
106743
106712
106690
106672
106653
106631
106615
106597
106583
106567
106548
106529
106516
106502
106488
106471
106457
106445
106434
106421
106414
106407
106398
106391
106378
106362
106355
106350
106345
106338
106340
106327
106320
106312
106305
106302
106299
106290
106280
106277
106269
106270
106256
106250
106246
106237
106212
106207
106201
106205
106181
106183
106159
106154
106133
106117
106108
106090
106080
106059
106036
106024
105996
105984
105958
105923
105912
105874
105857
105819
105792
105764
105720
105689
105658
105631
105582
105545
105502
105473
105414
105369
105320
105281
105231
105176
105131
105079
105032
104986
104903
104858
104812
104728
104676
104628
104542
104484
104436
104344
104291
104234
104142
104090
104035
103943
103879
103822
103728
103664
103606
103513
103454
103396
103306
103238
103167
103110
103026
102962
102898
102846
102751
102694
102639
102595
102510
102443
102401
102356
102278
102213
102180
102121
102062
102020
101983
101942
101903
101860
101797
101772
101739
101712
101686
101658
101632
101614
101557
101537
101529
101528
101515
101507
101477
101452
101456
101450
101459
101462
101465
101468
101432
101441
101451
101481
101500
101500
101484
101500
101511
101529
101561
101588
101602
101595
101620
101650
101683
101715
101744
101749
101754
101782
101824
101860
101865
101879
101922
101945
101962
101989
102030
102060
102094
102126
102131
102136
102167
102195
102221
102247
102281
102305
102334
102361
102351
102365
102377
102417
102443
102442
102443
102474
102494
102483
102480
102493
102503
102522
102528
102539
102547
102528
102511
102512
102507
102528
102526
102517
102474
102465
102458
102437
102443
102425
102410
102376
102335
102319
102307
102294
102265
102211
102175
102146
102129
102091
102056
102027
101989
101930
101885
101840
101813
101775
101738
101681
101612
101577
101532
101501
101460
101395
101346
106553
106555
106553
106554
106554
106556
106556
106557
106556
106558
106560
106562
106565
106568
106571
106575
106579
106583
106589
106594
106600
106607
106616
106622
106631
106641
106648
106652
106662
106674
106685
106686
106689
106705
106718
106722
106728
106737
106741
106743
106749
106753
106755
106762
106768
106773
106775
106774
106769
106767
106764
106758
106757
106750
106739
106730
106725
106720
106726
106733
106731
106749
106758
106767
106777
106790
106812
106834
106850
106871
106896
106918
106946
106977
107012
107051
107091
107132
107170
107205
107237
107264
107288
107306
107318
107324
107324
107318
107315
107306
107293
107275
107260
107244
107223
107199
107178
107156
107135
107115
107086
107055
107077
107049
107027
107007
106988
106967
106945
106931
106915
106900
106886
106874
106864
106854
106843
106832
106821
106808
106797
106791
106788
106785
106784
106774
106762
106756
106751
106746
106744
106742
106744
106746
106741
106739
106741
106745
106748
106751
106760
106766
106774
106789
106803
106816
106820
106824
106840
106849
106853
106875
106895
106903
106915
106940
106964
106977
106995
107010
107025
107038
107051
107067
107082
107131
107136
107143
107151
107166
107180
107195
107204
107216
107226
107235
107243
107251
107258
107264
107267
107274
107276
107275
107275
107275
107272
107272
107269
107263
107258
107263
107266
107251
107249
107247
107243
107239
107233
107231
107233
107230
107228
107224
107221
107217
107212
107207
107200
107191
107184
107174
107166
107158
107150
107141
107132
107121
107109
107095
107075
107053
107032
107011
106991
106972
106950
106924
106892
106869
106847
106823
106801
106779
106758
106737
106715
106694
106674
106655
106636
106617
106595
106577
106560
106546
106530
106516
106498
106486
106473
106462
106449
106439
106426
106416
106404
106391
106386
106377
106371
106361
106355
106351
106340
106334
106327
106324
106314
106309
106301
106294
106289
106287
106277
106273
106263
106251
106243
106242
106231
106225
106211
106201
106198
106189
106177
106158
106153
106134
106123
106107
106095
106074
106061
106040
106016
106008
105978
105959
105922
105913
105879
105855
105820
105788
105760
105727
105690
105658
105619
105594
105547
105503
105463
105417
105381
105326
105278
105243
105183
105133
105078
105026
104975
104919
104857
104810
104733
104675
104627
104545
104485
104434
104346
104296
104232
104145
104091
104033
103952
103878
103819
103739
103663
103603
103517
103458
103393
103310
103243
103174
103106
103025
102960
102895
102829
102770
102704
102641
102584
102520
102454
102399
102344
102285
102226
102178
102121
102075
102029
101979
101935
101891
101854
101818
101779
101748
101704
101675
101647
101621
101597
101570
101560
101542
101517
101498
101491
101481
101477
101469
101459
101444
101443
101442
101450
101454
101466
101469
101467
101470
101489
101501
101523
101529
101544
101552
101563
101592
101619
101639
101655
101668
101688
101722
101747
101783
101801
101821
101836
101872
101905
101921
101953
101984
102010
102025
102045
102067
102105
102133
102159
102192
102215
102238
102262
102269
102292
102308
102341
102360
102392
102401
102408
102414
102439
102461
102462
102466
102490
102507
102513
102515
102507
102512
102511
102524
102529
102529
102536
102523
102510
102493
102502
102494
102495
102473
102459
102428
102402
102393
102378
102366
102341
102305
102267
102248
102223
102205
102162
102122
102091
102048
102004
101973
101939
101911
101863
101809
101758
101712
101680
101640
101597
101544
101487
101437
101404
101369
106563
106563
106564
106564
106565
106565
106566
106566
106567
106568
106570
106572
106575
106579
106583
106587
106591
106597
106602
106609
106615
106623
106630
106637
106646
106655
106663
106670
106680
106688
106697
106701
106708
106719
106726
106730
106733
106735
106748
106754
106760
106761
106759
106763
106768
106776
106779
106780
106774
106770
106762
106750
106746
106747
106737
106732
106732
106720
106728
106728
106731
106735
106744
106756
106783
106798
106825
106856
106883
106917
106956
106990
107028
107066
107103
107139
107171
107200
107224
107244
107259
107270
107279
107287
107295
107302
107307
107308
107308
107307
107298
107284
107271
107256
107231
107211
107188
107170
107151
107132
107108
107089
107065
107040
107020
106998
106978
106962
106943
106924
106904
106888
106872
106856
106845
106839
106831
106822
106813
106802
106794
106785
106777
106772
106770
106769
106759
106752
106746
106741
106737
106735
106733
106731
106734
106735
106739
106742
106746
106748
106764
106777
106783
106773
106789
106804
106809
106824
106842
106845
106849
106880
106910
106921
106929
106938
106962
106977
106994
107007
107015
107036
107052
107070
107082
107124
107142
107145
107160
107173
107189
107202
107214
107228
107238
107245
107252
107259
107265
107269
107271
107275
107275
107273
107272
107270
107264
107260
107256
107248
107243
107250
107245
107240
107235
107234
107231
107227
107225
107227
107228
107225
107227
107231
107233
107233
107230
107227
107222
107213
107205
107194
107183
107170
107157
107142
107122
107102
107086
107072
107056
107038
107018
106998
106979
106959
106941
106918
106893
106871
106849
106826
106801
106778
106755
106735
106720
106700
106679
106656
106634
106615
106593
106578
106561
106548
106531
106516
106500
106486
106475
106463
106449
106438
106426
106415
106405
106393
106382
106379
106372
106362
106356
106350
106342
106335
106326
106324
106316
106304
106300
106292
106290
106287
106282
106264
106264
106251
106242
106234
106232
106227
106215
106206
106202
106179
106179
106156
106145
106140
106125
106117
106085
106070
106054
106041
106029
105992
105974
105952
105937
105904
105874
105852
105817
105785
105755
105729
105696
105663
105631
105579
105542
105502
105457
105430
105380
105326
105286
105229
105176
105127
105072
105024
104972
104915
104868
104801
104736
104686
104617
104549
104496
104426
104355
104303
104226
104154
104100
104023
103951
103887
103810
103737
103672
103595
103523
103463
103385
103310
103247
103163
103098
103024
102957
102887
102821
102773
102714
102635
102578
102521
102463
102393
102335
102287
102233
102171
102119
102076
102025
101977
101930
101886
101850
101821
101779
101741
101705
101677
101643
101614
101591
101581
101555
101539
101516
101497
101483
101486
101476
101472
101452
101446
101443
101441
101444
101463
101462
101467
101462
101472
101482
101512
101522
101527
101541
101547
101569
101588
101618
101641
101652
101667
101690
101713
101750
101783
101808
101819
101837
101873
101904
101921
101952
101980
102008
102029
102041
102070
102096
102133
102168
102190
102213
102237
102253
102273
102294
102311
102332
102367
102391
102404
102408
102418
102440
102459
102463
102468
102488
102503
102512
102508
102511
102515
102513
102517
102531
102537
102531
102522
102507
102502
102494
102503
102491
102471
102453
102430
102410
102386
102378
102363
102343
102308
102273
102244
102228
102194
102161
102124
102091
102050
102008
101970
101941
101905
101862
101812
101758
101717
101677
101637
101599
101540
101488
101442
101404
101364
106566
106566
106567
106567
106567
106566
106567
106568
106569
106570
106571
106573
106576
106578
106582
106586
106591
106596
106602
106608
106615
106622
106630
106638
106647
106656
106665
106673
106682
106689
106700
106708
106712
106720
106725
106727
106729
106734
106740
106746
106749
106749
106749
106753
106757
106758
106753
106747
106738
106732
106727
106709
106702
106704
106681
106681
106679
106676
106679
106683
106692
106703
106721
106732
106753
106766
106790
106819
106851
106891
106936
106978
107023
107067
107111
107155
107197
107238
107276
107308
107330
107343
107348
107351
107351
107350
107345
107332
107313
107294
107277
107261
107252
107239
107215
107197
107180
107162
107143
107123
107100
107081
107062
107040
107020
107000
106983
106965
106947
106932
106914
106898
106883
106870
106858
106845
106833
106821
106810
106801
106794
106786
106780
106775
106771
106764
106754
106750
106744
106740
106737
106733
106732
106733
106734
106740
106746
106750
106756
106743
106749
106759
106765
106770
106791
106801
106807
106830
106853
106867
106868
106858
106894
106911
106921
106923
106946
106971
106987
107002
107014
107041
107068
107084
107099
107111
107129
107152
107167
107181
107196
107209
107221
107234
107243
107248
107255
107261
107266
107269
107272
107274
107273
107270
107268
107266
107260
107255
107250
107243
107236
107235
107236
107233
107232
107232
107230
107228
107227
107224
107218
107212
107212
107214
107212
107212
107211
107211
107208
107204
107198
107191
107184
107177
107170
107160
107142
107122
107104
107086
107066
107046
107025
107003
106983
106961
106936
106913
106891
106869
106847
106824
106802
106779
106757
106735
106714
106693
106673
106652
106633
106613
106600
106582
106566
106548
106532
106516
106501
106488
106473
106461
106447
106436
106421
106413
106407
106397
106390
106377
106368
106359
106353
106348
106338
106335
106328
106321
106313
106308
106305
106299
106288
106284
106276
106271
106266
106256
106248
106242
106231
106223
106213
106203
106194
106187
106179
106163
106154
106132
106121
106109
106092
106076
106060
106039
106020
106003
105978
105957
105929
105908
105879
105856
105824
105792
105761
105725
105690
105658
105622
105588
105550
105506
105466
105417
105375
105329
105281
105238
105188
105135
105082
105027
104975
104915
104856
104803
104737
104674
104618
104549
104484
104427
104354
104292
104226
104153
104086
104024
103949
103876
103814
103738
103663
103600
103523
103451
103386
103312
103240
103171
103108
103035
102967
102898
102834
102765
102702
102639
102580
102513
102455
102396
102343
102281
102225
102178
102126
102071
102022
101986
101940
101896
101852
101815
101771
101743
101716
101683
101653
101627
101598
101577
101550
101533
101524
101506
101495
101479
101470
101458
101456
101458
101454
101453
101450
101454
101453
101461
101474
101481
101489
101497
101513
101518
101536
101560
101577
101594
101611
101625
101654
101681
101699
101725
101744
101772
101791
101823
101850
101869
101893
101923
101949
101972
101993
102032
102057
102079
102108
102132
102157
102181
102203
102225
102246
102286
102303
102320
102343
102358
102378
102390
102415
102432
102440
102451
102469
102481
102485
102495
102496
102506
102524
102525
102524
102528
102524
102527
102516
102516
102523
102509
102504
102491
102480
102460
102443
102444
102420
102404
102376
102355
102325
102308
102279
102256
102217
102188
102155
102126
102089
102054
102016
101982
101935
101895
101849
101815
101770
101728
101676
101631
101580
101536
101497
101450
101394
101353
106571
106570
106570
106570
106571
106571
106571
106571
106572
106573
106574
106576
106578
106581
106585
106589
106593
106598
106604
106610
106617
106625
106633
106641
106650
106660
106669
106678
106689
106696
106704
106709
106719
106728
106733
106741
106746
106749
106759
106764
106762
106760
106758
106760
106759
106756
106748
106740
106727
106719
106715
106692
106684
106678
106665
106667
106671
106665
106672
106681
106683
106704
106739
106748
106772
106789
106816
106847
106876
106908
106943
106975
107006
107035
107061
107088
107121
107158
107195
107230
107260
107285
107305
107320
107333
107342
107352
107350
107336
107322
107307
107290
107268
107242
107217
107199
107180
107163
107143
107122
107102
107082
107062
107037
107015
106994
106975
106955
106936
106916
106898
106883
106870
106860
106850
106841
106830
106820
106810
106800
106792
106783
106776
106772
106767
106760
106753
106748
106742
106739
106734
106732
106731
106731
106731
106728
106731
106736
106737
106739
106751
106759
106767
106783
106801
106815
106830
106824
106827
106847
106859
106861
106890
106913
106929
106940
106958
106992
107016
107029
107034
107047
107066
107084
107098
107108
107123
107144
107162
107176
107191
107206
107220
107232
107245
107254
107261
107266
107268
107270
107272
107271
107268
107265
107263
107260
107260
107252
107248
107238
107236
107236
107230
107227
107229
107230
107227
107231
107232
107231
107230
107227
107228
107226
107222
107218
107213
107208
107202
107194
107186
107175
107163
107153
107144
107134
107121
107106
107091
107074
107057
107040
107021
107000
106981
106963
106943
106920
106895
106873
106851
106829
106806
106784
106762
106741
106720
106699
106676
106656
106635
106616
106596
106580
106563
106548
106532
106517
106502
106487
106476
106463
106449
106439
106428
106416
106406
106396
106386
106379
106370
106362
106357
106350
106343
106335
106327
106322
106315
106307
106302
106296
106291
106285
106279
106267
106262
106254
106248
106242
106232
106224
106214
106205
106198
106183
106173
106163
106153
106138
106122
106109
106089
106073
106056
106039
106022
105997
105975
105954
105932
105906
105877
105850
105821
105791
105760
105727
105695
105660
105625
105584
105544
105504
105464
105423
105375
105328
105283
105232
105179
105129
105076
105025
104971
104913
104860
104800
104737
104681
104617
104550
104491
104427
104357
104295
104226
104156
104092
104020
103949
103883
103809
103738
103670
103596
103524
103458
103383
103309
103241
103168
103099
103029
102961
102894
102828
102766
102705
102637
102578
102516
102457
102395
102340
102282
102231
102174
102121
102073
102024
101981
101934
101891
101852
101815
101778
101744
101707
101678
101646
101620
101596
101577
101552
101535
101519
101500
101489
101481
101471
101466
101456
101452
101448
101447
101448
101456
101459
101463
101468
101476
101488
101503
101514
101526
101540
101553
101571
101592
101613
101636
101655
101673
101696
101720
101747
101775
101800
101821
101845
101871
101899
101923
101950
101976
102004
102028
102051
102078
102104
102132
102161
102185
102209
102232
102255
102275
102297
102318
102339
102362
102382
102398
102411
102425
102440
102455
102466
102475
102487
102499
102505
102510
102515
102519
102521
102524
102526
102530
102525
102521
102514
102508
102500
102494
102483
102468
102451
102434
102417
102396
102378
102358
102336
102307
102278
102250
102222
102192
102158
102124
102089
102051
102013
101976
101938
101896
101857
101811
101765
101721
101679
101634
101590
101539
101491
101445
101400
101357
106576
106574
106575
106575
106575
106574
106574
106575
106575
106576
106577
106578
106580
106582
106585
106589
106593
106599
106604
106610
106617
106625
106633
106642
106651
106661
106670
106680
106691
106698
106707
106714
106721
106729
106737
106741
106748
106752
106762
106767
106765
106762
106758
106755
106752
106746
106736
106728
106713
106702
106691
106676
106669
106666
106642
106645
106634
106645
106643
106652
106658
106671
106690
106726
106742
106765
106801
106837
106870
106909
106952
106995
107040
107085
107121
107153
107181
107205
107226
107245
107262
107278
107290
107296
107298
107299
107304
107307
107302
107297
107290
107281
107268
107246
107223
107207
107185
107161
107137
107115
107095
107076
107056
107037
107016
106997
106980
106963
106945
106930
106911
106893
106878
106863
106851
106838
106826
106815
106805
106797
106788
106780
106773
106768
106762
106754
106747
106742
106737
106733
106730
106728
106726
106726
106727
106727
106731
106734
106740
106747
106763
106768
106769
106775
106784
106793
106811
106817
106829
106851
106865
106879
106904
106927
106949
106955
106956
106969
106990
107008
107016
107030
107056
107076
107096
107114
107126
107148
107172
107189
107205
107219
107231
107241
107251
107262
107267
107269
107268
107270
107271
107271
107264
107261
107258
107259
107251
107249
107240
107229
107228
107228
107218
107223
107210
107210
107204
107208
107206
107209
107211
107212
107217
107219
107219
107219
107219
107219
107217
107218
107214
107204
107189
107175
107161
107147
107130
107113
107095
107077
107057
107038
107017
106996
106973
106951
106931
106911
106887
106866
106844
106821
106799
106777
106756
106736
106714
106695
106675
106654
106635
106615
106599
106582
106567
106548
106532
106517
106502
106488
106475
106462
106448
106438
106425
106415
106406
106396
106389
106380
106370
106362
106355
106349
106340
106335
106328
106321
106316
106309
106302
106297
106289
106284
106278
106270
106263
106256
106248
106242
106232
106223
106214
106206
106198
106185
106174
106162
106151
106135
106123
106109
106091
106075
106057
106039
106021
106000
105977
105955
105930
105907
105879
105852
105822
105792
105760
105727
105693
105659
105624
105585
105545
105505
105464
105419
105375
105329
105282
105234
105182
105132
105080
105025
104972
104915
104856
104800
104739
104677
104616
104552
104487
104424
104358
104292
104224
104156
104088
104019
103949
103879
103809
103738
103666
103596
103525
103454
103382
103311
103241
103170
103103
103031
102964
102897
102831
102765
102702
102638
102577
102515
102456
102395
102339
102283
102228
102175
102125
102073
102025
101981
101935
101894
101852
101814
101777
101744
101709
101678
101649
101623
101598
101576
101553
101535
101520
101503
101492
101479
101470
101463
101456
101454
101451
101451
101450
101454
101456
101463
101470
101479
101488
101498
101512
101524
101540
101555
101574
101593
101612
101632
101655
101676
101699
101722
101746
101772
101796
101821
101847
101871
101896
101923
101949
101975
102001
102028
102054
102080
102107
102132
102158
102182
102207
102231
102254
102277
102299
102320
102340
102359
102378
102396
102412
102428
102441
102454
102466
102478
102487
102497
102504
102511
102517
102522
102524
102526
102526
102527
102524
102521
102516
102510
102502
102491
102481
102466
102450
102436
102420
102401
102378
102357
102332
102307
102280
102252
102221
102191
102158
102125
102089
102054
102015
101978
101937
101896
101855
101812
101767
101724
101677
101632
101586
101539
101493
101446
101397
101353
106582
106581
106579
106579
106580
106578
106578
106579
106579
106579
106580
106582
106583
106586
106589
106592
106596
106601
106606
106612
106619
106627
106636
106645
106654
106665
106675
106685
106696
106705
106715
106724
106732
106742
106748
106753
106758
106755
106770
106770
106767
106763
106757
106752
106746
106738
106726
106717
106701
106691
106681
106655
106651
106637
106638
106623
106636
106624
106643
106650
106649
106682
106683
106718
106727
106741
106766
106799
106827
106859
106880
106910
106951
106998
107047
107093
107137
107176
107210
107240
107266
107288
107306
107318
107321
107319
107314
107306
107295
107283
107268
107256
107249
107233
107212
107198
107182
107160
107138
107119
107101
107082
107061
107031
107007
106987
106967
106949
106932
106916
106901
106886
106874
106860
106849
106838
106827
106817
106807
106797
106787
106778
106771
106764
106756
106748
106742
106738
106733
106729
106726
106725
106724
106725
106728
106728
106733
106733
106731
106733
106744
106749
106753
106767
106782
106793
106807
106819
106843
106860
106875
106886
106893
106899
106922
106937
106947
106967
106994
107015
107038
107057
107077
107091
107114
107130
107148
107160
107172
107187
107203
107215
107223
107230
107241
107252
107257
107264
107266
107271
107273
107268
107261
107258
107254
107250
107249
107237
107233
107223
107222
107219
107206
107207
107210
107209
107211
107210
107207
107207
107208
107207
107208
107208
107204
107202
107197
107193
107190
107189
107186
107180
107172
107163
107152
107141
107128
107112
107096
107080
107062
107044
107026
107008
106987
106964
106941
106919
106895
106873
106850
106828
106805
106783
106762
106741
106719
106696
106674
106654
106634
106615
106597
106580
106564
106548
106533
106518
106503
106489
106476
106463
106450
106439
106428
106417
106407
106396
106388
106380
106371
106363
106356
106350
106342
106335
106327
106321
106315
106308
106302
106297
106291
106284
106278
106269
106263
106255
106248
106242
106232
106224
106214
106205
106197
106185
106174
106162
106151
106136
106122
106108
106090
106074
106057
106038
106020
105998
105976
105954
105930
105906
105878
105850
105822
105792
105760
105728
105694
105659
105623
105585
105545
105505
105463
105420
105375
105328
105282
105233
105181
105130
105078
105025
104971
104914
104857
104799
104738
104678
104616
104552
104489
104424
104358
104292
104225
104156
104088
104018
103949
103879
103808
103738
103667
103595
103524
103454
103381
103310
103241
103168
103100
103031
102962
102896
102830
102765
102702
102638
102576
102514
102455
102395
102339
102282
102228
102175
102123
102073
102025
101981
101935
101893
101852
101813
101777
101744
101708
101677
101648
101621
101596
101576
101553
101535
101518
101502
101491
101480
101470
101465
101456
101453
101450
101449
101449
101454
101458
101463
101470
101479
101488
101500
101511
101525
101540
101555
101573
101592
101612
101633
101655
101675
101699
101722
101746
101772
101797
101821
101847
101871
101898
101923
101949
101975
102002
102028
102054
102080
102106
102132
102158
102183
102208
102232
102255
102277
102299
102320
102340
102360
102379
102396
102413
102426
102441
102454
102466
102477
102488
102498
102505
102512
102516
102521
102524
102526
102526
102528
102526
102521
102516
102509
102501
102492
102481
102467
102451
102436
102419
102400
102379
102357
102334
102308
102280
102252
102222
102192
102159
102125
102090
102053
102016
101977
101938
101896
101855
101812
101767
101724
101679
101633
101587
101540
101492
101445
101398
101353
106588
106587
106585
106585
106585
106584
106584
106583
106583
106583
106583
106583
106585
106587
106589
106592
106596
106600
106606
106612
106619
106627
106637
106646
106655
106666
106677
106688
106699
106709
106721
106732
106742
106753
106761
106767
106772
106773
106777
106782
106778
106773
106767
106760
106751
106740
106726
106713
106693
106681
106660
106654
106637
106636
106614
106618
106612
106619
106630
106643
106654
106634
106696
106713
106735
106757
106780
106812
106848
106890
106927
106960
106992
107022
107055
107089
107122
107152
107178
107202
107224
107244
107262
107277
107289
107296
107298
107294
107287
107281
107267
107251
107239
107221
107199
107181
107164
107149
107130
107110
107092
107074
107056
107037
107015
106998
106980
106963
106945
106930
106907
106890
106876
106861
106845
106830
106818
106808
106799
106789
106780
106772
106765
106758
106750
106743
106737
106731
106726
106722
106718
106716
106715
106715
106715
106713
106716
106720
106725
106732
106743
106751
106764
106781
106796
106806
106815
106820
106832
106842
106855
106869
106882
106895
106921
106939
106957
106983
107007
107026
107042
107055
107064