/*--------------------------------*- C++ -*----------------------------------*\
| =========                 |                                                 |
| \\      /  F ield         | OpenFOAM: The Open Source CFD Toolbox           |
|  \\    /   O peration     | Version:  v1812                                 |
|   \\  /    A nd           | Web:      www.OpenFOAM.com                      |
|    \\/     M anipulation  |                                                 |
\*---------------------------------------------------------------------------*/
FoamFile
{
    version     2.0;
    format      ascii;
    class       surfaceScalarField;
    location    "0.7";
    object      phi;
}
// * * * * * * * * * * * * * * * * * * * * * * * * * * * * * * * * * * * * * //

dimensions      [1 0 -1 0 0 0 0];
oriented        oriented;


internalField   nonuniform List<scalar> 
40240
(
-0.000188366
0.000226012
-0.000256882
0.000106317
-0.000285157
6.63381e-05
-0.000241116
-4.92686e-06
-0.000131757
-7.06545e-05
-4.74494e-05
-4.30386e-05
4.88898e-06
-1.03973e-05
3.75445e-05
1.05589e-05
5.59563e-05
2.59344e-05
5.41833e-05
4.81095e-05
4.06858e-05
6.08623e-05
2.42458e-05
6.56822e-05
1.44449e-05
6.12813e-05
2.07166e-05
4.79746e-05
5.50666e-05
2.21388e-05
0.000115959
-1.46389e-06
0.000194304
-1.62784e-05
0.000287014
-2.83974e-05
0.000396543
-4.29954e-05
0.000526878
-6.16258e-05
0.000681032
-8.338e-05
0.000873224
-0.000120144
0.00110672
-0.000161118
0.00140426
-0.000221048
0.00178974
-0.00030293
0.00225644
-0.000387953
0.00280764
-0.000485676
0.00344006
-0.000558538
0.00415347
-0.000618355
0.00485831
-0.000604543
0.00556052
-0.000624534
0.00628082
-0.000647349
0.0070546
-0.000682031
0.00788368
-0.000718046
0.00867895
-0.000704153
0.00932794
-0.000569189
0.00969171
-0.000290852
0.00976724
8.23553e-06
0.0100215
-0.000172883
0.0103378
-0.00023856
0.0104285
-1.74369e-05
0.0103877
0.000110413
0.00995316
0.000505911
0.00917904
0.000844922
0.00859876
0.000653301
0.00790129
0.000772579
0.00721712
0.000759123
0.00643115
0.00085903
0.00532041
0.0011812
0.00379965
0.00158642
0.00184069
0.0020193
-0.000469392
0.00236654
-0.00293614
0.00251951
-0.00553748
0.00264979
-0.0082957
0.00280345
-0.0111577
0.00290365
-0.0140891
0.00296971
-0.0170744
0.00302196
-0.0200525
0.00301225
-0.0228649
0.0028432
-0.0253662
0.00252795
-0.0274598
0.0021163
-0.0292124
0.00177147
-0.03073
0.00153177
-0.0320659
0.00134648
-0.0334871
0.001426
-0.0347348
0.00124769
-0.0356624
0.000924158
-0.0361447
0.000474408
-0.0361304
-2.56551e-05
-0.035551
-0.000596727
-0.0342821
-0.00129216
-0.032518
-0.00179208
-0.0303757
-0.00217574
-0.0279922
-0.00242286
-0.025476
-0.00256128
-0.0229018
-0.00262529
-0.0203085
-0.00265042
-0.0176951
-0.00267618
-0.0150229
-0.0027406
-0.0123045
-0.00279258
-0.00959042
-0.00279386
-0.00697061
-0.00270564
-0.00455348
-0.00250794
-0.00237404
-0.00227634
-0.000405114
-0.00206921
0.00134305
-0.00185347
0.00277469
-0.00154568
0.00407625
-0.00146616
0.00511606
-0.00116893
0.00587895
-0.000884343
0.00642672
-0.000664309
0.00688519
-0.000577608
0.00715557
-0.000392402
0.00703239
4.6924e-07
0.00686021
4.82896e-05
0.0068558
-0.000121267
0.00693803
-0.000208645
0.00714858
-0.000338105
0.00735649
-0.000330175
0.00765198
-0.000422164
0.00769696
-0.000173274
0.00752292
4.98475e-05
0.00688896
0.000511071
0.00631545
0.000451502
0.00592021
0.000275457
0.00576619
3.60511e-05
0.00576875
-0.000117087
0.00577338
-0.000115557
0.00567456
-8.16178e-06
0.00562164
-5.07151e-05
0.00560307
-8.13992e-05
0.00569293
-0.00018539
0.00590438
-0.000302097
0.00615889
-0.000341378
0.00642309
-0.000346568
0.00662161
-0.000276908
0.00688799
-0.000340092
0.00725723
-0.000438022
0.00771341
-0.000520101
0.00822335
-0.000568791
0.00876584
-0.000595882
0.00934082
-0.000623187
0.0098679
-0.000569975
0.0102434
-0.000413744
0.0104761
-0.000268525
0.0104221
2.59212e-05
0.0102364
0.000162435
0.00995564
0.000263836
0.00964713
0.000296254
0.00939252
0.000246646
0.00921756
0.000174564
0.00910632
0.000114238
0.00902357
9.23082e-05
0.00889363
0.000143613
0.00866696
0.000248325
0.00839763
0.000295616
0.00808525
0.000345294
0.00769294
0.000430176
0.00730241
0.000437391
0.00698173
0.000372357
0.00671492
0.000323395
0.00657506
0.000201659
0.00656238
8.14286e-05
0.00657515
5.89928e-05
0.00653584
0.000117019
0.00652057
0.000101123
0.00640185
0.000209377
0.00619889
0.000295894
0.00592026
0.000374656
0.00566867
0.000348926
0.00545853
0.000310583
0.00542843
0.000135326
0.00542692
0.000107529
0.00545157
9.2434e-05
0.00552592
4.05517e-05
0.00561432
2.80009e-05
0.00572239
9.95254e-06
0.00588075
-3.93026e-05
0.00618295
-0.000184253
0.00668058
-0.000381966
0.0071493
-0.000355273
0.00755898
-0.000295049
0.00797164
-0.000298833
0.00830727
-0.000224336
0.0084999
-7.71972e-05
0.0087988
-0.000189338
0.00915506
-0.000250542
0.00944935
-0.000190139
0.00966658
-0.00011742
0.00979501
-2.75602e-05
0.00986828
1.9086e-05
0.00993742
2.04396e-05
0.0100501
-2.68728e-05
0.0101475
-1.60899e-05
0.0101649
5.81946e-05
0.010067
0.000170741
0.00982732
0.000309652
0.00963584
0.000256869
0.00952168
0.000175554
0.00942921
0.000146682
0.00904097
0.000435203
0.00829218
0.000784729
0.00716913
0.00115442
0.00585487
0.00134481
0.00461926
0.00125896
0.00353308
0.00112316
0.00253297
0.00101399
0.00179191
0.000747722
0.00132568
0.000464834
0.000596672
0.000722742
-0.000288387
0.000872886
-0.00121934
0.00091387
-0.00214334
0.00090136
-0.00294478
0.00077415
-0.00362416
0.000645653
-0.00419826
0.000534726
-0.00457331
0.000331443
-0.0046411
1.56228e-05
-0.00470569
3.18001e-06
-0.00479287
2.06254e-05
-0.00483299
-3.33717e-05
-0.00471167
-0.000200433
-0.00437804
-0.000419611
-0.00392742
-0.000540383
-0.00335518
-0.000667148
-0.00267637
-0.000778861
-0.00204222
-0.000739926
-0.00142549
-0.000725166
-0.000774922
-0.000763928
-8.38697e-05
-0.000818753
0.000661016
-0.000864782
0.00140214
-0.000862809
0.00210012
-0.000823473
0.00275664
-0.000786175
0.00339367
-0.000770068
0.00400206
-0.000745034
0.00452361
-0.000660969
0.00492845
-0.000545774
0.00525262
-0.000465223
0.00559634
-0.000484656
0.00596395
-0.000508733
0.00629376
-0.000469727
0.00656399
-0.000408508
0.0067528
-0.000324721
0.00678807
-0.0001695
0.00690461
-0.000246612
0.00716432
-0.0003866
0.00742069
-0.000380166
0.00761313
-0.000312074
0.00770053
-0.000202369
0.00770114
-0.000110383
0.00766867
-7.21566e-05
0.00759089
-2.09793e-05
0.00754286
-4.44885e-05
0.00752084
-6.31425e-05
0.00756523
-0.000122714
0.00760093
-0.000106983
0.00758883
-5.20204e-05
0.00751881
1.37728e-05
0.00744879
2.21398e-05
0.00740319
4.60593e-06
0.00734635
2.47115e-05
0.00731776
5.56759e-06
0.00727034
3.31644e-05
0.00722745
3.61643e-05
0.00719812
3.23141e-05
0.00717215
3.74109e-05
0.00714376
4.9907e-05
0.00712694
4.61757e-05
0.00712851
3.75072e-05
0.00718832
-1.15077e-05
0.00725225
-7.17083e-06
0.00727095
4.69203e-05
0.00732086
2.46623e-05
0.00739145
1.19297e-05
0.00742568
5.87592e-05
0.00745471
6.99324e-05
0.00750825
5.55378e-05
0.00758261
4.23393e-05
0.00776307
-5.65972e-05
0.00794495
-5.05085e-05
0.00811956
-3.39427e-05
0.0082016
6.73783e-05
0.00835835
4.4124e-07
0.00844485
7.9507e-05
0.00859
2.47401e-05
0.00870197
7.15805e-05
0.00892283
-3.17706e-05
0.0090994
1.7949e-05
0.00927975
1.93441e-05
0.00944852
3.75639e-05
0.00965023
1.43934e-05
0.00978887
8.5521e-05
0.0101598
-0.000140452
0.0104349
-3.96946e-05
0.0105454
0.00013127
0.0107187
7.02637e-05
0.0109057
6.82216e-05
0.0111665
-7.30254e-06
0.0115149
-8.87701e-05
0.011985
-0.000202385
0.0123434
-8.39165e-05
0.0126447
-3.06537e-05
0.0129322
-2.4199e-05
0.0131915
2.66158e-05
0.0133115
0.000165133
0.0134777
0.000126244
0.0137182
5.19089e-05
0.0141292
-0.000112006
0.0146246
-0.000194612
0.014921
1.79359e-05
0.0152413
-1.072e-05
0.0153412
0.000208816
0.0155149
0.000139858
0.0157414
9.08505e-05
0.0163781
-0.000319656
0.0167603
-6.23839e-05
0.0168656
0.000214088
0.017058
0.000129519
0.0176347
-0.00025536
0.0180148
-5.45104e-05
0.0184139
-6.81766e-05
0.0185337
0.000209032
0.0186949
0.000165156
0.0187787
0.000243267
0.0190517
5.12482e-05
0.0195945
-0.000218221
0.0201686
-0.000245863
0.0205528
-5.06539e-05
0.0212828
-0.000408482
0.0213466
0.000262372
0.0213637
0.000306216
0.0214472
0.000240383
0.0216081
0.000159475
0.0221516
-0.000226337
0.0224713
1.14839e-05
0.0231976
-0.000403332
0.0241774
-0.000677278
0.0241215
0.000370913
0.0240928
0.000340516
0.0241935
0.00021628
0.0243982
0.00011367
0.0245442
0.000174759
0.0247264
0.000128199
0.0251734
-9.66092e-05
0.0256394
-0.00020003
0.0258101
0.000122963
0.0261388
5.24467e-05
0.0265186
-0.000219259
0.0266155
0.000163881
0.0267881
0.000115288
0.0272606
-0.000236195
0.0273515
0.000180146
0.0276434
-3.00636e-05
0.0280138
-0.000118206
0.0280723
0.000180339
0.028339
-1.97988e-05
0.0287138
-0.000110338
0.0287452
0.000219151
0.0288751
0.000106065
0.0292499
-0.000155955
0.0292605
0.000207985
0.0293806
0.000101395
0.0297364
-0.000151166
0.0297633
0.000173259
0.0299891
-1.73581e-05
0.0303358
-0.00012581
0.0303819
0.000158647
0.0306348
-6.34223e-05
0.0310227
-0.000208403
0.0309877
0.000211796
0.0306585
0.000496809
0.0305467
0.00028193
0.0304781
0.000230018
0.0305515
7.78521e-05
0.0305722
0.000122067
0.0309442
-0.000238416
0.0312328
-0.00012294
0.0312217
0.000170616
0.031143
0.000238464
0.0312499
3.82672e-05
0.0315775
-0.000199285
0.0314876
0.00021707
0.031248
0.000354667
0.0313146
5.57742e-05
0.0315782
-0.000149651
0.0315418
0.000152687
0.03145
0.000205148
0.0315811
-1.72656e-05
0.0315452
0.000128645
0.0314006
0.000241126
0.0311767
0.000315983
0.0310679
0.000207943
0.0313527
-0.000182031
0.0316982
-0.000257578
0.0318639
-7.19849e-05
0.0315965
0.000349127
0.0313871
0.000297786
0.0311008
0.000375308
0.030952
0.000231314
0.0309175
0.0001126
0.0309574
2.22301e-05
0.031077
-6.06697e-05
0.0312033
-2.88023e-05
0.0311593
0.000129691
0.0310511
0.000178914
0.0308555
0.000256877
0.0306959
0.00022143
0.0307715
-9.44401e-06
0.0307986
3.85241e-05
0.030868
6.45306e-06
0.0306435
0.000274858
0.0304888
0.000202548
0.0302909
0.000258526
0.0301005
0.000254906
0.0301121
4.62974e-05
0.0301801
1.34648e-05
0.0302116
-2.7877e-05
0.0301047
0.000147476
0.0300223
0.000113451
0.0297339
0.000325582
0.0296436
0.000123808
0.0296655
1.29505e-05
0.0297096
-9.26245e-06
0.0296723
7.29779e-05
0.0295224
0.000180642
0.029441
0.000107247
0.0291589
0.000311014
0.0289917
0.000193071
0.028981
4.37221e-05
0.029027
-2.05799e-05
0.0289406
0.000113957
0.0288719
8.72209e-05
0.0285683
0.000325026
0.0283407
0.000246142
0.0283613
-9.57929e-06
0.0284244
-4.62001e-05
0.0284614
-8.86969e-06
0.0284116
8.18918e-05
0.0282791
0.000136615
0.0281446
0.000143137
0.028122
3.90767e-05
0.0280747
6.17453e-05
0.0279976
9.34652e-05
0.0279741
3.69864e-05
0.0279545
3.04109e-05
0.0278694
9.893e-05
0.0278188
5.76783e-05
0.0274696
0.000363081
0.0271795
0.000306121
0.0272256
-3.58667e-05
0.0274424
-0.00020719
0.027625
-0.000178149
0.0275999
3.09005e-05
0.0275483
5.54657e-05
0.0274664
8.74553e-05
0.027405
6.87954e-05
0.0272722
0.000137604
0.0269815
0.00029582
0.0268408
0.000152495
0.0269376
-8.09303e-05
0.0270792
-0.000121317
0.0271497
-7.37639e-05
0.0271403
1.23586e-05
0.027078
5.63508e-05
0.0269773
0.000106605
0.0269872
-1.3604e-05
0.0270092
-2.31426e-05
0.0269597
4.09377e-05
0.0269532
1.02974e-06
0.0270053
-5.39251e-05
0.0270553
-5.57599e-05
0.0270566
-4.94268e-06
0.027088
-2.88307e-05
0.0270684
1.59171e-05
0.0268544
0.000206047
0.0266932
0.000155997
0.0267824
-0.000101757
0.026973
-0.000190818
0.0270636
-9.70383e-05
0.0270216
4.13239e-05
0.0270801
-6.63122e-05
0.0269881
9.3631e-05
0.0269692
1.42315e-05
0.0270042
-2.87134e-05
0.0271712
-0.000165914
0.0272081
-4.74958e-05
0.0271726
2.73735e-05
0.0273014
-0.000132053
0.0272839
1.43127e-05
0.0272112
7.53854e-05
0.0272009
8.90986e-06
0.0272813
-8.75197e-05
0.0273294
-4.5323e-05
0.0273469
-1.5077e-05
0.0273248
1.86678e-05
0.0273136
1.62027e-05
0.0273682
-5.48117e-05
0.0274647
-9.47864e-05
0.0275242
-5.56715e-05
0.0275623
-3.59398e-05
0.0276179
-5.09343e-05
0.027665
-3.89169e-05
0.027648
2.13815e-05
0.0276554
-1.10898e-05
0.0277487
-9.09556e-05
0.0278853
-0.000125971
0.0279859
-0.000102964
0.0280208
-2.71585e-05
0.0280083
1.14717e-05
0.027915
0.000102032
0.0279944
-7.82921e-05
0.0281605
-0.000161805
0.0282405
-7.68175e-05
0.028308
-7.02858e-05
0.0283463
-3.64694e-05
0.02837
-1.73306e-05
0.0285205
-0.000150934
-8.43424e-05
3.08279e-05
0.000234018
5.27216e-05
0.000122962
0.000130228
2.78769e-05
0.00025824
-9.36507e-05
0.000435724
-0.000208704
0.000627857
-0.000194232
0.00082717
-0.000167791
0.00102006
-0.000139168
0.00120633
-0.000115797
0.00137444
-7.3696e-05
0.00152772
-4.45906e-05
0.00167425
-3.12281e-05
0.00182179
-3.45692e-05
0.00198372
-5.99973e-05
0.00216828
-0.000105796
0.00238388
-0.000157839
0.00263554
-0.000206162
0.00293257
-0.000261254
0.00328426
-0.000327992
0.00369351
-0.000401031
0.00414448
-0.000462534
0.00460437
-0.000509913
0.00504933
-0.000540014
0.00553285
-0.000628077
0.00606748
-0.000739581
0.00663396
-0.000863229
0.00722542
-0.00102657
0.00786946
-0.00115364
0.00859452
-0.00122873
0.00930937
-0.00116608
0.00993939
-0.00119688
0.0105392
-0.00125656
0.0111657
-0.00121509
0.0117379
-0.00110341
0.0121209
-0.000956591
0.0124083
-0.000832558
0.0125559
-0.000323022
0.0125031
0.00014048
0.0123778
2.67054e-05
0.0122003
1.60154e-05
0.0119837
0.000274208
0.0115059
0.000665272
0.0106906
0.00139759
0.00946254
0.00214767
0.0073929
0.00280095
0.00482416
0.00342345
0.0019512
0.00371266
-0.00124625
0.00413369
-0.00485916
0.00486639
-0.00885637
0.00565072
-0.0132618
0.00648816
-0.0180803
0.00724483
-0.0232072
0.00770339
-0.0284219
0.00791765
-0.0333783
0.00781111
-0.0377653
0.00734097
-0.0415563
0.00680881
-0.0449384
0.0064503
-0.0480517
0.00616814
-0.0508816
0.00571068
-0.0532158
0.00489478
-0.0551055
0.00403702
-0.0564285
0.00312394
-0.0570222
0.00215263
-0.0569199
0.00126933
-0.0562126
0.0007399
-0.0550089
5.87763e-05
-0.0536389
-0.000434794
-0.0522728
-0.000884572
-0.0507385
-0.00155605
-0.0489804
-0.0023544
-0.0470484
-0.00322744
-0.044832
-0.0040146
-0.0422653
-0.0047526
-0.0393362
-0.00536513
-0.0361023
-0.00581331
-0.0326404
-0.0061111
-0.0290309
-0.00629043
-0.0253314
-0.00641274
-0.0215926
-0.00652235
-0.0178293
-0.00660491
-0.0140944
-0.0065855
-0.010452
-0.00641253
-0.00701709
-0.0060161
-0.00392745
-0.00544643
-0.001286
-0.00479882
0.000909211
-0.00413953
0.00266267
-0.00340627
0.00377643
-0.00264338
0.00478161
-0.00227715
0.00563226
-0.00184572
0.00633031
-0.0014764
0.00686998
-0.00123433
0.00718441
-0.000826738
0.00831188
-0.00124832
0.0101228
-0.0018867
0.0120002
-0.00212356
0.0135494
-0.00188435
0.0145369
-0.00145124
0.0149542
-0.000865953
0.0150181
-0.000612328
0.0150229
-0.000302431
0.0148581
9.18286e-05
0.0148061
0.000443834
0.0148282
0.000311769
0.0150647
-7.64424e-05
0.0152759
-0.000289667
0.0152967
-0.000249505
0.0152755
-0.000203088
0.0153395
-0.000175768
0.0155562
-0.000367612
0.0161537
-0.000773258
0.0170848
-0.00120609
0.0181593
-0.0014615
0.019176
-0.00143915
0.0200261
-0.00127266
0.0206642
-0.000985546
0.0212449
-0.000986496
0.0219412
-0.00119392
0.0228888
-0.00152032
0.0241446
-0.00187036
0.0257076
-0.00219805
0.0275042
-0.00245234
0.0292173
-0.00230834
0.0303123
-0.00153273
0.0304219
-0.000403512
0.030192
0.00024073
0.0298198
0.00052227
0.0295003
0.000576653
0.0292802
0.000513948
0.0291082
0.000420785
0.0289657
0.000325979
0.028805
0.000287101
0.0286411
0.00027122
0.0283935
0.000406527
0.0280957
0.000568514
0.0277676
0.000649046
0.0273761
0.000767554
0.0268775
0.000964675
0.0262484
0.00111238
0.0255625
0.00110852
0.0248118
0.00112878
0.0240939
0.000978821
0.0234918
0.000744045
0.0229396
0.000671899
0.0222974
0.000823356
0.0215577
0.000915604
0.0208678
0.000981515
0.0202603
0.000993972
0.0196773
0.00105098
0.0189915
0.00112809
0.0179511
0.00144753
0.0170257
0.00116296
0.016365
0.000874413
0.016176
0.000396504
0.0161613
0.000171171
0.0162089
9.57985e-05
0.0162042
0.000132728
0.016251
3.37207e-05
0.0164094
-0.00022447
0.0166146
-0.000470601
0.0168766
-0.000501657
0.0172467
-0.000548799
0.017799
-0.000735045
0.0184548
-0.000767721
0.0186891
-0.00019524
0.0189427
-0.000333089
0.0194553
-0.000655634
0.0199631
-0.0005931
0.0203241
-0.000377476
0.0204951
-9.78156e-05
0.0204934
0.000108472
0.0201145
0.000486308
0.0193745
0.000797569
0.0184921
0.000947074
0.0175662
0.00105962
0.0165615
0.00124756
0.0155084
0.00143088
0.0144467
0.00138392
0.0132931
0.00138743
0.0119247
0.00156339
0.010496
0.00190501
0.0090316
0.00228465
0.00753955
0.00267662
0.00601033
0.00290129
0.00444327
0.00285693
0.00308243
0.00250064
0.00178505
0.00232559
0.000514332
0.00202316
-0.000708094
0.00168523
-0.00202497
0.00203414
-0.00325936
0.00209571
-0.00439084
0.0020278
-0.0053892
0.00187647
-0.00614088
0.00149755
-0.00665614
0.00112743
-0.00699589
0.000835393
-0.00715231
0.000445454
-0.00718164
-1.54094e-06
-0.00687521
-0.000358122
-0.00627886
-0.000637266
-0.00558478
-0.000796191
-0.00496153
-0.000898232
-0.00444754
-0.00101412
-0.00394619
-0.00112739
-0.0033817
-0.00132291
-0.00272427
-0.00153322
-0.00191787
-0.00164861
-0.00089222
-0.0018552
0.00024622
-0.00201326
0.00143542
-0.0021196
0.00277915
-0.00233817
0.0042728
-0.00248949
0.0058247
-0.00251205
0.00736654
-0.00246626
0.00890247
-0.00244415
0.0104503
-0.00243183
0.0119665
-0.00231759
0.0133485
-0.00206961
0.0143976
-0.00165756
0.0150189
-0.00125092
0.0153803
-0.00101315
0.0156727
-0.000904172
0.0159898
-0.000866931
0.0163555
-0.000830297
0.0166805
-0.000632754
0.0170103
-0.000712
0.017326
-0.000832895
0.0176379
-0.000819336
0.0179334
-0.000730386
0.0182254
-0.000610794
0.0185618
-0.000557818
0.0189779
-0.000593027
0.0194741
-0.000616036
0.0198741
-0.000537592
0.0199566
-0.00023451
0.0197694
-1.96182e-05
0.0193034
0.000286282
0.0189172
0.000268877
0.0186457
0.000228066
0.0184648
0.000154517
0.0184388
-1.13068e-05
0.0184795
-4.79143e-05
0.0186057
-0.00014173
0.0187495
-0.000128328
0.0187456
3.03522e-05
0.0186766
0.000103483
0.0186491
7.65186e-05
0.0186665
5.38414e-05
0.0186981
4.40805e-05
0.0186177
0.000154746
0.0184736
0.000179123
0.0183818
0.000140181
0.0183336
0.00015971
0.0183032
0.000129897
0.0183005
9.78054e-05
0.0184356
1.78588e-05
0.0188582
-0.000253155
0.0192982
-0.000275393
0.0194003
5.34653e-05
0.0193091
0.000161527
0.0192338
0.000157935
0.0192353
0.0001056
0.0193193
0.00013144
0.0194801
-4.88711e-06
0.0196392
8.70002e-05
0.0198783
-4.25621e-05
0.0199633
0.000170648
0.020079
3.94175e-05
0.0202269
6.51096e-05
0.0206194
-0.000172535
0.0209802
-0.000115642
0.0212867
-7.72344e-05
0.0214781
0.000117616
0.0215552
1.26707e-05
0.0218022
-5.17194e-05
0.0219731
0.00020291
0.0224423
-0.00015186
0.0231995
-0.000438081
0.0240325
-0.000577029
0.0243606
-0.000167197
0.0242359
0.000187908
0.0242285
0.000194125
0.0243334
0.00014434
0.0245788
4.18488e-06
0.0249462
-5.68365e-05
0.0251852
0.00021357
0.0257778
-0.000174253
0.0264412
-0.00031629
0.0266532
-2.8265e-05
0.0266764
8.47541e-05
0.0269797
2.4965e-05
0.0273445
-6.33102e-05
0.0275552
0.000313991
0.0280848
-7.65317e-05
0.0284876
4.16944e-06
0.0286731
-0.000188726
0.029085
-0.000154122
0.0293272
0.000294944
0.0299081
-0.000136623
0.0301483
-0.000179572
0.0304823
-5.48703e-05
0.0308496
-0.000100497
0.0310399
0.000348675
0.0314977
3.8306e-05
0.0321946
-0.000124441
0.0328796
-0.000314301
0.0330391
-5.44548e-05
0.0331517
-3.15772e-05
0.0334474
-1.72263e-05
0.0336615
-0.000301791
0.0341263
0.000123198
0.0345365
0.000223428
0.035251
-0.000147263
0.0359702
-0.000239836
0.0362561
-0.000196102
0.036409
0.000181084
0.0364735
-0.000152337
0.0365608
-0.000459506
0.0369361
0.000308491
0.0373349
0.000251756
0.0377741
9.14933e-05
0.0382792
-8.05366e-05
0.0389635
-0.000200516
0.0393607
4.11889e-05
0.0395734
-1.63309e-05
0.0397601
-0.000111186
0.0401568
1.34327e-05
0.040499
-3.82927e-06
0.040684
-0.000147812
0.0410848
3.17483e-05
0.0414552
1.24198e-05
0.0416247
-0.000143453
0.0420335
3.62329e-05
0.0423379
-7.21672e-05
0.0425732
-9.7899e-05
0.0429565
4.51068e-05
0.0431947
-9.82337e-06
0.0433979
-7.01743e-05
0.0437793
7.57008e-05
0.0440727
3.82531e-05
0.044235
-9.26041e-05
0.0446082
5.03558e-05
0.0448829
4.23705e-05
0.0450491
-9.13181e-05
0.0454052
2.68049e-05
0.0455691
2.78331e-05
0.0457032
-5.91356e-05
0.0459936
6.36037e-05
0.0461262
-1.2129e-05
0.0461644
-6.77639e-05
0.0463629
0.000194421
0.0465724
0.000448326
0.0468723
0.000152806
0.0472786
-6.9058e-06
0.0479336
-0.000418849
0.0486088
-0.000408056
0.0483617
0.000161118
0.0483186
6.75418e-05
0.0485454
9.84342e-05
0.0488561
7.48709e-05
0.0486923
0.000339628
0.0485906
3.30001e-05
0.0488004
0.000167933
0.0492225
2.41169e-05
0.0490936
0.000292251
0.0489624
9.14783e-05
0.0490881
0.000143586
0.0492788
0.000120837
0.0491565
0.000211107
0.0490643
0.00032
0.0491363
0.000271051
0.0496587
-0.000115446
0.0504295
-0.00046856
0.0506261
-0.000290168
0.0502167
0.000243422
0.0499912
0.000250844
0.0499495
0.000479617
0.0499831
0.000358217
0.0502808
0.000160911
0.0508796
-0.00028154
0.0517128
-0.000641207
0.0521342
-0.000338522
0.0516883
0.000447725
0.0512669
0.000464145
0.0509643
0.000510856
0.0510452
0.000175793
0.0516622
-0.000301109
0.0523301
-0.000381833
0.0521928
0.000180298
0.0517575
0.000524011
0.0512798
0.00055101
0.0512412
0.000367037
0.0514255
8.2196e-05
0.0520566
-0.000311496
0.0529311
-0.0005578
0.0532772
-0.000252789
0.0527625
0.00057844
0.0522116
0.000574068
0.0520181
0.000385937
0.052433
-0.000260352
0.0531111
-0.000319934
0.0533495
-8.65678e-05
0.052836
0.000560445
0.0520276
0.000836774
0.0515333
0.000602199
0.0513653
0.000380082
0.0516989
-0.0001876
0.0522603
-0.000222284
0.0525138
-4.21423e-05
0.05211
0.000475436
0.0516631
0.000450687
0.0516421
0.000171111
0.0520427
-0.000290831
0.052947
-0.000558361
0.0537119
-0.000499496
0.0536707
2.97572e-05
0.0529013
0.000743525
0.0523225
0.000588082
0.0524035
2.15442e-05
0.0526262
-7.10264e-05
0.0524889
0.000291164
0.0522506
0.000292626
0.0522572
7.55184e-05
0.0522069
0.000156021
0.0518687
0.000387684
0.0515229
0.000390552
0.0515851
5.47754e-05
0.0521188
-0.000455579
0.0531275
-0.000630076
0.0539655
-0.000517686
0.0539471
-3.37503e-05
0.053129
0.000622694
0.0521289
0.000829595
0.0514049
0.000764873
0.0510242
0.000437091
0.0508758
0.000248185
0.0511296
-0.000177384
0.0518317
-0.000554826
0.0527579
-0.00061696
0.0533316
-0.000416085
0.0531086
0.000139001
0.0523038
0.000698874
0.0517067
0.000525522
0.0518366
-0.000108417
0.0520822
-0.000190516
0.0521509
3.2771e-05
0.0520079
0.000126079
0.0521836
-0.000196097
0.0524582
-0.000235727
0.0524073
4.35174e-05
0.0517885
0.000566958
0.0511849
0.000544896
0.0509915
0.000197667
0.0511372
-0.000172972
0.0516683
-0.000512921
0.0525707
-0.000696503
0.0533475
-0.000622658
0.0533467
-0.000123428
0.0526238
0.000535011
0.0519249
0.000601773
0.051723
0.000257588
0.052126
-0.000461043
0.0527906
-0.00057107
0.0531
-0.000304011
0.0526731
0.000388752
0.0518913
0.000618697
0.0513368
0.000498755
0.0511825
0.00018184
0.0515223
-0.000473253
0.0523296
-0.000792444
0.0529602
-0.000552995
0.0529858
-3.71281e-05
0.0523676
0.000531428
0.0518263
0.000493543
0.0518391
-1.86858e-05
0.0522619
-0.000399864
0.0526475
-0.000362463
0.0524397
0.00014464
0.0520064
0.000343069
0.0518102
0.000152491
0.0519264
-0.000143414
0.0519781
-9.97882e-05
0.0521654
-0.000213344
0.052634
-0.00044687
0.0530472
-0.000404751
0.0529121
3.99035e-05
0.0523588
0.000429951
0.0519647
0.000295553
0.0520606
-0.00010742
0.0526912
-0.000613086
0.0533651
-0.000574419
0.0534679
-0.000192358
0.0530675
0.000244652
0.0526882
0.000300391
0.0526404
1.72253e-05
0.053104
-0.00049451
0.0535784
-0.00049108
0.0535297
-0.000108597
-4.43887e-05
0.000157524
0.000116448
0.000277911
4.23025e-05
0.000444183
-9.84164e-05
0.000626674
-0.000235768
0.000826185
-0.000367294
0.00111838
-0.000446461
0.00143748
-0.0004449
0.00171268
-0.000371406
0.00190601
-0.000263955
0.00208397
-0.000204678
0.00225889
-0.000170589
0.00243271
-0.000153965
0.00260839
-0.000156967
0.00278967
-0.000185732
0.00297971
-0.000237899
0.00318138
-0.000299163
0.00339464
-0.000356798
0.00362116
-0.000422898
0.00386196
-0.000501932
0.00411708
-0.000587931
0.00438637
-0.00066199
0.00471049
-0.000760231
0.00515431
-0.000902992
0.00562753
-0.00102976
0.00613524
-0.00119148
0.00670766
-0.00136202
0.00734387
-0.00154386
0.00799849
-0.0017002
0.00865069
-0.00183596
0.00929974
-0.00178967
0.0100022
-0.00177299
0.0106495
-0.00173037
0.0111576
-0.00164584
0.0116322
-0.00159415
0.012078
-0.00135851
0.0124003
-0.00100952
0.0125836
-0.000451616
0.0125637
0.00023918
0.0123698
0.000299448
0.0118349
0.000631639
0.0108333
0.0013536
0.00920279
0.00237194
0.00687764
0.0037997
0.00391541
0.00519029
0.000408497
0.00639043
-0.00363119
0.00754759
-0.00823698
0.0084003
-0.0132716
0.00924587
-0.0186641
0.0103323
-0.0241625
0.0112181
-0.0296101
0.0120021
-0.0349145
0.012615
-0.0398632
0.0127154
-0.0444466
0.0125606
-0.0486255
0.0120482
-0.0521889
0.0109581
-0.0550088
0.00968102
-0.0570845
0.0085774
-0.0583648
0.00749777
-0.0590309
0.00642679
-0.0596779
0.00559111
-0.0597035
0.00410754
-0.0594204
0.00288346
-0.0592451
0.00201628
-0.0588325
0.000893609
-0.057941
-0.000116152
-0.0566357
-0.00121455
-0.0549177
-0.00212358
-0.0532346
-0.0025424
-0.0515283
-0.00323971
-0.0496318
-0.00423201
-0.0475393
-0.00530386
-0.0451534
-0.0063858
-0.0423855
-0.00750698
-0.0391871
-0.00855276
-0.0355837
-0.00940363
-0.0316636
-0.0100191
-0.0275423
-0.0104006
-0.0233533
-0.0105921
-0.0192027
-0.0106657
-0.0151236
-0.0106807
-0.0111234
-0.0105882
-0.00722021
-0.0103262
-0.003463
-0.00979479
8.55319e-05
-0.0090288
0.00333133
-0.00809204
0.00617805
-0.00704678
0.00866508
-0.00595918
0.011036
-0.00507771
0.0132157
-0.0045443
0.0150595
-0.00378929
0.0166152
-0.00313881
0.0180008
-0.00272986
0.0192391
-0.00217844
0.020189
-0.00231479
0.020848
-0.0026641
0.0212081
-0.00260238
0.0214609
-0.00225811
0.0216247
-0.00173611
0.0216482
-0.00100859
0.0212473
-0.000332677
0.0208879
-6.3747e-05
0.0211851
-0.000329081
0.0219976
-0.00049194
0.0228747
-0.000687621
0.0236272
-0.000949121
0.0241058
-0.000886388
0.0243289
-0.000588297
0.0243403
-0.000326107
0.0246018
-0.000546754
0.0252623
-0.00113247
0.0261921
-0.00180043
0.0272851
-0.00238871
0.0284784
-0.00273627
0.0297901
-0.00282632
0.031192
-0.00274345
0.0326044
-0.00246029
0.0339863
-0.0024265
0.0351764
-0.00243743
0.0361514
-0.00254321
0.0370696
-0.00282732
0.038103
-0.00326129
0.0392482
-0.00361744
0.0404304
-0.00349901
0.0415264
-0.00262664
0.0423965
-0.0012674
0.0431007
-0.000453438
0.0436731
-3.87089e-05
0.044142
0.000121314
0.0445362
0.000135761
0.044902
7.41314e-05
0.0452306
2.1241e-05
0.0455163
3.04514e-05
0.0456283
0.000195833
0.0455913
0.000469406
0.0451922
0.000994778
0.0444342
0.00143974
0.0435377
0.00170028
0.0425554
0.00198577
0.0415353
0.00218019
0.0406387
0.00205822
0.0398406
0.00198403
0.039213
0.0016724
0.0389737
0.00105192
0.0388738
0.000828989
0.0385286
0.00121835
0.037431
0.0020583
0.0354027
0.00306852
0.0330762
0.00339991
0.0307833
0.00343456
0.0289502
0.00305908
0.0277027
0.00279256
0.0265726
0.00238975
0.0254697
0.00207607
0.0247175
0.0012548
0.0246596
0.00033967
0.0247025
0.000166181
0.0246689
0.000280936
0.0245704
0.000250075
0.0243798
8.33523e-05
0.0239971
2.84388e-05
0.0233885
0.00022387
0.0227867
0.000171318
0.0223688
-0.000199262
0.0222765
-0.000557931
0.0226466
-0.000452064
0.0232284
-0.000805965
0.0233266
-0.000649491
0.0233444
-0.000508632
0.0232862
-0.000218717
0.0231573
0.000128744
0.0229089
0.000448391
0.0224495
0.00103231
0.021682
0.00164832
0.0206634
0.00204513
0.0194711
0.00232695
0.0181069
0.00268428
0.0166017
0.00300489
0.0149815
0.00306806
0.0133017
0.00312649
0.0116044
0.00331414
0.0100432
0.00351503
0.00853979
0.00383045
0.00700867
0.00424222
0.00544932
0.00448873
0.00385564
0.00447685
0.00218539
0.00418261
0.000569123
0.00394963
-0.000989675
0.00358724
-0.0024399
0.00313311
-0.0037668
0.00335355
-0.00461971
0.00293629
-0.00516897
0.00255852
-0.0057778
0.00245994
-0.00629545
0.0019873
-0.0066873
0.00148791
-0.00697608
0.00108707
-0.0071891
0.000615635
-0.00723795
-1.52747e-06
-0.00692167
-0.000724292
-0.00610664
-0.00150619
-0.00498788
-0.00197306
-0.00376936
-0.00217971
-0.00257335
-0.00227775
-0.00136811
-0.00240453
-0.000114189
-0.00265377
0.00117862
-0.00290721
0.00248145
-0.00303642
0.00376681
-0.00323064
0.00506383
-0.00340099
0.00644654
-0.00359437
0.00787927
-0.0038662
0.00934579
-0.00405578
0.0108004
-0.00407169
0.012214
-0.00399026
0.0136104
-0.00395673
0.0150568
-0.00399759
0.0165566
-0.00394115
0.0180609
-0.00369971
0.0194954
-0.0032206
0.020736
-0.00262278
0.02181
-0.00221847
0.0228162
-0.0020419
0.0238132
-0.00199536
0.0248291
-0.00197642
0.025793
-0.00172695
0.0264727
-0.00152114
0.0266386
-0.00113111
0.0265763
-0.000886919
0.0264282
-0.000705677
0.0263153
-0.000616747
0.0262475
-0.000603996
0.0262112
-0.000665754
0.0262015
-0.000710067
0.026169
-0.000603528
0.0261589
-0.000316555
0.0261178
-6.27663e-05
0.0260992
0.00022971
0.0260977
0.000203067
0.0261958
7.03778e-05
0.0263294
-2.97274e-05
0.0262717
3.32658e-06
0.0260456
0.000142109
0.0259072
-2.94296e-05
0.0257736
-1.11012e-05
0.0257017
9.4493e-05
0.0256759
0.000129995
0.025624
0.000138711
0.0255717
0.00012656
0.0254834
0.000161052
0.0254589
0.000216114
0.0254676
0.000217444
0.0254693
0.000194192
0.0255087
0.000185441
0.0255925
0.000120659
0.0257289
4.33428e-05
0.0257708
6.65462e-05
0.0257263
-0.000109657
0.0256676
-0.00010832
0.0257397
9.70383e-05
0.0258113
0.000217776
0.0259708
0.000128569
0.0261509
6.44625e-05
0.0262429
0.000187942
0.0264069
-1.20719e-05
0.0265535
0.00010691
0.026692
-8.0541e-06
0.0267817
0.000262679
0.027074
-6.61807e-05
0.027379
-4.57229e-05
0.0274354
-2.76569e-05
0.0276416
-0.000113765
0.0279014
-0.000121743
0.0280415
0.00020071
0.028354
-7.06986e-05
0.0286758
-0.000136887
0.0290621
5.9385e-05
0.0293251
-0.000167573
0.0295512
-0.000412521
0.0297163
-0.000483474
0.0300062
-0.000194145
0.0302356
0.000223266
0.0305882
0.000113081
0.0309446
6.27776e-05
0.0313479
-0.000120565
0.0317237
-0.000147298
0.0320754
0.000152215
0.0323026
-0.000104515
0.0325269
-0.000254189
0.032846
-4.84184e-05
0.0329744
0.00025934
0.0333504
-4.69331e-05
0.0337341
-0.000138212
0.0342848