/*--------------------------------*- C++ -*----------------------------------*\
| =========                 |                                                 |
| \\      /  F ield         | OpenFOAM: The Open Source CFD Toolbox           |
|  \\    /   O peration     | Version:  v1812                                 |
|   \\  /    A nd           | Web:      www.OpenFOAM.com                      |
|    \\/     M anipulation  |                                                 |
\*---------------------------------------------------------------------------*/
FoamFile
{
    version     2.0;
    format      ascii;
    class       volScalarField;
    location    "0.7";
    object      rho;
}
// * * * * * * * * * * * * * * * * * * * * * * * * * * * * * * * * * * * * * //

dimensions      [1 -3 0 0 0 0 0];


internalField   nonuniform List<scalar> 
20400
(
1.25298
1.25312
1.25339
1.25374
1.25412
1.25448
1.25485
1.2552
1.25551
1.25578
1.256
1.25617
1.25629
1.25636
1.25638
1.25636
1.2563
1.25621
1.25611
1.25598
1.25585
1.25573
1.25561
1.25553
1.25549
1.25553
1.25566
1.25587
1.25615
1.25646
1.25678
1.257
1.25702
1.25684
1.25643
1.25581
1.25503
1.25403
1.25288
1.25164
1.25035
1.2491
1.24808
1.24737
1.2474
1.24793
1.24906
1.25072
1.25256
1.25438
1.25594
1.25718
1.25819
1.25893
1.25946
1.25985
1.26014
1.26034
1.2605
1.26067
1.26084
1.26104
1.26123
1.2614
1.26166
1.26185
1.26211
1.26239
1.26269
1.26313
1.26361
1.26401
1.26444
1.26489
1.26534
1.26577
1.26618
1.26656
1.26691
1.26724
1.26755
1.26783
1.26807
1.26827
1.26843
1.26856
1.26866
1.26875
1.26886
1.26884
1.26882
1.26879
1.26875
1.26869
1.26855
1.26841
1.2683
1.26818
1.26805
1.26791
1.26772
1.26752
1.26717
1.26699
1.26683
1.26663
1.26642
1.26621
1.266
1.26578
1.26558
1.26541
1.26526
1.26507
1.26488
1.2647
1.26448
1.26427
1.26407
1.26387
1.26365
1.26343
1.26318
1.26288
1.26253
1.26214
1.26167
1.26122
1.26075
1.26029
1.25983
1.25938
1.25892
1.25847
1.258
1.25757
1.25715
1.25675
1.25635
1.25598
1.25565
1.25532
1.25506
1.25483
1.25466
1.25454
1.2545
1.25452
1.2546
1.25469
1.25479
1.2549
1.25511
1.2553
1.25557
1.25583
1.25611
1.25637
1.25665
1.25692
1.25718
1.25737
1.25754
1.25771
1.25791
1.25812
1.25816
1.2583
1.25838
1.25845
1.25852
1.25855
1.25857
1.25861
1.25862
1.25863
1.25858
1.25854
1.2585
1.25843
1.25832
1.25827
1.25819
1.25811
1.25803
1.25793
1.25781
1.25773
1.25765
1.25758
1.2575
1.25744
1.25741
1.25736
1.25733
1.25729
1.25723
1.25715
1.25711
1.25709
1.25703
1.25695
1.25693
1.25687
1.2568
1.25674
1.25667
1.25657
1.25644
1.25631
1.25618
1.25602
1.25583
1.25562
1.25541
1.25517
1.25492
1.25465
1.25437
1.25407
1.25379
1.25351
1.25323
1.25294
1.25267
1.25239
1.25209
1.25183
1.25152
1.25125
1.25099
1.25072
1.25046
1.25021
1.24994
1.24974
1.24951
1.24929
1.24908
1.24888
1.24866
1.2485
1.24832
1.24814
1.24799
1.24783
1.24766
1.24754
1.24738
1.24728
1.24713
1.24703
1.24692
1.24682
1.24671
1.24661
1.24651
1.24642
1.24635
1.24627
1.2462
1.24611
1.24606
1.24603
1.24592
1.24589
1.24579
1.2458
1.2457
1.24562
1.24555
1.24551
1.24547
1.24547
1.24537
1.24529
1.24525
1.24513
1.24508
1.24502
1.24495
1.24488
1.24477
1.2447
1.24475
1.24451
1.24447
1.24428
1.24419
1.24413
1.24399
1.24397
1.24368
1.24357
1.24337
1.24333
1.24317
1.2429
1.24273
1.24249
1.24233
1.24229
1.24187
1.24166
1.24136
1.2411
1.24084
1.24061
1.24036
1.24008
1.23981
1.23936
1.23901
1.23866
1.23832
1.23803
1.2377
1.23721
1.23693
1.23638
1.23587
1.23545
1.23498
1.23457
1.23411
1.23363
1.23345
1.23275
1.2322
1.23189
1.23119
1.23068
1.2302
1.22955
1.22891
1.2286
1.22784
1.22722
1.22693
1.22615
1.22563
1.22498
1.22433
1.22378
1.22312
1.22248
1.22183
1.2215
1.22071
1.2201
1.21968
1.21886
1.21821
1.21755
1.21702
1.21645
1.21592
1.21541
1.21504
1.21433
1.21383
1.21338
1.21283
1.21223
1.21178
1.21136
1.21086
1.21034
1.20988
1.20958
1.2091
1.20861
1.20829
1.20789
1.2076
1.20728
1.20706
1.20663
1.20623
1.20603
1.20577
1.20552
1.20533
1.20515
1.20509
1.20484
1.20461
1.20451
1.2044
1.20434
1.20428
1.2042
1.20412
1.20393
1.20398
1.20393
1.20397
1.20402
1.20411
1.20411
1.2041
1.20416
1.20428
1.20437
1.2045
1.20457
1.20469
1.20478
1.20491
1.20507
1.20527
1.20546
1.20562
1.20574
1.20593
1.20615
1.20638
1.20664
1.20677
1.207
1.20708
1.20736
1.2076
1.2078
1.20803
1.20824
1.20848
1.20868
1.20885
1.20904
1.20927
1.20953
1.20976
1.20999
1.21016
1.21033
1.21053
1.21074
1.21089
1.21101
1.21124
1.2114
1.21164
1.21166
1.21183
1.2119
1.21204
1.21218
1.21227
1.21231
1.21242
1.21254
1.21256
1.21259
1.21265
1.21265
1.21265
1.21269
1.21273
1.21274
1.21275
1.21261
1.21262
1.21249
1.2125
1.21238
1.21234
1.2122
1.21202
1.21192
1.21172
1.21156
1.2114
1.21125
1.21102
1.21078
1.21052
1.21031
1.21005
1.20985
1.2095
1.20923
1.20895
1.20861
1.20828
1.20799
1.20766
1.2074
1.20697
1.20663
1.20624
1.20588
1.20556
1.2052
1.20483
1.20439
1.204
1.20357
1.20319
1.20288
1.25336
1.25351
1.25382
1.25419
1.25459
1.25498
1.25536
1.2557
1.25602
1.25628
1.2565
1.25667
1.25678
1.25684
1.25686
1.25683
1.25676
1.25666
1.25653
1.25639
1.25622
1.25605
1.25588
1.25575
1.25565
1.25562
1.2557
1.25586
1.25606
1.25624
1.2564
1.2565
1.25639
1.25597
1.25533
1.25464
1.25395
1.25307
1.25215
1.25113
1.25024
1.2494
1.24875
1.2486
1.24885
1.24994
1.25174
1.25381
1.25572
1.25735
1.25863
1.25959
1.26027
1.26073
1.26103
1.2612
1.26127
1.26127
1.26121
1.26113
1.26109
1.26102
1.26097
1.26096
1.26116
1.26126
1.2613
1.26135
1.26136
1.26141
1.26148
1.26158
1.26175
1.26201
1.26234
1.26274
1.26319
1.26366
1.26414
1.26462
1.2651
1.26555
1.26598
1.26637
1.2667
1.26697
1.26721
1.26745
1.26746
1.26764
1.26776
1.26787
1.26794
1.26805
1.26812
1.26808
1.26798
1.26784
1.2677
1.26754
1.2673
1.26706
1.26685
1.26663
1.26646
1.26623
1.26598
1.26574
1.26549
1.26529
1.26513
1.26498
1.26485
1.26474
1.26464
1.26455
1.26444
1.26435
1.26428
1.26423
1.26421
1.2642
1.26423
1.26427
1.26426
1.26407
1.26376
1.26354
1.26331
1.26309
1.26287
1.26262
1.26231
1.2619
1.26144
1.26095
1.26044
1.25992
1.25941
1.25893
1.2585
1.25807
1.25765
1.2572
1.25671
1.25616
1.25571
1.25544
1.25538
1.25539
1.25542
1.25533
1.25536
1.25538
1.25546
1.25576
1.25602
1.25629
1.25661
1.25691
1.25723
1.2575
1.25777
1.25801
1.25828
1.25833
1.25848
1.25869
1.25879
1.25888
1.25893
1.25893
1.25886
1.25883
1.2588
1.25876
1.25868
1.25861
1.25856
1.25847
1.25832
1.25822
1.25811
1.258
1.25791
1.25781
1.25782
1.25771
1.25758
1.25744
1.25737
1.25729
1.25721
1.25712
1.25707
1.25702
1.25695
1.2569
1.25681
1.25685
1.2568
1.25677
1.25672
1.25667
1.25664
1.25663
1.2566
1.25658
1.25658
1.25654
1.2565
1.25652
1.25652
1.25647
1.25638
1.25625
1.25609
1.25589
1.25564
1.25533
1.25497
1.25462
1.25432
1.25403
1.25375
1.25344
1.2531
1.25279
1.25244
1.25212
1.25181
1.25152
1.25125
1.251
1.25072
1.25039
1.24999
1.24971
1.24948
1.24927
1.24903
1.24886
1.24868
1.24853
1.24836
1.24814
1.24793
1.24779
1.24766
1.24751
1.24734
1.2472
1.24708
1.24697
1.24685
1.24678
1.24672
1.24665
1.24658
1.24644
1.24628
1.24622
1.24617
1.24612
1.24606
1.24608
1.24596
1.2459
1.24583
1.24577
1.24574
1.24572
1.24563
1.24554
1.2455
1.24544
1.24546
1.24534
1.2453
1.24526
1.24516
1.24492
1.24487
1.24483
1.24486
1.24465
1.24468
1.24449
1.24445
1.24425
1.24409
1.24401
1.24386
1.2438
1.24362
1.24341
1.24331
1.24306
1.24299
1.24277
1.24245
1.24236
1.24203
1.24189
1.24158
1.24136
1.24111
1.24073
1.24046
1.2402
1.23997
1.23955
1.23925
1.23891
1.23866
1.23814
1.23775
1.23733
1.23701
1.2366
1.23613
1.23577
1.23532
1.23492
1.23454
1.23382
1.23343
1.23306
1.23234
1.2319
1.23151
1.23078
1.23028
1.22988
1.22909
1.22865
1.22817
1.22739
1.22694
1.22648
1.2257
1.22515
1.22469
1.22388
1.22333
1.22285
1.22206
1.22155
1.22107
1.22031
1.21973
1.21912
1.21864
1.21794
1.21739
1.21685
1.21642
1.21558
1.21508
1.21462
1.21426
1.21353
1.21294
1.2126
1.21223
1.21156
1.21099
1.21072
1.21023
1.20971
1.20935
1.20904
1.20869
1.20838
1.20801
1.20745
1.20722
1.20694
1.20671
1.2065
1.20626
1.20605
1.2059
1.20538
1.20518
1.20511
1.20512
1.20503
1.20497
1.20469
1.20444
1.20447
1.20443
1.20452
1.20454
1.20458
1.2046
1.20425
1.20431
1.2044
1.20467
1.20485
1.20483
1.20466
1.20478
1.20487
1.20503
1.20531
1.20557
1.20567
1.20558
1.20578
1.20604
1.20633
1.20662
1.20687
1.20687
1.20689
1.2071
1.20748
1.20782
1.20783
1.20793
1.2083
1.20849
1.20862
1.20884
1.20919
1.20947
1.20977
1.21003
1.21002
1.21004
1.2103
1.21054
1.21076
1.21097
1.21127
1.21149
1.21176
1.21196
1.21184
1.21194
1.21203
1.21238
1.21263
1.21259
1.21258
1.21285
1.21304
1.21293
1.21288
1.21297
1.21306
1.21324
1.21331
1.21341
1.21347
1.21328
1.21309
1.21308
1.21305
1.21326
1.21325
1.21317
1.21275
1.21266
1.2126
1.21244
1.21251
1.21237
1.21224
1.21193
1.21154
1.21138
1.21131
1.21123
1.21099
1.2105
1.21017
1.20993
1.20981
1.20949
1.20919
1.20897
1.20865
1.20813
1.20773
1.20735
1.20716
1.20689
1.2066
1.2061
1.2055
1.2052
1.20486
1.20464
1.20432
1.20372
1.20331
1.25394
1.25417
1.25451
1.25497
1.25545
1.25591
1.25632
1.25667
1.25695
1.2572
1.25739
1.25752
1.2576
1.25763
1.25761
1.25754
1.25742
1.25727
1.25708
1.25687
1.25664
1.25642
1.25622
1.25602
1.25591
1.25588
1.25591
1.25595
1.25606
1.25612
1.25606
1.2557
1.25508
1.25434
1.25352
1.25274
1.25205
1.25143
1.25081
1.25021
1.24977
1.2495
1.24943
1.24977
1.25084
1.25273
1.25496
1.25697
1.25848
1.25963
1.2604
1.26078
1.26088
1.2608
1.26054
1.26026
1.25994
1.25956
1.2592
1.25879
1.2582
1.25774
1.25715
1.25658
1.25602
1.25551
1.25509
1.25473
1.25433
1.25398
1.25371
1.25351
1.25347
1.25357
1.25386
1.25431
1.25493
1.25572
1.25664
1.25766
1.25876
1.25991
1.26107
1.26222
1.26328
1.26424
1.26503
1.26566
1.26618
1.26651
1.26672
1.26682
1.26689
1.26691
1.26679
1.26661
1.26643
1.26624
1.26603
1.26585
1.26559
1.26531
1.26553
1.26525
1.26496
1.26465
1.26434
1.26401
1.26364
1.26334
1.26301
1.26273
1.26256
1.26246
1.26245
1.26248
1.26252
1.26255
1.26256
1.26255
1.26257
1.26267
1.26286
1.26319
1.26368
1.26416
1.26455
1.26489
1.26513
1.2653
1.26545
1.26556
1.26562
1.26563
1.26545
1.26517
1.26479
1.26434
1.2638
1.26326
1.26281
1.26237
1.262
1.26161
1.26099
1.26003
1.25876
1.25753
1.25686
1.2566
1.25647
1.25648
1.2564
1.25617
1.25603
1.25611
1.25627
1.25642
1.25666
1.25692
1.25724
1.25756
1.25788
1.2582
1.25847
1.25898
1.25905
1.2591
1.25913
1.2592
1.25921
1.25919
1.2591
1.25901
1.25891
1.25879
1.25865
1.25852
1.25838
1.25821
1.25802
1.25785
1.25767
1.25748
1.2573
1.25711
1.25689
1.2567
1.25646
1.25618
1.25597
1.25586
1.25577
1.25557
1.25548
1.25539
1.25527
1.25514
1.25499
1.25491
1.25492
1.25492
1.25495
1.25498
1.25504
1.25513
1.25524
1.25537
1.25551
1.25566
1.25583
1.256
1.2562
1.25639
1.25657
1.25672
1.25683
1.25689
1.25688
1.25682
1.25667
1.25648
1.25629
1.25608
1.25586
1.25559
1.25524
1.2548
1.25427
1.25385
1.25346
1.25308
1.25273
1.25237
1.252
1.2516
1.25119
1.25081
1.25049
1.25021
1.24994
1.24967
1.24939
1.24916
1.24895
1.24875
1.24854
1.24835
1.24813
1.24798
1.24782
1.24768
1.24753
1.2474
1.24726
1.24715
1.24702
1.24689
1.24682
1.24672
1.24665
1.24655
1.24648
1.24644
1.24633
1.24627
1.2462
1.24616
1.24607
1.24602
1.24595
1.24589
1.24584
1.24582
1.24573
1.24569
1.2456
1.2455
1.24544
1.24544
1.24533
1.24528
1.24515
1.24506
1.24503
1.24495
1.24484
1.24469
1.24464
1.24448
1.24439
1.24424
1.24414
1.24396
1.24385
1.24368
1.24347
1.2434
1.24315
1.24299
1.24268
1.2426
1.24231
1.2421
1.2418
1.24154
1.2413
1.24102
1.2407
1.24044
1.2401
1.2399
1.2395
1.23914
1.2388
1.2384
1.2381
1.23763
1.23721
1.23693
1.23642
1.23601
1.23554
1.2351
1.23467
1.2342
1.23368
1.23329
1.23263
1.23213
1.23173
1.23104
1.23053
1.23011
1.22936
1.22893
1.22839
1.22766
1.2272
1.22671
1.22603
1.22539
1.22491
1.22423
1.22358
1.22307
1.22234
1.22184
1.2213
1.22059
1.22003
1.21944
1.21886
1.21817
1.21762
1.21707
1.21651
1.21601
1.21544
1.21491
1.21443
1.21389
1.21332
1.21285
1.21238
1.21189
1.21138
1.21097
1.21048
1.21009
1.20971
1.20927
1.20889
1.20852
1.20821
1.20792
1.20758
1.20731
1.20692
1.20666
1.20643
1.20622
1.20601
1.20579
1.2057
1.20553
1.20531
1.20515
1.2051
1.20501
1.20498
1.2049
1.20481
1.20467
1.20467
1.20465
1.20472
1.20477
1.20486
1.20488
1.20486
1.20488
1.20504
1.20514
1.20533
1.20537
1.20549
1.20555
1.20564
1.20588
1.20612
1.20629
1.20642
1.20651
1.20668
1.20698
1.20719
1.20751
1.20765
1.2078
1.20791
1.20822
1.20851
1.20863
1.2089
1.20917
1.20939
1.2095
1.20967
1.20985
1.21018
1.21041
1.21063
1.21092
1.2111
1.21129
1.21149
1.21153
1.21172
1.21185
1.21214
1.21231
1.21258
1.21265
1.21269
1.21272
1.21294
1.21315
1.21314
1.21316
1.21336
1.21352
1.21356
1.21356
1.21349
1.21352
1.21351
1.21364
1.21368
1.21368
1.21374
1.21362
1.21348
1.21333
1.21342
1.21336
1.21338
1.21318
1.21306
1.21279
1.21254
1.21248
1.21235
1.21226
1.21206
1.21174
1.21138
1.21124
1.21105
1.21091
1.21054
1.21018
1.20993
1.20957
1.20919
1.20893
1.20865
1.20844
1.20804
1.20758
1.20714
1.20677
1.20653
1.20622
1.20587
1.20543
1.20494
1.20452
1.20426
1.20408
1.25497
1.25523
1.25571
1.25629
1.25687
1.25739
1.25783
1.25817
1.25844
1.25864
1.25878
1.25886
1.25888
1.25885
1.25876
1.25863
1.25844
1.25822
1.25796
1.25767
1.25737
1.25707
1.25678
1.25654
1.25638
1.25629
1.25623
1.25614
1.25596
1.2556
1.25501
1.2541
1.25303
1.25202
1.25124
1.25073
1.25041
1.25017
1.2502
1.25035
1.25062
1.25097
1.25144
1.25245
1.25421
1.25643
1.25842
1.25986
1.26068
1.26105
1.26104
1.26079
1.26043
1.25993
1.25911
1.25813
1.25711
1.25593
1.25486
1.25371
1.25255
1.25139
1.2504
1.24954
1.24894
1.24834
1.24795
1.24764
1.24735
1.24713
1.24696
1.24681
1.24671
1.24665
1.24664
1.24669
1.24681
1.24701
1.24736
1.24787
1.24859
1.24952
1.25069
1.25211
1.25372
1.25545
1.25722
1.25891
1.26041
1.26165
1.26263
1.26335
1.26391
1.2643
1.2644
1.2644
1.26431
1.26421
1.26403
1.26382
1.26357
1.26337
1.26309
1.26276
1.26242
1.26204
1.26166
1.2613
1.26088
1.26041
1.2599
1.25944
1.25906
1.25881
1.2587
1.25869
1.25869
1.25871
1.25874
1.25874
1.25877
1.25883
1.25895
1.25927
1.25986
1.26071
1.26163
1.26259
1.26346
1.2642
1.26482
1.26537
1.26587
1.26633
1.26681
1.26718
1.26736
1.26739
1.26734
1.26719
1.26707
1.26687
1.26654
1.26597
1.2654
1.26443
1.2629
1.26122
1.25985
1.25902
1.25866
1.25867
1.25859
1.25821
1.2577
1.25721
1.25701
1.25693
1.25702
1.25717
1.25735
1.25772
1.25808
1.25848
1.25881
1.25935
1.25963
1.25967
1.25977
1.25978
1.25976
1.25965
1.25949
1.25931
1.25909
1.25885
1.25863
1.25839
1.25812
1.2578
1.25744
1.25708
1.25672
1.25637
1.25602
1.25563
1.25518
1.25474
1.25427
1.25371
1.25322
1.25281
1.2524
1.2521
1.2518
1.25151
1.25121
1.25086
1.25048
1.2502
1.25004
1.24992
1.24987
1.24989
1.24997
1.2501
1.25029
1.25055
1.25082
1.25113
1.25148
1.25187
1.25236
1.25295
1.25358
1.25423
1.25479
1.25529
1.25574
1.25613
1.25644
1.25666
1.25681
1.25692
1.25699
1.25699
1.25695
1.25678
1.25649
1.25618
1.25582
1.25542
1.255
1.25457
1.25411
1.25364
1.25322
1.25275
1.2523
1.25187
1.25146
1.25109
1.25071
1.25042
1.25012
1.24987
1.2496
1.24934
1.24908
1.24884
1.24864
1.24844
1.24823
1.24805
1.24787
1.2477
1.24755
1.24739
1.24725
1.24719
1.24708
1.24695
1.24687
1.24678
1.24667
1.24659
1.24648
1.24645
1.24637
1.24625
1.24619
1.24612
1.2461
1.24606
1.24602
1.24585
1.24585
1.24574
1.24566
1.24559
1.24557
1.24554
1.24543
1.24534
1.24531
1.2451
1.24509
1.24489
1.2448
1.24477
1.24464
1.24457
1.24429
1.24416
1.24401
1.24391
1.24382
1.2435
1.24334
1.24315
1.24303
1.24276
1.24251
1.24231
1.24201
1.24174
1.24148
1.24128
1.241
1.24072
1.24045
1.24
1.23969
1.23934
1.23897
1.23876
1.23834
1.23788
1.23753
1.23705
1.2366
1.23618
1.23572
1.23533
1.23488
1.23441
1.23402
1.23345
1.23289
1.23248
1.23189
1.23131
1.23088
1.23028
1.22968
1.22925
1.22859
1.22798
1.22753
1.22688
1.22626
1.22573
1.22508
1.22446
1.22391
1.22326
1.22264
1.22215
1.22147
1.22084
1.22031
1.2196
1.21904
1.21842
1.21785
1.21725
1.21668
1.21629
1.2158
1.21513
1.21463
1.21415
1.21367
1.21307
1.21257
1.21216
1.2117
1.21117
1.21073
1.21036
1.20993
1.20952
1.20912
1.20873
1.20843
1.20819
1.20785
1.2075
1.20719
1.20695
1.20666
1.20641
1.20622
1.20614
1.20592
1.20578
1.20558
1.2054
1.20528
1.20531
1.20523
1.2052
1.20502
1.20496
1.20493
1.2049
1.20493
1.2051
1.2051
1.20514
1.20508
1.20515
1.20524
1.20551
1.20559
1.20563
1.20575
1.20579
1.20595
1.20612
1.20637
1.20659
1.20667
1.20679
1.20698
1.20716
1.20749
1.20778
1.208
1.20808
1.20821
1.20851
1.20878
1.20892
1.20918
1.20942
1.20966
1.20983
1.20992
1.21016
1.21038
1.21071
1.211
1.21118
1.21138
1.21157
1.21171
1.21186
1.21203
1.21218
1.21235
1.21266
1.21288
1.21298
1.213
1.21307
1.21325
1.21342
1.21346
1.21348
1.21365
1.21378
1.21386
1.21382
1.21384
1.21386
1.21385
1.21388
1.214
1.21406
1.21401
1.21393
1.21379
1.21374
1.21367
1.21375
1.21365
1.21349
1.21333
1.21313
1.21296
1.21273
1.21267
1.21256
1.21239
1.2121
1.21179
1.21153
1.21141
1.21114
1.21086
1.21053
1.21026
1.20992
1.20957
1.20924
1.209
1.20871
1.20836
1.20795
1.20749
1.20715
1.20682
1.20651
1.20621
1.20573
1.20529
1.2049
1.20459
1.20435
1.25605
1.25637
1.25696
1.25766
1.25834
1.25892
1.25938
1.25971
1.25993
1.26006
1.26011
1.2601
1.26004
1.25991
1.25973
1.25951
1.25923
1.25892
1.25857
1.2582
1.25781
1.25742
1.25706
1.25676
1.25653
1.25633
1.25605
1.25559
1.2549
1.25399
1.25298
1.25185
1.25078
1.25015
1.24994
1.24996
1.25008
1.25032
1.2508
1.25164
1.25257
1.25343
1.25441
1.25584
1.25765
1.25935
1.2605
1.26098
1.26098
1.26071
1.26026
1.25943
1.25829
1.25693
1.2551
1.25336
1.25169
1.2502
1.24889
1.2478
1.24691
1.24621
1.24579
1.24543
1.24525
1.24504
1.24496
1.24494
1.24492
1.24496
1.24502
1.245
1.24495
1.24484
1.2447
1.24454
1.24436
1.24422
1.24409
1.24393
1.24375
1.24371
1.24382
1.24419
1.24488
1.24587
1.24719
1.24876
1.25046
1.25223
1.25404
1.25574
1.25737
1.25879
1.25978
1.26049
1.26097
1.26126
1.26136
1.26132
1.26115
1.26094
1.26071
1.26038
1.26005
1.25969
1.25934
1.25896
1.25856
1.25813
1.25763
1.25713
1.25666
1.25629
1.25601
1.25577
1.25559
1.25546
1.25537
1.25532
1.2553
1.25529
1.25533
1.2555
1.25585
1.25639
1.25712
1.25807
1.25911
1.26018
1.26121
1.26218
1.26314
1.26411
1.2651
1.26608
1.26696
1.26769
1.26832
1.26868
1.26899
1.26915
1.26918
1.26906
1.26882
1.26816
1.26709
1.26587
1.26458
1.26339
1.26244
1.2616
1.26118
1.26056
1.25977
1.25887
1.2583
1.258
1.25783
1.25782
1.25792
1.2582
1.25851
1.25877
1.25911
1.25948
1.25989
1.2602
1.26032
1.26035
1.26028
1.26009
1.25981
1.25949
1.25911
1.25872
1.25835
1.25796
1.2575
1.25697
1.25639
1.25577
1.25516
1.25457
1.25396
1.25327
1.2525
1.2518
1.25104
1.25019
1.24935
1.24852
1.24785
1.24733
1.24683
1.24635
1.24587
1.24537
1.24485
1.24437
1.244
1.24371
1.24348
1.24332
1.24323
1.24324
1.24334
1.24352
1.24375
1.24403
1.24436
1.24474
1.24526
1.24596
1.24685
1.24789
1.24893
1.24991
1.25082
1.2517
1.25257
1.25341
1.25421
1.25497
1.2557
1.25637
1.25689
1.25727
1.25751
1.25763
1.25765
1.25758
1.25744
1.25718
1.25685
1.25641
1.25593
1.25543
1.25491
1.25438
1.25387
1.25338
1.25298
1.25255
1.25216
1.25176
1.25138
1.25101
1.25067
1.25035
1.25003
1.24973
1.24944
1.24918
1.2489
1.24868
1.2485
1.2483
1.24814
1.24792
1.24775
1.24758
1.24743
1.24731
1.24715
1.24706
1.24694
1.24683
1.24671
1.24663
1.24658
1.2465
1.24638
1.24632
1.24623
1.24618
1.24613
1.24605
1.24597
1.24591
1.24581
1.24573
1.24564
1.24555
1.24545
1.2454
1.24534
1.2452
1.24513
1.24493
1.24484
1.24473
1.24459
1.24445
1.24432
1.24414
1.24397
1.24383
1.24362
1.24345
1.2432
1.24303
1.24277
1.24259
1.24232
1.24205
1.24178
1.24147
1.24118
1.24091
1.2406
1.24031
1.24
1.23964
1.2393
1.23888
1.23852
1.23814
1.23773
1.23738
1.23696
1.23652
1.23607
1.2356
1.23517
1.23466
1.23416
1.23371
1.23316
1.23263
1.23216
1.23158
1.23103
1.23055
1.22994
1.2294
1.22885
1.22824
1.22767
1.22715
1.22652
1.2259
1.22538
1.22473
1.2241
1.22357
1.22292
1.2223
1.22176
1.22113
1.22052
1.21994
1.21942
1.21879
1.21822
1.21763
1.21709
1.2165
1.21596
1.21542
1.21492
1.21435
1.21385
1.21336
1.21292
1.21239
1.2119
1.21151
1.21107
1.2106
1.21017
1.20987
1.20948
1.20912
1.20873
1.20842
1.20803
1.2078
1.20758
1.2073
1.20704
1.20682
1.20657
1.20638
1.20615
1.206
1.20592
1.20578
1.20568
1.20554
1.20546
1.20534
1.20533
1.20535
1.20532
1.20531
1.20527
1.2053
1.20528
1.20535
1.20547
1.20553
1.20559
1.20565
1.20578
1.20583
1.20597
1.20618
1.20633
1.20647
1.20661
1.20672
1.20697
1.2072
1.20736
1.20758
1.20773
1.20796
1.20811
1.20839
1.20863
1.20877
1.20896
1.20923
1.20944
1.20963
1.20981
1.21014
1.21036
1.21055
1.21079
1.21098
1.21119
1.21139
1.21157
1.21175
1.21192
1.21227
1.21243
1.21257
1.21277
1.21288
1.21304
1.21313
1.21335
1.2135
1.21357
1.21365
1.21381
1.21391
1.21394
1.21402
1.21402
1.2141
1.21426
1.21428
1.21427
1.2143
1.21426
1.21428
1.21417
1.21417
1.21424
1.21412
1.21408
1.21396
1.21386
1.21369
1.21355
1.21357
1.21336
1.21323
1.21299
1.2128
1.21254
1.2124
1.21217
1.21198
1.21165
1.21139
1.21111
1.21088
1.21056
1.21028
1.20996
1.20968
1.20928
1.20894
1.20854
1.20828
1.20791
1.20757
1.20714
1.20676
1.20633
1.20597
1.20567
1.20529
1.20481
1.20453
1.25715
1.25753
1.25822
1.25903
1.2598
1.26041
1.26085
1.26113
1.26127
1.26131
1.26126
1.26115
1.26097
1.26075
1.26048
1.26016
1.2598
1.25941
1.25898
1.25853
1.25806
1.25761
1.2572
1.25684
1.25649
1.25604
1.25534
1.25434
1.25313
1.25189
1.25082
1.24998
1.24964
1.2498
1.25027
1.25081
1.25123
1.25175
1.2528
1.25414
1.25539
1.25651
1.25768
1.259
1.2602
1.26093
1.26111
1.26098
1.26056
1.2598
1.25865
1.25692
1.25492
1.25278
1.2506
1.24873
1.24733
1.24629
1.2458
1.24559
1.24552
1.24576
1.24623
1.2466
1.24708
1.24747
1.24796
1.24847
1.24884
1.24904
1.24917
1.24904
1.24871
1.24819
1.24748
1.24663
1.24571
1.24476
1.24385
1.24304
1.24239
1.24185
1.24143
1.24111
1.24089
1.24091
1.24118
1.2417
1.24244
1.24343
1.2447
1.24621
1.24795
1.24985
1.2517
1.25341
1.2549
1.25617
1.25713
1.25776
1.25809
1.25823
1.2582
1.258
1.25776
1.25749
1.25719
1.25686
1.25651
1.25611
1.25568
1.25523
1.25476
1.25434
1.25395
1.25361
1.25331
1.25308
1.2529
1.25276
1.25264
1.25255
1.25252
1.25256
1.2527
1.25296
1.25338
1.254
1.25479
1.25573
1.25675
1.25785
1.25898
1.26018
1.26142
1.26272
1.2641
1.26544
1.26663
1.26767
1.26858
1.26933
1.27
1.27048
1.27069
1.2707
1.27047
1.26975
1.26883
1.26784
1.26665
1.26536
1.26437
1.26344
1.26247
1.26149
1.26072
1.26028
1.25989
1.25957
1.25928
1.25911
1.25905
1.25912
1.25928
1.25954
1.25996
1.26041
1.26063
1.2607
1.26064
1.26041
1.26003
1.25955
1.25904
1.2585
1.25794
1.25732
1.25661
1.25579
1.25491
1.25397
1.25307
1.2522
1.25129
1.25027
1.24931
1.24836
1.24741
1.24638
1.24544
1.24454
1.2437
1.24306
1.24256
1.2421
1.24165
1.2413
1.24096
1.24064
1.24037
1.24012
1.2399
1.23967
1.23945
1.23927
1.23911
1.23901
1.23892
1.23887
1.23887
1.2389
1.23902
1.23932
1.23982
1.24055
1.24144
1.24238
1.24332
1.2443
1.24535
1.24648
1.24767
1.24893
1.25028
1.25172
1.25312
1.25438
1.25545
1.2564
1.2572
1.25786
1.25835
1.25868
1.25883
1.25882
1.25867
1.25841
1.25802
1.25755
1.25704
1.25655
1.25604
1.25558
1.25509
1.25461
1.25413
1.25365
1.25317
1.25272
1.25231
1.25191
1.2515
1.25113
1.25077
1.25041
1.25009
1.24978
1.24949
1.24925
1.24899
1.24874
1.24852
1.2483
1.24808
1.24787
1.24767
1.24751
1.24735
1.24718
1.24705
1.24693
1.24682
1.24671
1.24661
1.24647
1.24639
1.2463
1.24624
1.24617
1.24607
1.24599
1.24589
1.24581
1.24574
1.2456
1.24552
1.24543
1.24534
1.24521
1.24508
1.24497
1.24479
1.24465
1.2445
1.24436
1.24422
1.24401
1.24382
1.24364
1.24346
1.24324
1.24299
1.24276
1.24251
1.24226
1.242
1.24172
1.24145
1.24116
1.24087
1.24052
1.24017
1.23984
1.2395
1.23916
1.23876
1.23836
1.23798
1.23755
1.2371
1.23668
1.23624
1.23581
1.23536
1.23488
1.23443
1.23393
1.23339
1.23292
1.23238
1.23182
1.23133
1.23079
1.23019
1.22968
1.2291
1.2285
1.22797
1.22736
1.22676
1.2262
1.22558
1.22497
1.2244
1.22378
1.22317
1.22262
1.22198
1.22135
1.22078
1.22016
1.21957
1.21898
1.21841
1.21784
1.21729
1.21676
1.21625
1.21567
1.21517
1.21464
1.21414
1.21361
1.21315
1.21265
1.21222
1.21174
1.21128
1.21087
1.21046
1.21009
1.20968
1.20933
1.209
1.20868
1.20836
1.20807
1.20775
1.2075
1.20723
1.20701
1.2068
1.20665
1.20644
1.20629
1.20614
1.20598
1.20588
1.20581
1.20573
1.20569
1.2056
1.20556
1.20552
1.20551
1.20552
1.20559
1.20562
1.20565
1.20569
1.20576
1.20585
1.20599
1.20608
1.20617
1.20629
1.2064
1.20655
1.20672
1.2069
1.2071
1.20726
1.20741
1.2076
1.2078
1.20803
1.20827
1.20848
1.20866
1.20885
1.20907
1.20931
1.20951
1.20974
1.20995
1.21019
1.2104
1.21058
1.21081
1.21103
1.21128
1.21152
1.21172
1.21192
1.21212
1.2123
1.21247
1.21265
1.21284
1.21301
1.21321
1.21338
1.21351
1.21362
1.21373
1.21386
1.21398
1.21408
1.21415
1.21425
1.21435
1.21441
1.21444
1.21448
1.21451
1.21453
1.21456
1.21458
1.21462
1.21457
1.21453
1.21447
1.21441
1.21435
1.2143
1.21421
1.21408
1.21393
1.21379
1.21364
1.21346
1.21331
1.21314
1.21296
1.21271
1.21247
1.21223
1.212
1.21174
1.21145
1.21116
1.21088
1.21056
1.21024
1.20992
1.20961
1.20926
1.20894
1.20855
1.20816
1.2078
1.20745
1.20708
1.20672
1.20629
1.20589
1.20551
1.20514
1.20485
1.25818
1.2586
1.25938
1.26026
1.26107
1.26166
1.26204
1.26223
1.26227
1.26219
1.26202
1.26179
1.26151
1.26119
1.26083
1.26043
1.26
1.25955
1.25906
1.25856
1.25806
1.25757
1.25712
1.25666
1.2561
1.25527
1.25407
1.2526
1.25115
1.25002
1.24938
1.24925
1.24963
1.25052
1.25152
1.25236
1.25309
1.25393
1.25524
1.25672
1.25797
1.25903
1.25997
1.26073
1.26111
1.26112
1.26088
1.26037
1.25935
1.25785
1.25588
1.25356
1.25117
1.24904
1.24722
1.24632
1.24585
1.24589
1.24606
1.24666
1.24754
1.24881
1.25022
1.25156
1.25241
1.25307
1.25373
1.25435
1.25478
1.25497
1.25506
1.25487
1.25446
1.25382
1.2529
1.25176
1.25043
1.24897
1.24743
1.2459
1.24444
1.2431
1.2419
1.24088
1.24008
1.23947
1.23903
1.23881
1.23875
1.23884
1.23918
1.23979
1.24063
1.24171
1.24299
1.24453
1.24617
1.24788
1.24952
1.25097
1.25216
1.25306
1.25366
1.25405
1.25422
1.25426
1.2542
1.2541
1.25392
1.25372
1.25341
1.25303
1.25261
1.25216
1.25171
1.25126
1.25086
1.25054
1.25031
1.25015
1.25003
1.24993
1.24987
1.24989
1.24995
1.25007
1.25029
1.25065
1.25117
1.25186
1.25272
1.2537
1.2548
1.25602
1.25736
1.25884
1.26044
1.26208
1.2637
1.26525
1.26675
1.268
1.26905
1.26992
1.27067
1.27131
1.27161
1.2716
1.27143
1.271
1.27017
1.26913
1.26811
1.26708
1.26605
1.26492
1.26387
1.26302
1.26236
1.26172
1.26104
1.26047
1.26011
1.25985
1.25979
1.25992
1.26012
1.26053
1.26094
1.26113
1.26115
1.26095
1.26048
1.25982
1.25905
1.25827
1.25744
1.25653
1.2555
1.25437
1.25319
1.25198
1.25081
1.24971
1.24857
1.24743
1.24629
1.24533
1.24434
1.24337
1.24259
1.24192
1.24127
1.24089
1.24046
1.24021
1.23995
1.23983
1.23965
1.23954
1.23941
1.23925
1.23912
1.23895
1.23875
1.23853
1.23832
1.23809
1.23786
1.23764
1.23741
1.23715
1.23689
1.23666
1.23651
1.23652
1.23668
1.23697
1.23738
1.23789
1.23854
1.23935
1.24034
1.24149
1.24282
1.24437
1.24604
1.24773
1.24934
1.25096
1.25257
1.25415
1.25563
1.25696
1.25807
1.25894
1.25955
1.25993
1.26008
1.26005
1.25991
1.25969
1.25944
1.25909
1.25869
1.25819
1.25767
1.25711
1.25656
1.256
1.25547
1.25495
1.25443
1.25395
1.25344
1.25298
1.25253
1.2521
1.25171
1.25132
1.25094
1.25058
1.25022
1.24989
1.24954
1.24923
1.24893
1.24865
1.24839
1.24814
1.2479
1.24769
1.24748
1.24731
1.24715
1.24698
1.24684
1.2467
1.24658
1.24648
1.24636
1.24625
1.24615
1.24605
1.24598
1.24585
1.24575
1.24564
1.24555
1.2454
1.24529
1.24518
1.24503
1.24488
1.24473
1.24458
1.24443
1.24424
1.24405
1.24386
1.24365
1.24345
1.24321
1.24299
1.24274
1.24248
1.24221
1.24193
1.24164
1.24136
1.24106
1.24074
1.2404
1.24006
1.23972
1.23934
1.23896
1.23857
1.23818
1.23778
1.23734
1.23692
1.23648
1.23602
1.23558
1.2351
1.23461
1.23413
1.23362
1.2331
1.23259
1.23205
1.2315
1.23097
1.23042
1.22986
1.2293
1.22872
1.22815
1.22757
1.22698
1.22639
1.2258
1.2252
1.2246
1.224
1.22341
1.2228
1.2222
1.2216
1.22101
1.22041
1.21984
1.21924
1.21867
1.2181
1.21755
1.21699
1.21645
1.21591
1.21539
1.21487
1.21436
1.21385
1.21337
1.2129
1.21244
1.21198
1.21156
1.21112
1.21071
1.21034
1.20995
1.20959
1.20924
1.20892
1.2086
1.20832
1.20802
1.20776
1.20751
1.20729
1.20707
1.20688
1.20668
1.20653
1.2064
1.20626
1.20616
1.20605
1.20597
1.2059
1.20585
1.20583
1.2058
1.2058
1.20579
1.20582
1.20583
1.20589
1.20596
1.20603
1.2061
1.20619
1.2063
1.2064
1.20654
1.20667
1.20683
1.20698
1.20715
1.20731
1.20751
1.20769
1.20788
1.20808
1.20828
1.20849
1.2087
1.20891
1.20913
1.20933
1.20954
1.20977
1.20999
1.2102
1.21042
1.21066
1.21087
1.21109
1.21132
1.21153
1.21174
1.21195
1.21216
1.21236
1.21255
1.21275
1.21294
1.21311
1.21329
1.21345
1.21361
1.21376
1.21389
1.21403
1.21413
1.21424
1.21434
1.21445
1.21452
1.2146
1.21467
1.21472
1.21478
1.21482
1.21483
1.21485
1.21485
1.21486
1.21483
1.2148
1.21476
1.21471
1.21464
1.21455
1.21446
1.21433
1.2142
1.21408
1.21394
1.21378
1.21359
1.21341
1.2132
1.21299
1.21276
1.21253
1.21227
1.212
1.21173
1.21145
1.21116
1.21085
1.21053
1.21022
1.20987
1.20953
1.20919
1.20883
1.20845
1.2081
1.2077
1.20732
1.20694
1.20655
1.20616
1.20578
1.20535
1.20506
1.25908
1.25955
1.26038
1.2613
1.2621
1.26261
1.26288
1.26294
1.26284
1.26263
1.26236
1.26203
1.26166
1.26126
1.26084
1.26038
1.2599
1.2594
1.25888
1.25835
1.25782
1.25731
1.25679
1.25617
1.25533
1.25411
1.25254
1.2509
1.2496
1.24892
1.24888
1.24944
1.25049
1.25183
1.25311
1.25422
1.2552
1.25618
1.25756
1.25883
1.25984
1.26057
1.261
1.26111
1.26104
1.26078
1.26013
1.25899
1.25731
1.25523
1.25287
1.25038
1.24844
1.24708
1.24658
1.2463
1.24661
1.24741
1.24875
1.25013
1.25143
1.25315
1.25458
1.25599
1.25674
1.25716
1.25748
1.2578
1.25788
1.2578
1.25747
1.25699
1.25638
1.25561
1.25464
1.25346
1.25211
1.25062
1.24904
1.24746
1.2459
1.24444
1.24311
1.2419
1.2408
1.23984
1.23903
1.23838
1.23783
1.23742
1.2372
1.23713
1.23728
1.23756
1.23798
1.23868
1.23957
1.2406
1.24176
1.243
1.24424
1.24543
1.24649
1.2473
1.24795
1.24844
1.24875
1.24895
1.24906
1.24908
1.24901
1.24885
1.24865
1.24836
1.24802
1.24766
1.24732
1.24705
1.24684
1.24674
1.24666
1.24662
1.24665
1.24672
1.24683
1.24697
1.24719
1.24749
1.24789
1.24843
1.24913
1.24998
1.25097
1.2521
1.25338
1.25481
1.25643
1.25814
1.2599
1.26173
1.26361
1.26537
1.267
1.26853
1.26984
1.27083
1.27165
1.27221
1.27251
1.2726
1.27242
1.27194
1.27121
1.27027
1.26932
1.26822
1.26714
1.26626
1.26552
1.26471
1.26382
1.2629
1.26216
1.26161
1.26131
1.26102
1.26083
1.26081
1.26095
1.26118
1.26132
1.26123
1.26077
1.25997
1.25898
1.25787
1.25674
1.25562
1.25436
1.25301
1.25161
1.25018
1.24885
1.24762
1.2464
1.24524
1.24429
1.2434
1.24272
1.24208
1.24166
1.24134
1.24099
1.24086
1.24086
1.2409