/*--------------------------------*- C++ -*----------------------------------*\
| =========                 |                                                 |
| \\      /  F ield         | OpenFOAM: The Open Source CFD Toolbox           |
|  \\    /   O peration     | Version:  v1812                                 |
|   \\  /    A nd           | Web:      www.OpenFOAM.com                      |
|    \\/     M anipulation  |                                                 |
\*---------------------------------------------------------------------------*/
FoamFile
{
    version     2.0;
    format      ascii;
    class       volScalarField;
    location    "0.7";
    object      T;
}
// * * * * * * * * * * * * * * * * * * * * * * * * * * * * * * * * * * * * * //

dimensions      [0 0 0 1 0 0 0];


internalField   nonuniform List<scalar> 
20400
(
296.626
296.592
296.53
296.454
296.369
296.279
296.194
296.114
296.043
295.983
295.935
295.9
295.88
295.875
295.881
295.897
295.924
295.959
296.001
296.048
296.097
296.148
296.196
296.239
296.271
296.284
296.28
296.257
296.216
296.158
296.104
296.075
296.092
296.15
296.258
296.418
296.619
296.858
297.135
297.437
297.742
298.031
298.27
298.418
298.427
298.327
298.06
297.663
297.21
296.772
296.391
296.081
295.845
295.668
295.537
295.446
295.383
295.341
295.312
295.294
295.283
295.279
295.279
295.28
295.286
295.285
295.289
295.295
295.3
295.313
295.327
295.331
295.332
295.333
295.331
295.325
295.317
295.305
295.29
295.273
295.255
295.236
295.214
295.189
295.161
295.13
295.096
295.061
295.031
294.99
294.952
294.913
294.877
294.849
294.816
294.789
294.767
294.747
294.732
294.718
294.701
294.683
294.663
294.654
294.649
294.645
294.644
294.647
294.647
294.641
294.637
294.636
294.639
294.644
294.654
294.669
294.686
294.707
294.73
294.754
294.78
294.811
294.853
294.907
294.974
295.055
295.138
295.226
295.318
295.414
295.513
295.615
295.722
295.83
295.938
296.048
296.155
296.26
296.362
296.464
296.564
296.657
296.748
296.831
296.904
296.961
297.002
297.026
297.042
297.055
297.068
297.074
297.075
297.064
297.049
297.03
297.009
296.988
296.972
296.96
296.954
296.949
296.948
296.953
296.965
296.979
296.987
297.004
297.021
297.042
297.068
297.093
297.119
297.149
297.177
297.207
297.232
297.258
297.285
297.312
297.332
297.355
297.375
297.397
297.418
297.432
297.442
297.453
297.461
297.471
297.474
297.481
297.487
297.491
297.498
297.506
297.513
297.521
297.533
297.547
297.557
297.565
297.579
297.59
297.597
297.608
297.62
297.633
297.65
297.666
297.68
297.69
297.701
297.713
297.726
297.741
297.761
297.779
297.797
297.815
297.833
297.849
297.862
297.872
297.881
297.888
297.894
297.902
297.906
297.909
297.908
297.905
297.9
297.897
297.892
297.891
297.888
297.884
297.876
297.868
297.858
297.851
297.841
297.83
297.822
297.814
297.806
297.799
297.789
297.781
297.773
297.768
297.761
297.752
297.745
297.741
297.734
297.727
297.72
297.712
297.71
297.706
297.702
297.697
297.693
297.691
297.684
297.681
297.676
297.673
297.669
297.665
297.661
297.659
297.655
297.651
297.648
297.638
297.632
297.626
297.621
297.616
297.609
297.602
297.609
297.591
297.589
297.572
297.563
297.556
297.544
297.544
297.523
297.513
297.496
297.487
297.474
297.454
297.439
297.416
297.4
297.395
297.362
297.344
297.317
297.292
297.269
297.247
297.223
297.194
297.171
297.134
297.105
297.071
297.037
297.008
296.975
296.935
296.909
296.86
296.814
296.776
296.731
296.692
296.652
296.603
296.586
296.525
296.472
296.438
296.378
296.328
296.282
296.226
296.164
296.132
296.066
296.004
295.978
295.909
295.856
295.796
295.738
295.683
295.622
295.566
295.502
295.471
295.4
295.342
295.297
295.223
295.165
295.103
295.055
295.004
294.954
294.896
294.862
294.802
294.762
294.711
294.657
294.609
294.571
294.524
294.474
294.434
294.397
294.359
294.313
294.275
294.25
294.216
294.188
294.153
294.129
294.093
294.066
294.05
294.029
294.009
293.989
293.963
293.961
293.945
293.932
293.927
293.919
293.907
293.898
293.897
293.9
293.886
293.894
293.893
293.895
293.896
293.905
293.912
293.923
293.931
293.938
293.946
293.959
293.971
293.989
294.007
294.024
294.039
294.051
294.07
294.094
294.114
294.136
294.156
294.176
294.197
294.217
294.249
294.261
294.285
294.307
294.333
294.359
294.377
294.401
294.427
294.451
294.47
294.49
294.512
294.536
294.562
294.58
294.598
294.621
294.649
294.668
294.68
294.699
294.711
294.734
294.745
294.769
294.777
294.788
294.8
294.816
294.822
294.83
294.839
294.845
294.855
294.867
294.868
294.869
294.87
294.87
294.871
294.876
294.871
294.876
294.863
294.858
294.847
294.847
294.839
294.824
294.815
294.8
294.784
294.764
294.749
294.732
294.714
294.692
294.667
294.637
294.619
294.591
294.568
294.538
294.506
294.474
294.44
294.403
294.375
294.333
294.298
294.258
294.212
294.172
294.132
294.097
294.057
294.021
293.977
293.942
293.904
296.546
296.507
296.436
296.349
296.255
296.16
296.072
295.993
295.924
295.865
295.819
295.787
295.768
295.763
295.77
295.788
295.816
295.855
295.901
295.953
296.009
296.066
296.122
296.174
296.214
296.234
296.237
296.228
296.204
296.168
296.143
296.16
296.22
296.323
296.474
296.667
296.868
297.075
297.321
297.574
297.829
298.044
298.216
298.289
298.22
297.982
297.57
297.084
296.631
296.252
295.951
295.724
295.557
295.435
295.352
295.31
295.295
295.292
295.298
295.307
295.326
295.346
295.371
295.404
295.455
295.505
295.559
295.612
295.666
295.722
295.773
295.811
295.836
295.849
295.846
295.828
295.797
295.755
295.704
295.646
295.585
295.52
295.456
295.391
295.328
295.267
295.209
295.162
295.101
295.061
295.021
294.979
294.948
294.921
294.901
294.882
294.863
294.846
294.832
294.819
294.8
294.779
294.764
294.748
294.746
294.747
294.753
294.758
294.759
294.756
294.755
294.751
294.742
294.727
294.71
294.695
294.677
294.665
294.657
294.648
294.639
294.628
294.618
294.605
294.604
294.608
294.625
294.664
294.708
294.75
294.795
294.849
294.922
295.016
295.131
295.259
295.392
295.526
295.656
295.779
295.898
296.013
296.133
296.268
296.423
296.581
296.723
296.824
296.882
296.912
296.941
296.967
297.002
297.022
297.027
297.033
297.023
297.002
296.978
296.953
296.93
296.908
296.892
296.885
296.891
296.89
296.9
296.919
296.938
296.962
296.991
297.022
297.052
297.088
297.124
297.161
297.196
297.233
297.269
297.308
297.343
297.374
297.401
297.426
297.453
297.477
297.508
297.529
297.55
297.569
297.576
297.587
297.59
297.588
297.589
297.59
297.594
297.598
297.599
297.607
297.606
297.604
297.601
297.595
297.588
297.58
297.571
297.562
297.552
297.541
297.532
297.524
297.515
297.502
297.489
297.48
297.479
297.484
297.5
297.523
297.545
297.563
297.579
297.593
297.608
297.625
297.642
297.662
297.68
297.697
297.709
297.716
297.722
297.729
297.738
297.753
297.762
297.77
297.772
297.77
297.765
297.761
297.755
297.75
297.747
297.745
297.742
297.737
297.731
297.727
297.721
297.715
297.71
297.705
297.699
297.695
297.69
297.683
297.678
297.675
297.668
297.665
297.662
297.658
297.655
297.655
297.647
297.643
297.639
297.634
297.63
297.628
297.623
297.619
297.616
297.611
297.609
297.597
297.592
297.587
297.586
297.575
297.571
297.566
297.568
297.552
297.549
297.529
297.525
297.513
297.505
297.499
297.485
297.473
297.455
297.441
297.433
297.412
297.398
297.376
297.353
297.346
297.319
297.302
297.27
297.25
297.229
297.196
297.172
297.149
297.127
297.089
297.057
297.021
296.997
296.956
296.924
296.886
296.853
296.811
296.766
296.729
296.686
296.65
296.613
296.55
296.516
296.477
296.412
296.37
296.33
296.263
296.217
296.176
296.104
296.064
296.015
295.943
295.904
295.856
295.783
295.733
295.684
295.61
295.56
295.511
295.438
295.393
295.343
295.271
295.217
295.16
295.112
295.043
294.992
294.939
294.895
294.824
294.786
294.737
294.697
294.631
294.582
294.543
294.504
294.443
294.395
294.365
294.315
294.269
294.238
294.205
294.172
294.136
294.102
294.055
294.039
294.013
293.989
293.967
293.944
293.919
293.902
293.865
293.857
293.851
293.845
293.831
293.821
293.801
293.793
293.795
293.788
293.792
293.793
293.795
293.798
293.781
293.792
293.799
293.818
293.831
293.835
293.83
293.847
293.856
293.87
293.893
293.91
293.925
293.926
293.95
293.974
293.998
294.022
294.043
294.057
294.069
294.097
294.127
294.149
294.16
294.177
294.21
294.229
294.247
294.271
294.303
294.325
294.349
294.379
294.393
294.404
294.431
294.451
294.474
294.496
294.522
294.537
294.556
294.584
294.584
294.602
294.616
294.643
294.657
294.664
294.669
294.692
294.705
294.701
294.704
294.719
294.726
294.737
294.738
294.744
294.752
294.745
294.741
294.746
294.74
294.751
294.746
294.741
294.717
294.714
294.709
294.688
294.687
294.669
294.657
294.636
294.611
294.604
294.588
294.568
294.543
294.508
294.485
294.459
294.438
294.407
294.378
294.349
294.317
294.273
294.24
294.204
294.172
294.129
294.092
294.049
293.997
293.966
293.921
293.884
293.845
293.801
293.76
296.382
296.336
296.248
296.141
296.029
295.924
295.83
295.75
295.682
295.629
295.589
295.563
295.552
295.554
295.568
295.595
295.633
295.683
295.741
295.805
295.875
295.947
296.019
296.083
296.135
296.167
296.181
296.184
296.186
296.204
296.25
296.338
296.491
296.711
296.942
297.138
297.317
297.489
297.647
297.797
297.919
297.992
298.017
297.953
297.718
297.281
296.758
296.282
295.91
295.634
295.446
295.341
295.313
295.317
295.346
295.387
295.447
295.524
295.623
295.739
295.872
296.032
296.193
296.354
296.513
296.669
296.829
296.978
297.115
297.257
297.39
297.498
297.586
297.649
297.68
297.681
297.644
297.57
297.459
297.313
297.141
296.948
296.738
296.518
296.301
296.096
295.91
295.745
295.617
295.515
295.429
295.357
295.297
295.25
295.219
295.198
295.181
295.166
295.154
295.143
295.123
295.102
295.112
295.1
295.107
295.124
295.144
295.165
295.19
295.223
295.252
295.278
295.28
295.269
295.243
295.21
295.169
295.131
295.098
295.065
295.03
294.991
294.937
294.852
294.735
294.598
294.472
294.377
294.308
294.254
294.212
294.182
294.173
294.177
294.205
294.265
294.358
294.476
294.608
294.742
294.874
294.991
295.1
295.232
295.418
295.677
295.988
296.286
296.488
296.576
296.618
296.676
296.751
296.828
296.894
296.946
296.974
296.974
296.97
296.948
296.915
296.875
296.836
296.804
296.783
296.796
296.795
296.801
296.816
296.844
296.879
296.924
296.971
297.024
297.077
297.131
297.184
297.237
297.291
297.346
297.401
297.459
297.507
297.55
297.593
297.636
297.681
297.728
297.775
297.825
297.861
297.9
297.929
297.937
297.952
297.97
297.985
298.005
298.025
298.039
298.041
298.033
298.021
298.001
297.977
297.948
297.909
297.861
297.809
297.749
297.688
297.622
297.553
297.484
297.418
297.358
297.307
297.264
297.231
297.207
297.187
297.17
297.157
297.148
297.146
297.155
297.178
297.212
297.246
297.282
297.313
297.338
297.36
297.383
297.414
297.45
297.486
297.516
297.538
297.553
297.564
297.573
297.577
297.583
297.587
297.595
297.601
297.606
297.607
297.611
297.613
297.615
297.616
297.616
297.615
297.614
297.611
297.607
297.607
297.605
297.606
297.603
297.603
297.602
297.597
297.594
297.592
297.591
297.585
297.582
297.577
297.573
297.57
297.569
297.563
297.56
297.553
297.543
297.536
297.536
297.529
297.526
297.517
297.511
297.51
297.503
297.494
297.478
297.474
297.461
297.453
297.443
297.433
297.417
297.407
297.39
297.373
297.365
297.341
297.326
297.298
297.291
297.265
297.247
297.219
297.195
297.173
297.147
297.118
297.092
297.063
297.041
297.004
296.969
296.937
296.902
296.873
296.832
296.794
296.764
296.715
296.675
296.631
296.589
296.548
296.504
296.456
296.418
296.356
296.311
296.272
296.206
296.159
296.117
296.047
296.008
295.955
295.886
295.843
295.795
295.73
295.672
295.623
295.558
295.499
295.449
295.38
295.333
295.28
295.214
295.159
295.103
295.047
294.982
294.931
294.877
294.824
294.775
294.723
294.672
294.627
294.574
294.521
294.477
294.432
294.384
294.336
294.297
294.252
294.214
294.177
294.137
294.102
294.064
294.035
294.003
293.972
293.948
293.917
293.894
293.87
293.846
293.827
293.804
293.798
293.785
293.767
293.751
293.745
293.736
293.731
293.727
293.722
293.712
293.711
293.709
293.717
293.719
293.729
293.733
293.734
293.737
293.753
293.763
293.779
293.788
293.802
293.81
293.82
293.843
293.863
293.88
293.896
293.91
293.927
293.954
293.975
294.002
294.02
294.04
294.055
294.083
294.108
294.124
294.153
294.177
294.198
294.212
294.232
294.252
294.281
294.303
294.326
294.353
294.373
294.393
294.414
294.423
294.445
294.457
294.481
294.498
294.522
294.534
294.544
294.553
294.571
294.584
294.59
294.596
294.614
294.624
294.633
294.636
294.633
294.638
294.638
294.646
294.649
294.65
294.656
294.647
294.642
294.63
294.634
294.627
294.627
294.61
294.599
294.577
294.56
294.55
294.536
294.524
294.504
294.477
294.452
294.434
294.41
294.391
294.358
294.33
294.302
294.264
294.23
294.203
294.172
294.144
294.102
294.057
294.018
293.975
293.942
293.902
293.861
293.816
293.771
293.727
293.695
293.638
296.166
296.105
295.994
295.86
295.724
295.602
295.501
295.421
295.36
295.316
295.289
295.278
295.282
295.298
295.328
295.372
295.428
295.496
295.573
295.657
295.746
295.838
295.926
296.004
296.066
296.111
296.147
296.188
296.257
296.366
296.531
296.754
297.029
297.299
297.507
297.638
297.721
297.783
297.812
297.795
297.746
297.668
297.548
297.318
296.916
296.415
295.955
295.616
295.408
295.311
295.292
295.318
295.391
295.509
295.675
295.891
296.133
296.378
296.651
296.924
297.207
297.493
297.755
297.991
298.212
298.397
298.565
298.724
298.871
299.021
299.167
299.301
299.429
299.55
299.656
299.744
299.806
299.837
299.824
299.755
299.624
299.433
299.178
298.86
298.498
298.105
297.701
297.304
296.951
296.656
296.4
296.193
296.026
295.893
295.8
295.744
295.703
295.679
295.666
295.662
295.657
295.652
295.649
295.658
295.681
295.71
295.745
295.784
295.83
295.886
295.951
296.017
296.062
296.074
296.069
296.056
296.033
296.004
295.974
295.942
295.911
295.876
295.824
295.736
295.592
295.388
295.144
294.902
294.683
294.497
294.342
294.207
294.085
293.972
293.868
293.786
293.755
293.757
293.779
293.822
293.893
293.976
294.067
294.172
294.348
294.616
294.986
295.421
295.791
295.996
296.09
296.174
296.275
296.398
296.539
296.677
296.793
296.854
296.88
296.879
296.861
296.831
296.79
296.746
296.701
296.689
296.675
296.674
296.693
296.726
296.774
296.835
296.907
296.986
297.066
297.142
297.215
297.291
297.371
297.459
297.548
297.645
297.731
297.808
297.887
297.975
298.066
298.159
298.259
298.372
298.473
298.589
298.673
298.732
298.791
298.854
298.919
298.993
299.078
299.149
299.191
299.211
299.229
299.233
299.221
299.189
299.136
299.066
298.986
298.888
298.781
298.658
298.51
298.336
298.147
297.953
297.762
297.589
297.438
297.305
297.189
297.088
296.997
296.916
296.847
296.79
296.749
296.726
296.723
296.736
296.761
296.79
296.821
296.859
296.906
296.958
297.018
297.073
297.121
297.16
297.196
297.231
297.26
297.288
297.31
297.333
297.351
297.371
297.389
297.406
297.422
297.436
297.447
297.46
297.468
297.477
297.485
297.49
297.495
297.502
297.505
297.508
297.513
297.518
297.519
297.521
297.52
297.523
297.519
297.516
297.516
297.513
297.512
297.511
297.508
297.498
297.498
297.488
297.483
297.478
297.473
297.469
297.46
297.455
297.453
297.439
297.44
297.424
297.417
297.41
297.397
297.39
297.369
297.359
297.347
297.336
297.324
297.297
297.284
297.268
297.254
297.226
297.205
297.189
297.163
297.138
297.113
297.092
297.065
297.038
297.012
296.973
296.945
296.914
296.879
296.853
296.812
296.77
296.739
296.696
296.654
296.615
296.572
296.531
296.489
296.443
296.404
296.353
296.301
296.259
296.205
296.151
296.107
296.052
295.995
295.952
295.891
295.834
295.788
295.728
295.67
295.617
295.557
295.498
295.444
295.383
295.325
295.275
295.213
295.153
295.099
295.034
294.982
294.922
294.867
294.811
294.758
294.717
294.665
294.602
294.559
294.514
294.464
294.408
294.363
294.324
294.277
294.229
294.188
294.152
294.111
294.072
294.034
294
293.969
293.943
293.908
293.88
293.853
293.83
293.802
293.78
293.761
293.751
293.728
293.717
293.7
293.686
293.676
293.677
293.668
293.664
293.651
293.648
293.646
293.646
293.648
293.662
293.66
293.663
293.663
293.675
293.683
293.705
293.713
293.717
293.731
293.739
293.76
293.777
293.799
293.814
293.825
293.84
293.861
293.881
293.91
293.935
293.954
293.967
293.987
294.017
294.04
294.056
294.084
294.106
294.128
294.147
294.159
294.185
294.206
294.234
294.261
294.28
294.3
294.321
294.335
294.355
294.373
294.388
294.405
294.431
294.449
294.46
294.467
294.48
294.499
294.511
294.515
294.523
294.54
294.551
294.557
294.556
294.561
294.564
294.563
294.567
294.577
294.58
294.575
294.569
294.559
294.56
294.553
294.557
294.546
294.531
294.517
294.498
294.484
294.469
294.459
294.444
294.426
294.398
294.373
294.351
294.335
294.303
294.276
294.248
294.22
294.185
294.15
294.12
294.093
294.059
294.02
293.979
293.933
293.898
293.86
293.821
293.783
293.732
293.689
293.65
293.616
293.557
295.92
295.844
295.708
295.544
295.384
295.247
295.141
295.066
295.017
294.989
294.981
294.989
295.012
295.049
295.1
295.164
295.241
295.329
295.426
295.532
295.642
295.754
295.861
295.955
296.033
296.104
296.194
296.327
296.515
296.747
297.019
297.31
297.576
297.745
297.809
297.813
297.789
297.746
297.648
297.464
297.252
297.05
296.817
296.489
296.075
295.675
295.394
295.265
295.239
295.287
295.378
295.525
295.772
296.096
296.463
296.875
297.265
297.614
297.931
298.204
298.443
298.639
298.792
298.909
299.013
299.099
299.184
299.27
299.363
299.466
299.578
299.702
299.839
299.988
300.146
300.309
300.469
300.619
300.757
300.885
300.989
301.035
301.023
300.942
300.778
300.533
300.204
299.789
299.327
298.851
298.372
297.923
297.513
297.14
296.842
296.626
296.465
296.348
296.268
296.224
296.201
296.197
296.201
296.214
296.238
296.267
296.303
296.34
296.387
296.445
296.515
296.59
296.657
296.709
296.742
296.762
296.772
296.769
296.76
296.746
296.731
296.712
296.683
296.63
296.537
296.39
296.19
295.954
295.695
295.433
295.182
294.945
294.719
294.494
294.269
294.055
293.868
293.71
293.58
293.461
293.405
293.395
293.404
293.448
293.56
293.741
294.004
294.35
294.716
295.03
295.258
295.427
295.624
295.817
296.031
296.247
296.445
296.585
296.67
296.713
296.723
296.734
296.734
296.715
296.676
296.624
296.578
296.569
296.579
296.613
296.671
296.751
296.851
296.963
297.075
297.182
297.288
297.398
297.519
297.656
297.799
297.953
298.094
298.227
298.367
298.526
298.692
298.845
299.011
299.196
299.379
299.576
299.738
299.855
299.972
300.088
300.199
300.312
300.434
300.542
300.616
300.67
300.724
300.767
300.786
300.782
300.755
300.71
300.65
300.567
300.472
300.359
300.215
300.028
299.795
299.518
299.215
298.927
298.66
298.398
298.137
297.881
297.632
297.391
297.16
296.942
296.75
296.597
296.477
296.389
296.324
296.276
296.248
296.245
296.263
296.304
296.359
296.42
296.487
296.555
296.621
296.682
296.741
296.791
296.838
296.884
296.93
296.972
297.012
297.051
297.088
297.122
297.153
297.185
297.212
297.239
297.265
297.285
297.305
297.32
297.337
297.353
297.369
297.385
297.396
297.408
297.416
297.424
297.429
297.434
297.438
297.44
297.439
297.441
297.44
297.439
297.436
297.43
297.425
297.422
297.416
297.412
297.406
297.4
297.395
297.389
297.381
297.369
297.362
297.348
297.34
297.332
297.319
297.305
297.292
297.277
297.263
297.249
297.229
297.212
297.191
297.175
297.153
297.134
297.107
297.083
297.059
297.031
297.005
296.98
296.952
296.924
296.891
296.856
296.824
296.786
296.754
296.718
296.679
296.644
296.601
296.558
296.515
296.472
296.43
296.383
296.336
296.293
296.24
296.191
296.145
296.089
296.037
295.99
295.931
295.882
295.829
295.769
295.716
295.665
295.603
295.546
295.495
295.432
295.373
295.321
295.259
295.201
295.148
295.087
295.03
294.974
294.921
294.861
294.806
294.75
294.698
294.644
294.594
294.544
294.494
294.44
294.394
294.346
294.302
294.251
294.207
294.169
294.126
294.081
294.042
294.012
293.973
293.937
293.902
293.873
293.838
293.814
293.791
293.763
293.739
293.717
293.696
293.68
293.66
293.647
293.638
293.622
293.614
293.602
293.596
293.588
293.586
293.586
293.582
293.582
293.582
293.587
293.588
293.595
293.605
293.609
293.617
293.627
293.64
293.646
293.661
293.68
293.692
293.707
293.723
293.736
293.76
293.78
293.795
293.816
293.835
293.86
293.877
293.903
293.924
293.941
293.963
293.988
294.009
294.029
294.048
294.078
294.098
294.116
294.14
294.162
294.185
294.206
294.224
294.244
294.261
294.292
294.304
294.317
294.337
294.351
294.37
294.381
294.402
294.413
294.421
294.431
294.447
294.456
294.46
294.47
294.473
294.482
294.493
294.492
294.491
294.496
294.495
294.499
294.494
294.492
294.496
294.484
294.48
294.471
294.464
294.45
294.435
294.433
294.412
294.399
294.378
294.362
294.341
294.324
294.298
294.278
294.247
294.226
294.198
294.171
294.14
294.11
294.077
294.048
294.008
293.976
293.938
293.906
293.863
293.825
293.781
293.743
293.701
293.66
293.621
293.577
293.533
293.483
295.673
295.583
295.422
295.233
295.055
294.91
294.807
294.744
294.712
294.706
294.72
294.752
294.799
294.86
294.933
295.017
295.114
295.221
295.337
295.46
295.588
295.715
295.836
295.945
296.051
296.182
296.373
296.637
296.952
297.264
297.542
297.757
297.865
297.852
297.755
297.649
297.562
297.446
297.227
296.921
296.622
296.35
296.07
295.764
295.48
295.299
295.237
295.246
295.307
295.462
295.722
296.066
296.513
297.004
297.487
297.938
298.284
298.515
298.654
298.726
298.75
298.752
298.738
298.673
298.626
298.579
298.535
298.503
298.494
298.537
298.604
298.724
298.889
299.094
299.337
299.619
299.932
300.263
300.588
300.879
301.122
301.324
301.481
301.603
301.691
301.713
301.676
301.543
301.324
301.044
300.696
300.281
299.803
299.275
298.765
298.305
297.898
297.55
297.267
297.061
296.924
296.839
296.79
296.766
296.763
296.769
296.786
296.809
296.839
296.878
296.93
296.996
297.069
297.141
297.206
297.261
297.302
297.33
297.344
297.349
297.353
297.35
297.34
297.317
297.271
297.19
297.07
296.91
296.708
296.475
296.221
295.958
295.688
295.408
295.116
294.805
294.492
294.193
293.921
293.684
293.505
293.354
293.221
293.155
293.157
293.192
293.287
293.438
293.657
293.942
294.251
294.556
294.865
295.146
295.418
295.677
295.908
296.107
296.262
296.377
296.458
296.534
296.601
296.635
296.633
296.602
296.544
296.495
296.495
296.517
296.574
296.668
296.796
296.944
297.099
297.252
297.403
297.562
297.738
297.938
298.151
298.373
298.579
298.777
298.99
299.224
299.454
299.661
299.875
300.099
300.319
300.533
300.72
300.868
300.995
301.109
301.211
301.304
301.39
301.467
301.529
301.583
301.638
301.689
301.73
301.762
301.785
301.799
301.803
301.794
301.771
301.732
301.667
301.567
301.421
301.216
300.961
300.692
300.422
300.14
299.839
299.518
299.178
298.82
298.445
298.052
297.661
297.298
296.976
296.692
296.44
296.223
296.044
295.906
295.812
295.755
295.732
295.735
295.762
295.816
295.879
295.943
296.006
296.071
296.137
296.208
296.28
296.352
296.421
296.487
296.552
296.613
296.671
296.73
296.785
296.836
296.885
296.929
296.971
297.011
297.047
297.083
297.12
297.156
297.187
297.215
297.24
297.264
297.284
297.301
297.317
297.331
297.342
297.35
297.357
297.358
297.362
297.362
297.362
297.362
297.357
297.353
297.347
297.343
297.339
297.329
297.324
297.317
297.309
297.297
297.285
297.275
297.261
297.249
297.236
297.222
297.209
297.19
297.173
297.157
297.139
297.119
297.096
297.076
297.053
297.029
297.004
296.979
296.953
296.925
296.897
296.865
296.834
296.802
296.77
296.736
296.698
296.66
296.624
296.584
296.542
296.502
296.459
296.417
296.373
296.327
296.283
296.235
296.185
296.138
296.087
296.033
295.985
295.933
295.877
295.826
295.771
295.713
295.661
295.603
295.546
295.492
295.432
295.374
295.319
295.259
295.201
295.147
295.086
295.026
294.97
294.911
294.855
294.798
294.743
294.688
294.634
294.583
294.532
294.477
294.43
294.379
294.331
294.28
294.237
294.189
294.147
294.101
294.059
294.019
293.98
293.945
293.906
293.872
293.839
293.809
293.779
293.751
293.723
293.699
293.673
293.651
293.632
293.616
293.596
293.582
293.57
293.555
293.546
293.539
293.532
293.528
293.52
293.518
293.516
293.515
293.515
293.522
293.525
293.529
293.534
293.541
293.551
293.562
293.572
293.583
293.595
293.608
293.623
293.64
293.658
293.676
293.692
293.708
293.727
293.747
293.769
293.792
293.813
293.832
293.852
293.875
293.898
293.918
293.942
293.963
293.985
294.007
294.026
294.049
294.07
294.092
294.115
294.135
294.156
294.176
294.196
294.214
294.232
294.249
294.265
294.283
294.299
294.314
294.326
294.338
294.351
294.363
294.371
294.38
294.39
294.4
294.406
294.411
294.416
294.419
294.419
294.421
294.423
294.427
294.423
294.42
294.415
294.411
294.405
294.399
294.39
294.378
294.365
294.351
294.338
294.321
294.305
294.288
294.27
294.247
294.224
294.2
294.176
294.15
294.123
294.094
294.066
294.033
294.001
293.97
293.937
293.901
293.867
293.83
293.79
293.752
293.713
293.674
293.635
293.591
293.55
293.509
293.471
293.414
295.447
295.344
295.163
294.955
294.769
294.626
294.538
294.495
294.489
294.509
294.55
294.607
294.678
294.76
294.853
294.956
295.068
295.189
295.318
295.453
295.59
295.726
295.857
295.989
296.146
296.367
296.677
297.054
297.427
297.718
297.895
297.946
297.871
297.685
297.468
297.281
297.127
296.938
296.655
296.322
296.022
295.762
295.529
295.345
295.246
295.228
295.257
295.354
295.552
295.876
296.308
296.814
297.364
297.86
298.228
298.451
298.532
298.554
298.509
298.39
298.196
297.93
297.647
297.43
297.27
297.18
297.121
297.075
297.066
297.127
297.227
297.391
297.613
297.89
298.21
298.57
298.965
299.383
299.809
300.231
300.631
301
301.325
301.592
301.789
301.94
302.061
302.125
302.127
302.09
301.985
301.815
301.572
301.25
300.872
300.457
299.999
299.521
299.06
298.653
298.314
298.047
297.848
297.704
297.603
297.541
297.508
297.485
297.479
297.484
297.504
297.544
297.6
297.668
297.741
297.812
297.873
297.918
297.947
297.961
297.966
297.966
297.96
297.943
297.911
297.861
297.79
297.69
297.553
297.377
297.165
296.925
296.661
296.373
296.058
295.713
295.346
294.972
294.61
294.268
293.964
293.688
293.449
293.263
293.113
292.992
292.972
292.988
293.062
293.223
293.451
293.732
294.036
294.337
294.638
294.918
295.166
295.4
295.615
295.813
295.994
296.167
296.323
296.44
296.511
296.527
296.514
296.481
296.448
296.452
296.49
296.577
296.72
296.906
297.114
297.328
297.539
297.758
298
298.273
298.558
298.845
299.107
299.361
299.626
299.903
300.156
300.379
300.593
300.798
300.986
301.147
301.277
301.382
301.451
301.512
301.557
301.599
301.635
301.672
301.71
301.75
301.796
301.845
301.894
301.945
301.998
302.052
302.105
302.158
302.204
302.239
302.263
302.28
302.274
302.233
302.146
302.026
301.878
301.7
301.487
301.235
300.939
300.599
300.211
299.778
299.318
298.857
298.407
297.961
297.515
297.079
296.666
296.292
295.972
295.713
295.51
295.364
295.274
295.227
295.206
295.202
295.216
295.25
295.302
295.367
295.446
295.534
295.625
295.716
295.804
295.891
295.975
296.061
296.144
296.227
296.307
296.38
296.453
296.52
296.583
296.647
296.71
296.774
296.833
296.891
296.943
296.992
297.037
297.078
297.115
297.15
297.179
297.205
297.229
297.245
297.26
297.271
297.279
297.287
297.287
297.288
297.287
297.286
297.284
297.277
297.27
297.262
297.255
297.243
297.235
297.225
297.211
297.199
297.185
297.171
297.158
297.141
297.123
297.106
297.087
297.069
297.047
297.026
297.003
296.979
296.955
296.928
296.901
296.875
296.847
296.816
296.784
296.752
296.719
296.684
296.649
296.612
296.574
296.535
296.493
296.453
296.41
296.367
296.323
296.277
296.23
296.185
296.135
296.085
296.036
295.983
295.931
295.88
295.826
295.772
295.718
295.662
295.606
295.55
295.492
295.435
295.379
295.32
295.262
295.205
295.147
295.089
295.03
294.972
294.915
294.856
294.801
294.743
294.688
294.633
294.579
294.525
294.474
294.422
294.372
294.321
294.273
294.223
294.177
294.131
294.087
294.043
294.002
293.96
293.921
293.885
293.847
293.813
293.779
293.748
293.718
293.691
293.663
293.637
293.614
293.593
293.573
293.555
293.537
293.522
293.51
293.497
293.488
293.478
293.471
293.465
293.46
293.459
293.456
293.457
293.457
293.461
293.463
293.469
293.475
293.482
293.49
293.499
293.511
293.521
293.535
293.548
293.564
293.579
293.595
293.612
293.631
293.649
293.667
293.687
293.707
293.729
293.749
293.77
293.792
293.812
293.833
293.856
293.878
293.899
293.921
293.944
293.965
293.986
294.009
294.029
294.051
294.072
294.092
294.113
294.132
294.151
294.168
294.185
294.202
294.218
294.234
294.249
294.262
294.275
294.286
294.297
294.307
294.317
294.325
294.333
294.34
294.345
294.35
294.353
294.355
294.357
294.357
294.358
294.356
294.354
294.35
294.345
294.339
294.33
294.322
294.31
294.297
294.285
294.272
294.256
294.238
294.221
294.2
294.18
294.157
294.134
294.108
294.083
294.056
294.027
293.998
293.968
293.936
293.904
293.87
293.836
293.801
293.764
293.725
293.689
293.649
293.61
293.571
293.53
293.49
293.448
293.408
293.355
295.252
295.14
294.942
294.725
294.541
294.415
294.353
294.34
294.365
294.415
294.482
294.562
294.652
294.752
294.86
294.976
295.099
295.23
295.367
295.508
295.65
295.792
295.94
296.11
296.337
296.652
297.052
297.471
297.81
297.998
298.036
297.926
297.702
297.41
297.121
296.871
296.652
296.415
296.132
295.833
295.587
295.404
295.288
295.248
295.246
295.285
295.407
295.647
295.997
296.463
296.992
297.512
297.962
298.246
298.369
298.395
298.358
298.133
297.865
297.555
297.244
296.927
296.592
296.356
296.204
296.143
296.139
296.156
296.213
296.319
296.459
296.655
296.912
297.225
297.59
298
298.444
298.908
299.379
299.844
300.289
300.703
301.076
301.402
301.68
301.909
302.091
302.228
302.329
302.396
302.409
302.392
302.335
302.223
302.059
301.851
301.589
301.276
300.932
300.58
300.229
299.888
299.575
299.296
299.073
298.901
298.773
298.673
298.599
298.548
298.523
298.521
298.534
298.567
298.617
298.672
298.722
298.76
298.78
298.778
298.769
298.752
298.725
298.688
298.641
298.584
298.517
298.433
298.323
298.183
298.007
297.8
297.562
297.296
297.001
296.664
296.293
295.892
295.472
295.05
294.642
294.247
293.878
293.563
293.301
293.101
292.953
292.855
292.851
292.878
292.96
293.1
293.289
293.522
293.806
294.102
294.381
294.64
294.885
295.133
295.404
295.671
295.9
296.069
296.204
296.316
296.408
296.448
296.447
296.433
296.444
296.501
296.631
296.84
297.103
297.393
297.677
297.962
298.267
298.601
298.941
299.267
299.568
299.854
300.137
300.405
300.633
300.815
300.968
301.093
301.192
301.263
301.31
301.346
301.353