/*--------------------------------*- C++ -*----------------------------------*\
| =========                 |                                                 |
| \\      /  F ield         | OpenFOAM: The Open Source CFD Toolbox           |
|  \\    /   O peration     | Version:  v1812                                 |
|   \\  /    A nd           | Web:      www.OpenFOAM.com                      |
|    \\/     M anipulation  |                                                 |
\*---------------------------------------------------------------------------*/
FoamFile
{
    version     2.0;
    format      ascii;
    class       volVectorField;
    location    "0.7";
    object      U;
}
// * * * * * * * * * * * * * * * * * * * * * * * * * * * * * * * * * * * * * //

dimensions      [0 1 -1 0 0 0 0];


internalField   nonuniform List<vector> 
20400
(
(-0.059046 0.0725747 0)
(-0.066311 0.0355613 0)
(-0.0912819 0.0227678 0)
(-0.0895281 -0.000390908 0)
(-0.0598586 -0.0208547 0)
(-0.027266 -0.012486 0)
(-0.00653904 -0.00170346 0)
(0.00682417 0.00519141 0)
(0.0156392 0.0100763 0)
(0.0186829 0.0166289 0)
(0.015551 0.0201824 0)
(0.0104168 0.0215532 0)
(0.00549646 0.0203095 0)
(0.00427183 0.0156878 0)
(0.0114336 0.00759657 0)
(0.0269164 -0.00017778 0)
(0.0495077 -0.00450119 0)
(0.0766945 -0.0081636 0)
(0.108877 -0.0125521 0)
(0.147118 -0.0181464 0)
(0.192436 -0.0249148 0)
(0.247543 -0.0356783 0)
(0.315686 -0.0469026 0)
(0.399584 -0.0649983 0)
(0.508173 -0.0863275 0)
(0.644458 -0.103919 0)
(0.806977 -0.119779 0)
(0.994582 -0.132541 0)
(1.2093 -0.139147 0)
(1.43537 -0.123328 0)
(1.65872 -0.106705 0)
(1.88445 -0.102893 0)
(2.12013 -0.109 0)
(2.3761 -0.110887 0)
(2.63612 -0.0928838 0)
(2.86569 -0.0666563 0)
(3.03734 -0.0544508 0)
(3.10525 0.0144022 0)
(3.15401 -0.114074 0)
(3.24647 -0.261101 0)
(3.33616 -0.33354 0)
(3.337 -0.399644 0)
(3.27165 -0.322272 0)
(3.02727 -0.195562 0)
(2.88033 0.2068 0)
(2.64343 0.246082 0)
(2.41972 0.242381 0)
(2.17947 0.274081 0)
(1.87913 0.37562 0)
(1.45639 0.503119 0)
(0.902183 0.638307 0)
(0.215477 0.745784 0)
(-0.544779 0.713088 0)
(-1.34577 0.659658 0)
(-2.19745 0.627387 0)
(-3.08821 0.579074 0)
(-4.00666 0.513495 0)
(-4.94355 0.453853 0)
(-5.88908 0.42626 0)
(-6.80842 0.44274 0)
(-7.65131 0.429376 0)
(-8.38 0.435721 0)
(-8.98704 0.423943 0)
(-9.50932 0.360096 0)
(-9.94754 0.208439 0)
(-10.386 0.137297 0)
(-10.8117 0.0485083 0)
(-11.1481 -0.0510357 0)
(-11.3745 -0.0805164 0)
(-11.454 -0.0574492 0)
(-11.3613 -0.173961 0)
(-11.0472 -0.241458 0)
(-10.5632 -0.215795 0)
(-9.94233 -0.140269 0)
(-9.22406 -0.0228146 0)
(-8.44767 0.113205 0)
(-7.64166 0.246954 0)
(-6.82398 0.356068 0)
(-5.99985 0.416732 0)
(-5.16334 0.378495 0)
(-4.31159 0.293556 0)
(-3.45383 0.184351 0)
(-2.61071 0.0697805 0)
(-1.81548 -0.0397542 0)
(-1.09063 -0.148621 0)
(-0.442118 -0.244053 0)
(0.145364 -0.293981 0)
(0.652467 -0.275648 0)
(1.06889 -0.40505 0)
(1.45375 -0.365282 0)
(1.7347 -0.275301 0)
(1.93986 -0.206184 0)
(2.09873 -0.177091 0)
(2.24729 -0.119866 0)
(2.26075 0.280754 0)
(2.19452 0.565671 0)
(2.16052 0.655212 0)
(2.17793 0.636249 0)
(2.21329 0.492818 0)
(2.27746 0.343468 0)
(2.36919 0.355507 0)
(2.42953 0.367559 0)
(2.40513 -0.363582 0)
(2.26966 -0.317407 0)
(2.07534 -0.252413 0)
(1.93064 -0.155386 0)
(1.83328 -0.0895083 0)
(1.81419 -0.0133567 0)
(1.82475 0.0425334 0)
(1.82048 -0.0747701 0)
(1.78462 -0.146822 0)
(1.76535 -0.109368 0)
(1.78211 -0.0885431 0)
(1.8341 -0.0942253 0)
(1.90987 -0.0837119 0)
(1.99352 -0.0320593 0)
(2.05898 0.0314413 0)
(2.1377 0.0376912 0)
(2.23974 0.00320006 0)
(2.36744 -0.0692887 0)
(2.52128 -0.134008 0)
(2.68815 -0.18233 0)
(2.86481 -0.225673 0)
(3.04387 -0.23901 0)
(3.20029 -0.186066 0)
(3.29469 -0.0413095 0)
(3.32754 0.0978465 0)
(3.27905 0.130101 0)
(3.20378 0.14164 0)
(3.1097 0.134354 0)
(3.02077 0.112068 0)
(2.95406 0.0848142 0)
(2.91042 0.0645878 0)
(2.88059 0.0480113 0)
(2.85319 0.0142724 0)
(2.79153 0.0195951 0)
(2.71401 0.0318503 0)
(2.62408 0.0561888 0)
(2.51369 0.0840728 0)
(2.3871 0.0931106 0)
(2.27565 0.0909221 0)
(2.18139 0.0843965 0)
(2.11323 0.0512846 0)
(2.08518 0.01703 0)
(2.10151 -0.0344742 0)
(2.08848 -0.0857854 0)
(2.08273 -0.167974 0)
(2.05603 -0.165922 0)
(2.00951 -0.102521 0)
(1.93578 -0.0135888 0)
(1.84441 0.0495248 0)
(1.77616 0.120575 0)
(1.72758 0.153007 0)
(1.72728 0.198497 0)
(1.73224 0.238341 0)
(1.74397 0.0887728 0)
(1.76801 0.0162113 0)
(1.8035 -0.00616955 0)
(1.85139 -0.0271132 0)
(1.90992 -0.120643 0)
(2.03872 -0.229705 0)
(2.2043 -0.256255 0)
(2.33992 -0.203923 0)
(2.46554 -0.160964 0)
(2.6017 -0.135135 0)
(2.67984 0.0732858 0)
(2.74976 -0.0429739 0)
(2.85006 -0.11873 0)
(2.95961 -0.121136 0)
(3.03776 -0.10511 0)
(3.09945 -0.0846768 0)
(3.12296 -0.0355764 0)
(3.14503 -0.0108809 0)
(3.17744 -0.00245448 0)
(3.21112 0.0247368 0)
(3.23388 0.0551331 0)
(3.21829 0.0722196 0)
(3.15263 0.0606149 0)
(3.06893 -0.0424263 0)
(3.05796 -0.290587 0)
(3.01384 -0.493398 0)
(2.93167 -0.430264 0)
(2.76684 -0.242507 0)
(2.46932 -0.0315706 0)
(2.07271 0.0993192 0)
(1.65646 0.171401 0)
(1.30383 0.348296 0)
(0.959836 0.317953 0)
(0.682387 0.234118 0)
(0.495821 0.141455 0)
(0.309743 0.224055 0)
(0.047196 0.272355 0)
(-0.241012 0.235888 0)
(-0.537072 0.21717 0)
(-0.810958 0.182243 0)
(-1.04463 0.145937 0)
(-1.244 0.116516 0)
(-1.40116 0.0560153 0)
(-1.46719 -0.00556095 0)
(-1.49827 0.0676924 0)
(-1.49794 0.225967 0)
(-1.53374 0.2799 0)
(-1.53457 0.171281 0)
(-1.46084 0.0192944 0)
(-1.32562 -0.0542286 0)
(-1.16106 -0.0855083 0)
(-0.96127 -0.0989538 0)
(-0.745517 -0.109054 0)
(-0.554903 -0.202809 0)
(-0.351272 -0.240103 0)
(-0.135348 -0.245115 0)
(0.0911684 -0.169415 0)
(0.327516 -0.0980986 0)
(0.557252 -0.0531074 0)
(0.774632 -0.0554324 0)
(0.979477 -0.0972339 0)
(1.17773 -0.137535 0)
(1.35943 -0.157993 0)
(1.50852 -0.152882 0)
(1.6244 -0.13639 0)
(1.73098 -0.103294 0)
(1.84523 -0.0469285 0)
(1.95848 0.0177359 0)
(2.05331 0.0893866 0)
(2.12859 0.161534 0)
(2.16303 0.216167 0)
(2.19066 0.195484 0)
(2.24069 0.0998053 0)
(2.32868 0.0159223 0)
(2.40312 -0.0278551 0)
(2.44784 -0.0582767 0)
(2.46414 -0.0617763 0)
(2.46097 -0.0798905 0)
(2.44198 -0.0853809 0)
(2.42025 -0.0988175 0)
(2.40212 -0.0618981 0)
(2.41035 -0.000805396 0)
(2.42936 0.0340931 0)
(2.43457 0.0486152 0)
(2.42124 0.0565627 0)
(2.39281 0.0576092 0)
(2.38131 0.00126938 0)
(2.36069 -0.0246785 0)
(2.3496 -0.0792762 0)
(2.33205 -0.0461456 0)
(2.32985 0.0195317 0)
(2.31172 0.0301152 0)
(2.30212 0.0115785 0)
(2.29467 -0.0194934 0)
(2.28569 0.00965373 0)
(2.28206 0.0529525 0)
(2.2956 0.0597101 0)
(2.3193 0.0804141 0)
(2.32987 0.113512 0)
(2.34487 0.102081 0)
(2.36223 0.0253061 0)
(2.37496 -0.0751244 0)
(2.38871 -0.076236 0)
(2.40749 -0.0543025 0)
(2.4096 0.0352653 0)
(2.45973 0.0757499 0)
(2.52215 0.085548 0)
(2.58346 0.125267 0)
(2.61833 0.207458 0)
(2.65871 0.0765392 0)
(2.69596 -0.0879691 0)
(2.73389 0.0147856 0)
(2.77039 0.206971 0)
(2.85816 0.112891 0)
(2.87251 -0.150875 0)
(2.94708 -0.209314 0)
(3.02449 -0.187245 0)
(3.05257 0.0618072 0)
(3.11685 0.3137 0)
(3.24212 0.20156 0)
(3.28425 -0.195386 0)
(3.36806 -0.360097 0)
(3.42538 -0.310294 0)
(3.46252 -0.204212 0)
(3.56019 -0.19242 0)
(3.64602 -0.0356178 0)
(3.75813 0.21684 0)
(3.91293 0.360059 0)
(3.99256 0.458956 0)
(4.10097 0.473516 0)
(4.18163 -0.223008 0)
(4.25454 -0.504955 0)
(4.30291 -0.400857 0)
(4.3907 -0.287569 0)
(4.44586 0.168677 0)
(4.58117 0.466127 0)
(4.73672 0.546862 0)
(4.85482 -0.219907 0)
(4.91882 -0.626814 0)
(4.95987 -0.332355 0)
(5.01705 0.547883 0)
(5.23024 0.49568 0)
(5.30836 -0.412443 0)
(5.41303 -0.705189 0)
(5.47905 -0.38811 0)
(5.49681 0.461722 0)
(5.72278 0.759284 0)
(5.89746 -0.0594019 0)
(5.95194 -0.770454 0)
(6.02197 -0.744072 0)
(6.03418 -0.476249 0)
(6.07331 -0.16105 0)
(6.22821 0.213165 0)
(6.39634 0.615922 0)
(6.55023 0.877296 0)
(6.83011 0.795474 0)
(6.89369 -0.494363 0)
(6.89443 -0.835835 0)
(6.91152 -0.698725 0)
(6.95568 -0.376381 0)
(7.01653 0.440347 0)
(7.19979 0.861314 0)
(7.37841 0.81235 0)
(7.76155 0.652419 0)
(7.85163 -0.779488 0)
(7.802 -0.942761 0)
(7.81898 -0.918079 0)
(7.85389 -0.566226 0)
(7.92431 -0.276856 0)
(7.98394 -0.570462 0)
(8.01908 0.340977 0)
(8.21665 0.407439 0)
(8.35589 -0.433805 0)
(8.38717 0.448675 0)
(8.5421 0.469806 0)
(8.63681 -0.460695 0)
(8.67043 0.44531 0)
(8.82626 0.436805 0)
(8.89536 -0.489599 0)
(8.86494 0.379853 0)
(9.04531 0.649679 0)
(9.15278 -0.38851 0)
(9.11077 0.497169 0)
(9.28119 0.635089 0)
(9.37969 -0.456552 0)
(9.4022 0.430146 0)
(9.54629 0.335813 0)
(9.55488 -0.577307 0)
(9.58188 0.326876 0)
(9.71852 0.242733 0)
(9.73973 -0.571714 0)
(9.70273 0.295047 0)
(9.8595 0.43435 0)
(9.959 -0.494549 0)
(9.94222 0.121736 0)
(10.1057 0.795843 0)
(10.2549 -0.20856 0)
(10.1406 -0.820692 0)
(10.0521 -1.04559 0)
(10.0034 -0.96125 0)
(10.0415 -0.772277 0)
(10.0642 -0.482613 0)
(10.0416 0.416312 0)
(10.228 0.597434 0)
(10.2945 -0.302384 0)
(10.2495 -0.280737 0)
(10.286 0.614609 0)
(10.4211 0.510017 0)
(10.4038 -0.585311 0)
(10.3059 -0.398856 0)
(10.3286 0.619655 0)
(10.4351 0.466121 0)
(10.431 -0.569868 0)
(10.3798 -0.0892302 0)
(10.4213 0.813576 0)
(10.4892 -0.0426346 0)
(10.4113 -0.963173 0)
(10.3545 -0.801152 0)
(10.254 -0.54659 0)
(10.3653 -0.0845693 0)
(10.3913 0.640397 0)
(10.5327 0.838455 0)
(10.5915 -0.253203 0)
(10.4371 -0.987242 0)
(10.3365 -0.876082 0)
(10.2864 -0.674656 0)
(10.2477 -0.50215 0)
(10.2857 -0.219248 0)
(10.2496 0.440001 0)
(10.3282 0.555313 0)
(10.3963 -0.140213 0)
(10.3237 -0.743637 0)
(10.2765 -0.582651 0)
(10.1907 -0.367977 0)
(10.2018 0.217488 0)
(10.2256 0.645303 0)
(10.2515 0.207848 0)
(10.2588 -0.628511 0)
(10.1487 -0.706188 0)
(10.1116 -0.498914 0)
(10.0054 -0.344553 0)
(9.99704 -0.119795 0)
(10.0075 0.384629 0)
(10.034 0.393743 0)
(10.037 -0.00546293 0)
(9.98825 -0.360688 0)
(9.90398 -0.258484 0)
(9.84167 -0.00229352 0)
(9.84556 0.300501 0)
(9.8615 0.52061 0)
(9.86304 0.59588 0)
(9.83233 0.134399 0)
(9.78769 -0.438818 0)
(9.70276 -0.348039 0)
(9.63357 -0.0261737 0)
(9.61775 0.407375 0)
(9.62576 0.304338 0)
(9.64139 -0.220786 0)
(9.59207 -0.362343 0)
(9.53059 -0.278924 0)
(9.40544 -0.190422 0)
(9.38481 0.0493744 0)
(9.41574 0.30653 0)
(9.44009 0.279072 0)
(9.45501 -0.108058 0)
(9.40251 -0.179509 0)
(9.34402 0.165715 0)
(9.3193 0.280016 0)
(9.3052 -0.00276806 0)
(9.27426 0.112925 0)
(9.26387 0.336746 0)
(9.24825 0.25215 0)
(9.25717 -0.156973 0)
(9.21582 -0.278182 0)
(9.15119 -0.201079 0)
(9.01315 -0.107101 0)
(8.97109 0.0660285 0)
(9.03194 0.168958 0)
(9.11516 0.252864 0)
(9.14304 0.360631 0)
(9.11276 0.453974 0)
(9.06943 0.223662 0)
(9.083 -0.18975 0)
(9.03934 -0.236767 0)
(8.95174 -0.230064 0)
(8.86355 -0.124344 0)
(8.85366 0.0871956 0)
(8.92602 0.230056 0)
(8.97734 0.205181 0)
(8.97522 -0.127643 0)
(8.95102 -0.234502 0)
(8.91842 0.0308569 0)
(8.89991 0.139406 0)
(8.92172 -0.114429 0)
(8.90731 -0.184587 0)
(8.87284 0.0532957 0)
(8.90348 0.231264 0)
(8.93039 0.216702 0)
(8.91197 -0.0152561 0)
(8.93877 -0.248491 0)
(8.93485 -0.263112 0)
(8.89273 -0.245988 0)
(8.80908 -0.180962 0)
(8.79883 -0.00465616 0)
(8.85968 0.118906 0)
(8.90838 0.195398 0)
(8.91892 0.0521922 0)
(8.91546 -0.210629 0)
(8.91211 -0.194079 0)
(8.88215 -0.0516007 0)
(8.88785 0.173274 0)
(8.93145 0.189754 0)
(8.97363 0.223028 0)
(8.96861 0.127165 0)
(8.97491 -0.158619 0)
(9.01095 -0.185004 0)
(8.98702 -0.141008 0)
(8.97468 0.0573776 0)
(8.98887 0.212621 0)
(9.0227 0.213435 0)
(9.04061 -0.041511 0)
(9.03245 -0.229114 0)
(9.02799 -0.115726 0)
(9.0173 0.134869 0)
(9.06151 0.224668 0)
(9.10595 0.0924893 0)
(9.10827 -0.0889088 0)
(9.12979 -0.018636 0)
(9.16067 -0.0912902 0)
(9.15512 -0.20637 0)
(9.15557 -0.13936 0)
(9.15289 0.0806038 0)
(9.21285 0.211861 0)
(9.2787 0.186522 0)
(9.28271 -0.0642247 0)
(9.2909 -0.214092 0)
(9.26169 -0.173434 0)
(9.26479 -0.00325832 0)
(9.3019 0.189515 0)
(9.36323 0.213232 0)
(9.39747 0.025749 0)
(9.41202 -0.188314 0)
(9.43163 -0.173754 0)
(9.42577 0.0473581 0)
(9.51389 0.204116 0)
(0.00910827 0.082436 0)
(0.00796688 0.0435967 0)
(0.0289906 0.0266678 0)
(0.0590238 -0.00254024 0)
(0.109369 -0.0268353 0)
(0.169841 -0.0172479 0)
(0.23171 -0.00758239 0)
(0.294451 -0.000913069 0)
(0.354655 0.00475022 0)
(0.411051 0.0138493 0)
(0.461948 0.0206725 0)
(0.509628 0.0237332 0)
(0.556407 0.0230565 0)
(0.605581 0.0183888 0)
(0.660581 0.00957866 0)
(0.724296 0.00155285 0)
(0.798775 -0.00420761 0)
(0.886118 -0.00880614 0)
(0.989396 -0.0141242 0)
(1.11059 -0.0208456 0)
(1.24782 -0.0277787 0)
(1.3939 -0.0405161 0)
(1.53829 -0.0561247 0)
(1.6852 -0.0756609 0)
(1.84691 -0.107496 0)
(2.02345 -0.144924 0)
(2.20857 -0.180655 0)
(2.40408 -0.200351 0)
(2.62101 -0.222371 0)
(2.85043 -0.228779 0)
(3.06995 -0.240994 0)
(3.26191 -0.236093 0)
(3.45481 -0.237318 0)
(3.64617 -0.259288 0)
(3.81058 -0.258301 0)
(3.92071 -0.203361 0)
(4.00287 -0.0982523 0)
(4.00641 -0.00255469 0)
(3.98255 -0.0476414 0)
(3.92514 -0.0575933 0)
(3.87924 0.0411148 0)
(3.75618 0.12697 0)
(3.56778 0.330527 0)
(3.24944 0.53591 0)
(2.70908 0.676927 0)
(1.95058 0.722113 0)
(1.08154 0.652225 0)
(0.112597 0.639795 0)
(-0.972006 0.733367 0)
(-2.18113 0.866517 0)
(-3.51288 1.01302 0)
(-4.974 1.12888 0)
(-6.55057 1.20839 0)
(-8.18937 1.27255 0)
(-9.80509 1.32593 0)
(-11.2859 1.3647 0)
(-12.5804 1.39485 0)
(-13.7146 1.40346 0)
(-14.7458 1.35155 0)
(-15.6914 1.19677 0)
(-16.5125 1.0127 0)
(-17.1746 0.78883 0)
(-17.6844 0.617984 0)
(-17.993 0.527106 0)
(-18.0807 0.503122 0)
(-17.9398 0.557582 0)
(-17.6303 0.499115 0)
(-17.2184 0.384804 0)
(-16.7893 0.208021 0)
(-16.3381 0.000840086 0)
(-15.8072 -0.195768 0)
(-15.2292 -0.441273 0)
(-14.5677 -0.633307 0)
(-13.8064 -0.797075 0)
(-12.9301 -0.925915 0)
(-11.9488 -1.02749 0)
(-10.8837 -1.11157 0)
(-9.76026 -1.18912 0)
(-8.6004 -1.27229 0)
(-7.42131 -1.34261 0)
(-6.2327 -1.39666 0)
(-5.04553 -1.42557 0)
(-3.87787 -1.41686 0)
(-2.7581 -1.35772 0)
(-1.72498 -1.26659 0)
(-0.821384 -1.16031 0)
(-0.0589166 -1.03589 0)
(0.567408 -0.872945 0)
(1.00089 -0.63848 0)
(1.34788 -0.544651 0)
(1.6417 -0.430887 0)
(1.88385 -0.337598 0)
(2.08173 -0.284566 0)
(2.2177 -0.192016 0)
(2.42518 -0.385367 0)
(2.89804 -0.623368 0)
(3.49137 -0.725147 0)
(4.03354 -0.664506 0)
(4.43818 -0.550053 0)
(4.64671 -0.407834 0)
(4.73714 -0.450938 0)
(4.7521 -0.315609 0)
(4.73543 0.256135 0)
(4.68047 0.480294 0)
(4.66727 0.441086 0)
(4.71559 0.287198 0)
(4.80395 0.101524 0)
(4.83965 -0.0577621 0)
(4.83323 -0.109194 0)
(4.81723 0.0604283 0)
(4.88016 0.113327 0)
(5.01257 0.062345 0)
(5.25364 -0.0273153 0)
(5.57366 -0.095703 0)
(5.90664 -0.130582 0)
(6.20107 -0.190208 0)
(6.43939 -0.214374 0)
(6.6272 -0.266461 0)
(6.82998 -0.295378 0)
(7.09078 -0.270291 0)
(7.43944 -0.230049 0)
(7.88361 -0.195272 0)
(8.41394 -0.167862 0)
(8.9683 -0.117522 0)
(9.41272 -0.0648371 0)
(9.62171 -0.116906 0)
(9.59565 -0.0792044 0)
(9.49673 -0.0251915 0)
(9.39074 0.025848 0)
(9.30737 0.0525442 0)
(9.24531 0.0419831 0)
(9.19903 0.0238762 0)
(9.15538 0.00439993 0)
(9.10008 0.00400013 0)
(9.04774 0.076192 0)
(8.96233 0.14068 0)
(8.86438 0.164152 0)
(8.7538 0.171754 0)
(8.61714 0.201011 0)
(8.43911 0.19268 0)
(8.23458 0.15157 0)
(8.00833 0.124734 0)
(7.77686 0.0778693 0)
(7.56882 0.0322716 0)
(7.38552 0.0791455 0)
(7.20715 0.174992 0)
(6.98674 0.261078 0)
(6.75948 0.334195 0)
(6.55002 0.319901 0)
(6.3594 0.271392 0)
(6.17098 0.186851 0)
(5.89227 0.0774488 0)
(5.5775 -0.0697813 0)
(5.32217 -0.131162 0)
(5.1858 -0.193715 0)
(5.12969 -0.0618058 0)
(5.15255 -0.00190318 0)
(5.15992 0.00811527 0)
(5.16293 -0.00355891 0)
(5.1971 -0.0127499 0)
(5.25459 -0.0418681 0)
(5.32704 -0.0135926 0)
(5.42553 -0.0237269 0)
(5.56556 -0.0554398 0)
(5.77512 -0.0301167 0)
(5.91228 -0.0966104 0)
(5.97809 -0.0760815 0)
(6.10085 -0.0576163 0)
(6.26469 -0.0250629 0)
(6.40166 0.00249553 0)
(6.48604 0.0325253 0)
(6.51722 0.0317832 0)
(6.4556 0.0133337 0)
(6.27153 -0.0119033 0)
(6.01327 -0.0174242 0)
(5.72815 0.00352777 0)
(5.42306 0.0471072 0)
(5.09657 0.106892 0)
(4.75925 0.109988 0)
(4.41338 0.132615 0)
(4.00699 0.191401 0)
(3.56352 0.327942 0)
(3.10457 0.470554 0)
(2.63861 0.605784 0)
(2.15906 0.679101 0)
(1.66607 0.666932 0)
(1.2008 0.579358 0)
(0.772353 0.52486 0)
(0.365513 0.414919 0)
(-0.026469 0.283519 0)
(-0.434939 0.355053 0)
(-0.841972 0.38347 0)
(-1.21666 0.380787 0)
(-1.55799 0.347195 0)
(-1.83662 0.282638 0)
(-2.03703 0.229139 0)
(-2.17679 0.185992 0)
(-2.26437 0.119546 0)
(-2.28909 0.00600791 0)
(-2.24081 -0.00882036 0)
(-2.09103 -0.0458531 0)
(-1.88546 -0.109508 0)
(-1.67568 -0.189279 0)
(-1.49816 -0.263676 0)
(-1.33576 -0.308267 0)
(-1.16763 -0.36702 0)
(-0.973345 -0.424059 0)
(-0.739918 -0.451528 0)
(-0.45068 -0.504756 0)
(-0.101532 -0.520601 0)
(0.267233 -0.514273 0)
(0.669265 -0.548972 0)
(1.12135 -0.564967 0)
(1.60855 -0.530448 0)
(2.10035 -0.458215 0)
(2.58899 -0.38209 0)
(3.08054 -0.322018 0)
(3.56809 -0.250652 0)
(4.03036 -0.187963 0)
(4.42205 -0.155555 0)
(4.69394 -0.196733 0)
(4.8458 -0.261945 0)
(4.95036 -0.291498 0)
(5.04707 -0.312988 0)
(5.16 -0.322979 0)
(5.27183 -0.282181 0)
(5.37547 -0.314694 0)
(5.48774 -0.314902 0)
(5.58364 -0.234775 0)
(5.6846 -0.156999 0)
(5.77248 -0.070401 0)
(5.87634 -0.0148617 0)
(5.99777 0.0231926 0)
(6.14408 0.0602382 0)
(6.29442 0.0628698 0)
(6.38666 0.0186848 0)
(6.36918 -0.0717914 0)
(6.25003 -0.0905403 0)
(6.11397 -0.066476 0)
(6.01487 -0.0358327 0)
(5.93911 -0.0330974 0)
(5.90249 -0.00203114 0)
(5.90668 0.031415 0)
(5.9358 0.0691716 0)
(5.9919 0.0600161 0)
(6.01518 0.00848424 0)
(5.9971 -0.00370476 0)
(5.97586 0.0117831 0)
(5.98082 0.0471615 0)
(5.99695 0.0197763 0)
(5.98979 -0.0185959 0)
(5.95023 -0.0562882 0)
(5.91004 -0.0688096 0)
(5.88947 -0.0613509 0)
(5.87551 -0.0669803 0)
(5.86035 -0.0160153 0)
(5.88194 0.0895926 0)
(5.98238 0.0991015 0)
(6.12771 0.0739583 0)
(6.23046 0.0019225 0)
(6.2161 -0.0947682 0)
(6.18138 -0.0929564 0)
(6.17124 -0.109705 0)
(6.18989 -0.110955 0)
(6.22593 -0.0530511 0)
(6.27225 0.105124 0)
(6.35421 0.00451102 0)
(6.39382 -0.103183 0)
(6.44237 -0.0904957 0)
(6.45007 0.102089 0)
(6.55242 0.142401 0)
(6.69198 0.139542 0)
(6.79053 -0.0290243 0)
(6.85663 -0.154703 0)
(6.90835 -0.191738 0)
(6.93614 0.0898828 0)
(7.02365 0.281616 0)
(7.1318 0.216868 0)
(7.32567 0.152863 0)
(7.5906 0.110799 0)
(7.80713 -0.0160808 0)
(7.81338 -0.223209 0)
(7.7812 -0.229156 0)
(7.78969 -0.248005 0)
(7.84782 -0.258382 0)
(7.92214 0.123787 0)
(8.04403 0.342568 0)
(8.18166 0.262266 0)
(8.42173 0.175482 0)
(8.55659 -0.140667 0)
(8.57093 -0.314244 0)
(8.64526 -0.262596 0)
(8.71404 0.0966636 0)
(8.82419 0.394607 0)
(8.99397 0.22504 0)
(9.06315 -0.220966 0)
(9.19247 -0.364963 0)
(9.2524 0.151096 0)
(9.39272 0.416237 0)
(9.59817 0.240008 0)
(9.62461 -0.323706 0)
(9.76377 -0.355486 0)
(9.88835 -0.00902172 0)
(9.96547 0.422223 0)
(10.0777 0.383083 0)
(10.2709 0.314781 0)
(10.5119 0.102448 0)
(10.6468 -0.19216 0)
(10.6592 -0.362251 0)
(10.7433 -0.370317 0)
(10.8249 -0.479182 0)
(10.8813 0.308104 0)
(11.0759 0.45764 0)
(11.2582 0.371606 0)
(11.5532 0.230907 0)
(11.6398 -0.273389 0)
(11.7592 -0.31714 0)
(11.7675 -0.471035 0)
(11.8061 -0.529842 0)
(11.8407 0.433192 0)
(12.0144 0.480947 0)
(12.1671 0.429492 0)
(12.292 0.273461 0)
(12.4987 0.198251 0)
(12.6885 0.288965 0)
(12.7813 -0.167694 0)
(12.8505 -0.267813 0)
(12.9605 0.21723 0)
(13.0842 -0.144283 0)
(13.1689 -0.290801 0)
(13.279 0.242064 0)
(13.4079 -0.12276 0)
(13.4951 -0.273301 0)
(13.604 0.256416 0)
(13.7099 -0.148545 0)
(13.8092 -0.294309 0)
(13.9333 0.220724 0)
(14.0216 -0.181911 0)
(14.1021 -0.292409 0)
(14.2185 0.257588 0)
(14.3164 -0.125102 0)
(14.4052 -0.185654 0)
(14.5103 0.290729 0)
(14.6043 -0.08814 0)
(14.6926 -0.147175 0)
(14.7967 0.272862 0)
(14.8903 -0.104319 0)
(14.9341 -0.226586 0)
(15.0223 0.239512 0)
(15.1279 -0.0767521 0)
(15.1329 -0.369825 0)
(15.1437 0.157801 0)
(15.2496 0.50068 0)
(15.3541 0.470947 0)
(15.4698 0.417645 0)
(15.6249 0.286712 0)
(15.9177 0.224815 0)
(15.9897 -0.237949 0)
(15.9058 -0.268473 0)
(15.9049 0.167311 0)
(16.0379 0.208594 0)
(16.1265 -0.189018 0)
(16.0314 -0.267276 0)
(16.0348 0.287445 0)
(16.1876 0.297775 0)
(16.2781 -0.179872 0)
(16.1856 -0.236677 0)
(16.1887 0.258894 0)
(16.3034 0.118107 0)
(16.2732 -0.291749 0)
(16.2127 0.06252 0)
(16.2411 0.439055 0)
(16.3469 0.404597 0)
(16.5953 0.277761 0)
(16.7979 -0.0456314 0)
(16.7183 -0.328891 0)
(16.5691 -0.316961 0)
(16.5464 0.232392 0)
(16.5599 0.475072 0)
(16.6275 0.469292 0)
(16.7627 0.335829 0)
(17.0077 0.22189 0)
(17.2629 0.101996 0)
(17.2605 -0.17539 0)
(17.0591 -0.227645 0)
(16.9216 0.0872791 0)
(16.9158 0.346607 0)
(17.0411 0.316058 0)
(17.2963 0.230339 0)
(17.4101 -0.0794473 0)
(17.249 -0.21901 0)
(17.0641 -0.0868254 0)
(16.9946 0.318848 0)
(17.0428 0.360534 0)
(17.175 0.299649 0)
(17.4407 0.251656 0)
(17.6702 0.0862189 0)
(17.6329 -0.142183 0)
(17.4073 -0.172146 0)
(17.2651 0.044219 0)
(17.3074 0.190524 0)
(17.5454 0.2613 0)
(17.7187 0.0714545 0)
(17.6619 -0.111306 0)
(17.408 -0.197598 0)
(17.168 -0.196499 0)
(17.0378 0.0124304 0)
(17.0675 0.21741 0)
(17.2621 0.284531 0)
(17.4435 0.11171 0)
(17.3942 -0.143951 0)
(17.182 -0.140978 0)
(17.0961 0.122251 0)
(17.1751 0.185722 0)
(17.3922 0.267907 0)
(17.7216 0.202567 0)
(17.8427 -0.019158 0)
(17.6867 -0.156511 0)
(17.4006 -0.123553 0)
(17.3064 0.0741002 0)
(17.4109 0.160415 0)
(17.4529 0.000855747 0)
(17.3465 -0.110266 0)
(17.2941 0.0287517 0)
(17.3045 -0.00838542 0)
(17.2364 -0.126784 0)
(17.0794 -0.105327 0)
(17.0333 0.106568 0)
(17.1443 0.143008 0)
(17.3866 0.262752 0)
(17.7514 0.2081 0)
(17.8854 -0.0364472 0)
(17.7233 -0.179609 0)
(17.3856 -0.197418 0)
(17.1044 -0.140275 0)
(16.9109 -0.164474 0)
(16.7997 -0.0621697 0)
(16.8199 0.111872 0)
(16.9956 0.162644 0)
(17.2574 0.248578 0)
(17.5605 0.143428 0)
(17.6079 -0.0770731 0)
(17.4035 -0.168539 0)
(17.1379 -0.134516 0)
(17.044 0.0594553 0)
(17.1584 0.145829 0)
(17.2283 0.0421281 0)
(17.1914 -0.0766579 0)
(17.1506 0.0424908 0)
(17.2656 0.119929 0)
(17.3294 -0.0221983 0)
(17.2001 -0.140659 0)
(16.9633 -0.126011 0)
(16.8214 -0.00525922 0)
(16.8242 0.0961145 0)
(16.9459 0.126079 0)
(17.1713 0.217048 0)
(17.481 0.170849 0)
(17.6196 -0.0381921 0)
(17.4773 -0.152218 0)
(17.2208 -0.145047 0)
(17.0678 -0.0160549 0)
(17.1035 0.0680313 0)
(17.2949 0.150714 0)
(17.4836 0.0493168 0)
(17.464 -0.0956606 0)
(17.24 -0.17604 0)
(17.0161 -0.128997 0)
(16.8868 -0.0605967 0)
(16.9137 0.0140269 0)
(17.1275 0.093513 0)
(17.3821 0.106829 0)
(17.5113 -0.0155496 0)
(17.4022 -0.154331 0)
(17.1746 -0.12551 0)
(17.0807 0.0100872 0)
(17.1733 0.123952 0)
(17.3566 0.0731164 0)
(17.3939 -0.0848256 0)
(17.2576 -0.160113 0)
(17.1297 -0.077169 0)
(17.139 0.0248116 0)
(17.1853 -0.0159431 0)
(17.2175 0.0253742 0)
(17.3281 0.112735 0)
(17.5141 0.0743665 0)
(17.5697 -0.0781816 0)
(17.4408 -0.166555 0)
(17.2524 -0.142159 0)
(17.2029 0.0157998 0)
(17.3459 0.10443 0)
(17.5928 0.140766 0)
(17.7599 -0.028755 0)
(17.6832 -0.17798 0)
(17.5307 -0.140672 0)
(17.4557 -0.0524863 0)
(17.5318 0.0682496 0)
(17.7369 0.0862652 0)
(17.8241 -0.0918539 0)
(17.7826 -0.139534 0)
(0.0498488 0.0578721 0)
(0.0665989 0.0285939 0)
(0.115305 -0.00915091 0)
(0.170055 -0.0509174 0)
(0.228822 -0.0904416 0)
(0.30941 -0.0906596 0)
(0.4073 -0.0822497 0)
(0.502041 -0.0678945 0)
(0.577548 -0.0590846 0)
(0.634108 -0.0430304 0)
(0.69069 -0.0329671 0)
(0.746131 -0.0282692 0)
(0.801876 -0.029229 0)
(0.858739 -0.0381164 0)
(0.917613 -0.0537591 0)
(0.97974 -0.0718934 0)
(1.04605 -0.0888135 0)
(1.11617 -0.108148 0)
(1.19059 -0.131378 0)
(1.26964 -0.156573 0)
(1.35404 -0.177975 0)
(1.44726 -0.205033 0)
(1.56965 -0.24538 0)
(1.71891 -0.281881 0)
(1.87397 -0.330042 0)
(2.04455 -0.380632 0)
(2.2359 -0.435365 0)
(2.44313 -0.482778 0)
(2.65319 -0.522755 0)
(2.85944 -0.513944 0)
(3.07307 -0.516559 0)
(3.29032 -0.505933 0)
(3.48231 -0.48364 0)
(3.63746 -0.475136 0)
(3.78966 -0.415331 0)
(3.92031 -0.312853 0)
(4.00685 -0.138609 0)
(4.03379 0.0603664 0)
(3.98634 0.0780214 0)
(3.87692 0.18266 0)
(3.63616 0.377316 0)
(3.21245 0.608659 0)
(2.58147 0.895504 0)
(1.72984 1.18486 0)
(0.691879 1.48592 0)
(-0.50474 1.83027 0)
(-1.88987 2.04445 0)
(-3.42483 2.24623 0)
(-5.07466 2.51291 0)
(-6.80195 2.76061 0)
(-8.53097 3.02451 0)
(-10.2339 3.25665 0)
(-11.8643 3.32504 0)
(-13.3766 3.2449 0)
(-14.7742 3.01912 0)
(-16.003 2.65733 0)
(-17.0127 2.32611 0)
(-17.7994 2.1273 0)
(-18.346 2.00452 0)
(-18.6756 1.85945 0)
(-18.8584 1.56622 0)
(-19.0379 1.30633 0)
(-18.9354 1.00306 0)
(-18.885 0.667523 0)
(-18.8456 0.334155 0)
(-18.6042 0.10291 0)
(-18.2787 -0.191563 0)
(-17.7853 -0.43434 0)
(-17.2341 -0.598973 0)
(-16.706 -0.834075 0)
(-16.1389 -1.13077 0)
(-15.5066 -1.45342 0)
(-14.7939 -1.77699 0)
(-13.973 -2.11319 0)
(-13.0179 -2.43009 0)
(-11.9262 -2.6959 0)
(-10.7195 -2.90037 0)
(-9.43039 -3.04273 0)
(-8.09933 -3.13303 0)
(-6.76688 -3.20762 0)
(-5.45341 -3.23908 0)
(-4.1655 -3.19804 0)
(-2.90664 -3.09345 0)
(-1.68791 -2.90509 0)
(-0.528759 -2.62858 0)
(0.550063 -2.28148 0)
(1.50811 -1.9004 0)
(2.34142 -1.50744 0)
(3.09793 -1.17574 0)
(3.83186 -0.988162 0)
(4.4645 -0.809197 0)
(4.99855 -0.673027 0)
(5.46669 -0.567173 0)
(5.86713 -0.392845 0)
(6.23782 -0.410934 0)
(6.47492 -0.574487 0)
(6.64577 -0.629754 0)
(6.75632 -0.554011 0)
(6.81283 -0.408274 0)
(6.86278 -0.178294 0)
(6.82167 0.0528658 0)
(6.64107 0.118461 0)
(6.61448 -0.242251 0)
(6.8304 -0.277632 0)
(7.0958 -0.306199 0)
(7.3543 -0.363614 0)
(7.57384 -0.289737 0)
(7.66852 -0.0992081 0)
(7.70309 -0.0152964 0)
(7.72549 -0.174221 0)
(7.88551 -0.372087 0)
(8.14111 -0.579558 0)
(8.46301 -0.752081 0)
(8.83512 -0.821033 0)
(9.23645 -0.74552 0)
(9.6622 -0.569127 0)
(10.096 -0.362731 0)
(10.5515 -0.315854 0)
(10.9719 -0.417628 0)
(11.3073 -0.644486 0)
(11.5915 -0.891999 0)
(11.8944 -1.10397 0)
(12.243 -1.25143 0)
(12.647 -1.18223 0)
(13.0173 -0.780806 0)
(13.2482 -0.129377 0)
(13.5024 0.207536 0)
(13.7139 0.320636 0)
(13.8856 0.313624 0)
(14.0159 0.257255 0)
(14.1344 0.214313 0)
(14.2417 0.174709 0)
(14.3393 0.171317 0)
(14.4055 0.166841 0)
(14.4204 0.173482 0)
(14.3533 0.205685 0)
(14.1692 0.225356 0)
(13.913 0.288374 0)
(13.6252 0.374399 0)
(13.3164 0.465831 0)
(13.0144 0.503188 0)
(12.7533 0.548098 0)
(12.5238 0.509814 0)
(12.3809 0.421624 0)
(12.3528 0.331483 0)
(12.2917 0.33715 0)
(12.0754 0.31121 0)
(11.5859 0.263098 0)
(10.8916 0.281462 0)
(10.1674 0.354836 0)
(9.48875 0.453462 0)
(9.03134 0.781967 0)
(8.64144 0.791587 0)
(8.27731 0.705318 0)
(7.95897 0.474781 0)
(7.83147 0.17732 0)
(7.86059 0.0694762 0)
(7.86163 0.0741878 0)
(7.82854 0.0242219 0)
(7.80597 -0.109241 0)
(7.70563 -0.210073 0)
(7.53797 -0.240843 0)
(7.33876 -0.263 0)
(7.18025 -0.334015 0)
(7.08861 -0.361878 0)
(7.14605 -0.0142918 0)
(7.31585 -0.107491 0)
(7.40419 -0.275343 0)
(7.42514 -0.262311 0)
(7.40306 -0.178148 0)
(7.38985 -0.0716816 0)
(7.31264 0.0168144 0)
(7.22185 0.18217 0)
(7.02043 0.345265 0)
(6.72893 0.439961 0)
(6.37578 0.505644 0)
(5.97245 0.600957 0)
(5.51787 0.69189 0)
(5.01953 0.706291 0)
(4.4966 0.724497 0)
(3.95854 0.781339 0)
(3.44043 0.860241 0)
(2.95519 0.964678 0)
(2.47595 1.08988 0)
(1.98235 1.16666 0)
(1.47853 1.16158 0)
(0.960867 1.06304 0)
(0.434757 0.988282 0)
(-0.0658758 0.871296 0)
(-0.540048 0.736098 0)
(-0.989909 0.82646 0)
(-1.34495 0.781025 0)
(-1.56212 0.721542 0)
(-1.75398 0.697524 0)
(-1.93094 0.570718 0)
(-2.07006 0.436006 0)
(-2.18625 0.324297 0)
(-2.26341 0.183759 0)
(-2.32504 -0.000364116 0)
(-2.28742 -0.195975 0)
(-2.09367 -0.38177 0)
(-1.76892 -0.469335 0)
(-1.39462 -0.485216 0)
(-1.00981 -0.476233 0)
(-0.627228 -0.491928 0)
(-0.23578 -0.563026 0)
(0.168023 -0.656875 0)
(0.584557 -0.715226 0)
(0.996845 -0.795315 0)
(1.40489 -0.891195 0)
(1.83232 -0.971848 0)
(2.27971 -1.07059 0)
(2.74151 -1.14387 0)
(3.20765 -1.17637 0)
(3.66413 -1.19391 0)
(4.10941 -1.22371 0)
(4.56158 -1.23511 0)
(5.03341 -1.18234 0)
(5.51697 -1.0423 0)
(5.98275 -0.790904 0)
(6.39709 -0.508677 0)
(6.76671 -0.330727 0)
(7.10237 -0.253654 0)
(7.42248 -0.22216 0)
(7.74555 -0.199166 0)
(8.05837 -0.119041 0)
(8.33268 -0.136958 0)
(8.48194 -0.213979 0)
(8.49106 -0.279956 0)
(8.45324 -0.288434 0)
(8.41445 -0.287761 0)
(8.38402 -0.302398 0)
(8.37478 -0.348512 0)
(8.36985 -0.384843 0)
(8.36119 -0.338594 0)
(8.36362 -0.143822 0)
(8.35854 0.0393598 0)
(8.34868 0.216552 0)
(8.34234 0.194436 0)
(8.35932 0.154372 0)
(8.41726 0.118432 0)
(8.43702 -0.000747467 0)
(8.36999 -0.0502745 0)
(8.32366 -0.135674 0)
(8.26306 -0.123899 0)
(8.24762 0.00813104 0)
(8.22956 0.059182 0)
(8.21945 0.0331801 0)
(8.2031 -0.0111803 0)
(8.17208 0.00739678 0)
(8.1614 0.0979963 0)
(8.16297 0.143146 0)
(8.16559 0.132771 0)
(8.1735 0.139488 0)
(8.19815 0.127939 0)
(8.23467 0.0693168 0)
(8.27766 -0.0572133 0)
(8.2581 -0.21542 0)
(8.23098 -0.199046 0)
(8.23522 0.0242858 0)
(8.2671 0.164212 0)
(8.30755 0.157678 0)
(8.36063 0.141684 0)
(8.40617 0.161066 0)
(8.44264 0.036584 0)
(8.49314 -0.0369098 0)
(8.55655 -0.0256124 0)
(8.58053 0.172309 0)
(8.63874 0.0855976 0)
(8.75699 -0.0281731 0)
(8.80031 -0.188689 0)
(8.85083 -0.161764 0)
(8.91907 -0.0244892 0)
(8.97692 0.180642 0)
(9.07471 0.136026 0)
(9.13635 -0.0815511 0)
(9.28757 -0.0925197 0)
(9.37986 -0.22932 0)
(9.43635 -0.333755 0)
(9.5168 -0.355743 0)
(9.60097 -0.0854045 0)
(9.6585 0.246147 0)
(9.77352 0.248579 0)
(9.88261 0.235632 0)
(10.0261 0.16471 0)
(10.1065 -0.0959989 0)
(10.2671 -0.114849 0)
(10.3249 -0.253053 0)
(10.4226 -0.265278 0)
(10.4894 0.0694627 0)
(10.5783 0.247234 0)
(10.6818 0.179426 0)
(10.7616 -0.0880983 0)
(10.9375 -0.0898492 0)
(11.0608 -0.172607 0)
(11.1361 0.143915 0)
(11.2327 0.120429 0)
(11.3191 -0.154193 0)
(11.4896 -0.111566 0)
(11.6197 -0.210221 0)
(11.6611 0.101371 0)
(11.7715 0.195742 0)
(11.8696 -0.0384194 0)
(12.0651 -0.081994 0)
(12.2024 -0.210307 0)
(12.3311 -0.245185 0)
(12.4667 -0.212709 0)
(12.5152 0.0876326 0)
(12.6523 0.191422 0)
(12.7663 0.214139 0)
(12.849 0.125291 0)
(12.9408 -0.106272 0)
(13.1709 -0.15467 0)
(13.2971 -0.279528 0)
(13.4446 -0.245904 0)
(13.5014 0.0476109 0)
(13.6105 0.282995 0)
(13.7009 0.206739 0)
(13.6991 0.0967544 0)
(13.812 -0.097 0)
(14.037 -0.157125 0)
(14.1948 -0.205326 0)
(14.3268 -0.196656 0)
(14.4608 -0.217788 0)
(14.6389 -0.145702 0)
(14.7291 0.111698 0)
(14.8271 0.0874667 0)
(14.9292 -0.110837 0)
(15.0221 0.0813292 0)
(15.1388 0.0829892 0)
(15.2439 -0.115238 0)
(15.3405 0.0742911 0)
(15.4565 0.0752131 0)