/*--------------------------------*- C++ -*----------------------------------*\
| =========                 |                                                 |
| \\      /  F ield         | OpenFOAM: The Open Source CFD Toolbox           |
|  \\    /   O peration     | Version:  v1812                                 |
|   \\  /    A nd           | Web:      www.OpenFOAM.com                      |
|    \\/     M anipulation  |                                                 |
\*---------------------------------------------------------------------------*/
FoamFile
{
    version     2.0;
    format      ascii;
    class       volScalarField;
    location    "0.1";
    object      p;
}
// * * * * * * * * * * * * * * * * * * * * * * * * * * * * * * * * * * * * * //

dimensions      [1 -1 -2 0 0 0 0];


internalField   nonuniform List<scalar> 
20400
(
108448
108442
108451
108443
108436
108436
108425
108418
108409
108399
108392
108386
108379
108374
108369
108373
108384
108400
108407
108393
108462
108511
108571
108611
108655
108706
108783
108873
108872
108900
108933
108965
108991
109011
109023
109034
109043
109048
109052
109055
109057
109058
109059
109057
109056
109055
109054
109052
109050
109047
109045
109042
109039
109037
109034
109032
109029
109026
109024
109021
109019
109016
109014
109011
109009
109006
109004
109001
108998
108996
108993
108991
108988
108986
108983
108981
108978
108975
108973
108970
108968
108966
108963
108961
108959
108957
108955
108954
108952
108950
108948
108947
108945
108944
108942
108941
108940
108939
108938
108937
108937
108936
108936
108935
108935
108935
108934
108934
108934
108934
108934
108934
108935
108935
108935
108935
108935
108934
108934
108933
108933
108932
108930
108929
108927
108925
108923
108921
108918
108915
108912
108908
108905
108901
108897
108893
108888
108884
108879
108874
108869
108864
108858
108853
108847
108841
108835
108829
108822
108816
108809
108802
108795
108788
108781
108774
108766
108759
108752
108744
108737
108730
108722
108715
108708
108701
108695
108688
108681
108675
108669
108663
108656
108650
108644
108639
108633
108627
108622
108616
108611
108605
108600
108595
108590
108586
108581
108576
108572
108568
108564
108560
108556
108553
108550
108546
108543
108540
108538
108535
108532
108530
108528
108525
108523
108521
108519
108517
108514
108512
108510
108508
108506
108503
108501
108499
108497
108495
108493
108491
108490
108488
108487
108486
108485
108484
108483
108482
108482
108482
108482
108482
108482
108482
108482
108483
108484
108484
108485
108486
108487
108489
108490
108492
108494
108497
108500
108503
108507
108511
108516
108521
108527
108533
108540
108548
108555
108564
108572
108582
108591
108601
108611
108622
108633
108644
108656
108668
108680
108692
108704
108717
108730
108743
108756
108769
108783
108796
108810
108825
108839
108853
108868
108883
108898
108913
108928
108943
108958
108974
108989
109004
109019
109033
109048
109062
109077
109091
109105
109118
109132
109145
109158
109170
109181
109190
109196
109199
109198
109188
109169
109135
109085
109015
108925
108811
108673
108513
108329
108123
107897
107651
107389
107111
106821
106520
106210
105894
105574
105251
104928
104607
104289
103976
103669
103370
103080
102801
102534
102278
102036
101807
101593
101394
101209
101041
100887
100750
100628
100520
100427
100348
100287
100236
100195
100162
100140
100127
100122
100123
100128
100139
100150
100160
100168
100174
100178
100181
100183
100185
100190
100198
100210
100230
100257
100294
100340
100396
100463
100540
100626
100721
100823
100931
101042
101156
101271
101384
101495
101602
101703
101798
101886
101966
102038
102101
102156
102202
102242
102274
102302
102324
102343
102359
102373
102385
102395
102404
102412
102421
102429
102437
102445
102452
102459
102463
102466
102467
102465
102461
102453
102440
102425
102407
102385
102360
102334
102305
102275
102244
102212
102180
102148
102117
102086
102057
102028
101999
101971
101944
101916
101889
101860
101830
101799
101765
101730
101692
101652
101610
101566
101520
101474
101426
101380
101333
101289
101245
101204
101167
101133
101102
101076
101053
101034
101020
101009
101002
100999
100999
101001
101006
101013
101020
101029
101039
101050
101062
101073
101085
101097
101109
101121
101133
101145
101158
101171
101184
101197
101210
101223
101236
101249
101261
101274
101285
101296
101305
101314
101313
108470
108451
108468
108465
108462
108462
108456
108452
108447
108439
108430
108422
108409
108399
108387
108384
108381
108383
108411
108469
108507
108559
108611
108639
108673
108714
108758
108765
108826
108894
108913
108926
108946
108972
108997
109017
109030
109037
109043
109048
109050
109052
109052
109052
109051
109051
109051
109050
109049
109047
109045
109042
109040
109037
109035
109032
109029
109026
109023
109020
109018
109015
109013
109010
109008
109006
109003
109001
108998
108996
108993
108991
108988
108986
108983
108981
108978
108975
108973
108970
108968
108965
108963
108961
108959
108957
108955
108953
108952
108950
108948
108946
108945
108943
108942
108941
108940
108939
108938
108937
108937
108936
108935
108935
108935
108934
108934
108934
108934
108934
108934
108934
108934
108934
108934
108934
108934
108934
108934
108933
108932
108931
108930
108929
108927
108925
108923
108920
108918
108915
108912
108908
108905
108901
108897
108893
108888
108884
108879
108874
108869
108864
108858
108853
108847
108841
108835
108829
108822
108816
108809
108802
108795
108788
108781
108774
108767
108759
108752
108745
108738
108730
108723
108716
108709
108702
108696
108689
108683
108676
108670
108664
108658
108652
108646
108640
108634
108629
108623
108618
108613
108607
108602
108597
108592
108588
108583
108579
108575
108570
108566
108563
108559
108556
108552
108549
108546
108543
108541
108538
108536
108533
108531
108529
108526
108524
108522
108520
108518
108516
108514
108511
108509
108507
108505
108503
108501
108499
108497
108495
108493
108492
108490
108489
108488
108487
108486
108486
108485
108485
108485
108485
108485
108485
108485
108486
108486
108487
108488
108488
108490
108491
108492
108494
108496
108499
108502
108505
108509
108513
108517
108523
108528
108535
108542
108549
108557
108565
108574
108583
108592
108602
108612
108623
108634
108645
108657
108668
108680
108692
108705
108717
108730
108743
108756
108769
108783
108797
108810
108825
108839
108853
108868
108883
108898
108913
108928
108943
108958
108973
108988
109003
109018
109033
109047
109062
109076
109090
109104
109117
109131
109144
109157
109169
109179
109188
109194
109197
109196
109187
109167
109134
109084
109015
108924
108810
108672
108511
108327
108121
107894
107649
107386
107108
106817
106516
106206
105890
105569
105246
104923
104601
104282
103968
103661
103361
103071
102791
102523
102267
102024
101795
101580
101381
101196
101028
100875
100738
100616
100510
100418
100342
100280
100230
100190
100158
100137
100125
100121
100122
100129
100140
100152
100162
100170
100176
100180
100183
100185
100187
100192
100200
100213
100232
100260
100296
100343
100400
100467
100544
100631
100726
100828
100936
101048
101162
101277
101391
101502
101608
101709
101804
101891
101971
102042
102105
102160
102206
102245
102278
102305
102328
102347
102363
102376
102388
102398
102407
102416
102424
102432
102441
102448
102456
102462
102467
102469
102470
102468
102464
102455
102443
102427
102408
102386
102362
102335
102306
102275
102243
102211
102179
102147
102115
102084
102054
102025
101996
101968
101940
101913
101885
101856
101826
101795
101761
101726
101688
101648
101606
101562
101516
101470
101423
101376
101330
101286
101243
101202
101165
101131
101101
101075
101053
101034
101020
101009
101003
100999
100999
101002
101007
101014
101022
101031
101042
101053
101064
101076
101088
101100
101113
101125
101137
101150
101162
101175
101188
101201
101215
101228
101240
101253
101265
101277
101288
101299
101308
101316
101314
108455
108444
108453
108445
108438
108437
108426
108418
108409
108397
108387
108377
108362
108351
108339
108340
108346
108362
108380
108406
108454
108497
108536
108570
108616
108667
108711
108766
108791
108851
108887
108920
108951
108979
109001
109019
109035
109045
109051
109054
109055
109056
109055
109054
109052
109050
109049
109048
109045
109043
109041
109039
109037
109035
109032
109030
109028
109026
109024
109021
109019
109016
109014
109011
109009
109006
109003
109001
108998
108995
108993
108990
108988
108985
108983
108980
108978
108975
108973
108970
108968
108966
108963
108961
108959
108957
108956
108954
108952
108950
108948
108947
108945
108944
108943
108941
108940
108939
108938
108938
108937
108936
108936
108936
108935
108935
108935
108935
108935
108935
108935
108935
108935
108935
108935
108935
108935
108935
108934
108934
108933
108932
108931
108929
108927
108925
108923
108921
108918
108915
108912
108909
108905
108901
108897
108893
108889
108884
108879
108875
108870
108864
108859
108853
108848
108842
108836
108830
108823
108817
108810
108804
108797
108790
108783
108775
108768
108761
108754
108746
108739
108732
108725
108718
108711
108705
108698
108691
108685
108679
108673
108666
108661
108655
108649
108643
108638
108632
108627
108621
108616
108611
108606
108601
108596
108592
108587
108583
108579
108575
108571
108567
108564
108560
108557
108554
108551
108548
108545
108543
108540
108538
108536
108534
108531
108529
108527
108525
108523
108521
108519
108517
108514
108512
108510
108508
108506
108504
108502
108500
108499
108497
108496
108494
108493
108492
108491
108491
108490
108490
108489
108489
108489
108489
108489
108489
108490
108490
108491
108492
108492
108494
108495
108497
108498
108501
108503
108506
108510
108514
108519
108524
108529
108536
108542
108549
108557
108565
108573
108582
108592
108602
108612
108622
108633
108644
108656
108668
108679
108692
108704
108716
108729
108742
108755
108769
108782
108796
108810
108824
108838
108852
108867
108882
108897
108912
108927
108942
108957
108972
108987
109002
109017
109031
109046
109060
109074
109088
109102
109115
109129
109142
109154
109166
109177
109186
109192
109195
109194
109186
109166
109133
109083
109013
108922
108808
108671
108509
108325
108118
107891
107645
107381
107103
106812
106510
106199
105882
105561
105238
104914
104591
104272
103957
103649
103349
103058
102778
102509
102253
102010
101780
101566
101366
101182
101013
100861
100724
100603
100498
100407
100331
100270
100221
100182
100149
100130
100120
100117
100119
100127
100139
100151
100162
100171
100178
100183
100186
100188
100192
100197
100205
100219
100239
100267
100304
100351
100408
100475
100553
100640
100735
100837
100945
101057
101171
101285
101398
101508
101615
101716
101810
101897
101976
102047
102110
102164
102211
102250
102282
102310
102332
102352
102368
102382
102393
102403
102413
102421
102430
102438
102446
102454
102461
102467
102471
102473
102474
102472
102467
102458
102445
102428
102409
102386
102361
102333
102303
102272
102241
102208
102175
102143
102111
102079
102049
102019
101990
101961
101933
101905
101877
101848
101818
101786
101753
101717
101680
101640
101598
101554
101509
101463
101417
101370
101325
101281
101238
101198
101161
101127
101097
101071
101049
101030
101016
101005
100999
100996
100996
100999
101004
101010
101018
101028
101039
101051
101063
101075
101088
101100
101113
101126
101139
101152
101165
101179
101192
101206
101219
101232
101245
101258
101270
101281
101292
101303
101309
101318
101316
108467
108460
108469
108461
108454
108452
108440
108428
108415
108399
108384
108371
108353
108339
108325
108326
108330
108340
108354
108371
108418
108460
108503
108545
108605
108668
108729
108795
108823
108866
108910
108950
108980
109003
109018
109030
109042
109050
109056
109059
109060
109061
109060
109058
109056
109055
109054
109052
109050
109047
109045
109042
109039
109036
109033
109029
109026
109024
109021
109018
109016
109014
109012
109010
109007
109005
109003
109001
108998
108996
108994
108991
108989
108986
108983
108981
108978
108975
108973
108970
108968
108966
108963
108961
108959
108957
108956
108954
108952
108950
108949
108947
108945
108944
108943
108941
108940
108939
108939
108938
108937
108937
108936
108936
108935
108935
108935
108935
108935
108935
108935
108935
108935
108935
108935
108935
108935
108935
108934
108934
108933
108932
108931
108930
108928
108926
108924
108921
108919
108916
108913
108909
108906
108902
108898
108894
108890
108885
108880
108876
108871
108865
108860
108855
108849
108843
108837
108831
108825
108819
108812
108805
108798
108792
108785
108778
108770
108763
108756
108749
108742
108735
108728
108721
108714
108708
108701
108695
108689
108683
108677
108671
108665
108659
108653
108648
108642
108637
108632
108627
108622
108617
108612
108607
108602
108598
108593
108589
108585
108581
108578
108574
108571
108567
108564
108561
108558
108556
108553
108551
108548
108546
108544
108542
108540
108538
108536
108533
108531
108529
108527
108525
108523
108521
108519
108517
108515
108513
108511
108509
108507
108505
108504
108502
108501
108500
108499
108498
108497
108497
108496
108496
108496
108495
108495
108495
108495
108495
108496
108496
108497
108498
108499
108500
108502
108504
108507
108510
108513
108517
108521
108526
108531
108537
108544
108551
108558
108566
108574
108583
108593
108603
108613
108623
108634
108645
108656
108668
108680
108692
108704
108716
108729
108742
108755
108768
108782
108795
108809
108823
108838
108852
108867
108881
108896
108911
108926
108941
108956
108971
108986
109001
109015
109030
109044
109058
109072
109086
109099
109113
109126
109139
109151
109163
109173
109182
109188
109192
109191
109182
109163
109130
109080
109010
108919
108805
108667
108505
108320
108113
107885
107638
107374
107095
106804
106501
106191
105873
105552
105228
104903
104580
104260
103945
103636
103336
103045
102764
102495
102239
101996
101767
101553
101353
101170
101001
100849
100713
100593
100488
100398
100322
100261
100212
100173
100142
100123
100113
100110
100113
100121
100134
100147
100159
100168
100176
100182
100186
100190
100195
100201
100211
100226
100247
100276
100314
100361
100419
100487
100565
100652
100747
100849
100957
101068
101181
101295
101407
101517
101623
101723
101817
101904
101983
102054
102117
102171
102218
102257
102290
102317
102340
102360
102376
102390
102402
102412
102421
102430
102439
102447
102455
102463
102469
102475
102479
102481
102481
102479
102473
102463
102450
102433
102413
102390
102364
102336
102305
102273
102240
102206
102172
102139
102106
102073
102042
102011
101981
101952
101924
101895
101866
101837
101806
101774
101740
101705
101667
101627
101586
101543
101498
101453
101407
101362
101317
101274
101233
101194
101157
101124
101095
101069
101049
101032
101018
101009
101003
101000
101000
101004
101009
101016
101025
101035
101046
101058
101071
101084
101097
101110
101124
101137
101151
101164
101177
101191
101204
101217
101230
101242
101255
101266
101278
101288
101298
101307
101313
101319
101316
108466
108459
108468
108461
108453
108452
108440
108427
108413
108394
108376
108359
108336
108317
108298
108296
108295
108304
108314
108328
108362
108404
108463
108513
108579
108646
108711
108776
108825
108869
108914
108953
108984
109006
109021
109034
109045
109051
109055
109058
109059
109060
109059
109057
109055
109054
109054
109052
109050
109047
109045
109043
109040
109037
109035
109032
109029
109027
109024
109021
109019
109016
109014
109011
109008
109005
109003
109000
108997
108995
108992
108990
108987
108985
108982
108980
108977
108975
108972
108970
108968
108966
108963
108962
108960
108958
108956
108954
108952
108951
108949
108948
108946
108945
108943
108942
108941
108940
108939
108938
108938
108937
108937
108936
108936
108936
108936
108936
108935
108935
108935
108936
108936
108936
108936
108936
108936
108935
108935
108935
108934
108933
108932
108930
108929
108927
108924
108922
108919
108917
108914
108910
108907
108903
108899
108895
108891
108886
108882
108877
108872
108867
108861
108856
108850
108845
108839
108833
108827
108820
108814
108807
108801
108794
108787
108780
108773
108766
108759
108752
108745
108738
108731
108725
108718
108712
108705
108699
108693
108687
108681
108676
108670
108664
108659
108654
108648
108643
108638
108633
108628
108624
108619
108614
108610
108606
108602
108598
108594
108590
108586
108583
108580
108576
108574
108571
108568
108565
108563
108561
108558
108556
108554
108552
108550
108548
108546
108544
108542
108540
108538
108536
108534
108532
108530
108528
108526
108524
108522
108520
108518
108516
108515
108513
108512
108511
108509
108508
108507
108507
108506
108505
108505
108504
108504
108503
108503
108503
108503
108503
108504
108504
108505
108506
108507
108509
108511
108514
108517
108520
108524
108529
108534
108539
108546
108552
108559
108567
108575
108584
108593
108603
108612
108623
108633
108644
108656
108667
108679
108691
108703
108715
108728
108741
108754
108767
108780
108794
108808
108822
108836
108850
108865
108879
108894
108909
108924
108939
108954
108969
108983
108998
109013
109027
109041
109055
109068
109082
109095
109108
109121
109134
109146
109158
109168
109177
109183
109187
109186
109178
109158
109125
109075
109005
108914
108799
108661
108499
108314
108107
107878
107631
107366
107086
106794
106490
106179
105860
105538
105213
104888
104565
104245
103929
103621
103320
103029
102749
102480
102224
101981
101753
101539
101340
101156
100989
100837
100701
100581
100476
100387
100312
100252
100203
100164
100133
100114
100105
100103
100106
100116
100129
100144
100157
100169
100178
100185
100191
100197
100203
100211
100222
100239
100262
100292
100331
100379
100438
100506
100584
100671
100766
100867
100974
101085
101197
101310
101421
101530
101635
101734
101827
101913
101992
102062
102124
102179
102225
102264
102297
102325
102348
102368
102385
102400
102412
102422
102432
102441
102450
102458
102466
102473
102480
102485
102488
102489
102489
102486
102479
102468
102454
102436
102415
102391
102364
102334
102303
102270
102235
102201
102166
102132
102098
102064
102032
102000
101969
101939
101909
101880
101850
101820
101789
101756
101722
101687
101650
101610
101570
101527
101484
101440
101396
101351
101308
101266
101226
101187
101151
101119
101089
101063
101041
101022
101008
101000
100994
100992
100994
100998
101004
101012
101021
101031
101044
101057
101070
101084
101098
101113
101127
101142
101156
101170
101185
101199
101212
101226
101239
101252
101264
101275
101286
101296
101304
101313
101316
101323
101318
108470
108464
108474
108466
108458
108457
108446
108432
108418
108398
108376
108357
108327
108303
108277
108275
108257
108258
108269
108292
108336
108372
108451
108499
108564
108631
108695
108757
108812
108856
108900
108937
108968
108992
109009
109023
109035
109041
109045
109048
109049
109050
109051
109050
109050
109051
109051
109050
109048
109046
109044
109042
109039
109037
109034
109031
109029
109026
109024
109021
109019
109016
109013
109011
109008
109006
109004
109001
108999
108996
108994
108991
108989
108986
108984
108981
108978
108975
108973
108970
108968
108966
108963
108961
108960
108958
108956
108954
108953
108951
108949
108948
108946
108945
108944
108942
108941
108940
108940
108939
108938
108938
108937
108937
108937
108936
108936
108936
108936
108936
108936
108936
108936
108936
108936
108936
108936
108936
108936
108935
108935
108934
108933
108931
108930
108928
108926
108923
108921
108918
108915
108912
108908
108904
108901
108897
108892
108888
108883
108879
108874
108869
108864
108858
108853
108847
108841
108835
108829
108823
108817
108810
108804
108797
108790
108784
108777
108770
108763
108756
108750
108743
108736
108730
108723
108717
108711
108705
108699
108693
108688
108682
108677
108672
108666
108661
108656
108651
108647
108642
108637
108633
108628
108624
108620
108616
108612
108608
108604
108601
108597
108594
108591
108588
108585
108583
108580
108578
108575
108573
108571
108569
108567
108565
108563
108562
108560
108558
108556
108554
108552
108550
108548
108546
108544
108542
108540
108538
108536
108534
108532
108530
108528
108526
108525
108523
108522
108520
108519
108518
108517
108516
108515
108514
108513
108513
108512
108511
108511
108511
108511
108511
108511
108512
108513
108514
108516
108518
108521
108524
108528
108532
108537
108542
108548
108554
108561
108569
108577
108585
108594
108603
108613
108623
108634
108645
108656
108667
108679
108690
108702
108715
108727
108740
108753
108766
108779
108793
108807
108820
108834
108849
108863
108878
108892
108907
108922
108937
108952
108966
108981
108995
109010
109024
109038
109051
109065
109078
109091
109104
109117
109129
109141
109153
109163
109171
109178
109181
109180
109172
109152
109119
109069
108999
108907
108792
108653
108491
108305
108097
107868
107620
107354
107074
106780
106476
106164
105846
105523
105198
104873
104549
104228
103912
103602
103301
103009
102728
102459
102203
101960
101732
101518
101319
101136
100969
100818
100683
100564
100460
100372
100298
100238
100190
100152
100121
100103
100094
100092
100096
100107
100122
100137
100152
100165
100176
100185
100193
100201
100209
100220
100234
100252
100277
100309
100350
100400
100459
100528
100606
100693
100788
100889
100995
101104
101216
101327
101437
101545
101648
101746
101839
101924
102002
102072
102134
102188
102235
102275
102308
102336
102360
102381
102398
102413
102426
102437
102447
102457
102466
102474
102482
102489
102495
102500
102502
102503
102502
102498
102490
102477
102462
102443
102421
102395
102367
102336
102303
102268
102233
102196
102160
102124
102088
102053
102020
101987
101955
101923
101892
101862
101831
101799
101767
101734
101700
101664
101627
101588
101547
101506
101463
101420
101377
101334
101292
101252
101213
101176
101142
101111
101084
101060
101039
101023
101011
101002
100997
100996
100997
101001
101007
101014
101023
101034
101047
101060
101074
101089
101104
101119
101135
101150
101165
101180
101195
101209
101223
101237
101250
101263
101274
101285
101295
101304
101311
101318
101320
101325
101319
108473
108467
108476
108468
108456
108453
108440
108423
108405
108380
108351
108327
108290
108254
108234
108206
108199
108190
108206
108220
108268
108324
108374
108443
108511
108583
108656
108722
108785
108837
108885
108924
108957
108983
109002
109018
109031
109037
109041
109045
109045
109046
109047
109046
109044
109043
109044
109043
109042
109041
109040
109039
109037
109035
109033
109030
109028
109025
109023
109020
109018
109015
109013
109010
109008
109005
109003
109001
108998
108996
108993
108991
108988
108986
108983
108980
108978
108975
108973
108970
108968
108966
108964
108962
108960
108958
108957
108955
108953
108952
108950
108949
108947
108946
108945
108943
108942
108942
108941
108940
108939
108939
108938
108938
108938
108938
108937
108937
108937
108937
108937
108937
108937
108938
108938
108938
108937
108937
108937
108936
108936
108935
108934
108932
108931
108929
108927
108925
108922
108919
108916
108913
108910
108906
108902
108898
108894
108890
108885
108881
108876
108871
108866
108861
108855
108850
108844
108838
108832
108826
108820
108814
108807
108801
108794
108787
108781
108774
108767
108761
108754
108748
108741
108735
108729
108723
108717
108711
108706
108700
108695
108690
108685
108680
108675
108670
108665
108661
108656
108652
108647
108643
108639
108635
108631
108627
108624
108620
108617
108614
108611
108608
108605
108602
108599
108597
108595
108592
108590
108588
108586
108585
108583
108581
108579
108578
108576
108574
108572
108570
108569
108567
108564
108562
108560
108558
108556
108554
108552
108550
108548
108546
108544
108542
108540
108538
108537
108535
108533
108532
108531
108529
108528
108527
108526
108525
108524
108523
108522
108521
108521
108521
108521
108521
108521
108522
108524
108525
108528
108530
108533
108537
108541
108546
108552
108558
108565
108572
108579
108587
108596
108605
108614
108624
108634
108645
108656
108667
108678
108690
108702
108714
108726
108739
108751
108764
108778
108791
108805
108818
108832
108846
108861
108875
108890
108904
108919
108934
108948
108963
108977
108991
109005
109019
109033
109046
109059
109072
109085
109098
109110
109122
109134
109145
109155
109164
109170
109173
109172
109163
109144
109111
109060
108989
108897
108782
108642
108479
108293
108085
107855
107607
107341
107061
106767
106462
106149
105829
105504
105178
104851
104527
104206
103889
103580
103279
102987
102706
102437
102181
101938
101710
101496
101298
101116
100949
100798
100664
100546
100443
100356
100283
100223
100176
100138
100108
100090
100082
100080
100085
100097
100113
100130
100146
100161
100174
100186
100196
100207
100218
100231
100247
100268
100296
100330
100372
100423
100484
100553
100632
100719
100813
100913
101018
101126
101236
101347
101455
101562
101664
101761
101852
101936
102014
102083
102145
102200
102247
102287
102321
102351
102375
102396
102415
102430
102444
102456
102466
102476
102485
102494
102501
102508
102514
102517
102519
102519
102517
102511
102501
102488
102471
102450
102427
102400
102369
102337
102303
102267
102229
102191
102153
102115
102078
102042
102006
101971
101937
101904
101871
101839
101807
101775
101742
101708
101674
101638
101601
101562
101523
101482
101441
101400
101358
101317
101276
101237
101200
101165
101132
101103
101076
101053
101034
101019
101008
101000
100995
100994
100996
101000
101005
101013
101023
101034
101048
101062
101077
101093
101109
101125
101142
101158
101174
101190
101205
101220
101235
101249
101262
101274
101285
101295
101304
101312
101318
101324
101324
101327
101321
108478
108473
108480
108473
108460
108456
108442
108422
108401
108372
108337
108309
108265
108222
108185
108163
108151
108137
108146
108188
108210
108266
108340
108399
108466
108544
108618
108688
108756
108814
108866
108909
108945
108972
108991
109007
109020
109027
109033
109039
109042
109045
109046
109045
109043
109043
109043
109042
109040
109038
109037
109036
109034
109032
109030
109028
109026
109023
109021
109019
109016
109014
109011
109009
109007
109004
109002
109000
108997
108995
108993
108990
108988
108985
108983
108980
108977
108975
108972
108970
108968
108966
108964
108962
108960
108958
108957
108955
108954
108952
108951
108949
108948
108946
108945
108944
108943
108942
108941
108941
108940
108940
108939
108939
108939
108939
108938
108938
108938
108938
108938
108938
108939
108939
108939
108939
108939
108938
108938
108938
108937
108936
108935
108934
108932
108931
108929
108926
108924
108921
108918
108915
108912
108908
108905
108901
108897
108892
108888
108883
108879
108874
108869
108864
108858
108853
108847
108842
108836
108830
108824
108818
108811
108805
108799
108792
108786
108779
108773
108766
108760
108754
108748
108742
108736
108730
108724
108719
108714
108708
108703
108698
108694
108689
108684
108680
108675
108671
108667
108663
108659
108655
108652
108648
108644
108641
108638
108634
108631
108628
108626
108623
108620
108618
108616
108614
108611
108610
108608
108606
108604
108603
108601
108599
108598
108596
108595
108593
108591
108590
108588
108586
108584
108582
108580
108578
108575
108573
108571
108569
108567
108564
108562
108560
108558
108556
108554
108552
108550
108549
108547
108545
108544
108542
108540
108539
108538
108536
108535
108534
108533
108532
108532
108532
108532
108532
108533
108534
108536
108538
108541
108544
108548
108553
108558
108563
108569
108576
108583
108591
108599
108608
108617
108626
108636
108646
108657
108668
108679
108690
108702
108714
108726
108738
108751
108764
108777
108790
108803
108817
108831
108845
108859
108873
108887
108902
108916
108931
108945
108960
108974
108988
109002
109015
109029
109042
109055
109067
109080
109092
109104
109116
109127
109138
109148
109156
109161
109164
109163
109155
109135
109101
109050
108979
108886
108770
108630
108466
108279
108070
107840
107590
107323
107041
106746
106441
106127
105807
105483
105156
104829
104504
104182
103866
103556
103254
102962
102680
102411
102155
101912
101684
101471
101273
101091
100926
100776
100642
100525
100423
100336
100265
100206
100159
100122
100093
100075
100068
100066
100072
100085
100103
100121
100140
100157
100172
100186
100200
100213
100227
100243
100263
100287
100316
100353
100397
100450
100512
100582
100661
100748
100841
100941
101045
101152
101260
101369
101476
101581
101681
101777
101867
101951
102027
102097
102159
102213
102261
102302
102337
102366
102392
102414
102433
102450
102465
102477
102488
102498
102508
102516
102524
102530
102535
102538
102539
102538
102534
102527
102515
102500
102482
102459
102434
102405
102373
102339
102302
102264
102225
102185
102145
102105
102066
102027
101990
101953
101917
101882
101848
101814
101781
101747
101713
101679
101643
101607
101571
101533
101494
101455
101415
101375
101335
101296
101258
101221
101186
101152
101122
101094
101069
101048
101030
101016
101006
100998
100994
100993
100995
100999
101006
101014
101024
101036
101051
101066
101082
101099
101116
101133
101151
101168
101185
101202
101218
101234
101249
101263
101276
101288
101298
101308
101315
101322
101326
101330
101329
101329
101322
108489
108485
108488
108481
108467
108460
108444
108420
108395
108360
108318
108287
108235
108181
108146
108115
108083
108082
108105
108120
108168
108217
108276
108361
108441
108503
108585
108659
108729
108792
108848
108896
108936
108966
108987
109004
109017
109023
109028
109032
109032
109035
109038
109039
109040
109041
109041
109040
109037
109035
109034
109033
109031
109029
109027
109026
109024
109022
109020
109017
109015
109013
109011
109008
109006
109004
109001
108999
108997
108994
108992
108989
108987
108984
108982
108979
108977
108974
108972
108970
108967
108965
108964
108962
108960
108958
108957
108955
108954
108952
108951
108949
108948
108947
108946
108945
108944
108943
108942
108941
108941
108941
108940
108940
108940
108939
108939
108939
108939
108939
108939
108939
108940
108940
108940
108940
108940
108940
108939
108939
108938
108937
108936
108935
108934
108932
108930
108928
108926
108923
108920
108917
108914
108910
108907
108903
108899
108895
108890
108886
108881
108877
108872
108867
108861
108856
108851
108845
108839
108834
108828
108822
108816
108809
108803
108797
108791
108784
108778
108772
108766
108760
108754