/*--------------------------------*- C++ -*----------------------------------*\
| =========                 |                                                 |
| \\      /  F ield         | OpenFOAM: The Open Source CFD Toolbox           |
|  \\    /   O peration     | Version:  v1812                                 |
|   \\  /    A nd           | Web:      www.OpenFOAM.com                      |
|    \\/     M anipulation  |                                                 |
\*---------------------------------------------------------------------------*/
FoamFile
{
    version     2.0;
    format      ascii;
    class       surfaceScalarField;
    location    "0.1";
    object      phi;
}
// * * * * * * * * * * * * * * * * * * * * * * * * * * * * * * * * * * * * * //

dimensions      [1 0 -1 0 0 0 0];
oriented        oriented;


internalField   nonuniform List<scalar> 
40240
(
0.00040792
-0.000451589
0.000350132
1.48289e-05
0.000448754
-0.00014301
0.000482444
-7.92758e-05
0.000303676
0.000133803
-2.8643e-05
0.00028882
-0.000652502
0.000582244
-0.00170568
0.00101241
-0.00324555
0.00149923
-0.00534462
0.00205858
-0.00789903
0.0025146
-0.0107916
0.00285491
-0.0140498
0.00322323
-0.0175838
0.00349967
-0.0212486
0.00362878
-0.0245784
0.00328915
-0.0272585
0.00263674
-0.0293372
0.00203866
-0.0309516
0.00157943
-0.03178
0.000770735
-0.0328039
0.000986729
-0.032561
-0.000287183
-0.0321553
-0.000429443
-0.0303615
-0.00182432
-0.0276535
-0.0027463
-0.0246315
-0.00309707
-0.0216477
-0.00309968
-0.0185704
-0.00343867
-0.0146877
-0.00390837
-0.0110276
-0.00355253
-0.00764279
-0.003317
-0.00449927
-0.00316677
-0.00155585
-0.00300241
0.00106219
-0.00267057
0.00325746
-0.00224611
0.00510878
-0.00191127
0.0067314
-0.00169063
0.00807292
-0.00141063
0.00915726
-0.00115211
0.010047
-0.000957641
0.0107708
-0.000794134
0.0113588
-0.000661885
0.0118319
-0.000549388
0.0121914
-0.000436477
0.0124639
-0.000349624
0.0126975
-0.000310575
0.0128971
-0.000277535
0.0130256
-0.00020872
0.0130738
-0.000130788
0.0130812
-9.27004e-05
0.0130833
-8.99656e-05
0.0130823
-8.95715e-05
0.0130665
-7.61174e-05
0.0130413
-6.83157e-05
0.0130131
-6.67742e-05
0.0129841
-6.74226e-05
0.012957
-7.0628e-05
0.0129291
-7.10022e-05
0.0128935
-6.43847e-05
0.0128478
-5.52759e-05
0.0128003
-5.45772e-05
0.012757
-5.98123e-05
0.0127179
-6.51476e-05
0.0126796
-6.73338e-05
0.0126411
-6.83062e-05
0.0126034
-7.01484e-05
0.0125673
-7.27082e-05
0.0125337
-7.58307e-05
0.0125033
-7.98677e-05
0.0124755
-8.31983e-05
0.0124491
-8.56605e-05
0.0124238
-8.78542e-05
0.0123995
-9.01692e-05
0.0123765
-9.26624e-05
0.0123546
-9.51337e-05
0.0123339
-9.75734e-05
0.0123145
-0.000100073
0.0122967
-0.000102529
0.0122805
-0.000104739
0.0122662
-0.000106645
0.0122539
-0.000108606
0.0122436
-0.000110464
0.0122349
-0.000112261
0.0122277
-0.000113891
0.0122219
-0.000115426
0.0122171
-0.000116877
0.0122135
-0.000118225
0.012211
-0.000119495
0.0122094
-0.00012068
0.0122088
-0.000121709
0.0122091
-0.0001226
0.0122107
-0.000123697
0.0122134
-0.00012466
0.0122175
-0.000125576
0.0122229
-0.000126455
0.0122296
-0.000127311
0.0122378
-0.00012815
0.0122473
-0.000128976
0.0122582
-0.000129791
0.0122702
-0.000130598
0.0122834
-0.0001314
0.0122975
-0.000132196
0.0123127
-0.000132984
0.0123288
-0.000133756
0.0123457
-0.000134505
0.0123635
-0.000135237
0.0123822
-0.000135964
0.0124019
-0.000136691
0.0124224
-0.000137415
0.0124439
-0.00013816
0.0124661
-0.000138932
0.012489
-0.000139728
0.0125123
-0.000140557
0.012536
-0.000141427
0.0125598
-0.000142332
0.0125836
-0.000143265
0.0126071
-0.000144228
0.01263
-0.000145222
0.0126521
-0.000146242
0.0126734
-0.000147273
0.0126936
-0.000148305
0.0127128
-0.000149333
0.0127307
-0.000150357
0.0127474
-0.000151374
0.0127627
-0.000152379
0.0127768
-0.000153366
0.0127895
-0.000154342
0.0128009
-0.000155312
0.0128109
-0.000156271
0.0128197
-0.000157207
0.0128272
-0.000158106
0.0128336
-0.000158975
0.0128389
-0.000159824
0.0128432
-0.000160661
0.0128464
-0.00016149
0.0128486
-0.000162313
0.0128499
-0.000163161
0.01285
-0.000164011
0.0128498
-0.000164811
0.0128484
-0.000165555
0.0128461
-0.000166349
0.0128429
-0.000167141
0.012839
-0.000167885
0.0128342
-0.000168631
0.0128285
-0.000169363
0.012822
-0.000170056
0.0128145
-0.000170702
0.0128062
-0.000171328
0.0127971
-0.000171944
0.0127872
-0.000172536
0.0127765
-0.000173092
0.0127651
-0.000173609
0.0127532
-0.000174084
0.0127408
-0.000174511
0.0127281
-0.000174883
0.0127152
-0.000175202
0.0127022
-0.000175468
0.0126893
-0.000175679
0.0126766
-0.000175827
0.0126643
-0.0001759
0.0126525
-0.000175886
0.0126414
-0.000175801
0.0126312
-0.000175701
0.0126219
-0.000175474
0.0126135
-0.000175126
0.0126061
-0.000174745
0.0125998
-0.000174317
0.0125945
-0.000173818
0.0125902
-0.000173224
0.0125869
-0.000172544
0.0125844
-0.000171767
0.0125829
-0.000170881
0.0125822
-0.000169861
0.0125823
-0.00016875
0.0125829
-0.000167405
0.0125841
-0.000165927
0.0125862
-0.000164763
0.0125888
-0.000163089
0.0125921
-0.000161388
0.012596
-0.000159543
0.0126007
-0.000157579
0.012606
-0.000155363
0.0126119
-0.00015305
0.0126188
-0.000150813
0.0126263
-0.000148204
0.0126346
-0.000145527
0.0126437
-0.000142711
0.0126535
-0.000139761
0.0126642
-0.000136678
0.0126757
-0.000133475
0.012688
-0.000130156
0.012701
-0.000126711
0.0127147
-0.00012315
0.0127292
-0.000119469
0.0127442
-0.000115668
0.0127598
-0.000111742
0.0127759
-0.000107689
0.0127923
-0.000103512
0.0128091
-9.92296e-05
0.012826
-9.48334e-05
0.012843
-9.03231e-05
0.0128599
-8.56923e-05
0.0128766
-8.09435e-05
0.0128929
-7.60771e-05
0.0129086
-7.10862e-05
0.0129236
-6.60172e-05
0.0129377
-6.06906e-05
0.0129511
-5.55226e-05
0.0129632
-5.00723e-05
0.0129742
-4.44514e-05
0.012984
-3.88189e-05
0.0129926
-3.30589e-05
0.013
-2.71153e-05
0.0130064
-2.10896e-05
0.0130117
-1.49878e-05
0.0130158
-9.11599e-06
0.013019
-2.42629e-06
0.0130218
3.60234e-06
0.0130235
9.92129e-06
0.0130247
1.6356e-05
0.0130254
2.28266e-05
0.0130256
2.93266e-05
0.0130255
3.58354e-05
0.013025
4.23318e-05
0.0130241
4.87959e-05
0.013023
5.52064e-05
0.0130215
6.15498e-05
0.0130196
6.78173e-05
0.0130172
7.39791e-05
0.0130145
7.98961e-05
0.0130112
8.57569e-05
0.0130073
9.15613e-05
0.0130029
9.71878e-05
0.012998
0.000102646
0.0129924
0.000107929
0.0129863
0.000113037
0.0129797
0.000117975
0.0129727
0.000122738
0.0129655
0.000127324
0.0129583
0.000131737
0.0129513
0.000135961
0.0129448
0.000139989
0.0129389
0.000143826
0.012934
0.000147505
0.0129305
0.000151045
0.0129286
0.000154476
0.0129287
0.00015779
0.0129304
0.000160753
0.0129351
0.000163595
0.0129426
0.000166307
0.0129528
0.000168872
0.0129659
0.000171296
0.0129819
0.00017358
0.013001
0.000175681
0.0130231
0.000177531
0.0130483
0.000179043
0.0130764
0.000180162
0.0131075
0.000180999
0.0131414
0.000182034
0.013178
0.000182917
0.0132172
0.000183691
0.0132589
0.000184378
0.013303
0.000184961
0.0133493
0.000185412
0.0133977
0.000185728
0.0134481
0.000185912
0.0135004
0.000185963
0.0135545
0.000185901
0.0136103
0.000185734
0.0136678
0.000185456
0.0137269
0.000185067
0.0137876
0.000184589
0.01385
0.000184051
0.013914
0.000183462
0.0139797
0.000182829
0.014047
0.000182148
0.0141161
0.000181439
0.014187
0.000180717
0.0142595
0.000179984
0.0143337
0.00017924
0.0144097
0.000178489
0.0144873
0.00017771
0.0145664
0.00017683
0.014647
0.000175914
0.0147289
0.000174957
0.014812
0.000173959
0.014896
0.000172917
0.0149808
0.000171819
0.0150662
0.000170658
0.0151518
0.000169423
0.0152376
0.000168105
0.0153231
0.000166693
0.0154082
0.000165162
0.0154924
0.000163533
0.0155755
0.000161794
0.0156569
0.000159932
0.0157363
0.000157935
0.0158131
0.000155798
0.015887
0.0001535
0.015958
0.000151011
0.0160265
0.000148284
0.0160935
0.000145268
0.0161609
0.000141908
0.0162312
0.000138151
0.016308
0.000133964
0.0163958
0.000129279
0.0165013
0.000124042
0.0166276
0.000118096
0.016792
0.00011116
0.0170231
0.000102276
0.017334
9.2452e-05
0.0177493
8.3113e-05
0.018292
7.15439e-05
0.0189762
6.10689e-05
0.019813
5.03708e-05
0.0208077
4.03411e-05
0.0219608
3.10246e-05
0.0232683
2.28015e-05
0.0247224
1.59263e-05
0.0263125
1.05632e-05
0.0280251
6.8146e-06
0.029845
4.36598e-06
0.0317557
3.67797e-06
0.033741
4.42493e-06
0.0357836
6.55221e-06
0.0378675
9.98423e-06
0.0399764
1.43929e-05
0.0420949
1.98801e-05
0.0442082
2.58462e-05
0.0463024
3.2304e-05
0.0483643
3.93255e-05
0.0503812
4.65766e-05
0.0523419
5.37611e-05
0.0542361
6.04882e-05
0.0560546
6.64649e-05
0.0577889
7.18445e-05
0.0594314
7.68154e-05
0.0609754
8.13178e-05
0.0624149
8.54857e-05
0.0637455
8.90301e-05
0.0649631
9.19271e-05
0.0660648
9.41655e-05
0.0670476
9.59416e-05
0.0679092
9.70866e-05
0.0686473
9.78983e-05
0.0692604
9.83728e-05
0.0697485
9.86663e-05
0.0701127
9.92566e-05
0.0703557
9.97688e-05
0.0704811
0.000100054
0.0705016
9.09905e-05
0.0704078
7.54507e-05
0.0702022
7.75001e-05
0.0699062
8.20787e-05
0.0695365
7.71498e-05
0.069091
7.34654e-05
0.0685688
6.73076e-05
0.067977
6.20604e-05
0.0673383
5.25831e-05
0.0666535
5.29847e-05
0.0659309
5.29647e-05
0.0651914
5.1263e-05
0.0644541
4.92165e-05
0.0637286
4.74659e-05
0.0630167
4.77417e-05
0.0623194
4.94638e-05
0.061636
5.12639e-05
0.0609639
5.36908e-05
0.0603007
5.42719e-05
0.059641
5.35771e-05
0.0589764
5.32615e-05
0.0582976
5.35412e-05
0.0575954
5.38896e-05
0.0568618
5.42123e-05
0.0560891
5.47583e-05
0.055272
5.51888e-05
0.0544067
5.59303e-05
0.0534922
5.71263e-05
0.0525293
5.92122e-05
0.0515233
6.03808e-05
0.0504812
6.088e-05
0.049411
6.19182e-05
0.0483217
6.39882e-05
0.0472231
6.75062e-05
0.0461254
7.24907e-05
0.0450387
7.95265e-05
0.0439735
8.81227e-05
0.0429401
9.7608e-05
0.0419483
0.000107945
0.0410071
0.000118675
0.0401241
0.000130055
0.0393051
0.000142492
0.038556
0.000154047
0.0378824
0.000163639
0.0372849
0.000174212
0.0367601
0.000188343
0.0363051
0.000203686
0.035918
0.000216985
0.0355946
0.000228356
0.0353284
0.000238815
0.0351141
0.000246602
0.0349489
0.000250244
0.0348287
0.000252144
0.0347463
0.000255956
0.0346972
0.000258737
0.034682
0.000257166
0.0346864
0.00025957
0.0347123
0.00026208
0.0347572
0.000259781
0.0348206
0.000255539
0.0349029
0.000249935
0.0350055
0.000243108
0.0351299
0.000235273
0.0352779
0.000226744
0.0354527
0.000217774
0.0356582
0.000208583
0.035897
0.000199499
0.0361649
0.000190585
0.0364648
0.000181838
0.0368048
0.0001739
0.0371852
0.000165799
0.0376005
0.000160765
0.0380502
0.000154912
0.0385322
0.000149378
0.0390403
0.000148129
0.0395732
0.000145843
0.0401243
0.000146813
0.0406894
0.000148496
0.0412645
0.000150019
0.0418458
0.000151022
0.0424279
0.000153837
0.0430056
0.000158068
0.0435745
0.000163197
0.0441304
0.000169529
0.0446696
0.000176836
0.0451898
0.000184784
0.045689
0.00019334
0.0461661
0.000202754
0.0466206
0.000212858
0.0470524
0.000224189
0.0474626
0.000235297
0.0478538
0.000245053
0.0482279
0.000253893
0.0485861
0.00026211
0.0489295
0.000269735
0.0492589
0.000276437
0.0495747
0.000281829
0.0498765
0.0002858
0.0501627
0.000288535
0.0504313
0.000289444
0.0506796
0.00028801
0.0509065
0.000282036
0.0511094
0.000272668
0.0512811
0.000263849
0.0514153
0.000254331
0.0515076
0.000242503
0.0515522
0.000229126
0.0515536
0.000211135
0.0515188
0.000170627
0.0514241
0.000155906
0.0512696
0.000135501
0.0510573
0.000107779
0.0507863
7.84227e-05
0.0504562
5.07746e-05
0.0500689
2.09781e-05
0.0496284
-1.06943e-05
0.0491368
-4.26582e-05
0.0485957
-7.44963e-05
0.0480028
-0.000105685
0.0473642
-0.000136071
0.046688
-0.000164935
0.0459754
-0.000192117
0.0452314
-0.000217691
0.0444599
-0.000241243
0.0436627
-0.000262429
0.0428439
-0.000281035
0.0420114
-0.00029774
0.041172
-0.00031295
0.0403292
-0.000324845
0.0394882
-0.000334821
0.0386544
-0.000342427
0.0378321
-0.000345165
0.0370245
-0.000343749
0.036235
-0.000339178
0.0354679
-0.000331888
0.0347281
-0.000322369
0.0340202
-0.000310704
0.033348
-0.000296887
0.0327147
-0.000280726
0.0321225
-0.000261773
0.0315736
-0.000240478
0.0310707
-0.000217357
0.0306167
-0.000192987
0.0302138
-0.000166833
0.029865
-0.000139996
0.0295699
-0.000110029
0.0293312
-8.15321e-05
0.0291349
-3.57408e-05
0.0289712
1.84846e-05
3.82861e-06
-0.000359339
-0.000130699
-0.000892851
0.000510109
-0.00182035
0.000744088
-0.00315601
0.00121434
-0.00488654
0.00182239
-0.00689771
0.00225886
-0.00933403
0.0029784
-0.0122496
0.00388856
-0.0156782
0.00488812
-0.0196898
0.00602997
-0.0241964
0.00698157
-0.0289983
0.00761894
-0.0339294
0.00811847
-0.0386965
0.00823089
-0.0430208
0.00791649
-0.0465591
0.00678923
-0.0492313
0.0052716
-0.0508303
0.00359841
-0.0509999
0.00171531
-0.0504408
0.000171989
-0.0484091
-0.0010864
-0.0448804
-0.00385399
-0.0399469
-0.00539178
-0.0353597
-0.00644256
-0.0309504
-0.00719044
-0.0263822
-0.00770288
-0.0218566
-0.00770306
-0.018381
-0.00685147
-0.0148887
-0.00748158
-0.0109174
-0.00760563
-0.00709447
-0.00726249
-0.00338683
-0.00696736
0.000456558
-0.00690441
0.0045685
-0.00683123
0.00882565
-0.00655785
0.0129421
-0.00609033
0.0165789
-0.00539383
0.0195772
-0.00447434
0.0220251
-0.00366493
0.0240139
-0.00301325
0.0256069
-0.00245687
0.0268979
-0.00202578
0.0279608
-0.00168714
0.0288335
-0.00138488
0.0295577
-0.00114992
0.0301862
-0.0010162
0.030746
-0.000915615
0.0312213
-0.00076431
0.0316004
-0.000592751
0.031903
-0.000480872
0.0321499
-0.000424741
0.0323459
-0.000375595
0.0324971
-0.000318891
0.0326132
-0.000277378
0.0327019
-0.000249775
0.0327665
-0.000226892
0.0328098
-0.000209859
0.0328337
-0.000192176
0.0328378
-0.000167063
0.0328353
-0.000152446
0.0328235
-0.00014332
0.0328086
-0.000146585
0.0327945
-0.000154037
0.0327798
-0.000156884
0.0327637
-0.000157877
0.032747
-0.000160221
0.0327307
-0.000164214
0.0327159
-0.000169523
0.0327027
-0.000176068
0.0326907
-0.000181766
0.0326794
-0.000185842
0.032668
-0.00018925
0.0326567
-0.000192736
0.0326453
-0.000196516
0.0326339
-0.000200331
0.0326229
-0.000204309
0.0326129
-0.000208693
0.0326044
-0.00021322
0.0325975
-0.00021754
0.0325926
-0.000221546
0.0325897
-0.000225515
0.0325887
-0.000229213
0.0325893
-0.000232623
0.0325915
-0.000235915
0.0325949
-0.000239077
0.0325997
-0.000242094
0.0326056
-0.000244848
0.0326126
-0.000247431
0.0326206
-0.000249828
0.0326296
-0.000251972
0.0326398
-0.000254028
0.0326511
-0.00025605
0.0326635
-0.000257969
0.0326772
-0.000259829
0.0326923
-0.000261636
0.0327089
-0.0002634
0.0327268
-0.000265123
0.0327462
-0.000266814
0.0327669
-0.000268476
0.0327889
-0.000270114
0.032812
-0.000271734
0.0328361
-0.000273335
0.0328612
-0.000274916
0.0328872
-0.00027646
0.0329141
-0.000277957
0.0329419
-0.000279413
0.0329705
-0.000280854
0.033
-0.000282282
0.0330305
-0.000283703
0.0330617
-0.000285146
0.0330936
-0.000286629
0.0331262
-0.00028815
0.0331592
-0.000289727
0.0331923
-0.000291372
0.0332256
-0.000293078
0.0332588
-0.000294839
0.0332915
-0.000296649
0.0333234
-0.000298516
0.0333546
-0.000300433
0.0333847
-0.000302375
0.0334138
-0.000304327
0.0334416
-0.000306274
0.0334681
-0.000308217
0.0334932
-0.000310159
0.0335169
-0.000312085
0.0335392
-0.000313981
0.0335601
-0.000315854
0.0335796
-0.000317716
0.0335978
-0.000319565
0.0336146
-0.000321384
0.0336301
-0.00032314
0.0336444
-0.00032483
0.0336575
-0.000326481
0.0336696
-0.000328116
0.0336806
-0.000329738
0.0336907
-0.000331347
0.0336997
-0.000332951
0.0337078
-0.000334527
0.0337151
-0.000336061
0.0337215
-0.000337601
0.0337271
-0.000339138
0.0337318
-0.000340657
0.0337358
-0.000342123
0.0337389
-0.000343591
0.0337413
-0.00034503
0.0337427
-0.000346428
0.0337433
-0.000347809
0.0337432
-0.000349157
0.0337424
-0.000350425
0.0337408
-0.000351625
0.0337386
-0.000352772
0.0337357
-0.000353862
0.0337325
-0.000354884
0.0337288
-0.000355819
0.033725
-0.000356654
0.0337211
-0.000357389
0.0337172
-0.000358021
0.0337136
-0.000358545
0.0337103
-0.000358951
0.0337075
-0.00035923
0.0337054
-0.000359375
0.0337041
-0.000359364
0.033704
-0.000359135
0.0337045
-0.000358791
0.0337063
-0.000358384
0.0337093
-0.000357787
0.0337135
-0.000357078
0.0337189
-0.000356228
0.0337254
-0.00035517
0.033733
-0.000353919
0.0337415
-0.000352457
0.0337511
-0.000350764
0.0337615
-0.000348827
0.0337727
-0.000346684
0.0337848
-0.000344282
0.0337977
-0.000341633
0.0338111
-0.000338881
0.0338251
-0.000335676
0.0338399
-0.000332301
0.0338553
-0.00032864
0.0338713
-0.000324717
0.0338882
-0.000320516
0.0339059
-0.000316063
0.0339242
-0.000311321
0.0339433
-0.00030621
0.0339631
-0.00030089
0.0339838
-0.000295283
0.0340052
-0.000289405
0.0340274
-0.000283253
0.0340504
-0.000276859
0.0340742
-0.000270222
0.0340987
-0.000263332
0.0341239
-0.000256203
0.0341497
-0.00024882
0.0341761
-0.000241198
0.034203
-0.000233334
0.0342303
-0.000225216
0.034258
-0.000216843
0.0342858
-0.000208255
0.0343138
-0.000199442
0.0343418
-0.000190396
0.0343696
-0.000181106
0.0343972
-0.000171576
0.0344242
-0.000161797
0.0344506
-0.000151761
0.0344761
-0.000141472
0.0345008
-0.000131033
0.0345245
-0.00012059
0.0345469
-0.00010946
0.0345682
-9.83932e-05
0.0345882
-8.70849e-05
0.034607
-7.55498e-05
0.0346247
-6.3796e-05
0.0346411
-5.18293e-05
0.0346563
-3.96756e-05
0.0346708
-2.79821e-05
0.0346843
-1.49282e-05
0.0346967
-3.25339e-06
0.0347088
9.73015e-06
0.0347203
2.24278e-05
0.0347313
3.51757e-05
0.0347419
4.79583e-05
0.0347522
6.07337e-05
0.0347623
7.34663e-05
0.0347722
8.61236e-05
0.034782
9.86678e-05
0.0347915
0.00011107
0.0348007
0.000123316
0.0348098
0.000135343
0.0348184
0.000147036
0.0348267
0.000158572
0.0348344
0.000169869
0.0348419
0.000180834
0.034849
0.000191484
0.0348557
0.000201822
0.034862
0.000211815
0.0348681
0.000221471
0.034874
0.000230775
0.03488
0.000239713
0.0348862
0.000248282
0.0348928
0.000256462
0.0349002
0.000264255
0.0349086
0.000271685
0.0349183
0.000278797
0.0349297
0.000285613
0.034943
0.000292129
0.0349585
0.000298313
0.0349766
0.000304173
0.0349975
0.000309733
0.0350215
0.000314958
0.0350487
0.000319861
0.035079
0.000324484
0.0351126
0.000328845
0.0351494
0.00033289
0.0351894
0.000336509
0.0352326
0.000339545
0.0352791
0.000341798
0.0353285
0.000343362
0.0353809
0.000345344
0.0354361
0.000346957
0.035494
0.000348297
0.0355544
0.000349491
0.0356173
0.000350568
0.0356823
0.000351406
0.0357495
0.000351986
0.0358187
0.000352306
0.0358897
0.00035237
0.0359625
0.000352226
0.036037
0.000351928
0.0361131
0.000351497
0.0361907
0.000350933
0.0362699
0.000350117
0.0363506
0.000349199
0.0364329
0.000348196
0.0365167
0.000347117
0.0366021
0.000345959
0.0366891
0.000344753
0.0367777
0.00034352
0.0368678
0.000342255
0.0369594
0.000340952
0.0370525
0.000339612
0.0371471
0.0003382
0.0372429
0.00033664
0.03734
0.000335022
0.0374381
0.000333338
0.0375371
0.000331585
0.0376367
0.000329759
0.0377368
0.000327836
0.0378371
0.000325797
0.0379373
0.000323619
0.0380372
0.000321282
0.0381366
0.000318751
0.0382351
0.000315989
0.0383324
0.000313029
0.0384281
0.000309845
0.0385219
0.000306397
0.0386131
0.000302669
0.0387015
0.000298659
0.0387866
0.000294337
0.0388683
0.000289668
0.0389472
0.000284581
0.0390241
0.000279004
0.0391008
0.000272837
0.0391798
0.000265996
0.0392644
0.000258406
0.0393594
0.000249907
0.0394711
0.000240397
0.0396026
0.000229648
0.0397701
0.000217336
0.0400022
0.000201742
0.040312
0.000184165
0.0407239
0.000167957
0.0412613
0.00014694
0.0419384
0.000127755
0.0427669
0.000107667
0.0437529
8.80196e-05
0.044898
6.87564e-05
0.0461994
5.03549e-05
0.047651
3.32061e-05
0.0492433
1.74552e-05
0.0509641
3.14644e-06
0.0527998
-9.42232e-06
0.0547355
-2.0654e-05
0.0567557
-2.94871e-05
0.0588448
-3.71378e-05
0.0609871
-4.34636e-05
0.0631671
-4.85327e-05
0.06537
-5.23011e-05
0.0675818
-5.52855e-05
0.0697889
-5.74605e-05
0.0719784
-5.8897e-05
0.0741382
-5.99518e-05
0.076257
-6.10695e-05
0.0783243
-6.27936e-05
0.0803302
-6.52863e-05
0.0822658
-6.83009e-05
0.0841228
-7.16381e-05
0.0858942
-7.53342e-05
0.0875737
-7.94074e-05
0.0891559
-8.4054e-05
0.0906366
-8.94005e-05
0.0920119
-9.53512e-05
0.0932783
-0.000101861
0.0944328
-0.000108989
0.0954726
-0.00011637
0.0963959
-0.000124017
0.0972027
-0.000131724
0.0978949
-0.00013961
0.0984756
-0.000148505
0.0989471
-0.000158571
0.0993038
-0.00017267
0.099542
-0.00018859
0.0996795
-0.000197391
0.0997366
-0.000202723
0.0997354
-0.000218971
0.0996513
-0.000232664
0.0994903
-0.000238636
0.0992588
-0.000245287
0.0989732
-0.000254537
0.0986466
-0.000255376
0.0982774
-0.000255725
0.0978883
-0.000256283
0.0974944
-0.000254637
0.0971024
-0.000248812
0.0967188
-0.000238878
0.0963476
-0.000230239
0.0959873
-0.000221879
0.0956325
-0.000211924
0.0952786
-0.000203022
0.09492
-0.000195971
0.0945485
-0.000188551
0.0941558
-0.000180905
0.0937336
-0.00017393
0.093274
-0.000167782
0.0927704
-0.000161864
0.0922173
-0.000156232
0.0916125
-0.000151038
0.0909536
-0.000144079
0.0902416
-0.000135441
0.0894804
-0.000127171
0.0886757
-0.000118563
0.0878347
-0.000108063
0.0869661
-9.51904e-05
0.0860798
-7.94856e-05
0.0851866
-6.13614e-05
0.0842972
-3.96115e-05
0.0834214
-1.44611e-05
0.082569
1.35565e-05
0.0817492
4.37381e-05
0.0809705
7.54029e-05
0.0802401
0.000108301
0.0795639
0.000143152
0.0789466
0.0001776
0.0783914
0.000210175
0.0779001
0.000243602
0.077473
0.000280375
0.0771098
0.000316887
0.0768097
0.000348196
0.0765696
0.000374812
0.0763832
0.00039918
0.0762416
0.000421793
0.0761376
0.00044021
0.0760682
0.000454183
0.0760335
0.00046453
0.0760315
0.000467402
0.0760548
0.000477448
0.076099
0.000480977
0.0761647
0.000483394
0.0762485
0.000480185
0.0763496
0.000473346
0.0764689
0.000463155
0.0766076
0.000450229
0.0767671
0.000435595
0.0769487
0.000420259
0.0771551
0.000404544
0.0773904
0.000388515
0.077657
0.000372471
0.0779511
0.000356423
0.0782758
0.000340274
0.0786398
0.000325875
0.0790436
0.000310645
0.0794821
0.000300954
0.0799542
0.000289908
0.0804594
0.000278156
0.080991
0.000275488
0.0815499
0.000268137
0.0821318
0.000265247
0.0827316
0.000264483
0.0833424
0.000266736
0.0839585
0.000270206
0.0845757
0.000275309
0.0851896
0.000282367
0.0857969
0.000290098
0.0863939
0.000299737
0.0869771
0.000311785
0.0875437
0.000325491
0.0880917
0.000340444
0.0886198
0.000356949
0.0891273
0.0003746
0.0896143
0.000394108
0.0900815
0.000413732
0.0905311
0.000431082
0.0909648
0.000447031
0.0913834
0.000462245
0.0917876
0.000476814
0.0921777
0.00048995
0.0925542
0.000500405
0.0929175
0.000507299
0.0932668
0.000510825
0.0935997
0.00051114
0.093911
0.000509426
0.0941971
0.000501216
0.0944568
0.000484543
0.094687
0.000465105
0.0948828
0.000442941
0.0950399
0.000415867
0.0951564
0.000382127
0.0952186
0.000352579
0.09522
0.000301321
0.0951831
0.000246479
0.0950975
0.000195594
0.0949529
0.000144041
0.0947494
8.81934e-05
0.094487
3.09375e-05
0.0941708
-3.09706e-05
0.0937987
-9.24647e-05
0.093372
-0.000153161
0.0928935
-0.000214867
0.0923628
-0.000276723
0.0917863
-0.000337054
0.0911723
-0.00039351
0.0905201
-0.000445407
0.0898339
-0.000493253
0.0891175
-0.000536932
0.0883728
-0.000576289
0.0876036
-0.00061021
0.0868174
-0.000639693
0.0860208
-0.000665781
0.0852175
-0.000685074
0.0844126
-0.000699444
0.083612
-0.000710053
0.0828207
-0.000712922
0.0820427
-0.000708552
0.0812811
-0.000697521
0.0805397
-0.000681003
0.0798234
-0.000659883
0.0791363
-0.000634262
0.0784824
-0.000604174
0.0778649
-0.000569464
0.077286
-0.000529322
0.0767482
-0.000484584
0.0762543
-0.000436621
0.0758079
-0.000386511
0.0754114
-0.000333164
0.0750688
-0.000279674
0.0747818
-0.000221691
0.0745516
-0.000164612
0.0743754
-8.34605e-05
0.0742367
2.05177e-05
1.22605e-05
-0.000616997
0.000445342
-0.00180408
0.00165783
-0.00347547
0.00237338
-0.0056866
0.00338234
-0.00849025
0.00458357
-0.0116732
0.0054004
-0.0153455
0.00661035
-0.0195237
0.00802709
-0.0241043
0.00942886
-0.0290233
0.0109087
-0.0340955
0.0120138
-0.0391135
0.0125984
-0.04396
0.0129281
-0.0483413
0.012575
-0.0518708
0.0114076
-0.0543061
0.00918324
-0.055633
0.00655353
-0.0558504
0.00376551
-0.0549494
0.000768644
-0.0531855
-0.0016461
-0.0507109
-0.00361375
-0.0477823
-0.00684482
-0.044032
-0.00919505
-0.0401269
-0.0103995
-0.0359439
-0.011426
-0.0312728
-0.0124135
-0.0261397
-0.0128654
-0.0205997
-0.012323
-0.0151749
-0.0129481
-0.00944203
-0.0134405
-0.0037703
-0.0130297
0.00152671
-0.0123251
0.00646496
-0.0118909
0.0110755
-0.0114937
0.0153449
-0.0108848
0.019313
-0.0101183
0.0229761
-0.00911741
0.0262871
-0.00784653
0.0292182
-0.00665926
0.0317588
-0.00562005
0.0339318
-0.00469964
0.0358033
-0.00397022
0.037401
-0.00335936
0.0387307
-0.00278983
0.0398399
-0.00233463
0.0407987
-0.00205033
0.0416367
-0.00182925
0.0423399
-0.00154479
0.0429043
-0.00123678
0.0433609
-0.00102004
0.0437488
-0.000897897
0.0440841
-0.000798792
0.0443787
-0.00070322
0.044643
-0.00063298
0.0448779
-0.000577365
0.0450813
-0.000524793
0.0452595
-0.000483865
0.0454133
-0.000442895
0.0455408
-0.000392656
0.0456457
-0.000356641
0.045737
-0.000334917
0.0458204
-0.000331443
0.0458948
-0.000331257
0.045956
-0.000322196
0.0460024
-0.000309534
0.0460368
-0.000300983
0.0460619
-0.000296219
0.0460797
-0.000295173
0.0460933
-0.000298394
0.0461052
-0.000303028
0.0461158
-0.000306649
0.0461254
-0.000309992
0.0461342
-0.000313845
0.0461423
-0.000318329
0.0461496
-0.00032276
0.046156
-0.000327022
0.0461618
-0.000331673
0.0461674
-0.000336603
0.0461732
-0.000341419
0.0461794
-0.000346064
0.0461861
-0.000350715
0.0461935
-0.000355099
0.0462016
-0.000359299
0.0462103
-0.000363355
0.0462196
-0.000367278
0.0462293
-0.000371075
0.0462394
-0.000374556
0.04625
-0.00037785
0.046261
-0.000380909
0.0462726
-0.000383711
0.0462848
-0.000386362
0.0462976
-0.000388923
0.0463112
-0.000391428
0.0463257
-0.000393885
0.0463412
-0.000396297
0.0463578
-0.000398672
0.0463757
-0.000401011
0.0463946
-0.000403323
0.0464147
-0.000405611
0.0464359
-0.000407879
0.046458
-0.000410136
0.046481
-0.000412375
0.0465048
-0.000414595
0.0465294
-0.000416769
0.0465548
-0.000418884
0.0465809
-0.00042095
0.0466078
-0.000423002
0.0466354
-0.000425044
0.0466639
-0.000427085
0.0466931
-0.00042915
0.0467229
-0.000431267
0.0467533
-0.00043344
0.046784
-0.000435679
0.0468148
-0.000438002
0.0468456
-0.000440402
0.0468763
-0.000442882
0.0469064
-0.000445444
0.0469357
-0.000448086
0.0469641
-0.000450792
0.0469915
-0.000453534
0.0470176
-0.000456294
0.0470423
-0.000459052
0.0470657
-0.000461805
0.0470877
-0.000464567
0.0471082
-0.000467321
0.0471272
-0.000470035
0.0471446
-0.000472704
0.0471606
-0.000475349
0.0471752
-0.000477981
0.0471885
-0.000480573
0.0472003
-0.000483092
0.0472109
-0.000485521
0.0472203
-0.000487888
0.0472286
-0.000490226
0.0472357
-0.000492536
0.0472418
-0.000494804
0.0472468
-0.000497011
0.047251
-0.000499169
0.0472541
-0.000501317
0.0472563
-0.00050346
0.0472576
-0.000505613
0.047258
-0.000507778
0.0472576
-0.000509916
0.0472564
-0.000512013
0.0472544
-0.000514073
0.0472515
-0.000516105
0.0472477
-0.00051809
0.0472431
-0.000519995
0.0472377
-0.000521821
0.0472316
-0.000523574
0.0472247
-0.000525254
0.0472172
-0.000526851
0.0472093
-0.000528351
0.047201
-0.000529728
0.0471925
-0.000530961
0.0471839
-0.000532046
0.0471753
-0.000532978
0.0471669
-0.000533748
0.0471588
-0.00053434
0.0471512
-0.000534743
0.0471443
-0.000534961
0.0471381
-0.000534948
0.047133
-0.000534694
0.0471288
-0.000534322
0.0471257
-0.000533727
0.0471238
-0.000532937
0.0471231
-0.000531899
0.0471235
-0.000530599
0.0471249
-0.000529109
0.0471275
-0.000527352
0.0471311
-0.000525278
0.0471357
-0.000522867
0.0471413
-0.000520092
0.0471477
-0.000516996
0.0471548
-0.000513488
0.0471626
-0.000509652
0.0471711
-0.000505506
0.0471802
-0.000500823
0.04719
-0.000495834
0.0472005
-0.000490419
0.0472116
-0.000484615
0.0472233
-0.000478346
0.0472358
-0.000471721
0.047249
-0.000464664
0.0472629
-0.000457097
0.0472775
-0.000449182
0.0472929
-0.000440824
0.0473091
-0.000432054
0.047326
-0.000422885
0.0473437
-0.000413349
0.0473621
-0.000403448
0.0473812
-0.00039317
0.047401
-0.000382536
0.0474214
-0.000371526
0.0474424
-0.000360148
0.0474638
-0.000348405
0.0474855
-0.000336292
0.0475076
-0.000323807
0.0475299
-0.000310977
0.0475522
-0.000297792
0.0475745
-0.000284251
0.0475966
-0.000270325
0.0476184
-0.000255996
0.0476396
-0.000241283
0.0476601
-0.000226201
0.0476797
-0.000210775
0.0476983
-0.00019499
0.0477157
-0.000179031
0.047732
-0.00016251
0.047747
-0.000145819
0.0477608
-0.00012879
0.0477732
-0.000111462
0.0477843
-9.38841e-05
0.0477942
-7.60632e-05
0.047803
-5.80573e-05
0.0478106
-3.99586e-05
0.0478172
-2.13411e-05
0.0478231
-2.65958e-06
0.0478283
1.59582e-05
0.0478327
3.48228e-05
0.0478366
5.37462e-05
0.0478401
7.26816e-05
0.0478432
9.15794e-05
0.047846
0.000110394
0.0478485
0.000129089
0.0478507
0.000147613
0.0478526
0.000165927
0.0478541
0.00018398
0.0478553
0.000201717
0.0478561
0.000219089
0.0478564
0.000236143
0.0478563
0.000252794
0.0478557
0.000269049
0.0478545
0.000284849
0.0478529
0.000300156
0.047851
0.00031499
0.0478487
0.000329343
0.0478462
0.00034317
0.0478437
0.000356451
0.0478414
0.000369193
0.0478395
0.000381388
0.0478383
0.000393052
0.047838
0.000404202
0.0478391
0.00041488
0.0478418
0.00042511
0.0478463
0.000434889
0.0478529
0.000444204
0.0478621
0.000453087
0.0478741
0.000461504
0.0478893
0.000469403
0.0479078
0.000476735
0.0479295
0.000483522
0.0479543
0.000489822
0.0479822
0.000495598
0.0480132
0.000500782
0.0480472
0.000505321
0.0480843
0.000509191
0.0481245
0.000512554
0.0481678
0.000515995
0.048214
0.00051888
0.048263
0.000521183
0.0483145
0.000522878
0.0483684
0.000524419
0.0484245
0.000525734
0.0484827
0.00052669
0.0485428
0.000527299
0.0486048
0.000527519
0.0486686
0.000527397
0.0487339
0.000527043
0.0488009
0.000526537
0.0488694
0.000525886
0.0489394
0.000524788
0.0490109
0.000523552
0.0490839
0.000522199
0.0491584
0.000520736
0.0492344
0.000519153
0.0493119
0.000517481
0.049391
0.000515741
0.0494716
0.000513926
0.0495536
0.000512019
0.0496371
0.000510016
0.0497219
0.000507913
0.049808
0.000505709
0.0498953
0.000503418
0.0499835
0.000501035
0.0500725
0.000498549
0.0501621
0.000495959
0.050252
0.000493233
0.0503421
0.000490349
0.050432
0.00048727
0.0505214
0.000483945
0.0506102
0.00048033
0.050698
0.000476375
0.0507844
0.000472101
0.0508692
0.000467478
0.0509519
0.000462453
0.051032
0.000456998
0.051109
0.000451111
0.0511827
0.000444769
0.051253
0.000437945
0.0513202
0.000430579
0.0513852
0.000422597
0.0514498
0.000413881
0.0515164
0.000404324