/*--------------------------------*- C++ -*----------------------------------*\
| =========                 |                                                 |
| \\      /  F ield         | OpenFOAM: The Open Source CFD Toolbox           |
|  \\    /   O peration     | Version:  v1812                                 |
|   \\  /    A nd           | Web:      www.OpenFOAM.com                      |
|    \\/     M anipulation  |                                                 |
\*---------------------------------------------------------------------------*/
FoamFile
{
    version     2.0;
    format      ascii;
    class       volScalarField;
    location    "0.1";
    object      rho;
}
// * * * * * * * * * * * * * * * * * * * * * * * * * * * * * * * * * * * * * //

dimensions      [1 -3 0 0 0 0 0];


internalField   nonuniform List<scalar> 
20400
(
1.26546
1.26538
1.26547
1.26538
1.26531
1.26529
1.26516
1.26506
1.26494
1.2648
1.2647
1.26461
1.2645
1.26443
1.26435
1.26437
1.26444
1.26459
1.26464
1.26453
1.26515
1.26559
1.26614
1.2665
1.2669
1.26736
1.26804
1.26882
1.26882
1.26904
1.26932
1.26959
1.26979
1.26993
1.27
1.27006
1.27011
1.27012
1.27013
1.27013
1.27012
1.27011
1.27009
1.27006
1.27002
1.27
1.26998
1.26995
1.26991
1.26988
1.26985
1.26981
1.26978
1.26975
1.26973
1.2697
1.26967
1.26964
1.26962
1.26959
1.26956
1.26954
1.26952
1.26949
1.26947
1.26945
1.26942
1.2694
1.26938
1.26936
1.26933
1.26931
1.26929
1.26927
1.26925
1.26922
1.2692
1.26918
1.26916
1.26913
1.26911
1.26909
1.26908
1.26906
1.26904
1.26903
1.26901
1.26899
1.26898
1.26896
1.26895
1.26894
1.26892
1.26891
1.2689
1.26889
1.26888
1.26887
1.26887
1.26886
1.26886
1.26885
1.26885
1.26884
1.26884
1.26884
1.26884
1.26884
1.26884
1.26884
1.26884
1.26884
1.26884
1.26884
1.26884
1.26884
1.26884
1.26884
1.26884
1.26883
1.26883
1.26882
1.26881
1.2688
1.26878
1.26877
1.26875
1.26873
1.26871
1.26868
1.26866
1.26863
1.2686
1.26857
1.26854
1.2685
1.26847
1.26843
1.26839
1.26835
1.26831
1.26826
1.26822
1.26817
1.26813
1.26808
1.26803
1.26798
1.26792
1.26787
1.26781
1.26776
1.2677
1.26764
1.26758
1.26752
1.26746
1.2674
1.26734
1.26728
1.26722
1.26716
1.2671
1.26704
1.26698
1.26692
1.26687
1.26681
1.26676
1.2667
1.26665
1.2666
1.26655
1.2665
1.26645
1.2664
1.26635
1.26631
1.26626
1.26621
1.26617
1.26612
1.26608
1.26604
1.266
1.26596
1.26592
1.26588
1.26585
1.26581
1.26578
1.26575
1.26572
1.26569
1.26566
1.26564
1.26561
1.26559
1.26556
1.26554
1.26552
1.2655
1.26548
1.26546
1.26544
1.26542
1.2654
1.26539
1.26537
1.26535
1.26533
1.26531
1.26529
1.26528
1.26526
1.26524
1.26522
1.26521
1.26519
1.26518
1.26516
1.26515
1.26514
1.26513
1.26512
1.26511
1.2651
1.2651
1.2651
1.26509
1.26509
1.26509
1.26509
1.2651
1.2651
1.2651
1.26511
1.26511
1.26512
1.26513
1.26514
1.26515
1.26516
1.26518
1.2652
1.26522
1.26524
1.26527
1.2653
1.26534
1.26538
1.26542
1.26547
1.26552
1.26558
1.26564
1.26571
1.26577
1.26585
1.26592
1.266
1.26609
1.26617
1.26626
1.26635
1.26645
1.26654
1.26664
1.26674
1.26684
1.26694
1.26705
1.26716
1.26726
1.26737
1.26749
1.2676
1.26771
1.26783
1.26795
1.26807
1.26819
1.26831
1.26843
1.26856
1.26868
1.26881
1.26894
1.26906
1.26919
1.26932
1.26944
1.26957
1.26969
1.26981
1.26993
1.27005
1.27017
1.27029
1.2704
1.27052
1.27063
1.27073
1.27083
1.27092
1.271
1.27105
1.27107
1.27106
1.27098
1.27081
1.27053
1.2701
1.26951
1.26875
1.26779
1.26664
1.26529
1.26375
1.26202
1.26012
1.25807
1.25587
1.25354
1.2511
1.24858
1.24598
1.24332
1.24063
1.23792
1.2352
1.23249
1.22981
1.22716
1.22457
1.22204
1.21959
1.21723
1.21495
1.21279
1.21073
1.20878
1.20696
1.20526
1.20368
1.20224
1.20093
1.19975
1.1987
1.19778
1.19697
1.19629
1.19576
1.19531
1.19495
1.19466
1.19446
1.19434
1.19428
1.19427
1.19431
1.19438
1.19446
1.19453
1.19459
1.19462
1.19464
1.19465
1.19465
1.19465
1.19468
1.19473
1.19483
1.19499
1.19521
1.19551
1.19589
1.19637
1.19693
1.19757
1.1983
1.19909
1.19995
1.20086
1.2018
1.20276
1.20372
1.20467
1.2056
1.2065
1.20735
1.20814
1.20888
1.20954
1.21014
1.21066
1.21112
1.2115
1.21183
1.2121
1.21232
1.21251
1.21267
1.2128
1.21291
1.213
1.21308
1.21316
1.21323
1.21329
1.21336
1.21343
1.21349
1.21355
1.2136
1.21364
1.21366
1.21366
1.21364
1.2136
1.21352
1.21342
1.21328
1.21312
1.21293
1.21272
1.21248
1.21223
1.21197
1.2117
1.21142
1.21115
1.21087
1.2106
1.21033
1.21007
1.20982
1.20957
1.20932
1.20908
1.20884
1.20859
1.20834
1.20807
1.2078
1.2075
1.20719
1.20686
1.20651
1.20615
1.20577
1.20537
1.20497
1.20457
1.20417
1.20378
1.2034
1.20303
1.20269
1.20237
1.20209
1.20183
1.20161
1.20143
1.20127
1.20116
1.20107
1.20102
1.20099
1.201
1.20102
1.20106
1.20112
1.20118
1.20126
1.20134
1.20143
1.20152
1.20161
1.2017
1.2018
1.20189
1.20198
1.20207
1.20216
1.20225
1.20234
1.20243
1.20252
1.20262
1.20271
1.20279
1.20288
1.20296
1.20304
1.20311
1.20318
1.20323
1.20328
1.20318
1.2657
1.26552
1.26567
1.26561
1.26558
1.26556
1.26547
1.2654
1.26533
1.26522
1.26512
1.26503
1.26491
1.26483
1.26476
1.26477
1.26478
1.26483
1.26512
1.26562
1.26594
1.26639
1.2668
1.267
1.26726
1.26757
1.26791
1.26793
1.26842
1.269
1.26915
1.26927
1.26944
1.26967
1.26988
1.27005
1.27015
1.27019
1.27022
1.27024
1.27024
1.27023
1.27022
1.2702
1.27018
1.27016
1.27015
1.27013
1.2701
1.27007
1.27005
1.27002
1.26998
1.26995
1.26992
1.26989
1.26986
1.26983
1.2698
1.26977
1.26975
1.26972
1.2697
1.26967
1.26965
1.26963
1.2696
1.26958
1.26956
1.26954
1.26951
1.26949
1.26947
1.26945
1.26942
1.2694
1.26938
1.26936
1.26933
1.26931
1.26929
1.26927
1.26925
1.26924
1.26922
1.2692
1.26919
1.26917
1.26916
1.26914
1.26913
1.26912
1.2691
1.26909
1.26908
1.26907
1.26906
1.26905
1.26905
1.26904
1.26904
1.26903
1.26903
1.26903
1.26902
1.26902
1.26902
1.26902
1.26902
1.26902
1.26902
1.26902
1.26902
1.26902
1.26903
1.26903
1.26903
1.26902
1.26902
1.26902
1.26901
1.269
1.26899
1.26898
1.26897
1.26895
1.26894
1.26892
1.26889
1.26887
1.26884
1.26882
1.26879
1.26876
1.26872
1.26869
1.26865
1.26862
1.26858
1.26854
1.26849
1.26845
1.26841
1.26836
1.26832
1.26827
1.26822
1.26817
1.26811
1.26806
1.26801
1.26795
1.26789
1.26783
1.26778
1.26772
1.26766
1.2676
1.26754
1.26748
1.26742
1.26736
1.2673
1.26724
1.26718
1.26713
1.26707
1.26702
1.26696
1.26691
1.26686
1.26681
1.26676
1.26671
1.26666
1.26661
1.26656
1.26652
1.26647
1.26643
1.26638
1.26634
1.2663
1.26626
1.26622
1.26618
1.26614
1.2661
1.26607
1.26603
1.266
1.26597
1.26594
1.26591
1.26589
1.26586
1.26583
1.26581
1.26579
1.26577
1.26575
1.26573
1.26571
1.26569
1.26567
1.26565
1.26564
1.26562
1.2656
1.26558
1.26557
1.26555
1.26553
1.26551
1.2655
1.26548
1.26546
1.26544
1.26543
1.26541
1.2654
1.26539
1.26538
1.26537
1.26536
1.26535
1.26534
1.26534
1.26534
1.26533
1.26533
1.26533
1.26533
1.26533
1.26534
1.26534
1.26534
1.26535
1.26536
1.26536
1.26537
1.26538
1.2654
1.26541
1.26543
1.26545
1.26548
1.2655
1.26553
1.26557
1.26561
1.26565
1.2657
1.26575
1.26581
1.26587
1.26594
1.26601
1.26608
1.26616
1.26624
1.26632
1.2664
1.26649
1.26658
1.26668
1.26677
1.26687
1.26697
1.26707
1.26718
1.26728
1.26739
1.2675
1.26761
1.26772
1.26783
1.26795
1.26806
1.26818
1.2683
1.26842
1.26854
1.26867
1.26879
1.26892
1.26905
1.26917
1.2693
1.26943
1.26955
1.26968
1.2698
1.26993
1.27005
1.27017
1.27029
1.2704
1.27052
1.27063
1.27075
1.27086
1.27096
1.27106
1.27115
1.27123
1.27128
1.27131
1.27129
1.27122
1.27105
1.27076
1.27034
1.26976
1.26899
1.26803
1.26688
1.26553
1.26399
1.26226
1.26036
1.2583
1.2561
1.25378
1.25134
1.24882
1.24622
1.24357
1.24088
1.23817
1.23545
1.23275
1.23007
1.22743
1.22484
1.22232
1.21987
1.21751
1.21525
1.21309
1.21104
1.20911
1.2073
1.20561
1.20406
1.20263
1.20134
1.20019
1.19916
1.19826
1.19749
1.19684
1.19633
1.19591
1.19557
1.1953
1.19513
1.19504
1.195
1.19502
1.19508
1.19517
1.19527
1.19535
1.19542
1.19547
1.1955
1.19552
1.19553
1.19555
1.19559
1.19565
1.19576
1.19593
1.19617
1.19648
1.19687
1.19736
1.19793
1.19859
1.19932
1.20013
1.201
1.20192
1.20287
1.20384
1.2048
1.20576
1.2067
1.2076
1.20845
1.20924
1.20997
1.21064
1.21123
1.21176
1.21221
1.2126
1.21292
1.21319
1.21341
1.21359
1.21375
1.21388
1.21399
1.21408
1.21416
1.21423
1.2143
1.21436
1.21443
1.21449
1.21456
1.21461
1.21466
1.2147
1.21472
1.21472
1.2147
1.21465
1.21458
1.21447
1.21433
1.21416
1.21397
1.21376
1.21353
1.21328
1.21302
1.21274
1.21247
1.21219
1.21191
1.21164
1.21138
1.21112
1.21087
1.21062
1.21038
1.21014
1.20991
1.20967
1.20942
1.20916
1.20889
1.2086
1.2083
1.20797
1.20763
1.20727
1.2069
1.20651
1.20612
1.20572
1.20532
1.20493
1.20455
1.2042
1.20385
1.20353
1.20325
1.203
1.20278
1.20259
1.20244
1.20232
1.20224
1.20218
1.20216
1.20216
1.20218
1.20223
1.20229
1.20235
1.20243
1.20252
1.20261
1.20271
1.2028
1.2029
1.203
1.2031
1.2032
1.2033
1.20339
1.20349
1.20359
1.2037
1.2038
1.2039
1.204
1.2041
1.20419
1.20429
1.20437
1.20446
1.20453
1.20459
1.20466
1.20453
1.26551
1.2654
1.26549
1.26539
1.26533
1.2653
1.26518
1.26509
1.26499
1.26488
1.2648
1.26473
1.26462
1.26457
1.26454
1.26465
1.26483
1.26508
1.26534
1.26563
1.26612
1.26655
1.26686
1.26704
1.26731
1.26761
1.26786
1.2682
1.26835
1.26881
1.2691
1.26936
1.26962
1.26986
1.27004
1.2702
1.27034
1.27042
1.27046
1.27048
1.27048
1.27047
1.27046
1.27043
1.27039
1.27037
1.27035
1.27033
1.27029
1.27026
1.27024
1.27021
1.27019
1.27016
1.27014
1.27011
1.27009
1.27007
1.27004
1.27002
1.26999
1.26997
1.26995
1.26992
1.2699
1.26987
1.26984
1.26982
1.26979
1.26977
1.26975
1.26973
1.2697
1.26968
1.26966
1.26964
1.26961
1.26959
1.26957
1.26955
1.26953
1.26951
1.26949
1.26948
1.26946
1.26944
1.26943
1.26941
1.2694
1.26938
1.26937
1.26936
1.26934
1.26933
1.26932
1.26931
1.2693
1.2693
1.26929
1.26928
1.26928
1.26928
1.26927
1.26927
1.26927
1.26927
1.26926
1.26926
1.26926
1.26926
1.26927
1.26927
1.26927
1.26927
1.26927
1.26927
1.26927
1.26927
1.26927
1.26926
1.26926
1.26925
1.26924
1.26923
1.26922
1.2692
1.26918
1.26916
1.26914
1.26912
1.26909
1.26906
1.26903
1.269
1.26897
1.26894
1.2689
1.26886
1.26883
1.26879
1.26874
1.2687
1.26866
1.26861
1.26857
1.26852
1.26847
1.26842
1.26837
1.26831
1.26826
1.2682
1.26815
1.26809
1.26803
1.26797
1.26791
1.26785
1.26779
1.26773
1.26767
1.26762
1.26756
1.2675
1.26744
1.26739
1.26733
1.26728
1.26723
1.26718
1.26712
1.26707
1.26703
1.26698
1.26693
1.26688
1.26684
1.26679
1.26675
1.2667
1.26666
1.26662
1.26657
1.26653
1.2665
1.26646
1.26642
1.26638
1.26635
1.26632
1.26628
1.26625
1.26623
1.2662
1.26617
1.26615
1.26612
1.2661
1.26608
1.26606
1.26604
1.26602
1.266
1.26598
1.26596
1.26595
1.26593
1.26591
1.26589
1.26588
1.26586
1.26584
1.26582
1.26581
1.26579
1.26577
1.26576
1.26574
1.26572
1.26571
1.2657
1.26568
1.26567
1.26566
1.26565
1.26564
1.26564
1.26563
1.26563
1.26562
1.26562
1.26562
1.26562
1.26562
1.26562
1.26562
1.26563
1.26563
1.26564
1.26564
1.26565
1.26566
1.26567
1.26569
1.2657
1.26572
1.26574
1.26577
1.2658
1.26583
1.26587
1.26592
1.26596
1.26601
1.26607
1.26613
1.26619
1.26626
1.26633
1.26641
1.26649
1.26657
1.26666
1.26674
1.26683
1.26693
1.26702
1.26712
1.26722
1.26732
1.26743
1.26753
1.26764
1.26775
1.26786
1.26797
1.26808
1.2682
1.26831
1.26843
1.26855
1.26867
1.26879
1.26892
1.26904
1.26917
1.26929
1.26942
1.26955
1.26967
1.2698
1.26992
1.27005
1.27017
1.27029
1.27041
1.27053
1.27065
1.27076
1.27087
1.27099
1.2711
1.2712
1.2713
1.27139
1.27147
1.27152
1.27154
1.27153
1.27146
1.27129
1.27101
1.27059
1.27
1.26924
1.26828
1.26712
1.26577
1.26422
1.26249
1.26059
1.25853
1.25632
1.25399
1.25155
1.24902
1.24642
1.24376
1.24106
1.23835
1.23562
1.23291
1.23023
1.22758
1.22498
1.22245
1.22
1.21764
1.21537
1.2132
1.21115
1.20922
1.2074
1.20571
1.20416
1.20273
1.20145
1.20029
1.19927
1.19838
1.19762
1.19698
1.19646
1.19605
1.19572
1.19546
1.1953
1.19522
1.19519
1.19521
1.19528
1.19539
1.1955
1.19559
1.19567
1.19573
1.19577
1.19579
1.19582
1.19584
1.19589
1.19596
1.19608
1.19626
1.1965
1.19682
1.19722
1.19771
1.19829
1.19895
1.19969
1.20051
1.20138
1.2023
1.20325
1.20422
1.20519
1.20615
1.20709
1.20798
1.20884
1.20963
1.21037
1.21104
1.21163
1.21216
1.21261
1.213
1.21333
1.2136
1.21383
1.21402
1.21418
1.21431
1.21443
1.21453
1.21461
1.21469
1.21476
1.21483
1.2149
1.21497
1.21503
1.21509
1.21514
1.21518
1.21519
1.2152
1.21518
1.21513
1.21505
1.21494
1.2148
1.21464
1.21444
1.21423
1.21399
1.21374
1.21348
1.2132
1.21293
1.21265
1.21237
1.2121
1.21184
1.21158
1.21133
1.21108
1.21084
1.2106
1.21037
1.21013
1.20988
1.20962
1.20935
1.20907
1.20877
1.20845
1.20811
1.20776
1.20739
1.20701
1.20662
1.20623
1.20584
1.20546
1.20509
1.20474
1.2044
1.20409
1.20381
1.20356
1.20334
1.20315
1.203
1.20288
1.20279
1.20274
1.20272
1.20273
1.20276
1.2028
1.20286
1.20293
1.20301
1.20311
1.20321
1.20331
1.20342
1.20353
1.20363
1.20374
1.20385
1.20396
1.20407
1.20418
1.20429
1.2044
1.20451
1.20462
1.20472
1.20483
1.20493
1.20503
1.20512
1.2052
1.20529
1.20533
1.20541
1.20528
1.26563
1.26556
1.26565
1.26556
1.26548
1.26546
1.26534
1.26523
1.26511
1.26498
1.26488
1.26482
1.26475
1.26482
1.26504
1.26554
1.26624
1.26707
1.2679
1.26867
1.26961
1.27037
1.27093
1.2709
1.27085
1.27073
1.27047
1.27023
1.26976
1.2696
1.26961
1.26976
1.26995
1.27011
1.27023
1.27034
1.27045
1.27051
1.27056
1.2706
1.27061
1.27061
1.2706
1.27057
1.27055
1.27054
1.27053
1.27051
1.27048
1.27045
1.27042
1.27039
1.27036
1.27033
1.2703
1.27027
1.27024
1.27021
1.27018
1.27016
1.27014
1.27012
1.2701
1.27008
1.27006
1.27004
1.27002
1.26999
1.26997
1.26995
1.26993
1.26991
1.26989
1.26987
1.26984
1.26982
1.2698
1.26977
1.26975
1.26973
1.26971
1.26969
1.26967
1.26965
1.26964
1.26962
1.26961
1.26959
1.26958
1.26956
1.26955
1.26954
1.26952
1.26951
1.2695
1.26949
1.26948
1.26947
1.26947
1.26946
1.26946
1.26945
1.26945
1.26945
1.26945
1.26944
1.26944
1.26944
1.26944
1.26944
1.26944
1.26944
1.26945
1.26945
1.26945
1.26945
1.26945
1.26945
1.26944
1.26944
1.26943
1.26943
1.26942
1.26941
1.26939
1.26938
1.26936
1.26934
1.26932
1.26929
1.26927
1.26924
1.26921
1.26918
1.26915
1.26912
1.26908
1.26904
1.269
1.26896
1.26892
1.26888
1.26884
1.26879
1.26875
1.2687
1.26865
1.2686
1.26855
1.26849
1.26844
1.26839
1.26833
1.26827
1.26821
1.26816
1.2681
1.26804
1.26798
1.26792
1.26786
1.2678
1.26775
1.26769
1.26764
1.26758
1.26753
1.26747
1.26742
1.26737
1.26732
1.26727
1.26722
1.26718
1.26713
1.26708
1.26704
1.267
1.26695
1.26691
1.26687
1.26683
1.26678
1.26675
1.26671
1.26667
1.26663
1.2666
1.26656
1.26653
1.2665
1.26647
1.26644
1.26642
1.26639
1.26636
1.26634
1.26632
1.2663
1.26628
1.26626
1.26624
1.26622
1.26621
1.26619
1.26617
1.26615
1.26614
1.26612
1.2661
1.26609
1.26607
1.26605
1.26603
1.26602
1.266
1.26598
1.26596
1.26595
1.26593
1.26592
1.2659
1.26589
1.26588
1.26587
1.26586
1.26585
1.26585
1.26584
1.26583
1.26583
1.26583
1.26582
1.26582
1.26582
1.26582
1.26582
1.26582
1.26583
1.26583
1.26584
1.26584
1.26585
1.26587
1.26588
1.2659
1.26592
1.26594
1.26597
1.266
1.26604
1.26608
1.26612
1.26617
1.26623
1.26629
1.26635
1.26641
1.26648
1.26656
1.26664
1.26672
1.2668
1.26689
1.26698
1.26707
1.26717
1.26726
1.26736
1.26746
1.26757
1.26767
1.26778
1.26788
1.26799
1.2681
1.26822
1.26833
1.26845
1.26856
1.26868
1.2688
1.26892
1.26905
1.26917
1.2693
1.26942
1.26955
1.26967
1.2698
1.26992
1.27005
1.27017
1.27029
1.27041
1.27053
1.27064
1.27076
1.27087
1.27098
1.27109
1.2712
1.27131
1.2714
1.27149
1.27156
1.27162
1.27164
1.27163
1.27156
1.27139
1.27111
1.27069
1.2701
1.26933
1.26837
1.26721
1.26586
1.26431
1.26257
1.26066
1.25859
1.25638
1.25405
1.2516
1.24907
1.24646
1.2438
1.2411
1.23838
1.23565
1.23293
1.23024
1.22759
1.22499
1.22246
1.22
1.21763
1.21536
1.2132
1.21115
1.20921
1.2074
1.20571
1.20416
1.20274
1.20145
1.2003
1.19928
1.1984
1.19764
1.19701
1.19649
1.19608
1.19575
1.19549
1.19533
1.19525
1.19523
1.19526
1.19533
1.19544
1.19555
1.19565
1.19574
1.1958
1.19585
1.19589
1.19592
1.19596
1.19601
1.1961
1.19622
1.19641
1.19666
1.19699
1.1974
1.19789
1.19847
1.19914
1.19988
1.2007
1.20157
1.20248
1.20343
1.20439
1.20536
1.20631
1.20724
1.20814
1.20898
1.20978
1.21051
1.21117
1.21177
1.2123
1.21275
1.21314
1.21347
1.21375
1.21398
1.21417
1.21433
1.21446
1.21458
1.21468
1.21476
1.21484
1.21491
1.21499
1.21506
1.21512
1.21519
1.21524
1.21529
1.21533
1.21534
1.21534
1.21532
1.21527
1.21518
1.21507
1.21492
1.21475
1.21456
1.21434
1.2141
1.21384
1.21356
1.21328
1.213
1.21271
1.21243
1.21215
1.21187
1.2116
1.21135
1.21109
1.21085
1.21061
1.21037
1.21012
1.20987
1.20961
1.20934
1.20906
1.20875
1.20844
1.2081
1.20775
1.20739
1.20701
1.20663
1.20624
1.20586
1.20549
1.20512
1.20478
1.20445
1.20415
1.20387
1.20363
1.20341
1.20324
1.20311
1.203
1.20292
1.20287
1.20285
1.20286
1.20289
1.20294
1.20301
1.20308
1.20317
1.20327
1.20338
1.20348
1.20359
1.20371
1.20382
1.20393
1.20405
1.20416
1.20427
1.20438
1.20449
1.2046
1.20471
1.20482
1.20492
1.20502
1.20512
1.20521
1.20529
1.20537
1.20544
1.20548
1.20555
1.20541
1.26561
1.26554
1.26564
1.26556
1.26549
1.26548
1.26536
1.26525
1.26513
1.26499
1.26493
1.26499
1.26519
1.26579
1.26693
1.26877
1.27101
1.27335
1.27533
1.2769
1.27824
1.27939
1.28033
1.28043
1.28023
1.2797
1.27873
1.27731
1.27551
1.27365
1.27207
1.27101
1.27047
1.27028
1.27027
1.27036
1.27045
1.27051
1.27056
1.27059
1.2706
1.27061
1.27061
1.27059
1.27057
1.27056
1.27056
1.27055
1.27052
1.2705
1.27048
1.27046
1.27044
1.27041
1.27039
1.27036
1.27034
1.27032
1.27029
1.27027
1.27025
1.27022
1.2702
1.27017
1.27015
1.27012
1.2701
1.27007
1.27005
1.27003
1.27001
1.26998
1.26996
1.26994
1.26992
1.2699
1.26988
1.26986
1.26984
1.26982
1.2698
1.26978
1.26976
1.26975
1.26973
1.26971
1.2697
1.26968
1.26967
1.26966
1.26964
1.26963
1.26962
1.2696
1.26959
1.26958
1.26957
1.26957
1.26956
1.26955
1.26955
1.26955
1.26954
1.26954
1.26954
1.26953
1.26953
1.26953
1.26953
1.26953
1.26953
1.26953
1.26954
1.26954
1.26954
1.26954
1.26954
1.26954
1.26953
1.26953
1.26952
1.26952
1.26951
1.26949
1.26948
1.26947
1.26945
1.26943
1.26941
1.26938
1.26936
1.26933
1.2693
1.26927
1.26924
1.2692
1.26917
1.26913
1.26909
1.26905
1.26901
1.26897
1.26893
1.26888
1.26884
1.26879
1.26874
1.26869
1.26864
1.26859
1.26853
1.26848
1.26842
1.26837
1.26831
1.26825
1.26819
1.26813
1.26808
1.26802
1.26796
1.2679
1.26785
1.26779
1.26774
1.26768
1.26763
1.26758
1.26753
1.26748
1.26743
1.26738
1.26734
1.26729
1.26725
1.2672
1.26716
1.26712
1.26707
1.26703
1.26699
1.26695
1.26691
1.26688
1.26684
1.2668
1.26677
1.26673
1.2667
1.26667
1.26664
1.26661
1.26658
1.26656
1.26653
1.26651
1.26649
1.26647
1.26645
1.26643
1.26641
1.26639
1.26637
1.26636
1.26634
1.26632
1.26631
1.26629
1.26627
1.26626
1.26624
1.26622
1.2662
1.26619
1.26617
1.26615
1.26613
1.26612
1.2661
1.26609
1.26607
1.26606
1.26604
1.26603
1.26602
1.26601
1.266
1.26599
1.26598
1.26597
1.26597
1.26596
1.26596
1.26595
1.26595
1.26595
1.26594
1.26594
1.26594
1.26594
1.26595
1.26595
1.26596
1.26597
1.26598
1.26599
1.26601
1.26603
1.26606
1.26608
1.26612
1.26615
1.2662
1.26624
1.26629
1.26635
1.26641
1.26647
1.26654
1.26661
1.26669
1.26677
1.26685
1.26694
1.26703
1.26712
1.26721
1.26731
1.2674
1.2675
1.2676
1.26771
1.26781
1.26792
1.26803
1.26814
1.26825
1.26836
1.26848
1.26859
1.26871
1.26883
1.26895
1.26907
1.2692
1.26932
1.26945
1.26957
1.26969
1.26982
1.26994
1.27006
1.27019
1.27031
1.27042
1.27054
1.27065
1.27077
1.27088
1.27099
1.2711
1.2712
1.2713
1.2714
1.27149
1.27156
1.27161
1.27164
1.27163
1.27156
1.27139
1.27111
1.27069
1.2701
1.26932
1.26836
1.2672
1.26584
1.26429
1.26255
1.26064
1.25856
1.25635
1.254
1.25155
1.24901
1.24639
1.24372
1.24101
1.23829
1.23556
1.23283
1.23014
1.22749
1.22489
1.22235
1.2199
1.21753
1.21526
1.2131
1.21105
1.20912
1.20731
1.20562
1.20407
1.20265
1.20137
1.20022
1.19921
1.19832
1.19757
1.19694
1.19643
1.19602
1.1957
1.19544
1.19528
1.19521
1.19519
1.19522
1.19531
1.19542
1.19555
1.19566
1.19576
1.19584
1.1959
1.19595
1.19599
1.19604
1.19611
1.19621
1.19635
1.19655
1.19681
1.19715
1.19756
1.19807
1.19865
1.19932
1.20006
1.20087
1.20174
1.20265
1.20359
1.20454
1.2055
1.20644
1.20736
1.20825
1.20909
1.20987
1.2106
1.21126
1.21185
1.21237
1.21283
1.21322
1.21355
1.21382
1.21405
1.21424
1.21441
1.21455
1.21467
1.21477
1.21486
1.21494
1.21501
1.21509
1.21515
1.21522
1.21528
1.21534
1.21538
1.21541
1.21542
1.21541
1.21538
1.21532
1.21523
1.2151
1.21495
1.21477
1.21456
1.21434
1.21408
1.21382
1.21353
1.21324
1.21295
1.21266
1.21236
1.21208
1.21179
1.21152
1.21125
1.21099
1.21073
1.21048
1.21023
1.20998
1.20972
1.20946
1.20919
1.2089
1.2086
1.20828
1.20795
1.20761
1.20725
1.20689
1.20652
1.20614
1.20577
1.20541
1.20505
1.20472
1.20439
1.20409
1.20383
1.20358
1.20336
1.20317
1.20302
1.2029
1.20283
1.20279
1.20278
1.2028
1.20284
1.20289
1.20296
1.20304
1.20313
1.20324
1.20335
1.20347
1.20359
1.20371
1.20383
1.20395
1.20408
1.2042
1.20432
1.20444
1.20455
1.20467
1.20478
1.20489
1.20499
1.20509
1.20518
1.20527
1.20535
1.20542
1.20548
1.2055
1.20557
1.20542
1.26563
1.26559
1.2657
1.26562
1.26554
1.26554
1.26542
1.2653
1.26519
1.26512
1.26525
1.26577
1.26683
1.26879
1.2717
1.27528
1.27854
1.28118
1.28301
1.28428
1.28542
1.28628
1.28738
1.28797
1.28835
1.28848
1.28814
1.28719
1.28543
1.28281
1.27958
1.27628
1.27348
1.27156
1.27061
1.27034
1.27035
1.27039
1.27044
1.27048
1.2705
1.27051
1.27053
1.27053
1.27053
1.27054
1.27055
1.27054
1.27052
1.2705
1.27048
1.27047
1.27044
1.27042
1.2704
1.27038
1.27035
1.27033
1.27031
1.27029
1.27027
1.27025
1.27022
1.2702
1.27018
1.27016
1.27014
1.27012
1.2701
1.27008
1.27005
1.27003
1.27001
1.26999
1.26996
1.26994
1.26992
1.26989
1.26987
1.26985
1.26983
1.26981
1.26979
1.26978
1.26976
1.26975
1.26973
1.26972
1.2697
1.26969
1.26968
1.26966
1.26965
1.26964
1.26963
1.26962
1.26961
1.2696
1.26959
1.26959
1.26958
1.26958
1.26958
1.26957
1.26957
1.26957
1.26957
1.26957
1.26957
1.26957
1.26957
1.26957
1.26957
1.26957
1.26957
1.26957
1.26957
1.26957
1.26957
1.26956
1.26956
1.26955
1.26954
1.26953
1.26952
1.2695
1.26948
1.26946
1.26944
1.26942
1.26939
1.26937
1.26934
1.26931
1.26928
1.26924
1.26921
1.26917
1.26913
1.26909
1.26905
1.26901
1.26897
1.26892
1.26888
1.26883
1.26878
1.26874
1.26868
1.26863
1.26858
1.26853
1.26847
1.26842
1.26836
1.2683
1.26825
1.26819
1.26813
1.26808
1.26802
1.26797
1.26791
1.26786
1.2678
1.26775
1.2677
1.26765
1.2676
1.26755
1.26751
1.26746
1.26742
1.26737
1.26733
1.26729
1.26724
1.2672
1.26716
1.26712
1.26709
1.26705
1.26701
1.26697
1.26694
1.26691
1.26687
1.26684
1.26681
1.26678
1.26675
1.26672
1.2667
1.26667
1.26665
1.26663
1.26661
1.26659
1.26657
1.26655
1.26653
1.26651
1.2665
1.26648
1.26647
1.26645
1.26643
1.26642
1.2664
1.26639
1.26637
1.26635
1.26634
1.26632
1.2663
1.26628
1.26627
1.26625
1.26623
1.26621
1.2662
1.26618
1.26617
1.26615
1.26614
1.26613
1.26611
1.2661
1.26609
1.26608
1.26607
1.26606
1.26606
1.26605
1.26604
1.26604
1.26603
1.26603
1.26602
1.26602
1.26602
1.26602
1.26602
1.26603
1.26604
1.26605
1.26606
1.26608
1.2661
1.26613
1.26616
1.26619
1.26623
1.26628
1.26632
1.26638
1.26643
1.2665
1.26656
1.26663
1.26671
1.26678
1.26686
1.26695
1.26704
1.26713
1.26722
1.26731
1.26741
1.26751
1.26761
1.26771
1.26782
1.26792
1.26803
1.26814
1.26825
1.26836
1.26848
1.26859
1.26871
1.26883
1.26895
1.26907
1.26919
1.26931
1.26944
1.26956
1.26968
1.26981
1.26993
1.27005
1.27017
1.27029
1.2704
1.27052
1.27063
1.27074
1.27085
1.27096
1.27106
1.27117
1.27127
1.27136
1.27145
1.27152
1.27157
1.27159
1.27159
1.27151
1.27135
1.27106
1.27064
1.27005
1.26927
1.2683
1.26714
1.26578
1.26422
1.26247
1.26055
1.25847
1.25625
1.2539
1.25144
1.24889
1.24627
1.2436
1.24089
1.23816
1.23543
1.2327
1.23
1.22734
1.22473
1.22219
1.21973
1.21736
1.21509
1.21292
1.21087
1.20894
1.20713
1.20545
1.2039
1.20249
1.20121
1.20007
1.19906
1.19819
1.19744
1.19682
1.19632
1.19591
1.19559
1.19533
1.19518
1.19511
1.1951
1.19513
1.19523
1.19536
1.19549
1.19562
1.19573
1.19582
1.19589
1.19596
1.19603
1.1961
1.19619
1.19631
1.19647
1.19668
1.19696
1.19731
1.19773
1.19824
1.19883
1.1995
1.20025
1.20106
1.20192
1.20282
1.20375
1.2047
1.20564
1.20658
1.20749
1.20836
1.20919
1.20997
1.21069
1.21134
1.21193
1.21245
1.21291
1.2133
1.21363
1.21391
1.21414
1.21434
1.21451
1.21466
1.21478
1.21489
1.21498
1.21507
1.21515
1.21522
1.21529
1.21535
1.21541
1.21546
1.2155
1.21552
1.21553
1.21551
1.21548
1.21541
1.2153
1.21517
1.215
1.21481
1.2146
1.21435
1.21409
1.21381
1.21352
1.21321
1.21291
1.2126
1.21229
1.21199
1.2117
1.21141
1.21113
1.21086
1.21059
1.21033
1.21007
1.20981
1.20954
1.20927
1.20899
1.2087
1.2084
1.20808
1.20776
1.20741
1.20706
1.20671
1.20634
1.20598
1.20562
1.20527
1.20493
1.2046
1.20429
1.20401
1.20375
1.20352
1.20332
1.20315
1.20302
1.20292
1.20285
1.20281
1.2028
1.20282
1.20285
1.20291
1.20297
1.20305
1.20315
1.20326
1.20337
1.20349
1.20362
1.20375
1.20388
1.20401
1.20414
1.20427
1.20439
1.20451
1.20464
1.20475
1.20486
1.20497
1.20507
1.20517
1.20526
1.20534
1.20541
1.20546
1.20552
1.20553
1.20558
1.20543
1.26565
1.26562
1.26572
1.26563
1.26553
1.26551
1.26537
1.26521
1.26511
1.26518
1.26579
1.26733
1.26991
1.27353
1.27762
1.2809
1.28311
1.28415
1.28494
1.28546
1.28633
1.28726
1.28819
1.2892
1.29011
1.29105
1.29176
1.29211
1.29193
1.29086
1.28865
1.28523
1.2809
1.27646
1.27303
1.27115
1.27049
1.27037
1.27039
1.27043
1.27044
1.27047
1.27049
1.27048
1.27047
1.27047
1.27047
1.27047
1.27046
1.27045
1.27045
1.27044
1.27042
1.27041
1.27039
1.27037
1.27035
1.27033
1.27031
1.27029
1.27027
1.27024
1.27022
1.2702
1.27018
1.27016
1.27014
1.27012
1.2701
1.27008
1.27006
1.27004
1.27001
1.26999
1.26997
1.26994
1.26992
1.2699
1.26988
1.26986
1.26984
1.26982
1.26981
1.26979
1.26977
1.26976
1.26975
1.26973
1.26972
1.2697
1.26969
1.26968
1.26967
1.26965
1.26964
1.26963
1.26963
1.26962
1.26961
1.26961
1.2696
1.2696
1.26959
1.26959
1.26959
1.26959
1.26959
1.26959
1.26958
1.26958
1.26959
1.26959
1.26959
1.26959
1.26959
1.26959
1.26959
1.26959
1.26958
1.26958
1.26957
1.26957
1.26956
1.26955
1.26953
1.26952
1.2695
1.26948
1.26946
1.26944
1.26941
1.26939
1.26936
1.26933
1.2693
1.26926
1.26923
1.26919
1.26916
1.26912
1.26908
1.26904
1.26899
1.26895
1.2689
1.26886
1.26881
1.26876
1.26871
1.26866
1.26861
1.26856
1.2685
1.26845
1.2684
1.26834
1.26828
1.26823
1.26817
1.26812
1.26806
1.26801
1.26796
1.26791
1.26785
1.2678
1.26775
1.26771
1.26766
1.26761
1.26757
1.26753
1.26748
1.26744
1.2674
1.26736
1.26732
1.26728
1.26725
1.26721
1.26717
1.26714
1.2671
1.26707
1.26704
1.26701
1.26697
1.26694
1.26692
1.26689
1.26686
1.26684
1.26681
1.26679
1.26677
1.26675
1.26673
1.26671
1.26669
1.26668
1.26666
1.26665
1.26663
1.26662
1.2666
1.26659
1.26657
1.26656
1.26654
1.26653
1.26651
1.26649
1.26648
1.26646
1.26644
1.26642
1.2664
1.26639
1.26637
1.26635
1.26633
1.26632
1.2663
1.26628
1.26627
1.26625
1.26624
1.26623
1.26621
1.2662
1.26619
1.26618
1.26617
1.26616
1.26615
1.26614
1.26613
1.26612
1.26612
1.26611
1.26611
1.2661
1.2661
1.2661
1.26611
1.26612
1.26613
1.26614
1.26616
1.26618
1.26621
1.26624
1.26627
1.26631
1.26636
1.26641
1.26646
1.26652
1.26658
1.26665
1.26672
1.2668
1.26687
1.26696
1.26704
1.26713
1.26722
1.26731
1.26741
1.2675
1.2676
1.2677
1.26781
1.26791
1.26802
1.26812
1.26823
1.26835
1.26846
1.26857
1.26869
1.26881
1.26893
1.26905
1.26917
1.26929
1.26941
1.26953
1.26965
1.26978
1.2699
1.27002
1.27013
1.27025
1.27036
1.27047
1.27058
1.27069
1.2708
1.2709
1.27101
1.27111
1.27121
1.2713
1.27138
1.27145
1.2715
1.27152
1.27152
1.27144
1.27127
1.27099
1.27056
1.26997
1.26919
1.26822
1.26705
1.26568
1.26412
1.26237
1.26045
1.25837
1.25614
1.25379
1.25133
1.24877
1.24614
1.24346
1.24074
1.23799
1.23525
1.23252
1.22981
1.22715
1.22454
1.222
1.21954
1.21717
1.2149
1.21273
1.21068
1.20875
1.20695
1.20527
1.20373
1.20232
1.20104
1.19991
1.19891
1.19804
1.1973
1.19669
1.19619
1.19579
1.19547
1.19521
1.19507
1.195
1.19499
1.19503
1.19514
1.19528
1.19542
1.19556
1.19569
1.1958
1.1959
1.19599
1.19607
1.19617
1.19628
1.19642
1.1966
1.19684
1.19713
1.19749
1.19793
1.19845
1.19905
1.19972
1.20046
1.20127
1.20212
1.20302
1.20394
1.20487
1.20581
1.20673
1.20763
1.20849
1.20931
1.21008
1.21079
1.21144
1.21203
1.21255
1.213
1.2134
1.21374
1.21402
1.21426
1.21447
1.21465
1.2148
1.21493
1.21504
1.21514
1.21523
1.21531
1.21538
1.21545
1.21552
1.21557
1.21562
1.21565
1.21566
1.21566
1.21564
1.21559
1.2155
1.21539
1.21524
1.21507
1.21486
1.21463
1.21438
1.2141
1.21381
1.2135
1.21318
1.21286
1.21254
1.21222
1.2119
1.21159
1.21129
1.211
1.21071
1.21043
1.21015
1.20988
1.20961
1.20934
1.20906
1.20877
1.20848
1.20818
1.20786
1.20754
1.20721
1.20686
1.20652
1.20617
1.20582
1.20547
1.20513
1.2048
1.20449
1.2042
1.20392
1.20368
1.20346
1.20327
1.20311
1.20298
1.20289
1.20283
1.20279
1.20278
1.2028
1.20284
1.20289
1.20296
1.20304
1.20314
1.20326
1.20338
1.20351
1.20365
1.20378
1.20392
1.20406
1.2042
1.20434
1.20447
1.2046
1.20473
1.20485
1.20496
1.20507
1.20517
1.20526
1.20534
1.20541
1.20547
1.20552
1.20556
1.20556
1.20559
1.20544
1.26567
1.26566
1.26576
1.26568
1.26557
1.26553
1.26538
1.2652
1.26516
1.26557
1.26703
1.27004
1.27414
1.27838
1.28121
1.28232
1.28249
1.28232
1.28184
1.28194
1.28257
1.28391
1.28576
1.28758
1.28926
1.2907
1.29183
1.29275
1.29348
1.29385
1.29354
1.29206
1.28898
1.28425
1.27881
1.27426
1.27157
1.27054
1.27035
1.27038
1.27041
1.27045
1.27047
1.27047
1.27046
1.27046
1.27046
1.27045
1.27044
1.27043
1.27042
1.27041
1.2704
1.27038
1.27037
1.27035
1.27033
1.27031
1.27029
1.27027
1.27025
1.27023
1.27021
1.27019
1.27017
1.27015
1.27013
1.27011
1.27009
1.27007
1.27005
1.27003
1.27001
1.26999
1.26997
1.26994
1.26992
1.2699
1.26988
1.26986
1.26984
1.26982
1.26981
1.26979
1.26978
1.26976
1.26975
1.26973
1.26972
1.26971
1.26969
1.26968
1.26967
1.26966
1.26965
1.26964
1.26963
1.26962
1.26962
1.26961
1.26961
1.2696
1.2696
1.2696
1.2696
1.2696
1.26959
1.26959
1.26959
1.26959
1.26959
1.2696
1.2696
1.2696
1.2696
1.2696
1.2696
1.2696
1.26959
1.26959
1.26959
1.26958
1.26957
1.26956
1.26955
1.26953
1.26951
1.2695
1.26948
1.26945
1.26943
1.2694
1.26938
1.26935
1.26932
1.26928
1.26925
1.26921
1.26918
1.26914
1.2691
1.26906
1.26902
1.26897
1.26893
1.26889
1.26884
1.26879
1.26874
1.26869
1.26864
1.26859
1.26854
1.26849
1.26843
1.26838
1.26833
1.26827
1.26822
1.26816
1.26811
1.26806
1.26801
1.26796
1.26791
1.26786
1.26781
1.26777
1.26772
1.26768
1.26764
1.2676
1.26756
1.26752
1.26748
1.26744
1.26741
1.26737
1.26734
1.2673
1.26727
1.26724
1.26721
1.26718
1.26715
1.26712
1.26709
1.26706
1.26704
1.26701
1.26699
1.26697
1.26694
1.26692
1.2669
1.26689