/*--------------------------------*- C++ -*----------------------------------*\
| =========                 |                                                 |
| \\      /  F ield         | OpenFOAM: The Open Source CFD Toolbox           |
|  \\    /   O peration     | Version:  v1812                                 |
|   \\  /    A nd           | Web:      www.OpenFOAM.com                      |
|    \\/     M anipulation  |                                                 |
\*---------------------------------------------------------------------------*/
FoamFile
{
    version     2.0;
    format      ascii;
    class       volScalarField;
    location    "0.1";
    object      T;
}
// * * * * * * * * * * * * * * * * * * * * * * * * * * * * * * * * * * * * * //

dimensions      [0 0 0 1 0 0 0];


internalField   nonuniform List<scalar> 
20400
(
298.909
298.908
298.912
298.913
298.912
298.914
298.916
298.919
298.923
298.926
298.932
298.938
298.942
298.948
298.951
298.96
298.97
298.982
298.986
298.975
299.018
299.05
299.086
299.111
299.136
299.167
299.221
299.283
299.282
299.305
299.33
299.356
299.38
299.401
299.417
299.432
299.446
299.457
299.467
299.476
299.484
299.49
299.495
299.499
299.502
299.506
299.509
299.511
299.512
299.513
299.514
299.514
299.514
299.514
299.513
299.513
299.512
299.512
299.511
299.509
299.508
299.507
299.506
299.505
299.503
299.502
299.5
299.499
299.497
299.496
299.494
299.492
299.491
299.489
299.487
299.485
299.483
299.481
299.479
299.477
299.476
299.474
299.472
299.471
299.469
299.467
299.466
299.464
299.463
299.462
299.46
299.459
299.458
299.456
299.455
299.454
299.453
299.453
299.452
299.451
299.451
299.45
299.45
299.449
299.449
299.449
299.449
299.448
299.448
299.448
299.448
299.448
299.448
299.448
299.448
299.448
299.448
299.448
299.447
299.447
299.446
299.445
299.444
299.443
299.442
299.44
299.438
299.436
299.434
299.431
299.429
299.426
299.423
299.42
299.417
299.413
299.41
299.406
299.402
299.398
299.394
299.39
299.385
299.381
299.376
299.371
299.367
299.362
299.356
299.351
299.346
299.34
299.335
299.329
299.323
299.317
299.311
299.306
299.3
299.294
299.288
299.282
299.276
299.271
299.265
299.26
299.254
299.249
299.244
299.239
299.234
299.229
299.224
299.219
299.215
299.21
299.206
299.201
299.197
299.192
299.188
299.184
299.18
299.176
299.172
299.168
299.164
299.161
299.157
299.154
299.151
299.148
299.145
299.142
299.14
299.137
299.135
299.132
299.13
299.128
299.126
299.124
299.122
299.121
299.119
299.117
299.115
299.114
299.112
299.11
299.109
299.107
299.105
299.103
299.102
299.1
299.098
299.097
299.095
299.094
299.093
299.092
299.091
299.09
299.089
299.088
299.088
299.087
299.087
299.087
299.087
299.087
299.087
299.087
299.087
299.088
299.088
299.089
299.09
299.09
299.091
299.092
299.094
299.095
299.097
299.099
299.101
299.104
299.107
299.11
299.114
299.118
299.123
299.128
299.133
299.139
299.145
299.152
299.159
299.166
299.174
299.181
299.19
299.198
299.207
299.215
299.224
299.234
299.243
299.253
299.262
299.272
299.282
299.292
299.303
299.313
299.324
299.335
299.346
299.357
299.368
299.379
299.391
299.402
299.414
299.426
299.438
299.449
299.461
299.473
299.485
299.497
299.508
299.52
299.531
299.542
299.553
299.564
299.575
299.585
299.596
299.606
299.616
299.625
299.634
299.641
299.646
299.648
299.648
299.641
299.627
299.602
299.564
299.512
299.443
299.356
299.25
299.126
298.984
298.824
298.647
298.455
298.249
298.03
297.8
297.562
297.316
297.064
296.809
296.551
296.291
296.033
295.777
295.524
295.276
295.033
294.798
294.571
294.354
294.145
293.948
293.761
293.586
293.424
293.273
293.135
293.01
292.899
292.799
292.713
292.637
292.574
292.525
292.486
292.455
292.431
292.415
292.407
292.406
292.41
292.418
292.43
292.443
292.456
292.467
292.475
292.483
292.488
292.494
292.499
292.506
292.516
292.53
292.549
292.574
292.607
292.647
292.697
292.754
292.821
292.894
292.975
293.062
293.153
293.248
293.345
293.442
293.539
293.633
293.724
293.81
293.891
293.966
294.034
294.096
294.15
294.198
294.238
294.273
294.301
294.325
294.346
294.362
294.377
294.389
294.4
294.409
294.417
294.425
294.432
294.44
294.447
294.454
294.461
294.467
294.472
294.475
294.476
294.476
294.474
294.468
294.459
294.448
294.434
294.418
294.399
294.379
294.357
294.333
294.309
294.285
294.26
294.236
294.212
294.189
294.167
294.145
294.124
294.103
294.083
294.063
294.043
294.022
294
293.976
293.951
293.925
293.896
293.865
293.832
293.797
293.761
293.724
293.685
293.647
293.609
293.572
293.536
293.501
293.469
293.44
293.414
293.39
293.37
293.353
293.339
293.329
293.322
293.318
293.317
293.318
293.322
293.328
293.334
293.342
293.351
293.361
293.372
293.384
293.395
293.407
293.42
293.433
293.446
293.46
293.474
293.489
293.504
293.519
293.535
293.551
293.567
293.583
293.6
293.616
293.632
293.647
293.661
293.673
293.696
298.912
298.902
298.912
298.917
298.918
298.923
298.928
298.932
298.937
298.939
298.939
298.937
298.929
298.92
298.905
298.894
298.883
298.878
298.886
298.926
298.957
298.993
299.039
299.069
299.104
299.143
299.183
299.197
299.247
299.301
299.316
299.325
299.339
299.357
299.374
299.39
299.403
299.413
299.422
299.431
299.437
299.443
299.447
299.451
299.454
299.457
299.46
299.462
299.464
299.465
299.467
299.467
299.468
299.468
299.468
299.468
299.467
299.466
299.466
299.465
299.464
299.463
299.462
299.461
299.46
299.458
299.457
299.456
299.454
299.453
299.451
299.45
299.448
299.446
299.444
299.442
299.44
299.439
299.437
299.435
299.433
299.431
299.43
299.428
299.426
299.425
299.423
299.422
299.42
299.419
299.418
299.416
299.415
299.414
299.413
299.412
299.411
299.41
299.409
299.408
299.408
299.407
299.407
299.406
299.406
299.406
299.405
299.405
299.405
299.405
299.405
299.405
299.405
299.405
299.405
299.404
299.404
299.404
299.404
299.403
299.402
299.401
299.4
299.399
299.397
299.396
299.394
299.392
299.39
299.387
299.384
299.382
299.379
299.376
299.372
299.369
299.365
299.361
299.358
299.354
299.349
299.345
299.341
299.336
299.332
299.327
299.322
299.317
299.312
299.306
299.301
299.295
299.29
299.284
299.278
299.273
299.267
299.261
299.255
299.249
299.243
299.237
299.232
299.226
299.22
299.215
299.209
299.204
299.199
299.194
299.189
299.184
299.179
299.174
299.17
299.165
299.16
299.156
299.152
299.147
299.143
299.139
299.135
299.131
299.127
299.123
299.119
299.116
299.112
299.109
299.106
299.103
299.1
299.097
299.094
299.092
299.089
299.087
299.085
299.083
299.081
299.079
299.077
299.075
299.073
299.072
299.07
299.068
299.066
299.065
299.063
299.061
299.059
299.058
299.056
299.054
299.052
299.051
299.049
299.048
299.046
299.045
299.044
299.043
299.042
299.041
299.041
299.04
299.04
299.039
299.039
299.039
299.039
299.039
299.039
299.04
299.04
299.04
299.041
299.042
299.042
299.043
299.044
299.046
299.047
299.049
299.051
299.054
299.057
299.06
299.064
299.068
299.072
299.077
299.082
299.088
299.094
299.1
299.107
299.114
299.122
299.129
299.137
299.145
299.154
299.163
299.171
299.181
299.19
299.199
299.209
299.219
299.228
299.238
299.249
299.259
299.269
299.28
299.291
299.302
299.313
299.324
299.335
299.347
299.358
299.37
299.382
299.393
299.405
299.417
299.428
299.44
299.451
299.463
299.474
299.485
299.496
299.506
299.517
299.527
299.538
299.548
299.558
299.567
299.575
299.582
299.587
299.589
299.589
299.582
299.568
299.543
299.505
299.453
299.383
299.296
299.19
299.066
298.923
298.762
298.584
298.391
298.184
297.965
297.734
297.494
297.247
296.994
296.736
296.476
296.215
295.954
295.695
295.439
295.187
294.942
294.703
294.472
294.25
294.038
293.837
293.646
293.467
293.3
293.145
293.003
292.874
292.758
292.655
292.564
292.486
292.42
292.366
292.323
292.288
292.26
292.242
292.231
292.227
292.227
292.233
292.242
292.252
292.261
292.268
292.274
292.278
292.281
292.283
292.286
292.29
292.297
292.308
292.324
292.347
292.378
292.416
292.463
292.519
292.584
292.656
292.735
292.821
292.911
293.004
293.1
293.196
293.292
293.385
293.475
293.56
293.64
293.714
293.782
293.843
293.897
293.944
293.985
294.019
294.048
294.072
294.093
294.11
294.124
294.137
294.148
294.158
294.166
294.174
294.183
294.19
294.198
294.206
294.213
294.219
294.224
294.227
294.229
294.229
294.226
294.22
294.211
294.2
294.185
294.168
294.149
294.128
294.105
294.081
294.056
294.03
294.004
293.979
293.953
293.929
293.904
293.881
293.858
293.836
293.814
293.792
293.77
293.747
293.723
293.698
293.671
293.643
293.612
293.58
293.546
293.51
293.473
293.435
293.396
293.357
293.319
293.282
293.246
293.211
293.18
293.151
293.126
293.103
293.084
293.068
293.056
293.046
293.04
293.036
293.036
293.038
293.042
293.047
293.054
293.062
293.071
293.08
293.091
293.102
293.112
293.124
293.135
293.147
293.158
293.171
293.183
293.196
293.209
293.222
293.236
293.249
293.262
293.275
293.288
293.301
293.313
293.325
293.336
293.342
293.37
298.915
298.909
298.913
298.914
298.912
298.914
298.913
298.912
298.909
298.903
298.895
298.885
298.868
298.85
298.822
298.8
298.776
298.759
298.75
298.751
298.768
298.784
298.819
298.87
298.934
299.003
299.065
299.135
299.169
299.224
299.259
299.287
299.312
299.331
299.347
299.36
299.371
299.379
299.385
299.39
299.394
299.397
299.4
299.402
299.404
299.405
299.407
299.409
299.41
299.41
299.411
299.411
299.411
299.411
299.411
299.411
299.41
299.41
299.409
299.408
299.408
299.407
299.406
299.405
299.404
299.402
299.401
299.399
299.398
299.396
299.395
299.393
299.391
299.39
299.388
299.386
299.384
299.382
299.38
299.379
299.377
299.375
299.373
299.372
299.37
299.369
299.367
299.366
299.364
299.363
299.362
299.36
299.359
299.358
299.357
299.356
299.355
299.354
299.353
299.352
299.352
299.351
299.35
299.35
299.35
299.349
299.349
299.349
299.348
299.348
299.348
299.348
299.348
299.348
299.348
299.348
299.348
299.347
299.347
299.346
299.345
299.344
299.343
299.342
299.34
299.339
299.337
299.335
299.333
299.33
299.327
299.325
299.322
299.319
299.315
299.312
299.308
299.304
299.301
299.297
299.293
299.288
299.284
299.279
299.275
299.27
299.265
299.26
299.255
299.25
299.244
299.239
299.233
299.227
299.222
299.216
299.21
299.204
299.198
299.193
299.187
299.181
299.175
299.17
299.164
299.159
299.153
299.148
299.143
299.138
299.133
299.128
299.123
299.118
299.114
299.109
299.105
299.1
299.096
299.092
299.087
299.083
299.079
299.075
299.072
299.068
299.064
299.061
299.057
299.054
299.051
299.048
299.045
299.042
299.04
299.037
299.035
299.032
299.03
299.028
299.026
299.024
299.022
299.02
299.018
299.017
299.015
299.013
299.012
299.01
299.008
299.006
299.004
299.003
299.001
298.999
298.997
298.996
298.994
298.993
298.991
298.99
298.989
298.988
298.987
298.986
298.985
298.985
298.984
298.984
298.983
298.983
298.983
298.983
298.983
298.983
298.983
298.983
298.984
298.984
298.985
298.986
298.987
298.988
298.989
298.991
298.993
298.995
298.998
299.001
299.005
299.009
299.013
299.018
299.023
299.028
299.034
299.04
299.047
299.054
299.061
299.069
299.077
299.085
299.093
299.102
299.111
299.12
299.129
299.138
299.148
299.158
299.167
299.177
299.188
299.198
299.208
299.219
299.23
299.241
299.252
299.263
299.274
299.286
299.297
299.309
299.32
299.332
299.344
299.355
299.367
299.378
299.39
299.401
299.412
299.423
299.434
299.444
299.455
299.465
299.475
299.485
299.495
299.504
299.512
299.519
299.524
299.527
299.526
299.52
299.506
299.481
299.444
299.391
299.322
299.234
299.128
299.003
298.86
298.699
298.521
298.328
298.12
297.9
297.67
297.429
297.182
296.928
296.67
296.41
296.148
295.887
295.628
295.372
295.12
294.874
294.635
294.405
294.183
293.971
293.769
293.578
293.399
293.232
293.078
292.936
292.808
292.692
292.59
292.5
292.422
292.357
292.304
292.261
292.227
292.199
292.181
292.171
292.168
292.169
292.174
292.184
292.194
292.203
292.21
292.216
292.22
292.223
292.225
292.227
292.231
292.238
292.248
292.264
292.287
292.317
292.355
292.401
292.456
292.52
292.591
292.67
292.754
292.843
292.936
293.03
293.125
293.219
293.311
293.399
293.483
293.562
293.635
293.701
293.761
293.814
293.86
293.899
293.932
293.96
293.983
294.003
294.019
294.033
294.045
294.055
294.063
294.071
294.078
294.085
294.092
294.099
294.106
294.112
294.117
294.121
294.123
294.124
294.122
294.118
294.111
294.101
294.088
294.073
294.055
294.034
294.012
293.987
293.962
293.936
293.909
293.882
293.856
293.829
293.803
293.778
293.753
293.729
293.706
293.683
293.66
293.636
293.612
293.588
293.561
293.534
293.504
293.473
293.44
293.405
293.368
293.33
293.292
293.253
293.213
293.175
293.137
293.101
293.066
293.034
293.005
292.979
292.957
292.937
292.92
292.907
292.898
292.891
292.888
292.887
292.888
292.892
292.897
292.903
292.91
292.919
292.928
292.938
292.948
292.958
292.969
292.98
292.991
293.002
293.014
293.025
293.037
293.049
293.061
293.073
293.086
293.098
293.109
293.121
293.132
293.142
293.152
293.161
293.165
293.192
298.92
298.917
298.921
298.921
298.918
298.919
298.914
298.907
298.9
298.886
298.869
298.847
298.811
298.759
298.667
298.551
298.397
298.23
298.075
297.94
297.847
297.784
297.771
297.896
298.069
298.272
298.498
298.738
298.924
299.083
299.2
299.273
299.313
299.335
299.349
299.358
299.366
299.371
299.375
299.377
299.378
299.379
299.379
299.379
299.378
299.378
299.379
299.379
299.378
299.378
299.377
299.377
299.376
299.375
299.374
299.372
299.371
299.37
299.369
299.368
299.367
299.365
299.364
299.363
299.362
299.361
299.359
299.358
299.356
299.355
299.354
299.352
299.35
299.348
299.347
299.345
299.343
299.341
299.339
299.337
299.335
299.333
299.332
299.33
299.328
299.327
299.325
299.324
299.323
299.321
299.32
299.319
299.317
299.316
299.315
299.314
299.313
299.312
299.311
299.311
299.31
299.31
299.309
299.309
299.308
299.308
299.308
299.308
299.307
299.307
299.307
299.307
299.307
299.307
299.307
299.307
299.307
299.306
299.306
299.305
299.305
299.304
299.303
299.301
299.3
299.298
299.296
299.294
299.292
299.29
299.287
299.284
299.282
299.279
299.275
299.272
299.268
299.265
299.261
299.257
299.253
299.249
299.245
299.24
299.236
299.231
299.226
299.221
299.216
299.211
299.206
299.2
299.195
299.189
299.184
299.178
299.172
299.167
299.161
299.155
299.15
299.144
299.138
299.133
299.128
299.122
299.117
299.112
299.107
299.102
299.097
299.092
299.088
299.083
299.079
299.074
299.07
299.066
299.061
299.057
299.053
299.049
299.045
299.042
299.038
299.035
299.031
299.028
299.025
299.022
299.019
299.016
299.013
299.01
299.008
299.005
299.003
299.001
298.999
298.997
298.995
298.993
298.991
298.989
298.988
298.986
298.984
298.983
298.981
298.98
298.978
298.976
298.974
298.973
298.971
298.969
298.968
298.966
298.964
298.963
298.962
298.96
298.959
298.958
298.957
298.956
298.955
298.955
298.954
298.953
298.953
298.953
298.952
298.952
298.952
298.952
298.952
298.952
298.952
298.953
298.953
298.954
298.955
298.956
298.957
298.959
298.961
298.963
298.966
298.969
298.972
298.976
298.98
298.985
298.99
298.995
299.001
299.007
299.014
299.021
299.028
299.036
299.044
299.052
299.06
299.069
299.078
299.087
299.096
299.105
299.115
299.125
299.134
299.144
299.155
299.165
299.176
299.186
299.197
299.208
299.219
299.23
299.242
299.253
299.265
299.276
299.288
299.3
299.311
299.323
299.334
299.346
299.357
299.369
299.38
299.39
299.401
299.412
299.422
299.432
299.443
299.453
299.462
299.471
299.479
299.486
299.491
299.494
299.494
299.488
299.473
299.449
299.412
299.359
299.289
299.202
299.096
298.971
298.827
298.666
298.488
298.294
298.086
297.866
297.635
297.394
297.147
296.893
296.635
296.374
296.112
295.85
295.591
295.334
295.083
294.836
294.597
294.367
294.145
293.933
293.731
293.541
293.362
293.196
293.042
292.9
292.772
292.657
292.555
292.466
292.389
292.325
292.272
292.23
292.196
292.168
292.151
292.142
292.139
292.14
292.146
292.157
292.167
292.177
292.186
292.193
292.198
292.201
292.204
292.208
292.213
292.221
292.233
292.25
292.273
292.304
292.343
292.39
292.445
292.509
292.581
292.659
292.743
292.832
292.924
293.018
293.113
293.206
293.298
293.386
293.469
293.548
293.621
293.687
293.747
293.799
293.845
293.885
293.918
293.946
293.97
293.989
294.006
294.02
294.032
294.042
294.051
294.059
294.066
294.073
294.08
294.087
294.093
294.099
294.104
294.108
294.11
294.11
294.108
294.104
294.096
294.086
294.072
294.056
294.037
294.017
293.993
293.969
293.942
293.915
293.888
293.86
293.832
293.805
293.778
293.752
293.726
293.702
293.678
293.654
293.63
293.606
293.582
293.556
293.53
293.501
293.472
293.44
293.407
293.372
293.336
293.299
293.261
293.222
293.184
293.146
293.109
293.073
293.04
293.008
292.98
292.955
292.932
292.914
292.899
292.887
292.877
292.871
292.868
292.867
292.869
292.872
292.877
292.884
292.891
292.9
292.91
292.92
292.931
292.942
292.953
292.964
292.975
292.986
292.998
293.009
293.021
293.033
293.044
293.056
293.067
293.078
293.089
293.099
293.109
293.119
293.127
293.134
293.137
293.162
298.922
298.917
298.92
298.92
298.915
298.914
298.909
298.9
298.891
298.87
298.834
298.774
298.661
298.471
298.149
297.71
297.182
296.662
296.227
295.903
295.683
295.534
295.478
295.591
295.814
296.121
296.523
297.029
297.582
298.139
298.631
298.987
299.2
299.307
299.348
299.363
299.371
299.374
299.375
299.375
299.375
299.374
299.373
299.372
299.371
299.37
299.37
299.369
299.368
299.366
299.365
299.363
299.361
299.36
299.358
299.356
299.355
299.353
299.352
299.35
299.349
299.347
299.345
299.344
299.342
299.341
299.339
299.337
299.335
299.333
299.332
299.33
299.328
299.327
299.325
299.323
299.321
299.319
299.317
299.316
299.314
299.312
299.311
299.309
299.308
299.306
299.305
299.303
299.302
299.301
299.299
299.298
299.297
299.296
299.295
299.294
299.293
299.292
299.291
299.291
299.29
299.29
299.289
299.289
299.289
299.288
299.288
299.288
299.288
299.288
299.288
299.287
299.287
299.287
299.287
299.287
299.287
299.287
299.287
299.286
299.285
299.285
299.284
299.282
299.281
299.279
299.278
299.276
299.274
299.271
299.269
299.266
299.263
299.26
299.257
299.254
299.25
299.247
299.243
299.239
299.235
299.231
299.227
299.223
299.218
299.214
299.209
299.204
299.2
299.195
299.189
299.184
299.179
299.173
299.168
299.162
299.157
299.151
299.146
299.14
299.135
299.129
299.124
299.119
299.113
299.108
299.103
299.098
299.094
299.089
299.084
299.08
299.075
299.071
299.066
299.062
299.058
299.054
299.05
299.046
299.042
299.039
299.035
299.031
299.028
299.025
299.021
299.018
299.015
299.012
299.01
299.007
299.004
299.002
299
298.997
298.995
298.993
298.991
298.989
298.988
298.986
298.984
298.983
298.981
298.98
298.978
298.976
298.975
298.973
298.972
298.97
298.968
298.967
298.965
298.964
298.962
298.961
298.959
298.958
298.956
298.955
298.954
298.953
298.951
298.951
298.95
298.949
298.948
298.948
298.947
298.946
298.946
298.946
298.945
298.945
298.945
298.945
298.945
298.945
298.945
298.946
298.946
298.947
298.948
298.95
298.952
298.954
298.956
298.959
298.962
298.966
298.97
298.974
298.979
298.984
298.99
298.996
299.003
299.009
299.017
299.024
299.032
299.04
299.048
299.057
299.066
299.075
299.084
299.093
299.103
299.113
299.123
299.133
299.143
299.153
299.164
299.174
299.185
299.196
299.207
299.218
299.23
299.241
299.253
299.264
299.276
299.288
299.299
299.311
299.323
299.334
299.345
299.357
299.368
299.378
299.389
299.399
299.41
299.42
299.43
299.44
299.449
299.458
299.466
299.473
299.478
299.481
299.481
299.475
299.461
299.437
299.4
299.347
299.277
299.19
299.083
298.958
298.815
298.653
298.474
298.28
298.072
297.851
297.619
297.378
297.129
296.875
296.616
296.355
296.093
295.831
295.571
295.315
295.063
294.817
294.578
294.347
294.125
293.914
293.712
293.522
293.344
293.178
293.024
292.883
292.756
292.641
292.539
292.451
292.375
292.311
292.259
292.217
292.183
292.156
292.139
292.131
292.128
292.13
292.137
292.148
292.16
292.172
292.181
292.189
292.196
292.201
292.205
292.21
292.217
292.226
292.24
292.258
292.283
292.314
292.354
292.402
292.458
292.522
292.593
292.672
292.755
292.844
292.935
293.029
293.122
293.215
293.305
293.393
293.475
293.553
293.625
293.691
293.751
293.803
293.849
293.889
293.922
293.95
293.974
293.994
294.011
294.025
294.038
294.048
294.057
294.066
294.074
294.081
294.088
294.095
294.101
294.106
294.111
294.114
294.115
294.115
294.113
294.108
294.1
294.088
294.074
294.057
294.038
294.016
293.992
293.966
293.939
293.912
293.883
293.855
293.826
293.798
293.771
293.744
293.718
293.692
293.667
293.643
293.618
293.593
293.568
293.543
293.516
293.488
293.458
293.427
293.394
293.36
293.325
293.288
293.251
293.213
293.176
293.139
293.103
293.068
293.035
293.004
292.976
292.951
292.928
292.909
292.893
292.88
292.872
292.866
292.864
292.864
292.866
292.871
292.876
292.883
292.891
292.901
292.911
292.922
292.933
292.945
292.957
292.969
292.981
292.993
293.005
293.017
293.03
293.042
293.054
293.065
293.077
293.088
293.098
293.108
293.118
293.126
293.134
293.139
293.142
293.165
298.927
298.921
298.922
298.921
298.915
298.914
298.91
298.903
298.89
298.85
298.758
298.581
298.252
297.724
296.972
296.131
295.329
294.722
294.333
294.103
293.962
293.863
293.826
293.822
293.91
294.062
294.314
294.7
295.25
295.976
296.841
297.711
298.451
298.966
299.237
299.34
299.368
299.374
299.375
299.374
299.372
299.37
299.37
299.368
299.368
299.367
299.367
299.366
299.365
299.363
299.362
299.36
299.358
299.356
299.354
299.352
299.35
299.348
299.347
299.345
299.343
299.341
299.339
299.337
299.335
299.334
299.332
299.33
299.329
299.327
299.325
299.324
299.322
299.32
299.318
299.316
299.314
299.312
299.31
299.308
299.306
299.305
299.303
299.301
299.3
299.299
299.297
299.296
299.295
299.293
299.292
299.291
299.29
299.289
299.288
299.287
299.286
299.285
299.284
299.284
299.283
299.283
299.282
299.282
299.282
299.282
299.281
299.281
299.281
299.281
299.281
299.281
299.281
299.281
299.281
299.281
299.281
299.281
299.28
299.28
299.279
299.279
299.278
299.277
299.275
299.274
299.272
299.27
299.268
299.266
299.263
299.261
299.258
299.255
299.252
299.249
299.246
299.242
299.239
299.235
299.231
299.227
299.223
299.219
299.215
299.21
299.206
299.201
299.196
299.191
299.186
299.181
299.176
299.171
299.165
299.16
299.154
299.149
299.144
299.138
299.133
299.128
299.123
299.118
299.113
299.108
299.103
299.098
299.093
299.089
299.085
299.08
299.076
299.072
299.068
299.064
299.06
299.056
299.052
299.048
299.045
299.041
299.038
299.035
299.031
299.028
299.025
299.022
299.02
299.017
299.014
299.012
299.009
299.007
299.005
299.003
299.001
298.999
298.997
298.995
298.994
298.992
298.991
298.989
298.988
298.986
298.985
298.983
298.982
298.981
298.979
298.978
298.976
298.974
298.973
298.971
298.97
298.968
298.967
298.965
298.964
298.962
298.961
298.96
298.958
298.957
298.956
298.955
298.954
298.953
298.952
298.952
298.951
298.95
298.95
298.949
298.949
298.949
298.948
298.948
298.948
298.948
298.949
298.949
298.95
298.951
298.953
298.955
298.957
298.959
298.962
298.966
298.969
298.974
298.979
298.984
298.989
298.995
299.001
299.008
299.015
299.022
299.03
299.038
299.047
299.055
299.064
299.073
299.082
299.091
299.101
299.11
299.12
299.13
299.14
299.151
299.161
299.172
299.183
299.194
299.205
299.216
299.227
299.238
299.25
299.261
299.273
299.285
299.296
299.308
299.319
299.331
299.342
299.353
299.364
299.374
299.385
299.395
299.405
299.415
299.425
299.435
299.444
299.453
299.461
299.468
299.473
299.476
299.476
299.47
299.456
299.431
299.394
299.341
299.271
299.183
299.076
298.951
298.807
298.645
298.465
298.271
298.062
297.84
297.608
297.366
297.117
296.863
296.604
296.343
296.08
295.818
295.557
295.3
295.047
294.801
294.561
294.33
294.108
293.896
293.695
293.505
293.327
293.161
293.008
292.867
292.74
292.626
292.525
292.437
292.362
292.299
292.247
292.206
292.173
292.146
292.13
292.122
292.119
292.122
292.13
292.142
292.155
292.168
292.179
292.188
292.196
292.203
292.21
292.216
292.225
292.236
292.251
292.271
292.298
292.331
292.371
292.42
292.476
292.541
292.612
292.69
292.774
292.861
292.952
293.044
293.137
293.228
293.318
293.404
293.486
293.563
293.635
293.7
293.759
293.811
293.857
293.897
293.931
293.959
293.984
294.004
294.022
294.037
294.05
294.061
294.07
294.079
294.087
294.095
294.102
294.109
294.115
294.12
294.124
294.127
294.128
294.127
294.124
294.118
294.109
294.096
294.081
294.063
294.043
294.02
293.995
293.968
293.94
293.91
293.881
293.851
293.821
293.792
293.763
293.735
293.708
293.681
293.656
293.63
293.604
293.579
293.553
293.526
293.499
293.47
293.44
293.409
293.377
293.343
293.308
293.273
293.236
293.2
293.163
293.127
293.093
293.059
293.028
292.999
292.972
292.948
292.928
292.909
292.895
292.884
292.876
292.871
292.868
292.868
292.871
292.875
292.881
292.887
292.896
292.906
292.917
292.928
292.94
292.952
292.965
292.978
292.99
293.003
293.016
293.029
293.041
293.053
293.065
293.077
293.088
293.099
293.109
293.118
293.127
293.134
293.141
293.145
293.146
293.168
298.932
298.924
298.922
298.921
298.913
298.911
298.907
298.896
298.872
298.786
298.563
298.133
297.426
296.481
295.479
294.645
294.12
293.855
293.72
293.637
293.569
293.508
293.433
293.39
293.366
293.348
293.382
293.483
293.693
294.078
294.709
295.601
296.69
297.793
298.649
299.133
299.324
299.369
299.376
299.376
299.373
299.371
299.37
299.368
299.365
299.364
299.363
299.363
299.361
299.36
299.359
299.358
299.356
299.355
299.353
299.351
299.349
299.347
299.345
299.343
299.341
299.339
299.337
299.336
299.334
299.332
299.33
299.328
299.327
299.325
299.323
299.321
299.32
299.318
299.316
299.314
299.312
299.31
299.308
299.306
299.305
299.303
299.301
299.3
299.299
299.297
299.296
299.295
299.293
299.292
299.291
299.29
299.289
299.288
299.287
299.286
299.285
299.284
299.283
299.283
299.282
299.282
299.282
299.281
299.281
299.281
299.281
299.281
299.28
299.28
299.28
299.28
299.28
299.28
299.28
299.28
299.28
299.28
299.28
299.279
299.279
299.278
299.277
299.276
299.275
299.273
299.272
299.27
299.268
299.266
299.263
299.261
299.258
299.255
299.252
299.249
299.246
299.243
299.239
299.235
299.232
299.228
299.224
299.22
299.215
299.211
299.206
299.202
299.197
299.192
299.187
299.182
299.177
299.172
299.167
299.162
299.157
299.151
299.146
299.141
299.136
299.131
299.126
299.121
299.116
299.111
299.107
299.102
299.098
299.093
299.089
299.085
299.081
299.077
299.073
299.07
299.066
299.062
299.059
299.055
299.052
299.049
299.046
299.043
299.04
299.037
299.034
299.031
299.029
299.026
299.024
299.022
299.02
299.017
299.015
299.014
299.012
299.01
299.008
299.007
299.005
299.004
299.002
299.001
299
298.998
298.997
298.996
298.994
298.993
298.992
298.99
298.988
298.987
298.985
298.984
298.982
298.98
298.979
298.977
298.976
298.974
298.973
298.971
298.97
298.969
298.967
298.966
298.965
298.964
298.963
298.962
298.961
298.96
298.959
298.958
298.958
298.957
298.957
298.956
298.956
298.956
298.956
298.956
298.957
298.957
298.958
298.96
298.962
298.964
298.966
298.97
298.973
298.977
298.981
298.986
298.992
298.997
299.003
299.01
299.016
299.024
299.031
299.039
299.047
299.055
299.064
299.073
299.082
299.091
299.1
299.11
299.119
299.129
299.139
299.149
299.16
299.17
299.181
299.192
299.203
299.214
299.225
299.236
299.248
299.259
299.271
299.282
299.294
299.305
299.316
299.327
299.338
299.349
299.36
299.37
299.381
299.391
299.401
299.41
299.42
299.43
299.439
299.447
299.455
299.462
299.467
299.469
299.469
299.463
299.449
299.425
299.387
299.333
299.263
299.175
299.068
298.942
298.797
298.635
298.456
298.261
298.052
297.83
297.597
297.355
297.105
296.849
296.589
296.326
296.063
295.8
295.539
295.282
295.029
294.783
294.543
294.312
294.09
293.878
293.677
293.487
293.309
293.144
292.991
292.851
292.724
292.611
292.511
292.423
292.349
292.286
292.236
292.195
292.162
292.136
292.12
292.112
292.11
292.113
292.122
292.136
292.15
292.164
292.176
292.187
292.197
292.206
292.215
292.224
292.235
292.248
292.265
292.287
292.315
292.35
292.392
292.441
292.498
292.562
292.634
292.712
292.794
292.881
292.971
293.062
293.154
293.244
293.332
293.417
293.498
293.575
293.645
293.71
293.769
293.821
293.867
293.907
293.941
293.971
293.995
294.017
294.035
294.05
294.064
294.076
294.086
294.095
294.103
294.111
294.118
294.125
294.131
294.135
294.139
294.141
294.141
294.139
294.135
294.128
294.118
294.104
294.088
294.069
294.047
294.023
293.996
293.968
293.939
293.908
293.877
293.846
293.815
293.784
293.754
293.724
293.696
293.668
293.64
293.613
293.586
293.56
293.533
293.506
293.478
293.449
293.419
293.388
293.356
293.323
293.289
293.254
293.219
293.184
293.149
293.114
293.081
293.049
293.019
292.991
292.965
292.942
292.923
292.906
292.892
292.882
292.875
292.87
292.868
292.868
292.871
292.875
292.88
292.888
292.897
292.907
292.919
292.931
292.944
292.957
292.971
292.984
292.998
293.012
293.025
293.038
293.051
293.064
293.076
293.088
293.099
293.109
293.118
293.127
293.134
293.141
293.146
293.149
293.148
293.168
298.94
298.93
298.925
298.923
298.916
298.914
298.911
298.896
298.848
298.673
298.232
297.448
296.368
295.271
294.516
294.202
294.129
294.131
294.267
294.356
294.274
294.116
293.896
293.639
293.44
293.321
293.263
293.246
293.261
293.335
293.548
293.998
294.797
295.958
297.269
298.373
299.04
299.301
299.364
299.374
299.373
299.372
299.371
299.368
299.365
299.363
299.363
299.362
299.36
299.358
299.357
299.356
299.354
299.353
299.352
299.35
299.348
299.346
299.344
299.342
299.34
299.339
299.337
299.335
299.333
299.331
299.329
299.328
299.326
299.324
299.322
299.321
299.319
299.317
299.315
299.313
299.311
299.309
299.308
299.306
299.304
299.303
299.301
299.3
299.298
299.297
299.296
299.295
299.293
299.292
299.291
299.29
299.289
299.288
299.287
299.286
299.285
299.284
299.284
299.283
299.283
299.282
299.282
299.282
299.282
299.281
299.281
299.281
299.281
299.281
299.281
299.281
299.281
299.281
299.281
299.281
299.281
299.281
299.281
299.28
299.28
299.279
299.278
299.277
299.276
299.274
299.273
299.271
299.269
299.267
299.265
299.262
299.26
299.257
299.254
299.251
299.248
299.244
299.241
299.237
299.234
299.23
299.226
299.222
299.218
299.213
299.209
299.205
299.2
299.195
299.19
299.186
299.181
299.176
299.171
299.166
299.16
299.155
299.15
299.145
299.14
299.135
299.131
299.126
299.121
299.117
299.112
299.108
299.104
299.1
299.096
299.092
299.088
299.085
299.081
299.078
299.074
299.071
299.068
299.065
299.061
299.059
299.056
299.053
299.05
299.048
299.045
299.043
299.04
299.038
299.036
299.034
299.032
299.03
299.028
299.027
299.025