/*--------------------------------*- C++ -*----------------------------------*\
| =========                 |                                                 |
| \\      /  F ield         | OpenFOAM: The Open Source CFD Toolbox           |
|  \\    /   O peration     | Version:  v1812                                 |
|   \\  /    A nd           | Web:      www.OpenFOAM.com                      |
|    \\/     M anipulation  |                                                 |
\*---------------------------------------------------------------------------*/
FoamFile
{
    version     2.0;
    format      ascii;
    class       volVectorField;
    location    "0.1";
    object      U;
}
// * * * * * * * * * * * * * * * * * * * * * * * * * * * * * * * * * * * * * //

dimensions      [0 1 -1 0 0 0 0];


internalField   nonuniform List<vector> 
20400
(
(0.124113 -0.135966 0)
(0.118131 0.00507068 0)
(0.124401 -0.0423227 0)
(0.157554 -0.0219874 0)
(0.130686 0.0456011 0)
(0.0389024 0.0949295 0)
(-0.102981 0.17489 0)
(-0.370098 0.27659 0)
(-0.78032 0.368171 0)
(-1.35713 0.438811 0)
(-2.09638 0.45127 0)
(-2.95678 0.442904 0)
(-3.92864 0.466522 0)
(-5.00078 0.496648 0)
(-6.14155 0.507006 0)
(-7.25095 0.465506 0)
(-8.20656 0.399247 0)
(-8.9506 0.229429 0)
(-9.53868 -0.0314478 0)
(-9.88784 -0.438234 0)
(-10.3256 0.31252 0)
(-10.4246 1.17267 0)
(-10.2328 1.87647 0)
(-9.90349 1.406 0)
(-9.16539 0.910525 0)
(-8.24933 0.507051 0)
(-7.24579 0.0648365 0)
(-6.37529 -0.862332 0)
(-5.21086 -0.738499 0)
(-4.04401 -0.576981 0)
(-2.93621 -0.635749 0)
(-1.91444 -0.71394 0)
(-0.950316 -0.664867 0)
(-0.0693523 -0.459112 0)
(0.678678 -0.188569 0)
(1.31078 -0.00216905 0)
(1.86599 0.00835176 0)
(2.3313 -0.0613583 0)
(2.71328 -0.089914 0)
(3.0248 -0.0728707 0)
(3.27841 -0.0363285 0)
(3.48469 -0.00239028 0)
(3.6511 0.0208188 0)
(3.78323 0.0338249 0)
(3.88262 0.0354496 0)
(3.962 0.0246948 0)
(4.03017 0.0091656 0)
(4.08259 -0.00230326 0)
(4.11092 -0.00648639 0)
(4.11993 -0.00836508 0)
(4.12131 -0.0120349 0)
(4.12129 -0.0175668 0)
(4.11863 -0.0169218 0)
(4.11214 -0.0152108 0)
(4.10392 -0.0133187 0)
(4.095 -0.0115918 0)
(4.08619 -0.0103146 0)
(4.07764 -0.00881071 0)
(4.06795 -0.00555495 0)
(4.05523 -0.00144358 0)
(4.04035 -0.000802206 0)
(4.02616 -0.0017744 0)
(4.01331 -0.00292084 0)
(4.00123 -0.0039135 0)
(3.98919 -0.00508055 0)
(3.97723 -0.00655511 0)
(3.96569 -0.00823731 0)
(3.95476 -0.00984542 0)
(3.94475 -0.0113672 0)
(3.93568 -0.0126004 0)
(3.92721 -0.0133201 0)
(3.91912 -0.0137156 0)
(3.91137 -0.0139511 0)
(3.90399 -0.0140998 0)
(3.89697 -0.0142242 0)
(3.89033 -0.0143604 0)
(3.88408 -0.0145537 0)
(3.87827 -0.0147849 0)
(3.87298 -0.0150334 0)
(3.86825 -0.0153147 0)
(3.86413 -0.015627 0)
(3.86062 -0.0159346 0)
(3.85769 -0.0162595 0)
(3.85525 -0.0165581 0)
(3.85324 -0.0168447 0)
(3.85161 -0.0171182 0)
(3.85034 -0.0173792 0)
(3.84941 -0.0176136 0)
(3.8488 -0.0178525 0)
(3.84847 -0.0180559 0)
(3.84847 -0.0182047 0)
(3.84884 -0.0183979 0)
(3.84956 -0.0185599 0)
(3.85067 -0.0187082 0)
(3.8522 -0.0188422 0)
(3.85415 -0.0189664 0)
(3.85653 -0.019081 0)
(3.85934 -0.019188 0)
(3.86257 -0.0192872 0)
(3.8662 -0.0193814 0)
(3.87019 -0.0194712 0)
(3.87451 -0.0195572 0)
(3.87915 -0.0196402 0)
(3.88408 -0.0197179 0)
(3.88929 -0.0197893 0)
(3.89477 -0.0198557 0)
(3.90053 -0.0199187 0)
(3.90657 -0.0199796 0)
(3.91289 -0.020036 0)
(3.91957 -0.0200918 0)
(3.92642 -0.0201499 0)
(3.93353 -0.0202073 0)
(3.94082 -0.0202662 0)
(3.94824 -0.0203279 0)
(3.95572 -0.0203991 0)
(3.96318 -0.0204648 0)
(3.97065 -0.0205366 0)
(3.97795 -0.0206169 0)
(3.98506 -0.0207008 0)
(3.99191 -0.0207872 0)
(3.99848 -0.0208726 0)
(4.00472 -0.0209563 0)
(4.01059 -0.0210386 0)
(4.01609 -0.0211196 0)
(4.02118 -0.0211976 0)
(4.02587 -0.0212716 0)
(4.03014 -0.021343 0)
(4.034 -0.021414 0)
(4.03745 -0.0214847 0)
(4.0405 -0.0215491 0)
(4.04315 -0.0216091 0)
(4.04544 -0.0216621 0)
(4.04737 -0.0217109 0)
(4.04898 -0.021756 0)
(4.05026 -0.0217959 0)
(4.05123 -0.0218319 0)
(4.05189 -0.0218622 0)
(4.05226 -0.0218987 0)
(4.05237 -0.0219267 0)
(4.0522 -0.021942 0)
(4.05176 -0.0219577 0)
(4.05105 -0.0219687 0)
(4.05008 -0.0219691 0)
(4.04885 -0.0219616 0)
(4.04735 -0.0219492 0)
(4.04558 -0.0219295 0)
(4.04353 -0.0219011 0)
(4.04121 -0.021865 0)
(4.03863 -0.0218215 0)
(4.03579 -0.0217687 0)
(4.03271 -0.0217049 0)
(4.0294 -0.0216295 0)
(4.02591 -0.021541 0)
(4.02226 -0.0214374 0)
(4.01849 -0.0213173 0)
(4.01464 -0.0211808 0)
(4.01075 -0.0210287 0)
(4.00686 -0.0208602 0)
(4.00302 -0.0206738 0)
(3.99927 -0.0204686 0)
(3.99565 -0.0202437 0)
(3.99222 -0.0200047 0)
(3.98905 -0.019757 0)
(3.98615 -0.019478 0)
(3.98353 -0.0191783 0)
(3.98123 -0.0188657 0)
(3.97925 -0.0185349 0)
(3.97759 -0.0181853 0)
(3.97625 -0.0178164 0)
(3.97521 -0.0174267 0)
(3.97445 -0.0170151 0)
(3.97396 -0.0165811 0)
(3.97375 -0.0161241 0)
(3.97381 -0.0156512 0)
(3.97415 -0.0151287 0)
(3.97449 -0.0143969 0)
(3.97526 -0.0140784 0)
(3.97611 -0.0135168 0)
(3.9772 -0.0129393 0)
(3.97849 -0.0123358 0)
(3.97999 -0.0117173 0)
(3.98172 -0.011054 0)
(3.98357 -0.0101508 0)
(3.98578 -0.009707 0)
(3.98815 -0.009009 0)
(3.99078 -0.00828917 0)
(3.99364 -0.00754756 0)
(3.99676 -0.00678903 0)
(4.00012 -0.00601929 0)
(4.00373 -0.00523033 0)
(4.00759 -0.0044287 0)
(4.01169 -0.00361343 0)
(4.01601 -0.00278627 0)
(4.02056 -0.00195328 0)
(4.02531 -0.00110397 0)
(4.03023 -0.000240239 0)
(4.03532 0.000636725 0)
(4.04054 0.00151618 0)
(4.04586 0.0024097 0)
(4.05125 0.0033099 0)
(4.05668 0.00421775 0)
(4.06211 0.00512606 0)
(4.06749 0.00605108 0)
(4.07276 0.00698258 0)
(4.07788 0.00791096 0)
(4.08279 0.00884196 0)
(4.08747 0.00979959 0)
(4.0918 0.0112252 0)
(4.09597 0.0116849 0)
(4.09965 0.0126388 0)
(4.103 0.01358 0)
(4.10597 0.0145377 0)
(4.10857 0.0155021 0)
(4.1108 0.0164507 0)
(4.11274 0.0174037 0)
(4.11419 0.0189908 0)
(4.11553 0.0192963 0)
(4.1165 0.0209077 0)
(4.11723 0.0218371 0)
(4.11776 0.0227523 0)
(4.1181 0.0236528 0)
(4.11828 0.0245341 0)
(4.11832 0.0253956 0)
(4.11825 0.0262353 0)
(4.11807 0.0270517 0)
(4.11778 0.0278449 0)
(4.11738 0.0286146 0)
(4.11686 0.02936 0)
(4.11618 0.0300755 0)
(4.11536 0.0307284 0)
(4.11444 0.031381 0)
(4.11335 0.0320258 0)
(4.11201 0.0326378 0)
(4.11052 0.033216 0)
(4.10883 0.0337657 0)
(4.10697 0.0342904 0)
(4.10494 0.0347899 0)
(4.10277 0.0352588 0)
(4.10052 0.0356982 0)
(4.09822 0.0361079 0)
(4.09594 0.0364841 0)
(4.09376 0.0368273 0)
(4.09175 0.0371461 0)
(4.09 0.0374366 0)
(4.08861 0.0376946 0)
(4.0877 0.037919 0)
(4.08729 0.0381029 0)
(4.0875 0.0382466 0)
(4.08846 0.0383736 0)
(4.09026 0.0384737 0)
(4.09292 0.0385406 0)
(4.09647 0.038575 0)
(4.10091 0.0385737 0)
(4.10628 0.0385421 0)
(4.1126 0.0384837 0)
(4.11988 0.0384178 0)
(4.1281 0.0383704 0)
(4.13724 0.038354 0)
(4.14725 0.038317 0)
(4.15814 0.0382477 0)
(4.16985 0.0381422 0)
(4.18237 0.0379983 0)
(4.19564 0.0378145 0)
(4.20962 0.0375863 0)
(4.22428 0.0373145 0)
(4.23957 0.0370031 0)
(4.25546 0.036644 0)
(4.27192 0.0362413 0)
(4.28893 0.0357974 0)
(4.30647 0.0353146 0)
(4.32453 0.0347926 0)
(4.34308 0.0342346 0)
(4.36215 0.0336422 0)
(4.38172 0.0330166 0)
(4.4018 0.032366 0)
(4.42241 0.0316788 0)
(4.44355 0.030965 0)
(4.46522 0.0302259 0)
(4.48742 0.0294617 0)
(4.51016 0.0286707 0)
(4.53342 0.0278525 0)
(4.5572 0.0270084 0)
(4.58148 0.0261459 0)
(4.60622 0.0252671 0)
(4.63139 0.0243709 0)
(4.65694 0.02346 0)
(4.68282 0.0225318 0)
(4.70896 0.0215858 0)
(4.73531 0.0206237 0)
(4.76179 0.0196392 0)
(4.78832 0.0186402 0)
(4.81483 0.0176387 0)
(4.84123 0.0165924 0)
(4.86742 0.0155407 0)
(4.89331 0.0144718 0)
(4.91875 0.0133857 0)
(4.94361 0.012282 0)
(4.96774 0.0111631 0)
(4.99103 0.0100301 0)
(5.01341 0.00887928 0)
(5.03494 0.00771189 0)
(5.05587 0.00651933 0)
(5.07665 0.00532177 0)
(5.09798 0.00408151 0)
(5.12087 0.00281249 0)
(5.14666 0.00151263 0)
(5.17703 0.000176483 0)
(5.21411 -0.00122945 0)
(5.25631 -0.00272081 0)
(5.3198 -0.00433996 0)
(5.40593 -0.00612865 0)
(5.52147 -0.00792584 0)
(5.67412 -0.00996543 0)
(5.87007 -0.0119789 0)
(6.11337 -0.0140516 0)
(6.40698 -0.0160591 0)
(6.75199 -0.0179109 0)
(7.14815 -0.0195283 0)
(7.59396 -0.0207839 0)
(8.08685 -0.0214945 0)
(8.62329 -0.0215799 0)
(9.19901 -0.0208269 0)
(9.80929 -0.0190034 0)
(10.4491 -0.0159025 0)
(11.1134 -0.0112807 0)
(11.797 -0.00463635 0)
(12.4947 0.0042109 0)
(13.2014 0.0151481 0)
(13.9123 0.0293988 0)
(14.6226 0.0470137 0)
(15.3277 0.068208 0)
(16.0233 0.0935043 0)
(16.7052 0.122633 0)
(17.3694 0.155286 0)
(18.0126 0.191414 0)
(18.6313 0.230607 0)
(19.2226 0.272138 0)
(19.7835 0.314975 0)
(20.3116 0.358096 0)
(20.8047 0.400237 0)
(21.261 0.440437 0)
(21.6789 0.476758 0)
(22.057 0.508172 0)
(22.3942 0.533498 0)
(22.6892 0.551295 0)
(22.9413 0.561296 0)
(23.1498 0.562394 0)
(23.315 0.554773 0)
(23.4376 0.538089 0)
(23.5199 0.512492 0)
(23.5635 0.475323 0)
(23.5639 0.429335 0)
(23.5204 0.367369 0)
(23.4456 0.293809 0)
(23.3394 0.229844 0)
(23.2067 0.173123 0)
(23.0501 0.102998 0)
(22.8641 0.0413072 0)
(22.6588 -0.0255649 0)
(22.4414 -0.0965535 0)
(22.2047 -0.165083 0)
(21.9575 -0.231457 0)
(21.7082 -0.295741 0)
(21.462 -0.356813 0)
(21.2205 -0.41386 0)
(20.984 -0.462695 0)
(20.7522 -0.499421 0)
(20.5249 -0.523231 0)
(20.301 -0.53291 0)
(20.0795 -0.530432 0)
(19.8575 -0.516072 0)
(19.6318 -0.489832 0)
(19.3991 -0.453464 0)
(19.1565 -0.408061 0)
(18.901 -0.355766 0)
(18.6304 -0.298542 0)
(18.3432 -0.236889 0)
(18.0386 -0.172555 0)
(17.7165 -0.10987 0)
(17.378 -0.0484804 0)
(17.0257 0.0124375 0)
(16.6621 0.0688959 0)
(16.2903 0.117329 0)
(15.9135 0.154468 0)
(15.5355 0.181966 0)
(15.1598 0.19865 0)
(14.79 0.205573 0)
(14.4299 0.205451 0)
(14.0827 0.200207 0)
(13.7518 0.191124 0)
(13.44 0.179068 0)
(13.1494 0.166429 0)
(12.8819 0.153152 0)
(12.6395 0.137527 0)
(12.4232 0.121952 0)
(12.2325 0.110226 0)
(12.066 0.102331 0)
(11.923 0.095801 0)
(11.8025 0.0903816 0)
(11.7026 0.0875114 0)
(11.6211 0.0867362 0)
(11.5566 0.0869653 0)
(11.5081 0.0858799 0)
(11.4736 0.084345 0)
(11.4508 0.0837241 0)
(11.4388 0.0823971 0)
(11.4361 0.0818776 0)
(11.4411 0.0824575 0)
(11.4521 0.0824337 0)
(11.4693 0.0820603 0)
(11.4927 0.0814994 0)
(11.5226 0.0805153 0)
(11.5594 0.0791971 0)
(11.6038 0.0775472 0)
(11.6566 0.0755753 0)
(11.719 0.0732885 0)
(11.7921 0.0707073 0)
(11.8752 0.0678884 0)
(11.9682 0.0648023 0)
(12.0741 0.0615498 0)
(12.1937 0.0577687 0)
(12.3262 0.0542481 0)
(12.4702 0.0499503 0)
(12.6255 0.0455974 0)
(12.7908 0.0413601 0)
(12.9647 0.0364492 0)
(13.146 0.0321578 0)
(13.3329 0.0293465 0)
(13.5239 0.0270515 0)
(13.7178 0.0245107 0)
(13.9131 0.0209931 0)
(14.1078 0.0181948 0)
(14.3004 0.0151691 0)
(14.4895 0.0129176 0)
(14.6737 0.0105211 0)
(14.8519 0.00808342 0)
(15.0236 0.00584449 0)
(15.1882 0.00385049 0)
(15.3453 0.00233374 0)
(15.4951 0.00117661 0)
(15.6375 0.0001633 0)
(15.7733 -0.00100055 0)
(15.9032 -0.00220275 0)
(16.0279 -0.0031226 0)
(16.1477 -0.00371066 0)
(16.263 -0.00404599 0)
(16.3741 -0.00420754 0)
(16.4809 -0.0041258 0)
(16.5831 -0.00373252 0)
(16.6801 -0.00312606 0)
(16.7711 -0.00271625 0)
(16.8553 -0.00292906 0)
(16.9323 -0.00278712 0)
(17.0001 -0.00193596 0)
(17.0565 -0.000832732 0)
(17.0997 0.00019477 0)
(17.1281 0.00131382 0)
(17.1416 0.00194054 0)
(17.1404 8.80283e-05 0)
(17.1231 0.00289934 0)
(17.0854 0.00300356 0)
(17.0281 0.00216736 0)
(16.9508 0.00140981 0)
(16.8534 0.000641301 0)
(16.7361 -3.95012e-07 0)
(16.5998 -0.00128224 0)
(16.4457 -0.00291523 0)
(16.2742 -0.00476841 0)
(16.0856 -0.00734178 0)
(15.8821 -0.0101416 0)
(15.6626 -0.0130903 0)
(15.4306 -0.0163603 0)
(15.187 -0.0192384 0)
(14.9338 -0.0228479 0)
(14.6719 -0.0261929 0)
(14.4018 -0.0292278 0)
(14.1258 -0.0320627 0)
(13.8464 -0.0350316 0)
(13.5653 -0.0368553 0)
(13.284 -0.0393916 0)
(13.0043 -0.0411377 0)
(12.7277 -0.0420023 0)
(12.4556 -0.0416217 0)
(12.1889 -0.0414616 0)
(11.929 -0.0407165 0)
(11.6775 -0.0396025 0)
(11.4358 -0.0381877 0)
(11.2053 -0.0364623 0)
(10.9874 -0.0342844 0)
(10.7827 -0.0314662 0)
(10.5922 -0.0281736 0)
(10.4165 -0.0241648 0)
(10.2567 -0.020138 0)
(10.1135 -0.0160082 0)
(9.98793 -0.011417 0)
(9.88018 -0.00649877 0)
(9.79136 -0.00107543 0)
(9.71915 0.00563445 0)
(9.66682 0.0167356 0)
(9.61716 0.00672438 0)
(-0.112033 -0.0972867 0)
(-0.188454 0.0398482 0)
(-0.430995 0.0173757 0)
(-0.786703 0.0537921 0)
(-1.27317 0.134153 0)
(-1.86805 0.187787 0)
(-2.56582 0.307764 0)
(-3.41169 0.487548 0)
(-4.41379 0.70295 0)
(-5.58544 0.962478 0)
(-6.93509 1.17907 0)
(-8.40923 1.3212 0)
(-9.94838 1.44104 0)
(-11.4823 1.50331 0)
(-12.9271 1.50328 0)
(-14.1729 1.30948 0)
(-15.1425 0.999375 0)
(-15.811 0.771685 0)
(-16.1174 0.654171 0)
(-16.0689 0.50726 0)
(-15.5798 0.374517 0)
(-14.7949 -0.34999 0)
(-13.3685 -0.838692 0)
(-11.8884 -1.40939 0)
(-10.4725 -1.73146 0)
(-9.05794 -1.86458 0)
(-7.58874 -1.8206 0)
(-6.31805 -1.65455 0)
(-5.24279 -1.74399 0)
(-4.05682 -1.73838 0)
(-2.83418 -1.68586 0)
(-1.65163 -1.68551 0)
(-0.463585 -1.6942 0)
(0.790919 -1.63511 0)
(2.11087 -1.47916 0)
(3.43119 -1.25494 0)
(4.65466 -0.997037 0)
(5.69285 -0.732281 0)
(6.54875 -0.555969 0)
(7.24912 -0.459686 0)
(7.81314 -0.397178 0)
(8.2669 -0.350514 0)
(8.63821 -0.306854 0)
(8.94281 -0.256398 0)
(9.19381 -0.211973 0)
(9.4069 -0.183338 0)
(9.59479 -0.153432 0)
(9.75813 -0.108625 0)
(9.89174 -0.0645382 0)
(9.99954 -0.043091 0)
(10.0866 -0.039167 0)
(10.1568 -0.034817 0)
(10.2116 -0.0277651 0)
(10.2539 -0.0249485 0)
(10.2864 -0.0256728 0)
(10.3109 -0.0276797 0)
(10.328 -0.0305904 0)
(10.3389 -0.0320872 0)
(10.3439 -0.0311593 0)
(10.3442 -0.0297317 0)
(10.3419 -0.0301427 0)
(10.338 -0.0324275 0)
(10.3337 -0.0345358 0)
(10.3293 -0.034935 0)
(10.3247 -0.0345256 0)
(10.3197 -0.0343447 0)
(10.3147 -0.0343796 0)
(10.3099 -0.0347539 0)
(10.3057 -0.0355712 0)
(10.3019 -0.0362996 0)
(10.2984 -0.0370692 0)
(10.295 -0.0379775 0)
(10.2916 -0.039089 0)
(10.2882 -0.0403759 0)
(10.2848 -0.0416882 0)
(10.2815 -0.042998 0)
(10.2784 -0.0443142 0)
(10.2756 -0.0455785 0)
(10.2734 -0.0467056 0)
(10.2717 -0.0476669 0)
(10.2706 -0.0485427 0)
(10.2701 -0.0493814 0)
(10.2702 -0.0501286 0)
(10.2708 -0.0508082 0)
(10.2719 -0.0514423 0)
(10.2733 -0.0520375 0)
(10.2751 -0.0525802 0)
(10.2773 -0.0531015 0)
(10.2797 -0.0535607 0)
(10.2826 -0.0539361 0)
(10.2857 -0.0543707 0)
(10.2892 -0.0548036 0)
(10.293 -0.0552036 0)
(10.2972 -0.0555912 0)
(10.3019 -0.0559724 0)
(10.3069 -0.0563501 0)
(10.3125 -0.0567251 0)
(10.3184 -0.0570979 0)
(10.3248 -0.0574687 0)
(10.3316 -0.0578366 0)
(10.3387 -0.0582022 0)
(10.3462 -0.0585644 0)
(10.354 -0.0589223 0)
(10.362 -0.059273 0)
(10.3704 -0.0596149 0)
(10.379 -0.059951 0)
(10.3879 -0.0602882 0)
(10.3971 -0.0606275 0)
(10.4065 -0.0609729 0)
(10.4163 -0.0613312 0)
(10.4262 -0.0617031 0)
(10.4364 -0.0620896 0)
(10.4467 -0.0624928 0)
(10.4571 -0.0629147 0)
(10.4676 -0.0633463 0)
(10.478 -0.0637943 0)
(10.4884 -0.0642495 0)
(10.4986 -0.0647125 0)
(10.5086 -0.0651836 0)
(10.5183 -0.0656562 0)
(10.5276 -0.0661297 0)
(10.5367 -0.0666032 0)
(10.5453 -0.0670751 0)
(10.5535 -0.0675435 0)
(10.5613 -0.068007 0)
(10.5687 -0.0684646 0)
(10.5757 -0.0689183 0)
(10.5822 -0.0693685 0)
(10.5883 -0.0698085 0)
(10.594 -0.070238 0)
(10.5994 -0.0706523 0)
(10.6043 -0.0710615 0)
(10.6089 -0.0714662 0)
(10.6131 -0.0718679 0)
(10.617 -0.072271 0)
(10.6206 -0.0726763 0)
(10.6239 -0.0730922 0)
(10.6269 -0.0734887 0)
(10.6297 -0.0738585 0)
(10.6322 -0.074246 0)
(10.6344 -0.0746415 0)
(10.6364 -0.0750363 0)
(10.6382 -0.0754427 0)
(10.6397 -0.0758555 0)
(10.6409 -0.0762613 0)
(10.6419 -0.0766485 0)
(10.6427 -0.0770176 0)
(10.6432 -0.0773835 0)
(10.6435 -0.077747 0)
(10.6436 -0.0780999 0)
(10.6434 -0.07844 0)
(10.6431 -0.0787668 0)
(10.6426 -0.0790796 0)
(10.642 -0.0793756 0)
(10.6413 -0.0796528 0)
(10.6406 -0.0799113 0)
(10.6398 -0.0801506 0)
(10.6392 -0.0803697 0)
(10.6386 -0.0805653 0)
(10.6381 -0.0807304 0)
(10.6379 -0.0808606 0)
(10.6378 -0.0809676 0)
(10.6381 -0.0810651 0)
(10.6386 -0.0810976 0)
(10.6395 -0.0811068 0)
(10.6407 -0.0810949 0)
(10.6423 -0.0810691 0)
(10.6443 -0.0810171 0)
(10.6466 -0.080924 0)
(10.6493 -0.0807953 0)
(10.6523 -0.0806258 0)
(10.6556 -0.0804074 0)
(10.6591 -0.080135 0)
(10.663 -0.0798289 0)
(10.6671 -0.0794301 0)
(10.6714 -0.079102 0)
(10.6759 -0.0786411 0)
(10.6807 -0.0780812 0)
(10.6856 -0.0775141 0)
(10.6907 -0.0768881 0)
(10.6961 -0.0762071 0)
(10.7016 -0.0754226 0)
(10.7075 -0.0747531 0)
(10.7135 -0.0737955 0)
(10.7197 -0.0728174 0)
(10.7262 -0.071817 0)
(10.7329 -0.0707566 0)
(10.7399 -0.0696341 0)
(10.7471 -0.0684472 0)
(10.7545 -0.067208 0)
(10.7622 -0.0659142 0)
(10.7701 -0.0645614 0)
(10.7782 -0.063153 0)
(10.7865 -0.0616828 0)
(10.7949 -0.0601588 0)
(10.8036 -0.0585769 0)
(10.8124 -0.056935 0)
(10.8212 -0.0552275 0)
(10.8302 -0.0534732 0)
(10.8392 -0.0516622 0)
(10.8482 -0.0497961 0)
(10.8572 -0.0478665 0)
(10.8661 -0.0458863 0)
(10.8749 -0.0438475 0)
(10.8835 -0.0417422 0)
(10.8919 -0.0395961 0)
(10.8999 -0.0373508 0)
(10.9078 -0.0354968 0)
(10.9152 -0.0328204 0)
(10.9223 -0.0304173 0)
(10.929 -0.0279907 0)
(10.9352 -0.0255074 0)
(10.9412 -0.0229474 0)
(10.9467 -0.0203237 0)
(10.9518 -0.0176663 0)
(10.9567 -0.0155712 0)
(10.9612 -0.0121826 0)
(10.9655 -0.0100823 0)
(10.9695 -0.00731162 0)
(10.9733 -0.00447747 0)
(10.977 -0.00161666 0)
(10.9805 0.00126735 0)
(10.984 0.0041644 0)
(10.9873 0.00706462 0)
(10.9905 0.00995878 0)
(10.9937 0.0128355 0)
(10.9968 0.0156866 0)
(10.9998 0.018507 0)
(11.0027 0.0212867 0)
(11.0055 0.0239732 0)
(11.0082 0.0266306 0)
(11.0107 0.0292603 0)
(11.0132 0.0318149 0)
(11.0154 0.0342976 0)
(11.0176 0.036708 0)
(11.0196 0.0390414 0)
(11.0215 0.0413 0)
(11.0234 0.0434861 0)
(11.0252 0.0455982 0)
(11.027 0.0476384 0)
(11.029 0.0496013 0)
(11.0311 0.051484 0)
(11.0335 0.0532834 0)
(11.0362 0.0550201 0)
(11.0394 0.0567097 0)
(11.0431 0.0583496 0)
(11.0474 0.0599266 0)
(11.0525 0.0613922 0)
(11.0584 0.0628163 0)
(11.0652 0.0641812 0)
(11.073 0.0654881 0)
(11.0817 0.0667468 0)
(11.0913 0.0679653 0)
(11.102 0.0691243 0)
(11.1136 0.0702009 0)
(11.1263 0.0711615 0)
(11.1399 0.0719752 0)
(11.1544 0.0726193 0)
(11.1698 0.0731053 0)
(11.1862 0.0735284 0)
(11.2033 0.0739059 0)
(11.2213 0.0742453 0)
(11.24 0.0745397 0)
(11.2594 0.0747864 0)
(11.2795 0.0749857 0)
(11.3002 0.0751371 0)
(11.3214 0.0752445 0)
(11.3433 0.0753159 0)
(11.3656 0.0753558 0)
(11.3885 0.0753658 0)
(11.4118 0.0753493 0)
(11.4356 0.0753217 0)
(11.4599 0.075291 0)
(11.4846 0.0752603 0)
(11.5098 0.0752283 0)
(11.5355 0.0752003 0)
(11.5617 0.07518 0)
(11.5883 0.0751734 0)
(11.6154 0.0751795 0)
(11.643 0.0751973 0)
(11.671 0.0752252 0)
(11.6995 0.0752631 0)
(11.7284 0.0752995 0)
(11.7577 0.0753199 0)
(11.7873 0.0753236 0)
(11.8172 0.0753083 0)
(11.8473 0.0752746 0)
(11.8776 0.075217 0)
(11.908 0.0751311 0)
(11.9384 0.0750147 0)
(11.9687 0.0748584 0)
(11.9989 0.0746487 0)
(12.0289 0.0743993 0)
(12.0586 0.0740963 0)
(12.0878 0.0737413 0)
(12.1165 0.0733264 0)
(12.1445 0.0728475 0)
(12.1717 0.0723007 0)
(12.1979 0.0716766 0)
(12.2231 0.0709645 0)
(12.2473 0.0701432 0)
(12.2707 0.0691949 0)
(12.2939 0.0680819 0)
(12.3175 0.0668016 0)
(12.3425 0.0653295 0)
(12.3702 0.0636358 0)
(12.4024 0.0616952 0)
(12.4411 0.0594526 0)
(12.4847 0.0568153 0)
(12.5492 0.0533075 0)
(12.6363 0.0493588 0)
(12.7527 0.0456081 0)
(12.9063 0.0408333 0)
(13.1037 0.0364619 0)
(13.3489 0.0319351 0)
(13.6452 0.0276325 0)
(13.9941 0.0235511 0)
(14.3957 0.0198644 0)
(14.8489 0.0166423 0)
(15.3516 0.013882 0)
(15.9005 0.0115739 0)
(16.4919 0.00954485 0)
(17.1213 0.00792406 0)
(17.7842 0.00653865 0)
(18.4756 0.00529782 0)
(19.1907 0.00389203 0)
(19.9244 0.00218504 0)
(20.6718 0.000280249 0)
(21.4282 -0.00251009 0)
(22.1889 -0.00614213 0)
(22.9494 -0.0106018 0)
(23.7055 -0.0161792 0)
(24.4528 -0.0228538 0)
(25.1875 -0.0306431 0)
(25.9058 -0.039652 0)
(26.6042 -0.0496351 0)
(27.2793 -0.0602323 0)
(27.9282 -0.0711518 0)
(28.5482 -0.0819922 0)
(29.1368 -0.0925247 0)
(29.6919 -0.10247 0)
(30.2117 -0.11131 0)
(30.6946 -0.118686 0)
(31.1391 -0.124401 0)
(31.5438 -0.127955 0)
(31.9077 -0.129337 0)
(32.23 -0.128249 0)
(32.5108 -0.124616 0)
(32.7508 -0.118523 0)
(32.9508 -0.109916 0)
(33.1105 -0.101268 0)
(33.2286 -0.0930209 0)
(33.3073 -0.0745642 0)
(33.3515 -0.0509673 0)
(33.3709 -0.0347689 0)
(33.3616 -0.0198935 0)
(33.3247 -0.00173002 0)
(33.2614 0.0142397 0)
(33.1749 0.0295778 0)
(33.0761 0.0505251 0)
(32.9574 0.0718191 0)
(32.8271 0.0920105 0)
(32.693 0.111064 0)
(32.559 0.128688 0)
(32.4274 0.145201 0)
(32.2998 0.160785 0)
(32.1765 0.173438 0)
(32.0562 0.182766 0)
(31.9371 0.187104 0)
(31.8176 0.187254 0)
(31.6948 0.183967 0)
(31.5653 0.177265 0)
(31.4262 0.167367 0)
(31.2744 0.154479 0)
(31.1073 0.139305 0)
(30.9226 0.122225 0)
(30.7189 0.103605 0)
(30.4955 0.0838974 0)
(30.252 0.0648002 0)
(29.9896 0.0453201 0)
(29.71 0.0252765 0)
(29.4157 0.00653986 0)
(29.1097 -0.00940369 0)
(28.7955 -0.0211394 0)
(28.4768 -0.0291181 0)
(28.1578 -0.0325569 0)
(27.8421 -0.0319346 0)
(27.5332 -0.0284248 0)
(27.2348 -0.0226185 0)
(26.9498 -0.015134 0)
(26.681 -0.00610883 0)
(26.4308 0.00377007 0)
(26.201 0.0136423 0)
(25.9928 0.0236955 0)
(25.8073 0.0344039 0)
(25.6445 0.0454342 0)
(25.5045 0.0556013 0)
(25.3869 0.0643421 0)
(25.291 0.0717751 0)
(25.215 0.0778308 0)
(25.1564 0.0817235 0)
(25.1121 0.0831815 0)
(25.0804 0.0843998 0)
(25.0603 0.0865554 0)
(25.0514 0.0881446 0)
(25.0537 0.0885691 0)
(25.0632 0.0891909 0)
(25.0799 0.0902537 0)
(25.1032 0.0890858 0)
(25.1322 0.0872429 0)
(25.1672 0.0848688 0)
(25.2083 0.082098 0)
(25.2562 0.0789867 0)
(25.3113 0.0756906 0)
(25.3742 0.0723292 0)
(25.4463 0.068994 0)
(25.5286 0.0658159 0)
(25.6204 0.0628205 0)
(25.7221 0.0600226 0)
(25.8365 0.0576901 0)
(25.9647 0.0554733 0)
(26.106 0.0545605 0)
(26.2589 0.0535892 0)
(26.4235 0.0529954 0)
(26.5985 0.054578 0)
(26.7828 0.0554011 0)
(26.976 0.0573402 0)
(27.1763 0.0587719 0)
(27.3819 0.0595652 0)
(27.5904 0.0602376 0)
(27.8001 0.062757 0)
(28.0096 0.0655248 0)
(28.2175 0.0687526 0)
(28.4227 0.0722083 0)
(28.6238 0.0761775 0)
(28.8198 0.0805042 0)
(29.0099 0.0850834 0)
(29.1936 0.0899929 0)
(29.3705 0.0950249 0)
(29.5406 0.100491 0)
(29.7042 0.105763 0)
(29.8617 0.110479 0)
(30.0138 0.114799 0)
(30.1612 0.118741 0)
(30.304 0.122311 0)
(30.4426 0.125386 0)
(30.5772 0.127819 0)
(30.7078 0.129537 0)
(30.8345 0.130611 0)
(30.9567 0.130816 0)
(31.0731 0.130049 0)
(31.182 0.12744 0)
(31.2827 0.123182 0)
(31.3743 0.118964 0)
(31.4553 0.114324 0)
(31.5241 0.108606 0)
(31.5791 0.10196 0)
(31.6205 0.0944038 0)
(31.6406 0.07664 0)
(31.6414 0.0689416 0)
(31.628 0.0598226 0)
(31.596 0.0479448 0)
(31.5438 0.0351956 0)
(31.471 0.0230233 0)
(31.3788 0.0100269 0)
(31.2674 -0.00375341 0)
(31.1366 -0.0176164 0)
(30.9871 -0.0315204 0)
(30.8198 -0.0448851 0)
(30.6372 -0.0577801 0)
(30.4384 -0.0698718 0)
(30.2264 -0.0810114 0)
(30.0019 -0.091518 0)
(29.7669 -0.100854 0)
(29.5221 -0.109167 0)
(29.2682 -0.116426 0)
(29.0071 -0.122963 0)
(28.7416 -0.12883 0)
(28.4732 -0.133609 0)
(28.2035 -0.137198 0)
(27.9342 -0.139962 0)
(27.6673 -0.141482 0)
(27.4042 -0.141672 0)
(27.1461 -0.140186 0)
(26.894 -0.137577 0)
(26.6496 -0.134011 0)
(26.4142 -0.129498 0)
(26.1891 -0.124041 0)
(25.9757 -0.117606 0)
(25.7748 -0.110067 0)
(25.5871 -0.10158 0)
(25.4137 -0.0925153 0)
(25.2555 -0.0828347 0)
(25.1135 -0.0723148 0)
(24.9889 -0.0617088 0)
(24.8827 -0.0494153 0)
(24.7954 -0.0386179 0)
(24.7263 -0.01883 0)
(24.6819 0.00213859 0)
(24.6351 -0.00103411 0)
(-0.10153 0.0534065 0)
(-0.357081 0.343913 0)
(-0.841579 0.490022 0)
(-1.44222 0.719794 0)
(-2.23762 0.983521 0)
(-3.19704 1.15578 0)
(-4.26993 1.43419 0)
(-5.5113 1.76896 0)
(-6.89763 2.11986 0)
(-8.3942 2.50949 0)
(-9.977 2.8224 0)
(-11.5751 3.01267 0)
(-13.1351 3.14399 0)
(-14.6001 3.11446 0)
(-15.881 2.91324 0)
(-16.8286 2.44119 0)
(-17.4441 1.88095 0)
(-17.7249 1.26016 0)
(-17.5789 0.469709 0)
(-17.1444 -0.256425 0)
(-16.3731 -0.855223 0)
(-15.6341 -1.8034 0)
(-14.5123 -2.35685 0)
(-13.2801 -2.60045 0)
(-12.0081 -2.81163 0)
(-10.6105 -3.03933 0)
(-9.06208 -3.12172 0)
(-7.36053 -2.96009 0)
(-5.63223 -3.20907 0)
(-3.88357 -3.35156 0)
(-2.07503 -3.19673 0)
(-0.352656 -2.96563 0)
(1.25893 -2.84624 0)
(2.76383 -2.76898 0)
(4.16239 -2.65046 0)
(5.46011 -2.48203 0)
(6.66616 -2.22426 0)
(7.75819 -1.86023 0)
(8.7379 -1.51165 0)
(9.59984 -1.2151 0)
(10.3393 -0.965165 0)
(10.976 -0.779084 0)
(11.5236 -0.640482 0)
(11.9851 -0.523927 0)
(12.3682 -0.436394 0)
(12.6943 -0.388703 0)
(12.9786 -0.358301 0)
(13.2225 -0.31169 0)
(13.4213 -0.254949 0)
(13.5818 -0.214794 0)
(13.7154 -0.191415 0)
(13.8299 -0.170471 0)
(13.9289 -0.14663 0)
(14.0172 -0.127391 0)
(14.0963 -0.112721 0)
(14.1656 -0.0985901 0)
(14.2258 -0.0868001 0)
(14.2786 -0.0767595 0)
(14.323 -0.0649907 0)
(14.3599 -0.0574865 0)
(14.3909 -0.052143 0)
(14.4188 -0.0521682 0)
(14.4439 -0.0546587 0)
(14.4656 -0.0561019 0)
(14.4829 -0.0572233 0)
(14.4959 -0.0589241 0)
(14.5056 -0.0613487 0)
(14.5127 -0.064299 0)
(14.5178 -0.067404 0)
(14.522 -0.0701872 0)
(14.5259 -0.0721128 0)
(14.5293 -0.0734833 0)
(14.5325 -0.0746208 0)
(14.5354 -0.0756808 0)
(14.5381 -0.0766685 0)
(14.5405 -0.0777121 0)
(14.5427 -0.0789683 0)
(14.5447 -0.0803581 0)
(14.5467 -0.0817638 0)
(14.5488 -0.0831694 0)
(14.5511 -0.0845017 0)
(14.5535 -0.0857521 0)
(14.5562 -0.0869582 0)
(14.559 -0.0881429 0)
(14.5621 -0.0892917 0)
(14.5652 -0.0903951 0)
(14.5685 -0.0914424 0)
(14.572 -0.0924256 0)
(14.5756 -0.0933528 0)
(14.5793 -0.0941981 0)
(14.5832 -0.0949806 0)
(14.5873 -0.0957352 0)
(14.5916 -0.0964625 0)
(14.5961 -0.0971669 0)
(14.601 -0.0978478 0)
(14.6062 -0.0985084 0)
(14.6117 -0.0991496 0)
(14.6176 -0.099775 0)
(14.6238 -0.100386 0)
(14.6304 -0.100986 0)
(14.6373 -0.101576 0)
(14.6444 -0.102158 0)
(14.6518 -0.102732 0)
(14.6595 -0.10329 0)
(14.6674 -0.10383 0)
(14.6755 -0.104354 0)
(14.6839 -0.104869 0)
(14.6925 -0.105376 0)
(14.7013 -0.10588 0)
(14.7104 -0.106388 0)
(14.7197 -0.106908 0)
(14.7292 -0.10744 0)
(14.7388 -0.10799 0)
(14.7485 -0.108565 0)
(14.7582 -0.109163 0)
(14.7678 -0.109778 0)
(14.7774 -0.110413 0)
(14.7868 -0.11107 0)
(14.7959 -0.111746 0)
(14.8047 -0.112433 0)
(14.8132 -0.113125 0)
(14.8213 -0.113815 0)
(14.829 -0.1145 0)
(14.8363 -0.115184 0)
(14.8432 -0.115861 0)
(14.8496 -0.11653 0)
(14.8555 -0.117193 0)
(14.861 -0.117851 0)
(14.8661 -0.118506 0)
(14.8708 -0.119147 0)
(14.875 -0.119763 0)
(14.8789 -0.120349 0)
(14.8824 -0.120917 0)
(14.8855 -0.121482 0)
(14.8883 -0.122043 0)
(14.8908 -0.122595 0)
(14.893 -0.123134 0)
(14.8949 -0.123663 0)
(14.8965 -0.124189 0)
(14.8978 -0.124705 0)
(14.8988 -0.125212 0)
(14.8996 -0.12572 0)
(14.9001 -0.126225 0)
(14.9004 -0.126724 0)
(14.9004 -0.127213 0)
(14.9002 -0.127697 0)
(14.8997 -0.128171 0)
(14.899 -0.128616 0)
(14.898 -0.129033 0)
(14.8968 -0.12943 0)
(14.8954 -0.129807 0)
(14.8938 -0.130162 0)
(14.8921 -0.130488 0)
(14.8902 -0.130781 0)
(14.8882 -0.131034 0)
(14.8862 -0.131248 0)
(14.8842 -0.131421 0)
(14.8822 -0.131552 0)
(14.8803 -0.131638 0)
(14.8785 -0.131676 0)
(14.8769 -0.131668 0)
(14.8755 -0.131585 0)
(14.8744 -0.131408 0)
(14.8737 -0.131236 0)
(14.8732 -0.131005 0)
(14.873 -0.130713 0)
(14.8732 -0.130372 0)
(14.8738 -0.12996 0)
(14.8747 -0.12948 0)
(14.876 -0.128926 0)
(14.8776 -0.128293 0)
(14.8794 -0.127572 0)
(14.8816 -0.12676 0)
(14.8841 -0.125863 0)
(14.8868 -0.124889 0)
(14.8897 -0.123763 0)
(14.8928 -0.122658 0)
(14.8961 -0.121384 0)
(14.8996 -0.120034 0)
(14.9033 -0.118575 0)
(14.9073 -0.117019 0)
(14.9114 -0.115381 0)
(14.9157 -0.113562 0)
(14.9202 -0.111757 0)
(14.9249 -0.109784 0)
(14.9299 -0.107723 0)
(14.9351 -0.105553 0)
(14.9405 -0.103287 0)
(14.9461 -0.100922 0)
(14.952 -0.0984693 0)
(14.9581 -0.0959282 0)
(14.9644 -0.0932977 0)
(14.9708 -0.0905818 0)
(14.9775 -0.0877774 0)
(14.9844 -0.0848887 0)
(14.9913 -0.0819156 0)
(14.9984 -0.0788543 0)
(15.0056 -0.0757066 0)
(15.0129 -0.0724826 0)
(15.0202 -0.0691824 0)
(15.0275 -0.0658001 0)
(15.0347 -0.0623348 0)
(15.0419 -0.0587812 0)
(15.0489 -0.0551409 0)
(15.0557 -0.0514111 0)
(15.0623 -0.047582 0)
(15.0685 -0.0437083 0)
(15.0744 -0.0396585 0)
(15.0799 -0.0356856 0)
(15.0851 -0.0315955 0)
(15.0899 -0.0274029 0)
(15.0942 -0.023135 0)
(15.0981 -0.0187907 0)
(15.1017 -0.0143869 0)
(15.1048 -0.00991694 0)
(15.1076 -0.00540578 0)
(15.11 -0.000868852 0)
(15.1122 0.00372352 0)
(15.1141 0.0085465 0)
(15.1158 0.0131933 0)
(15.1173 0.0178479 0)
(15.1186 0.0225055 0)
(15.1198 0.0271503 0)
(15.1208 0.0317698 0)
(15.1218 0.0363527 0)
(15.1226 0.0408863 0)
(15.1233 0.0453613 0)
(15.124 0.0497728 0)
(15.1245 0.0540956 0)
(15.1248 0.0583063 0)
(15.125 0.0624497 0)
(15.1251 0.0664864 0)
(15.1249 0.0704042 0)
(15.1247 0.0742059 0)
(15.1242 0.0778847 0)
(15.1236 0.0814385 0)
(15.1229 0.0848678 0)
(15.1221 0.0881631 0)
(15.1213 0.0913176 0)
(15.1204 0.0943294 0)
(15.1196 0.0971914 0)
(15.119 0.0999065 0)
(15.1186 0.10249 0)
(15.1185 0.104956 0)
(15.1189 0.107305 0)
(15.1198 0.109539 0)
(15.1213 0.111655 0)
(15.1235 0.11366 0)
(15.1265 0.115541 0)
(15.1305 0.117301 0)
(15.1353 0.118945 0)
(15.1412 0.120484 0)
(15.148 0.121916 0)
(15.1557 0.123226 0)
(15.1643 0.124384 0)
(15.1739 0.125362 0)
(15.1843 0.12613 0)
(15.1957 0.126683 0)
(15.2081 0.127108 0)
(15.2213 0.127452 0)
(15.2354 0.127742 0)
(15.2503 0.12801 0)
(15.2659 0.12824 0)
(15.2822 0.128379 0)
(15.2991 0.128424 0)
(15.3167 0.128382 0)
(15.3348 0.128251 0)
(15.3534 0.128054 0)
(15.3726 0.127806 0)
(15.3923 0.127515 0)
(15.4124 0.12718 0)
(15.433 0.126811 0)
(15.454 0.12639 0)
(15.4755 0.125924 0)
(15.4974 0.12542 0)
(15.5198 0.124877 0)
(15.5426 0.124307 0)
(15.5659 0.123716 0)
(15.5896 0.123103 0)
(15.6138 0.122461 0)
(15.6384 0.121789 0)
(15.6635 0.121085 0)
(15.6889 0.120347 0)
(15.7147 0.119588 0)
(15.7408 0.118805 0)
(15.7672 0.117998 0)
(15.7938 0.117164 0)
(15.8205 0.116296 0)
(15.8473 0.115386 0)
(15.874 0.114426 0)
(15.9007 0.11341 0)
(15.9272 0.112329 0)
(15.9534 0.11116 0)
(15.9793 0.109925 0)
(16.0048 0.108612 0)
(16.0296 0.107205 0)
(16.0538 0.105699 0)
(16.077 0.104097 0)
(16.0993 0.102388 0)
(16.1205 0.100561 0)
(16.1408 0.0985927 0)
(16.1602 0.0964592 0)
(16.1793 0.0941309 0)
(16.1987 0.0915721 0)
(16.2195 0.0887624 0)
(16.2429 0.0856487 0)
(16.2706 0.0821906 0)
(16.3048 0.0783014 0)
(16.3434 0.0739042 0)
(16.4025 0.068394 0)
(16.4842 0.0621621 0)
(16.5949 0.0564853 0)
(16.7424 0.0490425 0)