/*--------------------------------*- C++ -*----------------------------------*\
| =========                 |                                                 |
| \\      /  F ield         | OpenFOAM: The Open Source CFD Toolbox           |
|  \\    /   O peration     | Version:  v1812                                 |
|   \\  /    A nd           | Web:      www.OpenFOAM.com                      |
|    \\/     M anipulation  |                                                 |
\*---------------------------------------------------------------------------*/
FoamFile
{
    version     2.0;
    format      ascii;
    class       surfaceScalarField;
    location    "0.4";
    object      phi;
}
// * * * * * * * * * * * * * * * * * * * * * * * * * * * * * * * * * * * * * //

dimensions      [1 0 -1 0 0 0 0];
oriented        oriented;


internalField   nonuniform List<scalar> 
128384
(
0.00262501
2.71051e-19
0.00262501
-2.38524e-18
0.00262501
5.42101e-19
0.00262501
-1.13841e-18
0.00262501
-1.6263e-19
0.00262501
1.46367e-18
0.00262501
-5.42101e-20
0.00262501
5.42101e-20
0.00262501
-8.67362e-19
0.00262501
-3.25261e-19
0.00262501
1.02999e-18
0.00262501
0
0.00262501
-1.02999e-18
0.00262501
1.40946e-18
0.00262501
1.89735e-18
0.00262501
6.50521e-19
0.00262501
7.04731e-19
0.00262501
-4.33681e-19
0.00262501
1.0842e-19
0.00262501
4.33681e-19
0.00262501
-4.87891e-19
0.00262501
-2.71051e-19
0.00262501
-1.6263e-18
0.00262501
-2.1684e-18
0.00262501
-2.71051e-19
0.00262501
-7.58942e-19
0.00262501
-1.24683e-18
0.00262501
4.87891e-19
0.00262501
-2.1684e-18
0.00262501
-1.57209e-18
0.00262501
-5.42101e-20
0.00262501
5.96311e-19
0.00262501
4.87891e-19
0.00262501
-2.71051e-19
0.00262501
-1.35525e-18
0.00262501
-5.42101e-19
0.00262501
5.42101e-20
0.00262501
2.71051e-19
0.00262501
-5.42101e-20
0.00262501
5.96311e-19
0.00262501
9.75782e-19
0.00262501
5.96311e-19
0.00262501
1.13841e-18
0.00262501
3.03577e-18
0.00262501
-1.0842e-19
0.00262501
2.49366e-18
0.00262501
2.71051e-18
0.00262501
2.76472e-18
0.00262501
0
0.00262501
2.00577e-18
0.00262501
9.21572e-19
0.00262501
2.71051e-19
0.00262501
-2.71051e-19
0.00262501
-1.35525e-18
0.00262501
-4.33681e-19
0.00262501
5.42101e-20
0.00262501
2.92735e-18
0.00262501
2.21394e-16
0.00262501
1.68132e-14
0.00262501
1.22908e-12
0.00262501
9.38319e-11
0.00262483
7.13463e-09
0.00261338
5.62804e-07
0.00225763
5.142e-05
0.00214791
-1.01262e-05
0.00197369
0.000171032
0.0019378
5.00665e-05
0.00193815
2.10206e-05
0.00192507
3.62127e-05
0.00188819
5.84959e-05
0.0018251
7.59262e-05
0.00173851
8.06769e-05
0.0016391
7.52702e-05
0.00153641
6.77504e-05
0.00143007
6.44148e-05
0.00133032
6.56322e-05
0.00124222
6.66221e-05
0.00117352
6.73492e-05
0.00112373
6.89938e-05
0.00108062
7.18474e-05
0.00103114
7.53849e-05
0.000965937
7.81587e-05
0.000881947
7.82891e-05
0.000786292
7.58891e-05
0.00068565
7.21341e-05
0.000584053
6.86064e-05
0.000492662
6.53785e-05
0.00041616
6.07524e-05
0.000356992
5.57881e-05
0.000314258
5.35423e-05
0.000279085
5.43e-05
0.00023954
5.55627e-05
0.000190974
5.60414e-05
0.000134605
5.65984e-05
6.88498e-05
5.4873e-05
5.36884e-05
0.00262501
-7.04731e-19
0.00262501
-1.6263e-19
0.00262501
8.67362e-19
0.00262501
7.04731e-19
0.00262501
-2.1684e-19
0.00262501
1.51788e-18
0.00262501
1.6263e-19
0.00262501
-1.68051e-18
0.00262501
4.33681e-19
0.00262501
-3.79471e-19
0.00262501
-1.84314e-18
0.00262501
-1.68051e-18
0.00262501
1.13841e-18
0.00262501
1.24683e-18
0.00262501
-7.58942e-19
0.00262501
0
0.00262501
7.04731e-19
0.00262501
7.04731e-19
0.00262501
5.42101e-20
0.00262501
3.25261e-19
0.00262501
0
0.00262501
-1.6263e-18
0.00262501
-9.75782e-19
0.00262501
8.13152e-19
0.00262501
1.0842e-19
0.00262501
4.33681e-19
0.00262501
-4.33681e-19
0.00262501
-8.13152e-19
0.00262501
3.25261e-19
0.00262501
8.13152e-19
0.00262501
9.21572e-19
0.00262501
7.04731e-19
0.00262501
-1.19262e-18
0.00262501
-6.50521e-19
0.00262501
1.6263e-19
0.00262501
-2.1684e-19
0.00262501
-4.33681e-19
0.00262501
4.33681e-19
0.00262501
1.02999e-18
0.00262501
1.19262e-18
0.00262501
1.02999e-18
0.00262501
1.84314e-18
0.00262501
5.42101e-19
0.00262501
5.96311e-19
0.00262501
3.36103e-18
0.00262501
1.24683e-18
0.00262501
1.35525e-18
0.00262501
1.35525e-18
0.00262501
2.27682e-18
0.00262501
2.00577e-18
0.00262501
2.98156e-18
0.00262501
9.21572e-19
0.00262501
7.04731e-19
0.00262501
2.1684e-19
0.00262501
4.87891e-19
0.00262501
1.0842e-19
0.00262501
2.87314e-18
0.00262501
1.64311e-16
0.00262501
1.08033e-14
0.00262501
6.16511e-13
0.00262501
3.58383e-11
0.00262485
1.43101e-09
0.00261479
3.54357e-08
0.00234093
2.13807e-05
0.00227018
-5.80675e-05
0.00213721
0.000294454
0.00203577
0.000161818
0.00198417
8.95272e-05
0.00194934
9.04557e-05
0.00191174
0.000115299
0.00185944
0.000139326
0.00178298
0.000151101
0.00168683
0.000148375
0.00158257
0.000138533
0.00147405
0.000132978
0.00137417
0.000132601
0.00128724
0.000132696
0.00122073
0.00013315
0.00117244
0.000136152
0.00113012
0.000142162
0.00108103
0.000149381
0.00101594
0.000155371
0.000931276
0.00015674
0.000833616
0.000153635
0.000728918
0.000148306
0.000622453
0.000142369
0.000526902
0.000135239
0.000447246
0.000124796
0.000385966
0.000113845
0.000341926
0.000108343
0.00030568
0.000109183
0.000264591
0.000111955
0.000213402
0.000114266
0.000152449
0.00011746
7.87846e-05
0.00011762
0.00011759
0.00262501
5.42101e-19
0.00262501
7.04731e-19
0.00262501
-3.25261e-19
0.00262501
-3.79471e-19
0.00262501
1.13841e-18
0.00262501
-1.40946e-18
0.00262501
-1.19262e-18
0.00262501
-3.25261e-19
0.00262501
-1.6263e-19
0.00262501
-4.87891e-19
0.00262501
-2.71051e-19
0.00262501
1.57209e-18
0.00262501
-1.19262e-18
0.00262501
-1.0842e-18
0.00262501
8.67362e-19
0.00262501
8.13152e-19
0.00262501
-9.21572e-19
0.00262501
1.89735e-18
0.00262501
2.27682e-18
0.00262501
-1.0842e-19
0.00262501
-1.35525e-18
0.00262501
-1.0842e-19
0.00262501
-1.24683e-18
0.00262501
3.25261e-19
0.00262501
1.24683e-18
0.00262501
5.96311e-19
0.00262501
-5.42101e-20
0.00262501
3.79471e-19
0.00262501
3.79471e-19
0.00262501
4.87891e-19
0.00262501
-2.1684e-19
0.00262501
-1.95156e-18
0.00262501
1.0842e-19
0.00262501
-2.00577e-18
0.00262501
-6.50521e-19
0.00262501
9.21572e-19
0.00262501
-1.0842e-19
0.00262501
9.21572e-19
0.00262501
9.75782e-19
0.00262501
-3.25261e-19
0.00262501
8.67362e-19
0.00262501
2.1684e-19
0.00262501
3.14419e-18
0.00262501
1.46367e-18
0.00262501
1.95156e-18
0.00262501
2.05998e-18
0.00262501
2.1684e-18
0.00262501
1.19262e-18
0.00262501
9.21572e-19
0.00262501
3.25261e-19
0.00262501
7.58942e-19
0.00262501
1.13841e-18
0.00262501
8.67362e-19
0.00262501
1.0842e-18
0.00262501
-8.67362e-19
0.00262501
-9.21572e-19
0.00262501
1.95156e-18
0.00262501
1.53252e-16
0.00262501
1.18325e-14
0.00262501
8.33101e-13
0.00262501
6.39518e-11
0.00262484
4.35885e-09
0.00261403
3.58944e-07
0.00228624
4.50113e-05
0.00223003
-0.000100213
0.00214519
0.000363592
0.00205192
0.000268464
0.00198821
0.000169091
0.00194708
0.000149969
0.00190805
0.000171333
0.00185581
0.000200247
0.00178085
0.000218464
0.00168815
0.000217664
0.00158934
0.000204799
0.00148886
0.000196012
0.00139546
0.000194724
0.00131231
0.00019564
0.00124851
0.000197374
0.00120099
0.000202453
0.00115976
0.000210858
0.00111288
0.000220781
0.00105092
0.000228997
0.000969033
0.000232035
0.000872436
0.000229942
0.000766907
0.000225185
0.000657859
0.000218818
0.000558338
0.000209081
0.000473616
0.000193864
0.000406114
0.000177913
0.000355471
0.000169385
0.000313109
0.000169631
0.000266587
0.000173102
0.000211417
0.000175967
0.000148735
0.000179906
7.56886e-05
0.000179778
0.000178988
0.00262501
2.71051e-19
0.00262501
-2.71051e-19
0.00262501
-1.84314e-18
0.00262501
2.1684e-19
0.00262501
-3.79471e-19
0.00262501
1.6263e-19
0.00262501
2.1684e-19
0.00262501
-2.1684e-18
0.00262501
-2.71051e-18
0.00262501
2.71051e-19
0.00262501
-5.96311e-19
0.00262501
-5.42101e-19
0.00262501
1.57209e-18
0.00262501
3.79471e-19
0.00262501
1.24683e-18
0.00262501
3.79471e-19
0.00262501
8.13152e-19
0.00262501
-5.42101e-19
0.00262501
8.67362e-19
0.00262501
1.95156e-18
0.00262501
2.76472e-18
0.00262501
2.00577e-18
0.00262501
2.49366e-18
0.00262501
1.02999e-18
0.00262501
-5.96311e-19
0.00262501
1.0842e-19
0.00262501
6.50521e-19
0.00262501
1.0842e-19
0.00262501
1.24683e-18
0.00262501
2.60209e-18
0.00262501
3.25261e-19
0.00262501
1.6263e-19
0.00262501
6.50521e-19
0.00262501
2.1684e-19
0.00262501
1.19262e-18
0.00262501
1.30104e-18
0.00262501
1.78893e-18
0.00262501
1.78893e-18
0.00262501
9.21572e-19
0.00262501
2.27682e-18
0.00262501
1.95156e-18
0.00262501
1.73472e-18
0.00262501
1.89735e-18
0.00262501
-5.42101e-20
0.00262501
1.78893e-18
0.00262501
1.24683e-18
0.00262501
3.25261e-19
0.00262501
1.40946e-18
0.00262501
2.11419e-18
0.00262501
1.0842e-18
0.00262501
1.89735e-18
0.00262501
1.24683e-18
0.00262501
1.78893e-18
0.00262501
2.38524e-18
0.00262501
1.0842e-18
0.00262501
8.13152e-19
0.00262501
2.81893e-18
0.00262501
1.79978e-16
0.00262501
1.3871e-14
0.00262501
9.89474e-13
0.00262501
7.46536e-11
0.00262485
4.54621e-09
0.00261501
3.01943e-07
0.00232086
4.96649e-05
0.00223682
-0.000106852
0.00213547
0.000439619
0.00204314
0.000368307
0.00197346
0.00025126
0.00192579
0.000212845
0.00188401
0.000227662
0.00183158
0.000259978
0.00175899
0.000283567
0.00167071
0.000283569
0.00157701
0.000267907
0.00148116
0.000257268
0.00139025
0.000256962
0.00130754
0.000260047
0.00124299
0.000263421
0.00119467
0.000269377
0.00115439
0.000277841
0.00111065
0.000287762
0.00105372
0.000296149
0.000977505
0.000300647
0.000885118
0.000301471
0.000781128
0.000300504
0.000671202
0.00029675
0.000568588
0.000286544
0.000479417
0.000267694
0.000407286
0.000246774
0.000353069
0.000233769
0.000308418
0.000231678
0.000260729
0.000234563
0.000205582
0.000237161
0.000143818
0.000241392
7.2971e-05
0.000239989
0.000238255
0.00262501
-1.19262e-18
0.00262501
-3.25261e-19
0.00262501
1.6263e-19
0.00262501
3.25261e-19
0.00262501
-6.50521e-19
0.00262501
-1.24683e-18
0.00262501
1.0842e-19
0.00262501
-3.79471e-19
0.00262501
-5.42101e-20
0.00262501
-2.71051e-19
0.00262501
1.19262e-18
0.00262501
-2.1684e-19
0.00262501
-1.02999e-18
0.00262501
1.95156e-18
0.00262501
1.13841e-18
0.00262501
2.22261e-18
0.00262501
1.02999e-18
0.00262501
-1.0842e-19
0.00262501
-5.42101e-19
0.00262501
5.42101e-19
0.00262501
-1.0842e-19
0.00262501
7.04731e-19
0.00262501
-2.11419e-18
0.00262501
-1.0842e-19
0.00262501
1.6263e-19
0.00262501
-5.42101e-19
0.00262501
5.96311e-19
0.00262501
1.89735e-18
0.00262501
7.04731e-19
0.00262501
-1.13841e-18
0.00262501
-7.04731e-19
0.00262501
-6.50521e-19
0.00262501
8.13152e-19
0.00262501
1.84314e-18
0.00262501
9.21572e-19
0.00262501
2.49366e-18
0.00262501
1.46367e-18
0.00262501
1.13841e-18
0.00262501
1.73472e-18
0.00262501
2.43945e-18
0.00262501
1.6263e-18
0.00262501
7.04731e-19
0.00262501
4.33681e-19
0.00262501
2.87314e-18
0.00262501
4.33681e-19
0.00262501
-2.38524e-18
0.00262501
5.96311e-19
0.00262501
-7.04731e-19
0.00262501
7.58942e-19
0.00262501
7.04731e-19
0.00262501
2.92735e-18
0.00262501
9.75782e-19
0.00262501
1.89735e-18
0.00262501
-4.33681e-19
0.00262501
1.35525e-18
0.00262501
-6.50521e-19
0.00262501
1.19262e-18
0.00262501
1.9185e-16
0.00262501
1.51927e-14
0.00262501
1.1258e-12
0.00262501
8.80623e-11
0.00262486
5.86183e-09
0.00261556
4.65429e-07
0.00233221
5.71607e-05
0.00225095
-0.00010116
0.00213389
0.000515578
0.00204867
0.000457223
0.00198251
0.000326954
0.00193351
0.000273185
0.00188822
0.000284636
0.00183224
0.000321626
0.00175695
0.000351631
0.00166674
0.000352986
0.00157121
0.000334558
0.0014747
0.000322057
0.00138318
0.00032234
0.0013004
0.000327068
0.00123484
0.000331693
0.00118499
0.000337773
0.00114339
0.000345308
0.00109935
0.000353616
0.00104304
0.000361077
0.000968628
0.000366249
0.000878728
0.00036991
0.00077731
0.000373133
0.000670299
0.000372389
0.000570385
0.000362035
0.00048319
0.000340009
0.000412254
0.000314872
0.000358346
0.000297821
0.000313391
0.000293493
0.000264953
0.000296199
0.000208763
0.000299127
0.000146017
0.000303865
7.39504e-05
0.000301719
0.000299034
0.00262501
2.1684e-19
0.00262501
4.33681e-19
0.00262501
2.71051e-19
0.00262501
0
0.00262501
-3.25261e-19
0.00262501
4.87891e-19
0.00262501
-5.42101e-19
0.00262501
0
0.00262501
-1.40946e-18
0.00262501
-4.33681e-19
0.00262501
1.6263e-19
0.00262501
4.87891e-19
0.00262501
7.58942e-19
0.00262501
5.42101e-20
0.00262501
-1.35525e-18
0.00262501
1.6263e-19
0.00262501
1.6263e-19
0.00262501
1.0842e-19
0.00262501
-5.42101e-19
0.00262501
-4.11997e-18
0.00262501
-3.03577e-18
0.00262501
-1.6263e-19
0.00262501
1.13841e-18
0.00262501
-3.25261e-19
0.00262501
1.57209e-18
0.00262501
8.67362e-19
0.00262501
2.05998e-18
0.00262501
-1.6263e-19
0.00262501
-1.46367e-18
0.00262501
4.33681e-19
0.00262501
1.02999e-18
0.00262501
1.89735e-18
0.00262501
9.75782e-19
0.00262501
2.71051e-19
0.00262501
5.42101e-19
0.00262501
2.71051e-19
0.00262501
-5.42101e-19
0.00262501
1.57209e-18
0.00262501
2.76472e-18
0.00262501
1.51788e-18
0.00262501
1.51788e-18
0.00262501
1.30104e-18
0.00262501
-7.58942e-19
0.00262501
3.79471e-19
0.00262501
-1.19262e-18
0.00262501
4.33681e-19
0.00262501
-5.42101e-20
0.00262501
1.13841e-18
0.00262501
3.14419e-18
0.00262501
5.42101e-19
0.00262501
-1.0842e-18
0.00262501
1.78893e-18
0.00262501
1.51788e-18
0.00262501
2.71051e-18
0.00262501
2.33103e-18
0.00262501
-3.25261e-19
0.00262501
1.13841e-18
0.00262501
1.71467e-16
0.00262501
1.43077e-14
0.00262501
1.11933e-12
0.00262501
8.81829e-11
0.00262488
6.13304e-09
0.00261628
5.16498e-07
0.0023501
6.26433e-05
0.00227609
-8.85921e-05
0.00213306
0.000600233
0.00204872
0.000538729
0.0019875
0.000394343
0.00193998
0.000328901
0.00189443
0.000339928
0.00183678
0.000383589
0.00175967
0.000421796
0.00166776
0.000424916
0.00157137
0.000403326
0.00147684
0.00038836
0.00138717
0.000388575
0.00130712
0.000394637
0.00124195
0.00040106
0.00119019
0.000407854
0.001145
0.000415063
0.00109652
0.000422037
0.00103597
0.000428346
0.000958938
0.000433121
0.000868705
0.000438258
0.00076889
0.000444288
0.000665364
0.000445495
0.000568993
0.000434728
0.000484346
0.000410322
0.000414938
0.000382132
0.000361078
0.000361878
0.000315388
0.000355641
0.000266168
0.000358151
0.000209392
0.000361582
0.000146456
0.000366498
7.36397e-05
0.000364524
0.000359991
0.00262501
-1.02999e-18
0.00262501
-5.42101e-19
0.00262501
-4.33681e-19
0.00262501
9.75782e-19
0.00262501
3.79471e-18
0.00262501
9.75782e-19
0.00262501
-5.42101e-19
0.00262501
-6.50521e-19
0.00262501
9.21572e-19
0.00262501
5.42101e-20
0.00262501
3.25261e-19
0.00262501
4.33681e-19
0.00262501
3.25261e-19
0.00262501
0
0.00262501
7.04731e-19
0.00262501
1.13841e-18
0.00262501
5.42101e-19
0.00262501
3.79471e-19
0.00262501
-1.24683e-18
0.00262501
-1.19262e-18
0.00262501
-1.02999e-18
0.00262501
-2.76472e-18
0.00262501
-1.46367e-18
0.00262501
-8.67362e-19
0.00262501
-6.50521e-19
0.00262501
4.87891e-19
0.00262501
1.0842e-18
0.00262501
9.21572e-19
0.00262501
9.75782e-19
0.00262501
9.21572e-19
0.00262501
8.67362e-19
0.00262501
2.71051e-19
0.00262501
-1.0842e-19
0.00262501
-1.0842e-19
0.00262501
-1.68051e-18
0.00262501
2.71051e-19
0.00262501
1.13841e-18
0.00262501
1.35525e-18
0.00262501
1.0842e-19
0.00262501
9.21572e-19
0.00262501
1.73472e-18
0.00262501
1.95156e-18
0.00262501
1.68051e-18
0.00262501
-7.04731e-19
0.00262501
-2.1684e-19
0.00262501
-1.6263e-19
0.00262501
1.6263e-19
0.00262501
5.96311e-19
0.00262501
-1.6263e-19
0.00262501
1.6263e-18
0.00262501
1.73472e-18
0.00262501
4.33681e-19
0.00262501
1.35525e-18
0.00262501
-3.25261e-19
0.00262501
-4.87891e-19
0.00262501
9.21572e-19
0.00262501
5.04154e-18
0.00262501
9.81745e-17
0.00262501
9.38193e-15
0.00262501
8.14283e-13
0.00262501
6.6708e-11
0.00262492
4.9671e-09
0.00261832
4.0748e-07
0.00241737
4.70409e-05
0.00232705
-6.7811e-05
0.00213827
0.000704933
0.0020438
0.000620588
0.0019829
0.000457388
0.00193579
0.000380685
0.00189249
0.000391168
0.00183697
0.000441936
0.00176114
0.000489669
0.00167143
0.000496058
0.00157766
0.000472154
0.0014862
0.000454512
0.00139959
0.00045458
0.00132245
0.000462822
0.00125778
0.000471531
0.00120402
0.000479591
0.00115511
0.000486915
0.00110185
0.000493187
0.00103608
0.000498426
0.000955683
0.000502343
0.000864326
0.000507671
0.000764851
0.000515042
0.000664191
0.000517148
0.000570082
0.0005057
0.000486577
0.000479728
0.000418298
0.00044955
0.000363974
0.000426707
0.000316745
0.000418673
0.000266735
0.000420786
0.00020966
0.000424459
0.000146169
0.000429068
7.29676e-05
0.000427949
0.000420849
0.00262501
9.75782e-19
0.00262501
-2.22261e-18
0.00262501
-1.19262e-18
0.00262501
2.71051e-19
0.00262501
-1.0842e-19
0.00262501
-5.42101e-19
0.00262501
2.38524e-18
0.00262501
-2.71051e-19
0.00262501
4.33681e-19
0.00262501
3.79471e-19
0.00262501
3.79471e-19
0.00262501
0
0.00262501
5.42101e-19
0.00262501
9.21572e-19
0.00262501
4.87891e-19
0.00262501
4.87891e-19
0.00262501
2.1684e-19
0.00262501
-5.42101e-19
0.00262501
3.25261e-19
0.00262501
5.96311e-19
0.00262501
-1.6263e-19
0.00262501
-5.42101e-20
0.00262501
3.79471e-19
0.00262501
-4.87891e-19
0.00262501
-2.1684e-19
0.00262501
-4.33681e-19
0.00262501
4.87891e-19
0.00262501
4.33681e-19
0.00262501
9.21572e-19
0.00262501
1.40946e-18
0.00262501
5.42101e-19
0.00262501
9.21572e-19
0.00262501
9.21572e-19
0.00262501
9.21572e-19
0.00262501
1.68051e-18
0.00262501
1.13841e-18
0.00262501
1.57209e-18
0.00262501
8.67362e-19
0.00262501
7.58942e-19
0.00262501
8.67362e-19
0.00262501
-2.71051e-19
0.00262501
-2.33103e-18
0.00262501
-6.50521e-19
0.00262501
1.51788e-18
0.00262501
-7.04731e-19
0.00262501
4.87891e-19
0.00262501
-6.50521e-19
0.00262501
1.40946e-18
0.00262501
4.33681e-19
0.00262501
1.40946e-18
0.00262501
1.51788e-18
0.00262501
1.35525e-18
0.00262501
7.04731e-19
0.00262501
2.1684e-19
0.00262501
1.0842e-18
0.00262501
7.04731e-19
0.00262501
2.33103e-18
0.00262501
2.09793e-17
0.00262501
2.94946e-15
0.00262501
3.49279e-13
0.00262501
3.86275e-11
0.00262495
3.67453e-09
0.00262045
2.93659e-07
0.00248318
2.96863e-05
0.0023537
-3.4101e-05
0.00212586
0.000819361
0.00203243
0.000695425
0.00198003
0.000510884
0.00193751
0.000425745
0.0018981
0.000436998
0.00184375
0.000497212
0.00176729
0.000556736
0.00167894
0.000566669
0.00158786
0.000540808
0.00149899
0.000521381
0.00141525
0.000521808
0.0013401
0.000532285
0.00127551
0.000543234
0.00121985
0.00055257
0.00116774
0.00055993
0.00111063
0.000565735
0.00104071
0.000570161
0.000957616
0.000573152
0.000865328
0.000578237
0.000765648
0.000586019
0.00066652
0.000588458
0.000573604
0.000576408
0.000490549
0.000549509
0.000422501
0.000517893
0.000367581
0.000492686
0.000318574
0.000482616
0.00026761
0.000483945
0.000210215
0.000487628
0.000145632
0.000491748
7.24232e-05
0.000491522
0.000481918
0.00262501
-5.42101e-20
0.00262501
3.25261e-19
0.00262501
2.00577e-18
0.00262501
-1.51788e-18
0.00262501
-9.21572e-19
0.00262501
-8.67362e-19
0.00262501
-1.35525e-18
0.00262501
6.50521e-19
0.00262501
3.25261e-19
0.00262501
-7.04731e-19
0.00262501
4.33681e-19
0.00262501
1.35525e-18
0.00262501
-1.0842e-19
0.00262501
-7.04731e-19
0.00262501
3.25261e-19
0.00262501
-5.42101e-20
0.00262501
5.42101e-19
0.00262501
-8.13152e-19
0.00262501
6.50521e-19
0.00262501
9.75782e-19
0.00262501
1.57209e-18
0.00262501
1.95156e-18
0.00262501
-4.33681e-19
0.00262501
-2.33103e-18
0.00262501
-1.51788e-18
0.00262501
-5.96311e-19
0.00262501
-4.87891e-19
0.00262501
8.67362e-19
0.00262501
4.33681e-19
0.00262501
2.1684e-19
0.00262501
-6.50521e-19
0.00262501
2.43945e-18
0.00262501
-5.42101e-20
0.00262501
2.38524e-18
0.00262501
3.68629e-18
0.00262501
2.05998e-18
0.00262501
6.50521e-19
0.00262501
3.79471e-19
0.00262501
2.71051e-19
0.00262501
-3.25261e-19
0.00262501
-3.25261e-19
0.00262501
1.78893e-18
0.00262501
-1.6263e-19
0.00262501
-1.6263e-19
0.00262501
6.50521e-19
0.00262501
4.87891e-19
0.00262501
1.57209e-18
0.00262501
-2.00577e-18
0.00262501
-4.87891e-19
0.00262501
1.40946e-18
0.00262501
-3.25261e-19
0.00262501
2.60209e-18
0.00262501
1.02999e-18
0.00262501
2.71051e-19
0.00262501
-5.96311e-19
0.00262501
5.42101e-20
0.00262501
2.11419e-18
0.00262501
2.76472e-18
0.00262501
3.63804e-16
0.00262501
-4.90992e-15
0.00262501
2.71339e-12
0.00262499
5.50204e-10
0.00262274
1.09532e-07
0.00255254
1.69394e-05
0.00234136
3.36682e-05
0.00209736
0.000928895
0.00202665
0.000749634
0.00199225
0.000549105
0.00195411
0.000465661
0.00191338
0.000481971
0.00185284
0.000555506
0.00177134
0.000626438
0.00168378
0.000637018
0.00159629
0.000608423
0.00151128
0.000588226
0.00143124
0.000589814
0.00135852
0.000602553
0.00129423
0.000615504
0.00123718
0.000625745
0.0011825
0.000632966
0.00112243
0.000638463
0.00104932
0.00064255
0.000964116
0.000645022
0.000871037
0.00064981
0.000770941
0.000657605
0.000672613
0.000660076
0.000580458
0.000647639
0.00049791
0.000620178
0.00043007
0.00058736
0.000374565
0.00055988
0.000324021
0.000547442
0.000271013
0.000547758
0.000211928
0.000551353
0.000145932
0.000555109
7.23818e-05
0.00055567
0.000544007
0.00262501
7.04731e-19
0.00262501
1.68051e-18
0.00262501
-5.96311e-19
0.00262501
1.0842e-19
0.00262501
-1.0842e-19
0.00262501
-4.87891e-19
0.00262501
8.13152e-19
0.00262501
-1.6263e-18
0.00262501
-1.0842e-18
0.00262501
3.25261e-19
0.00262501
-1.19262e-18
0.00262501
-8.13152e-19
0.00262501
-1.19262e-18
0.00262501
-2.71051e-19
0.00262501
-1.35525e-18
0.00262501
-1.46367e-18
0.00262501
5.42101e-20
0.00262501
-3.79471e-19
0.00262501
-2.1684e-19
0.00262501
-1.0842e-19
0.00262501
5.96311e-19
0.00262501
3.79471e-19
0.00262501
1.6263e-19
0.00262501
8.67362e-19
0.00262501
-9.75782e-19
0.00262501
-1.84314e-18
0.00262501
-1.0842e-18
0.00262501
0
0.00262501
-3.79471e-19
0.00262501
1.0842e-19
0.00262501
-3.79471e-19
0.00262501
-6.50521e-19
0.00262501
4.87891e-19
0.00262501
3.79471e-19
0.00262501
-1.6263e-19
0.00262501
-1.30104e-18
0.00262501
-3.03577e-18
0.00262501
3.08998e-18
0.00262501
1.24683e-18
0.00262501
-1.57209e-18
0.00262501
-1.40946e-18
0.00262501
-2.54788e-18
0.00262501
6.50521e-19
0.00262501
0
0.00262501
2.1684e-19
0.00262501
2.1684e-19
0.00262501
-4.33681e-19
0.00262501
-5.42101e-19
0.00262501
-5.42101e-20
0.00262501
-1.0842e-19
0.00262501
3.25261e-19
0.00262501
6.50521e-19
0.00262501
1.35525e-18
0.00262501
1.84314e-18
0.00262501
3.25261e-19
0.00262501
-4.33681e-19
0.00262501
-4.87891e-19
0.00262501
2.24972e-17
0.00262501
1.45007e-15
0.00262501
3.15293e-14
0.00262501
2.44853e-12
0.002625
-1.1155e-10
0.00262472
-6.89427e-09
0.00261507
-7.06475e-07
0.002303
0.000143863
0.00207679
0.0010156
0.00204166
0.000774661
0.00202437
0.000573055
0.00198667
0.00050444
0.0019367
0.000532568
0.00186132
0.0006241
0.00177198
0.000701133
0.00168592
0.000706354
0.00160328
0.000674218
0.00152338
0.000654569
0.00144769
0.000658173
0.00137763
0.000673151
0.00131383
0.00068769
0.00125547
0.000698334
0.00119838
0.000705395
0.00113559
0.000710854
0.00106011
0.000715132
0.000972917
0.000717672
0.000878627
0.000722333
0.000778599
0.000729858
0.000680951
0.000732349
0.000589451
0.000719861
0.00050751
0.000692066
0.000439776
0.000658335
0.000383037
0.000628755
0.0003301
0.000613474
0.000274276
0.000612326
0.000212955
0.000615691
0.000145378
0.000619281
7.17534e-05
0.000620464
0.000607022
0.00262501
-5.96311e-19
0.00262501
-1.19262e-18
0.00262501
3.79471e-19
0.00262501
0
0.00262501
-3.79471e-19
0.00262501
3.25261e-19
0.00262501
5.42101e-20
0.00262501
1.0842e-19
0.00262501
-1.0842e-19
0.00262501
-2.71051e-19
0.00262501
1.0842e-19
0.00262501
-2.49366e-18
0.00262501
8.67362e-19
0.00262501
-1.24683e-18
0.00262501
-3.41524e-18
0.00262501
-2.22261e-18
0.00262501
-2.71051e-19
0.00262501
-3.79471e-19
0.00262501
-3.79471e-19
0.00262501
4.87891e-19
0.00262501
-1.13841e-18
0.00262501
-1.89735e-18
0.00262501
-1.73472e-18
0.00262501
-5.96311e-19
0.00262501
-4.33681e-19
0.00262501
1.6263e-19
0.00262501
-1.6263e-18
0.00262501
-1.46367e-18
0.00262501
-4.87891e-19
0.00262501
-1.73472e-18
0.00262501
-3.79471e-19
0.00262501
7.04731e-19
0.00262501
2.1684e-19
0.00262501
-1.6263e-19
0.00262501
-2.71051e-19
0.00262501
1.6263e-19
0.00262501
6.50521e-19
0.00262501
-5.04154e-18
0.00262501
-2.1684e-19
0.00262501
6.50521e-19
0.00262501
-9.21572e-19
0.00262501
2.1684e-19
0.00262501
4.87891e-19
0.00262501
1.46367e-18
0.00262501
1.13841e-18
0.00262501
1.0842e-19
0.00262501
2.71051e-18
0.00262501
1.02999e-18
0.00262501
1.24683e-18
0.00262501
2.71051e-19
0.00262501
9.75782e-19
0.00262501
-1.02999e-18
0.00262501
-1.89735e-18
0.00262501
2.1684e-19
0.00262501
-4.33681e-19
0.00262501
2.1684e-19
0.00262501
1.68051e-18
0.00262501
3.08998e-17
0.00262501
2.31889e-15
0.00262501
1.00836e-13
0.00262501
8.31493e-12
0.00262501
2.64127e-10
0.00262475
2.56671e-08
0.0026108
6.79115e-07
0.00225491
0.000262704
0.00207866
0.00105578
0.00208585
0.000784603
0.00207234
0.000589058
0.00202723
0.000548132
0.0019586
0.000597617
0.00186284
0.000707823
0.00176762
0.000779069
0.00168565
0.000772332
0.00161
0.000736809
0.00153691
0.00071937
0.00146646
0.0007261
0.00139928
0.000743531
0.00133598
0.000759441
0.00127598
0.000770258
0.00121607
0.000777235
0.00115031
0.000782974
0.00107245
0.000787915
0.000983461
0.000791044
0.00088814
0.000795704
0.000788329
0.000802912
0.000691506
0.000805471
0.000600768
0.000793325
0.000519593
0.000765484
0.00045161
0.000731135
0.000392847
0.000699555
0.000336699
0.000680809
0.000277528
0.000677615
0.000213705
0.000680671
0.000144821
0.000684169
7.0962e-05
0.000686513
0.000671702
0.00262501
5.42101e-20
0.00262501
3.79471e-19
0.00262501
5.96311e-19
0.00262501
-7.58942e-19
0.00262501
-5.42101e-20
0.00262501
-5.42101e-20
0.00262501
-3.25261e-19
0.00262501
1.35525e-18
0.00262501
3.25261e-19
0.00262501
2.1684e-19
0.00262501
1.24683e-18
0.00262501
-1.40946e-18
0.00262501
-3.90313e-18
0.00262501
-2.00577e-18
0.00262501
-5.42101e-20
0.00262501
1.57209e-18
0.00262501
-9.21572e-19
0.00262501
-1.0842e-18
0.00262501
-3.57787e-18
0.00262501
-1.13841e-18
0.00262501
8.13152e-19
0.00262501
-5.96311e-19
0.00262501
8.13152e-19
0.00262501
-2.71051e-18
0.00262501
-3.79471e-19
0.00262501
9.75782e-19
0.00262501
0
0.00262501
-1.89735e-18
0.00262501
-6.50521e-19
0.00262501
-6.50521e-19
0.00262501
-2.1684e-19
0.00262501
-9.21572e-19
0.00262501
7.04731e-19
0.00262501
9.21572e-19
0.00262501
4.33681e-19
0.00262501
3.46945e-18
0.00262501
5.42101e-19
0.00262501
7.04731e-19
0.00262501
-2.71051e-19
0.00262501
-3.79471e-19
0.00262501
1.0842e-18
0.00262501
-4.33681e-19
0.00262501
-3.25261e-19
0.00262501
-7.58942e-19
0.00262501
8.67362e-19
0.00262501
3.57787e-18
0.00262501
1.19262e-18
0.00262501
2.98156e-18
0.00262501
1.57209e-18
0.00262501
1.57209e-18
0.00262501
-1.19262e-18
0.00262501
1.19262e-18
0.00262501
6.50521e-19
0.00262501
-5.96311e-19
0.00262501
-1.57209e-18
0.00262501
-3.25261e-19
0.00262501
-5.96311e-19
0.00262501
3.7405e-17
0.00262501
2.62529e-15
0.00262501
1.33161e-13
0.00262501
1.03742e-11
0.002625
4.14685e-10
0.00262473
3.99109e-08
0.00260995
1.29126e-06
0.00222233
0.000376695
0.00210445
0.00106456
0.00215094
0.000776202
0.00212715
0.000608441
0.00206452
0.000605446
0.00196739
0.000685384
0.00185398
0.000803515
0.00176073
0.000853578
0.00168661
0.000832374
0.00161935
0.000795819
0.00155337
0.000782679
0.00148772
0.000793698
0.00142279
0.00081381
0.00135926
0.000830813
0.00129681
0.000841929
0.00123313
0.000849154
0.00116364
0.000855457
0.00108313
0.000861223
0.000992613
0.000865056
0.000896854
0.000869605
0.000798021
0.000876374
0.000702836
0.000879112
0.000613473
0.000867778
0.000533384
0.000840355
0.000464783
0.000805789
0.000403223
0.000772184
0.000343164
0.000749498
0.000280276
0.000743787
0.000214042
0.000746252
0.000144164
0.000749905
7.07527e-05
0.000753377
0.000739629
0.00262501
5.96311e-19
0.00262501
5.42101e-20
0.00262501
-3.79471e-19
0.00262501
-1.40946e-18
0.00262501
-3.25261e-18
0.00262501
-1.30104e-18
0.00262501
2.1684e-19
0.00262501
-4.33681e-19
0.00262501
-6.50521e-19
0.00262501
3.79471e-19
0.00262501
-1.89735e-18
0.00262501
5.42101e-19
0.00262501
1.13841e-18
0.00262501
5.96311e-19
0.00262501
5.42101e-20
0.00262501
-5.42101e-19
0.00262501
-5.42101e-20
0.00262501
4.33681e-19
0.00262501
-6.50521e-19
0.00262501
-2.49366e-18
0.00262501
-1.35525e-18
0.00262501
1.24683e-18
0.00262501
-3.08998e-18
0.00262501
-8.67362e-19
0.00262501
-5.96311e-19
0.00262501
-1.40946e-18
0.00262501
-2.27682e-18
0.00262501
9.21572e-19
0.00262501
-9.21572e-19
0.00262501
-1.0842e-19
0.00262501
2.71051e-19
0.00262501
2.71051e-19
0.00262501
-2.22261e-18
0.00262501
-1.40946e-18
0.00262501
-1.78893e-18
0.00262501
-1.13841e-18
0.00262501
2.1684e-19
0.00262501
-1.0842e-19
0.00262501
-1.0842e-19
0.00262501
-2.1684e-19
0.00262501
-3.25261e-19
0.00262501
-1.6263e-19
0.00262501
-5.42101e-20
0.00262501
5.42101e-19
0.00262501
2.22261e-18
0.00262501
-1.51788e-18
0.00262501
9.75782e-19
0.00262501
5.96311e-19
0.00262501
-1.40946e-18
0.00262501
-4.87891e-19
0.00262501
2.22261e-18
0.00262501
-2.1684e-19
0.00262501
-1.0842e-19
0.00262501
-7.58942e-19
0.00262501
1.51788e-18
0.00262501
3.25261e-19
0.00262501
1.0842e-18
0.00262501
4.32055e-17
0.00262501
2.7851e-15
0.00262501
1.60123e-13
0.00262501
1.12672e-11
0.002625
5.32047e-10
0.00262471
4.52997e-08
0.00260818
1.62903e-06
0.00220323
0.000466257
0.00214872
0.00106264
0.00220842
0.000754789
0.00217617
0.000641267
0.00208596
0.000684421
0.001958
0.000794323
0.00184374
0.000896107
0.00176099
0.000919022
0.00169528
0.000888022
0.00163484
0.000853209
0.00157433
0.00084556
0.00151232
0.000861237
0.00144887
0.000883934
0.00138458
0.000901824
0.00131926
0.000913499
0.00125148
0.000921396
0.00117819
0.000928366
0.00109551
0.000934785
0.00100444
0.000939086
0.00090928
0.000943331
0.000812226
0.000949908
0.000719055
0.000953302
0.000631166
0.000943413
0.000551729
0.000917002
0.000481585
0.000882543
0.00041639
0.00084662
0.000351811
0.000819791
0.000284956
0.000811261
0.000216144
0.000813036
0.000145199
0.000817429
7.2193e-05
0.000820999
0.000812114
0.00262501
-7.04731e-19
0.00262501
7.58942e-19
0.00262501
1.02999e-18
0.00262501
4.87891e-19
0.00262501
3.25261e-18
0.00262501
1.6263e-19
0.00262501
-5.42101e-20
0.00262501
-1.30104e-18
0.00262501
1.30104e-18
0.00262501
8.67362e-19
0.00262501
2.1684e-18
0.00262501
1.30104e-18
0.00262501
2.00577e-18
0.00262501
1.13841e-18
0.00262501
-1.0842e-18
0.00262501
-1.89735e-18
0.00262501
-1.35525e-18