/*--------------------------------*- C++ -*----------------------------------*\
| =========                 |                                                 |
| \\      /  F ield         | OpenFOAM: The Open Source CFD Toolbox           |
|  \\    /   O peration     | Version:  v1812                                 |
|   \\  /    A nd           | Web:      www.OpenFOAM.com                      |
|    \\/     M anipulation  |                                                 |
\*---------------------------------------------------------------------------*/
FoamFile
{
    version     2.0;
    format      ascii;
    class       volScalarField;
    location    "0.4";
    object      rho;
}
// * * * * * * * * * * * * * * * * * * * * * * * * * * * * * * * * * * * * * //

dimensions      [1 -3 0 0 0 0 0];


internalField   nonuniform List<scalar> 
64512
(
1.40001
1.40001
1.40001
1.40001
1.40001
1.40001
1.40001
1.40001
1.40001
1.40001
1.40001
1.40001
1.40001
1.40001
1.40001
1.40001
1.40001
1.40001
1.40001
1.40001
1.40001
1.40001
1.40001
1.40001
1.40001
1.40001
1.40001
1.40001
1.40001
1.40001
1.40001
1.40001
1.40001
1.40001
1.40001
1.40001
1.40001
1.40001
1.40001
1.40001
1.40001
1.40001
1.40001
1.40001
1.40001
1.40001
1.40001
1.40001
1.40001
1.40001
1.40001
1.40001
1.40001
1.40001
1.40001
1.40001
1.40001
1.40001
1.40001
1.40001
1.40001
1.40036
1.42467
2.22195
4.95895
5.50124
5.5689
5.60613
5.63635
5.66581
5.68771
5.69746
5.69245
5.67535
5.64969
5.62282
5.60168
5.58875
5.58972
5.60041
5.61085
5.6086
5.58044
5.5205
5.43303
5.32748
5.22823
5.15682
5.11821
5.106
5.10714
5.10995
5.10831
5.10891
5.12859
5.15972
1.40001
1.40001
1.40001
1.40001
1.40001
1.40001
1.40001
1.40001
1.40001
1.40001
1.40001
1.40001
1.40001
1.40001
1.40001
1.40001
1.40001
1.40001
1.40001
1.40001
1.40001
1.40001
1.40001
1.40001
1.40001
1.40001
1.40001
1.40001
1.40001
1.40001
1.40001
1.40001
1.40001
1.40001
1.40001
1.40001
1.40001
1.40001
1.40001
1.40001
1.40001
1.40001
1.40001
1.40001
1.40001
1.40001
1.40001
1.40001
1.40001
1.40001
1.40001
1.40001
1.40001
1.40001
1.40001
1.40001
1.40001
1.40001
1.40001
1.40001
1.40001
1.40034
1.42304
2.18323
4.9502
5.55934
5.59458
5.6179
5.64446
5.66916
5.68875
5.6987
5.69455
5.67827
5.65388
5.62823
5.60768
5.59522
5.59616
5.60622
5.61608
5.61376
5.58658
5.52867
5.44289
5.33792
5.23729
5.16285
5.1213
5.10717
5.10746
5.10997
5.10841
5.10897
5.12773
5.1576
1.40001
1.40001
1.40001
1.40001
1.40001
1.40001
1.40001
1.40001
1.40001
1.40001
1.40001
1.40001
1.40001
1.40001
1.40001
1.40001
1.40001
1.40001
1.40001
1.40001
1.40001
1.40001
1.40001
1.40001
1.40001
1.40001
1.40001
1.40001
1.40001
1.40001
1.40001
1.40001
1.40001
1.40001
1.40001
1.40001
1.40001
1.40001
1.40001
1.40001
1.40001
1.40001
1.40001
1.40001
1.40001
1.40001
1.40001
1.40001
1.40001
1.40001
1.40001
1.40001
1.40001
1.40001
1.40001
1.40001
1.40001
1.40001
1.40001
1.40001
1.40001
1.40031
1.42178
2.14506
4.8829
5.55453
5.59567
5.61814
5.64392
5.66723
5.68543
5.69459
5.69042
5.67508
5.65273
5.62927
5.61028
5.59858
5.59959
5.60915
5.61874
5.61717
5.59219
5.53763
5.45494
5.3512
5.24873
5.17019
5.12451
5.10787
5.10729
5.10968
5.10801
5.10843
5.12651
5.15601
1.40001
1.40001
1.40001
1.40001
1.40001
1.40001
1.40001
1.40001
1.40001
1.40001
1.40001
1.40001
1.40001
1.40001
1.40001
1.40001
1.40001
1.40001
1.40001
1.40001
1.40001
1.40001
1.40001
1.40001
1.40001
1.40001
1.40001
1.40001
1.40001
1.40001
1.40001
1.40001
1.40001
1.40001
1.40001
1.40001
1.40001
1.40001
1.40001
1.40001
1.40001
1.40001
1.40001
1.40001
1.40001
1.40001
1.40001
1.40001
1.40001
1.40001
1.40001
1.40001
1.40001
1.40001
1.40001
1.40001
1.40001
1.40001
1.40001
1.40001
1.40001
1.40028
1.41941
2.07676
4.8288
5.57031
5.59781
5.6145
5.63741
5.65923
5.67701
5.68667
5.68347
5.66942
5.64898
5.62722
5.60919
5.59832
5.59908
5.60789
5.61679
5.61524
5.59163
5.53973
5.45985
5.35797
5.25508
5.17411
5.12574
5.10752
5.10629
5.10839
5.10646
5.10662
5.1244
5.15378
1.40001
1.40001
1.40001
1.40001
1.40001
1.40001
1.40001
1.40001
1.40001
1.40001
1.40001
1.40001
1.40001
1.40001
1.40001
1.40001
1.40001
1.40001
1.40001
1.40001
1.40001
1.40001
1.40001
1.40001
1.40001
1.40001
1.40001
1.40001
1.40001
1.40001
1.40001
1.40001
1.40001
1.40001
1.40001
1.40001
1.40001
1.40001
1.40001
1.40001
1.40001
1.40001
1.40001
1.40001
1.40001
1.40001
1.40001
1.40001
1.40001
1.40001
1.40001
1.40001
1.40001
1.40001
1.40001
1.40001
1.40001
1.40001
1.40001
1.40001
1.40001
1.40023
1.41651
1.99285
4.77841
5.5777
5.59738
5.61424
5.63411
5.6533
5.67018
5.67982
5.67725
5.66398
5.64513
5.62491
5.60792
5.59833
5.59906
5.60694
5.61467
5.61198
5.58802
5.53689
5.4586
5.35836
5.25637
5.17499
5.12567
5.10687
5.10528
5.10695
5.10459
5.10438
5.12174
5.15091
1.40001
1.40001
1.40001
1.40001
1.40001
1.40001
1.40001
1.40001
1.40001
1.40001
1.40001
1.40001
1.40001
1.40001
1.40001
1.40001
1.40001
1.40001
1.40001
1.40001
1.40001
1.40001
1.40001
1.40001
1.40001
1.40001
1.40001
1.40001
1.40001
1.40001
1.40001
1.40001
1.40001
1.40001
1.40001
1.40001
1.40001
1.40001
1.40001
1.40001
1.40001
1.40001
1.40001
1.40001
1.40001
1.40001
1.40001
1.40001
1.40001
1.40001
1.40001
1.40001
1.40001
1.40001
1.40001
1.40001
1.40001
1.40001
1.40001
1.40001
1.40001
1.40018
1.41294
1.88854
4.73182
5.57853
5.59455
5.61312
5.62988
5.64775
5.66472
5.67383
5.67112
5.65826
5.64078
5.62256
5.60736
5.59943
5.6002
5.60694
5.61293
5.60867
5.58362
5.53221
5.45462
5.35562
5.25506
5.17429
5.12492
5.10599
5.10401
5.10493
5.10177
5.10099
5.11783
5.14678
1.40001
1.40001
1.40001
1.40001
1.40001
1.40001
1.40001
1.40001
1.40001
1.40001
1.40001
1.40001
1.40001
1.40001
1.40001
1.40001
1.40001
1.40001
1.40001
1.40001
1.40001
1.40001
1.40001
1.40001
1.40001
1.40001
1.40001
1.40001
1.40001
1.40001
1.40001
1.40001
1.40001
1.40001
1.40001
1.40001
1.40001
1.40001
1.40001
1.40001
1.40001
1.40001
1.40001
1.40001
1.40001
1.40001
1.40001
1.40001
1.40001
1.40001
1.40001
1.40001
1.40001
1.40001
1.40001
1.40001
1.40001
1.40001
1.40001
1.40001
1.40001
1.40012
1.40897
1.76608
4.68962
5.5749
5.59082
5.61062
5.62341
5.63995
5.65736
5.66596
5.66341
5.65199
5.63633
5.62041
5.60773
5.60149
5.60232
5.6078
5.61184
5.60559
5.57889
5.52685
5.44962
5.35174
5.25289
5.17317
5.12406
5.105
5.10247
5.1023
5.09818
5.09679
5.11311
5.14208
1.40001
1.40001
1.40001
1.40001
1.40001
1.40001
1.40001
1.40001
1.40001
1.40001
1.40001
1.40001
1.40001
1.40001
1.40001
1.40001
1.40001
1.40001
1.40001
1.40001
1.40001
1.40001
1.40001
1.40001
1.40001
1.40001
1.40001
1.40001
1.40001
1.40001
1.40001
1.40001
1.40001
1.40001
1.40001
1.40001
1.40001
1.40001
1.40001
1.40001
1.40001
1.40001
1.40001
1.40001
1.40001
1.40001
1.40001
1.40001
1.40001
1.40001
1.40001
1.40001
1.40001
1.40001
1.40001
1.40001
1.40001
1.40001
1.40001
1.40001
1.40001
1.40008
1.40557
1.65576
4.62584
5.54577
5.58039
5.60593
5.6167
5.63266
5.65026
5.65813
5.65548
5.64552
5.63204
5.61887
5.60889
5.60411
5.60477
5.60885
5.61079
5.60242
5.57407
5.52132
5.44451
5.34804
5.25096
5.17222
5.12338
5.10375
5.10036
5.09889
5.09378
5.09193
5.10767
5.13675
1.40001
1.40001
1.40001
1.40001
1.40001
1.40001
1.40001
1.40001
1.40001
1.40001
1.40001
1.40001
1.40001
1.40001
1.40001
1.40001
1.40001
1.40001
1.40001
1.40001
1.40001
1.40001
1.40001
1.40001
1.40001
1.40001
1.40001
1.40001
1.40001
1.40001
1.40001
1.40001
1.40001
1.40001
1.40001
1.40001
1.40001
1.40001
1.40001
1.40001
1.40001
1.40001
1.40001
1.40001
1.40001
1.40001
1.40001
1.40001
1.40001
1.40001
1.40001
1.40001
1.40001
1.40001
1.40001
1.40001
1.40001
1.40001
1.40001
1.40001
1.40001
1.40005
1.40324
1.57639
4.53288
5.47755
5.56617
5.60397
5.61307
5.62799
5.64398
5.64981
5.64665
5.63816
5.62739
5.61753
5.61042
5.60695
5.60727
5.60971
5.60943
5.59894
5.56905
5.51582
5.4397
5.34497
5.24967
5.17169
5.12279
5.10211
5.09745
5.09478
5.08893
5.08665
5.10182
5.13095
1.40001
1.40001
1.40001
1.40001
1.40001
1.40001
1.40001
1.40001
1.40001
1.40001
1.40001
1.40001
1.40001
1.40001
1.40001
1.40001
1.40001
1.40001
1.40001
1.40001
1.40001
1.40001
1.40001
1.40001
1.40001
1.40001
1.40001
1.40001
1.40001
1.40001
1.40001
1.40001
1.40001
1.40001
1.40001
1.40001
1.40001
1.40001
1.40001
1.40001
1.40001
1.40001
1.40001
1.40001
1.40001
1.40001
1.40001
1.40001
1.40001
1.40001
1.40001
1.40001
1.40001
1.40001
1.40001
1.40001
1.40001
1.40001
1.40001
1.40001
1.40001
1.40004
1.40215
1.53161
4.40163
5.37869
5.55321
5.60772
5.6128
5.62573
5.63802
5.64058
5.637
5.63027
5.62276
5.6166
5.6123
5.60989
5.60953
5.61012
5.60752
5.59486
5.56372
5.51043
5.43525
5.34273
5.24921
5.17168
5.12223
5.10012
5.09387
5.08996
5.0836
5.08102
5.09532
5.12423
1.40001
1.40001
1.40001
1.40001
1.40001
1.40001
1.40001
1.40001
1.40001
1.40001
1.40001
1.40001
1.40001
1.40001
1.40001
1.40001
1.40001
1.40001
1.40001
1.40001
1.40001
1.40001
1.40001
1.40001
1.40001
1.40001
1.40001
1.40001
1.40001
1.40001
1.40001
1.40001
1.40001
1.40001
1.40001
1.40001
1.40001
1.40001
1.40001
1.40001
1.40001
1.40001
1.40001
1.40001
1.40001
1.40001
1.40001
1.40001
1.40001
1.40001
1.40001
1.40001
1.40001
1.40001
1.40001
1.40001
1.40001
1.40001
1.40001
1.40001
1.40001
1.40004
1.40193
1.51776
4.22434
5.26221
5.54783
5.61514
5.61344
5.62419
5.63153
5.63
5.62644
5.62197
5.61823
5.61593
5.61429
5.6127
5.61133
5.60975
5.60466
5.58988
5.55777
5.50489
5.43123
5.34129
5.2495
5.17207
5.12162
5.09777
5.08966
5.08455
5.07786
5.07493
5.08808
5.1162
1.40001
1.40001
1.40001
1.40001
1.40001
1.40001
1.40001
1.40001
1.40001
1.40001
1.40001
1.40001
1.40001
1.40001
1.40001
1.40001
1.40001
1.40001
1.40001
1.40001
1.40001
1.40001
1.40001
1.40001
1.40001
1.40001
1.40001
1.40001
1.40001
1.40001
1.40001
1.40001
1.40001
1.40001
1.40001
1.40001
1.40001
1.40001
1.40001
1.40001
1.40001
1.40001
1.40001
1.40001
1.40001
1.40001
1.40001
1.40001
1.40001
1.40001
1.40001
1.40001
1.40001
1.40001
1.40001
1.40001
1.40001
1.40001
1.40001
1.40001
1.40001
1.40003
1.40173
1.50649
4.00165
5.14607
5.56353
5.61678
5.61232
5.62162
5.62309
5.61798
5.61547
5.61411
5.6144
5.61574
5.61636
5.61516
5.61244
5.60842
5.60068
5.58385
5.55109
5.49912
5.42759
5.34048
5.25033
5.17286
5.12111
5.09529
5.08511
5.07877
5.07162
5.06818
5.07971
5.10596
1.40001
1.40001
1.40001
1.40001
1.40001
1.40001
1.40001
1.40001
1.40001
1.40001
1.40001
1.40001
1.40001
1.40001
1.40001
1.40001
1.40001
1.40001
1.40001
1.40001
1.40001
1.40001
1.40001
1.40001
1.40001
1.40001
1.40001
1.40001
1.40001
1.40001
1.40001
1.40001
1.40001
1.40001
1.40001
1.40001
1.40001
1.40001
1.40001
1.40001
1.40001
1.40001
1.40001
1.40001
1.40001
1.40001
1.40001
1.40001
1.40001
1.40001
1.40001
1.40001
1.40001
1.40001
1.40001
1.40001
1.40001
1.40001
1.40001
1.40001
1.40001
1.40003
1.40148
1.49223
3.72326
5.06251
5.58976
5.61248
5.60911
5.6148
5.61214
5.60656
5.60614
5.60812
5.61176
5.61587
5.61803
5.61672
5.61238
5.60578
5.59533
5.57665
5.54363
5.49312
5.42436
5.34019
5.25166
5.17417
5.12098
5.09292
5.08034
5.07263
5.06477
5.06034
5.07052
5.0931
1.40001
1.40001
1.40001
1.40001
1.40001
1.40001
1.40001
1.40001
1.40001
1.40001
1.40001
1.40001
1.40001
1.40001
1.40001
1.40001
1.40001
1.40001
1.40001
1.40001
1.40001
1.40001
1.40001
1.40001
1.40001
1.40001
1.40001
1.40001
1.40001
1.40001
1.40001
1.40001
1.40001
1.40001
1.40001
1.40001
1.40001
1.40001
1.40001
1.40001
1.40001
1.40001
1.40001
1.40001
1.40001
1.40001
1.40001
1.40001
1.40001
1.40001
1.40001
1.40001
1.40001
1.40001
1.40001
1.40001
1.40001
1.40001
1.40001
1.40001
1.40001
1.40002
1.40117
1.47476
3.37835
5.05252
5.60626
5.61047
5.60016
5.60326
5.60211
5.5988
5.60017
5.60424
5.61
5.61585
5.61873
5.61678
5.61062
5.60148
5.58855
5.56829
5.53568
5.48723
5.42142
5.34033
5.25351
5.17619
5.1215
5.09077
5.07531
5.06567
5.05672
5.05047
5.06037
5.07891
1.40001
1.40001
1.40001
1.40001
1.40001
1.40001
1.40001
1.40001
1.40001
1.40001
1.40001
1.40001
1.40001
1.40001
1.40001
1.40001
1.40001
1.40001
1.40001
1.40001
1.40001
1.40001
1.40001
1.40001
1.40001
1.40001
1.40001
1.40001
1.40001
1.40001
1.40001
1.40001
1.40001
1.40001
1.40001
1.40001
1.40001
1.40001
1.40001
1.40001
1.40001
1.40001
1.40001
1.40001
1.40001
1.40001
1.40001
1.40001
1.40001
1.40001
1.40001
1.40001
1.40001
1.40001
1.40001
1.40001
1.40001
1.40001
1.40001
1.40001
1.40001
1.40002
1.40082
1.4544
2.9657
5.09727
5.60752
5.59759
5.59131
5.59715
5.59766
5.59569
5.5974
5.60186
5.60851
5.61507
5.61779
5.61471
5.60672
5.59539
5.58039
5.55904
5.52724
5.4812
5.41845
5.34053
5.25583
5.17896
5.1227
5.08874
5.0697
5.05725
5.04663
5.03738
5.04864
5.06869
1.40001
1.40001
1.40001
1.40001
1.40001
1.40001
1.40001
1.40001
1.40001
1.40001
1.40001
1.40001
1.40001
1.40001
1.40001
1.40001
1.40001
1.40001
1.40001
1.40001
1.40001
1.40001
1.40001
1.40001
1.40001
1.40001
1.40001
1.40001
1.40001
1.40001
1.40001
1.40001
1.40001
1.40001
1.40001
1.40001
1.40001
1.40001
1.40001
1.40001
1.40001
1.40001
1.40001
1.40001
1.40001
1.40001
1.40001
1.40001
1.40001
1.40001
1.40001
1.40001
1.40001
1.40001
1.40001
1.40001
1.40001
1.40001
1.40001
1.40001
1.40001
1.40001
1.40049
1.4335
2.48879
5.07018
5.59974
5.59375
5.58973
5.59683
5.59792
5.59593
5.59673
5.60034
5.60677
5.61298
5.61478
5.61027
5.60063
5.58762
5.57119
5.54927
5.51855
5.47492
5.41533
5.34077
5.2585
5.18253
5.12436
5.08646
5.06281
5.04635
5.03348
5.02177
5.03315
5.06398
1.40001
1.40001
1.40001
1.40001
1.40001
1.40001
1.40001
1.40001
1.40001
1.40001
1.40001
1.40001
1.40001
1.40001
1.40001
1.40001
1.40001
1.40001
1.40001
1.40001
1.40001
1.40001
1.40001
1.40001
1.40001
1.40001
1.40001
1.40001
1.40001
1.40001
1.40001
1.40001
1.40001
1.40001
1.40001
1.40001
1.40001
1.40001
1.40001
1.40001
1.40001
1.40001
1.40001
1.40001
1.40001
1.40001
1.40001
1.40001
1.40001
1.40001
1.40001
1.40001
1.40001
1.40001
1.40001
1.40001
1.40001
1.40001
1.40001
1.40001
1.40001
1.40001
1.40024
1.41678
2.03215
4.88245
5.56861
5.5915
5.58813
5.59718
5.60008
5.59763
5.59707
5.59918
5.60444
5.6093
5.60948
5.60337
5.59243
5.57835
5.56113
5.53912
5.50946
5.46816
5.41178
5.34068
5.26134
5.18625
5.12578
5.08314
5.05386
5.03256
5.01788
5.00748
5.01916
5.05566
1.40001
1.40001
1.40001
1.40001
1.40001
1.40001
1.40001
1.40001
1.40001
1.40001
1.40001
1.40001
1.40001
1.40001
1.40001
1.40001
1.40001
1.40001
1.40001
1.40001
1.40001
1.40001
1.40001
1.40001
1.40001
1.40001
1.40001
1.40001
1.40001
1.40001
1.40001
1.40001
1.40001
1.40001
1.40001
1.40001
1.40001
1.40001
1.40001
1.40001
1.40001
1.40001
1.40001
1.40001
1.40001
1.40001
1.40001
1.40001
1.40001
1.40001
1.40001
1.40001
1.40001
1.40001
1.40001
1.40001
1.40001
1.40001
1.40001
1.40001
1.40001
1.40001
1.40009
1.4061
1.67643
4.61836
5.47416
5.58276
5.58435
5.59691
5.60141
5.59821
5.59692
5.59765
5.60115
5.60382
5.6018
5.59403
5.5822
5.56772
5.55033
5.52857
5.49997
5.46079
5.40763
5.34033
5.26421
5.18981
5.12645
5.07834
5.04265
5.01663
5.00192
4.99437
5.00605
5.04045
1.40001
1.40001
1.40001
1.40001
1.40001
1.40001
1.40001
1.40001
1.40001
1.40001
1.40001
1.40001
1.40001
1.40001
1.40001
1.40001
1.40001
1.40001
1.40001
1.40001
1.40001
1.40001
1.40001
1.40001
1.40001
1.40001
1.40001
1.40001
1.40001
1.40001
1.40001
1.40001
1.40001
1.40001
1.40001
1.40001
1.40001
1.40001
1.40001
1.40001
1.40001
1.40001
1.40001
1.40001
1.40001
1.40001
1.40001
1.40001
1.40001
1.40001
1.40001
1.40001
1.40001
1.40001
1.40001
1.40001
1.40001
1.40001
1.40001
1.40001
1.40001
1.40001
1.40004
1.40221
1.53016
4.29345
5.34526
5.56308
5.57688
5.59393
5.59937
5.59576
5.59533
5.59551
5.59717
5.59702
5.59229
5.58277
5.57037
5.55601
5.53895
5.51771
5.49016
5.453
5.40304
5.33959
5.26652
5.19225
5.12536
5.07116
5.02949
5.00018
4.98606
4.98191
4.99187
5.01926
1.40001
1.40001
1.40001
1.40001
1.40001
1.40001
1.40001
1.40001
1.40001
1.40001
1.40001
1.40001
1.40001
1.40001
1.40001
1.40001
1.40001
1.40001
1.40001
1.40001
1.40001
1.40001
1.40001
1.40001
1.40001
1.40001
1.40001
1.40001
1.40001
1.40001
1.40001
1.40001
1.40001
1.40001
1.40001
1.40001
1.40001
1.40001
1.40001
1.40001
1.40001
1.40001
1.40001
1.40001
1.40001
1.40001
1.40001
1.40001
1.40001
1.40001
1.40001
1.40001
1.40001
1.40001
1.40001
1.40001
1.40001
1.40001
1.40001
1.40001
1.40001
1.40001
1.40003
1.40165
1.50178
3.90134
5.23596
5.54331
5.5672
5.58981
5.59138
5.5889
5.59135
5.59241
5.59264
5.58945
5.5817
5.5703
5.55745
5.54351
5.52712
5.50662
5.48013
5.4449
5.39797
5.33813
5.26762
5.19298
5.12234
5.0622
5.01562
4.98431
4.97018
4.96775
4.97557
4.99206
1.40001
1.40001
1.40001
1.40001
1.40001
1.40001
1.40001
1.40001
1.40001
1.40001
1.40001
1.40001
1.40001
1.40001
1.40001
1.40001
1.40001
1.40001
1.40001
1.40001
1.40001
1.40001
1.40001
1.40001
1.40001
1.40001
1.40001
1.40001
1.40001
1.40001
1.40001
1.40001
1.40001
1.40001
1.40001
1.40001
1.40001
1.40001
1.40001
1.40001
1.40001
1.40001
1.40001
1.40001
1.40001
1.40001
1.40001
1.40001
1.40001
1.40001
1.40001
1.40001
1.40001
1.40001
1.40001
1.40001
1.40001
1.40001
1.40001
1.40001
1.40001
1.40001
1.40002
1.40125
1.47925
3.46601
5.17983
5.54557
5.56127
5.58035
5.5748
5.57874
5.58549
5.58785
5.58706
5.58126
5.57062
5.55729
5.5439
5.53044
5.51485
5.49518
5.46976
5.43632
5.39213
5.33538
5.2668
5.19151
5.11714
5.05186
5.00154
4.96795
4.95257
4.94966
4.96132
4.95782
1.40001
1.40001
1.40001
1.40001
1.40001
1.40001
1.40001
1.40001
1.40001
1.40001
1.40001
1.40001
1.40001
1.40001
1.40001
1.40001
1.40001
1.40001
1.40001
1.40001
1.40001
1.40001
1.40001
1.40001
1.40001
1.40001
1.40001
1.40001
1.40001
1.40001
1.40001
1.40001
1.40001
1.40001
1.40001
1.40001
1.40001
1.40001
1.40001
1.40001
1.40001
1.40001
1.40001
1.40001
1.40001
1.40001
1.40001
1.40001
1.40001
1.40001
1.40001
1.40001
1.40001
1.40001
1.40001
1.40001
1.40001
1.40001
1.40001
1.40001
1.40001
1.40001
1.40002
1.40079
1.4523
2.93575
5.17334
5.58225
5.55124
5.55362
5.55283
5.5682
5.5789
5.58143
5.57961
5.57156
5.55849
5.54363
5.52987
5.51689
5.50209
5.4833
5.45893
5.42709
5.3852
5.33086
5.26375
5.18758
5.11017
5.04086
4.9867
4.95003
4.93238
4.92494
4.93648
4.93172
1.40001
1.40001
1.40001
1.40001
1.40001
1.40001
1.40001
1.40001
1.40001
1.40001
1.40001
1.40001
1.40001
1.40001
1.40001
1.40001
1.40001
1.40001
1.40001
1.40001
1.40001
1.40001
1.40001
1.40001
1.40001
1.40001
1.40001
1.40001
1.40001
1.40001
1.40001
1.40001
1.40001
1.40001
1.40001
1.40001
1.40001
1.40001
1.40001
1.40001
1.40001
1.40001
1.40001
1.40001
1.40001
1.40001
1.40001
1.40001
1.40001
1.40001
1.40001
1.40001
1.40001
1.40001
1.40001
1.40001
1.40001
1.40001
1.40001
1.40001
1.40001
1.40001
1.40001
1.40036
1.42503
2.29915
5.07576
5.5911
5.53339
5.5268
5.5413
5.56413
5.57289
5.57294
5.56966
5.56012
5.54611
5.53058
5.51651
5.50349
5.48903
5.47087
5.44739
5.41683
5.37659
5.3239
5.25804
5.18109
5.10116
5.02872
4.96973
4.92801
4.90638
4.89253
4.89786
4.91937
1.40001
1.40001
1.40001
1.40001
1.40001
1.40001
1.40001
1.40001
1.40001
1.40001
1.40001
1.40001
1.40001
1.40001
1.40001
1.40001
1.40001
1.40001
1.40001
1.40001
1.40001
1.40001
1.40001
1.40001
1.40001
1.40001
1.40001
1.40001
1.40001
1.40001
1.40001
1.40001
1.40001
1.40001
1.40001
1.40001
1.40001
1.40001
1.40001
1.40001
1.40001
1.40001
1.40001
1.40001
1.40001
1.40001
1.40001
1.40001
1.40001
1.40001
1.40001
1.40001
1.40001
1.40001
1.40001
1.40001
1.40001
1.40001
1.40001
1.40001
1.40001
1.40001
1.40001
1.4001
1.4069
1.71081
4.70509
5.48612
5.51853
5.52535
5.54334
5.5643
5.56731
5.56402
5.55958
5.54929
5.53506
5.5189
5.50384
5.48988
5.47515
5.45733
5.43452
5.4048
5.36564
5.31432
5.24924
5.17183
5.0905
5.01478
4.95026
4.90182
4.87415
4.85785
4.86108
4.89795
1.40001
1.40001
1.40001
1.40001
1.40001
1.40001
1.40001
1.40001
1.40001
1.40001
1.40001
1.40001
1.40001
1.40001
1.40001
1.40001
1.40001
1.40001
1.40001
1.40001
1.40001
1.40001
1.40001
1.40001
1.40001
1.40001
1.40001
1.40001
1.40001
1.40001
1.40001
1.40001
1.40001
1.40001
1.40001
1.40001
1.40001
1.40001
1.40001
1.40001
1.40001
1.40001
1.40001
1.40001
1.40001
1.40001
1.40001
1.40001
1.40001
1.40001
1.40001
1.40001
1.40001
1.40001
1.40001
1.40001
1.40001
1.40001
1.40001
1.40001
1.40001
1.40001
1.40001
1.40004
1.40207
1.52278
4.17611
5.29519
5.47731
5.51593
5.54452
5.5625
5.56108
5.55467
5.54943
5.53939
5.52508
5.50813
5.49155
5.47599
5.46042
5.4426
5.42018
5.39085
5.35222
5.30183
5.23739
5.16003
5.0773
4.99751
4.9267
4.8706
4.83708
4.82251
4.82779
4.86132
1.40001
1.40001
1.40001
1.40001
1.40001
1.40001
1.40001
1.40001
1.40001
1.40001
1.40001
1.40001
1.40001
1.40001
1.40001
1.40001
1.40001
1.40001
1.40001
1.40001
1.40001
1.40001
1.40001
1.40001
1.40001
1.40001
1.40001
1.40001
1.40001
1.40001
1.40001
1.40001
1.40001
1.40001
1.40001
1.40001
1.40001
1.40001
1.40001
1.40001
1.40001
1.40001
1.40001
1.40001
1.40001
1.40001
1.40001
1.40001
1.40001
1.40001
1.40001
1.40001
1.40001
1.40001
1.40001
1.40001
1.40001
1.40001
1.40001
1.40001
1.40001
1.40001
1.40001
1.40003
1.40138
1.48654
3.6408
5.10646
5.47102
5.50591
5.54181
5.55803
5.55313
5.54519
5.54075
5.5316
5.51643
5.49794
5.47928
5.46168
5.44485
5.42664
5.40413
5.37458
5.33573
5.28563
5.22181
5.14491
5.06061
4.97637
4.8993
4.83659
4.79829
4.78522
4.79421
4.80466
1.40001
1.40001
1.40001
1.40001
1.40001
1.40001
1.40001
1.40001
1.40001
1.40001
1.40001
1.40001
1.40001
1.40001
1.40001
1.40001
1.40001
1.40001
1.40001
1.40001
1.40001
1.40001
1.40001
1.40001
1.40001
1.40001
1.40001
1.40001
1.40001
1.40001
1.40001
1.40001
1.40001
1.40001
1.40001
1.40001
1.40001
1.40001
1.40001
1.40001
1.40001
1.40001
1.40001
1.40001
1.40001
1.40001
1.40001
1.40001
1.40001
1.40001
1.40001
1.40001
1.40001
1.40001
1.40001
1.40001
1.40001
1.40001
1.40001
1.40001
1.40001
1.40001
1.40001
1.40002
1.40087
1.45647
3.04574
5.05131
5.51009
5.53349
5.54298
5.54581
5.54275
5.53799
5.5349
5.52509
5.5078
5.48691
5.46608
5.44665
5.42843
5.40941
5.38618
5.35562
5.31622
5.26606
5.20234
5.12586
5.04016
4.95143
4.86764
4.79826
4.75445
4.73903
4.74551
4.74159
1.40001
1.40001
1.40001
1.40001
1.40001
1.40001
1.40001
1.40001
1.40001
1.40001
1.40001
1.40001
1.40001
1.40001
1.40001
1.40001
1.40001
1.40001
1.40001
1.40001
1.40001
1.40001
1.40001
1.40001
1.40001
1.40001
1.40001
1.40001
1.40001
1.40001
1.40001
1.40001
1.40001
1.40001
1.40001
1.40001
1.40001
1.40001
1.40001
1.40001
1.40001
1.40001
1.40001
1.40001
1.40001
1.40001
1.40001
1.40001
1.40001
1.40001
1.40001
1.40001
1.40001
1.40001
1.40001
1.40001
1.40001
1.40001
1.40001
1.40001
1.40001
1.40001
1.40001
1.40001
1.40037
1.42476
2.3046
4.96702
5.55953
5.53808
5.52938
5.53406
5.53644
5.53367
5.52903
5.51701
5.4969
5.47324
5.4507
5.43016
5.41082
5.39065
5.36566
5.33372
5.29383
5.24265
5.17846
5.10167
5.01466
4.9221
4.83198
4.75502
4.70368
4.68004
4.67711
4.67062
1.40001
1.40001
1.40001
1.40001
1.40001
1.40001
1.40001
1.40001
1.40001
1.40001
1.40001
1.40001
1.40001
1.40001
1.40001
1.40001
1.40001
1.40001
1.40001
1.40001
1.40001
1.40001
1.40001
1.40001
1.40001
1.40001
1.40001
1.40001
1.40001
1.40001
1.40001
1.40001
1.40001
1.40001
1.40001
1.40001
1.40001
1.40001
1.40001
1.40001
1.40001
1.40001
1.40001
1.40001
1.40001
1.40001
1.40001
1.40001
1.40001
1.40001
1.40001
1.40001
1.40001
1.40001
1.40001
1.40001
1.40001
1.40001
1.40001
1.40001
1.40001
1.40001
1.40001
1.40001
1.40009
1.40544
1.65667
4.52156
5.40907
5.4936
5.51625
5.52914
5.5303
5.52501
5.52007
5.50524
5.48113
5.45597
5.43351
5.41283
5.3926
5.37015
5.34271
5.3095
5.26804
5.21562
5.15046
5.07279
4.98432
4.88854
4.79152
4.70308
4.63851
4.60257
4.58505
4.58817
1.40001
1.40001
1.40001
1.40001
1.40001
1.40001
1.40001
1.40001
1.40001
1.40001
1.40001
1.40001
1.40001
1.40001
1.40001
1.40001
1.40001
1.40001
1.40001
1.40001
1.40001
1.40001
1.40001
1.40001
1.40001
1.40001
1.40001
1.40001
1.40001
1.40001
1.40001
1.40001
1.40001
1.40001
1.40001
1.40001
1.40001
1.40001
1.40001
1.40001
1.40001
1.40001
1.40001
1.40001
1.40001
1.40001
1.40001
1.40001
1.40001
1.40001
1.40001
1.40001
1.40001
1.40001
1.40001
1.40001
1.40001
1.40001
1.40001
1.40001
1.40001
1.40001
1.40001
1.40001
1.40003
1.40176
1.50619
3.89978
5.13963
5.44503
5.50673
5.513
5.51747
5.51466
5.50118
5.4813
5.45906
5.43664
5.4162
5.39563
5.37339
5.34754
5.31764
5.28241
5.23918
5.18507
5.11838
5.03921
4.94861
4.84852
4.743
4.64148
4.56173
4.50917
4.47532
4.45037
1.40001
1.40001
1.40001
1.40001
1.40001
1.40001
1.40001
1.40001
1.40001
1.40001
1.40001
1.40001
1.40001
1.40001
1.40001
1.40001
1.40001
1.40001
1.40001
1.40001
1.40001
1.40001
1.40001
1.40001
1.40001
1.40001
1.40001
1.40001
1.40001
1.40001
1.40001
1.40001
1.40001
1.40001
1.40001
1.40001
1.40001
1.40001
1.40001
1.40001
1.40001
1.40001
1.40001
1.40001
1.40001
1.40001
1.40001
1.40001
1.40001
1.40001
1.40001
1.40001
1.40001
1.40001
1.40001
1.40001
1.40001
1.40001
1.40001
1.40001
1.40001
1.40001
1.40001
1.40001
1.40002
1.40106
1.46807
3.27538
4.99813
5.43537
5.50601
5.50929
5.50191
5.48537
5.47098
5.45572
5.43847
5.41946
5.39993
5.37814
5.35249
5.32316
5.29046
5.25297
5.20771
5.15139
5.08248
5.00114
4.9079
4.80275
4.68732
4.56913
4.46696
4.37946
4.29062
4.25259
1.40001
1.40001
1.40001
1.40001
1.40001
1.40001
1.40001
1.40001
1.40001
1.40001
1.40001
1.40001
1.40001
1.40001
1.40001
1.40001
1.40001
1.40001
1.40001
1.40001
1.40001
1.40001
1.40001
1.40001
1.40001
1.40001
1.40001
1.40001
1.40001
1.40001
1.40001
1.40001
1.40001
1.40001
1.40001
1.40001
1.40001
1.40001
1.40001
1.40001
1.40001
1.40001
1.40001
1.40001
1.40001
1.40001
1.40001
1.40001
1.40001
1.40001
1.40001
1.40001
1.40001
1.40001
1.40001
1.40001
1.40001
1.40001
1.40001
1.40001
1.40001
1.40001
1.40001
1.40001
1.40001
1.40049
1.43297
2.53566
5.00059
5.48531
5.50484
5.4751
5.46751
5.46222
5.44973
5.4378
5.42253
5.40426
5.38386
5.35983
5.33077
5.29791
5.26197
5.2219
5.17411
5.11506
5.04329
4.95899
4.86222
4.7508
4.62352
4.48572
4.354
4.22854
4.07966
3.88366
1.40001
1.40001
1.40001
1.40001
1.40001
1.40001
1.40001
1.40001
1.40001
1.40001
1.40001
1.40001
1.40001
1.40001
1.40001
1.40001
1.40001
1.40001
1.40001
1.40001
1.40001
1.40001
1.40001
1.40001
1.40001
1.40001
1.40001
1.40001
1.40001
1.40001
1.40001
1.40001
1.40001
1.40001
1.40001
1.40001
1.40001
1.40001
1.40001
1.40001
1.40001
1.40001
1.40001
1.40001
1.40001
1.40001
1.40001
1.40001
1.40001
1.40001
1.40001
1.40001
1.40001
1.40001
1.40001
1.40001
1.40001
1.40001
1.40001
1.40001
1.40001
1.40001
1.40001
1.40001
1.40001
1.40012
1.40701
1.71851
4.62162
5.41455
5.46794
5.45424
5.45658
5.45571
5.44149
5.42556
5.40913
5.38999
5.36742
5.34104
5.3095
5.27307
5.2332
5.18956
5.13848
5.07623
5.00118
4.91328
4.8121
4.69351
4.55363
4.39715
4.2263
4.02396
3.71048
2.95405
1.40001
1.40001
1.40001
1.40001
1.40001
1.40001
1.40001
1.40001
1.40001
1.40001
1.40001
1.40001
1.40001
1.40001
1.40001
1.40001
1.40001
1.40001
1.40001
1.40001
1.40001
1.40001
1.40001
1.40001
1.40001
1.40001
1.40001
1.40001
1.40001
1.40001
1.40001
1.40001
1.40001
1.40001
1.40001
1.40001
1.40001
1.40001
1.40001
1.40001
1.40001
1.40001
1.40001
1.40001
1.40001
1.40001
1.40001
1.40001
1.40001
1.40001
1.40001
1.40001
1.40001
1.40001
1.40001
1.40001
1.40001
1.40001
1.40001
1.40001
1.40001
1.40001
1.40001
1.40001
1.40001
1.40003
1.40169
1.50116
3.80898
5.21117
5.42939
5.43984
5.44771
5.4502
5.43556
5.41586
5.39706
5.37623
5.35168
5.32369
5.28965
5.2491
5.20438
5.15623
5.10132
5.03569
4.95726
4.86535
4.75889
4.63247
4.47995
4.30404
4.09249
3.81271
3.395
2.64706
1.40001
1.40001
1.40001
1.40001
1.40001
1.40001
1.40001
1.40001
1.40001
1.40001
1.40001
1.40001
1.40001
1.40001
1.40001
1.40001
1.40001
1.40001
1.40001
1.40001
1.40001
1.40001
1.40001
1.40001
1.40001
1.40001
1.40001
1.40001
1.40001
1.40001
1.40001
1.40001
1.40001
1.40001
1.40001
1.40001
1.40001
1.40001
1.40001
1.40001
1.40001
1.40001
1.40001
1.40001
1.40001
1.40001
1.40001
1.40001
1.40001
1.40001
1.40001
1.40001
1.40001
1.40001
1.40001
1.40001
1.40001
1.40001
1.40001
1.40001
1.40001
1.40001
1.40001
1.40001
1.40001
1.40002
1.40078
1.45167
3.00906
5.07822
5.43194
5.43441
5.44283
5.44415
5.42462
5.40312
5.38411
5.36253
5.33597
5.30557
5.26871
5.22454
5.17513
5.12212
5.06315
4.99402
4.912
4.81572
4.70347
4.5695
4.40822
4.21419
3.97072
3.64775
3.20105
2.59296
1.40001
1.40001
1.40001
1.40001
1.40001
1.40001
1.40001
1.40001
1.40001
1.40001
1.40001
1.40001
1.40001
1.40001
1.40001
1.40001
1.40001
1.40001
1.40001
1.40001
1.40001
1.40001
1.40001
1.40001
1.40001
1.40001
1.40001
1.40001
1.40001
1.40001
1.40001
1.40001
1.40001
1.40001
1.40001
1.40001
1.40001
1.40001
1.40001
1.40001
1.40001
1.40001
1.40001
1.40001
1.40001
1.40001
1.40001
1.40001
1.40001
1.40001
1.40001
1.40001
1.40001
1.40001
1.40001
1.40001
1.40001
1.40001
1.40001
1.40001
1.40001
1.40001
1.40001
1.40001
1.40001
1.40001
1.40025
1.41657
2.07013
4.84274
5.43887
5.40758
5.407
5.41595
5.40265
5.38669
5.36822
5.34471
5.31628
5.28438
5.24598
5.19929
5.1459
5.08825
5.02501
4.95206
4.86631
4.76577
4.64814
4.50854
4.34087
4.13488
3.87758
3.54866
3.15261
2.72228
1.40001
1.40001
1.40001
1.40001
1.40001
1.40001
1.40001
1.40001
1.40001
1.40001
1.40001
1.40001
1.40001
1.40001
1.40001
1.40001
1.40001
1.40001
1.40001
1.40001
1.40001
1.40001
1.40001
1.40001
1.40001
1.40001
1.40001
1.40001
1.40001
1.40001
1.40001
1.40001
1.40001
1.40001
1.40001
1.40001
1.40001
1.40001
1.40001
1.40001
1.40001
1.40001
1.40001
1.40001
1.40001
1.40001
1.40001
1.40001
1.40001
1.40001
1.40001
1.40001
1.40001
1.40001
1.40001
1.40001
1.40001
1.40001
1.40001
1.40001
1.40001
1.40001
1.40001
1.40001
1.40001
1.40001
1.40005
1.40278
1.54361
4.0956
5.2688
5.41198
5.40563
5.39705
5.38312
5.36621
5.34679
5.32234
5.293
5.26032
5.22136
5.1733
5.11687
5.05488
4.98718
4.91036
4.82118
4.7168
4.59487
4.45149
4.28018
4.06945
3.81492
3.50249
3.14311
2.76701
1.40001
1.40001
1.40001
1.40001
1.40001
1.40001
1.40001
1.40001
1.40001
1.40001
1.40001
1.40001
1.40001
1.40001
1.40001
1.40001
1.40001
1.40001
1.40001
1.40001
1.40001
1.40001
1.40001
1.40001
1.40001
1.40001
1.40001
1.40001
1.40001
1.40001
1.40001
1.40001
1.40001
1.40001
1.40001
1.40001
1.40001
1.40001
1.40001
1.40001
1.40001
1.40001
1.40001
1.40001
1.40001
1.40001
1.40001
1.40001
1.40001
1.40001
1.40001
1.40001
1.40001
1.40001
1.40001
1.40001
1.40001
1.40001
1.40001
1.40001
1.40001
1.40001
1.40001
1.40001
1.40001
1.40001
1.40002
1.40089
1.45783
3.17465
5.10128
5.42263
5.41212
5.39214
5.36925
5.3473
5.32514
5.29887
5.26854
5.23424
5.19402
5.14477
5.0867
5.02196
4.95095
4.87084
4.7783
4.6705
4.54584
4.39986
4.22803
4.01992
3.77578
3.48782
3.14991
2.80229
1.40001
1.40001
1.40001
1.40001
1.40001
1.40001
1.40001
1.40001
1.40001
1.40001
1.40001
1.40001