/*--------------------------------*- C++ -*----------------------------------*\
| =========                 |                                                 |
| \\      /  F ield         | OpenFOAM: The Open Source CFD Toolbox           |
|  \\    /   O peration     | Version:  v1812                                 |
|   \\  /    A nd           | Web:      www.OpenFOAM.com                      |
|    \\/     M anipulation  |                                                 |
\*---------------------------------------------------------------------------*/
FoamFile
{
    version     2.0;
    format      ascii;
    class       volVectorField;
    location    "0.4";
    object      U;
}
// * * * * * * * * * * * * * * * * * * * * * * * * * * * * * * * * * * * * * //

dimensions      [0 1 -1 0 0 0 0];


internalField   nonuniform List<vector> 
64512
(
(3 1.28602e-16 0)
(3 -1.95907e-16 0)
(3 2.211e-16 0)
(3 1.09213e-16 0)
(3 1.65559e-16 0)
(3 6.69455e-17 0)
(3 -5.07749e-17 0)
(3 -2.45163e-16 0)
(3 -3.31284e-16 0)
(3 -4.72894e-17 0)
(3 4.63061e-16 0)
(3 6.42674e-16 0)
(3 3.90587e-16 0)
(3 8.46881e-16 0)
(3 8.32689e-16 0)
(3 5.83647e-16 0)
(3 2.63496e-16 0)
(3 -1.8277e-17 0)
(3 2.22311e-16 0)
(3 -2.35043e-17 0)
(3 -2.79849e-16 0)
(3 -4.23782e-16 0)
(3 -4.05449e-16 0)
(3 -9.2342e-16 0)
(3 -7.47142e-16 0)
(3 -7.29715e-16 0)
(3 -8.11554e-16 0)
(3 -4.53225e-16 0)
(3 -6.34811e-16 0)
(3 -6.15567e-16 0)
(3 -3.74501e-17 0)
(3 7.34988e-16 0)
(3 8.11967e-16 0)
(3 6.39222e-16 0)
(3 3.80208e-16 0)
(3 2.14215e-16 0)
(3 -1.60853e-16 0)
(3 -4.13548e-16 0)
(3 -4.90337e-16 0)
(3 2.11413e-16 0)
(3 7.27578e-16 0)
(3 8.41105e-16 0)
(3 1.01408e-15 0)
(3 1.44217e-15 0)
(3 7.76824e-16 0)
(3 1.6271e-15 0)
(3 1.55327e-15 0)
(3 1.42036e-15 0)
(3 9.07989e-16 0)
(3 6.41799e-16 0)
(3 2.91165e-16 0)
(3 2.29033e-16 0)
(3 7.54904e-17 0)
(3 -4.41298e-17 0)
(3 6.13259e-17 0)
(3 6.89271e-17 0)
(3 3.34993e-16 0)
(3 1.78635e-14 0)
(3 1.34242e-12 0)
(3 1.07972e-10 0)
(3 7.04035e-09 0)
(2.99993 7.75142e-07 0)
(2.99479 2.83979e-05 0)
(2.43277 0.0102914 0)
(0.91594 -0.0189416 0)
(0.6115 0.0356686 0)
(0.561221 0.00478472 0)
(0.553291 0.000198821 0)
(0.548865 0.00344118 0)
(0.538621 0.00693043 0)
(0.522492 0.0101647 0)
(0.500872 0.0114166 0)
(0.47487 0.0109312 0)
(0.447386 0.0100564 0)
(0.419634 0.00990581 0)
(0.392299 0.0103164 0)
(0.367706 0.0107525 0)
(0.346227 0.0110001 0)
(0.329176 0.0111805 0)
(0.315323 0.0114461 0)
(0.301715 0.0118193 0)
(0.285767 0.0121957 0)
(0.265732 0.0123609 0)
(0.2413 0.0121081 0)
(0.215995 0.0115926 0)
(0.189731 0.0111398 0)
(0.163717 0.0106855 0)
(0.141061 0.0100422 0)
(0.121064 0.00928692 0)
(0.105393 0.00887272 0)
(0.0932775 0.00884529 0)
(0.0819455 0.00889444 0)
(0.0670389 0.00879004 0)
(0.0511259 0.00862059 0)
(0.0320968 0.00805139 0)
(0.00938217 0.00768909 0)
(3 6.59269e-18 0)
(3 -1.31768e-16 0)
(3 4.6514e-16 0)
(3 1.84894e-16 0)
(3 -1.93745e-16 0)
(3 6.02456e-16 0)
(3 1.83559e-16 0)
(3 -2.62128e-16 0)
(3 7.38885e-17 0)
(3 -5.79406e-18 0)
(3 -6.45761e-17 0)
(3 -4.0777e-16 0)
(3 1.1361e-16 0)
(3 1.28293e-15 0)
(3 9.51473e-16 0)
(3 3.40334e-16 0)
(3 4.41449e-16 0)
(3 -7.52623e-18 0)
(3 -7.70893e-17 0)
(3 -6.23973e-16 0)
(3 -5.68938e-16 0)
(3 -1.00547e-15 0)
(3 -8.88835e-16 0)
(3 -5.31685e-16 0)
(3 -8.59252e-17 0)
(3 1.27338e-16 0)
(3 -5.06479e-16 0)
(3 -4.24028e-16 0)
(3 -6.40712e-16 0)
(3 -1.40267e-16 0)
(3 2.06745e-16 0)
(3 7.61795e-16 0)
(3 4.14865e-16 0)
(3 5.59414e-16 0)
(3 -1.55062e-17 0)
(3 4.39871e-17 0)
(3 -7.87944e-17 0)
(3 3.02158e-16 0)
(3 3.25247e-16 0)
(3 9.42284e-16 0)
(3 1.36122e-15 0)
(3 1.75875e-15 0)
(3 1.64458e-15 0)
(3 2.12681e-15 0)
(3 2.04881e-15 0)
(3 1.78389e-15 0)
(3 1.90613e-15 0)
(3 2.10983e-15 0)
(3 2.04667e-15 0)
(3 2.73096e-15 0)
(3 2.26409e-15 0)
(3 1.40129e-15 0)
(3 7.11576e-16 0)
(3 1.29047e-16 0)
(3 3.20157e-16 0)
(3 4.98678e-16 0)
(3 2.64612e-15 0)
(3 1.32216e-13 0)
(3 1.00335e-11 0)
(3 6.69922e-10 0)
(3 5.00545e-08 0)
(2.99993 3.17501e-06 0)
(2.99517 0.000208022 0)
(2.47694 0.0244268 0)
(0.945484 -0.00433741 0)
(0.653643 0.0684307 0)
(0.599308 0.0300629 0)
(0.573001 0.01583 0)
(0.557679 0.0189196 0)
(0.545305 0.0252837 0)
(0.530882 0.0305729 0)
(0.511988 0.0323556 0)
(0.487786 0.0309392 0)
(0.460352 0.0284461 0)
(0.432014 0.0273564 0)
(0.404413 0.0276196 0)
(0.380007 0.0279367 0)
(0.359023 0.0280096 0)
(0.342498 0.0285374 0)
(0.328995 0.0297163 0)
(0.31558 0.0312746 0)
(0.299722 0.0326907 0)
(0.279662 0.0332427 0)
(0.254988 0.0329533 0)
(0.22894 0.0323366 0)
(0.201571 0.0316251 0)
(0.174484 0.0306101 0)
(0.15093 0.0286138 0)
(0.130386 0.0262059 0)
(0.11425 0.024957 0)
(0.101766 0.0252537 0)
(0.0900069 0.0259955 0)
(0.0744958 0.0265702 0)
(0.0574577 0.0272975 0)
(0.0364634 0.0270151 0)
(0.0109894 0.026635 0)
(3 -1.85876e-17 0)
(3 1.25036e-16 0)
(3 1.33047e-16 0)
(3 1.93655e-16 0)
(3 1.91551e-16 0)
(3 2.11128e-17 0)
(3 -4.86056e-16 0)
(3 -1.01238e-15 0)
(3 -2.29292e-16 0)
(3 -4.65305e-16 0)
(3 -8.77796e-16 0)
(3 -5.78825e-16 0)
(3 -3.85272e-16 0)
(3 -6.19842e-16 0)
(3 -6.14851e-16 0)
(3 -2.22229e-17 0)
(3 2.38671e-16 0)
(3 1.04511e-15 0)
(3 6.47092e-16 0)
(3 -1.18657e-16 0)
(3 -1.00471e-15 0)
(3 -1.57995e-15 0)
(3 -1.18043e-15 0)
(3 -1.45687e-17 0)
(3 7.58935e-16 0)
(3 8.38521e-16 0)
(3 3.46979e-17 0)
(3 -3.42839e-17 0)
(3 1.28169e-16 0)
(3 3.34591e-16 0)
(3 6.64084e-17 0)
(3 -9.61238e-16 0)
(3 -1.39717e-15 0)
(3 -1.64857e-15 0)
(3 -1.34879e-15 0)
(3 -8.61448e-16 0)
(3 -3.45151e-16 0)
(3 4.97434e-16 0)
(3 1.03855e-15 0)
(3 6.55698e-16 0)
(3 5.65681e-16 0)
(3 1.1569e-15 0)
(3 1.47605e-15 0)
(3 1.59318e-15 0)
(3 1.88004e-15 0)
(3 1.38065e-15 0)
(3 1.51866e-15 0)
(3 1.49618e-15 0)
(3 1.63837e-15 0)
(3 1.72635e-15 0)
(3 1.46011e-15 0)
(3 1.09914e-15 0)
(3 6.48835e-16 0)
(3 -1.31613e-16 0)
(3 -7.69732e-16 0)
(3 -6.37245e-16 0)
(3 1.76144e-15 0)
(3 1.58127e-13 0)
(3 1.16853e-11 0)
(3 7.74643e-10 0)
(3 5.51139e-08 0)
(2.99994 3.25833e-06 0)
(2.99546 0.000208388 0)
(2.48643 0.0215668 0)
(0.930125 -0.0338078 0)
(0.652613 0.0964364 0)
(0.601322 0.062162 0)
(0.576904 0.0364032 0)
(0.557554 0.0332346 0)
(0.544483 0.0397122 0)
(0.530321 0.0475646 0)
(0.51157 0.0520774 0)
(0.487977 0.0517701 0)
(0.46178 0.0487093 0)
(0.435188 0.0467505 0)
(0.409492 0.0465616 0)
(0.386529 0.0467896 0)
(0.366369 0.0471651 0)
(0.350262 0.0483112 0)
(0.337078 0.0502684 0)
(0.324163 0.0525773 0)
(0.309045 0.0545054 0)
(0.289798 0.0552895 0)
(0.265715 0.0550142 0)
(0.239722 0.0543175 0)
(0.212016 0.0535374 0)
(0.184222 0.0520359 0)
(0.159585 0.0489045 0)
(0.137596 0.0452175 0)
(0.119524 0.0432924 0)
(0.105058 0.0435495 0)
(0.0915264 0.0445635 0)
(0.0744539 0.0454457 0)
(0.0565634 0.0465707 0)
(0.0353559 0.0464918 0)
(0.0104616 0.046122 0)
(3 4.30354e-16 0)
(3 3.38916e-17 0)
(3 -5.25519e-16 0)
(3 -2.47544e-16 0)
(3 -8.80236e-17 0)
(3 -4.9515e-16 0)
(3 -1.0607e-15 0)
(3 -1.46643e-15 0)
(3 -1.63645e-15 0)
(3 -7.53713e-16 0)
(3 -8.31136e-16 0)
(3 -9.09871e-17 0)
(3 -3.27659e-17 0)
(3 -1.47029e-16 0)
(3 5.89922e-16 0)
(3 1.05793e-15 0)
(3 1.01349e-15 0)
(3 1.28213e-15 0)
(3 1.58087e-15 0)
(3 1.67984e-15 0)
(3 1.06854e-15 0)
(3 9.63622e-16 0)
(3 7.8731e-16 0)
(3 5.57132e-16 0)
(3 7.25636e-17 0)
(3 1.24226e-16 0)
(3 -2.7875e-17 0)
(3 2.84255e-16 0)
(3 9.51988e-16 0)
(3 1.66865e-15 0)
(3 1.23591e-15 0)
(3 6.97434e-16 0)
(3 1.7136e-16 0)
(3 -4.79904e-16 0)
(3 1.27307e-16 0)
(3 6.11837e-16 0)
(3 7.71786e-16 0)
(3 9.92457e-16 0)
(3 8.50526e-16 0)
(3 1.0986e-15 0)
(3 1.61416e-15 0)
(3 1.74947e-15 0)
(3 2.04058e-15 0)
(3 1.37839e-15 0)
(3 2.24702e-15 0)
(3 2.58613e-15 0)
(3 2.25121e-15 0)
(3 1.82437e-15 0)
(3 1.07816e-15 0)
(3 6.07287e-16 0)
(3 3.249e-16 0)
(3 9.08056e-16 0)
(3 1.28911e-15 0)
(3 1.95735e-15 0)
(3 8.04618e-16 0)
(3 -1.37663e-16 0)
(3 1.50525e-15 0)
(3 1.74832e-13 0)
(3 1.34888e-11 0)
(3 9.4664e-10 0)
(3 7.18873e-08 0)
(2.99994 4.567e-06 0)
(2.996 0.000327559 0)
(2.53276 0.0378807 0)
(0.947273 -0.0332321 0)
(0.659212 0.11577 0)
(0.596803 0.0912179 0)
(0.574713 0.0601498 0)
(0.553281 0.0518056 0)
(0.538596 0.0563872 0)
(0.52433 0.0647323 0)
(0.505826 0.0704845 0)
(0.483069 0.070403 0)
(0.4581 0.0665544 0)
(0.432703 0.06406 0)
(0.407984 0.0641048 0)
(0.385097 0.0648992 0)
(0.364832 0.0657939 0)
(0.34854 0.067408 0)
(0.335429 0.0697737 0)
(0.323165 0.0725593 0)
(0.309213 0.0750014 0)
(0.291442 0.0763473 0)
(0.268734 0.0767992 0)
(0.243481 0.0770209 0)
(0.215866 0.0769341 0)
(0.187543 0.0754068 0)
(0.16191 0.0713555 0)
(0.138666 0.0663298 0)
(0.119356 0.0632272 0)
(0.103971 0.0629612 0)
(0.0899261 0.0639112 0)
(0.0725889 0.0647592 0)
(0.0548906 0.066006 0)
(0.0340828 0.0655192 0)
(0.00978425 0.064725 0)
(3 -9.06907e-17 0)
(3 -2.97427e-16 0)
(3 -4.96933e-16 0)
(3 -1.65675e-16 0)
(3 -6.74376e-16 0)
(3 -7.85898e-16 0)
(3 -5.14445e-16 0)
(3 -1.06457e-15 0)
(3 -1.32659e-15 0)
(3 -9.34766e-16 0)
(3 -7.37452e-16 0)
(3 -6.6094e-16 0)
(3 -1.71553e-16 0)
(3 9.23716e-16 0)
(3 1.26839e-15 0)
(3 1.00834e-15 0)
(3 8.72299e-16 0)
(3 -1.29589e-16 0)
(3 2.22103e-16 0)
(3 1.6868e-15 0)
(3 2.3833e-15 0)
(3 2.87967e-15 0)
(3 1.54214e-15 0)
(3 9.40159e-16 0)
(3 -9.36449e-17 0)
(3 -2.56957e-16 0)
(3 9.12072e-17 0)
(3 1.22975e-16 0)
(3 2.62322e-16 0)
(3 -1.92203e-17 0)
(3 -5.92002e-16 0)
(3 -3.51049e-16 0)
(3 2.79179e-16 0)
(3 8.07303e-16 0)
(3 1.2341e-15 0)
(3 1.89867e-15 0)
(3 2.1026e-15 0)
(3 1.72886e-15 0)
(3 1.73821e-15 0)
(3 2.22463e-15 0)
(3 2.27629e-15 0)
(3 2.1118e-15 0)
(3 1.87316e-15 0)
(3 1.43845e-15 0)
(3 1.18183e-15 0)
(3 3.46308e-16 0)
(3 5.36304e-16 0)
(3 3.16828e-16 0)
(3 1.30367e-15 0)
(3 1.97438e-15 0)
(3 2.71495e-15 0)
(3 2.47794e-15 0)
(3 2.29679e-15 0)
(3 2.09901e-15 0)
(3 2.0188e-15 0)
(3 1.71621e-15 0)
(3 3.89142e-15 0)
(3 1.84365e-13 0)
(3 1.46715e-11 0)
(3 1.07331e-09 0)
(3 8.42435e-08 0)
(2.99995 5.36044e-06 0)
(2.99665 0.000413217 0)
(2.58702 0.0428671 0)
(0.972001 -0.0374659 0)
(0.667246 0.137013 0)
(0.595599 0.118088 0)
(0.577265 0.0824687 0)
(0.556241 0.0690567 0)
(0.54061 0.0725838 0)
(0.525659 0.0821822 0)
(0.50624 0.0895594 0)
(0.482738 0.0897128 0)
(0.457184 0.0850625 0)
(0.431366 0.0820684 0)
(0.406452 0.0823842 0)
(0.383105 0.0837345 0)
(0.362566 0.0850423 0)
(0.345961 0.0867051 0)
(0.332504 0.0887921 0)
(0.320086 0.0912372 0)
(0.306241 0.0935855 0)
(0.288813 0.0954016 0)
(0.266662 0.0969822 0)
(0.242062 0.098733 0)
(0.215158 0.0999112 0)
(0.18759 0.0987281 0)
(0.162737 0.0939715 0)
(0.140063 0.0876785 0)
(0.121029 0.0832904 0)
(0.105624 0.0823041 0)
(0.0914185 0.0831324 0)
(0.0737048 0.08402 0)
(0.055719 0.0854199 0)
(0.0345902 0.0845593 0)
(0.00956293 0.0833966 0)
(3 -3.23587e-16 0)
(3 2.42637e-16 0)
(3 6.28717e-16 0)
(3 7.2061e-16 0)
(3 4.12518e-16 0)
(3 2.79939e-16 0)
(3 1.95444e-16 0)
(3 -4.713e-18 0)
(3 -3.91524e-17 0)
(3 -3.16343e-17 0)
(3 6.91971e-16 0)
(3 5.7175e-16 0)
(3 3.56565e-16 0)
(3 3.96157e-16 0)
(3 -1.64121e-16 0)
(3 2.74493e-16 0)
(3 1.51033e-16 0)
(3 -8.94239e-17 0)
(3 -2.56438e-16 0)
(3 -1.03528e-15 0)
(3 -1.11954e-15 0)
(3 5.52286e-17 0)
(3 1.50671e-16 0)
(3 7.11465e-18 0)
(3 8.93529e-16 0)
(3 8.73175e-16 0)
(3 1.28627e-15 0)
(3 8.4482e-16 0)
(3 1.26987e-16 0)
(3 -5.35338e-16 0)
(3 -2.49075e-16 0)
(3 3.78121e-16 0)
(3 1.25778e-15 0)
(3 1.4063e-15 0)
(3 1.29555e-15 0)
(3 1.51438e-15 0)
(3 1.03e-15 0)
(3 1.55878e-15 0)
(3 2.52108e-15 0)
(3 2.56573e-15 0)
(3 2.15751e-15 0)
(3 1.30492e-15 0)
(3 1.17896e-15 0)
(3 1.41463e-15 0)
(3 2.64647e-16 0)
(3 -2.32481e-16 0)
(3 3.23333e-16 0)
(3 5.73867e-16 0)
(3 1.72505e-15 0)
(3 1.22106e-15 0)
(3 1.57577e-15 0)
(3 1.80875e-15 0)
(3 1.84342e-15 0)
(3 1.42337e-15 0)
(3 1.39779e-15 0)
(3 7.7517e-17 0)
(3 7.57476e-16 0)
(3 1.58995e-13 0)
(3 1.35846e-11 0)
(3 1.05896e-09 0)
(3 8.62676e-08 0)
(2.99997 5.77329e-06 0)
(2.99744 0.000484017 0)
(2.65825 0.0505347 0)
(1.01382 -0.031029 0)
(0.677217 0.160499 0)
(0.594329 0.142239 0)
(0.578206 0.102807 0)
(0.558526 0.0855125 0)
(0.54273 0.0884089 0)
(0.527752 0.0995544 0)
(0.507755 0.109038 0)
(0.483611 0.109744 0)
(0.457911 0.10438 0)
(0.432216 0.10084 0)
(0.407714 0.101269 0)
(0.38469 0.103093 0)
(0.36442 0.104832 0)
(0.347625 0.106645 0)
(0.333461 0.108585 0)
(0.319993 0.110588 0)
(0.305 0.112581 0)
(0.286612 0.114469 0)
(0.263981 0.116791 0)
(0.239552 0.119823 0)
(0.21327 0.122128 0)
(0.186637 0.121271 0)
(0.162766 0.116005 0)
(0.140719 0.10881 0)
(0.121954 0.103369 0)
(0.106443 0.101747 0)
(0.091978 0.102544 0)
(0.0739471 0.1036 0)
(0.0558409 0.105138 0)
(0.0346769 0.104139 0)
(0.00880812 0.102461 0)
(3 -1.11994e-16 0)
(3 1.92383e-16 0)
(3 -6.78029e-17 0)
(3 4.88745e-16 0)
(3 9.99758e-16 0)
(3 7.7254e-16 0)
(3 -1.87318e-16 0)
(3 -2.64311e-16 0)
(3 -1.05126e-16 0)
(3 -7.99632e-17 0)
(3 7.11763e-17 0)
(3 5.38221e-16 0)
(3 5.69493e-16 0)
(3 1.22818e-16 0)
(3 3.00128e-16 0)
(3 4.34243e-16 0)
(3 6.60145e-16 0)
(3 4.92398e-16 0)
(3 -4.6462e-16 0)
(3 -2.27339e-15 0)
(3 -3.07267e-15 0)
(3 -3.09942e-15 0)
(3 -2.21018e-15 0)
(3 -1.4493e-15 0)
(3 4.9291e-17 0)
(3 1.13678e-15 0)
(3 1.80174e-15 0)
(3 1.37226e-15 0)
(3 1.01839e-15 0)
(3 1.61807e-15 0)
(3 1.80097e-15 0)
(3 1.67686e-15 0)
(3 1.04941e-15 0)
(3 -6.51063e-17 0)
(3 -5.67453e-16 0)
(3 -5.10858e-17 0)
(3 4.60421e-16 0)
(3 1.38226e-15 0)
(3 1.22604e-15 0)
(3 1.23224e-15 0)
(3 1.59217e-15 0)
(3 1.22862e-15 0)
(3 3.64398e-16 0)
(3 -5.79057e-16 0)
(3 -6.92581e-16 0)
(3 -5.95607e-17 0)
(3 9.8266e-17 0)
(3 8.30118e-16 0)
(3 8.14442e-16 0)
(3 7.7188e-16 0)
(3 7.12438e-16 0)
(3 7.98541e-16 0)
(3 9.49577e-16 0)
(3 1.22151e-15 0)
(3 1.15873e-15 0)
(3 1.03759e-15 0)
(3 2.34751e-15 0)
(3 1.05456e-13 0)
(3 9.32787e-12 0)
(3 8.01809e-10 0)
(3 6.85885e-08 0)
(2.99998 5.04417e-06 0)
(2.99827 0.000447096 0)
(2.75513 0.0480339 0)
(1.07079 -0.0265051 0)
(0.692258 0.185603 0)
(0.593656 0.165563 0)
(0.57707 0.121253 0)
(0.558021 0.100913 0)
(0.542354 0.103763 0)
(0.528324 0.116873 0)
(0.508705 0.128802 0)
(0.484774 0.130167 0)
(0.459969 0.123984 0)
(0.434931 0.119688 0)
(0.41093 0.120057 0)
(0.388562 0.122372 0)
(0.368671 0.124672 0)
(0.3517 0.126784 0)
(0.336816 0.128695 0)
(0.322234 0.130508 0)
(0.305949 0.132294 0)
(0.286382 0.13416 0)
(0.263075 0.136919 0)
(0.238546 0.140815 0)
(0.212611 0.14389 0)
(0.186667 0.143216 0)
(0.163369 0.137632 0)
(0.141638 0.129846 0)
(0.122984 0.123576 0)
(0.107245 0.121392 0)
(0.0923168 0.122126 0)
(0.0740952 0.12334 0)
(0.0557875 0.124867 0)
(0.0344592 0.123992 0)
(0.0076505 0.121489 0)
(3 -5.96521e-17 0)
(3 -8.98623e-16 0)
(3 -1.17575e-15 0)
(3 -2.85125e-16 0)
(3 5.44336e-16 0)
(3 -2.24306e-17 0)
(3 -4.18554e-17 0)
(3 -6.01712e-16 0)
(3 -1.27043e-16 0)
(3 -1.28874e-16 0)
(3 -1.51802e-16 0)
(3 1.92119e-16 0)
(3 4.76794e-16 0)
(3 8.57065e-16 0)
(3 9.67044e-16 0)
(3 6.43056e-16 0)
(3 3.18355e-16 0)
(3 8.43448e-17 0)
(3 1.72558e-17 0)
(3 -5.83809e-16 0)
(3 -9.03961e-16 0)
(3 -1.64266e-15 0)
(3 -1.13258e-15 0)
(3 -8.19598e-16 0)
(3 -4.32153e-16 0)
(3 -3.4952e-16 0)
(3 7.76641e-17 0)
(3 7.9439e-17 0)
(3 3.7127e-16 0)
(3 5.99829e-16 0)
(3 2.56989e-16 0)
(3 -2.12639e-16 0)
(3 -5.34226e-17 0)
(3 1.76643e-16 0)
(3 2.58771e-16 0)
(3 6.82474e-16 0)
(3 1.4066e-15 0)
(3 1.18784e-15 0)
(3 7.01728e-16 0)
(3 8.59673e-16 0)
(3 1.297e-15 0)
(3 9.16524e-16 0)
(3 3.12417e-16 0)
(3 1.73596e-16 0)
(3 -3.83971e-16 0)
(3 -2.27033e-16 0)
(3 -7.86421e-17 0)
(3 8.70912e-16 0)
(3 7.86325e-16 0)
(3 1.40555e-15 0)
(3 2.25993e-15 0)
(3 1.44012e-15 0)
(3 8.13368e-16 0)
(3 -6.38786e-16 0)
(3 -5.82125e-16 0)
(3 2.63277e-16 0)
(3 1.04806e-15 0)
(3 4.72793e-14 0)
(3 4.3564e-12 0)
(3 4.02208e-10 0)
(3 3.67147e-08 0)
(2.99999 3.20919e-06 0)
(2.99894 0.000301189 0)
(2.84907 0.0351029 0)
(1.13368 -0.0200792 0)
(0.701041 0.218284 0)
(0.589505 0.188499 0)
(0.575575 0.138217 0)
(0.558573 0.115095 0)
(0.543802 0.117845 0)
(0.530876 0.13309 0)
(0.511322 0.147983 0)
(0.487121 0.150325 0)
(0.462911 0.143535 0)
(0.438473 0.138619 0)
(0.414975 0.139024 0)
(0.39314 0.141951 0)
(0.373498 0.144903 0)
(0.356309 0.147351 0)
(0.340799 0.149344 0)
(0.325326 0.151032 0)
(0.308041 0.152641 0)
(0.287549 0.154402 0)
(0.263724 0.157379 0)
(0.239037 0.161811 0)
(0.213241 0.165402 0)
(0.18772 0.16488 0)
(0.164478 0.159212 0)
(0.142873 0.151085 0)
(0.124251 0.144134 0)
(0.108267 0.141383 0)
(0.0927822 0.141953 0)
(0.0743946 0.143251 0)
(0.0557726 0.14467 0)
(0.0340515 0.144023 0)
(0.00652315 0.140598 0)
(3 1.09731e-16 0)
(3 -1.62143e-16 0)
(3 3.35651e-16 0)
(3 -2.42893e-17 0)
(3 -6.24977e-16 0)
(3 -3.85098e-16 0)
(3 1.16057e-16 0)
(3 1.09991e-15 0)
(3 8.55036e-16 0)
(3 8.11399e-16 0)
(3 8.93316e-16 0)
(3 4.72051e-16 0)
(3 5.92954e-16 0)
(3 3.47795e-16 0)
(3 4.51833e-16 0)
(3 3.89353e-16 0)
(3 -2.29833e-16 0)
(3 -2.05493e-16 0)
(3 6.69019e-16 0)
(3 6.51891e-16 0)
(3 1.04482e-15 0)
(3 1.11313e-15 0)
(3 1.04181e-15 0)
(3 -2.39017e-16 0)
(3 -5.48414e-16 0)
(3 -7.20701e-16 0)
(3 -1.67641e-16 0)
(3 3.76424e-16 0)
(3 6.9969e-16 0)
(3 3.35069e-16 0)
(3 2.50468e-16 0)
(3 1.17278e-15 0)
(3 1.63508e-15 0)
(3 2.43577e-15 0)
(3 3.11333e-15 0)
(3 2.46631e-15 0)
(3 1.76463e-15 0)
(3 8.47755e-16 0)
(3 1.80673e-16 0)
(3 -3.42189e-16 0)
(3 -5.56963e-16 0)
(3 -5.98392e-16 0)
(3 -1.21354e-16 0)
(3 1.88339e-16 0)
(3 7.87675e-17 0)
(3 1.70993e-16 0)
(3 2.68007e-16 0)
(3 2.7081e-17 0)
(3 1.53747e-16 0)
(3 6.13863e-16 0)
(3 2.874e-16 0)
(3 1.43797e-15 0)
(3 1.17434e-15 0)
(3 8.5103e-16 0)
(3 9.98702e-16 0)
(3 1.03439e-15 0)
(3 9.39045e-16 0)
(3 2.5342e-14 0)
(3 2.10024e-12 0)
(3 1.44415e-10 0)
(3 1.25201e-08 0)
(2.99999 1.2346e-06 0)
(2.99935 0.000114456 0)
(2.92522 0.0178577 0)
(1.2009 -0.00291814 0)
(0.698749 0.254584 0)
(0.583945 0.20778 0)
(0.577385 0.152239 0)
(0.562875 0.127675 0)
(0.548489 0.130931 0)
(0.534974 0.149222 0)
(0.513984 0.167475 0)
(0.488945 0.17051 0)
(0.465428 0.163057 0)
(0.441816 0.157741 0)
(0.419048 0.158315 0)
(0.397878 0.161835 0)
(0.378565 0.165342 0)
(0.361265 0.168128 0)
(0.345305 0.170149 0)
(0.329168 0.171779 0)
(0.311147 0.173322 0)
(0.289963 0.175035 0)
(0.265743 0.178151 0)
(0.240873 0.182932 0)
(0.215108 0.186903 0)
(0.189915 0.186561 0)
(0.166579 0.180967 0)
(0.145123 0.17263 0)
(0.126594 0.165058 0)
(0.110344 0.161666 0)
(0.0940623 0.161999 0)
(0.0754192 0.163329 0)
(0.0561539 0.164646 0)
(0.0337769 0.16422 0)
(0.00571447 0.159968 0)
(3 -6.61679e-17 0)
(3 5.16156e-16 0)
(3 3.57697e-16 0)
(3 -2.31665e-16 0)
(3 -5.55355e-16 0)
(3 -8.17113e-16 0)
(3 -6.18764e-16 0)
(3 -7.11496e-16 0)
(3 -1.936e-16 0)
(3 -1.85655e-16 0)
(3 -1.52675e-17 0)
(3 8.71706e-16 0)
(3 2.94668e-17 0)
(3 -1.47742e-16 0)
(3 -5.9949e-17 0)
(3 -5.70126e-16 0)
(3 -7.26148e-16 0)
(3 -4.82493e-16 0)
(3 -2.31444e-16 0)
(3 4.24419e-16 0)
(3 1.03546e-15 0)
(3 1.22795e-15 0)
(3 2.36514e-16 0)
(3 -6.89549e-16 0)
(3 -2.08623e-15 0)
(3 -1.61632e-15 0)
(3 -1.29094e-15 0)
(3 4.05322e-16 0)
(3 5.71526e-16 0)
(3 5.45323e-16 0)
(3 4.93927e-16 0)
(3 1.02171e-15 0)
(3 1.08039e-15 0)
(3 1.68783e-15 0)
(3 1.62131e-15 0)
(3 1.01537e-15 0)
(3 -1.90209e-16 0)
(3 5.5336e-16 0)
(3 8.42635e-17 0)
(3 -1.03427e-15 0)
(3 -1.26933e-15 0)
(3 -1.23091e-15 0)
(3 -9.04735e-16 0)
(3 -8.71493e-16 0)
(3 -3.16519e-16 0)
(3 -2.82642e-16 0)
(3 -3.48642e-16 0)
(3 -9.56332e-16 0)
(3 -4.61531e-16 0)
(3 3.1435e-16 0)
(3 2.28067e-16 0)
(3 1.27726e-15 0)
(3 1.34517e-15 0)
(3 1.47245e-15 0)
(3 9.29649e-16 0)
(3 4.14758e-16 0)
(3 5.8168e-16 0)
(3 2.41961e-14 0)
(3 1.90539e-12 0)
(3 8.17439e-11 0)
(3 7.27027e-09 0)
(2.99999 3.85476e-07 0)
(2.99951 2.8989e-05 0)
(2.96778 0.00375168 0)
(1.26981 0.0308726 0)
(0.689856 0.288967 0)
(0.583114 0.220854 0)
(0.585092 0.161632 0)
(0.571527 0.138734 0)
(0.556394 0.14423 0)
(0.540088 0.167193 0)
(0.515997 0.188205 0)
(0.490037 0.190638 0)
(0.467502 0.182255 0)
(0.444945 0.176846 0)
(0.423156 0.177802 0)
(0.402773 0.181901 0)
(0.383852 0.185882 0)
(0.366497 0.188872 0)
(0.350129 0.190894 0)
(0.333402 0.192545 0)
(0.314738 0.194177 0)
(0.29293 0.195982 0)
(0.268458 0.199248 0)
(0.243377 0.204259 0)
(0.217644 0.208539 0)
(0.192732 0.208452 0)
(0.169365 0.203028 0)
(0.148082 0.194583 0)
(0.12952 0.18646 0)
(0.112751 0.182325 0)
(0.0954908 0.182336 0)
(0.0762406 0.183662 0)
(0.0563009 0.184919 0)
(0.0332386 0.18467 0)
(0.00501539 0.179731 0)
(3 -1.62439e-16 0)
(3 -6.46776e-17 0)
(3 -1.03804e-16 0)
(3 -5.32623e-17 0)
(3 -6.0385e-17 0)
(3 2.411e-16 0)
(3 9.52571e-17 0)
(3 -3.09707e-16 0)
(3 -4.5644e-16 0)
(3 -7.82787e-16 0)
(3 -1.24044e-15 0)
(3 -1.42185e-15 0)
(3 -1.50962e-15 0)
(3 -1.55746e-15 0)
(3 -2.75432e-15 0)
(3 -3.21e-15 0)
(3 -2.00429e-15 0)
(3 -8.7682e-16 0)
(3 -2.30341e-16 0)
(3 5.30534e-16 0)
(3 2.75165e-16 0)
(3 9.53334e-17 0)
(3 -2.7369e-16 0)
(3 4.858e-16 0)
(3 -2.08051e-16 0)
(3 -3.83336e-16 0)
(3 -8.71889e-16 0)
(3 -6.93765e-16 0)
(3 -5.91321e-16 0)
(3 -2.31119e-16 0)
(3 -1.9849e-16 0)
(3 2.27948e-16 0)
(3 2.41628e-16 0)
(3 -2.67995e-16 0)
(3 -6.03697e-16 0)
(3 -1.88134e-15 0)
(3 -1.47539e-15 0)
(3 -1.68186e-15 0)
(3 -9.57362e-16 0)
(3 -7.53361e-16 0)
(3 -8.94421e-16 0)
(3 -2.9307e-16 0)
(3 2.19577e-16 0)
(3 5.66448e-16 0)
(3 5.54332e-16 0)
(3 1.97438e-16 0)
(3 5.80403e-17 0)
(3 2.3373e-17 0)
(3 2.93816e-16 0)
(3 1.58057e-16 0)
(3 6.03448e-16 0)
(3 5.01028e-16 0)
(3 5.22975e-16 0)
(3 4.06886e-16 0)
(3 -1.60532e-16 0)
(3 -8.11359e-16 0)
(3 -3.61739e-16 0)
(3 3.04696e-14 0)
(3 2.32548e-12 0)
(3 9.4615e-11 0)
(3 8.44217e-09 0)
(2.99999 2.84745e-07 0)
(2.99956 2.89629e-05 0)
(2.97192 0.00100862 0)
(1.35267 0.0784977 0)
(0.678875 0.315968 0)
(0.591292 0.225936 0)
(0.597757 0.166198 0)
(0.583551 0.14983 0)
(0.565359 0.160316 0)
(0.544119 0.189033 0)
(0.516188 0.210316 0)
(0.490247 0.21027 0)
(0.469303 0.200823 0)
(0.44823 0.195693 0)
(0.4278 0.197253 0)
(0.408375 0.201923 0)
(0.38988 0.206297 0)
(0.372438 0.209391 0)
(0.355576 0.21144 0)
(0.338167 0.213222 0)
(0.318821 0.215105 0)
(0.296438 0.217168 0)
(0.271694 0.220615 0)
(0.246435 0.225785 0)
(0.220824 0.230353 0)
(0.196167 0.23063 0)
(0.172914 0.225477 0)
(0.151788 0.217053 0)
(0.133004 0.208459 0)
(0.115438 0.203438 0)
(0.0970922 0.202963 0)
(0.0769519 0.20425 0)
(0.0563639 0.205493 0)
(0.0328022 0.205493 0)
(0.00409597 0.199961 0)
(3 -7.26903e-17 0)
(3 -1.65325e-17 0)
(3 6.39677e-16 0)
(3 1.7654e-16 0)
(3 -5.23385e-17 0)
(3 1.23071e-16 0)
(3 4.45264e-16 0)
(3 1.15261e-15 0)
(3 7.33042e-16 0)
(3 4.13366e-16 0)
(3 3.06564e-16 0)
(3 -1.067e-15 0)
(3 -1.33116e-15 0)
(3 -1.6282e-15 0)
(3 -1.54873e-15 0)
(3 -1.08161e-15 0)
(3 -1.18653e-15 0)
(3 -7.8077e-16 0)
(3 -8.51551e-16 0)
(3 -3.87977e-16 0)
(3 -2.19645e-16 0)
(3 -8.03304e-16 0)
(3 -5.21914e-16 0)
(3 -9.61785e-16 0)
(3 -6.52306e-16 0)
(3 -1.50213e-16 0)
(3 -6.41883e-16 0)
(3 -1.41463e-15 0)
(3 -9.32682e-16 0)
(3 -8.56697e-16 0)
(3 -1.63974e-16 0)
(3 4.5402e-16 0)
(3 1.04062e-15 0)
(3 7.05498e-16 0)
(3 7.18064e-16 0)
(3 8.13559e-16 0)
(3 -2.92336e-16 0)
(3 -1.16526e-15 0)
(3 -1.43405e-15 0)
(3 -4.94424e-16 0)
(3 -1.96762e-16 0)
(3 2.93851e-16 0)
(3 3.45243e-16 0)
(3 1.10985e-15 0)
(3 1.45685e-15 0)
(3 3.34288e-15 0)
(3 3.62328e-15 0)
(3 3.82899e-15 0)
(3 3.25841e-15 0)
(3 2.45201e-15 0)
(3 1.24731e-15 0)
(3 8.76133e-16 0)
(3 -9.10816e-17 0)
(3 -3.63615e-16 0)
(3 -9.3538e-16 0)
(3 -7.84154e-16 0)
(3 -1.0023e-16 0)
(3 3.72767e-14 0)
(3 2.7093e-12 0)
(3 1.25976e-10 0)
(3 1.0594e-08 0)
(2.99999 3.77896e-07 0)
(2.99961 3.95673e-05 0)
(2.97485 0.0011479 0)
(1.45741 0.131708 0)
(0.674738 0.331928 0)
(0.610311 0.226752 0)
(0.612212 0.169863 0)
(0.596644 0.163688 0)
(0.572427 0.182193 0)
(0.544884 0.214983 0)
(0.514536 0.232519 0)
(0.490533 0.22869 0)
(0.471623 0.218487 0)
(0.452209 0.214122 0)
(0.433189 0.216597 0)
(0.414605 0.2219 0)
(0.396367 0.226603 0)
(0.378635 0.229833 0)
(0.361037 0.232015 0)
(0.342703 0.234051 0)
(0.322522 0.236297 0)
(0.299591 0.238712 0)
(0.274614 0.242323 0)
(0.24935 0.247591 0)
(0.22411 0.252443 0)
(0.199872 0.253197 0)
(0.176962 0.24843 0)
(0.15599 0.240154 0)
(0.136779 0.23112 0)
(0.118192 0.225054 0)
(0.0986509 0.223924 0)
(0.077468 0.225108 0)
(0.0563928 0.226394 0)
(0.0325151 0.226774 0)
(0.00346273 0.221063 0)
(3 1.46663e-16 0)
(3 1.57941e-16 0)
(3 -4.1157e-16 0)
(3 -8.67161e-16 0)
(3 -1.00925e-15 0)
(3 -9.38313e-16 0)
(3 -7.61226e-16 0)
(3 9.1694e-17 0)
(3 1.43e-16 0)
(3 2.4779e-16 0)
(3 -1.56265e-16 0)
(3 -1.24055e-16 0)
(3 -9.2025e-16 0)
(3 -1.15225e-15 0)
(3 -2.0354e-17 0)
(3 8.66726e-16 0)
(3 1.13639e-16 0)
(3 -4.07838e-16 0)
(3 -1.44761e-15 0)
(3 -2.0173e-15 0)
(3 -8.393e-16 0)
(3 -2.94114e-16 0)
(3 -4.94266e-16 0)
(3 -1.02123e-15 0)
(3 -5.90475e-16 0)
(3 -3.4419e-16 0)
(3 -6.12262e-16 0)
(3 -3.76922e-16 0)
(3 -8.43428e-16 0)
(3 -9.16159e-16 0)
(3 -7.2485e-16 0)
(3 -1.30613e-15 0)
(3 -1.67955e-15 0)
(3 -1.05668e-15 0)
(3 -8.12335e-16 0)
(3 4.46208e-16 0)
(3 5.80566e-16 0)
(3 1.03403e-15 0)
(3 6.39328e-16 0)
(3 2.67538e-16 0)
(3 1.66627e-16 0)
(3 -1.91658e-16 0)
(3 -2.68014e-16 0)
(3 -4.30476e-17 0)
(3 1.17083e-15 0)
(3 1.23587e-15 0)
(3 1.46082e-15 0)
(3 1.91034e-15 0)
(3 7.5686e-16 0)
(3 5.40021e-16 0)
(3 5.68995e-16 0)
(3 4.06348e-16 0)
(3 8.2005e-16 0)
(3 3.89845e-16 0)
(3 3.29927e-16 0)
(3 8.28851e-17 0)
(3 -1.3464e-16 0)
(3 4.17036e-14 0)
(3 2.88459e-12 0)
(3 1.55962e-10 0)
(3 1.18008e-08 0)
(2.99999 4.99171e-07 0)
(2.99967 4.77318e-05 0)
(2.9785 0.00143999 0)
(1.5877 0.186266 0)
(0.686105 0.335865 0)
(0.638511 0.220505 0)
(0.624956 0.176602 0)
(0.607373 0.183106 0)
(0.574582 0.210589 0)
(0.543052 0.242376 0)
(0.513801 0.253106 0)
(0.492998 0.245698 0)
(0.475641 0.235405 0)
(0.457553 0.232258 0)
(0.439685 0.235858 0)
(0.421718 0.241813 0)
(0.403581 0.246792 0)
(0.385445 0.25022 0)
(0.367002 0.252675 0)
(0.347678 0.255052 0)
(0.326711 0.257669 0)
(0.303472 0.260395 0)
(0.278459 0.264085 0)
(0.25347 0.269417 0)
(0.228774 0.274575 0)
(0.20507 0.27596 0)
(0.182487 0.271752 0)
(0.161451 0.263771 0)
(0.141535 0.254301 0)
(0.121729 0.24713 0)
(0.100871 0.245268 0)
(0.0785747 0.246319 0)
(0.0569257 0.247801 0)
(0.0333196 0.24847 0)
(0.00308861 0.243584 0)
(3 -4.99349e-17 0)
(3 4.47167e-17 0)
(3 -2.76495e-17 0)
(3 -2.24036e-17 0)
(3 -3.058e-17 0)
(3 -2.48333e-16 0)
(3 -8.26879e-17 0)
(3 -3.99212e-16 0)
(3 3.48875e-16 0)
(3 1.02039e-15 0)
(3 9.5502e-16 0)
(3 1.07552e-15 0)
(3 1.3402e-15 0)
(3 9.66132e-16 0)
(3 9.92289e-17 0)
(3 -7.9533e-16 0)
(3 -7.97853e-16 0)
(3 -1.06397e-15 0)
(3 -1.20509e-15 0)
(3 -1.80587e-15 0)
(3 -2.38476e-15 0)
(3 -1.41419e-15 0)
(3 -1.60534e-15 0)
(3 -8.69394e-16 0)
(3 -9.53178e-16 0)
(3 -1.61931e-15 0)
(3 -1.07212e-15 0)
(3 -2.1462e-16 0)
(3 -3.18682e-16 0)
(3 3.27088e-16 0)
(3 6.35871e-16 0)
(3 7.47785e-16 0)
(3 1.83324e-16 0)
(3 -5.18487e-16 0)
(3 -8.14134e-16 0)
(3 -9.43379e-16 0)
(3 3.00359e-16 0)
(3 3.63259e-17 0)
(3 2.4369e-16 0)
(3 -6.74361e-18 0)
(3 -3.95652e-16 0)
(3 -2.37002e-16 0)
(3 3.3078e-16 0)
(3 1.07103e-15 0)
(3 1.20264e-15 0)
(3 1.04398e-15 0)
(3 1.19306e-15 0)
(3 5.76913e-16 0)
(3 1.03139e-16 0)
(3 -4.46684e-16 0)
(3 -3.05968e-16 0)
(3 -9.41199e-16 0)
(3 -1.4596e-15 0)
(3 -1.23021e-15 0)
(3 -7.54853e-16 0)
(3 -1.57111e-16 0)
(3 1.1164e-15 0)
(3 4.36054e-14 0)
(3 2.78314e-12 0)
(3 1.71448e-10 0)
(3 1.18774e-08 0)
(3 6.18709e-07 0)
(2.99975 5.09784e-05 0)
(2.9829 0.00190413 0)
(1.76033 0.237967 0)
(0.730086 0.336146 0)
(0.666972 0.212592 0)
(0.635752 0.191789 0)
(0.607512 0.210654 0)
(0.572799 0.241709 0)
(0.542958 0.26735 0)
(0.517101 0.271486 0)
(0.498632 0.261874 0)
(0.481892 0.252049 0)
(0.464516 0.250339 0)
(0.447276 0.255117 0)
(0.429496 0.26171 0)
(0.411152 0.266968 0)
(0.392419 0.270707 0)
(0.373062 0.273555 0)
(0.352787 0.27628 0)
(0.331154 0.279194 0)
(0.307788 0.282134 0)
(0.282947 0.285886 0)
(0.258307 0.291353 0)
(0.234183 0.296952 0)
(0.21095 0.299172 0)
(0.188555 0.295714 0)
(0.167199 0.288096 0)
(0.146427 0.27812 0)
(0.125324 0.269886 0)
(0.103069 0.267187 0)
(0.0799075 0.268146 0)
(0.0574832 0.270141 0)
(0.0350573 0.270683 0)
(0.00347065 0.267013 0)
(3 2.32551e-17 0)
(3 3.6325e-16 0)
(3 2.43923e-16 0)
(3 5.59495e-16 0)
(3 6.61179e-16 0)
(3 2.59671e-16 0)
(3 1.81313e-16 0)
(3 -1.02204e-15 0)
(3 -1.11861e-15 0)
(3 -8.58713e-16 0)
(3 -5.78856e-18 0)
(3 9.93158e-16 0)
(3 2.37992e-15 0)
(3 2.35441e-15 0)
(3 1.4609e-15 0)
(3 -6.02754e-16 0)
(3 -1.07266e-15 0)
(3 -1.78849e-15 0)
(3 -1.96588e-15 0)
(3 -1.6148e-15 0)
(3 -2.74936e-15 0)
(3 -2.75349e-15 0)
(3 -1.42521e-15 0)
(3 -2.78565e-16 0)
(3 -1.01978e-15 0)
(3 -1.31136e-15 0)
(3 -5.60887e-16 0)
(3 -5.7434e-16 0)
(3 3.25574e-16 0)
(3 1.57286e-15 0)
(3 2.81303e-15 0)
(3 2.59945e-15 0)
(3 2.3863e-15 0)
(3 1.52719e-15 0)
(3 1.73271e-15 0)
(3 8.18504e-16 0)
(3 1.30893e-15 0)
(3 8.38317e-16 0)
(3 6.39253e-16 0)
(3 1.96769e-16 0)
(3 -2.66688e-16 0)
(3 -5.90649e-16 0)
(3 3.46628e-16 0)
(3 6.65158e-16 0)
(3 8.18679e-16 0)
(3 1.35752e-15 0)
(3 1.03836e-15 0)
(3 8.49312e-16 0)
(3 6.49257e-16 0)
(3 1.48603e-16 0)
(3 -1.99627e-15 0)
(3 -2.92061e-15 0)
(3 -4.27542e-15 0)
(3 -4.22643e-15 0)
(3 -3.20002e-15 0)
(3 -2.18863e-15 0)
(3 -2.27393e-16 0)
(3 3.45422e-14 0)
(3 2.2973e-12 0)
(3 1.55602e-10 0)
(3 1.04006e-08 0)
(3 6.47567e-07 0)
(2.99983 4.73006e-05 0)
(2.98796 0.00233959 0)
(2.00168 0.271736 0)
(0.810244 0.301922 0)
(0.684897 0.229488 0)
(0.636631 0.219107 0)
(0.603841 0.241366 0)
(0.573547 0.269424 0)
(0.547372 0.288349 0)
(0.524377 0.288558 0)
(0.506713 0.27824 0)
(0.489806 0.269163 0)
(0.472448 0.268888 0)
(0.45519 0.274783 0)
(0.437155 0.281913 0)
(0.41839 0.28738 0)
(0.399065 0.291442 0)
(0.378988 0.294679 0)
(0.358076 0.297635 0)
(0.33612 0.300687 0)
(0.312903 0.303771 0)
(0.288675 0.307639 0)
(0.264471 0.313336 0)
(0.240946 0.319541 0)
(0.21812 0.322753 0)
(0.195722 0.320187 0)
(0.173881 0.312899 0)
(0.15219 0.302442 0)
(0.129758 0.293389 0)
(0.106041 0.289853 0)
(0.0821819 0.29089 0)
(0.0587526 0.293849 0)
(0.0371651 0.294158 0)
(0.00466748 0.289435 0)
(3 2.54937e-16 0)
(3 -2.70233e-16 0)
(3 -6.47436e-16 0)
(3 -4.95253e-16 0)
(3 -6.0051e-16 0)
(3 2.58489e-16 0)
(3 4.97978e-18 0)
(3 -7.54041e-16 0)
(3 -1.68474e-15 0)
(3 -1.89296e-15 0)
(3 -1.39792e-15 0)
(3 4.69258e-16 0)
(3 6.79935e-16 0)
(3 3.27071e-16 0)
(3 1.51612e-16 0)
(3 2.7234e-16 0)
(3 -1.982e-16 0)
(3 -6.32836e-16 0)
(3 -1.2848e-15 0)
(3 -1.20727e-15 0)
(3 -1.17831e-15 0)
(3 -1.04211e-15 0)
(3 -1.03401e-15 0)
(3 -1.07249e-15 0)
(3 -6.26742e-16 0)
(3 -4.41623e-16 0)
(3 -6.46998e-16 0)
(3 -1.37436e-15 0)
(3 -8.5167e-16 0)
(3 -7.32276e-16 0)
(3 -6.58903e-16 0)
(3 -2.93837e-16 0)
(3 -1.1788e-16 0)
(3 -1.38218e-16 0)
(3 1.57722e-16 0)
(3 -4.70311e-17 0)