/*--------------------------------*- C++ -*----------------------------------*\
| =========                 |                                                 |
| \\      /  F ield         | OpenFOAM: The Open Source CFD Toolbox           |
|  \\    /   O peration     | Version:  v1812                                 |
|   \\  /    A nd           | Web:      www.OpenFOAM.com                      |
|    \\/     M anipulation  |                                                 |
\*---------------------------------------------------------------------------*/
FoamFile
{
    version     2.0;
    format      ascii;
    class       volScalarField;
    location    "0.2";
    object      p;
}
// * * * * * * * * * * * * * * * * * * * * * * * * * * * * * * * * * * * * * //

dimensions      [1 -1 -2 0 0 0 0];


internalField   nonuniform List<scalar> 
4000
(
1
1
1
1
1
1
1
1
1
1
1
1
1
1
1
1
1
1
1
1
1
1
1
1
1
1
1
1
1
1
1
1
1
1
1
1
1
1
1
1
1
1
1
1
1
1
1
1
1
1
1
1
1
1
1
1
1
1
1
1
1
1
1
1
1
1
1
1
1
1
1
1
1
1
1
1
1
1
1
1
1
1
1
1
1
1
1
1
1
1
1
1
1
1
1
1
1
1
1
1
1
1
1
1
1
1
1
1
1
1
1
1
1
1
1
1
1
1
1
1
1
1
1
1
1
1
1
1
1
1
1
1
1
1
1
1
1
1
1
1
1
1
1
1
1
1
1
1
1
1
1
1
1
1
1
1
1
1
1
1
1
1
1
1
1
1
1
1
1
1
1
1
1
1
1
1
1
1
1
1
1
1
1
1
1
1
1
1
1
1
1
1
1
1
1
1
1
1
1
1
1
1
1
1
1
1
1
1
1
1
1
1
1
1
1
1
1
1
1
1
1
1
1
1
1
1
1
1
1
1
1
1
1
1
1
1
1
1
1
1
1
1
1
1
1
1
1
1
1
1
1
1
1
1
1
1
1
1
1
1
1
1
1
1
1
1
1
1
1
1
1
1
1
1
1
1
1
1
1
1
1
1
1
1
1
1
1
1
1
1
1
1
1
1
1
1
1
1
1
1
1
1
1
1
1
1
1
1
1
1
1
1
1
1
1
1
1
1
1
1
1
1
1
1
1
1
1
1
1
1
1
1
1
1
1
1
1
1
1
1
1
1
1
1
1
1
1
1
1
1
1
1
1
1
1
1
1
1
1
1
1
1
1
1
1
1
1
1
1
1
1
1
1
1
1
1
1
1
1
1
1
1
1
1
1
1
1
1
1
1
1
1
1
1
1
1
1
1
1
1
1
1
1
1
1
1
1
1
1
1
1
1
1
1
1
1
1
1
1
1
1
1
1
1
1
1
1
1
1
1
1
1
1
1
1
1
1
1
1
1
1
1
1
1
1
1
1
1
1
1
1
1
1
1
1
1
1
1
1
1
1
1
1
1
1
1
1
1
1
1
1
1
1
1
1
1
1
1
1
1
1
1
1
1
1
1
1
1
1
1
1
1
1
1
1
1
1
1
1
1
1
1
1
1
1
1
1
1
1
1
1
1
1
1
1
1
1
1
1
1
1
1
1
1
1
1
1
1
1
1
1
1
1
1
1
1
1
1
1
1
1
1
1
1
1
1
1
1
1
1
1
1
1
1
1
1
1
1
1
1
1
1
1
1
1
1
1
1
1
1
1
1
1
1
1
1
1
1
1
1
1
1
1
1
1
1
1
1
1
1
1
1
1
1
1
1
1
1
1
1
1
1
1
1
1
1
1
1
1
1
1
1
1
1
1
1
1
1
1
1
1
1
1
1
1
1
1
1
1
1
1
1
1
1
1
1
1
1
1
1
1
1
1
1
1
1
1
1
1
1
1
1
1
1
1
1
1
1
1
1
1
1
1
1
1
1
1
1
1
1
1
1
1
1
1
1
1
1
1
1
1
1
1
1
1
1
1
1
1
1
1
1
1
1
1
1
1
1
1
1
1
1
1
1
1
1
1
1
1
1
1
1
1
1
1
1
1
1
1
1
1
1
1
1
1
1
1
1
1
1
1
1
1
1
1
1
1
1
1
1
1
1
1
1
1
1
1
1
1
1
1
1
1
1
1
1
1
1
1
1
1
1
1
1
1
1
1
1
1
1
1
1
1
1
1
1
1
1
1
1
1
1
1
1
1
1
1
1
1
1
1
1
1
1
1
1
1
1
1
1
1
1
1
1
1
1
1
1
1
1
1
1
1
1
1
1
1
1
1
1
1
1
1
1
1
1
1
1
1
1
1
1
1
1
1
1
1
1
1
1
1
1
1
1
1
1
1
1
1
1
1
1
1
1
1
1
1
1
1
1
1
1
1
1
1
1
1
1
1
1
1
1
1
1
1
1
1
1
1
1
1
1
1
1
1
1
1
1
1
1
1
1
1
1
1
1
1
1
1
1
1
1
1
1
1
1
1
1
1
1
1
1
1
1
1
1
1
1
1
1
1
1
1
1
1
1
1
1
1
1
1
1
1
1
1
1
1
1
1
1
1
1
1
1
1
1
1
1
1
1
1
1
1
1
1
1
1
1
1
1
1
1
0.9999999999
0.9999999999
0.9999999999
0.9999999998
0.9999999997
0.9999999995
0.9999999992
0.9999999989
0.9999999983
0.9999999976
0.9999999964
0.9999999948
0.9999999925
0.9999999893
0.9999999846
0.9999999781
0.9999999691
0.9999999565
0.999999939
0.9999999151
0.9999998824
0.9999998379
0.9999997777
0.9999996967
0.9999995885
0.9999994444
0.9999992538
0.9999990029
0.9999986743
0.9999982464
0.9999976921
0.9999969778
0.9999960623
0.9999948948
0.999993414
0.9999915455
0.9999892003
0.9999862718
0.9999826339
0.9999781383
0.9999726111
0.9999658505
0.9999576235
0.9999476629
0.9999356643
0.9999212836
0.9999041342
0.9998837849
0.999859758
0.9998315285
0.9997985232
0.9997601207
0.9997156531
0.9996644071
0.9996056272
0.9995385192
0.999462255
0.9993759781
0.9992788098
0.9991698561
0.9990482156
0.9989129876
0.9987632801
0.9985982184
0.9984169537
0.9982186708
0.9980025963
0.9977680054
0.9975142287
0.9972406572
0.9969467478
0.9966320264
0.996296091
0.9959386131
0.9955593388
0.9951580884
0.9947347552
0.9942893037
0.9938217669
0.9933322432
0.9928208926
0.9922879324
0.9917336327
0.991158312
0.9905623322
0.9899460937
0.9893100306
0.9886546063
0.9879803086
0.9872876454
0.9865771409
0.9858493314
0.9851047617
0.9843439821
0.9835675454
0.9827760037
0.9819699067
0.9811497988
0.9803162181
0.9794696938
0.9786107457
0.9777398823
0.9768576003
0.9759643838
0.9750607032
0.9741470155
0.9732237632
0.9722913746
0.9713502636
0.9704008293
0.9694434567
0.9684785165
0.967506365
0.9665273451
0.9655417857
0.9645500027
0.9635522992
0.9625489654
0.9615402797
0.9605265086
0.9595079071
0.9584847195
0.9574571793
0.95642551
0.9553899253
0.9543506295
0.9533078178
0.952261677
0.9512123855
0.9501601139
0.9491050252
0.9480472751
0.9469870125
0.9459243798
0.9448595129
0.9437925418
0.9427235909
0.9416527788
0.9405802193
0.939506021
0.9384302877
0.9373531188
0.9362746095
0.9351948505
0.9341139292
0.9330319286
0.9319489286
0.9308650056
0.9297802327
0.92869468
0.9276084146
0.9265215008
0.9254340002
0.924345972
0.9232574727
0.9221685569
0.9210792765
0.9199896816
0.9188998203
0.9178097385
0.9167194805
0.9156290888
0.9145386042
0.9134480659
0.9123575116
0.9112669774
0.9101764982
0.9090861074
0.9079958372
0.9069057185
0.9058157813
0.904726054
0.9036365644
0.9025473389
0.9014584032
0.9003697818
0.8992814986
0.8981935763
0.8971060371
0.8960189021
0.8949321919
0.8938459261
0.8927601238
0.8916748033
0.8905899825
0.8895056783
0.8884219073
0.8873386855
0.886256028
0.8851739499
0.8840924654
0.8830115885
0.8819313323
0.88085171
0.8797727339
0.8786944162
0.8776167684
0.8765398019
0.8754635275
0.8743879558
0.873313097
0.872238961
0.8711655572
0.8700928949
0.869020983
0.8679498301
0.8668794446
0.8658098346
0.8647410079
0.8636729721
0.8626057344
0.861539302
0.8604736818
0.8594088805
0.8583449043
0.8572817597
0.8562194526
0.8551579889
0.8540973742
0.8530376141
0.8519787139
0.8509206786
0.8498635133
0.8488072229
0.847751812
0.8466972851
0.8456436466
0.8445909009
0.8435390519
0.8424881038
0.8414380604
0.8403889253
0.8393407024
0.838293395
0.8372470066
0.8362015406
0.835157
0.8341133879
0.8330707075
0.8320289616
0.8309881529
0.8299482843
0.8289093584
0.8278713777
0.8268343446
0.8257982617
0.8247631311
0.8237289552
0.8226957361
0.8216634759
0.8206321766
0.8196018402
0.8185724686
0.8175440636
0.8165166271
0.8154901606
0.8144646659
0.8134401445
0.812416598
0.8113940279
0.8103724357
0.8093518226
0.8083321901
0.8073135394
0.8062958718
0.8052791884
0.8042634905
0.8032487791
0.8022350553
0.8012223201
0.8002105745
0.7991998194
0.7981900558
0.7971812846
0.7961735064
0.7951667223
0.7941609328
0.7931561388
0.7921523409
0.7911495399
0.7901477363
0.7891469307
0.7881471238
0.7871483161
0.786150508
0.7851537001
0.7841578929
0.7831630867
0.782169282
0.7811764792
0.7801846787
0.7791938807
0.7782040856
0.7772152937
0.7762275052
0.7752407204
0.7742549396
0.7732701628
0.7722863904
0.7713036225
0.7703218592
0.7693411006
0.7683613469
0.7673825982
0.7664048544
0.7654281158
0.7644523822
0.7634776538
0.7625039306
0.7615312125
0.7605594994
0.7595887915
0.7586190886
0.7576503906
0.7566826974
0.755716009
0.7547503253
0.7537856461
0.7528219712
0.7518593006
0.7508976341
0.7499369714
0.7489773124
0.748018657
0.7470610048
0.7461043557
0.7451487095
0.7441940658
0.7432404245
0.7422877853
0.7413361478
0.7403855119
0.7394358772
0.7384872434
0.7375396102
0.7365929772
0.7356473443
0.7347027109
0.7337590768
0.7328164416
0.7318748049
0.7309341664
0.7299945257
0.7290558823
0.728118236
0.7271815862
0.7262459327
0.7253112748
0.7243776124
0.7234449448
0.7225132717
0.7215825926
0.720652907
0.7197242146
0.7187965148
0.7178698072
0.7169440913
0.7160193665
0.7150956325
0.7141728887
0.7132511347
0.7123303699
0.7114105937
0.7104918058
0.7095740055
0.7086571924
0.7077413659
0.7068265255
0.7059126706
0.7049998007
0.7040879152
0.7031770136
0.7022670954
0.7013581599
0.7004502066
0.6995432349
0.6986372443
0.6977322341
0.6968282039
0.6959251529
0.6950230806
0.6941219865
0.6932218698
0.6923227301
0.6914245667
0.690527379
0.6896311663
0.6887359281
0.6878416638
0.6869483727
0.6860560542
0.6851647076
0.6842743324
0.6833849279
0.6824964935
0.6816090285
0.6807225322
0.6798370041
0.6789524435
0.6780688498
0.6771862222
0.6763045602
0.675423863
0.67454413
0.6736653606
0.672787554
0.6719107097
0.6710348269
0.6701599049
0.6692859432
0.668412941
0.6675408976
0.6666698123
0.6657996845
0.6649305135
0.6640622986
0.6631950392
0.6623287344
0.6614633836
0.6605989862
0.6597355415
0.6588730486
0.658011507
0.6571509159
0.6562912747
0.6554325825
0.6545748388
0.6537180428
0.6528621938
0.6520072911
0.651153334
0.6503003217
0.6494482536
0.648597129
0.647746947
0.646897707
0.6460494083
0.6452020502
0.6443556319
0.6435101527
0.6426656118
0.6418220086
0.6409793424
0.6401376124
0.6392968178
0.6384569579
0.6376180321
0.6367800395
0.6359429795
0.6351068512
0.6342716541
0.6334373872
0.63260405
0.6317716416
0.6309401613
0.6301096084
0.6292799821
0.6284512817
0.6276235064
0.6267966556
0.6259707284
0.6251457241
0.624321642
0.6234984813
0.6226762413
0.6218549212
0.6210345202
0.6202150377
0.6193964729
0.618578825
0.6177620933
0.616946277
0.6161313753
0.6153173876
0.614504313
0.6136921508
0.6128809003
0.6120705607
0.6112611312
0.6104526111
0.6096449996
0.6088382961
0.6080324996
0.6072276094
0.6064236249
0.6056205452
0.6048183696
0.6040170973
0.6032167276
0.6024172596
0.6016186927
0.6008210261
0.600024259
0.5992283906
0.5984334203
0.5976393471
0.5968461705
0.5960538895
0.5952625035
0.5944720116
0.5936824132
0.5928937074
0.5921058935
0.5913189708
0.5905329383
0.5897477955
0.5889635415
0.5881801756
0.587397697
0.5866161049
0.5858353985
0.5850555772
0.5842766401
0.5834985865
0.5827214155
0.5819451265
0.5811697187
0.5803951913
0.5796215435
0.5788487746
0.5780768838
0.5773058704
0.5765357335
0.5757664724
0.5749980863
0.5742305745
0.5734639363
0.5726981707
0.5719332771
0.5711692548
0.5704061028
0.5696438206
0.5688824072
0.568121862
0.5673621841
0.5666033728
0.5658454274
0.565088347
0.564332131
0.5635767784
0.5628222886
0.5620686609
0.5613158943
0.5605639882
0.5598129419
0.5590627544
0.5583134251
0.5575649533
0.556817338
0.5560705786
0.5553246743
0.5545796244
0.553835428
0.5530920844
0.5523495929
0.5516079526
0.5508671628
0.5501272228
0.5493881317
0.5486498889
0.5479124935
0.5471759448
0.546440242
0.5457053843
0.5449713711
0.5442382014
0.5435058746
0.54277439
0.5420437466
0.5413139438
0.5405849808
0.5398568569
0.5391295712
0.5384031231
0.5376775117
0.5369527363
0.5362287961
0.5355056904
0.5347834184
0.5340619793
0.5333413725
0.532621597
0.5319026522
0.5311845373
0.5304672516
0.5297507942
0.5290351644
0.5283203615
0.5276063847
0.5268932332
0.5261809064
0.5254694033
0.5247587233
0.5240488656
0.5233398295
0.5226316141
0.5219242188
0.5212176427
0.5205118852
0.5198069454
0.5191028226
0.5183995161
0.517697025
0.5169953487
0.5162944864
0.5155944373
0.5148952007
0.5141967758
0.5134991618
0.5128023581
0.5121063638
0.5114111781
0.5107168005
0.51002323
0.509330466
0.5086385077
0.5079473542
0.507257005
0.5065674592
0.5058787161
0.5051907749
0.5045036349
0.5038172953
0.5031317554
0.5024470145
0.5017630717
0.5010799263
0.5003975776
0.4997160248
0.4990352673
0.4983553041
0.4976761347
0.4969977582
0.4963201739
0.495643381
0.4949673788
0.4942921666
0.4936177436
0.4929441091
0.4922712622
0.4915992024
0.4909279288
0.4902574406
0.4895877373
0.4889188179
0.4882506817
0.4875833281
0.4869167562
0.4862509654
0.4855859549
0.4849217239
0.4842582717
0.4835955975
0.4829337007
0.4822725805
0.4816122361
0.4809526668
0.4802938719
0.4796358506
0.4789786022
0.478322126
0.4776664211
0.477011487
0.4763573227
0.4757039277
0.4750513011
0.4743994423
0.4737483504
0.4730980249
0.4724484648
0.4717996695
0.4711516383
0.4705043704
0.4698578651
0.4692121216
0.4685671393
0.4679229173
0.467279455
0.4666367516
0.4659948065
0.4653536187
0.4647131878
0.4640735128
0.4634345931
0.4627964279
0.4621590165
0.4615223583
0.4608864524
0.4602512981
0.4596168947
0.4589832415
0.4583503377
0.4577181826
0.4570867756
0.4564561158
0.4558262026
0.4551970351
0.4545686128
0.4539409348
0.4533140005
0.4526878091
0.4520623599
0.4514376521
0.4508136851
0.4501904582
0.4495679705
0.4489462214
0.4483252102
0.4477049362
0.4470853985
0.4464665966
0.4458485297
0.445231197
0.4446145978
0.4439987315
0.4433835973
0.4427691945
0.4421555224
0.4415425802
0.4409303673
0.4403188829
0.4397081263
0.4390980968
0.4384887937
0.4378802163
0.4372723638
0.4366652355
0.4360588308
0.4354531488
0.434848189
0.4342439506
0.4336404328
0.433037635
0.4324355565
0.4318341965
0.4312335544
0.4306336293
0.4300344207
0.4294359278
0.4288381499
0.4282410862
0.4276447362
0.427049099
0.426454174
0.4258599605
0.4252664577
0.4246736649
0.4240815816
0.4234902068
0.42289954
0.4223095804
0.4217203274
0.4211317801
0.420543938
0.4199568004
0.4193703664
0.4187846355
0.4181996068
0.4176152798
0.4170316538
0.4164487279
0.4158665016
0.415284974
0.4147041446
0.4141240126
0.4135445774
0.4129658382
0.4123877943
0.4118104451
0.4112337898
0.4106578277
0.4100825582
0.4095079806
0.4089340941
0.4083608981
0.4077883919
0.4072165747
0.406645446
0.406075005
0.405505251
0.4049361833
0.4043678012
0.4038001041
0.4032330912
0.4026667619
0.4021011155
0.4015361512
0.4009718685
0.4004082666
0.3998453448
0.3992831024
0.3987215388
0.3981606533
0.3976004451
0.3970409137
0.3964820582
0.3959238781
0.3953663727
0.3948095412
0.394253383
0.3936978974
0.3931430837
0.3925889412
0.3920354693
0.3914826673
0.3909305344
0.3903790701
0.3898282736
0.3892781443
0.3887286814
0.3881798844
0.3876317524
0.3870842849
0.3865374811
0.3859913404
0.3854458622
0.3849010456
0.3843568901
0.3838133949
0.3832705595
0.3827283831
0.382186865
0.3816460045
0.3811058011
0.3805662539
0.3800273624
0.3794891259
0.3789515436
0.3784146149
0.3778783392
0.3773427157
0.3768077437
0.3762734227
0.3757397519
0.3752067306
0.3746743582
0.374142634
0.3736115573
0.3730811274
0.3725513437
0.3720222054
0.371493712
0.3709658627
0.3704386568
0.3699120937
0.3693861726
0.368860893
0.3683362541
0.3678122552
0.3672888957
0.3667661749
0.3662440921
0.3657226465
0.3652018377
0.3646816647
0.364162127
0.363643224
0.3631249548
0.3626073188
0.3620903153
0.3615739436
0.3610582031
0.3605430931
0.3600286128
0.3595147616
0.3590015387
0.3584889436
0.3579769754
0.3574656335
0.3569549173
0.3564448259
0.3559353587
0.355426515
0.3549182942
0.3544106954
0.353903718
0.3533973613
0.3528916246
0.3523865071
0.3518820082
0.3513781272
0.3508748633
0.3503722158
0.349870184
0.3493687671
0.3488679646
0.3483677755
0.3478681992
0.3473692351
0.3468708822
0.3463731399
0.3458760075
0.3453794842
0.3448835693
0.344388262
0.3438935615
0.3433994671
0.3429059781
0.3424130936
0.341920813
0.3414291353
0.3409380599
0.3404475858
0.3399577125
0.3394684389
0.3389797644
0.338491688
0.338004209
0.3375173265
0.3370310396
0.3365453475
0.3360602494
0.3355757443
0.3350918313
0.3346085095
0.3341257779
0.3336436356
0.3331620817
0.3326811151
0.3322007348
0.3317209398
0.331241729
0.3307631012
0.3302850554
0.3298075904
0.3293307049
0.3288543978
0.3283786676
0.3279035131
0.3274289329
0.3269549254
0.3264814891
0.3260086225
0.3255363237
0.325064591
0.3245934225
0.3241228161
0.3236527696
0.3231832807
0.3227143469
0.3222459656
0.3217781338
0.3213108485
0.3208441062
0.3203779032
0.3199122355
0.3194470986
0.3189824877
0.3185183973
0.3180548215
0.3175917535
0.3171291859
0.3166671102
0.3162055169
0.3157443951
0.3152837326
0.314823515
0.314363726
0.3139043464
0.3134453537
0.3129867213
0.3125284173
0.3120704035
0.311612633
0.3111550481
0.3106975766
0.310240127
0.3097825811
0.3093247848
0.3088665328
0.3084075496
0.3079474632
0.3074857774
0.3070218581
0.3065549816
0.3060845758
0.3056109128
0.3051370717
0.3046731673
0.3042429986
0.3038875533
0.3036476021
0.303521859
0.3034632177
0.3034314483
0.3034110437
0.3034005652
0.3033990927
0.3033995462
0.3034036735
0.3034191818
0.3034571183
0.3035236618
0.3035966846
0.303625533
0.3036264738
0.3036268011
0.303627619
0.3036300172
0.3036362638
0.3036498481
0.3036750908
0.3037149526
0.3037602212
0.3037831509
0.3037844411
0.3037841422
0.3037827375
0.3037785424
0.3037710889
0.3037668687
0.3037668957
0.3037679826
0.3037721177
0.3037792624
0.3037832195
0.3037831566
0.3037823658
0.3037793491
0.3037741883
0.3037711521
0.3037711546
0.3037711744
0.3037712726
0.3037712141
0.3037707332
0.3037691773
0.3037661403
0.3037630263
0.3037619615
0.3037618368
0.3037616871
0.303761145
0.3037596892
0.3037571341
0.3037545484
0.3037535773
0.3037533861
0.303753146
0.3037524532
0.3037508623
0.3037484869
0.3037467194
0.3037463233
0.3037460956
0.3037456125
0.3037443257
0.3037419165
0.3037397547
0.3037392394
0.3037390917
0.3037388418
0.3037381066
0.30373641
0.3037341496
0.3037330357
0.3037328732
0.303732756
0.3037323798
0.3037314227
0.3037298251
0.3037284255
0.3037280288
0.3037278356
0.303727465
0.303726446
0.3037244831
0.303722819
0.3037225387
0.3037224771
0.3037223937
0.3037220882
0.3037212503
0.3037199295
0.3037189046
0.3037185639
0.3037184062
0.3037181501
0.303717541
0.303716324
0.3037147858
0.3037140869
0.3037139567
0.3037139623
0.3037138767
0.3037136126
0.3037131433
0.3037124508
0.3037115588
0.3037105639
0.3037096233
0.3037089113
0.3037084739
0.3037081918
0.303707931
0.3037076111
0.3037072151
0.3037068054
0.3037064466
0.3037061082
0.3037057114
0.3037052399
0.3037048181
0.3037045511
0.3037043288
0.3037039697
0.303703268
0.3037022705
0.3037016924
0.303701619
0.3037015572
0.3037013727
0.3037008948
0.3037000188
0.3036991257
0.3036989157
0.3036988779
0.3036988707
0.3036988162
0.303698665
0.3036983375
0.3036977822
0.3036971292
0.3036966361
0.3036964187
0.3036963519
0.303696293
0.3036961772
0.3036959545
0.3036955561
0.3036949368
0.3036942149
0.3036936741
0.3036934433
0.3036933507
0.3036932729
0.3036931454
0.303692909
0.3036925176
0.3036920342
0.3036917131
0.3036916276
0.3036915687
0.3036914502
0.3036911914
0.303690682
0.3036899798
0.3036895157
0.3036894314
0.3036894076
0.3036893846
0.3036893209
0.3036891599
0.3036888113
0.3036882303
0.30368756
0.3036872026
0.3036871432
0.3036871661
0.3036872097
0.3036872274
0.3036872015
0.303687019
0.3036865848
0.3036858914
0.3036851946
0.3036849235
0.3036848765
0.3036848446
0.3036847789
0.3036846658
0.3036845025
0.3036843146
0.3036841217
0.303683917
0.3036837017
0.3036835004
0.3036833248
0.3036831508
0.3036829267
0.3036825987
0.3036821988
0.3036819521
0.3036818981
0.3036818972
0.3036818877
0.3036818508
0.3036816186
0.303681073
0.3036803762
0.3036800025
0.303679938
0.3036799629
0.3036800181
0.3036800551
0.3036800287
0.3036798272
0.3036793871
0.3036788853
0.3036787096
0.3036786805
0.3036787231
0.3036787094
0.3036786008
0.3036783185
0.3036778553
0.3036774963
0.3036774267
0.30367744
0.3036774374
0.3036774139
0.303677256
0.3036768857
0.3036763433
0.3036759749
0.3036759069
0.303675928
0.3036759868
0.3036760453
0.3036760251
0.303675896
0.3036755888
0.3036751233
0.3036748129
0.3036747525
0.3036747192
0.3036746701
0.3036745486
0.3036743877
0.3036742595
0.3036741475
0.3036739968
0.303673747
0.303673384
0.3036730787
0.303672991
0.3036729477
0.3036729158
0.3036728941
0.3036727703
0.3036724708
0.3036723238
0.3036723144
0.3036723887
0.3036724314
0.303672373
0.3036720886
0.3036716949
0.3036715927
0.3036715939
0.3036715822
0.3036715403
0.303671263
0.3036708122
0.3036706829
0.3036706456
0.303670659
0.3036706262
0.3036703512
0.3036699111
0.3036697681
0.3036697665
0.3036698029
0.303669793
0.303669718
0.3036694662
0.3036691369
0.3036690598
0.3036690243
0.3036689889
0.3036689795
0.3036688778
0.3036686125
0.3036684643
0.3036684108
0.3036684155
0.3036683285
0.3036680592
0.3036678471
0.3036677966
0.3036678245
0.3036677715
0.30366748
0.3036671967
0.3036671687
0.3036672549
0.3036672276
0.3036670264
0.3036668339
0.3036667893
0.3036668309
0.3036667939
0.3036665029
0.3036661941
0.3036661606
0.3036662436
0.3036662385
0.3036662025
0.3036659485
0.30366559
0.303665444
0.3036653646
0.3036652715
0.3036651838
0.3036651454
0.3036652134
0.3036652571
0.3036652193
0.303664939
0.3036645661
0.3036644627
0.3036644843
0.303664511
0.3036644974
0.3036643985
0.3036641034
0.3036639358
0.3036639491
0.3036640729
0.3036641846
0.3036641424
0.3036637959
0.303663307
0.3036631713
0.3036631835
0.3036632267
0.3036632324
0.3036631944
0.3036629123
0.3036627383
0.3036627555
0.3036628783
0.3036629953
0.303662961
0.3036627154
0.3036622776
0.303661942
0.3036618599
0.3036618172
0.3036618603
0.3036618761
0.3036618692
0.3036618534
0.3036618177
0.3036616641
0.3036614816
0.3036613932
0.3036613366
0.3036613496
0.3036612576
0.303660956
0.3036607897
0.303660836
0.3036610055
0.3036610984
0.3036610546
0.3036607432
0.3036603579
0.3036602622
0.3036602205
0.3036602774
0.3036602835
0.3036602612
0.3036602135
0.3036599879
0.3036597148
0.3036596186
0.3036596582
0.3036597661
0.3036598644
0.3036598271
0.3036595564
0.3036591389
0.303658978
0.3036589611
0.3036590755
0.3036592001
0.3036591773
0.3036590639
0.3036588552
0.3036587259
0.3036587481
0.3036587654
0.3036587289
0.3036585046
0.3036582848
0.303658221
0.3036582958
0.3036583357
0.3036583062
0.303658259
0.3036582047
0.3036579985
0.3036576882
0.3036575328
0.3036575093
0.3036576519
0.303657809
0.3036577695
0.3036575319
0.3036571922
0.3036570352
0.3036569768
0.3036570652
0.3036570964
0.3036570642
0.3036569312
0.3036568694
0.3036569783
0.3036570344
0.3036569806
0.3036565955
0.3036563654
0.3036563023
0.3036564026
0.3036564952
0.3036564847
0.303656462
0.3036564231
0.3036563753
0.3036563343
0.303656154
0.3036557708
0.3036555118
0.3036554652
0.3036556688
0.3036558776
0.3036558464
0.3036557016
0.3036553814
0.3036551505
0.3036551537
0.3036552876
0.3036554387
0.303655395
0.3036551464
0.3036548485
0.3036547393
0.303654855
0.3036550016
0.3036549664
0.3036548508
0.3036545087
0.3036543272
0.303654431
0.3036545735
0.303654538
0.3036544335
0.3036541276
0.3036539943
0.3036541628
0.3036543856
0.3036543421
0.3036541129
0.303653819
0.3036536948
0.3036538152
0.303653947
0.3036539068
0.3036537455
0.3036536258
0.3036536622
0.3036536114
0.3036533123
0.3036531696
0.3036533297
0.3036534922
0.3036534275
0.3036529986
0.3036527268
0.3036527597
0.3036529331
0.3036531014
0.3036530562
0.3036529509
0.3036529666
0.3036529265
0.3036527882
0.3036524331
0.3036522191
0.3036522802
0.3036524507
0.3036525702
0.303652519
0.3036522849
0.3036521612
0.3036522764
0.303652253
0.3036521796
0.3036518838
0.3036517622
0.3036519002
0.303651889
0.3036518507
0.3036518029
0.3036518328
0.3036518026
0.3036517232
0.3036514283
0.3036513116
0.3036514499
0.3036514227
0.3036513543
0.3036512201
0.3036512724
0.3036512522
0.3036511928
0.3036510772
0.3036509693
0.3036510598
0.303651013
0.3036509002
0.3036507799
0.3036508609
0.3036508159
0.3036507357
0.303650625
0.3036507276
0.3036506959
0.3036506228
0.3036505245
0.3036502624
0.3036501378
0.3036503056
0.3036503639
0.3036503061
0.3036502105
0.3036500214
0.3036499208
0.3036500921
0.3036500584
0.3036499745
0.3036497796
0.3036496628
0.3036498179
0.3036497743
0.3036496834
0.303649535
0.3036496113
0.303649599
0.3036495426
0.3036494449
0.3036492919
0.3036493849
0.3036493608
0.3036492975
0.3036492041
0.3036490857
0.3036491476
0.3036491332
0.3036490856
0.3036489958
0.3036488745
0.3036489508
0.3036489343
0.3036488925
0.3036488147
0.3036487068
0.3036485732
0.3036486533
0.3036486605
0.3036486339
0.3036485846
0.3036485229
0.3036484524
0.3036483647
0.3036482562
0.3036481344
0.3036481981
0.303648189
0.3036481565
0.3036480914
0.3036480038
0.3036479332
0.3036479685
0.3036479503
0.3036479075
0.3036478417
0.3036477594
0.3036477214
0.3036477388
0.3036477147
0.3036476532
0.3036475677
0.3036475052
0.3036475342
0.3036475094
0.3036474473
0.3036473606
0.3036472888
0.3036473237
0.3036472988
0.303647237
0.3036471536
0.3036470929
0.3036471211
0.3036470947
0.3036470282
0.3036469415
0.303646901
0.3036469147
0.3036468833
0.3036468057
0.303646704
0.3036467232
0.3036467068
0.3036466629
0.3036465886
0.3036465123
0.3036465389
0.3036465109
0.3036464437
0.3036463646
0.3036463563
0.3036463414
0.3036463045
0.3036462388
0.3036461867
0.3036461882
0.303646155
0.3036460842
0.3036460289
0.3036460344
0.3036460005
0.303645927
0.3036458682
0.3036458769
0.3036458426
0.3036457675
0.3036457069
0.3036457212
0.3036456892
0.3036456153
0.3036455442
0.3036455662
0.3036455435
0.3036454892
0.303645424
0.3036453869
0.3036453787
0.3036453364
0.3036452487
0.303645173
0.3036452058
0.3036451812
0.303645117
0.3036450357
0.3036450239
0.3036450192
0.3036449991
0.3036449519
0.3036448849
0.3036448338
0.3036448422
0.303644823
0.3036447758
0.3036447086
0.3036446561
0.3036446663
0.3036446458
0.3036445939
0.3036445228
0.303644477
0.3036444852
0.3036444627
0.3036444056
0.3036443284
0.3036442851
0.303644292
0.3036442686
0.3036442102
0.3036441356
0.3036441159
0.3036441114
0.3036440882
0.3036440318
0.3036439534
0.3036439069
0.3036439182
0.3036439031
0.3036438697
0.3036438209
0.3036437572
0.3036437009
0.3036437075
0.3036436928
0.3036436594
0.3036436069
0.3036435435
0.3036435216
0.3036435146
0.3036434881
0.3036434315
0.3036433638
0.303643344
0.303643332
0.303643301
0.3036432437
0.3036431995
0.3036431956
0.3036431633
0.3036430958
0.3036430435
0.3036430512
0.3036430262
0.3036429633
0.3036428879
0.3036428948
0.3036428798
0.3036428422
0.3036427841
0.3036427327
0.3036427383
0.3036427162
0.3036426623
0.3036425942
0.3036425927
0.3036425772
0.3036425407
0.30364248
0.3036424431
0.303642444
0.303642417
0.3036423522
0.3036422891
0.3036423045
0.3036422881
0.30364225
0.3036421966
0.3036421424
0.3036421258
0.3036420997
0.3036420581
0.3036420155
0.3036419883
0.3036419629
0.30364193
0.3036418899
0.3036418502
0.3036418181
0.3036417898
0.3036417599
0.30364173
0.3036417014
0.3036416671
0.3036416239
0.3036415849
0.3036415616
0.3036415388
0.3036415071
0.3036414711
0.3036414427
0.3036414238
0.3036413927
0.3036413679
0.3036413462
0.3036413219
0.3036412814
0.3036412807
0.3036412557
0.3036412207
0.303641218
0.3036411921
0.3036411823
0.3036411567
0.3036411546
0.303641125
0.303641125
0.3036411036
0.3036410952
0.3036411116
0.3036410841
0.303641088
0.3036410865
0.3036410581
0.3036410612
0.30364106
0.3036410513
0.3036410453
0.303641036
0.3036410284
0.3036410203
0.303641006
0.3036409885
0.3036410025
0.3036409855
0.3036410001
0.3036409915
0.3036410058
0.3036410033
0.3036410182
0.303641018
0.3036410357
0.3036410258
0.303641055
0.303641057
0.303641083
0.3036410803
0.3036410888
0.3036411057
0.3036411284
0.3036411551
0.303641186
0.3036412203
0.3036412446
0.3036412674
0.3036412803
0.3036412907
0.3036412983
0.3036413059
0.3036413151
0.3036413315
0.3036413531
0.3036413757
0.3036413972
0.3036414162
0.3036414322
0.3036414462
0.3036414603
0.3036414767
0.303641497
0.303641521
0.3036415465
0.3036415705
0.3036415906
0.3036416057
0.3036416164
0.3036416257
0.303641638
0.3036416582
0.3036416865
0.3036417155
0.3036417394
0.3036417542
0.3036417607
0.3036417625
0.3036417644
0.3036417724
0.3036417955
0.3036418331
0.3036418673
0.3036418965
0.3036419192
0.3036419349
0.3036419438
0.3036419486
0.3036419538
0.3036419642
0.303641984
0.3036420108
0.303642037
0.3036420597
0.3036420787
0.3036420946
0.3036421091
0.3036421242
0.3036421414
0.3036421594
0.3036421816
0.3036422057
0.3036422291
0.3036422489
0.3036422672
0.3036422822
0.3036422947
0.3036423073
0.303642322
0.3036423397
0.3036423596
0.3036423792
0.3036423961
0.3036424091
0.3036424198
0.3036424325
0.3036424529
0.3036424841
0.3036425192
0.3036425536
0.3036425801
0.303642598
0.3036426085
0.3036426155
0.3036426239
0.3036426383
0.3036426619
0.3036426921
0.3036427227
0.303642747
0.3036427602
0.3036427661
0.3036427713
0.3036427802
0.3036427967
0.3036428216
0.3036428514
0.3036428815
0.3036429081
0.3036429288
0.3036429446
0.3036429582
0.3036429726
0.30364299
0.3036430114
0.3036430361
0.3036430622
0.3036430873
0.3036431088
0.3036431253
0.3036431374
0.3036431479
0.3036431603
0.3036431793
0.3036432077
0.3036432421
0.3036432765
0.3036433037
0.3036433175
0.3036433206
0.3036433217
0.3036433264
0.3036433429
0.303643374
0.3036434131
0.3036434482
0.3036434723
0.3036434843
0.30364349
0.3036434953
0.3036435039
0.3036435197
0.3036435447
0.3036435762
0.3036436089
0.3036436388
0.3036436633
0.3036436833
0.3036437014
0.3036437199
0.30364374
0.3036437618
0.3036437849
0.3036438084
0.3036438315
0.3036438532
0.3036438727
0.30364389
0.3036439061
0.3036439231
0.3036439438
0.3036439699
0.3036440006
0.3036440323
0.3036440603
0.3036440793
0.3036440887
0.3036440938
0.3036441017
0.3036441207
0.303644155
0.3036441944
0.3036442325
0.3036442588
0.3036442732
0.3036442795
0.3036442842
0.3036442923
0.3036443085
0.3036443341
0.3036443646
0.3036443941
0.3036444178
0.3036444355
0.3036444507
0.3036444675
0.3036444885
0.3036445144
0.3036445443
0.3036445761
0.3036446074
0.3036446358
0.3036446587
0.303644675
0.3036446863
0.3036446957
0.3036447078
0.3036447291
0.3036447641
0.3036448049
0.3036448466
0.3036448793
0.3036448967
0.3036448999
0.3036449001
0.3036449047
0.3036449245
0.3036449616
0.3036450029
0.3036450434
0.3036450696
0.3036450792
0.3036450795
0.3036450814
0.3036450925
0.3036451221
0.3036451616
0.3036452077
0.3036452521
0.3036452839
0.3036452942
0.3036452932
0.3036452949
0.3036453055
0.3036453297
0.3036453627
0.3036453972
0.3036454281
0.3036454532
0.3036454739
0.3036454932
0.3036455133
0.3036455358
0.3036455611
0.303645589
0.3036456181
0.303645647
0.3036456738
0.3036456969
0.3036457155
0.3036457306
0.3036457448
0.3036457625
0.3036457894
0.3036458272
0.3036458694
0.3036459131
0.3036459432
0.3036459558
0.3036459573
0.3036459599
0.3036459693
0.3036459935
0.3036460318
0.3036460757
0.3036461248
0.3036461643
0.3036461739
0.3036461724
0.3036461735
0.3036461823
0.3036462063
0.3036462421
0.3036462812
0.3036463163
0.3036463447
0.303646367
0.3036463864
0.3036464062
0.3036464295
0.3036464582
0.3036464921
0.3036465278
0.3036465622
0.3036465922
0.3036466153
0.3036466313
0.303646643
0.3036466547
0.3036466709
0.3036466966
0.3036467333
0.3036467776
0.3036468254
0.303646877
0.303646908
0.3036469073
0.3036469064
0.3036469106
0.3036469302
0.3036469685
0.3036470147
0.3036470679
0.3036471011
0.3036471012
0.3036471002
0.3036471037
0.3036471224
0.3036471615
0.3036472104
0.3036472688
0.3036473252
0.3036473601
0.3036473582
0.3036473567
0.30364736
0.3036473751
0.3036474062
0.3036474446
0.3036474841
0.3036475194
0.3036475483
0.3036475728
0.3036475954
0.3036476172
0.3036476393
0.3036476622
0.3036476876
0.3036477189
0.3036477582
0.3036478052
0.3036478571
0.3036478966
0.3036479012