/*--------------------------------*- C++ -*----------------------------------*\
| =========                 |                                                 |
| \\      /  F ield         | OpenFOAM: The Open Source CFD Toolbox           |
|  \\    /   O peration     | Version:  v1812                                 |
|   \\  /    A nd           | Web:      www.OpenFOAM.com                      |
|    \\/     M anipulation  |                                                 |
\*---------------------------------------------------------------------------*/
FoamFile
{
    version     2.0;
    format      ascii;
    class       surfaceScalarField;
    location    "0.2";
    object      phi;
}
// * * * * * * * * * * * * * * * * * * * * * * * * * * * * * * * * * * * * * //

dimensions      [1 0 -1 0 0 0 0];
oriented        oriented;


internalField   nonuniform List<scalar> 
3999
(
4.440892099e-16
-8.881784197e-16
-2.220446049e-15
-2.664535259e-15
-5.329070518e-15
-4.884981308e-15
-5.329070518e-15
-5.773159728e-15
-4.440892099e-15
-3.996802889e-15
-4.440892099e-16
-1.776356839e-15
-2.664535259e-15
-1.776356839e-15
-2.220446049e-15
-1.33226763e-15
-8.881784197e-16
4.440892099e-16
-1.33226763e-15
-2.220446049e-15
-4.884981308e-15
-1.776356839e-15
-8.881784197e-16
3.108624469e-15
4.884981308e-15
6.217248938e-15
7.105427358e-15
5.329070518e-15
6.661338148e-15
7.549516567e-15
7.993605777e-15
1.154631946e-14
1.110223025e-14
1.065814104e-14
1.065814104e-14
1.199040867e-14
1.376676551e-14
1.154631946e-14
1.154631946e-14
1.243449788e-14
1.33226763e-14
1.065814104e-14
1.065814104e-14
1.110223025e-14
1.065814104e-14
7.549516567e-15
2.664535259e-15
-8.881784197e-16
-1.33226763e-15
-4.440892099e-16
-3.108624469e-15
-2.664535259e-15
-1.776356839e-15
0
8.881784197e-16
1.776356839e-15
8.881784197e-16
4.440892099e-16
0
-8.881784197e-16
-8.881784197e-16
-1.776356839e-15
-2.664535259e-15
-3.552713679e-15
-4.884981308e-15
-7.105427358e-15
-7.993605777e-15
-6.661338148e-15
-5.773159728e-15
-7.549516567e-15
-8.881784197e-15
-1.065814104e-14
-1.065814104e-14
-1.154631946e-14
-1.598721155e-14
-1.598721155e-14
-1.865174681e-14
-1.953992523e-14
-2.042810365e-14
-2.220446049e-14
-2.176037128e-14
-2.176037128e-14
-1.998401444e-14
-1.110223025e-14
-5.329070518e-15
-3.108624469e-15
-1.33226763e-15
4.440892099e-15
7.549516567e-15
8.881784197e-15
1.065814104e-14
1.021405183e-14
9.769962617e-15
1.110223025e-14
7.993605777e-15
9.325873407e-15
9.325873407e-15
9.769962617e-15
1.110223025e-14
1.021405183e-14
1.33226763e-14
1.687538997e-14
1.953992523e-14
1.687538997e-14
1.243449788e-14
8.437694987e-15
2.664535259e-15
-3.552713679e-15
-4.440892099e-15
-2.664535259e-15
-3.108624469e-15
-2.220446049e-15
-3.552713679e-15
-2.220446049e-15
-8.881784197e-16
1.33226763e-15
-3.996802889e-15
-7.105427358e-15
-1.243449788e-14
-1.865174681e-14
-1.776356839e-14
-1.82076576e-14
-1.82076576e-14
-1.953992523e-14
-2.220446049e-14
-2.353672812e-14
-2.309263891e-14
-2.309263891e-14
-2.087219286e-14
-2.042810365e-14
-2.087219286e-14
-1.82076576e-14
-1.953992523e-14
-1.865174681e-14
-1.953992523e-14
-1.909583602e-14
-1.998401444e-14
-1.998401444e-14
-1.865174681e-14
-1.998401444e-14
-1.953992523e-14
-1.953992523e-14
-1.953992523e-14
-1.776356839e-14
-1.776356839e-14
-1.776356839e-14
-1.687538997e-14
-1.776356839e-14
-1.554312234e-14
-1.598721155e-14
-1.287858709e-14
-1.110223025e-14
-8.437694987e-15
-5.773159728e-15
-5.329070518e-15
-3.108624469e-15
-3.552713679e-15
-3.996802889e-15
-1.776356839e-15
-1.33226763e-15
-3.996802889e-15
-2.220446049e-15
-2.664535259e-15
-3.108624469e-15
-2.664535259e-15
-3.108624469e-15
-3.552713679e-15
-4.884981308e-15
-4.440892099e-16
8.881784197e-16
3.108624469e-15
1.33226763e-15
2.220446049e-15
3.108624469e-15
-1.33226763e-15
-4.884981308e-15
-8.881784197e-15
-7.993605777e-15
-7.549516567e-15
-5.773159728e-15
-5.773159728e-15
-6.661338148e-15
-4.440892099e-15
-3.108624469e-15
-3.552713679e-15
-3.552713679e-15
-4.440892099e-15
-3.996802889e-15
-6.217248938e-15
-5.773159728e-15
-6.661338148e-15
-7.105427358e-15
-2.220446049e-15
-3.996802889e-15
8.881784197e-16
1.33226763e-15
3.552713679e-15
4.440892099e-15
4.440892099e-15
4.440892099e-15
4.440892099e-16
-3.552713679e-15
-3.552713679e-15
-2.220446049e-15
0
1.33226763e-15
5.773159728e-15
1.199040867e-14
1.509903313e-14
1.687538997e-14
1.953992523e-14
2.26485497e-14
2.442490654e-14
2.486899575e-14
2.797762022e-14
2.886579864e-14
3.15303339e-14
3.108624469e-14
3.064215548e-14
3.15303339e-14
3.108624469e-14
3.197442311e-14
2.975397706e-14
3.064215548e-14
3.064215548e-14
2.886579864e-14
2.620126338e-14
1.953992523e-14
1.643130076e-14
1.287858709e-14
1.110223025e-14
8.437694987e-15
6.217248938e-15
4.440892099e-15
2.220446049e-15
1.776356839e-15
8.881784197e-16
4.884981308e-15
1.776356839e-15
8.881784197e-16
1.33226763e-15
-8.881784197e-16
-1.776356839e-15
-1.33226763e-15
-8.881784197e-16
-3.108624469e-15
-3.552713679e-15
-2.664535259e-15
-1.776356839e-15
-3.108624469e-15
-2.664535259e-15
-4.440892099e-16
3.996802889e-15
5.329070518e-15
8.881784197e-15
1.154631946e-14
1.199040867e-14
1.33226763e-14
1.509903313e-14
1.509903313e-14
1.776356839e-14
1.776356839e-14
1.687538997e-14
1.598721155e-14
1.554312234e-14
1.731947918e-14
1.865174681e-14
1.776356839e-14
1.998401444e-14
2.042810365e-14
2.042810365e-14
1.865174681e-14
1.82076576e-14
1.731947918e-14
1.643130076e-14
1.421085472e-14
1.554312234e-14
1.376676551e-14
1.199040867e-14
1.243449788e-14
1.598721155e-14
1.731947918e-14
1.776356839e-14
1.509903313e-14
1.643130076e-14
1.687538997e-14
1.687538997e-14
1.643130076e-14
1.687538997e-14
1.82076576e-14
1.554312234e-14
1.776356839e-14
1.731947918e-14
1.731947918e-14
1.376676551e-14
8.881784197e-15
4.884981308e-15
5.329070518e-15
5.329070518e-15
3.996802889e-15
2.664535259e-15
1.33226763e-15
2.220446049e-15
4.440892099e-16
1.776356839e-15
-8.881784197e-16
-2.220446049e-15
-2.220446049e-15
-6.661338148e-15
-5.329070518e-15
-6.661338148e-15
-5.773159728e-15
-7.105427358e-15
-6.661338148e-15
-7.993605777e-15
-8.881784197e-15
-7.993605777e-15
-6.661338148e-15
-6.217248938e-15
-2.220446049e-15
0
3.108624469e-15
4.440892099e-15
7.105427358e-15
9.325873407e-15
1.110223025e-14
1.021405183e-14
1.110223025e-14
9.769962617e-15
1.110223025e-14
1.154631946e-14
9.769962617e-15
1.199040867e-14
1.199040867e-14
1.110223025e-14
1.065814104e-14
1.065814104e-14
9.769962617e-15
1.065814104e-14
1.065814104e-14
8.437694987e-15
8.881784197e-15
8.437694987e-15
1.021405183e-14
1.110223025e-14
1.243449788e-14
1.376676551e-14
1.33226763e-14
1.376676551e-14
1.421085472e-14
1.376676551e-14
1.465494393e-14
1.287858709e-14
1.33226763e-14
1.376676551e-14
1.154631946e-14
1.154631946e-14
1.110223025e-14
1.199040867e-14
1.199040867e-14
1.154631946e-14
1.243449788e-14
1.33226763e-14
1.243449788e-14
1.199040867e-14
1.243449788e-14
1.021405183e-14
1.021405183e-14
9.769962617e-15
1.021405183e-14
1.065814104e-14
1.243449788e-14
1.154631946e-14
8.437694987e-15
8.437694987e-15
8.881784197e-15
7.549516567e-15
8.437694987e-15
4.440892099e-15
1.776356839e-15
-1.33226763e-15
-1.776356839e-15
-2.664535259e-15
-3.552713679e-15
-3.996802889e-15
-4.440892099e-15
-2.664535259e-15
-5.773159728e-15
-5.329070518e-15
-6.217248938e-15
-6.217248938e-15
-4.884981308e-15
-4.440892099e-15
-5.329070518e-15
-4.884981308e-15
-4.440892099e-15
-3.996802889e-15
-4.440892099e-15
-6.217248938e-15
-5.773159728e-15
-7.105427358e-15
-7.993605777e-15
-7.549516567e-15
-4.440892099e-15
-3.996802889e-15
-3.552713679e-15
-3.108624469e-15
-3.108624469e-15
-2.220446049e-15
8.881784197e-16
3.552713679e-15
5.773159728e-15
8.437694987e-15
8.881784197e-15
8.881784197e-15
8.881784197e-15
8.437694987e-15
7.549516567e-15
7.549516567e-15
8.881784197e-15
8.881784197e-15
8.881784197e-15
8.881784197e-15
8.437694987e-15
8.437694987e-15
8.881784197e-15
1.021405183e-14
1.065814104e-14
1.110223025e-14
8.881784197e-15
8.881784197e-15
8.881784197e-15
8.881784197e-15
8.881784197e-15
1.065814104e-14
1.110223025e-14
1.33226763e-14
1.421085472e-14
1.33226763e-14
1.154631946e-14
1.421085472e-14
1.199040867e-14
1.509903313e-14
1.154631946e-14
1.421085472e-14
1.421085472e-14
1.598721155e-14
1.199040867e-14
6.217248938e-15
4.440892099e-15
6.217248938e-15
3.108624469e-15
-4.440892099e-16
-3.108624469e-15
-6.217248938e-15
-7.993605777e-15
-9.769962617e-15
-7.993605777e-15
-1.065814104e-14
-1.243449788e-14
-1.199040867e-14
-1.421085472e-14
-1.33226763e-14
-1.287858709e-14
-1.421085472e-14
-1.554312234e-14
-1.421085472e-14
-1.154631946e-14
-8.881784197e-15
-9.769962617e-15
-7.993605777e-15
-5.773159728e-15
-4.440892099e-15
-4.440892099e-15
-3.552713679e-15
-2.220446049e-15
-2.664535259e-15
-3.552713679e-15
-1.776356839e-15
-2.220446049e-15
-3.108624469e-15
0
0
0
-1.776356839e-15
4.440892099e-16
-8.881784197e-16
-3.552713679e-15
-8.881784197e-16
-4.440892099e-16
-4.440892099e-16
-5.329070518e-15
-5.773159728e-15
-4.884981308e-15
-3.552713679e-15
-2.220446049e-15
-3.552713679e-15
-3.552713679e-15
-3.552713679e-15
-2.664535259e-15
-4.440892099e-16
4.440892099e-15
2.664535259e-15
5.773159728e-15
8.881784197e-15
8.881784197e-15
9.325873407e-15
1.421085472e-14
1.554312234e-14
1.287858709e-14
1.376676551e-14
1.243449788e-14
1.199040867e-14
1.243449788e-14
8.881784197e-15
3.552713679e-15
-1.33226763e-15
-3.552713679e-15
-4.884981308e-15
-7.549516567e-15
-6.661338148e-15
-3.996802889e-15
-5.773159728e-15
-5.329070518e-15
-3.996802889e-15
-3.996802889e-15
-3.996802889e-15
-5.329070518e-15
-4.440892099e-15
-3.552713679e-15
-8.881784197e-16
-4.440892099e-16
-1.776356839e-15
-3.552713679e-15
-3.108624469e-15
-3.996802889e-15
-2.220446049e-15
-2.664535259e-15
-2.220446049e-15
-2.220446049e-15
-4.884981308e-15
-4.440892099e-15
-2.664535259e-15
-1.776356839e-15
8.881784197e-16
4.440892099e-15
6.217248938e-15
7.993605777e-15
1.287858709e-14
1.554312234e-14
1.554312234e-14
1.554312234e-14
1.598721155e-14
1.509903313e-14
1.643130076e-14
1.598721155e-14
1.598721155e-14
1.465494393e-14
1.509903313e-14
1.465494393e-14
1.243449788e-14
1.465494393e-14
1.731947918e-14
1.687538997e-14
1.82076576e-14
1.731947918e-14
1.643130076e-14
1.376676551e-14
1.243449788e-14
1.376676551e-14
1.509903313e-14
1.33226763e-14
1.199040867e-14
1.154631946e-14
1.199040867e-14
1.065814104e-14
9.769962617e-15
6.217248938e-15
5.329070518e-15
2.664535259e-15
8.881784197e-16
-4.440892099e-16
-3.552713679e-15
-5.773159728e-15
-5.329070518e-15
-4.440892099e-15
-4.440892099e-15
-5.773159728e-15
-4.440892099e-15
-3.552713679e-15
-2.664535259e-15
-1.33226763e-15
-1.776356839e-15
-2.664535259e-15
-3.108624469e-15
-6.217248938e-15
-5.329070518e-15
-3.996802889e-15
-5.329070518e-15
-6.217248938e-15
-6.217248938e-15
-6.217248938e-15
-6.217248938e-15
-5.329070518e-15
-6.661338148e-15
-4.440892099e-15
-2.220446049e-15
-1.776356839e-15
-3.108624469e-15
-2.664535259e-15
-3.552713679e-15
-3.108624469e-15
-1.33226763e-15
0
3.552713679e-15
3.996802889e-15
7.105427358e-15
6.661338148e-15
7.993605777e-15
7.993605777e-15
1.154631946e-14
1.154631946e-14
9.325873407e-15
1.154631946e-14
1.199040867e-14
1.065814104e-14
1.154631946e-14
1.287858709e-14
1.199040867e-14
1.287858709e-14
1.33226763e-14
1.287858709e-14
1.33226763e-14
1.243449788e-14
1.243449788e-14
1.376676551e-14
1.33226763e-14
1.33226763e-14
1.199040867e-14
1.199040867e-14
1.154631946e-14
1.065814104e-14
1.065814104e-14
1.154631946e-14
9.325873407e-15
1.021405183e-14
7.549516567e-15
4.440892099e-15
4.440892099e-16
-4.440892099e-16
-4.440892099e-16
-3.108624469e-15
-3.996802889e-15
-6.217248938e-15
-5.773159728e-15
-6.217248938e-15
-6.217248938e-15
-6.217248938e-15
-6.217248938e-15
-3.552713679e-15
-3.552713679e-15
-1.776356839e-15
-1.33226763e-15
-8.881784197e-16
4.440892099e-16
0
2.220446049e-15
3.108624469e-15
5.773159728e-15
7.549516567e-15
5.773159728e-15
7.105427358e-15
1.021405183e-14
1.021405183e-14
1.065814104e-14
9.325873407e-15
8.881784197e-15
1.065814104e-14
1.154631946e-14
1.199040867e-14
1.376676551e-14
1.154631946e-14
1.021405183e-14
9.325873407e-15
8.881784197e-15
7.549516567e-15
6.217248938e-15
7.993605777e-15
7.993605777e-15
4.440892099e-15
1.776356839e-15
-4.440892099e-15
-6.217248938e-15
-8.437694987e-15
-9.769962617e-15
-1.33226763e-14
-1.82076576e-14
-2.087219286e-14
-1.998401444e-14
-1.82076576e-14
-1.953992523e-14
-2.220446049e-14
-2.042810365e-14
-2.26485497e-14
-2.398081733e-14
-2.26485497e-14
-2.176037128e-14
-2.176037128e-14
-2.309263891e-14
-2.398081733e-14
-2.486899575e-14
-2.442490654e-14
-2.442490654e-14
-2.042810365e-14
-2.042810365e-14
-1.865174681e-14
-1.643130076e-14
-1.33226763e-14
-1.154631946e-14
-7.549516567e-15
-3.996802889e-15
4.440892099e-16
1.776356839e-15
3.108624469e-15
2.664535259e-15
1.776356839e-15
1.33226763e-15
8.881784197e-16
4.440892099e-15
6.217248938e-15
6.217248938e-15
7.105427358e-15
7.549516567e-15
8.437694987e-15
8.437694987e-15
9.325873407e-15
1.199040867e-14
1.154631946e-14
1.110223025e-14
1.287858709e-14
9.325873407e-15
7.993605777e-15
5.773159728e-15
7.993605777e-15
7.993605777e-15
9.325873407e-15
9.325873407e-15
7.993605777e-15
7.993605777e-15
9.325873407e-15
8.437694987e-15
6.217248938e-15
3.108624469e-15
1.33226763e-15
2.664535259e-15
1.33226763e-15
3.996802889e-15
2.664535259e-15
2.664535259e-15
2.220446049e-15
4.440892099e-16
3.108624469e-15
-1.776356839e-15
-4.440892099e-15
-4.884981308e-15
-6.661338148e-15
-6.661338148e-15
-6.217248938e-15
-1.776356839e-15
-3.108624469e-15
-4.440892099e-16
-8.881784197e-16
4.440892099e-16
4.884981308e-15
6.217248938e-15
9.325873407e-15
8.881784197e-15
7.549516567e-15
6.661338148e-15
9.769962617e-15
9.325873407e-15
9.769962617e-15
9.769962617e-15
8.437694987e-15
6.661338148e-15
8.881784197e-16
4.440892099e-16
2.220446049e-15
2.220446049e-15
1.776356839e-15
3.996802889e-15
5.773159728e-15
5.329070518e-15
7.105427358e-15
7.993605777e-15
9.325873407e-15
7.993605777e-15
7.549516567e-15
6.217248938e-15
5.773159728e-15
6.661338148e-15
6.661338148e-15
6.217248938e-15
7.105427358e-15
6.217248938e-15
4.440892099e-15
1.776356839e-15
1.776356839e-15
1.33226763e-15
3.552713679e-15
2.664535259e-15
8.881784197e-16
-8.881784197e-16
-4.440892099e-15
-5.329070518e-15
-6.217248938e-15
-7.993605777e-15
-1.110223025e-14
-9.325873407e-15
-1.199040867e-14
-1.021405183e-14
-1.021405183e-14
-1.154631946e-14
-1.110223025e-14
-1.243449788e-14
-1.421085472e-14
-1.421085472e-14
-1.376676551e-14
-1.287858709e-14
-1.243449788e-14
-1.243449788e-14
-1.154631946e-14
-1.110223025e-14
-6.661338148e-15
-7.105427358e-15
-8.881784197e-15
-9.325873407e-15
-6.661338148e-15
-3.108624469e-15
-8.881784197e-16
3.108624469e-15
3.996802889e-15
5.329070518e-15
4.440892099e-15
5.773159728e-15
2.664535259e-15
3.996802889e-15
5.329070518e-15
4.440892099e-15
4.884981308e-15
5.329070518e-15
7.549516567e-15
1.110223025e-14
1.199040867e-14
1.243449788e-14
1.243449788e-14
1.554312234e-14
1.554312234e-14
1.376676551e-14
1.421085472e-14
1.154631946e-14
1.154631946e-14
7.993605777e-15
5.773159728e-15
2.220446049e-15
-2.220446049e-15
-2.220446049e-15
-2.220446049e-15
8.881784197e-16
-4.440892099e-16
0
2.220446049e-15
-8.881784197e-16
-3.108624469e-15
-4.440892099e-15
-4.884981308e-15
-6.661338148e-15
-9.769962617e-15
-1.154631946e-14
-1.065814104e-14
-9.769962617e-15
-9.325873407e-15
-9.769962617e-15
-7.993605777e-15
-7.105427358e-15
-7.993605777e-15
-5.329070518e-15
-5.329070518e-15
-4.440892099e-15
-2.664535259e-15
0
8.881784197e-16
4.440892099e-15
5.329070518e-15
5.773159728e-15
4.440892099e-15
4.884981308e-15
4.884981308e-15
3.552713679e-15
3.108624469e-15
3.108624469e-15
-8.881784197e-16
-5.773159728e-15
-9.769962617e-15
-1.243449788e-14
-1.465494393e-14
-9.769962617e-15
-7.549516567e-15
-7.549516567e-15
-6.661338148e-15
-6.661338148e-15
-7.993605777e-15
-7.549516567e-15
-7.549516567e-15
-7.993605777e-15
-9.325873407e-15
-8.437694987e-15
-1.021405183e-14
-9.769962617e-15
-1.199040867e-14
-1.243449788e-14
-1.33226763e-14
-1.110223025e-14
-1.199040867e-14
-1.154631946e-14
-1.287858709e-14
-1.243449788e-14
-9.769962617e-15
-7.993605777e-15
-7.105427358e-15
-6.661338148e-15
-4.884981308e-15
-5.329070518e-15
-2.664535259e-15
-8.881784197e-16
-1.33226763e-15
0
3.108624469e-15
3.552713679e-15
3.552713679e-15
7.549516567e-15
1.199040867e-14
1.865174681e-14
3.108624469e-14
4.929390229e-14
8.260059303e-14
1.381117443e-13
2.287059431e-13
3.792521852e-13
6.310507672e-13
1.033395591e-12
1.687538997e-12
2.743139049e-12
4.429345779e-12
7.120526391e-12
1.138200645e-11
1.809485894e-11
2.861133552e-11
4.498934558e-11
7.036149441e-11
1.094462299e-10
1.693152285e-10
2.605116123e-10
3.98655331e-10
6.067408798e-10
9.184395466e-10
1.382736592e-09
2.070496663e-09
3.083596489e-09
4.567650258e-09
6.729526714e-09
9.861371719e-09
1.437328079e-08
2.083747885e-08
3.004764881e-08
4.309802426e-08
6.148817366e-08
8.726081147e-08
1.23181803e-07
1.729736914e-07
2.416164224e-07
3.357319591e-07
4.640725741e-07
6.381363007e-07
8.729369201e-07
1.187960125e-06
1.608341847e-06
2.166309201e-06
2.902928717e-06
3.870210435e-06
5.133619529e-06
6.775049173e-06
8.896309072e-06
1.162318252e-05
1.511010126e-05
1.954548063e-05
2.515774738e-05
3.222207877e-05
4.10678534e-05
5.20867921e-05
6.574174041e-05
8.257601364e-05
0.0001032231913
0.0001284172107
0.0001590025714
0.0001959444237
0.0002403382769
0.0002934190329
0.0003565690201
0.0004313246899
0.0005193816237
0.0006225975112
0.0007429927739
0.0008827485451
0.001044201767
0.001229837233
0.001442276469
0.00168426346
0.001958647298
0.002268361933
0.002616403333
0.003005804407
0.003439608161
0.003920839615
0.004452477053
0.005037423211
0.005678477017
0.006378306484
0.0071394233
0.007964159641
0.00885464762
0.009812801737
0.01084030457
0.01193859587
0.01310886515
0.01435204769
0.0156688239
0.01705962181
0.01852462245
0.02006376793
0.02167677164
0.02336313055
0.02512213892
0.02695290338
0.02885435872
0.03082528438
0.03286432105
0.03496998735
0.03714069616
0.0393747706
0.04167045925
0.04402595075
0.04643938741
0.04890887797
0.05143250935
0.05400835738
0.05663449655
0.05930900871
0.06202999087
0.06479556197
0.06760386888
0.07045309145
0.07334144683
0.07626719312
0.07922863221
0.08222411219
0.0852520291
0.08831082822
0.09139900494
0.09451510523
0.09765772577
0.1008255138
0.1040171667
0.1072314314
0.1104671035
0.1137230263
0.1169980899
0.1202912299
0.1236014258
0.1269277004
0.1302691177
0.1336247821
0.1369938365
0.1403754612
0.1437688725
0.147173321
0.1505880906
0.1540124968
0.1574458858
0.1608876328
0.1643371408
0.1677938398
0.1712571851
0.1747266563
0.1782017565
0.1816820109
0.1851669658
0.188656188
0.1921492634
0.1956457964
0.1991454087
0.2026477392
0.2061524422
0.2096591877
0.2131676599
0.2166775567
0.2201885895
0.223700482
0.2272129699
0.2307258003
0.2342387312
0.2377515309
0.2412639776
0.2447758589
0.2482869714
0.2517971202
0.2553061186
0.2588137877
0.262319956
0.2658244592
0.2693271397
0.2728278462
0.2763264339
0.2798227636
0.2833167018
0.2868081206
0.290296897
0.293782913
0.2972660552
0.3007462148
0.3042232873
0.3076971723
0.3111677733
0.3146349975
0.3180987559
0.3215589627
0.3250155356
0.3284683953
0.3319174658
0.3353626738
0.3388039487
0.3422412228
0.3456744307
0.3491035099
0.3525283997
0.3559490421
0.359365381
0.3627773626
0.366184935
0.3695880481
0.3729866538
0.3763807059
0.3797701596
0.383154972
0.3865351016
0.3899105086
0.3932811545
0.3966470023
0.4000080163
0.4033641622
0.4067154068
0.4100617183
0.4134030658
0.4167394199
0.4200707519
0.4233970344
0.4267182409
0.4300343459
0.4333453247
0.4366511539
0.4399518105
0.4432472725
0.4465375189
0.4498225293
0.4531022841
0.4563767643
0.459645952
0.4629098294
0.4661683799
0.4694215873
0.472669436
0.4759119109
0.4791489978
0.4823806828
0.4856069526
0.4888277945
0.4920431961
0.4952531457
0.498457632
0.5016566442
0.5048501718
0.5080382049
0.511220734
0.5143977499
0.5175692438
0.5207352075
0.5238956328
0.5270505123
0.5301998384
0.5333436044
0.5364818036
0.5396144296
0.5427414765
0.5458629385
0.5489788103
0.5520890866
0.5551937627
0.5582928338
0.5613862958
0.5644741445
0.5675563759
0.5706329867
0.5737039732
0.5767693325
0.5798290615
0.5828831575
0.585931618
0.5889744406
0.5920116233
0.595043164
0.5980690611
0.6010893129
0.604103918
0.6071128752
0.6101161833
0.6131138416
0.6161058492
0.6190922056
0.6220729101
0.6250479627
0.628017363
0.630981111
0.6339392068
0.6368916507
0.639838443
0.6427795842
0.6457150748
0.6486449155
0.6515691073
0.654487651
0.6574005477
0.6603077984
0.6632094046
0.6661053674
0.6689956884
0.6718803691
0.6747594112
0.6776328164
0.6805005864
0.6833627232
0.6862192289
0.6890701053
0.6919153548
0.6947549795
0.6975889818
0.700417364
0.7032401286
0.706057278
0.708868815
0.7116747421
0.7144750621
0.7172697778
0.720058892
0.7228424076
0.7256203278
0.7283926553
0.7311593935
0.7339205453
0.7366761141
0.7394261031
0.7421705156
0.7449093549
0.7476426245
0.7503703279
0.7530924685
0.7558090499
0.7585200757
0.7612255496
0.7639254753
0.7666198564
0.7693086968
0.7719920003
0.7746697707
0.777342012
0.780008728
0.7826699228
0.7853256003
0.7879757646
0.7906204198
0.79325957
0.7958932193
0.798521372
0.8011440321
0.8037612041
0.806372892
0.8089791003
0.8115798333
0.8141750953
0.8167648908
0.8193492241
0.8219280996
0.824501522
0.8270694955
0.8296320248
0.8321891145
0.834740769
0.837286993
0.839827791
0.8423631678
0.844893128
0.8474176762
0.8499368171
0.8524505556
0.8549588963
0.8574618439
0.8599594033
0.8624515793
0.8649383767
0.8674198003
0.8698958549
0.8723665455
0.8748318769
0.8772918541
0.8797464819
0.8821957653
0.8846397092
0.8870783186
0.8895115986
0.891939554
0.8943621899
0.8967795113
0.8991915233
0.9015982308
0.9039996391
0.9063957531
0.9087865779
0.9111721186
0.9135523804
0.9159273684
0.9182970876
0.9206615433
0.9230207406
0.9253746847
0.9277233807
0.9300668339
0.9324050494
0.9347380324
0.9370657882
0.939388322
0.9417056389
0.9440177444
0.9463246435
0.9486263416
0.9509228439
0.9532141558
0.9555002824
0.9577812291
0.9600570012
0.962327604
0.9645930428
0.9668533229
0.9691084496
0.9713584283
0.9736032644
0.975842963
0.9780775297
0.9803069698
0.9825312886
0.9847504914
0.9869645838
0.989173571
0.9913774584
0.9935762514
0.9957699554
0.9979585759
1.000142118
1.002320588
1.00449399
1.00666233
1.008825613
1.010983846
1.013137033
1.015285179
1.017428291
1.019566373
1.021699432
1.023827471
1.025950498
1.028068517
1.030181535
1.032289555
1.034392584
1.036490627
1.03858369
1.040671779
1.042754897
1.044833052
1.046906249
1.048974492
1.051037788
1.053096142
1.05514956
1.057198046
1.059241607
1.061280248
1.063313974
1.065342791
1.067366705
1.06938572
1.071399843
1.073409079
1.075413433
1.077412911
1.079407518
1.08139726
1.083382143
1.085362171
1.087337351
1.089307687
1.091273186
1.093233853
1.095189693
1.097140712
1.099086915
1.101028308
1.102964897
1.104896686
1.106823682
1.108745889
1.110663314
1.112575962
1.114483838
1.116386948
1.118285298
1.120178892
1.122067737
1.123951837
1.125831199
1.127705828
1.129575729
1.131440908
1.13330137
1.135157122
1.137008167
1.138854513
1.140696163
1.142533125
1.144365403
1.146193003
1.14801593
1.14983419
1.151647788
1.15345673
1.155261021
1.157060667
1.158855673
1.160646045
1.162431788
1.164212908
1.16598941
1.167761299
1.169528582
1.171291263
1.173049348
1.174802843
1.176551752
1.178296083
1.180035839
1.181771026
1.183501651
1.185227717
1.186949232
1.188666199
1.190378625
1.192086516
1.193789876
1.195488711
1.197183027
1.198872828
1.200558121
1.20223891
1.203915202
1.205587002
1.207254315
1.208917146
1.210575501
1.212229386
1.213878806
1.215523766
1.217164271
1.218800328
1.220431941
1.222059116
1.223681859
1.225300174
1.226914068
1.228523545
1.230128611
1.231729272
1.233325532
1.234917398
1.236504874
1.238087967
1.23966668
1.241241021
1.242810993
1.244376604
1.245937857
1.247494758
1.249047313
1.250595527
1.252139406
1.253678954
1.255214178
1.256745082
1.258271672
1.259793953
1.261311931
1.262825611
1.264334998
1.265840098
1.267340915
1.268837456
1.270329726
1.27181773
1.273301473
1.274780961
1.276256198
1.277727192
1.279193945
1.280656465
1.282114756
1.283568823
1.285018673
1.286464309
1.287905739
1.289342965
1.290775996
1.292204834
1.293629486
1.295049957
1.296466253
1.297878378
1.299286337
1.300690137
1.302089783
1.303485279
1.304876631
1.306263844
1.307646923
1.309025874
1.310400703
1.311771413
1.313138011
1.314500502
1.31585889
1.317213182
1.318563382
1.319909496
1.321251529
1.322589486
1.323923372
1.325253193
1.326578954
1.327900659
1.329218315
1.330531926
1.331841498
1.333147036
1.334448545
1.33574603
1.337039497
1.33832895
1.339614395
1.340895836
1.34217328
1.343446732
1.344716196
1.345981677
1.347243182
1.348500714
1.34975428
1.351003884
1.352249531
1.353491227
1.354728977
1.355962786
1.357192658
1.3584186
1.359640617
1.360858712
1.362072893
1.363283163
1.364489528
1.365691992
1.366890562
1.368085242
1.369276038
1.370462953
1.371645994
1.372825166
1.374000473
1.375171921
1.376339515
1.37750326
1.378663161
1.379819223
1.380971451
1.38211985
1.383264426
1.384405182
1.385542126
1.38667526
1.387804592
1.388930124
1.390051864
1.391169814
1.392283982
1.393394371
1.394500987
1.395603835
1.39670292
1.397798246
1.398889819
1.399977644
1.401061726
1.402142069
1.40321868
1.404291562
1.405360721
1.406426162
1.40748789
1.40854591
1.409600226
1.410650844
1.411697769
1.412741005
1.413780558
1.414816433
1.415848635
1.416877167
1.417902037
1.418923248
1.419940805
1.420954713
1.421964978
1.422971604
1.423974596
1.42497396
1.425969699
1.426961819
1.427950325
1.428935221
1.429916513
1.430894206
1.431868304
1.432838813
1.433805737
1.434769081
1.435728849
1.436685048
1.437637682
1.438586755
1.439532273
1.44047424
1.441412661
1.442347542
1.443278886
1.444206699
1.445130986
1.446051752
1.446969001
1.447882738
1.448792968
1.449699696
1.450602926
1.451502664
1.452398915
1.453291683
1.454180972
1.455066789
1.455949137
1.456828021
1.457703447
1.458575419
1.459443941
1.460309019
1.461170657
1.462028861
1.462883634
1.463734982
1.46458291
1.465427421
1.466268522
1.467106216
1.467940509
1.468771405
1.469598909
1.470423026
1.471243761
1.472061117
1.472875101
1.473685716
1.474492967
1.47529686
1.476097398
1.476894587
1.477688431
1.478478935
1.479266104
1.480049942
1.480830454
1.481607645
1.482381519
1.483152081
1.483919337
1.484683289
1.485443944
1.486201305
1.486955378
1.487706167
1.488453677
1.489197912
1.489938877
1.490676577
1.491411016
1.492142199
1.492870131
1.493594816
1.494316259
1.495034464
1.495749437
1.496461181
1.497169702
1.497875003
1.49857709
1.499275967
1.499971639
1.50066411
1.501353385
1.502039468
1.502722365
1.503402079
1.504078615
1.504751978
1.505422173
1.506089203
1.506753074
1.507413789
1.508071355
1.508725774
1.509377052
1.510025193
1.510670202
1.511312083
1.511950841
1.51258648
1.513219005
1.51384842
1.51447473
1.515097939
1.515718052
1.516335073
1.516949007
1.517559859
1.518167632
1.518772332
1.519373962
1.519972527
1.520568032
1.521160482
1.52174988
1.522336231
1.522919539
1.52349981
1.524077047
1.524651255
1.525222438
1.525790601
1.526355748
1.526917884
1.527477013
1.528033139
1.528586267
1.529136402
1.529683547
1.530227707
1.530768887
1.531307091
1.531842324
1.532374589
1.532903891
1.533430235
1.533953624
1.534474064
1.534991559
1.535506112
1.536017729
1.536526414
1.537032171
1.537535005
1.538034919
1.538531918
1.539026007
1.53951719
1.540005472
1.540490856
1.540973346
1.541452948
1.541929666
1.542403503
1.542874465
1.543342555
1.543807779
1.544270139
1.544729641
1.545186288
1.545640086
1.546091038
1.546539149
1.546984423
1.547426864
1.547866476
1.548303265
1.548737233
1.549168386
1.549596727
1.550022262
1.550444993
1.550864926
1.551282065
1.551696414
1.552107977
1.552516758
1.552922762
1.553325993
1.553726455
1.554124153
1.55451909
1.554911271
1.5553007
1.555687381
1.556071319
1.556452517
1.556830981
1.557206713
1.557579719
1.557950003
1.558317568
1.558682419
1.559044561
1.559403996
1.55976073
1.560114767
1.56046611
1.560814765
1.561160735
1.561504024
1.561844637
1.562182577
1.562517849
1.562850457
1.563180406
1.563507698
1.563832339
1.564154333
1.564473684
1.564790395
1.565104471
1.565415917
1.565724736
1.566030933
1.566334511
1.566635475
1.566933828
1.567229576
1.567522722
1.56781327
1.568101225
1.568386591
1.568669371
1.56894957
1.569227192
1.569502242
1.569774723
1.570044639
1.570311996
1.570576796
1.570839044
1.571098745
1.571355902
1.571610521
1.571862604
1.572112156
1.572359183
1.572603687
1.572845673
1.573085146
1.57332211
1.57355657
1.57378853
1.574017994
1.574244967
1.574469454
1.57469146
1.574910989
1.575128046
1.575342636
1.575554764
1.575764436
1.575971657
1.576176433
1.576378768
1.57657867
1.576776145
1.576971198
1.577163838
1.577354072
1.577541907
1.577727354
1.57791042
1.578091117
1.578269457
1.578445453
1.578619122
1.578790481
1.578959552
1.579126363
1.579290946
1.579453343
1.579613607
1.579771811
1.579928048
1.580082443
1.580235161
1.5803864
1.580536363
1.580685133
1.580832365
1.580976405
1.581112732
1.581232024
1.581321155
1.581372819
1.581396458
1.581407388
1.581413825
1.581417454
1.581417904
1.581417466
1.581416422
1.581413334
1.581405976
1.581391281
1.581369721
1.581354502
1.581350667
1.581350086
1.581350176
1.581350304
1.581349838
1.581347905
1.581342956
1.581333314
1.581319502
1.58130769
1.581304028
1.581304751
1.581306127
1.581308116
1.581310257
1.581311311
1.581309419
1.581308793
1.58130834
1.581307223
1.581305966
1.581306371
1.581306058
1.581305912
1.581306439
1.581307287
1.581307887
1.581308383
1.581308572
1.581308599
1.581308614
1.58130874
1.581309121
1.581309749
1.581310178
1.581310188
1.581310282
1.581310444
1.58131074
1.581311268
1.581311967
1.581312356
1.581312352
1.581312462
1.581312698
1.581313107
1.581313708
1.58131428
1.58131426
1.581313984
1.581313772
1.581313771
1.581314114
1.581314699
1.581315194
1.581315447
1.581315451
1.581315407
1.581315471
1.581315725
1.581315949
1.581315753
1.581315806
1.581316066
1.581316535
1.58131719
1.581317804
1.581317997
1.581317857
1.581317717
1.581317703
1.581317944
1.58131839
1.581318884
1.581319036
1.581319034
1.581319012
1.581319028
1.581319136
1.58131931
1.581319359
1.581319366
1.581319422
1.581319545
1.581319763
1.581320053
1.581320213