/*--------------------------------*- C++ -*----------------------------------*\
| =========                 |                                                 |
| \\      /  F ield         | OpenFOAM: The Open Source CFD Toolbox           |
|  \\    /   O peration     | Version:  v1812                                 |
|   \\  /    A nd           | Web:      www.OpenFOAM.com                      |
|    \\/     M anipulation  |                                                 |
\*---------------------------------------------------------------------------*/
FoamFile
{
    version     2.0;
    format      ascii;
    class       volVectorField;
    location    "0.2";
    object      U;
}
// * * * * * * * * * * * * * * * * * * * * * * * * * * * * * * * * * * * * * //

dimensions      [0 1 -1 0 0 0 0];


internalField   nonuniform List<vector> 
4000
(
(-2.669707238e-16 0 0)
(-2.322446551e-16 0 0)
(-5.608705855e-16 0 0)
(-9.467325662e-16 0 0)
(-1.178861561e-15 0 0)
(-1.308275185e-15 0 0)
(-1.394196434e-15 0 0)
(-1.401637219e-15 0 0)
(-1.393427068e-15 0 0)
(-1.036179091e-15 0 0)
(-7.947649153e-16 0 0)
(-7.859370242e-16 0 0)
(-7.557924306e-16 0 0)
(-8.278092785e-16 0 0)
(-5.661473289e-16 0 0)
(-1.421440265e-16 0 0)
(-2.576446148e-16 0 0)
(-4.075388455e-16 0 0)
(-2.123330917e-16 0 0)
(-3.334925764e-16 0 0)
(-9.057951775e-16 0 0)
(-6.190980684e-16 0 0)
(-1.280971139e-16 0 0)
(6.870549836e-17 0 0)
(6.94427395e-16 0 0)
(1.200591481e-15 0 0)
(1.685208877e-15 0 0)
(1.797242549e-15 0 0)
(1.777334806e-15 0 0)
(2.059341285e-15 0 0)
(2.343108066e-15 0 0)
(2.695123718e-15 0 0)
(2.995203766e-15 0 0)
(2.714393213e-15 0 0)
(2.553409494e-15 0 0)
(2.871228332e-15 0 0)
(3.358020317e-15 0 0)
(3.151427858e-15 0 0)
(2.787715469e-15 0 0)
(2.961724451e-15 0 0)
(3.099294098e-15 0 0)
(2.917258385e-15 0 0)
(2.43482481e-15 0 0)
(2.475503431e-15 0 0)
(2.300223306e-15 0 0)
(1.923471106e-15 0 0)
(1.52714798e-15 0 0)
(5.718025376e-16 0 0)
(-3.085504129e-16 0 0)
(-2.928907543e-16 0 0)
(-1.786494463e-16 0 0)
(-3.643492265e-16 0 0)
(-3.843745248e-16 0 0)
(-1.148114764e-16 0 0)
(6.20928337e-17 0 0)
(3.815414095e-16 0 0)
(4.385522657e-16 0 0)
(2.724771122e-16 0 0)
(7.434506017e-17 0 0)
(-8.956127718e-17 0 0)
(-3.651260465e-16 0 0)
(-2.653156098e-16 0 0)
(-6.169429496e-16 0 0)
(-7.152327269e-16 0 0)
(-1.162976639e-15 0 0)
(-1.743650799e-15 0 0)
(-1.956392659e-15 0 0)
(-1.880728518e-15 0 0)
(-1.855631411e-15 0 0)
(-1.844229196e-15 0 0)
(-2.178620847e-15 0 0)
(-2.598010462e-15 0 0)
(-2.653472147e-15 0 0)
(-2.709694831e-15 0 0)
(-3.189493596e-15 0 0)
(-3.739555893e-15 0 0)
(-4.109505896e-15 0 0)
(-4.705468508e-15 0 0)
(-4.959623328e-15 0 0)
(-5.240893336e-15 0 0)
(-5.356667358e-15 0 0)
(-5.157252449e-15 0 0)
(-5.256414059e-15 0 0)
(-3.565301722e-15 0 0)
(-2.000044759e-15 0 0)
(-1.079419232e-15 0 0)
(-6.786062407e-16 0 0)
(1.502403266e-16 0 0)
(1.269531505e-15 0 0)
(2.115382356e-15 0 0)
(2.601481992e-15 0 0)
(2.404009296e-15 0 0)
(2.499207456e-15 0 0)
(2.732211887e-15 0 0)
(2.506421367e-15 0 0)
(2.342878545e-15 0 0)
(2.372024241e-15 0 0)
(2.569928657e-15 0 0)
(2.802967882e-15 0 0)
(2.677687151e-15 0 0)
(2.937052908e-15 0 0)
(3.71378877e-15 0 0)
(4.295645047e-15 0 0)
(4.109962904e-15 0 0)
(3.707763074e-15 0 0)
(2.624627727e-15 0 0)
(1.467722043e-15 0 0)
(-6.893503854e-17 0 0)
(-9.363060875e-16 0 0)
(-7.400359541e-16 0 0)
(-7.075871561e-16 0 0)
(-7.455212299e-16 0 0)
(-9.294980407e-16 0 0)
(-7.327151806e-16 0 0)
(-5.974685409e-16 0 0)
(-2.907277645e-18 0 0)
(-7.518868918e-16 0 0)
(-1.68267021e-15 0 0)
(-2.476165402e-15 0 0)
(-3.967958741e-15 0 0)
(-4.481934849e-15 0 0)
(-4.819279874e-15 0 0)
(-4.74712369e-15 0 0)
(-4.790545705e-15 0 0)
(-5.034544656e-15 0 0)
(-5.264674362e-15 0 0)
(-5.717767846e-15 0 0)
(-5.680347603e-15 0 0)
(-5.488230084e-15 0 0)
(-5.135421545e-15 0 0)
(-5.228372568e-15 0 0)
(-5.126406603e-15 0 0)
(-4.89453587e-15 0 0)
(-5.03894584e-15 0 0)
(-4.813744481e-15 0 0)
(-4.71428301e-15 0 0)
(-4.839244229e-15 0 0)
(-5.036744284e-15 0 0)
(-5.008952844e-15 0 0)
(-5.069992225e-15 0 0)
(-5.27126886e-15 0 0)
(-5.029947417e-15 0 0)
(-4.747606049e-15 0 0)
(-4.462368702e-15 0 0)
(-4.559324198e-15 0 0)
(-4.599508457e-15 0 0)
(-4.300165803e-15 0 0)
(-4.312626635e-15 0 0)
(-4.177656552e-15 0 0)
(-3.987155726e-15 0 0)
(-3.750589907e-15 0 0)
(-2.493741283e-15 0 0)
(-2.076599122e-15 0 0)
(-1.754887618e-15 0 0)
(-1.39575727e-15 0 0)
(-1.0242072e-15 0 0)
(-7.475988512e-16 0 0)
(-1.035539755e-15 0 0)
(-7.820321476e-16 0 0)
(-5.530460302e-16 0 0)
(-6.963243276e-16 0 0)
(-8.423948289e-16 0 0)
(-8.242296458e-16 0 0)
(-7.062495905e-16 0 0)
(-6.259090258e-16 0 0)
(-8.402321039e-16 0 0)
(-6.839329641e-16 0 0)
(-8.800646391e-16 0 0)
(-6.779582359e-16 0 0)
(-2.402595176e-17 0 0)
(3.62272019e-16 0 0)
(3.570181629e-16 0 0)
(1.915233186e-16 0 0)
(5.906024893e-16 0 0)
(3.3111366e-16 0 0)
(-6.762520435e-16 0 0)
(-1.615764641e-15 0 0)
(-2.205282287e-15 0 0)
(-1.989701922e-15 0 0)
(-1.563083126e-15 0 0)
(-1.280317568e-15 0 0)
(-1.319479138e-15 0 0)
(-1.319910248e-15 0 0)
(-8.528756502e-16 0 0)
(-5.35827691e-16 0 0)
(-4.901047475e-16 0 0)
(-6.57452982e-16 0 0)
(-9.946026642e-16 0 0)
(-1.134605852e-15 0 0)
(-1.537677114e-15 0 0)
(-1.650222694e-15 0 0)
(-1.936320303e-15 0 0)
(-1.380715936e-15 0 0)
(-9.002361818e-16 0 0)
(-3.369675111e-16 0 0)
(2.903432165e-16 0 0)
(6.16476607e-16 0 0)
(9.886361377e-16 0 0)
(4.626212532e-16 0 0)
(4.376041619e-16 0 0)
(4.593739438e-16 0 0)
(-6.597871022e-16 0 0)
(-9.713689794e-16 0 0)
(-7.806882916e-16 0 0)
(-7.163326387e-16 0 0)
(-6.105119788e-17 0 0)
(9.343362242e-16 0 0)
(2.055953634e-15 0 0)
(3.183979682e-15 0 0)
(3.949056993e-15 0 0)
(4.475927776e-15 0 0)
(5.50946003e-15 0 0)
(6.282079057e-15 0 0)
(6.434898191e-15 0 0)
(6.506591357e-15 0 0)
(7.053936439e-15 0 0)
(7.663125191e-15 0 0)
(8.00315851e-15 0 0)
(7.888872023e-15 0 0)
(7.964294696e-15 0 0)
(7.931249115e-15 0 0)
(7.945372316e-15 0 0)
(8.059499434e-15 0 0)
(7.834551343e-15 0 0)
(7.719264126e-15 0 0)
(7.212341835e-15 0 0)
(6.731465492e-15 0 0)
(6.053365397e-15 0 0)
(4.657107296e-15 0 0)
(3.553925045e-15 0 0)
(3.072266051e-15 0 0)
(2.373585963e-15 0 0)
(1.452301019e-15 0 0)
(8.024175843e-16 0 0)
(6.375253445e-16 0 0)
(3.714615673e-16 0 0)
(3.504830364e-16 0 0)
(3.898589614e-16 0 0)
(6.112751164e-16 0 0)
(3.356403343e-16 0 0)
(1.540697273e-16 0 0)
(1.309842235e-16 0 0)
(-2.654171324e-16 0 0)
(-4.871502697e-16 0 0)
(-2.057993692e-16 0 0)
(-3.755765278e-16 0 0)
(-9.30596736e-16 0 0)
(-7.580909735e-16 0 0)
(-4.166300133e-16 0 0)
(-6.971834785e-16 0 0)
(-7.439641276e-16 0 0)
(-3.921892968e-16 0 0)
(6.782007724e-16 0 0)
(1.428241845e-15 0 0)
(1.927154579e-15 0 0)
(2.894861838e-15 0 0)
(3.143542673e-15 0 0)
(3.300634035e-15 0 0)
(3.633735427e-15 0 0)
(3.69014596e-15 0 0)
(3.990253576e-15 0 0)
(4.269663324e-15 0 0)
(4.222681575e-15 0 0)
(4.037749208e-15 0 0)
(4.319929207e-15 0 0)
(4.453024095e-15 0 0)
(4.678160788e-15 0 0)
(4.657712838e-15 0 0)
(4.825115971e-15 0 0)
(5.170800415e-15 0 0)
(5.085369447e-15 0 0)
(4.938862079e-15 0 0)
(4.733634658e-15 0 0)
(4.447391077e-15 0 0)
(4.236980971e-15 0 0)
(3.887138398e-15 0 0)
(3.778914447e-15 0 0)
(3.849234051e-15 0 0)
(3.560955877e-15 0 0)
(3.551308159e-15 0 0)
(3.724866386e-15 0 0)
(4.357092363e-15 0 0)
(4.66990762e-15 0 0)
(4.199904764e-15 0 0)
(3.822964511e-15 0 0)
(4.004810444e-15 0 0)
(4.240676372e-15 0 0)
(4.123024991e-15 0 0)
(4.332707882e-15 0 0)
(4.457319941e-15 0 0)
(4.134250881e-15 0 0)
(4.136408244e-15 0 0)
(4.416451539e-15 0 0)
(4.286405848e-15 0 0)
(3.852684656e-15 0 0)
(2.291522258e-15 0 0)
(1.419760332e-15 0 0)
(1.14498097e-15 0 0)
(1.232726227e-15 0 0)
(9.57034251e-16 0 0)
(5.397647236e-16 0 0)
(5.305783413e-16 0 0)
(2.267846215e-16 0 0)
(1.572933459e-16 0 0)
(6.959602871e-17 0 0)
(-6.212560683e-17 0 0)
(-2.810141913e-16 0 0)
(-5.423849567e-16 0 0)
(-8.819896446e-16 0 0)
(-1.288364628e-15 0 0)
(-1.581019624e-15 0 0)
(-1.780455076e-15 0 0)
(-1.704792797e-15 0 0)
(-1.571377343e-15 0 0)
(-1.7346569e-15 0 0)
(-1.757089473e-15 0 0)
(-1.695432534e-15 0 0)
(-1.851791104e-15 0 0)
(-1.678377805e-15 0 0)
(-1.004698441e-15 0 0)
(-3.229207462e-16 0 0)
(5.17576303e-16 0 0)
(1.010858163e-15 0 0)
(1.422410351e-15 0 0)
(2.194673133e-15 0 0)
(2.46959913e-15 0 0)
(2.645134176e-15 0 0)
(2.586773931e-15 0 0)
(2.371975901e-15 0 0)
(2.647152452e-15 0 0)
(2.907803257e-15 0 0)
(2.71024479e-15 0 0)
(2.751143439e-15 0 0)
(3.090231235e-15 0 0)
(3.013201049e-15 0 0)
(2.846130163e-15 0 0)
(2.665906633e-15 0 0)
(2.576279054e-15 0 0)
(2.670237322e-15 0 0)
(2.700553914e-15 0 0)
(2.62489151e-15 0 0)
(2.355738073e-15 0 0)
(2.165991767e-15 0 0)
(2.433407639e-15 0 0)
(2.737689076e-15 0 0)
(2.959591997e-15 0 0)
(3.458041198e-15 0 0)
(3.519794151e-15 0 0)
(3.496095457e-15 0 0)
(3.58723056e-15 0 0)
(3.449918738e-15 0 0)
(3.364297964e-15 0 0)
(3.370870075e-15 0 0)
(3.262120611e-15 0 0)
(3.33899415e-15 0 0)
(3.288773832e-15 0 0)
(2.797388024e-15 0 0)
(2.686650375e-15 0 0)
(2.632820758e-15 0 0)
(2.815828008e-15 0 0)
(2.987392886e-15 0 0)
(2.884740864e-15 0 0)
(3.078468523e-15 0 0)
(2.999146408e-15 0 0)
(3.023263315e-15 0 0)
(3.283262181e-15 0 0)
(3.030145696e-15 0 0)
(2.763884147e-15 0 0)
(2.717533478e-15 0 0)
(2.646090509e-15 0 0)
(2.789736419e-15 0 0)
(2.984703436e-15 0 0)
(3.091253682e-15 0 0)
(2.593274912e-15 0 0)
(2.117219545e-15 0 0)
(2.08685155e-15 0 0)
(2.037439007e-15 0 0)
(1.684411486e-15 0 0)
(1.631352224e-15 0 0)
(8.44111589e-16 0 0)
(-1.162991758e-16 0 0)
(-6.135421534e-16 0 0)
(-5.235799942e-16 0 0)
(-8.266120957e-16 0 0)
(-1.107196127e-15 0 0)
(-1.361251146e-15 0 0)
(-1.165109446e-15 0 0)
(-1.221629217e-15 0 0)
(-1.415022966e-15 0 0)
(-1.61076677e-15 0 0)
(-1.691544329e-15 0 0)
(-1.414770044e-15 0 0)
(-1.135243519e-15 0 0)
(-1.280520922e-15 0 0)
(-1.313658209e-15 0 0)
(-1.070358389e-15 0 0)
(-9.712117798e-16 0 0)
(-9.101886736e-16 0 0)
(-1.46949761e-15 0 0)
(-1.600894823e-15 0 0)
(-1.586894769e-15 0 0)
(-1.855571658e-15 0 0)
(-1.791822666e-15 0 0)
(-1.326205315e-15 0 0)
(-9.791045854e-16 0 0)
(-1.062872914e-15 0 0)
(-9.505814957e-16 0 0)
(-4.568251067e-16 0 0)
(-4.872652007e-16 0 0)
(-3.627308769e-16 0 0)
(7.793983757e-16 0 0)
(1.169577291e-15 0 0)
(1.742375409e-15 0 0)
(2.124561481e-15 0 0)
(2.385276883e-15 0 0)
(2.223933088e-15 0 0)
(2.041505883e-15 0 0)
(1.969560493e-15 0 0)
(1.856005994e-15 0 0)
(1.992267906e-15 0 0)
(2.196716382e-15 0 0)
(2.21215642e-15 0 0)
(2.091371965e-15 0 0)
(2.161308446e-15 0 0)
(2.049519684e-15 0 0)
(1.957779498e-15 0 0)
(2.354888631e-15 0 0)
(2.806609886e-15 0 0)
(2.701670095e-15 0 0)
(2.664435098e-15 0 0)
(2.472770352e-15 0 0)
(2.157812194e-15 0 0)
(2.178374815e-15 0 0)
(2.393782196e-15 0 0)
(2.327310215e-15 0 0)
(2.74481254e-15 0 0)
(3.158828485e-15 0 0)
(3.27551015e-15 0 0)
(3.261152874e-15 0 0)
(3.143410211e-15 0 0)
(3.11242753e-15 0 0)
(3.455969794e-15 0 0)
(3.569986125e-15 0 0)
(3.351571732e-15 0 0)
(3.329337559e-15 0 0)
(3.590804994e-15 0 0)
(3.528403721e-15 0 0)
(3.131191793e-15 0 0)
(1.85570797e-15 0 0)
(1.174033549e-15 0 0)
(1.215973404e-15 0 0)
(9.821669246e-16 0 0)
(4.427809995e-16 0 0)
(-4.256960652e-16 0 0)
(-1.230645486e-15 0 0)
(-1.935046198e-15 0 0)
(-2.140751442e-15 0 0)
(-2.229172198e-15 0 0)
(-2.516938147e-15 0 0)
(-2.950540571e-15 0 0)
(-2.978038449e-15 0 0)
(-3.155850023e-15 0 0)
(-3.258509558e-15 0 0)
(-3.289257492e-15 0 0)
(-3.530270036e-15 0 0)
(-3.98123593e-15 0 0)
(-3.847997999e-15 0 0)
(-3.30697591e-15 0 0)
(-2.222332378e-15 0 0)
(-2.135758997e-15 0 0)
(-2.038512964e-15 0 0)
(-1.44738233e-15 0 0)
(-8.88693302e-16 0 0)
(-9.048804568e-16 0 0)
(-5.87661743e-16 0 0)
(-5.044068884e-16 0 0)
(-6.867944631e-16 0 0)
(-8.367119342e-16 0 0)
(-6.063824691e-16 0 0)
(-3.52953214e-16 0 0)
(-4.333040973e-16 0 0)
(-3.454309447e-16 0 0)
(-3.13972964e-16 0 0)
(-3.52070029e-16 0 0)
(2.910174433e-19 0 0)
(4.620627302e-17 0 0)
(3.564272364e-16 0 0)
(-5.711987388e-17 0 0)
(-4.072852054e-16 0 0)
(-1.847965003e-16 0 0)
(-2.778468538e-17 0 0)
(-3.315729381e-16 0 0)
(-1.315175185e-15 0 0)
(-1.370835267e-15 0 0)
(-1.244694232e-15 0 0)
(-6.096493892e-16 0 0)
(-5.916777917e-16 0 0)
(-9.519742163e-16 0 0)
(-8.059835645e-16 0 0)
(-6.522858827e-16 0 0)
(-3.113117954e-16 0 0)
(3.439471251e-17 0 0)
(3.248639826e-16 0 0)
(1.009639682e-15 0 0)
(1.788684577e-15 0 0)
(1.990692732e-15 0 0)
(2.024696772e-15 0 0)
(2.845557867e-15 0 0)
(3.77418654e-15 0 0)
(3.421653059e-15 0 0)
(3.047667128e-15 0 0)
(3.062009868e-15 0 0)
(3.242704459e-15 0 0)
(3.179494378e-15 0 0)
(2.728866906e-15 0 0)
(1.490546288e-15 0 0)
(1.97050458e-16 0 0)
(-6.876804008e-16 0 0)
(-9.888127381e-16 0 0)
(-1.061414868e-15 0 0)
(-1.350266728e-15 0 0)
(-1.06882013e-15 0 0)
(-1.335425674e-15 0 0)
(-1.399638413e-15 0 0)
(-9.687446167e-16 0 0)
(-8.227348418e-16 0 0)
(-1.180922774e-15 0 0)
(-1.388498733e-15 0 0)
(-1.236371608e-15 0 0)
(-1.164236612e-15 0 0)
(-6.880742644e-16 0 0)
(-4.572845612e-17 0 0)
(-1.903209377e-16 0 0)
(-9.258593791e-16 0 0)
(-7.940557693e-16 0 0)
(-6.343616053e-16 0 0)
(-4.989418513e-16 0 0)
(-5.251906744e-16 0 0)
(-5.919928504e-16 0 0)
(-3.626008048e-16 0 0)
(-7.740658382e-16 0 0)
(-1.157701918e-15 0 0)
(-1.179921525e-15 0 0)
(-9.610778606e-16 0 0)
(-1.709920968e-16 0 0)
(3.74590591e-16 0 0)
(1.433070195e-15 0 0)
(1.50536984e-15 0 0)
(2.364465364e-15 0 0)
(3.512061674e-15 0 0)
(3.925097438e-15 0 0)
(3.797434168e-15 0 0)
(3.751373745e-15 0 0)
(3.983476753e-15 0 0)
(3.946643994e-15 0 0)
(4.002069928e-15 0 0)
(4.112703302e-15 0 0)
(3.88859127e-15 0 0)
(3.602867614e-15 0 0)
(3.861101673e-15 0 0)
(3.842662463e-15 0 0)
(3.830298461e-15 0 0)
(4.019116299e-15 0 0)
(4.234255676e-15 0 0)
(4.415461474e-15 0 0)
(4.535346714e-15 0 0)
(4.219228987e-15 0 0)
(3.884808342e-15 0 0)
(3.536505304e-15 0 0)
(3.562696153e-15 0 0)
(3.748878507e-15 0 0)
(3.567035674e-15 0 0)
(3.152256822e-15 0 0)
(2.89580586e-15 0 0)
(2.541286039e-15 0 0)
(2.661404563e-15 0 0)
(2.513982972e-15 0 0)
(1.94603471e-15 0 0)
(1.321101196e-15 0 0)
(8.555363974e-16 0 0)
(4.673761133e-16 0 0)
(3.837936427e-17 0 0)
(-5.955082757e-16 0 0)
(-9.16403576e-16 0 0)
(-1.117015106e-15 0 0)
(-1.073403065e-15 0 0)
(-1.036210917e-15 0 0)
(-1.304898526e-15 0 0)
(-1.304764387e-15 0 0)
(-1.125340847e-15 0 0)
(-9.089900103e-16 0 0)
(-6.420976142e-16 0 0)
(-5.461539117e-16 0 0)
(-5.058771881e-16 0 0)
(-4.966688697e-16 0 0)
(-1.019410181e-15 0 0)
(-1.126957184e-15 0 0)
(-9.779159004e-16 0 0)
(-1.343238222e-15 0 0)
(-1.509396666e-15 0 0)
(-1.465094618e-15 0 0)
(-1.494943776e-15 0 0)
(-1.553836911e-15 0 0)
(-1.532548947e-15 0 0)
(-1.460281771e-15 0 0)
(-1.320888273e-15 0 0)
(-1.294923643e-15 0 0)
(-8.926145763e-16 0 0)
(-6.400072436e-16 0 0)
(-8.591052274e-16 0 0)
(-1.027471258e-15 0 0)
(-7.936081724e-16 0 0)
(-7.362432517e-16 0 0)
(-2.101452129e-16 0 0)
(7.893452081e-17 0 0)
(8.070230996e-16 0 0)
(1.142030411e-15 0 0)
(1.624720199e-15 0 0)
(1.640244994e-15 0 0)
(1.99847214e-15 0 0)
(2.503402363e-15 0 0)
(2.868944268e-15 0 0)
(2.700204833e-15 0 0)
(2.647776606e-15 0 0)
(2.628572965e-15 0 0)
(2.618623618e-15 0 0)
(2.862914653e-15 0 0)
(2.985360324e-15 0 0)
(3.129043668e-15 0 0)
(3.20301466e-15 0 0)
(3.220797955e-15 0 0)
(3.179801789e-15 0 0)
(3.387843741e-15 0 0)
(3.387354741e-15 0 0)
(3.283768733e-15 0 0)
(3.443910608e-15 0 0)
(3.560616806e-15 0 0)
(3.36158272e-15 0 0)
(3.110487224e-15 0 0)
(3.070101918e-15 0 0)
(2.932334473e-15 0 0)
(2.645115724e-15 0 0)
(2.612927787e-15 0 0)
(2.473863061e-15 0 0)
(2.432619313e-15 0 0)
(2.574782601e-15 0 0)
(2.154673279e-15 0 0)
(1.293838362e-15 0 0)
(4.250558136e-16 0 0)
(-1.006178494e-16 0 0)
(-1.044361346e-16 0 0)
(-4.188580006e-16 0 0)
(-9.147743163e-16 0 0)
(-1.443939701e-15 0 0)
(-1.638463841e-15 0 0)
(-1.547555766e-15 0 0)
(-1.329153589e-15 0 0)
(-1.239298243e-15 0 0)
(-1.51950969e-15 0 0)
(-1.317845106e-15 0 0)
(-9.739447106e-16 0 0)
(-9.330886724e-16 0 0)
(-8.993153583e-16 0 0)
(-5.812815995e-16 0 0)
(-4.16093736e-18 0 0)
(3.344414433e-17 0 0)
(1.98146347e-16 0 0)
(7.523545282e-16 0 0)
(1.039395271e-15 0 0)
(1.480644348e-15 0 0)
(1.467257662e-15 0 0)
(1.576355503e-15 0 0)
(1.971799012e-15 0 0)
(2.520533165e-15 0 0)
(2.866883861e-15 0 0)
(2.944590432e-15 0 0)
(2.656346987e-15 0 0)
(2.679617664e-15 0 0)
(2.614489588e-15 0 0)
(2.858091098e-15 0 0)
(3.221650693e-15 0 0)
(3.110213727e-15 0 0)
(2.602319216e-15 0 0)
(2.31931929e-15 0 0)
(2.00162438e-15 0 0)
(1.81710866e-15 0 0)
(1.528177575e-15 0 0)
(1.557254569e-15 0 0)
(1.703944704e-15 0 0)
(1.744310989e-15 0 0)
(5.033155395e-16 0 0)
(-2.418582427e-16 0 0)
(-1.103950538e-15 0 0)
(-1.777266718e-15 0 0)
(-1.854585747e-15 0 0)
(-2.65747927e-15 0 0)
(-3.929938e-15 0 0)
(-5.074672155e-15 0 0)
(-5.196041713e-15 0 0)
(-4.770139682e-15 0 0)
(-4.700918761e-15 0 0)
(-5.163225994e-15 0 0)
(-5.570925389e-15 0 0)
(-5.444478431e-15 0 0)
(-5.651189747e-15 0 0)
(-5.638586687e-15 0 0)
(-5.591142397e-15 0 0)
(-5.570149402e-15 0 0)
(-5.596828002e-15 0 0)
(-5.981070044e-15 0 0)
(-6.136311233e-15 0 0)
(-6.286894012e-15 0 0)
(-6.001618907e-15 0 0)
(-5.398141479e-15 0 0)
(-4.882424397e-15 0 0)
(-4.865077581e-15 0 0)
(-4.15708731e-15 0 0)
(-3.773448805e-15 0 0)
(-2.779398098e-15 0 0)
(-2.048634113e-15 0 0)
(-1.272942112e-15 0 0)
(-2.759736459e-16 0 0)
(-7.175561074e-17 0 0)
(2.189189562e-16 0 0)
(9.828797082e-16 0 0)
(6.421584031e-16 0 0)
(2.990428573e-16 0 0)
(2.512363853e-16 0 0)
(8.745758121e-16 0 0)
(1.465090333e-15 0 0)
(1.86782618e-15 0 0)
(1.849495956e-15 0 0)
(1.784860001e-15 0 0)
(2.046587532e-15 0 0)
(2.152010705e-15 0 0)
(2.149851523e-15 0 0)
(2.360802473e-15 0 0)
(2.520168937e-15 0 0)
(2.77048504e-15 0 0)
(2.870261675e-15 0 0)
(2.709489181e-15 0 0)
(2.202865542e-15 0 0)
(1.69402683e-15 0 0)
(2.055160933e-15 0 0)
(2.22360512e-15 0 0)
(2.166909011e-15 0 0)
(2.327595286e-15 0 0)
(2.157058551e-15 0 0)
(1.797679443e-15 0 0)
(2.031357083e-15 0 0)
(2.225930706e-15 0 0)
(1.846676457e-15 0 0)
(1.235023267e-15 0 0)
(7.101846998e-16 0 0)
(3.339213262e-16 0 0)
(2.209258144e-16 0 0)
(4.170941592e-16 0 0)
(8.535572335e-16 0 0)
(9.587528735e-16 0 0)
(6.576882082e-16 0 0)
(3.762874324e-17 0 0)
(5.221508421e-16 0 0)
(2.857133762e-16 0 0)
(-7.817230805e-16 0 0)
(-1.083494495e-15 0 0)
(-1.600469753e-15 0 0)
(-1.903737767e-15 0 0)
(-1.531357987e-15 0 0)
(-1.017957987e-15 0 0)
(-8.032078383e-16 0 0)
(-3.274492324e-16 0 0)
(-3.138262842e-16 0 0)
(-3.110932067e-16 0 0)
(8.963345271e-16 0 0)
(1.455241707e-15 0 0)
(1.883731534e-15 0 0)
(1.932207307e-15 0 0)
(2.018085869e-15 0 0)
(1.666929719e-15 0 0)
(1.994813831e-15 0 0)
(2.274672521e-15 0 0)
(2.316802225e-15 0 0)
(2.477584163e-15 0 0)
(2.551472214e-15 0 0)
(1.993661518e-15 0 0)
(9.288185636e-16 0 0)
(1.263831835e-16 0 0)
(1.722043019e-16 0 0)
(4.573094022e-16 0 0)
(5.48120422e-16 0 0)
(1.043000094e-15 0 0)
(1.165850407e-15 0 0)
(1.224908534e-15 0 0)
(2.117999042e-15 0 0)
(2.318208498e-15 0 0)
(2.18374633e-15 0 0)
(2.192235534e-15 0 0)
(2.031855176e-15 0 0)
(2.099759082e-15 0 0)
(1.689758045e-15 0 0)
(1.496949723e-15 0 0)
(1.767968932e-15 0 0)
(1.714140103e-15 0 0)
(1.719281465e-15 0 0)
(1.622131525e-15 0 0)
(1.30313043e-15 0 0)
(8.572911273e-16 0 0)
(3.629691496e-16 0 0)
(2.684645999e-16 0 0)
(5.430134012e-16 0 0)
(7.518827947e-16 0 0)
(4.839199313e-16 0 0)
(-9.075233534e-17 0 0)
(-7.884218362e-17 0 0)
(-7.923199024e-16 0 0)
(-1.421117173e-15 0 0)
(-1.763599085e-15 0 0)
(-2.064601825e-15 0 0)
(-2.506490483e-15 0 0)
(-2.908685116e-15 0 0)
(-2.689124921e-15 0 0)
(-2.702699995e-15 0 0)
(-2.862319564e-15 0 0)
(-2.685362593e-15 0 0)
(-2.9765769e-15 0 0)
(-3.145281786e-15 0 0)
(-3.418987523e-15 0 0)
(-3.483878773e-15 0 0)
(-3.546605007e-15 0 0)
(-3.303790814e-15 0 0)
(-3.055456543e-15 0 0)
(-2.798388088e-15 0 0)
(-2.654597848e-15 0 0)
(-2.223395334e-15 0 0)
(-1.587932887e-15 0 0)
(-1.768915821e-15 0 0)
(-2.21419275e-15 0 0)
(-1.889449373e-15 0 0)
(-1.189344354e-15 0 0)
(-5.002629242e-16 0 0)
(3.133193269e-16 0 0)
(7.712248702e-16 0 0)
(1.038513869e-15 0 0)
(1.087998949e-15 0 0)
(9.639489423e-16 0 0)
(8.882265681e-16 0 0)
(1.190013042e-15 0 0)
(1.265224667e-15 0 0)
(1.028495663e-15 0 0)
(1.05384028e-15 0 0)
(1.309214012e-15 0 0)
(1.56061592e-15 0 0)
(1.858358691e-15 0 0)
(2.453759427e-15 0 0)
(2.469349105e-15 0 0)
(2.973541812e-15 0 0)
(3.615444267e-15 0 0)
(3.914839005e-15 0 0)
(3.582702078e-15 0 0)
(3.189008458e-15 0 0)
(3.069951311e-15 0 0)
(2.590562731e-15 0 0)
(2.554556415e-15 0 0)
(1.670232862e-15 0 0)
(9.546683997e-16 0 0)
(2.845132101e-16 0 0)
(-6.045058591e-16 0 0)
(-8.090199031e-16 0 0)
(-3.270529976e-16 0 0)
(1.208839087e-16 0 0)
(-6.088472354e-17 0 0)
(2.004155981e-16 0 0)
(1.41319036e-16 0 0)
(-3.274930255e-16 0 0)
(-4.711169848e-16 0 0)
(-6.4921132e-16 0 0)
(-1.531885885e-15 0 0)
(-2.088051587e-15 0 0)
(-2.66711015e-15 0 0)
(-2.870411908e-15 0 0)
(-2.405342684e-15 0 0)
(-2.091213408e-15 0 0)
(-2.362732554e-15 0 0)
(-2.250687612e-15 0 0)
(-1.851163794e-15 0 0)
(-1.584147312e-15 0 0)
(-1.957684023e-15 0 0)
(-1.970657778e-15 0 0)
(-1.392770188e-15 0 0)
(-8.296947758e-16 0 0)
(-2.437695187e-16 0 0)
(7.365553903e-17 0 0)
(7.71756444e-16 0 0)
(1.465487909e-15 0 0)
(1.667435697e-15 0 0)
(1.293408919e-15 0 0)
(9.912534418e-16 0 0)
(1.245399522e-15 0 0)
(1.008502033e-15 0 0)
(7.485418107e-16 0 0)
(7.606465638e-16 0 0)
(2.350411873e-16 0 0)
(-7.711765116e-16 0 0)
(-2.139685561e-15 0 0)
(-2.850265721e-15 0 0)
(-3.382941764e-15 0 0)
(-2.935615577e-15 0 0)
(-1.996791897e-15 0 0)
(-1.769848584e-15 0 0)
(-1.885582739e-15 0 0)
(-1.758063565e-15 0 0)
(-1.680577036e-15 0 0)
(-1.961824237e-15 0 0)
(-2.031775504e-15 0 0)
(-1.96759704e-15 0 0)
(-2.101951994e-15 0 0)
(-2.188628402e-15 0 0)
(-2.326734208e-15 0 0)
(-2.346419779e-15 0 0)
(-2.399535084e-15 0 0)
(-3.17377217e-15 0 0)
(-3.092097019e-15 0 0)
(-2.976355491e-15 0 0)
(-3.174552114e-15 0 0)
(-3.143546931e-15 0 0)
(-3.224282117e-15 0 0)
(-3.495111522e-15 0 0)
(-2.919653714e-15 0 0)
(-2.144912559e-15 0 0)
(-1.93153951e-15 0 0)
(-1.66501062e-15 0 0)
(-1.45442201e-15 0 0)
(-1.39781384e-15 0 0)
(-1.039648698e-15 0 0)
(-4.098430489e-16 0 0)
(-1.925046826e-16 0 0)
(-1.467609606e-16 0 0)
(3.638899493e-16 0 0)
(1.035268103e-15 0 0)
(1.19335066e-15 0 0)
(1.201653259e-15 0 0)
(2.344318975e-15 0 0)
(3.871907722e-15 0 0)
(6.177675775e-15 0 0)
(9.887875901e-15 0 0)
(1.639929309e-14 0 0)
(2.725450302e-14 0 0)
(4.542675092e-14 0 0)
(7.524356236e-14 0 0)
(1.249418065e-13 0 0)
(2.061812712e-13 0 0)
(3.372907405e-13 0 0)
(5.492503336e-13 0 0)
(8.897036563e-13 0 0)
(1.432685697e-12 0 0)
(2.295914502e-12 0 0)
(3.658679797e-12 0 0)
(5.798155273e-12 0 0)
(9.139495237e-12 0 0)
(1.432711333e-11 0 0)
(2.233831653e-11 0 0)
(3.463965689e-11 0 0)
(5.342319837e-11 0 0)
(8.194596624e-11 0 0)
(1.250149685e-10 0 0)
(1.896856632e-10 0 0)
(2.862532513e-10 0 0)
(4.296457134e-10 0 0)
(6.413854432e-10 0 0)
(9.523113919e-10 0 0)
(1.406351572e-09 0 0)
(2.065708518e-09 0 0)
(3.017927038e-09 0 0)
(4.385487998e-09 0 0)
(6.338723449e-09 0 0)
(9.113093059e-09 0 0)
(1.303213786e-08 0 0)
(1.853776384e-08 0 0)
(2.62299229e-08 0 0)
(3.691825016e-08 0 0)
(5.168877905e-08 0 0)
(7.198953614e-08 0 0)
(9.973956823e-08 0 0)
(1.374668169e-07 0 0)
(1.884811941e-07 0 0)
(2.57090238e-07 0 0)
(3.488658069e-07 0 0)
(4.709713708e-07 0 0)
(6.325605372e-07 0 0)
(8.452584876e-07 0 0)
(1.12373885e-06 0 0)
(1.486409198e-06 0 0)
(1.956218706e-06 0 0)
(2.56160139e-06 0 0)
(3.337567716e-06 0 0)
(4.326956082e-06 0 0)
(5.581853557e-06 0 0)
(7.165192308e-06 0 0)
(9.152524141e-06 0 0)
(1.163397059e-05 0 0)
(1.471633984e-05 0 0)
(1.852539478e-05 0 0)
(2.32082481e-05 0 0)
(2.893585202e-05 0 0)
(3.590554024e-05 0 0)
(4.434357084e-05 0 0)
(5.450760892e-05 0 0)
(6.668907978e-05 0 0)
(8.121531569e-05 0 0)
(9.845141404e-05 0 0)
(0.0001188017215 0 0)
(0.0001427108586 0 0)
(0.0001706642024 0 0)
(0.0002031877511 0 0)
(0.0002408473067 0 0)
(0.0002842469224 0 0)
(0.000334026585 0 0)
(0.0003908591156 0 0)
(0.0004554463025 0 0)
(0.0005285142971 0 0)
(0.0006108083341 0 0)
(0.0007030868553 0 0)
(0.0008061151417 0 0)
(0.0009206585746 0 0)
(0.001047475661 0 0)
(0.001187310966 0 0)
(0.00134088811 0 0)
(0.001508902962 0 0)
(0.001692017187 0 0)
(0.001890852266 0 0)
(0.002105984107 0 0)
(0.002337938345 0 0)
(0.002587186389 0 0)
(0.002854142292 0 0)
(0.00313916044 0 0)
(0.003442534097 0 0)
(0.003764494755 0 0)
(0.004105212285 0 0)
(0.00446479581 0 0)
(0.004843295257 0 0)
(0.005240703496 0 0)
(0.005656958989 0 0)
(0.006091948873 0 0)
(0.006545512377 0 0)
(0.007017444493 0 0)
(0.007507499831 0 0)
(0.008015396564 0 0)
(0.008540820413 0 0)
(0.009083428599 0 0)
(0.009642853715 0 0)
(0.01021870747 0 0)
(0.01081058429 0 0)
(0.01141806468 0 0)
(0.01204071845 0 0)
(0.01267810764 0 0)
(0.01332978924 0 0)
(0.01399531771 0 0)
(0.01467424717 0 0)
(0.01536613346 0 0)
(0.0160705359 0 0)
(0.01678701885 0 0)
(0.01751515308 0 0)
(0.01825451696 0 0)
(0.01900469739 0 0)
(0.01976529067 0 0)
(0.02053590316 0 0)
(0.02131615181 0 0)
(0.02210566453 0 0)
(0.02290408057 0 0)
(0.02371105063 0 0)
(0.02452623701 0 0)
(0.02534931363 0 0)
(0.026179966 0 0)
(0.02701789113 0 0)
(0.02786279739 0 0)
(0.02871440429 0 0)
(0.02957244232 0 0)
(0.03043665267 0 0)
(0.03130678695 0 0)
(0.03218260692 0 0)
(0.03306388421 0 0)
(0.03395039997 0 0)
(0.03484194455 0 0)
(0.03573831725 0 0)
(0.0366393259 0 0)
(0.03754478661 0 0)
(0.03845452342 0 0)
(0.03936836801 0 0)
(0.04028615936 0 0)
(0.04120774349 0 0)
(0.04213297311 0 0)
(0.04306170739 0 0)
(0.04399381165 0 0)
(0.04492915711 0 0)
(0.0458676206 0 0)
(0.04680908433 0 0)
(0.04775343568 0 0)
(0.04870056689 0 0)
(0.0496503749 0 0)
(0.05060276113 0 0)
(0.05155763125 0 0)
(0.052514895 0 0)
(0.05347446599 0 0)
(0.05443626154 0 0)
(0.0554002025 0 0)
(0.05636621306 0 0)
(0.05733422065 0 0)
(0.05830415574 0 0)
(0.05927595172 0 0)
(0.06024954475 0 0)
(0.06122487368 0 0)
(0.06220187984 0 0)
(0.063180507 0 0)
(0.06416070124 0 0)
(0.0651424108 0 0)
(0.06612558606 0 0)
(0.06711017936 0 0)
(0.06809614497 0 0)
(0.06908343898 0 0)
(0.07007201919 0 0)
(0.0710618451 0 0)
(0.07205287777 0 0)
(0.07304507978 0 0)
(0.07403841515 0 0)
(0.07503284929 0 0)
(0.07602834892 0 0)
(0.07702488204 0 0)
(0.07802241783 0 0)
(0.07902092665 0 0)
(0.08002037994 0 0)
(0.08102075021 0 0)
(0.08202201098 0 0)
(0.08302413673 0 0)
(0.08402710287 0 0)
(0.08503088569 0 0)
(0.08603546234 0 0)
(0.08704081077 0 0)
(0.08804690972 0 0)
(0.08905373866 0 0)
(0.09006127779 0 0)
(0.091069508 0 0)
(0.09207841082 0 0)
(0.09308796842 0 0)
(0.09409816359 0 0)
(0.09510897967 0 0)
(0.09612040057 0 0)
(0.09713241076 0 0)
(0.0981449952 0 0)
(0.09915813933 0 0)
(0.1001718291 0 0)
(0.1011860509 0 0)
(0.1022007915 0 0)
(0.1032160383 0 0)
(0.1042317788 0 0)
(0.1052480011 0 0)
(0.1062646936 0 0)
(0.1072818451 0 0)
(0.1082994447 0 0)
(0.1093174819 0 0)
(0.1103359464 0 0)
(0.1113548284 0 0)
(0.1123741183 0 0)
(0.1133938067 0 0)
(0.1144138846 0 0)
(0.1154343432 0 0)
(0.116455174 0 0)
(0.1174763687 0 0)
(0.1184979193 0 0)
(0.1195198181 0 0)
(0.1205420573 0 0)
(0.1215646298 0 0)
(0.1225875282 0 0)
(0.1236107457 0 0)
(0.1246342756 0 0)
(0.1256581112 0 0)
(0.1266822461 0 0)
(0.1277066742 0 0)
(0.1287313895 0 0)
(0.1297563859 0 0)
(0.1307816579 0 0)
(0.1318071999 0 0)
(0.1328330063 0 0)
(0.133859072 0 0)
(0.1348853919 0 0)
(0.1359119608 0 0)
(0.136938774 0 0)
(0.1379658267 0 0)
(0.1389931143 0 0)
(0.1400206322 0 0)
(0.141048376 0 0)
(0.1420763416 0 0)
(0.1431045247 0 0)
(0.1441329212 0 0)
(0.1451615271 0 0)
(0.1461903387 0 0)
(0.1472193521 0 0)
(0.1482485635 0 0)
(0.1492779695 0 0)
(0.1503075666 0 0)
(0.1513373512 0 0)
(0.15236732 0 0)
(0.1533974698 0 0)
(0.1544277974 0 0)
(0.1554582996 0 0)
(0.1564889735 0 0)
(0.157519816 0 0)
(0.1585508243 0 0)
(0.1595819954 0 0)
(0.1606133267 0 0)
(0.1616448153 0 0)
(0.1626764588 0 0)
(0.1637082544 0 0)
(0.1647401996 0 0)
(0.165772292 0 0)
(0.1668045291 0 0)
(0.1678369086 0 0)
(0.1688694281 0 0)
(0.1699020853 0 0)
(0.1709348782 0 0)
(0.1719678043 0 0)
(0.1730008618 0 0)
(0.1740340484 0 0)
(0.1750673621 0 0)
(0.1761008009 0 0)
(0.1771343629 0 0)
(0.1781680462 0 0)
(0.1792018488 0 0)
(0.180235769 0 0)
(0.181269805 0 0)
(0.1823039549 0 0)
(0.183338217 0 0)
(0.1843725898 0 0)
(0.1854070714 0 0)
(0.1864416603 0 0)
(0.1874763549 0 0)
(0.1885111537 0 0)
(0.189546055 0 0)
(0.1905810574 0 0)
(0.1916161594 0 0)
(0.1926513596 0 0)
(0.1936866565 0 0)
(0.1947220488 0 0)
(0.1957575351 0 0)
(0.1967931141 0 0)
(0.1978287844 0 0)
(0.1988645448 0 0)
(0.1999003939 0 0)
(0.2009363307 0 0)
(0.2019723537 0 0)
(0.2030084619 0 0)
(0.2040446541 0 0)
(0.2050809291 0 0)
(0.2061172857 0 0)
(0.2071537229 0 0)
(0.2081902397 0 0)
(0.2092268348 0 0)
(0.2102635072 0 0)
(0.211300256 0 0)
(0.2123370801 0 0)
(0.2133739785 0 0)
(0.2144109502 0 0)
(0.2154479943 0 0)
(0.2164851097 0 0)
(0.2175222957 0 0)
(0.2185595512 0 0)
(0.2195968754 0 0)
(0.2206342673 0 0)
(0.2216717262 0 0)
(0.2227092511 0 0)
(0.2237468412 0 0)
(0.2247844957 0 0)
(0.2258222138 0 0)
(0.2268599946 0 0)
(0.2278978374 0 0)
(0.2289357415 0 0)
(0.2299737059 0 0)
(0.2310117301 0 0)
(0.2320498132 0 0)
(0.2330879546 0 0)
(0.2341261535 0 0)
(0.2351644091 0 0)
(0.236202721 0 0)
(0.2372410882 0 0)
(0.2382795103 0 0)
(0.2393179864 0 0)
(0.240356516 0 0)
(0.2413950985 0 0)
(0.2424337331 0 0)
(0.2434724193 0 0)
(0.2445111565 0 0)
(0.245549944 0 0)
(0.2465887813 0 0)
(0.2476276678 0 0)
(0.2486666029 0 0)
(0.2497055861 0 0)
(0.2507446168 0 0)
(0.2517836943 0 0)
(0.2528228183 0 0)
(0.2538619882 0 0)
(0.2549012034 0 0)
(0.2559404634 0 0)
(0.2569797678 0 0)
(0.2580191159 0 0)
(0.2590585074 0 0)
(0.2600979417 0 0)
(0.2611374184 0 0)
(0.2621769369 0 0)
(0.2632164968 0 0)
(0.2642560976 0 0)
(0.265295739 0 0)
(0.2663354204 0 0)
(0.2673751413 0 0)
(0.2684149015 0 0)
(0.2694547003 0 0)
(0.2704945375 0 0)
(0.2715344125 0 0)
(0.2725743251 0 0)
(0.2736142747 0 0)
(0.2746542609 0 0)
(0.2756942834 0 0)
(0.2767343418 0 0)
(0.2777744357 0 0)
(0.2788145647 0 0)
(0.2798547284 0 0)
(0.2808949265 0 0)
(0.2819351586 0 0)
(0.2829754243 0 0)
(0.2840157233 0 0)
(0.2850560552 0 0)
(0.2860964197 0 0)
(0.2871368164 0 0)
(0.288177245 0 0)
(0.2892177052 0 0)
(0.2902581967 0 0)
(0.291298719 0 0)
(0.2923392719 0 0)
(0.2933798551 0 0)
(0.2944204683 0 0)
(0.2954611111 0 0)
(0.2965017832 0 0)
(0.2975424844 0 0)
(0.2985832143 0 0)
(0.2996239726 0 0)
(0.3006647591 0 0)
(0.3017055735 0 0)
(0.3027464155 0 0)
(0.3037872847 0 0)
(0.304828181 0 0)