/*--------------------------------*- C++ -*----------------------------------*\
| =========                 |                                                 |
| \\      /  F ield         | OpenFOAM: The Open Source CFD Toolbox           |
|  \\    /   O peration     | Version:  v1812                                 |
|   \\  /    A nd           | Web:      www.OpenFOAM.com                      |
|    \\/     M anipulation  |                                                 |
\*---------------------------------------------------------------------------*/
FoamFile
{
    version     2.0;
    format      ascii;
    class       volScalarField;
    location    "0.1";
    object      p;
}
// * * * * * * * * * * * * * * * * * * * * * * * * * * * * * * * * * * * * * //

dimensions      [1 -1 -2 0 0 0 0];


internalField   nonuniform List<scalar> 
100
(
300548
299779
299399
299187
298905
298615
298319
298006
297678
297334
296973
296594
296196
295776
295334
294868
294376
293856
293306
292723
292105
291449
290751
290008
289216
288369
287463
286492
285449
284326
283115
281805
280386
278843
277160
275319
273298
271070
268601
265853
262774
259299
255346
250798
245495
239195
231501
221686
208185
187238
147909
118992
102828
92406
84390.3
77704.1
72020.5
67132.6
62837.8
59036.9
55645.1
52586.6
49824.2
47313.4
45020.3
42912.1
40982.6
39190.6
37532.3
35995.5
34573.3
33233.5
31966.8
30868.7
29269.7
29596.4
65633.9
144890
158451
159235
160412
161424
162313
163338
164544
165650
166690
167857
169012
169903
170583
171063
171362
171714
172180
172688
173169
173563
173970
173896
)
;

boundaryField
{
    inlet
    {
        type            fixedValue;
        value           uniform 300000;
    }
    outlet
    {
        type            fixedValue;
        value           uniform 175000;
    }
    upperWall
    {
        type            zeroGradient;
    }
    lowerWall
    {
        type            zeroGradient;
    }
    frontAndBack
    {
        type            empty;
    }
}


// ************************************************************************* //
