/*--------------------------------*- C++ -*----------------------------------*\
| =========                 |                                                 |
| \\      /  F ield         | OpenFOAM: The Open Source CFD Toolbox           |
|  \\    /   O peration     | Version:  v1812                                 |
|   \\  /    A nd           | Web:      www.OpenFOAM.com                      |
|    \\/     M anipulation  |                                                 |
\*---------------------------------------------------------------------------*/
FoamFile
{
    version     2.0;
    format      ascii;
    class       volScalarField;
    location    "0.1";
    object      rho;
}
// * * * * * * * * * * * * * * * * * * * * * * * * * * * * * * * * * * * * * //

dimensions      [1 -3 0 0 0 0 0];


internalField   nonuniform List<scalar> 
100
(
2.11026
2.10548
2.10334
2.10234
2.10092
2.09946
2.09797
2.0964
2.09475
2.09302
2.09121
2.0893
2.0873
2.08518
2.08296
2.08061
2.07813
2.0755
2.07273
2.06979
2.06666
2.06335
2.05982
2.05605
2.05204
2.04775
2.04315
2.03821
2.03291
2.02719
2.02102
2.01434
2.00709
1.99919
1.99056
1.98111
1.97071
1.95921
1.94645
1.9322
1.91619
1.89805
1.87733
1.85337
1.82528
1.79167
1.75026
1.69681
1.62213
1.50475
1.27126
1.0891
0.981652
0.909438
0.851862
0.803285
0.761005
0.723661
0.690143
0.660196
0.632854
0.60782
0.584735
0.563627
0.543958
0.525674
0.50856
0.492655
0.477682
0.463652
0.450378
0.437899
0.425955
0.415415
0.399916
0.403078
0.631633
1.08595
1.1609
1.16567
1.17267
1.17761
1.18134
1.18683
1.19372
1.19915
1.20417
1.21054
1.21668
1.221
1.22459
1.22721
1.22858
1.23036
1.23279
1.23535
1.23784
1.23988
1.24197
1.24002
)
;

boundaryField
{
    inlet
    {
        type            calculated;
        value           uniform 2.10642;
    }
    outlet
    {
        type            calculated;
        value           uniform 1.24789;
    }
    upperWall
    {
        type            calculated;
        value           nonuniform List<scalar> 
100
(
2.11026
2.10548
2.10334
2.10234
2.10092
2.09946
2.09797
2.0964
2.09475
2.09302
2.09121
2.0893
2.0873
2.08518
2.08296
2.08061
2.07813
2.0755
2.07273
2.06979
2.06666
2.06335
2.05982
2.05605
2.05204
2.04775
2.04315
2.03821
2.03291
2.02719
2.02102
2.01434
2.00709
1.99919
1.99056
1.98111
1.97071
1.95921
1.94645
1.9322
1.91619
1.89805
1.87733
1.85337
1.82528
1.79167
1.75026
1.69681
1.62213
1.50475
1.27126
1.0891
0.981652
0.909438
0.851862
0.803285
0.761005
0.723661
0.690143
0.660196
0.632854
0.60782
0.584735
0.563627
0.543958
0.525674
0.50856
0.492655
0.477682
0.463652
0.450378
0.437899
0.425955
0.415415
0.399916
0.403078
0.631633
1.08595
1.1609
1.16567
1.17267
1.17761
1.18134
1.18683
1.19372
1.19915
1.20417
1.21054
1.21668
1.221
1.22459
1.22721
1.22858
1.23036
1.23279
1.23535
1.23784
1.23988
1.24197
1.24002
)
;
    }
    lowerWall
    {
        type            calculated;
        value           nonuniform List<scalar> 
100
(
2.11026
2.10548
2.10334
2.10234
2.10092
2.09946
2.09797
2.0964
2.09475
2.09302
2.09121
2.0893
2.0873
2.08518
2.08296
2.08061
2.07813
2.0755
2.07273
2.06979
2.06666
2.06335
2.05982
2.05605
2.05204
2.04775
2.04315
2.03821
2.03291
2.02719
2.02102
2.01434
2.00709
1.99919
1.99056
1.98111
1.97071
1.95921
1.94645
1.9322
1.91619
1.89805
1.87733
1.85337
1.82528
1.79167
1.75026
1.69681
1.62213
1.50475
1.27126
1.0891
0.981652
0.909438
0.851862
0.803285
0.761005
0.723661
0.690143
0.660196
0.632854
0.60782
0.584735
0.563627
0.543958
0.525674
0.50856
0.492655
0.477682
0.463652
0.450378
0.437899
0.425955
0.415415
0.399916
0.403078
0.631633
1.08595
1.1609
1.16567
1.17267
1.17761
1.18134
1.18683
1.19372
1.19915
1.20417
1.21054
1.21668
1.221
1.22459
1.22721
1.22858
1.23036
1.23279
1.23535
1.23784
1.23988
1.24197
1.24002
)
;
    }
    frontAndBack
    {
        type            empty;
    }
}


// ************************************************************************* //
