/*--------------------------------*- C++ -*----------------------------------*\
| =========                 |                                                 |
| \\      /  F ield         | OpenFOAM: The Open Source CFD Toolbox           |
|  \\    /   O peration     | Version:  v1812                                 |
|   \\  /    A nd           | Web:      www.OpenFOAM.com                      |
|    \\/     M anipulation  |                                                 |
\*---------------------------------------------------------------------------*/
FoamFile
{
    version     2.0;
    format      ascii;
    class       volScalarField;
    location    "0.1";
    object      T;
}
// * * * * * * * * * * * * * * * * * * * * * * * * * * * * * * * * * * * * * //

dimensions      [0 0 0 1 0 0 0];


internalField   nonuniform List<scalar> 
100
(
496.069
495.922
495.798
495.681
495.55
495.414
495.273
495.125
494.969
494.806
494.634
494.454
494.264
494.063
493.852
493.63
493.394
493.145
492.881
492.601
492.304
491.988
491.651
491.292
490.908
490.497
490.057
489.583
489.073
488.523
487.928
487.282
486.58
485.813
484.974
484.052
483.035
481.907
480.649
479.24
477.648
475.836
473.754
471.33
468.465
465.005
460.696
455.059
447.02
433.407
405.252
380.554
364.853
353.908
345.054
336.929
329.635
323.119
317.136
311.469
306.258
301.345
296.787
292.386
288.275
284.333
280.686
277.078
273.671
270.409
267.38
264.342
261.396
258.821
254.926
255.749
361.932
464.722
475.403
475.804
476.458
477.453
478.566
479.361
480.113
481.151
482.154
482.974
483.843
484.676
485.185
485.512
485.821
486.111
486.474
486.897
487.27
487.573
487.897
488.456
)
;

boundaryField
{
    inlet
    {
        type            totalTemperature;
        gamma           1.4;
        T0              uniform 500;
        value           uniform 496.067;
    }
    outlet
    {
        type            zeroGradient;
    }
    upperWall
    {
        type            zeroGradient;
    }
    lowerWall
    {
        type            zeroGradient;
    }
    frontAndBack
    {
        type            empty;
    }
}


// ************************************************************************* //
