/*--------------------------------*- C++ -*----------------------------------*\
| =========                 |                                                 |
| \\      /  F ield         | OpenFOAM: The Open Source CFD Toolbox           |
|  \\    /   O peration     | Version:  v1812                                 |
|   \\  /    A nd           | Web:      www.OpenFOAM.com                      |
|    \\/     M anipulation  |                                                 |
\*---------------------------------------------------------------------------*/
FoamFile
{
    version     2.0;
    format      ascii;
    class       volVectorField;
    location    "0.1";
    object      U;
}
// * * * * * * * * * * * * * * * * * * * * * * * * * * * * * * * * * * * * * //

dimensions      [0 1 -1 0 0 0 0];


internalField   nonuniform List<vector> 
100
(
(88.902 0.00011957 0)
(90.5624 0.00011957 2.18864e-15)
(91.927 0.00011957 0)
(93.2034 0.00011957 -2.37593e-15)
(94.604 0.00011957 0)
(96.0353 0.00011957 -2.43894e-15)
(97.5039 0.00011957 0)
(99.0234 0.00011957 -2.50855e-15)
(100.592 0.00011957 -2.54567e-15)
(102.212 0.000119571 -2.58364e-15)
(103.887 0.00011957 0)
(105.62 0.000119571 -2.66302e-15)
(107.413 0.00011957 0)
(109.271 0.000119571 0)
(111.196 0.00011957 -2.79154e-15)
(113.193 0.000119571 0)
(115.266 0.000119569 -5.76837e-15)
(117.419 0.00011957 0)
(119.658 0.000119572 -2.98304e-15)
(121.988 0.00011958 -3.03499e-15)
(124.414 0.000119547 -3.08874e-15)
(126.944 0.000119553 0)
(129.585 0.000119674 -3.20196e-15)
(132.343 0.000119573 0)
(135.229 0.000119164 -3.32351e-15)
(138.251 0.00011988 0)
(141.42 0.000120641 0)
(144.748 0.000117802 0)
(148.248 0.000118079 -3.59526e-15)
(151.935 0.000125203 0)
(155.825 0.000118068 -3.74759e-15)
(159.938 0.000109378 0)
(164.295 0.000132355 0)
(168.921 0.000123375 0)
(173.845 9.49158e-05 -4.09138e-15)
(179.1 0.00014484 -4.18648e-15)
(184.725 0.00012218 0)
(190.768 7.81266e-05 0)
(197.284 0.000177606 0)
(204.344 8.78067e-05 0)
(212.032 9.84629e-05 0)
(220.457 0.000204311 0)
(229.76 -0.000165223 0)
(240.134 0.000580913 0)
(251.846 0.00210506 5.23038e-15)
(265.301 -0.00717895 0)
(281.16 -0.0162175 -5.48698e-15)
(300.648 0.0977254 0)
(326.443 0.0517496 0)
(365.993 -1.02173 0)
(436.325 1.49398 0)
(490.078 3.64834 0)
(520.967 -3.57122 0)
(541.762 -3.89406 4.41906e-15)
(558.119 -9.75242e-05 0)
(572.367 1.33868 3.87795e-15)
(584.986 2.66857 0)
(596.21 2.26779 0)
(606.23 -0.766246 0)
(615.405 -1.35073 0)
(623.903 -1.84461 0)
(631.831 -1.64653 0)
(639.065 0.655401 0)
(645.833 0.93612 0)
(652.238 1.41618 2.56017e-15)
(658.308 1.37978 0)
(663.9 -0.332341 2.3649e-15)
(669.253 -0.478901 0)
(674.37 -1.14661 2.21165e-15)
(679.213 -1.17749 0)
(683.741 -0.0249009 0)
(688.133 0.0724904 0)
(692.452 0.896868 1.94992e-15)
(696.094 0.931369 0)
(701.852 0.261034 1.50801e-15)
(700.52 -0.0812635 0)
(526.661 -0.179169 2.13532e-15)
(267.705 -9.04799 0)
(229.617 12.7221 -3.22131e-15)
(221.481 7.5272 0)
(215.027 0.205088 5.8508e-15)
(209.712 -6.44071 0)
(204.137 -7.59482 2.82582e-15)
(199.455 -4.74873 2.75162e-15)
(195.95 0.458378 -2.72535e-15)
(192.227 4.35982 2.70427e-15)
(188.534 4.36038 0)
(185.621 1.73413 0)
(182.72 -1.64158 2.57874e-15)
(179.221 -2.88882 0)
(175.992 -1.62731 2.50568e-15)
(172.904 0.63006 2.4792e-15)
(169.433 1.7313 2.45024e-15)
(166.05 0.938573 0)
(162.761 -0.490015 2.38432e-15)
(159.588 -0.947235 2.36028e-15)
(157.067 -0.217681 2.32815e-15)
(155.089 0.488027 0)
(153.675 0.10979 -2.19105e-15)
(151.024 0.0204692 0)
)
;

boundaryField
{
    inlet
    {
        type            zeroGradient;
    }
    outlet
    {
        type            zeroGradient;
    }
    upperWall
    {
        type            slip;
    }
    lowerWall
    {
        type            slip;
    }
    frontAndBack
    {
        type            empty;
    }
}


// ************************************************************************* //
