/*--------------------------------*- C++ -*----------------------------------*\
| =========                 |                                                 |
| \\      /  F ield         | OpenFOAM: The Open Source CFD Toolbox           |
|  \\    /   O peration     | Version:  v1812                                 |
|   \\  /    A nd           | Web:      www.OpenFOAM.com                      |
|    \\/     M anipulation  |                                                 |
\*---------------------------------------------------------------------------*/
FoamFile
{
    version     2.0;
    format      ascii;
    class       volScalarField;
    location    "1.4";
    object      p;
}
// * * * * * * * * * * * * * * * * * * * * * * * * * * * * * * * * * * * * * //

dimensions      [1 -1 -2 0 0 0 0];


internalField   nonuniform List<scalar> 
20400
(
97938.7
97937.8
97937.3
97936.3
97935.3
97933.7
97932.1
97930
97927.8
97925.2
97922.6
97919.8
97916.9
97914
97911
97908.2
97905.1
97902.4
97899.6
97897.2
97894.5
97892.4
97890.1
97888.2
97886.3
97884.6
97883.1
97881.4
97880.6
97879.6
97878.7
97877.8
97877.4
97876.4
97876.1
97875.8
97875.7
97876.1
97876.1
97876.8
97877
97877.7
97878
97878.6
97878.9
97879.5
97879.9
97880.4
97881
97881.5
97882.1
97882.6
97883.1
97883.5
97884
97884.4
97884.8
97885.2
97885
97884.6
97883.2
97883
97882.1
97880.5
97879
97876.5
97874.4
97870.7
97869.1
97863.4
97862.5
97854.3
97852.8
97843.9
97842.6
97834.4
97831.2
97823.5
97819.7
97813.3
97809.8
97804.9
97802.9
97801.6
97801.6
97804.1
97808.4
97815.1
97824.2
97834.8
97847.5
97868
97886.1
97901.2
97922
97947.3
97972.6
97999.4
98025.9
98053
98079
98105.4
98130.2
98154.5
98176.7
98197.9
98217.6
98235.5
98251.6
98267.3
98281.2
98298.5
98314.8
98324
98336.8
98345.8
98354.2
98362.8
98369.6
98376.1
98382
98386.9
98392.2
98396.1
98399.8
98403
98405.6
98408.4
98409.8
98411.4
98412.5
98412.2
98412.5
98411.4
98410.9
98408.4
98407.2
98403.5
98400.6
98395.8
98391.7
98384.9
98379.7
98371.6
98365
98356.1
98348.5
98338.7
98328.8
98321.2
98315.6
98309.2
98304.9
98306
98307.9
98310.8
98317.5
98323.1
98330.8
98340.6
98349.4
98364.4
98380.5
98389.7
98401.1
98413.9
98423.6
98434.6
98441.8
98450.9
98455.2
98461.3
98465.2
98468.8
98471.3
98473.4
98473.4
98474.1
98472.9
98471.9
98470.6
98467.8
98465.9
98463.5
98459.3
98455.7
98450.9
98446.5
98441.5
98435.7
98431.6
98425.1
98421.1
98413.9
98409.9
98403.1
98399.1
98391.4
98388.3
98380.3
98376.6
98369.3
98365.5
98358.5
98354.9
98348.6
98345.5
98340.6
98338.3
98333.7
98331.7
98328
98326
98323.2
98321.8
98320
98319
98318
98318.1
98317
98316.1
98314.8
98314.1
98312.9
98312.3
98311.1
98310.6
98309.5
98308.8
98308
98307.4
98306.8
98306.8
98306.7
98306.8
98308
98309.1
98310.9
98313.7
98317
98320.4
98325
98329.6
98335.2
98341.2
98347.8
98354.4
98361.9
98369.7
98377.9
98385.7
98393.8
98401.4
98409.4
98416.7
98424.7
98431.3
98439.4
98446.2
98454.2
98460.5
98468.9
98474.5
98481.9
98486.7
98493.2
98499.2
98504.4
98510.7
98516
98521.2
98526.9
98532.2
98538.1
98543.1
98549.5
98554.5
98561.2
98566.1
98572.2
98577.2
98583.6
98588.6
98596
98601.6
98609.6
98616.3
98625.4
98633.2
98642.8
98651.7
98661.7
98671.5
98682.2
98692.6
98703.8
98714.9
98727.2
98738.6
98750.7
98761.9
98774.2
98785.9
98797.6
98809.3
98820.9
98832.1
98844
98855.3
98867.2
98878.6
98890.6
98902.3
98914.6
98927.2
98940.1
98953.9
98968
98983.1
98999.8
99016.5
99033.6
99052.4
99071.3
99091.7
99112.4
99134.3
99156.6
99179.4
99202.4
99225.7
99249.6
99272.7
99296.7
99319.9
99343.1
99365.3
99388.1
99409.8
99431.8
99453
99473.8
99494.3
99514.4
99534.4
99553.4
99572.7
99591.1
99609.9
99628
99646
99663.5
99681.2
99698.7
99715.7
99732.6
99749.5
99766
99783
99799.2
99815.9
99832
99848.6
99864.6
99880.9
99896.9
99913.3
99929.2
99945.6
99961.5
99977.6
99993.3
100010
100025
100041
100056
100072
100087
100103
100118
100133
100148
100163
100177
100191
100205
100219
100233
100247
100260
100273
100286
100299
100311
100324
100336
100348
100360
100373
100384
100396
100408
100419
100431
100443
100454
100466
100478
100490
100503
100515
100528
100541
100553
100567
100580
100594
100607
100621
100634
100648
100663
100677
100691
100705
100719
100733
100747
100761
100774
100788
100802
100815
100827
100841
100853
100865
100877
100889
100900
100911
100921
100931
100943
100952
100960
100970
100979
100987
100996
101004
101011
101020
101027
101035
101042
101050
101057
101064
101071
101078
101085
101092
101099
101106
101112
101119
101126
101133
101139
101146
101152
101159
101165
101172
101178
101185
101191
101198
101204
101211
101217
101223
101229
101235
101241
101248
101253
101260
101265
101271
101277
101283
101288
101294
101299
101305
101310
101315
101319
97939.4
97938.5
97938.1
97937
97935.9
97934.4
97932.5
97930.6
97928.2
97925.9
97923.1
97920.4
97917.4
97914.5
97911.5
97908.5
97905.7
97902.7
97900.1
97897.3
97895
97892.5
97890.4
97888.3
97886.4
97884.6
97883
97881.5
97880.5
97879.5
97878.4
97877.9
97877
97876.8
97876.2
97876
97876.2
97875.7
97876.5
97876.1
97877
97876.9
97877.7
97878
97878.6
97879.1
97879.7
97880.3
97881
97881.6
97882.1
97882.8
97883.2
97883.8
97884.2
97884.8
97884.9
97885.2
97885.2
97884.4
97884.1
97883.1
97882.4
97881.2
97879.7
97877.9
97874.6
97873.7
97868.4
97867.9
97860.9
97860.6
97850.5
97852.1
97840.6
97841.6
97830.6
97829.3
97820.8
97817.9
97811.9
97808.5
97804.8
97802.7
97801.3
97803.3
97806.2
97811.1
97818.1
97829.9
97846.9
97866.6
97887.6
97906.3
97928.3
97950.1
97970.8
97992.9
98018.2
98040.9
98067.9
98090.9
98118.3
98140
98165.2
98185.8
98208.9
98228.1
98239.7
98255.6
98266.2
98285.1
98296.9
98319.2
98330.4
98342.7
98352.5
98360.7
98368.5
98375
98381
98386.8
98390.9
98396.1
98399.2
98403.3
98405.6
98407.8
98410.3
98411.2
98412.7
98412.3
98411.9
98412.6
98409.7
98409.8
98406.1
98404.5
98399.3
98396.9
98389.8
98385.6
98377.9
98372.8
98361.6
98352.8
98343.4
98334.7
98326.8
98321.8
98316.8
98312.3
98314.1
98311.1
98310
98310
98312.7
98316.9
98322.4
98331.3
98339.1
98354.6
98367.1
98383
98397
98409.3
98421.1
98430.8
98441.5
98446.9
98455.3
98459.1
98464.1
98467.7
98471.5
98472.3
98472.8
98473.5
98472.7
98471.2
98469.7
98469.2
98465.6
98462.7
98460.4
98455.6
98451.1
98446.4
98441
98437.3
98429.9
98427
98419.9
98416.1
98407.9
98406.5
98396.7
98395.1
98385.6
98383.8
98373.6
98372.4
98362.4
98361.5
98352.2
98351.7
98342.5
98343.5
98335.9
98335.8
98330
98329.5
98324.9
98324.4
98321.2
98320.8
98318.4
98319.5
98317.5
98318
98315.5
98315.9
98313.6
98313.9
98311.9
98312.1
98310.6
98310.2
98309.2
98308.7
98307.9
98307.4
98307
98307.2
98307.5
98307.9
98309.6
98310.9
98314
98316.5
98320.7
98324
98328.8
98333.9
98340
98345.9
98353.7
98360.1
98368
98376.2
98384.4
98392.4
98399.6
98408.1
98416
98423.3
98431
98438
98446
98452.2
98461.9
98466.1
98476.5
98479.2
98488
98493.2
98498.8
98505.1
98510.4
98516.4
98521.4
98527.2
98533.1
98538
98544.9
98549
98556.7
98561.5
98567.8
98572.1
98579.5
98583
98591.7
98595.4
98604.6
98608.6
98619.2
98624.4
98635.7
98642.6
98653.6
98661.3
98673.3
98682.2
98694.1
98703.7
98716.4
98726.9
98740.1
98750.5
98763.4
98774.2
98787.3
98797.9
98810.7
98821.5
98833.6
98844.8
98857
98868.1
98880.1
98891.6
98903.7
98915.7
98928.2
98941.1
98954.2
98968.9
98983.2
99000
99015.9
99033.8
99051
99070.6
99089.8
99111.2
99132
99154.5
99176.9
99200.5
99223.5
99247.3
99271.6
99294.8
99318.9
99341.4
99364.5
99386.6
99408.9
99430.5
99452.8
99473
99494.1
99514.2
99533.6
99553.9
99571.9
99591.8
99609.3
99628.3
99645.9
99663.8
99681.3
99698.8
99715.8
99733
99749.4
99766.7
99782.7
99799.9
99815.7
99832.7
99848.3
99865.3
99880.8
99897.5
99912.9
99929.8
99945.4
99962.1
99977.5
99993.8
100009
100025
100041
100056
100072
100088
100102
100118
100133
100148
100162
100177
100191
100206
100219
100233
100246
100260
100273
100286
100298
100312
100324
100337
100348
100361
100372
100385
100396
100408
100419
100431
100443
100454
100466
100478
100490
100503
100515
100528
100540
100554
100566
100580
100593
100607
100620
100634
100648
100662
100676
100690
100704
100719
100732
100747
100760
100774
100788
100801
100815
100827
100840
100853
100865
100877
100889
100900
100911
100921
100931
100942
100952
100961
100970
100979
100987
100996
101003
101012
101019
101027
101035
101042
101049
101057
101064
101072
101078
101086
101092
101099
101106
101113
101119
101126
101132
101139
101145
101152
101159
101166
101172
101179
101185
101192
101197
101204
101210
101217
101223
101229
101235
101242
101247
101254
101259
101266
101271
101277
101282
101288
101294
101300
101305
101310
101315
101318
97939.6
97938.6
97938.2
97937
97936.1
97934.4
97932.8
97930.6
97928.5
97925.8
97923.3
97920.4
97917.6
97914.6
97911.6
97908.6
97905.5
97902.7
97899.8
97897.2
97894.5
97892.3
97890
97888
97886
97884.3
97882.7
97881.4
97880.4
97879.4
97878.6
97877.6
97877.2
97876.3
97876
97875.9
97875.7
97876.2
97876.2
97876.8
97877
97877.7
97878
97878.7
97879.1
97879.8
97880.3
97880.9
97881.5
97882
97882.6
97883.1
97883.8
97884.2
97885
97885
97885.6
97885.4
97885.7
97885.3
97884.8
97883.9
97883.1
97881.6
97881.7
97878.8
97878.1
97873.7
97874.1
97866.6
97867.5
97858.6
97858.3
97848.5
97847.7
97837.7
97835.7
97826.3
97822.5
97815.2
97811.5
97805.2
97803.1
97799.3
97799.3
97801.1
97804.7
97810.5
97819.6
97831
97840.6
97853.3
97870.4
97889.1
97910.6
97933.9
97961.9
97988.3
98017.4
98041.7
98068.7
98095.4
98119.1
98146
98166.3
98191
98209.7
98227.2
98247.5
98262
98283.2
98294.5
98310.4
98316.4
98333
98341.4
98352.8
98360.8
98369.3
98374.3
98382.6
98385.7
98392.4
98394.9
98400.6
98402.3
98406
98408.8
98410.2
98412.3
98412.9
98412.1
98413.3
98411
98412.4
98408.1
98408.3
98403
98401
98395.1
98391.9
98384
98379.5
98369.9
98362.6
98355.4
98348.1
98340.5
98334.6
98326.9
98318.7
98313
98303.6
98303.1
98300.9
98305.5
98310.7
98314.2
98325.9
98332
98345
98354.2
98370.2
98380
98395.2
98408.5
98419.4
98431
98437.9
98448.2
98452.9
98460.5
98462.6
98468.8
98469.9
98473
98471.7
98473.9
98472.7
98472.2
98470.4
98465.3
98467.4
98462.8
98459.3
98456.2
98451.4
98446.2
98441.9
98435.4
98432.3
98425.4
98422.4
98413.7
98411.6
98402.3
98401.5
98390
98392
98378.3
98379.4
98367
98368.6
98355.7
98358.9
98344.7
98350.1
98336.8
98341.5
98330.6
98334
98325.5
98328.1
98321.1
98323.8
98318.1
98321.3
98317.3
98320.4
98316.6
98318.1
98314.4
98316.1
98312.5
98314.2
98311.1
98312.2
98310.2
98309.9
98308.9
98308.6
98307.3
98307.5
98307.1
98306.9
98308.6
98308.6
98310.8
98312.9
98316.7
98318.6
98324.3
98327.7
98333.3
98338.6
98346
98351.8
98360
98366.9
98375.5
98383.2
98392.3
98400
98408.7
98414.1
98424.7
98428.9
98440.1
98443.9
98455.3
98455.8
98472.5
98468.9
98485.8
98484.2
98493.9
98500
98504.7
98512.1
98516.3
98522.1
98527.6
98532.5
98539.4
98543.7
98551.5
98555.3
98562.9
98567
98574.6
98577.2
98587.2
98587.7
98601.1
98599.4
98613.7
98614.2
98629.7
98631.8
98646.5
98649.9
98664.1
98670
98684.8
98691.9
98706.2
98714.4
98729.4
98738.3
98752.8
98761.3
98776.4
98786
98799.4
98810.1
98822.4
98833.3
98846.1
98856.4
98869
98879.7
98892.1
98903.2
98915.6
98927.8
98940.3
98954.1
98967.1
98982.5
98998.4
99015.5
99031.3
99050.8
99068.8
99089.9
99109.3
99131.6
99154
99176.6
99200
99224
99247.3
99270.5
99294.9
99318.6
99341.8
99364
99387.2
99408.7
99431.4
99451.9
99474
99493.9
99514.3
99534.5
99552.5
99573.4
99590.3
99610.4
99627.9
99646.5
99663.7
99681.4
99698.5
99715.9
99732.4
99749.9
99765.9
99783.5
99798.9
99816.5
99831.4
99849.2
99864.1
99881.5
99896.3
99914.1
99928.5
99946.1
99961.1
99978
99992.8
100010
100024
100041
100056
100072
100087
100103
100117
100133
100147
100163
100176
100192
100205
100220
100233
100247
100259
100273
100285
100299
100311
100325
100336
100349
100360
100373
100384
100396
100407
100419
100431
100442
100454
100466
100478
100490
100502
100515
100527
100541
100552
100567
100579
100593
100605
100620
100633
100648
100662
100676
100689
100704
100717
100732
100746
100760
100774
100787
100802
100814
100826
100839
100852
100865
100877
100889
100900
100911
100921
100932
100942
100952
100961
100970
100978
100987
100995
101004
101011
101020
101027
101035
101042
101050
101057
101065
101071
101079
101085
101093
101099
101106
101112
101119
101125
101133
101139
101146
101152
101159
101165
101172
101178
101185
101191
101198
101204
101211
101216
101224
101229
101236
101241
101248
101253
101260
101265
101272
101276
101283
101288
101294
101299
101305
101311
101315
101317
97940.2
97939.3
97938.9
97937.6
97936.6
97935
97933
97931
97928.5
97926.1
97923.3
97920.6
97917.5
97914.6
97911.5
97908.5
97905.4
97902.5
97899.7
97896.9
97894.4
97892
97889.8
97887.8
97885.9
97884.2
97882.6
97881.3
97880
97879
97878.2
97877.4
97877
97876.7
97876.6
97876.1
97876.6
97876
97876.7
97876.4
97876.9
97877
97877.5
97878
97878.6
97879.4
97880.1
97880.9
97881.8
97882.5
97883.3
97884
97884.7
97885.3
97885.7
97886.1
97886.1
97886.1
97886.2
97885.9
97886
97885.8
97885.3
97884.3
97882.8
97882.8
97878.7
97878.4
97873.8
97872.2
97866.8
97864.6
97858
97854.9
97847.4
97843.6
97835.3
97830.8
97821.9
97817.9
97809.6
97805.5
97800
97795.4
97793.9
97794
97796.8
97801.2
97808.5
97819.6
97835.3
97853.9
97866.4
97893.7
97907.6
97933.1
97955.4
97984.1
98008.7
98038.4
98063.8
98090.8
98117.2
98140.7
98166.4
98185.8
98210.9
98229.3
98243.5
98265.9
98277.2
98296
98306.8
98320.7
98329.3
98343.9
98350.6
98362.9
98366.6
98377.2
98379.3
98388.7
98389.6
98397.9
98398.7
98404.1
98406.3
98408.7
98411.1
98412.3
98413.1
98413.9
98412.5
98414.2
98410
98412
98405.9
98406
98399.3
98398.1
98390.6
98385.8
98378.1
98371.1
98364.2
98356.5
98347.8
98339.6
98332.7
98323
98316.6
98303.6
98305.5
98297.9
98299.6
98301.3
98301.2
98313.4
98312.2
98326.1
98335.6
98353.3
98361.1
98378.8
98392.3
98405.5
98416.9
98428.8
98438.1
98444.4
98452.3
98458.2
98463.5
98466.2
98468.2
98471.1
98472.5
98470.8
98473
98471.4
98468.2
98468.3
98463.8
98462
98459.2
98455
98450.4
98446
98440.7
98436.3
98428.8
98427.2
98419.1
98417.2
98407.3
98406.4
98396.1
98396.2
98385.5
98385.4
98372.8
98372.8
98361.9
98364.3
98349.2
98356.6
98337.6
98347.8
98331.4
98338.8
98326.3
98331.7
98321.3
98327.3
98317.5
98324.3
98315.8
98322.9
98316.9
98321.1
98315.3
98318.9
98312.8
98317
98311.3
98315
98310.6
98312.3
98309.9
98310.6
98308.8
98308.3
98307.6
98307
98308
98307
98308.7
98310
98312.5
98314.1
98319.8
98320.5
98327.5
98330.9
98337.9
98342.9
98352.5
98356.5
98366.1
98373.5
98382.1
98391
98399.1
98406.4
98415.3
98422.4
98430.9
98435.9
98446.9
98448.9
98465.6
98459
98481.7
98473.2
98492.1
98492.5
98499.6
98505.9
98510.6
98517
98521.8
98527.6
98533.4
98538.2
98545.3
98549.3
98558.1
98562.3
98569.7
98571.8
98583.1
98580.3
98596.4
98592.3
98609.3
98603.8
98624.3
98619.4
98638.7
98640.2
98656.4
98657
98677
98678.4
98698.1
98701.3
98719.5
98725.3
98742.7
98748.7
98765.9
98772.7
98790.2
98798.1
98811.9
98821.3
98835.2
98845.9
98859.2
98868.5
98881.3
98891.7
98904
98915.1
98927.5
98940.2
98951.6
98967.6
98981.2
98997.2
99012.9
99031.5
99047
99068.6
99086.2
99109.1
99128.2
99151.2
99174
99200.2
99223.6
99245.1
99270.5
99293.6
99317.5
99340.3
99364.5
99386.1
99409.3
99430.2
99453
99472.9
99494.7
99514.4
99534.3
99554.2
99571.9
99592.5
99609.1
99628.7
99645.8
99663.8
99681.4
99698.6
99715.8
99732.9
99749
99766.8
99782.2
99800
99814.8
99833.1
99847.3
99865.6
99879.8
99897.8
99911.6
99930.5
99944.5
99962.3
99976.7
99993.8
100008
100025
100040
100057
100071
100088
100102
100118
100132
100148
100162
100177
100191
100206
100219
100234
100246
100260
100273
100286
100298
100312
100323
100337
100348
100361
100372
100385
100396
100408
100419
100430
100442
100454
100465
100477
100489
100502
100514
100528
100539
100553
100565
100580
100591
100606
100618
100633
100647
100661
100675
100689
100704
100718
100731
100746
100759
100774
100787
100801
100814
100826
100839
100852
100865
100876
100889
100900
100912
100921
100932
100942
100951
100961
100970
100979
100987
100996
101003
101012
101019
101027
101034
101042
101049
101057
101064
101072
101078
101085
101092
101099
101105
101113
101119
101126
101132
101139
101145
101152
101158
101165
101172
101179
101185
101192
101197
101205
101210
101217
101222
101230
101235
101242
101246
101254
101259
101266
101271
101277
101282
101289
101293
101300
101305
101310
101316
101315
97940.8
97939.9
97939.5
97938.1
97937.2
97935.3
97933.5
97931.2
97928.9
97926.2
97923.5
97920.5
97917.6
97914.5
97911.4
97908.2
97905.1
97902.1
97899.2
97896.4
97893.7
97891.3
97889
97887
97885.1
97883.4
97882
97880.9
97879.9
97879.1
97878.3
97877.5
97876.7
97876.3
97875.6
97875.9
97875.2
97876.2
97875.7
97876.9
97876.7
97877.9
97877.9
97879
97879.2
97880.3
97880.7
97881.6
97882.2
97882.8
97883.3
97883.9
97884.6
97885.2
97885.9
97886.3
97886.9
97887.1
97886.9
97888.6
97888.3
97888.2
97887.2
97887.4
97885.6
97884.8
97882.5
97880.3
97877.3
97874.1
97869.9
97865.9
97860.3
97855.2
97848.9
97841.7
97836.1
97826
97821.9
97811.8
97806.6
97797.9
97791.5
97789.6
97785.1
97787.2
97787.9
97793.8
97801.8
97812.3
97824.9
97835.9
97863.7
97872.8
97904.6
97920.8
97953.1
97976.5
98007.4
98033.5
98063
98087.8
98116.3
98139.6
98165.1
98188.1
98208
98229.3
98251.1
98263.9
98282.6
98294.5
98309.8
98319.3
98332.9
98341.2
98354.6
98359.2
98370.9
98373.1
98385.1
98383.6
98394.7
98393.6
98401.4
98402.7
98407
98408.8
98411.4
98412.4
98413.9
98413.7
98414.8
98412.2
98414.5
98408.7
98411.1
98403.7
98403.4
98396.3
98393.6
98387.8
98381
98374.4
98367
98359
98350.3
98342.6
98330.1
98323.2
98308.8
98308.1
98292.1
98293.1
98290.7
98291.3
98301.4
98296
98316.7
98318.2
98336.2
98339.3
98364.4
98374.2
98390
98402
98417.1
98424.8
98435.3
98441.3
98451.2
98456.7
98462.1
98464.4
98467.7
98468.9
98470.4
98471
98470.4
98468.1
98468.2
98465
98463.5
98460
98457.5
98453.4
98448.9
98444
98439.3
98433.5
98428.8
98422.3
98420.9
98411.1
98409.2
98400.3
98399.6
98388.1
98390.4
98376.1
98379.1
98365
98369.4
98353.9
98360.9
98341.9
98352.9
98333
98344
98327.6
98334.2
98322.4
98328.8
98317.6
98327
98314
98324.9
98316
98323.3
98316.2
98321.8
98313.5
98319.9
98311
98318.2
98309.9
98315.5
98309.7
98312.2
98309.3
98310
98308.1
98307.3
98307.4
98305.9
98307.6
98307.6
98309.2
98310.8
98315.1
98314.7
98323.8
98322.3
98332.3
98334.6
98343.8
98349.1
98358.2
98364.8
98373.9
98382.8
98388.5
98398.7
98406.7
98413.4
98422.5
98428.7
98438.1
98444
98455.2
98452.1
98476
98462.9
98489.1
98480.9
98495.9
98499.6
98505.1
98511
98515.3
98521.6
98526.5
98532.1
98538
98543.3
98550.3
98555
98563.7
98565.8
98574.8
98576.4
98589
98585.6
98602.4
98597.3
98616.8
98610.3
98631.5
98628.7
98647.9
98647
98668
98663.6
98689.6
98687.3
98710.3
98711.6
98732.9
98735
98756.2
98758
98780.7
98783.5
98803.6
98807.7
98823.6
98833.6
98848.3
98857.3
98871.1
98879.4
98893.2
98902.5
98914.8
98926.1
98938.2
98952.3
98964
98979.9
98994.9
99011.7
99027.4
99048.3
99063.1
99087.8
99104.5
99128.9
99150.8
99174.5
99197.2
99222.2
99246.9
99269.3
99294.1
99317.7
99342.2
99363.5
99387.5
99408.1
99431.5
99452.6
99474.7
99494
99514.4
99535
99553.2
99573.2
99590.7
99610.9
99627.9
99646.1
99664.2
99681.1
99698.7
99715.3
99732.4
99749.3
99765.4
99783.1
99798.1
99816.3
99830.4
99849.3
99862.9
99881.8
99895
99914.4
99926.9
99946.5
99960.1
99978.2
99991.8
100010
100022
100041
100054
100073
100087
100103
100117
100133
100147
100163
100176
100191
100204
100220
100233
100247
100260
100273
100285
100299
100311
100324
100335
100349
100360
100373
100383
100396
100407
100419
100430
100441
100453
100465
100477
100489
100501
100515
100526
100540
100551
100566
100578
100592
100605
100619
100632
100647
100660
100675
100689
100704
100718
100732
100745
100759
100773
100787
100799
100813
100826
100838
100851
100865
100877
100889
100900
100910
100922
100931
100941
100952
100960
100969
100978
100987
100995
101003
101011
101019
101026
101035
101041
101050
101056
101064
101071
101078
101084
101092
101098
101105
101112
101119
101125
101132
101138
101145
101152
101159
101165
101172
101178
101185
101191
101198
101203
101211
101216
101223
101229
101236
101240
101248
101252
101260
101265
101272
101276
101283
101287
101295
101299
101306
101311
101315
101315
97941.6
97940.8
97940.4
97939
97938
97936.2
97934.2
97932
97929.4
97926.7
97923.7
97920.7
97917.5
97914.4
97911.2
97908
97905
97901.7
97898.9
97895.9
97893.4
97890.8
97888.6
97886.6
97884.7
97883.3
97881.9
97880.5
97879.2
97878.4
97877.6
97877.4
97876.3
97876.9
97876
97876
97876.2
97875.9
97876.7
97875.9
97877.2
97876.4
97877.9
97877.5
97879.1
97879
97880.4
97880.5
97881.9
97882.3
97883.3
97884.1
97885.3
97886.1
97887.2
97887.6
97888.3
97888.4
97889.2
97890.1
97891.2
97890.3
97891
97888.9
97889.6
97886.5
97886.1
97882.2
97880.3
97875.7
97872.1
97866.7
97860.9
97855.5
97846.9
97843
97831.5
97827.3
97815
97809.6
97801.6
97791.9
97790.6
97778.6
97780.5
97775.1
97778.7
97782.9
97790.2
97801.2
97811.7
97832
97842.6
97872
97890
97917.8
97941.8
97972.9
97997.5
98030.7
98056.1
98084.8
98110.6
98138.9
98161.6
98186.6
98209.5
98229.4
98245.7
98265.2
98278.1
98294.2
98306
98319.1
98330.1
98342.9
98350.4
98362
98365.9
98375.7
98378.6
98388.3
98389.1
98397
98398.5
98404.3
98405.7
98409.6
98410.7
98413.1
98413.6
98414.9
98414.3
98415.4
98411.8
98414.2
98407
98409
98400.6
98400.6
98393.5
98389.3
98381.7
98375.8
98366.9
98357.1
98348.2
98335.4
98328.6
98312.8
98309.9
98290.4
98292.1
98285.4
98283.9
98286.7
98283.1
98301.6
98294.2
98317.8
98321.9
98344.4
98347.4
98372.1
98383.5
98400
98410.6
98424.5
98429.9
98439.9
98444.6
98454.9
98457.8
98462.3
98463.7
98466.1
98468
98468.6
98466.5
98467.2
98464.8
98463.1
98459.1
98458.1
98453.5
98450.6
98445.7
98441.2
98435.7
98430.8
98425.1
98421
98415.3
98410.3
98402.3
98401.3
98391.1
98390.7
98382.1
98381.4
98369.8
98372.3
98359.2
98360.3
98350.1
98354.3
98336.4
98347.8
98330
98337.9
98324.4
98330.6
98317.3
98328.3
98314.2
98326.6
98313.8
98325.2
98315.3
98322.9
98315.8
98321.9
98311.7
98321.2
98309.4
98319.4
98308.7
98315.8
98308.4
98312.9
98308.7
98308.3
98307.8
98305.9
98307.3
98306.2
98307.2
98308.4
98310.8
98311.3
98318.1
98316
98327.9
98325
98337.7
98338.9
98351
98353.8
98365.3
98372
98380.2
98389.9
98396.8
98406
98414.7
98421.8
98429.3
98436.5
98445.5
98448.8
98463.8
98455.7
98482.1
98470.9
98491
98490.7
98499.6
98503.8
98509.3
98514.4
98519.9
98525.5
98531.1
98536.7
98542.4
98548
98554.5
98559.9
98566.6
98570.5
98579.8
98580
98593.6
98591.8
98607.2
98604.5
98624.7
98617.4
98638.1
98637.7
98654.8
98655.6
98678.5
98674.9
98700.6
98699.7
98722.4
98721.8
98746.1
98743.8
98771.8
98767.3
98794.7
98793.2
98814.4
98819.1
98837.7
98846.6
98860.5
98868.8
98882.3
98890.6
98903.4
98912.8
98925.5
98937.5
98948.5
98965
98977.3
98992.9
99009
99026.7
99043
99065.9
99080.4
99107.3
99125.2
99148.5
99171.3
99197.6
99221.6
99244.8
99269.8
99293.5
99317.6
99339.7
99365.4
99386.3
99410.1
99429.8
99453.6
99473.3
99495.4
99515.2
99534.9
99553.5
99573.2
99591.2
99610.3
99628.4
99646.3
99663.4
99681.2
99698
99715.3
99731.7
99748.5
99765.4
99781.5
99799.1
99813.7
99832.4
99845.8
99865.4
99878.3
99898.2
99910.1
99930.9
99942.7
99962.4
99975.2
99993.9
100006
100026
100037
100058
100070
100088
100102
100119
100132
100148
100161
100177
100190
100206
100218
100233
100246
100260
100273
100286
100298
100312
100323
100337
100347
100360
100372
100384
100395
100407
100419
100429
100442
100453
100465
100477
100489
100501
100513
100527
100538
100553
100564
100578
100591
100605
100618
100633
100646
100660
100674
100688
100702
100716
100731
100744
100758
100773
100786
100799
100811
100826
100838
100851
100864
100876
100889
100899
100910
100920
100931
100940
100951
100960
100969
100977
100987
100995
101003
101011
101018
101027
101033
101042
101048
101057
101063
101071
101077
101085
101091
101099
101104
101112
101118
101125
101131
101138
101145
101152
101158
101165
101171
101178
101185
101192
101197
101205
101210
101218
101222
101230
101234
101241
101246
101254
101258
101266
101271
101277
101282
101289
101293
101301
101305
101311
101316
101313
97942.7
97941.8
97941.4
97940
97938.9
97936.9
97934.9
97932.6
97930
97927.2
97924.2
97921
97917.7
97914.4
97910.9
97907.7
97904.3
97901.3
97898
97895.3
97892.6
97889.9
97887.7
97885.4
97883.6
97882.1
97880.9
97879.9
97879.1
97878.2
97877.8
97876.3
97877
97875.4
97876.4
97875.4
97876
97875.8
97876.4
97876.5
97876.8
97877.3
97877.4
97878.4
97878.4
97880
97879.7
97881.3
97881.4
97883
97883.5
97885.2
97886
97887.3
97888.1
97889.2
97889.5
97890.8
97891.7
97892
97892.4
97893.2
97892.7
97892.5
97891.2
97890.2
97887.8
97885.5
97882.2
97878.4
97874.1
97868.5
97863.7
97854.9
97850.6
97839.2
97834.6
97821.2
97813.9
97805.3
97795.1
97790.2
97772.7
97775.7
97764.5
97766.8
97766.9
97771.6
97777.9
97785
97800.9
97806.5
97839.7
97853.5
97882.2
97906.5
97935
97962.1
97996.8
98021.6
98053.3
98079.8
98109.2
98133.8
98161.5
98182
98208.8
98225.7
98249.1
98260
98278.1
98290.6
98305.1
98318.3
98329.2
98339.8
98349.6
98357.3
98366.2
98371.9
98379.3
98383.9
98390.1
98393.3
98399.1
98401.5
98405.9
98407.6
98410.8
98412.1
98413.8
98414.2
98415.4
98414.2
98415.3
98410.8
98413.1
98405
98406.9
98397.7
98396.9
98387.6
98383.9
98373.7
98365.5
98356.4
98344.7
98336
98319.8
98317.7
98293.7
98292.1
98280.7
98277.6
98276.4
98274.4
98285.8
98277.7
98304.3
98299.8
98323.9
98330.8
98349.9
98359.2
98384.1
98394.2
98409.6
98418.5
98430.5
98434.2
98442
98448.7
98453.9
98457.5
98460.8
98462.6
98464.1
98462.9
98464.8
98461.9
98461.6
98457.5
98457.3
98452.8
98451
98446.5
98442.4
98437.7
98432.3
98428.3
98423.1
98418
98412.2
98406.3
98400.6
98393.2
98390.7
98380.9
98382
98371
98372.6
98362.5
98363.9
98352.4
98355.3
98339.1
98351.4
98332.6
98342.8
98324.3
98333.2
98320.4
98329.3
98313.8
98327
98313.7
98324.9
98315.5
98323.7
98314.8
98321.9
98314.7
98322.1
98310.5
98322.1
98307.9
98320
98307.4
98315.6
98307.6
98311.4
98308.2
98306.5
98307.3
98305.3
98306.4
98306.8
98307.9
98309.5
98312.7
98313.2
98321.9
98318.8
98333.3
98329
98344.4
98344.8
98357.6
98360
98373.7
98378.1
98388.8
98397
98404.8
98413.5
98421.4
98427.7
98435.4
98444.9
98450.5
98452.3
98472.1
98462.6
98485.1
98480.3
98494.3
98496
98502.9
98507.4
98512.9
98518.3
98523.3
98529.4
98534.6
98540.7
98546.5
98552.6
98558.5
98563.7
98570.2
98574.4
98582.9
98585
98597.1
98596.1
98612.3
98612.5
98629.7
98627
98645.4
98646.3
98666.7
98661.7
98688.9
98686.5
98710.2
98711.9
98733.6
98732.9
98759.9
98754.3
98786.1
98776.6
98807
98803.3
98827.9
98830.5
98850.3
98857.5
98872.8
98880
98893.1
98900
98913.1
98923.8
98935.3
98950.2
98960.8
98977
98990.5
99006.7
99023.7
99042.4
99059.5
99084.4
99100.1
99126.7
99147.3
99171.2
99195.2
99220.8
99243.5
99269.5
99292.8
99316
99341.9
99362.6
99386.9
99407.7
99432.1
99451.3
99474.8
99494.3
99515.2
99533.8
99553.8
99572.3
99590.9
99609.7
99628
99645.2
99663
99680.3
99697.9
99714.3
99731.3
99747.9
99764.6
99781.2
99797.3
99814.8
99829.1
99848.3
99861.2
99881.4
99893.6
99914.6
99925.6
99946.9
99957.9
99978.5
99989.7
100011
100021
100043
100052
100073
100086
100103
100117
100133
100146
100162
100176
100191
100204
100220
100233
100247
100259
100273
100285
100298
100311
100324
100336
100349
100359
100372
100383
100395
100407
100418
100430
100441
100453
100465
100477
100489
100501
100514
100526
100540
100551
100565
100577
100592
100604
100619
100632
100646
100660
100675
100687
100703
100716
100731
100744
100759
100771
100787
100797
100813
100825
100837
100851
100863
100876
100886
100898
100910
100919
100930
100939
100950
100960
100967
100977
100985
100994
101002
101010
101018
101025
101033
101040
101049
101055
101064
101070
101078
101084
101092
101097
101106
101111
101119
101123
101132
101137
101146
101151
101158
101164
101171
101178
101185
101191
101198
101204
101211
101216
101223
101228
101235
101240
101247
101253
101260
101265
101272
101276
101283
101287
101295
101299
101306
101311
101315
101314
97943.9
97942.9
97942.5
97941.1
97939.9
97937.8
97935.6
97933.2
97930.5
97927.6
97924.5
97921.1
97917.8
97914.1
97910.8
97907
97903.9
97900.5
97897.3
97894.5
97891.4
97889.3
97886.6
97885.1
97883.3
97881.8
97880.5
97879.5
97878.4
97877.9
97876.7
97877.2
97875.9
97876.6
97875.6
97876.1
97875.6
97876
97876
97876.4
97876.6
97877.2
97877.3
97878.3
97878.4
97879.9
97880.4
97881.2
97882.7
97882.9
97885
97885.5
97887.5
97888.2
97889.8
97890.6
97891.6
97892.9
97894.9
97895.5
97895.7
97896.2
97896.2
97895.8
97894.8
97893.4
97891.5
97888.9
97885.5
97881.6
97876.4
97871.1
97863.2
97858.8
97847.3
97841.7
97829.4
97821
97810.9
97800.7
97793.1
97773.7
97775.2
97758.7
97758.2
97753.7
97754.3
97758.3
97761.4
97775.1
97779.1
97808.8
97817.4
97847.2
97868.7
97901.3
97926.8
97956.8
97986.9
98018.6
98045.8
98078
98104.1
98132.3
98155.1
98183.7
98199.4
98228.8
98237.3
98261.2
98273.4
98289.1
98301.3
98315
98327.4
98336.1
98347.3
98355.8
98363.8
98370.4
98377.2
98382.4
98388.4
98392.4
98396.9
98400.5
98403.9
98406.9
98409.4
98411.7
98412.5
98413.8
98414.6
98415.4
98413.5
98414.2
98409.2
98410.7
98401.6
98403.5
98392.2
98390.9
98379.8
98374.3
98364
98352.3
98343.8
98327.5
98322
98300
98295.5
98281.7
98276.8
98272.1
98268.7
98271.5
98268.8
98287.2
98279.3
98308.7
98307.5
98334
98339.2
98361.3
98373.2
98392.9
98399.7
98417.6
98420
98429.8
98437.4
98443.5
98449.5
98452.1
98456.1
98458.9
98457.7
98460.7
98457
98459.4
98454.5
98455.4
98451.3
98449.4
98445.8
98440.8
98437.4
98431.6
98428.1
98421.8
98418.9
98411.4
98407.3
98400.3
98396.9
98391.3
98385.9
98379.7
98372.8
98371.5
98362.3
98364.1
98354.4
98356
98344
98350.5
98333.9
98342.7
98326.9
98335.3
98322.1
98332
98317.6
98329.3
98312.5
98324.3
98315.3
98323.4
98314
98323.1
98316.1
98322.2
98313.3
98322.1
98309.4
98322.7
98306.9
98320
98306
98316.2
98306.9
98308.4
98308.7
98306
98306.9
98306.3
98307.1
98308.2
98309.9
98311.7
98316
98316.4
98326.1
98323.1
98339.2
98333.9
98351.8
98349.3
98364.2
98368.3
98379.4
98385.2
98396.3
98402.8
98413
98419.2
98426.9
98433.5
98442.7
98447.5
98459.5
98455.8
98474.8
98470.7
98485.6
98487.7
98495.2
98499.4
98505.4
98510.4
98515.4
98521.5
98526.6
98532.4
98537.9
98544
98549.7
98556.2
98562.4
98568.2
98573.5
98579.3
98585.3
98590.8
98600.2
98602.9
98618
98620.1
98635
98637.3
98653.5
98654.1
98676.6
98672.8
98698.4
98698.7
98720.6
98722.3
98745.8
98744.6
98772.2
98765.6
98800.2
98785.9
98820.3
98813.1
98841.2
98841.8
98862.5
98867.8
98882.3
98889.3
98903
98910.4
98924.4
98935.8
98945.4
98962.8
98973.8
98989.8
99004.8
99021.6
99039.4
99059.7
99077.5
99103.4
99119.9
99147
99169.6
99196