/*--------------------------------*- C++ -*----------------------------------*\
| =========                 |                                                 |
| \\      /  F ield         | OpenFOAM: The Open Source CFD Toolbox           |
|  \\    /   O peration     | Version:  v1812                                 |
|   \\  /    A nd           | Web:      www.OpenFOAM.com                      |
|    \\/     M anipulation  |                                                 |
\*---------------------------------------------------------------------------*/
FoamFile
{
    version     2.0;
    format      ascii;
    class       surfaceScalarField;
    location    "1.4";
    object      phi;
}
// * * * * * * * * * * * * * * * * * * * * * * * * * * * * * * * * * * * * * //

dimensions      [1 0 -1 0 0 0 0];
oriented        oriented;


internalField   nonuniform List<scalar> 
40240
(
-1.36595e-05
3.6295e-05
-7.85865e-05
8.77044e-05
-0.000178173
0.000122499
-0.000309216
0.000154236
-0.000460634
0.000174823
-0.000629714
0.000192838
-0.000823199
0.000217431
-0.00102426
0.000225323
-0.00125114
0.000251348
-0.00147947
0.000253158
-0.00173096
0.000276567
-0.00197966
0.00027406
-0.00224396
0.000289892
-0.00250444
0.000286167
-0.00277161
0.00029316
-0.00303802
0.000292282
-0.00330337
0.000291502
-0.00357427
0.000296761
-0.00383801
0.000289845
-0.00410658
0.000294403
-0.00436335
0.000282817
-0.00461482
0.00027737
-0.00484229
0.000253429
-0.00504638
0.000230006
-0.00521166
0.000191359
-0.00533608
0.000150695
-0.00541285
0.00010336
-0.00544708
6.08547e-05
-0.00544492
2.4841e-05
-0.00540858
-9.55864e-06
-0.00534284
-3.90864e-05
-0.00523714
-7.89572e-05
-0.00512529
-8.57599e-05
-0.00499722
-0.000101867
-0.00488161
-8.97327e-05
-0.00476501
-9.06084e-05
-0.00465133
-8.74009e-05
-0.0045551
-6.97633e-05
-0.00444114
-8.69647e-05
-0.00433946
-7.43309e-05
-0.00420294
-0.00010866
-0.00406227
-0.00011232
-0.00389228
-0.00014121
-0.00371426
-0.000148645
-0.00352214
-0.000162252
-0.00332656
-0.00016538
-0.00312731
-0.000168705
-0.00292706
-0.000169493
-0.00272303
-0.000172998
-0.00251214
-0.000179468
-0.00229828
-0.000182102
-0.00208012
-0.00018609
-0.00186874
-0.000179332
-0.00166475
-0.000171471
-0.00147644
-0.000155911
-0.00130186
-0.000142315
-0.00113729
-0.000132644
-0.000988037
-0.000117436
-0.000848087
-0.000108548
-0.000752662
-6.39452e-05
-0.000683237
-3.81009e-05
-0.000653124
1.30758e-06
-0.000639197
1.73953e-05
-0.00071797
0.00010854
-0.000802749
0.000118021
-0.00101066
0.000243114
-0.00120935
0.00023156
-0.00154541
0.000369447
-0.00186173
0.000347216
-0.00233782
0.000505724
-0.00280473
0.000501867
-0.00341097
0.000651811
-0.00408612
0.000691853
-0.00487535
0.000818206
-0.00577491
0.000927495
-0.00677196
0.00102863
-0.00792649
0.00118524
-0.00915437
0.00125867
-0.0105527
0.00142872
-0.0120386
0.00151651
-0.0136757
0.00166782
-0.0153826
0.00173829
-0.0171594
0.00180947
-0.0189409
0.00181604
-0.0207251
0.00182091
-0.0223942
0.00170807
-0.0238859
0.00153181
-0.0250924
0.00124683
-0.025921
0.000869042
-0.0263384
0.000455712
-0.0264097
0.000114559
-0.0262053
-0.000162096
-0.0256533
-0.000508166
-0.0250309
-0.000578958
-0.0243109
-0.000675223
-0.0233937
-0.000873834
-0.0223377
-0.0010156
-0.0211488
-0.00114884
-0.0197606
-0.00134924
-0.0182853
-0.00143456
-0.0166466
-0.00159482
-0.0149998
-0.00160178
-0.0132579
-0.00169442
-0.0115503
-0.0016589
-0.00983263
-0.00166834
-0.00817529
-0.00160802
-0.00659689
-0.00152671
-0.00507666
-0.00146566
-0.00365018
-0.00137064
-0.00241889
-0.00117363
-0.00129502
-0.00106569
-0.000404486
-0.000833156
8.49617e-05
-0.000430578
0.000699536
-0.000552879
0.00114308
-0.000384969
0.00164686
-0.000447374
0.00213615
-0.000419505
0.00258203
-0.000388294
0.00301738
-0.000368483
0.00341966
-0.000337836
0.0038121
-0.000326266
0.00416098
-0.000281222
0.00450349
-0.000277875
0.00479856
-0.000226009
0.0050726
-0.00021417
0.00528947
-0.000151609
0.00548392
-0.000135591
0.00560154
-5.80982e-05
0.0057092
-4.82118e-05
0.00574486
2.21455e-05
0.00575897
4.18422e-05
0.00574114
7.32249e-05
0.00566054
0.000134859
0.00554962
0.000164872
0.00537495
0.000229366
0.00517793
0.000250101
0.00496674
0.000266794
0.00471824
0.000301424
0.00449047
0.000280353
0.00422726
0.000315638
0.00399251
0.00028684
0.00370618
0.000336477
0.00343368
0.000323679
0.00310215
0.000384357
0.00276022
0.000395134
0.00237419
0.000437166
0.00212909
0.000290026
0.00161408
0.000567136
0.00120884
0.000454676
0.000524771
0.000733392
-0.000110183
0.000684741
-0.000793903
0.000732433
-0.00136926
0.000621236
-0.00181331
0.000490093
-0.00209502
0.000327422
-0.00220414
0.000157488
-0.00213016
-2.17123e-05
-0.00185582
-0.000219518
-0.00143464
-0.000365009
-0.000872681
-0.00050986
-0.000432728
-0.000381929
0.000139629
-0.000521459
0.000473794
-0.000281748
0.00114598
-0.000619789
0.00180177
-0.000604915
0.0025899
-0.000736653
0.00332533
-0.000685114
0.00418604
-0.000815894
0.00497517
-0.000738637
0.00581939
-0.000800828
0.0066077
-0.000738834
0.00742779
-0.000771621
0.00817107
-0.000703858
0.00891342
-0.000705753
0.00962223
-0.00066607
0.0102737
-0.000620484
0.0108791
-0.000568302
0.0114279
-0.000514703
0.0119282
-0.000470383
0.0123584
-0.000391537
0.0127609
-0.000367913
0.0130454
-0.000244555
0.0133036
-0.000225229
0.013421
-7.86723e-05
0.0135099
-5.31815e-05
0.0134998
4.38087e-05
0.0134208
0.000108499
0.0132724
0.000172746
0.0130308
0.000260986
0.0127622
0.000285049
0.0123815
0.000394226
0.0119992
0.000392287
0.0115447
0.000458979
0.0110444
0.000501148
0.0105549
0.000486412
0.0100243
0.000525721
0.00951324
0.000502681
0.00894628
0.000556968
0.00844542
0.000490241
0.00788659
0.000549028
0.0074153
0.000460953
0.00690838
0.000497655
0.00649675
0.00039863
0.00604443
0.000437265
0.00570726
0.000320629
0.00532512
0.000364339
0.00505411
0.000254163
0.00475502
0.000283921
0.00453576
0.000202593
0.00429782
0.000222799
0.00412944
0.000149582
0.00394892
0.000162402
0.00382916
0.000100438
0.00369802
0.000110465
0.00361883
6.02781e-05
0.00352772
7.13367e-05
0.0034793
3.00801e-05
0.00342429
3.7625e-05
0.00337917
2.88801e-05
0.00331109
5.29931e-05
0.00322565
7.18913e-05
0.00312582
8.79305e-05
0.00302792
8.74939e-05
0.00291813
0.000100584
0.00281891
9.15353e-05
0.00270826
0.00010347
0.00260539
9.83323e-05
0.00249156
0.000108333
0.00237977
0.000108695
0.00226175
0.000115097
0.00214715
0.000114204
0.00202999
0.000117107
0.00192657
0.000102369
0.00182923
0.000101872
0.00175734
7.39563e-05
0.00168649
7.54512e-05
0.0016519
3.95531e-05
0.00162517
3.25186e-05
0.00163282
-4.29482e-07
0.00165283
-1.094e-05
0.00172815
-6.55101e-05
0.00182134
-7.97272e-05
0.00196965
-0.000134902
0.0021434
-0.000156067
0.00237164
-0.000211218
0.0026158
-0.000224631
0.00292558
-0.00028879
0.00322985
-0.00028377
0.00361596
-0.000363719
0.00401283
-0.000370107
0.00445302
-0.000412926
0.00489051
-0.000410256
0.00532825
-0.000407571
0.00577584
-0.000415392
0.00619823
-0.0003845
0.0066169
-0.000385719
0.00699904
-0.000345245
0.00739165
-0.000357234
0.00772168
-0.000288675
0.00806371
-0.000307665
0.0083475
-0.000237253
0.0086605
-0.000272477
0.00891522
-0.000207105
0.00918047
-0.000211317
0.0094011
-0.000161821
0.00960424
-0.000143374
0.00972124
-4.99445e-05
0.00981357
-2.40244e-05
0.00982619
5.94114e-05
0.00982215
7.90098e-05
0.00976401
0.000136025
0.00966218
0.000181971
0.00953596
0.00020894
0.00935223
0.000269777
0.0091593
0.000282555
0.00891007
0.000342989
0.00865961
0.000348261
0.00838285
0.000378068
0.00807791
0.000411165
0.00778161
0.000407528
0.00745176
0.000443555
0.00714469
0.000423442
0.00680023
0.00046108
0.00649704
0.000420851
0.00615582
0.000460017
0.00587438
0.00040211
0.00557075
0.000425396
0.00534235
0.000351909
0.00510398
0.000364884
0.00492673
0.000303302
0.0047399
0.000317063
0.00460529
0.000265681
0.00446527
0.000270654
0.00437596
0.000219523
0.0042796
0.00022706
0.00421869
0.000193241
0.00414658
0.000205496
0.0040899
0.000190691
0.00401791
0.000206201
0.00393849
0.000213226
0.00384651
0.000225958
0.00376811
0.000211917
0.00368034
0.000221063
0.00358167
0.000231467
0.00347962
0.000235964
0.00336165
0.000252037
0.00322965
0.000267662
0.00310096
0.000263889
0.00295972
0.000277275
0.00282725
0.000268575
0.0026882
0.000274682
0.00256173
0.000263382
0.0024302
0.000268112
0.00232016
0.000246389
0.00220677
0.000251356
0.00213383
0.00021233
0.00205574
0.000215809
0.00202613
0.000166608
0.00200593
0.000156967
0.00202178
0.000120421
0.00205467
0.00010433
0.00214347
5.03874e-05
0.00224558
3.70196e-05
0.00239661
-9.90795e-06
0.00255782
-2.03011e-05
0.00278341
-8.34007e-05
0.00301302
-8.60307e-05
0.00332345
-0.00016601
0.00363232
-0.000163049
0.00399292
-0.000211739
0.00436106
-0.000221043
0.00475648
-0.000248889
0.00514211
-0.000239999
0.00554939
-0.000261503
0.00594376
-0.000247038
0.00632576
-0.000237892
0.00669511
-0.000219862
0.00704254
-0.000202861
0.00738062
-0.000189068
0.00767625
-0.000154596
0.00796657
-0.000148721
0.00820859
-9.77617e-05
0.00844454
-9.59631e-05
0.00861331
-3.23892e-05
0.00878444
-3.45395e-05
0.00889464
2.65168e-05
0.00900671
2.64633e-05
0.00907388
7.29596e-05
0.00913851
7.63732e-05
0.0091632
0.000115523
0.00918552
0.000117964
0.00918005
0.000145296
0.0091686
0.000151104
0.00914686
0.000161093
0.00911255
0.000172851
0.00907126
0.000179492
0.00901626
0.000193051
0.00896058
0.000194117
0.00889967
0.00019999
0.0088353
0.000204336
0.00877769
0.000198264
0.00871434
0.000204818
0.00865955
0.000196556
0.00860036
0.000201685
0.00855135
0.000191605
0.00849605
0.000198068
0.00845716
0.000182506
0.00841376
0.000186879
0.00838133
0.000175796
0.0083449
0.000180465
0.00831199
0.000176684
0.00827495
0.000180942
0.008256
0.000164553
0.00823477
0.000167367
0.00823317
0.000146806
0.00822722
0.000150719
0.00823142
0.000140291
0.00822777
0.000147835
0.00823031
0.000141693
0.00822515
0.000149452
0.0082182
0.000151291
0.00820312
0.00015844
0.00819143
0.000154994
0.00816943
0.00016439
0.00815143
0.000159805
0.00812102
0.000171937
0.00809259
0.000169949
0.00805248
0.000181306
0.00801625
0.000177354
0.00797176
0.000184411
0.0079294
0.000182186
0.00787616
0.000191856
0.00782571
0.000188846
0.0077667
0.000195213
0.00770272
0.000198621
0.00763407
0.000202954
0.00757083
0.00019573
0.00749891
0.000204275
0.00743714
0.000193213
0.0073688
0.000198308
0.00730985
0.000188563
0.00724871
0.000189546
0.00719719
0.000178497
0.00714907
0.000175287
0.00711837
0.00015581
0.00708963
0.000152446
0.00708351
0.000128785
0.00708345
0.000122304
0.00709052
0.000113789
0.00711499
9.53715e-05
0.00714756
8.58418e-05
0.00720005
6.49229e-05
0.00726496
5.02678e-05
0.0073518
2.80935e-05
0.0074545
9.971e-06
0.00758365
-1.66325e-05
0.00772552
-3.13177e-05
0.00790066
-6.36865e-05
0.00808031
-7.22505e-05
0.00829383
-0.000105311
0.00851765
-0.000115435
0.00875727
-0.00014288
0.00903028
-0.000160495
0.00931231
-0.00017559
0.00959873
-0.000184693
0.00990338
-0.00019801
0.0102036
-0.000198702
0.0104999
-0.00020361
0.0108136
-0.000211421
0.011115
-0.000202057
0.0114097
-0.000211962
0.0117002
-0.000194493
0.0119932
-0.0002036
0.0122676
-0.000181657
0.0125364
-0.000183317
0.012783
-0.000165606
0.0130409
-0.000174921
0.0132425
-0.000122926
0.0134401
-0.000122155
0.0135795
-6.22706e-05
0.0137127
-6.02898e-05
0.0137926
-6.85036e-06
0.0138739
-4.99758e-06
0.0138954
5.22119e-05
0.0139229
4.57001e-05
0.013925
6.94231e-05
0.0139215
7.39894e-05
0.0138954
9.66495e-05
0.013851
0.000110251
0.0137915
0.000122051
0.013714
0.000137595
0.0136344
0.00013669
0.0135353
0.000153713
0.0134357
0.000152637
0.0133354
0.000150262
0.0132293
0.000155531
0.0131314
0.000144472
0.0130311
0.000146899
0.0129449
0.000131236
0.0128549
0.000134671
0.0127801
0.000116222
0.012703
0.000116605
0.0126356
0.000105912
0.0125629
0.00010829
0.012506
9.31821e-05
0.0124383
0.000100369
0.0123811
8.87483e-05
0.0123219
9.03973e-05
0.0122742
7.68031e-05
0.0122221
7.97933e-05
0.0121827
6.74457e-05
0.0121402
6.87172e-05
0.0121105
5.44333e-05
0.0120742
5.93328e-05
0.0120463
4.93283e-05
0.0120156
5.09286e-05
0.0119906
4.25137e-05
0.0119602
4.7172e-05
0.01194
3.55355e-05
0.0119138
4.01745e-05
0.0118935
3.35094e-05
0.0118688
3.72029e-05
0.0118501
3.0308e-05
0.0118262
3.50834e-05
0.0118068
3.0128e-05
0.0117813
3.55908e-05
0.0117619
2.92707e-05
0.0117379
3.27834e-05
0.0117184
2.77435e-05
0.0116926
3.29364e-05
0.0116686
3.03662e-05
0.0116391
3.51624e-05
0.0116144
2.96466e-05
0.0115859
3.28185e-05
0.0115661
2.35954e-05
0.0115457
2.32182e-05
0.011544
3.66804e-06
0.0115375
7.76506e-06
0.0115026
3.4782e-05
5.9732e-05
-6.04698e-05
0.000119527
-0.000235266
0.000285412
-0.000495468
0.000405732
-0.000839589
0.000521557
-0.0012303
0.000589
-0.00167582
0.000661962
-0.00213468
0.000700288
-0.00263486
0.000749463
-0.00312675
0.000767759
-0.00365333
0.0008043
-0.00415556
0.00080393
-0.00467816
0.000821825
-0.0051668
0.000804137
-0.00565807
0.000803146
-0.00611707
0.000777873
-0.00656205
0.000763274
-0.00698538
0.000740531
-0.00738066
0.000717983
-0.00776164
0.000696372
-0.00810415
0.000662732
-0.00843094
0.000635187
-0.00871062
0.000582846
-0.00896127
0.000529716
-0.00916112
0.000455585
-0.00931863
0.000374579
-0.00942609
0.000284181
-0.0094896
0.000193102
-0.0095108
0.000108656
-0.00949091
3.17494e-05
-0.0094409
-3.27717e-05
-0.00934659
-0.000106691
-0.00924837
-0.000150672
-0.00909211
-0.000215257
-0.00894859
-0.00021942
-0.00877612
-0.000235961
-0.00859368
-0.000247104
-0.00842088
-0.000233899
-0.0082044
-0.00025988
-0.00801518
-0.000249402
-0.00777251
-0.00028957
-0.00754643
-0.000307041
-0.00726964
-0.000360924
-0.00699266
-0.000389441
-0.00667688
-0.000434924
-0.00635332
-0.000455998
-0.00600669
-0.000481761
-0.00565005
-0.000494807
-0.00528621
-0.000502497
-0.00491216
-0.000515834
-0.00453951
-0.000520523
-0.00416213
-0.000527479
-0.00379387
-0.000522183
-0.00342987
-0.000510709
-0.00308894
-0.000480154
-0.00276831
-0.000444252
-0.0024841
-0.000394447
-0.00223992
-0.0003448
-0.00202497
-0.000300629
-0.00186916
-0.000232926
-0.00174007
-0.000161423
-0.00169772
-4.86611e-05
-0.00167687
1.18905e-05
-0.00181666
0.00018733
-0.00194547
0.000272799
-0.00234987
0.000542815
-0.00271509
0.000649155
-0.00337012
0.000927277
-0.00399237
0.00101419
-0.00488766
0.00127653
-0.00578572
0.00143324
-0.00689355
0.00164256
-0.00810046
0.00189087
-0.00942381
0.00204462
-0.0109452
0.00236908
-0.012498
0.00250882
-0.0142785
0.00283985
-0.0160483
0.00298652
-0.0180226
0.00326389
-0.0199551
0.00339245
-0.0219827
0.00357467
-0.0239145
0.00363105
-0.0258249
0.00368015
-0.0275542
0.00357174
-0.0291168
0.00341323
-0.0304433
0.00318416
-0.0314928
0.00279535
-0.0322874
0.00236538
-0.0328357
0.00183382
-0.0331852
0.00125782
-0.0333617
0.000672407
-0.0333273
0.000122732
-0.0331223
-0.000324494
-0.0326631
-0.000924742
-0.0319112
-0.00128652
-0.030922
-0.00161721
-0.0297061
-0.00204518
-0.0283223
-0.0023575
-0.0267364
-0.00270014
-0.0249592
-0.00308537
-0.023011
-0.00334308
-0.0209283
-0.00363297
-0.0187381
-0.00374762
-0.0164584
-0.00392785
-0.0141486
-0.00392187
-0.0118096
-0.00395903
-0.00947791
-0.00389087
-0.00719119
-0.0037628
-0.00513856
-0.00346503
-0.00346492
-0.00299501
-0.00210907
-0.00247505
-0.000836726
-0.00228103
0.00031729
-0.00192537
0.00187029
-0.00191886
0.00309425
-0.0017174
0.00455257
-0.00177334
0.00580468
-0.00164226
0.00696514
-0.00153819
0.00809552
-0.00143917
0.00910759
-0.00131634
0.0100631
-0.00122781
0.0109099
-0.00110692
0.0117351
-0.00103971
0.0124473
-0.000918694
0.0131222
-0.000840302
0.0136724
-0.000697316
0.0141873
-0.000607233
0.0145506
-0.000424274
0.0148921
-0.000346723
0.0150579
-0.000153249
0.0151925
-5.49106e-05
0.0152116
7.84344e-05
0.0151342
0.000206843
0.0149902
0.000333301
0.0146709
0.000539268
0.0143185
0.000634616
0.0138275
0.000798976
0.0132682
0.000876076
0.0126715
0.000951303
0.0119939
0.00101287
0.0113277
0.0010338
0.0105622
0.00110281
0.00979206
0.00115514
0.0089581
0.00121199
0.00807343
0.00131796
0.00703999
0.00148047
0.00606345
0.00145843
0.00465205
0.00175388
0.00354357
0.00172538
0.00219843
0.0018503
0.00122762
0.00175315
0.000231512
0.00173125
-0.000531601
0.00154051
-0.00112684
0.00125967
-0.00153436
0.000942893
-0.00184643
0.000682857
-0.00193543
0.000294087
-0.00180625
-0.000102059
-0.00154619
-0.000427393
-0.000984471
-0.000871401
-0.000402127
-0.00103848
0.000568605
-0.00129631
0.00151458
-0.00141036
0.00318989
-0.00189673
0.00479112
-0.002162
0.00670147
-0.0024645
0.00852934
-0.00251683
0.0105222
-0.00262847
0.0124023
-0.00264614
0.0143041
-0.00262124
0.016175
-0.0025874
0.0179974
-0.00250452
0.019707
-0.00244445
0.0214006
-0.00235268
0.0229787
-0.00224521
0.0244825
-0.0021195
0.0258939
-0.00200871
0.0271781
-0.00181881
0.0283989
-0.00170388
0.0294569
-0.00150331
0.0305225
-0.00142136
0.0313989
-0.00119237
0.0321845
-0.0010102
0.0327265
-0.000728649
0.0332683
-0.000582506
0.0334993
-0.000245785
0.0336689
-9.36942e-05
0.0336497
0.000155841
0.0334836
0.000362512
0.0332013
0.000562615
0.032678
0.000824985
0.032143
0.000943301
0.0313824
0.00116307
0.0305596
0.0012884
0.0296187
0.00144004
0.0285962
0.00150959
0.0275261
0.00158884
0.0263532
0.00167124
0.0251902
0.00170715
0.0239442
0.0017284
0.0227603
0.00172188
0.0214942
0.001721
0.0204018
0.00158314
0.0192004
0.00158743
0.0182116
0.00141258
0.0171203
0.00139282
0.0162941
0.00117358
0.0153844
0.00114687
0.0146881
0.00096228
0.0139454
0.000933419
0.0133786
0.000770375
0.0127807
0.000732757
0.0123472
0.000578346
0.0118883
0.000539107
0.0115878
0.000392866
0.0112637
0.000362328
0.0110676
0.000251
0.0108528
0.000224021
0.0106983
0.000175332
0.0105351
0.000175732
0.0103397
0.000232994
0.0101097
0.000288224
0.0098594
0.000326087
0.00958288
0.000353216
0.00931859
0.000356321
0.00903143
0.000369265
0.00875996
0.000370868
0.00846276
0.00038522
0.00817727
0.000392188
0.00786789
0.000413012
0.00757033
0.000410671
0.00725748
0.000423634
0.00696641
0.000406774
0.00669353
0.000379921
0.00646462
0.000328595
0.00624883
0.000297269
0.00613336
0.000195262
0.00602477
0.000153205
0.0060093
5.48289e-05
0.00603302
-1.69297e-05
0.00617508
-0.000144714
0.00636272
-0.000240449
0.00670867
-0.000417617
0.00710775
-0.000513012
0.00764253
-0.000678702
0.00822523
-0.000772869
0.0089658
-0.000942696
0.00969953
-0.0010061
0.0105956
-0.00115715
0.0114957
-0.00124105
0.012531
-0.00137601
0.0135508
-0.0014068
0.0146032
-0.00143574
0.0156568
-0.00143127
0.0166871
-0.00141163
0.0176968
-0.00135981
0.018659
-0.00131376
0.0195979
-0.00124631
0.0204435
-0.00116701
0.0213013
-0.00110958
0.0220099
-0.00097473
0.0227772
-0.000963052
0.0234188
-0.000871809
0.0241218
-0.000859861
0.0247301
-0.000766332
0.0253334
-0.000713669
0.0257724
-0.00051956
0.0262102
-0.000423325
0.0264339
-0.000174233
0.0266274
-6.50057e-05
0.0266657
0.000116834
0.0266533
0.000226519
0.0265394
0.000375575
0.0263115
0.000520085
0.0260561
0.0006105
0.0256508
0.000777066
0.025237
0.000849948
0.0247137
0.000968963
0.0241503
0.00104282
0.0235373
0.00112938
0.0228551
0.0012008
0.0221896
0.00122236
0.0214331
0.00129678
0.0207233
0.00128709
0.0199301
0.00133467
0.0192197
0.00128734
0.0184384
0.00130556
0.0177985
0.00118451
0.0171161
0.00116132
0.0165783
0.00102456
0.0160052
0.00100226
0.0155811
0.000874556
0.0151144
0.000863183
0.0147912
0.000726142
0.0144384
0.000702816
0.0142101
0.000586622
0.0139527
0.000580962
0.0137648
0.000528131
0.0135485
0.00054055
0.0133292
0.000560299
0.0130732
0.000604434
0.0128219
0.000610588
0.0125491
0.000618714
0.012281
0.000622142
0.0119801
0.000665014
0.0116726
0.000676334
0.0113297
0.000731256
0.0109678
0.0007643
0.0105825
0.000784586
0.0102033
0.000792746
0.00979874
0.000807097
0.00942552
0.000786643
0.00903889
0.000784267
0.00869975
0.000743216
0.00835467
0.000728525
0.00810064
0.000641631
0.0078399
0.000612318
0.0077064
0.000491694
0.00757812
0.000428655
0.0075693
0.000301996
0.00760673
0.000220007
0.00777215
7.69637e-05
0.00797214
-1.25945e-05
0.00833081
-0.000174228
0.00870884
-0.000254373
0.00924289
-0.000410237
0.00978582
-0.000486061
0.0104964
-0.000652808
0.0112102
-0.000736335
0.012074
-0.000880434
0.0129477
-0.000934119
0.0138862
-0.00100899
0.014832
-0.00104978
0.0158083
-0.00107432
0.0167647
-0.00106995
0.0177126
-0.00104641
0.0186488
-0.00102644
0.0195227
-0.000949846
0.0203866
-0.000913408
0.0211581
-0.000823934
0.0219166
-0.000770516
0.0225824
-0.000666922
0.0232363
-0.00061342
0.0237598
-0.000477021
0.0242822
-0.000411667
0.0246554
-0.000274429
0.0250394
-0.000218603
0.0252958
-9.24342e-05
0.0255662
-5.53448e-05
0.025712
6.85734e-05
0.0258684
0.000100799
0.0259332
0.000194526
0.0259943
0.000224638
0.0259913
0.000294642
0.0259768
0.000315682
0.0259301
0.000358922
0.0258482
0.000400133
0.0257599
0.000419742
0.025637
0.000455578
0.025509
0.000467343
0.0253759
0.000477184
0.0252279
0.000487084
0.0250914
0.000482057
0.0249414
0.000489335
0.0248117
0.000473729
0.0246628
0.000483334
0.0245478
0.000457019
0.0244146
0.000458859
0.0243075
0.000438081
0.0241889
0.000437689
0.0240862
0.000426781
0.0239688
0.000439172
0.0238751
0.000419835
0.0237678
0.000415683
0.0237
0.000381
0.0236231
0.000369706
0.0235782
0.000341037
0.0235246
0.000338922
0.0234881
0.000328777
0.0234245
0.000349795
0.0233684
0.000349769
0.0232966
0.000367391
0.0232205
0.000377848
0.0231354
0.000382767
0.0230518
0.000390469
0.0229497
0.000403548
0.0228522
0.000411895
0.0227351
0.000429768
0.0226216
0.000435839
0.0224896
0.000450063
0.0223628
0.000450933
0.0222236
0.000461074
0.0220855
0.000468898
0.0219345
0.00047607
0.0217867
0.000481552
0.0216166
0.000503049
0.0214582
0.000496962
0.021277
0.000509063
0.0211187
0.000494051
0.0209439
0.000498637
0.0207898
0.000482576
0.0206285
0.000479589
0.0204937
0.000452878
0.0203562
0.000444747
0.0202571
0.000399533
0.0201589
0.000380063
0.0201176
0.00031761
0.0200841
0.000285071
0.0200848
0.000243845
0.0201127
0.000206531
0.0201633
0.00016479
0.020259
0.000109088
0.0203738
6.67141e-05
0.0205424
-7.44359e-07
0.0207333
-5.03031e-05
0.0209907
-0.000132812
0.0212694
-0.000185012
0.0216231
-0.000274112
0.021997
-0.000328015
0.0224452
-0.00041157
0.0229115
-0.000460819
0.0234286
-0.000534119
0.02399
-0.000591137
0.0245806
-0.000647625
0.025199
-0.000689458
0.0258504
-0.000726648
0.026505
-0.000755657
0.0271769
-0.000766733
0.02786
-0.0007871
0.0285185
-0.000779569
0.0291918
-0.000781823
0.0298428
-0.000766144
0.0305153
-0.000778136
0.031128
-0.000718786
0.0317629
-0.000728771
0.032353
-0.000688401
0.0329719
-0.000687866
0.033487
-0.000619067
0.0340205
-0.000578014
0.034442
-0.000466432
0.0348605
-0.000406559
0.0351651
-0.000290107
0.0354643
-0.000234481
0.0356593
-0.000128006
0.0358618
-7.63306e-05
0.0359722
9.27691e-06
0.0360841
2.92219e-05
0.0361147
0.000115712
0.0361268
0.000154992
0.0360871
0.00021549
0.0360056
0.000267099
0.0359033
0.000300109
0.0357533
0.000343813
0.0355957
0.000367503
0.0354044
0.000394926
0.035198
0.000410143
0.0349913
0.000411425
0.0347693
0.000412832
0.0345621
0.000401604
0.0343307
0.000406566
0.0341339
0.000376107
0.0339169
0.000375105
0.0337307
0.000341969
0.0335218
0.000350366
0.0333575
0.000314534
0.033159
0.000324371
0.0329984
0.000293442
0.0328241
0.000296946
0.0326807
0.000266415
0.0325204
0.000265356
0.0323913
0.000236878
0.0322557
0.000231512
0.0321506
0.000201114
0.0320366
0.0001943
0.031947
0.000173147
0.0318459
0.000172133
0.0317707
0.00014673
0.0316814
0.000151116
0.031612
0.000132102
0.0315336
0.000130861
0.0314727
0.000115754
0.0313997
0.000119985
0.0313431
0.000106843
0.0312739
0.000111251
0.03122
0.0001001
0.0311536
0.000107203
0.0310996
0.000100169
0.0310318
0.000106217
0.0309776
9.63204e-05
0.0309112
0.000102195
0.0308536
9.80743e-05
0.0307833
0.000107383
0.030722
0.000102067
0.0306483
0.000108309
0.03059
9.53745e-05
0.0305226
9.47155e-05
0.030476
7.2543e-05
0.0304315
5.10879e-05
0.030401
3.92781e-05
0.0303244
0.000111758
0.000123958
-9.50601e-05
0.000237401
-0.000366315
0.000579669
-0.00076456
0.000827026
-0.00126398
0.0010443
-0.00183967
0.00118801
-0.00246678
0.00131285
-0.00313538
0.00139249
-0.00380635
0.00144464
-0.00449431
0.00147978
-0.00515306
0.00148787
-0.00581138
0.00148695
-0.0064225
0.00145816
-0.00701838
0.00142516
-0.00756166
0.00137204
-0.00807586
0.00131781
-0.00854144
0.00125451
-0.00896978
0.00119463
-0.00935654
0.00113037
-0.00969829
0.0010638
-0.0100038
0.000993908
-0.0102602
0.000917323
-0.010479
0.000827197
-0.0106496
0.000725943
-0.0107821
0.000613792
-0.0108753
0.000493428
-0.0109353
0.00036989
-0.0109645
0.000248634
-0.010964
0.000134475
-0.0109361
3.02652e-05
-0.0108781
-6.42008e-05
-0.010809
-0.000149149
-0.0107046
-0.000228391
-0.0106006
-0.000292498
-0.0104512
-0.000342345
-0.010286
-0.000374898
-0.0101111
-0.000395678
-0.00988436
-0.000434322
-0.00966996
-0.000447634
-0.00939592
-0.000496529
-0.00913477
-0.000523363
-0.00883208
-0.000581704
-0.00852653
-0.000637945
-0.00819066
-0.000696305
-0.00783754
-0.000758654
-0.00746077
-0.000802951
-0.00706017
-0.000852291
-0.00664238
-0.000882139
-0.00620878
-0.000905362
-0.00576902
-0.000924359
-0.00532735
-0.000930462
-0.00489396
-0.000928826
-0.0044685
-0.000915532
-0.00406162
-0.000885609
-0.00367493
-0.000834851
-0.00332512
-0.000762389
-0.00301473
-0.000672936
-0.00275759
-0.000570158
-0.00257317
-0.000453133
-0.00243647
-0.000338116
-0.00238707
-0.000179394
-0.00236439
-3.99654e-05
-0.00252375
0.000202839
-0.00266803
0.000363801
-0.00310167
0.000736031
-0.00352538
0.000998263
-0.00422633
0.00138153
-0.00496699
0.00170096
-0.00592757
0.0020061
-0.00701156
0.00239135
-0.00822858
0.00268258
-0.00961738
0.00306322
-0.0110749
0.0033793
-0.0127286
0.0037281
-0.0144069
0.00407642
-0.0162624
0.00439337
-0.0181048
0.00471272
-0.020066
0.00497843
-0.0219824
0.0052116
-0.0239118
0.0053537
-0.0257434
0.00543659
-0.0274568
0.00537666
-0.0290371
0.00529355
-0.0303928
0.00496085
-0.0315701
0.00462514
-0.0324495
0.00409994
-0.0331147
0.0034978
-0.0335512
0.00283951
-0.0338324
0.0021527
-0.0339801
0.001444
-0.0340267
0.000756666
-0.0339747
0.00010854
-0.0337363
-0.000522422
-0.0334465
-0.00117307
-0.0326703
-0.00201848
-0.0316371
-0.00260492
-0.0302122
-0.00341716
-0.0285515
-0.00396724
-0.0266703
-0.00453084
-0.0246591
-0.00506427
-0.0225079
-0.00545076
-0.0202555
-0.00584343
-0.0179057
-0.00605522
-0.0155027
-0.00628786
-0.0130635
-0.00631676
-0.0106352
-0.00634154
-0.00829051
-0.00619012
-0.00606747
-0.00593875
-0.00409219
-0.00539212
-0.00242016
-0.0046152
-0.000607807
-0.00423599
0.000974519
-0.00380974
0.00295753
-0.00385323
0.00483774
-0.00374299
0.00694811
-0.00376643
0.00882191
-0.00358976
0.0105825
-0.0033398
0.0122314
-0.00312396
0.0136652
-0.00282141
0.0150765
-0.00265139
0.0162563
-0.00236445
0.0174462
-0.00221045
0.0184272
-0.0019586
0.0194058
-0.00181651
0.0202
-0.00157398
0.0209573
-0.001396
0.0215356
-0.00109694
0.0220939
-0.000934729
0.0224242
-0.000614593
0.0227478
-0.000412696
0.0228897
-0.000137952
0.0229267
9.98147e-05
0.0228392
0.000351168
0.0225801
0.000648408
0.0222687
0.000905191
0.0216982
0.00126001
0.0210978
0.00145203
0.0202973
0.00173384
0.0194095
0.00188363
0.0184404
0.00204403
0.0173495
0.00217606
0.016208
0.00229343
0.0149663
0.00244831
0.0137334
0.0024889
0.0122859
0.00282437
0.0108643
0.00295156
0.00907782
0.00329554
0.00739833
0.00348316
0.00568656
0.00348317
0.00417885
0.00340359
0.00275863
0.00322207
0.00162318
0.00291409
0.000617207
0.00259328
-1.79521e-05
0.00194598
-0.000574795
0.00154135
-0.000811496
0.000965759
-0.000820834
0.000347117
-0.000648018
-0.000225795
-5.84947e-05
-0.000970464
0.000572769
-0.00145438
0.0017485
-0.00215088
0.0031131
-0.00263691
0.00505572
-0.00328251
0.00730793
-0.0040978
0.00988043
-0.00468269
0.012519
-0.00503481
0.0151886
-0.00512526
0.0177598
-0.00517912
0.0203521
-0.00518211
0.0228529
-0.00506313
0.0251953
-0.00493199
0.0275599
-0.00477134
0.0298028
-0.00463984
0.0319382
-0.0044574
0.0339685
-0.00422301
0.0358848
-0.00400359
0.0377065
-0.00378245
0.0393836
-0.00347607
0.0409587
-0.00323134
0.0424163
-0.00294206
0.0437154
-0.00268138
0.0449885
-0.00243749
0.0460454
-0.00201396
0.0470479
-0.00170664
0.0476826
-0.00117262
0.0483464
-0.0008718
0.0486578
-0.000373749
0.0488553
-1.09401e-05
0.0488482
0.000394127
0.0486497
0.000782188
0.0483316
0.00116157
0.0477286
0.00156228
0.0470859
0.00181839
0.046159
0.00221916
0.0451999
0.00241074
0.0439955
0.00270609
0.0427567
0.00283652
0.0413579
0.00306274
0.0398738
0.00318373
0.0383224
0.00327084
0.0366956
0.00334315
0.0351071
0.00329738
0.0334376
0.00325571
0.0319112
0.00310088
0.0302963
0.00301153
0.0289047
0.00276965
0.0274383
0.00261695
0.0262275
0.0023376
0.0249806
0.00219614
0.0239465
0.00194938
0.0228924
0.00180772
0.0220411
0.00156743
0.0211822
0.00141957
0.0205514
0.00115081
0.0199035
0.0010222
0.0194743
0.000775848
0.0190156
0.000685599
0.0186989
0.000525284
0.0183849
0.000469349
0.0180948
0.000451183
0.017777
0.000534981
0.0174397
0.000610629
0.0170599
0.000692857
0.0166748
0.000726455
0.016264
0.000755975
0.0158646
0.000761415
0.0154423
0.000781663
0.0150327
0.000795079
0.0145836
0.000830105
0.0141579
0.000836251
0.0137142
0.000853698
0.0132811
0.000849417
0.0128609
0.000830001
0.0124873
0.000748629
0.0121476
0.000676704
0.0119276
0.000518744
0.0117109
0.000418805
0.0116364
0.000233799
0.0116239
7.41825e-05
0.0117451
-0.000129767
0.0119365
-0.000326231
0.0123414
-0.000633667
0.0127999
-0.000860165
0.0134616
-0.00116656
0.0142209
-0.00141079
0.0151453
-0.00168224
0.0161088
-0.00188531
0.0172847
-0.0021575
0.0184421
-0.00229837
0.0197605
-0.00253459
0.0210955
-0.00268657
0.0225128
-0.00279123
0.0239084
-0.00280734
0.025305
-0.00280447
0.0266869
-0.00275844
0.0280713
-0.00268973
0.0293526
-0.00257505
0.0306113
-0.00244575
0.0317809
-0.00231476
0.0328566
-0.00213871
0.0339159
-0.00199529
0.0348773
-0.00186885
0.0358623
-0.00182585
0.0367773
-0.00171798
0.0376744
-0.00162276
0.0384525
-0.00145047
0.0392488
-0.00125258
0.0397588
-0.000866004
0.0403036
-0.000647357
0.0405844
-0.000272518
0.0408396
-6.48553e-05
0.040911
0.000231174
0.0409055
0.000459289
0.0407963
0.000711107
0.0405397
0.000951256
0.0402396
0.0011646
0.039749
0.00143117
0.0392489
0.00156447
0.0386077
0.00178337
0.037896
0.00194616
0.0371355
0.00207292
0.0362887
0.00218091
0.0354028
0.00229728