/*--------------------------------*- C++ -*----------------------------------*\
| =========                 |                                                 |
| \\      /  F ield         | OpenFOAM: The Open Source CFD Toolbox           |
|  \\    /   O peration     | Version:  v1812                                 |
|   \\  /    A nd           | Web:      www.OpenFOAM.com                      |
|    \\/     M anipulation  |                                                 |
\*---------------------------------------------------------------------------*/
FoamFile
{
    version     2.0;
    format      ascii;
    class       volScalarField;
    location    "1.4";
    object      T;
}
// * * * * * * * * * * * * * * * * * * * * * * * * * * * * * * * * * * * * * //

dimensions      [0 0 0 1 0 0 0];


internalField   nonuniform List<scalar> 
20400
(
290.054
290.056
290.062
290.076
290.101
290.139
290.187
290.242
290.301
290.359
290.411
290.457
290.495
290.525
290.549
290.568
290.584
290.596
290.608
290.618
290.63
290.641
290.652
290.665
290.678
290.691
290.705
290.719
290.733
290.746
290.759
290.772
290.784
290.797
290.81
290.826
290.843
290.861
290.88
290.899
290.921
290.942
290.966
290.99
291.016
291.043
291.072
291.1
291.128
291.157
291.184
291.21
291.234
291.258
291.28
291.302
291.324
291.345
291.367
291.389
291.411
291.433
291.462
291.492
291.519
291.543
291.563
291.584
291.603
291.624
291.641
291.665
291.687
291.722
291.75
291.787
291.812
291.841
291.86
291.883
291.899
291.918
291.932
291.949
291.963
291.976
291.989
292.002
292.014
292.025
292.032
292.04
292.044
292.049
292.048
292.054
292.068
292.088
292.115
292.139
292.165
292.184
292.198
292.205
292.208
292.205
292.194
292.173
292.136
292.099
292.045
292.004
291.945
291.898
291.834
291.771
291.707
291.627
291.544
291.452
291.363
291.269
291.179
291.089
291.002
290.917
290.839
290.76
290.69
290.624
290.567
290.52
290.485
290.46
290.444
290.435
290.429
290.429
290.428
290.43
290.434
290.442
290.447
290.454
290.462
290.472
290.476
290.484
290.509
290.549
290.598
290.657
290.723
290.783
290.838
290.882
290.912
290.925
290.927
290.924
290.921
290.922
290.914
290.918
290.924
290.922
290.927
290.926
290.933
290.934
290.941
290.939
290.946
290.944
290.951
290.948
290.953
290.948
290.943
290.917
290.881
290.823
290.758
290.679
290.593
290.51
290.442
290.394
290.372
290.366
290.366
290.374
290.392
290.425
290.47
290.518
290.571
290.623
290.677
290.725
290.77
290.812
290.861
290.917
290.984
291.054
291.131
291.207
291.281
291.352
291.423
291.494
291.568
291.641
291.715
291.788
291.859
291.928
291.994
292.057
292.114
292.161
292.199
292.228
292.246
292.257
292.261
292.262
292.261
292.259
292.257
292.254
292.251
292.247
292.244
292.24
292.236
292.231
292.227
292.223
292.22
292.22
292.224
292.237
292.257
292.282
292.307
292.33
292.349
292.371
292.394
292.428
292.465
292.512
292.558
292.609
292.66
292.722
292.794
292.884
292.983
293.084
293.169
293.233
293.267
293.283
293.286
293.288
293.287
293.282
293.272
293.259
293.241
293.218
293.188
293.147
293.095
293.029
292.954
292.866
292.768
292.668
292.566
292.465
292.364
292.264
292.164
292.066
291.968
291.873
291.78
291.691
291.604
291.523
291.446
291.379
291.321
291.272
291.231
291.198
291.171
291.15
291.136
291.126
291.12
291.116
291.114
291.111
291.108
291.106
291.105
291.104
291.105
291.107
291.11
291.117
291.13
291.152
291.182
291.217
291.253
291.287
291.32
291.354
291.386
291.418
291.447
291.472
291.494
291.509
291.523
291.535
291.552
291.572
291.595
291.613
291.627
291.639
291.651
291.665
291.682
291.706
291.743
291.786
291.837
291.883
291.928
291.965
291.998
292.026
292.054
292.081
292.108
292.133
292.16
292.187
292.213
292.238
292.26
292.279
292.293
292.304
292.313
292.319
292.325
292.329
292.335
292.339
292.344
292.348
292.352
292.354
292.356
292.357
292.357
292.357
292.36
292.364
292.37
292.376
292.38
292.385
292.389
292.395
292.401
292.408
292.414
292.421
292.43
292.44
292.452
292.466
292.479
292.49
292.499
292.507
292.516
292.527
292.538
292.55
292.564
292.579
292.597
292.616
292.637
292.658
292.682
292.705
292.728
292.748
292.768
292.788
292.807
292.827
292.848
292.868
292.889
292.907
292.925
292.941
292.955
292.966
292.977
292.989
293.003
293.016
293.027
293.036
293.046
293.056
293.066
293.077
293.088
293.09
293.097
293.102
293.109
293.114
293.118
293.118
293.119
293.115
293.104
293.085
293.061
293.035
293.011
292.988
292.967
292.951
292.94
292.936
292.935
292.936
292.938
292.941
292.947
292.951
292.955
292.959
292.965
292.969
292.973
292.976
292.982
292.99
293
293.01
293.021
293.03
293.041
293.051
293.065
293.079
293.096
293.114
293.134
293.154
293.177
293.201
293.225
293.248
293.27
293.291
293.31
293.328
293.344
293.358
293.371
293.383
293.396
293.408
293.421
293.434
293.447
293.457
293.462
293.465
293.465
293.464
290.055
290.056
290.063
290.077
290.103
290.14
290.188
290.243
290.303
290.36
290.413
290.458
290.496
290.525
290.549
290.568
290.583
290.596
290.607
290.618
290.629
290.64
290.652
290.664
290.677
290.691
290.704
290.718
290.732
290.745
290.759
290.77
290.784
290.795
290.81
290.825
290.842
290.861
290.879
290.9
290.919
290.942
290.964
290.99
291.015
291.043
291.071
291.1
291.128
291.156
291.183
291.209
291.234
291.257
291.28
291.302
291.324
291.346
291.367
291.389
291.41
291.435
291.463
291.492
291.521
291.541
291.564
291.582
291.604
291.62
291.644
291.66
291.69
291.716
291.754
291.782
291.816
291.835
291.862
291.877
291.895
291.908
291.924
291.937
291.952
291.966
291.981
291.994
292.008
292.019
292.029
292.038
292.043
292.044
292.042
292.045
292.06
292.078
292.106
292.131
292.158
292.179
292.196
292.208
292.213
292.216
292.208
292.19
292.167
292.121
292.095
292.036
291.995
291.925
291.869
291.812
291.735
291.673
291.576
291.496
291.391
291.307
291.202
291.119
291.02
290.941
290.852
290.778
290.698
290.632
290.571
290.523
290.486
290.459
290.443
290.434
290.428
290.427
290.427
290.429
290.434
290.441
290.448
290.452
290.463
290.469
290.47
290.483
290.505
290.541
290.592
290.653
290.708
290.779
290.832
290.882
290.918
290.938
290.946
290.946
290.949
290.944
290.942
290.939
290.939
290.951
290.94
290.953
290.943
290.959
290.95
290.961
290.949
290.963
290.954
290.962
290.949
290.963
290.94
290.934
290.88
290.84
290.755
290.684
290.591
290.511
290.439
290.392
290.367
290.359
290.358
290.364
290.374
290.412
290.442
290.503
290.536
290.603
290.642
290.71
290.742
290.792
290.827
290.897
290.951
291.036
291.101
291.191
291.256
291.333
291.395
291.472
291.538
291.617
291.686
291.764
291.831
291.903
291.967
292.034
292.089
292.142
292.18
292.214
292.234
292.249
292.254
292.257
292.255
292.254
292.251
292.249
292.245
292.243
292.238
292.236
292.229
292.225
292.219
292.214
292.209
292.208
292.212
292.222
292.243
292.263
292.29
292.308
292.334
292.344
292.374
292.393
292.443
292.471
292.533
292.562
292.626
292.664
292.749
292.819
292.938
293.024
293.13
293.187
293.241
293.25
293.26
293.257
293.259
293.255
293.248
293.235
293.222
293.202
293.176
293.137
293.093
293.027
292.957
292.865
292.78
292.672
292.586
292.474
292.386
292.275
292.188
292.079
291.994
291.89
291.805
291.708
291.629
291.541
291.469
291.395
291.338
291.284
291.244
291.206
291.179
291.153
291.139
291.128
291.123
291.117
291.117
291.113
291.112
291.108
291.108
291.107
291.108
291.108
291.113
291.117
291.13
291.148
291.178
291.211
291.249
291.282
291.315
291.349
291.38
291.415
291.443
291.472
291.493
291.514
291.519
291.537
291.547
291.573
291.592
291.615
291.623
291.64
291.644
291.665
291.675
291.699
291.723
291.772
291.809
291.865
291.9
291.945
291.971
292.004
292.027
292.055
292.079
292.106
292.13
292.158
292.184
292.211
292.233
292.255
292.269
292.285
292.291
292.301
292.303
292.313
292.316
292.325
292.328
292.333
292.336
292.342
292.343
292.345
292.344
292.345
292.346
292.352
292.357
292.365
292.368
292.372
292.375
292.383
292.387
292.397
292.401
292.412
292.418
292.431
292.44
292.457
292.468
292.481
292.486
292.497
292.504
292.518
292.526
292.541
292.552
292.57
292.584
292.606
292.624
292.648
292.67
292.694
292.716
292.738
292.756
292.777
292.794
292.817
292.835
292.859
292.875
292.9
292.912
292.933
292.943
292.963
292.968
292.985
292.991
293.011
293.018
293.034
293.035
293.051
293.055
293.07
293.074
293.079
293.08
293.093
293.091
293.102
293.101
293.104
293.102
293.102
293.09
293.076
293.051
293.029
293.004
292.981
292.958
292.941
292.928
292.923
292.921
292.923
292.922
292.927
292.93
292.938
292.939
292.944
292.948
292.956
292.956
292.961
292.964
292.974
292.981
292.994
293
293.012
293.018
293.032
293.041
293.059
293.072
293.09
293.106
293.127
293.146
293.172
293.193
293.218
293.238
293.261
293.279
293.299
293.314
293.331
293.343
293.357
293.367
293.382
293.393
293.409
293.422
293.434
293.439
293.442
293.441
293.441
290.058
290.06
290.066
290.081
290.106
290.144
290.192
290.249
290.307
290.365
290.416
290.462
290.498
290.528
290.55
290.569
290.584
290.596
290.608
290.618
290.629
290.64
290.652
290.664
290.677
290.69
290.704
290.717
290.73
290.744
290.756
290.769
290.781
290.795
290.807
290.823
290.84
290.857
290.878
290.896
290.918
290.939
290.963
290.987
291.014
291.041
291.07
291.098
291.127
291.155
291.183
291.209
291.234
291.258
291.28
291.303
291.324
291.346
291.367
291.389
291.412
291.437
291.465
291.495
291.518
291.545
291.562
291.584
291.6
291.622
291.639
291.665
291.686
291.72
291.75
291.786
291.813
291.841
291.863
291.88
291.89
291.903
291.909
291.924
291.933
291.952
291.968
291.986
292.002
292.018
292.03
292.042
292.047
292.052
292.05
292.059
292.06
292.086
292.102
292.135
292.158
292.185
292.203
292.22
292.235
292.244
292.249
292.246
292.225
292.211
292.166
292.139
292.09
292.041
291.992
291.92
291.875
291.78
291.723
291.606
291.533
291.406
291.324
291.202
291.12
291.008
290.928
290.825
290.749
290.664
290.598
290.54
290.496
290.466
290.446
290.433
290.43
290.426
290.428
290.427
290.435
290.443
290.449
290.454
290.463
290.459
290.467
290.478
290.495
290.522
290.574
290.62
290.701
290.751
290.828
290.878
290.922
290.963
290.973
291.006
291.023
291.034
291.033
291.022
291.033
291.025
291.034
291.015
291.033
291.016
291.037
291.01
291.025
291.009
291.025
290.998
291.01
290.996
291.012
290.973
290.969
290.872
290.832
290.71
290.639
290.537
290.467
290.409
290.376
290.359
290.355
290.352
290.369
290.376
290.427
290.434
290.505
290.507
290.599
290.618
290.707
290.707
290.773
290.786
290.9
290.932
291.057
291.097
291.206
291.24
291.331
291.371
291.464
291.514
291.61
291.666
291.754
291.809
291.887
291.94
292.012
292.059
292.119
292.152
292.195
292.213
292.233
292.235
292.237
292.234
292.234
292.228
292.227
292.221
292.221
292.213
292.21
292.199
292.191
292.178
292.169
292.164
292.161
292.171
292.181
292.208
292.214
292.245
292.252
292.28
292.274
292.311
292.324
292.394
292.403
292.471
292.471
292.543
292.56
292.677
292.745
292.897
292.955
293.086
293.121
293.174
293.169
293.175
293.171
293.178
293.175
293.175
293.171
293.163
293.143
293.123
293.076
293.035
292.959
292.899
292.793
292.729
292.614
292.551
292.421
292.354
292.228
292.16
292.043
291.98
291.862
291.798
291.688
291.627
291.528
291.472
291.391
291.345
291.283
291.249
291.2
291.177
291.146
291.143
291.129
291.129
291.126
291.127
291.119
291.119
291.115
291.117
291.114
291.117
291.114
291.121
291.126
291.143
291.164
291.198
291.23
291.265
291.299
291.329
291.369
291.398
291.44
291.468
291.501
291.509
291.53
291.527
291.553
291.569
291.607
291.607
291.632
291.631
291.655
291.659
291.681
291.681
291.709
291.722
291.775
291.797
291.858
291.876
291.924
291.935
291.966
291.98
292.008
292.027
292.052
292.076
292.104
292.13
292.16
292.179
292.207
292.217
292.239
292.239
292.253
292.255
292.274
292.279
292.292
292.291
292.299
292.301
292.314
292.315
292.317
292.314
292.318
292.319
292.334
292.339
292.348
292.345
292.351
292.352
292.367
292.368
292.385
292.387
292.405
292.407
292.425
292.433
292.455
292.458
292.468
292.47
292.487
292.492
292.511
292.515
292.536
292.543
292.567
292.58
292.605
292.623
292.648
292.67
292.693
292.712
292.734
292.749
292.774
292.787
292.818
292.829
292.861
292.872
292.904
292.913
292.939
292.948
292.971
292.97
292.989
292.995
293.021
293.024
293.043
293.04
293.057
293.056
293.071
293.062
293.077
293.073
293.091
293.08
293.092
293.086
293.092
293.084
293.085
293.067
293.053
293.024
293.004
292.977
292.955
292.934
292.921
292.913
292.912
292.911
292.913
292.911
292.917
292.918
292.928
292.925
292.936
292.936
292.944
292.942
292.951
292.951
292.963
292.965
292.979
292.98
292.993
292.995
293.011
293.016
293.036
293.042
293.058
293.067
293.09
293.104
293.13
293.144
293.17
293.185
293.211
293.226
293.251
293.262
293.283
293.29
293.307
293.314
293.334
293.345
293.367
293.378
293.388
293.387
293.389
293.387
290.065
290.066
290.073
290.087
290.114
290.152
290.202
290.257
290.317
290.372
290.425
290.467
290.503
290.53
290.553
290.57
290.585
290.597
290.608
290.618
290.629
290.64
290.652
290.664
290.677
290.69
290.704
290.716
290.729
290.741
290.754
290.766
290.779
290.792
290.805
290.82
290.836
290.855
290.872
290.894
290.913
290.936
290.957
290.984
291.009
291.038
291.066
291.096
291.124
291.153
291.181
291.208
291.233
291.257
291.28
291.302
291.324
291.345
291.367
291.39
291.413
291.44
291.468
291.497
291.523
291.544
291.566
291.583
291.602
291.62
291.64
291.664
291.688
291.72
291.751
291.785
291.817
291.844
291.868
291.881
291.893
291.892
291.906
291.901
291.915
291.932
291.954
291.976
291.997
292.015
292.034
292.048
292.07
292.056
292.077
292.057
292.079
292.072
292.115
292.131
292.173
292.188
292.216
292.234
292.253
292.279
292.298
292.311
292.321
292.305
292.293
292.271
292.24
292.224
292.163
292.135
292.059
292.027
291.924
291.873
291.743
291.665
291.519
291.429
291.287
291.199
291.064
290.969
290.85
290.757
290.667
290.594
290.535
290.491
290.459
290.444
290.43
290.434
290.428
290.434
290.439
290.453
290.446
290.46
290.454
290.462
290.469
290.482
290.483
290.509
290.528
290.605
290.639
290.742
290.803
290.871
290.924
290.956
291.015
291.07
291.123
291.177
291.192
291.202
291.198
291.209
291.184
291.207
291.174
291.198
291.163
291.188
291.149
291.178
291.136
291.163
291.125
291.147
291.124
291.147
291.084
291.071
290.931
290.865
290.73
290.649
290.549
290.48
290.423
290.388
290.368
290.363
290.362
290.378
290.377
290.419
290.41
290.469
290.464
290.547
290.574
290.659
290.631
290.703
290.708
290.863
290.872
291.023
291.03
291.148
291.149
291.245
291.26
291.375
291.41
291.526
291.565
291.661
291.696
291.781
291.822
291.91
291.954
292.039
292.076
292.141
292.162
292.189
292.189
292.193
292.19
292.189
292.179
292.181
292.173
292.174
292.161
292.15
292.128
292.109
292.087
292.07
292.061
292.049
292.063
292.067
292.093
292.081
292.108
292.104
292.13
292.112
292.159
292.165
292.232
292.223
292.271
292.251
292.318
292.336
292.501
292.539
292.749
292.796
292.952
292.973
293.022
293.005
293.028
293.028
293.053
293.066
293.083
293.09
293.092
293.083
293.072
293.031
292.996
292.918
292.883
292.767
292.743
292.605
292.579
292.422
292.39
292.233
292.202
292.085
292.041
291.914
291.863
291.741
291.694
291.586
291.546
291.447
291.41
291.322
291.288
291.214
291.193
291.16
291.166
291.151
291.152
291.148
291.147
291.13
291.133
291.131
291.13
291.127
291.127
291.124
291.133
291.133
291.152
291.174
291.206
291.238
291.27
291.311
291.338
291.391
291.42
291.472
291.492
291.528
291.522
291.539
291.543
291.581
291.588
291.625
291.621
291.644
291.642
291.669
291.669
291.691
291.684
291.713
291.714
291.761
291.767
291.821
291.827
291.861
291.861
291.884
291.888
291.909
291.922
291.945
291.969
291.999
292.024
292.061
292.08
292.116
292.125
292.149
292.148
292.171
292.18
292.215
292.219
292.233
292.229
292.246
292.253
292.277
292.277
292.278
292.275
292.29
292.296
292.318
292.322
292.324
292.322
292.333
292.334
292.354
292.356
292.377
292.379
292.4
292.403
292.42
292.429
292.448
292.442
292.454
292.456
292.479
292.48
292.501
292.507
292.528
292.539
292.563
292.577
292.603
292.622
292.646
292.666
292.688
292.704
292.727
292.739
292.769
292.781
292.819
292.832
292.869
292.883
292.917
292.93
292.956
292.96
292.981
292.984
293.008
293.011
293.035
293.03
293.05
293.047
293.066
293.056
293.073
293.066
293.083
293.076
293.088
293.082
293.09
293.082
293.09
293.076
293.081
293.055
293.047
293.012
292.998
292.966
292.948
292.929
292.92
292.913
292.913
292.91
292.913
292.909
292.917
292.918
292.93
292.927
292.937
292.934
292.944
292.941
292.95
292.95
292.96
292.959
292.97
292.969
292.979
292.978
292.991
292.994
293.007
293.004
293.015
293.016
293.035
293.038
293.06
293.066
293.092
293.102
293.131
293.144
293.174
293.181
293.204
293.205
293.225
293.232
293.26
293.276
293.303
293.308
293.314
293.311
293.311
290.074
290.076
290.082
290.097
290.124
290.163
290.212
290.27
290.327
290.384
290.432
290.475
290.508
290.535
290.555
290.572
290.585
290.597
290.608
290.618
290.629
290.64
290.652
290.664
290.677
290.69
290.703
290.716
290.728
290.74
290.751
290.764
290.776
290.789
290.803
290.817
290.834
290.849
290.87
290.885
290.909
290.927
290.953
290.975
291.004
291.029
291.06
291.088
291.12
291.148
291.178
291.204
291.23
291.254
291.278
291.3
291.322
291.344
291.366
291.389
291.416
291.441
291.472
291.498
291.527
291.546
291.569
291.583
291.603
291.617
291.64
291.66
291.689
291.717
291.75
291.785
291.815
291.848
291.865
291.886
291.878
291.891
291.889
291.886
291.894
291.908
291.936
291.962
291.986
292.014
292.033
292.054
292.038
292.06
292.047
292.067
292.055
292.087
292.091
292.147
292.152
292.202
292.206
292.243
292.259
292.286
292.326
292.354
292.379
292.393
292.396
292.383
292.393
292.366
292.361
292.313
292.313
292.255
292.237
292.144
292.1
291.955
291.879
291.71
291.615
291.452
291.338
291.182
291.057
290.922
290.809
290.705
290.622
290.552
290.505
290.466
290.454
290.438
290.44
290.437
290.453
290.446
290.458
290.45
290.461
290.461
290.477
290.472
290.49
290.486
290.523
290.537
290.632
290.688
290.785
290.857
290.906
290.967
291.017
291.11
291.229
291.298
291.418
291.428
291.465
291.439
291.459
291.423
291.443
291.399
291.437
291.392
291.421
291.375
291.406
291.363
291.379
291.361
291.38
291.33
291.349
291.236
291.182
291.026
290.941
290.811
290.717
290.614
290.535
290.465
290.422
290.391
290.379
290.371
290.373
290.366
290.392
290.367
290.415
290.389
290.486
290.495
290.575
290.526
290.619
290.614
290.789
290.782
290.919
290.909
290.996
290.989
291.076
291.078
291.216
291.237
291.366
291.383
291.473
291.483
291.579
291.616
291.735
291.787
291.91
291.959
292.051
292.075
292.111
292.11
292.117
292.109
292.11
292.1
292.106
292.095
292.087
292.063
292.036
292
291.966
291.937
291.895
291.883
291.859
291.872
291.866
291.87
291.858
291.877
291.863
291.883
291.865
291.908
291.903
291.939
291.919
291.955
291.925
292.007
292.014
292.236
292.281
292.536
292.577
292.738
292.741
292.795
292.794
292.837
292.866
292.914
292.95
292.986
293.012
293.032
293.035
293.028
292.999
292.978
292.912
292.901
292.791
292.79
292.657
292.647
292.476
292.46
292.323
292.319
292.2
292.184
292.014
291.996
291.853
291.836
291.714
291.688
291.566
291.522
291.397
291.348
291.251
291.237
291.204
291.204
291.182
291.192
291.174
291.169
291.142
291.153
291.139
291.143
291.132
291.137
291.13
291.137
291.14
291.157
291.177
291.208
291.244
291.28
291.337
291.367
291.431
291.467
291.514
291.512
291.537
291.53
291.556
291.563
291.617
291.612
291.641
291.63
291.658
291.655
291.683
291.678
291.697
291.687
291.716
291.706
291.735
291.734
291.765
291.762
291.774
291.76
291.765
291.759
291.767
291.779
291.8
291.824
291.857
291.883
291.926
291.943
291.987
291.99
292.024
292.026
292.073
292.091
292.131
292.131
292.148
292.147
292.185
292.205
292.239
292.231
292.247
292.248
292.281
292.293
292.313
292.308
292.318
292.314
292.328
292.333
292.357
292.357
292.377
292.386
292.405
292.404
292.418
292.424
292.443
292.435
292.448
292.451
292.474
292.479
292.499
292.511
292.533
292.544
292.568
292.584
292.607
292.627
292.648
292.666
292.687
292.702
292.728
292.742
292.776
292.793
292.834
292.853
292.892
292.91
292.939
292.949
292.974
292.971
292.993
293.003
293.027
293.022
293.044
293.04
293.058
293.049
293.072
293.06
293.08
293.071
293.092
293.079
293.095
293.085
293.095
293.086
293.097
293.079
293.093
293.064
293.063
293.025
293.016
292.981
292.964
292.943
292.932
292.922
292.919
292.915
292.919
292.916
292.926
292.925
292.933
292.93
292.94
292.937
292.946
292.944
292.953
292.953
292.964
292.961
292.97
292.968
292.976
292.97
292.98
292.978
292.981
292.971
292.973
292.964
292.967
292.962
292.975
292.976
293
293.005
293.037
293.048
293.079
293.081
293.099
293.099
293.123
293.136
293.176
293.196
293.218
293.215
293.219
293.216
290.084
290.086
290.092
290.108
290.136
290.175
290.226
290.281
290.339
290.392
290.441
290.48
290.512
290.537
290.557
290.573
290.586
290.597
290.607
290.618
290.628
290.639
290.651
290.663
290.676
290.689
290.702
290.714
290.727
290.739
290.752
290.763
290.777
290.789
290.803
290.816
290.832
290.848
290.862
290.882
290.897
290.921
290.94
290.968
290.99
291.021
291.047
291.08
291.108
291.141
291.168
291.198
291.224
291.25
291.272
291.296
291.317
291.34
291.363
291.389
291.414
291.444
291.47
291.501
291.524
291.549
291.564
291.584
291.598
291.617
291.635
291.658
291.685
291.713
291.752
291.781
291.82
291.84
291.871
291.866
291.877
291.876
291.862
291.869
291.865
291.882
291.903
291.932
291.965
291.988
292.014
291.997
292.022
292
292.031
292.013
292.044
292.04
292.078
292.096
292.141
292.16
292.197
292.218
292.25
292.278
292.308
292.364
292.397
292.44
292.451
292.458
292.457
292.46
292.451
292.468
292.465
292.481
292.456
292.455
292.386
292.341
292.215
292.126
291.966
291.846
291.671
291.522
291.347
291.19
291.034
290.897
290.774
290.674
290.589
290.535
290.485
290.469
290.446
290.46
290.446
290.457
290.451
290.464
290.455
290.471
290.466
290.48
290.48
290.498
290.485
290.536
290.572
290.668
290.746
290.827
290.906
290.953
291.026
291.127
291.25
291.446
291.548
291.704
291.718
291.732
291.719
291.738
291.699
291.722
291.679
291.717
291.673
291.702
291.662
291.687
291.656
291.68
291.634
291.651
291.556
291.522
291.371
291.289
291.149
291.051
290.923
290.815
290.698
290.607
290.518
290.459
290.409
290.384
290.364
290.356
290.332
290.33
290.315
290.347
290.327
290.407
290.404
290.465
290.425
290.519
290.521
290.678
290.658
290.747
290.734
290.802
290.776
290.868
290.864
291.013
291.028
291.13
291.123
291.197
291.194
291.31
291.353
291.511
291.577
291.741
291.803
291.922
291.95
291.998
291.997
292.001
291.993
292.001
291.991
291.991
291.973
291.95
291.911
291.866
291.82
291.76
291.724
291.655
291.639
291.593
291.605
291.568
291.57
291.557
291.56
291.55
291.561
291.544
291.572
291.556
291.568
291.543
291.572
291.544
291.664
291.695
291.974
292.026
292.274
292.334
292.458
292.481
292.547
292.586
292.655
292.715
292.785
292.845
292.905
292.95
292.986
292.999
292.998
292.985
292.978
292.937
292.934
292.853
292.852
292.742
292.731
292.576
292.573
292.478
292.482
292.364
292.334
292.165
292.157
292.037
292.035
291.9
291.89
291.713
291.676
291.482
291.435
291.312
291.305
291.252
291.246
291.214
291.226
291.199
291.184
291.151
291.155
291.14
291.145
291.135
291.14
291.133
291.14
291.145
291.161
291.184
291.22
291.266
291.31
291.378
291.414
291.474
291.498
291.536
291.529
291.546
291.538
291.592
291.595
291.634
291.624
291.652
291.646
291.672
291.668
291.692
291.684
291.705
291.694
291.709
291.7
291.711
291.7
291.713
291.678
291.671
291.63
291.62
291.608
291.612
291.62
291.638
291.66
291.694
291.719
291.764
291.778
291.826
291.827
291.88
291.89
291.961
291.979
292.022
292.017
292.048
292.057
292.13
292.162
292.211
292.209
292.238
292.259
292.294
292.3
292.314
292.307
292.32
292.323
292.343
292.34
292.361
292.372
292.391
292.397
292.409
292.406
292.418
292.424
292.441
292.434
292.449
292.459
292.484
292.496
292.515
292.524
292.545
292.558
292.58
292.598
292.618
292.638
292.658
292.676
292.697
292.715
292.742
292.76
292.796
292.821
292.863
292.886
292.918
292.925
292.956
292.962
292.988
292.984
293.01
293.015
293.037
293.031
293.055
293.047
293.068
293.055
293.086
293.07
293.097
293.082
293.106
293.093
293.114
293.107
293.117
293.111
293.121
293.113
293.123
293.099
293.105
293.071
293.055
293.019
292.997
292.973
292.959
292.945
292.939
292.931
292.932
292.928
292.935
292.93
292.94
292.934
292.948
292.94
292.952
292.947
292.959
292.958
292.966
292.964
292.972
292.968
292.975
292.971
292.975
292.966
292.964
292.94
292.932
292.905
292.903
292.887
292.893
292.888
292.904
292.908
292.94
292.948
292.97
292.968
292.982
292.985
293.021
293.041
293.086
293.1
293.114
293.109
293.111
290.092
290.093
290.1
290.117
290.145
290.186
290.236
290.292
290.347
290.4
290.446
290.484
290.515
290.539
290.558
290.573
290.586
290.596
290.607
290.617
290.627
290.638
290.648
290.662
290.673
290.687
290.699
290.713
290.725
290.74
290.75
290.765
290.775
290.791
290.802
290.818
290.827
290.845
290.854
290.873
290.888
290.908
290.93
290.952
290.979
291.002
291.034
291.06
291.095
291.122
291.157
291.184
291.214
291.237
291.263
291.285
291.31
291.331
291.358
291.384
291.414
291.441
291.471
291.497
291.523
291.543
291.563
291.579
291.597
291.613
291.632
291.656
291.68
291.717
291.743
291.788
291.811
291.848
291.852
291.851
291.853
291.841
291.844
291.834
291.843
291.843
291.861
291.883
291.903
291.929
291.916
291.938
291.916
291.938
291.933
291.965
291.952
291.98
291.991
292.02
292.041
292.073
292.11
292.139
292.184
292.202
292.272
292.313
292.398
292.432
292.48
292.466
292.482
292.473
292.497
292.504
292.553
292.571
292.62
292.625
292.642
292.608
292.574
292.476
292.386
292.24
292.098
291.917
291.738
291.544
291.358
291.177
291.014
290.865
290.746
290.64
290.575
290.511
290.495
290.46
290.457
290.449
290.464
290.452
290.47
290.46
290.475
290.471
290.487
290.48
290.503
290.505
290.565
290.626
290.709
290.797
290.871
290.953
291.022
291.122
291.29
291.449
291.705
291.842
291.978
291.981
291.997
291.993
292.022
291.98
292.001
291.988
292.01
291.974
291.993
291.98
291.994
291.946
291.96
291.88
291.839
291.705
291.625
291.493
291.398
291.27
291.156
291.023
290.908
290.776
290.671
290.559
290.484
290.416
290.377
290.343
290.312
290.281
290.274
290.249
290.272
290.256
290.318
290.301
290.368
290.311
290.423
290.421
290.538
290.474
290.553
290.537
290.609
290.555
290.65
290.654
290.779
290.782
290.842
290.809
290.874
290.878
291.016
291.066
291.26
291.342
291.543
291.619
291.759
291.795
291.847
291.845
291.857
291.849
291.854
291.847
291.836
291.808
291.768
291.715
291.652
291.593
291.509
291.461
291.367
291.345
291.276
291.277
291.226
291.238
291.201
291.207
291.194
291.198
291.187
291.198
291.167
291.18
291.167
291.185
291.196
291.408
291.462
291.738
291.811
292.008
292.081
292.185
292.25
292.339
292.416
292.511
292.597
292.688
292.768
292.844
292.904
292.951
292.974
292.986
292.991
292.995
292.98
292.973
292.924
292.924
292.835
292.819
292.714
292.72
292.652
292.661
292.501
292.483
292.351
292.358
292.255
292.256
292.118
292.105
291.885
291.837
291.591
291.541
291.382
291.369
291.286
291.279
291.235
291.24
291.193
291.172
291.144
291.154
291.14
291.146
291.135
291.142
291.136
291.143
291.154
291.176
291.207
291.249
291.303
291.356
291.425
291.468
291.521
291.524
291.55
291.531
291.574
291.585
291.633
291.62
291.651
291.636
291.67
291.658
291.687
291.678
291.702
291.69
291.706
291.694
291.706
291.686
291.696
291.652
291.636
291.572
291.543
291.498
291.478
291.461
291.457
291.46
291.473
291.491
291.521
291.542
291.586
291.596
291.651
291.655
291.728
291.745
291.827
291.841
291.89
291.887
291.95
291.98
292.09
292.133
292.21
292.229
292.267
292.283
292.306
292.302
292.313
292.311
292.326
292.327
292.351
292.355
292.376
292.386
292.402
292.402
292.409
292.407
292.421
292.425
292.443
292.446
292.465
292.475
292.497
292.508
292.528
292.54
292.56
292.577
292.596
292.616
292.635
292.655
292.675
292.695
292.716
292.735
292.765
292.791
292.83
292.856
292.893
292.907
292.94
292.951
292.981
292.978
293.006
293.006
293.036
293.026
293.051
293.04
293.067
293.051
293.093
293.094
293.107
293.099
293.133
293.132
293.143
293.138
293.172
293.148
293.177
293.157
293.179
293.167
293.181
293.165
293.167
293.131
293.106
293.069
293.043
293.017
292.999
292.98
292.97
292.955
292.951
292.946
292.946
292.942
292.948
292.941
292.955
292.945
292.96
292.95
292.966
292.959
292.972
292.966
292.975
292.969
292.975
292.97
292.972
292.954
292.941
292.907
292.89
292.854
292.845
292.819
292.819
292.806
292.817
292.818
292.842
292.843
292.856
292.852
292.87
292.879
292.923
292.947
292.987
292.991
292.996
292.993
290.095
290.097
290.104
290.121
290.15
290.191
290.242
290.297
290.352
290.403
290.448
290.485
290.515
290.539
290.557
290.573
290.584
290.595
290.605
290.613
290.624
290.633
290.646
290.656
290.67
290.681
290.695
290.707
290.723
290.735
290.75
290.758
290.775
290.783
290.801
290.807
290.825
290.828
290.847
290.853
290.876
290.887
290.913
290.929
290.959
290.979
291.008
291.038
291.065
291.101
291.129
291.165
291.19
291.221
291.242
291.27
291.291
291.32
291.345
291.376
291.405
291.436
291.464
291.492
291.515
291.539
291.556
291.576
291.592
291.611
291.632
291.653
291.684
291.71
291.754
291.779
291.817
291.828
291.829
291.828
291.824
291.824
291.81
291.817
291.806
291.806
291.804
291.803
291.81
291.798
291.816
291.792
291.814
291.796
291.812
291.817
291.837
291.833
291.844
291.862
291.864
291.907
291.918
291.978
291.995
292.073
292.092
292.229
292.285
292.41
292.431
292.469
292.451
292.477
292.476
292.525
292.552
292.614
292.651
292.718
292.756
292.794
292.793
292.78
292.716
292.635
292.505
292.355
292.169
291.971
291.758
291.547
291.339
291.149
290.973
290.832
290.703
290.621
290.542
290.512
290.47
290.463
290.455
290.469
290.455
290.471
290.466
290.482
290.474
290.49
290.484
290.512
290.549
290.609
290.68
290.759
290.848
290.931
291.02
291.127
291.265
291.491
291.705
291.967
292.079
292.204
292.199
292.254
292.239
292.278
292.251
292.282
292.262
292.276
292.261
292.282
292.238
292.238
292.157
292.127
292.004
291.923
291.798
291.703
291.582
291.472
291.34
291.222
291.081
290.96
290.819
290.704
290.578
290.492
290.41
290.36