/*--------------------------------*- C++ -*----------------------------------*\
| =========                 |                                                 |
| \\      /  F ield         | OpenFOAM: The Open Source CFD Toolbox           |
|  \\    /   O peration     | Version:  v1812                                 |
|   \\  /    A nd           | Web:      www.OpenFOAM.com                      |
|    \\/     M anipulation  |                                                 |
\*---------------------------------------------------------------------------*/
FoamFile
{
    version     2.0;
    format      ascii;
    class       volVectorField;
    location    "1.4";
    object      U;
}
// * * * * * * * * * * * * * * * * * * * * * * * * * * * * * * * * * * * * * //

dimensions      [0 1 -1 0 0 0 0];


internalField   nonuniform List<vector> 
20400
(
(-0.00130956 0.00552687 0)
(-0.0158539 0.0111293 0)
(-0.0440691 0.0106993 0)
(-0.0842335 0.00881468 0)
(-0.13034 0.00640248 0)
(-0.188056 0.00672314 0)
(-0.244308 0.00952404 0)
(-0.319123 0.00846563 0)
(-0.38108 0.0110038 0)
(-0.472207 0.0091401 0)
(-0.536832 0.01164 0)
(-0.641666 0.0118868 0)
(-0.707097 0.0133087 0)
(-0.819756 0.0153944 0)
(-0.886089 0.0133856 0)
(-1 0.0181394 0)
(-1.06911 0.0147629 0)
(-1.17981 0.0209366 0)
(-1.25429 0.0168171 0)
(-1.35853 0.0230502 0)
(-1.43744 0.0193851 0)
(-1.5317 0.0229355 0)
(-1.60811 0.0199707 0)
(-1.68488 0.0195598 0)
(-1.74612 0.0159657 0)
(-1.7964 0.0130988 0)
(-1.83029 0.00870781 0)
(-1.85024 0.00644237 0)
(-1.85568 0.00567461 0)
(-1.85004 0.00482801 0)
(-1.82871 0.00300528 0)
(-1.80927 -0.00350827 0)
(-1.75736 -0.00298949 0)
(-1.7375 -0.0115868 0)
(-1.67041 -0.00416146 0)
(-1.65749 6.24031e-05 0)
(-1.59072 0.00511449 0)
(-1.57867 0.017271 0)
(-1.5222 0.0148677 0)
(-1.50251 0.0261911 0)
(-1.44942 0.0174634 0)
(-1.41227 0.0215136 0)
(-1.35299 0.0114617 0)
(-1.29809 0.00964497 0)
(-1.23294 0.00225917 0)
(-1.16793 -0.0021751 0)
(-1.10061 -0.00692284 0)
(-1.0324 -0.0105461 0)
(-0.963742 -0.0114462 0)
(-0.89327 -0.0119867 0)
(-0.820038 -0.0103001 0)
(-0.748084 -0.0100253 0)
(-0.67199 -0.00618705 0)
(-0.605026 -0.00656756 0)
(-0.533264 -0.000517908 0)
(-0.476783 -0.00339868 0)
(-0.413667 -0.00153209 0)
(-0.364502 -0.00548582 0)
(-0.313188 -0.00679082 0)
(-0.272526 -0.00348814 0)
(-0.249741 -0.00551799 0)
(-0.2254 0.00366576 0)
(-0.224034 0.00418077 0)
(-0.21519 0.00445177 0)
(-0.274795 0.0121368 0)
(-0.277059 -0.000909923 0)
(-0.413316 0.0258772 0)
(-0.425404 -0.00652349 0)
(-0.634395 0.0364884 0)
(-0.6648 -0.0129946 0)
(-0.949158 0.048159 0)
(-1.00755 -0.0164332 0)
(-1.35981 0.0620671 0)
(-1.4818 -0.0162931 0)
(-1.89305 0.0740853 0)
(-2.09971 -0.00421352 0)
(-2.56575 0.081947 0)
(-2.88962 0.0114448 0)
(-3.40274 0.0996633 0)
(-3.84757 0.0474684 0)
(-4.41515 0.115463 0)
(-4.96663 0.111977 0)
(-5.57452 0.166409 0)
(-6.17782 0.189642 0)
(-6.78751 0.208429 0)
(-7.38103 0.213578 0)
(-7.92012 0.213918 0)
(-8.38539 0.190009 0)
(-8.73462 0.111067 0)
(-8.94934 0.0120261 0)
(-9.03849 -0.0471124 0)
(-9.02214 -0.106027 0)
(-8.85735 -0.158263 0)
(-8.69064 -0.207345 0)
(-8.40314 -0.126078 0)
(-8.20072 -0.0114371 0)
(-7.77475 0.133306 0)
(-7.47805 0.230635 0)
(-6.95211 0.357236 0)
(-6.5347 0.394776 0)
(-5.93858 0.42836 0)
(-5.42471 0.408267 0)
(-4.81071 0.383335 0)
(-4.24245 0.32835 0)
(-3.64454 0.252653 0)
(-3.07279 0.162771 0)
(-2.51297 0.0340577 0)
(-1.99785 -0.136798 0)
(-1.48169 -0.275488 0)
(-1.04467 -0.376334 0)
(-0.621518 -0.332159 0)
(-0.301161 -0.277081 0)
(-0.0218786 -0.135912 0)
(0.0582969 -0.0874071 0)
(0.38123 -0.0379321 0)
(0.393127 -0.0147935 0)
(0.724056 -0.0367208 0)
(0.73716 -0.0146469 0)
(1.01923 -0.0197414 0)
(1.03613 -0.0210054 0)
(1.28618 -0.00968567 0)
(1.30328 -0.021163 0)
(1.52057 -0.00746346 0)
(1.53387 -0.0213222 0)
(1.71776 -0.00815963 0)
(1.72346 -0.0106661 0)
(1.85874 -0.0117058 0)
(1.86289 -0.00205802 0)
(1.93202 -0.00725149 0)
(1.93752 -0.00136681 0)
(1.95095 0.00110145 0)
(1.94642 0.0048667 0)
(1.94068 0.00983064 0)
(1.88466 0.0030392 0)
(1.87396 0.0186971 0)
(1.7593 -0.0017468 0)
(1.75028 0.0207024 0)
(1.6041 -0.00391494 0)
(1.59438 0.0204697 0)
(1.43918 -0.0164042 0)
(1.42818 0.0146359 0)
(1.26405 -0.0351093 0)
(1.2519 -0.0037101 0)
(1.06303 -0.0561833 0)
(1.04518 -0.00866201 0)
(0.80929 -0.085829 0)
(0.805504 -0.0980415 0)
(0.581222 -0.104667 0)
(0.500522 -0.0319514 0)
(0.275349 0.0309686 0)
(0.0828211 0.11671 0)
(-0.163869 0.138509 0)
(-0.364968 0.199996 0)
(-0.546134 0.163374 0)
(-0.667093 0.110957 0)
(-0.74196 0.0490967 0)
(-0.749783 -0.0199248 0)
(-0.683121 -0.0796501 0)
(-0.556834 -0.141602 0)
(-0.400765 -0.169576 0)
(-0.203384 -0.148264 0)
(-0.0865513 -0.144336 0)
(0.148077 -0.0556878 0)
(0.163071 -0.0431269 0)
(0.60757 -0.078332 0)
(0.624669 -0.0116551 0)
(1.12246 -0.0730685 0)
(1.143 -0.00461492 0)
(1.68183 -0.066606 0)
(1.703 -0.00439081 0)
(2.23262 -0.0569957 0)
(2.2561 -0.00263522 0)
(2.76388 -0.0502661 0)
(2.78043 -0.0163594 0)
(3.25438 -0.0403377 0)
(3.27454 -0.00782396 0)
(3.68195 -0.0259847 0)
(3.69583 -0.0137819 0)
(4.04189 -0.0103085 0)
(4.04974 -0.012837 0)
(4.32227 -0.00168289 0)
(4.32718 -0.0119389 0)
(4.50655 0.000447854 0)
(4.5071 0.00823366 0)
(4.57835 0.0034825 0)
(4.57 0.00903048 0)
(4.56323 0.0120213 0)
(4.50704 0.0188802 0)
(4.47005 0.0297994 0)
(4.3397 0.011109 0)
(4.29614 0.0386996 0)
(4.07759 0.00374797 0)
(4.04635 0.0353423 0)
(3.75443 0.000279982 0)
(3.72607 0.0438065 0)
(3.41024 -0.0115262 0)
(3.38311 0.0418034 0)
(3.04708 -0.0157549 0)
(3.02067 0.0401737 0)
(2.68905 -0.0177777 0)
(2.66504 0.0386664 0)
(2.35581 -0.0169726 0)
(2.33593 0.0378472 0)
(2.06164 -0.014887 0)
(2.04474 0.0322887 0)
(1.81842 -0.0176859 0)
(1.80189 0.0258167 0)
(1.62317 -0.0185018 0)
(1.61121 0.0192343 0)
(1.46611 -0.0128707 0)
(1.4588 0.0145447 0)
(1.34583 -0.00966916 0)
(1.34138 0.0105515 0)
(1.26026 -0.00719257 0)
(1.25702 0.00774338 0)
(1.20318 -0.00380413 0)
(1.20028 0.00546791 0)
(1.16664 -0.00693702 0)
(1.16611 0.00534758 0)
(1.12998 -0.00281468 0)
(1.12615 0.00754728 0)
(1.06809 -0.00203092 0)
(1.0634 0.00940096 0)
(0.997294 -0.0022619 0)
(0.992839 0.0100215 0)
(0.925786 -0.00168753 0)
(0.921503 0.0107796 0)
(0.852264 0.00176524 0)
(0.847581 0.0110659 0)
(0.773937 0.00354673 0)
(0.768806 0.0109338 0)
(0.694382 0.00504605 0)
(0.690123 0.00812129 0)
(0.624955 0.00993508 0)
(0.621903 0.0045092 0)
(0.577381 0.0104819 0)
(0.571733 0.00586113 0)
(0.557394 0.00564397 0)
(0.553143 0.00419694 0)
(0.562708 0.00480183 0)
(0.563513 -0.000627944 0)
(0.618151 0.00206166 0)
(0.620789 -0.00765089 0)
(0.725797 -0.00544018 0)
(0.732802 -0.016677 0)
(0.885889 -0.00326525 0)
(0.895222 -0.0229086 0)
(1.09816 -0.00786941 0)
(1.10433 -0.0188477 0)
(1.36412 -0.0168537 0)
(1.372 -0.0213185 0)
(1.66331 -0.0175492 0)
(1.67236 -0.0248517 0)
(1.96234 -0.0084514 0)
(1.97654 -0.0225542 0)
(2.24976 0.00260206 0)
(2.26272 -0.0155622 0)
(2.51395 0.00328446 0)
(2.52639 -0.0121706 0)
(2.74185 0.0166949 0)
(2.75471 -0.0132784 0)
(2.94536 0.0192561 0)
(2.95941 -0.010719 0)
(3.12794 0.0249891 0)
(3.13677 0.0041632 0)
(3.2796 0.0094003 0)
(3.28126 0.0157749 0)
(3.35443 0.0142483 0)
(3.35027 0.0184012 0)
(3.35873 0.0205549 0)
(3.34038 0.0281945 0)
(3.323 0.032309 0)
(3.26709 0.0253298 0)
(3.24203 0.0373337 0)
(3.13844 0.0220211 0)
(3.11627 0.0418758 0)
(2.96367 0.0196942 0)
(2.95001 0.0433854 0)
(2.76143 0.0265104 0)
(2.7506 0.048417 0)
(2.54682 0.020187 0)
(2.53348 0.050066 0)
(2.32462 0.0180738 0)
(2.31018 0.0508956 0)
(2.10322 0.0193422 0)
(2.08884 0.0514042 0)
(1.90083 0.0188452 0)
(1.88991 0.047109 0)
(1.73725 0.0178278 0)
(1.73084 0.0407071 0)
(1.61068 0.0201146 0)
(1.60603 0.0384852 0)
(1.51554 0.0205392 0)
(1.51263 0.0348195 0)
(1.4512 0.0214539 0)
(1.44887 0.0332903 0)
(1.40582 0.0205043 0)
(1.40345 0.0326455 0)
(1.36122 0.0214824 0)
(1.3581 0.0331523 0)
(1.30374 0.023772 0)
(1.30079 0.0360708 0)
(1.24526 0.0234201 0)
(1.24291 0.0367031 0)
(1.17691 0.0246537 0)
(1.17545 0.0389807 0)
(1.09306 0.0310574 0)
(1.09157 0.0431605 0)
(1.00105 0.0301082 0)
(0.999602 0.0435418 0)
(0.907964 0.0301104 0)
(0.908908 0.0413733 0)
(0.818614 0.0334563 0)
(0.822666 0.0375744 0)
(0.743214 0.0374166 0)
(0.74504 0.0342002 0)
(0.693707 0.0390903 0)
(0.691273 0.0349224 0)
(0.676861 0.0335522 0)
(0.675877 0.0315555 0)
(0.691323 0.0298227 0)
(0.693071 0.0225036 0)
(0.755285 0.025529 0)
(0.756488 0.0123701 0)
(0.862051 0.0214173 0)
(0.860216 0.0050837 0)
(1.01935 0.0131496 0)
(1.01031 0.00439754 0)
(1.23136 0.00378259 0)
(1.21716 0.00553757 0)
(1.47452 -0.00801679 0)
(1.46749 0.0122413 0)
(1.73472 -0.0115999 0)
(1.73116 0.011567 0)
(2.0036 -0.00720023 0)
(2.00044 0.0129765 0)
(2.2574 -0.00567088 0)
(2.2524 0.0140028 0)
(2.48695 0.00320832 0)
(2.48113 0.0182255 0)
(2.6843 0.00928384 0)
(2.67537 0.017715 0)
(2.84362 0.0174534 0)
(2.83595 0.0140185 0)
(2.95439 0.0278941 0)
(2.95262 0.0150176 0)
(3.02849 0.0304011 0)
(3.02795 0.020897 0)
(3.07398 0.0297331 0)
(3.07068 0.027095 0)
(3.0899 0.0290034 0)
(3.08478 0.0285391 0)
(3.0849 0.0288887 0)
(3.07532 0.0302653 0)
(3.07056 0.0314851 0)
(3.05123 0.0285311 0)
(3.04425 0.0327916 0)
(3.01315 0.0269129 0)
(3.00826 0.0329483 0)
(2.96953 0.0265554 0)
(2.96645 0.0328012 0)
(2.92782 0.0253414 0)
(2.92537 0.0323297 0)
(2.88824 0.0257292 0)
(2.8865 0.0313683 0)
(2.85251 0.0252425 0)
(2.85064 0.0314786 0)
(2.82373 0.0241479 0)
(2.8226 0.0303504 0)
(2.79916 0.0244309 0)
(2.79838 0.0289328 0)
(2.77456 0.0241006 0)
(2.77528 0.0275202 0)
(2.75936 0.0245442 0)
(2.76008 0.0243548 0)
(2.75752 0.024099 0)
(2.75702 0.0243461 0)
(2.75665 0.0239538 0)
(2.75635 0.0243679 0)
(2.75507 0.0238657 0)
(2.75627 0.0250243 0)
(2.74552 0.021596 0)
(2.74928 0.0240478 0)
(2.73323 0.0203358 0)
(2.73683 0.0248208 0)
(2.71781 0.0198209 0)
(2.71901 0.0258598 0)
(2.69502 0.0208442 0)
(2.69434 0.0278276 0)
(2.66751 0.0203177 0)
(2.66639 0.0278232 0)
(2.63523 0.0215886 0)
(2.63352 0.0290264 0)
(2.59858 0.0213914 0)
(2.59601 0.0277773 0)
(2.55406 0.0215943 0)
(2.55123 0.0292957 0)
(2.50882 0.0216598 0)
(2.50558 0.0300042 0)
(2.46465 0.0215884 0)
(2.46172 0.0283081 0)
(2.42358 0.0212775 0)
(2.42151 0.026667 0)
(2.38871 0.0233002 0)
(2.38847 0.0235065 0)
(2.36841 0.0233918 0)
(2.36844 0.0225902 0)
(2.36472 0.0215576 0)
(2.36848 0.0208131 0)
(2.36885 0.0197533 0)
(2.38619 0.0233958 0)
(2.38803 0.0179031 0)
(2.42414 0.0236801 0)
(2.427 0.0146424 0)
(2.48642 0.0235535 0)
(2.49017 0.0108663 0)
(2.5769 0.0222135 0)
(2.58049 0.00705261 0)
(2.69593 0.0207225 0)
(2.6977 0.0040962 0)
(2.84229 0.0126646 0)
(2.84428 0.00217243 0)
(3.00895 0.0123216 0)
(3.01683 0.000389198 0)
(3.19873 0.00354648 0)
(3.20479 -0.00585285 0)
(3.403 0.00207068 0)
(3.40542 0.00276302 0)
(3.6036 0.00380375 0)
(3.61003 0.00329332 0)
(3.80259 0.00120896 0)
(3.8067 0.00474186 0)
(3.99539 -0.000856787 0)
(4.00019 0.0110834 0)
(4.17765 0.00428829 0)
(4.17916 0.00733077 0)
(4.34415 0.00617406 0)
(4.3472 0.0134883 0)
(4.4767 0.00668946 0)
(4.47834 0.0133096 0)
(4.56968 0.00955914 0)
(4.56524 0.0125247 0)
(4.6232 0.0132703 0)
(4.62286 0.0152504 0)
(4.63275 0.015799 0)
(4.63409 0.0154162 0)
(4.63736 0.015101 0)
(4.62499 0.0187685 0)
(4.6217 0.0194664 0)
(4.59183 0.0171647 0)
(4.58369 0.0210809 0)
(4.53883 0.0137256 0)
(4.53159 0.0204136 0)
(4.47049 0.0131708 0)
(4.46691 0.0191793 0)
(4.39964 0.0117628 0)
(4.3972 0.0190854 0)
(4.33349 0.00872616 0)
(4.332 0.0173383 0)
(4.27321 0.00912708 0)
(4.27273 0.0163991 0)
(4.22213 0.00586324 0)
(4.22242 0.0126684 0)
(4.17573 0.00604461 0)
(4.17484 0.0134359 0)
(4.13465 0.00514973 0)
(4.1323 0.0125589 0)
(4.09548 0.00502793 0)
(4.09384 0.0130407 0)
(4.06209 0.00676071 0)
(4.06089 0.0124313 0)
(4.03404 0.00619397 0)
(4.03364 0.0114846 0)
(4.01234 0.00482224 0)
(4.01115 0.00958105 0)
(3.99271 0.00408085 0)
(3.9917 0.0091753 0)
(3.97461 0.00510228 0)
(3.9736 0.00928065 0)
(3.95916 0.0043169 0)
(3.958 0.00852017 0)
(3.94445 0.00431868 0)
(3.94331 0.00843247 0)
(3.93042 0.00436182 0)
(3.92911 0.00802066 0)
(3.91582 0.00411431 0)
(3.91427 0.007664 0)
(3.90123 0.00311892 0)
(3.89985 0.00715382 0)
(3.88612 0.00332073 0)
(3.88452 0.00718238 0)
(3.8682 0.0035285 0)
(3.86648 0.00728312 0)
(3.85001 0.00362311 0)
(3.8487 0.00706708 0)
(3.83562 0.0047669 0)
(3.83564 0.00581979 0)
(3.834 0.00653274 0)
(3.82715 0.00896525 0)
(3.80849 0.0133542 0)
(-0.00359864 0.0264642 0)
(-0.0475639 0.0612225 0)
(-0.12489 0.0838033 0)
(-0.225781 0.103402 0)
(-0.354788 0.112495 0)
(-0.490477 0.121652 0)
(-0.654273 0.128941 0)
(-0.802182 0.135239 0)
(-0.991514 0.143245 0)
(-1.13769 0.147344 0)
(-1.34575 0.152976 0)
(-1.48188 0.152612 0)
(-1.69656 0.155276 0)
(-1.8188 0.151973 0)
(-2.02622 0.153553 0)
(-2.1364 0.148839 0)
(-2.32555 0.148419 0)
(-2.42854 0.145182 0)
(-2.59202 0.143022 0)
(-2.69008 0.139271 0)
(-2.82331 0.134514 0)
(-2.91308 0.127045 0)
(-3.01239 0.116203 0)
(-3.08422 0.10311 0)
(-3.14816 0.0855638 0)
(-3.19276 0.0665703 0)
(-3.22271 0.0455463 0)
(-3.23885 0.0267211 0)
(-3.23992 0.00980788 0)
(-3.22339 -0.00573101 0)
(-3.20847 -0.0201174 0)
(-3.15946 -0.0340846 0)
(-3.14511 -0.040218 0)
(-3.05431 -0.0405748 0)
(-3.04687 -0.0401459 0)
(-2.93275 -0.0424415 0)
(-2.92333 -0.0410271 0)
(-2.80718 -0.0420825 0)
(-2.78061 -0.0445897 0)
(-2.67315 -0.0488352 0)
(-2.6203 -0.0571065 0)
(-2.51657 -0.0646 0)
(-2.43566 -0.0718585 0)
(-2.32757 -0.0766559 0)
(-2.22257 -0.0790415 0)
(-2.10738 -0.0793906 0)
(-1.98738 -0.0785799 0)
(-1.86549 -0.0772672 0)
(-1.7392 -0.0783055 0)
(-1.6119 -0.0810648 0)
(-1.48539 -0.0833311 0)
(-1.35539 -0.0852732 0)
(-1.2354 -0.0843002 0)
(-1.10807 -0.080344 0)
(-1.00457 -0.0765846 0)
(-0.890116 -0.0686389 0)
(-0.810941 -0.0660272 0)
(-0.723836 -0.0581667 0)
(-0.66625 -0.0532613 0)
(-0.617758 -0.0345342 0)
(-0.583032 -0.0148303 0)
(-0.580032 -0.00239848 0)
(-0.569352 0.00748273 0)
(-0.671441 0.0639834 0)
(-0.663353 0.0664987 0)
(-0.932611 0.154021 0)
(-0.940672 0.129473 0)
(-1.36676 0.235062 0)
(-1.38909 0.186796 0)
(-1.9688 0.318448 0)
(-2.02254 0.260987 0)
(-2.73252 0.401962 0)
(-2.85782 0.350417 0)
(-3.64734 0.488933 0)
(-3.89683 0.460985 0)
(-4.71116 0.575362 0)
(-5.11095 0.579569 0)
(-5.91393 0.660629 0)
(-6.45182 0.676128 0)
(-7.21471 0.739843 0)
(-7.83295 0.760026 0)
(-8.52474 0.783712 0)
(-9.13155 0.772066 0)
(-9.70102 0.751905 0)
(-10.1969 0.729097 0)
(-10.6029 0.667372 0)
(-10.9247 0.580821 0)
(-11.1561 0.457713 0)
(-11.3113 0.309394 0)
(-11.397 0.163927 0)
(-11.4325 0.0524989 0)
(-11.3708 -0.0434288 0)
(-11.287 -0.166569 0)
(-11.011 -0.174813 0)
(-10.7811 -0.217836 0)
(-10.3247 -0.328037 0)
(-9.96861 -0.392578 0)
(-9.35995 -0.508067 0)
(-8.88817 -0.580991 0)
(-8.14501 -0.711249 0)
(-7.55436 -0.743665 0)
(-6.7306 -0.84381 0)
(-6.04818 -0.848268 0)
(-5.19249 -0.922378 0)
(-4.45739 -0.900246 0)
(-3.61241 -0.949879 0)
(-2.86066 -0.893581 0)
(-2.08004 -0.876999 0)
(-1.48432 -0.737104 0)
(-0.91315 -0.667737 0)
(-0.559545 -0.530993 0)
(-0.0135105 -0.499668 0)
(0.211372 -0.361334 0)
(1.00786 -0.395896 0)
(1.08017 -0.326067 0)
(1.97411 -0.337732 0)
(1.98764 -0.288278 0)
(2.75059 -0.271554 0)
(2.77429 -0.25096 0)
(3.41212 -0.216415 0)
(3.43676 -0.220962 0)
(3.97442 -0.172004 0)
(4.00058 -0.184584 0)
(4.4449 -0.131285 0)
(4.46335 -0.135483 0)
(4.80705 -0.0901466 0)
(4.81727 -0.0773156 0)
(5.04388 -0.0413114 0)
(5.05461 -0.0238224 0)
(5.14128 0.0115855 0)
(5.15075 0.024545 0)
(5.14973 0.0411653 0)
(5.08364 0.0722663 0)
(5.06758 0.104797 0)
(4.85308 0.122024 0)
(4.84169 0.161152 0)
(4.50086 0.146752 0)
(4.48656 0.19305 0)
(4.07174 0.156114 0)
(4.05495 0.211292 0)
(3.58979 0.163191 0)
(3.56924 0.235085 0)
(3.04609 0.203978 0)
(3.03287 0.279368 0)
(2.3981 0.251846 0)
(2.37687 0.312309 0)
(1.63746 0.285374 0)
(1.51415 0.421867 0)
(0.841766 0.395066 0)
(0.664014 0.477621 0)
(0.165914 0.410378 0)
(-0.00408806 0.450621 0)
(-0.33201 0.298497 0)
(-0.436176 0.25789 0)
(-0.595349 0.174678 0)
(-0.652938 0.0844324 0)
(-0.659339 -0.0136366 0)
(-0.55798 -0.12676 0)
(-0.487292 -0.2073 0)
(-0.181204 -0.291733 0)
(-0.0976123 -0.270703 0)
(0.481324 -0.355898 0)
(0.540181 -0.295574 0)
(1.60883 -0.496477 0)
(1.64367 -0.407809 0)
(2.88694 -0.538689 0)
(2.91859 -0.429039 0)
(4.20293 -0.553969 0)
(4.23805 -0.441548 0)
(5.46722 -0.521425 0)
(5.52765 -0.430393 0)
(6.66214 -0.48217 0)
(6.71429 -0.40279 0)
(7.77581 -0.417113 0)
(7.81236 -0.377001 0)
(8.77349 -0.366049 0)
(8.7896 -0.320081 0)
(9.62787 -0.296043 0)
(9.63707 -0.272219 0)
(10.3469 -0.226241 0)
(10.3625 -0.219204 0)
(10.9025 -0.132793 0)
(10.9087 -0.132261 0)
(11.2654 -0.0541826 0)
(11.2689 -0.0270007 0)
(11.3996 0.0181554 0)
(11.3916 0.0581002 0)
(11.3782 0.0912587 0)
(11.2536 0.136136 0)
(11.2109 0.176067 0)
(10.8889 0.208037 0)
(10.8659 0.246799 0)
(10.3453 0.265246 0)
(10.3337 0.320366 0)
(9.67511 0.279484 0)
(9.66308 0.354705 0)
(8.92436 0.295525 0)
(8.90454 0.387012 0)
(8.11252 0.289325 0)
(8.08916 0.387866 0)
(7.29201 0.271955 0)
(7.27158 0.360719 0)
(6.51538 0.234387 0)
(6.4937 0.322971 0)
(5.81764 0.189935 0)
(5.79121 0.281711 0)
(5.23279 0.149417 0)
(5.20759 0.229812 0)
(4.74399 0.120134 0)
(4.72717 0.18095 0)
(4.34641 0.0918173 0)
(4.33672 0.135022 0)
(4.04303 0.0641721 0)
(4.03656 0.0959396 0)
(3.83479 0.0403384 0)
(3.82751 0.0639868 0)
(3.69902 0.020639 0)
(3.69121 0.0468408 0)
(3.58951 0.0190357 0)
(3.58424 0.050507 0)
(3.44857 0.0462151 0)
(3.44082 0.0735623 0)
(3.26993 0.0547023 0)
(3.26179 0.0816651 0)
(3.08236 0.0558953 0)
(3.07386 0.0820833 0)
(2.89043 0.0603341 0)
(2.8805 0.080188 0)
(2.68923 0.0688606 0)
(2.67702 0.0838763 0)
(2.48128 0.0746462 0)
(2.46754 0.0848919 0)
(2.2862 0.0698265 0)
(2.27768 0.0683795 0)
(2.13276 0.0575346 0)
(2.12684 0.0453182 0)
(2.05852 0.029286 0)
(2.049 0.0195621 0)
(2.05462 -0.00160681 0)
(2.05494 -0.015367 0)
(2.16553 -0.0450687 0)
(2.16878 -0.0676552 0)
(2.41538 -0.0914979 0)
(2.42668 -0.116412 0)
(2.79233 -0.135675 0)
(2.81143 -0.169315 0)
(3.29854 -0.178291 0)
(3.30974 -0.201417 0)
(3.91366 -0.232658 0)
(3.92196 -0.243801 0)
(4.61691 -0.253989 0)
(4.62146 -0.259273 0)
(5.33305 -0.24411 0)
(5.34378 -0.261415 0)
(6.02736 -0.224592 0)
(6.041 -0.245844 0)
(6.6777 -0.19932 0)
(6.68991 -0.220817 0)
(7.25618 -0.161897 0)
(7.27386 -0.199065 0)
(7.75607 -0.121044 0)
(7.78464 -0.182777 0)
(8.22047 -0.10228 0)
(8.24594 -0.153258 0)
(8.64439 -0.0928187 0)
(8.65177 -0.0885172 0)
(8.95072 -0.0401237 0)
(8.95135 -0.015168 0)
(9.09311 0.0273662 0)
(9.09061 0.0419838 0)
(9.10983 0.0688894 0)
(9.06883 0.0955087 0)
(9.04522 0.120508 0)
(8.90615 0.144049 0)
(8.8832 0.172382 0)
(8.61903 0.186219 0)
(8.60805 0.21717 0)
(8.23969 0.211699 0)
(8.23194 0.250731 0)
(7.79792 0.226204 0)
(7.78564 0.279074 0)
(7.31398 0.233443 0)
(7.29459 0.297871 0)
(6.79836 0.232268 0)
(6.77622 0.299184 0)
(6.28582 0.22023 0)
(6.26504 0.279456 0)
(5.82523 0.190725 0)
(5.81134 0.239483 0)
(5.43762 0.167184 0)
(5.43116 0.203149 0)
(5.13068 0.141899 0)
(5.12479 0.170368 0)
(4.89566 0.114735 0)
(4.89109 0.138111 0)
(4.72933 0.0972767 0)
(4.72232 0.12582 0)
(4.58903 0.0962233 0)
(4.58236 0.126762 0)
(4.42742 0.113425 0)
(4.42088 0.139703 0)
(4.24598 0.110876 0)
(4.24385 0.137021 0)
(4.05023 0.125455 0)
(4.05285 0.146998 0)
(3.82954 0.13894 0)
(3.83042 0.162896 0)
(3.57586 0.143783 0)
(3.57664 0.172528 0)
(3.30912 0.147707 0)
(3.31281 0.171792 0)
(3.04631 0.148864 0)
(3.05753 0.16383 0)
(2.81169 0.144348 0)
(2.82613 0.145349 0)
(2.64128 0.126218 0)
(2.64444 0.116394 0)
(2.55429 0.0915605 0)
(2.55224 0.0792933 0)
(2.56049 0.0559171 0)
(2.56505 0.0404433 0)
(2.68536 0.0140894 0)
(2.6865 -0.00906515 0)
(2.93753 -0.0213669 0)
(2.9324 -0.0485023 0)
(3.30786 -0.0672282 0)
(3.28792 -0.088198 0)
(3.7966 -0.12744 0)
(3.75915 -0.132057 0)
(4.38276 -0.161135 0)
(4.3435 -0.151114 0)
(5.0139 -0.188885 0)
(4.98346 -0.149804 0)
(5.66359 -0.190885 0)
(5.63248 -0.160294 0)
(6.29454 -0.174926 0)
(6.26624 -0.138181 0)
(6.87408 -0.149633 0)
(6.84971 -0.122333 0)
(7.38415 -0.119254 0)
(7.36613 -0.0970175 0)
(7.82771 -0.0786821 0)
(7.80233 -0.0652202 0)
(8.17501 -0.0300078 0)
(8.15485 -0.0367248 0)
(8.42429 0.01071 0)
(8.41175 -0.0017125 0)
(8.5987 0.0353558 0)
(8.59002 0.030446 0)
(8.69682 0.0563597 0)
(8.69353 0.0581548 0)
(8.73734 0.0750881 0)
(8.73266 0.0797496 0)
(8.73384 0.0838951 0)
(8.71576 0.0909954 0)
(8.70684 0.0993765 0)
(8.65768 0.101894 0)
(8.65073 0.110894 0)
(8.56987 0.105836 0)
(8.56648 0.116357 0)
(8.47301 0.104481 0)
(8.46998 0.116968 0)
(8.37422 0.103003 0)
(8.37212 0.113935 0)
(8.27825 0.100979 0)
(8.27616 0.111517 0)
(8.19259 0.0932126 0)
(8.18991 0.104944 0)
(8.1141 0.0900809 0)
(8.11378 0.100231 0)
(8.03676 0.0922437 0)
(8.03637 0.100043 0)
(7.96819 0.0837127 0)
(7.96818 0.0888903 0)
(7.91483 0.0764696 0)
(7.92024 0.0805003 0)
(7.87617 0.0717176 0)
(7.88711 0.0787687 0)
(7.84326 0.0716469 0)
(7.84947 0.0801801 0)
(7.79789 0.0781354 0)
(7.80373 0.0868835 0)
(7.74119 0.0820938 0)
(7.74717 0.0920564 0)
(7.68012 0.0841087 0)
(7.68119 0.0968926 0)
(7.60783 0.0885378 0)
(7.60661 0.101147 0)
(7.5245 0.0914754 0)
(7.52286 0.103543 0)
(7.4332 0.0948316 0)
(7.43191 0.10659 0)
(7.33573 0.0975164 0)
(7.33473 0.108453 0)
(7.22892 0.105893 0)
(7.22648 0.114283 0)
(7.11471 0.102612 0)
(7.11044 0.114723 0)
(7.00273 0.0994015 0)
(6.99813 0.110985 0)
(6.89508 0.098747 0)
(6.89222 0.105514 0)
(6.80203 0.09393 0)
(6.8006 0.0937758 0)
(6.73503 0.0830303 0)
(6.73413 0.0790858 0)
(6.70887 0.0661139 0)
(6.70978 0.0617642 0)
(6.70852 0.0575529 0)
(6.73386 0.0470925 0)
(6.73468 0.0359402 0)
(6.80303 0.0299486 0)
(6.80356 0.0126919 0)
(6.92222 0.00961292 0)
(6.9224 -0.0126508 0)
(7.10193 -0.0151256 0)
(7.09851 -0.0372098 0)
(7.34723 -0.0420405 0)
(7.33713 -0.0604122 0)
(7.6551 -0.0668443 0)
(7.63963 -0.0769747 0)
(8.00505 -0.0896592 0)
(8.00843 -0.104324 0)
(8.40447 -0.106809 0)
(8.41164 -0.109278 0)
(8.83972 -0.114463 0)
(8.84338 -0.11677 0)
(9.29012 -0.124939 0)
(9.28979 -0.123949 0)
(9.73664 -0.12354 0)
(9.7294 -0.118814 0)
(10.1793 -0.120216 0)
(10.1676 -0.111398 0)
(10.5985 -0.112475 0)
(10.5748 -0.102425 0)
(10.9948 -0.101953 0)
(10.9806 -0.0933451 0)
(11.337 -0.0794705 0)
(11.3356 -0.0666239 0)
(11.6182 -0.0425366 0)
(11.6125 -0.0317737 0)
(11.8175 -0.00882107 0)
(11.811 -0.00122658 0)
(11.9445 0.0223807 0)
(11.9365 0.0225656 0)
(12.0152 0.0339145 0)
(12.0055 0.0391948 0)
(12.0303 0.047445 0)
(12.0065 0.0582172 0)
(12.0044 0.0655485 0)
(11.9442 0.0732634 0)
(11.9398 0.0800711 0)
(11.8376 0.0833556 0)
(11.8364 0.0899619 0)
(11.702 0.0845428 0)
(11.7031 0.0927831 0)
(11.5556 0.0810677 0)
(11.5599 0.0887011 0)
(11.4088 0.0742569 0)
(11.4157 0.082657 0)
(11.2677 0.0660894 0)
(11.2762 0.0723176 0)
(11.1371 0.0638175 0)
(11.1429 0.0684469 0)
(11.0196 0.0555244 0)
(11.0173 0.0643408 0)
(10.9073 0.0526507 0)
(10.9055 0.0584199 0)
(10.8062 0.0453284 0)
(10.8038 0.0511532 0)
(10.7168 0.0399318 0)
(10.7159 0.0447313 0)
(10.6433 0.0328067 0)
(10.6422 0.0405548 0)
(10.5806 0.0312693 0)
(10.5794 0.0370344 0)
(10.5262 0.0278407 0)
(10.5243 0.0346196 0)
(10.4771 0.0234928 0)
(10.4755 0.0315383 0)
(10.433 0.0226141 0)
(10.4317 0.0294949 0)
(10.3917 0.0206316 0)
(10.3899 0.027998 0)
(10.3521 0.0203966 0)
(10.35 0.02795 0)
(10.312 0.0192818 0)
(10.3096 0.0267967 0)
(10.2714 0.0188306 0)
(10.2691 0.0265814 0)
(10.2286 0.0204097 0)
(10.2262 0.0274974 0)
(10.1834 0.0195858 0)
(10.1809 0.0258046 0)
(10.1406 0.0155138 0)
(10.1388 0.0183097 0)
(10.1083 0.00536977 0)
(10.1078 0.00583366 0)
(10.0826 0.0243259 0)
(10.059 0.0296668 0)
(-0.00087164 0.0604779 0)
(-0.0714978 0.146936 0)
(-0.190464 0.207329 0)
(-0.344396 0.262564 0)
(-0.52628 0.293724 0)
(-0.734854 0.325063 0)
(-0.948228 0.338016 0)
(-1.1869 0.354055 0)
(-1.40262 0.356908 0)
(-1.65194 0.36679 0)
(-1.85112 0.362639 0)
(-2.09631 0.36512 0)
(-2.26984 0.353702 0)
(-2.49771 0.348687 0)
(-2.64401 0.333394 0)
(-2.84376 0.323561 0)
(-2.96609 0.310091 0)
(-3.13159 0.296942 0)
(-3.23385 0.28433 0)
(-3.3615 0.267423 0)
(-3.44511 0.252797 0)
(-3.5347 0.229677 0)
(-3.59663 0.205992 0)
(-3.65155 0.175201 0)
(-3.68927 0.142295 0)
(-3.71623 0.106897 0)
(-3.73167 0.0723709 0)
(-3.73712 0.0403876 0)
(-3.73211 0.0116273 0)
(-3.7181 -0.0128884 0)
(-3.69252 -0.0401411 0)
(-3.67317 -0.0580081 0)
(-3.6219 -0.0830784 0)
(-3.60361 -0.0883978 0)
(-3.51563 -0.0961926 0)
(-3.49413 -0.0998222 0)
(-3.38703 -0.0975928 0)
(-3.34662 -0.103298 0)
(-3.23444 -0.102751 0)
(-3.16647 -0.113802 0)
(-3.05509 -0.123836 0)
(-2.96241 -0.141806 0)
(-2.84747 -0.155984 0)
(-2.73332 -0.173695 0)
(-2.60828 -0.185067 0)
(-2.47556 -0.197432 0)
(-2.33731 -0.205915 0)
(-2.191 -0.211963 0)
(-2.04326 -0.219977 0)
(-1.89262 -0.223548 0)
(-1.74315 -0.226771 0)
(-1.59815 -0.225362 0)
(-1.45332 -0.220413 0)
(-1.32261 -0.208959 0)
(-1.18963 -0.191367 0)
(-1.08593 -0.17067 0)
(-0.979663 -0.144203 0)
(-0.912229 -0.125009 0)
(-0.850473 -0.0932846 0)
(-0.818604 -0.0642859 0)
(-0.81074 -0.0195115 0)
(-0.803781 0.0100615 0)
(-0.915552 0.100345 0)
(-0.913131 0.117309 0)
(-1.2073 0.278184 0)
(-1.21774 0.284974 0)
(-1.68427 0.467892 0)
(-1.7344 0.443797 0)
(-2.35649 0.638708 0)
(-2.47421 0.624264 0)
(-3.2019 0.796016 0)
(-3.41873 0.815079 0)
(-4.2069 0.953591 0)
(-4.54626 1.00645 0)
(-5.35137 1.11917 0)
(-5.81631 1.18769 0)
(-6.59856 1.27515 0)
(-7.15629 1.33865 0)
(-7.88236 1.39542 0)
(-8.48034 1.42584 0)
(-9.1156 1.44086 0)
(-9.66546 1.42459 0)
(-10.1756 1.37933 0)
(-10.6122 1.28816 0)
(-10.9647 1.18755 0)
(-11.2327 1.01917 0)
(-11.4238 0.853273 0)
(-11.5462 0.651845 0)
(-11.6156 0.446111 0)
(-11.6438 0.238235 0)
(-11.6562 0.03655 0)
(-11.5992 -0.143612 0)
(-11.4913 -0.372583 0)
(-11.3833 -0.521767 0)
(-10.9378 -0.794932 0)
(-10.6894 -0.883626 0)
(-9.94473 -1.2104 0)
(-9.57996 -1.1865 0)
(-8.63584 -1.56255 0)
(-8.21705 -1.48468 0)
(-7.15004 -1.79318 0)
(-6.67326 -1.67574 0)
(-5.55122 -1.90186 0)
(-5.01407 -1.76546 0)
(-3.91308 -1.88915 0)
(-3.33945 -1.75615 0)
(-2.34703 -1.76077 0)
(-1.8153 -1.58175 0)
(-1.01554 -1.39748 0)
(-0.659846 -1.2078 0)
(0.215258 -1.14155 0)
(0.427396 -0.998587 0)
(1.57285 -1.05415 0)
(1.70538 -0.914597 0)
(2.98459 -0.961461 0)
(3.02306 -0.841212 0)
(4.16785 -0.804422 0)
(4.174 -0.730332 0)
(5.13524 -0.666665 0)
(5.14304 -0.624899 0)
(5.92962 -0.541546 0)
(5.94799 -0.530504 0)
(6.58568 -0.441311 0)
(6.60726 -0.430225 0)
(7.10839 -0.336936 0)
(7.1262 -0.309749 0)
(7.48375 -0.214299 0)
(7.50873 -0.176889 0)
(7.69029 -0.0863545 0)
(7.72564 -0.040383 0)
(7.77326 0.0247463 0)
(7.74881 0.0899358 0)
(7.71763 0.150336 0)
(7.5562 0.238299 0)
(7.52454 0.301876 0)
(7.15168 0.357358 0)
(7.13269 0.427139 0)
(6.58162 0.432052 0)
(6.56422 0.50205 0)
(5.88625 0.472623 0)
(5.86279 0.551873 0)
(5.08305 0.534855 0)
(5.06248 0.582288 0)
(4.18465 0.599435 0)
(4.135 0.707868 0)
(3.14372 0.704183 0)
(3.00913 0.897 0)
(1.99415 0.813304 0)
(1.87191 0.927874 0)
(0.975142 0.796781 0)
(0.89047 0.858132 0)
(0.21885 0.678123 0)
(0.156356 0.633352 0)
(-0.175393 0.463166 0)
(-0.237427 0.326024 0)
(-0.304912 0.130097 0)
(-0.242 -0.0772664 0)
(-0.224259 -0.240931 0)
(0.176883 -0.478924 0)
(0.173618 -0.527527 0)
(1.04335 -0.766575 0)
(1.04114 -0.745756 0)
(2.4536 -1.15837 0)
(2.49622 -1.08233 0)
(4.2268 -1.35631 0)
(4.27456 -1.22935 0)
(6.02444 -1.36982 0)
(6.05261 -1.2573 0)
(7.75357 -1.31835 0)
(7.78707 -1.21214 0)
(9.3307 -1.22297 0)
(9.40564 -1.13152 0)
(10.8067 -1.12925 0)
(10.8782 -1.0478 0)
(12.1522 -0.995805 0)
(12.2123 -0.932059 0)
(13.3415 -0.851345 0)
(13.3776 -0.793484 0)
(14.3849 -0.702965 0)
(14.4054 -0.670562 0)
(15.2622 -0.568785 0)
(15.2829 -0.510787 0)
(15.9351 -0.353789 0)
(15.9705 -0.303718 0)
(16.3375 -0.142964 0)
(16.3997 -0.0705711 0)
(16.5234 0.0424454 0)
(16.535 0.142055 0)
(16.5207 0.23358 0)
(16.3754 0.350897 0)
(16.3316 0.417678 0)
(15.9403 0.511239 0)
(15.9189 0.581767 0)
(15.2813 0.645316 0)
(15.2776 0.711513 0)
(14.4443 0.730048 0)
(14.4414 0.80835 0)
(13.4755 0.788054 0)
(13.4625 0.865529 0)
(12.4104 0.790618 0)
(12.3872 0.88527 0)
(11.3228 0.730803 0)
(11.2996 0.846773 0)
(10.2559 0.666431 0)
(10.2323 0.768245 0)
(9.30403 0.543436 0)
(9.2711 0.653941 0)
(8.47899 0.444327 0)
(8.45157 0.537141 0)
(7.77389 0.359805 0)
(7.75749 0.426432 0)
(7.19087 0.275547 0)
(7.18735 0.320553 0)
(6.76459 0.187053 0)
(6.75688 0.222963 0)
(6.47365 0.119002 0)
(6.46148 0.150998 0)
(6.25962 0.0821823 0)
(6.25369 0.120584 0)
(6.05598 0.120226 0)
(6.04816 0.169318 0)
(5.81722 0.159326 0)
(5.80431 0.203654 0)
(5.54774 0.16937 0)
(5.53438 0.212025 0)
(5.26815 0.176928 0)
(5.25488 0.215802 0)
(4.97945 0.196422 0)
(4.96285 0.22404 0)
(4.68377 0.208082 0)
(4.66614 0.226148 0)
(4.39046 0.205795 0)
(4.37857 0.201133 0)
(4.14275 0.169023 0)
(4.1386 0.150396 0)
(3.99753 0.103369 0)
(3.98535 0.0750712 0)
(3.95776 0.0231717 0)
(3.96229 -0.013341 0)
(4.06141 -0.0825466 0)
(4.06924 -0.132546 0)
(4.35655 -0.222391 0)
(4.36102 -0.270936 0)
(4.83457 -0.357851 0)
(4.85219 -0.405334 0)
(5.47466 -0.481151 0)
(5.49675 -0.516403 0)
(6.27484 -0.586418 0)
(6.28656 -0.608281 0)
(7.17992 -0.686717 0)
(7.1909 -0.683053 0)
(8.14333 -0.697966 0)
(8.14924 -0.686966 0)
(9.08115 -0.675438 0)
(9.10642 -0.652991 0)
(9.9872 -0.616826 0)
(10.0084 -0.592021 0)
(10.8247 -0.536624 0)
(10.8385 -0.525287 0)
(11.5545 -0.427803 0)
(11.5867 -0.480947 0)
(12.2162 -0.366757 0)
(12.2527 -0.437281 0)
(12.8504 -0.322778 0)
(12.8669 -0.357614 0)
(13.3967 -0.245963 0)
(13.3979 -0.210018 0)
(13.7584 -0.0924023 0)
(13.7661 -0.0428096 0)
(13.9326 0.043099 0)
(13.9473 0.0948642 0)
(13.9754 0.162273 0)
(13.9361 0.227602 0)
(13.911 0.271748 0)
(13.744 0.34391 0)
(13.7223 0.388279 0)
(13.3941 0.437513 0)
(13.3851 0.479244 0)
(12.9257 0.50371 0)
(12.9166 0.561379 0)
(12.3782 0.53864 0)
(12.3592 0.62093 0)
(11.7532 0.561777 0)
(11.7262 0.651222 0)
(11.0817 0.559672 0)
(11.0484 0.650218 0)
(10.4206 0.512129 0)
(10.3921 0.589649 0)
(9.80571 0.448547 0)
(9.79001 0.503599 0)
(9.28053 0.38272 0)
(9.26555 0.435492 0)
(8.8469 0.314083 0)
(8.8351 0.354211 0)
(8.50008 0.253415 0)
(8.48988 0.292127 0)
(8.23133 0.224454 0)
(8.22067 0.270596 0)
(7.97382 0.247339 0)
(7.96217 0.299531 0)
(7.67981 0.269222 0)
(7.67084 0.313874 0)
(7.36267 0.283856 0)
(7.35819 0.328095 0)
(7.0203 0.314692 0)
(7.01991 0.360739 0)
(6.64069 0.360684 0)
(6.64672 0.393121 0)
(6.2335 0.371363 0)
(6.23947 0.405665 0)
(5.81054 0.369258 0)
(5.82832 0.389909 0)
(5.42009 0.348845 0)