/*--------------------------------*- C++ -*----------------------------------*\
| =========                 |                                                 |
| \\      /  F ield         | OpenFOAM: The Open Source CFD Toolbox           |
|  \\    /   O peration     | Version:  v1812                                 |
|   \\  /    A nd           | Web:      www.OpenFOAM.com                      |
|    \\/     M anipulation  |                                                 |
\*---------------------------------------------------------------------------*/
FoamFile
{
    version     2.0;
    format      ascii;
    class       volScalarField;
    location    "1.3";
    object      p;
}
// * * * * * * * * * * * * * * * * * * * * * * * * * * * * * * * * * * * * * //

dimensions      [1 -1 -2 0 0 0 0];


internalField   nonuniform List<scalar> 
20400
(
105605
105604
105604
105604
105603
105603
105602
105601
105600
105599
105598
105597
105596
105595
105594
105593
105592
105591
105590
105589
105588
105587
105586
105585
105584
105583
105581
105580
105579
105577
105575
105573
105571
105569
105567
105564
105561
105559
105555
105553
105549
105546
105541
105538
105532
105529
105523
105520
105514
105511
105504
105502
105494
105493
105485
105487
105477
105481
105472
105477
105475
105481
105484
105491
105498
105506
105514
105531
105546
105559
105576
105594
105614
105634
105655
105676
105698
105719
105740
105760
105779
105798
105815
105832
105847
105861
105874
105885
105895
105904
105912
105918
105924
105928
105932
105934
105936
105936
105935
105933
105930
105927
105923
105917
105912
105904
105894
105885
105876
105866
105856
105846
105834
105822
105811
105801
105791
105783
105779
105774
105773
105787
105799
105810
105818
105833
105845
105859
105873
105881
105895
105908
105922
105933
105947
105950
105954
105960
105962
105965
105965
105964
105963
105960
105956
105951
105946
105940
105933
105926
105919
105912
105903
105895
105887
105878
105870
105861
105854
105844
105838
105828
105823
105813
105808
105801
105794
105787
105781
105774
105769
105764
105756
105752
105749
105743
105739
105733
105730
105723
105719
105712
105707
105699
105696
105687
105683
105674
105667
105659
105652
105643
105636
105628
105621
105613
105608
105601
105595
105591
105586
105584
105581
105580
105579
105579
105579
105581
105580
105582
105581
105581
105581
105580
105577
105575
105571
105567
105561
105556
105550
105544
105537
105529
105522
105512
105504
105495
105485
105474
105464
105453
105440
105428
105416
105403
105389
105376
105361
105348
105332
105318
105302
105288
105273
105258
105243
105231
105214
105199
105185
105169
105153
105135
105118
105098
105079
105061
105038
105019
104996
104974
104949
104927
104899
104877
104849
104826
104799
104777
104752
104727
104705
104682
104660
104639
104619
104599
104580
104560
104542
104523
104505
104485
104465
104445
104424
104404
104380
104358
104334
104310
104285
104259
104232
104205
104177
104149
104120
104091
104061
104031
104000
103970
103939
103908
103876
103844
103813
103781
103749
103716
103684
103650
103618
103584
103551
103518
103485
103452
103419
103385
103352
103318
103286
103252
103220
103186
103154
103122
103088
103055
103024
102992
102960
102928
102897
102866
102836
102805
102776
102746
102717
102688
102659
102631
102605
102577
102550
102524
102498
102473
102448
102423
102400
102376
102356
102334
102313
102294
102271
102251
102231
102213
102196
102180
102163
102148
102134
102119
102105
102092
102083
102071
102063
102053
102044
102036
102028
102022
102015
102010
102004
102000
101994
101990
101985
101982
101978
101974
101970
101967
101963
101960
101957
101953
101951
101947
101944
101941
101938
101936
101933
101930
101928
101926
101924
101922
101920
101918
101917
101915
101914
101912
101911
101910
101909
101908
101907
101905
101905
101904
101904
101903
101903
101901
101901
101900
101899
101898
101897
101895
101894
101891
101890
101888
101886
101884
101882
101879
101876
101873
101870
101867
101863
101858
101854
101849
101845
101840
101835
101829
101823
101817
101811
101805
101798
101791
101784
101777
101770
101762
101754
101746
101738
101730
101721
101712
101704
101694
101685
101675
101665
101655
101645
101635
101624
101614
101603
101591
101580
101568
101556
101544
101532
101520
101507
101494
101482
101468
101455
101442
101429
101415
101402
101388
101374
101361
101347
101332
105605
105605
105604
105604
105604
105603
105603
105601
105601
105599
105599
105597
105597
105595
105595
105593
105593
105591
105590
105589
105588
105587
105586
105585
105584
105583
105581
105580
105579
105577
105575
105574
105571
105569
105567
105565
105562
105559
105556
105552
105550
105545
105543
105537
105536
105528
105527
105518
105518
105509
105509
105498
105501
105489
105492
105483
105485
105475
105482
105473
105482
105479
105487
105491
105498
105505
105515
105528
105541
105557
105571
105591
105614
105635
105657
105677
105700
105719
105740
105759
105778
105796
105813
105829
105844
105858
105871
105882
105893
105901
105907
105914
105921
105927
105931
105934
105936
105936
105936
105935
105934
105930
105922
105914
105908
105903
105897
105890
105885
105876
105864
105852
105840
105829
105817
105807
105794
105786
105779
105776
105781
105783
105788
105799
105812
105819
105834
105845
105860
105878
105871
105886
105899
105924
105932
105948
105952
105956
105962
105963
105965
105963
105963
105959
105956
105951
105946
105939
105934
105926
105919
105911
105904
105895
105886
105879
105869
105862
105852
105847
105835
105831
105820
105816
105805
105803
105793
105788
105780
105775
105768
105764
105756
105754
105747
105744
105738
105735
105728
105725
105718
105713
105705
105703
105694
105690
105681
105675
105665
105660
105650
105644
105635
105629
105620
105614
105606
105601
105596
105589
105586
105583
105582
105579
105579
105577
105580
105578
105581
105579
105581
105579
105580
105579
105576
105574
105573
105565
105561
105556
105550
105544
105536
105529
105521
105513
105504
105495
105484
105475
105463
105453
105440
105428
105416
105402
105390
105374
105363
105345
105334
105316
105304
105286
105273
105257
105243
105230
105214
105200
105186
105169
105155
105135
105120
105098
105082
105058
105041
105015
104996
104968
104949
104920
104900
104871
104850
104820
104799
104773
104750
104726
104702
104681
104658
104639
104617
104599
104579
104561
104542
104524
104506
104485
104466
104446
104425
104403
104381
104358
104335
104309
104285
104258
104232
104204
104177
104148
104120
104090
104061
104031
104000
103969
103938
103907
103875
103844
103811
103780
103747
103715
103682
103650
103617
103585
103551
103518
103486
103454
103420
103387
103354
103321
103288
103256
103223
103190
103159
103126
103091
103060
103028
102996
102964
102933
102901
102871
102840
102810
102780
102750
102720
102692
102663
102635
102608
102581
102554
102528
102502
102477
102452
102427
102403
102378
102352
102330
102309
102289
102270
102252
102234
102217
102200
102183
102168
102152
102137
102121
102106
102092
102079
102069
102059
102050
102041
102033
102026
102018
102013
102006
102001
101995
101993
101986
101984
101979
101976
101971
101968
101964
101960
101958
101954
101952
101947
101945
101941
101939
101936
101933
101931
101928
101926
101923
101921
101920
101917
101916
101914
101913
101911
101911
101909
101908
101907
101906
101904
101904
101902
101903
101901
101902
101899
101900
101898
101899
101896
101896
101893
101893
101890
101890
101887
101887
101883
101882
101878
101877
101873
101872
101867
101864
101860
101856
101851
101847
101842
101837
101832
101826
101820
101815
101808
101802
101795
101789
101781
101775
101767
101759
101751
101743
101735
101727
101718
101710
101701
101692
101682
101673
101662
101653
101642
101632
101621
101611
101600
101589
101577
101566
101554
101542
101529
101517
101505
101492
101479
101466
101453
101439
101426
101413
101399
101385
101372
101358
101345
101330
105605
105605
105605
105605
105604
105604
105602
105602
105600
105600
105599
105598
105596
105596
105594
105594
105592
105592
105590
105590
105588
105588
105586
105585
105584
105583
105582
105580
105579
105577
105576
105574
105572
105570
105568
105566
105563
105561
105557
105555
105549
105549
105542
105541
105533
105534
105523
105526
105514
105516
105504
105507
105494
105498
105486
105491
105478
105482
105473
105476
105473
105477
105479
105483
105490
105498
105511
105525
105541
105560
105574
105591
105605
105626
105643
105668
105686
105711
105730
105755
105773
105795
105811
105830
105844
105860
105872
105884
105894
105903
105911
105918
105923
105928
105932
105935
105937
105937
105936
105935
105932
105927
105922
105918
105913
105907
105900
105891
105882
105872
105861
105850
105840
105824
105818
105801
105789
105781
105773
105770
105771
105779
105791
105794
105810
105823
105832
105852
105863
105872
105893
105897
105918
105923
105937
105941
105950
105956
105959
105963
105963
105964
105962
105960
105957
105951
105945
105940
105932
105927
105919
105912
105903
105895
105887
105877
105871
105860
105855
105842
105840
105825
105827
105809
105811
105799
105795
105786
105782
105771
105770
105761
105759
105751
105750
105740
105743
105730
105733
105721
105722
105709
105710
105696
105699
105685
105685
105673
105668
105658
105652
105643
105637
105627
105621
105612
105607
105601
105593
105589
105585
105583
105579
105580
105576
105579
105575
105580
105576
105582
105578
105581
105579
105580
105577
105576
105571
105568
105560
105555
105551
105543
105537
105528
105521
105512
105504
105494
105485
105474
105464
105452
105440
105429
105414
105404
105388
105377
105359
105349
105329
105320
105299
105289
105269
105258
105241
105230
105212
105202
105183
105172
105150
105137
105116
105099
105077
105062
105037
105020
104993
104974
104944
104926
104894
104874
104843
104823
104795
104773
104748
104724
104702
104678
104658
104636
104618
104598
104580
104560
104542
104524
104505
104486
104465
104446
104426
104404
104381
104360
104335
104311
104286
104259
104232
104206
104177
104149
104120
104091
104061
104031
104001
103970
103939
103908
103876
103844
103813
103780
103749
103715
103683
103650
103618
103584
103551
103518
103484
103452
103419
103385
103353
103318
103287
103252
103220
103186
103155
103120
103089
103055
103025
102991
102961
102928
102898
102865
102836
102804
102776
102744
102716
102686
102659
102630
102603
102575
102550
102523
102497
102472
102447
102422
102399
102377
102356
102334
102313
102292
102271
102250
102231
102212
102195
102179
102162
102147
102131
102118
102106
102094
102083
102072
102064
102054
102044
102037
102029
102023
102015
102012
102004
102001
101995
101993
101987
101985
101979
101976
101971
101969
101965
101961
101959
101953
101953
101948
101946
101942
101940
101937
101934
101932
101929
101927
101925
101923
101921
101919
101918
101916
101916
101914
101913
101911
101911
101909
101908
101906
101907
101905
101906
101903
101905
101901
101903
101900
101902
101897
101899
101895
101896
101891
101893
101888
101888
101884
101884
101879
101878
101873
101872
101867
101864
101860
101856
101850
101847
101841
101836
101830
101825
101818
101813
101806
101800
101792
101786
101778
101771
101763
101756
101747
101739
101731
101722
101713
101705
101695
101686
101676
101667
101656
101646
101636
101626
101615
101604
101592
101581
101569
101558
101545
101533
101521
101508
101495
101483
101469
101457
101443
101430
101416
101403
101389
101375
101362
101348
101334
105605
105605
105605
105604
105605
105603
105603
105602
105601
105600
105600
105598
105597
105596
105595
105594
105593
105591
105591
105589
105589
105587
105587
105586
105584
105584
105582
105581
105580
105578
105577
105575
105573
105571
105569
105566
105564
105560
105559
105554
105553
105546
105548
105538
105540
105530
105531
105520
105522
105510
105512
105499
105503
105489
105492
105482
105482
105476
105476
105473
105474
105475
105478
105483
105488
105498
105508
105517
105531
105546
105561
105582
105601
105624
105644
105666
105689
105708
105734
105750
105775
105790
105813
105825
105845
105856
105872
105882
105894
105903
105913
105920
105925
105930
105934
105936
105938
105939
105939
105937
105933
105930
105925
105921
105916
105910
105902
105894
105883
105872
105860
105851
105831
105828
105806
105796
105785
105772
105769
105763
105763
105768
105763
105792
105787
105811
105828
105843
105863
105876
105880
105900
105907
105925
105930
105945
105944
105954
105958
105960
105963
105960
105961
105957
105954
105951
105945
105938
105932
105924
105920
105910
105903
105894
105885
105878
105867
105863
105849
105849
105830
105835
105814
105821
105801
105805
105788
105790
105776
105777
105763
105765
105754
105755
105744
105748
105733
105740
105724
105730
105714
105718
105700
105708
105689
105695
105679
105677
105665
105661
105650
105645
105635
105628
105620
105613
105605
105597
105594
105587
105584
105579
105581
105574
105578
105572
105579
105572
105580
105575
105580
105576
105582
105576
105580
105572
105574
105564
105562
105556
105549
105541
105536
105529
105519
105513
105502
105494
105484
105475
105462
105452
105440
105427
105416
105400
105391
105373
105364
105343
105335
105312
105306
105279
105276
105252
105246
105224
105216
105198
105188
105165
105156
105133
105121
105098
105084
105056
105042
105012
104997
104966
104948
104917
104898
104868
104847
104818
104795
104769
104745
104723
104697
104677
104655
104637
104614
104597
104578
104560
104540
104522
104504
104484
104466
104447
104425
104403
104381
104359
104335
104311
104286
104258
104233
104206
104177
104149
104120
104091
104061
104030
104001
103969
103939
103907
103875
103844
103812
103780
103747
103715
103682
103650
103616
103584
103550
103518
103485
103453
103419
103387
103352
103321
103287
103255
103221
103189
103155
103124
103089
103059
103025
102995
102961
102932
102898
102870
102836
102809
102776
102749
102718
102691
102660
102634
102605
102579
102551
102525
102499
102474
102449
102425
102400
102377
102353
102331
102309
102288
102269
102250
102232
102215
102197
102180
102164
102149
102134
102119
102107
102094
102081
102071
102061
102052
102043
102035
102029
102020
102015
102008
102005
101999
101996
101989
101988
101981
101978
101973
101971
101966
101962
101960
101954
101956
101945
101948
101940
101940
101936
101934
101932
101929
101926
101924
101922
101920
101918
101917
101914
101914
101911
101911
101909
101909
101907
101907
101905
101904
101902
101903
101901
101902
101899
101901
101897
101899
101894
101897
101892
101894
101889
101892
101886
101887
101882
101883
101877
101878
101872
101872
101867
101864
101859
101856
101851
101848
101842
101838
101831
101827
101820
101815
101809
101802
101796
101789
101782
101775
101767
101760
101752
101744
101735
101727
101718
101710
101701
101692
101682
101673
101663
101653
101643
101633
101622
101611
101600
101589
101577
101566
101554
101542
101530
101518
101505
101493
101479
101467
101453
101440
101426
101413
101399
101386
101372
101358
101345
101331
105606
105606
105606
105605
105604
105605
105603
105603
105601
105601
105599
105599
105597
105596
105595
105594
105593
105592
105591
105590
105589
105588
105587
105586
105585
105584
105583
105582
105580
105579
105577
105576
105574
105573
105570
105569
105565
105565
105559
105559
105553
105552
105545
105546
105535
105538
105527
105528
105517
105517
105508
105506
105497
105494
105488
105483
105479
105473
105471
105468
105466
105468
105469
105473
105478
105486
105497
105511
105527
105538
105561
105573
105596
105616
105641
105661
105685
105706
105728
105750
105769
105792
105805
105828
105839
105859
105868
105884
105892
105905
105913
105921
105927
105932
105936
105939
105940
105941
105941
105939
105937
105934
105931
105925
105919
105913
105905
105895
105884
105870
105862
105841
105838
105816
105805
105795
105771
105773
105753
105755
105755
105749
105770
105759
105797
105799
105820
105842
105857
105872
105892
105892
105910
105917
105931
105933
105949
105949
105957
105957
105961
105956
105959
105957
105954
105945
105943
105936
105929
105924
105915
105909
105900
105893
105884
105874
105869
105855
105856
105836
105842
105820
105829
105803
105815
105792
105799
105781
105783
105766
105771
105756
105760
105748
105752
105737
105745
105728
105735
105719
105726
105705
105715
105692
105704
105681
105688
105672
105669
105658
105652
105643
105636
105627
105620
105610
105603
105598
105590
105586
105581
105580
105572
105578
105569
105577
105569
105581
105570
105582
105572
105580
105576
105580
105573
105578
105570
105569
105561
105559
105548
105544
105537
105527
105521
105510
105503
105491
105484
105471
105462
105449
105438
105427
105413
105402
105386
105377
105357
105349
105326
105323
105292
105293
105263
105261
105238
105231
105209
105205
105182
105172
105148
105138
105116
105102
105076
105063
105032
105021
104987
104973
104940
104922
104892
104870
104842
104818
104791
104769
104746
104716
104697
104674
104654
104630
104615
104593
104574
104556
104538
104520
104502
104485
104465
104445
104424
104402
104381
104358
104336
104309
104286
104258
104233
104205
104178
104149
104120
104090
104061
104031
104000
103969
103938
103907
103875
103844
103812
103779
103748
103715
103683
103649
103618
103584
103551
103518
103486
103452
103420
103385
103354
103319
103288
103253
103222
103187
103156
103122
103090
103056
103026
102992
102962
102928
102899
102866
102837
102804
102777
102744
102718
102686
102660
102630
102604
102576
102550
102523
102498
102472
102447
102422
102399
102375
102353
102331
102310
102289
102270
102250
102233
102214
102197
102179
102163
102148
102134
102119
102106
102094
102081
102070
102061
102050
102043
102035
102027
102021
102013
102010
102003
102000
101993
101992
101986
101984
101979
101976
101971
101968
101965
101961
101959
101951
101954
101944
101946
101940
101939
101935
101933
101930
101928
101926
101924
101921
101921
101917
101917
101914
101915
101912
101912
101910
101910
101908
101907
101905
101906
101904
101905
101902
101904
101900
101902
101898
101901
101895
101898
101893
101895
101889
101892
101886
101887
101881
101883
101877
101878
101871
101871
101865
101863
101857
101853
101848
101845
101838
101834
101828
101823
101817
101811
101804
101798
101791
101784
101777
101769
101762
101754
101746
101738
101729
101721
101712
101703
101694
101685
101675
101666
101656
101645
101635
101624
101614
101603
101591
101580
101568
101557
101544
101532
101520
101508
101494
101482
101468
101456
101442
101429
101415
101402
101388
101374
101360
101347
101333
105606
105608
105606
105606
105605
105604
105605
105603
105602
105601
105600
105598
105598
105596
105595
105594
105593
105592
105591
105590
105589
105588
105587
105587
105586
105585
105584
105583
105582
105581
105579
105578
105576
105574
105573
105570
105569
105564
105565
105558
105559
105552
105551
105545
105542
105536
105532
105526
105521
105515
105509
105504
105497
105492
105485
105479
105471
105469
105465
105460
105463
105457
105464
105465
105471
105479
105489
105500
105511
105534
105545
105570
105586
105612
105636
105656
105680
105703
105725
105747
105766
105789
105806
105823
105841
105852
105872
105880
105896
105903
105915
105921
105928
105933
105937
105940
105942
105942
105942
105941
105940
105938
105932
105927
105920
105913
105906
105897
105884
105874
105855
105849
105826
105815
105804
105773
105776
105748
105747
105740
105735
105743
105729
105769
105763
105796
105812
105834
105852
105869
105877
105894
105904
105918
105921
105940
105935
105950
105948
105955
105953
105955
105954
105955
105944
105948
105937
105933
105927
105918
105913
105904
105897
105888
105881
105872
105863
105858
105843
105848
105825
105834
105809
105821
105793
105808
105783
105791
105772
105778
105756
105768
105749
105759
105743
105748
105732
105740
105723
105729
105714
105722
105696
105712
105684
105698
105675
105680
105665
105661
105650
105643
105635
105627
105618
105609
105604
105595
105589
105584
105580
105574
105577
105568
105575
105566
105578
105565
105582
105568
105582
105571
105579
105572
105579
105567
105573
105562
105561
105554
105550
105540
105533
105526
105517
105510
105499
105492
105479
105471
105459
105449
105437
105425
105412
105398
105387
105370
105362
105339
105336
105307
105309
105274
105278
105246
105251
105224
105217
105197
105186
105165
105155
105132
105122
105093
105087
105050
105046
105007
104998
104967
104949
104919
104895
104868
104843
104816
104792
104767
104736
104718
104691
104670
104649
104633
104606
104592
104573
104555
104536
104519
104500
104482
104464
104445
104421
104402
104379
104359
104332
104312
104281
104259
104232
104206
104176
104149
104119
104090
104060
104031
104000
103969
103938
103906
103875
103843
103811
103780
103746
103715
103682
103650
103616
103584
103550
103518
103484
103452
103418
103386
103351
103320
103285
103254
103219
103188
103154
103122
103088
103057
103023
102993
102959
102929
102896
102867
102834
102807
102773
102747
102714
102689
102657
102632
102602
102576
102548
102523
102497
102472
102447
102422
102398
102376
102354
102332
102310
102290
102270
102251
102231
102213
102195
102179
102161
102146
102131
102118
102106
102095
102083
102072
102061
102051
102044
102035
102028
102022
102013
102011
102003
102000
101994
101992
101985
101985
101979
101977
101972
101968
101964
101962
101957
101958
101947
101951
101941
101943
101937
101936
101932
101930
101928
101926
101923
101922
101918
101919
101914
101916
101911
101913
101909
101911
101908
101908
101907
101906
101904
101905
101902
101903
101901
101902
101899
101900
101896
101898
101894
101895
101890
101893
101887
101889
101882
101885
101878
101880
101874
101874
101867
101866
101860
101858
101852
101849
101843
101839
101833
101828
101822
101817
101810
101804
101797
101791
101784
101777
101769
101761
101754
101746
101737
101729
101720
101712
101703
101694
101684
101675
101665
101655
101645
101635
101624
101613
101602
101591
101580
101568
101556
101544
101531
101520
101506
101495
101481
101469
101454
101442
101428
101415
101401
101388
101374
101360
101346
101333
105609
105606
105609
105606
105606
105607
105604
105604
105602
105602
105600
105599
105597
105597
105595
105594
105593
105592
105591
105590
105589
105588
105588
105587
105586
105585
105585
105584
105583
105583
105582
105580
105579
105578
105576
105574
105572
105569
105566
105563
105560
105556
105552
105547
105543
105538
105532
105526
105521
105514
105509
105500
105496
105487
105481
105475
105468
105465
105458
105458
105448
105454
105450
105455
105461
105467
105479
105488
105505
105517
105543
105554
105583
105600
105628
105649
105678
105698
105722
105745
105766
105785
105805
105822
105840
105856
105867
105884
105892
105906
105913
105923
105928
105935
105940
105943
105945
105946
105946
105946
105945
105941
105938
105930
105924
105915
105908
105897
105887
105869
105862
105838
105828
105813
105790
105785
105753
105747
105732
105725
105724
105717
105742
105729
105775
105773
105804
105829
105849
105861
105885
105881
105900
105909
105925
105927
105941
105938
105948
105946
105950
105944
105956
105943
105949
105933
105936
105926
105921
105916
105907
105900
105892
105884
105875
105868
105860
105849
105847
105830
105838
105812
105826
105796
105815
105784
105798
105774
105784
105760
105776
105747
105764
105747
105752
105737
105745
105728
105732
105719
105723
105707
105717
105689
105707
105677
105691
105669
105671
105657
105651
105641
105636
105626
105616
105611
105601
105595
105587
105582
105577
105577
105567
105575
105565
105574
105563
105579
105563
105583
105565
105582
105569
105577
105568
105575
105561
105568
105557
105554
105544
105540
105532
105522
105517
105506
105498
105487
105479
105467
105457
105445
105434
105421
105410
105397
105384
105371
105354
105345
105321
105322
105289
105293
105261
105260
105241
105231
105208
105204
105182
105173
105153
105138
105114
105108
105072
105069
105031
105022
104990
104970
104940
104917
104891
104865
104839
104814
104791
104759
104740
104710
104690
104667
104647
104623
104611
104584
104567
104550
104533
104515
104499
104481
104463
104442
104422
104399
104380
104354
104334
104304
104286
104255
104234
104201
104177
104147
104119
104089
104060
104029
103999
103968
103937
103906
103874
103842
103811
103778
103747
103713
103683
103648
103617
103583
103551
103517
103486
103451
103420
103385
103355
103319
103289
103253
103223
103188
103157
103123
103092
103058
103027
102993
102963
102930
102901
102868
102839
102806
102779
102745
102720
102687
102663
102630
102606
102576
102551
102525
102499
102473
102448
102424
102400
102376
102353
102331
102309
102289
102269
102250
102233
102214
102198
102180
102165
102147
102134
102118
102104
102091
102079
102067
102058
102046
102039
102030
102022
102015
102009
102003
102000
101993
101991
101985
101983
101977
101977
101970
101968
101964
101961
101957
101956
101949
101952
101942
101944
101938
101937
101933
101931
101928
101927
101924
101923
101919
101920
101914
101917
101911
101914
101908
101912
101907
101909
101906
101907
101905
101905
101903
101904
101901
101902
101899
101900
101897
101898
101894
101896
101891
101894
101888
101891
101884
101886
101879
101883
101875
101876
101869
101870
101862
101861
101856
101852
101846
101843
101837
101832
101826
101821
101815
101809
101802
101797
101789
101783
101775
101768
101760
101753
101744
101736
101728
101719
101710
101702
101692
101684
101674
101664
101654
101644
101633
101623
101612
101601
101590
101579
101567
101555
101543
101531
101518
101507
101493
101481
101467
101455
101440
101428
101414
101401
101387
101373
101359
101346
101333
105608
105612
105605
105609
105607
105605
105606
105603
105603
105601
105600
105599
105598
105596
105595
105594
105593
105592
105591
105590
105590
105589
105589
105589
105588
105588
105587
105587
105586
105585
105584
105583
105582
105581
105578
105577
105573
105572
105568
105565
105561
105558
105553
105550
105543
105539
105532
105527
105520
105515
105506
105501
105491
105484
105480
105470
105465
105456
105454
105441
105446
105439
105443
105445
105449
105457
105463
105479
105488
105510
105528
105551
105571
105599
105623
105647
105670
105697
105717
105743
105762
105785
105803
105822
105838
105854
105869
105881
105896
105903
105916
105922
105931
105936
105941
105944
105947
105948
105949
105949
105947
105946
105940
105936
105927
105920
105909
105899
105885
105874
105854
105842
105825
105807
105792
105763
105752
105733
105722
105712
105705
105715
105706
105741
105742
105781
105787
105816
105835
105860
105864
105886
105891
105905
105919
105932
105925
105939
105937
105943
105942
105947
105939
105945
105930
105937
105924
105922
105915
105907
105901
105893
105886
105877
105870
105861
105855
105846
105837
105836
105817
105826
105800
105817
105786
105806
105774
105789
105764
105778
105751
105773
105740
105761
105737
105751
105732
105740
105724
105727
105714
105718
105698
105711
105681
105700
105671
105683
105663
105659
105648
105642
105634
105624
105618
105608
105600
105593
105587
105581
105578
105570
105574
105563
105573
105563
105574
105561
105581
105561
105584
105563
105580
105564
105579
105560
105570
105555
105559
105546
105543
105532
105528
105521
105512
105504
105494
105486
105474
105465
105453
105442
105430
105419
105406
105394
105380
105367
105353
105338
105328
105305
105306
105273
105278
105246
105250
105217
105219
105198
105187
105170
105151
105136
105124
105089
105091
105047
105045
105008
104993
104964
104942
104917
104891
104864
104837
104813
104781
104761
104730
104709
104684
104663
104642
104625
104596
104589
104564
104548
104530
104515
104497
104479
104459
104442
104418
104400
104376
104356
104329
104309
104280
104259
104228
104207
104172
104150
104115
104091
104057
104029
103998
103968
103937
103905
103874
103842
103810
103778
103746
103714
103681
103649
103615
103584
103550
103518
103483
103452
103417
103387
103351
103321
103285
103255
103219
103188
103154
103122
103089
103057
103024
102992
102960
102929
102898
102866
102835
102806
102773
102747
102714
102690
102656
102633
102600
102577
102548
102522
102496
102471
102446
102421
102398
102375
102353
102332
102311
102291
102269
102250
102230
102212
102194
102177
102159
102145
102129
102117
102104
102093
102081
102071
102058
102051
102040
102032
102022
102020
102009
102008
101997
101998
101989
101989
101982
101981
101975
101973
101968
101964
101961
101958
101955
101953
101948
101947
101942
101941
101937
101934
101931
101930
101928
101926
101922
101923
101917
101920
101913
101918
101909
101916
101908
101912
101908
101910
101907
101907
101905
101906
101903
101904
101901
101903
101899
101901
101897
101899
101894
101897
101891
101895
101888
101891
101883
101887
101879
101882
101875
101875
101867
101868
101861
101859
101854
101850
101844
101841
101834
101829
101823
101818
101811
101806
101798
101792
101784
101778
101770
101762
101754
101746
101738
101730
101721
101713
101703
101695
101685
101676
101666
101656
101646
101635
101625
101614
101603
101592
101580
101569
101557
101545
101532
101520
101507
101496
101481
101470
101455
101443
101428
101416
101401
101389
101374
101360
101347
101334
105613
105606
105614
105606
105608
105607
105605
105604
105603
105602
105600
105599
105598
105597
105595
105594
105593
105593
105592
105591
105590
105589
105589
105588
105588
105588
105587
105587
105586
105586
105585
105584
105583
105582
105580
105578
105576
105573
105571
105567
105564
105560
105556
105551
105546
105540
105534
105527
105522
105513
105508
105497
105490
105482
105474
105466
105458
105455
105440
105440
105431
105432
105431
105433
105437
105442
105453
105460
105482
105495
105520
105542
105566
105589
105616
105641
105668
105691
105718
105740
105761
105781
105803
105820
105839
105854
105869
105883
105894
105907
105914
105925
105932
105939
105944
105948
105950
105953
105954
105954
105952
105948
105945
105939
105932
105922
105912
105900
105887
105871
105857
105839
105821
105803
105785
105764
105744
105727
105712
105702
105701
105697
105717
105711
105753
105755
105791
105807
105834
105848
105870
105868
105891
105898
105912
105915
105930
105925
105934
105934
105936
105936
105937
105929
105932
105921
105920
105913
105907
105901
105892
105886
105877
105870
105861
105854
105846
105838
105834
105824
105821
105804
105815