/*--------------------------------*- C++ -*----------------------------------*\
| =========                 |                                                 |
| \\      /  F ield         | OpenFOAM: The Open Source CFD Toolbox           |
|  \\    /   O peration     | Version:  v1812                                 |
|   \\  /    A nd           | Web:      www.OpenFOAM.com                      |
|    \\/     M anipulation  |                                                 |
\*---------------------------------------------------------------------------*/
FoamFile
{
    version     2.0;
    format      ascii;
    class       surfaceScalarField;
    location    "1.3";
    object      phi;
}
// * * * * * * * * * * * * * * * * * * * * * * * * * * * * * * * * * * * * * //

dimensions      [1 0 -1 0 0 0 0];
oriented        oriented;


internalField   nonuniform List<scalar> 
40240
(
-6.70776e-06
-5.77802e-06
-4.30167e-06
-1.56419e-05
-2.97323e-05
1.06825e-05
-5.17347e-05
8.93407e-06
-0.000124868
6.00233e-05
-0.000202029
6.31956e-05
-0.000325628
0.000109789
-0.000434534
9.45148e-05
-0.00057316
0.000123538
-0.000700373
0.000111433
-0.000850639
0.000134719
-0.000981009
0.000114717
-0.001122
0.000124544
-0.00124595
0.000108709
-0.0013697
0.000107844
-0.00147991
9.4556e-05
-0.00158189
8.60877e-05
-0.00167353
7.56182e-05
-0.0017533
6.36573e-05
-0.0018238
5.48061e-05
-0.00187944
3.91694e-05
-0.00192675
3.13893e-05
-0.00194832
4.93771e-06
-0.00196118
-3.72903e-06
-0.00195832
-1.97093e-05
-0.00194694
-2.84799e-05
-0.00193242
-3.18827e-05
-0.0019123
-3.7823e-05
-0.00189527
-3.54769e-05
-0.00188243
-3.19848e-05
-0.00187649
-2.55991e-05
-0.00187566
-2.06773e-05
-0.00189472
-4.58121e-07
-0.00191671
2.29618e-06
-0.00196904
3.24003e-05
-0.0020239
3.40244e-05
-0.00212159
7.63994e-05
-0.00221737
7.71458e-05
-0.00236733
0.000132529
-0.00251795
0.000128986
-0.00273782
0.000200216
-0.00295086
0.000192897
-0.00326037
0.000288105
-0.00355575
0.000277268
-0.00397778
0.000401582
-0.00436756
0.000370509
-0.00492683
0.00053725
-0.0054364
0.000490478
-0.0061465
0.000688966
-0.00679207
0.000629797
-0.00764019
0.000828865
-0.00842167
0.000766998
-0.00942339
0.000984358
-0.0103615
0.000921548
-0.0115177
0.00113858
-0.0126298
0.00109516
-0.0139036
0.00125691
-0.0152364
0.00131623
-0.0166067
0.00135469
-0.0181075
0.00148578
-0.019548
0.00142692
-0.021065
0.00150397
-0.0223917
0.00131472
-0.0235808
0.00117714
-0.024487
0.000895198
-0.0250847
0.000587381
-0.0253379
0.000243638
-0.0252945
-4.90154e-05
-0.024997
-0.000305245
-0.0244459
-0.00055641
-0.0239068
-0.000542779
-0.0232984
-0.000610957
-0.0224966
-0.00080412
-0.0216106
-0.000890271
-0.0205622
-0.00105321
-0.0194497
-0.00111662
-0.0181677
-0.0012867
-0.016877
-0.00129519
-0.0154846
-0.00139621
-0.014113
-0.00137594
-0.012709
-0.0014073
-0.0113125
-0.00139959
-0.00992299
-0.00139187
-0.00854948
-0.00137558
-0.00720779
-0.00134357
-0.00591745
-0.00129243
-0.00469411
-0.00122561
-0.00353298
-0.00116342
-0.00243918
-0.00109613
-0.0013983
-0.00104325
-0.00045598
-0.000944514
0.000351101
-0.000808892
0.00101728
-0.00066743
0.00159752
-0.000580541
0.00214822
-0.000550178
0.00266891
-0.000519263
0.00315899
-0.000487515
0.00359279
-0.000430926
0.00394687
-0.000350829
0.00421628
-0.000265879
0.00441138
-0.000192105
0.00452337
-0.000108585
0.00453241
-7.87495e-06
0.00445282
8.15045e-05
0.00423148
0.000222453
0.00384895
0.00038289
0.00332455
0.00052607
0.00260047
0.000725714
0.00164254
0.000957917
0.00040827
0.00123373
-0.000940803
0.00134713
-0.00234619
0.00140246
-0.00386149
0.00151137
-0.00553067
0.00166528
-0.00735861
0.00182501
-0.00925772
0.00189643
-0.0112205
0.00196105
-0.0131282
0.00190698
-0.0146999
0.00156884
-0.0157983
0.00109565
-0.0163004
0.000499278
-0.0162357
-6.06424e-05
-0.0157226
-0.00051721
-0.0144417
-0.00128155
-0.0128981
-0.00154036
-0.0111812
-0.00171306
-0.00940438
-0.00177237
-0.00768138
-0.00171938
-0.00612154
-0.0015559
-0.00473828
-0.00137112
-0.00330768
-0.00142616
-0.00202386
-0.00128636
-0.000900636
-0.00112497
0.000259648
-0.00116576
0.000938971
-0.000682119
0.00186519
-0.000935077
0.00263725
-0.00078313
0.00346366
-0.000834068
0.00424594
-0.000791874
0.00508453
-0.000850185
0.00587916
-0.000805154
0.00665476
-0.000794371
0.00737691
-0.000736685
0.00804943
-0.000686131
0.00864244
-0.000619008
0.00914964
-0.00052307
0.00961544
-0.000487957
0.00999085
-0.000393008
0.0103466
-0.000376743
0.0106067
-0.000280697
0.0108292
-0.000250008
0.0109387
-0.000134807
0.0110145
-0.000102546
0.0110132
-2.5175e-05
0.0109457
4.04483e-05
0.0108424
7.46074e-05
0.0106631
0.000149712
0.0104537
0.000180386
0.0101987
0.000226249
0.00990717
0.000262601
0.00963588
0.000241851
0.00932287
0.000284091
0.00906482
0.00022966
0.00875498
0.000283713
0.00850386
0.000226019
0.00823899
0.000243297
0.00797112
0.000243659
0.0076972
0.000255372
0.0074829
0.00019422
0.00724583
0.000218528
0.00708396
0.000141332
0.00691432
0.000150505
0.00687802
1.70585e-05
0.00682086
3.75015e-05
0.00681431
-1.29812e-05
0.0067781
1.76188e-05
0.00678341
-2.72708e-05
0.0067607
1.99782e-06
0.00677339
-3.48982e-05
0.00674227
9.18619e-06
0.00665799
6.47349e-05
0.00652033
0.000119578
0.00640235
0.000101168
0.00624252
0.000145188
0.00609419
0.000136671
0.0058829
0.000202794
0.00563905
0.000241862
0.00530584
0.000332102
0.0049558
0.000349631
0.00457589
0.00038353
0.00423908
0.000341656
0.00386197
0.000382153
0.00353776
0.000331123
0.00317915
0.000367606
0.00288773
0.000300826
0.00258149
0.000315004
0.00234675
0.000243093
0.00210765
0.00024917
0.00198814
0.000134221
0.00186053
0.00014193
0.00181722
6.06628e-05
0.00181688
2.06956e-05
0.00189312
-5.41516e-05
0.00200502
-8.56174e-05
0.00221617
-0.000186386
0.00246503
-0.000216754
0.00281529
-0.000319378
0.00319547
-0.000345317
0.00368979
-0.000459344
0.00418154
-0.000458879
0.00476139
-0.000544606
0.00536848
-0.000565536
0.00603961
-0.000629398
0.00669087
-0.000618388
0.00730946
-0.000585796
0.00796885
-0.000612608
0.00862317
-0.000607953
0.00925976
-0.000592864
0.00987298
-0.000555938
0.0104417
-0.000527698
0.0109358
-0.000431285
0.0113936
-0.000406441
0.0118223
-0.000364377
0.0122536
-0.000366002
0.0126681
-0.000353621
0.013091
-0.000344183
0.0134358
-0.000281374
0.0137754
-0.000259802
0.0139949
-0.000138876
0.014182
-0.000107243
0.0142391
3.05121e-05
0.0142702
5.90838e-05
0.0142228
0.00014422
0.0140987
0.00022543
0.013928
0.000275333
0.0136695
0.000366169
0.0133878
0.000391689
0.0130467
0.000453298
0.0126718
0.000488448
0.0122991
0.000485114
0.0118887
0.000523677
0.0115412
0.000455299
0.0111723
0.000484492
0.010917
0.000363409
0.0106495
0.000371882
0.0105813
0.00017343
0.0105295
0.000155173
0.0106278
6.71876e-06
0.0107497
-1.83848e-05
0.010916
-5.82922e-05
0.0111077
-8.14461e-05
0.0112982
-7.77318e-05
0.0115156
-0.000102895
0.0116937
-6.22715e-05
0.0118352
-2.48545e-05
0.0118436
0.000107817
0.0117904
0.000170046
0.0116963
0.000213651
0.0114838
0.000332903
0.0112416
0.000361446
0.0108404
0.000520703
0.0103984
0.000561859
0.00983359
0.000685345
0.00930665
0.000646775
0.0086777
0.000750658
0.00817074
0.000626316
0.00756262
0.000733053
0.00713289
0.000547899
0.00666353
0.000599248
0.00625197
0.00053031
0.00582778
0.000547431
0.00560102
0.000354142
0.0053436
0.000381386
0.00522526
0.000242753
0.00510636
0.000243938
0.00507868
0.000153683
0.00507651
0.000129624
0.00522076
-1.70165e-05
0.00538109
-3.43545e-05
0.00568899
-0.000175598
0.00601086
-0.000198669
0.00644571
-0.000310044
0.00687867
-0.000309753
0.00737888
-0.000366887
0.00785762
-0.000351526
0.00839053
-0.000400836
0.00889296
-0.000375356
0.00942355
-0.00040146
0.00990623
-0.000346265
0.0103974
-0.000368427
0.0108802
-0.000349539
0.0113228
-0.00032029
0.0117512
-0.000296151
0.0121304
-0.000249505
0.0124956
-0.000231868
0.0128231
-0.000195756
0.0131414
-0.000186446
0.0134138
-0.000141115
0.0136882
-0.000138903
0.0139272
-0.000104613
0.014157
-9.28296e-05
0.0143682
-7.38634e-05
0.0145711
-6.55164e-05
0.014741
-2.72021e-05
0.0149127
-2.88498e-05
0.0150523
1.61516e-06
0.0151983
-3.31227e-06
0.0153223
2.42669e-05
0.0154452
1.88041e-05
0.0155429
4.59127e-05
0.0156517
4.13525e-05
0.015732
6.84927e-05
0.0158251
5.61858e-05
0.0158973
7.86858e-05
0.0159971
5.10411e-05
0.0160785
7.13073e-05
0.0161986
3.39393e-05
0.0163006
5.34465e-05
0.0164281
2.92799e-05
0.0165673
1.84519e-05
0.0167145
1.09902e-05
0.0168461
2.69589e-05
0.017004
6.2009e-07
0.0171505
1.22267e-05
0.0173298
-2.10114e-05
0.017496
-8.27199e-06
0.0176738
-1.97237e-05
0.017822
9.89684e-06
0.0179793
1.2068e-06
0.0181305
7.44342e-06
0.0182703
1.84112e-05
0.01843
-1.53046e-06
0.0186109
-2.35232e-05
0.0187782
-1.06295e-05
0.0189577
-2.35399e-05
0.0191117
9.02655e-07
0.0192688
-3.24541e-06
0.0194032
1.81249e-05
0.0195402
1.40911e-05
0.019644
4.52241e-05
0.0197303
6.20409e-05
0.0197907
8.71301e-05
0.0198282
0.000109464
0.0198573
0.000115465
0.019873
0.000126246
0.019847
0.000166036
0.0198102
0.000174433
0.019752
0.000193249
0.0196544
0.000233033
0.0194989
0.00029082
0.0193203
0.000311404
0.0190368
0.000414915
0.0187502
0.000416343
0.0183926
0.000485004
0.0181633
0.000354525
0.0179312
0.000355572
0.0177709
0.000282132
0.017601
0.000290124
0.0174019
0.000316848
0.0172065
0.000310068
0.0170313
0.000288372
0.0169282
0.000213706
0.0168172
0.000219687
0.0167121
0.000212067
0.0165645
0.000252657
0.0163239
0.000343112
0.0160398
0.000385147
0.0157091
0.000429154
0.015437
0.000368306
0.0152489
0.000281666
0.0151989
0.000140948
0.0152908
-2.59807e-06
0.0154297
-5.1293e-05
0.0156704
-0.00015604
0.0158704
-0.000113465
0.0160672
-0.000112495
0.0162618
-0.000114939
0.0164637
-0.000122472
0.0166583
-0.000116852
0.0169094
-0.000177176
0.0171463
-0.000167247
0.0174515
-0.000238149
0.0177439
-0.000219875
0.0180898
-0.000281929
0.0184193
-0.000266862
0.0187816
-0.000307339
0.0191199
-0.000287549
0.0194605
-0.000283701
0.0197429
-0.000238623
0.0199783
-0.000189158
0.0202006
-0.000172064
0.0203785
-0.000125916
0.0205606
-0.00013231
0.0206959
-8.68382e-05
0.0208603
-0.000116377
0.0209673
-5.91287e-05
0.0210765
-6.82683e-05
0.0211338
-2.00285e-05
0.0211908
-2.32019e-05
0.0212067
1.32662e-05
0.0212395
-5.97694e-06
0.0212424
2.21124e-05
0.0212509
1.40363e-05
0.0212519
1.94442e-05
0.0212496
2.08436e-05
0.0212426
2.36356e-05
0.0212299
2.77756e-05
0.0212172
2.5786e-05
0.0212005
2.73586e-05
0.0211785
3.08207e-05
0.0211553
2.94221e-05
0.0211257
3.35093e-05
0.021097
3.04972e-05
0.0210608
3.50576e-05
0.0210284
3.01545e-05
0.0209921
3.20675e-05
0.0209632
2.30405e-05
0.0209282
2.83736e-05
0.0209
1.9936e-05
0.020862
2.71683e-05
0.0208371
1.31679e-05
0.0208053
1.90792e-05
0.0207863
5.17767e-06
0.0207571
1.4668e-05
0.0207388
2.89314e-06
0.020707
1.61093e-05
0.0206893
1.82433e-06
0.0206599
1.32496e-05
0.0206443
-8.32735e-07
0.0206158
1.20923e-05
0.0205977
-1.30227e-07
0.0205656
1.25538e-05
0.0205479
-3.15487e-06
0.0205167
9.96788e-06
0.0205031
-8.72318e-06
0.0204795
2.86384e-07
0.0204802
-2.56035e-05
0.020472
-1.73504e-05
0.0204808
-3.52083e-05
0.0204799
-2.6228e-05
0.0204954
-4.40444e-05
0.0204988
-3.27644e-05
0.020517
-4.81876e-05
0.0205234
-3.73032e-05
0.0205349
-4.19359e-05
0.020536
-3.17215e-05
0.0205229
-1.68862e-05
0.020499
-6.00379e-06
0.0204736
-5.29821e-06
0.0204373
5.70908e-06
0.0203937
1.36153e-05
0.0203437
1.90783e-05
0.0202947
1.79675e-05
0.0202403
2.31275e-05
0.0201904
1.84798e-05
0.020138
2.13792e-05
0.0200929
1.50997e-05
0.0200416
1.96253e-05
0.0199993
1.07394e-05
0.0199558
1.39745e-05
0.0199209
3.45741e-06
0.0198856
4.1483e-06
0.0198557
-2.15344e-06
0.0198219
1.73234e-06
0.0197952
-5.25958e-06
0.0197677
-4.34011e-06
0.0197468
-1.06189e-05
0.0197288
-1.29041e-05
0.019717
-1.73304e-05
0.0197101
-2.16601e-05
0.0197042
-2.16131e-05
0.0197002
-2.37998e-05
0.0196995
-2.73458e-05
0.0196969
-2.38713e-05
0.0196974
-2.67126e-05
0.0196942
-2.26029e-05
0.019693
-2.30937e-05
0.0196886
-1.92057e-05
0.0196872
-2.08148e-05
0.0196842
-1.79008e-05
0.0196847
-2.0404e-05
0.0196826
-1.55938e-05
0.0196852
-1.89735e-05
0.0196832
-1.24609e-05
0.0196868
-1.80788e-05
0.0196856
-1.21792e-05
0.0196883
-1.5347e-05
0.0196863
-9.83863e-06
0.019688
-1.18551e-05
0.0196846
-5.96361e-06
0.0196842
-7.97009e-06
0.0196787
-1.6034e-06
0.019678
-5.28827e-06
0.0196747
-1.24633e-06
0.0196699
1.63931e-06
0.0196659
2.05606e-06
0.0196622
2.10997e-06
0.0196595
2.5131e-06
0.0196694
-7.69476e-06
-1.91921e-05
-1.52782e-05
-2.66177e-06
-6.20118e-05
1.85233e-05
-0.000109261
4.90304e-05
-0.00028374
0.00016612
-0.00044936
0.000211694
-0.000763437
0.000366131
-0.00104735
0.000378597
-0.00140505
0.000438818
-0.00173254
0.000435408
-0.00210906
0.000471602
-0.00244296
0.000454433
-0.00279336
0.000448172
-0.00310213
0.000418668
-0.00340712
0.000397247
-0.00367723
0.000362888
-0.00392806
0.000329321
-0.00415185
0.000294796
-0.00434995
0.000257204
-0.00452686
0.000225234
-0.00467096
0.000182908
-0.004804
0.000155879
-0.00488849
9.88911e-05
-0.0049607
6.10407e-05
-0.00498903
7.5949e-06
-0.00500362
-2.22519e-05
-0.00499856
-5.05739e-05
-0.00498244
-6.51863e-05
-0.00496548
-7.23366e-05
-0.0049504
-6.91563e-05
-0.00495207
-4.94583e-05
-0.00495979
-3.76512e-05
-0.00500078
1.48439e-06
-0.00504888
2.82711e-05
-0.00516174
9.37323e-05
-0.00527676
0.000127982
-0.00547984
0.000216944
-0.00568002
0.000252932
-0.00599688
0.000372542
-0.00629031
0.0004067
-0.00673902
0.000559601
-0.00715055
0.000591178
-0.00775885
0.000784672
-0.00831088
0.000817408
-0.00910854
0.00105561
-0.00984131
0.00111455
-0.0108364
0.00134955
-0.0117554
0.00143431
-0.0129852
0.00169625
-0.0140683
0.00175746
-0.0155185
0.00205359
-0.0167664
0.00206762
-0.0183747
0.00235102
-0.0197655
0.00236558
-0.021489
0.00262445
-0.0229936
0.0026298
-0.0247458
0.00282926
-0.0263543
0.00285061
-0.0279551
0.00290025
-0.0296526
0.00303684
-0.0310778
0.00289649
-0.0326047
0.00293968
-0.0337768
0.00266336
-0.0348999
0.002425
-0.0357176
0.00198393
-0.0363666
0.00153466
-0.0367745
0.000986141
-0.0369666
0.000426709
-0.036925
-9.72425e-05
-0.0366403
-0.000596881
-0.0361893
-0.0010123
-0.0354767
-0.00125834
-0.0346036
-0.0014866
-0.0335327
-0.00187491
-0.0321931
-0.00223089
-0.0307758
-0.00247379
-0.0291154
-0.00278311
-0.0274176
-0.00298896
-0.0255372
-0.00318134
-0.0236199
-0.00331635
-0.021599
-0.00339454
-0.0195496
-0.00345838
-0.0174529
-0.00349979
-0.0153377
-0.00350967
-0.0132215
-0.00349396
-0.0110838
-0.0034827
-0.00899133
-0.00338683
-0.00691506
-0.00330393
-0.00492144
-0.00315896
-0.00305616
-0.00296381
-0.00141363
-0.00268833
1.02569e-05
-0.00237074
0.00132645
-0.00212575
0.00261672
-0.00195812
0.00384157
-0.00180524
0.00493444
-0.00164226
0.00587089
-0.00145428
0.00664655
-0.00126081
0.00724878
-0.00103029
0.00768663
-0.000785318
0.00798424
-0.00055974
0.00814019
-0.00034437
0.0081569
-0.000123985
0.00800715
0.00014268
0.00754895
0.000539837
0.0068181
0.000954323
0.00579806
0.0014038
0.00446493
0.00185969
0.00292077
0.00227082
0.00134025
0.0025395
-0.00038044
0.002953
-0.00238107
0.0033453
-0.00463324
0.00365213
-0.00703386
0.00390891
-0.00938917
0.00401707
-0.011631
0.00406228
-0.0135971
0.00386016
-0.0153287
0.00369101
-0.0165569
0.00313358
-0.0173964
0.00240548
-0.017818
0.00151648
-0.0179774
0.000655393
-0.0179793
-6.26929e-05
-0.0176225
-0.000875364
-0.0171375
-0.00176767
-0.0156489
-0.00302652
-0.0136664
-0.00369307
-0.0113531
-0.00408593
-0.00888379
-0.00418565
-0.00652777
-0.0039092
-0.00441108
-0.00349048
-0.00286629
-0.00297014
-0.00160252
-0.00255343
0.000264905
-0.00300083
0.00219432
-0.00310057
0.00460127
-0.00309676
0.00650101
-0.00282796
0.00854571
-0.00285424
0.0105559
-0.00283001
0.0125352
-0.00277955
0.0143767
-0.00270997
0.0162673
-0.0026991
0.0179577
-0.00251016
0.019599
-0.00238568
0.0210664
-0.00218424
0.0223775
-0.00193655
0.0235645
-0.00174179
0.0245737
-0.00150855
0.0255212
-0.00136538
0.0262612
-0.00114122
0.0269601
-0.000999203
0.027415
-0.00072484
0.0278273
-0.00057426
0.027986
-0.000286058
0.0280776
-0.000144194
0.0280151
7.48765e-05
0.0278023
0.000258288
0.0275297
0.000392299
0.0270974
0.000583517
0.026587
0.000707824
0.0260386
0.000782049
0.0253832
0.000867948
0.0247939
0.000843339
0.0240996
0.000897027
0.0234867
0.000865075
0.0228158
0.000878661
0.0221836
0.000846023
0.0214835
0.000926408
0.0208924
0.000823651
0.0202213
0.00084557
0.0197377
0.000683492
0.019193
0.000661549
0.0188615
0.000468541
0.0184857
0.000373114
0.0182771
0.000224466
0.018022
0.000224197
0.0178918
0.00012695
0.0177025
0.000143347
0.0176068
7.72061e-05
0.0174304
0.000120357
0.0172639
0.000154426
0.0169514
0.000357291
0.016647
0.000405656
0.0162338
0.00049696
0.0158407
0.000522055
0.0153578
0.000602376
0.0148463
0.000709261
0.0142568
0.0008331
0.0135494
0.00103144
0.0127618
0.00114566
0.0119966
0.001152
0.0111439
0.00119673
0.0103771
0.00115372
0.00954189
0.00117313
0.00882977
0.00108617
0.008058
0.00107849
0.00746013
0.000927981
0.00685063
0.000861079
0.00645866
0.000655736
0.00602985
0.000573044
0.00588783
0.000299883
0.00578214
0.000182403
0.00587793
-5.5815e-05
0.00606522
-0.000216046
0.00651495
-0.000517106
0.00703683
-0.000674363
0.00779872
-0.000951232
0.00860279
-0.00108905
0.00966278
-0.00136886
0.0107225
-0.00149054
0.0120032
-0.00169645
0.0132419
-0.00175611
0.0146655
-0.00194885
0.0160413
-0.00196858
0.0174508
-0.00198289
0.0187951
-0.00189906
0.0202019
-0.00197736
0.0215468
-0.00190754
0.0228503
-0.0018511
0.0241274
-0.00179936
0.0252664
-0.00159882
0.0263227
-0.00144825
0.0272766
-0.00129264
0.0282076
-0.00123878
0.0291186
-0.00121534
0.0300151
-0.00117294
0.0308283
-0.00109997
0.0316366
-0.00101156
0.0322596
-0.00080935
0.0328578
-0.000662995
0.033227
-0.000387905
0.0335599
-0.000220054
0.0336672
4.32774e-05
0.0336955
0.000211917
0.0335788
0.000442289
0.0332929
0.000665257
0.0329547
0.000810918
0.0324287
0.00102728
0.0318476
0.00114706
0.0311735
0.00127486
0.0303966
0.0013776
0.0296625
0.00136475
0.0288225
0.00141295
0.0281436
0.00127162
0.027366
0.00125107
0.0268819
0.000964023
0.0263268
0.000823451
0.0261144
0.000477315
0.0259187
0.000307042
0.0259515
5.50642e-05
0.025961
4.00671e-05
0.0260571
-6.71959e-05
0.0261057
-1.35631e-05
0.0261901
-7.24998e-05
0.0262439
-1.27e-06
0.0261653
0.000169558
0.0259678
0.000422442
0.0255748
0.00067881
0.0250293
0.000878675
0.0244123
0.00106798
0.0236151
0.00127898
0.0227742
0.00148138
0.0216993
0.00175579
0.0207005
0.00180293
0.0194492
0.00202187
0.0184285
0.00188553
0.0171521
0.00202949
0.0162255
0.00178455
0.015069
0.00182673
0.0142494
0.00154846
0.0133166
0.00157355
0.0127372
0.00124861
0.0121086
0.00111261
0.0118415
0.000778554
0.0115409
0.000666164
0.0114988
0.000411085
0.0115141
0.000264613
0.0117453
2.57965e-05
0.012019
-0.000161792
0.0126167
-0.000505731
0.0132178
-0.000645298
0.014076
-0.00093481
0.0149124
-0.0010188
0.0159448
-0.00121123
0.0169178
-0.00122065
0.0179967
-0.00130049
0.0190391
-0.00131242
0.0201154
-0.00132599
0.0211607
-0.00131358
0.0221805
-0.0012419
0.0231549
-0.00120155
0.024114
-0.00119201
0.0250331
-0.00110673
0.0258767
-0.00101295
0.0266556
-0.000902747
0.0273833
-0.000827225
0.0280871
-0.000773228
0.0286931
-0.000664095
0.0293144
-0.000626907
0.02984
-0.000532189
0.0303708
-0.000498482
0.0308461
-0.000424855
0.0312873
-0.000386308
0.0316777
-0.000317576
0.0320681
-0.000274557
0.0323876
-0.000210788
0.032711
-0.000179954
0.0329829
-0.000131895
0.0332541
-0.00010622
0.0334818
-6.07697e-05
0.0337202
-4.36234e-05
0.0338909
1.25531e-05
0.0340894
2.29991e-05
0.0342392
5.75385e-05
0.0343965
6.60912e-05
0.0345221
7.63582e-05
0.0346653
7.82492e-05
0.0347876
6.38266e-05
0.0349428
5.54067e-05
0.0350773
4.98728e-05
0.035216
3.65217e-05
0.0353354
4.89023e-05
0.0354444
7.49347e-05
0.0355362
6.60986e-05
0.0356368
6.86751e-05
0.0357199
5.28616e-05
0.0358024
6.73239e-05
0.03586
8.00279e-05
0.0359408
8.65778e-05
0.0359646
0.000135246
0.0359752
0.000154482
0.0360336
0.000117455
0.0360935
9.66085e-05
0.0361271
9.99047e-05
0.036198
7.46777e-05
0.0362441
8.57447e-05
0.0363132
8.64024e-05
0.0363561
0.000107429
0.0364152
0.000111414
0.0364336
0.00014601
0.0364655
0.000162392
0.0364629
0.000213284
0.036454
0.000243314
0.0364355
0.000274002
0.0363623
0.000332469
0.0362763
0.00035383
0.0361682
0.000414431
0.036031
0.000448843
0.0358593
0.000500404
0.0356639
0.000563059
0.0354303
0.000659083
0.0351471
0.000727681
0.0348738
0.000818906
0.0345395
0.000879478
0.0342784
0.000873117
0.0339662
0.000790572
0.0336885
0.000755667
0.0334104
0.000681202
0.03317
0.000648989
0.0328804
0.000723841
0.0326552
0.000650012
0.0323976
0.00065951
0.0321796
0.000542896
0.0319571
0.000551248
0.0317351
0.000540961
0.031485
0.000606548
0.0312648
0.000667173
0.0310311
0.000719311
0.030855
0.000704745
0.0306819
0.000636814
0.0305737
0.000482347
0.0305595
0.000245521
0.0306021
4.28414e-05
0.0308542
-0.000214156
0.0311232
-0.000342289
0.0315145
-0.000430323
0.0319479
-0.000453512
0.0324245
-0.000500373
0.0328752
-0.000505973
0.0334307
-0.000593459
0.0339782
-0.000650789
0.0346305
-0.00074871
0.035266
-0.000804942
0.0359913
-0.000878563
0.0366885
-0.000914474
0.0374668
-0.000984399
0.0381927
-0.000979937
0.0389488
-0.000983846
0.0396518
-0.000942079
0.0402977
-0.000836531
0.040905
-0.000748865
0.0414185
-0.00063931
0.04195
-0.000606214
0.0423448
-0.000485033
0.0427957
-0.000483514
0.0430885
-0.000367271
0.043447
-0.000368611
0.043683
-0.000258913
0.0439193
-0.000221988
0.0440734
-0.000141525
0.0442341
-0.000119227
0.0443243
-6.92879e-05
0.0444157
-4.54312e-05
0.0444656
-1.36289e-05
0.0445133
-8.37924e-06
0.0445237
2.87616e-05
0.0445267
3.73154e-05
0.0445178
5.15967e-05
0.0444884
6.79535e-05
0.0444501
7.64474e-05
0.0444043
8.47954e-05
0.0443461
9.39149e-05
0.0442862
9.65824e-05
0.0442091
0.000109471
0.0441404
0.000103366
0.0440546
0.000113559
0.0439857
9.75576e-05
0.0439002
0.0001052
0.0438315
8.91906e-05
0.0437446
9.84445e-05
0.0436739
8.64398e-05
0.0435836
9.00668e-05
0.0435177
7.18464e-05
0.043431
7.81851e-05
0.0433663
6.45233e-05
0.0432759
7.7272e-05
0.0432109
6.48451e-05
0.0431197
7.64923e-05
0.0430541
6.21336e-05
0.0429635
7.27083e-05
0.0428956
6.136e-05
0.0427996
7.70144e-05
0.0427252
6.70759e-05
0.0426231
7.72704e-05
0.0425526
5.77542e-05
0.0424569
6.44473e-05
0.0423866
4.72304e-05
0.042293
4.32568e-05
0.0422355
1.53473e-05
0.0421517
2.18625e-05
0.0421056
-7.47011e-06
0.0420301
2.72489e-06
0.0419858
-1.86033e-05
0.0419191
-1.21041e-05
0.0418597
-8.90108e-06
0.04178
7.34952e-06
0.0417132
4.64463e-06
0.0416106
5.52409e-05
0.0415192
5.4883e-05
0.0414047
7.83577e-05
0.0413018
7.83117e-05
0.0411772
0.000107252
0.0410675
9.75249e-05
0.0409426
0.000112614
0.0408368
9.75783e-05
0.0407212
0.000102206
0.0406264
8.49123e-05
0.0405236
8.59836e-05
0.0404455
6.78505e-05
0.0403578
6.64796e-05
0.0402941
4.57594e-05
0.040232
3.49245e-05
0.0401817
2.18474e-05
0.0401292
1.85728e-05
0.0400938
4.49831e-06
0.040055
1.23436e-06
0.0400313
-1.28247e-05
0.0400115
-2.26387e-05
0.0400018
-3.45445e-05
0.0399992
-4.44394e-05
0.0400048
-5.62173e-05
0.0400152
-6.04481e-05
0.040033
-6.8964e-05
0.040049
-7.14771e-05
0.0400724
-7.46176e-05
0.0400939
-7.46434e-05
0.0401217
-7.61741e-05
0.0401428
-6.91669e-05
0.0401712
-7.1378e-05
0.0401937
-6.5762e-05
0.0402228
-6.81919e-05
0.0402492
-6.63846e-05
0.040283
-6.7256e-05
0.0403066
-5.86603e-05
0.0403384
-5.92677e-05
0.0403597
-5.36012e-05
0.0403896
-5.53837e-05
0.0404105
-4.88943e-05
0.0404384
-4.94641e-05
0.0404582
-4.22852e-05
0.040485
-4.24417e-05
0.0405057
-3.64555e-05
0.0405293
-3.22859e-05
0.0405466
-2.81877e-05
0.0405681
-2.748e-05
0.0405848
-1.85397e-05
0.0406006
-1.65788e-05
0.0406103
-9.20367e-06
0.040627
-1.41585e-05
0.0406421
-2.12472e-05
-2.75311e-05
-4.11773e-05
2.99947e-05
-0.000101168
6.07438e-05
-0.000313895
0.000246583
-0.000513716
0.000356528
-0.00095447
0.000638487
-0.00136193
0.00076194
-0.00190397
0.000909701
-0.00237782
0.000896223
-0.0029259
0.000970856
-0.00342725
0.000955441
-0.00393358
0.000945825
-0.00438899
0.000888551
-0.00482761
0.00084019
-0.00522383
0.000779066
-0.00558219
0.000705658
-0.00591059
0.000641784
-0.00619676
0.000564177
-0.00645528
0.000500722
-0.00666995
0.000422572
-0.00686735
0.000364577
-0.00700655
0.000279134
-0.00713851
0.000214558
-0.00721513
0.000121286
-0.0072786
5.38965e-05
-0.00731163
-6.54397e-06
-0.00732689
-5.32359e-05
-0.00733262
-7.67328e-05
-0.00733519
-8.7046e-05
-0.00735097
-7.19072e-05
-0.00737052
-4.85816e-05
-0.00742877
1.37873e-06
-0.00749007
4.93875e-05
-0.00762914
0.000147036
-0.0077602
0.000206076
-0.00800984
0.000361139
-0.00825042
0.0004335
-0.00864332
0.000619453
-0.00898515
0.000702925
-0.00951966
0.000918861
-0.0100025
0.00101847
-0.0106982
0.00127429
-0.0113593
0.00142509
-0.0122799
0.00171647
-0.0130978
0.00185587
-0.0142277
0.00222879
-0.0152354
0.00233255
-0.0165577
0.00274407
-0.0177497
0.00286699
-0.0192781
0.00325439
-0.0206023
0.00337407
-0.0222344
0.00367508
-0.023724
0.00382961
-0.0253868
0.00401069
-0.026959
0.00418174
-0.0285947
0.00424942
-0.0301527
0.00437163
-0.0316654
0.00434785
-0.0331504
0.00437031
-0.0344124
0.00428442
-0.0356714
0.00414098
-0.0366189
0.00387315
-0.0375169
0.00354781
-0.0381397
0.00303497
-0.0386683
0.00250066
-0.0390177
0.00187268
-0.0392583
0.00121802
-0.0393691
0.000529869
-0.0393216
-0.000149239
-0.0391757
-0.000746275
-0.0387132
-0.00147849
-0.0380966
-0.00187882
-0.0371203
-0.00247011
-0.0360426
-0.00295908
-0.0346316
-0.00364899
-0.0330865
-0.00401725
-0.0313197
-0.00455369
-0.0294842
-0.00482686
-0.0274484
-0.0052206
-0.0253998
-0.00536463
-0.0231489
-0.0056658
-0.0209492
-0.00565638
-0.0185707
-0.00588294
-0.0163031
-0.00577973
-0.0139181
-0.00588123
-0.0116237
-0.00577838
-0.00930773
-0.00570484
-0.00710084
-0.00551239
-0.00497811
-0.0052835
-0.00301678
-0.0049268
-0.00118382
-0.00452349
0.000549888
-0.00410559
0.00223695
-0.00381452
0.00385291
-0.00357348
0.00533725
-0.00328963
0.0066318
-0.00293592
0.00769449
-0.00251577
0.00851518
-0.00207953
0.00910737
-0.00162003
0.00950858
-0.00118342
0.009738
-0.000785397
0.0097762
-0.000379561
0.00962668
2.8361e-05
0.00924351
0.000529097
0.008551
0.00123464
0.00745898
0.00204719
0.00607292
0.00278845
0.00451573
0.00341412
0.00285397
0.00392908
0.00104562
0.00434492
-0.000942694
0.00494064
-0.00314541
0.00554606
-0.00550538
0.00600983
-0.00787795
0.00628112
-0.0101963
0.00633038
-0.0121922
0.00605613
-0.0140342
0.00569861
-0.0154282
0.00508149
-0.0165429
0.00424689
-0.0172343
0.0030944
-0.017708
0.00198837
-0.0179097
0.000855977
-0.0177645
-0.000212964
-0.0173479
-0.0012928
-0.0161408
-0.00296835
-0.0146318
-0.00452334
-0.0124945
-0.00583659
-0.00999457
-0.00658426
-0.00759695
-0.00658062
-0.0051966
-0.00630901
-0.00308233
-0.00560082
-0.00139072
-0.00465572
0.000880398
-0.00483669
0.00328709
-0.00539341
0.00622581
-0.00605376
0.00926055
-0.00611192
0.0123185
-0.00590417
0.0150908
-0.00561347
0.0177683
-0.00553242
0.0204347
-0.00542794
0.0229498
-0.00523457
0.0253517
-0.00512683
0.0276134
-0.00478007
0.029721
-0.00451067
0.0316875
-0.00415625
0.0334455
-0.00372109
0.0349653
-0.00327208
0.0364109
-0.00298351
0.0376117
-0.00257341
0.0387521
-0.00231323
0.0396044
-0.00186498
0.0404073
-0.00156015
0.0408568
-0.00104822
0.041279
-0.000734536
0.0414124
-0.000305483
0.0414233
3.58164e-05
0.0412789
0.000372769
0.0409385
0.000702146
0.0405139
0.000979531
0.0399418
0.00125129
0.0392577
0.00143806
0.0385204
0.00157583
0.0376783
0.00165451
0.0368336
0.00171055
0.0359139
0.00175668
0.0350144
0.00174672
0.0340241
0.00182093
0.0331567
0.00175955
0.0321737
0.00179355
0.0313754
0.0016243
0.0304712
0.0015639
0.0298071
0.00132167
0.0290562
0.00118445
0.0285185
0.000892542
0.0279266
0.000800124
0.0275129
0.000609375
0.0270408
0.00058305
0.0267022
0.000462425
0.0263237
0.000438418
0.0259822
0.000442775
0.0255515
0.000566156
0.0251224
0.00076658
0.0245411
0.000967482
0.0239588
0.00106054
0.0232905
0.00117375
0.0225872
0.00129088
0.0218261
0.00146605
0.0209969
0.00165118
0.0200974
0.00193574
0.0191169
0.00212043
0.0180527
0.00222487
0.0170248
0.00222748
0.0159298
0.00225254
0.0149371
0.00216898
0.0138849
0.00214032
0.0130417
0.0019572
0.0121523
0.00181653
0.0114816
0.00153563
0.0108247
0.00132576
0.010518
0.000892941
0.0102309
0.000602902
0.0102404
0.000191337
0.0103603
-0.000155127
0.0108442
-0.000681701
0.0114071
-0.00104737
0.0123264
-0.0015804
0.0133484
-0.00193176
0.0146529
-0.00236556
0.0159804
-0.00265518
0.0175593
-0.00304339
0.0191399
-0.00324358
0.0208902
-0.00346418
0.0225951
-0.00362329
0.0243973
-0.00372293
0.0260971
-0.0036449
0.0278776
-0.00362438
0.029556
-0.00362664
0.0313037
-0.00361223
0.0329069
-0.00341671
0.0344477
-0.00329348
0.0359061
-0.00301625
0.03723
-0.00271495
0.0384578
-0.00247226
0.0396452
-0.00236261
0.0408154
-0.00232656
0.0419387
-0.00221755
0.0430018
-0.00210686
0.0439467
-0.00188592
0.044857
-0.00164748
0.0455438
-0.00125856
0.0462204
-0.000994829
0.0465964
-0.000507654
0.0469553
-0.000226087
0.0470596
0.000201832
0.0470541
0.00054551
0.0469106
0.000909675
0.0465508
0.00127501
0.0461255
0.00156128
0.0454936
0.00189096
0.0447538
0.00213066
0.0439562
0.0022909
0.0429824
0.00245542
0.0420941
0.0024076
0.0410421
0.00243776
0.0401961
0.00220942
0.0392321
0.00203553
0.0385516
0.00161199
0.0377596
0.00136321
0.0373704
0.000811094
0.0368602
0.000668992
0.0366703
0.000338471
0.0363447
0.000370105
0.036185
0.000259805
0.0358572
0.000369449
0.0355955
0.000374592
0.035138
0.000742802
0.0346005
0.00107752
0.0338402
0.00155695
0.0329213
0.00191727
0.0318162
0.00229237
0.0307281
0.00248761
0.0294107
0.00291741
0.0281833
0.0031012
0.0266901
0.00341743
0.0254151
0.00340458
0.0238705
0.00356654
0.02264
0.00337106
0.0211457
0.00341826
0.0200359
0.00306319
0.0187533
0.00294278
0.0179324
0.00250851
0.0169896
0.00232196
0.0165062
0.00173415
0.0159679
0.00143667
0.0158377
0.000921492
0.0157999
0.000576432
0.0160694
0.000123333
0.0163659
-0.000148333
0.0169985
-0.000655221
0.0176542
-0.00103768
0.0186592
-0.00152244
0.0196696
-0.00180982
0.0209253
-0.00214632
0.0221362
-0.0022931
0.0235071
-0.0024566
0.0248105
-0.00247267
0.026193
-0.00257672
0.0275247
-0.00251184
0.0288343
-0.00249868
0.0300951
-0.00236621
0.0313382
-0.00232227
0.0325507
-0.00226574
0.033649
-0.00208389
0.0347269
-0.00195768
0.0357148
-0.00176649
0.0366708
-0.00164587