/*--------------------------------*- C++ -*----------------------------------*\
| =========                 |                                                 |
| \\      /  F ield         | OpenFOAM: The Open Source CFD Toolbox           |
|  \\    /   O peration     | Version:  v1812                                 |
|   \\  /    A nd           | Web:      www.OpenFOAM.com                      |
|    \\/     M anipulation  |                                                 |
\*---------------------------------------------------------------------------*/
FoamFile
{
    version     2.0;
    format      ascii;
    class       volScalarField;
    location    "1.3";
    object      T;
}
// * * * * * * * * * * * * * * * * * * * * * * * * * * * * * * * * * * * * * //

dimensions      [0 0 0 1 0 0 0];


internalField   nonuniform List<scalar> 
20400
(
296.117
296.121
296.136
296.167
296.218
296.285
296.363
296.447
296.531
296.607
296.672
296.724
296.764
296.792
296.812
296.826
296.837
296.845
296.853
296.861
296.87
296.881
296.894
296.909
296.927
296.947
296.97
296.995
297.022
297.051
297.08
297.109
297.137
297.164
297.189
297.213
297.234
297.254
297.272
297.289
297.305
297.321
297.337
297.353
297.371
297.389
297.41
297.43
297.454
297.476
297.503
297.528
297.561
297.587
297.617
297.632
297.643
297.639
297.64
297.635
297.636
297.632
297.637
297.64
297.647
297.656
297.667
297.683
297.705
297.733
297.76
297.791
297.81
297.827
297.839
297.851
297.864
297.879
297.898
297.917
297.936
297.952
297.966
297.976
297.983
297.988
297.99
297.99
297.989
297.985
297.974
297.954
297.923
297.881
297.828
297.766
297.696
297.621
297.541
297.459
297.379
297.301
297.227
297.158
297.094
297.036
296.981
296.93
296.881
296.834
296.788
296.744
296.702
296.662
296.622
296.581
296.541
296.505
296.477
296.454
296.433
296.411
296.387
296.341
296.292
296.235
296.189
296.157
296.139
296.14
296.116
296.089
296.066
296.071
296.053
296.047
296.047
296.047
296.054
296.051
296.06
296.065
296.084
296.102
296.131
296.148
296.166
296.174
296.187
296.197
296.215
296.23
296.25
296.268
296.29
296.318
296.352
296.393
296.438
296.486
296.538
296.591
296.643
296.687
296.72
296.74
296.752
296.757
296.761
296.763
296.771
296.787
296.813
296.852
296.908
296.978
297.062
297.159
297.268
297.388
297.514
297.636
297.746
297.839
297.913
297.969
298.005
298.029
298.039
298.046
298.053
298.065
298.081
298.103
298.129
298.158
298.189
298.22
298.252
298.28
298.314
298.345
298.375
298.404
298.435
298.468
298.502
298.536
298.57
298.605
298.635
298.667
298.7
298.746
298.794
298.854
298.907
298.965
299.013
299.065
299.101
299.128
299.136
299.137
299.137
299.137
299.137
299.134
299.121
299.095
299.045
298.967
298.861
298.737
298.6
298.46
298.32
298.183
298.054
297.937
297.832
297.739
297.663
297.6
297.554
297.515
297.488
297.465
297.439
297.412
297.377
297.33
297.272
297.205
297.133
297.053
296.965
296.874
296.784
296.694
296.612
296.532
296.453
296.375
296.298
296.223
296.154
296.088
296.033
295.981
295.934
295.889
295.848
295.818
295.79
295.766
295.731
295.689
295.649
295.62
295.601
295.59
295.586
295.583
295.585
295.583
295.588
295.592
295.604
295.609
295.618
295.626
295.641
295.65
295.661
295.665
295.672
295.673
295.676
295.675
295.676
295.674
295.675
295.673
295.672
295.669
295.667
295.662
295.659
295.652
295.645
295.635
295.625
295.612
295.596
295.575
295.549
295.518
295.482
295.442
295.399
295.354
295.305
295.257
295.209
295.164
295.119
295.075
295.03
294.981
294.931
294.881
294.832
294.783
294.736
294.691
294.647
294.606
294.566
294.53
294.496
294.462
294.43
294.4
294.369
294.34
294.313
294.286
294.26
294.234
294.209
294.179
294.155
294.132
294.109
294.09
294.069
294.052
294.037
294.018
294.006
293.99
293.977
293.963
293.948
293.932
293.919
293.904
293.891
293.877
293.864
293.851
293.836
293.819
293.806
293.8
293.8
293.801
293.801
293.803
293.807
293.81
293.815
293.818
293.824
293.828
293.831
293.833
293.835
293.832
293.824
293.802
293.77
293.73
293.685
293.641
293.601
293.566
293.536
293.509
293.487
293.466
293.448
293.431
293.415
293.4
293.386
293.372
293.36
293.349
293.34
293.334
293.332
293.332
293.333
293.338
293.346
293.359
293.376
293.395
293.416
293.438
293.462
293.486
293.51
293.533
293.555
293.575
293.595
293.614
293.632
293.649
293.664
293.678
293.691
293.702
293.71
293.717
293.724
293.73
293.737
293.743
293.748
293.752
293.756
293.76
293.764
293.769
293.773
293.775
293.776
293.777
293.777
293.777
293.777
293.776
293.775
293.772
293.769
293.763
293.758
293.752
293.748
293.743
293.74
293.736
293.732
293.728
293.724
293.719
293.714
293.709
293.704
293.699
293.693
293.687
293.679
293.67
293.658
293.645
293.63
293.613
293.595
293.576
293.555
293.535
293.516
293.497
293.479
293.461
293.443
293.425
293.406
293.384
293.359
293.331
293.303
293.28
293.266
293.262
296.117
296.121
296.136
296.169
296.219
296.286
296.363
296.448
296.53
296.608
296.672
296.725
296.763
296.792
296.812
296.826
296.836
296.845
296.853
296.861
296.87
296.881
296.893
296.909
296.927
296.948
296.97
296.995
297.022
297.05
297.079
297.107
297.136
297.161
297.187
297.209
297.232
297.251
297.269
297.285
297.302
297.316
297.332
297.349
297.365
297.385
297.404
297.423
297.449
297.467
297.495
297.514
297.553
297.573
297.609
297.617
297.629
297.625
297.621
297.621
297.617
297.618
297.619
297.625
297.632
297.64
297.652
297.668
297.694
297.718
297.754
297.779
297.803
297.818
297.832
297.842
297.856
297.872
297.89
297.911
297.929
297.949
297.961
297.975
297.982
297.987
297.989
297.989
297.989
297.985
297.974
297.955
297.923
297.881
297.828
297.767
297.697
297.622
297.542
297.46
297.38
297.301
297.228
297.158
297.095
297.036
296.982
296.93
296.882
296.834
296.788
296.744
296.702
296.663
296.625
296.582
296.544
296.503
296.477
296.453
296.433
296.414
296.389
296.353
296.291
296.247
296.196
296.169
296.147
296.13
296.138
296.113
296.107
296.075
296.063
296.043
296.036
296.045
296.037
296.052
296.04
296.061
296.056
296.09
296.098
296.132
296.132
296.153
296.151
296.173
296.177
296.201
296.211
296.234
296.251
296.282
296.314
296.359
296.398
296.455
296.496
296.562
296.607
296.668
296.697
296.725
296.729
296.743
296.742
296.752
296.754
296.775
296.794
296.838
296.887
296.961
297.038
297.137
297.239
297.363
297.482
297.61
297.719
297.82
297.897
297.959
297.996
298.024
298.033
298.04
298.045
298.059
298.072
298.097
298.12
298.151
298.179
298.216
298.24
298.276
298.303
298.339
298.366
298.394
298.427
298.459
298.5
298.526
298.566
298.59
298.637
298.654
298.7
298.72
298.783
298.814
298.897
298.926
298.998
299.031
299.091
299.113
299.132
299.126
299.133
299.126
299.133
299.123
299.119
299.088
299.043
298.964
298.861
298.737
298.607
298.468
298.335
298.192
298.07
297.937
297.836
297.735
297.663
297.596
297.552
297.512
297.487
297.461
297.438
297.41
297.376
297.328
297.271
297.203
297.133
297.049
296.964
296.871
296.782
296.692
296.609
296.528
296.451
296.374
296.297
296.222
296.153
296.089
296.032
295.982
295.934
295.887
295.849
295.812
295.789
295.761
295.725
295.684
295.642
295.618
295.596
295.588
295.574
295.575
295.567
295.573
295.567
295.58
295.578
295.594
295.585
295.608
295.608
295.628
295.626
295.64
295.638
295.647
295.642
295.647
295.643
295.646
295.64
295.644
295.638
295.639
295.633
295.634
295.626
295.625
295.612
295.607
295.595
295.586
295.568
295.552
295.523
295.498
295.459
295.425
295.381
295.34
295.29
295.244
295.198
295.155
295.11
295.067
295.02
294.974
294.923
294.875
294.825
294.778
294.729
294.685
294.64
294.599
294.559
294.523
294.488
294.455
294.421
294.39
294.358
294.33
294.301
294.277
294.248
294.225
294.195
294.171
294.142
294.122
294.096
294.079
294.059
294.043
294.023
294.01
293.994
293.982
293.967
293.956
293.938
293.926
293.909
293.896
293.88
293.867
293.852
293.84
293.827
293.813
293.797
293.794
293.79
293.794
293.79
293.797
293.795
293.804
293.802
293.813
293.809
293.82
293.814
293.823
293.817
293.822
293.809
293.796
293.758
293.725
293.674
293.634
293.589
293.556
293.519
293.494
293.467
293.449
293.429
293.413
293.397
293.381
293.367
293.353
293.34
293.33
293.32
293.314
293.309
293.309
293.307
293.31
293.315
293.328
293.34
293.359
293.376
293.401
293.42
293.447
293.467
293.495
293.513
293.539
293.555
293.578
293.593
293.614
293.626
293.644
293.655
293.669
293.675
293.685
293.689
293.699
293.704
293.714
293.717
293.723
293.724
293.731
293.734
293.74
293.742
293.747
293.746
293.748
293.748
293.749
293.748
293.749
293.746
293.746
293.741
293.738
293.732
293.729
293.723
293.72
293.716
293.713
293.71
293.706
293.702
293.698
293.692
293.688
293.682
293.678
293.671
293.666
293.658
293.651
293.64
293.629
293.614
293.598
293.58
293.561
293.541
293.521
293.5
293.482
293.463
293.445
293.427
293.41
293.39
293.369
293.343
293.316
293.287
293.264
293.25
293.247
296.117
296.122
296.138
296.17
296.221
296.285
296.363
296.447
296.532
296.607
296.674
296.725
296.765
296.793
296.813
296.826
296.837
296.846
296.853
296.862
296.87
296.881
296.894
296.909
296.927
296.948
296.969
296.994
297.019
297.048
297.074
297.102
297.127
297.154
297.177
297.201
297.22
297.241
297.256
297.273
297.286
297.301
297.316
297.331
297.346
297.37
297.384
297.413
297.423
297.456
297.457
297.496
297.51
297.56
297.569
297.597
297.597
297.596
297.594
297.592
297.591
297.593
297.595
297.604
297.61
297.621
297.633
297.654
297.682
297.711
297.741
297.768
297.793
297.812
297.826
297.834
297.849
297.862
297.884
297.902
297.925
297.94
297.96
297.972
297.983
297.986
297.989
297.988
297.988
297.984
297.975
297.955
297.925
297.882
297.83
297.769
297.7
297.625
297.546
297.465
297.384
297.306
297.231
297.162
297.097
297.04
296.983
296.934
296.884
296.837
296.79
296.745
296.702
296.668
296.623
296.593
296.54
296.508
296.475
296.452
296.436
296.43
296.405
296.404
296.339
296.287
296.252
296.207
296.182
296.169
296.153
296.161
296.133
296.108
296.097
296.056
296.042
296.007
296.025
295.999
296.015
296.002
296.029
296.006
296.045
296.045
296.072
296.059
296.078
296.072
296.096
296.092
296.115
296.122
296.149
296.173
296.213
296.242
296.303
296.332
296.407
296.436
296.538
296.571
296.651
296.663
296.672
296.678
296.707
296.705
296.726
296.729
296.762
296.781
296.848
296.896
296.992
297.059
297.177
297.267
297.408
297.512
297.656
297.747
297.863
297.92
297.983
298
298.018
298.015
298.028
298.031
298.054
298.064
298.1
298.115
298.16
298.181
298.226
298.242
298.28
298.305
298.333
298.36
298.385
298.438
298.466
298.525
298.526
298.583
298.597
298.659
298.659
298.714
298.711
298.776
298.797
298.913
298.927
299.015
299.061
299.115
299.116
299.132
299.122
299.131
299.12
299.131
299.113
299.1
299.042
298.982
298.88
298.772
298.648
298.527
298.388
298.27
298.114
298.006
297.858
297.777
297.664
297.617
297.547
297.527
297.485
297.478
297.448
297.431
297.388
297.35
297.281
297.224
297.133
297.063
296.961
296.882
296.778
296.698
296.603
296.532
296.447
296.377
296.297
296.232
296.158
296.098
296.037
295.986
295.931
295.89
295.844
295.814
295.781
295.75
295.712
295.665
295.636
295.606
295.601
295.576
295.571
295.541
295.549
295.526
295.538
295.518
295.531
295.52
295.539
295.526
295.55
295.539
295.559
295.552
295.57
295.559
295.572
295.566
295.57
295.565
295.57
295.561
295.567
295.558
295.563
295.555
295.56
295.548
295.547
295.534
295.535
295.522
295.518
295.497
295.483
295.452
295.429
295.392
295.362
295.318
295.282
295.233
295.194
295.151
295.109
295.063
295.02
294.971
294.926
294.876
294.832
294.781
294.739
294.689
294.649
294.602
294.565
294.524
294.49
294.453
294.419
294.385
294.355
294.324
294.298
294.269
294.247
294.217
294.195
294.163
294.14
294.114
294.094
294.07
294.057
294.034
294.02
294.002
293.991
293.977
293.965
293.949
293.938
293.921
293.907
293.891
293.877
293.859
293.847
293.831
293.825
293.808
293.799
293.788
293.791
293.787
293.795
293.788
293.8
293.793
293.807
293.801
293.817
293.806
293.819
293.809
293.82
293.81
293.817
293.791
293.783
293.726
293.7
293.637
293.602
293.549
293.52
293.482
293.463
293.439
293.424
293.404
293.389
293.373
293.358
293.344
293.333
293.32
293.312
293.302
293.298
293.289
293.287
293.283
293.286
293.285
293.296
293.302
293.323
293.333
293.362
293.374
293.406
293.419
293.453
293.465
293.497
293.506
293.536
293.542
293.573
293.578
293.604
293.608
293.627
293.626
293.642
293.644
293.661
293.664
293.676
293.674
293.684
293.685
293.695
293.693
293.703
293.704
293.705
293.705
293.709
293.708
293.711
293.709
293.71
293.707
293.708
293.703
293.702
293.696
293.696
293.691
293.691
293.688
293.687
293.683
293.681
293.675
293.672
293.666
293.664
293.656
293.653
293.647
293.645
293.637
293.632
293.62
293.608
293.591
293.575
293.555
293.536
293.514
293.495
293.474
293.456
293.437
293.42
293.402
293.384
293.362
293.338
293.309
293.281
293.256
293.243
293.24
296.12
296.125
296.143
296.175
296.223
296.287
296.365
296.449
296.536
296.612
296.679
296.73
296.77
296.796
296.816
296.829
296.84
296.847
296.855
296.863
296.871
296.882
296.894
296.91
296.929
296.948
296.97
296.991
297.017
297.04
297.067
297.09
297.116
297.137
297.16
297.181
297.199
297.216
297.232
297.246
297.258
297.269
297.286
297.296
297.321
297.331
297.366
297.374
297.405
297.414
297.421
297.436
297.486
297.502
297.545
297.547
297.558
297.555
297.557
297.554
297.559
297.556
297.566
297.574
297.589
297.6
297.62
297.642
297.675
297.711
297.751
297.784
297.821
297.831
297.847
297.849
297.859
297.869
297.884
297.907
297.921
297.944
297.955
297.975
297.981
297.987
297.987
297.989
297.987
297.986
297.975
297.957
297.925
297.885
297.832
297.774
297.705
297.632
297.554
297.473
297.394
297.312
297.241
297.166
297.105
297.041
296.991
296.935
296.89
296.839
296.794
296.743
296.706
296.659
296.642
296.592
296.547
296.514
296.472
296.457
296.446
296.437
296.443
296.4
296.419
296.369
296.33
296.301
296.251
296.227
296.213
296.195
296.176
296.18
296.13
296.122
296.037
296.013
295.943
295.932
295.912
295.922
295.909
295.921
295.903
295.934
295.917
295.925
295.903
295.922
295.909
295.927
295.917
295.937
295.952
295.986
296.012
296.06
296.081
296.169
296.176
296.297
296.314
296.461
296.492
296.569
296.542
296.587
296.595
296.652
296.649
296.682
296.677
296.722
296.738
296.836
296.868
296.981
297.024
297.155
297.221
297.388
297.482
297.662
297.746
297.883
297.922
297.973
297.972
297.987
297.981
297.998
297.998
298.027
298.027
298.077
298.094
298.153
298.159
298.204
298.22
298.246
298.26
298.276
298.32
298.34
298.429
298.457
298.526
298.507
298.573
298.584
298.65
298.639
298.691
298.659
298.75
298.789
298.934
298.993
299.079
299.085
299.128
299.122
299.138
299.125
299.136
299.122
299.133
299.1
299.084
299.009
298.945
298.846
298.751
298.636
298.53
298.387
298.278
298.1
298.003
297.83
297.764
297.638
297.603
297.531
297.532
297.498
297.51
297.474
297.464
297.394
297.358
297.246
297.195
297.068
297.006
296.885
296.818
296.701
296.636
296.534
296.473
296.385
296.323
296.238
296.176
296.107
296.053
295.983
295.941
295.884
295.849
295.807
295.773
295.731
295.684
295.653
295.617
295.616
295.593
295.589
295.553
295.539
295.499
295.506
295.453
295.451
295.417
295.433
295.421
295.426
295.413
295.421
295.411
295.433
295.421
295.441
295.425
295.44
295.433
295.439
295.434
295.438
295.434
295.436
295.432
295.434
295.431
295.433
295.422
295.424
295.422
295.428
295.422
295.422
295.408
295.398
295.374
295.358
295.326
295.304
295.263
295.238
295.195
295.155
295.11
295.07
295.019
294.977
294.928
294.891
294.842
294.807
294.754
294.722
294.667
294.632
294.58
294.546
294.498
294.465
294.421
294.391
294.354
294.328
294.296
294.274
294.244
294.223
294.193
294.169
294.139
294.117
294.092
294.073
294.053
294.037
294.017
294.006
293.989
293.981
293.964
293.955
293.938
293.924
293.907
293.894
293.874
293.862
293.842
293.834
293.823
293.819
293.802
293.802
293.792
293.799
293.792
293.804
293.794
293.812
293.801
293.821
293.81
293.828
293.814
293.831
293.818
293.834
293.819
293.83
293.8
293.799
293.724
293.708
293.62
293.588
293.524
293.499
293.462
293.451
293.425
293.413
293.392
293.378
293.363
293.351
293.336
293.327
293.313
293.306
293.294
293.289
293.279
293.275
293.263
293.261
293.253
293.258
293.258
293.277
293.279
293.307
293.313
293.348
293.355
293.395
293.399
293.438
293.44
293.475
293.478
293.518
293.52
293.55
293.549
293.572
293.57
293.595
293.596
293.619
293.623
293.628
293.632
293.647
293.641
293.652
293.653
293.663
293.658
293.665
293.663
293.67
293.668
293.67
293.669
293.67
293.669
293.673
293.671
293.672
293.67
293.671
293.671
293.671
293.67
293.668
293.664
293.663
293.658
293.658
293.65
293.648
293.643
293.643
293.638
293.636
293.628
293.623
293.608
293.597
293.577
293.562
293.539
293.522
293.498
293.481
293.458
293.443
293.422
293.407
293.386
293.368
293.342
293.317
293.285
293.262
293.248
293.246
296.128
296.134
296.15
296.186
296.229
296.295
296.371
296.462
296.547
296.628
296.691
296.744
296.778
296.807
296.822
296.836
296.844
296.852
296.858
296.866
296.874
296.884
296.897
296.913
296.929
296.95
296.969
296.991
297.012
297.035
297.055
297.077
297.096
297.114
297.134
297.149
297.169
297.181
297.197
297.208
297.218
297.233
297.241
297.261
297.272
297.3
297.313
297.344
297.351
297.363
297.362
297.389
297.413
297.467
297.479
297.499
297.493
297.502
297.496
297.508
297.508
297.517
297.532
297.548
297.564
297.589
297.61
297.64
297.667
297.722
297.742
297.818
297.839
297.88
297.868
297.884
297.873
297.895
297.894
297.919
297.932
297.944
297.964
297.972
297.987
297.985
297.99
297.988
297.991
297.986
297.981
297.959
297.932
297.887
297.839
297.778
297.714
297.642
297.565
297.487
297.404
297.33
297.248
297.18
297.109
297.053
296.992
296.945
296.89
296.845
296.789
296.749
296.692
296.677
296.643
296.592
296.564
296.502
296.485
296.459
296.455
296.46
296.439
296.448
296.431
296.454
296.432
296.389
296.367
296.302
296.27
296.236
296.248
296.223
296.236
296.146
296.101
295.973
295.918
295.81
295.81
295.755
295.785
295.764
295.777
295.724
295.738
295.674
295.68
295.647
295.664
295.651
295.661
295.658
295.68
295.703
295.744
295.761
295.831
295.843
295.962
295.965
296.124
296.14
296.323
296.329
296.415
296.396
296.476
296.495
296.582
296.576
296.613
296.597
296.658
296.674
296.798
296.806
296.911
296.917
297.062
297.12
297.334
297.43
297.657
297.737
297.876
297.89
297.923
297.913
297.929
297.927
297.945
297.934
297.967
297.977
298.044
298.053
298.107
298.117
298.138
298.139
298.149
298.163
298.167
298.242
298.259
298.392
298.42
298.5
298.459
298.528
298.526
298.589
298.573
298.653
298.653
298.769
298.843
298.979
299.029
299.114
299.116
299.149
299.138
299.149
299.139
299.148
299.129
299.139
299.107
299.087
299.021
298.961
298.878
298.8
298.693
298.6
298.449
298.336
298.138
298.041
297.84
297.806
297.651
297.634
297.582
297.596
297.564
297.592
297.546
297.535
297.425
297.388
297.22
297.182
297.028
296.974
296.838
296.774
296.657
296.592
296.485
296.42
296.329
296.262
296.175
296.126
296.047
296
295.933
295.895
295.843
295.807
295.762
295.717
295.668
295.624
295.62
295.603
295.608
295.581
295.567
295.52
295.502
295.433
295.412
295.331
295.321
295.307
295.313
295.255
295.256
295.221
295.24
295.224
295.246
295.231
295.251
295.235
295.251
295.244
295.251
295.244
295.255
295.248
295.252
295.248
295.256
295.248
295.256
295.252
295.27
295.273
295.294
295.297
295.305
295.301
295.303
295.292
295.29
295.265
295.257
295.221
295.198
295.152
295.118
295.069
295.029
294.976
294.94
294.889
294.863
294.818
294.797
294.745
294.721
294.663
294.634
294.571
294.54
294.479
294.447
294.395
294.367
294.327
294.304
294.271
294.253
294.222
294.202
294.17
294.144
294.114
294.093
294.071
294.055
294.035
294.023
294.006
293.998
293.982
293.975
293.957
293.946
293.926
293.915
293.895
293.88
293.857
293.848
293.833
293.837
293.826
293.831
293.816
293.818
293.813
293.818
293.814
293.822
293.819
293.831
293.822
293.848
293.842
293.852
293.85
293.86
293.856
293.865
293.86
293.88
293.852
293.85
293.76
293.733
293.622
293.593
293.519
293.5
293.463
293.451
293.426
293.412
293.394
293.382
293.367
293.358
293.34
293.331
293.311
293.304
293.288
293.284
293.271
293.262
293.241
293.232
293.217
293.218
293.211
293.22
293.22
293.247
293.247
293.283
293.284
293.327
293.329
293.365
293.368
293.408
293.412
293.456
293.456
293.486
293.485
293.517
293.516
293.548
293.551
293.573
293.572
293.589
293.592
293.596
293.597
293.611
293.609
293.618
293.616
293.624
293.623
293.63
293.626
293.631
293.628
293.634
293.636
293.644
293.645
293.65
293.652
293.655
293.657
293.657
293.656
293.656
293.652
293.654
293.649
293.648
293.643
293.643
293.64
293.639
293.634
293.632
293.624
293.62
293.603
293.595
293.573
293.561
293.535
293.52
293.493
293.478
293.452
293.44
293.417
293.406
293.381
293.364
293.332
293.306
293.277
293.265
293.264
296.15
296.15
296.172
296.197
296.25
296.309
296.396
296.482
296.575
296.65
296.718
296.763
296.8
296.821
296.838
296.847
296.855
296.86
296.866
296.872
296.88
296.889
296.901
296.915
296.932
296.95
296.971
296.99
297.01
297.027
297.045
297.059
297.076
297.089
297.103
297.117
297.128
297.141
297.155
297.167
297.182
297.192
297.203
297.208
297.23
297.24
297.27
297.278
297.292
297.286
297.298
297.304
297.356
297.381
297.424
297.41
297.427
297.419
297.429
297.439
297.448
297.475
297.492
297.522
297.547
297.572
297.614
297.638
297.678
297.68
297.759
297.789
297.868
297.869
297.908
297.874
297.919
297.903
297.938
297.937
297.963
297.955
297.973
297.984
297.987
297.996
297.992
297.997
297.993
297.998
297.986
297.975
297.937
297.9
297.844
297.79
297.723
297.656
297.582
297.503
297.426
297.342
297.273
297.193
297.129
297.06
297.007
296.945
296.9
296.84
296.798
296.741
296.706
296.675
296.639
296.615
296.549
296.536
296.483
296.475
296.467
296.453
296.466
296.44
296.468
296.485
296.506
296.507
296.448
296.412
296.314
296.302
296.292
296.313
296.268
296.251
296.098
296.02
295.859
295.79
295.648
295.625
295.612
295.635
295.554
295.563
295.452
295.421
295.341
295.347
295.326
295.335
295.33
295.338
295.342
295.372
295.397
295.444
295.455
295.546
295.564
295.704
295.712
295.902
295.919
296.125
296.123
296.217
296.21
296.356
296.388
296.496
296.48
296.524
296.489
296.579
296.618
296.717
296.695
296.768
296.769
296.943
297.012
297.285
297.391
297.647
297.708
297.815
297.812
297.838
297.833
297.85
297.84
297.857
297.855
297.912
297.925
297.986
297.996
298.013
298.011
298.011
298.005
298.002
298.013
298.017
298.129
298.141
298.311
298.333
298.424
298.383
298.44
298.426
298.509
298.522
298.667
298.695
298.829
298.914
299.027
299.065
299.126
299.138
299.181
299.17
299.185
299.162
299.169
299.163
299.168
299.144
299.121
299.069
299.022
298.954
298.888
298.786
298.694
298.533
298.416
298.196
298.127
297.897
297.837
297.701
297.75
297.69
297.692
297.677
297.689
297.628
297.621
297.451
297.42
297.233
297.178
297.02
296.945
296.803
296.741
296.617
296.533
296.416
296.338
296.249
296.197
296.112
296.07
295.992
295.953
295.888
295.853
295.807
295.763
295.705
295.651
295.618
295.599
295.614
295.6
295.6
295.565
295.534
295.468
295.43
295.341
295.298
295.224
295.23
295.15
295.141
295.037
295.031
295.017
295.019
294.99
295.007
294.995
295.012
294.999
295.015
295.003
295.017
295.006
295.017
295.011
295.019
295.013
295.024
295.02
295.042
295.047
295.086
295.099
295.133
295.148
295.173
295.187
295.208
295.213
295.222
295.212
295.209
295.175
295.157
295.109
295.074
295.025
294.987
294.934
294.902
294.855
294.843
294.801
294.795
294.75
294.736
294.674
294.65
294.574
294.545
294.47
294.442
294.378
294.352
294.305
294.287
294.254
294.237
294.203
294.178
294.143
294.118
294.091
294.074
294.053
294.038
294.022
294.014
294
293.996
293.98
293.976
293.953
293.941
293.914
293.898
293.873
293.869
293.852
293.853
293.853
293.857
293.855
293.861
293.854
293.862
293.851
293.87
293.854
293.878
293.86
293.887
293.882
293.912
293.893
293.921
293.903
293.933
293.911
293.942
293.932
293.954
293.923
293.906
293.796
293.754
293.641
293.605
293.54
293.518
293.483
293.467
293.444
293.432
293.415
293.406
293.386
293.379
293.349
293.346
293.312
293.306
293.283
293.276
293.256
293.242
293.216
293.202
293.177
293.171
293.155
293.162
293.16
293.176
293.176
293.204
293.207
293.246
293.249
293.283
293.286
293.336
293.34
293.381
293.377
293.416
293.417
293.456
293.458
293.491
293.496
293.522
293.522
293.538
293.534
293.549
293.549
293.561
293.56
293.57
293.57
293.579
293.578
293.586
293.581
293.588
293.588
293.603
293.607
293.621
293.625
293.634
293.638
293.642
293.644
293.646
293.645
293.646
293.645
293.646
293.642
293.643
293.641
293.642
293.638
293.636
293.632
293.634
293.626
293.625
293.611
293.606
293.584
293.574
293.545
293.531
293.501
293.488
293.461
293.453
293.43
293.422
293.395
293.376
293.339
293.314
293.299
293.298
296.185
296.194
296.195
296.237
296.273
296.349
296.427
296.526
296.611
296.692
296.751
296.799
296.827
296.849
296.859
296.868
296.872
296.878
296.881
296.886
296.891
296.9
296.91
296.922
296.936
296.954
296.972
296.992
297.01
297.025
297.037
297.049
297.057
297.069
297.073
297.085
297.09
297.105
297.113
297.131
297.137
297.151
297.15
297.164
297.169
297.19
297.197
297.211
297.21
297.217
297.212
297.241
297.255
297.318
297.319
297.342
297.342
297.338
297.347
297.36
297.397
297.419
297.465
297.5
297.525
297.566
297.6
297.648
297.644
297.697
297.711
297.803
297.849
297.894
297.886
297.929
297.938
297.981
297.969
297.996
297.988
298.007
298.005
298.015
298.011
298.012
298.017
298.014
298.018
298.011
298.015
297.988
297.963
297.908
297.862
297.8
297.743
297.675
297.605
297.53
297.448
297.377
297.291
297.227
297.146
297.086
297.015
296.962
296.897
296.852
296.793
296.757
296.714
296.669
296.657
296.602
296.597
296.538
296.526
296.498
296.478
296.483
296.464
296.476
296.468
296.521
296.578
296.566
296.568
296.469
296.434
296.326
296.366
296.312
296.349
296.251
296.182
296.007
295.908
295.726
295.62
295.5
295.548
295.436
295.435
295.263
295.236
295.084
295.048
294.996
295.002
294.99
294.995
294.993
295.007
295.014
295.049
295.071
295.12
295.133
295.244
295.262
295.427
295.427
295.657
295.69
295.882
295.88
296.004
296.004
296.244
296.264
296.387
296.373
296.388
296.387
296.52
296.544
296.564
296.548
296.622
296.628
296.843
296.935
297.256
297.36
297.601
297.63
297.706
297.7
297.725
297.721
297.748
297.737
297.776
297.778
297.843
297.858
297.876
297.873
297.868
297.855
297.836
297.824
297.808
297.84
297.84
297.98
297.986
298.186
298.207
298.313
298.271
298.337
298.337
298.476
298.556
298.733
298.814
298.944
298.985
299.074
299.111
299.172
299.183
299.221
299.197
299.218
299.212
299.216
299.214
299.216
299.197
299.179
299.137
299.098
299.035
298.975
298.873
298.776
298.605
298.508
298.28
298.2
297.968
297.896
297.851
297.846
297.779
297.793
297.749
297.776
297.692
297.678
297.49
297.442
297.256
297.177
296.99
296.91
296.765
296.663
296.535
296.441
296.334
296.269
296.185
296.135
296.057
296.021
295.939
295.906
295.852
295.813
295.761
295.71
295.647
295.607
295.607
295.599
295.607
295.591
295.574
295.527
295.483
295.402
295.355
295.261
295.224
295.12
295.089
294.966
294.932
294.837
294.841
294.769
294.76
294.741
294.741
294.733
294.737
294.727
294.74
294.733
294.739
294.733
294.742
294.735
294.744
294.74
294.76
294.764
294.809
294.826
294.877
294.906
294.954
294.99
295.036
295.07
295.113
295.134
295.157
295.154
295.158
295.132
295.117
295.068
295.031
294.98
294.947
294.896
294.872
294.83
294.824
294.797
294.8
294.767
294.758
294.691
294.669
294.584
294.558
294.471
294.444
294.368
294.345
294.292
294.276
294.24
294.212
294.173
294.149
294.117
294.097
294.072
294.057
294.037
294.027
294.013
294.009
293.999
293.998
293.984
293.978
293.95
293.934
293.902
293.892
293.878
293.886
293.878
293.892
293.885
293.903
293.898
293.918
293.907
293.917
293.914
293.926
293.916
293.944
293.931
293.965
293.954
293.985
293.964
293.991
293.982
294.012
293.994
294.019
294.011
294.018
293.962
293.933
293.815
293.764
293.67
293.626
293.576
293.55
293.521
293.504
293.484
293.473
293.451
293.447
293.414
293.413
293.367
293.365
293.315
293.307
293.274
293.264
293.239
293.22
293.189
293.167
293.132
293.123
293.098
293.099
293.089
293.098
293.094
293.12
293.121
293.156
293.154
293.197
293.199
293.251
293.251
293.292
293.29
293.342
293.344
293.383
293.385
293.432
293.438
293.46
293.458
293.475
293.473
293.491
293.491
293.505
293.504
293.516
293.516
293.528
293.526
293.534
293.532
293.546
293.551
293.574
293.583
293.599
293.607
293.616
293.621
293.627
293.629
293.633
293.635
293.639
293.637
293.641
293.64
293.641
293.638
293.638
293.635
293.635
293.634
293.639
293.636
293.639
293.63
293.628
293.607
293.598
293.569
293.557
293.526
293.517
293.491
293.488
293.466
293.459
293.427
293.402
293.368
293.353
293.352
296.246
296.24
296.264
296.267
296.33
296.387
296.484
296.572
296.664
296.737
296.798
296.838
296.867
296.882
296.894
296.898
296.902
296.904
296.907
296.909
296.913
296.918
296.926
296.936
296.948
296.962
296.978
296.995
297.011
297.025
297.036
297.043
297.05
297.052
297.058
297.059
297.066
297.068
297.079
297.083
297.095
297.096
297.105
297.106
297.12
297.126
297.139
297.139
297.147
297.141
297.156
297.157
297.205
297.217
297.24
297.252
297.266
297.266
297.273
297.304
297.328
297.385
297.431
297.48
297.525
297.538
297.59
297.607
297.662
297.647
297.725
297.769
297.857
297.884
297.946
297.974
298.038
298.051
298.069
298.07
298.079
298.08
298.087
298.084
298.078
298.069
298.061
298.067
298.06
298.065
298.046
298.038
297.984
297.946
297.884
297.834
297.767
297.707
297.638
297.564
297.492
297.408
297.339
297.255
297.19
297.108
297.046
296.972
296.918
296.854
296.817
296.773
296.717
296.687
296.645
296.644
296.606
296.606
296.571
296.55
296.521
296.494
296.501
296.486
296.509
296.567
296.613
296.65
296.6
296.594
296.485
296.445
296.358
296.389
296.33
296.316
296.17
296.079
295.884
295.772
295.601
295.549
295.384
295.368
295.173
295.131
294.948
294.865
294.765
294.741
294.702
294.699
294.687
294.69
294.69
294.707
294.712
294.744
294.762
294.814
294.829
294.952
294.962
295.146
295.151
295.407
295.447
295.63
295.619
295.798
295.82
296.121
296.145
296.267
296.216
296.298
296.3
296.42
296.415
296.433
296.411
296.49
296.527
296.791
296.893
297.223
297.293
297.496
297.506
297.56
297.557
297.597
297.599
297.642
297.638
297.683
297.701