/*--------------------------------*- C++ -*----------------------------------*\
| =========                 |                                                 |
| \\      /  F ield         | OpenFOAM: The Open Source CFD Toolbox           |
|  \\    /   O peration     | Version:  v1812                                 |
|   \\  /    A nd           | Web:      www.OpenFOAM.com                      |
|    \\/     M anipulation  |                                                 |
\*---------------------------------------------------------------------------*/
FoamFile
{
    version     2.0;
    format      ascii;
    class       volVectorField;
    location    "1.3";
    object      U;
}
// * * * * * * * * * * * * * * * * * * * * * * * * * * * * * * * * * * * * * //

dimensions      [0 1 -1 0 0 0 0];


internalField   nonuniform List<vector> 
20400
(
(-0.00295503 -0.00212095 0)
(-0.00277298 -0.00354792 0)
(-0.00197964 -0.00353597 0)
(-0.0192517 0.000269874 0)
(-0.0180344 -0.00576162 0)
(-0.0652113 0.00652845 0)
(-0.0694715 -0.00404128 0)
(-0.140104 0.0075412 0)
(-0.145032 -0.00872798 0)
(-0.225077 0.00861011 0)
(-0.230733 -0.00478626 0)
(-0.315522 0.00724056 0)
(-0.320443 -0.00504078 0)
(-0.400655 0.00652048 0)
(-0.404741 -0.00328509 0)
(-0.47605 0.00582838 0)
(-0.479235 -0.00178214 0)
(-0.538711 0.00488063 0)
(-0.541041 -0.000994138 0)
(-0.58774 0.00213092 0)
(-0.589353 -0.00279899 0)
(-0.621192 -0.000778047 0)
(-0.622164 -0.00317117 0)
(-0.633052 -0.00293937 0)
(-0.631852 -0.00352558 0)
(-0.631181 -0.00422422 0)
(-0.624257 -0.00457414 0)
(-0.62238 -0.00457816 0)
(-0.612277 -0.00357353 0)
(-0.611253 -0.00366247 0)
(-0.604748 -0.00204244 0)
(-0.606563 -0.00209914 0)
(-0.603938 -0.00151689 0)
(-0.620047 0.000396383 0)
(-0.617322 0.00148028 0)
(-0.65396 0.00320475 0)
(-0.6537 -0.000873048 0)
(-0.715997 0.00599272 0)
(-0.717581 -0.00460418 0)
(-0.812239 0.00848432 0)
(-0.817817 -0.00909743 0)
(-0.950578 0.0143123 0)
(-0.9614 -0.0147403 0)
(-1.14461 0.0210622 0)
(-1.16174 -0.0171037 0)
(-1.40695 0.0313303 0)
(-1.43218 -0.0189825 0)
(-1.74961 0.0430617 0)
(-1.78553 -0.0197957 0)
(-2.18488 0.0529781 0)
(-2.23294 -0.0191905 0)
(-2.7078 0.0782607 0)
(-2.77788 -0.0110741 0)
(-3.3269 0.100277 0)
(-3.42223 -1.914e-05 0)
(-4.04169 0.10703 0)
(-4.18097 -0.00238278 0)
(-4.83794 0.117585 0)
(-5.06282 -0.00743181 0)
(-5.70296 0.116361 0)
(-6.02883 0.00622138 0)
(-6.62062 0.0852912 0)
(-7.00092 0.0403453 0)
(-7.4552 0.0795531 0)
(-7.7666 0.0633735 0)
(-8.02157 0.0598753 0)
(-8.15716 0.056518 0)
(-8.19535 0.06498 0)
(-8.13121 0.0688843 0)
(-8.00892 0.0460114 0)
(-7.79441 0.0110395 0)
(-7.66752 -0.0835841 0)
(-7.373 -0.141297 0)
(-7.16535 -0.160698 0)
(-6.78313 -0.204812 0)
(-6.49554 -0.160829 0)
(-6.05277 -0.168501 0)
(-5.68085 -0.109535 0)
(-5.21386 -0.0989001 0)
(-4.78924 -0.0529869 0)
(-4.32693 -0.0256532 0)
(-3.88192 0.04863 0)
(-3.42833 0.061993 0)
(-2.98215 0.117124 0)
(-2.54503 0.125165 0)
(-2.11727 0.136838 0)
(-1.71297 0.116747 0)
(-1.32551 0.0707067 0)
(-0.962857 -0.0107261 0)
(-0.62136 -0.108124 0)
(-0.300179 -0.172602 0)
(-0.0119682 -0.144729 0)
(0.220887 -0.0675015 0)
(0.420982 -0.0205967 0)
(0.604108 -0.0218452 0)
(0.776886 -0.0362727 0)
(0.940059 -0.0566952 0)
(1.08776 -0.0848294 0)
(1.21399 -0.111835 0)
(1.31479 -0.124889 0)
(1.39085 -0.107837 0)
(1.43975 -0.0692108 0)
(1.46011 -0.0423558 0)
(1.44623 -0.0308159 0)
(1.39387 -0.054291 0)
(1.30477 -0.127905 0)
(1.14693 -0.149277 0)
(0.947369 -0.04049 0)
(0.698233 0.158543 0)
(0.329934 0.259919 0)
(-0.0898889 0.214267 0)
(-0.52791 0.123616 0)
(-0.996915 0.0583304 0)
(-1.50954 0.0294433 0)
(-2.06954 0.0487981 0)
(-2.67418 0.0448854 0)
(-3.28442 0.0804303 0)
(-3.91568 0.093777 0)
(-4.46905 0.103615 0)
(-4.90188 0.0690042 0)
(-5.15491 0.050105 0)
(-5.236 0.0792285 0)
(-5.13619 0.109082 0)
(-4.8479 0.125072 0)
(-4.3719 0.194165 0)
(-3.87053 0.256877 0)
(-3.29349 0.195331 0)
(-2.74441 0.106489 0)
(-2.18734 -0.000402612 0)
(-1.75948 -0.227886 0)
(-1.2777 -0.431114 0)
(-0.866308 -0.415212 0)
(-0.435733 -0.329492 0)
(-0.164399 -0.238763 0)
(0.266392 -0.101965 0)
(0.328166 -0.0644764 0)
(0.836531 -0.0755484 0)
(0.863018 0.0138008 0)
(1.35173 -0.0621324 0)
(1.38158 0.0015137 0)
(1.87113 -0.0607037 0)
(1.89885 -0.00550386 0)
(2.35506 -0.0466913 0)
(2.3787 -0.0149799 0)
(2.76434 -0.0273425 0)
(2.77825 -0.00157171 0)
(3.08034 -0.024531 0)
(3.08804 -0.00124378 0)
(3.3161 -0.0186905 0)
(3.32241 -0.00162117 0)
(3.47384 -0.00931965 0)
(3.4759 -0.00187051 0)
(3.53691 -0.00288952 0)
(3.53303 0.000657869 0)
(3.53158 0.00344148 0)
(3.48618 0.00350199 0)
(3.47347 0.0157967 0)
(3.36635 0.00115882 0)
(3.35021 0.0217847 0)
(3.1942 -0.00521436 0)
(3.17669 0.024248 0)
(3.00754 -0.00975624 0)
(2.99088 0.0245602 0)
(2.82626 -0.0109936 0)
(2.81102 0.0238238 0)
(2.6551 -0.0163939 0)
(2.64651 0.0118784 0)
(2.48054 -0.0125899 0)
(2.47629 0.0131619 0)
(2.33452 -0.00681584 0)
(2.33067 0.0156424 0)
(2.22467 -0.0130958 0)
(2.2207 -0.0136803 0)
(2.20276 -0.0147986 0)
(2.19408 -0.01345 0)
(2.18695 -0.0156838 0)
(2.18436 -0.0154595 0)
(2.18153 -0.0177874 0)
(2.18136 -0.016394 0)
(2.17715 -0.0177091 0)
(2.17423 -0.0134535 0)
(2.11188 -0.0345051 0)
(2.104 -0.0192305 0)
(2.02401 -0.0515299 0)
(2.0152 -0.0209843 0)
(1.90945 -0.051337 0)
(1.9012 -0.00973364 0)
(1.72591 -0.0161833 0)
(1.71429 0.0139874 0)
(1.48826 -0.0177571 0)
(1.47928 0.0199087 0)
(1.25633 -0.014275 0)
(1.24843 0.0217467 0)
(1.03422 -0.0083983 0)
(1.02725 0.021185 0)
(0.839021 -0.0088293 0)
(0.834488 0.0122783 0)
(0.683419 0.0124417 0)
(0.677456 0.00469609 0)
(0.609574 0.0169589 0)
(0.594053 0.00892208 0)
(0.589234 0.00672878 0)
(0.585408 0.00316413 0)
(0.64734 0.00881341 0)
(0.65007 -0.00508169 0)
(0.794155 0.00633709 0)
(0.803917 -0.016882 0)
(1.02989 0.000817156 0)
(1.04262 -0.0220873 0)
(1.35095 -0.00380606 0)
(1.35998 -0.0185286 0)
(1.73645 -0.0239588 0)
(1.75116 -0.0203632 0)
(2.16425 -0.0108469 0)
(2.17858 -0.0241234 0)
(2.57493 -0.00279588 0)
(2.60272 -0.0401846 0)
(2.99522 0.00889814 0)
(3.02019 -0.0105048 0)
(3.38415 -0.0216981 0)
(3.39854 0.00626973 0)
(3.69932 -0.0131037 0)
(3.70422 0.0201253 0)
(3.98327 -0.0160455 0)
(3.98541 0.00919264 0)
(4.25554 -0.0114854 0)
(4.26072 0.00529859 0)
(4.47814 -0.00416866 0)
(4.48452 0.0091662 0)
(4.61376 0.00466736 0)
(4.61484 0.0115858 0)
(4.64503 0.0138443 0)
(4.62967 0.0188451 0)
(4.61532 0.0241483 0)
(4.53826 0.0212809 0)
(4.5104 0.0389838 0)
(4.36184 0.0132044 0)
(4.33508 0.042864 0)
(4.12589 0.0105331 0)
(4.10319 0.0450321 0)
(3.86786 0.00607482 0)
(3.85156 0.0400266 0)
(3.62891 0.00318333 0)
(3.62163 0.0326615 0)
(3.45124 0.0103823 0)
(3.45671 0.0152284 0)
(3.39702 0.00512836 0)
(3.44016 -0.00549905 0)
(3.4445 -0.0150994 0)
(3.53463 -0.0347893 0)
(3.54899 -0.0580399 0)
(3.65474 -0.056402 0)
(3.67506 -0.0793592 0)
(3.78686 -0.0618704 0)
(3.79779 -0.0572042 0)
(3.86243 -0.0406478 0)
(3.813 -0.0244292 0)
(3.84001 0.0182234 0)
(3.7193 0.0600361 0)
(3.73465 0.124135 0)
(3.5236 0.117724 0)
(3.51004 0.160777 0)
(3.20346 0.0947882 0)
(3.17839 0.137435 0)
(2.83253 0.0484621 0)
(2.80415 0.096632 0)
(2.47238 0.0119262 0)
(2.4459 0.0590145 0)
(2.16562 -0.046307 0)
(2.15703 -0.0252525 0)
(1.8904 -0.0048873 0)
(1.88529 -0.00204569 0)
(1.74064 0.0364628 0)
(1.71963 0.021246 0)
(1.67037 0.0263816 0)
(1.64717 0.0162841 0)
(1.65019 0.0196286 0)
(1.64284 0.0181961 0)
(1.74713 0.0271328 0)
(1.741 0.0252466 0)
(1.95176 0.0158197 0)
(1.94845 0.0289196 0)
(2.23347 0.00612193 0)
(2.23229 0.0290379 0)
(2.55334 0.00646017 0)
(2.55163 0.0393468 0)
(2.89198 0.0120458 0)
(2.88825 0.0381474 0)
(3.22293 0.0234356 0)
(3.21813 0.0511756 0)
(3.53748 0.0336035 0)
(3.53611 0.0481528 0)
(3.82391 0.0476779 0)
(3.81932 0.0533023 0)
(4.07018 0.0584411 0)
(4.06348 0.0655136 0)
(4.28006 0.0648864 0)
(4.27717 0.0609115 0)
(4.45893 0.070463 0)
(4.4604 0.0633959 0)
(4.61474 0.064088 0)
(4.61644 0.0636041 0)
(4.75118 0.0700668 0)
(4.75342 0.0667448 0)
(4.86483 0.0765319 0)
(4.86762 0.0721803 0)
(4.95987 0.0775154 0)
(4.96323 0.0723404 0)
(5.04446 0.0795035 0)
(5.04591 0.0712736 0)
(5.11425 0.0766445 0)
(5.11702 0.0623868 0)
(5.17282 0.055816 0)
(5.17667 0.0389573 0)
(5.22972 0.0150622 0)
(5.23735 -0.00848227 0)
(5.29363 -0.0373199 0)
(5.31077 -0.0606196 0)
(5.36725 -0.0947606 0)
(5.3934 -0.114727 0)
(5.46134 -0.126081 0)
(5.48833 -0.153808 0)
(5.55629 -0.169348 0)
(5.58643 -0.199848 0)
(5.66129 -0.221594 0)
(5.69572 -0.246448 0)
(5.77846 -0.248173 0)
(5.80666 -0.267667 0)
(5.885 -0.2757 0)
(5.90973 -0.28727 0)
(5.98472 -0.275505 0)
(6.00732 -0.293636 0)
(6.09382 -0.295131 0)
(6.12168 -0.307525 0)
(6.20905 -0.305554 0)
(6.23762 -0.316316 0)
(6.31417 -0.30681 0)
(6.34035 -0.315867 0)
(6.40659 -0.31313 0)
(6.42814 -0.321815 0)
(6.4781 -0.317454 0)
(6.48727 -0.307505 0)
(6.51732 -0.292561 0)
(6.51918 -0.296326 0)
(6.53866 -0.295747 0)
(6.53003 -0.296214 0)
(6.5317 -0.293099 0)
(6.49887 -0.297401 0)
(6.49869 -0.293678 0)
(6.4251 -0.291249 0)
(6.40746 -0.292571 0)
(6.29122 -0.260196 0)
(6.23931 -0.217449 0)
(6.09165 -0.133255 0)
(6.03018 -0.0360796 0)
(5.93049 0.0909313 0)
(5.90047 0.183671 0)
(5.82034 0.240567 0)
(5.77458 0.230501 0)
(5.68527 0.15005 0)
(5.64618 0.0319992 0)
(5.58991 -0.118523 0)
(5.57486 -0.227815 0)
(5.5295 -0.30931 0)
(5.49755 -0.331461 0)
(5.41485 -0.314317 0)
(5.3448 -0.285506 0)
(5.22798 -0.222419 0)
(5.13664 -0.132034 0)
(5.05202 -0.0137926 0)
(5.01725 0.110436 0)
(5.01166 0.214991 0)
(5.0779 0.30616 0)
(5.10312 0.330026 0)
(5.23539 0.377526 0)
(5.24108 0.386443 0)
(5.3679 0.362021 0)
(5.37242 0.385279 0)
(5.50029 0.350059 0)
(5.50485 0.375097 0)
(5.66272 0.333151 0)
(5.67002 0.359389 0)
(5.85876 0.317674 0)
(5.8703 0.349369 0)
(6.08052 0.308365 0)
(6.09482 0.342143 0)
(6.3135 0.308519 0)
(6.32525 0.33979 0)
(6.52521 0.334659 0)
(6.52502 0.349909 0)
(6.68001 0.34288 0)
(6.67493 0.340678 0)
(6.79521 0.347608 0)
(6.79324 0.336242 0)
(6.88838 0.350318 0)
(6.89162 0.343552 0)
(6.95959 0.355845 0)
(6.95896 0.34701 0)
(7.00118 0.349275 0)
(6.99244 0.34319 0)
(7.01289 0.335135 0)
(7.01241 0.33402 0)
(7.01492 0.332639 0)
(7.0159 0.331815 0)
(7.01608 0.330766 0)
(7.01327 0.329473 0)
(7.01185 0.329792 0)
(7.00452 0.327313 0)
(7.00385 0.328852 0)
(6.99169 0.326647 0)
(6.99096 0.329075 0)
(6.9743 0.325464 0)
(6.97341 0.327981 0)
(6.9526 0.322369 0)
(6.95169 0.324524 0)
(6.92979 0.319044 0)
(6.92914 0.321681 0)
(6.90987 0.316373 0)
(6.90884 0.320568 0)
(6.88975 0.316176 0)
(6.88823 0.321288 0)
(6.87169 0.316128 0)
(6.87083 0.321472 0)
(6.85709 0.315853 0)
(6.85601 0.320984 0)
(6.84231 0.315231 0)
(6.8407 0.320291 0)
(6.8277 0.314051 0)
(6.8265 0.319228 0)
(6.81391 0.313225 0)
(6.81311 0.318579 0)
(6.7983 0.312724 0)
(6.79756 0.318307 0)
(6.78271 0.312532 0)
(6.78245 0.317326 0)
(6.77086 0.312336 0)
(6.77112 0.314029 0)
(6.76916 0.31403 0)
(6.76995 0.315649 0)
(6.77123 0.315377 0)
(6.77453 0.316505 0)
(6.77755 0.316293 0)
(6.78193 0.317932 0)
(6.78617 0.318781 0)
(6.78967 0.320055 0)
(6.79164 0.31988 0)
(6.79342 0.320999 0)
(6.78097 0.316484 0)
(6.78228 0.31989 0)
(6.76164 0.314474 0)
(6.76098 0.318599 0)
(6.73181 0.313454 0)
(6.73058 0.317093 0)
(6.69854 0.310758 0)
(6.69739 0.313023 0)
(6.66515 0.307954 0)
(6.6641 0.308957 0)
(6.63469 0.302952 0)
(6.63257 0.303531 0)
(6.60717 0.297489 0)
(6.60511 0.300197 0)
(6.58397 0.297233 0)
(6.58241 0.298493 0)
(6.56426 0.296092 0)
(6.56128 0.294319 0)
(6.54792 0.292197 0)
(6.54441 0.290483 0)
(6.53533 0.287688 0)
(6.53362 0.286642 0)
(6.52856 0.284013 0)
(6.52898 0.284145 0)
(6.52595 0.282642 0)
(6.52707 0.282623 0)
(6.52663 0.282008 0)
(6.52693 0.28161 0)
(6.52696 0.28097 0)
(6.52686 0.280601 0)
(6.5262 0.279738 0)
(6.52614 0.279295 0)
(6.5249 0.27799 0)
(6.52628 0.276517 0)
(6.52463 0.274774 0)
(6.52716 0.272777 0)
(6.5259 0.270526 0)
(6.52742 0.268314 0)
(6.52771 0.267039 0)
(6.52847 0.266544 0)
(6.52887 0.266092 0)
(6.52933 0.266214 0)
(6.52934 0.266034 0)
(6.52935 0.265998 0)
(6.5284 0.265134 0)
(6.52833 0.263762 0)
(6.52749 0.26178 0)
(6.5284 0.260671 0)
(6.52469 0.259905 0)
(6.52649 0.258201 0)
(6.52419 0.256263 0)
(6.52759 0.253352 0)
(6.52677 0.250511 0)
(-0.00295023 -0.0011853 0)
(-0.00755229 -0.00640847 0)
(-0.0350714 0.0126037 0)
(-0.0406256 0.00571775 0)
(-0.144474 0.0513249 0)
(-0.154397 0.0387353 0)
(-0.336211 0.0803937 0)
(-0.347951 0.0571561 0)
(-0.557087 0.0895211 0)
(-0.569646 0.0637609 0)
(-0.786161 0.0894444 0)
(-0.795883 0.0652925 0)
(-0.998747 0.0805147 0)
(-1.00606 0.0604291 0)
(-1.18479 0.0674245 0)
(-1.18965 0.0515376 0)
(-1.33833 0.0524429 0)
(-1.34155 0.0405048 0)
(-1.4595 0.0382543 0)
(-1.46142 0.0298996 0)
(-1.54887 0.0257461 0)
(-1.55059 0.0183223 0)
(-1.59983 0.006416 0)
(-1.60057 0.000159507 0)
(-1.6147 -0.00848287 0)
(-1.61239 -0.0124723 0)
(-1.61265 -0.0145366 0)
(-1.60205 -0.0177484 0)
(-1.60211 -0.0173905 0)
(-1.5928 -0.0151161 0)
(-1.60347 -0.012775 0)
(-1.59753 -0.00952029 0)
(-1.6313 0.001238 0)
(-1.62753 0.0022992 0)
(-1.70556 0.0191491 0)
(-1.70176 0.018622 0)
(-1.83582 0.0475221 0)
(-1.83467 0.0416655 0)
(-2.03496 0.0837686 0)
(-2.03458 0.0702236 0)
(-2.3133 0.126741 0)
(-2.3201 0.101204 0)
(-2.68945 0.181664 0)
(-2.70726 0.14186 0)
(-3.18132 0.244948 0)
(-3.21139 0.183447 0)
(-3.79484 0.31613 0)
(-3.84131 0.237632 0)
(-4.54359 0.387659 0)
(-4.5909 0.304018 0)
(-5.42198 0.447682 0)
(-5.46424 0.348623 0)
(-6.39699 0.509999 0)
(-6.43548 0.405725 0)
(-7.44355 0.562267 0)
(-7.47317 0.477881 0)
(-8.52647 0.603357 0)
(-8.5703 0.556866 0)
(-9.54591 0.63923 0)
(-9.68394 0.617162 0)
(-10.4344 0.638878 0)
(-10.6666 0.620007 0)
(-11.1668 0.550759 0)
(-11.403 0.468262 0)
(-11.6802 0.353338 0)
(-11.8357 0.227295 0)
(-11.9434 0.0906084 0)
(-11.9672 -0.0315081 0)
(-11.9262 -0.141513 0)
(-11.7629 -0.231638 0)
(-11.6379 -0.228824 0)
(-11.2775 -0.226498 0)
(-11.0803 -0.28366 0)
(-10.5608 -0.312913 0)
(-10.2308 -0.357301 0)
(-9.63042 -0.405677 0)
(-9.16953 -0.461626 0)
(-8.52864 -0.496007 0)
(-7.95745 -0.532973 0)
(-7.29477 -0.55212 0)
(-6.64891 -0.569037 0)
(-5.97621 -0.606313 0)
(-5.29255 -0.607658 0)
(-4.6142 -0.642087 0)
(-3.92131 -0.646196 0)
(-3.24276 -0.658338 0)
(-2.56635 -0.656547 0)
(-1.91142 -0.655546 0)
(-1.28584 -0.636177 0)
(-0.718448 -0.601196 0)
(-0.22445 -0.534628 0)
(0.215063 -0.46297 0)
(0.635181 -0.396297 0)
(1.04188 -0.34077 0)
(1.41604 -0.295168 0)
(1.74183 -0.25407 0)
(2.01885 -0.215902 0)
(2.2403 -0.16721 0)
(2.40641 -0.111214 0)
(2.52222 -0.0624439 0)
(2.59665 -0.0294231 0)
(2.62451 -0.00976793 0)
(2.60396 0.0108461 0)
(2.50098 0.0369599 0)
(2.30881 0.103654 0)
(2.03226 0.217963 0)
(1.65205 0.340499 0)
(1.18731 0.46787 0)
(0.68129 0.563466 0)
(0.157178 0.668983 0)
(-0.440502 0.734764 0)
(-1.12776 0.770357 0)
(-1.87347 0.79413 0)
(-2.64298 0.822409 0)
(-3.37846 0.81016 0)
(-4.05302 0.812324 0)
(-4.65307 0.770372 0)
(-5.12922 0.722441 0)
(-5.47548 0.553949 0)
(-5.67745 0.378923 0)
(-5.76172 0.1813 0)
(-5.79678 -0.0248436 0)
(-5.74838 -0.198806 0)
(-5.57608 -0.498904 0)
(-5.33495 -0.5976 0)
(-4.63574 -0.872941 0)
(-4.0655 -0.851945 0)
(-3.20058 -0.972402 0)
(-2.51026 -0.862815 0)
(-1.69868 -0.854968 0)
(-1.2131 -0.662028 0)
(-0.645224 -0.656076 0)
(-0.388242 -0.560475 0)
(0.589824 -0.763606 0)
(0.810626 -0.537566 0)
(2.05306 -0.593454 0)
(2.11032 -0.46724 0)
(3.36525 -0.561287 0)
(3.42832 -0.449779 0)
(4.59276 -0.521417 0)
(4.64568 -0.434493 0)
(5.7419 -0.461662 0)
(5.77317 -0.389516 0)
(6.74875 -0.380487 0)
(6.76194 -0.330667 0)
(7.55285 -0.292268 0)
(7.55518 -0.25009 0)
(8.18467 -0.218569 0)
(8.18427 -0.18796 0)
(8.64639 -0.153568 0)
(8.64854 -0.122732 0)
(8.92673 -0.0693471 0)
(8.92795 -0.0432254 0)
(9.01509 -0.00685698 0)
(8.9936 0.0304521 0)
(8.98611 0.0521202 0)
(8.84461 0.0811546 0)
(8.83255 0.116646 0)
(8.5474 0.119417 0)
(8.53213 0.172107 0)
(8.16703 0.126281 0)
(8.14534 0.191268 0)
(7.75919 0.116391 0)
(7.73429 0.192349 0)
(7.341 0.110493 0)
(7.33095 0.169486 0)
(6.90926 0.136101 0)
(6.91265 0.170602 0)
(6.50452 0.107123 0)
(6.50599 0.144155 0)
(6.17712 0.0741483 0)
(6.17324 0.102815 0)
(5.94914 0.0269581 0)
(5.95055 0.0445053 0)
(5.79993 0.00343252 0)
(5.808 0.033987 0)
(5.70061 -0.00158237 0)
(5.71196 0.0294122 0)
(5.61725 -0.00524408 0)
(5.62808 0.0318992 0)
(5.47848 0.0528445 0)
(5.47123 0.1081 0)
(5.24825 0.0721145 0)
(5.23333 0.139885 0)
(4.97325 0.0919966 0)
(4.9604 0.168026 0)
(4.61662 0.142814 0)
(4.61119 0.206948 0)
(4.13333 0.191211 0)
(4.13433 0.240395 0)
(3.60467 0.186566 0)
(3.61285 0.238493 0)
(3.08598 0.182027 0)
(3.09503 0.229263 0)
(2.60769 0.169566 0)
(2.61292 0.205138 0)
(2.21181 0.145024 0)
(2.21904 0.146976 0)
(1.95463 0.0972996 0)
(1.93952 0.0720538 0)
(1.88188 0.037376 0)
(1.86561 0.00567488 0)
(1.96266 -0.0347806 0)
(1.96173 -0.0732824 0)
(2.27397 -0.115013 0)
(2.28342 -0.163354 0)
(2.7821 -0.185671 0)
(2.79529 -0.23376 0)
(3.4733 -0.260007 0)
(3.48059 -0.294067 0)
(4.29557 -0.312628 0)
(4.29878 -0.324831 0)
(5.20793 -0.350536 0)
(5.21 -0.347128 0)
(6.10255 -0.31441 0)
(6.10724 -0.34439 0)
(6.98427 -0.304239 0)
(6.99708 -0.330391 0)
(7.83806 -0.295087 0)
(7.84651 -0.261376 0)
(8.5579 -0.239128 0)
(8.55422 -0.203839 0)
(9.18326 -0.215327 0)
(9.16406 -0.180851 0)
(9.7709 -0.200229 0)
(9.75906 -0.171097 0)
(10.2926 -0.157574 0)
(10.2949 -0.128992 0)
(10.6911 -0.0826317 0)
(10.6925 -0.0530899 0)
(10.9168 0.00742142 0)
(10.9156 0.0265578 0)
(10.9686 0.0669103 0)
(10.9208 0.105438 0)
(10.9023 0.138205 0)
(10.7128 0.16892 0)
(10.6942 0.211196 0)
(10.3442 0.213839 0)
(10.3309 0.267225 0)
(9.8708 0.231565 0)
(9.85563 0.296074 0)
(9.35533 0.224052 0)
(9.34441 0.278235 0)
(8.87371 0.17949 0)
(8.88064 0.206473 0)
(8.52563 0.0869599 0)
(8.54612 0.0851725 0)
(8.38326 0.00854356 0)
(8.41619 0.00127129 0)
(8.41292 -0.00493262 0)
(8.43596 -0.00185142 0)
(8.45199 -0.00226489 0)
(8.48314 0.00552093 0)
(8.48856 0.00815998 0)
(8.52902 0.0280727 0)
(8.4167 0.0844265 0)
(8.42698 0.114437 0)
(8.12173 0.0930828 0)
(8.11825 0.144519 0)
(7.6654 0.098836 0)
(7.65352 0.197013 0)
(7.05242 0.17711 0)
(7.03258 0.2907 0)
(6.32705 0.231234 0)
(6.30394 0.349832 0)
(5.58543 0.25112 0)
(5.56279 0.362256 0)
(4.89786 0.233196 0)
(4.89309 0.326282 0)
(4.30699 0.291096 0)
(4.33258 0.279444 0)
(3.91744 0.194866 0)
(3.92068 0.165304 0)
(3.74937 0.121343 0)
(3.72775 0.107098 0)
(3.73725 0.0754077 0)
(3.72493 0.0548455 0)
(3.90182 -0.0185891 0)
(3.8969 -0.0357881 0)
(4.28874 -0.107494 0)
(4.28907 -0.117198 0)
(4.84281 -0.180171 0)
(4.84135 -0.165041 0)
(5.50999 -0.210045 0)
(5.47757 -0.189378 0)
(6.20736 -0.230992 0)
(6.16093 -0.204502 0)
(6.89287 -0.233504 0)
(6.8553 -0.193986 0)
(7.5457 -0.219346 0)
(7.51308 -0.197485 0)
(8.14106 -0.193214 0)
(8.1397 -0.177044 0)
(8.67263 -0.158302 0)
(8.66957 -0.149475 0)
(9.14204 -0.137613 0)
(9.14074 -0.129426 0)
(9.54423 -0.105886 0)
(9.55062 -0.10796 0)
(9.89202 -0.0872902 0)
(9.89992 -0.0808108 0)
(10.2024 -0.0702347 0)
(10.1986 -0.0688099 0)
(10.464 -0.0492416 0)
(10.4605 -0.0541761 0)
(10.6779 -0.0375785 0)
(10.6785 -0.0410189 0)
(10.8619 -0.0246358 0)
(10.86 -0.0329198 0)
(11.0203 -0.0125765 0)
(11.0194 -0.0188369 0)
(11.1418 0.00460634 0)
(11.1459 0.00116028 0)
(11.2501 0.0246498 0)
(11.2492 0.023601 0)
(11.3456 0.0495773 0)
(11.3447 0.048566 0)
(11.4392 0.0708666 0)
(11.4442 0.0839174 0)
(11.531 0.0857374 0)
(11.5368 0.0898298 0)
(11.6115 0.11399 0)
(11.6137 0.110165 0)
(11.6782 0.132799 0)
(11.6793 0.127668 0)
(11.7399 0.147333 0)
(11.7335 0.14275 0)
(11.7878 0.164273 0)
(11.7876 0.166059 0)
(11.8031 0.168188 0)
(11.7957 0.165738 0)
(11.8568 0.164994 0)
(11.8282 0.153221 0)
(11.8889 0.162192 0)
(11.8734 0.153818 0)
(11.9277 0.16766 0)
(11.9175 0.159706 0)
(11.9632 0.171583 0)
(11.9584 0.16848 0)
(11.982 0.185007 0)
(11.98 0.189375 0)
(11.9835 0.193401 0)
(11.978 0.195525 0)
(11.9803 0.199204 0)
(11.9255 0.206117 0)
(11.9355 0.220978 0)
(11.8527 0.223696 0)
(11.8538 0.229292 0)
(11.7364 0.255148 0)
(11.7365 0.271917 0)
(11.574 0.294702 0)
(11.5688 0.319178 0)
(11.3799 0.313156 0)
(11.3661 0.302381 0)
(11.1948 0.201778 0)
(11.1836 0.139517 0)
(11.0176 0.0472009 0)
(11.0067 0.0243628 0)
(10.8443 0.0428302 0)
(10.831 0.0685885 0)
(10.6902 0.127211 0)
(10.675 0.166452 0)
(10.5462 0.23013 0)
(10.5304 0.259225 0)
(10.3984 0.301286 0)
(10.3698 0.327171 0)
(10.258 0.347941 0)
(10.2156 0.335462 0)
(10.1346 0.267349 0)
(10.1102 0.159302 0)
(10.0688 0.0207949 0)
(10.1036 -0.106512 0)
(10.0943 -0.191962 0)
(10.2764 -0.246011 0)
(10.2766 -0.258119 0)
(10.5464 -0.255368 0)
(10.5526 -0.248838 0)
(10.8607 -0.258876 0)
(10.8548 -0.245136 0)
(11.2286 -0.285976 0)
(11.2212 -0.260991 0)
(11.6544 -0.311622 0)
(11.6508 -0.280738 0)
(12.1254 -0.330357 0)
(12.1258 -0.29522 0)
(12.6245 -0.337916 0)
(12.6271 -0.304101 0)
(13.1077 -0.324232 0)
(13.1074 -0.295512 0)
(13.5293 -0.283336 0)
(13.5134 -0.270384 0)
(13.8713 -0.248579 0)
(13.8596 -0.257866 0)
(14.1359 -0.224767 0)
(14.1397 -0.251894 0)
(14.342 -0.211304 0)
(14.3514 -0.231301 0)
(14.5024 -0.198248 0)
(14.5024 -0.199512 0)
(14.6065 -0.180107 0)
(14.6043 -0.182318 0)
(14.6651 -0.170692 0)
(14.6642 -0.171467 0)
(14.6953 -0.170736 0)
(14.6952 -0.168324 0)
(14.6993 -0.16669 0)
(14.6959 -0.165119 0)
(14.6953 -0.163275 0)
(14.6726 -0.1643 0)
(14.6725 -0.160454 0)
(14.6379 -0.163292 0)
(14.6379 -0.157863 0)
(14.5928 -0.161222 0)
(14.5926 -0.154138 0)
(14.5415 -0.159105 0)
(14.5415 -0.153627 0)
(14.4908 -0.160501 0)
(14.4911 -0.153715 0)
(14.4407 -0.161283 0)
(14.4394 -0.152749 0)
(14.3914 -0.164997 0)
(14.3886 -0.155832 0)
(14.3442 -0.169524 0)
(14.3406 -0.157374 0)
(14.296 -0.170547 0)
(14.2913 -0.156201 0)
(14.247 -0.171292 0)
(14.2419 -0.156603 0)
(14.1969 -0.172276 0)
(14.1922 -0.156654 0)
(14.1443 -0.171482 0)
(14.1391 -0.156778 0)
(14.0885 -0.172541 0)
(14.0825 -0.156854 0)
(14.0344 -0.174722 0)
(14.0292 -0.162055 0)
(13.9823 -0.179733 0)
(13.9795 -0.171003 0)
(13.9342 -0.185789 0)
(13.9364 -0.175965 0)
(13.8954 -0.189136 0)
(13.8987 -0.17804 0)
(13.8588 -0.191016 0)
(13.8657 -0.18322 0)
(13.8115 -0.188812 0)
(13.8222 -0.179627 0)
(13.7616 -0.17502 0)
(13.7639 -0.163378 0)
(13.6957 -0.168235 0)
(13.6959 -0.156937 0)
(13.6231 -0.157179 0)
(13.6223 -0.149195 0)
(13.5464 -0.15422 0)
(13.5467 -0.146159 0)
(13.4743 -0.151496 0)
(13.4755 -0.146996 0)
(13.4119 -0.150892 0)
(13.4112 -0.145811 0)
(13.3593 -0.150385 0)
(13.3572 -0.145584 0)
(13.3182 -0.152628 0)
(13.3175 -0.15125 0)
(13.2857 -0.154619 0)
(13.2849 -0.152745 0)
(13.2632 -0.15447 0)
(13.2618 -0.153892 0)
(13.2502 -0.156071 0)
(13.2499 -0.15598 0)
(13.2458 -0.157834 0)
(13.2509 -0.158107 0)
(13.2495 -0.158664 0)
(13.2629 -0.159204 0)
(13.2604 -0.160705 0)
(13.2785 -0.158773 0)
(13.2757 -0.160132 0)
(13.2971 -0.157597 0)
(13.2935 -0.158217 0)
(13.316 -0.156375 0)
(13.3122 -0.156995 0)
(13.3345 -0.155044 0)
(13.3317 -0.156019 0)
(13.3555 -0.152865 0)
(13.3536 -0.154154 0)
(13.3749 -0.149756 0)
(13.3737 -0.151551 0)
(13.3928 -0.147019 0)
(13.3922 -0.149019 0)
(13.4108 -0.145162 0)
(13.4097 -0.14725 0)
(13.4282 -0.143462 0)
(13.4269 -0.145726 0)
(13.4457 -0.141813 0)
(13.4428 -0.143347 0)
(13.4602 -0.139938 0)
(13.4581 -0.138382 0)
(13.473 -0.139183 0)
(13.4718 -0.13653 0)
(13.4814 -0.137219 0)
(13.485 -0.138796 0)
(13.4859 -0.141229 0)
(-0.000274062 0.000459534 0)
(-0.031414 0.0181419 0)
(-0.0390451 0.0215453 0)
(-0.162128 0.101945 0)
(-0.178764 0.0892353 0)
(-0.433193 0.203664 0)
(-0.454582 0.173438 0)
(-0.764384 0.225387 0)
(-0.777952 0.194706 0)
(-1.10351 0.234558 0)
(-1.1157 0.202477 0)
(-1.41449 0.212898 0)
(-1.42343 0.184615 0)
(-1.68434 0.183898 0)
(-1.69062 0.159404 0)
(-1.90551 0.150033 0)
(-1.90957 0.130123 0)
(-2.08098 0.115796 0)
(-2.08338 0.0996894 0)
(-2.21472 0.0816676 0)
(-2.21692 0.0677976 0)
(-2.30111 0.0433476 0)
(-2.30571 0.0287394 0)
(-2.34509 0.00406844 0)
(-2.34977 -0.00639019 0)
(-2.36392 -0.0202635 0)
(-2.36259 -0.0252651 0)
(-2.36816 -0.0273633 0)
(-2.36477 -0.0256273 0)
(-2.37963 -0.0166887 0)
(-2.37603 -0.010728 0)
(-2.41954 0.0084203 0)
(-2.41502 0.0172536 0)
(-2.50879 0.0525343 0)
(-2.50494 0.06282 0)
(-2.66552 0.11177 0)
(-2.66859 0.11374 0)
(-2.90445 0.184262 0)
(-2.90688 0.174045 0)
(-3.23413 0.267598 0)
(-3.24385 0.243275 0)
(-3.67125 0.371896 0)
(-3.6951 0.326346 0)
(-4.23434 0.490572 0)
(-4.26359 0.442986 0)
(-4.92585 0.61406 0)
(-4.96347 0.564388 0)
(-5.73378 0.752526 0)
(-5.7851 0.691509 0)
(-6.66495 0.879378 0)
(-6.70399 0.812587 0)
(-7.67313 0.996697 0)
(-7.71892 0.91956 0)
(-8.7122 1.08579 0)
(-8.77989 1.00978 0)
(-9.7298 1.12608 0)
(-9.83476 1.06561 0)
(-10.6617 1.10829 0)
(-10.8264 1.10128 0)
(-11.4391 1.05724 0)
(-11.6447 1.03595 0)
(-12.0386 0.936034 0)
(-12.2291 0.828258 0)
(-12.443 0.672103 0)
(-12.5744 0.509188 0)
(-12.6714 0.321876 0)
(-12.7254 0.14088 0)
(-12.7438 -0.0272586 0)
(-12.7025 -0.196589 0)
(-12.6251 -0.332656 0)
(-12.4004 -0.437921 0)
(-12.1967 -0.52767 0)
(-11.7952 -0.728928 0)
(-11.469 -0.835578 0)
(-10.9067 -1.01876 0)
(-10.4448 -1.08363 0)
(-9.79457 -1.24411 0)
(-9.22406 -1.26731 0)
(-8.51634 -1.39542 0)
(-7.85676 -1.39265 0)
(-7.10798 -1.47653 0)
(-6.39037 -1.47345 0)
(-5.62385 -1.51201 0)
(-4.88355 -1.49228 0)
(-4.12012 -1.50868 0)
(-3.38076 -1.45925 0)
(-2.6463 -1.43162 0)
(-1.94872 -1.3595 0)
(-1.28736 -1.27802 0)
(-0.676704 -1.16286 0)
(-0.102607 -1.05035 0)
(0.448281 -0.957479 0)
(0.982747 -0.885718 0)
(1.48313 -0.80774 0)
(1.93171 -0.720294 0)
(2.31108 -0.623316 0)
(2.61566 -0.531834 0)
(2.84278 -0.435405 0)
(3.00152 -0.338842 0)
(3.10712 -0.248946 0)
(3.1566 -0.160058 0)
(3.13153 -0.0645494 0)
(3.04257 0.0601937 0)
(2.87422 0.246335 0)
(2.58416 0.46008 0)
(2.17999 0.667616 0)
(1.70416 0.846266 0)
(1.18672 0.997735 0)
(0.624929 1.10705 0)
(0.0187725 1.26628 0)
(-0.65248 1.42773 0)
(-1.39313 1.53863 0)
(-2.14004 1.64242 0)
(-2.9331 1.62526 0)
(-3.57064 1.65992 0)
(-4.25754 1.50326 0)
(-4.70669 1.47007 0)
(-5.19221 1.19204 0)
(-5.43271 0.939394 0)
(-5.64582 0.59198 0)
(-5.73117 0.26471 0)
(-5.7792 -0.0395557 0)
(-5.59788 -0.464008 0)
(-5.55915 -0.696048 0)
(-4.77838 -1.45304 0)
(-4.59358 -1.48332 0)
(-3.37184 -1.88834 0)
(-2.99014 -1.75399 0)
(-1.8809 -1.75868 0)
(-1.47839 -1.52893 0)
(-0.554566 -1.34844 0)
(-0.371949 -1.17334 0)
(0.985629 -1.53486 0)
(1.1136 -1.39027 0)
(2.91266 -1.58163 0)
(3.03707 -1.35436 0)
(4.82394 -1.39879 0)
(4.87851 -1.25501 0)
(6.5277 -1.3161 0)
(6.6067 -1.1988 0)
(8.09737 -1.24961 0)
(8.16601 -1.10516 0)
(9.50869 -1.07676 0)
(9.56249 -0.948636 0)
(10.6999 -0.847416 0)
(10.7293 -0.759138 0)
(11.6684 -0.670458 0)
(11.6862 -0.593609 0)
(12.4186 -0.505803 0)
(12.4312 -0.433129 0)
(12.9504 -0.319628 0)
(12.9632 -0.251061 0)
(13.2269 -0.127141 0)
(13.2476 -0.0601985 0)
(13.3067 0.0285989 0)
(13.255 0.113498 0)
(13.2337 0.17523 0)
(13.0115 0.253591 0)
(12.9917 0.328685 0)
(12.603 0.327938 0)
(12.5775 0.421133 0)
(12.1014 0.35017 0)
(12.0678 0.45175 0)
(11.543 0.350511 0)
(11.5115 0.445193 0)
(10.9591 0.357485 0)
(10.9396 0.446397 0)
(10.3458 0.354131 0)
(10.3382 0.418203 0)
(9.79599 0.286436 0)
(9.78744 0.3366 0)
(9.34249 0.196264 0)
(9.33448 0.206189 0)
(8.98748 0.1035 0)
(8.96868 0.140838 0)
(8.71471 0.049606 0)
(8.693 0.103261 0)
(8.47896 0.0219838 0)
(8.47955 0.0939708 0)
(8.23454 0.0742723 0)
(8.22835 0.178842 0)
(7.92799 0.153982 0)
(7.90386 0.250785 0)
(7.52966 0.184271 0)
(7.50636 0.292801 0)
(7.05392 0.269698 0)
(7.04064 0.378029 0)
(6.50629 0.436656 0)
(6.50057 0.51734 0)
(5.83659 0.487375 0)
(5.84468 0.554076 0)
(5.14276 0.500222 0)
(5.16338 0.551026 0)
(4.48284 0.476183 0)
(4.49293 0.513279 0)
(3.93119 0.404275 0)
(3.92332 0.409731 0)
(3.49938 0.30148 0)
(3.49025 0.265113 0)
(3.31765 0.140598 0)
(3.29677 0.0783467 0)
(3.35276 -0.0355219 0)
(3.34709 -0.119561 0)
(3.6919 -0.258345 0)
(3.69101 -0.339753 0)
(4.31628 -0.449187 0)
(4.33223 -0.54045 0)
(5.16176 -0.630428 0)
(5.18429 -0.693958 0)
(6.1911 -0.768985 0)
(6.21406 -0.804599 0)
(7.31341 -0.883896 0)
(7.33676 -0.869596 0)
(8.45535 -0.872225 0)
(8.47425 -0.828841 0)
(9.58836 -0.858345 0)
(9.60282 -0.826911 0)
(10.6735 -0.786905 0)
(10.7017 -0.757256 0)
(11.6583 -0.702215 0)
(11.6875 -0.620329 0)
(12.4902 -0.569786 0)
(12.5147 -0.526202 0)
(13.2632 -0.548468 0)
(13.2879 -0.503432 0)
(13.9828 -0.48876 0)
(13.9959 -0.439199 0)
(14.5891 -0.360622 0)
(14.5977 -0.302423 0)
(15.0372 -0.18894 0)
(15.046 -0.12201 0)
(15.2609 -0.00216516 0)
(15.2795 0.0666207 0)
(15.3157 0.162759 0)
(15.2553 0.257439 0)
(15.231 0.325483 0)
(14.9874 0.407881 0)
(14.9688 0.475169 0)
(14.5338 0.51155 0)
(14.5148 0.592011 0)
(13.959 0.539498 0)
(13.929 0.631162 0)
(13.3298 0.50027 0)
(13.3022 0.580214 0)
(12.7178 0.382627 0)
(12.733 0.398237 0)
(12.2337 0.201884 0)
(12.2678 0.161956 0)
(11.9347 0.0245022 0)
(11.982 0.0256822 0)
(11.7698 -0.0492464 0)
(11.8182 -0.00101753 0)
(11.6119 -0.0627295 0)
(11.6545 -0.0082626 0)
(11.3911 0.0584348 0)
(11.3966 0.160816 0)
(10.9857 0.271859 0)
(10.9601 0.399449 0)
(10.3331 0.466612 0)
(10.3025 0.605517 0)
(9.55673 0.664857 0)
(9.52293 0.805863 0)
(8.6791 0.774761 0)
(8.64551 0.910205 0)
(7.76283 0.778189 0)
(7.7367 0.893575 0)
(6.8685 0.713924 0)
(6.86375 0.803374 0)
(6.06427 0.619112 0)
(6.10872 0.636222 0)
(5.49359 0.501054 0)
(5.50962 0.457792 0)
(5.17257 0.326515 0)
(5.15888 0.271271 0)
(5.11888 0.156401 0)
(5.1069 0.0834488 0)
(5.31538 -0.0190072 0)
(5.29345 -0.0764361 0)
(5.73962 -0.25409 0)
(5.71228 -0.285576 0)
(6.40207 -0.435178 0)
(6.37158 -0.445864 0)
(7.21716 -0.545027 0)
(7.17273 -0.517147 0)
(8.08869 -0.576755 0)
(8.03946 -0.554992 0)
(8.97014 -0.576332 0)
(8.92145 -0.546536 0)
(9.80319 -0.537306 0)
(9.75998 -0.489924 0)
(10.5972 -0.507585 0)
(10.5657 -0.453185 0)
(11.3017 -0.42497 0)
(11.2837 -0.36287 0)
(11.9398 -0.34284 0)
(11.9217 -0.308323 0)
(12.4919 -0.268383 0)
(12.4894 -0.249154 0)
(12.9633 -0.211033 0)
(12.9762 -0.197691 0)
(13.3842 -0.169729 0)
(13.392 -0.149986 0)
(13.7512 -0.121698 0)
(13.7528 -0.103726 0)
(14.0531 -0.0735478 0)
(14.059 -0.0585571 0)
(14.3079 -0.0405314 0)
(14.3112 -0.0303817 0)
(14.5266 -0.00650222 0)
(14.5216 -0.00530129 0)
(14.7009 0.023596 0)
(14.7003 0.0190157 0)
(14.8395 0.0344607 0)
(14.842 0.0260301 0)
(14.9517 0.0284823 0)
(14.9537 0.0155935 0)
(15.0356 0.00289749 0)
(15.036 -0.00967729 0)
(15.0941 -0.0296293 0)
(15.1002 -0.0322965 0)
(15.1142 -0.0320249 0)
(15.1187 -0.0345142 0)
(15.1276 -0.0346907 0)
(15.1024 -0.0511735 0)