/*--------------------------------*- C++ -*----------------------------------*\
| =========                 |                                                 |
| \\      /  F ield         | OpenFOAM: The Open Source CFD Toolbox           |
|  \\    /   O peration     | Version:  v1812                                 |
|   \\  /    A nd           | Web:      www.OpenFOAM.com                      |
|    \\/     M anipulation  |                                                 |
\*---------------------------------------------------------------------------*/
FoamFile
{
    version     2.0;
    format      ascii;
    class       volScalarField;
    location    "0.1";
    object      p;
}
// * * * * * * * * * * * * * * * * * * * * * * * * * * * * * * * * * * * * * //

dimensions      [1 -1 -2 0 0 0 0];


internalField   nonuniform List<scalar> 
20400
(
108521
108519
108518
108515
108512
108508
108503
108497
108490
108483
108476
108470
108464
108459
108457
108459
108462
108469
108479
108491
108511
108542
108577
108610
108647
108691
108734
108779
108823
108863
108900
108933
108964
108991
109015
109036
109053
109068
109079
109088
109095
109100
109104
109106
109108
109108
109108
109106
109106
109103
109101
109097
109095
109092
109090
109087
109084
109082
109079
109076
109073
109070
109068
109064
109061
109058
109055
109053
109050
109047
109044
109042
109039
109036
109034
109031
109029
109026
109024
109022
109020
109018
109016
109014
109012
109010
109008
109007
109005
109003
109002
109000
108999
108998
108996
108995
108994
108993
108992
108991
108990
108989
108989
108988
108987
108987
108986
108986
108985
108985
108985
108984
108984
108983
108983
108982
108981
108980
108979
108978
108977
108975
108974
108972
108970
108968
108966
108964
108962
108959
108956
108953
108950
108947
108943
108940
108936
108932
108928
108923
108919
108914
108910
108905
108900
108895
108890
108885
108879
108874
108869
108863
108858
108852
108846
108841
108835
108829
108823
108817
108812
108806
108800
108794
108789
108783
108777
108772
108766
108761
108756
108751
108746
108741
108737
108732
108728
108723
108719
108715
108712
108708
108704
108701
108697
108694
108691
108688
108685
108682
108679
108676
108674
108671
108669
108667
108664
108662
108660
108658
108656
108654
108652
108649
108647
108645
108643
108641
108639
108637
108635
108632
108630
108628
108626
108623
108621
108619
108616
108614
108612
108610
108608
108606
108604
108602
108600
108598
108597
108595
108594
108592
108591
108590
108589
108588
108588
108587
108587
108587
108587
108588
108588
108589
108590
108591
108593
108595
108598
108600
108603
108607
108610
108615
108619
108624
108630
108636
108642
108649
108656
108663
108671
108679
108687
108696
108705
108715
108725
108735
108745
108756
108767
108778
108790
108801
108813
108825
108837
108849
108861
108873
108886
108898
108910
108923
108935
108947
108959
108971
108983
108994
109005
109016
109025
109034
109041
109047
109051
109053
109053
109049
109041
109028
109009
108983
108949
108907
108855
108793
108721
108635
108538
108427
108302
108164
108011
107846
107665
107477
107272
107062
106835
106607
106361
106116
105857
105600
105332
105066
104797
104529
104262
103995
103732
103472
103216
102969
102728
102494
102270
102056
101854
101660
101479
101311
101155
101011
100881
100765
100658
100567
100485
100416
100355
100308
100269
100236
100213
100194
100183
100177
100176
100180
100191
100205
100225
100246
100272
100301
100334
100370
100409
100452
100499
100552
100607
100668
100732
100802
100874
100951
101029
101112
101195
101279
101365
101448
101532
101612
101692
101766
101840
101909
101974
102036
102093
102147
102196
102242
102283
102321
102355
102385
102412
102436
102457
102475
102492
102505
102515
102522
102527
102529
102529
102526
102521
102514
102502
102488
102472
102453
102431
102407
102381
102353
102323
102291
102258
102224
102189
102152
102116
102080
102042
102005
101966
101929
101890
101852
101813
101775
101737
101700
101662
101625
101589
101552
101516
101480
101445
101409
101375
101341
101307
101275
101243
101213
101184
101158
101133
101111
101090
101072
101056
101043
101032
101024
101019
101017
101018
101020
101025
101032
101041
101051
101063
101076
101089
101103
101117
101132
101147
101162
101177
101191
101206
101220
101235
101247
101261
101271
101283
101292
101301
101309
101315
101320
101321
101323
108524
108522
108522
108519
108517
108513
108508
108502
108495
108488
108480
108473
108468
108461
108458
108456
108459
108465
108473
108484
108512
108541
108585
108618
108657
108695
108733
108772
108811
108851
108889
108923
108951
108974
108999
109025
109047
109063
109076
109086
109093
109099
109102
109105
109106
109108
109106
109107
109104
109104
109099
109099
109095
109093
109089
109087
109084
109081
109078
109076
109073
109070
109067
109064
109061
109058
109055
109052
109050
109047
109044
109042
109039
109036
109034
109031
109029
109026
109024
109022
109020
109018
109016
109014
109012
109010
109008
109007
109005
109003
109002
109000
108999
108998
108996
108995
108994
108993
108992
108991
108990
108989
108989
108988
108987
108987
108986
108986
108985
108985
108985
108984
108984
108983
108983
108982
108981
108980
108979
108978
108977
108975
108974
108972
108971
108969
108966
108964
108962
108959
108956
108953
108950
108947
108944
108940
108936
108932
108928
108924
108919
108915
108910
108905
108900
108895
108890
108885
108880
108875
108869
108864
108858
108853
108847
108841
108836
108830
108824
108818
108812
108807
108801
108795
108790
108784
108778
108773
108767
108762
108757
108752
108747
108742
108738
108733
108729
108725
108721
108717
108713
108709
108706
108702
108699
108695
108692
108689
108686
108683
108681
108678
108676
108673
108671
108668
108666
108664
108662
108660
108658
108655
108653
108651
108649
108647
108645
108643
108641
108639
108637
108634
108632
108630
108627
108625
108623
108621
108618
108616
108614
108612
108610
108608
108606
108604
108602
108600
108599
108597
108596
108594
108593
108592
108591
108590
108590
108589
108589
108589
108589
108589
108590
108590
108591
108593
108595
108597
108599
108602
108605
108608
108612
108616
108621
108625
108631
108637
108643
108649
108656
108664
108671
108679
108688
108696
108706
108715
108725
108735
108745
108756
108767
108778
108790
108801
108812
108825
108836
108848
108861
108873
108885
108898
108910
108922
108934
108947
108959
108971
108982
108993
109004
109015
109024
109033
109040
109046
109050
109052
109051
109048
109039
109026
109006
108981
108946
108904
108851
108791
108716
108633
108533
108424
108296
108159
108007
107840
107664
107469
107271
107052
106836
106597
106363
106109
105855
105594
105331
105062
104796
104525
104258
103994
103729
103473
103214
102966
102727
102495
102269
102057
101850
101661
101478
101310
101153
101011
100882
100765
100660
100567
100486
100415
100357
100309
100270
100237
100213
100196
100183
100178
100176
100182
100192
100208
100226
100249
100273
100304
100336
100372
100411
100454
100503
100554
100611
100670
100737
100804
100879
100953
101034
101115
101198
101283
101366
101453
101533
101616
101693
101770
101841
101912
101976
102037
102096
102148
102199
102243
102285
102322
102356
102386
102413
102437
102458
102477
102493
102507
102517
102524
102528
102530
102530
102527
102522
102514
102503
102489
102472
102453
102431
102407
102381
102352
102321
102290
102256
102223
102186
102151
102113
102077
102039
102002
101963
101925
101886
101849
101811
101773
101735
101696
101660
101622
101586
101549
101513
101477
101442
101407
101372
101338
101305
101273
101241
101211
101183
101156
101132
101109
101089
101071
101056
101043
101032
101024
101020
101018
101019
101021
101026
101033
101042
101053
101065
101077
101091
101105
101119
101134
101149
101164
101178
101193
101208
101223
101236
101250
101260
101274
101282
101294
101302
101310
101316
101320
101323
101322
108526
108523
108524
108521
108518
108514
108509
108503
108496
108488
108480
108471
108462
108454
108448
108447
108444
108452
108461
108480
108507
108532
108556
108594
108631
108681
108723
108770
108811
108853
108891
108925
108955
108983
109008
109029
109047
109063
109076
109086
109094
109099
109103
109105
109107
109106
109108
109105
109105
109101
109101
109096
109095
109092
109090
109086
109084
109081
109078
109076
109073
109070
109067
109064
109061
109058
109055
109052
109049
109047
109044
109041
109039
109036
109033
109031
109028
109026
109024
109022
109020
109017
109015
109014
109012
109010
109008
109006
109005
109003
109002
109000
108999
108998
108996
108995
108994
108993
108992
108991
108990
108989
108989
108988
108987
108987
108986
108986
108985
108985
108985
108984
108984
108983
108983
108982
108981
108981
108980
108978
108977
108976
108974
108973
108971
108969
108967
108965
108962
108960
108957
108954
108951
108947
108944
108940
108937
108933
108929
108924
108920
108915
108911
108906
108901
108896
108891
108886
108881
108875
108870
108865
108859
108854
108848
108842
108837
108831
108825
108819
108814
108808
108802
108797
108791
108785
108780
108774
108769
108764
108759
108754
108749
108744
108740
108735
108731
108727
108723
108719
108715
108711
108708
108705
108701
108698
108695
108692
108689
108686
108684
108681
108678
108676
108674
108671
108669
108667
108665
108663
108661
108659
108657
108655
108653
108651
108649
108646
108644
108642
108640
108638
108636
108633
108631
108629
108627
108624
108622
108620
108618
108616
108613
108611
108610
108608
108606
108604
108602
108601
108599
108598
108597
108595
108595
108594
108593
108592
108592
108592
108592
108592
108593
108593
108594
108596
108597
108599
108602
108604
108607
108610
108614
108618
108622
108628
108633
108639
108644
108651
108658
108665
108672
108680
108688
108697
108706
108716
108725
108735
108746
108756
108767
108778
108789
108801
108812
108824
108836
108848
108860
108872
108885
108897
108909
108921
108933
108945
108958
108969
108981
108992
109003
109013
109022
109031
109038
109044
109048
109050
109049
109046
109037
109023
109004
108978
108944
108901
108851
108786
108715
108627
108531
108416
108293
108154
108002
107836
107656
107467
107260
107052
106824
106596
106350
106106
105847
105590
105323
105057
104794
104521
104252
103987
103725
103461
103210
102961
102718
102483
102265
102047
101843
101652
101476
101307
101151
101008
100877
100759
100656
100563
100482
100414
100354
100307
100268
100237
100212
100194
100183
100177
100178
100182
100193
100208
100228
100250
100276
100305
100338
100374
100414
100459
100506
100559
100615
100675
100739
100810
100882
100959
101038
101120
101204
101287
101373
101455
101539
101618
101698
101772
101845
101914
101979
102043
102099
102154
102202
102248
102289
102327
102361
102391
102418
102442
102463
102481
102497
102512
102521
102528
102532
102534
102533
102531
102526
102517
102506
102491
102475
102455
102433
102408
102382
102352
102322
102289
102256
102221
102186
102148
102112
102075
102037
101999
101960
101922
101884
101845
101806
101769
101729
101692
101654
101618
101581
101545
101508
101473
101437
101402
101368
101334
101301
101268
101237
101208
101179
101153
101129
101107
101087
101070
101055
101042
101032
101024
101020
101018
101019
101022
101027
101034
101043
101055
101066
101079
101092
101106
101122
101136
101151
101166
101181
101196
101210
101224
101239
101250
101264
101273
101286
101295
101304
101312
101316
101322
101323
101323
108529
108527
108527
108524
108521
108517
108512
108505
108497
108489
108479
108468
108459
108446
108442
108433
108432
108433
108445
108464
108486
108509
108551
108574
108629
108663
108715
108755
108802
108842
108883
108919
108953
108984
109009
109030
109048
109063
109075
109085
109093
109099
109103
109105
109106
109107
109105
109105
109103
109102
109098
109098
109094
109092
109089
109086
109083
109080
109078
109075
109072
109069
109066
109064
109061
109058
109055
109052
109049
109046
109043
109041
109038
109036
109033
109031
109028
109026
109024
109021
109019
109017
109015
109013
109011
109010
109008
109006
109005
109003
109002
109000
108999
108998
108996
108995
108994
108993
108992
108991
108990
108989
108989
108988
108988
108987
108987
108986
108986
108985
108985
108985
108984
108984
108983
108983
108982
108981
108980
108979
108977
108976
108975
108973
108971
108969
108967
108965
108963
108960
108957
108955
108952
108949
108945
108942
108938
108934
108930
108926
108921
108917
108912
108908
108902
108898
108892
108888
108882
108877
108871
108866
108861
108855
108850
108844
108839
108833
108827
108821
108816
108810
108805
108799
108793
108788
108782
108777
108772
108767
108762
108757
108752
108747
108743
108739
108734
108730
108726
108723
108719
108715
108712
108708
108705
108702
108699
108696
108693
108691
108688
108686
108683
108681
108679
108676
108674
108672
108670
108668
108666
108664
108662
108660
108658
108656
108654
108652
108650
108648
108646
108644
108641
108639
108637
108635
108632
108630
108628
108626
108624
108621
108619
108617
108615
108613
108612
108610
108608
108606
108605
108603
108602
108601
108600
108599
108598
108598
108597
108597
108597
108597
108597
108598
108599
108600
108601
108603
108605
108608
108610
108613
108617
108621
108625
108630
108635
108641
108647
108653
108660
108667
108674
108682
108690
108698
108707
108716
108726
108736
108746
108756
108767
108778
108790
108801
108812
108824
108835
108847
108859
108872
108883
108896
108908
108920
108932
108944
108956
108967
108979
108990
109000
109011
109020
109028
109035
109041
109045
109047
109047
109043
109034
109020
109001
108975
108940
108898
108846
108785
108709
108626
108523
108413
108285
108147
107995
107829
107652
107458
107258
107040
106821
106583
106346
106093
105841
105578
105317
105052
104778
104509
104244
103978
103712
103455
103198
102951
102711
102480
102253
102043
101838
101647
101462
101297
101142
101002
100870
100755
100651
100560
100480
100411
100354
100305
100265
100235
100210
100191
100181
100177
100177
100183
100194
100211
100230
100252
100280
100308
100343
100379
100420
100463
100512
100564
100621
100682
100747
100817
100889
100966
101045
101128
101210
101295
101379
101463
101545
101625
101702
101777
101851
101919
101986
102046
102106
102158
102209
102254
102296
102333
102367
102398
102424
102448
102469
102488
102504
102518
102527
102534
102539
102540
102539
102537
102531
102522
102510
102495
102478
102458
102435
102410
102382
102353
102322
102289
102254
102219
102182
102145
102107
102068
102032
101991
101955
101913
101877
101835
101798
101757
101722
101684
101648
101610
101574
101536
101501
101465
101430
101395
101361
101327
101294
101262
101232
101203
101175
101149
101126
101104
101084
101068
101053
101041
101031
101024
101020
101019
101020
101023
101028
101036
101045
101056
101068
101082
101095
101110
101124
101139
101154
101170
101185
101199
101214
101227
101240
101255
101266
101278
101288
101297
101308
101313
101319
101322
101324
101323
108531
108529
108530
108526
108523
108517
108511
108502
108493
108482
108470
108460
108442
108434
108419
108415
108409
108411
108424
108440
108467
108484
108515
108562
108591
108654
108684
108745
108783
108832
108870
108912
108946
108981
109007
109029
109047
109063
109075
109085
109093
109098
109102
109104
109105
109105
109105
109104
109103
109101
109098
109095
109093
109090
109088
109085
109083
109080
109077
109075
109072
109069
109066
109063
109060
109057
109054
109051
109049
109046
109043
109041
109038
109035
109033
109030
109028
109025
109023
109021
109019
109017
109015
109013
109011
109009
109007
109006
109004
109003
109001
109000
108999
108997
108996
108995
108994
108993
108992
108991
108990
108989
108989
108988
108988
108987
108987
108986
108986
108986
108985
108985
108984
108984
108984
108983
108982
108981
108980
108979
108978
108977
108975
108974
108972
108970
108968
108966
108964
108961
108959
108956
108953
108949
108946
108942
108939
108935
108931
108927
108923
108918
108914
108909
108904
108899
108894
108889
108884
108879
108874
108868
108863
108858
108852
108847
108841
108835
108830
108824
108818
108813
108807
108802
108796
108791
108786
108780
108775
108770
108765
108761
108756
108751
108747
108743
108739
108735
108731
108727
108724
108720
108717
108714
108710
108707
108704
108702
108699
108697
108694
108692
108689
108687
108685
108683
108681
108679
108677
108675
108673
108671
108669
108667
108665
108663
108661
108659
108657
108655
108653
108651
108649
108647
108645
108642
108640
108638
108636
108633
108631
108629
108627
108625
108623
108621
108619
108617
108616
108614
108612
108611
108609
108608
108607
108606
108605
108604
108604
108603
108603
108603
108603
108604
108604
108605
108607
108608
108610
108612
108615
108618
108621
108625
108629
108634
108639
108644
108650
108656
108662
108670
108676
108684
108691
108700
108708
108718
108727
108736
108747
108757
108767
108778
108789
108800
108812
108823
108835
108847
108859
108870
108882
108894
108906
108918
108930
108942
108953
108965
108976
108987
108998
109008
109017
109025
109032
109038
109042
109043
109043
109039
109030
109016
108997
108970
108937
108894
108842
108779
108706
108619
108521
108408
108283
108143
107989
107825
107644
107455
107249
107038
106811
106579
106335
106088
105830
105571
105307
105036
104771
104503
104235
103966
103705
103442
103192
102940
102701
102465
102246
102028
101827
101632
101455
101284
101133
100989
100863
100745
100645
100552
100475
100404
100349
100299
100262
100231
100207
100188
100179
100176
100177
100182
100195
100212
100233
100257
100283
100314
100347
100385
100425
100471
100519
100572
100630
100691
100757
100826
100900
100976
101056
101137
101221
101304
101388
101471
101553
101634
101711
101787
101859
101929
101994
102056
102113
102168
102216
102263
102304
102342
102376
102407
102434
102458
102479
102497
102514
102527
102537
102543
102547
102548
102547
102544
102538
102529
102516
102501
102483
102462
102439
102413
102385
102355
102323
102288
102254
102216
102179
102141
102102
102063
102021
101983
101942
101904
101862
101826
101786
101750
101711
101676
101637
101601
101562
101527
101490
101455
101420
101386
101352
101319
101286
101255
101225
101196
101169
101143
101120
101099
101080
101063
101050
101038
101029
101023
101020
101019
101021
101024
101030
101037
101047
101058
101071
101084
101098
101112
101128
101143
101158
101173
101189
101204
101218
101232
101244
101257
101270
101280
101292
101301
101308
101316
101320
101324
101324
101324
108534
108532
108533
108529
108525
108518
108510
108501
108490
108475
108464
108441
108435
108411
108401
108393
108383
108389
108392
108410
108421
108466
108478
108530
108579
108615
108678
108707
108776
108810
108863
108899
108940
108972
109002
109023
109044
109059
109072
109082
109090
109096
109100
109102
109104
109104
109103
109102
109101
109099
109097
109095
109092
109090
109087
109084
109081
109079
109076
109073
109071
109068
109065
109062
109060
109057
109054
109051
109048
109045
109042
109040
109037
109035
109032
109030
109027
109025
109023
109020
109018
109016
109014
109012
109011
109009
109007
109006
109004
109003
109001
109000
108998
108997
108996
108995
108994
108993
108992
108991
108990
108990
108989
108988
108988
108987
108987
108987
108986
108986
108986
108985
108985
108984
108984
108983
108983
108982
108981
108980
108979
108977
108976
108974
108973
108971
108969
108967
108965
108962
108960
108957
108954
108951
108947
108944
108940
108937
108933
108929
108924
108920
108915
108911
108906
108902
108896
108892
108886
108881
108876
108871
108866
108860
108855
108849
108844
108838
108833
108827
108822
108817
108811
108806
108800
108795
108790
108785
108780
108775
108770
108765
108761
108756
108752
108748
108744
108740
108737
108733
108730
108726
108723
108720
108717
108714
108711
108709
108706
108704
108701
108699
108697
108695
108693
108691
108689
108687
108685
108684
108682
108680
108678
108676
108674
108673
108671
108669
108667
108665
108663
108661
108659
108656
108654
108652
108650
108648
108645
108643
108641
108639
108637
108635
108633
108631
108629
108627
108625
108623
108621
108620
108618
108617
108615
108614
108613
108612
108612
108611
108611
108611
108611
108611
108611
108612
108613
108615
108616
108618
108621
108623
108626
108630
108634
108638
108643
108648
108654
108659
108666
108672
108679
108686
108694
108702
108710
108719
108728
108738
108747
108757
108768
108778
108789
108800
108812
108823
108834
108846
108857
108869
108880
108892
108904
108916
108927
108939
108950
108962
108973
108984
108994
109004
109013
109021
109028
109033
109037
109039
109038
109034
109025
109011
108991
108965
108931
108889
108836
108773
108698
108611
108513
108401
108277
108136
107984
107816
107638
107444
107243
107026
106802
106567
106325
106076
105820
105559
105290
105026
104757
104489
104217
103954
103687
103431
103172
102927
102682
102454
102226
102017
101812
101622
101440
101276
101119
100980
100849
100736
100631
100544
100463
100398
100339
100294
100255
100226
100202
100184
100175
100173
100175
100182
100195
100214
100236
100260
100288
100319
100354
100391
100433
100478
100528
100581
100640
100702
100768
100839
100911
100989
101067
101150
101231
101315
101398
101481
101563
101643
101721
101796
101869
101937
102003
102064
102123
102176
102226
102271
102314
102352
102386
102417
102444
102468
102489
102508
102524
102538
102547
102554
102557
102558
102557
102553
102547
102537
102524
102507
102488
102467
102443
102416
102387
102356
102323
102288
102252
102215
102177
102137
102097
102055
102015
101973
101934
101892
101854
101814
101777
101738
101702
101661
101625
101586
101551
101513
101478
101442
101408
101374
101340
101308
101276
101245
101215
101188
101161
101137
101115
101095
101076
101061
101047
101036
101028
101022
101020
101020
101022
101026
101031
101040
101049
101061
101074
101088
101101
101117
101132
101147
101163
101179
101194
101209
101223
101236
101250
101261
101273
101284
101294
101303
101311
101318
101323
101324
101325
101324
108536
108535
108535
108531
108526
108517
108508
108497
108481
108473
108445
108441
108415
108395
108384
108362
108362
108353
108361
108368
108395
108403
108464
108476
108542
108585
108638
108703
108734
108809
108839
108891
108925
108963
108989
109016
109034
109052
109065
109077
109085
109091
109096
109099
109100
109101
109101
109100
109099
109097
109095
109093
109091
109088
109086
109083
109081
109078
109075
109072
109070
109067
109064
109061
109059
109056
109053
109050
109047
109045
109042
109039
109037
109034
109032
109029
109027
109024
109022
109020
109018
109016
109014
109012
109010
109008
109007
109005
109004
109002
109001
108999
108998
108997
108996
108995
108994
108993
108992
108991
108990
108990
108989
108988
108988
108988
108987
108987
108987
108986
108986
108986
108985
108985
108984
108984
108983
108982
108982
108981
108979
108978
108977
108975
108974
108972
108970
108968
108966
108963
108961
108958
108956
108952
108949
108946
108942
108938
108935
108931
108927
108922
108918
108913
108909
108904
108899
108894
108889
108884
108879
108874
108869
108864
108858
108853
108848
108842
108837
108832
108826
108821
108816
108810
108805
108800
108795
108790
108785
108780
108776
108771
108767
108762
108758
108754
108751
108747
108743
108740
108737
108734
108730
108728
108725
108722
108719
108717
108715
108712
108710
108708
108706
108704
108702
108701
108699
108697
108695
108694
108692
108690
108689
108687
108685
108683
108682
108680
108678
108676
108674
108672
108670
108668
108666
108664
108661
108659
108657
108655
108652
108650
108648
108646
108644
108642
108640
108638
108636
108634
108632
108631
108629
108627
108626
108624
108623
108622
108621
108621
108620
108620
108619
108619
108620
108620
108621
108622
108624
108625
108627
108630
108633
108636
108640
108644
108648
108653
108658
108664
108669
108676
108682
108689
108697
108705
108712
108721
108730
108739
108749
108758
108768
108779
108789
108800
108811
108822
108833
108844
108856
108867
108879
108890
108902
108913
108925
108936
108947
108958
108969
108980
108990
108999
109008
109016
109023
109028
109032
109033
109033
109028
109019
109005
108985
108958
108925
108881
108830
108765
108690
108603
108503
108392
108265
108127
107972
107808
107625
107435
107229
107014
106789
106554
106312
106062
105806
105542
105280
105010
104743
104471
104206
103935
103675
103411
103160
102909
102671
102435
102214
101997
101798
101604
101429
101259
101107
100964
100839
100721
100622
100528
100454
100385
100332
100284
100248
100219
100197
100179
100172
100170
100172
100181
100196
100215
100238
100264
100292
100325
100360
100399
100441
100487
100538
100593
100652
100714
100782
100851
100926
101002
101082
101162
101245
101327
101410
101493
101574
101655
101732
101808
101879
101949
102013
102075
102133
102187
102236
102283
102325
102364
102399
102430
102458
102482
102503
102522
102538
102552
102561
102567
102570
102571
102569
102565
102558
102547
102533
102516
102496
102474
102448
102421
102390
102358
102323
102288
102250
102212
102171
102132
102089
102049
102005
101965
101921
101882
101840
101803
101761
101725
101683
101647
101607
101571
101533
101498
101462
101428
101393
101360
101327
101295
101264
101234
101206
101179
101153
101129
101108
101087
101070
101054
101042
101032
101025
101021
101020
101021
101023
101028
101034
101042
101053
101065
101078
101091
101106
101121
101137
101152
101168
101184
101199
101214
101228
101242
101254
101267
101278
101289
101298
101307
101315
101321
101324
101327
101325
101325
108537
108537
108537
108532
108526
108516
108506
108491
108482
108454
108451
108419
108399
108385
108350
108346
108322
108319
108318
108328
108339
108384
108395
108473
108497
108557
108606
108668
108729
108762
108836
108866
108916
108946
108981
109004
109028
109043
109059
109070
109079
109086
109091
109094
109096
109097
109097
109096
109095
109094
109093
109091
109089
109086
109084
109081
109079
109076
109074
109071
109068
109066
109063
109060
109058
109055
109052
109049
109047
109044
109041
109038
109036
109033
109031
109028
109026
109023
109021
109019
109017
109015
109013
109011
109009
109008
109006
109004
109003
109002
109000
108999
108998
108997
108996
108994
108993
108993
108992
108991
108990
108990
108989
108989
108988
108988
108987
108987
108987
108987
108986
108986
108986
108985
108985
108985
108984
108983
108982
108981
108980
108979
108978
108976
108975
108973
108971
108969
108967
108965
108962
108960
108957
108954
108951
108948
108944
108941
108937
108933
108929
108925
108920
108916
108911
108907
108902
108898
108892
108888
108883
108878
108873
108867
108862
108857
108852
108847
108842
108836
108831
108826
108821
108816
108811
108806
108801
108796
108791
108787
108782
108778
108774
108770
108766
108762
108758
108755
108751
108748
108745
108742
108739
108736
108734
108731
108729
108726
108724
108722
108720
108718
108717
108715
108713
108712
108710
108708
108707
108705
108704
108702
108701
108699
108697
108696
108694
108692
108691
108689
108687
108685
108683
108681
108679
108677
108675
108672
108670
108668
108666
108664
108661
108659
108657
108655
108653
108651
108649
108647
108645
108643
108641
108639
108638
108636
108635
108633
108632
108631
108631
108630
108630
108629
108629
108630
108630
108631
108632
108634
108635
108637
108640
108643
108646
108650
108654
108658
108663
108668
108674
108680
108686
108693
108700
108707
108715
108723
108732
108741
108750
108759
108769
108779
108789
108800
108810
108821
108831
108843
108853
108865
108876
108887
108898
108910
108921
108932
108943
108954
108964
108975
108985
108994
109003
109010
109017
109022
109026
109027
109026
109021
109011
108997
108977
108951
108915
108874
108820
108758
108681
108594
108493
108380
108254
108113
107961
107793
107615
107419
107218
107000
106773
106538
106296
106048
105788
105529
105261
104996
104723
104457
104184
103922
103653
103397
103138
102893
102648
102420
102193
101983
101778
101591
101409
101246
101090
100953
100823
100711
100606
100519
100440
100377
100320
100277
100240
100212
100190
100175
100168
100167
100170
100180
100196
100217
100241
100267
100297
100331
100367
100407
100450
100498
100549
100605
100664
100729
100795
100867
100940
101018
101096
101178
101259
101342
101425
101506
101588
101667
101746
101820
101893
101960
102027
102087
102146
102199
102251
102296
102340
102378
102414
102445
102473
102498
102520
102538
102554
102568
102577
102583
102586
102586
102584
102579
102571
102559
102544
102526
102505
102482
102455
102426
102394
102360
102324
102286
102247
102207
102166
102123
102081
102037
101995
101951
101909
101866
101826
101784
101745
101703
101666
101625
101589
101549
101515
101477
101443
101408
101375
101342
101310
101279
101249
101220
101192
101166
101141
101120
101099
101081
101064
101051
101039
101031
101025
101022
101021
101022
101025
101030
101037
101046
101057
101069
101082
101096
101111
101127
101143
101159
101174
101190
101205
101219
101233
101247
101260
101272
101284
101294
101304
101311
101319
101323
101326
101327
101327
101326
108538
108539
108539
108533
108526
108517
108503
108493
108466
108463
108428
108412
108392
108347
108343
108302
108296
108279
108276
108280
108303
108321
108384
108394
108481
108522
108583
108643
108702
108763
108794
108862
108891
108936
108963
108997
109016
109037
109051
109064
109073
109081
109086
109090
109092
109093
109094
109093
109092
109091
109089
109087
109085
109084
109081
109079
109077
109074
109072
109069
109067
109064
109061
109059
109056
109053
109051
109048
109045
109043
109040
109037
109035
109032
109030
109027
109025
109023
109020
109018
109016
109014
109012
109010
109008
109007
109005
109004
109002
109001
109000
108999
108997
108996
108995
108994
108993
108992
108991
108991
108990
108990
108989
108989
108988
108988
108988
108987
108987
108987
108987
108987
108986
108986
108986
108985
108985
108984
108983
108982
108981
108980
108979
108977
108976
108974
108973
108971
108969
108966
108964
108962
108959
108956
108953
108950
108947
108943
108940
108936
108932
108928
108924
108919
108915
108910
108906
108901
108896
108891
108887
108882
108877
108872
108867
108862
108857
108852
108847
108842
108837
108832
108827