/*--------------------------------*- C++ -*----------------------------------*\
| =========                 |                                                 |
| \\      /  F ield         | OpenFOAM: The Open Source CFD Toolbox           |
|  \\    /   O peration     | Version:  v1812                                 |
|   \\  /    A nd           | Web:      www.OpenFOAM.com                      |
|    \\/     M anipulation  |                                                 |
\*---------------------------------------------------------------------------*/
FoamFile
{
    version     2.0;
    format      ascii;
    class       surfaceScalarField;
    location    "0.1";
    object      phi;
}
// * * * * * * * * * * * * * * * * * * * * * * * * * * * * * * * * * * * * * //

dimensions      [1 0 -1 0 0 0 0];
oriented        oriented;


internalField   nonuniform List<scalar> 
40240
(
-9.75099e-05
6.97688e-05
-0.000336158
0.000210912
-0.000664566
0.000301136
-0.0011458
0.000454276
-0.00175857
0.000586238
-0.00252488
0.000740294
-0.00348397
0.000933003
-0.00465377
0.00114393
-0.00607672
0.00139742
-0.00776165
0.00165947
-0.00972362
0.00193613
-0.0119466
0.00219636
-0.0144228
0.00244874
-0.0171197
0.0026693
-0.0199285
0.00278141
-0.0226995
0.00274406
-0.0252323
0.00250743
-0.0272979
0.00203988
-0.0287507
0.00142536
-0.0295749
0.000795777
-0.0297982
0.000193525
-0.0297627
-5.80908e-05
-0.0291058
-0.000682574
-0.0278615
-0.00126935
-0.0262402
-0.00164727
-0.0243106
-0.00195676
-0.0221152
-0.0022205
-0.0196353
-0.00250475
-0.0169187
-0.00274476
-0.014044
-0.00290743
-0.0111315
-0.00294884
-0.00822514
-0.00294487
-0.00534688
-0.00291795
-0.00262392
-0.00276264
-0.000233634
-0.00243002
0.001746
-0.00202013
0.0033916
-0.00168727
0.00489893
-0.00155092
0.0062896
-0.00143642
0.00758853
-0.00134666
0.00874484
-0.00120564
0.00979755
-0.00110403
0.0106967
-0.000951802
0.0115064
-0.000862711
0.0121836
-0.000731745
0.0127935
-0.000665501
0.0132915
-0.000554149
0.0137334
-0.000498575
0.014068
-0.000396499
0.0143331
-0.000327963
0.0145184
-0.000250689
0.0146494
-0.000196273
0.0147536
-0.000173006
0.0148223
-0.000137227
0.0148909
-0.000137521
0.0149282
-0.000108807
0.0149563
-0.000100248
0.0149669
-8.42936e-05
0.0149865
-9.50892e-05
0.0149985
-8.96323e-05
0.0150126
-9.35487e-05
0.0150115
-7.96177e-05
0.015002
-7.24008e-05
0.0149867
-6.76838e-05
0.0149705
-6.77309e-05
0.0149517
-6.55312e-05
0.0149359
-6.90915e-05
0.0149178
-6.78695e-05
0.0149009
-6.94822e-05
0.0148838
-7.0134e-05
0.0148667
-7.0598e-05
0.0148507
-7.22001e-05
0.0148372
-7.59379e-05
0.0148223
-7.4702e-05
0.0148101
-7.81166e-05
0.0147972
-7.78445e-05
0.0147865
-8.07475e-05
0.0147752
-8.08739e-05
0.014766
-8.33534e-05
0.0147564
-8.35696e-05
0.0147491
-8.62496e-05
0.0147418
-8.67248e-05
0.0147367
-8.90113e-05
0.0147318
-8.92321e-05
0.0147288
-9.12199e-05
0.0147264
-9.16789e-05
0.014725
-9.28691e-05
0.0147249
-9.38472e-05
0.0147258
-9.4576e-05
0.0147282
-9.59548e-05
0.0147312
-9.67315e-05
0.0147357
-9.76283e-05
0.0147406
-9.82541e-05
0.0147468
-9.92661e-05
0.0147537
-9.99818e-05
0.0147616
-0.000100742
0.0147705
-0.000101587
0.01478
-0.000102149
0.0147901
-0.00010324
0.0147998
-0.000103087
0.0148124
-0.000106031
0.014822
-0.000103077
0.0148364
-0.000107941
0.0148468
-0.00010419
0.0148623
-0.000109736
0.0148752
-0.000107599
0.0148902
-0.000110124
0.0149043
-0.000109959
0.0149197
-0.00011125
0.0149359
-0.000112278
0.014952
-0.000112958
0.0149692
-0.000114192
0.0149864
-0.000114926
0.0150038
-0.000115914
0.0150212
-0.000116676
0.0150396
-0.00011862
0.0150568
-0.000117813
0.0150754
-0.00012057
0.0150919
-0.000119403
0.0151101
-0.000122366
0.0151264
-0.000121644
0.015144
-0.000124162
0.0151604
-0.000124427
0.0151766
-0.000125957
0.0151923
-0.00012703
0.0152069
-0.00012762
0.0152212
-0.000129216
0.015234
-0.000129424
0.0152464
-0.00013078
0.0152579
-0.000131384
0.0152685
-0.000132255
0.0152782
-0.000132789
0.0152869
-0.000133436
0.0152948
-0.000133918
0.0153022
-0.000134596
0.0153089
-0.000135182
0.015315
-0.000135663
0.0153208
-0.000136261
0.0153261
-0.00013663
0.0153311
-0.000137367
0.0153354
-0.000137593
0.0153397
-0.000138578
0.015343
-0.000138504
0.0153465
-0.000139635
0.0153488
-0.000139274
0.0153513
-0.000140266
0.0153529
-0.00014005
0.0153544
-0.000140899
0.0153549
-0.000140754
0.0153553
-0.000141521
0.015355
-0.000141331
0.0153541
-0.000141421
0.0153529
-0.000141488
0.0153514
-0.000141711
0.0153497
-0.000141748
0.0153477
-0.000141771
0.0153458
-0.000141807
0.0153439
-0.000141718
0.015342
-0.000141586
0.0153405
-0.000141398
0.0153393
-0.00014099
0.015338
-0.000140126
0.0153373
-0.000139774
0.0153369
-0.00013896
0.0153373
-0.000138371
0.0153381
-0.000137587
0.0153396
-0.000136882
0.0153413
-0.000135851
0.0153437
-0.000135213
0.0153463
-0.000133915
0.0153496
-0.000133331
0.0153528
-0.000131688
0.0153568
-0.000130944
0.0153604
-0.000129093
0.0153648
-0.000128305
0.0153693
-0.000126652
0.0153742
-0.000125375
0.0153797
-0.000124079
0.0153851
-0.00012211
0.0153917
-0.00012119
0.0153979
-0.000118654
0.0154059
-0.000118099
0.0154131
-0.000114858
0.0154225
-0.000114581
0.0154312
-0.000111105
0.015442
-0.000110569
0.0154523
-0.000107099
0.0154643
-0.000105975
0.0154764
-0.000103016
0.0154894
-0.000101097
0.015503
-9.87215e-05
0.0155167
-9.58632e-05
0.0155319
-9.44017e-05
0.0155462
-9.04441e-05
0.0155628
-8.96355e-05
0.0155779
-8.50545e-05
0.0155953
-8.42695e-05
0.015611
-7.97448e-05
0.0156285
-7.85948e-05
0.0156445
-7.43306e-05
0.0156616
-7.26771e-05
0.0156774
-6.86955e-05
0.015694
-6.66257e-05
0.0157097
-6.29771e-05
0.0157257
-6.04522e-05
0.0157411
-5.69417e-05
0.0157564
-5.40593e-05
0.0157712
-5.06138e-05
0.0157856
-4.74452e-05
0.0157995
-4.39285e-05
0.0158129
-4.05559e-05
0.0158258
-3.7023e-05
0.0158381
-3.34627e-05
0.0158498
-2.98434e-05
0.0158609
-2.62088e-05
0.0158713
-2.25736e-05
0.015881
-1.89734e-05
0.0158898
-1.52436e-05
0.0158979
-1.15942e-05
0.0159052
-7.75697e-06
0.0159117
-4.09051e-06
0.0159174
-1.18093e-07
0.0159225
3.62664e-06
0.0159266
7.7479e-06
0.0159302
1.1643e-05
0.015933
1.58507e-05
0.0159354
1.98129e-05
0.0159373
2.40278e-05
0.0159389
2.81372e-05
0.0159401
3.24096e-05
0.0159411
3.66441e-05
0.0159418
4.09183e-05
0.0159424
4.51985e-05
0.0159429
4.94386e-05
0.0159434
5.37418e-05
0.0159439
5.79642e-05
0.0159444
6.23636e-05
0.0159451
6.65638e-05
0.0159457
7.09253e-05
0.0159466
7.51269e-05
0.0159478
7.95729e-05
0.0159501
8.37011e-05
0.0159528
8.80944e-05
0.0159556
9.21551e-05
0.0159587
9.63291e-05
0.0159623
0.000100072
0.0159672
0.000104098
0.015974
0.000107797
0.015983
0.000111892
0.015994
0.000115636
0.0160052
0.000120628
0.0160185
0.000123205
0.0160325
0.000127445
0.0160486
0.000130006
0.0160662
0.000133231
0.0160858
0.000136057
0.0161068
0.000139575
0.0161294
0.000142514
0.016154
0.000145581
0.0161802
0.000148546
0.0162093
0.000150265
0.0162393
0.000153675
0.0162739
0.000155486
0.0163054
0.000160469
0.016347
0.000154136
0.0163778
0.000167426
0.0164221
0.000156055
0.0164572
0.000166999
0.0165025
0.00015796
0.016545
0.000164245
0.0165911
0.000162367
0.0166376
0.000163439
0.0166847
0.000164475
0.0167339
0.00016372
0.0167809
0.000166657
0.0168348
0.00016049
0.0168828
0.000167491
0.0169392
0.000160188
0.0169912
0.000165658
0.0170487
0.000161396
0.0171037
0.000163264
0.0171619
0.000160073
0.0172187
0.000161022
0.0172772
0.000159144
0.0173357
0.000158602
0.0173952
0.000156988
0.0174557
0.00015531
0.0175169
0.000153529
0.0175797
0.000151097
0.0176435
0.000148984
0.0177093
0.000146211
0.0177767
0.000143854
0.0178465
0.000141024
0.0179188
0.000138651
0.0179945
0.000135951
0.0180742
0.000133664
0.0181597
0.000131149
0.0182521
0.000129061
0.0183527
0.000126814
0.0184649
0.000124541
0.0185914
0.000122774
0.0187384
0.000121063
0.0189117
0.000120765
0.0191163
0.000119335
0.0193516
0.0001248
0.0196352
0.000120171
0.019953
0.000134123
0.0203347
0.000124081
0.0207516
0.000146614
0.0212423
0.000133227
0.0217825
0.000153934
0.0224011
0.000150823
0.0230856
0.000163412
0.023839
0.00017756
0.0246777
0.000174559
0.0255667
0.00020694
0.0265719
0.000167069
0.0275751
0.000244492
0.0287489
0.000145565
0.0298265
0.000305545
0.0311407
0.000141919
0.0322978
0.00035382
0.0337093
0.00015852
0.0349753
0.000344904
0.0364418
0.000182573
0.0378323
0.000282436
0.039276
0.000256096
0.040735
0.000252393
0.0421736
0.000271861
0.0436526
0.00024067
0.0450746
0.000279357
0.0465237
0.000219714
0.0478793
0.000253639
0.0493205
0.000182411
0.0506476
0.000266821
0.0519877
0.000181475
0.0532277
0.00026548
0.054476
0.000181384
0.0555849
0.000254563
0.0567161
0.000164992
0.0576922
0.000238175
0.0586513
0.00016872
0.0594473
0.000221437
0.0602653
0.00014081
0.0609066
0.000221094
0.0615332
0.000128701
0.0619856
0.000211391
0.0624823
7.06281e-05
0.0627604
0.000192104
0.0631136
3.85974e-05
0.0632523
0.00016046
0.0634239
3.92495e-05
0.0634159
0.00014085
0.0634128
5.80508e-05
0.063279
0.000108129
0.0631194
6.15942e-05
0.0628864
6.8614e-05
0.0626267
3.90636e-05
0.0623148
4.75967e-05
0.0619831
1.98844e-05
0.0616121
1.29852e-05
0.0612175
-1.21119e-06
0.0608033
-9.44813e-06
0.0603684
-1.56435e-05
0.0599047
-2.65065e-05
0.0594271
-3.4886e-05
0.0589316
-3.76039e-05
0.0584191
-3.78357e-05
0.0578955
-5.08817e-05
0.0573475
-3.94831e-05
0.0568079
-6.53191e-05
0.0562264
-4.45635e-05
0.0556788
-8.99209e-05
0.0550703
-4.71054e-05
0.0545084
-0.000108398
0.0538741
-5.47246e-05
0.0532826
-0.000112847
0.0526317
-6.92415e-05
0.0520113
-0.000114191
0.0513497
-7.75534e-05
0.0506973
-0.000104266
0.0500341
-0.000101942
0.0493645
-9.45348e-05
0.0487196
-0.000120789
0.0480334
-7.50773e-05
0.0474203
-0.000135087
0.0467518
-6.6964e-05
0.0461753
-0.000133953
0.0455506
-6.68252e-05
0.045008
-0.000110909
0.0444539
-6.65072e-05
0.0439529
-7.66056e-05
0.0434782
-6.24521e-05
0.0430347
-4.81526e-05
0.0426414
-4.8691e-05
0.0422606
-1.46471e-05
0.0419426
-2.87057e-05
0.0416337
8.35844e-06
0.0413822
2.01527e-06
0.0411481
3.09144e-05
0.0409606
3.50837e-05
0.0408002
5.43254e-05
0.0406759
6.46754e-05
0.0405806
7.82472e-05
0.0405137
9.02665e-05
0.0404718
0.000101363
0.0404545
0.000111076
0.0404602
0.000121765
0.0404817
0.000133449
0.0405417
0.00013332
0.0406271
0.000140512
0.0407367
0.00014534
0.0408724
0.000150644
0.0410375
0.000153153
0.0412206
0.000157511
0.041423
0.000159698
0.04165
0.000164364
0.0419042
0.000166877
0.0421796
0.000173508
0.0424759
0.000177192
0.0427882
0.000184394
0.0431212
0.000186812
0.0434707
0.000192231
0.0438402
0.000191715
0.0442261
0.000193435
0.0446264
0.000195134
0.0450324
0.000203203
0.045449
0.000205916
0.0458732
0.000207762
0.0462994
0.000214799
0.0467323
0.000212028
0.047161
0.000216636
0.0475869
0.00021855
0.0480048
0.000220541
0.0484156
0.000222485
0.0488131
0.000227849
0.049202
0.000228457
0.0495709
0.000233959
0.0499308
0.000234229
0.0502625
0.000243692
0.0506019
0.000235136
0.0508986
0.000258557
0.0512027
0.0002301
0.0514763
0.000243026
0.0517432
0.00023181
0.0519814
0.000240349
0.0522067
0.000230564
0.0524037
0.000234162
0.0525836
0.000224337
0.0527369
0.000222123
0.0528689
0.000211708
0.0529748
0.000203884
0.0530562
0.000191567
0.0531116
0.000178559
0.0531366
0.000166534
0.0531331
0.000150284
0.0531093
0.000126915
0.0530572
0.000104884
0.0529715
8.9434e-05
0.0528537
6.96405e-05
0.0527053
4.74562e-05
0.0525266
2.49526e-05
0.0523191
1.78171e-07
0.0520829
-2.48491e-05
0.0518173
-4.91255e-05
0.0515228
-7.37552e-05
0.0511975
-9.54762e-05
0.0508461
-0.000121904
0.0504658
-0.000144288
0.0500539
-0.00016577
0.0496183
-0.000185607
0.0491656
-0.000203064
0.0486877
-0.00021796
0.048197
-0.000237335
0.0476825
-0.000246686
0.0471649
-0.000265392
0.0466341
-0.000270538
0.0461086
-0.000284481
0.0455767
-0.000288324
0.0450544
-0.000297789
0.0445362
-0.00029998
0.0440342
-0.000309203
0.043542
-0.000308011
0.0430723
-0.000313957
0.0426147
-0.000306575
0.0421862
-0.000310796
0.0417655
-0.000292347
0.0413842
-0.000299039
0.0410095
-0.000268963
0.0406832
-0.000269453
0.040362
-0.000226543
0.040089
-0.000225938
0.0398319
-0.000187259
0.0396102
-0.00017475
0.0394196
-0.000147637
0.039245
-0.000121434
0.0391118
-9.87145e-05
0.0390006
-5.413e-05
0.0389353
-3.41687e-05
6.23845e-06
-0.000350441
0.000393021
-0.00109112
0.000924657
-0.00211416
0.00129783
-0.0034769
0.0017909
-0.00513448
0.00221785
-0.00712882
0.00270912
-0.00944095
0.00321959
-0.0121262
0.00380406
-0.0151381
0.00438451
-0.0184907
0.00498677
-0.0220822
0.0055019
-0.0258534
0.0059414
-0.0296648
0.0062342
-0.0334014
0.00637932
-0.0368588
0.0062123
-0.0398856
0.00574385
-0.0423781
0.00497374
-0.0441924
0.00382705
-0.0452829
0.00248715
-0.0455916
0.00107496
-0.0452999
-0.000128223
-0.0444159
-0.000965149
-0.0427914
-0.00232853
-0.0406618
-0.00342506
-0.037852
-0.0044894
-0.03459
-0.00525237
-0.0308487
-0.00599475
-0.0268071
-0.00657733
-0.0225103
-0.00707355
-0.0180496
-0.00740212
-0.013525
-0.00751005
-0.00914139
-0.00736807
-0.00514544
-0.00695574
-0.00158295
-0.00636627
0.00181197
-0.00586289
0.00525921
-0.00550484
0.00870241
-0.00516995
0.0119205
-0.00481116
0.0148362
-0.00439648
0.0173975
-0.00395453
0.0197115
-0.00356789
0.0217035
-0.00314675
0.0235075
-0.00280751
0.025026
-0.00243398
0.0264108
-0.00217029
0.0275495
-0.00185938
0.0285955
-0.00165668
0.0294213
-0.00138125
0.0301671
-0.00120254
0.030714
-0.000936618
0.0312015
-0.000801459
0.0315453
-0.000606079
0.0318413
-0.000533443
0.0321103
-0.000476637
0.0322995
-0.000399362
0.0324895
-0.000366821
0.0326138
-0.000295078
0.0327415
-0.00028598
0.0328336
-0.000261785
0.032931
-0.000263131
0.0329909
-0.00023399
0.0330473
-0.000215725
0.0330758
-0.000183046
0.0330991
-0.000173903
0.0331065
-0.000158782
0.0331209
-0.000163943
0.0331174
-0.000150327
0.0331165
-0.000151191
0.0331101
-0.000149062
0.0331049
-0.000150789
0.033098
-0.000150937
0.0330869
-0.000148546
0.0330746
-0.000152803
0.0330655
-0.000154456
0.0330545
-0.00015729
0.0330452
-0.000158604
0.0330343
-0.000160799
0.0330253
-0.000162794
0.0330153
-0.000165512
0.0330076
-0.000168056
0.0329998
-0.000171255
0.0329941
-0.000174025
0.032989
-0.000177383
0.0329857
-0.000179429
0.032983
-0.000182156
0.0329821
-0.000184345
0.0329825
-0.000187229
0.0329846
-0.000188935
0.032988
-0.000190784
0.0329931
-0.000193516
0.0329993
-0.000196205
0.0330073
-0.000197948
0.0330164
-0.000199699
0.0330267
-0.00020182
0.0330385
-0.00020391
0.0330519
-0.000206111
0.0330661
-0.000207621
0.0330815
-0.000209472
0.0330979
-0.000211564
0.033116
-0.000214151
0.0331305
-0.000213343
0.0331536
-0.000218793
0.0331684
-0.000215692
0.0331934
-0.000222165
0.0332101
-0.000219662
0.033233
-0.000224849
0.0332545
-0.000226388
0.0332773
-0.00022652
0.0333004
-0.000229979
0.0333225
-0.000230448
0.0333484
-0.000234031
0.0333728
-0.000234376
0.0333977
-0.000238217
0.0334235
-0.0002383
0.0334485
-0.000241644
0.0334721
-0.000240811
0.0334991
-0.000245095
0.0335211
-0.000243368
0.0335483
-0.000248705
0.0335695
-0.000246963
0.0335952
-0.000251608
0.0336167
-0.000251542
0.03364
-0.000254789
0.0336613
-0.00025607
0.0336815
-0.000257621
0.0337013
-0.000259681
0.0337187
-0.000260413
0.0337357
-0.000262162
0.0337505
-0.000262908
0.0337645
-0.000264401
0.033777
-0.000265205
0.0337878
-0.000265827
0.0337981
-0.000267139
0.033806
-0.000266868
0.0338142
-0.000268591
0.0338199
-0.000268399
0.0338262
-0.00027002
0.0338305
-0.000269816
0.033835
-0.000271047
0.0338375
-0.000271272
0.0338409
-0.00027306
0.0338423
-0.000273122
0.0338445
-0.000274442
0.0338447
-0.000275054
0.0338457
-0.000275999
0.0338449
-0.000276312
0.0338442
-0.000276669
0.0338419
-0.000277028
0.0338405
-0.000278739
0.0338355
-0.000276342
0.0338318
-0.000278428
0.033827
-0.000278093
0.0338218
-0.000278368
0.0338167
-0.000278632
0.0338109
-0.000278597
0.0338058
-0.000279216
0.0337999
-0.00027877
0.033795
-0.0002792
0.03379
-0.00027899
0.0337855
-0.000278867
0.0337801
-0.00027725
0.0337776
-0.000277606
0.0337743
-0.000275998
0.0337723
-0.000275259
0.0337709
-0.000274045
0.0337706
-0.000273055
0.0337713
-0.000271933
0.0337729
-0.000270566
0.0337752
-0.000269305
0.0337787
-0.000267766
0.0337827
-0.000266207
0.0337877
-0.000264145
0.033793
-0.000262217
0.0337991
-0.000259527
0.0338056
-0.000257704
0.0338125
-0.000254618
0.0338204
-0.00025279
0.0338282
-0.000249314
0.0338376
-0.000247289
0.0338464
-0.000243423
0.0338581
-0.000241752
0.0338679
-0.000236925
0.033882
-0.000235643
0.0338937
-0.000230264
0.0339096
-0.000228509
0.0339238
-0.000223373
0.0339411
-0.000220295
0.0339582
-0.000215973
0.0339767
-0.000211633
0.0339964
-0.000207981
0.0340158
-0.000202396
0.0340377
-0.000199208
0.0340576
-0.000192734
0.0340817
-0.000189997
0.0341022
-0.00018259
0.0341277
-0.000179949
0.034149
-0.000172035
0.0341746
-0.00016895
0.0341964
-0.000161119
0.0342213
-0.000157128
0.034243
-0.000149679
0.0342666
-0.000144781
0.034288
-0.000137839
0.0343103
-0.000132312
0.0343312
-0.000125574
0.0343522
-0.000119425
0.0343722
-0.00011271
0.0343919
-0.000106074
0.0344106
-9.91556e-05
0.0344287
-9.20544e-05
0.0344458
-8.4862e-05
0.034462
-7.75275e-05
0.0344773
-7.00199e-05
0.0344916
-6.25256e-05
0.0345049
-5.48657e-05
0.0345172
-4.73713e-05
0.0345283
-3.97144e-05
0.0345384
-3.20718e-05
0.0345471
-2.43005e-05
0.0345548
-1.64536e-05
0.0345613
-8.58651e-06
0.0345666
-5.14378e-07
0.0345708
7.50611e-06
0.034574
1.58086e-05
0.0345762
2.40203e-05
0.0345776
3.2407e-05
0.0345782
4.06447e-05
0.0345783
4.90122e-05
0.0345779
5.73995e-05
0.0345771
6.58456e-05
0.034576
7.43472e-05
0.0345748
8.27556e-05
0.0345735
9.11797e-05
0.0345722
9.94773e-05
0.0345712
0.000107849
0.0345703
0.000116159
0.0345697
0.000124599
0.0345694
0.000132861
0.0345696
0.000141214
0.0345702
0.00014942
0.0345716
0.000157688
0.0345743
0.000165811
0.0345784
0.000173445
0.034583
0.000181645
0.034589
0.000188338
0.0345955
0.000196529
0.0346044
0.000202312
0.0346157
0.000210588
0.0346305
0.000216374
0.0346475
0.000224145
0.0346676
0.000230823
0.0346884
0.000237334
0.0347129
0.000243036
0.0347383
0.00024908
0.0347674
0.000253921
0.0347984
0.000259212
0.0348318
0.000264715
0.0348693
0.0002689
0.0349095
0.000273993
0.0349516
0.000278772
0.0349956
0.000283623
0.0350446
0.000286813
0.0350962
0.000289597
0.0351561
0.000291703
0.0352011
0.000302437
0.0352769
0.00028918
0.0353238
0.000308781
0.0353981
0.000292086
0.0354544
0.000305175
0.035523
0.000299147
0.035592
0.000300229
0.0356621
0.000302832
0.0357348
0.000302021
0.0358078
0.000303687
0.0358882
0.000298122
0.0359534
0.000308434
0.0360415
0.000294932
0.0361122
0.000305065
0.0362004
0.000294749
0.0362768
0.000305274
0.0363635
0.000293142
0.0364443
0.00029684
0.0365299
0.000292366
0.0366125
0.00029321
0.0366979
0.000289424
0.0367829
0.000287766
0.036869
0.000283994
0.036956
0.000280604
0.0370437
0.000276312
0.037133
0.000271809
0.0372232
0.000267088
0.0373157
0.000262018
0.0374097
0.000257089
0.0375071
0.00025181
0.0376073
0.000246819
0.0377127
0.000241303
0.0378241
0.000236048
0.0379445
0.000230109
0.0380748
0.00022413
0.0382182
0.000217552
0.0383799
0.000210557
0.0385654
0.000204754
0.0387886
0.000193219
0.0390413
0.000191257
0.0393507
0.000176953
0.0396947
0.000180809
0.0401209
0.00015875
0.0405804
0.000170504
0.0411448
0.000150582
0.0417365
0.000161514
0.0424575
0.000129213
0.0432261
0.000149403
0.0441085
0.000127129
0.0450805
0.000135738
0.0461111
0.000146924
0.0473191
8.9779e-05
0.0484973
0.000131888
0.0499261
5.09236e-05
0.0512155
0.000171322
0.0529047
-2.16913e-06
0.0542579
0.000223438
0.0561503
-2.05057e-05
0.05762
0.000247628
0.0595698
2.88972e-06
0.0611672
0.000225233
0.0630632
4.02663e-05
0.0649111
0.000105298
0.0667715
9.92142e-05
0.0686859
4.53352e-05
0.0705263
0.000122635
0.0723995
5.63132e-05
0.0741989
6.96154e-05
0.0761504
3.58406e-05
0.0779176
-1.42337e-05
0.0797341
1.16509e-05
0.0814705
-1.96573e-06
0.0831294
2.96328e-05
0.0847303
3.65057e-05
0.0862804
6.19682e-05
0.0877163
1.27652e-05
0.0891253
1.17066e-05
0.0903659
1.4604e-05
0.0916855
1.47981e-05
0.092791
-4.67833e-06
0.0938582
-9.73811e-06
0.0947397
2.36259e-05
0.0956199
-1.96932e-05
0.0962947
-3.19803e-05
0.0970139
-5.88434e-05
0.0974964
-6.41618e-05
0.0980039
-6.41464e-05
0.0983292
-6.66977e-05
0.0986525
-7.46994e-05
0.0987996
-2.86553e-05
0.0989291
-6.34062e-05
0.0989008
-1.6578e-05
0.0988858
-7.37105e-05
0.0987646
-6.00634e-05
0.0986141
-7.26633e-05
0.0983965
-7.57401e-05
0.0981442
-9.42955e-05
0.0978437
-0.000100555
0.0975223
-0.000113652
0.0971743
-0.000119875
0.0967794
-0.000124002
0.0963505
-0.000123337
0.0959061
-0.000128831
0.0954435
-0.000124862
0.0949376
-0.000111043
0.0944437
-0.000131177
0.0938751
-0.000104883
0.0933484
-0.00016247
0.0927192
-9.86666e-05
0.0921697
-0.000152392
0.0914774
-8.89475e-05
0.0908916
-0.000155457
0.0901596
-8.59121e-05
0.089508
-0.000136807
0.0887666
-0.000109773
0.0880596
-0.000113551
0.0873083
-0.000109353
0.0865418
-9.56896e-05
0.0858067
-0.000120187
0.0849845
-6.43593e-05
0.0842637
-0.000110197
0.0834097
-3.22652e-05
0.08273
-0.000117525
0.081888
-3.72368e-06
0.0812211
-7.81155e-05
0.0804633
-9.20203e-06
0.0798053
-2.50426e-05
0.0791567
-2.73681e-06
0.0785347
3.46056e-05
0.0779846
6.94561e-06
0.0774216
7.89422e-05
0.0769602
5.91484e-05
0.07647
0.000110666
0.0760922
9.76973e-05
0.0756948
0.000143107
0.0753861
0.000144063
0.075091
0.000174549
0.0748569
0.000185614
0.074656
0.000204773
0.0744992
0.000219022
0.0743796
0.000232194
0.074295
0.000245504
0.0742431
0.000255863
0.0742254
0.000266163
0.0742389
0.000273273
0.0742892
0.000277973
0.07438
0.000276406
0.0744999
0.00027987
0.0746575
0.000279247
0.0748496
0.000279397
0.0750702
0.000277433
0.0753143
0.000277015
0.0755957
0.000274565
0.0759078
0.000275973
0.076255
0.000275078
0.0766262
0.000278959
0.0770281
0.000278298
0.0774506
0.000282999
0.0779041
0.000278373
0.0783725
0.000284034
0.0788757
0.000267067
0.079383
0.000281841
0.079914
0.000279694
0.0804531
0.000287082
0.0810034
0.000285739
0.0815666
0.000287914
0.0821227
0.000297039
0.0826967
0.000293159
0.0832416
0.000315069
0.0838129
0.000291224
0.0843376
0.000325252
0.0848899
0.000302092
0.0853881
0.000343329
0.0859133
0.000313031
0.08637
0.000374894
0.0868565
0.000331629
0.0872859
0.000411576
0.0877354
0.00034707
0.0881219
0.000372259
0.0885256
0.000351351
0.0888765
0.000376013
0.0892285
0.000362297
0.0895329
0.000378368
0.0898271
0.000365758
0.0900811
0.000370806
0.0903152
0.000358322
0.090514
0.00035275
0.0906851
0.000337852
0.0908234
0.000322359
0.0909291
0.000302327
0.0910041
0.000279741
0.0910431
0.000254659
0.0910443
0.000222712
0.0910106
0.000189529
0.0909417
0.000158341
0.0908308
0.000128947
0.09068
9.51938e-05
0.0904891
5.94061e-05
0.0902606
1.96519e-05
0.0899921
-1.98779e-05
0.0896864
-5.99746e-05
0.0893405
-9.77467e-05
0.0889593
-0.000135152
0.0885371
-0.000171963
0.088082
-0.00021388
0.0875861
-0.000243405
0.0870627
-0.000282399
0.0865041
-0.000301429
0.0859328
-0.000341205
0.0853205
-0.000347418
0.0847015
-0.000392054
0.0840538
-0.000392272
0.0834072
-0.000428401
0.0827425
-0.000420236
0.0820864
-0.000460514
0.0814169
-0.000443511
0.080768
-0.000462789
0.0801144
-0.000461929
0.0794885
-0.000476543
0.0788634
-0.000467383
0.0782757
-0.000477844
0.0776874
-0.000455657
0.0771483
-0.000461639
0.0766055
-0.000437532
0.0761275
-0.000427281
0.0756456
-0.00037827
0.0752443
-0.000367667
0.0748387
-0.000313103
0.0744926
-0.000289705
0.0741939
-0.000258225
0.073896
-0.000197105
0.0736668
-0.000180234
0.0734509
-0.000112469
0.0733147
-8.18159e-05
0.0731874
-6.37588e-06
2.85468e-06
-0.00060234
0.000968837
-0.0018738
0.00216992
-0.00357737
0.00297556
-0.00568075
0.00386853
-0.00817624
0.0046876
-0.0110354
0.00554332
-0.0142486
0.00640805
-0.0177638
0.00729505
-0.0215551
0.00815167
-0.0255071
0.0089141
-0.0295459
0.00951455
-0.0334997
0.00987026
-0.037277
0.00998651
-0.040719
0.00979627
-0.0437062
0.00917287
-0.0460704
0.00808001
-0.0479039
0.00677857
-0.0490899
0.00498324
-0.0497674
0.00313448
-0.0497589
0.00103668
-0.0491831
-0.00073876
-0.0477105
-0.00246951
-0.0459874
-0.00407838
-0.0431176
-0.00632481
-0.0398783
-0.00776999
-0.0357579
-0.00941544
-0.0313975
-0.0103969
-0.0267217
-0.0112982
-0.0220566
-0.0117811
-0.0173844
-0.0121149
-0.0128127
-0.012123
-0.00837751
-0.0118468
-0.00408843
-0.0112891
0.000134797
-0.0106331
0.00439497
-0.0101665
0.00867433
-0.00982675
0.0128528
-0.00939042
0.0167823
-0.00878365
0.0203597
-0.00801774
0.0235703
-0.00721128
0.0263777
-0.00642267
0.0288669
-0.00568491
0.0310131
-0.0050048
0.0329305
-0.00440264
0.034567
-0.00385997
0.0360397
-0.0033869
0.0372645
-0.00293678
0.038367
-0.00254092
0.0392412
-0.00213498
0.0400415
-0.00179497
0.0406439
-0.00146784
0.0412291
-0.00125249
0.0416785
-0.00105156
0.0420857
-0.000950736
0.0424347
-0.000816798
0.042716
-0.000715667
0.0429757
-0.000626651
0.0431835
-0.000567268
0.0433908
-0.000542882
0.0435361
-0.000487558
0.0436883
-0.000458901
0.0437822
-0.000392617
0.0438799
-0.000359015
0.043942
-0.000317351
0.044011
-0.000308708
0.0440525
-0.000289714
0.0440971
-0.000278929
0.0441212
-0.00025975
0.0441458
-0.000258624
0.0441588
-0.000248758
0.0441736
-0.000252151
0.0441816
-0.000243129
0.0441897
-0.000247369
0.0441915
-0.000244181
0.0441955
-0.000249026
0.0441946
-0.000246782
0.0441954
-0.000250655
0.0441923
-0.000249514
0.0441919
-0.000254541
0.0441888
-0.000258143
0.0441878
-0.000261816
0.0441861
-0.000265915
0.0441864
-0.0002694
0.0441858
-0.000272687
0.0441872
-0.000275642
0.0441882
-0.000279044
0.0441917
-0.00028201
0.0441944
-0.000283823
0.0442004
-0.000288532
0.0442058
-0.000290524
0.0442136
-0.000294708
0.0442216
-0.00029711
0.0442313
-0.000300851
0.0442419
-0.000303353
0.0442538
-0.000307015
0.0442664
-0.000309609
0.0442808
-0.000313144
0.0442958
-0.000315354
0.0443118
-0.000318849
0.0443267
-0.000319979
0.0443466
-0.000324581
0.0443608
-0.000325093
0.044384
-0.000330615
0.0443987
-0.000329165
0.0444217
-0.000335081
0.0444394
-0.000336076
0.0444595
-0.000338705
0.0444809
-0.00034181
0.0445013
-0.000343693
0.0445242
-0.000347241
0.0445447
-0.000349141
0.0445677
-0.000352659
0.0445907
-0.000354579
0.0446123
-0.000357575
0.0446343
-0.000359118
0.0446571
-0.000361819
0.0446773
-0.000362933
0.044701
-0.000367133
0.0447191
-0.000367114
0.0447424
-0.00037179
0.0447601
-0.000372581
0.0447811
-0.00037657
0.0447988
-0.000378494
0.0448167
-0.000381069
0.0448336
-0.000383657
0.0448483
-0.000384891
0.0448627
-0.000387613
0.0448748
-0.00038824
0.044886
-0.000390297
0.0448958
-0.000391263
0.0449034
-0.000392313
0.044911
-0.000393571
0.0449159
-0.000394242
0.0449211
-0.000395196
0.0449234
-0.000395853
0.0449269
-0.000397221
0.0449273
-0.000397702
0.0449291
-0.000398778
0.0449284
-0.000399703
0.044928
-0.000400533
0.0449254
-0.000403653
0.0449241
-0.000402707
0.0449203
-0.000403669
0.0449179
-0.000405548
0.0449126
-0.000405428
0.0449085
-0.000407147
0.0449026
-0.000407359
0.0448977
-0.000408645
0.0448865
-0.000406016
0.0448823
-0.000410667
0.0448731
-0.000407972
0.0448643
-0.000409552
0.0448553
-0.000409617
0.0448455
-0.000409911
0.0448366
-0.000410462
0.044826
-0.000410414
0.0448176
-0.000411014
0.0448084
-0.000411419
0.0448003
-0.000411278
0.0447908
-0.000410244
0.0447851
-0.000410801
0.0447767
-0.00040842
0.0447714
-0.000408207
0.0447654
-0.000406238
0.0447613
-0.000405355
0.0447575
-0.000403538
0.0447552
-0.000402346
0.0447535
-0.000400299
0.0447528
-0.00039868
0.0447531
-0.000396669
0.0447542
-0.000394434
0.0447564
-0.000392042
0.0447591
-0.00038905
0.044763
-0.000386054
0.044767
-0.00038262
0.0447722
-0.000379309
0.0447773
-0.000375382
0.0447838
-0.000371792
0.04479
-0.000367251
0.0447982
-0.000363584
0.0448056
-0.000358593
0.0448158
-0.000354614
0.0448248
-0.00034931
0.0448368
-0.000344731
0.0448481
-0.000339373
0.0448616
-0.000333943
0.0448756
-0.000328391
0.0448905
-0.000322247
0.044907
-0.000316567
0.044923
-0.000309612
0.0449415
-0.000303562
0.0449583
-0.000295936
0.0449785
-0.000289826
0.0449958
-0.00028151
0.0450172
-0.000275135
0.0450351
-0.00026624
0.0450569
-0.000259082
0.0450753
-0.000249917
0.0450963
-0.000241819
0.0451146
-0.000232514
0.0451343
-0.00022372
0.0451522
-0.000214323
0.0451705
-0.000205191
0.0451875
-0.000195702
0.0452044
-0.000186171
0.0452205
-0.000176417
0.0452362
-0.000166486
0.0452511
-0.000156316
0.0452652
-0.000145847
0.0452784
-0.000135116
0.0452908
-0.000124133
0.0453021
-0.000112975
0.0453125
-0.00010156
0.0453218
-9.01456e-05
0.0453302
-7.85487e-05
0.0453373
-6.70793e-05
0.0453433
-5.54598e-05
0.0453481
-4.38471e-05
0.0453518
-3.21112e-05
0.0453541
-2.02417e-05
0.0453554
-8.34095e-06
0.0453554
3.82057e-06
0.0453545
1.59216e-05
0.0453524
2.83562e-05
0.0453495
4.06502e-05
0.0453457
5.31762e-05
0.0453414
6.54479e-05
0.0453365
7.78812e-05
0.0453313
9.03249e-05
0.0453256
0.000102832
0.0453199
0.000115332
0.045314
0.00012773
0.0453081
0.000140021
0.0453024
0.000152257
0.0452969
0.00016448
0.0452917
0.00017674
0.0452871
0.000188866
0.0452828
0.000201226
0.0452794
0.000213115
0.0452761
0.000225326
0.045274
0.000237139
0.0452734
0.000249019
0.045274
0.000260404
0.045276
0.000271445
0.0452784
0.000282613
0.0452828
0.000292357
0.0452882
0.000303343
0.0452973
0.000312435
0.0453093
0.000322325
0.0453244
0.000332031
0.0453419
0.000341232
0.0453615
0.000350665
0.0453835
0.000358384
0.0454074
0.000367749
0.0454334
0.000374773
0.0454624
0.000382399
0.0454951
0.000388737
0.0455291
0.000396105
0.0455667
0.000402263
0.0456073
0.000408749
0.0456507
0.00041494
0.0456959
0.000420532
0.0457443
0.000427893
0.0457921
0.00043122
0.045859
0.000427633
0.0459008
0.000442373
0.0459742
0.000430858
0.0460212
0.000445184
0.046088
0.000437404
0.0461506
0.000440233
0.0462152
0.000442219
0.046285
0.000440305
0.0463524
0.000442181
0.0464266
0.000440377
0.0464905
0.000446198
0.0465736
0.000436899
0.046637
0.000448385
0.0467208
0.000435914
0.0467897
0.000441177
0.046872
0.000435752
0.0469462
0.000436935
0.0470269
0.000431471
0.0471028
0.000431813
0.0471829
0.000428205
0.0472608
0.000426074
0.0473406
0.00042182
0.0474202
0.000417703
0.0475004
0.000412485
0.0475812
0.000406921
0.0476625
0.000400681
0.0477448
0.000394311
0.0478281
0.000387415
0.0479131
0.000380638
0.0480001
0.000373368
0.0480903
0.000366274
0.0481843
0.000358565
0.0482844
0.000350776
0.0483921
0.00034226
0.0485096
0.000333122
0.0486391
0.00032317
0.0487847
0.000313029