/*--------------------------------*- C++ -*----------------------------------*\
| =========                 |                                                 |
| \\      /  F ield         | OpenFOAM: The Open Source CFD Toolbox           |
|  \\    /   O peration     | Version:  v1812                                 |
|   \\  /    A nd           | Web:      www.OpenFOAM.com                      |
|    \\/     M anipulation  |                                                 |
\*---------------------------------------------------------------------------*/
FoamFile
{
    version     2.0;
    format      ascii;
    class       volScalarField;
    location    "0.1";
    object      rho;
}
// * * * * * * * * * * * * * * * * * * * * * * * * * * * * * * * * * * * * * //

dimensions      [1 -3 0 0 0 0 0];


internalField   nonuniform List<scalar> 
20400
(
1.26606
1.26603
1.26602
1.26596
1.26591
1.26584
1.26576
1.26568
1.2656
1.26552
1.26544
1.26539
1.26534
1.26532
1.26532
1.26537
1.26543
1.26553
1.26566
1.26579
1.26602
1.26635
1.26669
1.26698
1.26732
1.26773
1.26812
1.26853
1.26888
1.26919
1.26944
1.26965
1.26984
1.26999
1.27014
1.27028
1.27039
1.27048
1.27055
1.2706
1.27064
1.27067
1.27069
1.27068
1.27069
1.27066
1.27066
1.27063
1.27063
1.27058
1.27057
1.27052
1.27049
1.27044
1.2704
1.27036
1.27031
1.27027
1.27023
1.2702
1.27016
1.27012
1.27009
1.27005
1.27002
1.26999
1.26996
1.26993
1.2699
1.26987
1.26984
1.26982
1.2698
1.26978
1.26976
1.26973
1.26971
1.26969
1.26967
1.26965
1.26963
1.26961
1.26959
1.26957
1.26955
1.26953
1.26952
1.2695
1.26948
1.26947
1.26946
1.26944
1.26943
1.26942
1.2694
1.26939
1.26938
1.26937
1.26936
1.26935
1.26935
1.26934
1.26933
1.26933
1.26933
1.26932
1.26932
1.26932
1.26932
1.26932
1.26932
1.26931
1.26931
1.26931
1.2693
1.2693
1.26929
1.26928
1.26928
1.26927
1.26926
1.26925
1.26924
1.26923
1.26922
1.26921
1.26919
1.26918
1.26916
1.26915
1.26913
1.26911
1.26909
1.26906
1.26904
1.26901
1.26898
1.26895
1.26891
1.26888
1.26884
1.26881
1.26877
1.26873
1.26868
1.26864
1.2686
1.26856
1.26851
1.26847
1.26842
1.26838
1.26833
1.26829
1.26824
1.26819
1.26814
1.26809
1.26804
1.268
1.26795
1.2679
1.26785
1.26781
1.26776
1.26771
1.26767
1.26762
1.26758
1.26753
1.26748
1.26744
1.2674
1.26736
1.26732
1.26728
1.26725
1.26721
1.26718
1.26715
1.26712
1.26709
1.26706
1.26703
1.267
1.26697
1.26695
1.26692
1.26689
1.26687
1.26684
1.26682
1.2668
1.26678
1.26675
1.26673
1.26671
1.2667
1.26668
1.26666
1.26664
1.26663
1.26661
1.26659
1.26657
1.26656
1.26654
1.26652
1.2665
1.26648
1.26646
1.26644
1.26642
1.2664
1.26638
1.26636
1.26634
1.26633
1.26631
1.26629
1.26628
1.26626
1.26625
1.26624
1.26622
1.26621
1.26619
1.26618
1.26617
1.26615
1.26614
1.26613
1.26612
1.26612
1.26611
1.26611
1.26611
1.2661
1.2661
1.26611
1.26611
1.26611
1.26612
1.26613
1.26614
1.26615
1.26617
1.26618
1.2662
1.26622
1.26625
1.26628
1.26631
1.26635
1.26639
1.26643
1.26648
1.26652
1.26657
1.26663
1.26669
1.26675
1.26681
1.26688
1.26695
1.26703
1.26711
1.26719
1.26728
1.26737
1.26745
1.26755
1.26764
1.26773
1.26783
1.26792
1.26802
1.26812
1.26822
1.26832
1.26842
1.26852
1.26863
1.26873
1.26884
1.26894
1.26904
1.26915
1.26925
1.26935
1.26944
1.26954
1.26963
1.26971
1.26979
1.26985
1.26991
1.26996
1.26999
1.27001
1.27001
1.26998
1.26992
1.2698
1.26965
1.26943
1.26916
1.2688
1.26837
1.26785
1.26725
1.26653
1.26572
1.26479
1.26374
1.2626
1.26131
1.25997
1.25844
1.25688
1.25509
1.25335
1.25138
1.24948
1.24739
1.24532
1.24316
1.24101
1.23884
1.23663
1.23443
1.23216
1.22996
1.22768
1.22547
1.22321
1.22109
1.21897
1.21694
1.2149
1.21302
1.21117
1.20949
1.20781
1.20629
1.20483
1.20353
1.20227
1.20118
1.20017
1.19925
1.19845
1.19771
1.1971
1.19658
1.1962
1.19593
1.1957
1.19552
1.19532
1.19517
1.19506
1.19502
1.19502
1.1951
1.19523
1.19539
1.19559
1.1958
1.19606
1.19633
1.19665
1.19697
1.19736
1.19774
1.1982
1.19865
1.19918
1.19971
1.20029
1.2009
1.20154
1.20222
1.20289
1.20361
1.20429
1.20503
1.2057
1.20642
1.20708
1.20776
1.20839
1.209
1.20959
1.21014
1.21066
1.21114
1.2116
1.212
1.21238
1.21272
1.21303
1.2133
1.21355
1.21377
1.21397
1.21415
1.21431
1.21446
1.21458
1.21467
1.21475
1.2148
1.21483
1.21483
1.21482
1.21478
1.21471
1.21461
1.21448
1.21433
1.21415
1.21396
1.21375
1.21352
1.21327
1.213
1.21272
1.21242
1.21212
1.21181
1.21149
1.21117
1.21086
1.21053
1.21023
1.20989
1.20958
1.20924
1.20892
1.20859
1.20826
1.20793
1.20761
1.20728
1.20696
1.20664
1.20632
1.20601
1.2057
1.20539
1.20509
1.20479
1.2045
1.20421
1.20393
1.20365
1.20339
1.20314
1.20292
1.20271
1.20252
1.20235
1.2022
1.20207
1.20196
1.20187
1.20181
1.20177
1.20175
1.20175
1.20177
1.20181
1.20186
1.20193
1.20201
1.2021
1.20219
1.2023
1.20242
1.20254
1.20267
1.20281
1.20294
1.20307
1.2032
1.20333
1.20344
1.20357
1.20367
1.20378
1.20386
1.20395
1.204
1.20401
1.20405
1.2041
1.20424
1.20442
1.20457
1.2661
1.26608
1.26607
1.26601
1.26596
1.26589
1.26582
1.26575
1.26567
1.26559
1.26554
1.26549
1.26547
1.26544
1.26546
1.26549
1.26556
1.26567
1.26578
1.26592
1.26623
1.26653
1.26698
1.26726
1.26763
1.26794
1.26828
1.26859
1.26889
1.26916
1.26941
1.26961
1.26974
1.26984
1.26999
1.27017
1.27033
1.27045
1.27053
1.27061
1.27065
1.27069
1.2707
1.27072
1.27072
1.27072
1.27069
1.27069
1.27065
1.27066
1.27061
1.27061
1.27056
1.27051
1.27048
1.27043
1.27039
1.27034
1.27031
1.27027
1.27024
1.2702
1.27017
1.27013
1.2701
1.27007
1.27004
1.27001
1.26998
1.26995
1.26992
1.2699
1.26988
1.26985
1.26984
1.26981
1.26979
1.26977
1.26975
1.26973
1.26971
1.26969
1.26967
1.26965
1.26963
1.26961
1.2696
1.26958
1.26956
1.26955
1.26954
1.26952
1.26951
1.2695
1.26948
1.26947
1.26946
1.26945
1.26944
1.26944
1.26943
1.26942
1.26942
1.26941
1.26941
1.26941
1.2694
1.2694
1.2694
1.2694
1.2694
1.2694
1.26939
1.26939
1.26938
1.26938
1.26937
1.26937
1.26936
1.26935
1.26934
1.26933
1.26932
1.26931
1.2693
1.26929
1.26927
1.26926
1.26925
1.26923
1.26921
1.26919
1.26917
1.26915
1.26912
1.26909
1.26906
1.26903
1.269
1.26897
1.26893
1.26889
1.26885
1.26881
1.26877
1.26873
1.26868
1.26865
1.2686
1.26856
1.26851
1.26847
1.26842
1.26837
1.26833
1.26828
1.26823
1.26818
1.26814
1.26809
1.26804
1.26799
1.26795
1.2679
1.26785
1.26781
1.26776
1.26771
1.26767
1.26762
1.26758
1.26754
1.26749
1.26745
1.26741
1.26738
1.26734
1.26731
1.26728
1.26725
1.26722
1.26719
1.26716
1.26713
1.2671
1.26707
1.26705
1.26702
1.26699
1.26697
1.26695
1.26692
1.2669
1.26687
1.26686
1.26683
1.26682
1.2668
1.26678
1.26676
1.26675
1.26673
1.26671
1.26669
1.26668
1.26666
1.26664
1.26662
1.2666
1.26659
1.26657
1.26655
1.26653
1.26651
1.26649
1.26647
1.26645
1.26643
1.26641
1.2664
1.26638
1.26637
1.26635
1.26634
1.26632
1.26631
1.2663
1.26628
1.26627
1.26626
1.26624
1.26623
1.26623
1.26622
1.26621
1.26621
1.26621
1.2662
1.2662
1.26621
1.26621
1.26621
1.26622
1.26623
1.26623
1.26625
1.26626
1.26628
1.2663
1.26632
1.26635
1.26637
1.26641
1.26644
1.26648
1.26652
1.26657
1.26661
1.26667
1.26672
1.26678
1.26683
1.2669
1.26696
1.26704
1.26711
1.2672
1.26727
1.26737
1.26745
1.26754
1.26763
1.26772
1.26782
1.26791
1.26801
1.2681
1.26821
1.2683
1.26841
1.2685
1.26861
1.26871
1.26882
1.26892
1.26902
1.26912
1.26923
1.26933
1.26943
1.26952
1.26962
1.2697
1.26979
1.26986
1.26993
1.26999
1.27004
1.27007
1.27009
1.27009
1.27006
1.26999
1.26987
1.26971
1.2695
1.26921
1.26886
1.26842
1.26791
1.2673
1.26659
1.26578
1.26482
1.26382
1.26262
1.26145
1.25997
1.25861
1.25684
1.25529
1.25331
1.25156
1.24951
1.24752
1.24549
1.24321
1.24124
1.23893
1.23688
1.2345
1.23241
1.22997
1.22796
1.2255
1.22352
1.22114
1.21924
1.217
1.21523
1.21312
1.2115
1.20957
1.20813
1.20643
1.20512
1.20369
1.20258
1.20138
1.20047
1.19948
1.19874
1.19797
1.1974
1.19688
1.19651
1.19622
1.19601
1.19581
1.19564
1.19548
1.19538
1.19534
1.19535
1.19544
1.19556
1.19574
1.19591
1.19616
1.19638
1.1967
1.19696
1.19735
1.19767
1.19813
1.19852
1.19902
1.19952
1.20008
1.20066
1.20126
1.20193
1.20256
1.2033
1.20392
1.20472
1.20534
1.20613
1.20675
1.20747
1.2081
1.20874
1.20936
1.20992
1.2105
1.21098
1.2115
1.21191
1.21235
1.21271
1.21305
1.21336
1.21363
1.21388
1.2141
1.2143
1.21447
1.21463
1.21478
1.2149
1.21499
1.21506
1.21511
1.21514
1.21514
1.21513
1.21509
1.21502
1.21492
1.21479
1.21463
1.21446
1.21426
1.21405
1.21382
1.21357
1.2133
1.21302
1.21273
1.21242
1.21213
1.2118
1.2115
1.21116
1.21087
1.21052
1.21023
1.20988
1.20958
1.20923
1.20894
1.20858
1.2083
1.20792
1.20763
1.20728
1.20699
1.20666
1.20636
1.20604
1.20574
1.20544
1.20514
1.20485
1.20456
1.20429
1.20401
1.20375
1.20351
1.20329
1.20309
1.2029
1.20273
1.20259
1.20246
1.20235
1.20226
1.2022
1.20216
1.20215
1.20214
1.20217
1.2022
1.20226
1.20231
1.2024
1.20248
1.20258
1.20267
1.2028
1.20291
1.20306
1.20317
1.20332
1.20344
1.20357
1.20369
1.20381
1.20392
1.20404
1.20412
1.20422
1.2043
1.20434
1.20439
1.20437
1.20447
1.20455
1.20475
1.20487
1.26611
1.26608
1.26608
1.26602
1.26598
1.26591
1.26585
1.26577
1.26571
1.26565
1.26561
1.2656
1.26558
1.26561
1.26563
1.26574
1.26579
1.26596
1.26612
1.26636
1.26668
1.26697
1.26716
1.26756
1.26782
1.26835
1.26866
1.26909
1.26934
1.26963
1.2698
1.26995
1.27004
1.27015
1.27024
1.27033
1.27042
1.2705
1.27059
1.27066
1.27072
1.27075
1.27078
1.27078
1.27079
1.27078
1.27078
1.27076
1.27075
1.27072
1.27072
1.27067
1.27065
1.27061
1.27057
1.27054
1.27049
1.27047
1.27042
1.27039
1.27035
1.27032
1.27028
1.27025
1.27022
1.27019
1.27015
1.27012
1.27009
1.27007
1.27004
1.27002
1.26999
1.26997
1.26995
1.26993
1.26991
1.26989
1.26987
1.26985
1.26983
1.26981
1.26979
1.26977
1.26975
1.26973
1.26972
1.2697
1.26968
1.26967
1.26966
1.26964
1.26963
1.26962
1.26961
1.2696
1.26958
1.26957
1.26957
1.26956
1.26955
1.26954
1.26953
1.26953
1.26953
1.26953
1.26953
1.26952
1.26952
1.26952
1.26952
1.26952
1.26952
1.26951
1.26951
1.2695
1.2695
1.26949
1.26948
1.26947
1.26946
1.26945
1.26944
1.26943
1.26942
1.26941
1.2694
1.26938
1.26937
1.26935
1.26933
1.26931
1.26929
1.26926
1.26925
1.26921
1.26919
1.26915
1.26913
1.26908
1.26906
1.26901
1.26898
1.26893
1.2689
1.26885
1.26882
1.26877
1.26873
1.26868
1.26864
1.2686
1.26855
1.26851
1.26846
1.26841
1.26836
1.26832
1.26826
1.26822
1.26817
1.26813
1.26808
1.26803
1.26798
1.26794
1.26789
1.26785
1.2678
1.26776
1.26772
1.26767
1.26763
1.26759
1.26755
1.26751
1.26748
1.26745
1.26742
1.26738
1.26735
1.26732
1.2673
1.26727
1.26724
1.26721
1.26719
1.26716
1.26713
1.26711
1.26709
1.26707
1.26704
1.26702
1.267
1.26698
1.26696
1.26694
1.26692
1.26691
1.26689
1.26687
1.26686
1.26684
1.26682
1.26681
1.26679
1.26677
1.26675
1.26673
1.26672
1.2667
1.26668
1.26666
1.26664
1.26662
1.2666
1.26658
1.26656
1.26655
1.26653
1.26652
1.2665
1.26649
1.26647
1.26646
1.26644
1.26643
1.26642
1.2664
1.26639
1.26638
1.26637
1.26636
1.26636
1.26635
1.26635
1.26635
1.26635
1.26635
1.26635
1.26635
1.26636
1.26636
1.26637
1.26639
1.2664
1.26642
1.26644
1.26646
1.26648
1.26651
1.26654
1.26658
1.26661
1.26666
1.2667
1.26676
1.26679
1.26686
1.2669
1.26697
1.26702
1.2671
1.26715
1.26724
1.2673
1.2674
1.26748
1.26757
1.26766
1.26774
1.26784
1.26793
1.26803
1.26812
1.26822
1.26831
1.26842
1.26851
1.26862
1.26871
1.26882
1.26892
1.26903
1.26912
1.26923
1.26933
1.26943
1.26953
1.26963
1.26972
1.26981
1.26989
1.26996
1.27003
1.27009
1.27014
1.27017
1.27019
1.27018
1.27015
1.27008
1.26997
1.26981
1.26959
1.26931
1.26896
1.26853
1.26801
1.26739
1.26669
1.26584
1.26495
1.26386
1.26281
1.26142
1.26017
1.25851
1.25706
1.25516
1.25353
1.25156
1.24967
1.24768
1.24555
1.24356
1.24127
1.23924
1.23675
1.23474
1.23224
1.2302
1.22769
1.22571
1.2233
1.22137
1.21899
1.21717
1.21497
1.21331
1.2113
1.20977
1.20795
1.20662
1.205
1.20386
1.20253
1.20155
1.20036
1.19961
1.1987
1.19811
1.19744
1.19701
1.19658
1.19633
1.19609
1.1959
1.19573
1.1956
1.19552
1.19548
1.19551
1.19558
1.19574
1.19588
1.1961
1.19628
1.19659
1.19681
1.1972
1.19748
1.19792
1.19827
1.19876
1.19922
1.19972
1.20029
1.20084
1.20151
1.2021
1.20286
1.20347
1.2043
1.2049
1.20572
1.20634
1.20709
1.20773
1.2084
1.20905
1.20961
1.21026
1.21075
1.21136
1.21176
1.21227
1.21264
1.21304
1.21337
1.21368
1.21397
1.21421
1.21443
1.21462
1.21481
1.21496
1.2151
1.21522
1.2153
1.21537
1.21541
1.21544
1.21544
1.21542
1.21539
1.21531
1.21521
1.21507
1.21491
1.21473
1.21453
1.21432
1.21408
1.21383
1.21357
1.21329
1.21299
1.21272
1.21238
1.2121
1.21175
1.2115
1.21112
1.21086
1.21047
1.21022
1.20982
1.20957
1.20915
1.2089
1.20848
1.20823
1.20784
1.20758
1.20721
1.20694
1.2066
1.20631
1.206
1.20571
1.20542
1.20513
1.20485
1.20457
1.20431
1.20405
1.20381
1.20359
1.2034
1.20321
1.20305
1.2029
1.20278
1.20266
1.20259
1.20253
1.2025
1.20248
1.20249
1.2025
1.20255
1.20258
1.20266
1.20272
1.20283
1.20289
1.20303
1.20312
1.20328
1.20338
1.20354
1.20365
1.2038
1.20392
1.20404
1.20417
1.20428
1.20439
1.20448
1.2046
1.20465
1.20476
1.20473
1.2048
1.20479
1.20493
1.20505
1.20519
1.26613
1.26611
1.26611
1.26606
1.26601
1.26596
1.26589
1.26582
1.26575
1.26571
1.26571
1.26573
1.26584
1.26585
1.26608
1.26616
1.26641
1.26656
1.26681
1.26712
1.26739
1.26773
1.26828
1.26841
1.26904
1.26921
1.26979
1.27
1.27038
1.27049
1.27069
1.27067
1.27072
1.27069
1.27068
1.27066
1.27065
1.27066
1.27069
1.27074
1.27077
1.27081
1.27083
1.27085
1.27085
1.27085
1.27083
1.27083
1.2708
1.2708
1.27077
1.27076
1.27072
1.27069
1.27066
1.27062
1.27059
1.27055
1.27053
1.27049
1.27046
1.27041
1.27039
1.27036
1.27033
1.27029
1.27027
1.27023
1.27021
1.27018
1.27016
1.27013
1.27011
1.27008
1.27007
1.27004
1.27003
1.27
1.26998
1.26996
1.26994
1.26992
1.2699
1.26988
1.26987
1.26985
1.26983
1.26981
1.2698
1.26979
1.26977
1.26976
1.26975
1.26974
1.26972
1.26971
1.2697
1.26969
1.26968
1.26967
1.26967
1.26966
1.26966
1.26965
1.26965
1.26964
1.26964
1.26964
1.26964
1.26964
1.26963
1.26964
1.26963
1.26963
1.26962
1.26962
1.26961
1.26961
1.26959
1.26959
1.26958
1.26957
1.26956
1.26955
1.26953
1.26952
1.2695
1.26949
1.26947
1.26946
1.26944
1.26942
1.26939
1.26938
1.26935
1.26933
1.26929
1.26927
1.26923
1.26921
1.26916
1.26914
1.26908
1.26906
1.269
1.26898
1.26892
1.2689
1.26884
1.26881
1.26876
1.26872
1.26867
1.26863
1.26859
1.26853
1.26849
1.26844
1.2684
1.26834
1.2683
1.26825
1.2682
1.26815
1.26811
1.26806
1.26802
1.26798
1.26793
1.26789
1.26785
1.26781
1.26776
1.26773
1.26769
1.26765
1.26761
1.26758
1.26755
1.26752
1.26748
1.26746
1.26743
1.2674
1.26737
1.26735
1.26732
1.2673
1.26728
1.26725
1.26723
1.2672
1.26719
1.26716
1.26714
1.26712
1.2671
1.26708
1.26707
1.26705
1.26703
1.26701
1.267
1.26698
1.26696
1.26695
1.26693
1.26692
1.2669
1.26688
1.26686
1.26684
1.26682
1.2668
1.26679
1.26677
1.26675
1.26673
1.26671
1.2667
1.26668
1.26667
1.26665
1.26664
1.26662
1.26661
1.26659
1.26658
1.26657
1.26655
1.26654
1.26653
1.26652
1.26651
1.2665
1.2665
1.26649
1.26649
1.26648
1.26648
1.26648
1.26649
1.26649
1.2665
1.26651
1.26652
1.26654
1.26655
1.26657
1.26659
1.26661
1.26664
1.26667
1.2667
1.26674
1.26677
1.26683
1.26687
1.26693
1.26696
1.26704
1.26707
1.26715
1.26719
1.26728
1.26733
1.26742
1.26749
1.26758
1.26767
1.26775
1.26785
1.26793
1.26803
1.26811
1.26822
1.2683
1.26841
1.26849
1.2686
1.26869
1.26881
1.26889
1.26901
1.2691
1.26921
1.2693
1.26941
1.2695
1.26961
1.2697
1.26979
1.26988
1.26996
1.27004
1.2701
1.27016
1.27021
1.27024
1.27026
1.27025
1.27022
1.27015
1.27004
1.26987
1.26966
1.26937
1.26902
1.2686
1.26807
1.26747
1.26673
1.26594
1.26496
1.26396
1.26271
1.26154
1.26003
1.25866
1.2569
1.25535
1.25343
1.25169
1.24972
1.24774
1.24571
1.24352
1.24143
1.23905
1.23694
1.23441
1.23234
1.22992
1.22783
1.22539
1.22338
1.221
1.21913
1.21688
1.21507
1.213
1.21139
1.20946
1.20802
1.2063
1.20505
1.20361
1.20255
1.20131
1.20047
1.19946
1.19879
1.19801
1.19752
1.19695
1.19664
1.19628
1.19607
1.19588
1.19571
1.1956
1.19553
1.19552
1.19553
1.19565
1.19576
1.19597
1.19612
1.1964
1.19659
1.19694
1.1972
1.19761
1.19794
1.1984
1.19883
1.19932
1.19985
1.20038
1.20101
1.20157
1.2023
1.2029
1.20369
1.20432
1.20513
1.20578
1.20655
1.20722
1.20789
1.20857
1.20916
1.20986
1.21036
1.21101
1.21144
1.21201
1.2124
1.21286
1.21321
1.21357
1.21388
1.21416
1.21442
1.21463
1.21484
1.21501
1.21516
1.21529
1.21542
1.21549
1.21555
1.2156
1.21562
1.21562
1.2156
1.21555
1.21548
1.21537
1.21523
1.21507
1.21489
1.21468
1.21446
1.21423
1.21397
1.21371
1.21343
1.21315
1.21282
1.21254
1.21219
1.21192
1.21154
1.21132
1.21089
1.21068
1.21023
1.21001
1.20957
1.20934
1.20889
1.20867
1.20825
1.20802
1.20762
1.20737
1.207
1.20673
1.2064
1.20612
1.20582
1.20553
1.20525
1.20497
1.20471
1.20444
1.2042
1.20396
1.20375
1.20355
1.20338
1.20321
1.20308
1.20294
1.20286
1.20277
1.20272
1.20268
1.20268
1.20268
1.20271
1.20272
1.2028
1.20283
1.20293
1.20299
1.20313
1.2032
1.20335
1.20345
1.20362
1.20373
1.20389
1.20401
1.20415
1.20428
1.20438
1.20451
1.20462
1.20473
1.2048
1.20494
1.20495
1.20506
1.20501
1.20509
1.20513
1.20528
1.20537
1.26614
1.26612
1.26612
1.26608
1.26603
1.26596
1.2659
1.26581
1.26574
1.2657
1.26569
1.26584
1.26587
1.26625
1.26636
1.26685
1.26719
1.26755
1.26795
1.26816
1.26869
1.2689
1.26959
1.27025
1.27044
1.27126
1.27132
1.27199
1.27201
1.27235
1.27219
1.27224
1.27197
1.27184
1.27156
1.27135
1.27115
1.27102
1.27094
1.27089
1.27088
1.27088
1.27089
1.27089
1.2709
1.27089
1.27089
1.27087
1.27085
1.27084
1.27082
1.27079
1.27077
1.27074
1.27071
1.27068
1.27066
1.27063
1.2706
1.27057
1.27053
1.2705
1.27047
1.27045
1.27041
1.27039
1.27035
1.27033
1.2703
1.27028
1.27024
1.27023
1.2702
1.27018
1.27015
1.27014
1.27011
1.2701
1.27007
1.27006
1.27003
1.27002
1.26999
1.26998
1.26995
1.26994
1.26992
1.26991
1.26989
1.26988
1.26986
1.26985
1.26984
1.26983
1.26982
1.26981
1.2698
1.26979
1.26978
1.26977
1.26976
1.26976
1.26975
1.26974
1.26974
1.26974
1.26974
1.26973
1.26973
1.26973
1.26973
1.26972
1.26973
1.26972
1.26972
1.26971
1.26971
1.2697
1.26969
1.26968
1.26967
1.26966
1.26965
1.26963
1.26962
1.26961
1.26959
1.26957
1.26956
1.26954
1.26953
1.2695
1.26949
1.26945
1.26944
1.2694
1.26939
1.26935
1.26933
1.26928
1.26926
1.26921
1.26919
1.26914
1.26912
1.26906
1.26904
1.26897
1.26895
1.26889
1.26886
1.26881
1.26877
1.26873
1.26868
1.26864
1.26859
1.26855
1.26849
1.26845
1.2684
1.26835
1.2683
1.26826
1.26821
1.26817
1.26812
1.26808
1.26804
1.268
1.26796
1.26792
1.26788
1.26784
1.2678
1.26776
1.26773
1.26769
1.26766
1.26763
1.2676
1.26757
1.26754
1.26751
1.26749
1.26746
1.26744
1.26742
1.26739
1.26737
1.26735
1.26733
1.2673
1.26729
1.26726
1.26725
1.26722
1.26721
1.26719
1.26717
1.26715
1.26713
1.26712
1.2671
1.26709
1.26707
1.26706
1.26704
1.26702
1.26701
1.26699
1.26697
1.26695
1.26694
1.26692
1.2669
1.26688
1.26686
1.26685
1.26683
1.26681
1.2668
1.26679
1.26677
1.26676
1.26674
1.26673
1.26671
1.2667
1.26668
1.26667
1.26666
1.26665
1.26664
1.26663
1.26662
1.26662
1.26661
1.26661
1.26661
1.26661
1.26661
1.26661
1.26662
1.26663
1.26664
1.26666
1.26667
1.26669
1.26671
1.26673
1.26675
1.26678
1.26682
1.26684
1.26689
1.26693
1.26698
1.26702
1.26708
1.26712
1.26719
1.26723
1.2673
1.26735
1.26743
1.26749
1.26758
1.26766
1.26774
1.26783
1.26791
1.26801
1.26809
1.26819
1.26828
1.26838
1.26846
1.26857
1.26866
1.26877
1.26885
1.26896
1.26905
1.26916
1.26925
1.26936
1.26945
1.26956
1.26965
1.26975
1.26983
1.26992
1.27
1.27008
1.27014
1.2702
1.27025
1.27028
1.2703
1.27029
1.27026
1.27019
1.27006
1.26991
1.26968
1.26941
1.26904
1.26861
1.26811
1.26746
1.2668
1.26592
1.26504
1.26392
1.26282
1.26144
1.26013
1.25851
1.25702
1.25523
1.25355
1.25167
1.24974
1.24777
1.24565
1.24355
1.24124
1.2391
1.23664
1.23449
1.23207
1.22995
1.2275
1.22548
1.22308
1.22112
1.21879
1.21695
1.21476
1.21308
1.21107
1.20954
1.20771
1.20636
1.20479
1.20364
1.20231
1.20138
1.20028
1.19953
1.19862
1.19806
1.19737
1.19699
1.19652
1.19628
1.19601
1.19584
1.19567
1.19557
1.19554
1.19552
1.19557
1.19566
1.19583
1.19597
1.19621
1.19641
1.19671
1.19696
1.19732
1.19764
1.19806
1.19846
1.19893
1.19943
1.19994
1.20053
1.20109
1.20176
1.20237
1.2031
1.20375
1.20451
1.20519
1.20594
1.20663
1.20733
1.20803
1.20865
1.20934
1.2099
1.21055
1.21105
1.21163
1.21206
1.21256
1.21294
1.21335
1.21369
1.21401
1.2143
1.21455
1.21478
1.21497
1.21515
1.2153
1.21544
1.21555
1.21563
1.21568
1.21572
1.21574
1.21573
1.21571
1.21566
1.21558
1.21547
1.21532
1.21516
1.21498
1.21477
1.21455
1.2143
1.21406
1.21378
1.21351
1.2132
1.21291
1.21258
1.21229
1.21193
1.21165
1.21125
1.211
1.21057
1.21032
1.2099
1.20965
1.20923
1.209
1.20858
1.20835
1.20794
1.2077
1.20731
1.20705
1.2067
1.20643
1.20612
1.20584
1.20555
1.20527
1.205
1.20473
1.20449
1.20424
1.20401
1.20379
1.20361
1.20343
1.20328
1.20313
1.20303
1.20291
1.20285
1.20279
1.20277
1.20277
1.20278
1.2028
1.20285
1.20288
1.20296
1.20302
1.20314
1.20321
1.20335
1.20345
1.20361
1.20372
1.20388
1.20401
1.20415
1.20428
1.2044
1.20455
1.20463
1.20477
1.20484
1.20497
1.20503
1.20516
1.20514
1.20522
1.2052
1.2053
1.20537
1.20547
1.26615
1.26614
1.26614
1.26611
1.26606
1.26599
1.26592
1.26583
1.26577
1.26565
1.26574
1.26565
1.26612
1.26625
1.26692
1.26754
1.26809
1.26877
1.26916
1.26972
1.26981
1.27088
1.27107
1.27234
1.27298
1.27334
1.27415
1.27414
1.2749
1.27465
1.27492
1.27444
1.27423
1.2736
1.27316
1.27254
1.27208
1.27165
1.27137
1.27116
1.27104
1.27097
1.27094
1.27092
1.27092
1.27091
1.2709
1.27089
1.27087
1.27085
1.27084
1.27083
1.2708
1.27077
1.27075
1.27072
1.2707
1.27067
1.27065
1.27061
1.27059
1.27055
1.27054
1.2705
1.27048
1.27045
1.27042
1.27039
1.27037
1.27034
1.27031
1.27029
1.27027
1.27024
1.27023
1.2702
1.27019
1.27016
1.27014
1.27012
1.2701
1.27008
1.27006
1.27004
1.27002
1.27
1.26999
1.26997
1.26996
1.26994
1.26993
1.26992
1.26991
1.26989
1.26989
1.26987
1.26987
1.26986
1.26985
1.26984
1.26983
1.26982
1.26982
1.26981
1.26981
1.2698
1.2698
1.2698
1.2698
1.2698
1.26979
1.2698
1.26979
1.26979
1.26978
1.26978
1.26977
1.26977
1.26976
1.26975
1.26974
1.26973
1.26971
1.2697
1.26969
1.26967
1.26965
1.26964
1.26962
1.26961
1.26958
1.26957
1.26954
1.26953
1.26949
1.26948
1.26944
1.26943
1.26938
1.26937
1.26931
1.2693
1.26924
1.26923
1.26917
1.26915
1.26909
1.26907
1.26901
1.26898
1.26893
1.26889
1.26885
1.26881
1.26877
1.26871
1.26868
1.26862
1.26858
1.26853
1.26849
1.26843
1.26839
1.26834
1.2683
1.26825
1.26821
1.26817
1.26813
1.26809
1.26805
1.26801
1.26798
1.26794
1.2679
1.26787
1.26783
1.26779
1.26776
1.26773
1.2677
1.26767
1.26764
1.26761
1.26759
1.26757
1.26754
1.26752
1.2675
1.26748
1.26746
1.26744
1.26742
1.2674
1.26738
1.26736
1.26734
1.26732
1.2673
1.26728
1.26727
1.26725
1.26723
1.26722
1.2672
1.26719
1.26717
1.26716
1.26714
1.26713
1.26711
1.26709
1.26708
1.26706
1.26704
1.26702
1.26701
1.26699
1.26697
1.26696
1.26694
1.26693
1.26691
1.2669
1.26688
1.26687
1.26685
1.26683
1.26682
1.2668
1.26679
1.26678
1.26677
1.26676
1.26675
1.26674
1.26673
1.26672
1.26672
1.26672
1.26672
1.26672
1.26672
1.26673
1.26674
1.26675
1.26676
1.26677
1.26679
1.26681
1.26683
1.26685
1.26688
1.26691
1.26694
1.26698
1.26702
1.26706
1.26712
1.26716
1.26721
1.26725
1.26732
1.26736
1.26744
1.26749
1.26757
1.26764
1.26772
1.2678
1.26788
1.26797
1.26806
1.26815
1.26824
1.26833
1.26842
1.26852
1.2686
1.26871
1.26879
1.2689
1.26898
1.2691
1.26918
1.26929
1.26938
1.26949
1.26957
1.26968
1.26976
1.26986
1.26994
1.27002
1.27009
1.27016
1.27022
1.27026
1.27029
1.27031
1.2703
1.27027
1.27019
1.27008
1.2699
1.26971
1.26939
1.26906
1.26861
1.26808
1.26748
1.26671
1.26595
1.26494
1.26396
1.2627
1.2615
1.26
1.2586
1.2569
1.25529
1.25344
1.25159
1.24969
1.24761
1.24559
1.24333
1.24119
1.23881
1.23665
1.23422
1.23208
1.22962
1.22752
1.22515
1.22311
1.22078
1.21882
1.21661
1.21479
1.21275
1.21109
1.20922
1.20773
1.20608
1.20481
1.20338
1.20233
1.20114
1.2003
1.19931
1.19867
1.19789
1.19743
1.19687
1.19655
1.19619
1.19598
1.19578
1.19563
1.19555
1.19552
1.19553
1.19557
1.1957
1.19584
1.19605
1.19623
1.1965
1.19674
1.19706
1.19737
1.19775
1.19813
1.19856
1.19903
1.19952
1.20008
1.20062
1.20126
1.20186
1.20255
1.2032
1.20393
1.20461
1.20534
1.20605
1.20675
1.20746
1.20811
1.20881
1.20941
1.21006
1.21061
1.2112
1.21169
1.21221
1.21263
1.21307
1.21344
1.2138
1.21412
1.21441
1.21467
1.21489
1.21509
1.21527
1.21542
1.21555
1.21567
1.21574
1.2158
1.21583
1.21584
1.21584
1.21581
1.21576
1.21567
1.21555
1.2154
1.21523
1.21504
1.21483
1.2146
1.21436
1.21409
1.21382
1.21353
1.21325
1.21291
1.21263
1.21226
1.21197
1.21157
1.21129
1.21087
1.2106
1.21019
1.20992
1.20951
1.20927
1.20885
1.20862
1.20819
1.20796
1.20755
1.2073
1.20694
1.20668
1.20635
1.20608
1.20578
1.2055
1.20523
1.20496
1.20471
1.20445
1.20423
1.204
1.20381
1.20361
1.20346
1.20329
1.20317
1.20304
1.20296
1.20288
1.20284
1.20282
1.20282
1.20283
1.20287
1.2029
1.20296
1.20302
1.20312
1.2032
1.20332
1.20342
1.20356
1.20368
1.20384
1.20397
1.20412
1.20425
1.20439
1.20452
1.20463
1.20476
1.20484
1.20497
1.20503
1.20514
1.20517
1.20528
1.20525
1.20532
1.20533
1.20543
1.20551
1.26615
1.26614
1.26616
1.26612
1.26608
1.26601
1.26592
1.26586
1.26568
1.26571
1.26544
1.2658
1.26585
1.26643
1.26731
1.26798
1.26895
1.26954
1.27037
1.27083
1.27181
1.27192
1.27378
1.27404
1.27552
1.27591
1.27666
1.27754
1.27745
1.27825
1.27771
1.27778
1.27696
1.27642
1.27538
1.27455
1.27355
1.2728
1.27211
1.27165
1.27132
1.27112
1.27101
1.27095
1.27092
1.27091
1.27089
1.27088
1.27087
1.27086
1.27084
1.27083
1.2708
1.27079
1.27077
1.27075
1.27072
1.2707
1.27067
1.27065
1.27061
1.27059
1.27056
1.27054
1.27051
1.27049
1.27046
1.27044
1.27041
1.27039
1.27036
1.27034
1.27031
1.2703
1.27027
1.27025
1.27023
1.27021
1.27018
1.27017
1.27014
1.27012
1.2701
1.27008
1.27006
1.27005
1.27003
1.27002
1.27
1.26999
1.26997
1.26997
1.26995
1.26994
1.26993
1.26992
1.26991
1.26991
1.2699
1.26989
1.26988
1.26987
1.26987
1.26986
1.26986
1.26985
1.26985
1.26985
1.26985
1.26985
1.26985
1.26984
1.26984
1.26984
1.26984
1.26983
1.26983
1.26982
1.26981
1.2698
1.26979
1.26978
1.26976
1.26975
1.26974
1.26972
1.2697
1.26968
1.26967
1.26965
1.26964
1.26961
1.2696
1.26957
1.26956
1.26952
1.26951
1.26946
1.26945
1.2694
1.26939
1.26934
1.26932
1.26926
1.26925
1.26919
1.26917
1.26911
1.26909
1.26903
1.269
1.26896
1.26892
1.26888
1.26883
1.26879
1.26874
1.2687
1.26865
1.26861
1.26855
1.26851
1.26846
1.26842
1.26838
1.26833
1.26829
1.26825
1.26821
1.26818
1.26814
1.2681
1.26807
1.26803
1.26799
1.26796
1.26792
1.26789
1.26786
1.26782
1.26779
1.26777
1.26774
1.26771
1.26769
1.26767
1.26765
1.26763
1.26761
1.26759
1.26757
1.26755
1.26753
1.26751
1.26749
1.26748
1.26746
1.26744
1.26742
1.2674
1.26739
1.26737
1.26736
1.26734
1.26733
1.26732
1.2673
1.26729
1.26727
1.26726
1.26724
1.26723
1.26721
1.26719
1.26717
1.26716
1.26714
1.26712
1.2671
1.26709
1.26707
1.26706
1.26704
1.26703
1.26701
1.267
1.26698
1.26696
1.26695
1.26693
1.26692
1.2669
1.26689
1.26688
1.26687
1.26686
1.26685
1.26684
1.26683
1.26683
1.26683
1.26683
1.26683
1.26683
1.26684
1.26685
1.26686
1.26687
1.26688
1.2669
1.26692
1.26694
1.26696
1.26699
1.26703
1.26706
1.2671
1.26714
1.26719
1.26724
1.26728
1.26733
1.26738
1.26744
1.26749
1.26756
1.26762
1.26769
1.26777
1.26784
1.26793
1.26801
1.2681
1.26818
1.26828
1.26836
1.26846
1.26854
1.26864
1.26871
1.26882
1.2689
1.26901
1.2691
1.26921
1.26929
1.2694
1.26948
1.26959
1.26967
1.26977
1.26985
1.26994
1.27001
1.27009
1.27015
1.27021
1.27025
1.27028
1.2703
1.27029
1.27026
1.27018
1.27005
1.26991
1.26965
1.26941
1.26901
1.26861
1.26805
1.26743
1.2667
1.26584
1.26494
1.26383
1.26273
1.26136
1.26006
1.25845
1.25694
1.25517
1.2534
1.25152
1.24953
1.24752
1.24537
1.24324
1.24093
1.23875
1.23637
1.23422
1.2318
1.22964
1.22725
1.22514
1.22279
1.22077
1.21855
1.21664
1.21455
1.21276
1.21083
1.20924
1.2075
1.20611
1.20459
1.20341
1.20213
1.20118
1.20012
1.19938
1.19851
1.19798
1.19733
1.19694
1.19648
1.19619
1.19592
1.19573
1.19559
1.19553
1.19552
1.19553
1.1956
1.19572
1.19589
1.19607
1.19631
1.19654
1.19683
1.19712
1.19747
1.19782
1.19823
1.19866
1.19913
1.19966
1.20017
1.20078
1.20136
1.20204
1.20267
1.20338
1.20405
1.20477
1.20547
1.20617
1.20689
1.20756
1.20828
1.20891
1.20958
1.21016
1.21077
1.21129
1.21183
1.21229
1.21277
1.21316
1.21358
1.21392
1.21425
1.21454
1.2148
1.21503
1.21523
1.21541
1.21556
1.21569
1.2158
1.21588
1.21593
1.21596
1.21597
1.21596
1.21593
1.21587
1.21578
1.21565
1.2155
1.21532
1.21512
1.2149
1.21466
1.2144
1.21414
1.21384
1.21356
1.21323
1.21293
1.21256
1.21227
1.21188
1.21158
1.21117
1.21087
1.21046
1.21017
1.20976
1.20949
1.20908
1.20883
1.20841
1.20817
1.20775
1.20751
1.20713
1.20688
1.20653
1.20627
1.20596
1.2057
1.20541
1.20515
1.20489
1.20464
1.20441
1.20418
1.20397
1.20376
1.20359
1.2034
1.20327
1.20312
1.20304
1.20294
1.20289
1.20285
1.20284
1.20285
1.20287
1.20291
1.20296
1.20301
1.20309
1.20318
1.20328
1.20339
1.20351
1.20364
1.20378
1.20392
1.20407
1.20421
1.20434
1.20447
1.20459
1.20472
1.20482
1.20494
1.20503
1.20514
1.20518
1.20528
1.20528
1.20533
1.20531
1.20539
1.20545
1.20554
1.26614
1.26615
1.26617
1.26614
1.26611
1.26602
1.26597
1.2658
1.26577
1.26543
1.26559
1.26543
1.26579
1.2666
1.26719
1.26836
1.26902
1.26998
1.27076
1.27176
1.27242
1.27409
1.27453
1.27689
1.27732
1.27865
1.27923
1.28019
1.28104
1.28089
1.28156
1.2808
1.28064
1.27952
1.27862
1.27716
1.27592
1.27453
1.27344
1.27251
1.27187
1.27142
1.27116
1.27101
1.27094
1.2709
1.27089
1.27087
1.27086
1.27084
1.27083
1.27081
1.2708
1.27078
1.27077
1.27074
1.27073
1.2707
1.27068
1.27065
1.27064
1.27061
1.27059
1.27056
1.27054
1.27051
1.27049
1.27046
1.27044
1.27041
1.27039
1.27036
1.27035
1.27032
1.2703
1.27027
1.27026
1.27023
1.27022
1.27019
1.27017
1.27015
1.27013
1.27011
1.27009
1.27007
1.27006
1.27004
1.27003
1.27002
1.27001
1.26999
1.26999
1.26997
1.26997
1.26996
1.26995
1.26994
1.26993
1.26992
1.26992
1.26991
1.2699
1.2699
1.26989
1.26989
1.26989
1.26989
1.26988
1.26988
1.26988
1.26988
1.26988
1.26988
1.26987
1.26987
1.26986
1.26986
1.26985
1.26984
1.26983
1.26982
1.2698
1.26979
1.26977
1.26976
1.26974
1.26973
1.26971
1.26969
1.26967
1.26966
1.26963
1.26962
1.26959
1.26957
1.26954
1.26952
1.26948
1.26947
1.26942
1.2694
1.26935
1.26933
1.26928
1.26926
1.26921
1.26918
1.26913
1.2691
1.26906
1.26902
1.26898
1.26894
1.2689
1.26885
1.26881
1.26876
1.26872
1.26867
1.26863
1.26858
1.26854
1.26849
1.26845
1.26841
1.26837
1.26833
1.2683
1.26826
1.26823
1.26819
1.26816
1.26812
1.26809
1.26805
1.26802
1.26799
1.26795
1.26792
1.26789
1.26787
1.26784
1.26782
1.2678
1.26778
1.26776
1.26774
1.26772
1.2677
1.26769
1.26767