/*--------------------------------*- C++ -*----------------------------------*\
| =========                 |                                                 |
| \\      /  F ield         | OpenFOAM: The Open Source CFD Toolbox           |
|  \\    /   O peration     | Version:  v1812                                 |
|   \\  /    A nd           | Web:      www.OpenFOAM.com                      |
|    \\/     M anipulation  |                                                 |
\*---------------------------------------------------------------------------*/
FoamFile
{
    version     2.0;
    format      ascii;
    class       volScalarField;
    location    "0.1";
    object      T;
}
// * * * * * * * * * * * * * * * * * * * * * * * * * * * * * * * * * * * * * //

dimensions      [0 0 0 1 0 0 0];


internalField   nonuniform List<scalar> 
20400
(
298.966
298.967
298.969
298.973
298.978
298.983
298.987
298.99
298.991
298.99
298.988
298.983
298.978
298.971
298.965
298.959
298.954
298.95
298.948
298.947
298.949
298.957
298.972
298.993
299.017
299.039
299.066
299.096
299.131
299.17
299.211
299.253
299.294
299.33
299.362
299.388
299.409
299.428
299.442
299.454
299.463
299.472
299.477
299.484
299.489
299.494
299.496
299.498
299.498
299.499
299.498
299.499
299.501
299.504
299.508
299.51
299.513
299.515
299.517
299.517
299.518
299.519
299.519
299.519
299.519
299.517
299.517
299.516
299.515
299.514
299.512
299.511
299.509
299.507
299.505
299.503
299.502
299.5
299.499
299.498
299.497
299.496
299.495
299.494
299.494
299.493
299.492
299.491
299.49
299.489
299.489
299.488
299.487
299.486
299.486
299.485
299.484
299.484
299.483
299.482
299.482
299.481
299.481
299.48
299.479
299.478
299.477
299.476
299.475
299.475
299.474
299.474
299.473
299.473
299.472
299.471
299.471
299.47
299.469
299.468
299.466
299.464
299.462
299.46
299.458
299.455
299.453
299.45
299.447
299.443
299.44
299.437
299.433
299.43
299.426
299.423
299.419
299.416
299.412
299.409
299.405
299.401
299.398
299.394
299.39
299.386
299.382
299.378
299.374
299.37
299.365
299.361
299.357
299.352
299.348
299.344
299.339
299.335
299.33
299.326
299.321
299.316
299.311
299.307
299.302
299.297
299.293
299.289
299.285
299.281
299.277
299.274
299.27
299.267
299.263
299.259
299.255
299.252
299.248
299.244
299.241
299.238
299.235
299.232
299.23
299.227
299.225
299.223
299.221
299.219
299.217
299.215
299.214
299.212
299.21
299.209
299.207
299.205
299.204
299.202
299.2
299.198
299.197
299.195
299.193
299.192
299.19
299.189
299.187
299.186
299.185
299.183
299.182
299.18
299.179
299.177
299.175
299.172
299.17
299.168
299.165
299.163
299.161
299.159
299.157
299.155
299.153
299.152
299.15
299.149
299.148
299.146
299.145
299.144
299.143
299.141
299.14
299.139
299.139
299.138
299.138
299.137
299.137
299.138
299.138
299.139
299.141
299.142
299.144
299.146
299.148
299.151
299.154
299.157
299.16
299.164
299.169
299.173
299.179
299.184
299.19
299.196
299.202
299.208
299.214
299.219
299.226
299.233
299.24
299.247
299.255
299.263
299.271
299.28
299.288
299.298
299.306
299.316
299.326
299.336
299.345
299.355
299.364
299.374
299.383
299.393
299.402
299.411
299.421
299.43
299.439
299.449
299.458
299.466
299.474
299.482
299.488
299.494
299.497
299.498
299.497
299.494
299.488
299.478
299.463
299.442
299.415
299.382
299.341
299.293
299.237
299.17
299.096
299.007
298.913
298.799
298.681
298.543
298.406
298.253
298.107
297.938
297.774
297.591
297.401
297.209
297
296.792
296.557
296.336
296.104
295.891
295.663
295.454
295.239
295.043
294.824
294.632
294.43
294.254
294.066
293.9
293.724
293.574
293.419
293.289
293.153
293.044
292.93
292.84
292.754
292.685
292.626
292.575
292.524
292.481
292.43
292.392
292.367
292.362
292.367
292.376
292.385
292.394
292.406
292.418
292.434
292.45
292.472
292.493
292.522
292.549
292.585
292.618
292.66
292.701
292.751
292.801
292.857
292.917
292.977
293.045
293.109
293.183
293.251
293.327
293.396
293.472
293.54
293.611
293.676
293.739
293.801
293.857
293.913
293.963
294.012
294.057
294.101
294.14
294.177
294.21
294.241
294.267
294.291
294.311
294.328
294.342
294.354
294.363
294.369
294.372
294.373
294.371
294.369
294.365
294.361
294.355
294.348
294.339
294.329
294.316
294.301
294.284
294.264
294.244
294.222
294.199
294.176
294.15
294.126
294.097
294.071
294.04
294.013
293.98
293.951
293.917
293.888
293.855
293.826
293.795
293.766
293.736
293.708
293.679
293.651
293.622
293.594
293.565
293.537
293.509
293.482
293.455
293.429
293.404
293.379
293.355
293.332
293.31
293.289
293.269
293.251
293.235
293.221
293.21
293.2
293.194
293.189
293.188
293.189
293.192
293.195
293.203
293.211
293.223
293.235
293.249
293.261
293.273
293.284
293.295
293.305
293.316
293.327
293.339
293.351
293.363
293.376
293.387
293.399
293.409
293.421
293.436
293.459
293.473
293.475
293.457
293.419
293.386
298.966
298.967
298.969
298.973
298.978
298.983
298.986
298.988
298.987
298.985
298.979
298.97
298.958
298.947
298.934
298.924
298.914
298.906
298.902
298.899
298.902
298.913
298.926
298.953
298.972
299.001
299.026
299.061
299.098
299.144
299.189
299.237
299.281
299.321
299.354
299.382
299.405
299.423
299.438
299.448
299.458
299.463
299.469
299.473
299.478
299.481
299.483
299.485
299.485
299.484
299.484
299.483
299.483
299.489
299.488
299.493
299.494
299.498
299.497
299.499
299.499
299.5
299.5
299.501
299.499
299.499
299.498
299.497
299.496
299.495
299.493
299.492
299.49
299.488
299.486
299.484
299.483
299.481
299.48
299.479
299.478
299.477
299.476
299.475
299.474
299.474
299.473
299.472
299.471
299.47
299.469
299.469
299.468
299.467
299.466
299.466
299.465
299.465
299.464
299.463
299.462
299.462
299.462
299.461
299.46
299.458
299.458
299.457
299.456
299.455
299.455
299.454
299.454
299.453
299.453
299.452
299.452
299.45
299.45
299.448
299.447
299.445
299.443
299.441
299.439
299.436
299.434
299.431
299.428
299.424
299.421
299.417
299.414
299.41
299.407
299.403
299.4
299.396
299.393
299.389
299.386
299.382
299.379
299.374
299.371
299.367
299.363
299.359
299.355
299.35
299.346
299.342
299.337
299.333
299.328
299.324
299.32
299.316
299.311
299.306
299.301
299.297
299.292
299.288
299.283
299.278
299.274
299.27
299.266
299.262
299.258
299.254
299.251
299.247
299.244
299.24
299.236
299.232
299.229
299.225
299.222
299.219
299.216
299.213
299.21
299.208
299.206
299.204
299.201
299.2
299.198
299.196
299.194
299.193
299.191
299.19
299.188
299.186
299.184
299.183
299.181
299.179
299.178
299.176
299.174
299.173
299.171
299.17
299.168
299.167
299.166
299.164
299.163
299.161
299.159
299.157
299.156
299.153
299.151
299.149
299.147
299.144
299.142
299.14
299.138
299.136
299.134
299.133
299.132
299.13
299.129
299.127
299.126
299.125
299.124
299.123
299.122
299.121
299.12
299.119
299.119
299.119
299.119
299.119
299.12
299.121
299.122
299.123
299.125
299.127
299.129
299.132
299.134
299.138
299.141
299.145
299.149
299.154
299.159
299.165
299.17
299.177
299.182
299.189
299.193
299.201
299.206
299.214
299.22
299.227
299.235
299.242
299.252
299.259
299.269
299.276
299.287
299.295
299.306
299.314
299.325
299.334
299.344
299.353
299.363
299.372
299.381
299.39
299.4
299.409
299.418
299.427
299.436
299.445
299.453
299.46
299.466
299.472
299.475
299.476
299.475
299.472
299.466
299.455
299.44
299.419
299.392
299.359
299.317
299.271
299.211
299.151
299.066
298.99
298.876
298.782
298.638
298.525
298.36
298.238
298.061
297.92
297.736
297.555
297.374
297.15
296.981
296.719
296.533
296.266
296.084
295.821
295.651
295.387
295.222
294.971
294.805
294.558
294.413
294.177
294.039
293.819
293.693
293.497
293.382
293.213
293.11
292.967
292.884
292.767
292.702
292.612
292.566
292.499
292.458
292.405
292.362
292.32
292.297
292.288
292.292
292.3
292.306
292.32
292.326
292.343
292.352
292.377
292.389
292.422
292.438
292.479
292.499
292.547
292.576
292.627
292.671
292.723
292.782
292.834
292.906
292.958
293.04
293.092
293.182
293.234
293.324
293.382
293.464
293.528
293.595
293.663
293.717
293.784
293.829
293.891
293.931
293.983
294.022
294.065
294.101
294.134
294.165
294.191
294.216
294.236
294.254
294.268
294.281
294.29
294.296
294.3
294.301
294.299
294.297
294.293
294.289
294.282
294.275
294.266
294.256
294.243
294.227
294.21
294.19
294.169
294.145
294.124
294.096
294.074
294.042
294.02
293.984
293.961
293.923
293.899
293.859
293.835
293.795
293.772
293.731
293.712
293.672
293.65
293.614
293.592
293.558
293.533
293.501
293.474
293.444
293.416
293.388
293.361
293.335
293.309
293.284
293.26
293.237
293.215
293.194
293.173
293.156
293.139
293.127
293.114
293.106
293.098
293.095
293.093
293.096
293.097
293.105
293.109
293.123
293.131
293.148
293.158
293.176
293.184
293.2
293.207
293.221
293.23
293.243
293.254
293.267
293.28
293.291
293.305
293.312
293.33
293.333
293.358
293.371
293.395
293.392
293.381
293.34
293.31
298.968
298.969
298.971
298.974
298.978
298.982
298.984
298.984
298.981
298.974
298.96
298.938
298.918
298.889
298.867
298.838
298.819
298.799
298.788
298.783
298.782
298.784
298.803
298.814
298.854
298.867
298.909
298.936
298.991
299.039
299.103
299.16
299.221
299.274
299.32
299.356
299.385
299.408
299.425
299.437
299.445
299.451
299.455
299.459
299.462
299.463
299.466
299.466
299.466
299.464
299.463
299.46
299.462
299.463
299.465
299.465
299.47
299.467
299.472
299.47
299.473
299.472
299.473
299.471
299.471
299.469
299.47
299.469
299.468
299.466
299.466
299.463
299.462
299.459
299.458
299.455
299.454
299.452
299.451
299.45
299.449
299.448
299.447
299.446
299.446
299.445
299.444
299.443
299.442
299.441
299.441
299.439
299.439
299.438
299.438
299.436
299.436
299.435
299.435
299.434
299.434
299.433
299.433
299.432
299.431
299.43
299.428
299.428
299.427
299.427
299.426
299.426
299.425
299.425
299.424
299.424
299.422
299.422
299.421
299.42
299.418
299.417
299.415
299.413
299.411
299.409
299.406
299.404
299.4
299.398
299.394
299.391
299.387
299.384
299.379
299.377
299.372
299.37
299.365
299.363
299.358
299.356
299.35
299.348
299.343
299.341
299.335
299.332
299.326
299.323
299.318
299.314
299.31
299.305
299.301
299.296
299.292
299.287
299.284
299.278
299.274
299.269
299.265
299.26
299.256
299.251
299.247
299.243
299.238
299.235
299.231
299.227
299.223
299.22
299.216
299.213
299.209
299.206
299.202
299.199
299.196
299.193
299.19
299.187
299.185
299.182
299.18
299.177
299.176
299.173
299.172
299.17
299.169
299.167
299.166
299.164
299.163
299.161
299.159
299.157
299.156
299.154
299.153
299.151
299.149
299.148
299.146
299.144
299.143
299.142
299.14
299.139
299.137
299.136
299.134
299.132
299.13
299.128
299.126
299.124
299.121
299.119
299.117
299.115
299.113
299.111
299.11
299.108
299.107
299.105
299.104
299.103
299.101
299.1
299.099
299.098
299.097
299.096
299.095
299.095
299.094
299.094
299.094
299.094
299.095
299.096
299.097
299.098
299.1
299.101
299.104
299.106
299.11
299.111
299.116
299.118
299.124
299.126
299.134
299.137
299.145
299.148
299.157
299.16
299.17
299.173
299.182
299.187
299.194
299.201
299.207
299.217
299.223
299.234
299.241
299.252
299.258
299.271
299.277
299.289
299.297
299.308
299.316
299.327
299.335
299.345
299.353
299.363
299.372
299.382
299.39
299.4
299.408
299.417
299.425
299.432
299.438
299.443
299.447
299.448
299.447
299.444
299.437
299.427
299.411
299.391
299.364
299.329
299.291
299.237
299.187
299.11
299.047
298.939
298.859
298.723
298.632
298.468
298.362
298.183
298.057
297.866
297.702
297.516
297.301
297.127
296.876
296.704
296.439
296.284
296.02
295.849
295.58
295.429
295.162
294.992
294.738
294.604
294.345
294.204
293.979
293.842
293.625
293.516
293.328
293.234
293.06
292.969
292.829
292.774
292.658
292.611
292.521
292.485
292.416
292.384
292.332
292.299
292.272
292.262
292.262
292.266
292.277
292.279
292.296
292.302
292.325
292.334
292.366
292.376
292.418
292.427
292.478
292.498
292.549
292.584
292.634
292.688
292.737
292.806
292.852
292.933
292.977
293.066
293.108
293.202
293.251
293.337
293.399
293.47
293.539
293.594
293.667
293.708
293.779
293.814
293.877
293.912
293.962
293.998
294.035
294.069
294.097
294.126
294.148
294.17
294.187
294.203
294.216
294.227
294.233
294.238
294.239
294.238
294.235
294.232
294.227
294.222
294.214
294.205
294.194
294.182
294.167
294.148
294.129
294.105
294.083
294.054
294.032
293.998
293.978
293.938
293.92
293.874
293.857
293.808
293.791
293.742
293.729
293.68
293.669
293.621
293.608
293.563
293.548
293.507
293.487
293.451
293.427
293.394
293.367
293.337
293.309
293.281
293.254
293.228
293.202
293.179
293.155
293.134
293.111
293.093
293.073
293.06
293.044
293.035
293.023
293.018
293.012
293.013
293.012
293.018
293.021
293.035
293.04
293.058
293.066
293.087
293.093
293.113
293.118
293.134
293.14
293.155
293.163
293.176
293.188
293.198
293.213
293.219
293.237
293.236
293.26
293.259
293.293
293.299
293.312
293.294
293.267
293.235
298.971
298.971
298.973
298.976
298.979
298.98
298.981
298.979
298.974
298.96
298.933
298.9
298.848
298.811
298.744
298.702
298.639
298.605
298.58
298.561
298.557
298.539
298.527
298.559
298.56
298.615
298.62
298.682
298.72
298.806
298.873
298.973
299.055
299.147
299.22
299.283
299.332
299.37
299.397
299.416
299.428
299.436
299.441
299.444
299.446
299.448
299.448
299.449
299.449
299.448
299.444
299.443
299.443
299.444
299.444
299.444
299.444
299.445
299.444
299.447
299.446
299.448
299.445
299.445
299.442
299.444
299.442
299.443
299.44
299.439
299.437
299.437
299.434
299.433
299.43
299.429
299.426
299.425
299.423
299.423
299.421
299.421
299.419
299.419
299.418
299.417
299.416
299.416
299.415
299.414
299.413
299.412
299.411
299.411
299.409
299.409
299.408
299.408
299.407
299.407
299.406
299.406
299.405
299.405
299.404
299.403
299.402
299.401
299.401
299.4
299.4
299.398
299.399
299.398
299.398
299.396
299.396
299.395
299.395
299.393
299.393
299.391
299.39
299.388
299.386
299.384
299.382
299.379
299.377
299.373
299.371
299.366
299.364
299.359
299.358
299.352
299.351
299.345
299.343
299.337
299.336
299.33
299.329
299.322
299.321
299.314
299.313
299.306
299.304
299.297
299.294
299.289
299.285
299.281
299.276
299.273
299.267
299.264
299.258
299.255
299.25
299.246
299.241
299.237
299.233
299.228
299.224
299.22
299.215
299.211
299.208
299.203
299.2
299.196
299.193
299.19
299.187
299.184
299.181
299.178
299.175
299.172
299.169
299.166
299.164
299.161
299.159
299.157
299.154
299.153
299.151
299.15
299.148
299.147
299.145
299.145
299.143
299.142
299.14
299.139
299.137
299.136
299.134
299.133
299.131
299.129
299.127
299.126
299.124
299.123
299.121
299.12
299.118
299.117
299.115
299.113
299.111
299.109
299.107
299.105
299.102
299.1
299.098
299.096
299.094
299.092
299.09
299.089
299.087
299.086
299.085
299.083
299.082
299.081
299.08
299.078
299.078
299.077
299.076
299.076
299.075
299.075
299.074
299.074
299.074
299.075
299.076
299.077
299.079
299.081
299.082
299.085
299.087
299.091
299.093
299.098
299.1
299.106
299.109
299.117
299.12
299.129
299.132
299.142
299.144
299.154
299.159
299.167
299.173
299.179
299.187
299.193
299.203
299.209
299.221
299.227
299.239
299.246
299.258
299.265
299.277
299.283
299.295
299.302
299.313
299.321
299.331
299.34
299.35
299.358
299.368
299.376
299.385
299.393
299.401
299.408
299.414
299.419
299.423
299.424
299.423
299.42
299.414
299.402
299.389
299.366
299.34
299.307
299.263
299.22
299.151
299.097
299.002
298.929
298.812
298.725
298.583
298.483
298.317
298.196
298.01
297.858
297.664
297.468
297.277
297.052
296.869
296.631
296.465
296.223
296.055
295.79
295.623
295.369
295.202
294.956
294.794
294.541
294.398
294.174
294.021
293.807
293.683
293.484
293.367
293.194
293.095
292.947
292.868
292.737
292.681
292.58
292.539
292.458
292.428
292.365
292.337
292.298
292.273
292.259
292.256
292.261
292.263
292.277
292.281
292.302
292.308
292.337
292.348
292.384
292.398
292.441
292.462
292.506
292.536
292.583
292.628
292.676
292.737
292.786
292.858
292.905
292.987
293.035
293.12
293.17
293.252
293.311
293.382
293.451
293.508
293.583
293.625
293.7
293.737
293.804
293.839
293.895
293.929
293.973
294.006
294.039
294.068
294.094
294.118
294.138
294.157
294.173
294.187
294.198
294.206
294.21
294.212
294.212
294.21
294.206
294.201
294.195
294.187
294.177
294.166
294.153
294.136
294.118
294.096
294.074
294.045
294.021
293.989
293.965
293.928
293.906
293.862
293.844
293.792
293.778
293.724
293.715
293.663
293.651
293.599
293.588
293.542
293.533
293.488
293.472
293.431
293.411
293.374
293.35
293.318
293.29
293.261
293.232
293.206
293.178
293.153
293.128
293.106
293.083
293.063
293.042
293.027
293.009
292.999
292.985
292.979
292.971
292.968
292.966
292.969
292.971
292.981
292.986
293.003
293.011
293.031
293.038
293.058
293.064
293.081
293.086
293.101
293.108
293.121
293.131
293.141
293.155
293.16
293.178
293.18
293.2
293.195
293.219
293.221
293.25
293.247
293.246
293.216
293.191
298.975
298.975
298.976
298.978
298.978
298.978
298.977
298.973
298.965
298.944
298.912
298.849
298.793
298.685
298.616
298.487
298.392
298.314
298.254
298.249
298.198
298.196
298.118
298.094
298.13
298.109
298.176
298.188
298.287
298.342
298.481
298.586
298.744
298.87
299.009
299.117
299.214
299.287
299.341
299.378
299.402
299.417
299.425
299.43
299.433
299.434
299.436
299.436
299.436
299.434
299.433
299.429
299.43
299.428
299.429
299.427
299.427
299.425
299.426
299.425
299.427
299.425
299.425
299.422
299.422
299.42
299.421
299.418
299.418
299.415
299.416
299.413
299.412
299.409
299.408
299.405
299.404
299.402
299.401
299.399
299.399
299.397
299.398
299.396
299.396
299.395
299.395
299.393
299.393
299.391
299.391
299.39
299.389
299.388
299.387
299.386
299.386
299.385
299.385
299.384
299.384
299.383
299.384
299.383
299.382
299.382
299.38
299.38
299.379
299.379
299.378
299.378
299.377
299.377
299.376
299.376
299.375
299.375
299.374
299.374
299.372
299.371
299.37
299.369
299.367
299.366
299.363
299.362
299.359
299.357
299.353
299.351
299.346
299.344
299.339
299.337
299.331
299.33
299.323
299.323
299.316
299.315
299.308
299.308
299.3
299.3
299.292
299.292
299.284
299.282
299.276
299.272
299.268
299.263
299.259
299.254
299.251
299.245
299.243
299.237
299.234
299.229
299.226
299.221
299.217
299.213
299.208
299.204
299.2
299.196
299.191
299.188
299.184
299.181
299.177
299.175
299.172
299.17
299.167
299.164
299.162
299.159
299.156
299.154
299.151
299.149
299.147
299.144
299.143
299.14
299.139
299.137
299.136
299.135
299.134
299.133
299.132
299.131
299.13
299.129
299.128
299.126
299.125
299.123
299.122
299.12
299.118
299.117
299.115
299.113
299.112
299.11
299.108
299.107
299.105
299.103
299.101
299.099
299.097
299.095
299.092
299.09
299.088
299.086
299.084
299.082
299.08
299.078
299.077
299.075
299.074
299.073
299.071
299.07
299.068
299.067
299.066
299.065
299.065
299.064
299.063
299.063
299.062
299.062
299.061
299.062
299.062
299.063
299.064
299.066
299.068
299.07
299.073
299.075
299.079
299.081
299.086
299.088
299.095
299.098
299.106
299.109
299.119
299.122
299.132
299.136
299.145
299.15
299.157
299.164
299.17
299.179
299.185
299.195
299.201
299.213
299.219
299.231
299.238
299.25
299.257
299.269
299.276
299.287
299.294
299.305
299.312
299.323
299.331
299.341
299.349
299.359
299.366
299.375
299.382
299.389
299.395
299.4
299.403
299.405
299.404
299.401
299.394
299.385
299.367
299.349
299.319
299.288
299.247
299.194
299.145
299.063
299.002
298.896
298.816
298.691
298.591
298.446
298.33
298.158
298.013
297.824
297.64
297.45
297.238
297.053
296.83
296.654
296.425
296.249
296.016
295.84
295.591
295.415
295.16
294.989
294.748
294.589
294.352
294.204
293.981
293.842
293.635
293.516
293.332
293.221
293.061
292.969
292.829
292.757
292.645
292.6
292.51
292.473
292.405
292.376
292.326
292.3
292.274
292.259
292.256
292.256
292.262
292.266
292.283
292.292
292.315
292.326
292.355
292.373
292.406
292.431
292.467
292.499
292.541
292.582
292.628
292.681
292.73
292.793
292.845
292.915
292.971
293.046
293.105
293.18
293.242
293.312
293.38
293.442
293.515
293.567
293.639
293.683
293.749
293.788
293.845
293.882
293.929
293.964
294.001
294.032
294.061
294.087
294.11
294.132
294.15
294.166
294.181
294.192
294.2
294.205
294.207
294.206
294.204
294.201
294.196
294.189
294.18
294.17
294.158
294.143
294.126
294.105
294.083
294.057
294.032
294
293.973
293.937
293.912
293.87
293.845
293.8
293.78
293.731
293.716
293.666
293.649
293.603
293.592
293.544
293.534
293.487
293.474
293.429
293.412
293.372
293.351
293.316
293.29
293.259
293.231
293.203
293.175
293.149
293.122
293.099
293.074
293.054
293.032
293.016
292.997
292.985
292.97
292.963
292.953
292.949
292.945
292.945
292.946
292.952
292.957
292.97
292.978
292.996
293.005
293.023
293.032
293.049
293.056
293.07
293.077
293.089
293.098
293.11
293.122
293.128
293.144
293.146
293.165
293.165
293.183
293.179
293.203
293.207
293.223
293.212
293.194
293.169
298.98
298.98
298.98
298.979
298.977
298.975
298.97
298.965
298.95
298.937
298.886
298.844
298.718
298.62
298.434
298.266
298.11
297.966
297.882
297.801
297.809
297.682
297.67
297.516
297.5
297.513
297.499
297.581
297.592
297.742
297.826
298.034
298.197
298.43
298.617
298.822
298.984
299.127
299.231
299.308
299.358
299.389
299.407
299.418
299.422
299.425
299.426
299.427
299.426
299.426
299.423
299.422
299.419
299.419
299.417
299.416
299.413
299.414
299.412
299.413
299.411
299.411
299.408
299.407
299.405
299.406
299.403
299.402
299.399
299.399
299.397
299.397
299.393
299.393
299.39
299.389
299.386
299.386
299.383
299.383
299.382
299.382
299.38
299.38
299.379
299.379
299.378
299.377
299.376
299.376
299.374
299.374
299.372
299.372
299.37
299.37
299.369
299.369
299.368
299.368
299.367
299.367
299.367
299.367
299.367
299.366
299.365
299.365
299.364
299.364
299.364
299.363
299.363
299.362
299.362
299.361
299.361
299.36
299.36
299.358
299.358
299.357
299.356
299.355
299.354
299.353
299.351
299.349
299.348
299.344
299.343
299.338
299.337
299.331
299.33
299.324
299.323
299.316
299.316
299.308
299.308
299.301
299.301
299.293
299.293
299.285
299.285
299.277
299.276
299.269
299.266
299.261
299.256
299.252
299.247
299.244
299.238
299.236
299.23
299.228
299.223
299.22
299.215
299.212
299.207
299.204
299.199
299.195
299.191
299.186
299.182
299.178
299.175
299.171
299.169
299.166
299.164
299.161
299.159
299.157
299.155
299.152
299.15
299.147
299.145
299.143
299.14
299.138
299.136
299.135
299.133
299.132
299.131
299.13
299.129
299.128
299.128
299.127
299.126
299.126
299.125
299.124
299.122
299.121
299.119
299.117
299.116
299.114
299.112
299.111
299.109
299.107
299.106
299.104
299.102
299.1
299.098
299.096
299.094
299.092
299.089
299.087
299.085
299.083
299.081
299.079
299.077
299.075
299.074
299.072
299.071
299.069
299.068
299.066
299.065
299.064
299.063
299.062
299.061
299.06
299.059
299.058
299.057
299.056
299.056
299.056
299.056
299.056
299.057
299.058
299.06
299.062
299.064
299.067
299.069
299.073
299.075
299.08
299.083
299.089
299.093
299.101
299.105
299.114
299.118
299.127
299.132
299.14
299.146
299.152
299.16
299.166
299.175
299.181
299.192
299.199
299.21
299.217
299.229
299.235
299.248
299.254
299.266
299.272
299.283
299.29
299.301
299.308
299.319
299.326
299.336
299.344
299.353
299.36
299.368
299.374
299.38
299.385
299.388
299.389
299.388
299.385
299.379
299.367
299.355
299.329
299.308
299.269
299.232
299.182
299.121
299.061
298.972
298.901
298.789
298.698
298.561
298.452
298.292
298.159
297.98
297.815
297.631
297.43
297.249
297.035
296.855
296.634
296.446
296.22
296.042
295.799
295.618
295.376
295.187
294.951
294.774
294.548
294.381
294.163
294.003
293.804
293.668
293.481
293.358
293.19
293.085
292.936
292.848
292.726
292.662
292.562
292.516
292.439
292.405
292.352
292.325
292.293
292.274
292.257
292.251
292.252
292.254
292.264
292.274
292.293
292.307
292.331
292.349
292.377
292.401
292.435
292.465
292.503
292.542
292.585
292.634
292.68
292.737
292.789
292.853
292.91
292.979
293.041
293.111
293.176
293.244
293.313
293.377
293.449
293.506
293.576
293.629
293.692
293.739
293.798
293.839
293.889
293.925
293.968
294.001
294.034
294.063
294.089
294.112
294.133
294.151
294.168
294.182
294.194
294.202
294.207
294.209
294.208
294.206
294.202
294.197
294.19
294.181
294.17
294.157
294.142
294.123
294.102
294.077
294.052
294.022
293.994
293.959
293.933
293.891
293.867
293.822
293.798
293.751
293.73
293.683
293.664
293.618
293.602
293.557
293.544
293.496
293.483
293.436
293.421
293.379
293.359
293.322
293.299
293.265
293.239
293.209
293.182
293.155
293.127
293.103
293.077
293.056
293.034
293.016
292.996
292.982
292.966
292.958
292.947
292.942
292.936
292.934
292.934
292.936
292.94
292.948
292.957
292.97
292.981
292.997
293.009
293.024
293.034
293.047
293.056
293.068
293.077
293.088
293.099
293.109
293.122
293.127
293.142
293.144
293.162
293.161
293.181
293.179
293.204
293.204
293.204
293.181
293.161
298.986
298.985
298.982
298.979
298.975
298.968
298.963
298.949
298.946
298.917
298.903
298.807
298.725
298.532
298.297
298.077
297.851
297.684
297.514
297.425
297.27
297.267
297.001
296.973
296.806
296.834
296.804
296.777
296.881
296.901
297.108
297.236
297.517
297.748
298.062
298.329
298.613
298.839
299.036
299.176
299.278
299.341
299.38
299.401
299.413
299.418
299.42
299.421
299.421
299.42
299.419
299.415
299.414
299.411
299.409
299.406
299.406
299.403
299.403
299.401
299.401
299.399
299.398
299.395
299.395
299.392
299.392
299.389
299.388
299.386
299.385
299.382
299.382
299.379
299.378
299.375
299.375
299.372
299.372
299.37
299.37
299.369
299.369
299.368
299.368
299.367
299.367
299.365
299.365
299.363
299.363
299.362
299.361
299.36
299.359
299.358
299.358
299.357
299.357
299.356
299.356
299.356
299.356
299.355
299.355
299.355
299.355
299.354
299.354
299.353
299.353
299.353
299.352
299.352
299.351
299.351
299.35
299.35
299.349
299.349
299.348
299.348
299.347
299.346
299.345
299.344
299.342
299.341
299.339
299.337
299.333
299.332
299.327
299.326
299.32
299.319
299.313
299.312
299.305
299.305
299.298
299.297
299.29
299.29
299.282
299.282
299.274
299.273
299.266
299.264
299.258
299.254
299.25
299.245
299.241
299.236
299.233
299.228
299.225
299.221
299.218
299.213
299.21
299.206
299.202
299.198
299.194
299.19
299.185
299.181
299.177
299.173
299.17
299.167
299.164
299.161
299.159
299.157
299.155
299.154
299.151
299.149
299.147
299.145
299.143
299.14
299.138
299.136
299.134
299.133
299.131
299.13
299.129
299.128
299.127
299.127
299.126
299.126
299.126
299.125
299.124
299.123
299.122
299.121
299.119
299.117
299.116
299.114
299.112
299.111
299.109
299.107
299.106
299.104
299.103
299.101
299.099
299.097
299.094
299.092
299.09
299.087
299.085
299.083
299.081
299.079
299.077
299.076
299.074
299.073
299.071
299.07
299.068
299.067
299.065
299.064
299.063
299.062
299.061
299.06
299.059
299.058
299.057
299.056
299.055
299.055
299.054
299.055
299.055
299.056
299.057
299.059
299.061
299.063
299.065
299.068
299.071
299.074
299.079
299.082
299.088
299.093
299.1
299.105
299.113
299.118
299.126
299.132
299.139
299.146
299.152
299.16
299.166
299.175
299.181
299.192
299.199
299.211
299.217
299.229
299.236
299.247
299.253
299.265
299.271
299.282
299.288
299.299
299.306
299.317
299.324
299.334
299.341
299.349
299.355
299.363
299.368
299.372
299.375
299.376
299.375
299.372
299.364
299.356
299.336
299.322
299.288
299.263
299.214
299.17
299.109
299.04
298.968
298.874
298.788
298.667
298.563
298.416
298.292
298.122
297.972
297.792
297.612
297.431
297.234
297.046
296.836
296.65
296.432
296.242
296.005
295.815
295.58
295.388
295.156
294.97
294.741
294.558
294.341
294.17
293.967
293.812
293.626
293.487
293.317
293.195
293.044
292.94
292.807
292.726
292.615
292.557
292.468
292.43
292.367
292.343
292.307
292.289
292.268
292.253
292.246
292.244
292.247
292.254
292.27
292.284
292.306
292.325
292.35
292.375
292.405
292.435
292.47
292.506
292.547
292.593
292.636
292.691
292.739
292.799
292.853
292.918
292.978
293.047
293.111
293.18
293.249
293.312
293.384
293.443
293.513
293.569
293.635
293.687
293.747
293.793
293.847
293.887
293.934
293.969
294.007
294.038
294.068
294.094
294.117
294.139
294.157
294.174
294.188
294.2
294.208
294.213
294.215
294.215
294.212
294.208
294.202
294.194
294.184
294.173
294.159
294.143
294.124
294.101
294.076
294.047
294.019
293.986
293.957
293.919
293.891
293.849
293.822
293.778
293.751
293.707
293.683
293.639
293.618
293.575
293.557
293.511
293.495
293.447
293.432
293.389
293.371
293.331
293.31
293.274
293.25
293.218
293.193
293.164
293.137
293.112
293.086
293.064
293.04
293.022
293.001
292.987
292.968
292.959
292.946
292.941
292.934
292.931
292.928
292.929
292.931
292.935
292.942
292.951
292.962
292.976
292.989
293.003
293.015
293.028
293.039
293.051
293.061
293.072
293.083
293.094
293.105
293.114
293.125
293.133
293.146
293.149
293.165
293.168
293.188
293.194
293.208
293.197
293.178
293.157
298.993
298.99
298.985
298.979
298.97
298.964
298.949
298.946
298.928
298.93
298.884
298.834
298.695
298.465
298.23
297.941
297.722
297.49
297.304
297.096
296.973
296.709
296.634
296.3
296.266
296.12
296.12
296.067
296.037
296.161
296.209
296.463
296.638
296.98
297.286
297.686
298.043
298.41
298.706
298.956
299.132
299.255
299.33
299.374
299.396
299.407
299.412
299.414
299.414
299.414
299.413
299.412
299.409
299.407
299.403
299.402
299.399
299.398
299.395
299.395
299.393
299.392
299.389
299.388
299.386
299.385
299.382
299.381
299.378
299.378
299.375
299.374
299.371
299.371
299.368
299.368
299.365
299.365
299.363
299.363
299.361
299.361
299.36
299.36
299.359
299.359
299.358
299.357
299.356
299.356
299.354
299.354
299.352
299.352
299.35
299.35
299.349
299.349
299.348
299.348
299.348
299.348
299.347
299.348
299.347
299.347
299.347
299.347
299.346
299.346
299.345
299.345
299.344
299.344
299.344
299.343
299.343
299.342
299.342
299.342
299.341
299.341
299.34
299.339
299.339
299.338
299.337
299.335
299.334
299.331
299.329
299.325
299.324
299.319
299.318
299.312
299.311
299.305
299.303
299.297
299.296
299.29
299.289
299.282
299.281
299.274
299.273
299.266
299.264
299.258
299.254
299.249
299.245
299.241
299.236
299.233
299.228
299.225
299.221
299.218
299.214
299.211
299.207
299.203
299.199
299.196
299.191
299.187
299.183
299.179
299.175
299.171
299.167
299.164
299.162
299.159
299.158
299.156
299.154
299.152
299.15
299.148
299.146
299.144
299.142
299.14
299.138
299.136
299.134
299.133
299.131