/*--------------------------------*- C++ -*----------------------------------*\
| =========                 |                                                 |
| \\      /  F ield         | OpenFOAM: The Open Source CFD Toolbox           |
|  \\    /   O peration     | Version:  v1812                                 |
|   \\  /    A nd           | Web:      www.OpenFOAM.com                      |
|    \\/     M anipulation  |                                                 |
\*---------------------------------------------------------------------------*/
FoamFile
{
    version     2.0;
    format      ascii;
    class       volVectorField;
    location    "0.1";
    object      U;
}
// * * * * * * * * * * * * * * * * * * * * * * * * * * * * * * * * * * * * * //

dimensions      [0 1 -1 0 0 0 0];


internalField   nonuniform List<vector> 
20400
(
(-0.0136368 0.00779619 0)
(-0.0694732 0.0156503 0)
(-0.159185 0.0119611 0)
(-0.287722 0.0191334 0)
(-0.457274 0.0199417 0)
(-0.680531 0.0255614 0)
(-0.944926 0.0328118 0)
(-1.29195 0.0429137 0)
(-1.68826 0.0499639 0)
(-2.19527 0.0680974 0)
(-2.75428 0.069093 0)
(-3.43409 0.110011 0)
(-4.15883 0.123587 0)
(-4.99304 0.181051 0)
(-5.84859 0.184207 0)
(-6.74103 0.183416 0)
(-7.56964 0.165152 0)
(-8.30379 0.135742 0)
(-8.85472 0.0835224 0)
(-9.21892 0.0229948 0)
(-9.38745 -0.0418595 0)
(-9.4161 -0.081266 0)
(-9.29839 -0.124232 0)
(-8.98486 -0.0983791 0)
(-8.5293 0.0775937 0)
(-7.98387 0.351265 0)
(-7.32463 0.498793 0)
(-6.58221 0.558958 0)
(-5.76119 0.499456 0)
(-4.87614 0.369307 0)
(-3.96257 0.17591 0)
(-3.0485 -0.0852567 0)
(-2.14602 -0.368419 0)
(-1.26106 -0.55364 0)
(-0.439129 -0.512026 0)
(0.242404 -0.303234 0)
(0.805111 -0.110302 0)
(1.30098 -0.0453237 0)
(1.76413 -0.0425194 0)
(2.17904 -0.0564399 0)
(2.57852 -0.0343174 0)
(2.90887 -0.0470799 0)
(3.23778 -0.0221266 0)
(3.48015 -0.0433362 0)
(3.74516 -0.0140725 0)
(3.91353 -0.0346614 0)
(4.12217 -0.00260883 0)
(4.23133 -0.0241719 0)
(4.39269 -0.000230817 0)
(4.44883 -0.0226371 0)
(4.55823 -0.00320964 0)
(4.57366 -0.020283 0)
(4.64424 -0.0053603 0)
(4.64416 -0.00923672 0)
(4.69042 -5.72261e-05 0)
(4.68689 -0.00109827 0)
(4.71426 0.00250626 0)
(4.70448 0.00233636 0)
(4.72168 -0.000714433 0)
(4.71743 -0.00023937 0)
(4.72877 -0.00306159 0)
(4.72688 -0.00271639 0)
(4.72882 -0.00235825 0)
(4.72 -0.00231487 0)
(4.72018 -0.00212234 0)
(4.7098 -0.000263285 0)
(4.70874 -0.00156695 0)
(4.69961 -0.000966536 0)
(4.69778 -0.00152925 0)
(4.68937 -0.0014644 0)
(4.68705 -0.00164623 0)
(4.67924 -0.00242139 0)
(4.67705 -0.00222011 0)
(4.67062 -0.00190488 0)
(4.66827 -0.0023247 0)
(4.66273 -0.00203749 0)
(4.66062 -0.00234644 0)
(4.65582 -0.00223102 0)
(4.65395 -0.00253349 0)
(4.64994 -0.00244236 0)
(4.64833 -0.00266652 0)
(4.64529 -0.00266218 0)
(4.6441 -0.00280956 0)
(4.64201 -0.00279217 0)
(4.64132 -0.00288471 0)
(4.64014 -0.0029177 0)
(4.63992 -0.00295545 0)
(4.6394 -0.00300316 0)
(4.63992 -0.00307263 0)
(4.63996 -0.0030811 0)
(4.6417 -0.00319433 0)
(4.64182 -0.00314392 0)
(4.64473 -0.0033176 0)
(4.64488 -0.00320764 0)
(4.64892 -0.00339011 0)
(4.64916 -0.00326504 0)
(4.6542 -0.00348368 0)
(4.65466 -0.00331157 0)
(4.6604 -0.00357404 0)
(4.66116 -0.0032254 0)
(4.66685 -0.00390709 0)
(4.66881 -0.0031752 0)
(4.67317 -0.00423122 0)
(4.67738 -0.00321688 0)
(4.67981 -0.00424286 0)
(4.68692 -0.00346092 0)
(4.68811 -0.0037534 0)
(4.6964 -0.00382773 0)
(4.6973 -0.00367823 0)
(4.70622 -0.00405543 0)
(4.7074 -0.00375548 0)
(4.71655 -0.00414853 0)
(4.71807 -0.00382188 0)
(4.72742 -0.00422819 0)
(4.72906 -0.00388088 0)
(4.73858 -0.00442909 0)
(4.74067 -0.00391789 0)
(4.74952 -0.0045606 0)
(4.75239 -0.00399143 0)
(4.75998 -0.00455221 0)
(4.76384 -0.00410375 0)
(4.77032 -0.00451847 0)
(4.77488 -0.00426363 0)
(4.78067 -0.00447688 0)
(4.78518 -0.00440714 0)
(4.79059 -0.00442418 0)
(4.79445 -0.00449607 0)
(4.79966 -0.00444905 0)
(4.80273 -0.00447992 0)
(4.80757 -0.0045211 0)
(4.81012 -0.00448035 0)
(4.81435 -0.00458636 0)
(4.81647 -0.00434799 0)
(4.81994 -0.00461508 0)
(4.82178 -0.00422406 0)
(4.82465 -0.00458731 0)
(4.82633 -0.00415791 0)
(4.82873 -0.00454077 0)
(4.83023 -0.00410425 0)
(4.83234 -0.00448208 0)
(4.8336 -0.00406991 0)
(4.83543 -0.00444225 0)
(4.83645 -0.00403976 0)
(4.83801 -0.00437697 0)
(4.83874 -0.00399769 0)
(4.83998 -0.00425321 0)
(4.84048 -0.00394174 0)
(4.84145 -0.00407954 0)
(4.84171 -0.00387999 0)
(4.84208 -0.00395804 0)
(4.84243 -0.00379606 0)
(4.84205 -0.00369581 0)
(4.84237 -0.00366306 0)
(4.84162 -0.00353133 0)
(4.84179 -0.00364472 0)
(4.8409 -0.00342583 0)
(4.84093 -0.00356426 0)
(4.84007 -0.0033052 0)
(4.84001 -0.00338479 0)
(4.83935 -0.00315139 0)
(4.83934 -0.00314936 0)
(4.83903 -0.00292307 0)
(4.8389 -0.00273022 0)
(4.83893 -0.00256909 0)
(4.83912 -0.00247755 0)
(4.83947 -0.00227813 0)
(4.84001 -0.00230103 0)
(4.84071 -0.00202656 0)
(4.84147 -0.00214522 0)
(4.84258 -0.00181459 0)
(4.84341 -0.00193711 0)
(4.845 -0.00156035 0)
(4.84575 -0.00167962 0)
(4.84778 -0.00127288 0)
(4.84837 -0.00123228 0)
(4.85091 -0.00098436 0)
(4.85149 -0.000704966 0)
(4.85433 -0.000743402 0)
(4.85516 -0.000219192 0)
(4.85811 -0.000526477 0)
(4.85945 0.000128112 0)
(4.86237 -0.000321545 0)
(4.86458 0.000466291 0)
(4.86718 -9.91242e-05 0)
(4.87069 0.000768018 0)
(4.87282 0.000221513 0)
(4.87777 0.0011137 0)
(4.87943 0.00066772 0)
(4.88569 0.0014616 0)
(4.8871 0.00116988 0)
(4.89433 0.0017651 0)
(4.89572 0.00174929 0)
(4.90348 0.00195919 0)
(4.90525 0.00230882 0)
(4.91307 0.00219137 0)
(4.91557 0.00276168 0)
(4.92303 0.0024901 0)
(4.92638 0.00311823 0)
(4.93326 0.00283726 0)
(4.93735 0.00344654 0)
(4.94358 0.00320028 0)
(4.94816 0.00379388 0)
(4.95381 0.00357381 0)
(4.95868 0.00414047 0)
(4.96391 0.00397449 0)
(4.96887 0.00452469 0)
(4.97377 0.00439768 0)
(4.97865 0.00490904 0)
(4.98325 0.00483971 0)
(4.98791 0.00532962 0)
(4.99219 0.00528109 0)
(4.99653 0.00573082 0)
(5.00048 0.0057464 0)
(5.00445 0.00617996 0)
(5.00803 0.00619655 0)
(5.01158 0.00662146 0)
(5.01474 0.00666753 0)
(5.01782 0.00706082 0)
(5.02051 0.00710564 0)
(5.02305 0.0075067 0)
(5.02525 0.0075746 0)
(5.02727 0.00798333 0)
(5.029 0.00805636 0)
(5.03052 0.00846559 0)
(5.03179 0.00856341 0)
(5.03286 0.00899603 0)
(5.03374 0.00909839 0)
(5.03448 0.00949382 0)
(5.03508 0.00964494 0)
(5.03557 0.0100375 0)
(5.03596 0.0102119 0)
(5.03627 0.0105707 0)
(5.03651 0.0107676 0)
(5.03671 0.0111084 0)
(5.03686 0.0113824 0)
(5.03708 0.0116403 0)
(5.03717 0.0119749 0)
(5.03743 0.0122095 0)
(5.03753 0.0125742 0)
(5.03794 0.0128112 0)
(5.03816 0.013232 0)
(5.03886 0.0133591 0)
(5.03938 0.0138776 0)
(5.04037 0.0138753 0)
(5.04122 0.0145279 0)
(5.04211 0.0142595 0)
(5.04371 0.0151151 0)
(5.04472 0.0145916 0)
(5.04834 0.0156863 0)
(5.04965 0.0149969 0)
(5.05537 0.0164433 0)
(5.05629 0.0158197 0)
(5.0638 0.017086 0)
(5.06461 0.0163797 0)
(5.07409 0.0172777 0)
(5.07509 0.0166142 0)
(5.0864 0.0177076 0)
(5.08759 0.016717 0)
(5.10075 0.0178502 0)
(5.10215 0.0166599 0)
(5.11759 0.018076 0)
(5.11929 0.0169006 0)
(5.1372 0.0182958 0)
(5.13974 0.0172105 0)
(5.15822 0.0171692 0)
(5.16437 0.0191406 0)
(5.17707 0.0163199 0)
(5.19066 0.0195394 0)
(5.19798 0.0160333 0)
(5.21906 0.0190145 0)
(5.22361 0.0164806 0)
(5.24822 0.0181747 0)
(5.25186 0.0168012 0)
(5.27792 0.0172869 0)
(5.2821 0.0174985 0)
(5.30759 0.0162278 0)
(5.31477 0.0177046 0)
(5.33745 0.0157584 0)
(5.34891 0.0173321 0)
(5.36932 0.0153164 0)
(5.38412 0.0168613 0)
(5.403 0.014956 0)
(5.41991 0.0162968 0)
(5.43787 0.0146471 0)
(5.45599 0.0156817 0)
(5.47381 0.0142888 0)
(5.49273 0.0150895 0)
(5.51095 0.0138271 0)
(5.53057 0.0144361 0)
(5.54959 0.0132682 0)
(5.57005 0.0137819 0)
(5.59019 0.0126712 0)
(5.61181 0.0131214 0)
(5.6335 0.0120908 0)
(5.6568 0.0125318 0)
(5.68074 0.0116025 0)
(5.70673 0.0120468 0)
(5.73431 0.0112182 0)
(5.76519 0.0117266 0)
(5.79879 0.010968 0)
(5.83461 0.011525 0)
(5.87703 0.0107383 0)
(5.9296 0.0119319 0)
(5.98779 0.0109683 0)
(6.06158 0.0137113 0)
(6.13703 0.0109992 0)
(6.2453 0.0166344 0)
(6.33718 0.0117079 0)
(6.49448 0.0219912 0)
(6.59768 0.0127726 0)
(6.82024 0.0286705 0)
(6.93283 0.0147037 0)
(7.23518 0.0341973 0)
(7.35909 0.0192717 0)
(7.74361 0.0358158 0)
(7.88741 0.0284627 0)
(8.34316 0.0310619 0)
(8.52872 0.0474291 0)
(9.01816 0.0272924 0)
(9.28036 0.0667727 0)
(9.73806 0.0295898 0)
(10.1318 0.0879297 0)
(10.4986 0.0287929 0)
(11.0615 0.116182 0)
(11.3361 0.0325025 0)
(12.0497 0.127798 0)
(12.2567 0.0484983 0)
(13.0503 0.127132 0)
(13.2218 0.0575152 0)
(14.0534 0.106327 0)
(14.203 0.0569969 0)
(15.0498 0.0958505 0)
(15.1797 0.0652246 0)
(16.0182 0.0919671 0)
(16.1455 0.0673805 0)
(16.9602 0.0639125 0)
(17.0708 0.0607228 0)
(17.8444 0.0786864 0)
(17.9339 0.0657994 0)
(18.6513 0.0801948 0)
(18.7216 0.0635908 0)
(19.3622 0.0362301 0)
(19.4051 0.0376358 0)
(19.9566 0.0392917 0)
(19.9836 0.0452268 0)
(20.4381 0.0482956 0)
(20.4436 0.0519597 0)
(20.7962 0.0574284 0)
(20.7991 0.0427134 0)
(21.0354 0.0664294 0)
(21.0411 0.0468606 0)
(21.1729 0.0474704 0)
(21.1668 0.0385039 0)
(21.2035 0.0301505 0)
(21.1685 0.0205543 0)
(21.142 0.0184841 0)
(21.0648 0.0107218 0)
(21.0003 0.0130646 0)
(20.9001 0.0224965 0)
(20.7954 0.020648 0)
(20.6831 0.0237728 0)
(20.5478 0.0282318 0)
(20.4297 0.0238712 0)
(20.2743 0.0225035 0)
(20.1411 0.0181085 0)
(19.954 0.0181563 0)
(19.8211 0.0162371 0)
(19.6099 0.0180281 0)
(19.478 0.0172549 0)
(19.2445 0.0217956 0)
(19.11 0.0177588 0)
(18.8654 0.0264731 0)
(18.7199 0.0178349 0)
(18.4788 0.0305556 0)
(18.3099 0.0185817 0)
(18.0849 0.0324581 0)
(17.8769 0.0219874 0)
(17.6776 0.0335558 0)
(17.4251 0.0238266 0)
(17.2542 0.0330922 0)
(16.9592 0.0236866 0)
(16.811 0.0294282 0)
(16.4897 0.0225565 0)
(16.353 0.0241116 0)
(16.0314 0.024616 0)
(15.8871 0.0176374 0)
(15.5978 0.0222835 0)
(15.4319 0.0139542 0)
(15.1973 0.0216516 0)
(15.0028 0.0168532 0)
(14.8254 0.021491 0)
(14.6172 0.0200466 0)
(14.4824 0.0206718 0)
(14.2857 0.0225672 0)
(14.1763 0.0197321 0)
(14.0111 0.0227037 0)
(13.9144 0.018594 0)
(13.7894 0.0198141 0)
(13.7019 0.0182983 0)
(13.6142 0.0186832 0)
(13.54 0.0172325 0)
(13.483 0.0179596 0)
(13.4278 0.0189776 0)
(13.3943 0.0206056 0)
(13.36 0.021549 0)
(13.3444 0.0233362 0)
(13.329 0.0246164 0)
(13.3268 0.0270059 0)
(13.3289 0.0286893 0)
(13.3428 0.0296354 0)
(13.3645 0.0307872 0)
(13.397 0.0321771 0)
(13.4362 0.0334771 0)
(13.4867 0.0340541 0)
(13.5412 0.0342311 0)
(13.6058 0.0341422 0)
(13.6758 0.0364309 0)
(13.7572 0.0355146 0)
(13.8446 0.0384257 0)
(13.9412 0.0370467 0)
(14.0428 0.0397294 0)
(14.1509 0.0400358 0)
(14.2669 0.0425417 0)
(14.385 0.0441466 0)
(14.5171 0.0486998 0)
(14.6422 0.0456388 0)
(14.789 0.0523003 0)
(14.9136 0.0404975 0)
(15.0744 0.0502573 0)
(15.1961 0.0385429 0)
(15.3679 0.0456904 0)
(15.4852 0.036793 0)
(15.6619 0.0429476 0)
(15.7726 0.0383498 0)
(15.9473 0.0416105 0)
(16.0519 0.0409305 0)
(16.2185 0.0403657 0)
(16.3176 0.0417694 0)
(16.4708 0.0364312 0)
(16.564 0.0406712 0)
(16.7021 0.0335107 0)
(16.7929 0.0410381 0)
(16.9123 0.0336729 0)
(17 0.0428016 0)
(17.1038 0.0361655 0)
(17.185 0.0428112 0)
(17.2711 0.0377878 0)
(17.3428 0.0421519 0)
(17.411 0.0391076 0)
(17.4706 0.0412179 0)
(17.5217 0.0394723 0)
(17.5667 0.0396511 0)
(17.6009 0.038746 0)
(17.6289 0.0377009 0)
(17.6458 0.0371572 0)
(17.6543 0.0357885 0)
(17.6537 0.0341371 0)
(17.6447 0.0327575 0)
(17.6249 0.0323821 0)
(17.5948 0.0308964 0)
(17.553 0.0296569 0)
(17.5025 0.0278482 0)
(17.4388 0.0264082 0)
(17.37 0.0244238 0)
(17.2846 0.0233227 0)
(17.1977 0.0209878 0)
(17.0898 0.0197453 0)
(16.9852 0.0180549 0)
(16.8554 0.0180306 0)
(16.7334 0.0154533 0)
(16.5827 0.0171786 0)
(16.4461 0.0142661 0)
(16.2782 0.0148882 0)
(16.1289 0.0115855 0)
(15.9482 0.0118929 0)
(15.7874 0.00768008 0)
(15.6 0.00923379 0)
(15.4343 0.00667127 0)
(15.2464 0.00757815 0)
(15.0799 0.00366928 0)
(14.8956 0.00569601 0)
(14.7333 0.00220939 0)
(14.5582 0.00394034 0)
(14.4034 0.00117062 0)
(14.2429 0.00283056 0)
(14.096 0.00044428 0)
(13.9558 0.00273653 0)
(13.8134 0.000529019 0)
(13.7019 0.00442552 0)
(13.5615 0.00017643 0)
(13.485 0.00767288 0)
(13.3456 0.00111252 0)
(13.3019 0.0108741 0)
(13.171 0.00669763 0)
(13.1469 0.012607 0)
(13.0447 0.0140375 0)
(13.0294 0.0113738 0)
(12.9668 0.0197044 0)
(12.9512 0.0189173 0)
(12.9289 0.0246289 0)
(-0.0387018 0.072082 0)
(-0.223217 0.166634 0)
(-0.511115 0.223163 0)
(-0.879388 0.307207 0)
(-1.36594 0.376712 0)
(-1.93082 0.456874 0)
(-2.62776 0.551776 0)
(-3.39489 0.653526 0)
(-4.32267 0.771157 0)
(-5.29576 0.879883 0)
(-6.42968 0.999852 0)
(-7.55587 1.07698 0)
(-8.79086 1.1603 0)
(-9.95247 1.19543 0)
(-11.117 1.20778 0)
(-12.1209 1.15544 0)
(-13.0095 1.02973 0)
(-13.6856 0.818486 0)
(-14.157 0.565713 0)
(-14.3975 0.313645 0)
(-14.391 0.0993867 0)
(-14.1569 0.00598959 0)
(-13.7741 -0.201197 0)
(-13.1795 -0.44028 0)
(-12.3846 -0.61981 0)
(-11.4333 -0.843641 0)
(-10.3172 -1.02128 0)
(-9.09228 -1.21913 0)
(-7.77425 -1.38708 0)
(-6.39406 -1.51941 0)
(-4.97652 -1.59209 0)
(-3.56943 -1.60892 0)
(-2.24504 -1.56237 0)
(-1.05652 -1.44497 0)
(0.0334847 -1.2988 0)
(1.11132 -1.15034 0)
(2.19519 -1.00281 0)
(3.25209 -0.877393 0)
(4.20671 -0.766829 0)
(5.0833 -0.677717 0)
(5.82745 -0.608739 0)
(6.53668 -0.534138 0)
(7.09321 -0.472208 0)
(7.6663 -0.402075 0)
(8.06339 -0.358682 0)
(8.52731 -0.303922 0)
(8.79542 -0.275033 0)
(9.17056 -0.224049 0)
(9.33028 -0.199177 0)
(9.62364 -0.138978 0)
(9.69266 -0.124158 0)
(9.91778 -0.0745826 0)
(9.93208 -0.0778979 0)
(10.1082 -0.0566227 0)
(10.1091 -0.0613403 0)
(10.2297 -0.0472848 0)
(10.2285 -0.0450912 0)
(10.3101 -0.0375494 0)
(10.308 -0.0406581 0)
(10.3707 -0.0385737 0)
(10.3686 -0.0378462 0)
(10.4092 -0.0317957 0)
(10.4048 -0.0283693 0)
(10.4286 -0.0260989 0)
(10.4197 -0.0254962 0)
(10.4333 -0.0264512 0)
(10.4303 -0.026876 0)
(10.4308 -0.0270662 0)
(10.4295 -0.0275184 0)
(10.4282 -0.0278892 0)
(10.426 -0.0280864 0)
(10.4254 -0.0282913 0)
(10.4184 -0.0302031 0)
(10.4185 -0.0301244 0)
(10.4124 -0.0312182 0)
(10.4124 -0.0315788 0)
(10.4064 -0.0325539 0)
(10.4063 -0.0328325 0)
(10.4008 -0.0337416 0)
(10.4005 -0.0340749 0)
(10.3963 -0.0351558 0)
(10.396 -0.0355246 0)
(10.3931 -0.0364918 0)
(10.393 -0.0367849 0)
(10.3914 -0.0375706 0)
(10.3916 -0.037961 0)
(10.3911 -0.0384003 0)
(10.3923 -0.0390495 0)
(10.3923 -0.0392943 0)
(10.3952 -0.0400087 0)
(10.3953 -0.0401908 0)
(10.3998 -0.0408199 0)
(10.4 -0.0409539 0)
(10.4062 -0.0415192 0)
(10.4064 -0.0417163 0)
(10.4142 -0.0422488 0)
(10.4146 -0.042447 0)
(10.4238 -0.042891 0)
(10.4241 -0.0431463 0)
(10.4348 -0.043519 0)
(10.4356 -0.0440589 0)
(10.4452 -0.0438096 0)
(10.4491 -0.044718 0)
(10.4542 -0.0443156 0)
(10.4638 -0.0456249 0)
(10.4652 -0.0453833 0)
(10.4785 -0.0464493 0)
(10.479 -0.0461806 0)
(10.4934 -0.0471025 0)
(10.4935 -0.047143 0)
(10.5082 -0.0479366 0)
(10.5091 -0.0480799 0)
(10.5237 -0.0488449 0)
(10.5245 -0.0488824 0)
(10.5402 -0.0496405 0)
(10.5404 -0.0498663 0)
(10.5561 -0.0504283 0)
(10.5571 -0.0507419 0)
(10.5707 -0.051227 0)
(10.5736 -0.0516524 0)
(10.5843 -0.052131 0)
(10.5893 -0.0526795 0)
(10.598 -0.0532263 0)
(10.6038 -0.0536986 0)
(10.6116 -0.0542806 0)
(10.6167 -0.054574 0)
(10.6242 -0.0552587 0)
(10.6279 -0.0553579 0)
(10.6351 -0.0560799 0)
(10.6377 -0.0561674 0)
(10.6441 -0.0568459 0)
(10.6461 -0.0567146 0)
(10.6513 -0.0574994 0)
(10.6529 -0.0571617 0)
(10.6568 -0.0581167 0)
(10.6583 -0.0577494 0)
(10.6612 -0.0586303 0)
(10.6625 -0.0582579 0)
(10.6648 -0.0590823 0)
(10.6656 -0.0588009 0)
(10.6673 -0.059574 0)
(10.6681 -0.0593712 0)
(10.6692 -0.060038 0)
(10.6697 -0.0599024 0)
(10.6704 -0.06041 0)
(10.6707 -0.0602687 0)
(10.6709 -0.0607236 0)
(10.6706 -0.0606367 0)
(10.6705 -0.0611744 0)
(10.67 -0.0609539 0)
(10.6685 -0.0613014 0)
(10.6685 -0.0612304 0)
(10.6659 -0.0612696 0)
(10.6662 -0.0615053 0)
(10.6633 -0.0612794 0)
(10.6635 -0.0616166 0)
(10.6607 -0.0612855 0)
(10.6607 -0.0616059 0)
(10.6582 -0.0612561 0)
(10.6586 -0.0614601 0)
(10.6561 -0.0609249 0)
(10.656 -0.0609313 0)
(10.6552 -0.0606569 0)
(10.6548 -0.0604002 0)
(10.6547 -0.0600945 0)
(10.6548 -0.0598094 0)
(10.6553 -0.0593941 0)
(10.6559 -0.0590112 0)
(10.6572 -0.0585674 0)
(10.6581 -0.0580639 0)
(10.6603 -0.0576656 0)
(10.6612 -0.0570048 0)
(10.6642 -0.0565557 0)
(10.665 -0.0557863 0)
(10.6689 -0.0554548 0)
(10.6697 -0.0546435 0)
(10.6742 -0.0542709 0)
(10.675 -0.0534084 0)
(10.68 -0.0528962 0)
(10.6813 -0.0519829 0)
(10.6864 -0.0513464 0)
(10.6888 -0.050436 0)
(10.6932 -0.0495753 0)
(10.6979 -0.0487143 0)
(10.701 -0.0477149 0)
(10.7084 -0.0468562 0)
(10.7103 -0.0457312 0)
(10.7201 -0.0448269 0)
(10.7212 -0.0437326 0)
(10.7328 -0.0426774 0)
(10.7336 -0.0416248 0)
(10.7462 -0.0403848 0)
(10.7472 -0.0394298 0)
(10.7602 -0.0379953 0)
(10.762 -0.0370605 0)
(10.7744 -0.0355235 0)
(10.7775 -0.0344857 0)
(10.7887 -0.0329691 0)
(10.7933 -0.0318158 0)
(10.8031 -0.0303165 0)
(10.8088 -0.0290495 0)
(10.8173 -0.0275779 0)
(10.8237 -0.0262283 0)
(10.8313 -0.0248204 0)
(10.838 -0.0233575 0)
(10.8448 -0.0219447 0)
(10.8515 -0.020385 0)
(10.8578 -0.0189459 0)
(10.8642 -0.017311 0)
(10.87 -0.0158072 0)
(10.8759 -0.0141008 0)
(10.8811 -0.0125634 0)
(10.8865 -0.0108099 0)
(10.8911 -0.00922339 0)
(10.8958 -0.00744231 0)
(10.8999 -0.00584599 0)
(10.9039 -0.00410687 0)
(10.9073 -0.00244708 0)
(10.9105 -0.000688005 0)
(10.9131 0.00102202 0)
(10.9156 0.00277472 0)
(10.9175 0.0045481 0)
(10.9192 0.00633819 0)
(10.9205 0.00818253 0)
(10.9215 0.0100329 0)
(10.9221 0.0119044 0)
(10.9226 0.013783 0)
(10.9227 0.0156714 0)
(10.9229 0.0175894 0)
(10.9227 0.0195054 0)
(10.9226 0.0214666 0)
(10.9222 0.0233979 0)
(10.922 0.0253664 0)
(10.9215 0.0272753 0)
(10.9213 0.0292215 0)
(10.9209 0.0311391 0)
(10.9208 0.0331101 0)
(10.9206 0.0350268 0)
(10.9207 0.0369765 0)
(10.9206 0.0388808 0)
(10.9212 0.0408551 0)
(10.9215 0.0427989 0)
(10.9229 0.0446342 0)
(10.9238 0.0467296 0)
(10.9256 0.0481921 0)
(10.9277 0.0505275 0)
(10.9289 0.0515691 0)
(10.9339 0.0541024 0)
(10.9347 0.0552 0)
(10.9438 0.0575484 0)
(10.9444 0.059213 0)
(10.9565 0.0605447 0)
(10.9568 0.062291 0)
(10.9716 0.0634335 0)
(10.9719 0.0651193 0)
(10.9897 0.0661887 0)
(10.99 0.0680772 0)
(11.011 0.0692222 0)
(11.0116 0.0707313 0)
(11.0363 0.0720505 0)
(11.0365 0.0729887 0)
(11.0644 0.0742692 0)
(11.0648 0.0749982 0)
(11.0984 0.0765877 0)
(11.1007 0.0761548 0)
(11.1287 0.078302 0)
(11.1431 0.0773903 0)
(11.155 0.0783078 0)
(11.1874 0.078239 0)
(11.19 0.0785769 0)
(11.2311 0.0785394 0)
(11.2318 0.0788385 0)
(11.2744 0.0792245 0)
(11.275 0.0789078 0)
(11.321 0.0791404 0)
(11.323 0.0789384 0)
(11.3642 0.0786499 0)
(11.3736 0.0788116 0)
(11.4081 0.0782127 0)
(11.4254 0.0786201 0)
(11.4548 0.0774847 0)
(11.4775 0.0782192 0)
(11.504 0.077 0)
(11.5294 0.077569 0)
(11.5544 0.0761848 0)
(11.5813 0.0764145 0)
(11.6061 0.0748593 0)
(11.6337 0.0747625 0)
(11.659 0.0730633 0)
(11.6872 0.0726751 0)
(11.7135 0.0709135 0)
(11.7425 0.0703332 0)
(11.7701 0.0686064 0)
(11.8003 0.0679379 0)
(11.83 0.0663015 0)
(11.8624 0.0655729 0)
(11.8955 0.064038 0)
(11.932 0.0632901 0)
(11.9712 0.0618248 0)
(12.015 0.060985 0)
(12.0604 0.0596024 0)
(12.116 0.0590236 0)
(12.1799 0.0573568 0)
(12.2602 0.0579405 0)
(12.3415 0.056573 0)
(12.4618 0.0585031 0)
(12.5578 0.056447 0)
(12.7438 0.060003 0)
(12.8411 0.0558574 0)
(13.1223 0.0635026 0)
(13.2076 0.0557753 0)
(13.6136 0.0693615 0)
(13.6842 0.0598378 0)
(14.2267 0.077221 0)
(14.2913 0.0706564 0)
(14.9572 0.0821089 0)
(15.0488 0.0860709 0)
(15.7894 0.0852192 0)
(15.9601 0.0934346 0)
(16.6879 0.091001 0)
(17.0392 0.0899151 0)
(17.5896 0.10079 0)
(18.2584 0.081516 0)
(18.5539 0.0954883 0)
(19.5645 0.0809247 0)
(19.6705 0.0920961 0)
(20.8902 0.091991 0)
(20.9329 0.0976562 0)
(22.1947 0.10003 0)
(22.2172 0.115091 0)
(23.495 0.101673 0)
(23.5012 0.109728 0)
(24.7956 0.0889249 0)
(24.8312 0.100919 0)
(26.0414 0.0882084 0)
(26.0947 0.118775 0)
(27.2611 0.0915117 0)
(27.283 0.10439 0)
(28.4068 0.0913273 0)
(28.4028 0.110192 0)
(29.4422 0.0867238 0)
(29.4315 0.125601 0)
(30.3558 0.089606 0)
(30.3748 0.110471 0)
(31.143 0.088898 0)
(31.1601 0.0955902 0)
(31.7982 0.0867694 0)
(31.806 0.0716054 0)
(32.3177 0.0881826 0)
(32.3284 0.0542731 0)
(32.6933 0.080011 0)
(32.7053 0.0571712 0)
(32.9465 0.0793396 0)
(32.9502 0.0623904 0)
(33.0737 0.0765147 0)
(33.0609 0.0664353 0)
(33.0798 0.064298 0)
(33.0497 0.0581786 0)
(33.0141 0.0544964 0)
(32.9552 0.0475437 0)
(32.8722 0.0398271 0)
(32.8004 0.0339392 0)
(32.6752 0.0317571 0)
(32.5943 0.0284412 0)
(32.4279 0.0277546 0)
(32.3374 0.0226413 0)
(32.1211 0.0269074 0)
(32.0416 0.018964 0)
(31.7824 0.0249222 0)
(31.7056 0.0152218 0)
(31.4153 0.0184452 0)
(31.3268 0.00829165 0)
(31.027 0.00875844 0)
(30.9056 0.00297497 0)
(30.6251 -0.000642154 0)
(30.4412 0.000717851 0)
(30.2079 -0.00811289 0)
(29.9339 0.00280371 0)
(29.7604 -0.00946572 0)
(29.3968 0.0015146 0)
(29.2753 -0.00991268 0)
(28.8405 -0.0027602 0)
(28.7502 -0.00984598 0)
(28.2857 -0.00617422 0)
(28.1904 -0.0117085 0)
(27.7483 -0.00912111 0)
(27.6126 -0.00989691 0)
(27.2538 -0.00994238 0)
(27.0427 -0.00468847 0)
(26.7913 -0.00633127 0)
(26.5079 0.000973123 0)
(26.3427 -0.000689175 0)
(26.0345 0.0073162 0)
(25.914 0.0057086 0)
(25.6334 0.0124933 0)
(25.5255 0.014107 0)
(25.3012 0.0201912 0)
(25.1911 0.0265505 0)
(25.0306 0.0313851 0)
(24.9185 0.0393963 0)
(24.8115 0.0440778 0)
(24.7123 0.0515338 0)
(24.6442 0.0554228 0)
(24.5697 0.0616007 0)
(24.5295 0.0655418 0)
(24.4835 0.070805 0)
(24.4642 0.0739588 0)
(24.4445 0.0783495 0)
(24.4431 0.0822493 0)
(24.4503 0.0830304 0)
(24.474 0.0847501 0)
(24.5053 0.0866515 0)
(24.5526 0.0883328 0)
(24.6071 0.0894965 0)
(24.6762 0.0911843 0)
(24.7499 0.0926474 0)
(24.84 0.0933922 0)
(24.9368 0.0954097 0)
(25.0498 0.0967109 0)
(25.1692 0.0993771 0)
(25.3006 0.101104 0)
(25.4406 0.102402 0)
(25.5863 0.103353 0)
(25.7483 0.102756 0)
(25.9034 0.100028 0)
(26.0905 0.102743 0)
(26.2455 0.101754 0)
(26.4572 0.109996 0)
(26.6061 0.106275 0)
(26.8415 0.112492 0)
(26.9817 0.111704 0)
(27.2331 0.114616 0)
(27.364 0.116577 0)
(27.6192 0.114373 0)
(27.7438 0.11939 0)
(27.9927 0.116382 0)
(28.1126 0.123257 0)
(28.347 0.11928 0)
(28.4638 0.12713 0)
(28.6758 0.124567 0)
(28.7937 0.133649 0)
(28.9813 0.129798 0)
(29.0981 0.133681 0)
(29.2597 0.126439 0)
(29.3743 0.131757 0)
(29.5108 0.126805 0)
(29.6187 0.129576 0)
(29.7299 0.125794 0)
(29.8268 0.125497 0)
(29.9146 0.122099 0)
(29.996 0.119303 0)
(30.062 0.115589 0)
(30.1238 0.110572 0)
(30.1688 0.105749 0)
(30.2082 0.100182 0)
(30.2331 0.0942039 0)
(30.248 0.0843429 0)
(30.2494 0.0748962 0)
(30.2375 0.0682692 0)
(30.212 0.0605556 0)
(30.1751 0.0507699 0)
(30.1204 0.0418365 0)
(30.0587 0.0306796 0)
(29.9742 0.0210353 0)
(29.8894 0.0094565 0)
(29.7742 0.000778621 0)
(29.667 -0.00994694 0)
(29.5208 -0.0200198 0)
(29.3917 -0.0307909 0)
(29.2155 -0.039065 0)
(29.0664 -0.049078 0)
(28.864 -0.0557541 0)
(28.6979 -0.0640631 0)
(28.4762 -0.0699958 0)
(28.2931 -0.0772207 0)
(28.0578 -0.082364 0)
(27.8623 -0.0879268 0)
(27.6213 -0.0917621 0)
(27.4189 -0.0970678 0)
(27.1773 -0.0986079 0)
(26.9733 -0.104112 0)
(26.737 -0.104693 0)
(26.5368 -0.108297 0)
(26.3134 -0.107622 0)
(26.1178 -0.108425 0)
(25.9174 -0.106509 0)
(25.7217 -0.102698 0)
(25.5587 -0.0996036 0)
(25.3531 -0.0915034 0)
(25.2461 -0.0859681 0)
(25.0254 -0.0748524 0)
(24.9771 -0.0681101 0)
(24.7463 -0.0554722 0)
(24.7381 -0.0519398 0)
(24.5351 -0.0363096 0)
(24.5338 -0.0346091 0)
(24.3914 -0.0122336 0)
(24.3896 -0.00628398 0)
(24.312 0.0138355 0)
(24.3005 0.0214454 0)
(-0.0442685 0.21558 0)
(-0.374808 0.485399 0)
(-0.861661 0.662021 0)
(-1.4611 0.875067 0)
(-2.18467 1.05599 0)
(-3.04093 1.25741 0)
(-3.98575 1.4542 0)
(-5.06764 1.67822 0)
(-6.1979 1.88615 0)
(-7.44964 2.10022 0)
(-8.6812 2.2573 0)
(-9.97792 2.39013 0)
(-11.168 2.44109 0)
(-12.34 2.44996 0)
(-13.3398 2.31246 0)
(-14.2051 2.09434 0)
(-14.867 1.76503 0)
(-15.3547 1.33474 0)
(-15.6544 0.8445 0)
(-15.7646 0.35737 0)
(-15.6719 -0.0699144 0)
(-15.3013 -0.387221 0)
(-14.8054 -0.983799 0)
(-14.0975 -1.39449 0)
(-13.0915 -1.95691 0)
(-11.9498 -2.24493 0)
(-10.5807 -2.60337 0)
(-9.16816 -2.80508 0)
(-7.68328 -2.98542 0)
(-6.21634 -3.07377 0)
(-4.75525 -3.09597 0)
(-3.33517 -3.03034 0)
(-1.96147 -2.88019 0)
(-0.623953 -2.68755 0)
(0.709895 -2.52637 0)
(2.05616 -2.4028 0)
(3.39113 -2.25969 0)
(4.66592 -2.08399 0)
(5.85203 -1.8751 0)
(6.90991 -1.65858 0)
(7.87115 -1.46482 0)
(8.68292 -1.2837 0)
(9.4408 -1.13176 0)
(10.0441 -0.988135 0)
(10.6469 -0.869604 0)
(11.0854 -0.752909 0)
(11.5654 -0.656141 0)
(11.8676 -0.559465 0)
(12.2481 -0.471391 0)
(12.4329 -0.389443 0)
(12.7372 -0.315678 0)
(12.8314 -0.263297 0)
(13.093 -0.214557 0)
(13.1348 -0.203295 0)
(13.3503 -0.160545 0)
(13.3621 -0.15253 0)
(13.5292 -0.118703 0)
(13.5308 -0.116044 0)
(13.663 -0.105146 0)
(13.6617 -0.104577 0)
(13.7565 -0.0924129 0)
(13.7564 -0.0859792 0)
(13.8181 -0.0718994 0)
(13.8179 -0.069265 0)
(13.8596 -0.0618362 0)
(13.86 -0.0629308 0)
(13.8872 -0.0578112 0)
(13.8871 -0.0572159 0)
(13.9052 -0.0565996 0)
(13.9022 -0.0564239 0)
(13.914 -0.0570866 0)
(13.9118 -0.0553257 0)
(13.9196 -0.0562164 0)
(13.9171 -0.0571222 0)
(13.9216 -0.0577619 0)
(13.9193 -0.0583655 0)
(13.922 -0.0587206 0)
(13.9198 -0.0596686 0)
(13.921 -0.0601747 0)
(13.9194 -0.061383 0)
(13.9201 -0.0623374 0)
(13.9188 -0.0635572 0)
(13.9198 -0.064632 0)
(13.919 -0.0655747 0)
(13.9203 -0.0664085 0)
(13.9198 -0.0673306 0)
(13.9218 -0.0683852 0)
(13.9216 -0.0691585 0)
(13.9248 -0.0702207 0)
(13.9248 -0.0708429 0)
(13.9294 -0.0719045 0)
(13.9294 -0.0724877 0)
(13.9353 -0.073521 0)
(13.9353 -0.0739669 0)
(13.9427 -0.0750646 0)
(13.9428 -0.0755782 0)
(13.9515 -0.0765872 0)
(13.9515 -0.0770115 0)
(13.9616 -0.0780286 0)
(13.9617 -0.0785719 0)
(13.972 -0.0788033 0)
(13.9737 -0.0804257 0)
(13.9815 -0.0798015 0)
(13.9871 -0.0817228 0)
(13.9901 -0.0809064 0)
(14.0017 -0.0829061 0)
(14.0019 -0.0828597 0)
(14.0154 -0.083836 0)
(14.0152 -0.0842652 0)
(14.029 -0.0852743 0)
(14.0291 -0.0856253 0)
(14.0424 -0.0866208 0)
(14.0431 -0.0871594 0)
(14.0569 -0.0879182 0)
(14.057 -0.0883033 0)
(14.0712 -0.0888002 0)
(14.0714 -0.0896923 0)
(14.0848 -0.0899013 0)
(14.0861 -0.0908053 0)
(14.0968 -0.0910973 0)
(14.1 -0.0919861 0)
(14.1081 -0.0924564 0)
(14.1128 -0.0932669 0)
(14.1195 -0.0938258 0)
(14.124 -0.0943069 0)
(14.1304 -0.0949868 0)
(14.1335 -0.0951692 0)
(14.1398 -0.0959204 0)
(14.1417 -0.0958234 0)
(14.1473 -0.0967113 0)
(14.1483 -0.0964217 0)
(14.1528 -0.0971723 0)
(14.1534 -0.0969831 0)
(14.1568 -0.0975353 0)
(14.1571 -0.0974211 0)
(14.1593 -0.0980693 0)
(14.1597 -0.0979605 0)
(14.1607 -0.098499 0)
(14.161 -0.0984636 0)
(14.1618 -0.0988685 0)
(14.161 -0.0992602 0)
(14.1616 -0.0995784 0)
(14.1604 -0.0995426 0)
(14.1609 -0.100203 0)
(14.1589 -0.0999459 0)
(14.1591 -0.100549 0)
(14.1565 -0.100072 0)
(14.1566 -0.100706 0)
(14.1533 -0.100111 0)
(14.1515 -0.100283 0)
(14.151 -0.100288 0)
(14.1464 -0.1004 0)
(14.1464 -0.100517 0)
(14.1415 -0.100411 0)
(14.1417 -0.100761 0)
(14.1365 -0.100529 0)
(14.1365 -0.100912 0)
(14.1319 -0.10064 0)
(14.1323 -0.101005 0)
(14.1274 -0.100472 0)
(14.1275 -0.100575 0)
(14.1244 -0.10009 0)
(14.1236 -0.0998921 0)
(14.1221 -0.0994525 0)
(14.121 -0.0991392 0)
(14.1204 -0.0987693 0)
(14.1198 -0.0984585 0)
(14.1199 -0.0979788 0)
(14.1198 -0.0975829 0)
(14.1205 -0.0971221 0)
(14.1208 -0.0965507 0)
(14.1224 -0.095939 0)
(14.1228 -0.0952059 0)
(14.1253 -0.0943688 0)
(14.1259 -0.0935898 0)
(14.129 -0.092647 0)
(14.1297 -0.0918034 0)
(14.1333 -0.0907816 0)
(14.1343 -0.089805 0)
(14.1382 -0.0887363 0)
(14.1399 -0.0878198 0)
(14.1437 -0.0864326 0)
(14.1468 -0.0856897 0)
(14.1499 -0.0840517 0)
(14.1551 -0.0832197 0)
(14.1573 -0.0815732 0)
(14.1647 -0.08035 0)
(14.1663 -0.078899 0)
(14.1755 -0.0772828 0)
(14.1767 -0.0760257 0)
(14.187 -0.0739765 0)
(14.1883 -0.0728537 0)
(14.199 -0.0705196 0)
(14.2008 -0.0694886 0)
(14.2113 -0.0668927 0)
(14.214 -0.0658029 0)
(14.2235 -0.0630654 0)
(14.2274 -0.0617688 0)
(14.2358 -0.0590434 0)
(14.2406 -0.0574294 0)
(14.2479 -0.0548135 0)
(14.2532 -0.0529019 0)
(14.2595 -0.0504486 0)
(14.265 -0.0483261 0)
(14.2707 -0.0459219 0)
(14.2761 -0.04359 0)
(14.2812 -0.0411728 0)
(14.2864 -0.0386763 0)
(14.291 -0.0361625 0)
(14.2957 -0.033507 0)
(14.2998 -0.0308827 0)
(14.3039 -0.0281462 0)
(14.3074 -0.0253914 0)
(14.3109 -0.0226139 0)
(14.3138 -0.0198055 0)
(14.3166 -0.017047 0)
(14.3188 -0.0142244 0)
(14.3208 -0.0114364 0)
(14.3222 -0.00856858 0)
(14.3235 -0.00570989 0)
(14.3241 -0.002787 0)
(14.3246 0.000153579 0)
(14.3245 0.00313748 0)
(14.3243 0.00615969 0)
(14.3236 0.00920807 0)
(14.3227 0.0122595 0)
(14.3215 0.0153119 0)
(14.3203 0.0183476 0)
(14.3188 0.0214542 0)
(14.3172 0.0245098 0)
(14.3155 0.0276482 0)
(14.3138 0.0306691 0)
(14.312 0.0337519 0)
(14.3104 0.0367183 0)
(14.3086 0.0397689 0)
(14.307 0.0427437 0)
(14.3054 0.0457928 0)
(14.3041 0.048776 0)
(14.3028 0.0517578 0)
(14.3018 0.0547434 0)
(14.3009 0.0576655 0)
(14.3006 0.0605917 0)
(14.3003 0.0633604 0)
(14.3008 0.0660983 0)
(14.3013 0.0688525 0)
(14.302 0.0710888 0)
(14.3041 0.0739967 0)
(14.3046 0.07599 0)
(14.3102 0.0787335 0)
(14.3109 0.0809223 0)
(14.3199 0.0834301 0)
(14.3206 0.0860154 0)
(14.3322 0.0875258 0)
(14.3328 0.0902133 0)
(14.347 0.0911421 0)
(14.3474 0.093699 0)
(14.3653 0.0947195 0)
(14.3657 0.0968162 0)
(14.3867 0.0979717 0)
(14.3871 0.10007 0)
(14.4122 0.101 0)
(14.4122 0.102744 0)
(14.4406 0.103069 0)
(14.4411 0.105232 0)
(14.4724 0.106306 0)
(14.4795 0.105211 0)
(14.4971 0.108783 0)
(14.5206 0.1055 0)
(14.5252 0.109125 0)
(14.5627 0.106444 0)
(14.5628 0.108368 0)
(14.603 0.10702 0)
(14.6029 0.10781 0)
(14.6457 0.107293 0)
(14.6456 0.106898 0)
(14.6878 0.107598 0)
(14.6928 0.106252 0)
(14.7278 0.107132 0)
(14.7408 0.105787 0)
(14.7696 0.106027 0)
(14.7891 0.105079 0)
(14.8142 0.104465 0)
(14.8372 0.104052 0)
(14.8603 0.103073 0)
(14.8851 0.102609 0)
(14.9073 0.101137 0)
(14.9328 0.100438 0)
(14.9552 0.0985865 0)
(14.981 0.0975516 0)
(15.0038 0.0954493 0)
(15.0299 0.0941691 0)
(15.0536 0.0919657 0)
(15.0802 0.0905251 0)
(15.1053 0.0883239 0)
(15.1333 0.0867629 0)
(15.1607 0.0845368 0)
(15.1913 0.0827572 0)
(15.2229 0.080394 0)
(15.2587 0.0782205 0)
(15.2975 0.0755628 0)
(15.3392 0.0729979 0)
(15.3886 0.0703577 0)
(15.4503 0.0665392 0)
(15.5171 0.0637038 0)
(15.6077 0.0605738 0)
(15.69 0.0567934 0)