/*--------------------------------*- C++ -*----------------------------------*\
| =========                 |                                                 |
| \\      /  F ield         | OpenFOAM: The Open Source CFD Toolbox           |
|  \\    /   O peration     | Version:  v1812                                 |
|   \\  /    A nd           | Web:      www.OpenFOAM.com                      |
|    \\/     M anipulation  |                                                 |
\*---------------------------------------------------------------------------*/
FoamFile
{
    version     2.0;
    format      ascii;
    class       volScalarField;
    location    "0.4";
    object      p;
}
// * * * * * * * * * * * * * * * * * * * * * * * * * * * * * * * * * * * * * //

dimensions      [1 -1 -2 0 0 0 0];


internalField   nonuniform List<scalar> 
20400
(
107663
107664
107668
107671
107669
107668
107671
107669
107669
107669
107670
107668
107666
107666
107664
107663
107663
107662
107662
107661
107658
107658
107653
107650
107656
107655
107643
107640
107637
107626
107624
107615
107607
107605
107596
107578
107558
107536
107521
107502
107489
107475
107465
107451
107434
107434
107425
107426
107427
107430
107437
107442
107460
107474
107492
107517
107567
107607
107634
107672
107719
107766
107810
107852
107892
107930
107964
107994
108020
108040
108057
108067
108072
108076
108071
108058
108056
108054
108057
108056
108023
108013
108001
107993
107987
107979
107961
107951
107937
107926
107915
107906
107895
107884
107879
107878
107870
107864
107856
107850
107844
107843
107840
107838
107835
107836
107835
107836
107836
107838
107840
107842
107846
107851
107856
107862
107870
107876
107882
107889
107895
107902
107909
107916
107924
107931
107939
107946
107954
107960
107967
107974
107981
107987
107993
107998
108004
108008
108013
108017
108020
108023
108024
108025
108025
108025
108024
108022
108020
108016
108013
108009
108005
107999
107994
107987
107980
107973
107965
107957
107948
107939
107930
107919
107910
107900
107890
107880
107869
107859
107849
107839
107830
107821
107811
107801
107795
107786
107779
107772
107766
107761
107756
107751
107748
107746
107744
107743
107745
107744
107745
107747
107750
107753
107756
107761
107767
107772
107778
107785
107793
107802
107811
107820
107830
107841
107852
107863
107875
107887
107899
107911
107925
107939
107953
107963
107976
107991
108004
108017
108029
108042
108055
108069
108081
108093
108105
108116
108127
108140
108150
108159
108170
108183
108187
108195
108207
108212
108217
108224
108227
108231
108235
108239
108238
108239
108239
108236
108238
108231
108229
108225
108217
108210
108201
108190
108178
108166
108153
108137
108118
108099
108079
108056
108034
108010
107983
107957
107926
107896
107860
107827
107789
107752
107709
107671
107628
107586
107541
107494
107444
107397
107344
107296
107243
107189
107136
107080
107026
106968
106911
106853
106793
106734
106675
106616
106556
106498
106438
106379
106317
106255
106202
106139
106089
106019
105965
105905
105842
105784
105730
105671
105615
105562
105494
105445
105378
105326
105278
105209
105164
105096
105032
105015
104933
104890
104807
104755
104696
104642
104600
104528
104449
104381
104324
104269
104215
104148
104072
104012
103923
103891
103792
103731
103645
103609
103511
103448
103358
103332
103219
103160
103073
103026
102977
102881
102817
102749
102713
102647
102580
102513
102466
102419
102375
102363
102285
102224
102190
102136
102109
102073
102022
101968
101939
101892
101873
101830
101780
101753
101730
101694
101661
101624
101599
101541
101503
101469
101429
101417
101347
101338
101288
101276
101232
101186
101150
101129
101089
101071
101031
101017
100977
100960
100947
100930
100912
100910
100886
100881
100887
100885
100888
100892
100906
100910
100925
100953
100969
100989
101020
101045
101075
101112
101146
101179
101219
101263
101304
101351
101389
101437
101477
101534
101579
101630
101679
101725
101770
101825
101878
101922
101973
102018
102064
102109
102151
102197
102239
102277
102313
102354
102393
102427
102456
102486
102518
102532
102563
102576
102587
102597
102609
102613
102605
102608
102613
102579
102568
102548
102519
102496
102479
102428
102399
102361
102323
102278
102231
102193
102146
102093
102049
102010
101948
101905
101857
101810
101763
101715
101676
101639
101593
101557
101507
101476
101443
101407
101373
101352
107658
107657
107659
107666
107663
107664
107667
107665
107664
107664
107665
107664
107664
107664
107664
107664
107665
107664
107664
107663
107659
107658
107651
107648
107651
107655
107655
107657
107662
107650
107627
107656
107650
107642
107635
107626
107618
107606
107601
107589
107573
107557
107544
107525
107499
107490
107466
107452
107436
107430
107431
107434
107459
107461
107456
107507
107546
107530
107529
107581
107632
107662
107690
107728
107770
107810
107840
107864
107887
107908
107930
107947
107970
107979
107999
108027
108047
108057
108063
108075
108049
108029
108023
108016
108003
107983
107961
107950
107936
107926
107917
107908
107907
107889
107871
107861
107857
107852
107846
107837
107836
107840
107843
107844
107840
107836
107835
107835
107835
107839
107842
107844
107848
107852
107857
107863
107869
107877
107883
107889
107896
107903
107910
107917
107925
107932
107939
107947
107954
107961
107968
107975
107982
107988
107994
107999
108004
108009
108014
108018
108021
108023
108025
108025
108026
108025
108024
108022
108021
108017
108013
108009
108005
108000
107994
107988
107980
107973
107965
107957
107949
107941
107931
107919
107910
107899
107889
107880
107869
107860
107850
107839
107829
107820
107812
107803
107795
107786
107778
107771
107765
107760
107755
107751
107747
107746
107745
107746
107745
107743
107743
107746
107749
107754
107759
107763
107767
107769
107776
107783
107791
107801
107811
107821
107832
107842
107853
107861
107874
107887
107900
107912
107924
107939
107952
107963
107977
107992
108003
108017
108027
108040
108053
108068
108081
108091
108104
108117
108127
108140
108150
108158
108169
108185
108188
108196
108203
108210
108214
108224
108228
108234
108235
108235
108234
108237
108237
108238
108239
108233
108230
108220
108214
108210
108201
108194
108180
108164
108149
108134
108116
108100
108079
108059
108037
108014
107990
107957
107920
107890
107857
107824
107789
107754
107715
107676
107625
107580
107537
107493
107448
107398
107343
107295
107246
107195
107139
107079
107020
106964
106908
106856
106799
106740
106675
106609
106552
106495
106434
106375
106318
106259
106210
106141
106077
106015
105963
105903
105841
105786
105736
105671
105606
105555
105488
105448
105379
105332
105264
105208
105170
105099
105045
104991
104928
104894
104810
104764
104686
104633
104581
104530
104444
104379
104333
104272
104199
104144
104065
104018
103930
103863
103796
103744
103650
103574
103512
103455
103369
103311
103218
103171
103087
103016
102956
102880
102849
102758
102690
102634
102576
102534
102486
102414
102360
102331
102277
102236
102202
102145
102097
102048
102018
101977
101955
101913
101856
101831
101808
101773
101719
101677
101645
101597
101578
101547
101521
101492
101423
101403
101367
101341
101270
101260
101229
101207
101171
101118
101079
101063
101039
101029
101006
100946
100934
100918
100910
100920
100917
100888
100873
100873
100878
100891
100919
100933
100918
100938
100959
100992
101031
101061
101068
101104
101145
101194
101223
101249
101294
101351
101407
101451
101464
101524
101570
101636
101689
101741
101795
101828
101854
101909
101974
102027
102052
102096
102143
102196
102247
102286
102330
102379
102403
102398
102447
102475
102525
102546
102581
102575
102561
102588
102602
102620
102617
102621
102593
102570
102559
102554
102532
102507
102460
102423
102389
102364
102330
102279
102222
102180
102149
102102
102067
101994
101937
101896
101853
101813
101772
101730
101665
101622
101584
101562
101522
101471
101432
101393
101378
101362
107652
107649
107653
107653
107654
107652
107654
107652
107650
107650
107650
107648
107648
107650
107650
107651
107654
107654
107655
107656
107657
107659
107660
107654
107656
107663
107667
107674
107670
107658
107660
107657
107640
107630
107621
107609
107594
107575
107563
107546
107524
107503
107485
107471
107478
107457
107462
107456
107451
107441
107439
107433
107428
107433
107465
107438
107427
107500
107572
107599
107626
107679
107737
107789
107837
107884
107926
107959
107986
108008
108028
108043
108052
108063
108062
108050
108035
108021
108017
108027
108038
108029
108018
108008
107999
107985
107966
107953
107935
107922
107910
107898
107887
107875
107868
107866
107850
107862
107862
107858
107841
107834
107833
107830
107828
107831
107831
107833
107836
107840
107841
107843
107848
107852
107857
107863
107871
107879
107886
107891
107897
107904
107911
107918
107927
107934
107941
107948
107956
107963
107970
107976
107983
107989
107995
108001
108006
108010
108014
108019
108022
108025
108026
108027
108027
108026
108025
108023
108021
108018
108015
108010
108006
108001
107994
107988
107981
107973
107966
107957
107948
107939
107930
107921
107911
107901
107891
107880
107869
107859
107849
107839
107829
107820
107811
107801
107794
107786
107779
107772
107766
107760
107756
107751
107748
107744
107742
107741
107744
107744
107746
107747
107749
107751
107753
107760
107766
107772
107779
107786
107793
107802
107808
107817
107826
107840
107851
107863
107875
107886
107897
107910
107923
107937
107952
107962
107975
107991
108002
108016
108028
108040
108054
108069
108081
108092
108104
108115
108125
108138
108150
108158
108169
108180
108188
108193
108204
108211
108215
108222
108225
108230
108233
108236
108236
108238
108238
108234
108236
108230
108227
108223
108215
108209
108198
108189
108177
108164
108151
108135
108118
108097
108076
108055
108033
108010
107984
107956
107925
107897
107862
107827
107786
107750
107709
107671
107628
107587
107542
107494
107441
107396
107346
107296
107242
107188
107136
107082
107028
106972
106913
106851
106792
106735
106677
106619
106558
106498
106439
106385
106315
106253
106199
106139
106089
106022
105968
105909
105840
105784
105730
105674
105619
105558
105501
105436
105384
105322
105283
105213
105164
105101
105040
105004
104938
104891
104810
104758
104696
104636
104581
104517
104455
104385
104323
104268
104199
104143
104082
104018
103944
103866
103785
103737
103661
103584
103498
103452
103376
103309
103229
103175
103096
103008
102955
102886
102820
102766
102695
102633
102587
102523
102484
102419
102373
102326
102286
102237
102194
102137
102107
102054
102027
101981
101939
101900
101868
101831
101788
101755
101727
101694
101658
101620
101592
101547
101513
101465
101447
101407
101354
101336
101298
101266
101228
101192
101151
101136
101100
101079
101030
101018
100976
100970
100950
100940
100910
100904
100888
100889
100893
100896
100898
100886
100903
100909
100934
100962
100980
100987
101015
101044
101080
101125
101143
101174
101221
101271
101322
101347
101384
101438
101489
101551
101590
101625
101670
101718
101768
101826
101890
101933
101975
102016
102072
102128
102166
102202
102228
102270
102308
102355
102396
102430
102465
102503
102509
102524
102559
102581
102599
102606
102626
102600
102595
102601
102609
102586
102582
102537
102514
102492
102483
102433
102411
102349
102312
102275
102238
102203
102134
102085
102044
102009
101952
101911
101860
101798
101751
101713
101681
101636
101602
101546
101500
101476
101445
101422
101369
101345
107666
107664
107667
107668
107666
107663
107665
107662
107661
107660
107660
107659
107658
107658
107658
107658
107660
107659
107661
107660
107661
107661
107655
107655
107656
107660
107662
107666
107666
107663
107671
107667
107657
107648
107633
107616
107594
107565
107544
107525
107502
107480
107461
107441
107425
107420
107402
107394
107386
107383
107389
107392
107413
107429
107456
107476
107502
107542
107573
107601
107634
107675
107721
107766
107810
107854
107900
107942
107978
108008
108035
108056
108073
108091
108099
108094
108083
108072
108069
108060
108038
108022
108005
107987
107977
107966
107954
107941
107929
107919
107907
107896
107887
107880
107883
107881
107860
107843
107841
107838
107824
107831
107831
107824
107828
107841
107843
107838
107836
107838
107841
107843
107849
107855
107863
107867
107871
107878
107885
107893
107899
107905
107914
107921
107929
107936
107943
107950
107958
107965
107972
107979
107985
107992
107998
108003
108008
108012
108016
108020
108023
108026
108028
108029
108029
108028
108027
108025
108023
108019
108016
108011
108007
108001
107995
107989
107982
107974
107966
107957
107949
107940
107930
107921
107911
107901
107890
107879
107869
107859
107849
107839
107828
107819
107810
107801
107793
107785
107777
107771
107765
107759
107753
107750
107747
107744
107742
107741
107741
107743
107745
107745
107747
107750
107754
107757
107765
107773
107778
107784
107792
107799
107809
107818
107828
107839
107851
107862
107874
107885
107898
107910
107922
107937
107950
107962
107976
107990
108001
108015
108028
108040
108053
108068
108082
108090
108103
108115
108125
108137
108149
108157
108167
108180
108186
108193
108202
108212
108213
108220
108224
108229
108232
108235
108235
108238
108234
108235
108233
108230
108226
108221
108215
108206
108196
108187
108177
108163
108150
108134
108114
108096
108078
108055
108032
108006
107980
107953
107926
107896
107862
107823
107787
107749
107710
107670
107628
107586
107539
107494
107446
107395
107346
107296
107242
107190
107136
107082
107028
106971
106911
106852
106792
106736
106680
106618
106558
106499
106439
106381
106317
106255
106201
106143
106089
106025
105971
105906
105844
105787
105726
105675
105621
105567
105500
105440
105378
105325
105273
105228
105160
105097
105043
104994
104946
104882
104806
104755
104698
104644
104586
104533
104453
104390
104328
104263
104207
104143
104073
104011
103927
103873
103798
103726
103648
103589
103519
103442
103364
103304
103231
103158
103089
103020
102958
102892
102828
102752
102701
102640
102579
102521
102478
102424
102374
102322
102277
102234
102192
102139
102105
102064
102014
101975
101936
101900
101870
101829
101791
101748
101727
101696
101660
101616
101586
101546
101508
101473
101435
101410
101368
101325
101303
101262
101229
101197
101152
101137
101096
101075
101039
101017
100984
100972
100952
100933
100915
100907
100895
100890
100896
100895
100891
100894
100910
100913
100939
100962
100974
100996
101016
101052
101086
101117
101150
101178
101228
101272
101312
101352
101397
101441
101493
101541
101587
101636
101676
101726
101772
101831
101886
101936
101975
102023
102070
102115
102166
102198
102241
102278
102316
102356
102401
102432
102460
102494
102520
102535
102561
102582
102593
102600
102611
102618
102604
102600
102605
102586
102575
102545
102519
102492
102474
102435
102402
102355
102314
102277
102238
102196
102140
102087
102041
102004
101952
101906
101856
101805
101756
101713
101676
101636
101591
101548
101509
101476
101445
101406
101377
101352
107659
107662
107665
107668
107667
107664
107666
107663
107661
107661
107660
107659
107659
107658
107658
107658
107659
107657
107658
107658
107659
107659
107654
107652
107653
107662
107657
107648
107647
107646
107652
107642
107636
107631
107616
107595
107573
107542
107519
107503
107469
107455
107429
107413
107400
107397
107381
107380
107377
107380
107388
107395
107414
107437
107465
107499
107545
107587
107621
107659
107702
107744
107784
107823
107858
107891
107922
107949
107973
107989
108004
108013
108018
108028
108033
108036
108041
108041
108042
108037
108025
108018
108007
107995
107984
107969
107953
107940
107928
107919
107909
107900
107890
107876
107864
107861
107847
107841
107843
107837
107823
107849
107853
107844
107835
107836
107835
107828
107833
107839
107842
107849
107853
107855
107858
107863
107872
107880
107887
107894
107903
107909
107917
107924
107931
107939
107946
107953
107961
107968
107975
107981
107988
107994
108000
108006
108011
108015
108019
108023
108026
108028
108030
108030
108031
108030
108028
108027
108024
108021
108018
108013
108008
108003
107996
107990
107983
107975
107966
107959
107949
107941
107931
107921
107910
107900
107890
107879
107869
107859
107849
107838
107827
107818
107810
107800
107793
107784
107776
107769
107764
107758
107753
107749
107746
107743
107742
107740
107740
107741
107742
107743
107746
107750
107754
107758
107763
107769
107776
107783
107790
107799
107809
107818
107828
107839
107850
107861
107873
107885
107898
107911
107922
107936
107950
107961
107975
107991
108001
108014
108026
108039
108052
108066
108079
108090
108103
108116
108126
108136
108148
108156
108167
108177
108188
108191
108200
108207
108211
108219
108226
108227
108230
108231
108232
108233
108234
108236
108232
108230
108223
108219
108211
108205
108196
108186
108174
108160
108145
108129
108110
108096
108077
108055
108032
108005
107980
107951
107922
107891
107856
107821
107789
107752
107711
107670
107627
107583
107537
107493
107446
107398
107346
107295
107246
107191
107138
107081
107026
106967
106911
106857
106799
106738
106681
106618
106559
106498
106437
106378
106323
106265
106204
106142
106088
106028
105967
105909
105852
105793
105737
105676
105620
105565
105504
105447
105391
105330
105275
105214
105166
105110
105050
104995
104936
104883
104824
104763
104700
104639
104585
104526
104458
104402
104335
104272
104205
104139
104073
104014
103946
103870
103791
103727
103663
103585
103505
103440
103375
103300
103226
103160
103093
103019
102951
102888
102833
102761
102698
102636
102578
102526
102476
102421
102373
102319
102275
102237
102193
102143
102102
102055
102015
101985
101944
101909
101862
101829
101797
101760
101722
101687
101652
101614
101582
101548
101516
101478
101437
101402
101371
101338
101299
101260
101232
101201
101163
101130
101099
101072
101048
101023
100991
100970
100952
100930
100924
100917
100903
100896
100892
100894
100892
100906
100915
100921
100939
100958
100977
101001
101030
101059
101085
101120
101156
101192
101233
101270
101310
101360
101406
101449
101491
101539
101584
101643
101691
101738
101789
101833
101883
101929
101981
102030
102069
102115
102155
102205
102251
102289
102325
102368
102398
102432
102460
102490
102527
102543
102567
102579
102593
102599
102607
102620
102613
102610
102603
102582
102567
102556
102527
102498
102470
102429
102395
102366
102322
102280
102229
102184
102147
102096
102048
102000
101948
101898
101853
101811
101761
101716
101671
101629
101586
101552
101511
101475
101436
101400
101378
101355
107668
107665
107666
107671
107671
107669
107671
107668
107668
107668
107670
107669
107666
107666
107666
107665
107666
107663
107663
107661
107661
107666
107653
107654
107662
107671
107670
107664
107665
107657
107654
107641
107628
107617
107601
107580
107558
107520
107499
107474
107452
107425
107418
107393
107385
107373
107373
107356
107378
107360
107383
107365
107391
107389
107405
107426
107458
107496
107535
107583
107635
107689
107742
107793
107842
107886
107928
107966
107999
108024
108044
108053
108053
108052
108045
108036
108029
108022
108016
108005
107992
107984
107978
107971
107963
107952
107939
107927
107916
107908
107898
107887
107877
107869
107865
107860
107855
107861
107865
107858
107844
107835
107836
107835
107824
107824
107833
107821
107840
107845
107848
107849
107853
107859
107863
107872
107881
107888
107893
107897
107904
107912
107922
107929
107936
107942
107950
107957
107965
107972
107979
107985
107992
107998
108004
108009
108014
108019
108022
108025
108028
108031
108033
108033
108033
108032
108031
108029
108026
108023
108019
108015
108010
108004
107997
107991
107984
107975
107967
107959
107949
107941
107931
107921
107911
107900
107890
107879
107868
107858
107848
107838
107827
107817
107808
107799
107791
107783
107775
107768
107763
107757
107751
107747
107744
107741
107739
107738
107738
107739
107741
107742
107745
107747
107752
107755
107762
107768
107775
107782
107790
107798
107807
107816
107826
107837
107848
107861
107873
107883
107896
107909
107921
107935
107949
107960
107975
107989
108000
108013
108026
108039
108051
108065
108079
108091
108100
108113
108123
108135
108146
108155
108164
108175
108185
108191
108198
108206
108211
108216
108222
108225
108228
108231
108232
108233
108231
108231
108228
108226
108221
108217
108210
108202
108193
108182
108171
108159
108145
108128
108110
108092
108072
108051
108028
108002
107976
107949
107921
107890
107856
107821
107783
107747
107709
107668
107627
107583
107538
107492
107444
107395
107347
107296
107244
107191
107136
107082
107028
106972
106913
106855
106796
106739
106682
106622
106561
106502
106441
106382
106325
106264
106206
106147
106090
106029
105973
105913
105853
105796
105738
105681
105624
105568
105507
105449
105389
105333
105278
105225
105167
105106
105051
104997
104941
104883
104821
104764
104705
104647
104586
104530
104461
104398
104336
104271
104207
104142
104074
104009
103932
103868
103799
103726
103650
103584
103513
103439
103365
103297
103229
103157
103086
103018
102954
102889
102833
102757
102696
102638
102580
102525
102473
102422
102369
102322
102277
102229
102189
102141
102100
102059
102018
101977
101939
101902
101865
101829
101794
101757
101725
101691
101656
101617
101586
101548
101512
101477
101439
101409
101372
101334
101301
101267
101232
101200
101164
101136
101103
101077
101048
101022
100995
100976
100956
100940
100926
100916
100906
100900
100900
100900
100901
100906
100918
100927
100945
100965
100984
101007
101033
101059
101093
101127
101161
101197
101235
101279
101320
101363
101408
101454
101501
101549
101595
101645
101693
101740
101789
101840
101890
101941
101984
102034
102078
102123
102171
102208
102251
102291
102329
102369
102406
102439
102468
102498
102527
102546
102569
102586
102597
102607
102613
102618
102615
102610
102603
102589
102573
102552
102527
102500
102470
102436
102400
102361
102320
102278
102235
102190
102142
102093
102046
101999
101948
101902
101852
101804
101758
101714
101671
101630
101586
101549
101508
101473
101440
101404
101372
101349
107668
107667
107667
107671
107672
107671
107673
107671
107669
107668
107669
107669
107667
107667
107665
107665
107665
107663
107663
107661
107662
107665
107657
107651
107647
107664
107660
107662
107667
107662
107653
107635
107619
107605
107583
107560
107535
107504
107483
107466
107429
107418
107391
107385
107374
107372
107375
107375
107361
107381
107395
107404
107408
107413
107435
107458
107483
107510
107541
107573
107609
107649
107693
107739
107784
107826
107867
107906
107939
107966
107991
108008
108019
108030
108033
108030
108026
108020
108014
108005
107992
107983
107973
107964
107953
107941
107930
107919
107909
107902
107893
107885
107878
107875
107873
107869
107859
107846
107839
107837
107829
107824
107830
107834
107832
107830
107841
107849
107850
107848
107851
107849
107858
107867
107870
107873
107880
107888
107895
107901
107909
107917
107926
107933
107940
107948
107955
107962
107969
107976
107983
107990
107996
108002
108008
108014
108018
108023
108026
108029
108032
108034
108036
108036
108036
108035
108034
108032
108029
108025
108022
108017
108012
108006
107999
107992
107985
107977
107968
107960
107950
107941
107931
107921
107911
107900
107889
107879
107868
107857
107847
107837
107826
107816
107807
107798
107790
107781
107774
107766
107761
107755
107750
107746
107742
107739
107738
107736
107736
107737
107739
107740
107743
107746
107750
107754
107760
107766
107773
107780
107788
107796
107806
107815
107825
107836
107847
107859
107871
107883
107895
107908
107920
107933
107948
107960
107973
107987
107999
108012
108025
108038
108051
108064
108076
108089
108100
108112
108123
108133
108144
108154
108164
108173
108182
108189
108196
108204
108209
108215
108220
108223
108226
108228
108229
108230
108230
108229
108227
108224
108219
108213
108207
108199
108191
108180
108168
108155
108141
108125
108108
108090
108071
108049
108026
108001
107976
107947
107918
107887
107854
107818
107783
107746
107708
107667
107625
107582
107537
107492
107445
107397
107346
107295
107244
107191
107138
107082
107028
106971
106914
106857
106801
106741
106682
106622
106563
106503
106443
106384
106326
106267
106208
106148
106091
106032
105974
105917
105858
105799
105743
105684
105626
105570
105511
105453
105395
105337
105281
105224
105170
105112
105055
104999
104941
104884
104825
104767
104708
104647
104588
104529
104465
104401
104338
104272
104208
104142
104074
104010
103938
103867
103794
103727
103654
103582
103508
103438
103367
103295
103224
103156
103086
103017
102950
102886
102830
102757
102696
102637
102579
102524
102471
102418
102369
102319
102273
102228
102185
102140
102099
102057
102015
101977
101940
101904
101864
101829
101795
101759
101723
101689
101654
101617
101585
101549
101514
101480
101442
101408
101373
101339
101302
101267
101234
101201
101168
101137
101106
101078
101051
101026
101001
100979
100961
100943
100931
100922
100912
100905
100903
100904
100906
100913
100922
100933
100949
100968
100988
101011
101039
101068
101097
101131
101165
101203
101243
101283
101325
101369
101413
101461
101506
101553
101600
101650
101700
101748
101798
101845
101894
101944
101990
102037
102082
102128
102174
102215
102257
102297
102335
102375
102408
102441
102472
102501
102529
102550
102572
102587
102600
102610
102615
102620
102618
102613
102604
102590
102573
102554
102529
102501
102470
102437
102401
102363
102322
102279
102234
102189
102143
102095
102046
101997
101947
101900
101852
101805
101758
101714
101669
101628
101586
101548
101509
101472
101437
101403
101375
101349
107677
107679
107679
107677
107677
107674
107676
107672
107671
107672
107668
107669
107669
107667
107668
107669
107667
107667
107670
107666
107668
107676
107665
107662
107668
107665
107681
107673
107668
107657
107650
107628
107609
107589
107566
107545
107528
107485
107469
107436
107425
107395
107388
107359
107350
107344
107341
107319
107337
107329
107336
107354
107358
107378
107401
107432
107463
107501
107539
107580
107620
107666
107712
107757
107800
107840
107878
107910
107937
107957
107975
107986
107992
108000
108002
108000
107996
107992
107987
107979
107968
107960
107951
107943
107935
107926
107914
107903
107896
107887
107880
107872
107868
107861
107850
107842
107834
107832
107835
107837
107838
107838
107846
107854
107854
107847
107840
107845
107849
107848
107846
107843
107866
107868
107870
107879
107885
107892
107902
107910
107917
107924
107931
107938
107945
107953
107961
107968
107975
107982
107989
107995
108002
108008
108013
108018
108023
108027
108030
108033
108036
108038
108040
108040
108040
108039
108037
108035
108032
108028
108024
108019
108014
108008
108001
107994
107986
107978
107970
107961
107951
107942
107932
107922
107911
107900
107889
107878
107867
107857
107846
107836
107825
107815
107806
107796
107788
107779
107772
107765
107759
107753
107748
107743
107740
107737
107735
107734
107734
107735
107736
107738
107740
107744
107748
107752
107758
107764
107771
107778
107786
107795
107804
107813
107824
107834
107846
107857
107869
107881
107893
107906
107919
107932
107946
107958
107972
107986
107998
108011
108024
108037
108050
108062
108075
108087
108099
108110
108121
108132
108142
108152
108162
108171
108180
108187
108194
108201
108207
108212
108217
108221
108224
108226
108227
108227
108227
108226
108223
108220
108216
108211
108204
108196
108187
108177
108165
108152
108139
108122
108105
108087
108067
108046
108023
107998
107972
107944
107915
107884
107852
107816
107781
107744
107706
107666
107624
107581
107536
107491
107444
107396
107346
107296
107244
107192
107138
107083
107029
106973
106915
106858
106801
106742
106684
106625
106565
106506
106446
106387
106329
106269
106211
106152
106094
106035
105978
105920
105860
105803
105745
105688
105630
105573
105514
105457
105398
105341
105285
105228
105172
105113
105057
105002
104944
104886
104827
104770
104710
104650
104590
104530
104467
104402
104339
104274
104209
104142
104074
104008
103935
103867
103796
103726
103652
103581
103509
103438
103364
103293
103223
103155
103084
103016
102950
102884
102827
102757
102695
102636
102577
102524
102469
102417
102367
102318
102272
102226
102182
102138
102096
102056
102015
101976
101938
101902
101864
101828
101794
101759
101724
101690
101655
101619
101585
101550
101514
101480
101443
101410
101374
101339
101304
101270
101235
101203
101170
101139
101109
101081
101054
101029
101005
100984
100966
100950
100936
100926
100917
100911
100909
100909
100912
100917
100927
100939
100955
100974
100995
101018
101044
101073
101104
101138
101173
101210
101249
101290
101333
101376
101420
101467
101513
101561
101609
101657
101706
101754
101804
101853
101901
101950
101997
102044
102090
102135
102179
102221
102262
102303
102341
102379
102415
102447
102478
102507
102533
102555
102576
102592
102604
102614
102619
102622
102621
102616
102606
102593
102576
102556
102531
102504
102472
102439
102402
102364
102323
102280
102236
102190
102143
102095
102046
101997
101947
101900
101851
101804
101757
101713
101669
101627
101586
101547
101508
101472
101437
101403
101372
101346
107679
107683
107680
107678
107678
107678
107681
107678
107675
107673
107673
107671
107672
107670
107670
107671
107673
107669
107672
107674
107674
107680
107678
107674
107680
107690
107681
107689
107670
107664
107646
107628
107603
107586
107561
107540
107506
107488
107458
107446
107408
107397
107370
107362
107354
107343
107341
107364
107318
107330
107339
107357
107354
107351
107372
107398
107414
107440
107474
107513
107554
107600
107648
107700
107751
107799
107844
107884
107918
107943
107965
107979
107986
107993
107993
107989
107984
107979
107974
107965
107955
107946
107936
107926
107916
107905
107895
107886
107880
107870
107865
107857
107850
107844
107842
107840
107841
107845
107851
107851
107849
107844
107838
107835
107840
107840
107834
107837
107847
107856
107846
107865
107871
107874
107880
107892
107899
107905
107907
107913
107922
107929
107937
107944
107952
107959
107967
107974
107982
107988
107996
108002
108008
108014
108019
108024
108028
108033
108036
108039
108041
108043
108044
108044
108044
108043
108041
108039
108035
108032
108027
108022
108016
108010
108003
107996
107988
107979
107971
107962
107952
107942
107932