/*--------------------------------*- C++ -*----------------------------------*\
| =========                 |                                                 |
| \\      /  F ield         | OpenFOAM: The Open Source CFD Toolbox           |
|  \\    /   O peration     | Version:  v1812                                 |
|   \\  /    A nd           | Web:      www.OpenFOAM.com                      |
|    \\/     M anipulation  |                                                 |
\*---------------------------------------------------------------------------*/
FoamFile
{
    version     2.0;
    format      ascii;
    class       surfaceScalarField;
    location    "0.4";
    object      phi;
}
// * * * * * * * * * * * * * * * * * * * * * * * * * * * * * * * * * * * * * //

dimensions      [1 0 -1 0 0 0 0];
oriented        oriented;


internalField   nonuniform List<scalar> 
40240
(
-8.75146e-05
4.80176e-05
-7.89101e-05
-4.72509e-05
7.889e-05
-0.000197236
0.000558072
-0.000518273
0.00117163
-0.000652257
0.00187572
-0.000741878
0.00266862
-0.000830362
0.00340965
-0.000778103
0.00409936
-0.000725798
0.00474872
-0.00068434
0.00534499
-0.000629692
0.00581567
-0.000502259
0.00616536
-0.000379937
0.00644426
-0.000307432
0.00665099
-0.000233459
0.00680337
-0.00017693
0.00697758
-0.000196749
0.00715092
-0.000193389
0.00730015
-0.000166497
0.00735672
-7.11527e-05
0.00733879
5.72653e-06
0.00733466
-4.15809e-06
0.00726791
6.30594e-05
0.00719444
7.33141e-05
0.00724273
-4.25169e-05
0.00730432
-5.37261e-05
0.00722887
8.64919e-05
0.00698506
0.000259478
0.00667685
0.000324323
0.0065153
0.000178814
0.00621936
0.000316172
0.00597443
0.000261007
0.00572615
0.000267169
0.00572158
2.64612e-05
0.00574078
3.46146e-06
0.00558214
0.000183642
0.00470457
0.00090399
0.00283593
0.00189642
0.000263825
0.00260135
-0.00272261
0.00301942
-0.00588526
0.0032
-0.00909961
0.00325515
-0.0123339
0.00327889
-0.0157804
0.00349451
-0.0193856
0.00365621
-0.02269
0.00335671
-0.0258067
0.00317375
-0.0286324
0.00288663
-0.031254
0.00268622
-0.0337625
0.00257322
-0.0361081
0.00240731
-0.0382958
0.00225026
-0.0400933
0.00184871
-0.0415075
0.00143277
-0.0423953
0.000994377
-0.0426226
0.000325658
-0.0425585
-2.39563e-05
-0.0418553
-0.000713397
-0.0405947
-0.00127311
-0.0387088
-0.00178887
-0.0362961
-0.00226887
-0.0335006
-0.00269767
-0.0304157
-0.00302774
-0.0271058
-0.00325623
-0.0236938
-0.00334491
-0.0203048
-0.00331686
-0.0169637
-0.00327493
-0.0136182
-0.00328426
-0.0102738
-0.00328335
-0.00700449
-0.00320615
-0.00387532
-0.00306681
-0.000977932
-0.00283836
0.00166224
-0.00258235
0.00399355
-0.00227414
0.00577906
-0.00173078
0.00728861
-0.00145439
0.009003
-0.00165976
0.0109032
-0.00184582
0.0124713
-0.00151419
0.01292
-0.000397833
0.0133745
-0.000400242
0.013885
-0.000454874
0.0144612
-0.000520463
0.0149535
-0.000438576
0.0152948
-0.000292629
0.0153975
-5.87747e-05
0.0154315
9.95022e-06
0.0153984
7.34325e-05
0.0152181
0.000220692
0.0149375
0.000317908
0.0145597
0.000412176
0.0140663
0.000526954
0.0135035
0.000589046
0.0128992
0.000631138
0.0123597
0.000563565
0.0121295
0.000251066
0.011847
0.000301176
0.0114045
0.000456184
0.0106237
0.000797085
0.00987082
0.000763646
0.00938095
0.000500284
0.00896659
0.000423689
0.00854652
0.000431039
0.00811924
0.000436067
0.00772795
0.000401316
0.00737647
0.000361758
0.00704495
0.000340726
0.00672352
0.000330445
0.00641123
0.000321576
0.00615733
0.000262279
0.00589774
0.000268089
0.00565729
0.000248844
0.00552915
0.000135425
0.00547985
5.41957e-05
0.0054177
6.67727e-05
0.00541131
1.10136e-05
0.00546455
-5.1493e-05
0.00557847
-0.000114005
0.00567899
-0.000102026
0.00574865
-7.23708e-05
0.00580532
-6.04315e-05
0.00584861
-4.74623e-05
0.00589232
-4.88764e-05
0.00594202
-5.55454e-05
0.00601203
-7.72102e-05
0.00609378
-9.03122e-05
0.00619483
-0.000111373
0.00631571
-0.000133058
0.00644377
-0.000142167
0.00655392
-0.000126236
0.00664743
-0.000111511
0.00673076
-0.000103294
0.00681067
-0.000101995
0.00689151
-0.000105201
0.00697766
-0.000112957
0.00707389
-0.000125515
0.00718215
-0.000140104
0.00730127
-0.000153482
0.00742835
-0.000163814
0.00756557
-0.000176323
0.00768884
-0.00016448
0.00778573
-0.000139977
0.00784214
-0.000100871
0.00790504
-0.000109769
0.0079522
-9.60371e-05
0.00798709
-8.45071e-05
0.00800133
-6.44599e-05
0.00801007
-6.15003e-05
0.00801339
-5.72247e-05
0.0079975
-4.02353e-05
0.00797757
-3.70915e-05
0.00795194
-3.39944e-05
0.00793557
-4.46924e-05
0.00793261
-6.30449e-05
0.00791791
-5.09595e-05
0.00789587
-4.59127e-05
0.00786977
-4.42528e-05
0.00786191
-6.56351e-05
0.00787131
-8.47991e-05
0.0078801
-8.69174e-05
0.00787983
-8.0738e-05
0.0078701
-7.21268e-05
0.00784064
-5.43056e-05
0.00777752
-2.19226e-05
0.00771692
-2.56077e-05
0.00767366
-4.3927e-05
0.00762164
-3.65176e-05
0.00756637
-3.4155e-05
0.00749609
-1.9775e-05
0.00743001
-2.44235e-05
0.00736053
-2.12307e-05
0.00729124
-2.09464e-05
0.00722072
-1.84451e-05
0.00716495
-3.28034e-05
0.00711448
-3.63106e-05
0.00708505
-5.67149e-05
0.00703279
-3.1429e-05
0.00696916
-1.77159e-05
0.00689637
-6.0442e-06
0.00681748
3.41386e-06
0.00674797
-2.03471e-06
0.00667442
5.62921e-06
0.00659293
1.79976e-05
0.00651191
1.97849e-05
0.00645418
1.63406e-06
0.00642346
-2.23544e-05
0.00640305
-2.862e-05
0.00639255
-2.60528e-05
0.00640365
-4.68133e-05
0.0063643
9.94694e-06
0.00634642
-5.64903e-06
0.00634705
-1.81154e-05
0.00637077
-3.47624e-05
0.00640565
-3.99078e-05
0.00642752
-2.05378e-05
0.0064716
-3.40905e-05
0.00651603
-2.60197e-05
0.00650748
3.50372e-05
0.00649606
4.58379e-05
0.00648219
5.78489e-05
0.00649701
3.5814e-05
0.00653615
2.07307e-05
0.00659268
1.14807e-05
0.0066648
4.58661e-06
0.00672633
2.38215e-05
0.00678036
3.93216e-05
0.00679676
8.55892e-05
0.0068914
1.5557e-05
0.00703692
-2.78503e-05
0.0072088
-4.44478e-05
0.00734459
-9.39847e-07
0.00746866
1.81008e-05
0.0075597
5.9128e-05
0.00759447
0.000122035
0.007769
-1.10802e-05
0.00793554
2.68047e-06
0.00809936
1.10624e-05
0.00830764
-2.90561e-05
0.00845915
3.3149e-05
0.00853711
0.000112815
0.00866986
6.08604e-05
0.00882049
4.58834e-05
0.00895205
6.79196e-05
0.00903667
0.000118544
0.00924565
-6.78782e-06
0.00942784
2.09674e-05
0.00961406
1.81046e-05
0.00978914
2.8267e-05
0.00992569
6.64673e-05
0.00999824
0.000130715
0.0102226
-2.50589e-05
0.0104305
-1.18222e-05
0.0106424
-2.01758e-05
0.0107694
6.2276e-05
0.0109231
3.10928e-05
0.0110556
4.75956e-05
0.011138
9.29632e-05
0.0113496
-4.24718e-05
0.0115272
-1.62502e-05
0.0116549
2.52286e-05
0.0118003
1.23385e-07
0.0119059
2.44013e-05
0.0119964
3.0058e-05
0.0120731
4.25569e-05
0.0121731
3.54578e-06
0.0122664
5.9778e-07
0.0123636
-1.34926e-05
0.0124201
1.87643e-05
0.0124577
2.89968e-05
0.0124777
4.02151e-05
0.0125407
-1.51828e-05
0.0125624
1.47304e-05
0.012581
1.07744e-05
0.0126402
-4.06826e-05
0.0126854
-3.59623e-05
0.0126926
-1.62813e-05
0.0126868
-9.59179e-06
0.0126681
-8.98208e-06
0.0126751
-4.63913e-05
0.0126838
-6.19262e-05
0.0126649
-3.96883e-05
0.0126372
-4.27034e-05
0.0126319
-7.22631e-05
0.0126434
-9.62552e-05
0.0126632
-0.000111932
0.0126738
-0.000114831
0.012684
-0.000116768
0.0126546
-8.6242e-05
0.0125989
-6.54292e-05
0.0125721
-9.8968e-05
0.0125403
-0.000103573
0.0124705
-6.52546e-05
0.0123916
-5.64786e-05
0.0123342
-7.95731e-05
0.0122905
-9.45184e-05
0.0122127
-5.90791e-05
0.0121002
-2.24875e-05
0.0120609
-9.19457e-05
0.0119928
-6.47048e-05
0.0119293
-6.32824e-05
0.0118891
-8.42288e-05
0.0118151
-4.07687e-05
0.0117528
-4.18048e-05
0.0117059
-5.3104e-05
0.0116909
-7.30148e-05
0.0116797
-6.79279e-05
0.0116763
-6.1479e-05
0.0116584
-3.48824e-05
0.0116758
-5.81314e-05
0.0117125
-6.24299e-05
0.0117648
-6.26367e-05
0.0118463
-7.35152e-05
0.0118547
1.61288e-05
0.0118746
2.37488e-05
0.0119432
-6.1111e-06
0.0120621
-3.65343e-05
0.0121942
-2.4578e-05
0.0122739
4.9913e-05
0.0123303
0.00010081
0.0125896
-8.01046e-05
0.0128817
-8.83657e-05
0.0132019
-9.36241e-05
0.013413
3.84951e-05
0.0137056
-1.45902e-05
0.013875
0.000129028
0.0141845
1.50601e-05
0.0145817
-4.83088e-05
0.0149101
4.65533e-05
0.015332
-2.73123e-05
0.01579
-4.13391e-05
0.0161095
0.000120249
0.0164041
0.000173325
0.0170864
-0.000195339
0.0177284
-0.000128216
0.0182636
8.18388e-06
0.0185988
0.000206586
0.0191115
7.10563e-05
0.019295
0.000423414
0.0201443
-0.000246389
0.0208574
-8.03578e-05
0.0211736
0.000342396
0.0217914
5.09699e-05
0.0221456
0.000382827
0.0230142
-0.00018529
0.0237913
-5.69934e-05
0.0241658
0.000366716
0.0248744
5.62896e-05
0.0254835
0.000184606
0.02634
-4.30884e-05
0.0274535
-0.000295772
0.027887
0.000401273
0.0290877
-0.000350001
0.0297811
0.000164355
0.0303106
0.000339325
0.0308566
0.0003307
0.0317118
4.18941e-05
0.0321687
0.000456325
0.0334728
-0.000392941
0.0345057
-0.000118108
0.0348981
0.000535972
0.035589
0.000243086
0.0362918
0.000238523
0.0375452
-0.000334352
0.0379251
0.000533407
0.0386868
0.000162736
0.0393902
0.000225879
0.0407623
-0.000475599
0.0411632
0.000487664
0.0417537
0.000292362
0.0425327
9.36968e-05
0.0435128
-0.000139654
0.0438013
0.000527763
0.0443241
0.000308208
0.0448804
0.000323666
0.0460113
-0.000474089
0.0466074
0.000131267
0.0467749
0.000548632
0.0472189
0.000241183
0.0477203
0.00016689
0.0489431
-0.00063099
0.0492065
0.000298482
0.0491294
0.000600762
0.0489959
0.000631704
0.0496444
-0.000176409
0.0505998
-0.000502476
0.0514098
-0.000469682
0.0517063
5.05441e-05
0.0515096
0.000494027
0.051134
0.00064535
0.0511455
0.000244902
0.0514217
-3.96832e-05
0.0521001
-0.000576417
0.051948
0.000276665
0.0517264
0.000303556
0.0512443
0.00053628
0.0508952
0.0003711
0.0509897
-0.0001048
0.0508871
4.52814e-05
0.0506111
0.000170871
0.0500344
0.000435915
0.0496041
0.000262557
0.0493536
4.12466e-05
0.0492561
-0.000146039
0.0491591
-0.000185791
0.0489262
-8.6772e-05
0.0483545
0.00012085
0.0476622
0.000406725
0.0466834
0.00060964
0.046326
-5.39199e-05
0.0458527
4.86676e-05
0.0452877
0.000105351
0.0445095
0.000309332
0.0441278
-0.000107671
0.0436002
1.77944e-05
0.0431253
-0.00011327
0.0423992
0.000190203
0.0414467
0.000407051
0.0408229
6.86431e-05
0.04042
-0.000171424
0.0397654
6.95697e-05
0.0390839
0.000102928
0.0382436
0.00025148
0.0371958
0.000470837
0.0364377
0.000187293
0.0359649
-0.000107936
0.0354704
-7.0554e-05
0.0348746
4.71251e-05
0.0341163
0.000225128
0.0333228
0.000274081
0.0325699
0.000246
0.0320184
6.28743e-05
0.0316115
-7.49704e-05
0.0311091
4.07333e-05
0.0305539
0.00011795
0.0299353
0.000199664
0.0291961
0.00034817
0.0285892
0.00023747
0.0282018
3.40656e-05
0.0277821
9.63087e-05
0.027517
-5.51767e-05
0.0271013
0.000127455
0.0265416
0.000287871
0.0261154
0.000172259
0.0257999
8.38959e-05
0.0255719
-8.5147e-06
0.025226
0.000134626
0.0247972
0.000234663
0.0245109
0.000114666
0.024249
0.000103048
0.0240692
3.20773e-05
0.0238613
8.40192e-05
0.0235742
0.000174819
0.0234019
8.28837e-05
0.0232985
3.28577e-05
0.023162
8.50053e-05
0.0231288
-6.87821e-06
0.0230253
7.76166e-05
0.0228373
0.000178019
0.0227222
0.000123542
0.022672
7.46866e-05
0.022724
-2.34549e-06
0.0227563
3.53499e-05
0.0228188
3.5234e-05
0.0228333
5.69356e-05
0.0228407
0.00010245
0.0229411
2.39184e-05
0.0230292
5.22189e-05
0.0232134
-2.30549e-05
0.0234205
-3.29945e-05
0.023526
9.30856e-05
0.0235501
0.000188663
0.0236017
0.000182611
0.02399
-0.000143331
0.0243673
-0.000119349
0.0246721
-1.5814e-05
0.0250092
-3.63859e-05
0.0254408
-0.00011409
0.0257618
2.0497e-05
0.0260539
7.96466e-05
0.0264214
2.08435e-05
0.0268288
-4.93796e-06
0.027194
7.69605e-05
0.0277271
-7.72538e-05
0.0283986
-0.000202675
0.0289689
-7.17834e-05
0.0294697
1.56239e-05
0.0298757
0.000135418
0.0304474
-3.25031e-06
0.0311579
-0.000130228
0.0318944
-0.000140234
0.0325037
3.33512e-06
0.0331389
-9.54151e-06
0.0337956
-2.99516e-05
0.0344504
-7.15476e-06
0.0352003
-0.00010477
0.0359477
-0.000104685
0.0364958
9.81965e-05
0.0370562
9.54189e-05
0.0377384
-4.6604e-05
0.0385289
-0.000164816
0.0392624
-0.000116189
0.0398236
4.43547e-05
0.0403421
6.87693e-05
0.0410486
-0.000139811
0.0416228
-2.56336e-05
0.0421192
2.64813e-05
0.0426967
-8.00631e-05
0.0432375
-8.2442e-05
0.0434972
0.000174266
0.0438456
5.21263e-05
0.0443711
-0.000170191
0.0447103
-2.13694e-05
0.0451636
-0.000162469
0.0453421
7.25033e-05
0.0454969
7.02441e-05
0.0457693
-8.38769e-05
0.0458797
3.96785e-05
0.046115
-0.000130509
0.046287
-0.000106006
-5.364e-05
0.000158298
-0.000149523
0.000427135
-0.000354228
0.000855346
-0.000663944
0.00164867
-0.00135046
0.00283635
-0.0018784
0.00422052
-0.0021637
0.00570131
-0.00234859
0.00708787
-0.00220176
0.00831695
-0.00199124
0.00940798
-0.00181092
0.0103652
-0.00162108
0.0111798
-0.0013495
0.0119019
-0.00113324
0.0126004
-0.00103499
0.01328
-0.000940494
0.0139563
-0.000879042
0.0146443
-0.00090857
0.0152409
-0.000811323
0.0156476
-0.000591345
0.015809
-0.000247265
0.0158132
-1.23643e-05
0.0158184
-1.92608e-05
0.0155483
0.000328417
0.0147784
0.00084287
0.0138446
0.000898332
0.0129552
0.000846477
0.0120541
0.00100246
0.0111889
0.00114208
0.010284
0.00124845
0.00878291
0.00169769
0.00634273
0.00277838
0.00402534
0.00259779
0.00159677
0.00271472
-0.00113922
0.00278329
-0.00420545
0.00309282
-0.00749029
0.00349529
-0.011015
0.00445755
-0.0149112
0.00582326
-0.0191246
0.00684646
-0.0237242
0.00765205
-0.0286795
0.00819251
-0.0337374
0.00835368
-0.0386029
0.00818867
-0.0432769
0.00821587
-0.0477323
0.00816118
-0.0515952
0.0072716
-0.0551038
0.00673778
-0.0580698
0.0059129
-0.0604372
0.0051152
-0.062007
0.00419317
-0.0628331
0.00328366
-0.063019
0.00250322
-0.0627498
0.00163452
-0.0621272
0.000713603
-0.0613967
0.000525134
-0.059992
-0.000694321
-0.0581601
-0.00192113
-0.0562906
-0.0031225
-0.0537085
-0.00379824
-0.0502599
-0.00489936
-0.0464733
-0.0059214
-0.0424988
-0.00669788
-0.0382202
-0.00728626
-0.0336129
-0.00777697
-0.0287312
-0.00814151
-0.0237242
-0.00826091
-0.0189323
-0.00800806
-0.01462
-0.00753089
-0.0107709
-0.00706511
-0.00727255
-0.00663887
-0.00402561
-0.00624843
-0.00105717
-0.00573971
0.00162517
-0.00519643
0.00391614
-0.00449762
0.00624752
-0.00399649
0.00942288
-0.00456712
0.0133396
-0.00551476
0.0175888
-0.00603367
0.0218582
-0.00572166
0.0260032
-0.00448046
0.0290941
-0.00342733
0.0314174
-0.00270791
0.0334161
-0.00244169
0.0349274
-0.00187126
0.0356966
-0.000991321
0.0357567
-5.91066e-05
0.0355975
0.000226349
0.0353035
0.00042091
0.0349447
0.000634382
0.0345631
0.000757273
0.0342739
0.000760829
0.0342028
0.000658678
0.0342647
0.000582823
0.034065
0.000875458
0.0328059
0.00186487
0.0312011
0.00189477
0.0294854
0.00205055
0.0279996
0.00197777
0.0266423
0.00218691
0.0253417
0.00208956
0.024376
0.00149173
0.0238234
0.000998776
0.0234227
0.000849412
0.0229856
0.000886737
0.022352
0.00104324
0.0214266
0.00130013
0.0204553
0.00132458
0.0195907
0.00120619
0.0189001
0.00102163
0.0183926
0.000777561
0.0179621
0.000704789
0.0175623
0.000654395
0.0172034
0.000499607
0.0169154
0.00034595
0.0167948
0.000188407
0.0167729
3.3384e-05
0.0168067
-8.8259e-05
0.0168275
-0.00013896
0.0168807
-0.000161427
0.0169399
-0.000138895
0.0170017
-0.000130174
0.017037
-9.05557e-05
0.0170745
-9.48286e-05
0.0171032
-9.27202e-05
0.0171423
-0.000125744
0.0172058
-0.000164212
0.0172965
-0.000214131
0.0174248
-0.000275451
0.0175832
-0.000316693
0.0177467
-0.000307962
0.0179033
-0.000288282
0.0180501
-0.000271987
0.0181909
-0.00026662
0.0183327
-0.000272846
0.0184838
-0.000292084
0.0186552
-0.000327192
0.0188577
-0.000375166
0.0190965
-0.000427358
0.0193662
-0.000470617
0.0196405
-0.000489999
0.0198653
-0.000430908
0.0200149
-0.000333213
0.0200985
-0.000229698
0.0201447
-0.000202802
0.0201987
-0.000198984
0.0202594
-0.00019529
0.0203065
-0.000162819
0.020347
-0.000154748
0.0203675
-0.0001299
0.0203669
-9.65364e-05
0.0203581
-8.59911e-05
0.0203579
-9.37723e-05
0.0203727
-0.000120239
0.0203976
-0.000152652
0.0204263
-0.000145283
0.0204475
-0.000135104
0.0204548
-0.000122236
0.0204565
-0.000141399
0.0204702
-0.000173129
0.0205255
-0.000220016
0.0206245
-0.000259675
0.0207236
-0.000252806
0.0207424
-0.000157069
0.0206974
-6.16175e-05
0.0205795
6.55716e-06
0.0204457
2.59481e-06
0.0203246
-3.90139e-06
0.0202643
-6.30138e-05
0.0202328
-7.8166e-05
0.0202233
-0.000105211
0.0202132
-0.000101585
0.0201786
-7.66938e-05
0.0201051
-3.35243e-05
0.020069
-8.50025e-05
0.0200625
-0.000115933
0.0200676
-0.000145343
0.0200818
-0.000129177
0.0200621
-7.97864e-05
0.0199274
4.98099e-05
0.0197102
0.000144594
0.019501
0.000135166
0.0193388
0.000100004
0.0192359
5.76422e-05
0.0191926
1.14012e-06
0.0191889
-4.9863e-05
0.0192467
-0.00013142
0.0193989
-0.000226849
0.0195619
-0.000230401
0.0196286
-0.000150078
0.0196067
2.09921e-06
0.0195468
3.20665e-05
0.0194868
2.52113e-05
0.0194804
-3.76638e-05
0.0195991
-0.000163486
0.0198382
-0.000258077
0.0200312
-0.00021631
0.0200588
-3.62407e-05
0.0200089
0.000110579
0.0198748
0.000215073
0.0197562
0.000219657
0.0197044
0.000137644
0.019706
7.98706e-05
0.019794
-8.3889e-06
0.0200012
-0.000125651
0.0202459
-0.000135853
0.0204766
-9.8367e-05
0.0205636
0.00010006
0.0205938
9.54467e-05
0.020652
3.15961e-05
0.0207758
-4.08411e-05
0.0209138
-3.83188e-06
0.0211247
-5.11385e-05
0.0213599
-2.68196e-05
0.0215313
0.000106103
0.0215908
9.3539e-05
0.0217178
4.4391e-05
0.0218744
2.92662e-05
0.0221212
-9.66684e-05
0.0223714
-3.31299e-05
0.0225441
0.000130136
0.0226486
0.000149742
0.0227472
0.00014406
0.022877
0.000137081
0.0229847
0.000212825
0.0230384
0.000141491
0.023161
0.000101618
0.0233416
4.21353e-05
0.0236342
-6.09086e-05
0.0239152
-1.21737e-05
0.0240981
0.000148406
0.0241509
0.000121941
0.0242827
5.23816e-05
0.024493
-3.85724e-05
0.0246246
0.0001188
0.0248944
-5.45783e-05
0.0251082
1.36375e-05
0.025245
0.000130134
0.0252862
8.35525e-05
0.0253687
6.17127e-05
0.0254421
0.000105374
0.025681
-9.24836e-05
0.0259332
-9.60214e-05
0.0260615
2.08907e-05
0.0260193
0.000196443
0.0259265
0.000201943
0.0258734
0.000146701
0.0259389
7.42276e-06
0.0260811
-4.51802e-05
0.0261623
1.54796e-05
0.0263086
-4.81292e-05
0.0263161
2.23625e-05
0.0262419
0.000128697
0.0261599
0.000119149
0.0261902
-5.04311e-05
0.0262525
-9.09076e-05
0.0263252
-9.62614e-05
0.0263814
-8.21696e-05
0.0262808
6.19413e-05
0.0260597
0.000135261
0.025858
8.82517e-05
0.0257581
-1.7809e-07
0.0257884
-0.000141859
0.0258681
-0.000229469
0.0260336
-0.000345338
0.0263844
-0.000554307
0.0268247
-0.000655815
0.0270784
-0.000475252
0.0270841
-0.000216863
0.026803
9.53625e-05
0.0264037
0.000175631
0.0260757
9.33881e-05
0.0259449
-6.90126e-05
0.025971
-0.000219837
0.0261179
-0.000362492
0.0262689
-0.000381244
0.0263285
-0.000256641
0.0261821
-1.24316e-05
0.0258923
6.6339e-05
0.025628
6.83045e-05
0.0255827
-0.000143261
0.0256083
-0.0002331
0.0256326
-0.000179329
0.0255545
-6.77474e-05
0.0255363
-0.000136092
0.0256185
-0.000242256
0.0257509
-0.00027708
0.0258609
-0.000236243
0.025819
-4.78518e-05
0.0256543
6.63263e-05
0.0255158
5.11211e-05
0.0255018
-5.62319e-05
0.0257596
-0.000322353
0.0261558
-0.000354618
0.0264341
-0.000213112
0.0264353
5.2525e-05
0.0263694
0.000117201
0.0263375
0.000115168
0.0264065
0.00011165
0.0265135
0.000149169
0.026584
3.02237e-05
0.0269626
-0.000262304
0.0276563
-0.000559837
0.0283451
-0.000398494
0.028704
-0.00010104
0.0287298
0.000402541
0.0287312
0.000340246
0.029033
-2.89324e-06
0.029296
0.000163945
0.0299481
-0.000283639
0.0309604
-0.000637091
0.0320739
-0.00055501
0.0324609
0.000248702
0.0324876
0.000261813
0.0328523
2.22787e-05
0.0332823
0.000123018
0.0340563
-2.45771e-05
0.0351884
-0.000481047
0.0360153
0.000185654
0.036186
0.000205448
0.0366905
4.30791e-05
0.0371378
0.000558986
0.0382679
-0.000404292
0.0393345
1.76019e-05
0.0396389
0.000207146
0.0403826
-8.3476e-05
0.0409733
0.000532012
0.0421829
-0.000389218
0.0434878
-0.000326075
0.0443992
-0.000158274
0.0448323
7.85483e-05
0.0456662
0.000393287
0.0461696
-2.36672e-06
0.0469091
0.000286003
0.0478714
0.000246128
0.0488147
0.000270424
0.0501522
-0.000402138
0.0513813
0.000130385
0.0517759
0.000126586
0.0527081
-0.000126162
0.0532999
0.000880084
0.0545883
-0.000110731
0.0557188
3.43863e-05
0.0565569
-0.00026396
0.0571887
0.00084243
0.0584848
-0.00020852
0.0596415
-1.12445e-05
0.0603119
-0.000271769
0.0608948
0.000817124
0.0622018
-0.000134281
0.0627978
0.000364681
0.063693
-0.000193444
0.0642361
0.000817946
0.065529
-0.000178458
0.0666733
-4.27587e-05
0.0669824
-4.16733e-05
0.0676093
0.000221231
0.0682178
0.000665466
0.0693288
-0.000200049
0.0700966
3.27488e-05
0.0702648
-0.000197544
0.0709651
0.000158088
0.0716526
0.000441979
0.0728142
-3.9519e-05
0.0729879
0.000108029
0.0730768
-0.000169903
0.0733024
-0.000321253
0.0737663
-6.56433e-05
0.0741866
0.000384762
0.0748407
0.000250438
0.0752991
1.56133e-06
0.0752248
0.000230009
0.0750951
-0.000302671
0.0752753
0.000215612
0.0755818
8.36986e-05
0.0759483
0.000217544
0.0762829
4.07631e-05
0.0760862
5.68113e-05
0.0760122
6.12952e-05
0.0761842
-9.85047e-05
0.0765871
-0.000115461
0.0763331
0.00032703
0.0754302
0.000735812
0.0745866
0.000451277
0.0741713
-7.83416e-05
0.0737066
6.65433e-05
0.0735105
-3.34189e-05
0.0735286
4.11385e-05
0.0737869
-3.9938e-05
0.073347
-4.00351e-05
0.0726893
0.000278379
0.07245
-0.00012178
0.07207
0.000219143
0.0714755
-3.81305e-05
0.070447
0.000525039
0.0697894
-4.78343e-06
0.0697699
-0.000324108
0.0698239
-0.000210824
0.0690328
0.000289305
0.0677988
0.000486807
0.0669
0.000397449
0.0666949
-0.000269837
0.0668315
-0.000455288
0.066979
-0.000265684
0.0660816
0.000500842
0.0645314
0.000860928
0.063208
0.000694386
0.0627535
-4.31941e-05
0.0628734
-0.000422258
0.06308
-0.000450425
0.0629181
-0.000118576
0.061777
0.000714565
0.0604342
0.000786939
0.0594826
0.000541394
0.0593486
-0.000169836
0.0595664
-0.000423845
0.0597194
-0.00019507
0.0591729
0.000401987
0.0580924
0.000766967
0.0572008
0.000663623
0.0570629
-0.000222375
0.0571565
-0.00024313
0.057219
-5.7397e-05
0.0567555
0.000356418
0.0560698
0.000537478
0.0559402
-9.65022e-05
0.0560207
-0.000147766
0.0559904
6.66222e-05
0.0554234
0.000504185
0.0548512
0.000516129
0.0548389
-8.75031e-05
0.0550952
-0.000291164
0.0552415
-8.84363e-05
0.0547293
0.000496729
0.0539908
0.000704191
0.0535961
0.000433761
0.0536686
-9.97685e-05
0.0541144
-0.000384262
0.0548492
-0.000561909
0.0554208
-0.000434217
0.0554146
9.54102e-05
0.0547912
0.000670746
0.0543466
0.000544627
0.0544084
6.82955e-05
0.0545787
-1.93365e-05
0.0544223
0.000365247
0.0538354
0.000744807
0.053465
0.000563005
0.0534635
0.000154121
0.053884
-0.000275206
0.0546705
-0.000488354
0.0558638
-0.000782716
0.0570477
-0.000757329
0.057235
-9.23375e-05
0.0568869
0.000479196
0.0564377
0.000724314
0.0563172
0.000396026
0.0569165
-0.000388391
0.0580549
-0.000764066
0.0591714
-0.000655935
0.0592573
0.000318642
0.0589605
0.000698791
0.0589079
0.000580416
0.0589934
0.000305226
0.0598779
-0.000608687
0.0610788
-0.000765278
0.0621892
-0.00058442
0.0624799
0.000382083
0.0625757
0.000471538
0.0627984
0.000233521
0.063788
-0.000526366
0.065193
-0.000778716
0.0661408
-0.000345994
0.0662196
0.000515931
0.0663042
0.00055819
0.0666518
0.000200768
0.0677394
-0.000540988
0.0691
-0.00060556
0.0699228
-0.000100037
0.0702037
0.000305886
0.070417
0.00025005
0.0713133
-0.000389114
0.0727708
-0.000801096
0.0739343
-0.000518733
0.0740301
0.000320639
0.0739318
0.000622591
0.0739563
0.00052817
0.0743489
3.14834e-05
0.0753147
-0.00058638
0.0764755
-0.000548435
0.0772438
-0.000337031
0.0772434
0.000179526
0.0772361
0.000305584
0.0773139
5.52683e-05
0.0780262
-0.000370328
0.0787308
-0.000421139
0.0788449
-1.9791e-05
0.0788456
0.000174142
0.0787631
6.13602e-05
0.0790299
-0.000294734
-0.000190941
0.000517035
-0.000708005
0.00121354
-0.00109075
0.00202228
-0.00151323
0.00304473
-0.00241306
0.00436485
-0.0032394
0.00584491
-0.00368392
0.00737381
-0.00391741
0.00881568
-0.00368302
0.0101031
-0.00331726
0.0112214
-0.00296644
0.0121354
-0.00257049
0.0128651
-0.0021131
0.0135046
-0.00180419
0.0141368
-0.00169763
0.0147292
-0.0015614
0.0153049
-0.0014812
0.0158624
-0.00149013
0.0162895
-0.00126004
0.0165213
-0.000842607
0.0165749
-0.000317362
0.0165552
-4.55996e-06
0.0165415
-1.52678e-05
0.016439
0.000426004
0.0158332
0.00144979
0.0146773
0.00206464
0.01348
0.00205835
0.0123799
0.00212145
0.0113542
0.00218784
0.0100336
0.00258851
0.00805419
0.00369908
0.00554104
0.00531359
0.00190113
0.00625483
-0.00308446
0.00771774
-0.00919294
0.00891178
-0.0157667
0.00968958
-0.0222567
0.0100127
-0.0284259
0.0106564
-0.0342911
0.0117204
-0.0396966
0.0122852
-0.0447304
0.0127226
-0.0494433
0.012945
-0.0536121
0.0125642
-0.0568832
0.0115037
-0.0589977
0.010377
-0.0597934
0.00900078
-0.0608767
0.00840228
-0.0616004
0.00751365
-0.062196
0.00656389
-0.062672
0.00564836
-0.0629598
0.00453458
-0.0631099
0.00348719
-0.0631122
0.00257572
-0.0628108
0.00142861
-0.062254
0.000397808
-0.0612244
-0.000637138
-0.060159
-0.00199501
-0.0585346
-0.00336732
-0.0557869
-0.00522984
-0.0522447
-0.00716025
-0.0483866
-0.00896621
-0.0440365
-0.0103509
-0.0392205
-0.0114061
-0.0341894
-0.0122087
-0.028993
-0.0129155
-0.0235711
-0.0135162
-0.0179361
-0.0138401
-0.0122513
-0.0136349
-0.00673022
-0.0129966
-0.00145629
-0.0122867
0.00364506
-0.0116892
0.00867791
-0.0112294
0.01365
-0.0106595
0.0185621
-0.0100549
0.0233919
-0.00927383
0.0277381
-0.00829116
0.0310885
-0.00786971
0.0332873
-0.00767053
0.034645
-0.00734544
0.0358162
-0.00684481
0.0373339
-0.00594752
0.0396645
-0.0057017
0.0422716
-0.00525007
0.0446394
-0.00473284
0.0465814
-0.0037261
0.0480084
-0.00233297
0.0490307
-0.00100579
0.0496836
-0.000363035
0.04988
0.000278281
0.0498549
0.000713546
0.0496815
0.000990245
0.0492419
0.00127072
0.048463
0.00152063
0.0475335
0.00160326
0.0464304
0.00207557
0.0451733
0.00320404
0.0434585
0.00367478
0.0421631
0.00340312
0.0414925
0.00270875
0.0413429
0.00239366
0.0411952
0.0022902
0.0402701
0.00246628
0.038456
0.00285545
0.0364487
0.00289647
0.0346702
0.00269457
0.0332963
0.00244504
0.0322608
0.00235832
0.0313398
0.00226837
0.0306093
0.00195878
0.030021
0.00162694
0.0294741
0.00133489
0.0287638
0.00142093
0.0280439
0.00137962
0.02748
0.00106778
0.027066
0.000763066
0.0268006
0.000453576
0.0267296
0.000102836
0.0267353
-9.98214e-05
0.0267823
-0.00019628
0.0267965
-0.00018948
0.026764
-0.000122668
0.0266575
-4.07718e-05
0.0265233
2.77987e-05
0.0264532
-4.03082e-05
0.0264435
-9.76584e-05
0.0264606
-0.00015739
0.0265256
-0.000244105
0.0266223
-0.000326721
0.0267387
-0.000409642
0.0268787
-0.000476811
0.0270392
-0.000491154
0.0272134
-0.000487394
0.0274006
-0.000486104
0.0275991
-0.000493772
0.0278019
-0.000505926
0.0280022
-0.000524415
0.0281931
-0.0005517
0.0283707
-0.000588251
0.0285333
-0.000627365
0.0286911
-0.000667792
0.0288471
-0.000687236
0.0290102
-0.000637514
0.0291696
-0.000538033
0.0293207
-0.000427272
0.0294537
-0.000384309
0.0295492
-0.000344435
0.029597
-0.000293761
0.0296401
-0.000257844
0.0296763
-0.000244347
0.0297142
-0.000222222
0.0297526
-0.000190631
0.0297781
-0.00016761
0.0298078
-0.000183661
0.0298301
-0.000204484
0.029842
-0.000229032
0.0298638
-0.000233194
0.0298843
-0.000223907
0.0298933
-0.000201724
0.0299043
-0.000226362
0.0298993
-0.000243182
0.0298706
-0.000269044
0.0298559
-0.00032516
0.0298213
-0.000299466
0.0297904
-0.000209324
0.0297996
-0.000155296
0.0298458
-0.000125318
0.0298643
-0.000101863
0.0298915
-0.000119375
0.0298594
-0.000120172
0.0297627
-7.10618e-05
0.0296726
-0.000104776
0.029592
-0.000110978
0.0295229
-9.66034e-05
0.0294983
-9.70044e-05
0.0294248
-9.91162e-05
0.0293219
-9.94952e-05
0.0292367
-0.000146449
0.0291157
-9.15546e-05
0.0290074
-5.16834e-05
0.0289301
5.05621e-05
0.0288945
0.000104053
0.0288599
9.88941e-05
0.0288415
5.1499e-05
0.028827
8.21113e-06
0.0288107
-4.31517e-05
0.0287738
-6.95836e-05
0.0286958
-0.000104334
0.0286146
-0.000190931
0.0285777
-0.000233048
0.0285748
-0.000180696
0.0286404
-9.27359e-05
0.0286963
-4.53514e-05
0.028819
-0.000114441
0.0289019
-0.000130877
0.0288512
-0.000116343
0.0288075
-0.000211705
0.0287376
-0.000135493
0.0287534
-3.38056e-05
0.0288476
4.25886e-05
0.028949
0.000148481
0.0290978
0.000113186
0.0292688
1.74462e-05
0.0294074
-7.77956e-08
0.0294255
4.06753e-05
0.0293679
8.69261e-06
0.0293501
-3.21506e-05
0.0293805
-3.58624e-05
0.0295125
6.986e-05
0.029676
4.18374e-05
0.0298325
-6.68241e-06
0.0299414
-2.29887e-05
0.0300425
2.97383e-05
0.0301319
1.17493e-06
0.0302521
2.69278e-06
0.030425
8.93024e-05
0.0305883
9.32157e-05
0.0307648
3.58268e-05
0.0309075
6.06229e-05
0.0309669
2.33291e-05
0.0310919
2.54177e-05
0.0312658
0.000145359
0.0314584
0.000149179
0.0316226
0.000175424
0.0317533
0.000204466
0.0319446
0.00022247
0.0322126
7.55689e-05
0.0324251
9.0936e-05
0.0325765
9.34842e-05
0.032612
0.000107401
0.0327052
9.74342e-05
0.0328817
0.000173319
0.0330921
0.000110393
0.0332751
6.44424e-05
0.0333525
7.55417e-05
0.0334904
0.000167928
0.0335697
4.97974e-05
0.0337087
5.43194e-05
0.033852
0.000160678
0.0340592
4.30493e-05
0.0342522
2.91977e-05
0.0344076
0.00010162
0.0344531
7.39137e-06
0.0344632
2.31006e-05
0.034513
9.33476e-05
0.0346521
0.000169101
0.0347838
0.000172912
0.0349554
6.63908e-05
0.0349823
6.61179e-05
0.0348901
0.000122991
0.0348631
0.000108157
0.0348277
4.8283e-05
0.0348308
6.78925e-05
0.0348517
0.000145958
0.0349011
9.84573e-05
0.0348645
4.89746e-06
0.0347802
1.64031e-06
0.0347647
-8.87346e-05
0.0347393
-7.14016e-05
0.0347929
-1.9397e-05
0.0348645
2.63377e-05
0.0350328
-0.000128436
0.0351661
-0.000191878
0.035057
-0.000104405
0.0347955
-4.35604e-05
0.0346427
-0.000276893
0.0345929
-0.000595757
0.0345892
-0.000754723
0.0345999
-0.000591936
0.0346001
-0.000332854
0.034661
-8.55507e-05
0.0347142
-3.57456e-06
0.0348934
-0.000214841
0.0349409
-0.000250378
0.0347162
-0.000132588
0.0344754
-0.000258794
0.0342977
-0.000334573
0.034167
-0.000260882
0.0341658
-0.000144936
0.0341966
-9.42816e-05
0.034292
-0.000157093
0.0342169
-0.000192789
0.0341223
-0.000262912
0.0339903
-0.000160169
0.0339636
-0.000146326
0.0338966
-0.000166221
0.0337684
-0.000201602
0.0337238
-0.000311623
0.0336686
-0.000245144
0.0337128
-0.000143283
0.0337586
-1.72395e-05
0.0339529
-0.000165788
0.034091
-0.000204298
0.0339549
-0.000178657
0.0339102
-0.000285253
0.0338524
-0.000109884
0.033955
1.46505e-05
0.0340643
9.44366e-05
0.0343005
-1.16267e-05
0.0346139
-6.99366e-05
0.0351112
-0.000191629
0.0355282
-0.000204227
0.0355986
-0.000130394