/*--------------------------------*- C++ -*----------------------------------*\
| =========                 |                                                 |
| \\      /  F ield         | OpenFOAM: The Open Source CFD Toolbox           |
|  \\    /   O peration     | Version:  v1812                                 |
|   \\  /    A nd           | Web:      www.OpenFOAM.com                      |
|    \\/     M anipulation  |                                                 |
\*---------------------------------------------------------------------------*/
FoamFile
{
    version     2.0;
    format      ascii;
    class       volScalarField;
    location    "0.4";
    object      rho;
}
// * * * * * * * * * * * * * * * * * * * * * * * * * * * * * * * * * * * * * //

dimensions      [1 -3 0 0 0 0 0];


internalField   nonuniform List<scalar> 
20400
(
1.25907
1.25912
1.25926
1.25942
1.25955
1.25969
1.25984
1.25992
1.26
1.26005
1.26009
1.26009
1.26006
1.26004
1.26001
1.25997
1.25996
1.25997
1.26003
1.26014
1.26032
1.26068
1.26117
1.26191
1.26297
1.2642
1.26554
1.26716
1.26888
1.2705
1.272
1.27303
1.27363
1.27391
1.2738
1.27339
1.27276
1.27188
1.27089
1.26982
1.26879
1.26779
1.26688
1.26597
1.26511
1.26444
1.26374
1.26318
1.26265
1.26216
1.26174
1.26133
1.26107
1.26083
1.26064
1.26051
1.26066
1.26074
1.26079
1.26101
1.2614
1.26188
1.26237
1.26295
1.26357
1.26422
1.26489
1.26556
1.26623
1.26691
1.2676
1.26827
1.26893
1.26965
1.27021
1.27043
1.27044
1.27038
1.2705
1.27086
1.27101
1.27146
1.27195
1.27245
1.27288
1.27319
1.27331
1.27344
1.27348
1.2735
1.27342
1.27328
1.273
1.27263
1.27222
1.27175
1.27113
1.27043
1.26962
1.26875
1.26787
1.26704
1.26626
1.26554
1.26487
1.26428
1.26371
1.26317
1.26267
1.26224
1.26186
1.26155
1.26129
1.26107
1.26088
1.26072
1.26059
1.26047
1.26037
1.26028
1.26022
1.26018
1.26016
1.26016
1.26017
1.26018
1.2602
1.26022
1.26024
1.26025
1.26027
1.2603
1.26033
1.26037
1.26041
1.26045
1.26048
1.26051
1.26054
1.26056
1.26058
1.26059
1.26059
1.2606
1.2606
1.2606
1.26058
1.26055
1.26053
1.2605
1.26047
1.26044
1.2604
1.26035
1.2603
1.26024
1.26018
1.26012
1.26006
1.25999
1.25991
1.25983
1.25974
1.25965
1.25957
1.25949
1.2594
1.25932
1.25922
1.25913
1.25905
1.25896
1.25888
1.25881
1.25873
1.25864
1.25858
1.25851
1.25845
1.25839
1.25833
1.25827
1.25823
1.25819
1.25817
1.25816
1.25814
1.25813
1.25813
1.25812
1.25812
1.25815
1.25817
1.25819
1.25821
1.25825
1.25828
1.25832
1.25836
1.25842
1.25849
1.25856
1.25864
1.25872
1.25879
1.25887
1.25896
1.25905
1.25915
1.25925
1.25935
1.25944
1.25954
1.25966
1.25978
1.25987
1.25998
1.26009
1.26018
1.26029
1.26039
1.2605
1.2606
1.26072
1.26082
1.26092
1.26102
1.26111
1.26119
1.26129
1.26137
1.26145
1.26154
1.26166
1.26168
1.26174
1.26183
1.26187
1.26192
1.26198
1.262
1.26203
1.26205
1.26208
1.26208
1.26208
1.26208
1.26206
1.26208
1.26203
1.262
1.26196
1.26188
1.26183
1.26177
1.26168
1.26158
1.26147
1.26135
1.26122
1.26106
1.26091
1.26074
1.26055
1.26036
1.26016
1.25994
1.25971
1.25945
1.25919
1.25888
1.25861
1.25829
1.25798
1.25763
1.25731
1.25693
1.25657
1.2562
1.25581
1.25539
1.25499
1.25454
1.25414
1.2537
1.25325
1.2528
1.25233
1.25187
1.25138
1.2509
1.25042
1.24991
1.24942
1.24891
1.24842
1.24791
1.24742
1.24691
1.24641
1.24588
1.24537
1.24493
1.2444
1.24397
1.24337
1.24291
1.24241
1.24187
1.24139
1.24092
1.24043
1.23995
1.23949
1.23893
1.23851
1.23793
1.2375
1.23709
1.2365
1.23612
1.23553
1.235
1.23486
1.23415
1.23378
1.23308
1.23264
1.23214
1.23168
1.23132
1.2307
1.23002
1.22945
1.22896
1.22848
1.22804
1.22747
1.2268
1.2263
1.22552
1.22528
1.22442
1.22389
1.22314
1.22287
1.22203
1.22148
1.22069
1.2205
1.21953
1.21901
1.21825
1.21788
1.21748
1.21664
1.21607
1.21548
1.21522
1.21466
1.21406
1.21347
1.21307
1.21268
1.21232
1.21222
1.21154
1.21098
1.21069
1.21022
1.21003
1.20973
1.20928
1.20877
1.20853
1.20813
1.20799
1.20762
1.20716
1.20694
1.20675
1.20645
1.20616
1.20586
1.20564
1.20511
1.20478
1.20449
1.20416
1.20405
1.20341
1.20336
1.20295
1.20284
1.20243
1.20202
1.20172
1.20155
1.20121
1.20104
1.20066
1.20053
1.2002
1.20007
1.19996
1.1998
1.1996
1.19957
1.19936
1.19933
1.19938
1.19935
1.19934
1.19935
1.19945
1.19949
1.19963
1.19986
1.19996
1.2001
1.20035
1.20058
1.20084
1.20114
1.20139
1.20166
1.20201
1.20239
1.20272
1.20309
1.2034
1.20382
1.20417
1.20464
1.20499
1.2054
1.20582
1.20621
1.20658
1.20705
1.20751
1.20786
1.20827
1.20866
1.20906
1.20945
1.20978
1.21015
1.21049
1.21081
1.21112
1.21148
1.21182
1.2121
1.21232
1.21256
1.21282
1.21293
1.2132
1.21332
1.21341
1.21347
1.21355
1.21358
1.21351
1.21353
1.21359
1.21328
1.21317
1.21299
1.21275
1.21255
1.21241
1.21196
1.2117
1.21137
1.21104
1.21067
1.21027
1.20994
1.20953
1.20907
1.20871
1.20839
1.20785
1.20749
1.20709
1.20669
1.20631
1.20592
1.20562
1.20533
1.20495
1.20467
1.20426
1.20401
1.20374
1.20343
1.20311
1.20301
1.25911
1.2592
1.25938
1.25968
1.25992
1.26019
1.26044
1.26059
1.2607
1.26077
1.26082
1.26082
1.26079
1.26076
1.26071
1.26065
1.2606
1.26056
1.26054
1.26054
1.26059
1.26077
1.26107
1.26163
1.26258
1.26385
1.26536
1.26709
1.26898
1.27074
1.27226
1.27372
1.27414
1.274
1.2735
1.27276
1.27188
1.27085
1.26982
1.26871
1.26758
1.26646
1.2654
1.26434
1.26322
1.26227
1.26123
1.26031
1.2594
1.25858
1.25784
1.25711
1.25656
1.25579
1.25493
1.25464
1.25434
1.25366
1.25311
1.2531
1.25319
1.25319
1.25327
1.25352
1.25391
1.25435
1.25487
1.25539
1.25598
1.25663
1.25737
1.25818
1.25913
1.26012
1.26111
1.26159
1.26163
1.26153
1.26167
1.26225
1.2627
1.26341
1.26442
1.26556
1.26662
1.26744
1.26801
1.26856
1.26909
1.26971
1.27037
1.27101
1.27162
1.27193
1.27205
1.27207
1.27202
1.27187
1.27159
1.27116
1.2707
1.27014
1.26947
1.26873
1.26798
1.26732
1.26674
1.26616
1.26556
1.26498
1.26441
1.26391
1.26351
1.26317
1.26287
1.26259
1.26231
1.26204
1.26177
1.26154
1.26133
1.26116
1.26102
1.26093
1.26088
1.26085
1.26084
1.26082
1.2608
1.26076
1.26073
1.2607
1.26069
1.26069
1.2607
1.26072
1.26074
1.26076
1.26078
1.26079
1.26079
1.26078
1.26077
1.26077
1.26076
1.26076
1.26074
1.26072
1.26069
1.26065
1.26062
1.26059
1.26055
1.26051
1.26046
1.2604
1.26034
1.26027
1.26022
1.26016
1.26009
1.26001
1.25992
1.2598
1.25971
1.25962
1.25955
1.25947
1.25939
1.2593
1.25921
1.25912
1.25903
1.25896
1.2589
1.25883
1.25875
1.25866
1.25858
1.25852
1.25847
1.25843
1.25838
1.25835
1.25833
1.25833
1.25832
1.25833
1.25831
1.25828
1.25827
1.2583
1.25833
1.25839
1.25842
1.25844
1.25846
1.25846
1.25851
1.25857
1.25864
1.25872
1.25882
1.25891
1.25899
1.25907
1.25915
1.25921
1.25932
1.25944
1.25955
1.25964
1.25973
1.25984
1.25995
1.26005
1.26017
1.26029
1.26038
1.26047
1.26056
1.26067
1.26078
1.2609
1.261
1.26109
1.2612
1.26131
1.26138
1.26148
1.26155
1.26162
1.26173
1.26187
1.26189
1.26194
1.26198
1.26204
1.26208
1.26218
1.26221
1.26226
1.26225
1.26223
1.26222
1.26225
1.26226
1.26228
1.2623
1.26223
1.26219
1.2621
1.26206
1.26203
1.26197
1.26191
1.26179
1.26164
1.26152
1.26138
1.26124
1.26111
1.26095
1.2608
1.26062
1.26044
1.26023
1.25991
1.25957
1.25932
1.25904
1.25878
1.25851
1.25823
1.2579
1.25755
1.2571
1.25672
1.25636
1.25602
1.25565
1.25522
1.25474
1.25434
1.25394
1.25353
1.25305
1.25251
1.252
1.25153
1.25109
1.25067
1.2502
1.24968
1.24911
1.24856
1.24809
1.24761
1.24709
1.24659
1.24612
1.24563
1.24524
1.24464
1.24407
1.24354
1.24312
1.24263
1.24212
1.24167
1.24123
1.24065
1.24008
1.23967
1.23912
1.2388
1.23821
1.23779
1.23721
1.23673
1.23644
1.23584
1.23536
1.2349
1.23436
1.2341
1.2334
1.23303
1.23234
1.23187
1.23141
1.23099
1.23027
1.22973
1.22937
1.22884
1.22819
1.22773
1.22705
1.2267
1.22595
1.22538
1.22479
1.22437
1.22357
1.22293
1.22238
1.22192
1.2212
1.22071
1.2199
1.21953
1.21881
1.2182
1.2177
1.21703
1.21682
1.21604
1.21544
1.21497
1.21447
1.21416
1.21375
1.21313
1.21265
1.21241
1.21194
1.21162
1.21135
1.21086
1.21043
1.21
1.20974
1.20942
1.20925
1.2089
1.20837
1.20815
1.20799
1.2077
1.20722
1.20684
1.20656
1.20616
1.20601
1.20576
1.20554
1.20531
1.20466
1.20451
1.20422
1.204
1.20335
1.20328
1.20302
1.20285
1.20256
1.20208
1.20171
1.20159
1.20138
1.20132
1.20112
1.20057
1.20044
1.2003
1.20026
1.20036
1.20034
1.20006
1.1999
1.19989
1.19993
1.20005
1.20032
1.20043
1.20027
1.2004
1.20058
1.20087
1.20124
1.20148
1.20149
1.20178
1.20215
1.20259
1.20282
1.20299
1.20336
1.20386
1.20436
1.20473
1.20479
1.20528
1.20568
1.20627
1.20672
1.20715
1.20761
1.20786
1.20803
1.20849
1.20906
1.20953
1.20972
1.21007
1.21045
1.21092
1.21137
1.21171
1.21209
1.21252
1.21267
1.21258
1.21296
1.21322
1.21368
1.21387
1.21418
1.21406
1.2139
1.21412
1.21427
1.21444
1.21444
1.21445
1.21417
1.21396
1.21386
1.21384
1.21367
1.21345
1.21301
1.21267
1.21239
1.21222
1.21194
1.21148
1.21097
1.21062
1.21038
1.21001
1.2097
1.20905
1.20855
1.20821
1.20788
1.20757
1.20725
1.2069
1.20633
1.20597
1.20568
1.20556
1.20526
1.20483
1.20448
1.20418
1.20408
1.20412
1.2593
1.25943
1.25977
1.26023
1.26075
1.26124
1.26169
1.26196
1.26212
1.26221
1.26222
1.26217
1.2621
1.26202
1.26192
1.2618
1.2617
1.26159
1.26149
1.26143
1.26145
1.26159
1.2619
1.2624
1.26335
1.26474
1.26637
1.26815
1.26985
1.27147
1.27302
1.27379
1.27363
1.27288
1.27175
1.27047
1.26916
1.26784
1.26662
1.26537
1.2641
1.26285
1.26167
1.26056
1.25965
1.2585
1.2576
1.25661
1.25566
1.25467
1.25377
1.25285
1.25198
1.25123
1.25079
1.24987
1.24906
1.24896
1.24892
1.24854
1.24816
1.24803
1.24802
1.24803
1.24808
1.24822
1.24842
1.24863
1.24886
1.2491
1.24939
1.24971
1.25005
1.25056
1.25106
1.25129
1.25117
1.251
1.25102
1.25137
1.25195
1.25257
1.25344
1.25462
1.25601
1.25732
1.25834
1.2592
1.25996
1.26085
1.26196
1.26331
1.26486
1.26653
1.26811
1.26926
1.2699
1.27058
1.27107
1.27156
1.27195
1.27219
1.27218
1.27201
1.27163
1.27122
1.27083
1.27046
1.27002
1.26947
1.2688
1.26814
1.2676
1.26714
1.26674
1.26636
1.26594
1.26546
1.26493
1.26439
1.26388
1.26344
1.26308
1.26279
1.2626
1.26246
1.26236
1.26227
1.26217
1.26205
1.26191
1.26177
1.26165
1.26154
1.26146
1.2614
1.26136
1.26132
1.26129
1.26127
1.26123
1.26119
1.26115
1.2611
1.26107
1.26103
1.261
1.26097
1.26094
1.26091
1.26087
1.26082
1.26078
1.26074
1.26069
1.26063
1.26057
1.26051
1.26044
1.26037
1.2603
1.26023
1.26015
1.26006
1.25998
1.25989
1.2598
1.25971
1.25961
1.25952
1.25944
1.25935
1.25926
1.25919
1.25911
1.25903
1.25897
1.2589
1.25883
1.25877
1.25872
1.25867
1.25863
1.25859
1.25856
1.25854
1.25853
1.25852
1.25854
1.25854
1.25855
1.25856
1.25858
1.25859
1.25861
1.25867
1.2587
1.25875
1.2588
1.25885
1.25891
1.25898
1.25903
1.2591
1.25919
1.2593
1.25939
1.25949
1.25958
1.25967
1.25976
1.25988
1.25998
1.26009
1.26021
1.26029
1.2604
1.26053
1.26062
1.26074
1.26083
1.26093
1.26104
1.26116
1.26126
1.26135
1.26145
1.26154
1.26163
1.26173
1.26183
1.26189
1.26199
1.26208
1.26214
1.26219
1.26227
1.26233
1.26235
1.26241
1.26244
1.26248
1.2625
1.26253
1.26252
1.26254
1.26253
1.26249
1.26251
1.26246
1.26243
1.2624
1.26234
1.26229
1.2622
1.26212
1.26203
1.26192
1.26181
1.26168
1.26153
1.26135
1.26118
1.26101
1.26085
1.26066
1.26044
1.2602
1.25993
1.25969
1.25939
1.2591
1.25875
1.25844
1.25811
1.25779
1.25743
1.25709
1.25671
1.2563
1.25585
1.25547
1.25506
1.25463
1.25418
1.25373
1.2533
1.25283
1.25239
1.25191
1.25141
1.25089
1.25039
1.24992
1.24943
1.24894
1.24842
1.24792
1.24743
1.24697
1.24638
1.24586
1.24541
1.24491
1.24449
1.24392
1.24346
1.24296
1.24237
1.24191
1.24146
1.24099
1.24053
1.24001
1.23952
1.23897
1.23852
1.238
1.23768
1.23708
1.23667
1.23614
1.23561
1.23532
1.23476
1.23436
1.23368
1.23325
1.23272
1.2322
1.23175
1.23119
1.23067
1.23007
1.22955
1.22909
1.22851
1.22804
1.22752
1.22698
1.22635
1.2257
1.22501
1.2246
1.22396
1.22331
1.22258
1.22219
1.22155
1.22099
1.22031
1.21985
1.21919
1.21844
1.21799
1.21741
1.21686
1.21639
1.2158
1.21526
1.21488
1.21434
1.21402
1.21347
1.21309
1.21268
1.21235
1.21194
1.21157
1.21108
1.21083
1.21038
1.21016
1.20977
1.20941
1.20907
1.20881
1.2085
1.20813
1.20785
1.20762
1.20734
1.20703
1.20672
1.20648
1.2061
1.2058
1.20539
1.20524
1.20491
1.20444
1.2043
1.20397
1.20371
1.20339
1.20306
1.20272
1.2026
1.20229
1.20212
1.20169
1.20157
1.20122
1.20118
1.20101
1.20093
1.20066
1.2006
1.20047
1.20048
1.20052
1.20054
1.20055
1.20043
1.20056
1.20061
1.20084
1.20109
1.20124
1.20127
1.20149
1.20174
1.20206
1.20246
1.20259
1.20283
1.20323
1.20367
1.20411
1.2043
1.20459
1.20505
1.2055
1.20604
1.20636
1.20662
1.20699
1.2074
1.20783
1.20832
1.20889
1.20924
1.20958
1.20991
1.21039
1.21088
1.2112
1.21148
1.21167
1.21202
1.21235
1.21276
1.21312
1.21342
1.21371
1.21402
1.21404
1.21415
1.21445
1.21464
1.21482
1.21487
1.21503
1.21479
1.21472
1.21477
1.21487
1.21468
1.21465
1.21425
1.21403
1.21384
1.21378
1.21337
1.21319
1.21264
1.21231
1.212
1.21172
1.21144
1.21084
1.21042
1.21006
1.20978
1.20933
1.209
1.20856
1.20803
1.20763
1.20732
1.20709
1.20675
1.20648
1.206
1.20561
1.20545
1.20524
1.20508
1.2046
1.20454
1.25985
1.26012
1.26068
1.26144
1.26228
1.26307
1.26374
1.26415
1.26438
1.26448
1.26445
1.26434
1.26417
1.264
1.26381
1.2636
1.26341
1.2632
1.26303
1.26288
1.26286
1.26297
1.26327
1.26392
1.26495
1.26644
1.26819
1.26996
1.2715
1.27277
1.27363
1.27359
1.27276
1.27141
1.26981
1.2682
1.26665
1.26516
1.26381
1.26254
1.26129
1.2601
1.259
1.25799
1.25707
1.25627
1.2554
1.25463
1.25388
1.25319
1.2526
1.25197
1.25149
1.25094
1.25044
1.24979
1.24912
1.24851
1.24779
1.24704
1.24635
1.24581
1.24539
1.24504
1.24478
1.24464
1.24461
1.24464
1.24469
1.24474
1.2448
1.24488
1.24495
1.24515
1.2453
1.24537
1.24536
1.24531
1.24534
1.24537
1.24535
1.24549
1.24578
1.24629
1.24711
1.24807
1.24901
1.24987
1.25068
1.25153
1.25255
1.25387
1.25555
1.25757
1.25987
1.26191
1.26338
1.26462
1.26595
1.26735
1.26871
1.27008
1.2711
1.27188
1.27268
1.27342
1.27385
1.27394
1.27388
1.27376
1.27346
1.27304
1.27265
1.27226
1.27188
1.2714
1.27083
1.27023
1.26957
1.26884
1.26807
1.26733
1.2667
1.26616
1.26572
1.26538
1.26513
1.26492
1.26472
1.2645
1.26424
1.26396
1.26367
1.26339
1.26312
1.26288
1.26268
1.2625
1.26235
1.26222
1.26209
1.26196
1.26183
1.2617
1.26158
1.26148
1.26139
1.26132
1.26126
1.2612
1.26114
1.26109
1.26103
1.26098
1.26092
1.26087
1.2608
1.26074
1.26067
1.2606
1.26053
1.26045
1.26037
1.2603
1.26022
1.26013
1.26003
1.25994
1.25984
1.25976
1.25968
1.25959
1.25949
1.25942
1.25934
1.25926
1.25919
1.25913
1.25906
1.25901
1.25895
1.2589
1.25884
1.25881
1.25878
1.25876
1.25875
1.25874
1.25875
1.25877
1.25878
1.25879
1.2588
1.25882
1.25885
1.25888
1.25894
1.259
1.25904
1.25908
1.25914
1.2592
1.25928
1.25935
1.25944
1.25953
1.25964
1.25973
1.25982
1.25991
1.26002
1.26012
1.26022
1.26034
1.26045
1.26054
1.26065
1.26077
1.26086
1.26098
1.26108
1.26118
1.26128
1.2614
1.26152
1.26159
1.26169
1.2618
1.26187
1.26198
1.26208
1.26214
1.26222
1.26232
1.26238
1.26244
1.26251
1.2626
1.26261
1.26266
1.26268
1.26272
1.26275
1.26278
1.26278
1.2628
1.26276
1.26276
1.26274
1.26271
1.26269
1.26265
1.2626
1.26252
1.26243
1.26236
1.26228
1.26217
1.26206
1.26193
1.26176
1.26161
1.26145
1.26127
1.26108
1.26087
1.26066
1.26044
1.26021
1.25995
1.25966
1.25934
1.25902
1.2587
1.25838
1.25804
1.2577
1.25735
1.25696
1.25657
1.25616
1.25573
1.25533
1.2549
1.25445
1.25401
1.25356
1.2531
1.25265
1.25218
1.25167
1.25116
1.25066
1.25018
1.24972
1.24921
1.2487
1.2482
1.24769
1.2472
1.24666
1.24614
1.24569
1.2452
1.24475
1.24421
1.24376
1.24321
1.24268
1.24219
1.24169
1.24127
1.24081
1.24036
1.23978
1.23927
1.23874
1.2383
1.23787
1.23749
1.23691
1.23637
1.23592
1.23551
1.23511
1.23456
1.23391
1.23348
1.233
1.23255
1.23207
1.23162
1.23093
1.23039
1.22986
1.22931
1.22885
1.22832
1.22772
1.2272
1.22647
1.22602
1.2254
1.2248
1.22412
1.22362
1.22304
1.22239
1.22172
1.22122
1.2206
1.21999
1.2194
1.21881
1.2183
1.21774
1.2172
1.21655
1.21611
1.21562
1.21509
1.2146
1.21424
1.21378
1.21336
1.21295
1.21256
1.21218
1.21183
1.21137
1.21109
1.21075
1.21033
1.20999
1.20965
1.20934
1.2091
1.20876
1.20844
1.20806
1.20789
1.20764
1.20733
1.20696
1.20671
1.20637
1.20604
1.20573
1.20542
1.20521
1.20485
1.20448
1.20429
1.20395
1.20368
1.2034
1.20301
1.20289
1.20254
1.20237
1.20207
1.20186
1.20156
1.20147
1.20131
1.20116
1.201
1.20092
1.20082
1.20077
1.20082
1.20081
1.20078
1.2008
1.20093
1.20094
1.20116
1.20137
1.20147
1.20166
1.2018
1.20211
1.2024
1.20267
1.20295
1.20317
1.20359
1.20397
1.20432
1.20466
1.20502
1.20538
1.20583
1.20624
1.20663
1.20703
1.20736
1.20778
1.20817
1.20867
1.20914
1.20957
1.20988
1.21028
1.21068
1.21106
1.2115
1.21176
1.21212
1.21242
1.21275
1.21308
1.21348
1.21374
1.21399
1.21426
1.21446
1.21459
1.2148
1.21498
1.21508
1.21515
1.21523
1.21528
1.21515
1.21511
1.21515
1.21501
1.21491
1.21465
1.21442
1.21419
1.21405
1.21373
1.21345
1.21304
1.21269
1.21237
1.21206
1.21172
1.21124
1.21079
1.2104
1.2101
1.20967
1.2093
1.20888
1.20845
1.20804
1.20769
1.20739
1.20708
1.20672
1.20637
1.20605
1.20578
1.20556
1.20526
1.20501
1.20495
1.26029
1.26077
1.2616
1.26273
1.26392
1.26499
1.26586
1.26638
1.26665
1.26676
1.26669
1.26651
1.26628
1.26604
1.26577
1.26548
1.26522
1.26498
1.26481
1.26469
1.26472
1.26499
1.26554
1.26632
1.26737
1.26881
1.2703
1.27167
1.2728
1.27326
1.27316
1.27227
1.27088
1.26929
1.26759
1.26596
1.26449
1.26311
1.26197
1.26103
1.26003
1.25925
1.25841
1.2577
1.25702
1.25648
1.25586
1.25537
1.25489
1.25445
1.25398
1.2534
1.25279
1.25209
1.2513
1.25047
1.24959
1.24859
1.24746
1.24639
1.24545
1.24463
1.24395
1.24339
1.24295
1.24261
1.2424
1.24225
1.24214
1.24204
1.24196
1.24187
1.24178
1.24177
1.24177
1.24178
1.24182
1.24185
1.2419
1.24192
1.2419
1.24197
1.24204
1.2422
1.24247
1.24284
1.2433
1.24382
1.24436
1.24496
1.24566
1.24656
1.24769
1.24908
1.25078
1.25273
1.25464
1.25661
1.25854
1.26032
1.26204
1.26408
1.26589
1.2676
1.26932
1.27109
1.27262
1.2738
1.27489
1.27578
1.27636
1.27664
1.2767
1.27666
1.2765
1.27618
1.27575
1.27525
1.27469
1.27408
1.27337
1.27257
1.27177
1.27102
1.27037
1.26981
1.26935
1.26897
1.26864
1.26831
1.26796
1.26755
1.26711
1.26663
1.26614
1.26566
1.26521
1.2648
1.26444
1.26411
1.2638
1.26349
1.26318
1.26288
1.2626
1.26234
1.2621
1.26191
1.26175
1.26162
1.26151
1.2614
1.26131
1.26124
1.26116
1.26109
1.26102
1.26095
1.26088
1.26081
1.26073
1.26066
1.26058
1.2605
1.26041
1.26032
1.26023
1.26014
1.26006
1.25997
1.25988
1.25979
1.2597
1.25962
1.25955
1.25947
1.2594
1.25933
1.25926
1.25919
1.25915
1.2591
1.25905
1.25902
1.25899
1.25897
1.25896
1.25894
1.25895
1.25895
1.25897
1.25897
1.259
1.25903
1.25907
1.2591
1.25914
1.25918
1.25924
1.25928
1.25934
1.25941
1.2595
1.25958
1.25966
1.25975
1.25984
1.25993
1.26002
1.26013
1.26024
1.26035
1.26044
1.26055
1.26066
1.26075
1.26087
1.261
1.26108
1.26119
1.26128
1.26139
1.2615
1.26161
1.26172
1.26181
1.26192
1.26202
1.26211
1.26219
1.26229
1.26235
1.26245
1.26253
1.26263
1.26265
1.26272
1.26278
1.26281
1.26287
1.26294
1.26294
1.26297
1.26297
1.26298
1.26298
1.26299
1.263
1.26298
1.26295
1.26289
1.26285
1.26279
1.26274
1.26267
1.26259
1.26249
1.26237
1.26225
1.26211
1.26196
1.26184
1.26169
1.26152
1.26132
1.2611
1.2609
1.26065
1.2604
1.26013
1.25984
1.25954
1.25928
1.25897
1.25863
1.25828
1.25792
1.25755
1.25716
1.2568
1.2564
1.256
1.25557
1.25513
1.25472
1.25427
1.25382
1.25334
1.25287
1.25237
1.2519
1.25145
1.25097
1.25045
1.24997
1.24943
1.24894
1.24843
1.24791
1.24741
1.24696
1.24647
1.24596
1.24544
1.24498
1.24447
1.24396
1.24348
1.243
1.24251
1.24204
1.24152
1.24104
1.24057
1.24006
1.23958
1.23912
1.23859
1.23813
1.23761
1.23721
1.23674
1.23623
1.23576
1.23526
1.23482
1.23432
1.23381
1.23327
1.23276
1.2323
1.23179
1.23122
1.23075
1.23019
1.22965
1.22908
1.22853
1.22796
1.22747
1.22691
1.22626
1.22559
1.22505
1.22451
1.22385
1.22317
1.22262
1.22208
1.22145
1.22081
1.22025
1.2197
1.21907
1.21849
1.21796
1.21749
1.21689
1.21636
1.21583
1.21533
1.21489
1.21448
1.21402
1.21361
1.21316
1.21278
1.21246
1.21209
1.21167
1.21133
1.21092
1.21058
1.21034
1.21
1.2097
1.20929
1.20901
1.20874
1.20844
1.20811
1.20781
1.20751
1.20719
1.20692
1.20664
1.20637
1.20606
1.2057
1.2054
1.20514
1.20486
1.20453
1.2042
1.20396
1.2037
1.20338
1.2031
1.20283
1.2026
1.20239
1.20218
1.20191
1.20173
1.20157
1.20137
1.20133
1.20128
1.20116
1.2011
1.20105
1.20106
1.20104
1.20116
1.20124
1.20129
1.20144
1.20159
1.20175
1.20196
1.20221
1.20245
1.20266
1.20295
1.20326
1.20357
1.20392
1.20422
1.20456
1.20498
1.20538
1.20574
1.20609
1.20649
1.20687
1.20737
1.20778
1.20818
1.20861
1.20897
1.20939
1.20977
1.21021
1.21063
1.21096
1.21135
1.21168
1.2121
1.2125
1.21283
1.21313
1.21349
1.21374
1.21402
1.21425
1.2145
1.21482
1.21496
1.21516
1.21525
1.21536
1.21541
1.21547
1.2156
1.21554
1.21551
1.21544
1.21525
1.21512
1.21504
1.2148
1.21455
1.21431
1.21396
1.21367
1.21343
1.21307
1.21271
1.21228
1.2119
1.21159
1.21117
1.21077
1.21037
1.20993
1.20951
1.20914
1.2088
1.20839
1.20802
1.20765
1.2073
1.20694
1.20668
1.20635
1.20606
1.20574
1.20545
1.20527
1.20524
1.2609
1.26152
1.26263
1.26412
1.26562
1.2669
1.26789
1.26847
1.26879
1.26888
1.26881
1.2686
1.26833
1.26806
1.26775
1.26743
1.26719
1.26701
1.26695
1.26695
1.26716
1.26787
1.26871
1.26957
1.27047
1.27152
1.2725
1.27322
1.27344
1.27311
1.27223
1.27071
1.26902
1.26738
1.26585
1.2645
1.26341
1.26237
1.26156
1.26076
1.26008
1.25943
1.25906
1.25859
1.25832
1.25802
1.25779
1.25735
1.25716
1.25656
1.25613
1.25512
1.25427
1.25298
1.25165
1.2502
1.24867
1.24708
1.24552
1.24416
1.24303
1.24212
1.24142
1.2409
1.24055
1.24034
1.24024
1.24024
1.24028
1.24032
1.24036
1.24034
1.24027
1.24021
1.24013
1.24004
1.23999
1.23994
1.23991
1.23986
1.2398
1.23979
1.23982
1.23987
1.23996
1.24008
1.24025
1.24047
1.24074
1.24108
1.24147
1.24198
1.24266
1.24358
1.24478
1.24617
1.24771
1.24941
1.25106
1.25256
1.25398
1.25557
1.25752
1.25983
1.26245
1.26531
1.26805
1.27025
1.2723
1.27395
1.27539
1.27666
1.2778
1.2787
1.27922
1.27941
1.27948
1.27942
1.27917
1.27878
1.2783
1.27772
1.2771
1.27641
1.27574
1.27511
1.27455
1.27406
1.27363
1.2732
1.27276
1.27228
1.27174
1.27115
1.27051
1.26983
1.26915
1.26849
1.26786
1.26726
1.2667
1.26615
1.2656
1.26505
1.26451
1.26399
1.26351
1.26308
1.26271
1.2624
1.26214
1.26192
1.26173
1.26158
1.26145
1.26134
1.26124
1.26115
1.26106
1.26098
1.2609
1.26083
1.26075
1.26067
1.26059
1.2605
1.26041
1.26032
1.26023
1.26014
1.26005
1.25997
1.25988
1.25979
1.25971
1.25964
1.25956
1.2595
1.25943
1.25937
1.25932
1.25927
1.25923
1.25918
1.25916
1.25913
1.25911
1.25911
1.25911
1.25912
1.25913
1.25914
1.25917
1.25919
1.25922
1.25925
1.25931
1.25936
1.25942
1.25947
1.25953
1.25959
1.25967
1.25974
1.25982
1.25991
1.26001
1.26011
1.26021
1.26029
1.2604
1.26051
1.26061
1.26073
1.26084
1.26093
1.26105
1.26117
1.26126
1.26137
1.26148
1.26158
1.26169
1.26179
1.26191
1.26201
1.26209
1.26219
1.26228
1.26237
1.26247
1.26255
1.26262
1.26271
1.26279
1.26284
1.2629
1.26297
1.26301
1.26305
1.2631
1.26312
1.26315
1.26317
1.26317
1.26318
1.26317
1.26316
1.26314
1.26311
1.26308
1.26305
1.26299
1.26292
1.26284
1.26276
1.26266
1.26256
1.26245
1.26231
1.26216
1.26201
1.26184
1.26167
1.26148
1.26127
1.26106
1.26083
1.2606
1.26034
1.26005
1.25975
1.25944
1.25913
1.25881
1.25847
1.25813
1.25776
1.25738
1.257
1.25659
1.25618
1.25577
1.25535
1.25491
1.25446
1.25401
1.25356
1.25311
1.25263
1.25214
1.25164
1.25115
1.25066
1.25019
1.24969
1.24917
1.24867
1.24817
1.24767
1.24718
1.24667
1.24619
1.24569
1.24521
1.2447
1.24423
1.24372
1.24321
1.24274
1.24225
1.24177
1.24129
1.24082
1.2403
1.23981
1.2393
1.23883
1.23837
1.23792
1.23743
1.23692
1.23645
1.23599
1.23552
1.23503
1.23451
1.23403
1.23353
1.23304
1.23253
1.23205
1.23147
1.23093
1.23041
1.22986
1.22932
1.22877
1.2282
1.22765
1.227
1.22646
1.22588
1.22527
1.22462
1.22406
1.22347
1.22284
1.22221
1.22164
1.22106
1.22045
1.21986
1.21928
1.21875
1.21819
1.21772
1.21708
1.21657
1.21607
1.21558
1.21512
1.21468
1.21426
1.21381
1.21341
1.21304
1.21263
1.21228
1.21188
1.21154
1.2112
1.21084
1.2105
1.21017
1.20986
1.20955
1.20924
1.20895
1.20863
1.20837
1.20808
1.20779
1.20746
1.2072
1.20688
1.20657
1.20627
1.20595
1.2057
1.20538
1.20506
1.20478
1.20449
1.2042
1.20392
1.20362
1.20338
1.2031
1.20288
1.20263
1.20241
1.20218
1.20202
1.20185
1.20171
1.20158
1.2015
1.20142
1.20137
1.20137
1.20136
1.20137
1.20141
1.2015
1.20158
1.20173
1.2019
1.20206
1.20225
1.20246
1.20269
1.20298
1.20327
1.20355
1.20385
1.20418
1.20455
1.2049
1.20526
1.20563
1.20602
1.20643
1.20684
1.20722
1.20764
1.20804
1.20844
1.20886
1.20928
1.20971
1.21014
1.2105
1.21092
1.21129
1.21167
1.21208
1.21239
1.21275
1.21308
1.2134
1.21374
1.21407
1.21434
1.21459
1.21483
1.21508
1.21524
1.21543
1.21557
1.21566
1.21575
1.21579
1.21584
1.21581
1.21576
1.21571
1.21559
1.21545
1.21527
1.21506
1.21483
1.21457
1.21429
1.21399
1.21366
1.21331
1.21296
1.2126
1.21222
1.21182
1.21141
1.21101
1.21063
1.21019
1.20981
1.20939
1.209
1.20861
1.20825
1.2079
1.20756
1.2072
1.20689
1.20656
1.20627
1.206
1.20572
1.20544
1.20539
1.26143
1.26223
1.26365
1.26545
1.26719
1.26859
1.26961
1.27019
1.27048
1.27054
1.27047
1.27028
1.27002
1.26974
1.26945
1.26923
1.26914
1.26914
1.26928
1.26954
1.2701
1.27112
1.27199
1.27241
1.27278
1.27338
1.27364
1.27352
1.27317
1.27229
1.27087
1.26915
1.26753
1.26613
1.26493
1.26398
1.26314
1.26233
1.26173
1.2613
1.2608
1.26064
1.26037
1.26034
1.26026
1.26016
1.26004
1.25978
1.2593
1.25894
1.25831
1.25736
1.25611
1.25461
1.25297
1.25113
1.24914
1.24716
1.24528
1.24356
1.24208
1.24088
1.23995
1.23928
1.2388
1.23849
1.23833
1.23829
1.23832
1.23839
1.2385
1.23859
1.23867
1.23877
1.23881
1.23883
1.23883
1.23883
1.23883
1.2388
1.23875
1.23872
1.2387
1.23867
1.23866
1.23866
1.2387
1.23877
1.23888
1.23905
1.23925
1.23952
1.23992
1.24047
1.24118
1.242
1.24289
1.24386
1.24495
1.24615
1.24741
1.24883
1.25058
1.25266
1.25509
1.25771
1.26043
1.26302
1.26548
1.26803
1.27074
1.27329
1.27553
1.27728
1.2786
1.27971
1.2807
1.28143
1.28172
1.28178
1.28175
1.28158
1.28128
1.28089
1.28045
1.27999
1.27953
1.2791
1.27867
1.27825
1.2778
1.2773
1.27676
1.27615
1.27547
1.27473
1.27395
1.27315
1.27233
1.27153
1.27073
1.26994
1.26913
1.26832
1.2675
1.26667
1.26587
1.26513
1.26444
1.26383
1.2633
1.26285
1.26248
1.26216
1.2619
1.26169
1.26152
1.26137
1.26126
1.26116
1.26106
1.26098
1.26089
1.26081
1.26072
1.26064
1.26055
1.26046
1.26037
1.26028
1.26019
1.2601
1.26002
1.25993
1.25985
1.25978
1.2597
1.25963
1.25957
1.2595
1.25945
1.25941
1.25936
1.25933
1.25929
1.25927
1.25925
1.25924
1.25924
1.25925
1.25926
1.25927
1.25929
1.25932
1.25936
1.25939
1.25944
1.25949
1.25955
1.2596
1.25967
1.25974
1.25981
1.25989
1.25997
1.26006
1.26015
1.26025
1.26035
1.26045
1.26055
1.26066
1.26076
1.26087
1.26099
1.26108
1.26119
1.26131
1.26141
1.26152
1.26162
1.26173
1.26184
1.26194
1.26205
1.26215
1.26225
1.26234
1.26244
1.26252
1.26261
1.26269
1.26278
1.26285
1.26293
1.26299
1.26305
1.26311
1.26315
1.2632
1.26324
1.26327
1.2633
1.26331
1.26331
1.26332
1.26332
1.26332
1.2633
1.26327
1.26323
1.26318
1.26312
1.26306
1.26299
1.26291
1.26281
1.2627
1.26258
1.26245
1.2623
1.26216
1.262
1.26182
1.26164
1.26142
1.26122
1.26098
1.26073
1.26048
1.2602
1.25989
1.25961
1.2593
1.25897
1.25863
1.25828
1.25792
1.25754
1.25717
1.25677
1.25637
1.25595
1.25552
1.25509
1.25465
1.2542
1.25373
1.25327
1.2528
1.25232
1.25184
1.25136
1.25086
1.25037
1.24986
1.24936
1.24886
1.24836
1.24786
1.24738
1.24687
1.24638
1.24588
1.24539
1.2449
1.24442
1.24393
1.24343
1.24294
1.24247
1.24197
1.24148
1.24101
1.24051
1.24003
1.23954
1.23905
1.23857
1.23809
1.23763
1.23714
1.23667
1.23619
1.2357
1.23523
1.23472
1.23424
1.23373
1.23322
1.23272
1.23222
1.23168
1.23114
1.23061
1.23006
1.22951
1.22895
1.22838
1.22784
1.22724
1.22664
1.22602
1.22545
1.22484
1.22423
1.22361
1.22302
1.22242
1.22181
1.2212
1.22064
1.22004
1.21946
1.2189
1.21835
1.21788
1.21727
1.21675
1.21625
1.21576
1.2153
1.21485
1.2144
1.214
1.21357
1.21319
1.2128
1.21245
1.21206
1.21172
1.21136
1.21101
1.21069
1.21037
1.21007
1.20973
1.20943
1.20915
1.20885
1.20854
1.20825
1.20796
1.20765
1.20738
1.20708
1.20678
1.20649
1.20617
1.20588
1.20559
1.2053
1.20498
1.20469
1.20441
1.20413
1.20385
1.20358
1.20332
1.20309
1.20286
1.20264
1.20242
1.20224
1.20208
1.20193
1.20183
1.20175
1.20167
1.20161
1.20158
1.20159
1.2016
1.20166
1.20174
1.20183
1.20196
1.20212
1.2023
1.20249
1.20272
1.20297
1.20322
1.2035
1.20379
1.20411
1.20445
1.20479
1.20515
1.20551
1.20589
1.20629
1.20667
1.20708
1.20747
1.2079
1.20831
1.20872
1.20915
1.20954
1.20995
1.21038
1.21076
1.21116
1.21154
1.21193
1.21232
1.21266
1.21302
1.21336
1.21368
1.21402
1.2143
1.21458
1.21484
1.21508
1.21532
1.21549
1.21567
1.2158
1.2159
1.21599
1.21603
1.21607
1.21606
1.21601
1.21593
1.21581
1.21567
1.21551
1.2153
1.21506
1.2148
1.21451
1.21421
1.21389
1.21354
1.21318
1.21281
1.21242
1.21204
1.21163
1.21122
1.21082
1.2104
1.21
1.2096
1.20921
1.20882
1.20845
1.20807
1.20773
1.20739
1.20708
1.20675
1.20645
1.20616
1.20589
1.20563
1.20555
1.262
1.263
1.26471
1.26673
1.26861
1.27003
1.271
1.27153
1.27178
1.27185
1.27176
1.27161
1.27142
1.27122
1.2711
1.2711
1.27121
1.27145
1.27183
1.27235
1.2731
1.27392
1.27421
1.27424
1.27428
1.27411
1.2739
1.27331
1.27239
1.27107
1.26957
1.26798
1.26664
1.26556
1.26469
1.26391
1.26333
1.26266
1.26238
1.26207
1.26203
1.26184
1.26185
1.26165
1.26159
1.26149
1.26134
1.26093
1.26076
1.2602
1.25952
1.25863
1.25732
1.25579
1.25394
1.25194
1.24982
1.24774
1.24577
1.24398
1.24239
1.2411
1.24009
1.2393
1.23872
1.23831
1.23803
1.23784
1.23773
1.23767
1.23769
1.23771
1.23775
1.23783
1.23786
1.23788
1.23789
1.2379
1.23791
1.23789
1.23786
1.23785
1.23784
1.23782
1.23781
1.2378
1.23779
1.23779
1.23784
1.23789
1.23797
1.2381
1.23834
1.23858
1.23889
1.23932
1.23986
1.24057
1.24141
1.24233
1.24336
1.24446
1.2457
1.24709
1.24864
1.25033
1.25223
1.25451
1.25717
1.26019
1.26349
1.2667
1.26974
1.27223
1.27455
1.27681
1.27889
1.28066
1.28203
1.28296
1.28351
1.28368
1.28375
1.28372
1.2836
1.28342
1.28318
1.28293
1.28266
1.28235
1.28201
1.28161
1.28115
1.28062
1.28001
1.27933
1.27859
1.2778
1.27696
1.2761
1.27521
1.27428
1.27332
1.27232
1.27127
1.27019
1.2691
1.26802
1.26699
1.26603
1.26515
1.26438
1.26371
1.26313
1.26265
1.26226
1.26194
1.26169
1.26149
1.26134
1.26121
1.26111
1.261
1.26091
1.26083
1.26074
1.26065
1.26056
1.26047
1.26038
1.26029
1.26021
1.26012
1.26004
1.25995
1.25988
1.2598
1.25973
1.25967
1.25961
1.25956
1.2595
1.25946
1.25942
1.25939
1.25937
1.25935
1.25934
1.25934
1.25934
1.25936
1.25937
1.25939
1.25942
1.25945