/*--------------------------------*- C++ -*----------------------------------*\
| =========                 |                                                 |
| \\      /  F ield         | OpenFOAM: The Open Source CFD Toolbox           |
|  \\    /   O peration     | Version:  v1812                                 |
|   \\  /    A nd           | Web:      www.OpenFOAM.com                      |
|    \\/     M anipulation  |                                                 |
\*---------------------------------------------------------------------------*/
FoamFile
{
    version     2.0;
    format      ascii;
    class       volScalarField;
    location    "0.4";
    object      T;
}
// * * * * * * * * * * * * * * * * * * * * * * * * * * * * * * * * * * * * * //

dimensions      [0 0 0 1 0 0 0];


internalField   nonuniform List<scalar> 
20400
(
298.252
298.239
298.218
298.188
298.152
298.119
298.09
298.065
298.048
298.035
298.027
298.023
298.024
298.027
298.031
298.035
298.038
298.034
298.02
297.991
297.939
297.855
297.724
297.543
297.31
297.019
296.67
296.284
295.874
295.465
295.11
294.847
294.685
294.617
294.62
294.661
294.754
294.898
295.085
295.283
295.484
295.681
295.867
296.039
296.196
296.351
296.489
296.625
296.753
296.875
296.994
297.104
297.213
297.311
297.405
297.505
297.61
297.699
297.761
297.814
297.853
297.873
297.877
297.857
297.82
297.77
297.707
297.633
297.546
297.443
297.327
297.197
297.057
296.898
296.752
296.668
296.659
296.668
296.648
296.563
296.436
296.302
296.157
296.017
295.901
295.81
295.732
295.674
295.623
295.592
295.579
295.588
295.621
295.677
295.759
295.866
295.987
296.134
296.302
296.487
296.678
296.868
297.045
297.209
297.357
297.497
297.631
297.759
297.877
297.985
298.079
298.16
298.232
298.297
298.356
298.411
298.462
298.508
298.55
298.587
298.62
298.649
298.674
298.694
298.713
298.729
298.745
298.761
298.777
298.792
298.807
298.82
298.83
298.838
298.845
298.852
298.858
298.864
298.869
298.876
298.881
298.885
298.888
298.889
298.889
298.89
298.891
298.891
298.891
298.889
298.887
298.884
298.881
298.878
298.875
298.87
298.865
298.858
298.851
298.845
298.84
298.834
298.829
298.822
298.816
298.808
298.8
298.792
298.785
298.779
298.772
298.764
298.756
298.748
298.742
298.736
298.731
298.725
298.719
298.714
298.712
298.71
298.706
298.702
298.698
298.696
298.694
298.696
298.699
298.699
298.701
298.703
298.704
298.707
298.712
298.718
298.724
298.73
298.736
298.743
298.749
298.755
298.761
298.769
298.778
298.79
298.8
298.809
298.818
298.828
298.837
298.85
298.862
298.874
298.884
298.892
298.902
298.916
298.929
298.94
298.95
298.96
298.971
298.983
298.994
299.003
299.012
299.021
299.032
299.044
299.052
299.059
299.066
299.076
299.082
299.09
299.101
299.105
299.109
299.113
299.115
299.12
299.124
299.128
299.128
299.129
299.129
299.126
299.127
299.121
299.122
299.121
299.115
299.109
299.1
299.09
299.081
299.073
299.064
299.053
299.038
299.023
299.006
298.989
298.971
298.951
298.93
298.911
298.89
298.868
298.84
298.813
298.783
298.754
298.72
298.692
298.66
298.627
298.591
298.554
298.517
298.479
298.439
298.401
298.359
298.316
298.274
298.232
298.192
298.147
298.1
298.055
298.009
297.961
297.916
297.87
297.822
297.776
297.731
297.686
297.636
297.588
297.544
297.495
297.455
297.404
297.363
297.315
297.264
297.218
297.177
297.129
297.088
297.047
296.993
296.954
296.904
296.861
296.824
296.772
296.734
296.685
296.631
296.619
296.558
296.523
296.458
296.417
296.369
296.328
296.293
296.241
296.179
296.125
296.081
296.039
295.991
295.94
295.885
295.837
295.771
295.736
295.662
295.616
295.554
295.514
295.439
295.393
295.327
295.297
295.209
295.164
295.102
295.055
295.013
294.942
294.894
294.845
294.804
294.752
294.703
294.654
294.618
294.576
294.535
294.526
294.469
294.427
294.401
294.358
294.327
294.296
294.261
294.225
294.203
294.164
294.143
294.11
294.077
294.054
294.031
294.004
293.976
293.945
293.925
293.886
293.858
293.827
293.793
293.786
293.737
293.723
293.679
293.67
293.643
293.611
293.58
293.56
293.527
293.516
293.492
293.483
293.449
293.431
293.42
293.412
293.406
293.409
293.389
293.383
293.388
293.39
293.4
293.411
293.426
293.427
293.437
293.461
293.482
293.508
293.536
293.553
293.576
293.611
293.648
293.678
293.709
293.744
293.782
293.829
293.863
293.9
293.931
293.982
294.026
294.07
294.111
294.151
294.188
294.232
294.275
294.316
294.362
294.399
294.434
294.471
294.51
294.553
294.591
294.623
294.651
294.681
294.711
294.74
294.77
294.799
294.828
294.839
294.863
294.872
294.884
294.896
294.909
294.915
294.909
294.911
294.913
294.891
294.886
294.872
294.849
294.829
294.815
294.777
294.756
294.728
294.697
294.659
294.621
294.593
294.557
294.514
294.477
294.443
294.392
294.358
294.318
294.277
294.235
294.19
294.151
294.117
294.075
294.04
293.994
293.964
293.936
293.908
293.886
293.849
298.225
298.204
298.165
298.114
298.049
297.987
297.936
297.895
297.869
297.851
297.842
297.84
297.845
297.854
297.865
297.878
297.892
297.901
297.905
297.9
297.881
297.835
297.745
297.601
297.388
297.1
296.744
296.344
295.918
295.475
295.059
294.798
294.686
294.696
294.794
294.942
295.123
295.328
295.553
295.779
296.001
296.218
296.428
296.627
296.816
297.015
297.194
297.374
297.544
297.719
297.899
298.079
298.279
298.467
298.658
298.868
299.049
299.168
299.296
299.444
299.562
299.644
299.706
299.753
299.776
299.779
299.741
299.682
299.605
299.509
299.393
299.25
299.086
298.875
298.697
298.662
298.704
298.758
298.739
298.637
298.457
298.237
297.98
297.692
297.407
297.159
296.966
296.808
296.646
296.473
296.293
296.12
295.976
295.855
295.777
295.744
295.745
295.766
295.815
295.889
295.995
296.137
296.303
296.478
296.64
296.784
296.918
297.053
297.194
297.341
297.482
297.606
297.711
297.801
297.886
297.971
298.054
298.138
298.217
298.292
298.36
298.42
298.472
298.513
298.545
298.571
298.596
298.621
298.648
298.675
298.702
298.726
298.747
298.764
298.778
298.789
298.799
298.807
298.815
298.824
298.833
298.841
298.848
298.851
298.853
298.853
298.853
298.854
298.855
298.854
298.852
298.849
298.845
298.841
298.838
298.834
298.829
298.822
298.815
298.807
298.8
298.795
298.791
298.786
298.78
298.772
298.763
298.754
298.746
298.74
298.734
298.727
298.719
298.711
298.703
298.696
298.692
298.688
298.683
298.678
298.674
298.67
298.666
298.663
298.659
298.656
298.654
298.655
298.657
298.658
298.66
298.662
298.662
298.664
298.668
298.674
298.683
298.689
298.696
298.702
298.707
298.713
298.72
298.726
298.735
298.746
298.758
298.766
298.775
298.784
298.792
298.803
298.817
298.832
298.842
298.849
298.857
298.87
298.883
298.897
298.906
298.915
298.926
298.939
298.95
298.958
298.966
298.975
298.985
298.999
299.009
299.013
299.02
299.03
299.035
299.044
299.054
299.061
299.062
299.065
299.067
299.074
299.08
299.084
299.083
299.084
299.081
299.08
299.08
299.077
299.079
299.072
299.067
299.061
299.051
299.046
299.038
299.027
299.017
299.005
298.99
298.974
298.955
298.937
298.917
298.897
298.882
298.866
298.842
298.82
298.793
298.763
298.732
298.702
298.671
298.647
298.613
298.578
298.541
298.502
298.465
298.43
298.39
298.351
298.309
298.266
298.224
298.184
298.143
298.098
298.048
298.003
297.957
297.915
297.869
297.816
297.769
297.724
297.678
297.633
297.584
297.535
297.492
297.441
297.398
297.351
297.309
297.257
297.205
297.159
297.12
297.076
297.03
296.988
296.93
296.893
296.841
296.809
296.757
296.713
296.676
296.619
296.582
296.54
296.493
296.46
296.39
296.349
296.293
296.257
296.219
296.176
296.106
296.05
296.009
295.962
295.91
295.865
295.806
295.758
295.687
295.633
295.585
295.539
295.464
295.402
295.356
295.305
295.236
295.187
295.117
295.073
295.005
294.949
294.901
294.842
294.808
294.736
294.685
294.639
294.594
294.548
294.507
294.454
294.414
294.388
294.347
294.306
294.274
294.23
294.195
294.16
294.135
294.096
294.073
294.039
294.001
293.982
293.957
293.926
293.886
293.858
293.831
293.794
293.774
293.745
293.721
293.697
293.651
293.634
293.601
293.578
293.529
293.519
293.49
293.468
293.436
293.4
293.375
293.361
293.338
293.327
293.308
293.268
293.265
293.252
293.241
293.242
293.24
293.222
293.218
293.223
293.228
293.234
293.251
293.264
293.261
293.286
293.306
293.327
293.352
293.379
293.396
293.433
293.462
293.495
293.524
293.555
293.597
293.64
293.678
293.718
293.739
293.797
293.831
293.88
293.922
293.967
294.009
294.046
294.078
294.127
294.174
294.213
294.24
294.282
294.322
294.361
294.399
294.429
294.463
294.5
294.532
294.542
294.588
294.606
294.639
294.652
294.679
294.689
294.688
294.713
294.718
294.725
294.719
294.727
294.713
294.701
294.693
294.682
294.659
294.643
294.616
294.589
294.559
294.532
294.499
294.463
294.424
294.391
294.359
294.313
294.285
294.234
294.193
294.157
294.114
294.071
294.03
293.996
293.947
293.911
293.871
293.837
293.795
293.753
293.721
293.684
293.664
293.607
298.164
298.127
298.054
297.949
297.826
297.705
297.606
297.536
297.495
297.472
297.467
297.476
297.493
297.516
297.542
297.572
297.602
297.63
297.656
297.673
297.671
297.645
297.573
297.437
297.22
296.915
296.541
296.144
295.737
295.327
294.974
294.787
294.776
294.924
295.161
295.427
295.691
295.943
296.196
296.442
296.681
296.914
297.143
297.365
297.601
297.814
298.042
298.258
298.471
298.678
298.888
299.088
299.284
299.477
299.672
299.818
299.98
300.21
300.419
300.587
300.755
300.933
301.097
301.24
301.362
301.461
301.53
301.57
301.59
301.593
301.58
301.544
301.488
301.393
301.272
301.182
301.169
301.17
301.155
301.099
300.991
300.816
300.577
300.267
299.91
299.56
299.264
299.023
298.792
298.544
298.249
297.899
297.503
297.077
296.687
296.413
296.22
296.094
295.98
295.854
295.719
295.645
295.642
295.675
295.758
295.859
295.949
296.043
296.153
296.291
296.451
296.612
296.753
296.87
296.976
297.084
297.204
297.338
297.481
297.624
297.761
297.883
297.989
298.076
298.144
298.197
298.241
298.282
298.326
298.374
298.426
298.477
298.524
298.566
298.602
298.632
298.657
298.678
298.696
298.714
298.731
298.749
298.763
298.775
298.784
298.79
298.794
298.796
298.798
298.798
298.798
298.795
298.792
298.789
298.785
298.78
298.775
298.769
298.762
298.755
298.747
298.74
298.734
298.728
298.722
298.715
298.708
298.7
298.692
298.685
298.678
298.671
298.663
298.656
298.648
298.641
298.636
298.631
298.626
298.622
298.618
298.614
298.611
298.608
298.604
298.601
298.598
298.596
298.598
298.599
298.601
298.602
298.605
298.606
298.608
298.614
298.621
298.629
298.636
298.643
298.649
298.656
298.662
298.668
298.674
298.684
298.694
298.704
298.714
298.723
298.733
298.744
298.755
298.768
298.78
298.788
298.798
298.81
298.82
298.832
298.842
298.854
298.865
298.877
298.888
298.896
298.906
298.915
298.924
298.934
298.943
298.95
298.96
298.969
298.974
298.979
298.987
298.993
298.998
299.004
299.007
299.011
299.013
299.017
299.017
299.02
299.021
299.019
299.02
299.015
299.012
299.009
299.004
298.999
298.99
298.982
298.972
298.961
298.951
298.938
298.925
298.91
298.894
298.874
298.853
298.833
298.813
298.793
298.773
298.752
298.725
298.698
298.667
298.638
298.605
298.575
298.542
298.509
298.475
298.439
298.399
298.363
298.322
298.283
298.242
298.199
298.158
298.116
298.074
298.03
297.985
297.937
297.89
297.845
297.799
297.753
297.704
297.658
297.611
297.568
297.515
297.466
297.422
297.374
297.333
297.281
297.239
297.194
297.14
297.094
297.05
297.006
296.961
296.915
296.87
296.82
296.778
296.729
296.697
296.642
296.604
296.554
296.507
296.475
296.424
296.387
296.322
296.28
296.23
296.183
296.14
296.09
296.041
295.986
295.936
295.891
295.834
295.788
295.739
295.689
295.628
295.566
295.502
295.462
295.4
295.337
295.27
295.232
295.169
295.114
295.051
295.006
294.941
294.87
294.826
294.77
294.715
294.673
294.613
294.563
294.525
294.471
294.439
294.385
294.346
294.307
294.273
294.234
294.199
294.155
294.128
294.084
294.06
294.021
293.988
293.957
293.93
293.898
293.865
293.838
293.812
293.785
293.755
293.724
293.699
293.663
293.635
293.598
293.581
293.546
293.507
293.49
293.458
293.431
293.398
293.374
293.34
293.323
293.293
293.276
293.239
293.231
293.197
293.189
293.172
293.164
293.141
293.139
293.126
293.124
293.127
293.13
293.134
293.129
293.147
293.15
293.168
293.188
293.205
293.216
293.244
293.267
293.292
293.328
293.347
293.379
293.417
293.454
293.494
293.52
293.558
293.602
293.639
293.688
293.725
293.759
293.8
293.84
293.88
293.927
293.976
294.013
294.052
294.089
294.134
294.177
294.209
294.242
294.27
294.307
294.336
294.371
294.405
294.428
294.459
294.493
294.503
294.52
294.548
294.565
294.575
294.582
294.6
294.585
294.585
294.593
294.59
294.571
294.568
294.536
294.521
294.505
294.493
294.448
294.429
294.384
294.358
294.326
294.289
294.255
294.202
294.165
294.132
294.098
294.046
294.007
293.965
293.917
293.88
293.845
293.809
293.761
293.73
293.684
293.644
293.615
293.577
293.548
293.512
293.458
298.072
298.004
297.879
297.703
297.499
297.306
297.152
297.049
296.992
296.966
296.972
296.996
297.032
297.073
297.118
297.167
297.217
297.263
297.307
297.342
297.349
297.322
297.235
297.083
296.844
296.505
296.101
295.701
295.343
295.039
294.864
294.86
295.025
295.313
295.645
295.974
296.275
296.544
296.803
297.049
297.281
297.5
297.705
297.89
298.064
298.238
298.397
298.559
298.713
298.87
299.029
299.188
299.36
299.538
299.732
299.944
300.174
300.435
300.695
300.955
301.211
301.458
301.688
301.898
302.084
302.244
302.379
302.488
302.577
302.65
302.709
302.751
302.781
302.782
302.768
302.737
302.709
302.691
302.675
302.641
302.585
302.508
302.389
302.216
301.988
301.725
301.463
301.22
300.993
300.759
300.482
300.135
299.71
299.205
298.668
298.182
297.776
297.438
297.118
296.781
296.425
296.126
295.889
295.687
295.513
295.377
295.282
295.249
295.256
295.29
295.367
295.47
295.578
295.684
295.796
295.919
296.06
296.22
296.395
296.585
296.782
296.971
297.144
297.291
297.415
297.513
297.593
297.663
297.73
297.802
297.882
297.966
298.053
298.138
298.218
298.289
298.35
298.404
298.45
298.492
298.531
298.57
298.606
298.639
298.667
298.689
298.707
298.719
298.727
298.732
298.736
298.736
298.736
298.734
298.731
298.727
298.721
298.715
298.709
298.702
298.695
298.688
298.68
298.673
298.665
298.658
298.651
298.643
298.636
298.629
298.622
298.614
298.606
298.6
298.593
298.586
298.581
298.575
298.569
298.565
298.561
298.557
298.554
298.552
298.55
298.547
298.545
298.543
298.542
298.542
298.544
298.544
298.547
298.55
298.553
298.557
298.563
298.57
298.575
298.582
298.589
298.597
298.605
298.612
298.62
298.628
298.637
298.645
298.655
298.665
298.676
298.686
298.696
298.708
298.719
298.729
298.741
298.752
298.761
298.772
298.783
298.793
298.804
298.817
298.828
298.835
298.846
298.856
298.864
298.873
298.882
298.889
298.898
298.908
298.914
298.918
298.925
298.932
298.935
298.941
298.946
298.95
298.952
298.954
298.954
298.957
298.956
298.958
298.957
298.954
298.951
298.947
298.942
298.935
298.928
298.921
298.911
298.9
298.888
298.877
298.862
298.848
298.833
298.813
298.793
298.772
298.751
298.73
298.709
298.686
298.66
298.631
298.605
298.576
298.545
298.512
298.478
298.444
298.409
298.374
298.338
298.298
298.26
298.219
298.178
298.137
298.095
298.052
298.009
297.964
297.918
297.873
297.827
297.782
297.737
297.688
297.641
297.595
297.547
297.501
297.452
297.404
297.361
297.314
297.27
297.218
297.174
297.126
297.078
297.033
296.985
296.942
296.898
296.855
296.805
296.757
296.71
296.667
296.623
296.588
296.535
296.487
296.443
296.401
296.363
296.313
296.256
296.214
296.168
296.122
296.076
296.032
295.971
295.924
295.874
295.822
295.775
295.72
295.665
295.616
295.551
295.507
295.444
295.384
295.324
295.276
295.217
295.155
295.094
295.045
294.984
294.924
294.869
294.814
294.76
294.707
294.654
294.596
294.552
294.498
294.45
294.402
294.369
294.324
294.279
294.233
294.198
294.165
294.131
294.09
294.059
294.021
293.982
293.952
293.922
293.892
293.864
293.827
293.797
293.765
293.746
293.719
293.687
293.652
293.626
293.593
293.565
293.536
293.505
293.481
293.447
293.414
293.395
293.359
293.331
293.306
293.272
293.256
293.222
293.202
293.174
293.16
293.137
293.123
293.104
293.088
293.075
293.069
293.061
293.057
293.06
293.059
293.056
293.061
293.078
293.082
293.103
293.12
293.129
293.149
293.169
293.201
293.227
293.252
293.28
293.307
293.35
293.385
293.416
293.45
293.491
293.53
293.573
293.608
293.647
293.69
293.726
293.769
293.808
293.856
293.901
293.942
293.976
294.018
294.058
294.094
294.134
294.163
294.201
294.231
294.264
294.296
294.331
294.356
294.378
294.408
294.432
294.448
294.47
294.487
294.495
294.497
294.509
294.517
294.508
294.506
294.51
294.491
294.482
294.461
294.441
294.42
294.404
294.368
294.341
294.303
294.271
294.241
294.206
294.168
294.122
294.079
294.042
294.009
293.962
293.919
293.877
293.834
293.792
293.756
293.72
293.678
293.639
293.599
293.563
293.532
293.498
293.458
293.435
293.377
297.95
297.845
297.655
297.4
297.117
296.858
296.658
296.529
296.459
296.434
296.449
296.488
296.539
296.594
296.656
296.724
296.787
296.839
296.883
296.912
296.907
296.844
296.701
296.512
296.27
295.958
295.596
295.254
294.989
294.88
294.921
295.098
295.404
295.761
296.115
296.44
296.724
296.961
297.166
297.343
297.487
297.631
297.757
297.882
298.007
298.126
298.229
298.34
298.449
298.562
298.695
298.855
299.052
299.284
299.549
299.845
300.181
300.54
300.908
301.273
301.62
301.935
302.215
302.458
302.665
302.839
302.979
303.092
303.184
303.256
303.318
303.364
303.399
303.43
303.446
303.45
303.452
303.448
303.439
303.42
303.389
303.355
303.304
303.233
303.134
303.002
302.848
302.685
302.519
302.346
302.149
301.907
301.604
301.23
300.787
300.31
299.815
299.329
298.876
298.434
297.989
297.582
297.168
296.74
296.314
295.904
295.547
295.252
295.014
294.826
294.697
294.652
294.65
294.663
294.71
294.798
294.923
295.06
295.206
295.37
295.558
295.762
295.967
296.16
296.335
296.485
296.612
296.72
296.817
296.914
297.017
297.13
297.252
297.381
297.513
297.641
297.761
297.869
297.966
298.054
298.135
298.215
298.291
298.364
298.432
298.492
298.542
298.583
298.614
298.637
298.655
298.666
298.672
298.676
298.677
298.676
298.672
298.667
298.661
298.655
298.647
298.641
298.633
298.625
298.618
298.61
298.602
298.594
298.586
298.579
298.571
298.564
298.556
298.549
298.543
298.536
298.53
298.524
298.519
298.514
298.51
298.507
298.503
298.501
298.498
298.496
298.494
298.492
298.492
298.493
298.494
298.494
298.496
298.499
298.503
298.506
298.511
298.517
298.524
298.53
298.537
298.545
298.553
298.56
298.567
298.576
298.585
298.594
298.604
298.614
298.624
298.634
298.643
298.655
298.667
298.676
298.688
298.7
298.708
298.72
298.729
298.74
298.751
298.763
298.773
298.783
298.792
298.803
298.81
298.819
298.829
298.836
298.844
298.852
298.86
298.864
298.87
298.877
298.88
298.886
298.892
298.893
298.896
298.898
298.899
298.9
298.901
298.902
298.9
298.898
298.894
298.891
298.885
298.879
298.872
298.864
298.854
298.843
298.832
298.819
298.805
298.791
298.775
298.756
298.736
298.715
298.696
298.674
298.652
298.628
298.602
298.575
298.548
298.519
298.487
298.455
298.422
298.388
298.353
298.317
298.279
298.241
298.202
298.162
298.123
298.08
298.038
297.994
297.952
297.907
297.862
297.818
297.772
297.725
297.681
297.632
297.585
297.537
297.489
297.443
297.399
297.351
297.303
297.255
297.212
297.164
297.117
297.07
297.024
296.976
296.932
296.884
296.841
296.798
296.749
296.703
296.658
296.611
296.568
296.521
296.481
296.435
296.388
296.344
296.299
296.256
296.207
296.158
296.109
296.061
296.018
295.972
295.918
295.871
295.816
295.766
295.713
295.66
295.607
295.558
295.502
295.44
295.379
295.326
295.274
295.211
295.147
295.093
295.04
294.979
294.919
294.865
294.81
294.749
294.694
294.643
294.598
294.539
294.486
294.436
294.389
294.346
294.304
294.257
294.216
294.173
294.137
294.105
294.067
294.026
293.992
293.955
293.923
293.896
293.86
293.83
293.794
293.768
293.741
293.71
293.68
293.65
293.62
293.588
293.561
293.532
293.505
293.473
293.44
293.412
293.386
293.357
293.326
293.294
293.271
293.245
293.213
293.186
293.162
293.139
293.118
293.097
293.073
293.056
293.042
293.025
293.018
293.011
293
292.995
292.993
292.997
292.996
293.007
293.015
293.02
293.035
293.053
293.07
293.09
293.113
293.137
293.161
293.191
293.221
293.25
293.285
293.318
293.352
293.393
293.43
293.466
293.503
293.545
293.581
293.629
293.668
293.708
293.75
293.789
293.833
293.873
293.914
293.954
293.987
294.026
294.06
294.101
294.137
294.167
294.197
294.231
294.259
294.289
294.314
294.338
294.367
294.38
294.4
294.413
294.425
294.432
294.438
294.447
294.44
294.439
294.435
294.419
294.408
294.397
294.373
294.349
294.327
294.295
294.267
294.241
294.203
294.167
294.126
294.09
294.057
294.013
293.972
293.932
293.888
293.846
293.807
293.768
293.723
293.683
293.644
293.607
293.569
293.536
293.496
293.462
293.427
293.394
293.375
293.314
297.829
297.678
297.416
297.081
296.728
296.422
296.197
296.053
295.979
295.958
295.979
296.024
296.081
296.144
296.216
296.289
296.347
296.38
296.395
296.391
296.342
296.189
295.954
295.759
295.572
295.351
295.121
294.939
294.89
294.945
295.141
295.458
295.817
296.168
296.481
296.74
296.936
297.075
297.207
297.326
297.427
297.506
297.574
297.615
297.656
297.696
297.75
297.807
297.91
298.006
298.172
298.361
298.633
298.937
299.299
299.705
300.161
300.649
301.136
301.599
302.022
302.393
302.712
302.982
303.204
303.381
303.522
303.632
303.714
303.775
303.821
303.85
303.866
303.878
303.88
303.876
303.87
303.861
303.85
303.833
303.811
303.79
303.766
303.734
303.69
303.63
303.552
303.463
303.366
303.261
303.137
302.984
302.788
302.542
302.238
301.888
301.503
301.108
300.723
300.344
299.963
299.559
299.096
298.544
297.897
297.224
296.604
296.058
295.634
295.263
294.938
294.649
294.397
294.206
294.096
294.077
294.085
294.121
294.191
294.291
294.421
294.575
294.748
294.924
295.098
295.262
295.412
295.545
295.667
295.785
295.907
296.037
296.179
296.334
296.5
296.673
296.846
297.013
297.17
297.318
297.459
297.596
297.73
297.861
297.988
298.108
298.218
298.313
298.393
298.458
298.509
298.549
298.578
298.599
298.612
298.621
298.623
298.623
298.62
298.614
298.608
298.601
298.593
298.585
298.577
298.568
298.56
298.552
298.544
298.536
298.529
298.521
298.513
298.506
298.499
298.493
298.487
298.481
298.475
298.469
298.466
298.461
298.458
298.456
298.454
298.452
298.451
298.45
298.449
298.449
298.45
298.451
298.453
298.456
298.459
298.462
298.468
298.472
298.478
298.484
298.492
298.499
298.508
298.515
298.523
298.532
298.541
298.551
298.56
298.568
298.579
298.589
298.598
298.61
298.621
298.631
298.643
298.654
298.663
298.674
298.684
298.695
298.705
298.716
298.727
298.737
298.745
298.755
298.764
298.773
298.782
298.789
298.796
298.805
298.813
298.817
298.823
298.829
298.833
298.838
298.843
298.845
298.848
298.85
298.85
298.852
298.852
298.852
298.85
298.849
298.845
298.842
298.836
298.83
298.822
298.814
298.804
298.794
298.783
298.77
298.755
298.742
298.726
298.708
298.689
298.667
298.646
298.625
298.602
298.578
298.551
298.525
298.496
298.468
298.438
298.406
298.373
298.338
298.303
298.267
298.23
298.192
298.153
298.113
298.073
298.031
297.988
297.945
297.903
297.858
297.813
297.768
297.722
297.676
297.632
297.584
297.536
297.489
297.441
297.395
297.349
297.302
297.256
297.209
297.163
297.114
297.069
297.022
296.975
296.93
296.884
296.838
296.792
296.748
296.7
296.654
296.607
296.562
296.518
296.476
296.429
296.382
296.338
296.294
296.25
296.203
296.154
296.109
296.061
296.013
295.966
295.92
295.866
295.817
295.767
295.714
295.662
295.608
295.554
295.501
295.44
295.388
295.331
295.272
295.211
295.157
295.099
295.038
294.979
294.923
294.867
294.808
294.751
294.695
294.642
294.588
294.542
294.481
294.431
294.382
294.334
294.289
294.246
294.203
294.159
294.119
294.082
294.044
294.01
293.971
293.936
293.901
293.867
293.834
293.803
293.773
293.742
293.711
293.682
293.652
293.624
293.594
293.566
293.534
293.507
293.477
293.447
293.417
293.386
293.36
293.329
293.299
293.271
293.242
293.213
293.187
293.157
293.133
293.106
293.084
293.061
293.041
293.019
293.002
292.986
292.972
292.961
292.954
292.946
292.941
292.941
292.941
292.943
292.949
292.96
292.968
292.982
292.999
293.015
293.035
293.058
293.08
293.108
293.136
293.164
293.196
293.228
293.264
293.297
293.334
293.373
293.411
293.45
293.489
293.528
293.57
293.611
293.65
293.691
293.733
293.774
293.817
293.853
293.895
293.933
293.97
294.009
294.041
294.077
294.11
294.141
294.173
294.203
294.229
294.254
294.28
294.305
294.321
294.34
294.354
294.363
294.372
294.378
294.383
294.38
294.377
294.371
294.359
294.346
294.33
294.31
294.287
294.262
294.234
294.204
294.173
294.138
294.103
294.066
294.028
293.989
293.948
293.907
293.867
293.823
293.783
293.741
293.701
293.66
293.621
293.583
293.546
293.508
293.474
293.438
293.406
293.375
293.34
293.317
293.262
297.706
297.514
297.179
296.769
296.364
296.033
295.802
295.659
295.587
295.57
295.589
295.634
295.69
295.752
295.817
295.868
295.889
295.881
295.85
295.786
295.657
295.426
295.203
295.088
294.994
294.899
294.83
294.863
294.956
295.147
295.454
295.805
296.14
296.428
296.648
296.806
296.935
297.04
297.124
297.177
297.193
297.202
297.188
297.18
297.169
297.187
297.221
297.283
297.36
297.5
297.688
297.938
298.243
298.617
299.067
299.572
300.118
300.669
301.211
301.717
302.177
302.582
302.932
303.227
303.469
303.664
303.82
303.938
304.024
304.084
304.128
304.154
304.165
304.17
304.167
304.157
304.143
304.127
304.111
304.092
304.069
304.049
304.029
304.007
303.981
303.947
303.906
303.858
303.803
303.741
303.668
303.576
303.461
303.319
303.14
302.926
302.681
302.41
302.125
301.828
301.502
301.143
300.739
300.251
299.667
299.036
298.422
297.832
297.254
296.65
296.028
295.428
294.936
294.554
294.258
294.01
293.803
293.658
293.612
293.615
293.641
293.702
293.794
293.904
294.024
294.15
294.274
294.395
294.513
294.63
294.753
294.884
295.028
295.186
295.359
295.545
295.74
295.939
296.136
296.332
296.525
296.717
296.909
297.102
297.294
297.485
297.668
297.839
297.992
298.126
298.24
298.333
298.408
298.466
298.509
298.541
298.561
298.573
298.577
298.577
298.574
298.568
298.561
298.553
298.544
298.536
298.527
298.518
298.51
298.501
298.493
298.485
298.478
298.47
298.463
298.457
298.45
298.444
298.439
298.433
298.429
298.425
298.421
298.418
298.416
298.414
298.413
298.412
298.412
298.413
298.414
298.414
298.417
298.42
298.423
298.426
298.431
298.436
298.442
298.448
298.455
298.462
298.47
298.477
298.486
298.494
298.504
298.513
298.523
298.532
298.542
298.552
298.561
298.572
298.584
298.594
298.604
298.616
298.625
298.636
298.646
298.657
298.667
298.678
298.688
298.698
298.707
298.716
298.725
298.734
298.743
298.75
298.758
298.765
298.772
298.778
298.784
298.789
298.793
298.798
298.802
298.805
298.807
298.809
298.81
298.811
298.811
298.81
298.809
298.807
298.804
298.799
298.794
298.787
298.78
298.772
298.763
298.752
298.741
298.728
298.714
298.7
298.684
298.666
298.648
298.627
298.607
298.584
298.561
298.537
298.511
298.483
298.455
298.426
298.396
298.364
298.331
298.297
298.262
298.226
298.189
298.151
298.112
298.072
298.032
297.99
297.948
297.904
297.861
297.817
297.772
297.727
297.682
297.636
297.59
297.543
297.496
297.449
297.401
297.354
297.308
297.261
297.215
297.168
297.122
297.075
297.029
296.983
296.936
296.889
296.844
296.798
296.752
296.707
296.66
296.614
296.568
296.522
296.478
296.432
296.389
296.342
296.297
296.253
296.207
296.161
296.113
296.067
296.02
295.972
295.924
295.877
295.825
295.774
295.723
295.671
295.618
295.565
295.51
295.458
295.399
295.342
295.283
295.228
295.169
295.11
295.05
294.993
294.935
294.876
294.818
294.763
294.706
294.649
294.594
294.541
294.495
294.436
294.385
294.336
294.288
294.243
294.199
294.155
294.114
294.072
294.034
293.996
293.96
293.923
293.889
293.854
293.82
293.788
293.756
293.726
293.693
293.665
293.636
293.606
293.577
293.548
293.518
293.487
293.46
293.43
293.4
293.372
293.34
293.312
293.283
293.255
293.224
293.195
293.167
293.14
293.112
293.086
293.061
293.038
293.016
292.995
292.974
292.956
292.942
292.927
292.917
292.91
292.902
292.897
292.895
292.897
292.899
292.905
292.914
292.923
292.936
292.953
292.97
292.989
293.013
293.037
293.062
293.09
293.119
293.151
293.184
293.217
293.252
293.289
293.326
293.365
293.403
293.443
293.482
293.523
293.565
293.605
293.646
293.686
293.727
293.769
293.807
293.847
293.884
293.921
293.96
293.994
294.029
294.062
294.093
294.125
294.153
294.18
294.207
294.23
294.254
294.272
294.29
294.303
294.314
294.322
294.327
294.331
294.329
294.326
294.319
294.308
294.295
294.279
294.259
294.236
294.21
294.183
294.153
294.121
294.087
294.051
294.014
293.976
293.938
293.897
293.856
293.815
293.773
293.732
293.691
293.651
293.611
293.572
293.534
293.498
293.461
293.428
293.393
293.36
293.329
293.298
293.277
293.222
297.597
297.365
296.964
296.484
296.044
295.707
295.485
295.352
295.291
295.277
295.289
295.325
295.369
295.411
295.441
295.445
295.414
295.358
295.276
295.146
294.977
294.808
294.712
294.696
294.704
294.733
294.828
294.942
295.141
295.419
295.746
296.057
296.319
296.515
296.658
296.782
296.871
296.911
296.93
296.913
296.894
296.854
296.832
296.8
296.788
296.794
296.823
296.859
296.948
297.058
297.239
297.497
297.82
298.237
298.74
299.304
299.899
300.503
301.087
301.636
302.134
302.576
302.954
303.271
303.534
303.749
303.923
304.061
304.165
304.234
304.28
304.307
304.316
304.318
304.315
304.305
304.291
304.276
304.26
304.241
304.219
304.198
304.177
304.158
304.138
304.114
304.086
304.054
304.022
303.985
303.943
303.888
303.822
303.741
303.635
303.507
303.351
303.172
302.976
302.756
302.508
302.242
301.963
301.648
301.275
300.847
300.372
299.838
299.217
298.495
297.71
296.949
296.301
295.726
295.196
294.696
294.234
293.846
293.558
293.366
293.261
293.239
293.246
293.27
293.317
293.381
293.454
293.533
293.615
293.703
293.8
293.909
294.032
294.17
294.324
294.494
294.677
294.872
295.074
295.282
295.496
295.716
295.944
296.179
296.422
296.67
296.921
297.167
297.401
297.617
297.811
297.98
298.123
298.242
298.337
298.411
298.465
298.501
298.524
298.537
298.54
298.539
298.535
298.529
298.52
298.511
298.502
298.492
298.483
298.475
298.466
298.458
298.45
298.442
298.435
298.428
298.421
298.415
298.41
298.404
298.4
298.395
298.391
298.389
298.386
298.384
298.383
298.383
298.383
298.383
298.384
298.386
298.388
298.391