/*--------------------------------*- C++ -*----------------------------------*\
| =========                 |                                                 |
| \\      /  F ield         | OpenFOAM: The Open Source CFD Toolbox           |
|  \\    /   O peration     | Version:  v1812                                 |
|   \\  /    A nd           | Web:      www.OpenFOAM.com                      |
|    \\/     M anipulation  |                                                 |
\*---------------------------------------------------------------------------*/
FoamFile
{
    version     2.0;
    format      ascii;
    class       volVectorField;
    location    "0.4";
    object      U;
}
// * * * * * * * * * * * * * * * * * * * * * * * * * * * * * * * * * * * * * //

dimensions      [0 1 -1 0 0 0 0];


internalField   nonuniform List<vector> 
20400
(
(-0.0266638 0.0154562 0)
(-0.0318235 -0.0141143 0)
(-0.00688526 -0.0584618 0)
(0.102882 -0.0690397 0)
(0.275754 -0.044677 0)
(0.484266 -0.020777 0)
(0.721985 -0.0135335 0)
(0.966399 -0.0148861 0)
(1.19189 -0.0541469 0)
(1.4033 -0.0906248 0)
(1.60109 -0.110823 0)
(1.77249 -0.110244 0)
(1.90134 -0.0969472 0)
(2.00136 -0.0842402 0)
(2.0789 -0.0659809 0)
(2.13466 -0.0543336 0)
(2.18619 -0.0667111 0)
(2.24192 -0.0688511 0)
(2.29495 -0.0587198 0)
(2.33117 -0.0298799 0)
(2.33283 -0.00262314 0)
(2.32435 0.000793467 0)
(2.3211 0.0282825 0)
(2.28977 0.0355403 0)
(2.28003 0.0144679 0)
(2.30013 -0.0140818 0)
(2.29839 -0.0110099 0)
(2.23525 -0.00305607 0)
(2.13209 -0.102484 0)
(2.0746 -0.37462 0)
(1.97009 -0.348115 0)
(1.93393 0.0791143 0)
(1.82389 0.084169 0)
(1.78694 0.00934802 0)
(1.7997 0.00229188 0)
(1.79315 0.0613101 0)
(1.64027 0.285167 0)
(1.20381 0.593015 0)
(0.492307 0.811607 0)
(-0.393012 0.8587 0)
(-1.36123 0.699532 0)
(-2.36461 0.490112 0)
(-3.38139 0.326383 0)
(-4.43794 0.291492 0)
(-5.5688 0.394819 0)
(-6.66316 0.483379 0)
(-7.67972 0.596748 0)
(-8.62032 0.702241 0)
(-9.48451 0.758459 0)
(-10.3001 0.750366 0)
(-11.0737 0.728915 0)
(-11.7964 0.649404 0)
(-12.4295 0.498963 0)
(-12.9403 0.414859 0)
(-13.3074 0.351211 0)
(-13.4907 0.30918 0)
(-13.5387 0.471353 0)
(-13.3977 0.558581 0)
(-13.086 0.726369 0)
(-12.5827 0.901779 0)
(-11.8916 1.03478 0)
(-11.0605 1.04752 0)
(-10.1259 0.989321 0)
(-9.10859 0.886401 0)
(-8.03744 0.752998 0)
(-6.95453 0.559781 0)
(-5.89064 0.27954 0)
(-4.83824 -0.0295583 0)
(-3.7777 -0.259485 0)
(-2.7288 -0.375019 0)
(-1.71589 -0.416041 0)
(-0.76443 -0.409457 0)
(0.106496 -0.380888 0)
(0.893244 -0.34772 0)
(1.559 -0.202193 0)
(2.0476 0.0930068 0)
(2.55367 0.334483 0)
(3.12911 0.561675 0)
(3.68257 0.847815 0)
(3.98763 1.11244 0)
(4.15596 0.165135 0)
(4.23337 -0.494814 0)
(4.45462 -0.588296 0)
(4.62692 -0.558314 0)
(4.76694 -0.468373 0)
(4.82209 -0.31595 0)
(4.85172 -0.34578 0)
(4.84899 -0.399037 0)
(4.8089 -0.418043 0)
(4.72998 -0.398038 0)
(4.6299 -0.312436 0)
(4.50358 -0.179596 0)
(4.31829 -0.0577901 0)
(4.16779 0.161799 0)
(3.96808 0.253866 0)
(3.84499 0.296953 0)
(3.75392 0.220193 0)
(3.69306 -0.0402974 0)
(3.47966 -0.225022 0)
(3.23574 -0.333745 0)
(3.02153 -0.335893 0)
(2.8942 -0.198078 0)
(2.77484 -0.0646244 0)
(2.63215 0.000639908 0)
(2.50806 0.0715829 0)
(2.38912 0.0905541 0)
(2.28229 0.0812014 0)
(2.18021 0.0663765 0)
(2.08126 0.0443431 0)
(1.99213 0.0158544 0)
(1.91177 0.0273613 0)
(1.83293 0.0373507 0)
(1.77109 0.0254598 0)
(1.74697 -0.00163281 0)
(1.72816 0.00879141 0)
(1.71665 0.013045 0)
(1.72404 0.00574095 0)
(1.7528 6.42627e-05 0)
(1.78705 -0.00734845 0)
(1.81356 -0.013454 0)
(1.83369 -0.0125106 0)
(1.84969 -0.0121155 0)
(1.86338 -0.00992996 0)
(1.8781 -0.00809884 0)
(1.89724 -0.00882047 0)
(1.92145 -0.0125634 0)
(1.94998 -0.0195642 0)
(1.98517 -0.0257692 0)
(2.02519 -0.0252918 0)
(2.06301 -0.0197956 0)
(2.09505 -0.0146798 0)
(2.123 -0.0114269 0)
(2.14887 -0.0107621 0)
(2.17435 -0.0119578 0)
(2.2007 -0.0147702 0)
(2.22961 -0.0165573 0)
(2.26204 -0.0200947 0)
(2.2983 -0.0269184 0)
(2.33678 -0.0388387 0)
(2.37838 -0.0495613 0)
(2.42122 -0.0501609 0)
(2.45725 -0.0294478 0)
(2.47794 -0.00543161 0)
(2.49881 -0.00711648 0)
(2.51611 -0.0105581 0)
(2.52824 -0.0174268 0)
(2.53709 -0.0188867 0)
(2.54087 -0.0143525 0)
(2.5435 -0.00592001 0)
(2.54108 0.00126119 0)
(2.5341 0.00121962 0)
(2.52714 -0.00336248 0)
(2.5201 -0.0125593 0)
(2.51801 -0.0223762 0)
(2.51578 -0.0165423 0)
(2.51016 -0.0105867 0)
(2.50222 -0.00784167 0)
(2.49557 -0.00920397 0)
(2.49576 -0.0243026 0)
(2.5015 -0.0372352 0)
(2.50185 -0.0500142 0)
(2.50039 -0.0425957 0)
(2.49632 -0.0209735 0)
(2.48266 0.00978636 0)
(2.45967 0.0148714 0)
(2.44336 0.0160871 0)
(2.42895 0.00591193 0)
(2.41285 -0.00534412 0)
(2.39226 -0.00913654 0)
(2.3709 -0.0157898 0)
(2.34933 -0.011782 0)
(2.32778 -0.00586186 0)
(2.30535 -0.00644519 0)
(2.28514 -0.0100054 0)
(2.2685 -0.0193977 0)
(2.25584 -0.0393041 0)
(2.24313 -0.0199863 0)
(2.22517 -0.00178834 0)
(2.20525 0.018484 0)
(2.1794 0.0251229 0)
(2.15596 0.0244617 0)
(2.13358 0.0226605 0)
(2.10874 0.0201896 0)
(2.08173 0.00832639 0)
(2.06088 -0.0100304 0)
(2.04648 -0.021646 0)
(2.03945 -0.0327313 0)
(2.03373 -0.0314592 0)
(2.03596 -0.0199537 0)
(2.03428 0.016146 0)
(2.02038 0.0228023 0)
(2.01421 0.00169325 0)
(2.02083 -0.0195752 0)
(2.02941 -0.0377393 0)
(2.04049 -0.0418962 0)
(2.05133 -0.0348332 0)
(2.06908 -0.00967445 0)
(2.0733 0.0446559 0)
(2.06733 0.0580982 0)
(2.06034 0.0552437 0)
(2.06088 0.0368155 0)
(2.07096 0.0023229 0)
(2.08191 -0.0345179 0)
(2.10635 -0.0465175 0)
(2.13039 -0.0385728 0)
(2.14859 -0.00966623 0)
(2.15665 0.0328545 0)
(2.17478 0.0254156 0)
(2.21304 0.00533356 0)
(2.26154 -0.0257813 0)
(2.31125 -0.0451075 0)
(2.3548 -0.0313259 0)
(2.38908 0.00341407 0)
(2.4051 0.0450898 0)
(2.43801 0.0106711 0)
(2.49498 -0.0148334 0)
(2.54327 -0.0368529 0)
(2.60538 -0.0345553 0)
(2.66503 -0.000798198 0)
(2.69529 0.0430157 0)
(2.73069 0.0317819 0)
(2.775 0.0255448 0)
(2.82175 0.037343 0)
(2.85266 0.0706819 0)
(2.89864 0.0445978 0)
(2.96896 0.0354561 0)
(3.01397 -0.0302859 0)
(3.07862 -0.051776 0)
(3.1329 -0.0179592 0)
(3.15798 0.0504596 0)
(3.2078 0.0351992 0)
(3.2805 0.0140848 0)
(3.33812 -0.049571 0)
(3.39616 -0.111754 0)
(3.44933 -0.0745807 0)
(3.48553 0.00984571 0)
(3.51911 0.14352 0)
(3.57287 0.114862 0)
(3.63745 0.0263642 0)
(3.66603 -0.127922 0)
(3.72058 -0.132969 0)
(3.76731 -0.104797 0)
(3.7853 0.0106424 0)
(3.81229 0.152694 0)
(3.84607 0.150452 0)
(3.88515 0.113522 0)
(3.89076 -0.0308128 0)
(3.93577 -0.0956785 0)
(3.93917 -0.183886 0)
(3.95703 -0.0859216 0)
(3.95512 0.0686833 0)
(3.97789 0.0929284 0)
(3.98724 0.0442593 0)
(3.99053 -0.0696387 0)
(4.01815 -0.0749914 0)
(4.02366 -0.112937 0)
(4.02447 -0.013192 0)
(4.02205 0.0662676 0)
(4.01438 0.101701 0)
(4.02192 0.135058 0)
(4.0178 0.12699 0)
(4.01807 0.00666343 0)
(4.00282 -0.0643761 0)
(4.01065 -0.132528 0)
(4.01427 -0.163422 0)
(4.02157 -0.193904 0)
(4.02439 -0.151026 0)
(4.03302 0.0261848 0)
(4.0114 0.0699487 0)
(3.99955 0.0883804 0)
(3.98998 0.0972771 0)
(3.96894 0.059435 0)
(3.95335 -0.035693 0)
(3.93676 -0.101388 0)
(3.91577 -0.110775 0)
(3.89943 -0.0416538 0)
(3.87205 0.0348188 0)
(3.84653 0.0719894 0)
(3.82321 0.059616 0)
(3.81197 -0.00653112 0)
(3.79428 -0.0792088 0)
(3.78257 -0.0194826 0)
(3.75736 0.0180952 0)
(3.73143 0.00099511 0)
(3.73579 -0.0664198 0)
(3.72919 -0.10395 0)
(3.72902 -0.0508886 0)
(3.72533 0.0283642 0)
(3.72715 0.0809247 0)
(3.74334 0.0695787 0)
(3.74664 -0.00707368 0)
(3.77211 -0.0694039 0)
(3.79325 -0.0756379 0)
(3.79896 -0.0274579 0)
(3.80507 0.0493123 0)
(3.84348 0.0772883 0)
(3.88627 0.0721402 0)
(3.9237 0.0644181 0)
(3.94582 0.109614 0)
(4.00615 0.069253 0)
(4.08072 -0.0456136 0)
(4.18409 -0.0942889 0)
(4.28125 -0.125644 0)
(4.36504 0.0167667 0)
(4.43507 0.233801 0)
(4.51849 0.173774 0)
(4.64453 0.0563066 0)
(4.72858 -0.171535 0)
(4.8728 -0.194446 0)
(5.01448 -0.166658 0)
(5.17046 -0.0946757 0)
(5.21227 0.175312 0)
(5.3982 0.233083 0)
(5.65742 0.149441 0)
(5.77079 -0.218591 0)
(5.95358 -0.35533 0)
(6.13744 -0.147806 0)
(6.20187 0.324246 0)
(6.41276 0.272405 0)
(6.64729 -0.142342 0)
(6.79831 -0.58934 0)
(7.02122 -0.24644 0)
(7.04439 0.440582 0)
(7.32363 0.5014 0)
(7.6077 -0.0541413 0)
(7.77141 -0.6631 0)
(7.95685 -0.577695 0)
(8.23221 -0.491788 0)
(8.32623 0.231177 0)
(8.75727 0.649077 0)
(8.98197 1.10949 0)
(9.39557 0.664059 0)
(9.50046 -0.805696 0)
(9.74912 -1.11241 0)
(10.0085 -1.07391 0)
(10.144 -0.00106603 0)
(10.4015 1.15414 0)
(10.8174 0.963833 0)
(11.0484 -0.341012 0)
(11.3251 -1.24805 0)
(11.5065 -0.70016 0)
(11.715 0.799397 0)
(12.1839 0.23773 0)
(12.3386 -1.06047 0)
(12.5043 -0.269098 0)
(12.757 1.16851 0)
(13.2566 0.513292 0)
(13.4226 -1.13004 0)
(13.5564 -0.570105 0)
(13.7886 0.845022 0)
(14.2211 0.0201668 0)
(14.329 -1.32413 0)
(14.4835 -0.658398 0)
(14.6163 1.21607 0)
(15.0191 1.19897 0)
(15.2324 -0.490095 0)
(15.3626 -1.43332 0)
(15.419 -0.201808 0)
(15.6144 1.52665 0)
(16.0645 1.37303 0)
(16.2195 -0.434083 0)
(16.2099 -1.456 0)
(16.1449 -0.802299 0)
(16.172 0.781117 0)
(16.4356 1.53494 0)
(16.8551 1.59407 0)
(17.1492 0.135095 0)
(17.0403 -1.52845 0)
(16.8869 -1.29843 0)
(16.8549 0.027237 0)
(16.9367 1.41359 0)
(17.1967 1.39038 0)
(17.2898 -0.373203 0)
(17.1478 -1.50724 0)
(16.9809 -1.32284 0)
(16.8663 -0.444194 0)
(16.8601 0.573509 0)
(16.937 -0.0779209 0)
(16.812 -0.83209 0)
(16.608 -0.385932 0)
(16.568 0.495712 0)
(16.3657 0.825177 0)
(16.3675 1.13667 0)
(16.3215 1.41279 0)
(16.2875 0.668764 0)
(16.1733 -0.93091 0)
(15.9018 -0.934082 0)
(15.6603 -0.437851 0)
(15.4218 0.204996 0)
(15.2829 -0.0201302 0)
(15.1174 -0.482977 0)
(14.8637 -0.0922755 0)
(14.7153 0.480603 0)
(14.5139 0.193563 0)
(14.4682 -0.623427 0)
(14.1944 -0.657348 0)
(13.9161 -0.164723 0)
(13.7424 0.443002 0)
(13.5054 0.505069 0)
(13.3563 0.0809558 0)
(13.1541 -0.416842 0)
(12.8428 -0.376767 0)
(12.5597 -0.0765176 0)
(12.2931 0.28546 0)
(12.0488 0.312608 0)
(11.8899 0.133211 0)
(11.7541 -0.258576 0)
(11.4902 -0.309594 0)
(11.2062 -0.236284 0)
(11.011 0.117524 0)
(10.7779 0.259233 0)
(10.5903 0.230896 0)
(10.4727 0.0112358 0)
(10.3012 -0.205731 0)
(10.0779 -0.197448 0)
(9.85431 -0.0400658 0)
(9.65203 0.206273 0)
(9.45656 0.219329 0)
(9.31747 0.0960329 0)
(9.22683 -0.171143 0)
(9.08208 -0.147349 0)
(8.94787 0.0349324 0)
(8.77615 0.188079 0)
(8.61774 0.12475 0)
(8.5697 -0.0902801 0)
(8.43949 -0.0996391 0)
(8.33219 0.077756 0)
(8.2065 0.17967 0)
(8.08507 0.132944 0)
(8.054 -0.0726576 0)
(7.96064 -0.104186 0)
(7.88243 0.0222716 0)
(7.80297 0.155677 0)
(7.74057 0.126258 0)
(7.71288 0.0385549 0)
(7.67871 -0.0942133 0)
(7.65677 -0.0813726 0)
(7.60614 -0.0756202 0)
(7.55073 -0.106678 0)
(7.49764 0.0309743 0)
(7.51983 0.161181 0)
(7.53734 0.118075 0)
(7.53917 -0.00771128 0)
(7.55515 -0.00980358 0)
(7.55486 0.143777 0)
(7.57295 0.139035 0)
(7.61146 0.10672 0)
(7.62176 -0.0611694 0)
(7.70403 -0.109317 0)
(7.7563 -0.0888589 0)
(7.77452 -0.0932527 0)
(7.78005 -0.110213 0)
(7.85982 -0.0469994 0)
(7.96873 0.120555 0)
(8.10445 0.117269 0)
(8.18895 0.0170959 0)
(8.3169 -0.116558 0)
(8.44506 -0.123873 0)
(8.5596 -0.12098 0)
(8.62919 0.0947061 0)
(8.77694 0.169885 0)
(8.9172 0.131815 0)
(9.03851 -0.0158858 0)
(9.24333 -0.149969 0)
(9.45146 -0.168302 0)
(9.64639 -0.115209 0)
(9.76392 0.185885 0)
(9.95362 0.128563 0)
(10.1535 0.0165912 0)
(10.3879 -0.138361 0)
(10.6249 -0.169202 0)
(10.8356 -0.0623643 0)
(11.0182 0.192304 0)
(11.2757 0.14192 0)
(11.4921 0.00551098 0)
(11.7326 -0.165074 0)
(11.9878 -0.156009 0)
(12.1301 0.0848242 0)
(12.3615 0.145703 0)
(12.619 0.0706462 0)
(12.8521 -0.143735 0)
(13.0839 -0.20697 0)
(13.2843 -0.134405 0)
(13.443 0.157102 0)
(13.6866 0.247354 0)
(13.8876 0.223886 0)
(14.0435 -0.000925527 0)
(14.2288 -0.185937 0)
(14.3942 -0.212614 0)
(14.483 -0.0488741 0)
(14.605 0.189469 0)
(14.7928 0.257691 0)
(14.9227 0.0452956 0)
(15.0302 -0.184416 0)
(15.1114 -0.138354 0)
(15.1284 0.157513 0)
(15.2295 0.269908 0)
(15.3171 0.163008 0)
(15.3326 -0.13612 0)
(15.4174 -0.172363 0)
(0.0242575 -0.00221459 0)
(0.0942831 -0.035923 0)
(0.210223 -0.106927 0)
(0.380396 -0.300723 0)
(0.711182 -0.390549 0)
(1.12029 -0.429684 0)
(1.57629 -0.448008 0)
(2.03141 -0.389537 0)
(2.44383 -0.324689 0)
(2.81173 -0.278869 0)
(3.1379 -0.240048 0)
(3.41835 -0.18009 0)
(3.66061 -0.129893 0)
(3.88666 -0.102476 0)
(4.10548 -0.0769133 0)
(4.32002 -0.0552728 0)
(4.53675 -0.05808 0)
(4.74097 -0.0552735 0)
(4.90148 -0.0479099 0)
(4.99412 -0.0177489 0)
(5.01784 0.00514319 0)
(5.01857 -0.00190765 0)
(4.97894 0.0150861 0)
(4.80579 0.0156838 0)
(4.53045 -0.0289319 0)
(4.23954 -0.0179423 0)
(3.95302 0.0428554 0)
(3.66582 0.108796 0)
(3.38491 0.165081 0)
(3.00857 0.214803 0)
(2.38688 0.465623 0)
(1.62447 0.419432 0)
(0.884537 0.325408 0)
(0.076396 0.194422 0)
(-0.840565 0.19006 0)
(-1.84701 0.28634 0)
(-2.91377 0.574101 0)
(-4.07387 0.947385 0)
(-5.36001 1.22565 0)
(-6.74987 1.47784 0)
(-8.26355 1.7124 0)
(-9.85792 1.85163 0)
(-11.4365 1.88451 0)
(-12.9503 1.89931 0)
(-14.4225 1.76648 0)
(-15.7406 1.4586 0)
(-16.9203 1.2467 0)
(-17.9565 1.02365 0)
(-18.8184 0.883053 0)
(-19.4615 0.831574 0)
(-19.8471 0.76269 0)
(-20.031 0.716095 0)
(-20.034 0.599373 0)
(-19.882 0.454916 0)
(-19.6868 0.269285 0)
(-19.3449 0.080919 0)
(-18.8056 -0.0639885 0)
(-18.2807 -0.380976 0)
(-17.5565 -0.656603 0)
(-16.5786 -0.875978 0)
(-15.4303 -1.11955 0)
(-14.2052 -1.35983 0)
(-12.8844 -1.54571 0)
(-11.4612 -1.69729 0)
(-9.94589 -1.81359 0)
(-8.36487 -1.88515 0)
(-6.79584 -1.9019 0)
(-5.34222 -1.87847 0)
(-4.04175 -1.82786 0)
(-2.87263 -1.74973 0)
(-1.79601 -1.66213 0)
(-0.808656 -1.53192 0)
(0.100994 -1.40359 0)
(0.880881 -1.19962 0)
(1.61459 -1.10125 0)
(2.47798 -1.36925 0)
(3.60177 -1.70041 0)
(4.90391 -1.88844 0)
(6.27708 -1.74276 0)
(7.61246 -1.10817 0)
(8.70675 -0.272586 0)
(9.56076 0.104228 0)
(10.2503 0.136243 0)
(10.7965 0.163995 0)
(11.1531 0.174296 0)
(11.2826 0.176419 0)
(11.2638 0.235044 0)
(11.1751 0.309428 0)
(11.0788 0.408855 0)
(10.9503 0.452795 0)
(10.8363 0.448304 0)
(10.7636 0.415837 0)
(10.7635 0.380505 0)
(10.7752 0.233964 0)
(10.5148 0.111687 0)
(10.0651 -0.107175 0)
(9.5207 -0.0115603 0)
(9.02349 0.258232 0)
(8.62091 0.61139 0)
(8.17198 0.71393 0)
(7.81287 0.593511 0)
(7.5839 0.434428 0)
(7.45001 0.320048 0)
(7.31366 0.267974 0)
(7.15939 0.182977 0)
(6.90869 0.135028 0)
(6.61083 0.130785 0)
(6.32436 0.137764 0)
(6.08258 0.15374 0)
(5.89549 0.147285 0)
(5.7515 0.143156 0)
(5.61971 0.121954 0)
(5.50593 0.06126 0)
(5.40302 0.0366981 0)
(5.33402 0.0344288 0)
(5.31 -0.00390213 0)
(5.31831 -0.0384917 0)
(5.33015 -0.070412 0)
(5.34445 -0.0558241 0)
(5.35953 -0.0312787 0)
(5.38257 -0.0247488 0)
(5.39788 -0.0170227 0)
(5.41044 -0.0195223 0)
(5.42192 -0.0252301 0)
(5.4307 -0.0377104 0)
(5.44854 -0.0423411 0)
(5.47264 -0.0486864 0)
(5.50736 -0.0559284 0)
(5.5534 -0.0613782 0)
(5.60479 -0.0564124 0)
(5.65559 -0.0519527 0)
(5.70381 -0.0498424 0)
(5.74943 -0.049647 0)
(5.79423 -0.0505241 0)
(5.84066 -0.0526867 0)
(5.89158 -0.0584809 0)
(5.9507 -0.0638728 0)
(6.02064 -0.0657569 0)
(6.10105 -0.061395 0)
(6.18773 -0.0595961 0)
(6.26717 -0.0524567 0)
(6.32688 -0.0554407 0)
(6.36355 -0.0521101 0)
(6.38471 -0.0557879 0)
(6.39933 -0.0454611 0)
(6.41794 -0.0336477 0)
(6.43435 -0.0211003 0)
(6.44929 -0.0227983 0)
(6.45896 -0.0267132 0)
(6.46291 -0.0229805 0)
(6.46066 -0.0218573 0)
(6.45904 -0.0163878 0)
(6.46216 -0.0147767 0)
(6.46882 -0.0177856 0)
(6.47774 -0.0151317 0)
(6.48596 -0.0174782 0)
(6.4915 -0.0187173 0)
(6.49241 -0.0298423 0)
(6.4951 -0.0290151 0)
(6.5053 -0.0193063 0)
(6.52997 -0.00499923 0)
(6.56327 -0.00479792 0)
(6.58399 -0.0113946 0)
(6.5809 -0.0205757 0)
(6.55299 -0.0277756 0)
(6.51367 -0.0401807 0)
(6.47295 -0.0271258 0)
(6.44403 -0.0160886 0)
(6.43151 -0.00411943 0)
(6.42513 -0.000685773 0)
(6.42263 -0.00175971 0)
(6.41693 -0.00735849 0)
(6.3989 -0.0059649 0)
(6.3813 -0.0111975 0)
(6.37361 -0.00487978 0)
(6.37549 0.0030813 0)
(6.38111 -0.000718138 0)
(6.38141 -0.00909018 0)
(6.35545 -0.0209543 0)
(6.29842 -0.0217342 0)
(6.23085 -0.0245548 0)
(6.17244 -0.0180884 0)
(6.12993 -0.00917005 0)
(6.10736 0.00349014 0)
(6.09906 0.00798988 0)
(6.10797 0.0054028 0)
(6.1409 0.0135687 0)
(6.19407 0.0164216 0)
(6.23018 -0.00952605 0)
(6.23818 -0.0101372 0)
(6.22451 -0.0263113 0)
(6.20212 -0.0151553 0)
(6.19189 -0.00602071 0)
(6.20739 0.0111645 0)
(6.26791 0.0286984 0)
(6.33833 0.0115783 0)
(6.37658 -0.00643367 0)
(6.37212 -0.0230148 0)
(6.3373 -0.0261099 0)
(6.29763 -0.0169003 0)
(6.26746 -0.0147055 0)
(6.25601 0.00803505 0)
(6.2718 0.0377341 0)
(6.32219 0.0445518 0)
(6.39375 0.049674 0)
(6.46773 0.0333056 0)
(6.5248 0.024819 0)
(6.53499 -0.0160628 0)
(6.55028 -0.0222341 0)
(6.58086 -0.0047822 0)
(6.61668 0.0375284 0)
(6.67495 0.0354066 0)
(6.74312 0.0306169 0)
(6.81178 0.0347691 0)
(6.84716 -0.0154173 0)
(6.87388 0.0127317 0)
(6.91824 0.0352312 0)
(6.98126 0.0100678 0)
(7.06089 0.0186524 0)
(7.1286 0.0304655 0)
(7.17047 0.00809988 0)
(7.20134 0.00383143 0)
(7.23526 0.0074819 0)
(7.27662 0.0134072 0)
(7.30116 -0.035592 0)
(7.331 -0.0169517 0)
(7.36934 0.0296917 0)
(7.44882 0.0518173 0)
(7.5386 0.0472596 0)
(7.61874 0.0353621 0)
(7.65135 -0.0368826 0)
(7.67957 -0.0184297 0)
(7.73231 0.0205381 0)
(7.78977 0.107695 0)
(7.85275 0.065303 0)
(7.9323 0.0188314 0)
(7.97935 -0.0496704 0)
(8.00917 -0.0954893 0)
(8.02923 -0.0300176 0)
(8.05203 0.0925083 0)
(8.10158 0.0832904 0)
(8.18737 0.0805171 0)
(8.25135 0.00950503 0)
(8.26297 -0.0746463 0)
(8.23139 -0.0957106 0)
(8.19837 -0.0716446 0)
(8.19931 0.00869709 0)
(8.24071 0.0694193 0)
(8.27451 0.126788 0)
(8.32638 0.0738566 0)
(8.34636 -0.0454127 0)
(8.32921 -0.0567758 0)
(8.29509 -0.0252568 0)
(8.29117 0.0198055 0)
(8.31179 0.0254272 0)
(8.33086 0.0645765 0)
(8.36717 0.00614852 0)
(8.35767 -0.0464135 0)
(8.30046 -0.0883165 0)
(8.23291 -0.117426 0)
(8.17525 -0.100722 0)
(8.16591 -0.0256903 0)
(8.19141 0.00200804 0)
(8.22851 0.0341498 0)
(8.31476 0.0440991 0)
(8.44117 0.0599571 0)
(8.56679 0.0387653 0)
(8.60736 -0.0563275 0)
(8.55995 -0.0816294 0)
(8.44986 -0.11047 0)
(8.33322 -0.11555 0)
(8.25403 -0.0746324 0)
(8.23942 -0.00680925 0)
(8.27593 0.0237797 0)
(8.33043 0.0264394 0)
(8.37252 0.00205367 0)
(8.36437 -0.0359104 0)
(8.29044 -0.0980295 0)
(8.19472 -0.076103 0)
(8.14354 -0.0306749 0)
(8.15246 0.011431 0)
(8.17139 -0.00678156 0)
(8.16172 -0.0333453 0)
(8.14227 -0.0291627 0)
(8.15052 0.00725152 0)
(8.19639 0.0372819 0)
(8.24662 0.00392456 0)
(8.26374 -0.0355422 0)
(8.22686 -0.0879048 0)
(8.17011 -0.0807021 0)
(8.14507 -0.0330309 0)
(8.19039 0.00887802 0)
(8.30302 0.062969 0)
(8.4273 0.0377419 0)
(8.4802 -0.0312448 0)
(8.45889 -0.0751618 0)
(8.4369 -0.0610401 0)
(8.45082 -0.0164138 0)
(8.49206 -0.0203164 0)
(8.51748 -0.0880282 0)
(8.58712 -0.0159022 0)
(8.76709 0.0129695 0)
(8.99674 0.100521 0)
(9.17972 -0.0137284 0)
(9.2402 -0.0788691 0)
(9.23771 -0.0922134 0)
(9.30064 -0.0574753 0)
(9.38013 0.113629 0)
(9.53935 0.0914618 0)
(9.80519 0.0690686 0)
(10.1589 0.113449 0)
(10.4423 0.000471049 0)
(10.4746 -0.217408 0)
(10.5562 -0.141782 0)
(10.6341 0.100518 0)
(10.8636 0.26967 0)
(11.1731 0.100559 0)
(11.5354 0.067385 0)
(11.6817 -0.25019 0)
(11.7611 0.0222249 0)
(11.9355 0.429837 0)
(12.1785 0.132301 0)
(12.6008 0.0170707 0)
(12.7996 -0.320972 0)
(12.9411 -0.0125654 0)
(13.1766 0.444642 0)
(13.4756 0.259153 0)
(13.9331 0.279816 0)
(14.2651 -0.117176 0)
(14.473 -0.370382 0)
(14.6912 -0.245994 0)
(14.9331 -0.387628 0)
(15.0764 0.367088 0)
(15.3945 0.552286 0)
(15.7683 0.541511 0)
(16.0555 0.023854 0)
(16.5491 -0.204425 0)
(16.8076 -0.479143 0)
(17.0022 0.0515683 0)
(17.2813 0.659343 0)
(17.6446 0.342841 0)
(17.9525 -0.201391 0)
(18.3781 -0.209952 0)
(18.5854 0.582467 0)
(18.9265 0.158404 0)
(19.2683 -0.314246 0)
(19.6554 -0.348585 0)
(19.8438 0.558508 0)
(20.1975 0.308113 0)
(20.491 -0.236503 0)
(20.7938 -0.0662471 0)
(20.9816 0.628198 0)
(21.3362 0.336449 0)
(21.6912 -0.212421 0)
(21.9646 -0.54666 0)
(22.0238 0.197152 0)
(22.3122 0.688882 0)
(22.652 0.168634 0)
(22.9325 -0.378806 0)
(23.1128 -0.639959 0)
(23.1668 0.244646 0)
(23.4715 0.683141 0)
(23.8981 0.505953 0)
(24.0917 -0.285631 0)
(24.0633 -0.633127 0)
(24.1438 -0.653455 0)
(24.2681 -0.0286587 0)
(24.3884 0.64202 0)
(24.6515 0.636747 0)
(24.8237 0.110106 0)
(24.9215 -0.40161 0)
(24.8439 -0.640446 0)
(24.815 0.215003 0)
(24.9078 0.550419 0)
(25.0743 0.602546 0)
(25.2537 0.305329 0)
(25.2138 -0.223512 0)
(25.1295 0.0409834 0)
(25.191 0.337221 0)
(25.3356 0.309875 0)
(25.396 -0.0322898 0)
(25.1555 -0.226189 0)
(24.8746 -0.399015 0)
(24.6472 -0.523959 0)
(24.4687 -0.268536 0)
(24.4225 0.338805 0)
(24.3884 0.475738 0)
(24.4858 0.419838 0)
(24.4176 -0.0912255 0)
(24.2125 0.00511427 0)
(24.0955 0.220455 0)
(23.989 0.165867 0)
(23.8264 -0.217774 0)
(23.5583 -0.0764129 0)
(23.2839 0.146868 0)
(23.1952 0.3208 0)
(23.2479 0.258255 0)
(23.1597 -0.119779 0)
(22.7454 -0.251048 0)
(22.3981 -0.00865565 0)
(22.2116 0.20144 0)
(22.2121 0.254138 0)
(22.2894 0.274273 0)
(22.1981 -0.0286881 0)
(21.7567 -0.172122 0)
(21.2634 -0.100246 0)
(20.9584 0.115175 0)
(20.9168 0.228843 0)
(20.9821 0.255893 0)
(21.0385 0.0792338 0)
(20.7902 -0.0856838 0)
(20.3622 -0.140384 0)
(19.9771 -0.00227252 0)
(19.784 0.138269 0)
(19.7997 0.191217 0)
(19.89 0.212693 0)
(19.8536 0.0206785 0)
(19.5331 -0.0964207 0)
(19.1994 -0.0105532 0)
(19.0099 0.0516067 0)
(19.0092 0.142001 0)
(19.0599 0.147981 0)
(19.0063 -0.00869025 0)
(18.7662 -0.0272007 0)
(18.6131 0.0357895 0)
(18.6221 0.133262 0)
(18.6494 0.0855103 0)
(18.5392 -0.0479585 0)
(18.3125 -0.027052 0)
(18.2069 0.0492675 0)
(18.2482 0.119056 0)
(18.3473 0.0981689 0)
(18.2956 -0.0530771 0)
(18.0312 -0.0607254 0)
(17.8357 0.0073054 0)
(17.778 0.0575597 0)
(17.8621 0.0950636 0)
(18.0474 0.148767 0)
(18.2826 0.149357 0)
(18.3876 0.0276904 0)
(18.2655 -0.115927 0)
(18.0349 -0.0600472 0)
(17.9768 0.0215175 0)
(18.0361 0.0471599 0)
(18.0426 -0.0370757 0)
(17.8927 -0.0787372 0)
(17.7152 -0.0423552 0)
(17.6531 0.0172553 0)
(17.7218 0.0524078 0)
(17.9169 0.104565 0)
(18.228 0.163702 0)
(18.644 0.177466 0)
(18.9105 -0.0311716 0)
(18.8568 -0.15713 0)
(18.6796 -0.0775393 0)
(18.5798 -0.0464297 0)
(18.6556 0.0127633 0)
(18.9369 0.0892664 0)
(19.3414 0.119272 0)
(19.543 -0.0311614 0)
(19.4896 -0.119234 0)
(19.4032 -0.0372002 0)
(19.4118 -0.040767 0)
(19.585 -0.0170398 0)
(19.9162 0.0598647 0)
(20.2975 0.0709056 0)
(20.5465 -0.0438116 0)
(20.5996 -0.0682982 0)
(20.6503 -0.0833701 0)
(20.8421 0.00165696 0)
(21.2528 0.0881412 0)
(21.6624 0.03638 0)
(21.8333 -0.114924 0)
(21.8539 -0.0665555 0)
(21.9297 -0.0672317 0)
(22.1627 0.0229367 0)
(22.5864 0.114192 0)
(22.9674 0.0141502 0)
(23.1436 -0.0869982 0)
(23.2294 -0.121653 0)
(23.4021 0.00550578 0)
(23.804 0.107545 0)
(24.2751 0.102888 0)
(24.4958 -0.136868 0)
(24.4881 -0.111713 0)
(24.4755 -0.0844275 0)
(24.5508 -0.0426605 0)
(24.7838 0.0351348 0)
(25.1417 0.164888 0)
(25.5071 0.0629895 0)
(25.6236 -0.153401 0)
(25.6125 -0.124586 0)
(25.6188 -0.104621 0)
(25.7413 0.104868 0)
(26.0429 0.101921 0)
(26.1689 -0.095879 0)
(26.1877 -0.0917717 0)
(26.1646 -0.138892 0)
(26.1764 0.00808505 0)
(26.3136 0.0514954 0)
(0.0612109 -0.137259 0)
(0.274878 -0.215597 0)
(0.525956 -0.315414 0)
(0.791252 -0.555873 0)
(1.1649 -0.768912 0)
(1.61658 -0.883068 0)
(2.09491 -0.94958 0)
(2.56863 -0.889234 0)
(2.9983 -0.798273 0)
(3.37992 -0.714928 0)
(3.70455 -0.625797 0)
(3.96092 -0.516293 0)
(4.1765 -0.43572 0)
(4.38093 -0.402209 0)
(4.57505 -0.367469 0)
(4.75943 -0.345821 0)
(4.94256 -0.353952 0)
(5.1049 -0.307421 0)
(5.2171 -0.214088 0)
(5.25588 -0.089595 0)
(5.25574 -0.00720555 0)
(5.24449 -0.00588247 0)
(5.24531 0.119371 0)
(5.14265 0.340618 0)
(4.83319 0.455975 0)
(4.44761 0.472472 0)
(4.08089 0.539163 0)
(3.73952 0.585619 0)
(3.36358 0.711375 0)
(2.83791 1.01736 0)
(2.16183 1.46349 0)
(1.1676 1.62918 0)
(-0.176046 1.84962 0)
(-1.92957 1.91595 0)
(-3.92918 1.92555 0)
(-5.99267 1.91696 0)
(-7.99637 2.11596 0)
(-9.89129 2.52767 0)
(-11.682 2.81714 0)
(-13.3393 2.99235 0)
(-14.8955 3.03148 0)
(-16.3208 2.94647 0)
(-17.5127 2.78432 0)
(-18.3951 2.74533 0)
(-18.893 2.75032 0)
(-19.1577 2.43521 0)
(-19.5161 2.26291 0)
(-19.6962 1.97177 0)
(-19.9114 1.7009 0)
(-20.044 1.37798 0)
(-20.1093 1.06719 0)
(-20.1793 0.801031 0)
(-20.1349 0.496751 0)
(-20.0001 0.182635 0)
(-19.7264 -0.135161 0)
(-19.4522 -0.506017 0)
(-18.9929 -0.904816 0)
(-18.3178 -1.52898 0)
(-17.2952 -2.11715 0)
(-16.1414 -2.65565 0)
(-14.8204 -3.07579 0)
(-13.3402 -3.38581 0)
(-11.7615 -3.60162 0)
(-10.1274 -3.76687 0)
(-8.42626 -3.87305 0)
(-6.64913 -3.85877 0)
(-4.82965 -3.65368 0)
(-3.03696 -3.3111 0)
(-1.31064 -2.96917 0)
(0.347861 -2.67748 0)
(1.97316 -2.45917 0)
(3.57364 -2.21371 0)
(5.15086 -1.97147 0)
(6.70765 -1.70181 0)
(8.16237 -1.47491 0)
(9.41728 -1.579 0)
(10.3003 -1.86316 0)
(10.8548 -2.07217 0)
(11.2709 -2.05116 0)
(11.6779 -1.91032 0)
(12.3031 -1.97929 0)
(13.0913 -1.82568 0)
(13.8883 -1.6146 0)
(14.5715 -1.22771 0)
(15.088 -0.688855 0)
(15.3973 -0.160205 0)
(15.6912 -0.0363798 0)
(15.8209 0.0110389 0)
(15.8368 0.047555 0)
(15.7908 0.0786863 0)
(15.6778 0.0781069 0)
(15.471 0.0422175 0)
(15.1635 0.00763734 0)
(14.7852 0.277289 0)
(14.516 0.927979 0)
(13.9733 1.15939 0)
(13.4613 1.21042 0)
(13.1547 0.969733 0)
(13.0085 0.788932 0)
(13.0056 0.655667 0)
(12.8452 0.386775 0)
(12.377 0.222302 0)
(11.7693 0.21224 0)
(11.1742 0.268862 0)
(10.6788 0.419333 0)
(10.3251 0.624138 0)
(10.0091 0.653979 0)
(9.74525 0.594303 0)
(9.54239 0.472946 0)
(9.38543 0.331091 0)
(9.18198 0.28964 0)
(8.95845 0.277847 0)
(8.75702 0.241214 0)
(8.60434 0.173077 0)
(8.50335 0.0821619 0)
(8.44645 0.0236258 0)
(8.44545 -0.014934 0)
(8.46004 -0.0161723 0)
(8.47583 -0.0407993 0)
(8.47457 -0.0542116 0)
(8.45332 -0.0546808 0)
(8.41901 -0.038423 0)
(8.38747 -0.0393039 0)
(8.37684 -0.0332228 0)
(8.37816 -0.041348 0)
(8.39338 -0.0595759 0)
(8.42072 -0.0833732 0)
(8.45288 -0.113424 0)
(8.49522 -0.133149 0)
(8.54483 -0.132284 0)
(8.59848 -0.124525 0)
(8.65656 -0.116722 0)
(8.71869 -0.113665 0)
(8.78322 -0.116479 0)
(8.84786 -0.125737 0)
(8.91065 -0.141047 0)
(8.96943 -0.164046 0)
(9.02324 -0.192208 0)
(9.07204 -0.220116 0)
(9.12514 -0.231549 0)
(9.17889 -0.202915 0)
(9.22631 -0.144384 0)
(9.27143 -0.0879001 0)
(9.32104 -0.0701501 0)
(9.35778 -0.0763051 0)
(9.38082 -0.0836197 0)
(9.39508 -0.0754235 0)
(9.40933 -0.0695195 0)
(9.41986 -0.0526721 0)
(9.43077 -0.036023 0)
(9.44291 -0.0288365 0)
(9.45365 -0.0393412 0)
(9.46027 -0.0563898 0)
(9.46598 -0.071958 0)
(9.47285 -0.0701044 0)
(9.4792 -0.062374 0)
(9.48427 -0.0533078 0)
(9.48953 -0.0555533 0)
(9.49089 -0.0739714 0)
(9.48564 -0.108543 0)
(9.47808 -0.143009 0)
(9.46684 -0.139081 0)
(9.46087 -0.0805279 0)
(9.45291 -0.0152507 0)
(9.4637 0.0277967 0)
(9.47917 0.0359156 0)
(9.49011 0.0209978 0)
(9.49279 -0.0218362 0)
(9.46722 -0.0401815 0)
(9.43871 -0.0592396 0)
(9.4098 -0.0560594 0)
(9.38737 -0.0371015 0)
(9.37357 -0.0140466 0)
(9.36059 -0.038574 0)
(9.33141 -0.0618302 0)
(9.30263 -0.0852835 0)
(9.26789 -0.0719477 0)
(9.22619 -0.0371124 0)
(9.20681 0.0446382 0)
(9.18881 0.0979126 0)
(9.17377 0.0949345 0)
(9.16677 0.0708312 0)
(9.16438 0.0408756 0)
(9.15851 -0.00111661 0)
(9.15449 -0.0334814 0)
(9.13137 -0.0795685 0)
(9.1135 -0.141375 0)
(9.08857 -0.147829 0)
(9.07725 -0.0766049 0)
(9.08497 0.0106707 0)
(9.11074 0.0419061 0)
(9.14239 0.0258435 0)
(9.1842 -0.0156389 0)
(9.18666 -0.103524 0)
(9.16309 -0.171901 0)
(9.13353 -0.127913 0)
(9.12946 -0.0177731 0)
(9.14401 0.0821075 0)
(9.1779 0.142341 0)
(9.22676 0.137264 0)
(9.27197 0.089342 0)
(9.3295 0.0391773 0)
(9.35512 -0.0368691 0)
(9.34504 -0.108497 0)
(9.32529 -0.11876 0)
(9.32431 -0.0808284 0)
(9.33887 0.0327702 0)
(9.3987 0.0666446 0)
(9.4557 0.0341584 0)
(9.48634 -0.020814 0)
(9.52389 -0.0341404 0)
(9.55154 -0.0543866 0)
(9.59061 -0.0368406 0)
(9.62118 0.030045 0)
(9.68657 0.0609723 0)
(9.73546 0.0129096 0)
(9.78942 -0.0118038 0)
(9.81803 -0.0587891 0)
(9.85294 -0.032006 0)
(9.88418 0.048729 0)
(9.95028 0.0742807 0)
(10.0056 0.0746821 0)
(10.0529 0.0688168 0)
(10.0986 0.104471 0)
(10.1762 0.0992697 0)
(10.254 0.0659902 0)
(10.311 0.00256319 0)
(10.3356 -0.0703548 0)
(10.3595 -0.040213 0)
(10.3834 0.052952 0)
(10.459 0.0891 0)
(10.5263 0.0401701 0)
(10.5569 -0.0340105 0)
(10.5953 -0.0164243 0)
(10.6302 -0.0731003 0)
(10.668 -0.00873614 0)
(10.6959 0.10391 0)
(10.7672 0.107765 0)
(10.8234 0.0525847 0)
(10.889 -0.00710846 0)
(10.907 -0.106136 0)
(10.9178 -0.109742 0)
(10.9229 0.00163463 0)
(10.9449 0.153812 0)
(11.0033 0.173869 0)
(11.0586 0.126749 0)
(11.0923 0.000580129 0)
(11.0736 -0.0772402 0)
(11.0468 -0.0806399 0)
(11.0377 -0.0801223 0)
(11.0304 0.0356524 0)
(11.0387 0.112468 0)
(11.0563 0.0823591 0)
(11.0652 -0.0397056 0)
(11.0333 -0.0666397 0)
(11.0196 -0.104053 0)
(11.0093 -0.0528221 0)
(11.0119 0.0641604 0)
(11.0364 0.134284 0)
(11.0849 0.127476 0)
(11.145 0.0695236 0)
(11.1547 -0.0619445 0)
(11.0738 -0.128243 0)
(11.0001 -0.215196 0)
(10.9818 -0.329044 0)
(10.9748 -0.38684 0)
(10.9772 -0.278326 0)
(10.9863 -0.0774668 0)
(10.9804 0.108667 0)
(11.0132 0.173098 0)
(11.0629 0.131802 0)
(11.1153 0.0175574 0)
(11.08 -0.115823 0)
(11.0046 -0.211635 0)
(10.9257 -0.226552 0)
(10.8705 -0.142997 0)
(10.8604 0.0214455 0)
(10.8752 0.10993 0)
(10.9116 0.0933988 0)
(10.9263 -0.0521255 0)
(10.8835 -0.140524 0)
(10.8383 -0.0915245 0)
(10.8276 -0.00871124 0)
(10.8166 -0.0506379 0)
(10.7985 -0.136999 0)
(10.765 -0.179567 0)
(10.7438 -0.128888 0)
(10.749 0.00178135 0)
(10.7737 0.104088 0)
(10.825 0.0900819 0)
(10.8972 0.00027155 0)
(10.898 -0.180697 0)
(10.8534 -0.234214 0)
(10.8329 -0.140416 0)
(10.837 0.0479886 0)
(10.8879 0.124753 0)
(10.9533 0.107547 0)
(11.043 0.0724145 0)
(11.1736 0.0994913 0)
(11.3524 0.0850098 0)
(11.4441 -0.128492 0)
(11.423 -0.302022 0)
(11.4442 -0.279866 0)
(11.4961 -0.0455511 0)
(11.5961 0.27667 0)
(11.7795 0.24001 0)
(11.9691 0.03842 0)
(12.2472 0.0299086 0)
(12.3868 -0.195953 0)
(12.4337 -0.362139 0)
(12.5496 -0.343586 0)
(12.626 0.129161 0)
(12.865 0.275644 0)
(13.0609 0.0946717 0)
(13.3606 0.0276556 0)
(13.5321 -0.180859 0)
(13.6683 -0.287626 0)
(13.7663 0.0374665 0)
(13.9973 0.275149 0)
(14.2306 0.011295 0)
(14.5914 0.0405863 0)
(14.7769 -0.26754 0)
(14.9067 -0.00934273 0)
(15.132 0.29991 0)
(15.3704 -0.0257901 0)
(15.7773 0.0302612 0)
(16.0037 -0.318298 0)