/*--------------------------------*- C++ -*----------------------------------*\
| =========                 |                                                 |
| \\      /  F ield         | OpenFOAM: The Open Source CFD Toolbox           |
|  \\    /   O peration     | Version:  v1812                                 |
|   \\  /    A nd           | Web:      www.OpenFOAM.com                      |
|    \\/     M anipulation  |                                                 |
\*---------------------------------------------------------------------------*/
FoamFile
{
    version     2.0;
    format      ascii;
    class       volScalarField;
    location    "0.4";
    object      p;
}
// * * * * * * * * * * * * * * * * * * * * * * * * * * * * * * * * * * * * * //

dimensions      [1 -1 -2 0 0 0 0];


internalField   nonuniform List<scalar> 
20400
(
107681
107682
107684
107686
107685
107684
107685
107683
107683
107681
107680
107678
107676
107674
107672
107670
107669
107667
107665
107664
107661
107660
107658
107650
107649
107655
107644
107631
107631
107625
107620
107613
107598
107594
107585
107573
107552
107529
107514
107496
107480
107466
107454
107441
107421
107426
107417
107418
107423
107422
107426
107438
107450
107468
107491
107514
107556
107598
107634
107674
107716
107760
107804
107847
107886
107922
107954
107982
108005
108025
108038
108047
108053
108055
108054
108043
108036
108045
108048
108027
108016
108017
108003
107987
107975
107964
107955
107947
107938
107930
107920
107914
107902
107899
107895
107884
107889
107881
107879
107873
107873
107871
107869
107868
107869
107869
107871
107871
107874
107876
107880
107883
107886
107891
107896
107901
107908
107914
107920
107926
107932
107938
107944
107950
107956
107962
107968
107974
107979
107985
107990
107994
107999
108003
108007
108010
108013
108015
108017
108019
108021
108021
108021
108021
108020
108018
108016
108014
108011
108008
108004
108000
107995
107989
107984
107978
107971
107965
107957
107950
107942
107935
107926
107917
107910
107901
107893
107884
107876
107868
107859
107851
107843
107836
107828
107822
107816
107809
107804
107799
107794
107789
107786
107783
107780
107778
107776
107777
107776
107778
107778
107779
107782
107784
107787
107791
107796
107801
107806
107812
107819
107825
107833
107840
107848
107857
107866
107876
107885
107895
107906
107916
107928
107940
107950
107960
107970
107980
107991
108003
108013
108022
108034
108044
108056
108064
108073
108082
108093
108099
108108
108115
108122
108128
108137
108140
108148
108152
108154
108157
108163
108160
108163
108160
108159
108158
108156
108153
108148
108142
108138
108128
108120
108110
108099
108090
108074
108063
108046
108032
108016
107993
107973
107952
107928
107903
107876
107849
107821
107792
107763
107729
107695
107659
107623
107585
107547
107508
107467
107427
107382
107337
107292
107244
107199
107150
107101
107050
106999
106946
106896
106844
106793
106736
106680
106627
106571
106516
106458
106402
106354
106294
106250
106184
106126
106071
106012
105962
105909
105839
105787
105723
105676
105616
105564
105501
105442
105395
105316
105257
105200
105146
105083
105038
104980
104904
104853
104772
104707
104650
104575
104574
104466
104407
104329
104278
104204
104142
104059
104022
103925
103865
103769
103725
103661
103563
103525
103438
103398
103312
103230
103153
103091
103031
102987
102910
102842
102774
102712
102656
102620
102544
102483
102416
102379
102323
102312
102232
102181
102144
102099
102069
102017
101978
101917
101889
101849
101821
101782
101766
101725
101666
101651
101610
101585
101556
101531
101499
101475
101405
101408
101366
101348
101324
101293
101282
101246
101226
101212
101193
101162
101152
101147
101132
101120
101101
101105
101098
101084
101084
101090
101097
101100
101106
101127
101127
101143
101165
101185
101205
101225
101254
101277
101311
101342
101369
101401
101436
101462
101498
101534
101575
101606
101649
101685
101727
101768
101796
101839
101878
101918
101958
101992
102028
102070
102101
102137
102173
102200
102231
102257
102291
102319
102342
102368
102383
102399
102415
102435
102438
102449
102455
102450
102458
102454
102441
102431
102422
102408
102384
102367
102367
102316
102293
102268
102223
102197
102161
102124
102085
102041
101999
101969
101925
101878
101850
101804
101764
101719
101685
101640
101608
101574
101536
101496
101465
101433
101404
101372
101352
107674
107675
107675
107681
107679
107679
107680
107679
107678
107676
107676
107674
107674
107673
107672
107671
107671
107669
107667
107666
107663
107661
107655
107648
107646
107653
107652
107648
107657
107656
107626
107648
107642
107636
107627
107622
107613
107602
107596
107582
107564
107548
107534
107518
107488
107478
107456
107443
107435
107424
107420
107435
107459
107468
107483
107498
107518
107542
107564
107594
107628
107661
107694
107728
107763
107793
107821
107847
107868
107889
107908
107923
107943
107950
107965
107993
108010
108029
108033
108018
108018
108022
108000
107983
107973
107964
107956
107949
107938
107929
107922
107921
107912
107894
107884
107870
107875
107873
107871
107866
107872
107876
107876
107872
107869
107869
107870
107871
107874
107878
107883
107885
107887
107892
107896
107902
107908
107914
107920
107927
107932
107938
107945
107950
107957
107962
107968
107974
107980
107985
107990
107995
107999
108003
108007
108010
108013
108015
108018
108019
108021
108022
108022
108021
108020
108018
108017
108014
108012
108008
108005
108000
107995
107990
107984
107978
107972
107965
107958
107950
107942
107934
107926
107918
107911
107902
107892
107884
107876
107867
107859
107850
107843
107836
107829
107823
107816
107809
107803
107798
107793
107789
107785
107783
107780
107778
107777
107777
107776
107776
107778
107779
107783
107785
107787
107791
107795
107802
107807
107813
107818
107822
107830
107838
107846
107857
107865
107876
107886
107897
107908
107919
107935
107941
107943
107955
107966
107979
107990
108002
108013
108024
108036
108044
108054
108063
108072
108082
108095
108100
108109
108116
108120
108128
108140
108141
108146
108150
108152
108158
108165
108161
108161
108160
108160
108158
108155
108149
108146
108139
108136
108128
108120
108111
108102
108090
108081
108066
108044
108026
108011
107990
107968
107952
107928
107904
107880
107854
107825
107789
107759
107725
107694
107660
107625
107590
107552
107510
107462
107421
107381
107341
107293
107243
107193
107146
107097
107052
107003
106952
106902
106838
106780
106730
106676
106623
106567
106516
106460
106407
106366
106291
106235
106181
106121
106075
106021
105957
105896
105834
105790
105729
105691
105607
105551
105497
105439
105396
105320
105262
105209
105132
105070
105022
104979
104894
104852
104766
104707
104652
104592
104540
104460
104424
104332
104261
104202
104140
104060
103991
103922
103868
103777
103708
103649
103558
103545
103431
103366
103309
103226
103161
103113
103023
102957
102900
102836
102787
102727
102648
102585
102532
102472
102442
102390
102315
102281
102227
102196
102160
102096
102054
102002
101972
101933
101907
101868
101810
101781
101729
101715
101677
101660
101633
101597
101545
101520
101474
101462
101421
101421
101398
101342
101313
101274
101264
101243
101224
101222
101209
101198
101139
101132
101118
101106
101104
101103
101112
101113
101103
101076
101084
101089
101103
101135
101154
101148
101148
101174
101199
101241
101274
101282
101293
101332
101362
101408
101449
101487
101497
101519
101571
101618
101650
101673
101716
101773
101814
101845
101862
101905
101960
102003
102020
102055
102094
102131
102180
102208
102245
102278
102325
102323
102313
102354
102379
102411
102428
102424
102427
102438
102460
102461
102474
102449
102418
102422
102416
102414
102396
102386
102343
102312
102288
102280
102232
102184
102153
102127
102092
102048
101995
101954
101931
101891
101840
101797
101773
101735
101680
101631
101594
101571
101544
101510
101462
101423
101387
101371
101359
107664
107661
107663
107664
107665
107662
107662
107660
107658
107657
107655
107654
107654
107654
107654
107655
107656
107656
107656
107657
107657
107659
107661
107657
107646
107660
107664
107666
107667
107657
107655
107653
107635
107621
107607
107599
107584
107565
107553
107538
107514
107493
107472
107459
107460
107449
107445
107437
107427
107427
107419
107418
107419
107424
107431
107441
107465
107493
107527
107571
107617
107664
107712
107759
107805
107848
107886
107920
107949
107975
107995
108011
108022
108032
108037
108033
108028
108034
108035
108020
108009
108005
108004
107989
107976
107963
107954
107946
107937
107930
107916
107907
107896
107887
107880
107874
107876
107886
107887
107871
107864
107863
107862
107861
107864
107865
107870
107873
107876
107874
107878
107882
107886
107890
107894
107902
107909
107916
107923
107928
107933
107939
107945
107951
107958
107964
107970
107975
107981
107986
107991
107996
108001
108005
108008
108011
108014
108016
108018
108020
108021
108022
108023
108022
108021
108019
108018
108015
108012
108009
108005
108000
107995
107990
107985
107979
107972
107965
107958
107950
107943
107935
107926
107918
107910
107901
107893
107885
107876
107868
107860
107851
107843
107835
107827
107821
107815
107809
107804
107798
107794
107789
107785
107782
107780
107778
107775
107776
107776
107777
107778
107779
107780
107783
107787
107791
107795
107799
107804
107811
107818
107825
107834
107841
107849
107857
107867
107874
107882
107893
107904
107916
107926
107939
107950
107962
107971
107982
107993
108002
108010
108020
108032
108043
108054
108064
108073
108081
108089
108098
108106
108116
108121
108127
108133
108140
108145
108151
108153
108156
108159
108159
108162
108159
108158
108156
108154
108151
108147
108141
108135
108128
108119
108108
108097
108088
108075
108061
108046
108029
108013
107993
107972
107951
107924
107901
107874
107850
107821
107792
107763
107730
107696
107656
107621
107583
107547
107508
107467
107428
107382
107336
107291
107245
107200
107153
107103
107047
106997
106946
106895
106843
106791
106736
106681
106628
106578
106512
106456
106403
106352
106294
106247
106185
106132
106071
106013
105958
105903
105843
105788
105728
105674
105611
105554
105497
105450
105397
105313
105261
105202
105145
105077
105023
104964
104915
104846
104775
104714
104665
104590
104554
104463
104405
104335
104258
104184
104143
104082
104005
103925
103869
103795
103705
103638
103584
103521
103435
103382
103296
103237
103159
103104
103023
102976
102896
102848
102783
102726
102646
102604
102533
102489
102426
102381
102320
102291
102238
102192
102148
102097
102063
102009
101979
101931
101891
101855
101821
101791
101746
101725
101677
101647
101609
101589
101563
101532
101498
101470
101428
101406
101361
101353
101326
101303
101286
101253
101225
101208
101190
101163
101161
101149
101140
101128
101101
101096
101092
101084
101088
101095
101105
101110
101103
101119
101125
101148
101169
101201
101209
101217
101248
101281
101318
101356
101378
101394
101426
101460
101503
101550
101578
101602
101653
101698
101736
101762
101790
101843
101892
101928
101958
101989
102038
102085
102115
102143
102158
102191
102223
102254
102289
102322
102351
102374
102392
102394
102406
102439
102445
102468
102444
102442
102452
102456
102452
102440
102434
102396
102374
102363
102364
102322
102304
102257
102224
102203
102174
102113
102072
102039
102009
101981
101910
101877
101856
101805
101755
101714
101685
101646
101617
101570
101522
101491
101466
101439
101417
101367
101347
107678
107678
107680
107680
107679
107676
107676
107674
107672
107671
107669
107668
107666
107666
107665
107664
107664
107663
107663
107663
107660
107661
107660
107654
107649
107660
107662
107664
107668
107664
107669
107668
107657
107646
107630
107616
107593
107561
107539
107520
107493
107475
107458
107434
107418
107404
107392
107387
107378
107377
107374
107392
107398
107413
107436
107462
107499
107536
107576
107618
107662
107706
107750
107794
107837
107877
107912
107943
107967
107989
108005
108018
108027
108035
108039
108033
108027
108031
108029
108014
108011
108004
107992
107979
107970
107959
107951
107944
107934
107927
107917
107908
107901
107900
107900
107885
107869
107866
107866
107853
107860
107862
107857
107861
107874
107877
107870
107868
107869
107877
107879
107883
107890
107895
107901
107904
107907
107914
107921
107929
107934
107937
107947
107953
107959
107965
107971
107976
107982
107987
107992
107997
108002
108006
108009
108013
108015
108018
108020
108021
108023
108023
108023
108023
108022
108020
108019
108016
108013
108009
108005
108001
107996
107991
107985
107979
107972
107965
107958
107951
107943
107934
107926
107918
107910
107901
107893
107884
107876
107868
107859
107850
107843
107835
107828
107821
107815
107809
107803
107798
107793
107788
107784
107782
107779
107777
107775
107776
107775
107776
107777
107778
107780
107783
107786
107790
107795
107799
107804
107811
107819
107825
107832
107839
107847
107857
107864
107874
107884
107893
107903
107913
107926
107940
107951
107960
107970
107982
107990
108001
108011
108021
108033
108043
108053
108064
108071
108080
108091
108097
108106
108114
108120
108127
108134
108139
108145
108149
108152
108155
108159
108158
108159
108158
108158
108157
108154
108151
108146
108140
108135
108126
108118
108109
108096
108085
108073
108059
108047
108031
108012
107992
107970
107949
107927
107900
107874
107849
107821
107792
107761
107728
107693
107658
107622
107583
107546
107508
107468
107427
107381
107337
107291
107246
107199
107153
107100
107048
106995
106944
106896
106846
106791
106736
106680
106628
106571
106518
106459
106403
106350
106298
106246
106189
106127
106074
106012
105962
105899
105848
105786
105724
105669
105618
105559
105501
105450
105390
105315
105258
105200
105149
105084
105028
104969
104902
104860
104778
104714
104651
104594
104537
104478
104404
104328
104272
104213
104136
104061
104000
103931
103856
103783
103710
103657
103574
103525
103436
103376
103311
103221
103156
103106
103030
102972
102899
102836
102778
102723
102654
102601
102544
102479
102432
102372
102330
102283
102236
102189
102143
102100
102060
102017
101968
101929
101887
101851
101826
101792
101749
101714
101679
101643
101614
101586
101565
101533
101491
101462
101429
101405
101371
101351
101332
101298
101277
101251
101225
101213
101191
101168
101163
101153
101134
101119
101108
101101
101097
101090
101089
101098
101103
101100
101112
101122
101134
101150
101174
101190
101210
101231
101249
101284
101319
101348
101374
101397
101436
101465
101506
101548
101579
101609
101655
101694
101732
101765
101802
101845
101886
101927
101959
101996
102036
102072
102114
102136
102172
102200
102230
102255
102289
102331
102353
102372
102387
102397
102415
102435
102442
102452
102453
102451
102457
102458
102446
102435
102425
102408
102382
102363
102356
102328
102294
102269
102226
102197
102167
102115
102076
102041
102008
101971
101919
101879
101842
101812
101758
101715
101684
101644
101611
101569
101529
101496
101467
101437
101405
101369
101353
107676
107676
107677
107679
107679
107676
107676
107674
107672
107670
107668
107666
107665
107664
107663
107662
107662
107660
107659
107659
107657
107655
107655
107650
107647
107658
107658
107642
107638
107638
107644
107636
107624
107618
107602
107586
107563
107530
107508
107492
107453
107440
107419
107404
107379
107379
107370
107369
107365
107376
107372
107378
107385
107399
107422
107448
107483
107519
107557
107601
107648
107697
107745
107793
107842
107890
107936
107975
108001
108019
108031
108038
108041
108042
108040
108031
108023
108023
108021
108009
108002
107994
107987
107975
107964
107953
107946
107939
107930
107923
107913
107905
107893
107883
107877
107869
107862
107865
107863
107853
107875
107881
107875
107866
107868
107869
107860
107866
107865
107878
107883
107888
107887
107889
107895
107903
107908
107914
107921
107929
107938
107943
107949
107955
107961
107967
107973
107979
107984
107989
107994
107999
108003
108007
108011
108014
108017
108019
108021
108023
108024
108025
108025
108024
108023
108021
108019
108017
108014
108010
108006
108002
107996
107991
107985
107979
107973
107966
107958
107951
107943
107934
107927
107918
107910
107901
107893
107884
107876
107867
107859
107850
107842
107835
107828
107821
107814
107808
107802
107797
107792
107788
107784
107781
107778
107777
107775
107775
107774
107775
107776
107777
107780
107782
107786
107790
107794
107799
107805
107810
107817
107823
107832
107838
107846
107855
107864
107875
107884
107894
107905
107916
107926
107937
107947
107959
107969
107978
107988
108001
108013
108022
108034
108041
108052
108062
108070
108081
108090
108100
108104
108113
108119
108127
108133
108139
108142
108148
108151
108156
108157
108158
108159
108158
108157
108155
108152
108148
108144
108137
108130
108124
108117
108109
108097
108086
108073
108058
108043
108027
108008
107989
107967
107945
107927
107902
107877
107848
107820
107789
107759
107725
107691
107660
107624
107586
107547
107506
107466
107422
107381
107337
107292
107244
107197
107146
107098
107054
107002
106950
106898
106844
106790
106736
106679
106622
106571
106522
106464
106408
106354
106297
106243
106188
106129
106076
106020
105963
105899
105844
105794
105733
105675
105615
105559
105500
105445
105390
105328
105266
105205
105145
105085
105030
104971
104906
104858
104790
104724
104666
104597
104537
104466
104409
104340
104267
104197
104135
104076
104001
103925
103860
103792
103714
103641
103577
103520
103433
103372
103307
103227
103166
103101
103025
102967
102898
102836
102781
102722
102652
102597
102540
102481
102433
102379
102328
102280
102230
102189
102145
102095
102056
102007
101970
101938
101894
101859
101818
101784
101745
101711
101684
101655
101620
101588
101555
101527
101494
101463
101438
101408
101376
101350
101323
101298
101276
101253
101241
101219
101197
101175
101160
101147
101134
101114
101117
101111
101104
101098
101095
101095
101101
101101
101117
101132
101142
101154
101170
101189
101213
101238
101262
101288
101314
101345
101372
101411
101443
101475
101508
101539
101583
101618
101658
101693
101728
101774
101813
101849
101886
101922
101964
102004
102035
102071
102102
102140
102181
102208
102241
102270
102298
102321
102345
102365
102385
102407
102422
102434
102438
102448
102462
102459
102460
102453
102446
102432
102421
102415
102391
102371
102351
102322
102292
102269
102235
102191
102156
102126
102085
102046
102000
101959
101926
101886
101841
101799
101762
101722
101682
101639
101603
101572
101534
101499
101465
101429
101396
101374
101353
107679
107676
107679
107682
107683
107681
107681
107678
107678
107681
107677
107676
107673
107672
107671
107670
107669
107667
107665
107664
107661
107662
107661
107650
107652
107672
107666
107656
107663
107659
107651
107637
107621
107609
107590
107574
107551
107511
107489
107464
107437
107417
107410
107383
107376
107362
107364
107366
107379
107385
107377
107391
107403
107422
107446
107471
107500
107529
107560
107597
107636
107675
107713
107752
107791
107830
107871
107909
107942
107970
107991
108008
108018
108027
108030
108026
108019
108018
108015
108005
108000
107990
107979
107967
107957
107947
107939
107929
107920
107913
107906
107898
107889
107884
107881
107876
107879
107888
107884
107871
107863
107863
107864
107856
107856
107865
107857
107868
107880
107883
107883
107887
107891
107893
107903
107911
107916
107925
107928
107931
107936
107944
107953
107958
107964
107969
107975
107981
107986
107991
107997
108001
108006
108009
108013
108016
108019
108021
108023
108024
108026
108026
108026
108026
108025
108023
108021
108018
108015
108011
108007
108003
107998
107992
107986
107980
107973
107966
107959
107951
107943
107935
107927
107918
107910
107901
107893
107884
107875
107867
107858
107850
107842
107834
107827
107820
107813
107807
107802
107797
107791
107787
107783
107780
107777
107775
107774
107774
107774
107774
107775
107777
107778
107781
107785
107789
107793
107798
107803
107809
107817
107823
107830
107838
107846
107856
107864
107873
107882
107892
107903
107913
107925
107937
107948
107958
107968
107979
107989
108000
108011
108021
108032
108041
108051
108061
108070
108078
108088
108097
108104
108111
108120
108125
108131
108137
108142
108146
108150
108153
108155
108156
108157
108157
108155
108154
108151
108148
108143
108137
108131
108124
108115
108104
108094
108082
108071
108055
108043
108027
108008
107989
107968
107946
107923
107898
107872
107846
107818
107789
107758
107726
107691
107656
107621
107583
107546
107505
107467
107425
107381
107336
107290
107245
107198
107151
107100
107050
106998
106948
106898
106846
106792
106738
106683
106630
106574
106522
106463
106409
106355
106300
106245
106191
106131
106076
106018
105964
105905
105849
105792
105733
105676
105620
105563
105504
105448
105389
105326
105267
105208
105150
105090
105032
104976
104911
104853
104787
104724
104662
104598
104536
104474
104410
104335
104270
104208
104136
104066
104000
103931
103858
103786
103715
103650
103575
103518
103437
103368
103303
103228
103159
103099
103030
102965
102900
102839
102775
102719
102656
102596
102540
102482
102433
102375
102327
102279
102233
102185
102142
102097
102055
102014
101972
101931
101892
101856
101821
101786
101750
101715
101681
101648
101618
101587
101559
101528
101496
101465
101433
101406
101377
101352
101329
101302
101281
101257
101233
101216
101196
101178
101164
101151
101137
101123
101114
101108
101103
101099
101098
101101
101106
101109
101118
101131
101143
101158
101178
101195
101217
101240
101264
101291
101321
101351
101379
101409
101445
101477
101514
101549
101587
101622
101661
101700
101737
101776
101814
101853
101892
101931
101966
102006
102042
102078
102116
102144
102180
102209
102240
102267
102298
102329
102351
102372
102390
102407
102423
102436
102446
102454
102461
102459
102461
102458
102448
102439
102426
102412
102391
102371
102350
102326
102294
102266
102230
102196
102161
102122
102082
102043
102004
101964
101924
101880
101840
101801
101761
101718
101681
101642
101605
101568
101531
101496
101464
101433
101401
101370
101348
107680
107681
107680
107682
107683
107681
107681
107679
107679
107677
107677
107676
107672
107670
107668
107667
107665
107662
107662
107661
107659
107658
107658
107645
107643
107659
107655
107649
107654
107657
107648
107630
107609
107595
107571
107552
107523
107492
107470
107453
107411
107401
107375
107372
107348
107353
107341
107346
107333
107351
107346
107350
107367
107387
107415
107443
107477
107513
107552
107595
107639
107690
107746
107797
107837
107868
107896
107920
107942
107963
107978
107990
107996
108001
108003
107999
107994
107992
107988
107980
107975
107969
107962
107951
107941
107933
107927
107918
107910
107905
107898
107893
107888
107886
107883
107876
107865
107858
107857
107851
107849
107855
107861
107862
107863
107873
107880
107880
107877
107882
107881
107892
107891
107898
107905
107912
107915
107920
107929
107933
107941
107948
107955
107961
107968
107973
107978
107984
107990
107994
108000
108004
108008
108012
108016
108019
108022
108024
108026
108027
108028
108028
108028
108028
108026
108025
108022
108020
108016
108013
108008
108003
107998
107993
107987
107980
107974
107967
107959
107951
107944
107935
107927
107918
107910
107901
107892
107884
107875
107866
107858
107850
107841
107834
107827
107819
107813
107807
107801
107796
107790
107786
107782
107779
107776
107774
107773
107772
107772
107773
107774
107775
107777
107780
107784
107787
107792
107797
107803
107808
107815
107822
107829
107837
107845
107855
107863
107873
107882
107892
107903
107914
107924
107935
107945
107956
107968
107978
107988
107999
108010
108020
108031
108040
108050
108060
108069
108079
108087
108096
108103
108111
108119
108124
108130
108136
108140
108144
108149
108152
108154
108155
108156
108155
108154
108152
108149
108145
108140
108135
108128
108121
108113
108104
108093
108082
108069
108054
108040
108023
108006
107986
107965
107943
107922
107898
107872
107845
107816
107787
107756
107724
107690
107656
107620
107582
107545
107505
107465
107423
107379
107336
107290
107244
107197
107148
107100
107051
107001
106950
106898
106846
106791
106738
106684
106630
106575
106522
106466
106411
106357
106301
106245
106191
106133
106078
106021
105965
105907
105850
105794
105735
105678
105620
105563
105505
105448
105390
105329
105269
105210
105150
105091
105033
104976
104912
104853
104789
104726
104665
104601
104536
104471
104411
104338
104271
104203
104136
104070
104000
103928
103860
103789
103716
103645
103576
103514
103435
103367
103301
103228
103160
103095
103026
102963
102899
102836
102775
102716
102653
102594
102538
102482
102431
102375
102325
102277
102230
102184
102140
102094
102055
102010
101971
101931
101893
101856
101819
101784
101749
101715
101683
101651
101619
101587
101557
101527
101497
101466
101436
101408
101380
101352
101328
101303
101281
101259
101238
101219
101199
101182
101165
101151
101139
101126
101118
101112
101106
101103
101102
101103
101109
101113
101122
101135
101148
101162
101180
101199
101221
101244
101269
101295
101323
101353
101383
101416
101448
101482
101518
101553
101589
101627
101665
101703
101741
101780
101820
101857
101895
101934
101972
102009
102044
102081
102118
102150
102183
102214
102245
102275
102304
102329
102353
102374
102394
102411
102426
102438
102448
102455
102462
102462
102463
102458
102450
102441
102428
102413
102394
102374
102350
102325
102295
102266
102233
102197
102160
102124
102084
102045
102004
101963
101925
101882
101841
101800
101761
101719
101680
101641
101604
101568
101532
101497
101463
101431
101399
101371
101348
107686
107688
107687
107684
107684
107682
107681
107679
107679
107677
107675
107671
107672
107670
107670
107669
107668
107667
107666
107668
107664
107667
107670
107661
107661
107666
107669
107662
107662
107654
107645
107626
107602
107584
107559
107537
107516
107475
107457
107425
107411
107381
107376
107354
107351
107339
107341
107340
107354
107356
107345
107351
107360
107380
107402
107426
107452
107479
107504
107530
107564
107609
107662
107712
107761
107807
107849
107886
107920
107950
107974
107990
107999
108004
108004
107999
107992
107988
107983
107974
107966
107956
107948
107937
107927
107920
107909
107901
107895
107889
107884
107878
107871
107866
107861
107854
107853
107855
107859
107864
107867
107874
107880
107882
107880
107873
107873
107878
107878
107873
107877
107893
107898
107901
107908
107915
107920
107929
107936
107943
107947
107951
107959
107965
107971
107977
107982
107988
107993
107998
108004
108008
108012
108015
108019
108022
108024
108026
108028
108030
108030
108031
108030
108030
108029
108027
108025
108022
108018
108014
108010
108005
108000
107994
107988
107981
107974
107967
107960
107952
107944
107935
107927
107919
107910
107901
107892
107884
107875
107866
107857
107849
107841
107833
107826
107818
107812
107806
107800
107794
107789
107785
107781
107778
107775
107773
107771
107771
107771
107772
107772
107774
107776
107778
107782
107786
107791
107796
107801
107807
107814
107821
107828
107836
107844
107853
107862
107872
107881
107891
107902
107912
107923
107934
107945
107955
107966
107977
107987
107998
108009
108019
108030
108039
108049
108059
108068
108077
108086
108094
108102
108109
108117
108123
108129
108134
108139
108143
108147
108150
108152
108153
108154
108153
108152
108150
108147
108144
108139
108134
108127
108120
108111
108101
108091
108079
108067
108052
108038
108022
108004
107985
107964
107942
107920
107895
107869
107843
107815
107786
107755
107723
107689
107654
107619
107581
107544
107504
107464
107422
107379
107335
107290
107244
107197
107150
107100
107051
107001
106950
106898
106846
106793
106739
106685
106632
106577
106524
106467
106412
106358
106303
106247
106192
106135
106080
106022
105967
105910
105852
105795
105737
105680
105623
105565
105507
105449
105391
105330
105271
105213
105153
105093
105034
104977
104913
104854
104790
104727
104665
104602
104537
104472
104412
104339
104272
104205
104137
104068
104000
103930
103859
103788
103717
103647
103575
103511
103436
103366
103298
103228
103159
103093
103026
102961
102898
102835
102774
102713
102653
102594
102538
102480
102430
102375
102324
102276
102230
102183
102139
102094
102052
102011
101970
101931
101893
101856
101819
101784
101749
101716
101682
101651
101619
101587
101558
101527
101496
101466
101437
101408
101381
101354
101330
101306
101283
101261
101239
101220
101201
101184
101168
101154
101141
101130
101120
101114
101109
101106
101106
101108
101112
101118
101126
101138
101152
101167
101185
101204
101226
101249
101273
101300
101328
101357
101388
101419
101454
101487
101523
101559
101595
101632
101669
101709
101747
101785
101824
101863
101901
101939
101976
102014
102050
102086
102122
102154
102187
102218
102248
102277
102306
102333
102356
102378
102397
102414
102429
102441
102452
102459
102464
102465
102465
102461
102453
102444
102430
102415
102396
102375
102351
102326
102297
102267
102233
102198
102162
102124
102085
102045
102005
101963
101924
101881
101841
101800
101761
101719
101680
101641
101604
101567
101531
101497
101463
101431
101400
101369
101345
107688
107691
107689
107685
107686
107685
107685
107684
107682
107680
107678
107676
107673
107670
107670
107669
107668
107665
107667
107669
107670
107671
107674
107671
107668
107682
107684
107675
107673
107663
107648
107628
107599
107578
107550
107532
107495
107476
107444
107430
107389
107378
107361
107349
107338
107332
107337
107325
107330
107323
107351
107343
107361
107380
107415
107437
107467
107502
107538
107574
107610
107646
107682
107717
107756
107796
107833
107866
107893
107917
107935
107949
107959
107966
107969
107967
107963
107960
107955
107949
107943
107934
107927
107917
107909
107903
107896
107886
107883
107875
107869
107866
107861
107858
107857
107857
107860
107867
107867
107867
107867
107863
107859
107863
107865
107863
107864
107871
107881
107874
107894
107903
107903
107911
107914
107921
107926
107932
107938
107942
107951
107955
107962
107969
107975
107981
107986
107992
107998
108002
108008
108012
108016
108019
108023
108026
108028
108030
108032
108033
108034
108034
108033
108032
108031
108029
108026
108023
108020
108016
108011
108006
108001
107995
107989
107982
107975
107968
107960
107952
107944
107936
107927