/*--------------------------------*- C++ -*----------------------------------*\
| =========                 |                                                 |
| \\      /  F ield         | OpenFOAM: The Open Source CFD Toolbox           |
|  \\    /   O peration     | Version:  v1812                                 |
|   \\  /    A nd           | Web:      www.OpenFOAM.com                      |
|    \\/     M anipulation  |                                                 |
\*---------------------------------------------------------------------------*/
FoamFile
{
    version     2.0;
    format      ascii;
    class       surfaceScalarField;
    location    "0.4";
    object      phi;
}
// * * * * * * * * * * * * * * * * * * * * * * * * * * * * * * * * * * * * * //

dimensions      [1 0 -1 0 0 0 0];
oriented        oriented;


internalField   nonuniform List<scalar> 
40240
(
-9.52311e-05
6.64154e-05
-5.71272e-05
-6.69925e-05
0.000126376
-0.000212018
0.000575479
-0.000478118
0.00119509
-0.000648568
0.00190031
-0.000733639
0.00267401
-0.000801812
0.00342773
-0.000781585
0.00414189
-0.000741525
0.00478603
-0.000670871
0.00533109
-0.000571179
0.00576033
-0.000454599
0.00610224
-0.000366536
0.00638476
-0.000306272
0.00661655
-0.000254688
0.00682188
-0.000227296
0.00703902
-0.000237988
0.00723633
-0.000216634
0.00739846
-0.000180088
0.00755148
-0.000169325
0.00766043
-0.000122975
0.00773767
-8.88625e-05
0.00775732
-2.85178e-05
0.00767913
7.24728e-05
0.00763944
3.66849e-05
0.0077857
-0.000147085
0.00778027
5.96581e-06
0.00747131
0.000312408
0.00716241
0.000313275
0.00693618
0.000230765
0.00689272
4.63925e-05
0.0066832
0.000210785
0.00641935
0.000264274
0.00636857
5.10737e-05
0.00619478
0.000174499
0.00577875
0.000418435
0.00474991
0.00103163
0.00280156
0.00195135
0.000213467
0.00259307
-0.00275526
0.00297923
-0.0059454
0.00320788
-0.00921573
0.00329238
-0.0125431
0.00335152
-0.016054
0.00353394
-0.0198054
0.00377136
-0.0231368
0.00335692
-0.0262289
0.00312415
-0.0290045
0.00281261
-0.0315223
0.00255155
-0.0339925
0.00250925
-0.0363214
0.00236875
-0.0383676
0.00208792
-0.0401449
0.00182245
-0.0414671
0.00136858
-0.0422715
0.000852033
-0.0425524
0.000328442
-0.0425395
3.82914e-05
-0.0418402
-0.000649351
-0.0405284
-0.00126074
-0.0386163
-0.00186072
-0.036239
-0.00232516
-0.0334494
-0.00273739
-0.0303104
-0.003086
-0.0269285
-0.0033289
-0.0234413
-0.00343433
-0.0199557
-0.00343265
-0.0165031
-0.00339952
-0.013109
-0.00334094
-0.00980119
-0.00325421
-0.00659914
-0.00314853
-0.00357205
-0.00297378
-0.000756294
-0.0027626
0.00185383
-0.0025571
0.00419636
-0.00228935
0.00607635
-0.00182779
0.0075616
-0.00143406
0.00894485
-0.00133237
0.0102311
-0.00123519
0.0106407
-0.000357516
0.0118185
-0.00112439
0.0132208
-0.0013418
0.0142913
-0.00101475
0.0148627
-0.000517048
0.015084
-0.00016969
0.0151211
1.20875e-05
0.0150908
7.85405e-05
0.0151016
3.61761e-05
0.0151491
-2.91808e-06
0.0151461
4.66664e-05
0.0149892
0.000198451
0.0145696
0.000459919
0.0139926
0.000613747
0.013359
0.000665361
0.0128886
0.000501632
0.0124933
0.000426183
0.0123395
0.00017571
0.0119426
0.000417105
0.0112101
0.000751067
0.010537
0.0006872
0.0099303
0.000620101
0.00943803
0.000504544
0.00896853
0.000482502
0.00848544
0.00049563
0.00803719
0.000461849
0.00761693
0.000434201
0.00723248
0.000396363
0.00690729
0.000337113
0.00661613
0.000301673
0.00638609
0.000241254
0.00616968
0.000227091
0.0059881
0.000192563
0.00580612
0.000192499
0.00561263
0.000202551
0.00549089
0.000130103
0.00545187
4.46134e-05
0.00544166
1.58181e-05
0.00545582
-1.06318e-05
0.00550133
-4.30755e-05
0.00554909
-4.66921e-05
0.00560723
-5.87366e-05
0.00567692
-7.19724e-05
0.00573577
-6.24353e-05
0.00577555
-4.51127e-05
0.00580915
-4.04006e-05
0.00586122
-6.04248e-05
0.00592754
-7.65182e-05
0.00602257
-0.000106939
0.00615849
-0.000149612
0.00631539
-0.00017251
0.00647147
-0.000173398
0.00660932
-0.000156828
0.00672586
-0.000137243
0.0068242
-0.00012106
0.00690909
-0.000109899
0.00698517
-0.000103627
0.00705774
-0.00010272
0.00713195
-0.000106818
0.00721092
-0.000113823
0.00729729
-0.000123294
0.00739341
-0.00013529
0.00750024
-0.000147393
0.0075851
-0.000127792
0.00765493
-0.000114994
0.00770283
-9.49512e-05
0.00772072
-6.67956e-05
0.00775772
-8.71044e-05
0.00780274
-9.64746e-05
0.00784369
-9.37886e-05
0.00786746
-7.78676e-05
0.00788354
-7.19353e-05
0.00788625
-6.15836e-05
0.0078749
-4.83587e-05
0.00785722
-4.35093e-05
0.00784528
-5.08468e-05
0.00784034
-5.96348e-05
0.00784042
-6.59872e-05
0.00783556
-6.38101e-05
0.00782006
-5.33775e-05
0.00779728
-4.77141e-05
0.00776983
-4.31543e-05
0.00775403
-5.54291e-05
0.00773872
-5.67251e-05
0.00771361
-4.76535e-05
0.00770145
-6.13375e-05
0.00767251
-4.41836e-05
0.00762825
-2.86929e-05
0.00756753
-1.17453e-05
0.00750054
-4.91507e-06
0.00743366
-4.21961e-06
0.00736813
-4.70323e-06
0.00730477
-5.87692e-06
0.00725622
-1.94308e-05
0.00722394
-3.46203e-05
0.00719663
-3.74869e-05
0.00717779
-4.44543e-05
0.00714895
-3.2683e-05
0.00712096
-3.07788e-05
0.00707583
-1.08332e-05
0.00702967
-6.66368e-06
0.00698712
-6.20946e-06
0.00694093
7.77384e-07
0.00689533
3.92989e-06
0.00683706
2.08376e-05
0.00678933
1.41318e-05
0.00675035
9.60651e-06
0.00672313
1.39225e-06
0.00671366
-8.91522e-06
0.00672111
-2.16628e-05
0.00673402
-2.53222e-05
0.00674954
-2.39115e-05
0.00677581
-3.13425e-05
0.00678924
-1.34804e-05
0.00679773
-1.36628e-06
0.00681282
-4.07817e-06
0.00680799
2.28292e-05
0.00682187
8.82425e-06
0.00686124
-9.98236e-06
0.00689883
-1.79799e-06
0.00693339
7.50277e-06
0.00697408
6.54974e-06
0.00701915
8.48897e-06
0.0070094
6.77142e-05
0.00701226
6.11667e-05
0.00702367
5.7563e-05
0.00704726
5.08784e-05
0.00710744
1.92866e-05
0.00718933
4.17727e-06
0.00729612
-1.54746e-05
0.00742583
-3.32094e-05
0.00757094
-4.30779e-05
0.00773416
-5.57405e-05
0.00790148
-5.59081e-05
0.00804606
-2.74816e-05
0.00821811
-5.11149e-05
0.0082602
8.47635e-05
0.00834393
4.55125e-05
0.00841853
5.73344e-05
0.0085094
4.51173e-05
0.00860476
4.44082e-05
0.0087427
3.7848e-06
0.00888322
3.43734e-06
0.00898937
4.03533e-05
0.00910406
3.35008e-05
0.00922487
2.88692e-05
0.00927864
9.69786e-05
0.00943517
-6.16362e-06
0.00960634
-2.05896e-05
0.00976953
-1.32756e-05
0.00986775
5.0167e-05
0.00998272
3.28758e-05
0.0100797
4.97269e-05
0.0102998
-7.67854e-05
0.010474
-3.41477e-05
0.0106263
-1.63776e-05
0.010712
4.5978e-05
0.0108213
1.98832e-05
0.0108845
6.27478e-05
0.0110396
-3.53474e-05
0.0111968
-4.5044e-05
0.011323
-2.15549e-05
0.011387
3.26322e-05
0.0114659
1.22212e-05
0.0115197
3.20795e-05
0.0116048
-4.19289e-06
0.0116792
2.39985e-06
0.0117435
5.39152e-06
0.0118143
-6.95777e-06
0.0118822
-1.16708e-05
0.0119412
-8.81674e-06
0.011969
1.43107e-05
0.0119938
1.01285e-05
0.0120343
-1.07475e-05
0.0120857
-2.85422e-05
0.0121248
-2.40144e-05
0.0121608
-2.97849e-05
0.0121882
-3.05579e-05
0.0122152
-3.63238e-05
0.0122614
-6.24482e-05
0.0123169
-7.77528e-05
0.0123733
-8.21194e-05
0.0123924
-5.67708e-05
0.0123621
-1.05477e-05
0.012349
-3.56292e-05
0.0123523
-5.40307e-05
0.0122926
2.75876e-06
0.0122469
-1.45956e-05
0.0122349
-5.47206e-05
0.0122099
-4.34302e-05
0.012199
-6.1384e-05
0.0121752
-5.15231e-05
0.0121795
-8.41361e-05
0.0121851
-8.70897e-05
0.0122063
-0.000100332
0.0121962
-6.8279e-05
0.0121948
-7.58728e-05
0.0121859
-6.97719e-05
0.0121803
-6.73527e-05
0.0121855
-7.66675e-05
0.0121967
-7.41361e-05
0.0122089
-7.78516e-05
0.0122105
-5.65529e-05
0.0122052
-4.58964e-05
0.012185
-2.03692e-05
0.0121661
-1.53735e-05
0.0121855
-4.51316e-05
0.01222
-5.01845e-05
0.0122681
-5.23985e-05
0.0123463
-7.00682e-05
0.0123737
-9.187e-06
0.0124011
9.14838e-06
0.0124987
-4.80625e-05
0.0126391
-7.83574e-05
0.012761
-4.74793e-05
0.0128424
1.29572e-05
0.0129
5.23819e-05
0.0129938
3.45557e-05
0.0131556
-1.40768e-05
0.0133821
-6.03645e-05
0.0136291
-5.88345e-05
0.0138818
-4.52765e-05
0.0140586
4.68312e-05
0.0143242
-1.35435e-05
0.0145516
2.32982e-05
0.0149387
-9.32419e-05
0.015257
-1.02484e-05
0.0154894
9.3952e-05
0.0157693
6.80354e-05
0.0162977
-0.000154495
0.0165419
0.000150434
0.0169123
3.77925e-05
0.0172722
6.67236e-05
0.01783
-0.000113948
0.0182382
5.00644e-05
0.0188347
-0.000107387
0.0190677
0.000273824
0.0196379
-4.56917e-05
0.0202405
-6.47823e-05
0.0205689
0.000235715
0.0210712
8.6889e-05
0.0214629
0.000215157
0.0219817
0.000103116
0.0228444
-0.000228282
0.0236304
-0.000134768
0.0241896
0.000111898
0.0252668
-0.000392755
0.025849
0.000115128
0.0261134
0.000444813
0.0265842
0.000259647
0.0272198
0.000123897
0.0279582
2.7622e-05
0.0285279
0.000250684
0.0293345
-0.000111825
0.0301755
-3.89234e-05
0.03049
0.000480949
0.0312781
1.2154e-05
0.0317554
0.00034653
0.0330287
-0.000453876
0.0334054
0.000446686
0.0340983
0.000144106
0.0347299
0.000215462
0.0359126
-0.00034281
0.0363049
0.000446248
0.036905
0.000223847
0.0373474
0.000385809
0.0385257
-0.000397817
0.0390544
0.000289842
0.0394564
0.000422268
0.0403015
-3.52859e-05
0.0408724
0.000217221
0.0422856
-0.000654735
0.042656
0.000354169
0.0426621
0.000704222
0.0429072
0.000448923
0.0437467
-0.000152989
0.0442665
0.000155537
0.0454516
-0.000539616
0.0459422
0.000127025
0.0459919
0.000547527
0.0460596
0.000503643
0.0466714
-6.17025e-05
0.0471038
9.77888e-05
0.0481455
-0.000549487
0.0481392
0.000442044
0.0480428
0.000501764
0.047986
0.000430544
0.0485206
-0.000193865
0.049047
-0.000165163
0.0494099
-5.86958e-05
0.0492816
0.000402084
0.0489186
0.000601315
0.0490741
4.81107e-05
0.0492945
-4.8987e-05
0.049876
-0.000467716
0.0496083
0.000365798
0.0493094
0.000355722
0.0487337
0.000607797
0.0484093
0.000336961
0.0485993
-0.000214615
0.0488272
-0.0002314
0.0489487
-0.000280448
0.0486373
0.000176382
0.0482619
0.000215123
0.0475372
0.000551917
0.0466494
0.000686072
0.0462565
0.000172197
0.0461503
-0.000145255
0.0461596
-0.000282488
0.0460985
-0.000226371
0.0455867
0.000187742
0.0450608
0.000170885
0.0441961
0.00050472
0.0431902
0.000613879
0.0427155
5.07598e-05
0.0423313
-4.61605e-05
0.0421366
-0.000244435
0.0417281
-3.9447e-05
0.0413592
-0.000135874
0.0407063
0.00025324
0.0399484
0.000316672
0.0390569
0.000431529
0.0382413
0.000354986
0.0377178
5.35439e-05
0.0373262
-8.2492e-05
0.0369665
-0.000110957
0.036455
4.30054e-05
0.0359416
5.99819e-05
0.0352536
0.000224234
0.0345024
0.000290748
0.0337402
0.000309797
0.0331047
0.000205759
0.0326497
3.92917e-05
0.0323585
-0.000125186
0.0319295
3.2296e-05
0.03146
8.572e-05
0.0309019
0.000195495
0.0303149
0.000241662
0.0297166
0.000266192
0.0293395
7.1258e-05
0.0290137
1.7142e-05
0.028623
0.000105176
0.0283416
1.42404e-05
0.0278878
0.000194157
0.0273811
0.000262094
0.0270876
7.08883e-05
0.0268448
2.36657e-05
0.0265691
7.83857e-05
0.0263548
3.96604e-05
0.025989
0.000197475
0.0256411
0.000201545
0.0253716
0.000138072
0.0253036
-4.29572e-05
0.0251706
3.73516e-05
0.0250357
5.21444e-05
0.0248156
0.000150385
0.0247215
3.60792e-05
0.0245866
0.000100062
0.0245407
2.69204e-05
0.024443
9.47365e-05
0.024328
0.000125485
0.0243055
5.62574e-05
0.0242882
6.57639e-05
0.0243352
2.64663e-05
0.024328
6.78903e-05
0.0243364
8.70243e-05
0.0243911
4.13746e-05
0.0244721
3.8719e-05
0.0246457
-3.74685e-05
0.0248392
-4.61246e-05
0.0249445
6.30838e-05
0.0249784
0.000145973
0.0249747
0.000196839
0.0250585
0.000134933
0.0254676
-0.000178977
0.0259457
-0.000227228
0.026162
5.1958e-05
0.0264907
-4.77616e-05
0.0268037
-2.42434e-05
0.0271024
1.37728e-05
0.0273752
6.81172e-05
0.0276711
5.89831e-05
0.0281033
-7.04168e-05
0.0285957
-0.000120083
0.0289698
1.05272e-05
0.0292852
9.37363e-05
0.0297016
7.19295e-06
0.0301298
-2.48913e-07
0.0305397
5.04741e-05
0.0310986
-8.33941e-05
0.031776
-0.000207464
0.0322893
-1.73926e-05
0.0327511
3.21989e-05
0.033186
8.46212e-05
0.0337936
-8.92361e-05
0.0344553
-0.000146684
0.0349397
2.94437e-05
0.0354248
3.40809e-05
0.0359643
-3.28426e-05
0.0366955
-0.000222232
0.0373178
-0.000113322
0.0376855
0.000131296
0.0380436
0.000144908
0.0386122
-8.84469e-05
0.0392058
-0.000134485
0.0396618
1.21218e-05
0.0400309
5.46844e-05
0.04059
-0.000147177
0.0410799
-0.000102289
0.0413768
7.41968e-05
0.0416142
0.000101412
0.0419973
-6.34765e-05
0.0423434
-5.78076e-05
0.0426847
-8.34646e-05
0.0430601
-0.000141724
0.0431428
0.000120421
0.0432519
7.15706e-05
0.0434553
-5.67267e-05
0.0436222
-4.97781e-05
0.043816
-0.000111503
0.0439921
-0.000120644
-6.40529e-05
0.000163906
-0.000125764
0.000446766
-0.000378276
0.00089997
-0.000693295
0.00169488
-0.00130221
0.00287674
-0.00185934
0.00425446
-0.00213996
0.00570965
-0.00228538
0.00708924
-0.00218956
0.00831585
-0.00199606
0.00937654
-0.00175895
0.0102903
-0.0015118
0.0110915
-0.00128194
0.0118316
-0.00113207
0.0125387
-0.00103799
0.0132219
-0.000961547
0.0139026
-0.000930787
0.0145992
-0.000956258
0.0152422
-0.000879856
0.0157573
-0.000714083
0.0160936
-0.000522732
0.0162257
-0.000270448
0.0162453
-0.000121598
0.0162007
6.04864e-06
0.0156771
0.000589287
0.0147389
0.000972568
0.0138672
0.000726529
0.0129469
0.00093054
0.0119595
0.00130675
0.0110314
0.0012497
0.0098339
0.00143569
0.00759941
0.00228807
0.00538994
0.00242437
0.00293033
0.00272539
7.94335e-05
0.00290185
-0.00324936
0.00350416
-0.00682948
0.00400247
-0.0106787
0.00488631
-0.014893
0.00617184
-0.0194063
0.00711571
-0.0242523
0.00783864
-0.0293827
0.00835686
-0.0344889
0.00841501
-0.0393488
0.00822061
-0.0439937
0.00818595
-0.0484217
0.00821715
-0.0522363
0.00720436
-0.0556251
0.00653995
-0.0584073
0.00562967
-0.060541
0.00472116
-0.0621219
0.00412596
-0.0629592
0.00324216
-0.063004
0.00217259
-0.0624972
0.00135482
-0.0616273
0.000539872
-0.0604895
-0.000244521
-0.0591075
-0.00101225
-0.0573686
-0.00165762
-0.0551815
-0.0027964
-0.0525233
-0.00387744
-0.0493376
-0.00500133
-0.0456071
-0.00601007
-0.0415258
-0.00677453
-0.0372063
-0.00736132
-0.032693
-0.00779608
-0.0280681
-0.00801212
-0.0234836
-0.0079688
-0.019046
-0.00778811
-0.0148359
-0.00750041
-0.0109154
-0.00712194
-0.0072945
-0.00671516
-0.00399866
-0.00621385
-0.00101008
-0.00569479
0.00170986
-0.0052183
0.00403646
-0.00455757
0.00641523
-0.00414745
0.00967902
-0.00463986
0.0137339
-0.00533034
0.0181347
-0.00557922
0.0223655
-0.00453186
0.0259747
-0.00467429
0.0287982
-0.00409487
0.0308757
-0.00302658
0.0321392
-0.00171269
0.0330468
-0.00101145
0.0337079
-0.000586378
0.0342414
-0.000393172
0.0346637
-0.00032207
0.0348671
-0.000138743
0.0348645
0.000119639
0.0347353
0.00039654
0.0346365
0.000624077
0.0346056
0.00070672
0.0345159
0.000804179
0.0337604
0.0013022
0.0321751
0.00206026
0.0306503
0.00174133
0.0292307
0.00187899
0.0279821
0.00203806
0.0267122
0.0019905
0.0257187
0.0016466
0.025072
0.00117777
0.0245543
0.00102025
0.0239467
0.0011188
0.0231019
0.00131824
0.022018
0.0015345
0.0209885
0.00144179
0.0201365
0.00120542
0.0194483
0.0010031
0.0189489
0.000752285
0.0186256
0.000557937
0.0183315
0.000493535
0.0179453
0.000584943
0.0174829
0.000670548
0.0170832
0.000535824
0.0168142
0.000317619
0.0167102
0.000120911
0.0166954
3.66252e-06
0.0167061
-5.58517e-05
0.0167232
-6.77352e-05
0.0167674
-0.000107551
0.0168403
-0.000150631
0.0168946
-0.000123178
0.0169392
-9.7985e-05
0.0169841
-9.496e-05
0.017031
-0.000118237
0.0171014
-0.000159233
0.0172035
-0.000222944
0.0173549
-0.000316618
0.0175536
-0.000388754
0.0177744
-0.000413608
0.0179839
-0.000387456
0.0181586
-0.000334675
0.0182953
-0.000282357
0.0184079
-0.000249034
0.0185134
-0.000237941
0.0186272
-0.000247745
0.0187622
-0.000275261
0.0189258
-0.000312961
0.0191197
-0.000354729
0.0193432
-0.000398209
0.0195766
-0.000421244
0.019775
-0.000369325
0.0199091
-0.000294237
0.0199681
-0.000201427
0.0200022
-0.000149913
0.0200273
-0.000162255
0.0200574
-0.000177933
0.0201123
-0.000201494
0.0201982
-0.000218194
0.0202983
-0.000228391
0.020369
-0.000190055
0.020412
-0.000151374
0.0204306
-0.000123362
0.0204323
-0.000116181
0.0204378
-0.000129198
0.0204588
-0.000153048
0.0204782
-0.000151016
0.0204918
-0.000135778
0.0204934
-0.000119973
0.0204722
-9.24851e-05
0.0204442
-9.81399e-05
0.0204274
-0.000111848
0.0204295
-0.000122181
0.0204504
-0.000155156
0.0204749
-0.000141458
0.0204799
-0.000106804
0.0204461
-5.06134e-05
0.0203645
4.95265e-06
0.0202741
1.53333e-05
0.0201944
5.02059e-06
0.020128
-8.65326e-06
0.0200741
-3.33666e-05
0.0200587
-8.63466e-05
0.0200627
-0.000105566
0.0200967
-0.000141091
0.0201376
-0.000134925
0.0201387
-9.07193e-05
0.0200864
-1.45076e-05
0.0199862
4.08987e-05
0.0198796
5.11341e-05
0.0198011
3.40246e-05
0.0197671
-3.80515e-06
0.0197609
-9.09125e-06
0.0197631
-2.08662e-05
0.0197848
-4.13751e-05
0.0198345
-7.36164e-05
0.0198933
-8.71363e-05
0.019925
-6.80898e-05
0.0199065
-1.83494e-05
0.0198901
-1.68082e-05
0.0198811
-2.49847e-05
0.0198996
-3.14174e-05
0.019966
-6.21194e-05
0.020047
-7.33307e-05
0.0200935
-5.8049e-06
0.0201242
1.2934e-06
0.0201597
-1.60926e-05
0.0202612
-6.74936e-05
0.0204123
-0.000101982
0.0205077
-4.19399e-05
0.0205136
5.59022e-05
0.0204192
0.000220354
0.0203089
0.000235067
0.020245
0.000190784
0.0202315
0.000139305
0.0202458
8.48192e-05
0.0203091
2.7064e-05
0.0204497
-6.46616e-05
0.0207018
-0.000188233
0.0210648
-0.00030357
0.0215469
-0.00043036
0.0220624
-0.000459642
0.0224331
-0.000281907
0.0224893
1.12597e-05
0.0223384
0.000360484
0.0221421
0.000371352
0.0220829
0.000248361
0.022097
0.000168527
0.0221535
0.000127639
0.0222641
3.5396e-05
0.0225011
-8.91464e-05
0.0227583
-7.01898e-05
0.0229755
-3.52168e-05
0.023111
4.2678e-05
0.0231993
0.000158291
0.0232225
0.000121746
0.0232955
5.74807e-05
0.023461
-2.82189e-05
0.0236674
-8.23951e-06
0.02394
-9.20052e-05
0.0241531
-1.87604e-05
0.0242074
1.26044e-05
0.0243287
-1.51997e-05
0.0245096
-6.22507e-05
0.0246634
2.00565e-05
0.0248466
-3.34913e-05
0.0249803
5.40225e-05
0.0250142
4.905e-05
0.0250782
2.67934e-06
0.025212
-5.01503e-05
0.0253097
3.01271e-05
0.0254325
-1.99549e-05
0.0255399
1.0613e-05
0.0256093
6.99211e-06
0.0256766
1.12473e-05
0.0257446
5.1735e-06
0.0257296
7.02913e-05
0.0256187
0.000156328
0.0254813
0.000178255
0.0254178
0.000119262
0.0254188
4.19802e-05
0.0254073
3.08802e-05
0.0254401
-3.85002e-05
0.0255507
-0.000119384
0.0257773
-0.000247823
0.0261081
-0.000361954
0.0264651
-0.000399946
0.0266225
-0.000235847
0.0265368
-1.90045e-05
0.026192
0.000234603
0.0258677
0.000231467
0.0256645
0.000152511
0.025588
-8.47239e-06
0.0255369
-5.31657e-05
0.0256132
-0.000130257
0.0257753
-0.000236148
0.0259688
-0.000314688
0.0261648
-0.000307904
0.0262084
-0.000179167
0.0260645
1.67849e-05
0.0258231
8.056e-05
0.0256545
1.557e-06
0.0256005
-0.000125536
0.0256723
-0.000218148
0.0259296
-0.000410022
0.0262499
-0.000466444
0.026523
-0.000415022
0.0265528
-0.000181596
0.0263734
3.57834e-05
0.0262094
2.59117e-05
0.0261832
-8.38279e-05
0.0262394
-0.000151674
0.0263271
-0.000149148
0.0263009
-2.42702e-05
0.0261714
5.82203e-05
0.026047
6.01426e-05
0.0260242
-3.31079e-05
0.026237
-0.000273226
0.0267039
-0.000453421
0.0271844
-0.00043568
0.0274054
-0.00022283
0.0272866
9.83367e-05
0.0270468
0.000268988
0.0268585
0.000296313
0.0268264
0.000195474
0.0268689
0.000120753
0.0269208
8.52388e-05
0.0272756
-0.000247325
0.0278953
-0.000489262
0.0286974
-0.000640659
0.0293261
-0.000358538
0.0293757
0.000185375
0.0293961
0.000264087
0.0295833
1.22686e-05
0.029847
3.63429e-05
0.0305048
-0.00023657
0.0310431
-0.000119764
0.031181
7.86398e-05
0.0315684
0.000156154
0.032028
-2.14397e-05
0.0326611
-0.000138171
0.0336628
-0.000674578
0.0344193
-0.000250278
0.0347183
7.95691e-05
0.0350008
0.000498537
0.0351808
0.000298792
0.0358181
-0.000160875
0.036259
0.000363623
0.0372327
-0.000299349
0.0384613
-0.000407487
0.0393956
-0.000224867
0.0397811
2.04741e-05
0.0402058
9.3077e-05
0.0408752
0.000113363
0.0413018
-0.000130442
0.0419196
0.000191199
0.0424585
0.000610008
0.0433102
0.000141121
0.0444547
-0.000267802
0.0459341
-0.000694285
0.0470185
-5.4876e-05
0.0473443
0.000320184
0.0478877
0.000209375
0.0484735
0.000703608
0.0497426
-0.000461946
0.0509764
-8.47208e-05
0.0513572
-1.89414e-05
0.0518015
0.000836626
0.0528923
-0.000108726
0.0538509
0.000104965
0.0546688
-0.00033315
0.0552325
0.000723352
0.0563263
-4.51647e-05
0.0574648
5.16804e-05
0.057918
-5.7429e-05
0.0585184
0.000522137
0.059349
0.000342777
0.0603456
-0.000228271
0.0613143
2.41924e-05
0.061627
-0.000213812
0.0624329
0.000267794
0.0634695
0.000365814
0.0646869
-8.04201e-05
0.0654439
-0.000239802
0.0660711
0.000195581
0.0662484
-6.76402e-05
0.0669074
8.8681e-05
0.0674116
0.000641087
0.0684851
7.52524e-07
0.0691426
-0.000194956
0.0696229
0.000122029
0.0697295
-0.000151643
0.0702136
0.000408481
0.0708052
0.000335955
0.0716797
-8.57858e-05
0.0717506
6.83127e-05
0.0718828
4.12914e-05
0.0721296
1.96352e-05
0.0723807
0.000431735
0.0730663
0.000139204
0.0731682
0.000130621
0.0730087
0.000266838
0.0728424
-0.000180958
0.0731407
0.000164035
0.0736146
-6.40528e-05
0.074321
-6.03489e-05
0.0747929
-0.000151662
0.0742746
0.000260833
0.0735802
0.000413221
0.0732534
-7.28079e-05
0.0729918
0.000317416
0.0729113
0.000133278
0.073035
0.000247994
0.0736315
-0.0001152
0.0737233
-0.000167853
0.0729508
0.000370374
0.0720941
0.000284101
0.0714486
0.000147054
0.0710987
0.000217136
0.0709244
2.4039e-05
0.0711818
-0.000117072
0.0716629
-0.000274739
0.0712422
2.55302e-05
0.0700789
0.000689129
0.0690897
0.000293982
0.0681463
0.000463532
0.0673075
0.000264338
0.0670966
2.33306e-05
0.0671477
-0.000169735
0.0676939
-0.000572816
0.0681194
-0.000541605
0.0674829
0.000205108
0.0661316
0.000799095
0.0648088
0.000739421
0.0636847
0.000696156
0.0631423
0.000141075
0.0630811
-0.000170854
0.0633835
-0.000466787
0.0638689
-0.000618222
0.0639477
-0.000335753
0.0629409
0.000628772
0.0615966
0.00080233
0.0604581
0.00077278
0.0601866
-2.62788e-05
0.0603738
-0.000350619
0.0606427
-0.000365649
0.0605459
1.38627e-05
0.0595415
0.000760292
0.0584854
0.000773873
0.0580961
0.000213755
0.0582216
-0.000368047
0.0584552
-0.000292001
0.0584166
4.49719e-05
0.0575546
0.000712748
0.0566177
0.00074655
0.0561875
0.000321979
0.0562493
-0.000180754
0.0567959
-0.000510937
0.0572005
-0.000346345
0.057023
0.000181857
0.0564438
0.00043059
0.056265
0.000129432
0.0563044
-5.93481e-05
0.0562952
8.63343e-05
0.0559223
0.000352621
0.0556085
0.000379491
0.0557364
-0.000112684
0.0560456
-0.000206652
0.0561484
2.67432e-05
0.0558298
0.000407717
0.0555603
0.0003889
0.0556653
1.41872e-06
0.0558564
-4.39831e-05
0.0557352
0.000296355
0.05516
0.000728194
0.0547111
0.000608395
0.0546323
0.000195443
0.0549234
-0.000186459
0.0555173
-0.000356888
0.0565141
-0.000662097
0.0578946
-0.000978181
0.058951
-0.000697943
0.0589526
4.28777e-05
0.0583742
0.000613459
0.0579983
0.000700865
0.0580028
0.000251374
0.0586832
-0.000400228
0.059414
-0.00040522
0.0594753
0.000326864
0.05939
0.000499526
0.0593611
0.000325564
0.0600441
-0.000421078
0.0611995
-0.000745535
0.0623618
-0.000657313
0.06248
0.000297566
0.0622486
0.000666788
0.0622237
0.000546969
0.0624319
0.00019725
0.063345
-0.000636941
0.0645676
-0.000723416
0.0655896
-0.000497385
0.0658156
0.000376887
0.0658999
0.000349208
0.0661247
0.000157625
0.067171
-0.000499989
0.0679759
-0.000261885
0.0682473
0.000203829
0.0683427
0.000182573
0.0691176
-0.000368469
0.0703217
-0.000567773
0.0710594
-0.000117478
0.0710976
0.00035132
0.0711237
0.000306211
0.0718015
-0.000200624
0.0725615
-0.000279113
0.0727894
4.07868e-05
0.0731458
-7.0343e-05
0.0740732
-0.000479005
0.0749233
-0.000414899
0.0750271
0.000133472
0.0749131
0.000340758
0.0748566
0.000231755
0.0751913
-0.000235014
0.0759764
-0.000450124
0.0766802
-0.000455466
0.0767128
3.96381e-05
0.0765627
0.000212791
0.0764542
8.20635e-05
0.076619
-0.000218518
-0.000181856
0.000583457
-0.000738758
0.00132299
-0.00114754
0.00217485
-0.00157438
0.00321571
-0.00237206
0.00452417
-0.00319824
0.00598365
-0.00362928
0.00746759
-0.00379941
0.00886415
-0.00361643
0.0101068
-0.00326864
0.0111622
-0.00284383
0.012034
-0.00241235
0.0127828
-0.00205877
0.0134815
-0.00185783
0.0141389
-0.00172166
0.0147558
-0.00160382
0.0153577
-0.00155685
0.015938
-0.00155972
0.016416
-0.00137976
0.0167534
-0.00107201
0.0169069
-0.000694675
0.0169425
-0.000322301
0.0169152
-0.000108365
0.0168581
5.29944e-05
0.0165657
0.000874552
0.0156046
0.00193314
0.0144333
0.0019024
0.0133123
0.00205911
0.0121713
0.00245692
0.0108522
0.00257714
0.00907881
0.00321759
0.00672675
0.0046469
0.00343205
0.00572093
-0.0011561
0.00731234
-0.0071052
0.00884974
-0.0138483
0.0102475
-0.0206309
0.0107888
-0.0271564
0.011418
-0.0333737
0.0123968
-0.0390817
0.0128335
-0.0443612
0.0131338
-0.0492864
0.0133088
-0.0535711
0.0127362
-0.0569207
0.0115956
-0.0591549
0.0104193
-0.06016
0.00916448
-0.0612876
0.00829943
-0.0619011
0.00718112
-0.0623632
0.00612598
-0.0629208
0.0053157
-0.0631463
0.00438466
-0.0632476
0.00337973
-0.0631208
0.00207943
-0.0626329
0.000903121
-0.0618454
-0.000212432
-0.0607793
-0.00127415
-0.0594197
-0.00233634
-0.0575364
-0.00350427
-0.0549607
-0.00533296
-0.0515367
-0.00726211
-0.0473768
-0.00912251
-0.0427037
-0.010644
-0.0377504
-0.0116871
-0.0326625
-0.0124069
-0.027474
-0.0129416
-0.0222033
-0.0132394
-0.0169264
-0.0132026
-0.0117227
-0.0129489
-0.00664717
-0.0125324
-0.00171966
-0.0120049
0.00307131
-0.0114606
0.00769276
-0.0107893
0.0121495
-0.0101048
0.0164659
-0.00948743
0.0207298
-0.00877216
0.0248492
-0.00821713
0.0286176
-0.0083593
0.0319853
-0.00864805
0.0349901
-0.00853309
0.0377849
-0.00727272
0.0399952
-0.00682605
0.0417384
-0.0057759
0.0433571
-0.0045763
0.0449788
-0.00326572
0.0463286
-0.00229659
0.0474125
-0.00161024
0.0482921
-0.00121416
0.0490065
-0.000973588
0.0495534
-0.000613429
0.0498734
-0.000116197
0.0498853
0.00047727
0.049572
0.00103238
0.0487656
0.0016057
0.0476135
0.00204272
0.0462088
0.00278716
0.0448278
0.00351018
0.0432431
0.00338602
0.0424212
0.00276382
0.0421822
0.00234197
0.0420378
0.00219941
0.0413969
0.00234417
0.0397952
0.002836
0.0378088
0.00305222
0.0359194
0.00304666
0.0343914
0.0028805
0.0332967
0.00265714
0.0324152
0.00235072
0.0317288
0.00192001
0.0311373
0.00161698
0.0305017
0.00140589
0.0296831
0.00138676
0.0288205
0.00136318
0.0280781
0.00133158
0.0275124
0.00123914
0.0270608
0.00099211
0.0267493
0.000632261
0.0266628
0.000207217
0.026685
-2.30137e-05
0.0267435
-0.00012367
0.0267747
-0.000111199
0.026721
-6.72196e-05
0.0265944
-3.81525e-05
0.0264255
3.1748e-05
0.0263483
-3.53238e-05
0.0263408
-0.000102519
0.0263558
-0.000149267
0.0264231
-0.000243304
0.0265482
-0.000366274
0.0266893
-0.000477665
0.0268251
-0.000546647
0.0269586
-0.000571271
0.0271067
-0.000561559
0.0272795
-0.000535086
0.0274878
-0.000519985
0.027723
-0.000515186
0.0279631
-0.000510936
0.0281887
-0.000508123
0.0283878
-0.000511112
0.0285516
-0.000515195
0.028675
-0.00051801
0.0287722
-0.000536768
0.0288433
-0.000534104
0.0289446
-0.000515208
0.0290539
-0.000450159
0.0291743
-0.000369815
0.0293056
-0.000330462
0.0294375
-0.000344482
0.0295404
-0.000333006
0.0295978
-0.000312083
0.0296283
-0.000303598
0.0296411
-0.000298218
0.029673
-0.000280397
0.0297198
-0.000258186
0.0297877
-0.000252819
0.0298441
-0.00023514
0.0298851
-0.000234574
0.0298918
-0.000225378
0.0298865
-0.000214456
0.0298709
-0.000188876
0.0298601
-0.000179197
0.029859
-0.000161343
0.0298591
-0.00016929
0.0298422
-0.00016655
0.0297965
-0.000148855
0.0297598
-0.000191198
0.0297164
-0.000170766
0.0296684
-0.000131547
0.0296314
-8.5845e-05
0.029607
-4.23489e-05
0.0295996
-4.7888e-05
0.0295932
-5.8415e-05
0.0295978
-8.20693e-05
0.0296018
-0.000104835
0.0295599
-0.000110544
0.0294735
-8.39498e-05
0.0294112
-0.000142331
0.0293313
-0.000116005
0.0292767
-9.46355e-05
0.0292442
-3.65052e-05
0.0292238
9.2047e-06
0.029218
8.27872e-06
0.0292066
-3.1846e-07
0.0291656
-4.52967e-06
0.0291259
-6.57286e-06
0.0291123
-4.07119e-05
0.029116
-7.48782e-05
0.0291101
-9.26032e-05
0.0290924
-8.77722e-05
0.0290838
-7.3824e-05
0.0290977
-4.40069e-05
0.029114
-4.23821e-05
0.0291638
-7.84435e-05
0.0291902
-5.65643e-05
0.0291842
-4.96375e-05
0.0291833
-6.10323e-05
0.0292066
-1.0838e-05
0.0292736
-4.31491e-05
0.0293158
-2.88309e-05
0.0293154
-3.26648e-05
0.0293114
-5.52039e-05
0.0293232
-6.93332e-06
0.0293717
6.11805e-05
0.0294337
0.000217082
0.0294825
0.000249229
0.0295821
0.000160409
0.0297382
5.73948e-05
0.0299343
-3.15897e-05
0.0300791
-3.22457e-05
0.0301112
-6.36787e-06
0.030116
-9.67418e-05
0.0301507
-0.000236681
0.0302104
-0.000382664
0.0303064
-0.000443915
0.0304563
-0.000315167
0.0306135
-2.5377e-05
0.030776
0.00032467
0.0309037
0.000371269
0.0311027
0.000181438
0.0314328
-2.72737e-05
0.0317224
-2.37091e-05
0.0318598
3.86937e-05
0.0318257
8.81164e-05
0.0318125
8.90936e-05
0.0318422
8.26207e-05
0.0319517
8.23868e-05
0.0320979
0.000161405
0.0323194
5.00763e-05
0.0324688
5.72855e-05
0.0325508
3.86422e-05
0.0326463
4.54733e-05
0.0327208
-2.10628e-05
0.0328686
-2.06703e-05
0.0329423
8.22209e-05
0.0330884
-2.1495e-05
0.0332318
-7.10512e-05
0.0333971
-1.26194e-05
0.0334983
-7.39908e-06
0.0336305
4.59278e-05
0.0337504
4.51783e-05
0.0338519
1.16134e-05
0.0338963
8.12526e-06
0.033959
6.55872e-05
0.0340074
2.2377e-05
0.0340591
4.51566e-05
0.0341203
2.5941e-05
0.0341693
3.94435e-05
0.0341894
5.30548e-05
0.0342153
0.00010649
0.0342791
0.000147986
0.0343516
0.000153167
0.0344462
6.685e-05
0.034575
-5.26117e-05
0.0346797
-4.48139e-05
0.0346768
-1.41566e-05
0.0345316
4.14459e-05
0.0344214
-0.000131965
0.0344021
-0.000342492
0.0343918
-0.000401295
0.0343807
-0.000239199
0.0343666
-2.7655e-05
0.0344008
0.00017694
0.0344376
0.00015772
0.0345459
5.20116e-06
0.0347218
-0.000230347
0.0348103
-0.000192409
0.0346543
-3.19232e-05
0.0344394
-8.21601e-05
0.0343674
-0.000309848
0.0342867
-0.000295649
0.0342686
-0.00023335
0.0343459
-0.000135962
0.0344554
-0.000104666
0.0346577
-0.00027713
0.0347155
-0.000261109
0.0345275
-0.000108615
0.0343392
-0.000298392
0.0342981
-0.00050289
0.0342562
-0.000446002
0.0342949
-0.000290876
0.0343617
-9.74857e-05
0.034429
-0.000100551
0.0344422
-0.000149008
0.034415
-0.000174629
0.0343511
-0.000125522
0.0343853
-9.1058e-05
0.034478
-5.67181e-05
0.0347414
-0.000215324
0.0349239
-0.000219668
0.0347892
-0.000129792
0.0346922
-0.000346198
0.0346226
-0.000324691
0.0346184
-0.000168133
0.0346826
9.95379e-05
0.0347291
0.000301653
0.0349338
0.000187707
0.0353053
-6.37086e-05
0.0358717
-0.000315172
0.0362594
-0.000157176
0.0362146
-3.70181e-05
0.0361751
-0.000262306