/*--------------------------------*- C++ -*----------------------------------*\
| =========                 |                                                 |
| \\      /  F ield         | OpenFOAM: The Open Source CFD Toolbox           |
|  \\    /   O peration     | Version:  v1812                                 |
|   \\  /    A nd           | Web:      www.OpenFOAM.com                      |
|    \\/     M anipulation  |                                                 |
\*---------------------------------------------------------------------------*/
FoamFile
{
    version     2.0;
    format      ascii;
    class       volScalarField;
    location    "0.4";
    object      T;
}
// * * * * * * * * * * * * * * * * * * * * * * * * * * * * * * * * * * * * * //

dimensions      [0 0 0 1 0 0 0];


internalField   nonuniform List<scalar> 
20400
(
298.232
298.22
298.198
298.169
298.135
298.102
298.072
298.046
298.025
298.01
298
297.996
297.997
297.999
298.003
298.006
298.006
298.001
297.987
297.96
297.912
297.835
297.717
297.546
297.322
297.048
296.711
296.327
295.923
295.517
295.154
294.877
294.695
294.611
294.604
294.644
294.737
294.884
295.076
295.28
295.482
295.68
295.866
296.039
296.195
296.354
296.495
296.633
296.766
296.888
297.006
297.119
297.226
297.33
297.43
297.523
297.619
297.708
297.775
297.828
297.864
297.884
297.889
297.869
297.832
297.776
297.707
297.623
297.527
297.422
297.305
297.18
297.051
296.911
296.787
296.712
296.692
296.681
296.615
296.55
296.462
296.34
296.181
296.022
295.886
295.777
295.694
295.631
295.589
295.57
295.569
295.591
295.63
295.691
295.768
295.863
295.994
296.141
296.317
296.506
296.704
296.894
297.069
297.228
297.375
297.514
297.648
297.777
297.901
298.011
298.11
298.195
298.269
298.337
298.399
298.455
298.506
298.55
298.588
298.621
298.65
298.677
298.702
298.724
298.742
298.758
298.773
298.787
298.801
298.814
298.826
298.837
298.847
298.856
298.864
298.87
298.874
298.877
298.88
298.883
298.886
298.889
298.891
298.892
298.893
298.891
298.89
298.888
298.887
298.886
298.885
298.882
298.879
298.874
298.869
298.864
298.86
298.857
298.852
298.846
298.839
298.832
298.826
298.821
298.817
298.81
298.804
298.797
298.79
298.784
298.778
298.772
298.765
298.758
298.753
298.75
298.747
298.743
298.739
298.734
298.729
298.726
298.725
298.724
298.722
298.719
298.718
298.72
298.72
298.722
298.722
298.723
298.726
298.73
298.733
298.737
298.74
298.745
298.749
298.755
298.762
298.768
298.775
298.783
298.789
298.796
298.802
298.81
298.817
298.825
298.834
298.844
298.857
298.868
298.876
298.885
298.894
298.902
298.913
298.922
298.93
298.937
298.948
298.958
298.968
298.974
298.981
298.988
298.997
299.004
299.012
299.017
299.022
299.027
299.036
299.041
299.049
299.051
299.052
299.054
299.06
299.06
299.062
299.06
299.059
299.059
299.058
299.056
299.052
299.048
299.046
299.039
299.033
299.024
299.014
299.007
298.996
298.988
298.976
298.964
298.952
298.936
298.921
298.905
298.886
298.865
298.843
298.822
298.802
298.782
298.76
298.734
298.707
298.679
298.65
298.619
298.59
298.561
298.531
298.5
298.463
298.428
298.392
298.357
298.324
298.286
298.246
298.206
298.166
298.125
298.086
298.045
298.004
297.96
297.918
297.878
297.834
297.791
297.744
297.699
297.662
297.615
297.583
297.531
297.485
297.442
297.397
297.358
297.317
297.264
297.222
297.171
297.133
297.086
297.045
296.999
296.955
296.916
296.855
296.807
296.762
296.72
296.673
296.638
296.592
296.533
296.493
296.431
296.38
296.337
296.274
296.272
296.192
296.144
296.086
296.038
295.984
295.937
295.877
295.84
295.767
295.719
295.649
295.607
295.557
295.481
295.456
295.387
295.346
295.281
295.221
295.16
295.112
295.063
295.02
294.963
294.914
294.862
294.815
294.768
294.73
294.674
294.628
294.578
294.549
294.498
294.489
294.428
294.395
294.366
294.328
294.295
294.253
294.227
294.186
294.163
294.127
294.102
294.069
294.054
294.026
293.989
293.976
293.943
293.919
293.893
293.872
293.847
293.834
293.783
293.786
293.751
293.732
293.712
293.686
293.68
293.66
293.647
293.637
293.622
293.595
293.585
293.583
293.574
293.57
293.56
293.564
293.56
293.55
293.549
293.553
293.562
293.57
293.583
293.604
293.604
293.614
293.631
293.652
293.677
293.7
293.724
293.739
293.765
293.794
293.825
293.857
293.887
293.907
293.934
293.966
294.007
294.037
294.071
294.098
294.136
294.176
294.201
294.234
294.264
294.302
294.34
294.368
294.395
294.428
294.459
294.494
294.527
294.551
294.576
294.596
294.621
294.642
294.664
294.693
294.708
294.724
294.736
294.75
294.757
294.77
294.778
294.775
294.781
294.776
294.768
294.764
294.76
294.751
294.731
294.718
294.717
294.679
294.664
294.646
294.608
294.586
294.56
294.532
294.501
294.463
294.43
294.407
294.371
294.332
294.306
294.267
294.233
294.193
294.158
294.116
294.086
294.054
294.017
293.979
293.948
293.922
293.9
293.88
293.848
298.205
298.185
298.148
298.099
298.037
297.976
297.924
297.882
297.85
297.828
297.817
297.817
297.821
297.828
297.838
297.848
297.858
297.865
297.867
297.862
297.844
297.804
297.726
297.596
297.4
297.135
296.797
296.401
295.979
295.543
295.119
294.828
294.686
294.681
294.765
294.913
295.101
295.317
295.554
295.79
296.015
296.233
296.44
296.635
296.815
297.013
297.192
297.371
297.55
297.722
297.899
298.084
298.28
298.466
298.653
298.83
298.997
299.155
299.294
299.421
299.532
299.623
299.692
299.737
299.757
299.754
299.719
299.657
299.571
299.466
299.342
299.204
299.056
298.874
298.726
298.7
298.728
298.748
298.676
298.6
298.475
298.274
297.994
297.716
297.468
297.244
297.032
296.817
296.595
296.386
296.209
296.074
295.963
295.88
295.819
295.774
295.774
295.785
295.82
295.888
296.009
296.169
296.346
296.517
296.666
296.795
296.917
297.046
297.19
297.346
297.5
297.637
297.751
297.849
297.936
298.024
298.111
298.195
298.271
298.337
298.394
298.445
298.493
298.534
298.569
298.598
298.623
298.645
298.668
298.693
298.717
298.74
298.76
298.777
298.792
298.805
298.815
298.823
298.829
298.834
298.839
298.844
298.849
298.853
298.856
298.856
298.854
298.852
298.85
298.849
298.848
298.847
298.845
298.84
298.835
298.829
298.824
298.82
298.816
298.811
298.805
298.798
298.79
298.784
298.78
298.775
298.769
298.763
298.756
298.749
298.743
298.736
298.73
298.723
298.717
298.713
298.71
298.707
298.704
298.7
298.694
298.69
298.687
298.686
298.684
298.683
298.681
298.682
298.683
298.684
298.684
298.684
298.687
298.69
298.695
298.699
298.701
298.705
298.709
298.717
298.724
298.729
298.736
298.743
298.749
298.756
298.761
298.768
298.774
298.78
298.787
298.797
298.814
298.828
298.835
298.845
298.852
298.861
298.869
298.878
298.886
298.894
298.905
298.915
298.924
298.931
298.936
298.942
298.951
298.957
298.968
298.975
298.977
298.98
298.99
298.995
299.004
299.008
299.007
299.009
299.014
299.015
299.017
299.016
299.015
299.015
299.015
299.011
299.009
299.003
299.001
298.994
298.986
298.977
298.966
298.956
298.949
298.945
298.934
298.921
298.907
298.89
298.873
298.858
298.838
298.816
298.794
298.775
298.758
298.735
298.712
298.685
298.657
298.627
298.598
298.568
298.541
298.516
298.485
298.452
298.415
298.378
298.342
298.31
298.274
298.238
298.196
298.156
298.115
298.075
298.041
297.998
297.954
297.912
297.867
297.826
297.779
297.737
297.69
297.645
297.615
297.565
297.526
297.481
297.429
297.389
297.348
297.302
297.255
297.206
297.166
297.115
297.082
297.022
296.984
296.941
296.896
296.857
296.793
296.743
296.705
296.652
296.606
296.568
296.529
296.462
296.424
296.355
296.306
296.262
296.22
296.182
296.122
296.082
296.009
295.955
295.913
295.861
295.797
295.738
295.687
295.639
295.564
295.51
295.465
295.392
295.376
295.287
295.237
295.191
295.125
295.065
295.022
294.954
294.905
294.86
294.811
294.761
294.709
294.649
294.6
294.561
294.511
294.477
294.435
294.378
294.355
294.314
294.279
294.246
294.196
294.164
294.126
294.103
294.064
294.038
294.005
293.963
293.944
293.905
293.892
293.859
293.842
293.815
293.785
293.749
293.735
293.7
293.686
293.651
293.646
293.623
293.58
293.564
293.54
293.528
293.509
293.493
293.487
293.471
293.462
293.422
293.427
293.419
293.408
293.402
293.398
293.402
293.401
293.398
293.385
293.397
293.403
293.412
293.433
293.444
293.447
293.456
293.485
293.503
293.531
293.551
293.565
293.584
293.621
293.644
293.677
293.705
293.735
293.755
293.784
293.826
293.856
293.885
293.913
293.952
293.995
294.022
294.053
294.077
294.117
294.156
294.186
294.207
294.242
294.275
294.302
294.338
294.359
294.388
294.415
294.453
294.466
294.471
294.509
294.524
294.539
294.551
294.559
294.571
294.581
294.592
294.588
294.601
294.589
294.572
294.577
294.568
294.562
294.543
294.538
294.514
294.494
294.471
294.458
294.42
294.387
294.365
294.337
294.303
294.27
294.234
294.203
294.177
294.139
294.098
294.064
294.037
294
293.958
293.919
293.886
293.855
293.817
293.782
293.744
293.713
293.679
293.659
293.61
298.144
298.109
298.039
297.939
297.82
297.702
297.603
297.529
297.481
297.453
297.45
297.458
297.475
297.495
297.517
297.542
297.566
297.588
297.609
297.624
297.623
297.604
297.543
297.423
297.229
296.959
296.61
296.218
295.808
295.391
295.022
294.8
294.763
294.887
295.107
295.376
295.652
295.921
296.192
296.453
296.698
296.933
297.156
297.37
297.593
297.809
298.024
298.232
298.432
298.635
298.828
299.021
299.209
299.394
299.579
299.763
299.952
300.141
300.325
300.508
300.686
300.854
301.008
301.147
301.267
301.365
301.438
301.484
301.505
301.505
301.485
301.448
301.4
301.326
301.241
301.195
301.202
301.213
301.172
301.094
300.967
300.771
300.514
300.235
299.977
299.74
299.503
299.232
298.902
298.52
298.112
297.721
297.356
297.026
296.748
296.533
296.356
296.195
296.033
295.855
295.707
295.655
295.661
295.708
295.79
295.864
295.934
296.019
296.131
296.274
296.448
296.63
296.793
296.926
297.037
297.15
297.275
297.411
297.553
297.688
297.812
297.919
298.011
298.089
298.155
298.211
298.258
298.301
298.344
298.389
298.437
298.485
298.529
298.57
298.606
298.639
298.667
298.692
298.712
298.728
298.741
298.754
298.765
298.775
298.783
298.788
298.792
298.794
298.794
298.793
298.792
298.791
298.789
298.786
298.782
298.778
298.772
298.767
298.762
298.757
298.751
298.745
298.739
298.732
298.727
298.721
298.715
298.71
298.703
298.697
298.691
298.684
298.678
298.672
298.665
298.661
298.656
298.653
298.65
298.647
298.643
298.639
298.636
298.633
298.631
298.63
298.628
298.629
298.629
298.63
298.631
298.631
298.632
298.635
298.638
298.643
298.646
298.65
298.654
298.66
298.667
298.674
298.682
298.688
298.695
298.701
298.708
298.713
298.718
298.724
298.73
298.738
298.748
298.762
298.773
298.785
298.793
298.802
298.81
298.819
298.827
298.835
298.844
298.853
298.862
298.869
298.877
298.883
298.889
298.896
298.902
298.91
298.914
298.919
298.925
298.931
298.936
298.942
298.944
298.947
298.951
298.95
298.952
298.951
298.951
298.95
298.949
298.947
298.945
298.94
298.936
298.93
298.923
298.915
298.905
298.896
298.884
298.875
298.864
298.853
298.842
298.826
298.809
298.793
298.774
298.754
298.732
298.711
298.688
298.666
298.645
298.619
298.594
298.564
298.535
298.504
298.475
298.446
298.415
298.385
298.349
298.314
298.279
298.243
298.207
298.17
298.133
298.09
298.051
298.009
297.97
297.93
297.889
297.846
297.803
297.76
297.722
297.672
297.627
297.581
297.541
297.496
297.458
297.412
297.37
297.324
297.278
297.232
297.189
297.142
297.099
297.05
297.007
296.957
296.912
296.867
296.831
296.79
296.723
296.679
296.632
296.588
296.536
296.494
296.447
296.407
296.353
296.297
296.247
296.205
296.147
296.118
296.045
295.999
295.945
295.882
295.824
295.79
295.742
295.679
295.615
295.57
295.509
295.437
295.383
295.339
295.287
295.221
295.175
295.106
295.057
294.993
294.947
294.883
294.842
294.778
294.739
294.687
294.64
294.577
294.539
294.482
294.444
294.392
294.357
294.307
294.283
294.239
294.2
294.165
294.125
294.094
294.05
294.025
293.985
293.952
293.922
293.892
293.867
293.831
293.814
293.776
293.752
293.721
293.701
293.677
293.652
293.626
293.603
293.571
293.553
293.516
293.503
293.482
293.464
293.45
293.424
293.405
293.391
293.374
293.349
293.346
293.337
293.332
293.322
293.304
293.302
293.298
293.29
293.291
293.297
293.305
293.311
293.309
293.327
293.333
293.348
293.363
293.389
293.398
293.412
293.439
293.464
293.49
293.52
293.542
293.561
293.591
293.618
293.65
293.683
293.71
293.736
293.781
293.814
293.844
293.87
293.898
293.941
293.976
294.006
294.035
294.065
294.105
294.139
294.164
294.191
294.209
294.239
294.264
294.285
294.312
294.34
294.359
294.383
294.401
294.408
294.423
294.445
294.447
294.464
294.451
294.454
294.465
294.465
294.457
294.447
294.443
294.417
294.405
294.396
294.391
294.354
294.342
294.308
294.282
294.259
294.23
294.184
294.155
294.127
294.096
294.068
294.013
293.989
293.966
293.92
293.878
293.845
293.816
293.775
293.744
293.703
293.665
293.637
293.605
293.571
293.543
293.509
293.464
298.055
297.989
297.867
297.697
297.499
297.31
297.157
297.051
296.988
296.963
296.97
296.991
297.021
297.056
297.094
297.135
297.174
297.212
297.248
297.28
297.286
297.267
297.195
297.056
296.852
296.563
296.194
295.801
295.423
295.09
294.878
294.857
295.005
295.278
295.603
295.941
296.255
296.538
296.812
297.065
297.294
297.507
297.7
297.869
298.034
298.193
298.347
298.503
298.648
298.8
298.95
299.112
299.273
299.45
299.642
299.849
300.078
300.323
300.579
300.843
301.105
301.356
301.588
301.798
301.983
302.142
302.278
302.389
302.476
302.546
302.597
302.636
302.666
302.683
302.682
302.678
302.681
302.689
302.672
302.629
302.561
302.453
302.308
302.143
301.977
301.814
301.646
301.449
301.197
300.873
300.469
300.008
299.529
299.071
298.667
298.312
297.994
297.666
297.29
296.849
296.438
296.112
295.866
295.676
295.514
295.373
295.266
295.233
295.24
295.279
295.355
295.468
295.601
295.729
295.854
295.987
296.135
296.299
296.475
296.663
296.852
297.028
297.186
297.315
297.423
297.514
297.592
297.664
297.736
297.812
297.892
297.974
298.055
298.133
298.208
298.279
298.346
298.406
298.46
298.507
298.547
298.582
298.612
298.639
298.662
298.682
298.698
298.711
298.719
298.725
298.727
298.729
298.728
298.727
298.725
298.722
298.717
298.713
298.707
298.702
298.696
298.69
298.684
298.679
298.673
298.667
298.66
298.654
298.649
298.643
298.637
298.631
298.625
298.619
298.614
298.609
298.604
298.599
298.596
298.593
298.59
298.587
298.585
298.582
298.579
298.578
298.576
298.577
298.577
298.578
298.578
298.58
298.581
298.583
298.586
298.589
298.593
298.597
298.601
298.607
298.614
298.619
298.626
298.632
298.639
298.647
298.654
298.661
298.667
298.672
298.678
298.685
298.695
298.706
298.715
298.724
298.733
298.743
298.751
298.761
298.77
298.778
298.787
298.794
298.803
298.811
298.817
298.824
298.832
298.837
298.842
298.848
298.853
298.859
298.865
298.869
298.874
298.878
298.881
298.884
298.889
298.888
298.889
298.888
298.888
298.888
298.886
298.884
298.881
298.877
298.874
298.868
298.861
298.854
298.844
298.834
298.823
298.812
298.803
298.791
298.777
298.762
298.746
298.73
298.714
298.693
298.672
298.651
298.628
298.604
298.58
298.555
298.529
298.502
298.474
298.443
298.413
298.383
298.352
298.32
298.285
298.252
298.217
298.181
298.143
298.106
298.066
298.028
297.988
297.948
297.908
297.868
297.826
297.783
297.739
297.698
297.654
297.612
297.565
297.52
297.477
297.435
297.394
297.349
297.302
297.262
297.214
297.174
297.122
297.082
297.034
296.985
296.942
296.899
296.851
296.804
296.764
296.719
296.661
296.617
296.57
296.526
296.473
296.43
296.382
296.333
296.299
296.235
296.183
296.133
296.086
296.038
295.991
295.932
295.874
295.828
295.778
295.716
295.659
295.61
295.553
295.493
295.434
295.376
295.33
295.264
295.224
295.154
295.105
295.048
294.977
294.925
294.884
294.822
294.772
294.711
294.661
294.615
294.572
294.516
294.47
294.42
294.369
294.331
294.284
294.248
294.206
294.168
294.131
294.095
294.06
294.023
293.985
293.946
293.916
293.884
293.854
293.829
293.798
293.762
293.735
293.708
293.681
293.657
293.633
293.612
293.585
293.55
293.526
293.502
293.483
293.456
293.438
293.419
293.391
293.375
293.355
293.336
293.325
293.306
293.288
293.282
293.272
293.258
293.246
293.24
293.234
293.23
293.226
293.226
293.233
293.236
293.233
293.245
293.256
293.268
293.282
293.301
293.313
293.329
293.349
293.368
293.397
293.425
293.447
293.468
293.49
293.525
293.55
293.582
293.615
293.641
293.67
293.71
293.741
293.771
293.799
293.833
293.871
293.903
293.935
293.963
293.996
294.03
294.059
294.091
294.112
294.143
294.166
294.19
294.212
294.239
294.272
294.291
294.304
294.319
294.331
294.348
294.366
294.366
294.375
294.378
294.379
294.386
294.386
294.376
294.363
294.355
294.344
294.325
294.311
294.304
294.277
294.25
294.23
294.198
294.172
294.143
294.101
294.07
294.041
294.011
293.977
293.933
293.902
293.868
293.84
293.792
293.757
293.729
293.69
293.657
293.619
293.582
293.552
293.524
293.49
293.456
293.427
293.382
297.938
297.83
297.639
297.387
297.108
296.853
296.658
296.531
296.462
296.444
296.458
296.487
296.526
296.572
296.625
296.681
296.73
296.773
296.811
296.838
296.833
296.782
296.654
296.471
296.269
296.012
295.694
295.36
295.062
294.886
294.908
295.076
295.377
295.732
296.086
296.42
296.709
296.949
297.156
297.327
297.459
297.596
297.72
297.841
297.944
298.053
298.147
298.246
298.346
298.46
298.583
298.73
298.909
299.125
299.378
299.667
299.99
300.321
300.682
301.057
301.418
301.751
302.046
302.305
302.53
302.72
302.878
303.003
303.097
303.17
303.228
303.274
303.314
303.347
303.371
303.385
303.398
303.416
303.415
303.4
303.373
303.327
303.265
303.186
303.1
303.008
302.907
302.787
302.635
302.439
302.183
301.866
301.496
301.104
300.717
300.338
299.957
299.57
299.145
298.655
298.154
297.644
297.147
296.67
296.226
295.827
295.493
295.239
295.01
294.828
294.696
294.654
294.658
294.684
294.75
294.857
294.99
295.134
295.283
295.447
295.634
295.833
296.03
296.208
296.361
296.491
296.603
296.704
296.804
296.908
297.018
297.134
297.254
297.376
297.499
297.621
297.741
297.856
297.965
298.064
298.154
298.235
298.307
298.373
298.431
298.483
298.528
298.567
298.598
298.622
298.639
298.652
298.66
298.664
298.666
298.666
298.664
298.661
298.656
298.651
298.646
298.64
298.635
298.628
298.623
298.617
298.611
298.605
298.599
298.593
298.587
298.581
298.576
298.57
298.565
298.56
298.555
298.551
298.548
298.544
298.541
298.539
298.536
298.534
298.532
298.531
298.529
298.53
298.53
298.531
298.532
298.533
298.535
298.537
298.539
298.543
298.546
298.551
298.555
298.56
298.566
298.572
298.579
298.585
298.592
298.599
298.606
298.614
298.619
298.626
298.633
298.641
298.648
298.658
298.666
298.676
298.685
298.692
298.701
298.711
298.72
298.727
298.736
298.743
298.752
298.759
298.766
298.773
298.779
298.786
298.789
298.796
298.801
298.807
298.811
298.815
298.818
298.824
298.826
298.83
298.831
298.832
298.834
298.833
298.832
298.831
298.83
298.827
298.824
298.819
298.815
298.811
298.805
298.797
298.787
298.778
298.767
298.756
298.745
298.734
298.72
298.705
298.689
298.672
298.658
298.636
298.616
298.594
298.571
298.547
298.524
298.498
298.472
298.446
298.416
298.386
298.357
298.325
298.296
298.263
298.23
298.195
298.16
298.122
298.086
298.048
298.01
297.974
297.933
297.893
297.853
297.812
297.77
297.728
297.683
297.639
297.597
297.557
297.51
297.465
297.423
297.379
297.337
297.294
297.248
297.205
297.16
297.116
297.066
297.024
296.982
296.932
296.885
296.839
296.794
296.748
296.706
296.662
296.61
296.561
296.513
296.466
296.419
296.376
296.33
296.279
296.238
296.181
296.128
296.08
296.027
295.981
295.925
295.878
295.822
295.763
295.708
295.658
295.61
295.549
295.489
295.436
295.379
295.315
295.257
295.206
295.158
295.088
295.038
294.985
294.922
294.871
294.816
294.754
294.707
294.651
294.602
294.555
294.506
294.448
294.403
294.358
294.31
294.27
294.223
294.18
294.142
294.103
294.068
294.031
293.988
293.956
293.918
293.889
293.86
293.822
293.792
293.759
293.73
293.699
293.672
293.65
293.624
293.594
293.568
293.541
293.517
293.492
293.467
293.445
293.419
293.392
293.371
293.349
293.329
293.312
293.293
293.282
293.263
293.243
293.226
293.215
293.205
293.195
293.181
293.181
293.175
293.169
293.165
293.164
293.166
293.173
293.174
293.187
293.199
293.207
293.218
293.234
293.252
293.272
293.292
293.311
293.333
293.356
293.384
293.406
293.438
293.464
293.49
293.519
293.548
293.584
293.612
293.645
293.677
293.707
293.745
293.775
293.806
293.838
293.869
293.904
293.935
293.961
293.992
294.019
294.05
294.081
294.102
294.127
294.151
294.176
294.198
294.219
294.236
294.253
294.27
294.281
294.292
294.297
294.305
294.316
294.313
294.314
294.309
294.305
294.294
294.285
294.278
294.257
294.242
294.227
294.204
294.179
294.158
294.128
294.093
294.064
294.038
294.003
293.97
293.932
293.898
293.869
293.833
293.793
293.757
293.725
293.688
293.653
293.615
293.584
293.556
293.518
293.483
293.452
293.42
293.39
293.37
293.318
297.813
297.658
297.393
297.055
296.707
296.407
296.19
296.054
295.987
295.972
295.983
296.013
296.056
296.111
296.173
296.229
296.269
296.298
296.319
296.316
296.268
296.132
295.914
295.702
295.558
295.393
295.184
294.996
294.883
294.914
295.089
295.416
295.789
296.151
296.467
296.729
296.924
297.06
297.188
297.299
297.384
297.453
297.506
297.532
297.563
297.588
297.631
297.687
297.78
297.89
298.039
298.243
298.495
298.802
299.161
299.562
300.01
300.497
300.985
301.453
301.878
302.251
302.57
302.84
303.066
303.25
303.398
303.513
303.6
303.667
303.716
303.751
303.776
303.796
303.808
303.812
303.815
303.82
303.82
303.812
303.799
303.776
303.746
303.709
303.669
303.623
303.568
303.497
303.408
303.297
303.154
302.971
302.744
302.48
302.193
301.893
301.596
301.305
300.99
300.625
300.198
299.689
299.091
298.411
297.72
297.084
296.523
296.066
295.671
295.302
294.955
294.651
294.395
294.209
294.122
294.113
294.127
294.173
294.249
294.352
294.482
294.638
294.81
294.98
295.141
295.287
295.416
295.534
295.647
295.766
295.893
296.03
296.176
296.33
296.491
296.656
296.824
296.992
297.158
297.319
297.472
297.617
297.753
297.88
297.998
298.105
298.203
298.291
298.369
298.434
298.486
298.527
298.558
298.58
298.595
298.604
298.609
298.61
298.609
298.606
298.601
298.596
298.59
298.585
298.579
298.573
298.567
298.561
298.555
298.549
298.543
298.538
298.532
298.527
298.522
298.517
298.513
298.508
298.504
298.501
298.498
298.495
298.494
298.492
298.491
298.489
298.489
298.489
298.489
298.49
298.49
298.492
298.494
298.496
298.499
298.502
298.506
298.51
298.514
298.52
298.526
298.531
298.537
298.544
298.551
298.559
298.566
298.573
298.58
298.587
298.594
298.602
298.61
298.618
298.626
298.634
298.642
298.651
298.659
298.668
298.677
298.685
298.694
298.701
298.708
298.716
298.723
298.729
298.736
298.742
298.746
298.751
298.757
298.761
298.765
298.769
298.773
298.775
298.779
298.781
298.783
298.784
298.785
298.785
298.783
298.782
298.78
298.777
298.773
298.769
298.764
298.76
298.754
298.745
298.737
298.728
298.718
298.705
298.696
298.683
298.669
298.655
298.639
298.622
298.605
298.586
298.566
298.544
298.522
298.498
298.474
298.449
298.423
298.395
298.367
298.337
298.307
298.276
298.246
298.213
298.179
298.145
298.11
298.074
298.037
298
297.961
297.923
297.882
297.843
297.803
297.763
297.72
297.678
297.635
297.594
297.55
297.509
297.462
297.418
297.375
297.331
297.287
297.245
297.199
297.156
297.109
297.067
297.02
296.976
296.931
296.884
296.838
296.793
296.747
296.7
296.656
296.61
296.56
296.513
296.465
296.419
296.37
296.325
296.28
296.229
296.184
296.131
296.08
296.029
295.977
295.927
295.877
295.826
295.766
295.714
295.662
295.605
295.549
295.496
295.44
295.381
295.323
295.265
295.211
295.15
295.103
295.038
294.981
294.928
294.867
294.811
294.761
294.705
294.651
294.597
294.546
294.495
294.449
294.397
294.347
294.301
294.253
294.212
294.165
294.124
294.084
294.047
294.007
293.973
293.935
293.899
293.864
293.83
293.797
293.765
293.734
293.704
293.674
293.644
293.616
293.589
293.564
293.538
293.511
293.486
293.46
293.434
293.409
293.384
293.362
293.337
293.315
293.295
293.273
293.256
293.237
293.219
293.205
293.188
293.172
293.159
293.149
293.138
293.128
293.122
293.118
293.113
293.11
293.109
293.112
293.116
293.12
293.129
293.141
293.153
293.165
293.181
293.196
293.214
293.235
293.256
293.279
293.303
293.328
293.352
293.378
293.41
293.436
293.466
293.496
293.527
293.558
293.59
293.623
293.654
293.687
293.719
293.752
293.784
293.816
293.846
293.879
293.909
293.939
293.97
293.994
294.024
294.047
294.072
294.094
294.118
294.142
294.161
294.179
294.196
294.21
294.223
294.233
294.241
294.247
294.254
294.252
294.254
294.25
294.242
294.234
294.224
294.213
294.196
294.179
294.161
294.14
294.114
294.091
294.061
294.033
294.003
293.97
293.937
293.904
293.87
293.835
293.801
293.764
293.729
293.695
293.66
293.623
293.59
293.555
293.523
293.49
293.457
293.425
293.395
293.366
293.335
293.312
293.264
297.692
297.497
297.156
296.74
296.338
296.015
295.793
295.66
295.595
295.574
295.582
295.611
295.655
295.708
295.758
295.789
295.792
295.789
295.78
295.728
295.594
295.379
295.157
295.028
294.983
294.912
294.836
294.823
294.899
295.064
295.374
295.752
296.109
296.412
296.634
296.792
296.918
297.02
297.096
297.133
297.131
297.129
297.098
297.085
297.067
297.09
297.11
297.18
297.265
297.413
297.593
297.842
298.162
298.555
299.024
299.554
300.109
300.672
301.217
301.726
302.182
302.584
302.932
303.223
303.458
303.644
303.789
303.896
303.974
304.03
304.066
304.088
304.098
304.103
304.102
304.096
304.088
304.081
304.072
304.059
304.048
304.033
304.014
303.99
303.965
303.937
303.905
303.862
303.809
303.745
303.666
303.568
303.442
303.29
303.115
302.92
302.713
302.504
302.28
302.014
301.688
301.291
300.795
300.204
299.574
298.969
298.401
297.856
297.285
296.661
296.002
295.404
294.912
294.544
294.26
294.018
293.815
293.679
293.648
293.652
293.682
293.746
293.84
293.951
294.068
294.183
294.294
294.4
294.505
294.615
294.737
294.871
295.018
295.179
295.352
295.535
295.726
295.923
296.125
296.329
296.533
296.735
296.933
297.127
297.314
297.493
297.662
297.82
297.966
298.096
298.209
298.303
298.38
298.44
298.484
298.517
298.539
298.552
298.56
298.561
298.561
298.558
298.553
298.548
298.542
298.536
298.529
298.523
298.517
298.511
298.506
298.5
298.495
298.489
298.485
298.48
298.475
298.471
298.468
298.464
298.461
298.459
298.457
298.455
298.454
298.453
298.453
298.453
298.453
298.454
298.455
298.457
298.459
298.462
298.465
298.468
298.472
298.476
298.481
298.486
298.491
298.497
298.504
298.51
298.517
298.525
298.532
298.539
298.547
298.554
298.562
298.57
298.578
298.586
298.594
298.602
298.61
298.618
298.626
298.634
298.643
298.651
298.659
298.666
298.674
298.681
298.688
298.694
298.7
298.706
298.711
298.716
298.722
298.725
298.729
298.733
298.736
298.738
298.741
298.743
298.744
298.745
298.745
298.744
298.743
298.741
298.738
298.735
298.731
298.727
298.722
298.716
298.71
298.703
298.694
298.685
298.676
298.664
298.652
298.64
298.626
298.612
298.596
298.579
298.562
298.543
298.523
298.502
298.48
298.457
298.433
298.408
298.381
298.353
298.325
298.295
298.266
298.235
298.204
298.171
298.138
298.104
298.068
298.032
297.995
297.958
297.92
297.882
297.842
297.802
297.762
297.722
297.679
297.637
297.594
297.552
297.509
297.467
297.422
297.378
297.336
297.291
297.247
297.204
297.159
297.115
297.07
297.025
296.98
296.935
296.89
296.843
296.798
296.752
296.706
296.66
296.615
296.568
296.52
296.472
296.425
296.378
296.33
296.284
296.239
296.187
296.139
296.088
296.037
295.988
295.936
295.885
295.833
295.784
295.725
295.671
295.616
295.562
295.508
295.451
295.394
295.338
295.28
295.221
295.163
295.107
295.056
294.992
294.936
294.882
294.822
294.766
294.713
294.656
294.605
294.551
294.5
294.449
294.4
294.348
294.3
294.254
294.207
294.165
294.118
294.077
294.037
293.998
293.96
293.923
293.885
293.852
293.816
293.782
293.75
293.717
293.686
293.656
293.627
293.598
293.57
293.543
293.516
293.489
293.463
293.438
293.413
293.388
293.362
293.337
293.314
293.29
293.267
293.247
293.227
293.209
293.19
293.173
293.157
293.14
293.126
293.113
293.102
293.092
293.082
293.075
293.071
293.066
293.064
293.064
293.065
293.07
293.075
293.083
293.094
293.106
293.118
293.134
293.15
293.169
293.189
293.209
293.232
293.256
293.281
293.306
293.334
293.362
293.39
293.421
293.451
293.481
293.512
293.545
293.576
293.608
293.642
293.674
293.706
293.737
293.77
293.802
293.833
293.862
293.892
293.923
293.949
293.977
294.002
294.027
294.05
294.074
294.095
294.115
294.133
294.148
294.163
294.175
294.185
294.192
294.198
294.203
294.203
294.204
294.2
294.193
294.185
294.174
294.162
294.146
294.129
294.109
294.089
294.063
294.039
294.011
293.981
293.95
293.919
293.886
293.853
293.818
293.783
293.751
293.714
293.679
293.643
293.61
293.574
293.54
293.506
293.474
293.442
293.41
293.379
293.349
293.32
293.291
293.27
293.222
297.582
297.349
296.942
296.46
296.021
295.692
295.478
295.353
295.292
295.27
295.273
295.292
295.324
295.357
295.372
295.356
295.316
295.277
295.227
295.115
294.936
294.767
294.674
294.654
294.681
294.711
294.776
294.864
295.032
295.309
295.663
296.01
296.294
296.503
296.644
296.765
296.847
296.881
296.894
296.865
296.834
296.784
296.755
296.726
296.718
296.714
296.744
296.799
296.904
297.04
297.227
297.492
297.84
298.274
298.782
299.354
299.952
300.549
301.124
301.658
302.143
302.573
302.946
303.261
303.522
303.735
303.907
304.041
304.139
304.207
304.251
304.276
304.288
304.287
304.283
304.272
304.259
304.247
304.234
304.217
304.202
304.184
304.167
304.146
304.126
304.106
304.083
304.056
304.023
303.983
303.935
303.88
303.807
303.72
303.617
303.495
303.361
303.219
303.06
302.874
302.654
302.398
302.089
301.719
301.301
300.847
300.359
299.816
299.176
298.428
297.645
296.924
296.285
295.72
295.196
294.689
294.222
293.84
293.562
293.381
293.285
293.267
293.275
293.3
293.347
293.409
293.476
293.546
293.619
293.7
293.793
293.9
294.024
294.163
294.319
294.488
294.67
294.864
295.068
295.281
295.502
295.731
295.966
296.206
296.448
296.689
296.926
297.157
297.379
297.587
297.777
297.945
298.089
298.209
298.305
298.379
298.434
298.473
298.498
298.513
298.521
298.522
298.521
298.518
298.513
298.507
298.5
298.494
298.488
298.482
298.476
298.47
298.465
298.459
298.455
298.45
298.445
298.441
298.438
298.434
298.431
298.429
298.427
298.425
298.424
298.423
298.423
298.423
298.424
298.425
298.427
298.428
298.43
298.433
298.437