/*--------------------------------*- C++ -*----------------------------------*\
| =========                 |                                                 |
| \\      /  F ield         | OpenFOAM: The Open Source CFD Toolbox           |
|  \\    /   O peration     | Version:  v1812                                 |
|   \\  /    A nd           | Web:      www.OpenFOAM.com                      |
|    \\/     M anipulation  |                                                 |
\*---------------------------------------------------------------------------*/
FoamFile
{
    version     2.0;
    format      ascii;
    class       volVectorField;
    location    "0.4";
    object      U;
}
// * * * * * * * * * * * * * * * * * * * * * * * * * * * * * * * * * * * * * //

dimensions      [0 1 -1 0 0 0 0];


internalField   nonuniform List<vector> 
20400
(
(-0.0293765 0.0206119 0)
(-0.0318012 -0.0206837 0)
(0.00671233 -0.0571037 0)
(0.112214 -0.0584149 0)
(0.282151 -0.0425187 0)
(0.490929 -0.0167773 0)
(0.725649 -0.0060222 0)
(0.969533 -0.0127188 0)
(1.20114 -0.0535969 0)
(1.41628 -0.0912698 0)
(1.60557 -0.109172 0)
(1.76064 -0.107287 0)
(1.88252 -0.0971268 0)
(1.98173 -0.0862226 0)
(2.06341 -0.0736614 0)
(2.13211 -0.0719565 0)
(2.199 -0.0791418 0)
(2.26622 -0.0757213 0)
(2.32192 -0.0673738 0)
(2.37227 -0.0602059 0)
(2.4137 -0.0444625 0)
(2.44527 -0.0311816 0)
(2.46341 0.00189662 0)
(2.44834 0.0337983 0)
(2.42276 0.0288095 0)
(2.43155 -0.0245273 0)
(2.46881 -0.0295451 0)
(2.39704 -0.000674841 0)
(2.27913 -0.0861797 0)
(2.21884 -0.306872 0)
(2.17296 -0.486303 0)
(2.16176 0.0615905 0)
(2.05109 0.082885 0)
(2.00293 0.0169575 0)
(1.97348 0.0556202 0)
(1.88043 0.133963 0)
(1.66983 0.325971 0)
(1.20241 0.611186 0)
(0.476807 0.809909 0)
(-0.404029 0.851235 0)
(-1.37516 0.730928 0)
(-2.39314 0.554774 0)
(-3.43381 0.403783 0)
(-4.51413 0.358249 0)
(-5.67792 0.468272 0)
(-6.80036 0.506452 0)
(-7.81597 0.591049 0)
(-8.74726 0.653006 0)
(-9.5854 0.681491 0)
(-10.3776 0.718313 0)
(-11.1481 0.688927 0)
(-11.8445 0.563494 0)
(-12.4489 0.427136 0)
(-12.9512 0.335723 0)
(-13.2822 0.199585 0)
(-13.4612 0.1382 0)
(-13.5209 0.21916 0)
(-13.3922 0.338139 0)
(-13.0786 0.597174 0)
(-12.5625 0.861436 0)
(-11.8746 1.05842 0)
(-11.0445 1.09317 0)
(-10.1015 0.991753 0)
(-9.06389 0.84932 0)
(-7.97127 0.681723 0)
(-6.86432 0.490445 0)
(-5.7649 0.278341 0)
(-4.68062 0.0652751 0)
(-3.62054 -0.123158 0)
(-2.59037 -0.26705 0)
(-1.60454 -0.349138 0)
(-0.682797 -0.381711 0)
(0.172509 -0.381661 0)
(0.954475 -0.367239 0)
(1.63763 -0.247626 0)
(2.15797 0.0883234 0)
(2.58247 0.428176 0)
(3.03233 0.721904 0)
(3.27923 1.06281 0)
(3.5266 0.828925 0)
(3.96986 0.661838 0)
(4.39314 0.21451 0)
(4.54215 -0.513028 0)
(4.70793 -0.591085 0)
(4.7544 -0.566363 0)
(4.74652 -0.517125 0)
(4.73918 -0.484424 0)
(4.7532 -0.479088 0)
(4.76411 -0.458744 0)
(4.73935 -0.384355 0)
(4.64924 -0.256474 0)
(4.48447 -0.11011 0)
(4.29544 0.0753905 0)
(4.13352 0.222211 0)
(3.99205 0.248672 0)
(3.90144 0.291226 0)
(3.83194 0.106213 0)
(3.65272 -0.122513 0)
(3.43402 -0.291107 0)
(3.21453 -0.298491 0)
(3.04864 -0.193593 0)
(2.90939 -0.074694 0)
(2.75731 0.0156351 0)
(2.61466 0.0942728 0)
(2.47461 0.105066 0)
(2.34864 0.0869524 0)
(2.23758 0.063405 0)
(2.14102 0.0323587 0)
(2.06113 -0.00558807 0)
(1.98916 -0.0153361 0)
(1.92549 0.00553235 0)
(1.87171 0.0312192 0)
(1.81101 0.0423419 0)
(1.7591 0.0275937 0)
(1.73569 0.0107174 0)
(1.72677 0.0176561 0)
(1.7278 0.0171692 0)
(1.73769 0.0101058 0)
(1.75496 0.0111117 0)
(1.76842 -0.0079644 0)
(1.79038 -0.0154442 0)
(1.81089 -0.01454 0)
(1.82762 -0.0134388 0)
(1.83734 -0.00276374 0)
(1.85211 -0.000489243 0)
(1.87084 -0.00645828 0)
(1.89572 -0.0167292 0)
(1.9323 -0.0292406 0)
(1.97927 -0.036614 0)
(2.02916 -0.0373821 0)
(2.07607 -0.0318762 0)
(2.11611 -0.0203117 0)
(2.14992 -0.00932341 0)
(2.17892 -0.00189515 0)
(2.20461 0.000547414 0)
(2.22816 -0.000940207 0)
(2.25144 -0.00303152 0)
(2.27592 -0.00751205 0)
(2.30194 -0.0168011 0)
(2.3305 -0.027311 0)
(2.36287 -0.038512 0)
(2.39391 -0.0465298 0)
(2.42015 -0.0337469 0)
(2.43572 -0.00868957 0)
(2.44657 0.0051801 0)
(2.45548 -0.0061463 0)
(2.46931 -0.0130799 0)
(2.48206 -0.0230874 0)
(2.49278 -0.0283599 0)
(2.49923 -0.0246142 0)
(2.50257 -0.0254077 0)
(2.50309 -0.00840134 0)
(2.49727 -0.001655 0)
(2.49128 -0.00114338 0)
(2.48785 -0.00949625 0)
(2.48966 -0.0209777 0)
(2.48817 -0.027945 0)
(2.48482 -0.0209228 0)
(2.48019 -0.00964687 0)
(2.47126 -0.00628287 0)
(2.46363 -0.00670666 0)
(2.46037 -0.0132829 0)
(2.45238 -0.0176941 0)
(2.44742 -0.0320541 0)
(2.43989 -0.0264404 0)
(2.43092 -0.0103523 0)
(2.41412 0.00463141 0)
(2.3929 0.00836244 0)
(2.37181 0.00755677 0)
(2.35107 0.00481691 0)
(2.33063 0.00424337 0)
(2.31212 0.000838816 0)
(2.2996 -0.00890496 0)
(2.29134 -0.0188938 0)
(2.28344 -0.0317424 0)
(2.27551 -0.0216207 0)
(2.26657 -0.0115046 0)
(2.25817 0.00952921 0)
(2.2406 0.0139181 0)
(2.22746 0.00793484 0)
(2.21297 0.00324042 0)
(2.19941 -0.00613755 0)
(2.18215 -0.00350379 0)
(2.16539 -0.00159222 0)
(2.15177 -0.00340245 0)
(2.1409 -0.00644447 0)
(2.13408 -0.0128832 0)
(2.1349 -0.0147989 0)
(2.13793 -0.00515794 0)
(2.14297 0.000254609 0)
(2.14931 -0.0100379 0)
(2.1569 -0.0118596 0)
(2.15936 -0.0187571 0)
(2.16576 -0.0127153 0)
(2.16477 0.0111228 0)
(2.16349 -0.00217314 0)
(2.17367 -0.0176723 0)
(2.18593 -0.0313098 0)
(2.19973 -0.0271463 0)
(2.21022 -0.0149918 0)
(2.22832 0.0164748 0)
(2.23046 0.0662588 0)
(2.22764 0.0694941 0)
(2.23034 0.0665989 0)
(2.23469 0.0567766 0)
(2.24743 0.0365936 0)
(2.27341 0.00983734 0)
(2.2961 -0.0386135 0)
(2.33761 -0.0629834 0)
(2.381 -0.0749499 0)
(2.43048 -0.0795696 0)
(2.48225 -0.0764467 0)
(2.53693 -0.0802413 0)
(2.5915 -0.00781339 0)
(2.61687 0.118338 0)
(2.63741 0.110331 0)
(2.66207 0.123843 0)
(2.68866 0.109064 0)
(2.72344 0.0800562 0)
(2.74269 -0.0204572 0)
(2.79555 -0.063782 0)
(2.83727 -0.0683902 0)
(2.87559 -0.046409 0)
(2.90645 0.0202177 0)
(2.93623 0.0854028 0)
(2.96902 0.0503751 0)
(3.02528 0.00712949 0)
(3.06795 -0.0604081 0)
(3.11533 -0.0993774 0)
(3.15653 -0.0641426 0)
(3.17593 0.00406938 0)
(3.23321 0.00573125 0)
(3.29839 -0.00611601 0)
(3.34357 -0.0469995 0)
(3.38602 -0.0772938 0)
(3.42508 -0.035796 0)
(3.44203 0.0784658 0)
(3.48365 0.0709219 0)
(3.52731 0.0107177 0)
(3.57012 -0.0562103 0)
(3.60206 -0.106012 0)
(3.61946 -0.0314489 0)
(3.64432 0.0112299 0)
(3.66485 -0.0183003 0)
(3.69285 -0.0281185 0)
(3.72004 -0.00934622 0)
(3.72943 0.0566678 0)
(3.75426 0.0953431 0)
(3.77923 0.0950374 0)
(3.79452 0.110474 0)
(3.7989 0.159507 0)
(3.81535 0.114821 0)
(3.82084 0.0193264 0)
(3.84362 -0.0601577 0)
(3.84718 -0.133317 0)
(3.86222 -0.172238 0)
(3.87518 -0.150885 0)
(3.88366 -0.0615067 0)
(3.8919 0.0778539 0)
(3.91918 0.0947575 0)
(3.93246 0.119078 0)
(3.92923 0.124847 0)
(3.92203 0.160598 0)
(3.92051 0.0887817 0)
(3.92282 -0.0120386 0)
(3.88986 -0.0702055 0)
(3.88931 -0.143872 0)
(3.88018 -0.104596 0)
(3.87912 -0.0173002 0)
(3.87705 0.061638 0)
(3.8683 0.0715828 0)
(3.87452 0.0975106 0)
(3.87955 0.0373458 0)
(3.88501 -0.0481173 0)
(3.87925 -0.0917378 0)
(3.88074 -0.144627 0)
(3.87663 -0.0992485 0)
(3.88082 -0.00897874 0)
(3.88163 0.0702643 0)
(3.88802 0.0738198 0)
(3.89506 -0.00139182 0)
(3.89234 -0.0833845 0)
(3.89163 -0.0306622 0)
(3.88038 0.0375603 0)
(3.8853 0.0901009 0)
(3.90042 0.0842026 0)
(3.90666 0.0194293 0)
(3.92743 -0.0649893 0)
(3.94958 -0.0902087 0)
(3.96045 -0.0860001 0)
(3.98633 -0.0583181 0)
(4.01526 0.0696554 0)
(4.05835 0.175704 0)
(4.10277 0.17132 0)
(4.12397 0.153253 0)
(4.15395 0.0941623 0)
(4.17325 -0.0530577 0)
(4.24958 -0.122915 0)
(4.3324 -0.115362 0)
(4.40843 -0.115109 0)
(4.49045 -0.11965 0)
(4.5266 0.111865 0)
(4.63443 0.208049 0)
(4.7457 0.0800998 0)
(4.8532 -0.0295019 0)
(4.93811 -0.125985 0)
(5.04512 -0.0940088 0)
(5.12564 0.157103 0)
(5.29009 0.271887 0)
(5.39616 0.0389328 0)
(5.48768 -0.230005 0)
(5.65387 -0.22801 0)
(5.83225 -0.253263 0)
(5.97452 0.12912 0)
(6.1171 0.472294 0)
(6.28618 0.398154 0)
(6.44058 0.0204033 0)
(6.59205 -0.479102 0)
(6.73092 -0.363251 0)
(6.90754 -0.316535 0)
(7.01316 -0.0270798 0)
(7.22795 0.382452 0)
(7.52119 0.644636 0)
(7.7329 0.881678 0)
(8.12915 0.661877 0)
(8.22926 -0.588545 0)
(8.42428 -1.03967 0)
(8.56503 -0.981422 0)
(8.74536 -0.844518 0)
(9.0338 -0.433031 0)
(9.03152 0.527441 0)
(9.35183 0.663633 0)
(9.71534 -0.168057 0)
(9.86575 -0.894742 0)
(10.042 -0.0340975 0)
(10.2568 1.07975 0)
(10.6763 0.779877 0)
(10.8373 -0.629079 0)
(11.0264 -0.256299 0)
(11.2113 0.954994 0)
(11.634 0.30691 0)
(11.7982 -1.07684 0)
(12.0285 -0.890036 0)
(12.1166 0.826498 0)
(12.5338 0.697605 0)
(12.5943 -0.855732 0)
(12.8289 -1.04405 0)
(13.0021 0.396932 0)
(13.2866 1.56673 0)
(13.8086 1.0869 0)
(13.9192 -0.900218 0)
(14.0001 -1.28751 0)
(14.0522 -1.0259 0)
(14.1396 0.424495 0)
(14.4534 1.47731 0)
(14.8919 1.27902 0)
(15.0413 -0.418443 0)
(15.1308 -1.48244 0)
(15.1586 -1.05785 0)
(15.1586 0.635054 0)
(15.4385 1.55148 0)
(15.8378 1.03209 0)
(15.9136 -0.907865 0)
(15.8603 -1.32546 0)
(15.8555 -0.406062 0)
(15.7748 1.09246 0)
(16.0721 1.43099 0)
(16.384 0.149321 0)
(16.3039 -1.35479 0)
(16.1765 -0.940681 0)
(16.1394 0.507166 0)
(16.2606 1.47819 0)
(16.492 1.37209 0)
(16.5398 -0.256786 0)
(16.3656 -1.13942 0)
(16.1723 -0.87792 0)
(16.0538 -0.190315 0)
(16.0279 0.652822 0)
(16.1089 1.20251 0)
(16.1998 1.25002 0)
(16.2586 -0.145657 0)
(16.048 -1.33365 0)
(15.8522 -1.14667 0)
(15.5806 -0.694836 0)
(15.3735 0.023087 0)
(15.3311 0.646855 0)
(15.3188 1.00177 0)
(15.295 0.774695 0)
(15.3426 -0.540269 0)
(15.0224 -0.942099 0)
(14.7833 -0.725092 0)
(14.4634 -0.362913 0)
(14.2679 0.27016 0)
(14.1619 0.60033 0)
(14.0369 0.767408 0)
(13.9192 0.240179 0)
(13.83 -0.840202 0)
(13.6352 -0.836585 0)
(13.4112 -0.645368 0)
(13.1534 -0.419263 0)
(12.8071 -0.189136 0)
(12.6743 0.272392 0)
(12.4873 0.362605 0)
(12.325 0.285164 0)
(12.2835 -0.23663 0)
(12.0558 -0.553307 0)
(11.8365 -0.461161 0)
(11.625 -0.332522 0)
(11.3276 -0.264401 0)
(11.1376 0.0192675 0)
(10.9621 0.218579 0)
(10.8149 0.236734 0)
(10.6978 0.0969208 0)
(10.5802 -0.176301 0)
(10.3954 -0.205228 0)
(10.1765 -0.181828 0)
(10.0083 0.107585 0)
(9.83412 0.238263 0)
(9.68968 0.190073 0)
(9.60605 -0.0131721 0)
(9.48388 -0.203469 0)
(9.32795 -0.135861 0)
(9.21019 0.0999321 0)
(9.05751 0.204925 0)
(8.95005 0.15793 0)
(8.88356 0.00770262 0)
(8.80327 -0.144422 0)
(8.69649 -0.12779 0)
(8.55799 -0.0880983 0)
(8.48422 0.0963212 0)
(8.41063 0.140918 0)
(8.3912 0.0216328 0)
(8.33271 -0.0841464 0)
(8.27372 0.0593156 0)
(8.21516 0.145403 0)
(8.15394 0.108474 0)
(8.15837 -0.0767603 0)
(8.12109 -0.0970408 0)
(8.07122 0.0424529 0)
(8.05338 0.163758 0)
(8.0375 0.115123 0)
(8.04678 -0.0317415 0)
(8.05665 -0.031716 0)
(8.04156 0.135011 0)
(8.05977 0.148603 0)
(8.09151 0.101722 0)
(8.0979 -0.0643645 0)
(8.17719 -0.145376 0)
(8.2296 -0.121456 0)
(8.24958 -0.119114 0)
(8.24962 -0.116416 0)
(8.26095 -0.145258 0)
(8.33262 -0.022292 0)
(8.48014 0.103417 0)
(8.61145 0.13512 0)
(8.67897 -0.035979 0)
(8.79038 -0.129284 0)
(8.91489 -0.0970974 0)
(8.98624 0.155022 0)
(9.09855 0.144264 0)
(9.19866 0.039684 0)
(9.34831 -0.109053 0)
(9.49747 -0.14231 0)
(9.63075 -0.124807 0)
(9.7049 0.105634 0)
(9.87138 0.190768 0)
(10.0253 0.14377 0)
(10.1562 -0.0203304 0)
(10.3683 -0.167287 0)
(10.5788 -0.183638 0)
(10.7369 -0.103971 0)
(10.8603 0.210338 0)
(11.0775 0.103409 0)
(11.2579 -0.0416732 0)
(11.4707 -0.126962 0)
(11.6226 0.0169289 0)
(11.7917 0.152124 0)
(12.0292 0.0688722 0)
(12.2221 -0.136145 0)
(12.4305 -0.133276 0)
(12.5117 0.0847342 0)
(12.6814 0.139686 0)
(12.8949 0.142253 0)
(13.0537 -0.046133 0)
(13.2032 -0.0481719 0)
(13.347 0.0749796 0)
(13.5584 0.015396 0)
(13.6621 -0.162085 0)
(13.7883 -0.136171 0)
(13.8399 0.151212 0)
(13.9909 0.23403 0)
(14.1326 0.19831 0)
(14.2219 -0.0613007 0)
(14.3184 -0.207795 0)
(14.3678 -0.151982 0)
(14.3757 0.161756 0)
(14.4656 0.238572 0)
(14.5555 0.197013 0)
(14.5636 -0.0804603 0)
(14.6547 -0.151861 0)
(0.030324 0.00806137 0)
(0.0959682 -0.0399887 0)
(0.220767 -0.114595 0)
(0.397973 -0.288782 0)
(0.723887 -0.391683 0)
(1.13196 -0.430051 0)
(1.58167 -0.439528 0)
(2.03209 -0.393936 0)
(2.44453 -0.332498 0)
(2.80677 -0.271296 0)
(3.11969 -0.213193 0)
(3.39069 -0.159585 0)
(3.6351 -0.123811 0)
(3.86509 -0.10125 0)
(4.08592 -0.0833484 0)
(4.30137 -0.0708595 0)
(4.51987 -0.0722776 0)
(4.73365 -0.0638339 0)
(4.91709 -0.0502502 0)
(5.05304 -0.0490353 0)
(5.12794 -0.035317 0)
(5.15275 -0.0260151 0)
(5.15124 -0.015815 0)
(5.05576 0.0160904 0)
(4.81613 0.00218002 0)
(4.52595 -0.0557589 0)
(4.23579 0.0132094 0)
(3.93632 0.129749 0)
(3.62266 0.155953 0)
(3.28169 0.198197 0)
(2.74205 0.326147 0)
(2.03803 0.408235 0)
(1.30683 0.363371 0)
(0.476868 0.234253 0)
(-0.49954 0.264259 0)
(-1.59148 0.362996 0)
(-2.75697 0.613388 0)
(-4.01829 0.96786 0)
(-5.40229 1.21724 0)
(-6.87933 1.43914 0)
(-8.46059 1.65705 0)
(-10.0901 1.7866 0)
(-11.6739 1.84045 0)
(-13.1819 1.85407 0)
(-14.6484 1.77186 0)
(-15.9524 1.43488 0)
(-17.1059 1.21875 0)
(-18.0981 1.00817 0)
(-18.8858 0.862068 0)
(-19.4906 0.81562 0)
(-19.8897 0.757571 0)
(-20.0496 0.678211 0)
(-19.9775 0.611161 0)
(-19.7685 0.44742 0)
(-19.4572 0.277705 0)
(-19.0703 0.0962968 0)
(-18.5664 -0.0278063 0)
(-17.9586 -0.300385 0)
(-17.1853 -0.572656 0)
(-16.2608 -0.871419 0)
(-15.1547 -1.14803 0)
(-13.9064 -1.40013 0)
(-12.5645 -1.59404 0)
(-11.154 -1.74497 0)
(-9.69197 -1.839 0)
(-8.21951 -1.87586 0)
(-6.77873 -1.88388 0)
(-5.39746 -1.86362 0)
(-4.10031 -1.81206 0)
(-2.89734 -1.73903 0)
(-1.79432 -1.62646 0)
(-0.79778 -1.49728 0)
(0.122525 -1.38894 0)
(0.915135 -1.19647 0)
(1.65964 -1.1067 0)
(2.54503 -1.34131 0)
(3.70132 -1.61203 0)
(5.06662 -1.71472 0)
(6.41183 -1.36799 0)
(7.66253 -1.41866 0)
(8.71417 -1.24983 0)
(9.50285 -0.678116 0)
(9.93102 0.0617892 0)
(10.3 0.291059 0)
(10.5407 0.378571 0)
(10.7261 0.390531 0)
(10.8691 0.35239 0)
(10.9641 0.332841 0)
(10.9909 0.346857 0)
(10.9616 0.377934 0)
(10.9171 0.435353 0)
(10.8823 0.422981 0)
(10.897 0.321923 0)
(10.7636 0.108804 0)
(10.3653 0.0396722 0)
(9.86033 -0.138296 0)
(9.38579 0.1217 0)
(9.0219 0.497174 0)
(8.60421 0.619631 0)
(8.23653 0.613512 0)
(7.98565 0.471681 0)
(7.81869 0.358956 0)
(7.63987 0.290467 0)
(7.42318 0.196631 0)
(7.11397 0.164345 0)
(6.78299 0.15868 0)
(6.49027 0.144442 0)
(6.25139 0.153299 0)
(6.06519 0.153222 0)
(5.93588 0.160061 0)
(5.84653 0.119701 0)
(5.74156 0.0928928 0)
(5.60653 0.0878522 0)
(5.47021 0.0560014 0)
(5.36669 0.0179584 0)
(5.30688 -0.00650279 0)
(5.28901 -0.0241279 0)
(5.2907 -0.0376053 0)
(5.298 -0.0403563 0)
(5.30746 -0.0285117 0)
(5.32835 -0.0294287 0)
(5.34933 -0.024566 0)
(5.36454 -0.0140797 0)
(5.38094 -0.021457 0)
(5.39312 -0.0357257 0)
(5.4134 -0.0400228 0)
(5.44038 -0.0490336 0)
(5.48017 -0.0633666 0)
(5.53649 -0.0701377 0)
(5.60347 -0.0694821 0)
(5.672 -0.0640758 0)
(5.73323 -0.0622714 0)
(5.78269 -0.0621005 0)
(5.82222 -0.0618355 0)
(5.85678 -0.0602882 0)
(5.89156 -0.058573 0)
(5.93107 -0.0592075 0)
(5.9785 -0.0594842 0)
(6.03518 -0.0571752 0)
(6.10106 -0.0550455 0)
(6.17444 -0.0519271 0)
(6.24247 -0.0340536 0)
(6.29574 -0.0375014 0)
(6.32635 -0.0464295 0)
(6.34104 -0.0423183 0)
(6.35047 -0.0443047 0)
(6.3597 -0.0442005 0)
(6.37224 -0.0348996 0)
(6.39423 -0.0212623 0)
(6.42534 -0.0210332 0)
(6.45269 -0.0138065 0)
(6.47068 -0.0204286 0)
(6.48125 -0.0228225 0)
(6.48432 -0.027669 0)
(6.48528 -0.0264146 0)
(6.4899 -0.0209162 0)
(6.49585 -0.0136931 0)
(6.50261 -0.0127207 0)
(6.50558 -0.0186075 0)
(6.50255 -0.0197637 0)
(6.49469 -0.0270626 0)
(6.4861 -0.0221255 0)
(6.48435 -0.013072 0)
(6.48892 -0.00819221 0)
(6.4973 -0.002125 0)
(6.5037 -0.00682691 0)
(6.4992 -0.0107746 0)
(6.48021 -0.0103914 0)
(6.45314 -0.00899033 0)
(6.42677 -0.00705448 0)
(6.40402 -0.00738051 0)
(6.38557 -0.0131579 0)
(6.37357 -0.0139801 0)
(6.37056 -0.00633377 0)
(6.3783 0.00372967 0)
(6.39314 0.000130236 0)
(6.39972 -0.00841771 0)
(6.39152 -0.0142154 0)
(6.36653 -0.0164684 0)
(6.33376 -0.0117226 0)
(6.30422 -0.00326855 0)
(6.28633 0.00726894 0)
(6.28073 0.0146776 0)
(6.27987 0.0095369 0)
(6.28405 0.00839805 0)
(6.2954 0.00655531 0)
(6.31264 0.00719541 0)
(6.3295 0.000474763 0)
(6.33199 -0.0113583 0)
(6.32382 -0.0172006 0)
(6.31772 -0.0103623 0)
(6.31887 0.00199208 0)
(6.33414 0.0169566 0)
(6.35927 0.0089364 0)
(6.37899 0.00488294 0)
(6.39077 0.00610925 0)
(6.4009 0.00858307 0)
(6.42007 0.0264316 0)
(6.46244 0.0290686 0)
(6.50506 0.0190048 0)
(6.52059 -0.00952211 0)
(6.50504 -0.0194344 0)
(6.4694 -0.0257122 0)
(6.44181 -0.0251285 0)
(6.42858 -0.0214855 0)
(6.4281 -0.0201714 0)
(6.44107 -0.00781241 0)
(6.47014 0.0227488 0)
(6.53502 0.0332044 0)
(6.63124 0.0372735 0)
(6.76458 0.0345747 0)
(6.92082 0.0321633 0)
(7.07042 0.0568465 0)
(7.14736 -0.0199564 0)
(7.12822 -0.0526956 0)
(7.05942 -0.0653014 0)
(7.01685 -0.0676001 0)
(7.0087 -0.0565597 0)
(7.02628 -0.0384065 0)
(7.04046 0.014735 0)
(7.10124 0.0499032 0)
(7.17978 0.0751606 0)
(7.262 0.0554328 0)
(7.30791 0.00137145 0)
(7.34889 -0.0113113 0)
(7.36404 -0.0395069 0)
(7.37914 -0.0186949 0)
(7.40894 0.0343714 0)
(7.4747 0.0980463 0)
(7.55228 0.0606688 0)
(7.63231 0.024464 0)
(7.67051 -0.0432563 0)
(7.69705 -0.0160113 0)
(7.74142 0.0214566 0)
(7.80011 0.0784878 0)
(7.85816 0.0347922 0)
(7.89949 -0.0211962 0)
(7.92747 -0.0652955 0)
(7.94281 -0.0330487 0)
(7.96477 0.0256169 0)
(8.01097 0.0858248 0)
(8.03995 0.0280039 0)
(8.07943 0.00642129 0)
(8.10873 0.00889613 0)
(8.1289 0.0188892 0)
(8.15612 0.00974675 0)
(8.16914 -0.0379715 0)
(8.14346 -0.0693951 0)
(8.10104 -0.066161 0)
(8.06628 -0.0648553 0)
(8.05812 -0.0951479 0)
(8.05882 -0.0785148 0)
(8.05662 -0.026957 0)
(8.07982 0.0254123 0)
(8.13565 0.069155 0)
(8.22707 0.0877432 0)
(8.34209 0.0795526 0)
(8.43898 0.0102549 0)
(8.44448 -0.0863858 0)
(8.36662 -0.104029 0)
(8.25992 -0.106671 0)
(8.17848 -0.0850795 0)
(8.1322 -0.122976 0)
(8.10246 -0.082564 0)
(8.11048 0.0100506 0)
(8.15883 0.0358818 0)
(8.21581 0.0642657 0)
(8.28729 0.0462538 0)
(8.33437 -0.014765 0)
(8.31567 -0.0668255 0)
(8.24792 -0.0915568 0)
(8.1815 -0.110982 0)
(8.13864 -0.0770706 0)
(8.14509 -0.00496456 0)
(8.20768 0.0197084 0)
(8.30142 0.0585478 0)
(8.40669 0.0316193 0)
(8.4653 -0.0290321 0)
(8.43844 -0.0853691 0)
(8.36905 -0.0924519 0)
(8.33313 -0.0300522 0)
(8.35449 0.0319723 0)
(8.38925 0.0101388 0)
(8.4051 -0.0310599 0)
(8.37714 -0.0861765 0)
(8.3291 -0.0822962 0)
(8.30274 -0.0446827 0)
(8.33731 0.00649871 0)
(8.45477 0.0557793 0)
(8.61344 0.0634504 0)
(8.74531 0.0186481 0)
(8.76896 -0.0860744 0)
(8.69263 -0.141259 0)
(8.62346 -0.099238 0)
(8.58904 -0.0690769 0)
(8.60171 -0.0429203 0)
(8.60947 0.0166623 0)
(8.68366 0.0424775 0)
(8.84509 0.0395255 0)
(9.0675 0.0477925 0)
(9.31725 0.105471 0)
(9.44855 -0.0669462 0)
(9.43699 -0.121785 0)
(9.48068 -0.0911099 0)
(9.53595 0.00189644 0)
(9.68621 0.117994 0)
(9.92558 0.0955121 0)
(10.0186 -0.159102 0)
(10.1007 -0.0832096 0)
(10.2406 -0.0105235 0)
(10.4044 0.149442 0)
(10.674 0.0633628 0)
(10.9829 0.159717 0)
(11.1466 -0.119865 0)
(11.2521 -0.098283 0)
(11.3275 -0.205366 0)
(11.4666 -0.0458216 0)
(11.64 0.331417 0)
(11.8806 0.208089 0)
(12.243 0.238904 0)
(12.6351 0.0717524 0)
(12.7944 -0.273247 0)
(12.9374 -0.330566 0)
(13.1171 -0.316704 0)
(13.3102 -0.430254 0)
(13.4311 0.27467 0)
(13.6635 0.621376 0)
(13.9187 0.502533 0)
(14.241 0.38373 0)
(14.6647 0.171786 0)
(15.117 -0.0474595 0)
(15.3352 -0.326452 0)
(15.4474 0.0327618 0)
(15.6536 0.561452 0)
(15.9396 0.0205211 0)
(16.397 -0.228584 0)
(16.6592 -0.441978 0)
(16.8133 0.407547 0)
(17.0922 0.152296 0)
(17.3701 -0.275948 0)
(17.7562 -0.251 0)
(17.9394 0.546104 0)
(18.2768 0.38384 0)
(18.5526 -0.116101 0)
(18.8669 -0.38702 0)
(18.9157 0.394501 0)
(19.2471 0.537016 0)
(19.5606 -0.150842 0)
(19.9129 -0.410127 0)
(20.1484 -0.581976 0)
(20.2442 0.41803 0)
(20.6272 0.688262 0)
(21.1056 0.514164 0)
(21.3084 -0.201341 0)
(21.6164 -0.381356 0)
(21.7438 -0.583186 0)
(21.8235 0.16717 0)
(22.0735 0.681584 0)
(22.4481 0.53341 0)
(22.6146 -0.216249 0)
(22.8425 -0.428704 0)
(22.9626 -0.522537 0)
(22.964 0.432191 0)
(23.2431 0.621544 0)
(23.582 0.31028 0)
(23.6498 -0.387395 0)
(23.6965 -0.499038 0)
(23.7649 -0.0742649 0)
(23.8544 0.569023 0)
(24.0774 0.534051 0)
(24.1932 -0.122425 0)
(24.1917 -0.442343 0)
(24.1135 -0.597712 0)
(24.0704 0.222566 0)
(24.2434 0.49468 0)
(24.496 0.516716 0)
(24.7514 0.218309 0)
(24.7368 -0.272789 0)
(24.4928 -0.421803 0)
(24.3061 -0.521948 0)
(24.2204 0.102973 0)
(24.1516 0.498541 0)
(24.1774 0.578693 0)
(24.3507 0.517266 0)
(24.5123 0.085771 0)
(24.3646 -0.255288 0)
(24.0747 -0.42141 0)
(23.7571 -0.370111 0)
(23.6847 0.227732 0)
(23.5341 0.384828 0)
(23.5631 0.455137 0)
(23.7613 0.41353 0)
(23.8018 -0.0623396 0)
(23.4883 -0.212219 0)
(23.1042 -0.37187 0)
(22.786 -0.124853 0)
(22.5353 0.221717 0)
(22.326 0.397337 0)
(22.3021 0.370362 0)
(22.4147 0.347577 0)
(22.6164 0.266937 0)
(22.5866 -0.0774356 0)
(22.223 -0.172491 0)
(21.7672 -0.169701 0)
(21.3773 0.0827731 0)
(21.104 0.24193 0)
(20.9993 0.272703 0)
(21.0356 0.273085 0)
(21.1878 0.276116 0)
(21.3069 0.114524 0)
(21.1343 -0.0781466 0)
(20.7191 -0.163866 0)
(20.3061 -0.040369 0)
(20.0506 0.106041 0)
(20.0366 0.184327 0)
(20.1523 0.223267 0)
(20.2048 0.0905281 0)
(20.0099 -0.0854188 0)
(19.6168 -0.0867958 0)
(19.3656 0.0445644 0)
(19.32 0.119624 0)
(19.4118 0.178747 0)
(19.4638 0.0902437 0)
(19.2989 -0.0800343 0)
(18.958 -0.0738921 0)
(18.7226 0.0207655 0)
(18.6596 0.0966526 0)
(18.7552 0.171996 0)
(18.9567 0.174161 0)
(19.0058 0.0247224 0)
(18.8354 -0.107785 0)
(18.6636 0.000770027 0)
(18.6655 0.0823967 0)
(18.6892 0.0461636 0)
(18.6133 -0.0683172 0)
(18.4575 -0.0197961 0)
(18.423 0.0558825 0)
(18.5154 0.118271 0)
(18.6079 0.0515749 0)
(18.5572 -0.0743354 0)
(18.411 -0.0428295 0)
(18.3827 0.031464 0)
(18.4586 0.0655977 0)
(18.4755 -0.0310441 0)
(18.3345 -0.0747972 0)
(18.1519 -0.0426024 0)
(18.0598 0.00390844 0)
(18.0898 0.0619244 0)
(18.2402 0.103065 0)
(18.4927 0.149311 0)
(18.8722 0.179916 0)
(19.3358 0.180095 0)
(19.5121 -0.0674045 0)
(19.3859 -0.198482 0)
(19.1787 -0.0587426 0)
(19.123 -0.0126568 0)
(19.2308 0.0660309 0)
(19.5001 0.0707869 0)
(19.6194 -0.0519918 0)
(19.6055 -0.0525153 0)
(19.5764 -0.0717319 0)
(19.6886 -0.000577958 0)
(19.985 0.0838139 0)
(20.3755 0.119394 0)
(20.6101 -0.045506 0)
(20.5591 -0.116006 0)
(20.5147 -0.0517532 0)
(20.5491 -0.0408966 0)
(20.7358 -0.0152602 0)
(21.0905 0.0907782 0)
(21.4765 0.0848567 0)
(21.6891 -0.0794531 0)
(21.7388 -0.0859416 0)
(21.7741 -0.059088 0)
(21.9814 0.0812778 0)
(22.3417 0.0229563 0)
(22.5038 -0.0919221 0)
(22.5649 -0.141048 0)
(22.6977 0.00509402 0)
(23.0493 0.119388 0)
(23.3994 0.0466111 0)
(23.5339 -0.0963614 0)
(23.5207 -0.138775 0)
(23.6228 0.0324818 0)
(23.9186 0.0636936 0)
(24.0764 -0.109118 0)
(24.1678 -0.061772 0)
(24.3637 0.105555 0)
(24.7143 0.116778 0)
(24.8841 -0.0864662 0)
(24.8741 -0.120067 0)
(24.8343 -0.132457 0)
(24.8704 -0.0446412 0)
(25.0643 0.141209 0)
(25.362 0.107048 0)
(25.4885 -0.0828042 0)
(25.4621 -0.119387 0)
(25.4047 -0.1483 0)
(25.3929 -0.0255312 0)
(25.5032 0.0369554 0)
(0.0723388 -0.14195 0)
(0.302404 -0.229295 0)
(0.563862 -0.329242 0)
(0.848519 -0.539004 0)
(1.21541 -0.755974 0)
(1.66257 -0.867962 0)
(2.13084 -0.919161 0)
(2.59027 -0.877171 0)
(3.00796 -0.794125 0)
(3.37175 -0.692321 0)
(3.67603 -0.589364 0)
(3.92967 -0.500281 0)
(4.16031 -0.444692 0)
(4.37646 -0.408644 0)
(4.57862 -0.378666 0)
(4.77171 -0.366296 0)
(4.96124 -0.372228 0)
(5.13243 -0.336272 0)
(5.26321 -0.266347 0)
(5.3483 -0.186114 0)
(5.36876 -0.0942572 0)
(5.37376 -0.0416426 0)
(5.34301 0.00925255 0)
(5.33781 0.22103 0)
(5.11266 0.443713 0)
(4.74277 0.422727 0)
(4.37658 0.51215 0)
(4.02467 0.655055 0)
(3.61748 0.701323 0)
(3.12386 0.895417 0)
(2.50352 1.28348 0)
(1.59196 1.52488 0)
(0.372827 1.8384 0)
(-1.29426 2.01735 0)
(-3.29759 2.18324 0)
(-5.43589 2.2054 0)
(-7.53729 2.36167 0)
(-9.54847 2.71282 0)
(-11.4417 2.97163 0)
(-13.1857 3.11591 0)
(-14.8155 3.14438 0)
(-16.2945 2.99838 0)
(-17.5164 2.79786 0)
(-18.4256 2.73492 0)
(-18.9785 2.76041 0)
(-19.2871 2.4133 0)
(-19.6412 2.18999 0)
(-19.7605 1.86749 0)
(-19.9618 1.56381 0)
(-20.1301 1.34381 0)
(-20.1654 1.04424 0)
(-20.2047 0.688771 0)
(-20.1049 0.346424 0)
(-19.9092 0.0103267 0)
(-19.6168 -0.308428 0)
(-19.2347 -0.609446 0)
(-18.7116 -0.946281 0)
(-18.0317 -1.50118 0)
(-17.0717 -2.09263 0)
(-15.8605 -2.66482 0)
(-14.4406 -3.12328 0)
(-12.8932 -3.43681 0)
(-11.2847 -3.6683 0)
(-9.63846 -3.81956 0)
(-7.96066 -3.87791 0)
(-6.2684 -3.82581 0)
(-4.58787 -3.70311 0)
(-2.93971 -3.51672 0)
(-1.33858 -3.26976 0)
(0.218838 -2.99472 0)
(1.72427 -2.68423 0)
(3.17541 -2.38027 0)
(4.57887 -2.10628 0)
(5.9428 -1.79982 0)
(7.28305 -1.56866 0)
(8.55338 -1.61736 0)
(9.68418 -1.7812 0)
(10.7165 -1.84555 0)
(11.6147 -1.52039 0)
(12.4477 -1.5517 0)
(13.058 -1.37328 0)
(13.5884 -1.24373 0)
(14.0915 -1.05358 0)
(14.558 -0.820661 0)
(14.9301 -0.641238 0)
(15.2345 -0.538244 0)
(15.4834 -0.462116 0)
(15.6736 -0.341066 0)
(15.7992 -0.200268 0)
(15.8424 -0.0654729 0)
(15.7648 0.00698105 0)
(15.5583 0.0518609 0)
(15.2011 0.17427 0)
(14.8142 0.620105 0)
(14.401 1.11152 0)
(13.8721 1.13005 0)
(13.4653 1.0043 0)
(13.3076 0.790781 0)
(13.2502 0.665231 0)
(13.157 0.456487 0)
(12.7665 0.286698 0)
(12.1897 0.27118 0)
(11.5781 0.376371 0)
(11.0496 0.565705 0)
(10.649 0.738603 0)
(10.3279 0.703343 0)
(10.0871 0.588973 0)
(9.88757 0.463792 0)
(9.71306 0.312529 0)
(9.48894 0.181633 0)
(9.21383 0.17523 0)
(8.97053 0.255377 0)
(8.76919 0.313794 0)
(8.60595 0.266226 0)
(8.48841 0.172333 0)
(8.42586 0.0794094 0)
(8.42097 0.0270857 0)
(8.44069 0.00574227 0)
(8.46496 0.00152457 0)
(8.46843 -0.0381581 0)
(8.43703 -0.0626972 0)
(8.39111 -0.0499559 0)
(8.35281 -0.0454674 0)
(8.34168 -0.0371033 0)
(8.34512 -0.0376159 0)
(8.35754 -0.0573366 0)
(8.39138 -0.0873308 0)
(8.43315 -0.129948 0)
(8.47616 -0.167064 0)
(8.52166 -0.182257 0)
(8.5689 -0.171404 0)
(8.61862 -0.142002 0)
(8.67923 -0.111218 0)
(8.7512 -0.091739 0)
(8.82804 -0.0864656 0)
(8.90287 -0.0937712 0)
(8.97099 -0.109316 0)
(9.02939 -0.130888 0)
(9.07549 -0.156741 0)
(9.10872 -0.183455 0)
(9.1368 -0.198567 0)
(9.16762 -0.182727 0)
(9.19986 -0.137117 0)
(9.22927 -0.0768173 0)
(9.27374 -0.049887 0)
(9.3175 -0.0559622 0)
(9.35601 -0.0651438 0)
(9.38279 -0.0856978 0)
(9.39284 -0.106401 0)
(9.40162 -0.111826 0)
(9.41052 -0.0960188 0)
(9.41905 -0.0692173 0)
(9.43952 -0.0516967 0)
(9.46042 -0.0428858 0)
(9.47865 -0.0504078 0)
(9.48627 -0.0685993 0)
(9.48531 -0.0738016 0)
(9.48152 -0.0665055 0)
(9.47733 -0.0528264 0)
(9.47698 -0.0358905 0)
(9.47742 -0.0321005 0)
(9.47778 -0.0449365 0)
(9.46468 -0.0579903 0)
(9.45479 -0.0814106 0)
(9.43826 -0.0789838 0)
(9.42626 -0.0549182 0)
(9.41279 -0.0187 0)
(9.40712 0.0120627 0)
(9.40038 0.015928 0)
(9.39773 0.00912233 0)
(9.39838 0.00205422 0)
(9.40301 -0.006913 0)
(9.40011 -0.0365685 0)
(9.37409 -0.0542263 0)
(9.35384 -0.0852881 0)
(9.3262 -0.0769645 0)
(9.30533 -0.0440868 0)
(9.29615 0.00370154 0)
(9.28945 0.0361445 0)
(9.28377 0.037648 0)
(9.28215 0.0222106 0)
(9.27661 -0.00779307 0)
(9.26065 -0.0156663 0)
(9.25109 -0.020203 0)
(9.25016 -0.0290956 0)
(9.254 -0.0458969 0)
(9.24656 -0.0561451 0)
(9.2413 -0.0391724 0)
(9.24147 -0.00174747 0)
(9.24893 0.00523448 0)
(9.2595 -0.00600354 0)
(9.27621 -0.0197647 0)
(9.2746 -0.0521008 0)
(9.2719 -0.0479668 0)
(9.27309 -0.00819011 0)
(9.2909 -0.00361227 0)
(9.31352 -0.0151481 0)
(9.31528 -0.0605873 0)
(9.31326 -0.0808793 0)
(9.30974 -0.040813 0)
(9.32656 0.037011 0)
(9.33166 0.13882 0)
(9.35833 0.153916 0)
(9.3797 0.127734 0)
(9.4202 0.0972343 0)
(9.47579 0.0626847 0)
(9.53906 0.0226933 0)
(9.56554 -0.0549189 0)
(9.55829 -0.132178 0)
(9.56775 -0.197851 0)
(9.57572 -0.263007 0)
(9.61123 -0.270031 0)
(9.65447 -0.202162 0)
(9.69465 0.0148513 0)
(9.72588 0.237206 0)
(9.79314 0.25498 0)
(9.83416 0.189778 0)
(9.91947 0.135257 0)
(10.0291 0.0998728 0)
(10.1009 0.00956918 0)
(10.1108 -0.0868718 0)
(10.0947 -0.0970622 0)
(10.093 -0.0639003 0)
(10.1124 0.0205917 0)
(10.1513 0.0935251 0)
(10.2193 0.0928672 0)
(10.2858 0.0461388 0)
(10.3061 -0.0402615 0)
(10.3324 -0.0824526 0)
(10.3668 -0.0904304 0)
(10.3953 -0.0298244 0)
(10.4352 0.0355675 0)
(10.4721 0.00293865 0)
(10.5095 -0.0472588 0)
(10.5618 -0.0539446 0)
(10.6113 -0.0420934 0)
(10.629 0.0426762 0)
(10.6829 0.0709401 0)
(10.7252 0.0248352 0)
(10.7333 -0.046013 0)
(10.7577 -0.051045 0)
(10.7746 -0.0324686 0)
(10.7869 0.00209744 0)
(10.807 -0.00282411 0)
(10.8231 -0.00885418 0)
(10.8369 -0.00774943 0)
(10.8401 0.060845 0)
(10.8491 0.13211 0)
(10.88 0.141473 0)
(10.9045 0.110304 0)
(10.9391 0.0862409 0)
(10.9863 0.0704251 0)
(11.0091 -0.00227209 0)
(10.9737 -0.0854284 0)
(10.9289 -0.185178 0)
(10.9123 -0.251544 0)
(10.9091 -0.269044 0)
(10.9068 -0.135467 0)
(10.9032 0.0465439 0)
(10.902 0.192869 0)
(10.9212 0.197656 0)
(10.9408 0.14292 0)
(10.9911 0.084054 0)
(11.0518 0.0264035 0)
(11.0428 -0.0824512 0)
(10.9672 -0.154118 0)
(10.9256 -0.219774 0)
(10.8906 -0.198032 0)
(10.8901 -0.0898814 0)
(10.8853 0.0564675 0)
(10.9298 0.11024 0)
(10.9944 0.0820441 0)
(11.0498 -0.0112542 0)
(11.0178 -0.116486 0)
(10.9573 -0.235532 0)
(10.9183 -0.292455 0)
(10.8983 -0.240374 0)
(10.9122 -0.077634 0)
(10.9218 0.0787397 0)
(10.9574 0.0851682 0)
(10.9851 -0.0223607 0)
(10.9738 -0.107685 0)
(10.9534 -0.0862061 0)
(10.9519 0.0100818 0)
(10.9775 0.096926 0)
(11.0498 0.0940604 0)
(11.1452 0.0211584 0)
(11.1485 -0.153797 0)
(11.1028 -0.275094 0)
(11.0663 -0.268785 0)
(11.0645 -0.136341 0)
(11.0708 0.10656 0)
(11.1017 0.245784 0)
(11.1501 0.228703 0)
(11.2378 0.157254 0)
(11.392 0.0967216 0)
(11.58 0.0535445 0)
(11.6432 -0.159247 0)
(11.5916 -0.28141 0)
(11.6041 -0.361561 0)
(11.6868 -0.263659 0)
(11.7347 0.136719 0)
(11.9032 0.228814 0)
(12.0377 0.0650539 0)
(12.2473 0.0379278 0)
(12.3251 -0.193606 0)
(12.4113 -0.127595 0)
(12.4579 0.135185 0)
(12.6221 0.141243 0)
(12.8497 0.00613679 0)
(13.0751 -0.152314 0)
(13.1466 -0.36908 0)
(13.2519 -0.234592 0)
(13.349 0.110087 0)
(13.5668 0.310811 0)
(13.853 0.267884 0)
(14.0778 -0.0356561 0)
(14.409 0.00553305 0)
(14.5488 -0.269179 0)
(14.7014 -0.321355 0)
(14.8676 -0.156879 0)
(15.0081 0.172666 0)
(15.2512 0.234817 0)
(15.4933 0.23634 0)
(15.7703 0.153562 0)
(16.1011 -0.0181905 0)
(16.4854 -0.0255538 0)