/*--------------------------------*- C++ -*----------------------------------*\
| =========                 |                                                 |
| \\      /  F ield         | OpenFOAM: The Open Source CFD Toolbox           |
|  \\    /   O peration     | Version:  v1812                                 |
|   \\  /    A nd           | Web:      www.OpenFOAM.com                      |
|    \\/     M anipulation  |                                                 |
\*---------------------------------------------------------------------------*/
FoamFile
{
    version     2.0;
    format      ascii;
    class       volScalarField;
    location    "0.6";
    object      p;
}
// * * * * * * * * * * * * * * * * * * * * * * * * * * * * * * * * * * * * * //

dimensions      [1 -1 -2 0 0 0 0];


internalField   nonuniform List<scalar> 
20400
(
100505
100499
100506
100504
100503
100505
100505
100510
100508
100514
100513
100520
100520
100526
100527
100534
100537
100543
100548
100554
100554
100563
100564
100573
100576
100584
100586
100594
100592
100602
100599
100609
100607
100617
100614
100624
100620
100633
100628
100641
100640
100653
100652
100664
100666
100676
100679
100687
100694
100701
100709
100719
100727
100746
100746
100763
100766
100777
100781
100791
100794
100798
100802
100804
100806
100804
100807
100802
100800
100789
100775
100762
100754
100736
100720
100704
100689
100669
100656
100633
100621
100596
100584
100561
100549
100527
100516
100500
100486
100482
100472
100472
100455
100458
100452
100448
100449
100449
100459
100440
100432
100426
100421
100416
100395
100380
100375
100361
100355
100335
100311
100289
100276
100258
100236
100226
100206
100191
100168
100158
100140
100121
100131
100117
100106
100084
100073
100063
100055
100044
100033
100034
100028
100019
100009
100011
100011
100009
100009
100009
100007
100010
100011
100018
100021
100032
100038
100052
100059
100072
100086
100105
100109
100128
100142
100153
100173
100185
100195
100211
100230
100244
100262
100275
100287
100317
100332
100345
100357
100383
100404
100421
100440
100458
100483
100498
100519
100537
100561
100575
100596
100611
100631
100645
100665
100681
100701
100716
100736
100754
100772
100794
100812
100828
100848
100863
100881
100897
100914
100928
100944
100955
100969
100979
100990
100998
101008
101014
101022
101027
101032
101035
101041
101042
101046
101047
101050
101051
101052
101053
101051
101049
101044
101039
101032
101026
101017
101009
100999
100991
100979
100970
100958
100947
100934
100923
100911
100898
100887
100873
100861
100847
100833
100819
100805
100792
100778
100765
100752
100739
100727
100714
100703
100692
100681
100672
100663
100654
100647
100640
100634
100628
100622
100617
100613
100609
100606
100603
100601
100600
100599
100599
100599
100600
100601
100603
100606
100610
100613
100618
100623
100628
100634
100641
100649
100657
100666
100676
100687
100700
100713
100728
100744
100760
100777
100793
100809
100824
100838
100851
100863
100874
100886
100899
100913
100928
100943
100959
100975
100991
101006
101020
101033
101047
101060
101072
101084
101095
101106
101118
101128
101138
101149
101159
101168
101177
101186
101194
101201
101208
101214
101219
101225
101229
101233
101236
101238
101240
101242
101242
101243
101243
101242
101241
101240
101238
101236
101232
101228
101223
101218
101212
101205
101198
101190
101182
101173
101164
101155
101146
101136
101126
101115
101105
101094
101084
101075
101066
101058
101050
101043
101035
101027
101019
101012
101005
100999
100993
100988
100984
100979
100975
100970
100966
100963
100959
100957
100954
100953
100952
100951
100951
100951
100952
100953
100954
100955
100957
100959
100962
100965
100969
100974
100979
100985
100991
100998
101005
101013
101021
101029
101037
101045
101053
101061
101070
101079
101088
101097
101107
101116
101126
101136
101145
101155
101164
101174
101183
101192
101200
101209
101217
101224
101231
101238
101244
101251
101257
101263
101270
101276
101283
101289
101295
101301
101307
101312
101318
101324
101329
101334
101339
101344
101348
101351
101355
101357
101360
101362
101363
101365
101366
101367
101367
101368
101368
101368
101367
101367
101366
101366
101365
101365
101364
101362
101360
101358
101355
101353
101350
101348
101346
101345
101344
101343
101343
101343
101342
101342
101341
101340
101338
101336
101334
101332
101330
101329
101328
101327
101330
100504
100507
100502
100502
100506
100502
100507
100504
100513
100510
100519
100515
100524
100521
100531
100530
100541
100538
100548
100547
100561
100558
100572
100569
100584
100578
100593
100586
100602
100595
100611
100604
100616
100611
100624
100616
100632
100621
100645
100629
100651
100641
100662
100653
100674
100670
100684
100684
100696
100704
100709
100715
100726
100730
100753
100750
100771
100771
100782
100791
100794
100796
100801
100802
100803
100806
100804
100799
100791
100792
100778
100767
100754
100743
100723
100713
100689
100678
100653
100641
100617
100606
100584
100570
100542
100531
100509
100499
100482
100483
100471
100470
100464
100456
100451
100448
100442
100445
100436
100422
100423
100422
100411
100394
100383
100364
100356
100348
100326
100320
100302
100281
100266
100245
100238
100206
100193
100178
100167
100159
100143
100139
100125
100126
100103
100093
100076
100063
100053
100048
100032
100037
100032
100011
100014
100010
100014
100006
100012
100006
100012
100007
100019
100011
100033
100023
100050
100042
100068
100060
100096
100101
100113
100129
100148
100157
100172
100193
100204
100212
100236
100252
100264
100278
100308
100313
100337
100353
100371
100385
100406
100426
100439
100459
100482
100507
100516
100538
100559
100582
100594
100615
100630
100649
100665
100684
100700
100717
100736
100753
100771
100791
100810
100828
100847
100865
100881
100899
100915
100931
100945
100959
100970
100984
100992
101003
101008
101017
101023
101031
101032
101037
101041
101044
101045
101048
101050
101051
101052
101051
101052
101048
101045
101039
101034
101026
101017
101006
100998
100986
100977
100967
100955
100943
100931
100919
100906
100896
100882
100870
100857
100844
100832
100817
100804
100790
100777
100763
100751
100738
100726
100714
100703
100692
100681
100672
100663
100654
100647
100639
100633
100627
100622
100616
100612
100608
100605
100603
100601
100600
100599
100599
100599
100600
100601
100603
100606
100610
100613
100618
100623
100628
100634
100641
100649
100657
100666
100676
100687
100700
100713
100728
100744
100760
100777
100793
100809
100823
100837
100849
100862
100874
100886
100900
100913
100928
100943
100959
100974
100990
101005
101019
101033
101047
101059
101071
101083
101095
101106
101116
101127
101137
101148
101158
101167
101177
101185
101193
101200
101207
101213
101218
101223
101228
101231
101235
101237
101239
101241
101241
101241
101241
101241
101240
101238
101236
101234
101231
101226
101222
101216
101210
101203
101196
101188
101181
101172
101164
101154
101145
101135
101125
101114
101104
101094
101084
101075
101067
101058
101051
101043
101035
101027
101019
101012
101005
100998
100993
100988
100983
100978
100974
100970
100966
100962
100959
100956
100954
100952
100951
100951
100950
100951
100951
100952
100953
100955
100957
100959
100962
100966
100970
100974
100980
100986
100992
100999
101006
101013
101021
101029
101037
101045
101053
101062
101070
101079
101088
101098
101107
101116
101126
101136
101146
101155
101164
101173
101182
101191
101200
101208
101216
101224
101231
101238
101245
101251
101257
101264
101270
101277
101283
101289
101295
101301
101307
101313
101318
101324
101329
101334
101339
101343
101347
101351
101354
101356
101359
101361
101362
101364
101365
101366
101366
101367
101367
101367
101367
101366
101366
101365
101365
101364
101363
101361
101359
101358
101355
101353
101350
101348
101346
101345
101343
101343
101342
101342
101341
101341
101340
101338
101337
101334
101333
101330
101329
101327
101326
101326
101327
100505
100501
100505
100504
100500
100502
100503
100508
100505
100512
100510
100520
100518
100527
100525
100533
100534
100544
100545
100555
100552
100564
100560
100576
100571
100588
100582
100597
100588
100604
100593
100611
100602
100619
100612
100626
100613
100642
100618
100647
100635
100654
100645
100665
100655
100679
100671
100689
100690
100699
100708
100719
100724
100747
100744
100767
100763
100777
100782
100793
100793
100798
100802
100805
100806
100805
100807
100801
100800
100789
100776
100762
100754
100737
100726
100704
100697
100669
100664
100636
100630
100603
100593
100568
100551
100529
100517
100497
100487
100464
100459
100447
100443
100445
100428
100450
100428
100450
100446
100436
100423
100429
100415
100410
100385
100377
100359
100361
100345
100326
100305
100290
100271
100253
100232
100218
100191
100181
100153
100155
100129
100136
100120
100120
100101
100086
100080
100065
100049
100042
100035
100040
100023
100022
100004
100018
100008
100019
100003
100019
99994.3
100026
99999.3
100035
100001
100054
100020
100069
100035
100089
100074
100111
100104
100136
100147
100149
100175
100188
100194
100201
100231
100250
100260
100295
100283
100319
100327
100355
100363
100391
100404
100427
100448
100469
100482
100503
100529
100543
100561
100578
100600
100611
100631
100645
100664
100680
100699
100716
100733
100753
100772
100793
100811
100827
100844
100860
100875
100890
100906
100922
100936
100949
100963
100973
100984
100990
101000
101009
101020
101020
101027
101030
101039
101037
101045
101043
101049
101047
101051
101050
101048
101049
101042
101040
101026
101029
101013
101010
100996
100990
100978
100967
100959
100944
100934
100921
100909
100899
100883
100873
100857
100846
100831
100819
100805
100792
100778
100765
100751
100739
100726
100715
100703
100692
100682
100672
100663
100655
100647
100640
100633
100628
100622
100617
100613
100609
100606
100603
100601
100600
100599
100599
100599
100600
100601
100603
100606
100609
100613
100617
100622
100628
100634
100641
100649
100658
100667
100678
100689
100701
100714
100729
100744
100761
100777
100793
100808
100822
100837
100850
100862
100874
100886
100900
100914
100929
100944
100960
100975
100991
101006
101020
101033
101047
101059
101072
101084
101095
101106
101117
101128
101138
101148
101159
101168
101178
101186
101195
101202
101208
101214
101220
101224
101229
101233
101236
101238
101240
101242
101242
101243
101242
101242
101241
101240
101238
101235
101232
101228
101223
101218
101211
101205
101197
101190
101181
101173
101163
101155
101145
101135
101124
101114
101103
101093
101085
101076
101067
101060
101051
101044
101036
101027
101020
101012
101005
100999
100993
100988
100984
100979
100975
100971
100966
100963
100959
100957
100954
100953
100952
100951
100951
100951
100952
100953
100954
100955
100957
100959
100962
100966
100969
100974
100979
100985
100991
100999
101006
101014
101021
101029
101037
101046
101054
101062
101071
101080
101089
101098
101107
101117
101126
101136
101146
101155
101164
101173
101182
101191
101200
101208
101216
101224
101231
101238
101245
101251
101257
101263
101270
101277
101283
101289
101295
101301
101307
101312
101318
101323
101329
101334
101339
101344
101348
101351
101354
101357
101360
101362
101363
101365
101366
101367
101367
101367
101368
101367
101367
101366
101366
101366
101365
101364
101363
101361
101360
101357
101355
101352
101350
101348
101346
101345
101344
101343
101342
101342
101342
101341
101340
101339
101337
101335
101333
101331
101329
101329
101327
101327
101329
100504
100507
100505
100507
100506
100505
100505
100504
100511
100508
100513
100511
100521
100520
100528
100528
100537
100534
100543
100543
100560
100555
100570
100565
100581
100574
100593
100584
100602
100593
100613
100604
100617
100612
100629
100619
100634
100616
100651
100629
100647
100641
100658
100650
100666
100660
100682
100678
100699
100699
100710
100712
100724
100724
100749
100750
100764
100769
100787
100789
100795
100799
100805
100807
100811
100810
100805
100804
100794
100787
100785
100776
100765
100753
100735
100721
100700
100685
100662
100650
100623
100609
100585
100568
100536
100531
100492
100495
100468
100463
100462
100446
100446
100447
100431
100424
100436
100443
100441
100431
100425
100415
100419
100404
100393
100360
100357
100353
100333
100330
100301
100277
100270
100247
100236
100211
100191
100170
100154
100145
100131
100123
100117
100109
100101
100083
100082
100063
100047
100037
100041
100032
100029
100012
100019
100007
100022
100002
100021
99997.3
100018
99999.1
100026
100002
100041
100008
100061
100031
100079
100045
100103
100084
100117
100128
100145
100154
100175
100189
100200
100202
100238
100245
100262
100276
100322
100298
100337
100344
100378
100373
100405
100424
100448
100461
100482
100502
100520
100542
100561
100580
100594
100612
100627
100646
100662
100679
100692
100714
100731
100751
100770
100790
100808
100830
100843
100864
100877
100896
100908
100927
100940
100954
100965
100982
100989
101000
101003
101014
101021
101029
101027
101034
101039
101041
101042
101045
101048
101049
101050
101050
101052
101046
101046
101035
101037
101016
101023
101004
101003
100987
100982
100969
100957
100947
100933
100924
100910
100899
100886
100873
100861
100844
100833
100817
100805
100791
100778
100764
100751
100737
100727
100713
100704
100692
100682
100672
100663
100654
100647
100640
100633
100627
100621
100616
100612
100608
100605
100602
100601
100600
100599
100599
100599
100599
100601
100603
100605
100608
100612
100617
100621
100627
100633
100641
100649
100658
100668
100678
100690
100701
100715
100729
100745
100760
100778
100792
100805
100819
100835
100847
100861
100873
100887
100900
100915
100929
100945
100959
100976
100991
101006
101019
101033
101046
101059
101071
101084
101095
101106
101117
101128
101137
101149
101158
101169
101177
101187
101195
101202
101208
101214
101219
101225
101228
101233
101235
101238
101240
101241
101242
101242
101242
101241
101240
101239
101237
101234
101231
101227
101223
101217
101211
101204
101197
101188
101181
101171
101163
101153
101144
101134
101124
101113
101103
101094
101085
101076
101069
101061
101053
101045
101036
101028
101019
101012
101004
100999
100993
100988
100983
100979
100975
100971
100966
100962
100959
100956
100954
100952
100951
100950
100950
100950
100951
100952
100953
100955
100957
100959
100962
100965
100970
100974
100980
100985
100992
100998
101007
101014
101021
101030
101038
101047
101054
101063
101071
101081
101090
101099
101108
101117
101126
101137
101146
101156
101164
101173
101182
101191
101199
101208
101216
101225
101232
101239
101245
101251
101257
101264
101270
101277
101283
101290
101295
101302
101307
101313
101318
101324
101328
101334
101338
101343
101348
101351
101354
101357
101359
101361
101363
101364
101365
101366
101366
101368
101367
101367
101366
101365
101366
101365
101365
101364
101363
101362
101360
101357
101355
101352
101349
101348
101347
101345
101344
101343
101342
101342
101342
101340
101341
101339
101337
101336
101334
101331
101330
101328
101327
101327
101328
100502
100500
100502
100503
100503
100503
100507
100503
100506
100509
100511
100515
100517
100524
100524
100530
100533
100538
100541
100551
100546
100566
100560
100577
100572
100590
100583
100599
100594
100606
100600
100620
100615
100621
100620
100634
100624
100643
100622
100654
100635
100652
100644
100658
100653
100669
100663
100683
100687
100695
100706
100714
100724
100733
100738
100765
100761
100780
100785
100804
100799
100804
100811
100812
100811
100813
100814
100805
100802
100795
100785
100776
100763
100751
100734
100719
100700
100682
100666
100645
100629
100599
100587
100551
100547
100504
100508
100472
100462
100460
100432
100450
100419
100440
100426
100426
100433
100419
100441
100437
100421
100412
100428
100406
100380
100361
100357
100343
100334
100333
100300
100281
100268
100249
100225
100215
100185
100176
100147
100144
100123
100122
100107
100103
100091
100085
100069
100065
100037
100045
100032
100032
100014
100026
99999
100021
100002
100020
99993
100020
99999.7
100020
100004
100028
100000
100052
100019
100070
100034
100088
100073
100105
100098
100137
100136
100152
100177
100191
100193
100216
100214
100267
100247
100285
100294
100340
100314
100357
100360
100399
100384
100423
100446
100470
100483
100500
100526
100544
100557
100576
100600
100611
100628
100642
100663
100675
100696
100711
100733
100749
100769
100788
100809
100824
100846
100861
100880
100893
100911
100924
100940
100952
100965
100980
100990
100996
101005
101012
101024
101026
101029
101033
101041
101042
101043
101046
101045
101050
101050
101053
101050
101050
101042
101044
101027
101033
101013
101013
100995
100995
100977
100971
100961
100945
100938
100919
100913
100898
100886
100876
100858
100847
100830
100819
100804
100793
100779
100765
100750
100740
100723
100716
100702
100694
100682
100673
100662
100655
100647
100640
100632
100627
100621
100617
100612
100608
100604
100603
100600
100599
100599
100598
100599
100599
100601
100603
100605
100608
100612
100616
100621
100626
100633
100641
100650
100660
100670
100680
100690
100703
100714
100731
100746
100762
100778
100794
100804
100818
100832
100847
100860
100874
100886
100902
100914
100931
100946
100961
100976
100994
101007
101020
101032
101046
101058
101071
101083
101096
101106
101118
101128
101139
101148
101160
101169
101179
101187
101196
101204
101210
101215
101221
101225
101229
101233
101236
101238
101241
101242
101243
101243
101243
101242
101241
101239
101237
101235
101231
101228
101222
101218
101211
101205
101197
101190
101180
101172
101162
101154
101143
101133
101123
101112
101102
101094
101086
101078
101070
101061
101053
101045
101037
101027
101021
101012
101006
100998
100993
100988
100984
100979
100975
100971
100966
100962
100959
100956
100954
100952
100951
100950
100950
100950
100951
100952
100953
100955
100957
100959
100962
100966
100969
100974
100978
100984
100991
100999
101007
101015
101021
101029
101039
101047
101056
101063
101071
101081
101092
101100
101109
101117
101127
101136
101147
101156
101165
101172
101182
101190
101199
101207
101216
101224
101233
101239
101245
101252
101258
101264
101271
101277
101284
101290
101296
101301
101308
101313
101319
101323
101329
101334
101339
101343
101348
101352
101354
101358
101359
101362
101363
101365
101365
101366
101368
101366
101368
101367
101366
101365
101365
101365
101365
101365
101363
101361
101359
101357
101354
101351
101349
101349
101348
101345
101344
101342
101341
101341
101342
101341
101340
101339
101337
101335
101333
101331
101330
101328
101327
101326
101328
100500
100504
100498
100500
100501
100501
100502
100505
100505
100509
100507
100511
100514
100517
100529
100532
100535
100539
100541
100542
100557
100555
100576
100577
100586
100589
100596
100593
100602
100592
100614
100603
100626
100609
100628
100617
100635
100613
100648
100619
100646
100635
100647
100640
100655
100651
100671
100668
100680
100694
100698
100709
100717
100728
100747
100740
100764
100778
100789
100793
100804
100813
100817
100813
100818
100814
100815
100814
100809
100800
100792
100780
100769
100754
100741
100723
100706
100689
100665
100651
100630
100606
100584
100558
100530
100514
100483
100468
100454
100435
100426
100410
100430
100421
100420
100424
100413
100429
100442
100434
100407
100422
100417
100406
100381
100356
100344
100333
100335
100309
100298
100271
100269
100250
100236
100202
100183
100168
100150
100136
100129
100115
100108
100094
100088
100076
100070
100053
100042
100035
100036
100020
100021
100010
100017
100003
100022
99989.8
100014
99989.9
100018
99998
100023
99999
100038
100002
100057
100030
100077
100045
100103
100075
100125
100112
100146
100141
100178
100179
100205
100216
100227
100233
100276
100270
100308
100314
100352
100332
100375
100378
100423
100401
100440
100473
100491
100500
100519
100547
100560
100576
100592
100610
100622
100643
100658
100675
100688
100712
100726
100748
100767
100787
100805
100828
100843
100863
100879
100895
100908
100926
100940
100951
100964
100983
100991
100999
101005
101014
101025
101030
101028
101033
101042
101042
101041
101044
101049
101049
101053
101051
101054
101048
101047
101040
101038
101021
101023
101006
101004
100988
100984
100970
100960
100948
100933
100924
100912
100899
100892
100875
100863
100839
100834
100815
100807
100791
100780
100764
100752
100735
100728
100709
100705
100690
100686
100671
100664
100652
100648
100639
100633
100625
100621
100615
100611
100607
100604
100601
100600
100599
100598
100598
100598
100599
100600
100602
100604
100607
100610
100615
100620
100625
100633
100641
100651
100661
100674
100679
100690
100702
100714
100729
100748
100763
100778
100793
100803
100814
100834
100844
100861
100873
100887
100900
100918
100931
100948
100959
100976
100995
101009
101019
101032
101045
101058
101069
101083
101094
101107
101117
101129
101137
101149
101159
101170
101179
101188
101197
101204
101211
101216
101220
101226
101229
101233
101236
101239
101240
101242
101243
101243
101242
101242
101241
101239
101237
101235
101231
101227
101223
101217
101211
101205
101198
101189
101180
101170
101161
101152
101143
101132
101121
101111
101102
101095
101087
101079
101070
101062
101054
101047
101036
101028
101019
101013
101005
100999
100992
100988
100983
100979
100975
100971
100966
100962
100959
100956
100953
100952
100951
100950
100950
100950
100950
100951
100953
100954
100957
100959
100962
100966
100970
100975
100979
100983
100991
100999
101009
101018
101020
101028
101040
101049
101056
101063
101070
101080
101092
101102
101108
101119
101126
101138
101148
101157
101164
101173
101181
101189
101198
101207
101215
101226
101232
101240
101246
101252
101258
101265
101271
101278
101284
101291
101296
101303
101308
101314
101318
101324
101328
101334
101338
101343
101347
101351
101355
101357
101360
101361
101363
101364
101366
101367
101366
101368
101366
101367
101366
101364
101364
101365
101365
101365
101363
101361
101359
101356
101354
101350
101348
101350
101349
101346
101343
101342
101341
101341
101342
101340
101341
101339
101337
101336
101333
101331
101329
101328
101327
101327
101327
100501
100493
100503
100494
100498
100496
100498
100498
100502
100501
100510
100507
100513
100514
100514
100532
100532
100542
100546
100552
100557
100561
100568
100575
100577
100587
100583
100602
100586
100619
100590
100623
100600
100626
100608
100632
100615
100634
100610
100645
100624
100640
100631
100650
100638
100657
100653
100671
100676
100686
100695
100709
100717
100722
100732
100743
100763
100787
100775
100797
100806
100817
100812
100821
100818
100825
100818
100819
100817
100807
100797
100786
100773
100759
100742
100725
100708
100689
100667
100650
100637
100591
100578
100546
100525
100505
100478
100469
100435
100432
100405
100409
100404
100415
100393
100426
100408
100420
100436
100428
100399
100422
100413
100406
100368
100369
100339
100342
100319
100307
100293
100281
100252
100264
100204
100211
100177
100167
100145
100134
100125
100109
100102
100089
100083
100073
100061
100058
100038
100035
100025
100024
100012
100019
100004
100018
99993.2
100006
99988
100007
99991.9
100013
99998.8
100022
100000
100039
100015
100063
100033
100083
100060
100111
100085
100137
100116
100165
100158
100190
100188
100211
100227
100250
100262
100292
100293
100320
100330
100364
100352
100387
100395
100438
100426
100462
100491
100506
100520
100536
100562
100580
100589
100608
100620
100630
100662
100666
100689
100704
100729
100745
100765
100781
100806
100824
100848
100860
100881
100894
100911
100923
100938
100950
100964
100983
100992
100998
101006
101015
101025
101029
101028
101033
101043
101043
101040
101046
101047
101052
101051
101055
101052
101052
101043
101047
101030
101030
101020
101012
101001
100994
100981
100974
100960
100951
100939
100917
100918
100909
100886
100886
100848
100849
100826
100822
100802
100796
100775
100768
100748
100743
100720
100718
100697
100697
100678
100677
100658
100657
100642
100643
100630
100628
100619
100616
100610
100607
100604
100601
100599
100599
100598
100598
100598
100599
100599
100601
100603
100606
100609
100614
100619
100625
100632
100642
100650
100664
100678
100679
100689
100703
100710
100732
100747
100763
100776
100791
100801
100817
100829
100846
100861
100875
100886
100903
100916
100932
100946
100962
100977
100996
101009
101020
101031
101046
101057
101069
101081
101095
101105
101119
101129
101138
101148
101161
101169
101180
101189
101198
101206
101211
101217
101223
101226
101230
101233
101236
101239
101241
101242
101243
101243
101243
101242
101241
101239
101237
101235
101232
101228
101223
101218
101212
101206
101198
101189
101180
101169
101161
101152
101142
101131
101120
101110
101102
101095
101089
101078
101072
101064
101053
101047
101038
101027
101022
101013
101006
100998
100992
100987
100983
100979
100976
100971
100966
100962
100958
100955
100953
100952
100951
100950
100950
100949
100950
100951
100952
100954
100957
100959
100962
100966
100971
100976
100978
100982
100989
100999
101011
101020
101019
101027
101043
101048
101057
101063
101067
101079
101095
101102
101108
101116
101130
101137
101149
101157
101165
101171
101182
101189
101198
101208
101215
101223
101233
101240
101246
101252
101259
101264
101272
101278
101285
101291
101297
101302
101308
101313
101319
101323
101329
101334
101338
101343
101348
101352
101355
101358
101359
101362
101363
101365
101366
101366
101368
101367
101366
101367
101366
101363
101364
101365
101365
101366
101365
101361
101359
101358
101354
101349
101347
101351
101350
101345
101345
101342
101340
101341
101340
101341
101339
101339
101338
101335
101334
101331
101329
101328
101328
101327
101327
100493
100496
100491
100495
100491
100494
100493
100495
100495
100500
100501
100506
100508
100517
100521
100526
100531
100539
100539
100549
100551
100556
100563
100569
100578
100577
100590
100585
100606
100572
100624
100591
100625
100608
100625
100613
100634
100616
100634
100617
100635
100622
100639
100623
100648
100641
100654
100661
100667
100682
100697
100697
100717
100720
100741
100739
100771
100766
100779
100799
100809
100816
100820
100827
100828
100822
100835
100826
100823
100817
100805
100794
100783
100760
100755
100723
100712
100696
100667
100657
100633
100592
100576
100539
100523
100502
100473
100453
100430
100410
100405
100393
100384
100392
100402
100412
100394
100416
100437
100417
100405
100406
100422
100362
100407
100344
100335
100315
100335
100309
100283
100272
100260
100228
100224
100194
100182
100165
100145
100131
100118
100108
100095
100082
100080
100061
100062
100041
100045
100023
100028
100014
100018
100002
100013
99992.9
100008
99986.3
100003
99982.5
100007
99990.2
100012
99995.9
100025
100002
100042
100018
100067
100038
100095
100067
100119
100094
100149
100112
100194
100162
100208
100188
100232
100239
100269
100274
100299
100315
100334
100341
100378
100367
100411
100407
100457
100453
100487
100502
100518
100535
100557
100581
100568
100613
100605
100635
100645
100667
100682
100710
100720
100744
100759
100783
100803
100831
100844
100865
100878
100895
100911
100918
100940
100950
100966
100985
100994
100998
101006
101016
101028
101029
101028
101037
101044
101044
101038
101046
101051
101052
101054
101052
101056
101047
101052
101040
101038
101023
101025
101008
101007
100993
100984
100972
100961
100953
100934
100923
100927
100907
100895
100869
100858
100836
100838
100814
100812
100788
100781
100759
100758
100732
100734
100706
100706
100684
100689
100665
100670
100647
100651
100632
100638
100621
100624
100614
100609
100604
100603
100599
100599
100598
100598
100597
100598
100598
100600
100600
100603
100605
100609
100613
100618
100623
100633
100641
100653
100663
100678
100682
100691
100699
100709
100727
100750
100766
100775
100789
100805
100817
100828
100841
100862
100875
100886
100899
100920
100930
100947
100962
100980
100995
101009
101023
101031
101044
101057
101067
101084
101092
101106
101118
101130
101139
101149
101159
101170
101180
101190
101199
101206
101212
101219
101223
101227
101230
101234
101236
101239
101241
101243
101243
101244
101243
101242
101241
101240
101237
101235
101232
101227
101223
101218
101213
101206
101197
101190
101178
101170
101160
101152
101142
101131
101120
101108
101104
101096
101086
101082
101072
101064
101054
101046
101037
101030
101020
101014
101005
100998
100992
100987
100982
100978
100976
100971
100966
100962
100958
100955
100953
100952
100950
100950
100949
100950
100950
100951
100952
100954
100956
100960
100963
100967
100971
100977
100981
100980
100986
101001
101010
101018
101021
101031
101040
101048
101058
101058
101066
101085
101093
101100
101108
101119
101129
101140
101147
101158
101165
101172
101179
101189
101198
101207
101217
101223
101231
101241
101246
101252
101258
101266
101271
101279
101285
101291
101297
101303
101308
101314
101319
101325
101329
101334
101338
101343
101348
101351
101355
101357
101360
101361
101363
101365
101365
101367
101366
101367
101366
101367
101364
101364
101364
101364
101365
101366
101365
101361
101360
101357
101350
101349
101348
101346
101351
101349
101343
101342
101340
101340
101340
101339
101341
101338
101338
101336
101333
101331
101329
101329
101327
101327
101326
100490
100487
100492
100486
100488
100486
100489
100487
100492
100491
100497
100496
100504
100509
100517
100517
100525
100527
100534
100541
100547
100556
100558
100567
100573
100578
100582
100596
100584
100616
100581
100623
100604
100632
100611
100625
100615
100634
100610
100633
100612
100627
100617
100636
100623
100644
100646
100651
100669
100676
100678
100709
100700
100728
100721
100730
100777
100790
100774
100797
100801
100833
100819
100834
100828
100843
100828
100834
100831
100822
100817
100799
100791
100765
100762
100726
100725
100693
100674
100649
100625
100593
100570
100542
100503
100486
100461
100457
100422
100411
100391
100395
100376
100388
100392
100398
100377
100435
100422
100432
100390
100430
100389
100389
100347
100365
100305
100340
100312
100309
100276
100265
100253
100236
100198
100199
100174
100160
100140
100123
100118
100098
100093
100077
100072
100060
100051
100042
100032
100024
100017
100016
100007
100008
99999
99997.5
99989.7
99993.7
99984.3
99993.9
99983.9
99999.8
99986.8
100013
99988.7
100032
99996.4
100055
100011
100084
100031
100117
100062
100141
100093
100174
100113
100215
100158
100218