/*--------------------------------*- C++ -*----------------------------------*\
| =========                 |                                                 |
| \\      /  F ield         | OpenFOAM: The Open Source CFD Toolbox           |
|  \\    /   O peration     | Version:  v1812                                 |
|   \\  /    A nd           | Web:      www.OpenFOAM.com                      |
|    \\/     M anipulation  |                                                 |
\*---------------------------------------------------------------------------*/
FoamFile
{
    version     2.0;
    format      ascii;
    class       surfaceScalarField;
    location    "0.6";
    object      phi;
}
// * * * * * * * * * * * * * * * * * * * * * * * * * * * * * * * * * * * * * //

dimensions      [1 0 -1 0 0 0 0];
oriented        oriented;


internalField   nonuniform List<scalar> 
40240
(
-0.000689141
5.21054e-05
-0.0010059
-0.000320452
-0.00165549
1.80141e-05
-0.00219212
-9.91596e-05
-0.00279653
-2.54431e-05
-0.00336786
-5.70887e-05
-0.00403424
3.08112e-05
-0.00453783
-0.000125539
-0.00525451
8.87474e-05
-0.00587425
-2.04546e-06
-0.00665044
0.00015731
-0.00729518
3.00421e-05
-0.00807964
0.000171188
-0.00874926
5.62049e-05
-0.00955886
0.000211974
-0.010266
0.00011907
-0.011051
0.000200437
-0.011744
0.0001188
-0.0125153
0.000201057
-0.013168
9.06377e-05
-0.0139514
0.000229901
-0.0146003
9.43656e-05
-0.0153715
0.000243961
-0.0159778
8.15245e-05
-0.0166998
0.000212284
-0.0172601
6.07511e-05
-0.0179839
0.000241278
-0.0185667
0.000113997
-0.0193752
0.000349743
-0.0200572
0.000235609
-0.0210211
0.0005286
-0.021849
0.000404605
-0.0229704
0.000704903
-0.0239046
0.000525906
-0.0250362
0.000733015
-0.0260529
0.00063024
-0.027256
0.00082353
-0.028285
0.000657608
-0.0295313
0.000877758
-0.0305501
0.000667865
-0.031782
0.000901623
-0.0327602
0.000655273
-0.0337627
0.000677884
-0.0344952
0.000417015
-0.0350773
0.00027507
-0.0354202
4.19261e-05
-0.0355327
-0.000175273
-0.035546
-0.000261902
-0.0355054
-0.000310408
-0.0353631
-0.000406365
-0.0352486
-0.000379603
-0.0350364
-0.000474494
-0.0347678
-0.00052734
-0.0344333
-0.000583114
-0.0338662
-0.000791446
-0.0333526
-0.000730052
-0.0328703
-0.000672771
-0.0323511
-0.000698248
-0.0318025
-0.000715544
-0.0311378
-0.000831831
-0.0305863
-0.000717187
-0.0300323
-0.000696211
-0.0295448
-0.000632919
-0.0290722
-0.000600708
-0.0287017
-0.000498767
-0.028408
-0.000425687
-0.0282087
-0.00032536
-0.0280604
-0.000265757
-0.0278854
-0.000281268
-0.0276302
-0.000348921
-0.0273648
-0.000348878
-0.0271762
-0.000261315
-0.0270867
-0.000153295
-0.0272744
0.000136713
-0.0274842
0.000165167
-0.0281422
0.000611706
-0.0287744
0.000604208
-0.0298882
0.00108897
-0.0309271
0.00100325
-0.0323951
0.00144327
-0.0337686
0.00135024
-0.0354827
0.00168572
-0.0370912
0.00160682
-0.038834
0.00174948
-0.0405305
0.00170484
-0.0419235
0.00141015
-0.0429544
0.0010533
-0.0436558
0.000725723
-0.0438973
0.000271957
-0.0437777
-8.48026e-05
-0.0431756
-0.000563052
-0.0420665
-0.00106861
-0.0407944
-0.00122266
-0.0397166
-0.00102242
-0.0382167
-0.00141354
-0.036826
-0.00132209
-0.0350275
-0.00173668
-0.0330477
-0.00188871
-0.0310687
-0.00189936
-0.0293533
-0.00162999
-0.0276317
-0.00162874
-0.0255928
-0.00194533
-0.0235658
-0.00192456
-0.0216777
-0.00178334
-0.0203283
-0.00123057
-0.0189436
-0.00127077
-0.0173472
-0.00149345
-0.0153571
-0.00190283
-0.0133009
-0.00196974
-0.0110196
-0.00219111
-0.00915137
-0.00177508
-0.00750507
-0.00155363
-0.00596965
-0.00144591
-0.00453081
-0.00134198
-0.00329277
-0.00113722
-0.00179939
-0.00137762
-0.000586457
-0.00108396
0.000271575
-0.000737991
0.0010518
-0.000684124
0.00144421
-0.000313559
0.00191908
-0.000429958
0.00222516
-0.000288979
0.00246544
-0.000202013
0.00268184
-0.000190562
0.00300034
-0.000278172
0.00306107
-3.05086e-05
0.00326186
-0.000187976
0.00341483
-0.000136598
0.00355796
-0.000124318
0.00360963
-3.61423e-05
0.00367161
-4.58244e-05
0.00378617
-9.14937e-05
0.00388452
-8.10647e-05
0.00391325
-1.80105e-05
0.00401721
-0.000102009
0.00417742
-0.000165686
0.00424425
-8.00698e-05
0.00428946
-6.6743e-05
0.00429506
-3.06101e-05
0.00427974
-1.58879e-05
0.00422513
2.20969e-05
0.00414516
3.98375e-05
0.00401004
9.00654e-05
0.0038513
0.00010358
0.00365441
0.000145984
0.0034618
0.000125438
0.00319118
0.000206408
0.00291716
0.000209281
0.00253423
0.000310382
0.00231399
0.0001439
0.00203982
0.000181217
0.00171956
0.000230285
0.00118819
0.000433398
0.000896758
0.000180682
0.000503878
0.000277553
0.000174404
0.000225526
-8.41451e-05
0.000155759
-0.000219091
2.08932e-05
-0.00086029
0.000530792
-0.00186907
0.000906266
-0.00257958
0.000603952
-0.00325201
0.000561441
-0.00416875
0.000803428
-0.00523318
0.000933521
-0.0061
0.000747782
-0.00696827
0.000741288
-0.0077697
0.000663987
-0.00867869
0.000749778
-0.00939634
0.000572673
-0.00992614
0.000381414
-0.0103839
0.000310962
-0.0108823
0.000349055
-0.0114548
0.000421381
-0.0120727
0.000470325
-0.0124091
0.000185052
-0.0129576
0.000405934
-0.0135405
0.000435485
-0.0143757
0.000700921
-0.0149062
0.000384789
-0.0155697
0.00052398
-0.0161839
0.00047214
-0.0170798
0.000748587
-0.0178292
0.00060468
-0.0186984
0.000730757
-0.0195282
0.000688641
-0.0203084
0.000643946
-0.0210206
0.000585604
-0.0215823
0.000436813
-0.0219793
0.000276691
-0.0221819
8.49243e-05
-0.0222485
-4.71057e-05
-0.0222054
-0.000154203
-0.0220812
-0.0002314
-0.0218457
-0.000337847
-0.0216035
-0.000341568
-0.0213963
-0.000295169
-0.0211927
-0.000285791
-0.0210184
-0.000256005
-0.0207192
-0.000372394
-0.0204014
-0.000392404
-0.0200104
-0.0004521
-0.0196577
-0.000416645
-0.0192561
-0.000460724
-0.0188527
-0.000453615
-0.0183993
-0.000505296
-0.0180946
-0.000349615
-0.0177652
-0.000370373
-0.0173873
-0.000408405
-0.0169854
-0.000425269
-0.0166021
-0.000399211
-0.0162207
-0.000390761
-0.0158399
-0.000385009
-0.015441
-0.00039772
-0.0150319
-0.000397091
-0.0146354
-0.000378436
-0.014219
-0.000391032
-0.0138031
-0.000384825
-0.0133743
-0.000388926
-0.0129477
-0.000382218
-0.0125201
-0.000382391
-0.0121016
-0.000368512
-0.0117242
-0.000323218
-0.0113509
-0.000321014
-0.0110338
-0.00025885
-0.0107163
-0.000255493
-0.0104122
-0.000242589
-0.0101315
-0.000216961
-0.00983423
-0.000231218
-0.00951668
-0.000245491
-0.00916514
-0.000275934
-0.00880102
-0.000282608
-0.00848033
-0.000233368
-0.00817928
-0.000207224
-0.00792591
-0.000151845
-0.00764655
-0.000173151
-0.00745935
-7.61255e-05
-0.00718717
-0.000155643
-0.00691534
-0.000154487
-0.00663901
-0.000157456
-0.00639011
-0.000129741
-0.00618137
-9.0177e-05
-0.00598538
-7.84493e-05
-0.00582023
-4.79501e-05
-0.00566002
-4.32123e-05
-0.00551029
-3.37841e-05
-0.00536532
-2.8486e-05
-0.00522986
-1.93542e-05
-0.00510153
-1.29844e-05
-0.00497536
-1.23621e-05
-0.00485933
-5.27916e-06
-0.00475592
2.63366e-06
-0.00466712
1.23042e-05
-0.00458417
1.31657e-05
-0.00449691
4.04116e-06
-0.00441556
5.90579e-06
-0.00433981
7.04795e-06
-0.00427278
1.08953e-05
-0.00420825
7.84822e-06
-0.00413718
-4.09031e-06
-0.00406892
-6.0771e-06
-0.00400472
-6.6216e-06
-0.0039495
-1.68507e-06
-0.00390172
1.52984e-06
-0.00385045
-5.80036e-06
-0.00379522
-1.40731e-05
-0.00374249
-1.6262e-05
-0.00369687
-1.47959e-05
-0.00366452
-8.21714e-06
-0.00365364
6.0234e-06
-0.00365293
9.39122e-06
-0.00365456
4.98986e-06
-0.00365955
1.84308e-06
-0.00366584
-6.24844e-07
-0.00367355
-4.41967e-06
-0.00368484
-7.27911e-06
-0.00370122
-7.80971e-06
-0.00372322
-5.95321e-06
-0.00375193
-2.35454e-06
-0.00379035
3.10129e-06
-0.00383465
5.30207e-06
-0.0038841
5.77022e-06
-0.00393595
3.86624e-06
-0.00398956
5.45351e-07
-0.00404459
-3.98651e-06
-0.00410372
-6.28046e-06
-0.00416843
-7.98449e-06
-0.0042378
-1.23191e-05
-0.00431592
-1.3124e-05
-0.00440273
-1.49829e-05
-0.00449621
-1.92648e-05
-0.00459934
-2.04063e-05
-0.00470869
-2.40049e-05
-0.0048351
-1.43931e-05
-0.00496583
-1.35787e-05
-0.00509951
-8.47717e-06
-0.00522187
-1.32696e-05
-0.00533298
-1.56214e-05
-0.00542746
-1.88375e-05
-0.00550255
-3.12079e-05
-0.00557608
-2.67018e-05
-0.00565085
-2.5311e-05
-0.00573585
-1.73975e-05
-0.00583947
-5.1402e-06
-0.00595446
-1.73386e-06
-0.00607557
-4.02276e-06
-0.00619515
-1.15622e-05
-0.00631126
-1.85597e-05
-0.00642639
-2.02413e-05
-0.00653159
-2.86484e-05
-0.00662773
-3.42927e-05
-0.0067254
-2.86336e-05
-0.00682857
-1.91597e-05
-0.00693598
-1.07521e-05
-0.00703453
-1.69472e-05
-0.00712733
-1.9348e-05
-0.0072206
-1.37756e-05
-0.00730257
-1.99508e-05
-0.00737994
-1.7929e-05
-0.00744768
-2.06182e-05
-0.00749825
-3.19921e-05
-0.00754052
-3.4888e-05
-0.00758706
-2.5643e-05
-0.00762744
-2.69729e-05
-0.00766128
-2.83648e-05
-0.00769974
-1.92528e-05
-0.00773119
-2.14966e-05
-0.00775226
-2.69282e-05
-0.00776375
-3.20507e-05
-0.00777454
-2.86063e-05
-0.00778618
-2.28237e-05
-0.00779912
-1.70391e-05
-0.00780104
-2.28281e-05
-0.00779377
-2.60234e-05
-0.00777463
-3.13394e-05
-0.00775152
-3.02356e-05
-0.0077241
-2.9029e-05
-0.00769313
-2.70279e-05
-0.00765852
-2.48082e-05
-0.00762116
-2.18438e-05
-0.00757923
-2.06629e-05
-0.00753139
-2.16277e-05
-0.00747824
-2.29629e-05
-0.00742007
-2.36322e-05
-0.00735855
-2.16879e-05
-0.00729391
-2.08824e-05
-0.00722496
-2.18131e-05
-0.00714815
-2.64886e-05
-0.00706493
-2.94659e-05
-0.00697447
-3.31034e-05
-0.00688204
-3.06773e-05
-0.00678509
-3.06672e-05
-0.00668501
-2.80079e-05
-0.00657897
-2.8175e-05
-0.0064711
-2.39806e-05
-0.00635998
-2.17862e-05
-0.00625159
-1.33283e-05
-0.00614344
-7.42395e-06
-0.00603588
-2.90802e-06
-0.0059163
-9.72038e-06
-0.00579104
-1.24331e-05
-0.00565596
-1.88122e-05
-0.0055164
-2.16412e-05
-0.00537542
-2.1647e-05
-0.00524027
-1.8981e-05
-0.00511936
-9.30325e-06
-0.00500951
-6.00224e-06
-0.00491738
5.18787e-06
-0.00483278
6.60907e-06
-0.0047577
1.14733e-05
-0.00468123
7.9894e-06
-0.00459288
-4.75001e-06
-0.00450353
-5.29951e-06
-0.00441747
-2.14534e-06
-0.00433164
-3.03532e-06
-0.00425302
6.38133e-07
-0.00417737
-3.6547e-07
-0.00410266
-5.01212e-06
-0.00403377
-5.23706e-06
-0.00397034
-6.77265e-06
-0.00391549
-5.50756e-06
-0.0038702
-3.24729e-06
-0.00382933
-5.18995e-06
-0.00379397
-6.07101e-06
-0.0037634
-5.6895e-06
-0.00373764
-5.34475e-06
-0.00371433
-7.0011e-06
-0.003694
-8.18521e-06
-0.0036788
-6.79488e-06
-0.00366898
-6.07857e-06
-0.00366764
-2.82105e-06
-0.00367145
-2.63008e-06
-0.00368161
-2.77129e-06
-0.00369339
-5.43825e-06
-0.00370784
-8.16579e-06
-0.00372592
-9.80169e-06
-0.00375053
-8.89081e-06
-0.00378383
-6.22603e-06
-0.00382554
-3.32956e-06
-0.0038731
-1.9843e-06
-0.00392457
-2.04887e-06
-0.00398058
-1.39652e-06
-0.00404258
6.81749e-07
-0.00411155
4.09886e-06
-0.00418629
5.83198e-06
-0.00426397
4.58356e-06
-0.0043444
3.06679e-06
-0.00442565
-1.16048e-06
-0.00451002
-2.93629e-06
-0.00459834
-4.10496e-06
-0.00469098
-4.91792e-06
-0.00478268
-1.07583e-05
-0.00487336
-1.48741e-05
-0.00496545
-1.59162e-05
-0.00505622
-1.7479e-05
-0.00515287
-1.18425e-05
-0.00524674
-1.32869e-05
-0.00533789
-1.55203e-05
-0.00542708
-1.6923e-05
-0.00552416
-6.6195e-06
-0.00562241
-4.47595e-06
-0.00572538
1.41193e-06
-0.00582582
1.45229e-07
-0.0059261
9.22941e-07
-0.00602324
-8.36064e-07
-0.00611549
-3.94932e-06
-0.00619955
-9.46472e-06
-0.0062755
-1.41293e-05
-0.00634219
-1.92428e-05
-0.00639941
-2.41519e-05
-0.00645786
-1.84015e-05
-0.00652398
-5.86196e-06
-0.00658486
-6.07983e-06
-0.00664253
-5.29003e-06
-0.00669256
-8.34831e-06
-0.00674187
-5.18458e-06
-0.00679007
-2.07821e-06
-0.00683413
-1.69111e-06
-0.00687297
-1.97315e-06
-0.00690582
-2.62194e-06
-0.00692761
-8.64686e-06
-0.00694631
-6.27581e-06
-0.0069601
-5.51153e-06
-0.00697144
-2.49692e-06
-0.00697681
-2.75554e-06
-0.00697851
-8.79109e-07
-0.00697273
-1.63858e-06
-0.00696179
2.69806e-07
-0.00694212
-1.28799e-06
-0.0069177
6.13521e-07
-0.00688445
-1.88269e-06
-0.00684525
-2.70277e-06
-0.00680008
-5.10323e-06
-0.0067535
-4.15444e-06
-0.00670445
-4.38667e-06
-0.00665063
-6.81923e-06
-0.00659149
-9.3747e-06
-0.00652788
-1.02082e-05
-0.00645784
-1.29118e-05
-0.00638405
-1.23713e-05
-0.00630397
-1.45436e-05
-0.00622066
-1.34339e-05
-0.00613349
-1.31362e-05
-0.00604623
-8.95899e-06
-0.00595262
-1.12218e-05
-0.0058546
-1.12177e-05
-0.00575442
-1.00729e-05
-0.00565394
-7.5449e-06
-0.00555823
2.14302e-07
-0.00546601
6.78342e-06
-0.00537205
6.9441e-06
-0.00527003
1.22859e-06
-0.00516148
-4.03151e-06
-0.00504452
-1.186e-05
-0.00492079
-1.9018e-05
-0.0047937
-2.35601e-05
-0.00466871
-2.36588e-05
-0.00455457
-1.54549e-05
-0.00444904
-1.05179e-05
-0.0043572
2.33035e-08
-0.00427409
4.60805e-06
-0.00419106
9.28588e-07
-0.00410721
-2.80425e-06
-0.00402419
-4.72752e-06
-0.00394209
-6.30419e-06
-0.00386451
-4.31031e-06
-0.003785
-8.13582e-06
-0.00370322
-1.28321e-05
-0.00361799
-1.92729e-05
-0.00353874
-1.667e-05
-0.00345563
-2.49912e-05
-0.00337356
-2.87386e-05
-0.00328927
-3.6466e-05
-0.00320577
-4.19971e-05
-0.00311584
-5.31408e-05
-0.00303166
-5.19852e-05
-0.00293628
-6.73122e-05
-0.00285865
-5.5725e-05
-0.00278432
-5.97807e-05
-0.00271827
-5.76754e-05
-6.09943e-05
-0.000791481
0.00020571
-0.00209839
0.000350862
-0.00293612
0.00021777
-0.00431033
0.000656663
-0.00543275
0.000468482
-0.00682653
0.000694732
-0.0079695
0.000565883
-0.00943182
0.000699768
-0.010574
0.000603944
-0.0120387
0.000834001
-0.0132212
0.000723068
-0.0146477
0.000838109
-0.0158429
0.000754708
-0.0172509
0.000848879
-0.0184245
0.000787799
-0.0198152
0.000912381
-0.0209653
0.000769543
-0.0223199
0.000897007
-0.0234449
0.000762129
-0.0247529
0.000832129
-0.0257918
0.000716619
-0.0271038
0.000860251
-0.0281049
0.000711005
-0.0294302
0.000881408
-0.0304194
0.000691332
-0.0317752
0.000917927
-0.0327621
0.000743169
-0.0341401
0.00101754
-0.0351885
0.000936837
-0.0366403
0.00123578
-0.0377941
0.00124628
-0.0393574
0.00153988
-0.0405955
0.00152607
-0.0421492
0.00166899
-0.0433612
0.00154578
-0.0448849
0.00176622
-0.046105
0.0016689
-0.0476267
0.00179528
-0.0487411
0.00163707
-0.0501356
0.00169917
-0.0511443
0.00154641
-0.0522842
0.00151021
-0.0531985
0.00125888
-0.053994
0.000897568
-0.0546603
0.000651858
-0.0550636
0.000141985
-0.0553449
-0.000193375
-0.0554303
-0.000448451
-0.0553973
-0.000621098
-0.0552536
-0.000817786
-0.0548859
-0.00101335
-0.0545592
-0.00106621
-0.0541977
-0.00114853
-0.0533676
-0.00165734
-0.0526965
-0.00168678
-0.0515733
-0.00206316
-0.0506695
-0.00178121
-0.0497927
-0.00174617
-0.0487257
-0.00195322
-0.0477175
-0.00201848
-0.0465464
-0.00203128
-0.0457252
-0.00167667
-0.0446379
-0.00184396
-0.0438735
-0.00150455
-0.0429816
-0.00151933
-0.0424221
-0.00110868
-0.0417533
-0.00112408
-0.0414124
-0.000714925
-0.0410617
-0.000739456
-0.0409666
-0.000541481
-0.0410598
-0.000336719
-0.0411537
-0.000237997
-0.0417048
0.000328943
-0.0420666
0.000443383
-0.0430351
0.00107522
-0.0436769
0.00121366
-0.0450096
0.00190196
-0.0459458
0.00198012
-0.0474532
0.00248446
-0.0485276
0.0025007
-0.0500883
0.00287273
-0.05126
0.00284184
-0.0526081
0.00295526
-0.0537112
0.00284665
-0.0545269
0.00253203
-0.0554194
0.00231116
-0.0558848
0.00154341
-0.056192
0.00106448
-0.0563304
0.000440467
-0.056069
-0.000311909
-0.0556924
-0.000904136
-0.0545017
-0.00222825
-0.0532007
-0.00246807
-0.0511499
-0.00300067
-0.0493688
-0.00313504
-0.0471448
-0.00348107
-0.0447101
-0.00408526
-0.0420932
-0.00442302
-0.03905
-0.00487428
-0.0365615
-0.00401018
-0.0344928
-0.00360663
-0.0321434
-0.00419708
-0.0293006
-0.00467015
-0.0270397
-0.00393711
-0.0249317
-0.00323226
-0.0231524
-0.00294511
-0.021094
-0.00344272
-0.01873
-0.00418234
-0.0158778
-0.00474042
-0.0132677
-0.00470584
-0.0110781
-0.00386922
-0.00928693
-0.00325905
-0.00701131
-0.00363047
-0.00508967
-0.00316543
-0.00285761
-0.00325963
-0.0012698
-0.00285234
-0.000130291
-0.00212
0.0013629
-0.00214352
0.00239815
-0.00164107
0.00383061
-0.00168757
0.00467807
-0.00123128
0.0057721
-0.00136247
0.00635652
-0.00077211
0.00730324
-0.00108853
0.00769676
-0.00063715
0.0081947
-0.000483586
0.00880932
-0.000795335
0.00944637
-0.000753021
0.00968226
-0.000339944
0.00988099
-0.000220174
0.0103806
-0.0005269
0.0106159
-0.000303994
0.0107081
-0.000157322
0.0110899
-0.000395258
0.0113923
-0.000405271
0.0116175
-0.000401094
0.0119262
-0.000400968
0.0120256
-0.000187103
0.0120509
-8.44894e-05
0.0120387
-3.56263e-05
0.0119302
9.46332e-05
0.0118584
7.48577e-05
0.0115618
0.000346427
0.0112658
0.000356428
0.0108611
0.000503553
0.0104407
0.000480736
0.00981991
0.000765281
0.00908776
0.000878393
0.00844762
0.000885217
0.00773234
0.000769677
0.00704995
0.00078162
0.00604614
0.00113828
0.004998
0.001387
0.00396864
0.00110205
0.00324459
0.000894423
0.00176011
0.00159802
0.000945829
0.000861666
0.000227363
0.000626741
-0.000448745
0.00108399
-0.00156272
0.00191426
-0.00276774
0.0017093
-0.00381306
0.00149319
-0.00489
0.00175527
-0.00638217
0.00230153
-0.00785088
0.00209503
-0.00898244
0.00177037
-0.00994104
0.00149785
-0.0111177
0.00180221
-0.0123741
0.00170377
-0.0134457
0.00129044
-0.0145125
0.00123308
-0.0154688
0.00116945
-0.0166074
0.00139746
-0.017517
0.00124406
-0.018579
0.00109281
-0.0193701
0.0010449
-0.0204577
0.00138815
-0.0213337
0.00142756
-0.0223333
0.00124404
-0.0231238
0.00116104
-0.0240848
0.00129452
-0.0248432
0.00137236
-0.0257206
0.00133307
-0.0264341
0.00130149
-0.0270907
0.00120847
-0.0277021
0.00112092
-0.0281151
0.000865297
-0.0285433
0.000743894
-0.0287401
0.000354298
-0.0289764
0.000201688
-0.0290596
-7.82362e-05
-0.0290942
-0.000230418
-0.0289812
-0.000452398
-0.0289074
-0.000516395
-0.0286429
-0.000695852
-0.0283639
-0.000665402
-0.0280639
-0.00067135
-0.0277309
-0.000664479
-0.027339
-0.000847991
-0.0268829
-0.000911739
-0.0263737
-0.00103584
-0.0258006
-0.0010483
-0.0252014
-0.00111369
-0.0245077
-0.00120988
-0.0239949
-0.00106349
-0.0234375
-0.000952977
-0.0229169
-0.000930631
-0.0222768
-0.00108069
-0.0216779
-0.00104932
-0.020993
-0.00110337
-0.0204531
-0.000938348
-0.0198111
-0.00102495
-0.0192417
-0.00096667
-0.0186069
-0.00101997
-0.018075
-0.000890161
-0.0174243
-0.0010152
-0.0169078
-0.00087296
-0.0162707
-0.000982555
-0.0157662
-0.000841298
-0.0151089
-0.000989878
-0.0146466
-0.000778761
-0.0140247
-0.000889991
-0.0136268
-0.000664943
-0.01307
-0.000755273
-0.0126865
-0.000580551
-0.0121573
-0.000710306
-0.0117808
-0.000526876
-0.0113367
-0.000613709
-0.0109767
-0.000537721
-0.0105431
-0.00063801
-0.0101741
-0.000571566
-0.00971777
-0.000603709
-0.00942416
-0.000408161
-0.00901747
-0.000459947
-0.00876015
-0.0003229
-0.00842391
-0.000299564
-0.00811508
-0.000352303
-0.00779492
-0.000359489
-0.00744157
-0.0003925
-0.00719639
-0.000255202
-0.00689212
-0.000275639
-0.00672103
-0.00013117
-0.00650455
-0.000149742
-0.00635455
-7.64215e-05
-0.00619349
-8.02229e-05
-0.00604524
-6.05427e-05
-0.00589444
-5.51215e-05
-0.00575863
-3.41951e-05
-0.00561899
-3.8615e-05
-0.00549547
-1.92259e-05
-0.00537643
-1.02459e-05
-0.00527249
8.92853e-06
-0.00517195
9.04342e-06
-0.0050746
-1.87989e-06
-0.00498206
-1.21885e-07
-0.00489358
1.04154e-06
-0.0048112
6.16394e-06
-0.00473227
1.22932e-06
-0.00465042
-1.92376e-05
-0.00457284
-2.13888e-05
-0.00449876
-2.31707e-05
-0.0044313
-1.55093e-05
-0.0043677
-1.30181e-05
-0.00430526
-2.33337e-05
-0.00424434
-3.46477e-05
-0.00418913
-3.5984e-05
-0.00414379
-3.05722e-05
-0.00410921
-1.93988e-05
-0.00408772
1.23472e-06
-0.00407522
7.09741e-06
-0.00406906
1.75685e-06
-0.00406819
-2.27247e-06
-0.00407017
-5.84167e-06
-0.00407525
-1.15606e-05
-0.00408674
-1.47814e-05
-0.00410339
-1.58433e-05
-0.00412728
-1.07567e-05
-0.00415512
-6.46382e-06
-0.0041928
3.22531e-06
-0.0042328
6.60335e-06
-0.00428096
9.80693e-06
-0.00433249
6.68678e-06
-0.0043888
3.36238e-06
-0.00444622
-6.23546e-06
-0.00450944
-9.85206e-06
-0.00457622
-1.36052e-05
-0.00465033
-2.08289e-05
-0.00473161
-2.313e-05
-0.00482353
-2.45737e-05
-0.0049226
-3.23582e-05
-0.0050337
-3.18277e-05
-0.005153
-3.62727e-05
-0.00528569
-2.06783e-05
-0.00542556
-1.71245e-05
-0.00556182
-1.30769e-05
-0.005694
-1.67488e-05
-0.00581408
-2.19022e-05
-0.00592196
-2.32227e-05
-0.00600812
-5.24582e-05
-0.0060929
-4.17382e-05
-0.0061795
-3.83593e-05
-0.00627632
-2.38891e-05
-0.00639082
-1.03087e-06
-0.00651363
2.57768e-06
-0.00664197
-2.0421e-06
-0.00677379
-1.27909e-05
-0.00690155
-2.51417e-05
-0.00702904
-2.77226e-05
-0.00714771
-4.32983e-05
-0.00725936
-5.27878e-05
-0.00737106
-4.3102e-05
-0.00748417
-2.80797e-05
-0.00760184
-1.18525e-05
-0.00771296
-2.02313e-05
-0.00781654
-2.8067e-05
-0.00791745
-1.9398e-05
-0.00800915
-3.09676e-05
-0.00809252
-2.98875e-05
-0.00816621
-3.65747e-05
-0.00823111
-4.98758e-05
-0.00828642
-5.72148e-05
-0.00834205
-4.28995e-05
-0.00839487
-4.26135e-05
-0.00843794
-4.78616e-05
-0.00848048
-3.46168e-05
-0.00851675
-3.7713e-05
-0.00854589
-4.53157e-05
-0.00856973
-5.15516e-05
-0.00858848
-4.81363e-05
-0.00860355
-4.15043e-05
-0.00861451
-3.43075e-05
-0.00861795
-4.31414e-05
-0.00861317
-4.91039e-05
-0.00860076
-5.52418e-05
-0.00858366
-5.38792e-05
-0.00856109
-5.27697e-05
-0.00853351
-5.06741e-05
-0.00850027
-4.79992e-05
-0.00846221
-4.46341e-05
-0.00841825
-4.35152e-05
-0.00836926
-4.48969e-05
-0.00831533
-4.72461e-05
-0.00825754
-4.75432e-05
-0.00819394
-4.61255e-05
-0.00812592
-4.54074e-05
-0.00805119
-4.94021e-05
-0.00797033
-5.67604e-05
-0.00788155
-6.38662e-05
-0.00778919
-6.75964e-05
-0.00769077
-6.6505e-05
-0.00759016
-6.5181e-05
-0.00748389
-6.13865e-05
-0.00737395
-6.03031e-05
-0.0072599
-5.38173e-05
-0.00714529
-4.75341e-05
-0.00702672
-3.66852e-05
-0.00691058
-2.37567e-05
-0.00678981
-1.8838e-05
-0.00665263
-3.74482e-05
-0.00652072
-3.14799e-05
-0.00636637
-5.66546e-05
-0.00622841
-4.1475e-05
-0.00606729
-6.42056e-05
-0.00593722
-3.41669e-05
-0.00579434
-4.16896e-05
-0.00568463
-1.40524e-05
-0.00558016
-3.35688e-06
-0.0054862
4.23662e-06
-0.00539994
1.06981e-05
-0.00531123
3.88716e-06
-0.0052066
-2.60907e-05
-0.00510964
-1.70603e-05
-0.00501329
-1.40995e-05
-0.004918
-1.45966e-05
-0.00482771
-1.016e-05
-0.00474125
-1.15753e-05
-0.00465831
-1.86357e-05
-0.00458151
-1.86021e-05
-0.00451108
-2.07809e-05
-0.00444829
-1.86778e-05
-0.00439371
-1.57144e-05
-0.00434511
-1.7988e-05
-0.00430261
-1.93557e-05
-0.00426559
-1.78933e-05
-0.00423208
-1.87224e-05
-0.00420487
-1.80312e-05
-0.00418031
-2.07964e-05
-0.00416152
-1.70755e-05
-0.00414784
-1.61393e-05
-0.00414127
-1.11198e-05
-0.00414185
-8.99133e-06
-0.00414756
-1.00951e-05
-0.00415753
-1.31416e-05
-0.004172
-1.66532e-05
-0.00419229
-1.7794e-05
-0.00421862
-1.65679e-05
-0.00425409
-1.08459e-05
-0.00429563
-7.10608e-06
-0.00434502
-2.65174e-06
-0.00439824
-2.68298e-06
-0.00445951
1.75855e-06
-0.00452362
3.06619e-06
-0.00459685
1.1743e-05
-0.00467211
1.20995e-05
-0.00475461
1.35077e-05
-0.00483863
9.41459e-06
-0.00492691
4.17217e-06
-0.00501558
-1.6676e-06
-0.00511003
-2.69221e-06
-0.00520937
-2.69635e-06
-0.00530548
-1.93767e-05
-0.00540649
-1.92854e-05
-0.00550473
-2.44493e-05
-0.00560565
-2.46648e-05
-0.00570961
-1.42324e-05
-0.00581486
-1.51069e-05
-0.00591164
-2.46823e-05
-0.00601379
-2.24246e-05
-0.00611547
-8.12403e-06
-0.00622092
-1.72202e-06
-0.00633229
1.14898e-05
-0.00643915
6.97798e-06
-0.00654772
1.05535e-05
-0.00665085
4.73801e-06
-0.00674617
-4.10318e-06
-0.00684127
-7.69646e-06
-0.00692166
-2.4068e-05
-0.00700244
-2.5439e-05
-0.00707229
-3.71461e-05
-0.00714082
-2.72241e-05
-0.00721238
-6.27962e-06
-0.00727943
-6.04158e-06
-0.00734174
-5.52829e-06
-0.00740075
-7.69661e-06
-0.00745472
-5.54521e-06
-0.00750831
1.4284e-06
-0.00755523
-5.11714e-07
-0.00759967
1.63693e-06
-0.00763467
-3.27738e-06
-0.00766444
-9.15464e-06
-0.00768624
-9.3811e-06
-0.00770502
-6.25465e-06
-0.00771679
-4.53238e-06
-0.00772434
-3.51386e-06
-0.00772551
-2.09654e-06
-0.0077215
-1.36862e-06
-0.00771025
-6.43473e-08
-0.00769266
-1.49645e-06
-0.00766519
-2.3833e-06
-0.00763323
-3.07541e-06
-0.00759118
-8.45989e-06
-0.0075458
-1.02434e-05
-0.00749473
-1.23223e-05
-0.00744148
-1.27388e-05
-0.00738368
-1.7458e-05
-0.00732065
-2.27189e-05
-0.00725285
-2.46142e-05
-0.00717871
-3.01014e-05
-0.00709984
-2.98796e-05
-0.00701499
-3.41122e-05
-0.00692615
-3.24852e-05
-0.00683202
-3.34293e-05
-0.00673625
-2.62809e-05
-0.00663516
-2.99761e-05
-0.00653256
-2.69948e-05
-0.00642668
-2.63104e-05
-0.00632288
-1.91835e-05
-0.00621776
-9.36153e-06
-0.00611772
5.11312e-06
-0.00601038
4.35829e-07
-0.00589257
-1.33466e-05
-0.0057745
-1.76673e-05
-0.00563634
-4.48666e-05
-0.00551327
-3.74339e-05
-0.00536857
-6.36375e-05
-0.00525117
-4.00668e-05
-0.0051186
-4.88942e-05
-0.00501342
-2.09232e-05
-0.00490655
-1.51854e-05
-0.00481412
-6.02279e-09
-0.00471527
-1.42176e-05
-0.00462528
-1.21959e-05
-0.00452349
-2.82952e-05
-0.00443797
-1.66537e-05
-0.00434024
-2.90719e-05
-0.00425731
-1.95298e-05
-0.00416079
-4.20762e-05
-0.00407561
-3.86473e-05
-0.00398617
-4.33172e-05
-0.00388815
-6.41116e-05
-0.00380633
-5.70598e-05
-0.00371211
-8.26682e-05
-0.00363187
-8.01661e-05
-0.00353771
-0.000110873
-0.00345592
-0.000100516
-0.00335918
-0.00013501
-0.00327617
-0.000116389
-0.00318254
-0.000138228
-0.00312566
-0.000105488
-0.000108515
-0.0010723
0.000640271
-0.00211219
0.000753184
-0.00379891
0.00127472
-0.00513392
0.00134665
-0.00699138
0.00170885
-0.0084286
0.00147422
-0.0101677
0.00166375
-0.0117033
0.00163741
-0.0134677
0.00173033
-0.014968
0.0017455
-0.0166846
0.00182813
-0.0181584
0.0016969
-0.0197976
0.00177838
-0.0211948
0.00164002
-0.0227602
0.00174709
-0.0240834
0.00164428
-0.0255941
0.00169545
-0.0269275
0.0016602
-0.0283921
0.00165742
-0.02963
0.00151082
-0.0310996
0.00162605
-0.032227
0.00144097
-0.0336962
0.00164012
-0.0348374
0.00150063
-0.0363828
0.00171607
-0.0375743
0.00161014
-0.0391497
0.00182961
-0.0403452
0.00173809
-0.0419238
0.00205125
-0.0431632
0.00203172
-0.0447612
0.00239842
-0.0459775
0.00233287
-0.0475332
0.0026612
-0.048733
0.00245766
-0.0501865
0.00259981
-0.0513316
0.00252161
-0.0527408
0.00269449
-0.0537611
0.00247959
-0.0550435
0.00250263
-0.0560054
0.00227261
-0.0569586
0.0021788
-0.0578655
0.00199934
-0.0585245
0.00165266
-0.0592757
0.00133806
-0.0597193
0.000791876
-0.0602008
0.000333338
-0.0605238
-0.000162015
-0.0607175
-0.000541126
-0.0607934
-0.000834095
-0.0605569
-0.00132779
-0.0603503
-0.00148647
-0.0598273
-0.001862
-0.0592401
-0.0019838
-0.05854
-0.00260259
-0.0574939
-0.00297147
-0.0565061
-0.00326441
-0.0554351
-0.00305738
-0.0542632
-0.00310125
-0.0531508
-0.00323599
-0.0518151
-0.0035276
-0.0508022
-0.00319097
-0.049559
-0.00305885
-0.0485866
-0.00295568
-0.0473559
-0.00285086
-0.0466003
-0.00243741
-0.0455891
-0.00225976
-0.0449954
-0.00183267
-0.0442504
-0.00157593
-0.044069
-0.00103592
-0.0439502
-0.000763412
-0.0440757
-0.000297174
-0.044671
0.000279378
-0.0450582
0.000652549
-0.046079
0.00139641
-0.0467131
0.0016744
-0.0479147
0.00238501
-0.0487512
0.00266992
-0.0500802
0.00327909
-0.0510041
0.0033645
-0.0522782
0.00376001
-0.0531896
0.0037539
-0.0544005
0.00403273
-0.0552069
0.00375059
-0.0560401
0.00368714
-0.0567618
0.00325546
-0.057132
0.00265879
-0.0575309
0.00198823
-0.057633
0.00121272
-0.0575884
0.000431064
-0.0574452
-0.000412953
-0.0568673
-0.00145034
-0.0564705
-0.00257064
-0.0547512
-0.00410706
-0.0527455
-0.00493387
-0.0507272
-0.0050808
-0.0481077
-0.00603712
-0.0453919
-0.00671246
-0.0420037
-0.00772613
-0.0388452
-0.00796536
-0.0362845
-0.00646058
-0.0341908
-0.00559426
-0.0313632
-0.00692688
-0.0286938
-0.00724097
-0.0260863
-0.0064635
-0.024265
-0.00492588
-0.0219845
-0.00511907
-0.019551
-0.00577493
-0.0167012
-0.00692768
-0.0139624
-0.0074147
-0.0116875
-0.00688891
-0.0097094
-0.00575012
-0.00770006
-0.00517996
-0.00557966
-0.00565721
-0.00340381
-0.00523945
-0.00164356
-0.00491439
0.00015834
-0.00454094
0.00160404
-0.00344592
0.00331918
-0.00376584
0.00477621
-0.00301926
0.00639591
-0.00324365
0.00764675
-0.00243777
0.00899424
-0.00268173
0.010062
-0.00183714
0.0111435
-0.00213996
0.011913
-0.00134713
0.0130588
-0.00159314
0.0141085
-0.00181141
0.0146337
-0.0012585
0.0150402
-0.000736334
0.0159431
-0.00109094
0.0165598
-0.00113035
0.0170088
-0.000718597
0.0173596
-0.000499418
0.0177313
-0.000765174
0.018146
-0.000818193
0.0186502
-0.000904859
0.0189361
-0.000708791
0.0191681
-0.000435154
0.0192644
-0.000218069
0.0192506
-5.91432e-05
0.0192638
4.93806e-05
0.0190419
0.000242943
0.0188873
0.000476098
0.0184483
0.000753288
0.018083
0.00081697
0.017427
0.00109404
0.0167751
0.00136913
0.0159076
0.00167848
0.0149593
0.00177266
0.0138085
0.00188124
0.0127548
0.0017406
0.011626
0.00217437
0.00993244
0.00299202
0.00818256
0.00274515
0.00678776
0.00218513
0.00538606
0.00289312
0.0034685
0.00267383
0.00233162
0.00164564
0.00132496
0.00197102
-7.12586e-05
0.00319684
-0.00163879
0.00317137
-0.00309374
0.00286318
-0.00439094
0.00293025
-0.00553887
0.00329957
-0.00721913
0.00363506
-0.00878031
0.00321228
-0.00997331
0.00256724
-0.0109284
0.00263195
-0.0124432
0.00308318
-0.0141857
0.00287858
-0.0154581
0.00238704
-0.01647
0.00204175
-0.0176799
0.0024748
-0.018959
0.00237408
-0.0199262
0.0019245
-0.0208989
0.00186687
-0.0218904
0.00224248
-0.023059
0.00245732
-0.0239662
0.00201472
-0.0248995
0.00195925
-0.0256814
0.00193379
-0.0265616
0.0021115
-0.027252
0.00189405
-0.0278664
0.0017769
-0.0283931
0.00159461
-0.0287725
0.00137262
-0.0292329
0.00119102
-0.0294223
0.000808927
-0.0296855
0.00049578
-0.0298124
0.000200337
-0.0299441
-6.05257e-05
-0.0299548
-0.000331251
-0.0299713
-0.000544757
-0.0298427
-0.000741306
-0.0296693
-0.000962055
-0.0293947
-0.00103122
-0.0290614
-0.00108847
-0.0287015
-0.0011087
-0.0283138
-0.00131091
-0.0278558
-0.00144046
-0.0273153
-0.00164347
-0.0267741
-0.00165096
-0.026083
-0.00186411
-0.0254397
-0.00190727
-0.024723
-0.00182765
-0.0242134
-0.00150687
-0.0236609
-0.00152046
-0.0230538
-0.00171791
-0.0222026
-0.00192457
-0.0215799
-0.00173968
-0.0209303
-0.00159109
-0.0203868
-0.00156475
-0.0195877
-0.00175548
-0.0190381
-0.00155485
-0.018274
-0.00163497
-0.0177501
-0.00152476
-0.0170021
-0.00158906
-0.0165172
-0.00144036
-0.0157718
-0.0015306
-0.0152862
-0.00142711
-0.0145697
-0.00143792
-0.0141368
-0.00125882
-0.0134922
-0.00125389
-0.0130917
-0.00110513
-0.0124986
-0.00111558
-0.0121204
-0.00101321
-0.0115653
-0.00102045
-0.0112405
-0.000863709
-0.0107484
-0.000978753
-0.0104247
-0.000895593
-0.0099607
-0.000955423
-0.0096661
-0.000812565