/*--------------------------------*- C++ -*----------------------------------*\
| =========                 |                                                 |
| \\      /  F ield         | OpenFOAM: The Open Source CFD Toolbox           |
|  \\    /   O peration     | Version:  v1812                                 |
|   \\  /    A nd           | Web:      www.OpenFOAM.com                      |
|    \\/     M anipulation  |                                                 |
\*---------------------------------------------------------------------------*/
FoamFile
{
    version     2.0;
    format      ascii;
    class       volScalarField;
    location    "0.6";
    object      T;
}
// * * * * * * * * * * * * * * * * * * * * * * * * * * * * * * * * * * * * * //

dimensions      [0 0 0 1 0 0 0];


internalField   nonuniform List<scalar> 
20400
(
291.205
291.205
291.193
291.164
291.083
290.964
290.82
290.664
290.526
290.409
290.322
290.257
290.216
290.185
290.169
290.16
290.156
290.158
290.168
290.201
290.255
290.33
290.42
290.526
290.644
290.781
290.935
291.111
291.305
291.519
291.737
291.965
292.178
292.393
292.6
292.823
293.043
293.267
293.462
293.639
293.806
293.96
294.083
294.196
294.288
294.377
294.444
294.507
294.553
294.586
294.605
294.625
294.634
294.632
294.637
294.621
294.626
294.605
294.583
294.522
294.482
294.408
294.322
294.198
294.065
293.903
293.743
293.574
293.412
293.249
293.099
292.95
292.829
292.712
292.609
292.517
292.439
292.357
292.285
292.216
292.154
292.097
292.044
292
291.949
291.894
291.826
291.749
291.664
291.582
291.518
291.46
291.474
291.432
291.417
291.394
291.382
291.362
291.365
291.367
291.363
291.366
291.372
291.351
291.344
291.315
291.276
291.245
291.212
291.202
291.204
291.189
291.178
291.163
291.169
291.142
291.129
291.122
291.128
291.126
291.138
291.168
291.19
291.223
291.236
291.271
291.29
291.327
291.366
291.417
291.462
291.521
291.577
291.639
291.709
291.791
291.878
291.981
292.089
292.209
292.34
292.495
292.671
292.87
293.087
293.318
293.56
293.787
293.988
294.141
294.267
294.353
294.389
294.385
294.39
294.386
294.318
294.186
293.976
293.709
293.401
293.072
292.739
292.452
292.217
292.017
291.877
291.762
291.688
291.613
291.58
291.573
291.575
291.567
291.557
291.564
291.574
291.571
291.551
291.537
291.531
291.518
291.503
291.495
291.49
291.49
291.486
291.488
291.489
291.493
291.503
291.513
291.519
291.522
291.518
291.524
291.528
291.533
291.529
291.532
291.529
291.531
291.528
291.528
291.528
291.536
291.538
291.541
291.538
291.537
291.543
291.558
291.574
291.595
291.618
291.647
291.681
291.722
291.766
291.819
291.869
291.927
291.982
292.044
292.105
292.166
292.218
292.265
292.31
292.351
292.396
292.444
292.491
292.533
292.577
292.609
292.639
292.663
292.686
292.708
292.733
292.758
292.781
292.803
292.82
292.836
292.849
292.86
292.867
292.873
292.876
292.878
292.879
292.879
292.878
292.876
292.872
292.867
292.862
292.856
292.85
292.844
292.837
292.83
292.824
292.818
292.813
292.809
292.806
292.804
292.804
292.805
292.806
292.808
292.81
292.813
292.817
292.82
292.824
292.828
292.833
292.838
292.843
292.849
292.855
292.862
292.871
292.88
292.889
292.9
292.913
292.926
292.94
292.955
292.97
292.984
292.998
293.01
293.021
293.032
293.042
293.052
293.061
293.071
293.082
293.093
293.106
293.118
293.131
293.144
293.157
293.169
293.181
293.192
293.202
293.212
293.222
293.231
293.241
293.25
293.259
293.267
293.276
293.285
293.294
293.302
293.31
293.317
293.324
293.33
293.337
293.342
293.347
293.352
293.356
293.359
293.361
293.363
293.364
293.365
293.365
293.365
293.364
293.364
293.363
293.361
293.359
293.356
293.353
293.349
293.345
293.341
293.337
293.332
293.327
293.321
293.315
293.309
293.301
293.293
293.285
293.276
293.267
293.259
293.251
293.245
293.239
293.232
293.226
293.218
293.211
293.204
293.197
293.19
293.183
293.177
293.171
293.166
293.161
293.157
293.153
293.15
293.147
293.143
293.14
293.137
293.135
293.133
293.133
293.133
293.134
293.136
293.137
293.139
293.141
293.143
293.145
293.147
293.15
293.154
293.158
293.162
293.167
293.172
293.177
293.183
293.189
293.194
293.201
293.207
293.214
293.221
293.229
293.236
293.244
293.251
293.26
293.268
293.277
293.286
293.295
293.304
293.313
293.322
293.33
293.338
293.346
293.353
293.361
293.368
293.375
293.382
293.387
293.392
293.397
293.402
293.406
293.41
293.415
293.42
293.425
293.431
293.436
293.442
293.448
293.454
293.459
293.465
293.471
293.477
293.483
293.489
293.494
293.499
293.504
293.508
293.512
293.516
293.52
293.523
293.526
293.529
293.532
293.534
293.537
293.539
293.541
293.542
293.544
293.545
293.546
293.547
293.549
293.55
293.551
293.553
293.556
293.559
293.561
293.564
293.566
293.568
293.57
293.571
293.57
293.569
293.564
293.555
293.542
293.527
293.509
293.489
293.467
293.443
293.425
293.416
293.416
293.419
293.429
293.435
291.207
291.202
291.203
291.171
291.085
290.968
290.817
290.663
290.518
290.403
290.316
290.25
290.207
290.174
290.16
290.148
290.148
290.145
290.159
290.184
290.249
290.314
290.417
290.512
290.643
290.767
290.934
291.098
291.304
291.506
291.736
291.951
292.177
292.376
292.597
292.794
293.035
293.232
293.471
293.598
293.789
293.892
294.063
294.111
294.256
294.3
294.411
294.447
294.513
294.524
294.553
294.548
294.57
294.58
294.572
294.582
294.55
294.572
294.517
294.512
294.419
294.407
294.271
294.19
294.013
293.888
293.698
293.557
293.377
293.239
293.07
292.937
292.807
292.703
292.596
292.511
292.421
292.35
292.265
292.208
292.13
292.088
292.019
291.988
291.923
291.878
291.784
291.725
291.615
291.559
291.476
291.45
291.388
291.388
291.33
291.338
291.285
291.289
291.279
291.304
291.287
291.293
291.286
291.308
291.269
291.27
291.209
291.197
291.186
291.182
291.185
291.18
291.152
291.148
291.127
291.137
291.118
291.117
291.111
291.106
291.124
291.13
291.176
291.18
291.222
291.223
291.261
291.278
291.346
291.357
291.438
291.47
291.547
291.582
291.681
291.731
291.851
291.918
292.058
292.141
292.307
292.42
292.637
292.788
293.06
293.235
293.533
293.712
293.976
294.097
294.245
294.319
294.373
294.379
294.374
294.365
294.321
294.169
293.975
293.694
293.399
293.063
292.764
292.46
292.244
292.057
291.937
291.797
291.737
291.665
291.619
291.59
291.589
291.579
291.564
291.566
291.574
291.569
291.551
291.536
291.527
291.516
291.5
291.493
291.485
291.488
291.485
291.487
291.486
291.492
291.5
291.51
291.517
291.518
291.518
291.518
291.525
291.526
291.527
291.525
291.528
291.525
291.527
291.523
291.53
291.531
291.536
291.529
291.531
291.525
291.534
291.534
291.556
291.558
291.594
291.602
291.651
291.67
291.734
291.763
291.845
291.871
291.955
291.985
292.081
292.112
292.196
292.216
292.285
292.306
292.372
292.409
292.467
292.519
292.552
292.602
292.611
292.649
292.661
292.694
292.717
292.745
292.771
292.791
292.815
292.826
292.844
292.852
292.863
292.867
292.873
292.874
292.876
292.876
292.876
292.873
292.87
292.865
292.86
292.854
292.849
292.843
292.837
292.83
292.824
292.817
292.812
292.808
292.805
292.803
292.803
292.804
292.805
292.807
292.81
292.813
292.816
292.82
292.824
292.828
292.832
292.838
292.842
292.849
292.854
292.862
292.869
292.879
292.889
292.899
292.912
292.925
292.94
292.954
292.97
292.983
292.997
293.009
293.021
293.031
293.042
293.051
293.061
293.071
293.082
293.093
293.106
293.118
293.131
293.143
293.157
293.168
293.181
293.191
293.202
293.212
293.222
293.231
293.24
293.248
293.259
293.266
293.276
293.284
293.294
293.301
293.31
293.316
293.324
293.33
293.337
293.341
293.347
293.351
293.355
293.358
293.361
293.362
293.364
293.364
293.364
293.364
293.363
293.363
293.362
293.36
293.358
293.355
293.351
293.349
293.343
293.34
293.335
293.331
293.325
293.321
293.314
293.309
293.3
293.293
293.283
293.276
293.265
293.258
293.25
293.244
293.239
293.232
293.226
293.218
293.211
293.203
293.197
293.189
293.183
293.176
293.171
293.164
293.16
293.156
293.153
293.15
293.147
293.143
293.14
293.136
293.134
293.132
293.132
293.133
293.134
293.135
293.136
293.138
293.14
293.142
293.144
293.147
293.149
293.153
293.156
293.162
293.166
293.172
293.176
293.183
293.187
293.194
293.2
293.206
293.213
293.22
293.228
293.235
293.244
293.251
293.259
293.267
293.276
293.285
293.295
293.303
293.313
293.321
293.33
293.337
293.346
293.352
293.361
293.367
293.375
293.381
293.387
293.391
293.397
293.401
293.406
293.409
293.415
293.418
293.425
293.429
293.436
293.441
293.448
293.453
293.459
293.465
293.471
293.476
293.483
293.487
293.493
293.498
293.502
293.507
293.511
293.516
293.519
293.523
293.525
293.528
293.531
293.534
293.536
293.538
293.539
293.541
293.543
293.545
293.545
293.547
293.547
293.549
293.549
293.552
293.554
293.558
293.559
293.563
293.564
293.568
293.568
293.57
293.569
293.568
293.563
293.554
293.542
293.526
293.51
293.489
293.467
293.443
293.425
293.415
293.415
293.418
293.428
293.435
291.207
291.207
291.199
291.169
291.1
290.98
290.823
290.66
290.512
290.398
290.308
290.246
290.192
290.166
290.144
290.139
290.139
290.137
290.143
290.18
290.226
290.313
290.399
290.515
290.625
290.773
290.914
291.107
291.285
291.52
291.722
291.971
292.165
292.397
292.578
292.799
292.968
293.248
293.367
293.615
293.673
293.861
293.894
294.056
294.064
294.224
294.243
294.368
294.387
294.416
294.408
294.415
294.423
294.437
294.454
294.445
294.465
294.434
294.436
294.376
294.42
294.306
294.268
294.076
294.003
293.804
293.704
293.496
293.373
293.201
293.066
292.918
292.804
292.689
292.6
292.51
292.431
292.353
292.282
292.211
292.148
292.09
292.037
291.98
291.923
291.818
291.769
291.631
291.586
291.471
291.426
291.383
291.365
291.316
291.312
291.259
291.28
291.234
291.253
291.251
291.278
291.188
291.215
291.178
291.222
291.165
291.163
291.104
291.134
291.137
291.124
291.082
291.075
291.058
291.052
291.053
291.052
291.033
291.027
291.019
291.026
291.033
291.041
291.089
291.094
291.128
291.109
291.165
291.168
291.255
291.251
291.363
291.364
291.46
291.464
291.633
291.632
291.81
291.828
292.031
292.056
292.306
292.35
292.674
292.732
293.155
293.201
293.616
293.69
294.06
294.062
294.236
294.256
294.317
294.303
294.314
294.268
294.168
293.94
293.696
293.378
293.107
292.777
292.57
292.253
292.205
291.967
291.909
291.775
291.776
291.683
291.657
291.628
291.615
291.633
291.611
291.6
291.601
291.596
291.56
291.558
291.542
291.534
291.511
291.508
291.506
291.502
291.499
291.499
291.499
291.504
291.508
291.514
291.515
291.513
291.517
291.516
291.52
291.518
291.521
291.519
291.522
291.52
291.526
291.525
291.534
291.528
291.524
291.519
291.523
291.518
291.52
291.511
291.531
291.519
291.553
291.556
291.606
291.613
291.693
291.706
291.806
291.806
291.911
291.914
292.061
292.061
292.162
292.162
292.254
292.268
292.347
292.397
292.438
292.515
292.513
292.578
292.578
292.626
292.645
292.678
292.713
292.729
292.764
292.771
292.803
292.805
292.831
292.831
292.851
292.85
292.861
292.861
292.864
292.863
292.863
292.86
292.858
292.852
292.85
292.844
292.841
292.833
292.829
292.821
292.816
292.809
292.805
292.801
292.8
292.8
292.801
292.803
292.805
292.808
292.81
292.815
292.816
292.822
292.824
292.831
292.833
292.841
292.844
292.853
292.858
292.868
292.875
292.885
292.896
292.907
292.923
292.935
292.954
292.965
292.983
292.992
293.008
293.014
293.03
293.037
293.05
293.06
293.071
293.081
293.093
293.103
293.118
293.127
293.142
293.153
293.168
293.178
293.191
293.199
293.212
293.219
293.231
293.237
293.247
293.253
293.266
293.273
293.284
293.291
293.301
293.306
293.315
293.32
293.33
293.333
293.341
293.344
293.351
293.352
293.356
293.356
293.359
293.36
293.361
293.361
293.361
293.361
293.359
293.359
293.357
293.356
293.351
293.35
293.342
293.342
293.334
293.334
293.325
293.325
293.315
293.314
293.304
293.3
293.289
293.285
293.273
293.267
293.257
293.251
293.244
293.237
293.232
293.224
293.219
293.209
293.202
293.194
293.189
293.18
293.175
293.165
293.161
293.155
293.154
293.15
293.149
293.144
293.142
293.136
293.134
293.13
293.129
293.129
293.13
293.131
293.132
293.133
293.134
293.136
293.137
293.141
293.142
293.147
293.148
293.154
293.156
293.165
293.166
293.176
293.178
293.187
293.19
293.198
293.203
293.21
293.219
293.224
293.235
293.241
293.25
293.255
293.266
293.273
293.284
293.292
293.302
293.308
293.319
293.325
293.337
293.341
293.351
293.354
293.366
293.372
293.381
293.384
293.39
293.392
293.399
293.401
293.409
293.411
293.418
293.42
293.428
293.431
293.441
293.443
293.452
293.455
293.464
293.467
293.476
293.478
293.485
293.489
293.494
293.499
293.502
293.509
293.511
293.517
293.518
293.522
293.523
293.528
293.529
293.533
293.532
293.535
293.535
293.54
293.54
293.543
293.543
293.545
293.545
293.549
293.549
293.554
293.555
293.56
293.56
293.563
293.564
293.568
293.568
293.569
293.567
293.56
293.553
293.538
293.528
293.51
293.493
293.468
293.445
293.425
293.417
293.414
293.419
293.427
293.433
291.211
291.206
291.2
291.164
291.107
290.986
290.845
290.67
290.524
290.4
290.332
290.256
290.223
290.166
290.161
290.143
290.15
290.142
290.158
290.172
290.252
290.305
290.43
290.511
290.667
290.773
290.964
291.107
291.353
291.526
291.801
291.981
292.234
292.406
292.631
292.797
293.018
293.082
293.387
293.435
293.662
293.67
293.795
293.799
293.91
293.925
294.082
294.116
294.186
294.187
294.178
294.166
294.18
294.195
294.23
294.263
294.263
294.263
294.252
294.265
294.256
294.236
294.105
294.056
293.887
293.811
293.636
293.51
293.338
293.193
293.049
292.923
292.801
292.695
292.6
292.517
292.44
292.368
292.294
292.225
292.154
292.092
292.015
291.955
291.859
291.781
291.64
291.602
291.462
291.442
291.387
291.406
291.353
291.37
291.316
291.309
291.242
291.273
291.246
291.265
291.16
291.155
291.051
291.077
291.063
291.061
290.99
291.032
291.04
291.007
290.938
290.914
290.876
290.876
290.864
290.83
290.83
290.809
290.805
290.787
290.791
290.776
290.788
290.799
290.843
290.836
290.848
290.847
290.914
290.903
291.007
291.001
291.097
291.081
291.221
291.211
291.401
291.39
291.586
291.592
291.803
291.832
292.079
292.129
292.501
292.534
292.972
293.016
293.5
293.551
293.904
293.904
294.076
294.117
294.195
294.158
294.184
294.082
293.937
293.677
293.439
293.114
292.972
292.628
292.52
292.217
292.227
291.994
291.974
291.825
291.827
291.692
291.66
291.672
291.673
291.651
291.626
291.632
291.621
291.611
291.577
291.59
291.565
291.558
291.539
291.54
291.533
291.521
291.523
291.519
291.52
291.524
291.527
291.524
291.528
291.523
291.529
291.525
291.531
291.524
291.532
291.524
291.529
291.522
291.53
291.531
291.537
291.523
291.53
291.522
291.526
291.507
291.508
291.483
291.484
291.476
291.492
291.479
291.512
291.52
291.59
291.598
291.655
291.655
291.778
291.782
291.933
291.921
292.021
292.017
292.118
292.156
292.214
292.314
292.313
292.409
292.408
292.467
292.492
292.526
292.583
292.595
292.646
292.655
292.696
292.705
292.745
292.747
292.78
292.782
292.81
292.81
292.828
292.83
292.833
292.834
292.837
292.836
292.836
292.833
292.834
292.829
292.829
292.821
292.818
292.806
292.804
292.796
292.794
292.793
292.794
292.795
292.797
292.801
292.802
292.807
292.808
292.814
292.814
292.821
292.822
292.829
292.83
292.84
292.842
292.854
292.859
292.87
292.879
292.888
292.904
292.911
292.93
292.941
292.964
292.969
292.989
292.993
293.013
293.018
293.034
293.039
293.056
293.064
293.08
293.086
293.101
293.109
293.126
293.134
293.151
293.158
293.175
293.18
293.198
293.201
293.217
293.222
293.235
293.237
293.249
293.254
293.27
293.274
293.29
293.292
293.303
293.305
293.316
293.318
293.329
293.331
293.342
293.344
293.349
293.349
293.351
293.351
293.354
293.355
293.355
293.355
293.354
293.354
293.352
293.352
293.348
293.348
293.339
293.339
293.33
293.331
293.322
293.322
293.313
293.313
293.301
293.301
293.288
293.286
293.274
293.27
293.259
293.251
293.246
293.238
293.235
293.225
293.223
293.212
293.206
293.195
293.192
293.18
293.178
293.162
293.157
293.149
293.148
293.146
293.147
293.142
293.14
293.134
293.134
293.126
293.124
293.123
293.123
293.125
293.126
293.126
293.126
293.127
293.127
293.13
293.131
293.136
293.136
293.142
293.143
293.152
293.152
293.164
293.165
293.177
293.177
293.187
293.19
293.197
293.205
293.21
293.224
293.227
293.238
293.241
293.253
293.256
293.27
293.277
293.291
293.294
293.306
293.309
293.323
293.327
293.34
293.34
293.349
293.354
293.367
293.373
293.383
293.384
293.389
293.39
293.398
293.4
293.41
293.41
293.417
293.418
293.427
293.43
293.441
293.441
293.45
293.452
293.464
293.464
293.473
293.474
293.482
293.486
293.489
293.495
293.497
293.505
293.506
293.512
293.512
293.516
293.517
293.523
293.523
293.526
293.522
293.527
293.53
293.533
293.533
293.534
293.534
293.537
293.537
293.542
293.543
293.548
293.549
293.553
293.552
293.556
293.558
293.56
293.561
293.558
293.553
293.539
293.538
293.52
293.512
293.492
293.469
293.444
293.426
293.415
293.414
293.417
293.424
293.431
291.215
291.213
291.2
291.166
291.094
290.99
290.829
290.692
290.531
290.429
290.337
290.3
290.239
290.227
290.18
290.182
290.175
290.177
290.173
290.246
290.267
290.411
290.443
290.606
290.682
290.856
290.973
291.189
291.365
291.631
291.821
292.056
292.248
292.472
292.632
292.815
292.89
293.111
293.102
293.418
293.422
293.562
293.529
293.576
293.554
293.638
293.673
293.821
293.847
293.875
293.852
293.861
293.839
293.879
293.892
293.989
294.014
294.009
294.018
294.065
294.081
294.044
293.998
293.901
293.87
293.744
293.644
293.477
293.342
293.189
293.056
292.922
292.807
292.695
292.605
292.509
292.444
292.352
292.295
292.207
292.145
292.067
291.998
291.905
291.823
291.69
291.615
291.48
291.454
291.391
291.408
291.356
291.397
291.334
291.351
291.253
291.298
291.208
291.186
291.148
291.089
290.889
290.922
290.843
290.849
290.789
290.827
290.85
290.808
290.705
290.629
290.574
290.577
290.576
290.489
290.474
290.407
290.427
290.391
290.394
290.357
290.363
290.347
290.382
290.378
290.419
290.398
290.434
290.426
290.509
290.494
290.572
290.559
290.676
290.648
290.839
290.819
291.001
290.994
291.202
291.193
291.395
291.435
291.69
291.741
292.144
292.201
292.611
292.687
293.207
293.295
293.589
293.6
293.886
293.923
293.976
293.981
294.001
293.839
293.72
293.468
293.316
293
292.955
292.628
292.579
292.326
292.358
292.118
292.106
291.891
291.881
291.729
291.716
291.733
291.716
291.675
291.635
291.657
291.636
291.616
291.589
291.605
291.591
291.586
291.584
291.577
291.57
291.561
291.565
291.561
291.563
291.557
291.564
291.552
291.564
291.55
291.558
291.548
291.56
291.546
291.551
291.537
291.544
291.54
291.547
291.531
291.538
291.526
291.536
291.519
291.516
291.476
291.471
291.423
291.424
291.38
291.378
291.359
291.374
291.37
291.39
291.374
291.414
291.413
291.56
291.562
291.663
291.654
291.755
291.766
291.854
291.947
291.97
292.102
292.099
292.185
292.212
292.252
292.33
292.339
292.422
292.439
292.497
292.512
292.567
292.581
292.634
292.641
292.69
292.69
292.738
292.737
292.768
292.767
292.785
292.785
292.798
292.8
292.803
292.806
292.814
292.812
292.812
292.803
292.8
292.789
292.787
292.782
292.783
292.783
292.786
292.79
292.791
292.796
292.796
292.801
292.802
292.808
292.809
292.815
292.815
292.822
292.823
292.837
292.839
292.852
292.858
292.865
292.881
292.888
292.91
292.914
292.936
292.944
292.966
292.967
292.984
292.99
293.016
293.016
293.034
293.037
293.059
293.064
293.086
293.09
293.106
293.112
293.132
293.137
293.157
293.158
293.175
293.177
293.199
293.198
293.217
293.22
293.235
293.235
293.248
293.25
293.269
293.274
293.29
293.29
293.298
293.298
293.309
293.31
293.328
293.329
293.339
293.339
293.339
293.339
293.34
293.341
293.345
293.346
293.345
293.344
293.342
293.342
293.34
293.34
293.335
293.335
293.324
293.324
293.315
293.315
293.307
293.308
293.297
293.297
293.282
293.281
293.268
293.266
293.254
293.248
293.241
293.233
293.232
293.22
293.219
293.208
293.206
293.193
293.19
293.178
293.177
293.157
293.154
293.139
293.138
293.136
293.137
293.136
293.134
293.128
293.129
293.12
293.117
293.112
293.113
293.114
293.115
293.116
293.115
293.115
293.114
293.116
293.116
293.121
293.121
293.126
293.126
293.133
293.133
293.144
293.143
293.157
293.158
293.172
293.173
293.182
293.186
293.19
293.204
293.208
293.223
293.225
293.236
293.237
293.248
293.253
293.273
293.276
293.292
293.291
293.304
293.306
293.322
293.323
293.335
293.335
293.343
293.349
293.365
293.37
293.378
293.378
293.381
293.382
293.394
293.397
293.406
293.405
293.411
293.411
293.422
293.423
293.433
293.433
293.442
293.445
293.456
293.456
293.464
293.467
293.472
293.477
293.478
293.485
293.485
293.495
293.496
293.501
293.501
293.505
293.505
293.51
293.507
293.511
293.511
293.517
293.516
293.518
293.518
293.519
293.518
293.522
293.522
293.528
293.528
293.533
293.534
293.537
293.538
293.543
293.543
293.544
293.542
293.532
293.53
293.518
293.52
293.504
293.491
293.464
293.445
293.423
293.414
293.411
293.413
293.42
293.425
291.219
291.206
291.202
291.154
291.082
290.962
290.828
290.664
290.538
290.408
290.345
290.287
290.28
290.246
290.24
290.215
290.227
290.214
290.243
290.261
290.375
290.421
290.541
290.616
290.749
290.856
291.022
291.165
291.416
291.601
291.862
292.004
292.246
292.358
292.599
292.619
292.804
292.766
292.994
292.984
293.22
293.209
293.22
293.172
293.171
293.177
293.276
293.308
293.419
293.415
293.482
293.467
293.486
293.443
293.558
293.604
293.668
293.631
293.745
293.786
293.801
293.771
293.797
293.782
293.745
293.688
293.566
293.465
293.311
293.188
293.043
292.92
292.798
292.698
292.596
292.524
292.425
292.362
292.273
292.215
292.14
292.076
291.984
291.91
291.778
291.68
291.546
291.481
291.41
291.42
291.364
291.396
291.337
291.386
291.292
291.311
291.215
291.153
290.949
290.996
290.798
290.777
290.6
290.579
290.496
290.518
290.55
290.484
290.399
290.258
290.212
290.158
290.183
290.108
290.103
289.891
289.878
289.873
289.88
289.831
289.848
289.811
289.829
289.806
289.849
289.852
289.865
289.849
289.917
289.917
290.001
289.956
290.036
290.031
290.177
290.163
290.336
290.332
290.512
290.508
290.679
290.691
290.895
290.936
291.235
291.264
291.691
291.763
292.2
292.297
292.777
292.871
293.222
293.27
293.624
293.627
293.83
293.806
293.839
293.685
293.582
293.346
293.241
292.988
293.008
292.759
292.726
292.511
292.539
292.284
292.257
291.978
291.97
291.823
291.804
291.824
291.774
291.716
291.682
291.705
291.675
291.653
291.642
291.666
291.661
291.666
291.657
291.65
291.647
291.64
291.641
291.631
291.636
291.62
291.628
291.62
291.625
291.601
291.61
291.601
291.604
291.575
291.581
291.575
291.579
291.552
291.552
291.536
291.545
291.53
291.532
291.498
291.483
291.435
291.416
291.359
291.335
291.278
291.261
291.208
291.184
291.139
291.118
291.097
291.127
291.14
291.227
291.221
291.283
291.283
291.37
291.422
291.471
291.623
291.631
291.755
291.789
291.842
291.925
291.938
292.043
292.063
292.173
292.193
292.274
292.294
292.371
292.391
292.464
292.479
292.557
292.558
292.622
292.623
292.677
292.676
292.713
292.714
292.739
292.74
292.772
292.773
292.788
292.785
292.783
292.777
292.777
292.77
292.768
292.767
292.769
292.772
292.775
292.78
292.78
292.785
292.786
292.79
292.792
292.798
292.799
292.804
292.804
292.814
292.817
292.829
292.838
292.842
292.853
292.855
292.879
292.885
292.911
292.913
292.935
292.939
292.956
292.958
292.986
292.995
293.013
293.012
293.028
293.031
293.057
293.065
293.088
293.089
293.104
293.112
293.135
293.137
293.152
293.153
293.169
293.172
293.194
293.192
293.214
293.216
293.23
293.229
293.239
293.243
293.266
293.271
293.281
293.281
293.285
293.285
293.296
293.301
293.321
293.321
293.326
293.325
293.325
293.324
293.326
293.329
293.331
293.331
293.329
293.328
293.326
293.326
293.323
293.324
293.316
293.315
293.304
293.304
293.296
293.296
293.287
293.287
293.272
293.271
293.258
293.256
293.245
293.24
293.233
293.225
293.226
293.21
293.208
293.195
293.195
293.185
293.182
293.173
293.172
293.154
293.148
293.127
293.126
293.122
293.123
293.123
293.123
293.118
293.118
293.111
293.11
293.101
293.1
293.1
293.1
293.101
293.101
293.099
293.098
293.098
293.098
293.102
293.102
293.106
293.106
293.111
293.111
293.12
293.121
293.131
293.131
293.145
293.148
293.161
293.166
293.166
293.177
293.181
293.203
293.205
293.216
293.215
293.228
293.23
293.244
293.246
293.269
293.271
293.285
293.285
293.296
293.297
293.314
293.317
293.327
293.325
293.332
293.339
293.357
293.362
293.367
293.366
293.37
293.371
293.387
293.391
293.398
293.396
293.399
293.399
293.41
293.411
293.42
293.419
293.431
293.433
293.443
293.443
293.449
293.453
293.456
293.461
293.46
293.468
293.469
293.479
293.48
293.483
293.483
293.488
293.485
293.489
293.489
293.493
293.493
293.495
293.495
293.496
293.496
293.498
293.497
293.5
293.501
293.504
293.505
293.509
293.512
293.516
293.516
293.52
293.519
293.515
293.512
293.505
293.508
293.499
293.498
293.475
293.463
293.436
293.423
293.409
293.405
293.407
293.411
293.418
291.217
291.218
291.194
291.162
291.07
290.956
290.801
290.663
290.517
290.424
290.338
290.309
290.277
290.292
290.267
290.257
290.251
290.253
290.257
290.33
290.372
290.473
290.53
290.631
290.689
290.834
290.898
291.126
291.22
291.594
291.69
292.025
292.017
292.308
292.315
292.472
292.435
292.573
292.552
292.755
292.735
292.821
292.786
292.775
292.716
292.722
292.734
292.822
292.82
292.926
292.92
293.063
293.046
293.08
293.109
293.226
293.146
293.307
293.318
293.424
293.362
293.49
293.498
293.57
293.537
293.521
293.468
293.36
293.278
293.137
293.041
292.911
292.811
292.692
292.614
292.513
292.453
292.353
292.288
292.207
292.141
292.063
291.987
291.892
291.792
291.672
291.554
291.452
291.454
291.385
291.405
291.357
291.378
291.3
291.335
291.207
291.151
290.877
290.873
290.723
290.587
290.442
290.301
290.193
290.133
290.187
290.089
290.035
289.827
289.823
289.709
289.735
289.69
289.705
289.444
289.422
289.271
289.324
289.26
289.284
289.238
289.267
289.236
289.262
289.246
289.303
289.271
289.328
289.313
289.386
289.38
289.451
289.432
289.533
289.511
289.67
289.667
289.837
289.829
290.008
289.989
290.165
290.187
290.401
290.437
290.761
290.819
291.234
291.311
291.765
291.872
292.316
292.409
292.857
292.923
293.331
293.391
293.706
293.645
293.634
293.487
293.51
293.304
293.226
293.095
293.158
292.975
292.914
292.717
292.723
292.466
292.409
292.141
292.117
291.995
291.946
291.956
291.867
291.801
291.757
291.783
291.761
291.753
291.762
291.794
291.793
291.794
291.785
291.775
291.78
291.768
291.766
291.74
291.76
291.739
291.753
291.721
291.722
291.686
291.711
291.659
291.655
291.647
291.652
291.623
291.609
291.572
291.581
291.558
291.559
291.519
291.508
291.469
291.446
291.394
291.358
291.303
291.251
291.181
291.11
291.039
290.961
290.893
290.845
290.81
290.817
290.811
290.814
290.793
290.84
290.849
290.908
291.01
291.044
291.182
291.222
291.299
291.396
291.404
291.517
291.53
291.676
291.711
291.844
291.866
291.977
291.997
292.108
292.128
292.249
292.26
292.369
292.377
292.461
292.465
292.553
292.555
292.618
292.617
292.666
292.671
292.731
292.734
292.749
292.746
292.748
292.75
292.751
292.748
292.748
292.749
292.753
292.757
292.757
292.762
292.765
292.767
292.772
292.776
292.779
292.783
292.784
292.789
292.795
292.802
292.815
292.819
292.83
292.83
292.845
292.847
292.878
292.883
292.908
292.904
292.921
292.925
292.952
292.957
292.984
292.989
293.003
293.003
293.018
293.025
293.057
293.065
293.086
293.087
293.105
293.109
293.129
293.13
293.14
293.141
293.157
293.161
293.185
293.184
293.208
293.21
293.219
293.218
293.231
293.236
293.257
293.262
293.266
293.264
293.269
293.27
293.288
293.291
293.307
293.307
293.308
293.306
293.306
293.306
293.311
293.314
293.314
293.312
293.309
293.307
293.306
293.306
293.303
293.303
293.295
293.293
293.284
293.281
293.274
293.272
293.261
293.257
293.246
293.241
293.234
293.225
293.22
293.212
293.217
293.202
293.2
293.176
293.175
293.167
293.168
293.161
293.161
293.149
293.145
293.119
293.115
293.105
293.107
293.104
293.105
293.102
293.102
293.096
293.096
293.088
293.088
293.084
293.084
293.082
293.082
293.079
293.077
293.077
293.077
293.079
293.08
293.083
293.083
293.085
293.086
293.092
293.095
293.102
293.104
293.113
293.117
293.131
293.139
293.142
293.152
293.151
293.167
293.173
293.189
293.187
293.203
293.206
293.22
293.218
293.231
293.234
293.26
293.26
293.273
293.271
293.283
293.284
293.304
293.307
293.312
293.309
293.318
293.326
293.343
293.347
293.352
293.349
293.356
293.359
293.376
293.379
293.383
293.382
293.383
293.383
293.394
293.394
293.404
293.403
293.417
293.417
293.425
293.425
293.429
293.433
293.435
293.44
293.44
293.448
293.45
293.457
293.458
293.461
293.459
293.462
293.462
293.465
293.465
293.467
293.467
293.467
293.47
293.47
293.47
293.47
293.47
293.471
293.47
293.472
293.476
293.479
293.485
293.487
293.486
293.488
293.486
293.481
293.484
293.48
293.484
293.469
293.467
293.444
293.436
293.414
293.403
293.398
293.397
293.401
293.405
291.226
291.214
291.205
291.152
291.077
290.952
290.81
290.647
290.521
290.411
290.361
290.311
290.303
290.297
290.304
290.281
290.279
290.271
290.299
290.324
290.394
290.436
290.523
290.559
290.663
290.716
290.855
290.889
291.131
291.187
291.694
291.686
291.979
291.965
292.121
292.113
292.183
292.153
292.283
292.261
292.372
292.347
292.373
292.313
292.301
292.262
292.274
292.279
292.338
292.291
292.443
292.498
292.724
292.668
292.779
292.695
292.829
292.845
292.947
292.898
292.994
293.027
293.23
293.202
293.272
293.256
293.236
293.212
293.135
293.088
292.962
292.901
292.768
292.714
292.587
292.553
292.461
292.41
292.293
292.216
292.12
292.067
291.977
291.92
291.781
291.699
291.538
291.487
291.396
291.42
291.363
291.403
291.331
291.344
291.212
291.159
290.897
290.8
290.717
290.415
290.306
290.089
290.034
289.78
289.801
289.674
289.609
289.42
289.511
289.298
289.268
289.269
289.299
289.118
289.06
288.816
288.839
288.753
288.791
288.739
288.764
288.746
288.758
288.742
288.773
288.758
288.804
288.799
288.867
288.853
288.937
288.939
289.006
289.001
289.105
289.1
289.246
289.246
289.4
289.396
289.561
289.558
289.724
289.76
290.003
290.031
290.353
290.414
290.875
290.929
291.36
291.435
291.916
292.001
292.515
292.559
293.13
293.198
293.541
293.418
293.444
293.429
293.456
293.301
293.283
293.286
293.347
293.15
293.086
292.879
292.929
292.645
292.602
292.373
292.354
292.228
292.158
292.13
292.01
291.947
291.929
291.94
291.931
291.95
291.962
291.988
291.982
291.979
291.984
291.973
291.976
291.949
291.953
291.941