/*--------------------------------*- C++ -*----------------------------------*\
| =========                 |                                                 |
| \\      /  F ield         | OpenFOAM: The Open Source CFD Toolbox           |
|  \\    /   O peration     | Version:  v1812                                 |
|   \\  /    A nd           | Web:      www.OpenFOAM.com                      |
|    \\/     M anipulation  |                                                 |
\*---------------------------------------------------------------------------*/
FoamFile
{
    version     2.0;
    format      ascii;
    class       volVectorField;
    location    "0.6";
    object      U;
}
// * * * * * * * * * * * * * * * * * * * * * * * * * * * * * * * * * * * * * //

dimensions      [0 1 -1 0 0 0 0];


internalField   nonuniform List<vector> 
20400
(
(-0.113161 -0.0199324 0)
(-0.296801 -0.12118 0)
(-0.356459 -0.0622988 0)
(-0.711761 -0.0429871 0)
(-0.728039 -0.0913282 0)
(-1.10939 0.00380238 0)
(-1.12774 -0.0734832 0)
(-1.51507 0.029551 0)
(-1.503 -0.0837242 0)
(-1.9486 -0.00526753 0)
(-1.95398 -0.114052 0)
(-2.4154 0.00289483 0)
(-2.42206 -0.0942907 0)
(-2.89406 0.0254872 0)
(-2.90031 -0.0809444 0)
(-3.39743 0.00660925 0)
(-3.40848 -0.0945359 0)
(-3.88608 0.0214495 0)
(-3.89998 -0.0652971 0)
(-4.36356 0.0163198 0)
(-4.36066 -0.120244 0)
(-4.83741 -0.0241432 0)
(-4.83694 -0.151922 0)
(-5.304 -0.0312976 0)
(-5.29637 -0.142556 0)
(-5.73847 -0.00536256 0)
(-5.71917 -0.120819 0)
(-6.17689 0.00078768 0)
(-6.16319 -0.144399 0)
(-6.66427 -0.0241517 0)
(-6.6892 -0.186137 0)
(-7.26058 -0.0423809 0)
(-7.30274 -0.15901 0)
(-7.95152 -0.0230246 0)
(-7.99844 -0.152541 0)
(-8.67393 0.0100142 0)
(-8.7479 -0.118712 0)
(-9.42081 0.0691436 0)
(-9.52308 -0.0775811 0)
(-10.1753 0.100094 0)
(-10.2935 -0.033429 0)
(-10.9227 0.106897 0)
(-11.0319 -0.0199412 0)
(-11.5236 0.0771691 0)
(-11.6033 -0.0154461 0)
(-11.8604 0.0081623 0)
(-11.8893 -0.0264569 0)
(-11.9288 -0.0192646 0)
(-11.9156 -0.0253967 0)
(-11.9043 -0.0230937 0)
(-11.8225 0.0347832 0)
(-11.8227 0.0659877 0)
(-11.6685 0.0324137 0)
(-11.599 0.0579479 0)
(-11.4638 -0.0534112 0)
(-11.2208 -0.0567541 0)
(-11.1745 -0.148707 0)
(-10.8567 -0.0861572 0)
(-10.8518 -0.177082 0)
(-10.4381 -0.168884 0)
(-10.4453 -0.188069 0)
(-10.0528 -0.147402 0)
(-10.0621 -0.185242 0)
(-9.72413 -0.199323 0)
(-9.72887 -0.155095 0)
(-9.47628 -0.110587 0)
(-9.5055 -0.0541988 0)
(-9.3585 0.00087826 0)
(-9.37424 0.021575 0)
(-9.23176 -0.0534343 0)
(-9.20814 -0.0812549 0)
(-9.05844 -0.0796565 0)
(-9.05689 -0.0733054 0)
(-9.00884 -0.0772415 0)
(-9.15805 -0.00357172 0)
(-9.15883 -0.0286291 0)
(-9.58359 0.0845256 0)
(-9.6141 0.0154799 0)
(-10.2862 0.156241 0)
(-10.3629 0.0529726 0)
(-11.2102 0.228392 0)
(-11.3513 0.126063 0)
(-12.2759 0.350021 0)
(-12.5032 0.276262 0)
(-13.3524 0.407523 0)
(-13.6707 0.277319 0)
(-14.1768 0.248584 0)
(-14.3996 0.0859404 0)
(-14.5981 0.0299994 0)
(-14.6035 -0.0889663 0)
(-14.5557 -0.160503 0)
(-14.0967 -0.223845 0)
(-13.973 -0.254177 0)
(-13.2366 -0.0422019 0)
(-13.201 -0.14885 0)
(-12.2624 -0.00759841 0)
(-12.2446 -0.0544255 0)
(-11.0164 0.307588 0)
(-10.9187 0.314411 0)
(-9.82519 0.458997 0)
(-9.67836 0.194691 0)
(-8.64246 0.307983 0)
(-8.38242 0.351705 0)
(-7.34982 0.583011 0)
(-7.11552 0.377218 0)
(-6.41772 0.355711 0)
(-6.15582 0.356922 0)
(-5.33504 0.393946 0)
(-4.84677 0.331058 0)
(-3.98841 0.231189 0)
(-3.3992 0.16074 0)
(-2.72957 0.216095 0)
(-2.28118 0.0806896 0)
(-1.70359 0.0290114 0)
(-1.35581 -0.106567 0)
(-0.81872 -0.406204 0)
(-0.423778 -0.307703 0)
(-0.0127859 -0.171791 0)
(0.133763 -0.0303893 0)
(0.480553 0.0155387 0)
(0.46458 0.148685 0)
(0.76593 0.0229859 0)
(0.771216 0.0595506 0)
(0.864694 0.0388031 0)
(0.940312 0.0315821 0)
(1.00889 0.0148618 0)
(1.05003 0.0184278 0)
(1.11865 0.0183277 0)
(1.16135 0.0193488 0)
(1.19625 0.013384 0)
(1.20501 0.0149468 0)
(1.24906 0.00941713 0)
(1.27562 0.0103558 0)
(1.30999 0.0171222 0)
(1.28342 -0.00425135 0)
(1.41233 0.00207254 0)
(1.38631 -0.00755348 0)
(1.44482 0.0127541 0)
(1.43092 0.000700508 0)
(1.447 0.0082205 0)
(1.41843 -0.00717779 0)
(1.42711 0.0128747 0)
(1.35197 -0.01997 0)
(1.35698 0.0255602 0)
(1.21951 -0.0277879 0)
(1.25335 0.0417004 0)
(1.05571 -0.0347884 0)
(1.11166 0.0495674 0)
(0.832176 -0.0173407 0)
(0.891132 0.0468339 0)
(0.646354 -0.0612681 0)
(0.757396 -0.000860307 0)
(0.371092 0.0141914 0)
(0.474396 0.0819283 0)
(0.119176 -0.0522206 0)
(0.206599 0.026373 0)
(-0.03584 -0.0361607 0)
(-0.0200481 0.0332921 0)
(-0.171838 0.166932 0)
(-0.434994 0.247341 0)
(-0.78788 0.102064 0)
(-0.937484 -0.0328702 0)
(-1.25868 -0.034905 0)
(-1.54578 -0.0499584 0)
(-1.91955 -0.170438 0)
(-2.10779 -0.0910408 0)
(-2.52486 -0.0428061 0)
(-2.6471 -0.0743582 0)
(-3.08888 -0.118235 0)
(-3.12078 -0.0928285 0)
(-3.46499 0.0160662 0)
(-3.44948 -0.0581752 0)
(-3.80735 0.0721517 0)
(-3.82436 0.0696649 0)
(-4.15848 -0.0375108 0)
(-4.12529 -0.121875 0)
(-4.49977 0.0437734 0)
(-4.52486 0.0489495 0)
(-4.96935 0.0254402 0)
(-4.96506 -0.105779 0)
(-5.3723 0.0127936 0)
(-5.40444 -0.0311078 0)
(-5.91222 0.0422035 0)
(-5.95308 -0.0296114 0)
(-6.45994 0.0410742 0)
(-6.52402 0.0107651 0)
(-6.94341 0.0520305 0)
(-7.02293 0.018476 0)
(-7.26551 0.00614666 0)
(-7.3141 -0.0156105 0)
(-7.37836 -0.0261007 0)
(-7.37707 -0.0334041 0)
(-7.33692 -0.0498188 0)
(-7.30823 -0.082493 0)
(-7.17576 -0.120123 0)
(-7.16105 -0.135947 0)
(-7.02512 -0.11532 0)
(-7.03282 -0.153062 0)
(-6.8749 -0.134954 0)
(-6.86464 -0.160141 0)
(-6.63882 -0.144905 0)
(-6.62602 -0.170114 0)
(-6.38578 -0.142282 0)
(-6.37269 -0.175949 0)
(-6.10459 -0.141587 0)
(-6.09304 -0.156704 0)
(-5.88677 -0.0781324 0)
(-5.8749 -0.111099 0)
(-5.62867 -0.0600922 0)
(-5.61756 -0.0856199 0)
(-5.37574 -0.0218685 0)
(-5.36556 -0.0532873 0)
(-5.11606 -0.00606555 0)
(-5.10784 -0.0291128 0)
(-4.84672 0.0221195 0)
(-4.84026 0.0011099 0)
(-4.57521 0.0419496 0)
(-4.56536 0.0136476 0)
(-4.29278 0.0448099 0)
(-4.28666 0.0301618 0)
(-4.01162 0.056679 0)
(-4.00811 0.0492939 0)
(-3.76371 0.065792 0)
(-3.75971 0.0756452 0)
(-3.55765 0.0706909 0)
(-3.54794 0.0907435 0)
(-3.36432 0.0914158 0)
(-3.35181 0.0976699 0)
(-3.17038 0.0917583 0)
(-3.13664 0.0923028 0)
(-2.94819 0.103885 0)
(-2.89596 0.0844413 0)
(-2.74451 0.122473 0)
(-2.68775 0.098987 0)
(-2.58421 0.101276 0)
(-2.50787 0.125048 0)
(-2.44728 0.0964004 0)
(-2.33184 0.104088 0)
(-2.26803 0.0817993 0)
(-2.15519 0.0864703 0)
(-2.10117 0.0654054 0)
(-2.01857 0.0670996 0)
(-1.96989 0.050633 0)
(-1.90915 0.0531397 0)
(-1.86209 0.0413156 0)
(-1.81104 0.0409307 0)
(-1.76603 0.0290792 0)
(-1.7217 0.0311232 0)
(-1.67993 0.0223444 0)
(-1.63939 0.0226484 0)
(-1.60305 0.0173929 0)
(-1.57139 0.0151266 0)
(-1.54299 0.0125615 0)
(-1.51465 0.0140431 0)
(-1.48644 0.0134699 0)
(-1.46031 0.0149042 0)
(-1.4367 0.0139248 0)
(-1.41512 0.017217 0)
(-1.39244 0.0187708 0)
(-1.36937 0.0231563 0)
(-1.3471 0.0228645 0)
(-1.32731 0.0249129 0)
(-1.3101 0.0238637 0)
(-1.29389 0.0278669 0)
(-1.27599 0.0269396 0)
(-1.25789 0.0275678 0)
(-1.24166 0.023552 0)
(-1.22841 0.0204004 0)
(-1.22085 0.0168166 0)
(-1.21945 0.0142186 0)
(-1.21978 0.0141242 0)
(-1.22078 0.014524 0)
(-1.22254 0.0152476 0)
(-1.22477 0.0159741 0)
(-1.22793 0.0164665 0)
(-1.23262 0.0158021 0)
(-1.23905 0.014625 0)
(-1.24749 0.0126553 0)
(-1.25857 0.010883 0)
(-1.27245 0.00955437 0)
(-1.28806 0.00943877 0)
(-1.30491 0.00982794 0)
(-1.32249 0.0107929 0)
(-1.34048 0.010517 0)
(-1.35945 0.0111396 0)
(-1.38008 0.0102957 0)
(-1.40237 0.0104961 0)
(-1.42677 0.00967693 0)
(-1.45428 0.00957061 0)
(-1.48417 0.00924851 0)
(-1.5169 0.0085107 0)
(-1.55203 0.00768921 0)
(-1.59116 0.00480812 0)
(-1.63391 0.00493213 0)
(-1.6778 0.00201132 0)
(-1.72031 0.00498805 0)
(-1.75914 0.00385777 0)
(-1.79321 0.00721746 0)
(-1.82129 0.00556627 0)
(-1.84584 0.00659304 0)
(-1.87038 0.00288465 0)
(-1.89681 0.00338561 0)
(-1.92793 -0.00154769 0)
(-1.96425 -0.000308317 0)
(-2.00356 -0.00179141 0)
(-2.04318 0.00222959 0)
(-2.08231 0.00271982 0)
(-2.12048 0.00548382 0)
(-2.15717 0.00524643 0)
(-2.19028 0.00654123 0)
(-2.2222 0.00303506 0)
(-2.25542 0.00282446 0)
(-2.2904 2.41811e-05 0)
(-2.3244 0.0018062 0)
(-2.356 0.00166821 0)
(-2.38672 0.00386936 0)
(-2.41573 0.00488623 0)
(-2.44183 0.00709985 0)
(-2.46621 0.00821866 0)
(-2.48542 0.0130889 0)
(-2.50057 0.0130543 0)
(-2.51528 0.0136066 0)
(-2.52954 0.0122019 0)
(-2.54165 0.0115107 0)
(-2.55341 0.00896377 0)
(-2.565 0.00957217 0)
(-2.57376 0.010037 0)
(-2.57888 0.0119001 0)
(-2.58237 0.0107439 0)
(-2.58587 0.011079 0)
(-2.59004 0.0113781 0)
(-2.59267 0.01244 0)
(-2.59177 0.0139571 0)
(-2.58691 0.0149045 0)
(-2.5798 0.0151859 0)
(-2.57143 0.0157297 0)
(-2.56167 0.0153682 0)
(-2.55068 0.0158401 0)
(-2.53867 0.0153885 0)
(-2.52551 0.0169281 0)
(-2.51064 0.017224 0)
(-2.49401 0.0183172 0)
(-2.47552 0.0183031 0)
(-2.4556 0.0187031 0)
(-2.43462 0.0191679 0)
(-2.41246 0.0205199 0)
(-2.38834 0.0225869 0)
(-2.36181 0.0242295 0)
(-2.33298 0.0254407 0)
(-2.30266 0.0255264 0)
(-2.2713 0.0251335 0)
(-2.23865 0.0239477 0)
(-2.20453 0.0224918 0)
(-2.16907 0.0205824 0)
(-2.13281 0.0190067 0)
(-2.09628 0.0165039 0)
(-2.06074 0.0158032 0)
(-2.02444 0.0151392 0)
(-1.98803 0.018258 0)
(-1.94539 0.0200669 0)
(-1.90513 0.0214024 0)
(-1.856 0.0224558 0)
(-1.81346 0.0186679 0)
(-1.76367 0.0196128 0)
(-1.72458 0.0126772 0)
(-1.68404 0.0138455 0)
(-1.65186 0.010739 0)
(-1.6217 0.00936655 0)
(-1.59591 0.00854032 0)
(-1.57019 0.0096503 0)
(-1.54367 0.00956943 0)
(-1.51338 0.0108863 0)
(-1.48471 0.0109543 0)
(-1.45595 0.0121246 0)
(-1.42883 0.0115137 0)
(-1.40316 0.0134574 0)
(-1.3782 0.0130312 0)
(-1.35432 0.0146741 0)
(-1.33231 0.0128292 0)
(-1.31266 0.0142 0)
(-1.29607 0.011704 0)
(-1.28181 0.0133329 0)
(-1.26916 0.0118236 0)
(-1.25817 0.0130442 0)
(-1.24886 0.0113359 0)
(-1.24065 0.0127191 0)
(-1.23336 0.0124788 0)
(-1.22762 0.0123653 0)
(-1.22347 0.0122536 0)
(-1.22163 0.0119905 0)
(-1.22219 0.011905 0)
(-1.22432 0.0121231 0)
(-1.22787 0.0124766 0)
(-1.23234 0.0124587 0)
(-1.23775 0.0121572 0)
(-1.2448 0.0110064 0)
(-1.2544 0.0097475 0)
(-1.2669 0.00814197 0)
(-1.28183 0.00719113 0)
(-1.29829 0.0054835 0)
(-1.31613 0.00414893 0)
(-1.33572 0.00176142 0)
(-1.35748 0.000261016 0)
(-1.38136 -0.00186607 0)
(-1.40674 -0.00167986 0)
(-1.43293 -0.00201615 0)
(-1.45985 -0.0008805 0)
(-1.48725 -0.000814807 0)
(-1.51595 0.000644056 0)
(-1.54598 0.00173777 0)
(-1.5767 0.00281398 0)
(-1.60684 0.00425228 0)
(-1.63723 0.00365112 0)
(-1.6675 0.00436912 0)
(-1.69858 0.00193215 0)
(-1.73022 0.00322957 0)
(-1.76092 0.000350827 0)
(-1.7909 0.00143843 0)
(-1.82149 -0.00450777 0)
(-1.85399 -0.00485256 0)
(-1.8876 -0.00872544 0)
(-1.92077 -0.00808955 0)
(-1.95475 -0.0101589 0)
(-1.98662 -0.0073021 0)
(-2.01885 -0.00672969 0)
(-2.04721 -0.000219992 0)
(-2.07427 0.000852016 0)
(-2.09764 0.00590144 0)
(-2.1181 0.00486073 0)
(-2.13719 0.00517407 0)
(-2.15764 0.000980288 0)
(-2.17883 0.000823211 0)
(-2.19835 -0.00324905 0)
(-2.21616 -0.00177889 0)
(-2.23247 -0.00582406 0)
(-2.24863 -0.00408202 0)
(-2.26389 -0.0056275 0)
(-2.27741 -0.00282587 0)
(-2.28937 -0.00350243 0)
(-2.29828 -0.00106223 0)
(-2.3049 -0.00286271 0)
(-2.31026 -0.00156626 0)
(-2.31418 -0.00281911 0)
(-2.31701 -0.00250389 0)
(-2.31816 -0.00283201 0)
(-2.31735 -0.00275958 0)
(-2.31443 -0.0032398 0)
(-2.30923 -0.00275742 0)
(-2.30187 -0.00332095 0)
(-2.2922 -0.00129853 0)
(-2.28008 -0.00149746 0)
(-2.26594 0.000366504 0)
(-2.25068 0.00160783 0)
(-2.23474 0.00260532 0)
(-2.2177 0.00603012 0)
(-2.19884 0.00678735 0)
(-2.1785 0.0102153 0)
(-2.15623 0.0108097 0)
(-2.13236 0.0134206 0)
(-2.10678 0.0133806 0)
(-2.07959 0.0150563 0)
(-2.05127 0.0132142 0)
(-2.02237 0.0145676 0)
(-1.99229 0.012014 0)
(-1.96036 0.0131162 0)
(-1.92775 0.00965061 0)
(-1.89444 0.0105387 0)
(-1.86173 0.00687968 0)
(-1.83084 0.00823537 0)
(-1.79926 0.00650255 0)
(-1.76801 0.0096543 0)
(-1.73112 0.0120433 0)
(-1.69626 0.0145863 0)
(-1.65338 0.0178481 0)
(-1.61494 0.0166114 0)
(-1.57 0.0179999 0)
(-1.53326 0.0130532 0)
(-1.49404 0.0135567 0)
(-1.46377 0.00956119 0)
(-1.43241 0.01173 0)
(-1.40747 0.0106096 0)
(-1.37712 0.0139096 0)
(-1.3521 0.0122278 0)
(-1.32219 0.0172022 0)
(-1.29768 0.014879 0)
(-1.26966 0.0202831 0)
(-1.244 0.0195488 0)
(-1.21568 0.0224233 0)
(-1.188 0.0213609 0)
(-1.16271 0.0190194 0)
(-1.13296 0.0234568 0)
(-1.10856 0.0168969 0)
(-1.0754 0.0222296 0)
(-1.05191 0.0171142 0)
(-1.01595 0.0240979 0)
(-0.99454 0.0204272 0)
(-0.958311 0.0270725 0)
(-0.942055 0.0231891 0)
(-0.911878 0.0268818 0)
(-0.890168 0.0265549 0)
(-0.169576 0.0334454 0)
(-0.363666 -0.0476511 0)
(-0.946797 0.00877251 0)
(-0.996354 -0.0408925 0)
(-1.80366 0.0267983 0)
(-1.82484 -0.0466033 0)
(-2.65331 0.0507553 0)
(-2.65206 -0.109893 0)
(-3.54336 0.0946116 0)
(-3.48675 -0.0100692 0)
(-4.43675 0.14299 0)
(-4.3423 0.00110324 0)
(-5.30765 0.133868 0)
(-5.19845 -0.000173817 0)
(-6.16256 0.148038 0)
(-6.04521 0.049667 0)
(-7.00476 0.147891 0)
(-6.89387 0.0380625 0)
(-7.82358 0.120629 0)
(-7.7083 0.022964 0)
(-8.61307 0.173776 0)
(-8.4844 0.0522528 0)
(-9.39154 0.197439 0)
(-9.2485 0.0490157 0)
(-10.1728 0.176275 0)
(-10.0244 0.0196957 0)
(-10.9643 0.180142 0)
(-10.8137 0.0383394 0)
(-11.7623 0.247394 0)
(-11.6562 0.111573 0)
(-12.6126 0.350011 0)
(-12.5701 0.204979 0)
(-13.5521 0.406669 0)
(-13.5162 0.253464 0)
(-14.5006 0.413119 0)
(-14.4607 0.286135 0)
(-15.417 0.446954 0)
(-15.4346 0.258973 0)
(-16.3092 0.459355 0)
(-16.3477 0.257534 0)
(-17.1235 0.438054 0)
(-17.1522 0.254263 0)
(-17.8261 0.329557 0)
(-17.8516 0.162097 0)
(-18.3156 0.154147 0)
(-18.3416 0.0252833 0)
(-18.5501 -0.0452874 0)
(-18.5574 -0.0959519 0)
(-18.6167 -0.111451 0)
(-18.5425 -0.13955 0)
(-18.5473 -0.160713 0)
(-18.2881 -0.217132 0)
(-18.2962 -0.217818 0)
(-17.9733 -0.305809 0)
(-17.7534 -0.285564 0)
(-17.5862 -0.327717 0)
(-17.0112 -0.201189 0)
(-16.9949 -0.284406 0)
(-16.3348 -0.231255 0)
(-16.3258 -0.305125 0)
(-15.5931 -0.207688 0)
(-15.605 -0.258584 0)
(-14.9503 -0.185533 0)
(-14.9652 -0.207217 0)
(-14.3667 -0.14823 0)
(-14.3937 -0.142793 0)
(-13.9466 -0.0978328 0)
(-13.9639 -0.111684 0)
(-13.7043 -0.125981 0)
(-13.7128 -0.121424 0)
(-13.635 -0.100363 0)
(-13.7351 -0.0712646 0)
(-13.7135 -0.0279938 0)
(-14.0466 0.0961236 0)
(-14.0328 0.0830803 0)
(-14.5832 0.289606 0)
(-14.5816 0.246722 0)
(-15.33 0.475299 0)
(-15.3437 0.385847 0)
(-16.1826 0.60021 0)
(-16.2007 0.508582 0)
(-17.0832 0.675175 0)
(-17.0825 0.590956 0)
(-17.9006 0.659322 0)
(-17.9195 0.594914 0)
(-18.4155 0.508616 0)
(-18.5053 0.364235 0)
(-18.6776 0.264002 0)
(-18.746 0.106502 0)
(-18.7469 -0.00627575 0)
(-18.5578 -0.17294 0)
(-18.5123 -0.360959 0)
(-17.7256 -0.356373 0)
(-17.6637 -0.357153 0)
(-16.4229 -0.478354 0)
(-16.4181 -0.459423 0)
(-14.8986 -0.638822 0)
(-14.8254 -0.691573 0)
(-13.1294 -0.883886 0)
(-12.9107 -0.652166 0)
(-11.5271 -0.675599 0)
(-11.4242 -0.721266 0)
(-9.89819 -0.920858 0)
(-9.64037 -0.760003 0)
(-8.39352 -0.603919 0)
(-8.23778 -0.520372 0)
(-7.10112 -0.771367 0)
(-6.91917 -0.77093 0)
(-5.48904 -1.17468 0)
(-5.05766 -0.963727 0)
(-3.87168 -0.975442 0)
(-3.5428 -0.673163 0)
(-2.55947 -0.908973 0)
(-2.16464 -0.652258 0)
(-1.19777 -0.900797 0)
(-0.817767 -0.596327 0)
(-0.114747 -0.579271 0)
(0.0171948 -0.423689 0)
(0.794839 -0.45121 0)
(0.818162 -0.253846 0)
(1.67986 -0.34007 0)
(1.46305 -0.136409 0)
(2.29641 -0.148098 0)
(1.95933 -0.119036 0)
(2.80205 -0.172849 0)
(2.35506 0.0215592 0)
(3.08265 -0.108461 0)
(2.79919 -0.0967318 0)
(3.46435 -0.0818964 0)
(3.01856 0.00518752 0)
(3.48821 -0.0419513 0)
(3.48606 -0.0460478 0)
(3.57695 -0.036676 0)
(3.51829 -0.0472651 0)
(3.88033 -0.0305338 0)
(3.74107 -0.0881992 0)
(4.00714 -0.0254086 0)
(3.96351 -0.0455015 0)
(4.07494 0.00316283 0)
(3.99152 -0.00588697 0)
(4.05897 0.0517661 0)
(3.94385 0.0258581 0)
(4.00388 0.119625 0)
(3.75077 0.0468627 0)
(3.83684 0.183835 0)
(3.44277 0.0385272 0)
(3.61791 0.230479 0)
(2.97843 0.0803193 0)
(3.17502 0.278965 0)
(2.48629 0.0143147 0)
(2.84361 0.227172 0)
(1.87675 0.172304 0)
(2.21049 0.323285 0)
(1.12791 0.0310242 0)
(1.59624 0.288471 0)
(0.565036 0.214799 0)
(0.6315 0.24786 0)
(0.0672667 0.0478084 0)
(0.0712048 0.300209 0)
(-0.435303 0.389854 0)
(-0.584975 0.46911 0)
(-1.21866 0.23818 0)
(-1.36167 0.467479 0)
(-1.97599 0.40305 0)
(-2.20444 0.505521 0)
(-2.92539 0.265533 0)
(-3.01008 0.293765 0)
(-3.64459 0.283483 0)
(-3.75026 0.307586 0)
(-4.44838 0.138038 0)
(-4.48429 0.131284 0)
(-5.14811 0.143802 0)
(-5.17121 0.152578 0)
(-5.83527 0.164499 0)
(-5.82606 0.0908397 0)
(-6.47771 0.204839 0)
(-6.44981 0.162534 0)
(-7.10059 0.269055 0)
(-7.1058 0.151961 0)
(-7.69507 0.244861 0)
(-7.70354 0.193477 0)
(-8.258 0.314162 0)
(-8.27066 0.24122 0)
(-8.78144 0.302122 0)
(-8.78601 0.277025 0)
(-9.19256 0.254163 0)
(-9.20219 0.222025 0)
(-9.46453 0.166268 0)
(-9.47626 0.107405 0)
(-9.60101 0.034579 0)
(-9.6227 -0.014704 0)
(-9.6507 -0.0610761 0)
(-9.64892 -0.085113 0)
(-9.58307 -0.114095 0)
(-9.58643 -0.112338 0)
(-9.40297 -0.0792953 0)
(-9.41026 -0.0888507 0)
(-9.19131 -0.0596464 0)
(-9.18658 -0.117063 0)
(-8.91571 -0.110087 0)
(-8.89928 -0.145065 0)
(-8.56029 -0.115659 0)
(-8.53773 -0.147151 0)
(-8.13708 -0.123724 0)
(-8.11381 -0.165117 0)
(-7.77017 -0.0860586 0)
(-7.75969 -0.123769 0)
(-7.38659 -0.121995 0)
(-7.37465 -0.144811 0)
(-6.9556 -0.116604 0)
(-6.95082 -0.133786 0)
(-6.57399 -0.121223 0)
(-6.56534 -0.137175 0)
(-6.17597 -0.129916 0)
(-6.17411 -0.131488 0)
(-5.78598 -0.134831 0)
(-5.78135 -0.132982 0)
(-5.40516 -0.137627 0)
(-5.39692 -0.132735 0)
(-5.03295 -0.139382 0)
(-5.01944 -0.128097 0)
(-4.67716 -0.120069 0)
(-4.66016 -0.110772 0)
(-4.365 -0.0962587 0)
(-4.34875 -0.0837251 0)
(-4.06136 -0.0971115 0)
(-4.0388 -0.0773951 0)
(-3.78601 -0.0983148 0)
(-3.76183 -0.0877085 0)
(-3.52599 -0.11796 0)
(-3.48982 -0.105098 0)
(-3.2585 -0.101459 0)
(-3.21009 -0.0834677 0)
(-3.03969 -0.0719425 0)
(-2.96271 -0.0690496 0)
(-2.87164 -0.0376864 0)
(-2.7395 -0.0696434 0)
(-2.67347 -0.0642579 0)
(-2.51469 -0.0723288 0)
(-2.45194 -0.0564584 0)
(-2.33267 -0.0424975 0)
(-2.27227 -0.0347377 0)
(-2.19905 -0.0183343 0)
(-2.14435 -0.019635 0)
(-2.08983 -0.0154147 0)
(-2.03999 -0.0144893 0)
(-1.9903 -0.00924882 0)
(-1.94254 -0.00790553 0)
(-1.89776 -0.00598785 0)
(-1.85256 -0.00413032 0)
(-1.81369 0.000386303 0)
(-1.77507 0.00401551 0)
(-1.74305 0.00475393 0)
(-1.70812 0.00106831 0)
(-1.6781 0.00173221 0)
(-1.64647 0.00188122 0)
(-1.61967 0.00335238 0)
(-1.59143 0.00174369 0)
(-1.56634 -0.00314183 0)
(-1.53835 -0.00464546 0)
(-1.51427 -0.00468532 0)
(-1.4895 -0.00306174 0)
(-1.469 -0.00167384 0)
(-1.44682 -0.00515433 0)
(-1.42737 -0.00788202 0)
(-1.40712 -0.00900722 0)
(-1.39091 -0.00753236 0)
(-1.37677 -0.00470606 0)
(-1.36825 0.00103259 0)
(-1.3622 0.00288973 0)
(-1.35942 0.00133053 0)
(-1.35809 6.31361e-05 0)
(-1.35789 -0.0010414 0)
(-1.35912 -0.00247342 0)
(-1.36194 -0.00371002 0)
(-1.3669 -0.00376583 0)
(-1.37352 -0.00300717 0)
(-1.3824 -0.00113375 0)
(-1.39275 0.000968679 0)
(-1.40646 0.0019346 0)
(-1.42031 0.00229567 0)
(-1.43791 0.0016221 0)
(-1.45464 0.00037722 0)
(-1.47506 -0.0010844 0)
(-1.49301 -0.00232372 0)
(-1.5173 -0.00305225 0)
(-1.53756 -0.0043981 0)
(-1.56675 -0.00500852 0)
(-1.59178 -0.00564616 0)
(-1.62769 -0.00722024 0)
(-1.65798 -0.0075713 0)
(-1.70128 -0.00906672 0)
(-1.73751 -0.00518805 0)
(-1.78891 -0.00466413 0)
(-1.82821 -0.0026071 0)
(-1.87935 -0.00525846 0)
(-1.91488 -0.0055641 0)
(-1.95872 -0.00838573 0)
(-1.98575 -0.0130453 0)
(-2.01836 -0.011649 0)
(-2.04273 -0.010072 0)
(-2.07692 -0.00680201 0)
(-2.10752 -0.00109698 0)
(-2.15177 4.04617e-05 0)
(-2.18816 -8.61356e-05 0)
(-2.23685 -0.00404396 0)
(-2.27381 -0.00660707 0)
(-2.32225 -0.00757942 0)
(-2.35709 -0.0111357 0)
(-2.40079 -0.0135426 0)
(-2.43227 -0.0113947 0)
(-2.47464 -0.00743351 0)
(-2.50751 -0.00352373 0)
(-2.55072 -0.00643759 0)
(-2.58123 -0.00740148 0)
(-2.61944 -0.00570565 0)
(-2.64732 -0.00839966 0)
(-2.6797 -0.00782281 0)
(-2.70279 -0.00901899 0)
(-2.7279 -0.0135958 0)
(-2.74588 -0.0149837 0)
(-2.76547 -0.0112789 0)
(-2.78209 -0.0117057 0)
(-2.79911 -0.0123704 0)
(-2.8117 -0.00864242 0)
(-2.82618 -0.00939718 0)
(-2.83555 -0.011359 0)
(-2.84517 -0.0132518 0)
(-2.85173 -0.0122864 0)
(-2.85707 -0.0102092 0)
(-2.86143 -0.00820061 0)
(-2.86435 -0.0104535 0)
(-2.86387 -0.0121748 0)
(-2.86066 -0.0141354 0)
(-2.85537 -0.0138385 0)
(-2.84894 -0.0134763 0)
(-2.84031 -0.0127147 0)
(-2.83036 -0.0119972 0)
(-2.81828 -0.0108626 0)
(-2.8047 -0.0105411 0)
(-2.78925 -0.0110112 0)
(-2.77239 -0.011523 0)
(-2.75373 -0.0119021 0)
(-2.73364 -0.0112293 0)
(-2.71176 -0.0112428 0)
(-2.68795 -0.0117737 0)
(-2.66235 -0.0140879 0)
(-2.6339 -0.0151596 0)
(-2.60412 -0.0167726 0)
(-2.57211 -0.0157408 0)
(-2.53956 -0.0157388 0)
(-2.50481 -0.0145052 0)
(-2.46949 -0.014437 0)
(-2.43199 -0.0125004 0)
(-2.39437 -0.0112366 0)
(-2.35563 -0.0076699 0)
(-2.31675 -0.00523967 0)
(-2.27794 -0.00287818 0)
(-2.23446 -0.0049872 0)
(-2.19076 -0.0069237 0)
(-2.14214 -0.00846016 0)
(-2.095 -0.0104694 0)
(-2.04397 -0.00813438 0)
(-1.99726 -0.0090784 0)
(-1.95062 -0.00271106 0)
(-1.91011 -0.00277088 0)
(-1.87339 0.00149871 0)
(-1.84159 0.00199291 0)
(-1.81066 0.00348145 0)
(-1.78264 0.00244744 0)
(-1.74973 -0.00202938 0)
(-1.71707 -0.00252455 0)
(-1.68417 -0.0017995 0)
(-1.6532 -0.00250683 0)
(-1.62158 -0.00124409 0)
(-1.59295 -0.00186488 0)
(-1.56417 -0.00373824 0)
(-1.53804 -0.00393702 0)
(-1.5134 -0.00426757 0)
(-1.4913 -0.00385686 0)
(-1.47199 -0.00281361 0)
(-1.45472 -0.00365988 0)
(-1.43963 -0.00384818 0)
(-1.4265 -0.00383258 0)
(-1.41471 -0.00337278 0)
(-1.40456 -0.00426161 0)
(-1.39605 -0.00457019 0)
(-1.38886 -0.00400034 0)
(-1.38362 -0.00364097 0)
(-1.38033 -0.00227485 0)
(-1.37921 -0.00185473 0)
(-1.38009 -0.00218095 0)
(-1.38269 -0.00316129 0)
(-1.38689 -0.00408804 0)
(-1.39263 -0.00463661 0)
(-1.40053 -0.00399192 0)
(-1.41048 -0.0028216 0)
(-1.42375 -0.00128776 0)
(-1.43834 -0.000747891 0)
(-1.45613 -0.000210338 0)
(-1.47428 5.27651e-05 0)
(-1.49627 0.00161781 0)
(-1.5177 0.00292693 0)
(-1.54409 0.00408547 0)
(-1.56832 0.00368834 0)
(-1.59817 0.00295898 0)
(-1.6242 0.000909598 0)
(-1.65653 0.000232907 0)
(-1.68348 -0.000983572 0)
(-1.7192 -0.00127482 0)
(-1.74811 -0.00318086 0)
(-1.78452 -0.00506436 0)
(-1.81385 -0.00568875 0)
(-1.85051 -0.00620747 0)
(-1.88088 -0.00419497 0)
(-1.91913 -0.00452376 0)
(-1.94916 -0.00520856 0)
(-1.98575 -0.00548724 0)
(-2.01559 -0.00151189 0)
(-2.05397 -0.00123775 0)
(-2.08579 0.001288 0)
(-2.12621 0.000646031 0)
(-2.15739 0.00149712 0)
(-2.19715 0.000243097 0)
(-2.22557 -0.000330408 0)
(-2.26101 -0.00299036 0)
(-2.28682 -0.0051686 0)
(-2.31616 -0.00751738 0)
(-2.33887 -0.00956381 0)
(-2.36354 -0.00754982 0)
(-2.38473 -0.00198589 0)
(-2.40974 -0.00225877 0)
(-2.42891 -0.00127877 0)
(-2.45108 -0.0026256 0)
(-2.46774 -0.00094512 0)
(-2.48735 -0.000146203 0)
(-2.50235 0.000485948 0)
(-2.51872 4.40225e-05 0)
(-2.53073 -5.01741e-05 0)
(-2.54221 -0.00270404 0)
(-2.55008 -0.00165305 0)
(-2.55708 -0.00167344 0)
(-2.56179 -0.000421355 0)
(-2.56501 -0.000825264 0)
(-2.56644 0.000181434 0)
(-2.56589 -0.000308513 0)
(-2.56313 0.000611257 0)
(-2.55824 -0.000419077 0)
(-2.55082 0.000462091 0)
(-2.54045 -0.000871045 0)
(-2.52888 -0.00121324 0)
(-2.51311 -0.002753 0)
(-2.49825 -0.00249044 0)
(-2.47959 -0.0028173 0)
(-2.46235 -0.00389241 0)
(-2.44129 -0.00514248 0)
(-2.42037 -0.00570894 0)
(-2.39621 -0.00696489 0)
(-2.37117 -0.00695657 0)
(-2.34362 -0.0078229 0)
(-2.31503 -0.00753302 0)
(-2.28426 -0.00725748 0)
(-2.25325 -0.00584629 0)
(-2.22006 -0.00668841 0)
(-2.1866 -0.00658771 0)
(-2.15169 -0.00568252 0)
(-2.11716 -0.00466143 0)
(-2.08271 -0.00121521 0)
(-2.04823 0.0015591 0)
(-2.01486 0.00142599 0)
(-1.97609 -0.000457099 0)
(-1.93885 -0.00325568 0)
(-1.89471 -0.0055292 0)
(-1.85282 -0.00941037 0)
(-1.80742 -0.00894934 0)
(-1.7643 -0.0108287 0)
(-1.72259 -0.00465868 0)
(-1.68377 -0.00505344 0)
(-1.64733 0.000898241 0)
(-1.61607 0.00103951 0)
(-1.58199 -1.94984e-05 0)
(-1.55319 -0.00206487 0)
(-1.51873 -0.00190621 0)
(-1.48983 -0.0037185 0)
(-1.45755 -0.00213796 0)
(-1.42874 -0.00489353 0)
(-1.39853 -0.0064092 0)
(-1.3676 -0.00980127 0)
(-1.33931 -0.00916771 0)
(-1.30716 -0.0112589 0)
(-1.27928 -0.0145523 0)
(-1.24707 -0.0149582 0)
(-1.22199 -0.0192432 0)
(-1.18631 -0.0214907 0)
(-1.16479 -0.0229107 0)
(-1.12608 -0.0278399 0)
(-1.10657 -0.024981 0)
(-1.07082 -0.0281372 0)
(-1.05041 -0.0253811 0)
(-1.02692 -0.0278217 0)
(-0.114403 0.136094 0)
(-0.591705 0.216735 0)
(-0.818915 0.214633 0)
(-1.64164 0.386032 0)
(-1.78232 0.367777 0)
(-2.76758 0.364558 0)
(-2.82265 0.302758 0)
(-3.8648 0.406436 0)
(-3.90318 0.257765 0)
(-4.96123 0.404937 0)
(-4.97075 0.27963 0)
(-6.02187 0.403229 0)
(-6.01359 0.316004 0)
(-7.03606 0.412334 0)
(-7.00614 0.319267 0)
(-8.00186 0.407923 0)
(-7.94691 0.297281 0)
(-8.92577 0.410896 0)
(-8.90101 0.332036 0)
(-9.83929 0.385362 0)
(-9.79214 0.253234 0)
(-10.7298 0.384846 0)
(-10.6398 0.221165 0)
(-11.5912 0.393545 0)
(-11.518 0.225376 0)
(-12.5057 0.427293 0)
(-12.4419 0.254953 0)
(-13.4504 0.464299 0)
(-13.376 0.303264 0)
(-14.3856 0.532032 0)
(-14.3606 0.388797 0)
(-15.3254 0.625025 0)
(-15.3223 0.512 0)
(-16.2559 0.658118 0)
(-16.2575 0.528076 0)
(-17.1431 0.700958 0)
(-17.1685 0.580599 0)
(-17.9915 0.746532 0)
(-18.0244 0.566973 0)
(-18.7564 0.690699 0)
(-18.7588 0.564521 0)
(-19.3865 0.589278 0)
(-19.397 0.464638 0)
(-19.8645 0.353963 0)
(-19.9088 0.234354 0)
(-20.1633 0.0685336 0)
(-20.2194 -0.0666717 0)
(-20.3615 -0.157849 0)
(-20.3568 -0.238466 0)
(-20.3958 -0.318747 0)
(-20.2234 -0.381482 0)
(-20.2186 -0.378748 0)
(-19.8567 -0.43776 0)
(-19.7569 -0.547966 0)
(-19.4509 -0.676389 0)
(-19.0409 -0.719708 0)
(-18.8723 -0.730328 0)
(-18.2514 -0.632005 0)
(-18.1252 -0.776328 0)
(-17.4271 -0.745688 0)
(-17.3401 -0.79119 0)
(-16.64 -0.618741 0)
(-16.5723 -0.716964 0)
(-15.8748 -0.536367 0)
(-15.8477 -0.582504 0)
(-15.2582 -0.397709 0)
(-15.243 -0.42104 0)
(-14.7892 -0.241805 0)
(-14.7862 -0.244361 0)
(-14.6291 -0.180885 0)
(-14.6988 -0.120567 0)
(-14.7067 -0.0933535 0)
(-15.0389 0.127097 0)
(-15.0345 0.145956 0)
(-15.6006 0.403922 0)
(-15.6013 0.409534 0)
(-16.2928 0.716053 0)
(-16.2921 0.692448 0)
(-17.0337 0.923246 0)
(-17.0488 0.889915 0)
(-17.7487 1.05029 0)
(-17.7772 1.01933 0)
(-18.3937 1.04917 0)
(-18.439 1.01576 0)
(-18.8627 0.896717 0)
(-18.9484 0.815911 0)
(-19.0892 0.549573 0)
(-19.1774 0.389706 0)
(-19.1715 0.159467 0)
(-19.1756 -0.122916 0)
(-19.0444 -0.330413 0)
(-18.844 -0.8123 0)
(-18.7176 -0.944593 0)
(-17.7349 -1.49898 0)
(-17.441 -1.19264 0)
(-16.2137 -1.97431 0)
(-15.8692 -1.552 0)
(-14.1903 -2.46283 0)
(-13.705 -1.90313 0)
(-12.2932 -2.08066 0)
(-12.0099 -1.3246 0)
(-10.5816 -2.23158 0)
(-10.2721 -1.89708 0)
(-8.87315 -2.04548 0)
(-8.65101 -1.28337 0)
(-7.40994 -1.60717 0)
(-7.32072 -1.36696 0)
(-5.63271 -2.2103 0)
(-5.48099 -1.85145 0)
(-3.90765 -2.21298 0)
(-3.85808 -1.55397 0)
(-2.57924 -1.62684 0)
(-2.54703 -1.48605 0)
(-1.15971 -1.58545 0)
(-1.11319 -1.33498 0)
(0.0100469 -1.40678 0)
(0.0461183 -0.907883 0)
(1.07681 -1.12207 0)
(1.0364 -0.734383 0)
(2.18598 -0.922325 0)
(1.95959 -0.533841 0)
(3.19389 -0.759446 0)
(2.73119 -0.342039 0)
(3.95645 -0.578376 0)
(3.41535 -0.220195 0)
(4.53326 -0.338819 0)
(4.19543 -0.390043 0)
(5.18546 -0.357285 0)
(4.54072 -0.0924713 0)
(5.43562 -0.166988 0)
(5.18655 -0.245623 0)
(5.78364 -0.146456 0)
(5.50758 -0.0554507 0)
(6.0115 -0.16269 0)
(5.76333 -0.202122 0)
(6.25687 -0.159736 0)
(6.16111 -0.175893 0)
(6.38935 -0.0372463 0)
(6.38119 -0.00755451 0)
(6.40232 0.0235139 0)
(6.39648 0.0390012 0)
(6.43505 0.0872664 0)
(6.22128 0.15135 0)
(6.35657 0.268052 0)
(5.88371 0.192112 0)
(6.13982 0.391321 0)
(5.41013 0.33508 0)
(5.75772 0.591338 0)
(4.80271 0.343741 0)
(5.17786 0.621778 0)
(4.01004 0.288143 0)
(4.58246 0.625684 0)
(3.19842 0.641869 0)
(3.56319 0.816856 0)
(1.94079 0.329916 0)
(2.61284 0.858388 0)
(1.0793 0.399804 0)
(1.26315 0.461974 0)
(0.335782 0.493486 0)
(0.537921 1.02636 0)
(-0.534164 0.726866 0)
(-0.574006 0.871513 0)
(-1.45281 0.648063 0)
(-1.40914 1.07641 0)
(-2.25976 0.754426 0)
(-2.43452 0.967943 0)
(-3.25049 0.528522 0)
(-3.34618 0.883629 0)
(-3.99151 0.651611 0)
(-4.2392 0.850667 0)
(-5.08849 0.484109 0)
(-5.18809 0.55155 0)
(-5.81201 0.549954 0)
(-5.94537 0.608982 0)
(-6.61219 0.397111 0)
(-6.63149 0.400459 0)
(-7.26933 0.549392 0)
(-7.31608 0.570182 0)
(-7.95585 0.44512 0)
(-7.96287 0.440337 0)
(-8.54218 0.475314 0)
(-8.54515 0.502987 0)
(-9.05814 0.465644 0)
(-9.05133 0.467377 0)
(-9.4344 0.414111 0)
(-9.43279 0.393949 0)
(-9.68839 0.293458 0)
(-9.71608 0.254015 0)
(-9.82259 0.11508 0)
(-9.86859 0.0684778 0)
(-9.91797 -0.0256911 0)
(-9.93733 -0.0698309 0)
(-9.93684 -0.152452 0)
(-9.94331 -0.178698 0)
(-9.84321 -0.251488 0)
(-9.8371 -0.250649 0)
(-9.64166 -0.269098 0)
(-9.62877 -0.260049 0)
(-9.38853 -0.34861 0)
(-9.37344 -0.348865 0)
(-9.07078 -0.440082 0)
(-9.0293 -0.407718 0)
(-8.67736 -0.500393 0)
(-8.60801 -0.483723 0)
(-8.23036 -0.47531 0)
(-8.16604 -0.390743 0)
(-7.85902 -0.419278 0)
(-7.81347 -0.421535 0)
(-7.4026 -0.54003 0)
(-7.30165 -0.447218 0)
(-6.97135 -0.463625 0)
(-6.90069 -0.400153 0)
(-6.54812 -0.516611 0)
(-6.45128 -0.398499 0)
(-6.11285 -0.505035 0)
(-6.03039 -0.390587 0)
(-5.69571 -0.490609 0)
(-5.61802 -0.37478 0)
(-5.29451 -0.469456 0)
(-5.21876 -0.375863 0)
(-4.90605 -0.432324 0)
(-4.8401 -0.337878 0)
(-4.55363 -0.373947 0)
(-4.49235 -0.288016 0)
(-4.23933 -0.333042 0)
(-4.18849 -0.258958 0)
(-3.91334 -0.304828 0)
(-3.86701 -0.218917 0)
(-3.62677 -0.303199 0)
(-3.58639 -0.223828 0)
(-3.34054 -0.303026 0)
(-3.30999 -0.221043 0)
(-3.08951 -0.226325 0)
(-3.04527 -0.177036 0)
(-2.9425 -0.155264 0)
(-2.7995 -0.16722 0)
(-2.75769 -0.125782 0)
(-2.55732 -0.198828 0)
(-2.52905 -0.142721 0)
(-2.36166 -0.133301 0)
(-2.34111 -0.101357 0)
(-2.21977 -0.0627684 0)
(-2.19848 -0.0599225 0)
(-2.09962 -0.0398888 0)
(-2.07264 -0.0431889 0)
(-1.99832 -0.0303242 0)
(-1.95677 -0.0259597 0)
(-1.91602 -0.0187881 0)
(-1.85176 -0.0177284 0)
(-1.83517 -0.0104216 0)
(-1.75997 -0.00571247 0)
(-1.75548 0.00448175 0)
(-1.68899 0.0027766 0)
(-1.68839 -0.00121903 0)
(-1.62509 -0.00159646 0)
(-1.62546 -0.00101215 0)
(-1.56717 -0.000213909 0)
(-1.56714 0.00145886 0)