/*--------------------------------*- C++ -*----------------------------------*\
| =========                 |                                                 |
| \\      /  F ield         | OpenFOAM: The Open Source CFD Toolbox           |
|  \\    /   O peration     | Version:  v1812                                 |
|   \\  /    A nd           | Web:      www.OpenFOAM.com                      |
|    \\/     M anipulation  |                                                 |
\*---------------------------------------------------------------------------*/
FoamFile
{
    version     2.0;
    format      ascii;
    class       surfaceScalarField;
    location    "0.0005";
    object      phi;
}
// * * * * * * * * * * * * * * * * * * * * * * * * * * * * * * * * * * * * * //

dimensions      [1 0 -1 0 0 0 0];
oriented        oriented;


internalField   nonuniform List<scalar> 
16762
(
0.0423011
-4.34978e-18
0.0423011
1.82243e-18
0.0423011
-1.67889e-18
0.0423011
-2.67644e-17
0.0423011
-1.84313e-17
0.0423011
-2.95152e-17
0.0423011
-1.78196e-17
0.0423011
-4.03535e-17
0.0423011
-5.57928e-17
0.0423011
-4.32087e-17
0.0423011
-3.15476e-17
0.0423011
-4.04627e-17
0.0423011
-2.96085e-17
0.0423011
-3.15981e-17
0.0423011
-7.50568e-18
0.0423011
2.51544e-17
0.0423011
2.97281e-17
0.0423011
5.606e-17
0.0423011
5.53987e-17
0.0423011
6.06533e-17
0.0423011
9.15386e-17
0.0423011
9.24391e-17
0.0423011
1.26365e-16
0.0423011
6.24877e-17
0.0423011
7.56191e-17
0.0423011
9.19123e-17
0.0423011
1.04343e-16
0.0423011
7.90514e-17
0.0423011
8.63002e-17
0.0423011
6.47041e-17
0.0423011
6.61633e-17
0.0423011
2.02258e-16
0.0423011
1.96486e-14
0.0423011
5.16012e-13
0.0423011
8.61295e-11
0.0423011
2.73682e-09
0.0423007
3.97971e-07
1.58052e-05
0.042285
0.0423011
-2.54889e-18
0.0423011
-4.55551e-18
0.0423011
-5.12499e-18
0.0423011
1.33105e-17
0.0423011
-1.66956e-17
0.0423011
-5.0204e-18
0.0423011
-1.76574e-17
0.0423011
-1.47557e-17
0.0423011
-9.40697e-18
0.0423011
-3.26131e-17
0.0423011
-1.87848e-17
0.0423011
-3.6347e-17
0.0423011
-3.58339e-18
0.0423011
-3.03105e-17
0.0423011
-3.30299e-17
0.0423011
-4.05924e-17
0.0423011
-5.35582e-18
0.0423011
3.40356e-18
0.0423011
3.06367e-17
0.0423011
5.32344e-17
0.0423011
6.00026e-17
0.0423011
5.81434e-17
0.0423011
3.93729e-17
0.0423011
7.77196e-17
0.0423011
6.11653e-17
0.0423011
5.375e-17
0.0423011
8.55939e-17
0.0423011
9.88646e-17
0.0423011
9.69377e-17
0.0423011
9.60094e-17
0.0423011
8.51805e-17
0.0423011
2.37233e-16
0.0423011
7.34637e-15
0.0423011
5.11817e-13
0.0423011
2.10299e-11
0.0423011
1.55369e-09
0.0423015
4.65928e-08
3.4981e-06
0.0423137
0.0423011
-9.83591e-18
0.0423011
1.66284e-17
0.0423011
-5.83446e-19
0.0423011
-3.30112e-17
0.0423011
-8.73545e-18
0.0423011
-2.75321e-19
0.0423011
-5.44621e-18
0.0423011
-9.87881e-18
0.0423011
-1.93746e-17
0.0423011
-3.57889e-18
0.0423011
-1.56749e-17
0.0423011
-1.10149e-17
0.0423011
-3.0582e-17
0.0423011
-4.97176e-17
0.0423011
-4.08676e-17
0.0423011
-1.73464e-17
0.0423011
-7.16542e-18
0.0423011
3.00944e-18
0.0423011
-2.41311e-18
0.0423011
1.12711e-17
0.0423011
1.11204e-17
0.0423011
1.30642e-17
0.0423011
3.26142e-17
0.0423011
1.83866e-17
0.0423011
6.71055e-17
0.0423011
7.55784e-17
0.0423011
7.6282e-17
0.0423011
8.78329e-17
0.0423011
1.08652e-16
0.0423011
9.82736e-17
0.0423011
8.97546e-17
0.0423011
1.31132e-16
0.0423011
8.66719e-16
0.0423011
1.13194e-13
0.0423011
1.61474e-12
0.0423011
2.1808e-10
0.0423012
2.02144e-09
3.49869e-07
0.0423043
0.0423011
8.83832e-18
0.0423011
-2.60229e-17
0.0423011
4.49452e-18
0.0423011
5.78073e-18
0.0423011
-2.65718e-17
0.0423011
-3.13242e-17
0.0423011
-1.71585e-17
0.0423011
-4.79494e-17
0.0423011
-5.84255e-17
0.0423011
-4.73614e-17
0.0423011
-2.1987e-17
0.0423011
-1.86736e-17
0.0423011
-2.54371e-17
0.0423011
-2.76202e-17
0.0423011
-3.46123e-17
0.0423011
-1.83646e-17
0.0423011
-1.54993e-17
0.0423011
-3.54309e-17
0.0423011
-3.48433e-18
0.0423011
-1.93677e-17
0.0423011
-2.70512e-17
0.0423011
-5.22766e-18
0.0423011
-2.70548e-18
0.0423011
8.74684e-18
0.0423011
4.11639e-17
0.0423011
7.05003e-17
0.0423011
7.38654e-17
0.0423011
7.95767e-17
0.0423011
6.62503e-17
0.0423011
7.36766e-17
0.0423011
7.86674e-17
0.0423011
6.0608e-17
0.0423011
6.99999e-17
0.0423011
1.10138e-14
0.0423011
3.42792e-14
0.0423011
1.51687e-11
0.0423011
3.70806e-11
2.06293e-08
0.0423015
0.0423011
-6.02303e-19
0.0423011
-3.45668e-18
0.0423011
-1.57602e-17
0.0423011
-1.65087e-17
0.0423011
2.27066e-18
0.0423011
-6.62654e-18
0.0423011
-2.07665e-17
0.0423011
-6.90188e-18
0.0423011
-1.8352e-17
0.0423011
-2.7787e-17
0.0423011
-3.52123e-17
0.0423011
-3.60629e-17
0.0423011
-2.85575e-17
0.0423011
-2.56481e-17
0.0423011
-6.5879e-18
0.0423011
-1.022e-17
0.0423011
-2.09679e-17
0.0423011
-9.94006e-18
0.0423011
-7.12717e-18
0.0423011
-7.31628e-18
0.0423011
-4.9142e-18
0.0423011
-2.70645e-17
0.0423011
-9.26103e-18
0.0423011
1.64542e-17
0.0423011
6.10449e-17
0.0423011
4.19754e-17
0.0423011
5.75979e-17
0.0423011
5.23868e-17
0.0423011
5.48812e-17
0.0423011
4.28632e-17
0.0423011
4.06811e-17
0.0423011
2.77773e-17
0.0423011
2.59839e-17
0.0423011
4.88075e-16
0.0423011
1.12194e-17
0.0423011
6.32418e-13
0.0423011
6.50705e-13
8.46875e-10
0.0423011
0.0423011
-7.75679e-19
0.0423011
1.38547e-17
0.0423011
-2.77079e-18
0.0423011
-3.79947e-18
0.0423011
-1.19429e-17
0.0423011
-1.71398e-17
0.0423011
-2.49959e-17
0.0423011
-2.04472e-17
0.0423011
-6.97737e-18
0.0423011
-2.11667e-17
0.0423011
-3.65168e-17
0.0423011
-2.02302e-17
0.0423011
-2.21889e-17
0.0423011
-2.92687e-17
0.0423011
-1.33397e-17
0.0423011
-1.60476e-17
0.0423011
-2.70432e-18
0.0423011
-2.48335e-18
0.0423011
-1.89793e-17
0.0423011
-1.81713e-17
0.0423011
-9.66098e-18
0.0423011
1.36704e-17
0.0423011
1.93068e-17
0.0423011
1.66565e-17
0.0423011
1.12435e-17
0.0423011
-6.14877e-18
0.0423011
-3.01084e-17
0.0423011
-6.969e-18
0.0423011
2.48627e-17
0.0423011
1.3253e-17
0.0423011
4.11565e-17
0.0423011
1.51258e-17
0.0423011
1.7965e-17
0.0423011
1.79063e-17
0.0423011
-2.65303e-17
0.0423011
1.84701e-14
0.0423011
2.07186e-14
2.64858e-11
0.0423011
0.0423011
-2.27568e-17
0.0423011
-1.04041e-17
0.0423011
2.22692e-20
0.0423011
-3.04339e-18
0.0423011
-1.22874e-18
0.0423011
-2.27274e-17
0.0423011
-3.72751e-17
0.0423011
-3.63614e-17
0.0423011
-2.61353e-17
0.0423011
-4.71066e-18
0.0423011
2.79044e-19
0.0423011
1.01623e-17
0.0423011
-9.83729e-18
0.0423011
7.9387e-18
0.0423011
2.26628e-18
0.0423011
3.67719e-18
0.0423011
-5.81428e-18
0.0423011
-3.12848e-18
0.0423011
-1.50241e-17
0.0423011
-7.83193e-18
0.0423011
-1.25035e-17
0.0423011
1.50657e-18
0.0423011
5.16887e-18
0.0423011
-5.63917e-18
0.0423011
6.63025e-18
0.0423011
-1.68553e-17
0.0423011
-2.38979e-17
0.0423011
-2.30101e-17
0.0423011
-2.1497e-17
0.0423011
-1.67412e-17
0.0423011
-2.56641e-17
0.0423011
1.57545e-18
0.0423011
-6.6843e-18
0.0423011
3.50569e-18
0.0423011
-3.25193e-17
0.0423011
3.30686e-16
0.0423011
4.87065e-16
6.67714e-13
0.0423011
0.0423011
3.37267e-18
0.0423011
2.62169e-18
0.0423011
-2.51127e-18
0.0423011
3.75372e-18
0.0423011
1.11161e-17
0.0423011
-1.04257e-17
0.0423011
-9.7513e-18
0.0423011
-2.66883e-17
0.0423011
-2.76234e-17
0.0423011
-9.69649e-18
0.0423011
2.15265e-17
0.0423011
2.9358e-17
0.0423011
6.40055e-18
0.0423011
-1.69278e-17
0.0423011
-1.46258e-17
0.0423011
-2.52893e-17
0.0423011
-1.5148e-17
0.0423011
-3.08862e-17
0.0423011
-6.51251e-18
0.0423011
-2.00881e-17
0.0423011
-6.92234e-18
0.0423011
-1.2772e-17
0.0423011
-1.74173e-17
0.0423011
-1.94927e-17
0.0423011
-1.72612e-17
0.0423011
-2.83383e-17
0.0423011
-1.32668e-17
0.0423011
-1.45748e-17
0.0423011
-1.33263e-17
0.0423011
-1.64854e-18
0.0423011
-1.05964e-17
0.0423011
-1.0748e-18
0.0423011
9.02875e-19
0.0423011
-5.30863e-18
0.0423011
-8.74993e-19
0.0423011
1.83363e-17
0.0423011
-2.64017e-17
1.4264e-14
0.0423011
0.0423011
5.39543e-18
0.0423011
3.37281e-18
0.0423011
1.40961e-18
0.0423011
3.43948e-18
0.0423011
-4.21197e-18
0.0423011
1.23343e-17
0.0423011
5.78893e-18
0.0423011
7.49407e-18
0.0423011
4.1361e-18
0.0423011
1.22821e-17
0.0423011
-1.61336e-17
0.0423011
-1.7673e-17
0.0423011
5.30512e-18
0.0423011
1.46213e-17
0.0423011
9.1075e-18
0.0423011
7.23488e-18
0.0423011
1.39112e-17
0.0423011
2.28976e-17
0.0423011
-1.23655e-17
0.0423011
-5.44718e-18
0.0423011
1.81815e-18
0.0423011
-2.17119e-17
0.0423011
-6.03137e-18
0.0423011
-7.93792e-18
0.0423011
-2.26546e-18
0.0423011
-1.95736e-17
0.0423011
-4.38306e-17
0.0423011
-2.42233e-17
0.0423011
-2.85802e-17
0.0423011
-2.67485e-17
0.0423011
-1.70959e-17
0.0423011
-1.08968e-17
0.0423011
-1.28098e-17
0.0423011
1.25393e-17
0.0423011
-3.18229e-18
0.0423011
2.63062e-17
0.0423011
-1.45029e-18
1.99008e-16
0.0423011
0.0423011
4.01777e-19
0.0423011
-7.99595e-18
0.0423011
-3.05743e-18
0.0423011
7.62714e-18
0.0423011
1.0657e-17
0.0423011
3.21071e-18
0.0423011
9.14293e-18
0.0423011
2.14011e-17
0.0423011
1.15212e-17
0.0423011
3.78857e-17
0.0423011
1.5079e-17
0.0423011
3.41272e-18
0.0423011
1.15443e-17
0.0423011
1.51275e-17
0.0423011
1.88094e-17
0.0423011
4.03278e-17
0.0423011
2.57507e-17
0.0423011
4.72296e-18
0.0423011
2.3918e-17
0.0423011
2.45197e-18
0.0423011
1.23324e-17
0.0423011
1.25241e-18
0.0423011
-1.42847e-17
0.0423011
-3.78852e-17
0.0423011
-4.61791e-17
0.0423011
-2.035e-17
0.0423011
-1.88716e-17
0.0423011
-4.28334e-17
0.0423011
-3.4358e-18
0.0423011
-1.15927e-17
0.0423011
4.25469e-18
0.0423011
5.36705e-18
0.0423011
1.03382e-17
0.0423011
3.00713e-17
0.0423011
1.09101e-17
0.0423011
1.19853e-17
0.0423011
-8.08386e-18
1.54775e-17
0.0423011
0.0423011
3.18142e-18
0.0423011
-2.23843e-18
0.0423011
-1.66007e-17
0.0423011
-1.31143e-17
0.0423011
-1.96494e-18
0.0423011
1.7393e-17
0.0423011
8.93161e-18
0.0423011
6.45051e-18
0.0423011
1.03739e-19
0.0423011
2.66184e-18
0.0423011
6.81029e-18
0.0423011
1.13589e-17
0.0423011
2.63653e-17
0.0423011
3.32977e-17
0.0423011
2.15142e-17
0.0423011
2.14588e-17
0.0423011
1.84749e-17
0.0423011
2.03519e-17
0.0423011
3.09286e-17
0.0423011
1.97695e-17
0.0423011
7.50922e-18
0.0423011
3.74824e-18
0.0423011
-2.74406e-19
0.0423011
-2.06117e-18
0.0423011
-8.62667e-18
0.0423011
-3.27869e-18
0.0423011
1.5745e-17
0.0423011
8.85063e-18
0.0423011
-1.12689e-17
0.0423011
9.20967e-18
0.0423011
-1.79356e-17
0.0423011
-1.0981e-17
0.0423011
-2.98161e-19
0.0423011
-5.99319e-18
0.0423011
1.85287e-18
0.0423011
3.45166e-17
0.0423011
2.30958e-17
3.32793e-18
0.0423011
0.0423011
1.58292e-18
0.0423011
3.37529e-19
0.0423011
-8.71419e-19
0.0423011
-4.11352e-18
0.0423011
-2.06688e-17
0.0423011
-2.63911e-17
0.0423011
-2.5921e-19
0.0423011
-1.50702e-17
0.0423011
2.45284e-19
0.0423011
-9.47629e-18
0.0423011
-7.46628e-18
0.0423011
1.77944e-17
0.0423011
-5.33827e-18
0.0423011
1.95719e-18
0.0423011
1.1519e-17
0.0423011
1.73767e-17
0.0423011
1.51891e-17
0.0423011
3.38532e-17
0.0423011
6.48676e-18
0.0423011
3.52813e-17
0.0423011
1.63283e-17
0.0423011
3.57501e-18
0.0423011
3.68231e-18
0.0423011
1.29224e-18
0.0423011
4.70366e-18
0.0423011
1.31501e-17
0.0423011
-1.43051e-17
0.0423011
-1.22032e-17
0.0423011
-3.50371e-17
0.0423011
-1.28124e-17
0.0423011
1.35518e-17
0.0423011
-2.87288e-17
0.0423011
-1.16426e-17
0.0423011
-1.47582e-17
0.0423011
-2.4562e-17
0.0423011
-2.92972e-17
0.0423011
-3.23291e-17
-1.31274e-17
0.0423011
0.0423011
-6.78575e-18
0.0423011
3.47489e-18
0.0423011
5.34099e-18
0.0423011
4.47189e-18
0.0423011
-2.07378e-18
0.0423011
2.2024e-18
0.0423011
9.56327e-18
0.0423011
7.19089e-18
0.0423011
-7.95155e-18
0.0423011
-1.70535e-17
0.0423011
-2.80304e-17
0.0423011
-2.19056e-17
0.0423011
-1.26032e-17
0.0423011
-9.62656e-18
0.0423011
-3.02233e-18
0.0423011
-4.26862e-18
0.0423011
1.48393e-17
0.0423011
6.46858e-18
0.0423011
-7.19169e-18
0.0423011
-6.86377e-18
0.0423011
2.69894e-17
0.0423011
3.71823e-17
0.0423011
1.3786e-17
0.0423011
-1.32059e-17
0.0423011
2.44371e-17
0.0423011
-1.75171e-17
0.0423011
-6.61642e-18
0.0423011
-2.75344e-17
0.0423011
-9.65978e-18
0.0423011
-1.13594e-17
0.0423011
-1.31675e-17
0.0423011
5.90629e-19
0.0423011
-2.08269e-17
0.0423011
-1.8001e-17
0.0423011
-2.47495e-18
0.0423011
-1.37427e-17
0.0423011
-3.97839e-17
-3.57478e-17
0.0423011
0.0423011
9.48256e-19
0.0423011
4.12818e-18
0.0423011
1.44732e-17
0.0423011
-2.56416e-19
0.0423011
-1.87746e-19
0.0423011
4.84366e-18
0.0423011
1.24492e-17
0.0423011
7.20633e-18
0.0423011
1.56066e-17
0.0423011
3.72087e-18
0.0423011
4.07827e-18
0.0423011
-1.03312e-17
0.0423011
-1.74675e-17
0.0423011
-1.26059e-18
0.0423011
-6.62914e-19
0.0423011
7.71514e-18
0.0423011
-1.01335e-17
0.0423011
-4.98434e-18
0.0423011
1.59101e-19
0.0423011
1.94395e-17
0.0423011
-7.7622e-18
0.0423011
-2.12754e-17
0.0423011
-1.0763e-17
0.0423011
4.15423e-17
0.0423011
2.99999e-17
0.0423011
1.83741e-17
0.0423011
1.92173e-17
0.0423011
-3.16455e-18
0.0423011
-2.58855e-18
0.0423011
2.25963e-19
0.0423011
9.35239e-18
0.0423011
-1.51399e-17
0.0423011
-2.11593e-17
0.0423011
-3.3482e-17
0.0423011
-4.59484e-17
0.0423011
-4.33017e-17
0.0423011
-2.39627e-17
-4.6122e-17
0.0423011
0.0423011
5.03101e-19
0.0423011
-6.96979e-18
0.0423011
3.71805e-18
0.0423011
-2.13197e-18
0.0423011
3.31242e-17
0.0423011
6.82354e-18
0.0423011
4.00415e-18
0.0423011
1.38115e-17
0.0423011
1.79722e-17
0.0423011
1.3195e-17
0.0423011
1.67069e-17
0.0423011
1.90768e-17
0.0423011
-7.33362e-18
0.0423011
-3.22528e-17
0.0423011
-3.91088e-17
0.0423011
-2.07126e-17
0.0423011
-2.24866e-17
0.0423011
-9.21346e-18
0.0423011
-2.09944e-17
0.0423011
-4.7396e-18
0.0423011
6.10955e-18
0.0423011
-6.89026e-18
0.0423011
2.96703e-17
0.0423011
2.31627e-17
0.0423011
2.62462e-17
0.0423011
8.83273e-18
0.0423011
3.36071e-17
0.0423011
-1.37635e-18
0.0423011
6.91186e-18
0.0423011
3.55919e-18
0.0423011
-1.32821e-18
0.0423011
-1.75994e-17
0.0423011
-1.08699e-17
0.0423011
-1.32522e-17
0.0423011
-9.51076e-18
0.0423011
-2.39211e-17
0.0423011
-2.68773e-17
-3.73471e-17
0.0423011
0.0423011
1.56962e-18
0.0423011
-5.61351e-18
0.0423011
-1.82172e-19
0.0423011
7.02348e-18
0.0423011
9.91827e-19
0.0423011
4.96393e-18
0.0423011
-1.12621e-18
0.0423011
2.69377e-18
0.0423011
1.97017e-18
0.0423011
-2.46559e-19
0.0423011
-1.22068e-17
0.0423011
-1.35528e-17
0.0423011
-3.67964e-18
0.0423011
-4.18846e-18
0.0423011
-5.78647e-18
0.0423011
-1.4706e-17
0.0423011
-4.47587e-18
0.0423011
1.18314e-18
0.0423011
1.24264e-17
0.0423011
1.65129e-17
0.0423011
-1.85231e-18
0.0423011
9.90064e-18
0.0423011
1.7093e-17
0.0423011
4.27856e-17
0.0423011
1.52747e-17
0.0423011
8.40828e-18
0.0423011
8.82031e-18
0.0423011
2.18518e-17
0.0423011
4.13972e-18
0.0423011
1.30263e-18
0.0423011
-9.8701e-19
0.0423011
2.05884e-17
0.0423011
2.62884e-18
0.0423011
-2.06326e-17
0.0423011
-1.48996e-17
0.0423011
-6.79205e-18
0.0423011
-2.33613e-17
-1.65453e-17
0.0423011
0.0423011
1.97748e-18
0.0423011
7.4854e-18
0.0423011
3.82336e-19
0.0423011
3.77298e-19
0.0423011
-1.60398e-17
0.0423011
-3.57817e-18
0.0423011
7.18706e-18
0.0423011
1.66355e-17
0.0423011
-1.50823e-19
0.0423011
-3.85385e-18
0.0423011
-1.74102e-17
0.0423011
-2.74669e-17
0.0423011
1.05766e-18
0.0423011
2.49521e-18
0.0423011
-4.26034e-18
0.0423011
1.69793e-17
0.0423011
7.93937e-18
0.0423011
6.26058e-18
0.0423011
1.11399e-17
0.0423011
6.01764e-18
0.0423011
2.6717e-17
0.0423011
2.07718e-17
0.0423011
2.53708e-17
0.0423011
1.81348e-17
0.0423011
2.79107e-17
0.0423011
2.57749e-17
0.0423011
2.06749e-17
0.0423011
1.4224e-17
0.0423011
-4.77817e-18
0.0423011
-9.71552e-18
0.0423011
4.40531e-18
0.0423011
3.57174e-18
0.0423011
2.54373e-17
0.0423011
6.00434e-17
0.0423011
1.59862e-17
0.0423011
-1.43633e-18
0.0423011
3.04037e-18
-1.44855e-17
0.0423011
0.0423011
4.90925e-18
0.0423011
-1.55806e-18
0.0423011
-1.425e-17
0.0423011
3.47303e-18
0.0423011
1.40718e-17
0.0423011
7.13176e-18
0.0423011
-3.97688e-18
0.0423011
-7.42836e-18
0.0423011
-8.6473e-18
0.0423011
-6.52964e-18
0.0423011
6.13519e-18
0.0423011
7.41887e-18
0.0423011
1.56252e-17
0.0423011
2.31298e-17
0.0423011
-1.47757e-18
0.0423011
-4.36909e-18
0.0423011
-4.69686e-18
0.0423011
-8.02945e-18
0.0423011
2.895e-19
0.0423011
2.51586e-17
0.0423011
2.50693e-17
0.0423011
3.98048e-17
0.0423011
1.78412e-17
0.0423011
1.0207e-17
0.0423011
7.99978e-19
0.0423011
-2.87432e-18
0.0423011
7.40029e-18
0.0423011
4.71024e-18
0.0423011
8.08711e-19
0.0423011
-2.15868e-17
0.0423011
-7.41986e-18
0.0423011
5.04424e-19
0.0423011
1.84538e-18
0.0423011
1.79338e-17
0.0423011
6.46593e-18
0.0423011
1.53151e-17
0.0423011
-1.22059e-18
1.60336e-17
0.0423011
0.0423011
1.78109e-18
0.0423011
1.14354e-17
0.0423011
2.27489e-18
0.0423011
3.4334e-18
0.0423011
1.3671e-17
0.0423011
-3.32002e-18
0.0423011
-7.39652e-18
0.0423011
-2.57271e-17
0.0423011
-8.68658e-18
0.0423011
-3.21812e-18
0.0423011
1.30735e-17
0.0423011
1.89507e-17
0.0423011
2.98248e-17
0.0423011
1.45945e-17
0.0423011
1.3393e-17
0.0423011
4.03116e-18
0.0423011
9.38036e-18
0.0423011
8.10978e-18
0.0423011
-1.5137e-17
0.0423011
1.5277e-17
0.0423011
2.40817e-17
0.0423011
1.34418e-17
0.0423011
2.46252e-17
0.0423011
2.79476e-18
0.0423011
1.42039e-17
0.0423011
7.88766e-18
0.0423011
-5.80448e-18
0.0423011
4.18156e-18
0.0423011
1.26071e-17
0.0423011
9.69229e-18
0.0423011
-3.60063e-17
0.0423011
-6.45079e-18
0.0423011
-1.73171e-17
0.0423011
3.59315e-18
0.0423011
9.63301e-18
0.0423011
1.75517e-17
0.0423011
4.6321e-18
-8.18997e-19
0.0423011
0.0423011
3.73005e-18
0.0423011
-3.87499e-19
0.0423011
3.72955e-18
0.0423011
-9.73154e-20
0.0423011
3.67401e-18
0.0423011
3.45524e-18
0.0423011
2.07936e-17
0.0423011
-1.06854e-17
0.0423011
-1.59269e-17
0.0423011
-5.51735e-18
0.0423011
-2.33541e-18
0.0423011
7.38583e-18
0.0423011
5.9143e-18
0.0423011
1.01217e-17
0.0423011
9.77138e-18
0.0423011
-5.4542e-18
0.0423011
1.33353e-17
0.0423011
1.61525e-17
0.0423011
1.8639e-17
0.0423011
1.17605e-17
0.0423011
3.92106e-18
0.0423011
2.14198e-17
0.0423011
-2.06071e-17
0.0423011
2.25579e-18
0.0423011
2.11287e-18
0.0423011
-2.16881e-18
0.0423011
8.2159e-18
0.0423011
-8.04091e-18
0.0423011
2.81756e-17
0.0423011
2.80055e-17
0.0423011
2.58864e-17
0.0423011
1.83277e-17
0.0423011
2.52272e-17
0.0423011
4.46366e-18
0.0423011
4.6458e-18
0.0423011
1.04213e-17
0.0423011
-1.11328e-17
1.66144e-18
0.0423011
0.0423011
-9.02482e-18
0.0423011
1.2257e-17
0.0423011
1.34752e-17
0.0423011
-1.94194e-18
0.0423011
-1.61936e-17
0.0423011
-2.17941e-17
0.0423011
-1.26145e-17
0.0423011
-3.37712e-18
0.0423011
6.92874e-18
0.0423011
3.64868e-18
0.0423011
2.53027e-17
0.0423011
5.05488e-18
0.0423011
-1.71923e-17
0.0423011
-6.78489e-18
0.0423011
5.71581e-18
0.0423011
7.62972e-18
0.0423011
1.36491e-17
0.0423011
-6.11595e-19
0.0423011
2.38372e-17
0.0423011
7.87886e-18
0.0423011
7.21904e-18
0.0423011
2.37737e-18
0.0423011
1.98359e-17
0.0423011
1.27341e-17
0.0423011
2.27966e-17
0.0423011
1.71277e-17
0.0423011
-9.63888e-18
0.0423011
9.96286e-18
0.0423011
1.84987e-17
0.0423011
2.26473e-17
0.0423011
2.89638e-17
0.0423011
-2.81556e-18
0.0423011
7.71694e-18
0.0423011
4.25968e-18
0.0423011
1.42371e-18
0.0423011
-2.25947e-18
0.0423011
3.17289e-18
-2.46539e-17
0.0423011
0.0423011
7.27222e-18
0.0423011
1.72731e-18
0.0423011
3.39614e-18
0.0423011
4.95646e-18
0.0423011
-8.47065e-18
0.0423011
1.54251e-17
0.0423011
5.19629e-19
0.0423011
1.20373e-17
0.0423011
9.37949e-18
0.0423011
4.64095e-17
0.0423011
4.8473e-18
0.0423011
-7.35327e-19
0.0423011
-1.33857e-17
0.0423011
-3.97125e-17
0.0423011
-9.43936e-18
0.0423011
9.42982e-18
0.0423011
3.23343e-17
0.0423011
2.11082e-17
0.0423011
-6.77501e-18
0.0423011
3.02433e-18
0.0423011
4.09064e-18
0.0423011
5.90496e-18
0.0423011
2.47094e-17
0.0423011
4.05369e-17
0.0423011
1.9516e-17
0.0423011
3.6244e-19
0.0423011
4.37922e-18
0.0423011
-4.73728e-18
0.0423011
-3.64468e-17
0.0423011
-3.15874e-17
0.0423011
-6.80706e-18
0.0423011
4.32793e-18
0.0423011
-1.55495e-17
0.0423011
-1.10448e-17
0.0423011
7.72529e-18
0.0423011
-1.08863e-17
0.0423011
-3.99045e-18
-1.16535e-17
0.0423011
0.0423011
-9.48598e-18
0.0423011
-2.41043e-17
0.0423011
-1.31283e-17
0.0423011
-1.94374e-18
0.0423011
-3.31679e-18
0.0423011
-1.51162e-17
0.0423011
-4.62062e-20
0.0423011
1.78186e-17
0.0423011
8.44997e-18
0.0423011
-1.15977e-17
0.0423011
-7.08811e-18
0.0423011
-3.52864e-18
0.0423011
9.6052e-18
0.0423011
1.81644e-17
0.0423011
9.62165e-18
0.0423011
1.68354e-17
0.0423011
-9.42265e-18
0.0423011
-3.8441e-18
0.0423011
2.53759e-17
0.0423011
-5.06519e-18
0.0423011
5.86315e-18
0.0423011
8.81759e-18
0.0423011
5.62662e-18
0.0423011
1.25181e-17
0.0423011
8.29317e-18
0.0423011
5.80326e-18
0.0423011
3.11897e-18
0.0423011
-1.37929e-17
0.0423011
3.84927e-18
0.0423011
1.35482e-17
0.0423011
-6.46501e-18
0.0423011
5.28926e-18
0.0423011
-7.71291e-18
0.0423011
-2.18873e-17
0.0423011
-1.03642e-17
0.0423011
1.11808e-17
0.0423011
4.73908e-18
-1.90627e-18
0.0423011
0.0423011
-7.40445e-18
0.0423011
-7.27846e-18
0.0423011
-1.04963e-17
0.0423011
-9.92795e-18
0.0423011
-7.32756e-18
0.0423011
6.5164e-18
0.0423011
1.95967e-18
0.0423011
-2.14114e-17
0.0423011
-2.59539e-18
0.0423011
-3.58286e-17
0.0423011
-2.21607e-17
0.0423011
-2.02522e-17
0.0423011
3.38296e-18
0.0423011
-5.45851e-18
0.0423011
2.81566e-17
0.0423011
-2.81596e-18
0.0423011
6.77991e-18
0.0423011
-2.43951e-17
0.0423011
-2.12046e-17
0.0423011
-6.29632e-18
0.0423011
2.36207e-18
0.0423011
-3.93491e-18
0.0423011
-1.34058e-17
0.0423011
-1.53635e-17
0.0423011
-1.00768e-17
0.0423011
4.20552e-18
0.0423011
6.43263e-18
0.0423011
9.0303e-18
0.0423011
-5.37871e-18
0.0423011
1.77987e-18
0.0423011
4.90071e-18
0.0423011
6.46495e-18
0.0423011
9.37831e-18
0.0423011
4.7147e-18
0.0423011
-4.17693e-18
0.0423011
-2.31592e-17
0.0423011
-3.83181e-17
-3.51876e-17
0.0423011
0.0423011
1.07986e-17
0.0423011
7.50977e-18
0.0423011
-7.20973e-19
0.0423011
-2.19318e-17
0.0423011
-1.86732e-17
0.0423011
1.13457e-17
0.0423011
9.39196e-18
0.0423011
-5.253e-19
0.0423011
-9.03006e-18
0.0423011
-1.17523e-18
0.0423011
-5.30524e-18
0.0423011
-2.14192e-17
0.0423011
6.59275e-18
0.0423011
-1.44595e-17
0.0423011
-1.4792e-17
0.0423011
-1.55843e-17
0.0423011
-1.28264e-17
0.0423011
-2.8335e-18
0.0423011
1.20081e-17
0.0423011
3.42499e-18
0.0423011
-7.17975e-18
0.0423011
-2.70107e-17
0.0423011
-1.42497e-17
0.0423011
6.94091e-18
0.0423011
1.15317e-18
0.0423011
4.44722e-18
0.0423011
-4.0044e-18
0.0423011
-2.30136e-18
0.0423011
1.16571e-17
0.0423011
-1.16182e-17
0.0423011
-7.80897e-18
0.0423011
-8.07225e-18
0.0423011
2.36442e-18
0.0423011
1.52034e-17
0.0423011
-3.15536e-18
0.0423011
-2.05317e-17
0.0423011
-7.88504e-18
-1.07996e-17
0.0423011
0.0423011
-7.78366e-19
0.0423011
-9.19661e-18
0.0423011
-2.22356e-17
0.0423011
-1.10765e-17
0.0423011
6.99133e-18
0.0423011
-1.31199e-17
0.0423011
6.3503e-18
0.0423011
2.2495e-18
0.0423011
2.94493e-18
0.0423011
6.46812e-18
0.0423011
2.57859e-18
0.0423011
2.05774e-17
0.0423011
2.69835e-17
0.0423011
1.4748e-17
0.0423011
-7.79554e-18
0.0423011
-1.01894e-17
0.0423011
-3.79136e-17
0.0423011
-4.03573e-19
0.0423011
-1.04166e-17
0.0423011
1.21439e-17
0.0423011
-6.19393e-18
0.0423011
-9.85838e-18
0.0423011
9.87199e-18
0.0423011
1.27894e-18
0.0423011
-4.34329e-18
0.0423011
-1.4076e-17
0.0423011
2.28137e-18
0.0423011
-1.28325e-17
0.0423011
-1.98314e-18
0.0423011
-4.0628e-18
0.0423011
-2.47421e-17
0.0423011
-2.82206e-17
0.0423011
5.45979e-19
0.0423011
-1.76131e-17
0.0423011
-1.62456e-17
0.0423011
6.66479e-18
0.0423011
-1.52009e-17
-1.28775e-17
0.0423011
0.0423011
-3.10317e-18
0.0423011
9.23123e-19
0.0423011
-1.01878e-17
0.0423011
1.72934e-18
0.0423011
1.31936e-18
0.0423011
9.45755e-18
0.0423011
3.11073e-18
0.0423011
1.09387e-17
0.0423011
7.68334e-18
0.0423011
2.52531e-18
0.0423011
1.06665e-17
0.0423011
-2.16403e-18
0.0423011
1.21005e-17
0.0423011
-1.1637e-17
0.0423011
4.34515e-18
0.0423011
-4.73839e-18
0.0423011
-4.07374e-18
0.0423011
-1.06011e-17
0.0423011
4.45704e-18
0.0423011
5.79035e-18
0.0423011
-5.93452e-18
0.0423011
-5.29867e-18
0.0423011
-1.36016e-17
0.0423011
-4.33014e-18
0.0423011
3.35968e-18
0.0423011
2.3655e-17
0.0423011
8.74506e-18
0.0423011
6.7264e-18
0.0423011
-1.322e-17
0.0423011
9.11068e-18
0.0423011
2.32984e-17
0.0423011
1.33194e-17
0.0423011
-1.99067e-17
0.0423011
4.11404e-18
0.0423011
-4.48514e-18
0.0423011
2.70319e-17
0.0423011
4.57295e-17
3.37559e-17
0.0423011
0.0423011
-6.07749e-18
0.0423011
8.27419e-18
0.0423011
2.09517e-17
0.0423011
1.94945e-17
0.0423011
1.61626e-17
0.0423011
2.98754e-18
0.0423011
1.00115e-17
0.0423011
-1.5341e-18
0.0423011
4.21921e-18
0.0423011
5.22299e-18
0.0423011
7.55734e-18
0.0423011
1.90454e-17
0.0423011
1.90862e-18
0.0423011
1.81891e-17
0.0423011
1.00092e-17
0.0423011
-1.9674e-19
0.0423011
4.02108e-18
0.0423011
3.17165e-18
0.0423011
1.2401e-17
0.0423011
-3.28958e-18
0.0423011
4.71871e-18
0.0423011
2.09516e-18
0.0423011
1.21502e-17
0.0423011
7.96654e-18
0.0423011
1.28326e-17
0.0423011
-1.35722e-18
0.0423011
7.46114e-18
0.0423011
1.65746e-17
0.0423011
-2.7232e-18
0.0423011
-1.12382e-17
0.0423011
-1.90615e-17
0.0423011
-2.99166e-17
0.0423011
9.706e-18
0.0423011
7.12721e-18
0.0423011
-2.42343e-18
0.0423011
-6.54838e-18
0.0423011
-5.53616e-18
1.64381e-17
0.0423011
0.0423011
-6.16405e-20
0.0423011
9.42052e-18
0.0423011
1.71648e-17
0.0423011
1.81325e-17
0.0423011
2.56157e-17
0.0423011
7.21597e-18
0.0423011
-2.5547e-18
0.0423011
4.03227e-18
0.0423011
-1.3047e-17
0.0423011
4.79249e-18
0.0423011
3.94766e-18
0.0423011
-5.19059e-18
0.0423011
8.82718e-18
0.0423011
2.28224e-17
0.0423011
8.72408e-18
0.0423011
2.84983e-19
0.0423011
2.64319e-17
0.0423011
1.20578e-17
0.0423011
1.42232e-17
0.0423011
1.86235e-17
0.0423011
3.95613e-17
0.0423011
1.95315e-17
0.0423011
1.79152e-17
0.0423011
8.61413e-18
0.0423011
-1.6093e-17
0.0423011
-2.52468e-17
0.0423011
-1.797e-17
0.0423011
-7.51686e-18
0.0423011
6.62842e-18
0.0423011
-4.20665e-18
0.0423011
-4.49589e-18
0.0423011
-1.28203e-17
0.0423011
-2.02823e-17
0.0423011
-1.55006e-17
0.0423011
-8.64125e-18
0.0423011
7.37401e-18
0.0423011
8.68627e-18
1.89617e-17
0.0423011
0.0423011
-1.06447e-18
0.0423011
2.57577e-18
0.0423011
1.61944e-17
0.0423011
1.19561e-17
0.0423011
-2.60856e-17
0.0423011
1.69894e-17
0.0423011
-1.15183e-17
0.0423011
-3.37269e-18
0.0423011
-1.71246e-17
0.0423011
-6.01248e-18
0.0423011
9.13918e-18
0.0423011
-9.86158e-18
0.0423011
-1.56722e-17
0.0423011
-2.32722e-17
0.0423011
2.1873e-19
0.0423011
1.07906e-17
0.0423011
7.80818e-18
0.0423011
1.52256e-17
0.0423011
2.5114e-17
0.0423011
3.62095e-17
0.0423011
1.28801e-17
0.0423011
5.75993e-17
0.0423011
-2.24153e-17
0.0423011
2.54345e-17
0.0423011
8.53913e-18
0.0423011
-5.00024e-19
0.0423011
2.45455e-18
0.0423011
1.07741e-17
0.0423011
3.81015e-21
0.0423011
2.13896e-17
0.0423011
2.34437e-17
0.0423011
1.92971e-17
0.0423011
-1.30471e-18
0.0423011
-3.45889e-17
0.0423011
1.43296e-17
0.0423011
1.14223e-17
0.0423011
7.42928e-18
2.17799e-17
0.0423011
0.0423011
1.65191e-17
0.0423011
-7.2025e-18
0.0423011
-3.54343e-18
0.0423011
3.3438e-18
0.0423011
1.63151e-17
0.0423011
-1.13713e-17
0.0423011
-1.20309e-18
0.0423011
2.12371e-17
0.0423011
1.23238e-17
0.0423011
3.52328e-17
0.0423011
6.84701e-18
0.0423011
2.3849e-17
0.0423011
-1.22939e-17
0.0423011
-1.83979e-17
0.0423011
-1.68074e-17
0.0423011
4.90027e-18
0.0423011
3.73615e-18
0.0423011
9.98044e-20
0.0423011
3.97955e-18
0.0423011
-1.37409e-17
0.0423011
8.04848e-18
0.0423011
-9.858e-18
0.0423011
2.45185e-17
0.0423011
-4.51793e-17
0.0423011
-1.75864e-17
0.0423011
-9.51647e-18
0.0423011
-1.98429e-18
0.0423011
-1.09645e-17
0.0423011
2.30384e-17
0.0423011
3.83244e-17
0.0423011
3.11512e-17
0.0423011
4.43761e-17
0.0423011
5.12004e-17
0.0423011
2.78569e-17
0.0423011
2.03912e-17
0.0423011
2.21818e-17
0.0423011
2.25473e-17
-7.55162e-19
0.0423011
0.0423011
-2.81197e-18
0.0423011
-2.884e-18
0.0423011
-7.66439e-18
0.0423011
-5.87915e-18
0.0423011
1.4837e-17
0.0423011
7.83523e-18
0.0423011
1.11603e-17
0.0423011
-4.91716e-18
0.0423011
1.41733e-17
0.0423011
3.93531e-18
0.0423011
4.89098e-18
0.0423011
-3.94986e-18
0.0423011
3.62364e-18
0.0423011
-4.49199e-18
0.0423011
6.07599e-19
0.0423011
-1.62214e-18
0.0423011
-6.56291e-18
0.0423011
-8.56929e-19
0.0423011
1.28851e-18
0.0423011
4.36887e-18
0.0423011
-1.36797e-17
0.0423011
5.67229e-18
0.0423011
-9.23622e-18
0.0423011
-8.80614e-18
0.0423011
-1.51933e-17
0.0423011
-5.9285e-18
0.0423011
-2.75397e-18
0.0423011
1.92267e-18
0.0423011
2.19231e-17
0.0423011
2.16542e-17
0.0423011
1.00686e-17
0.0423011
3.39391e-17
0.0423011
3.42796e-17
0.0423011
1.89752e-17
0.0423011
3.28709e-17
0.0423011
2.10296e-17
0.0423011
5.51031e-18
2.50491e-17
0.0423011
0.0423011
1.9985e-18
0.0423011
3.38709e-17
0.0423011
-8.17012e-18
0.0423011
1.54135e-18
0.0423011
-3.66407e-18
0.0423011
8.55674e-18
0.0423011
8.95452e-18
0.0423011
1.32171e-17
0.0423011
3.14063e-17
0.0423011
1.09688e-17
0.0423011
2.12466e-17
0.0423011
-4.28264e-18
0.0423011
-4.17467e-18
0.0423011
1.65863e-17
0.0423011
1.08277e-17
0.0423011
-1.06908e-17
0.0423011
1.43909e-17
0.0423011
2.07999e-17
0.0423011
-2.72354e-18
0.0423011
1.9953e-18
0.0423011
-9.26202e-19
0.0423011
-2.40965e-17
0.0423011
-3.52338e-18
0.0423011
5.73187e-18
0.0423011
1.23959e-17
0.0423011
6.98025e-18
0.0423011
1.70664e-17
0.0423011
2.08338e-17
0.0423011
1.55124e-17
0.0423011
3.4592e-18
0.0423011
3.32829e-17
0.0423011
2.8953e-17
0.0423011
1.57284e-17
0.0423011
2.4282e-17
0.0423011
2.1495e-17
0.0423011
2.63749e-17
0.0423011
2.37464e-17
1.49879e-17
0.0423011
0.0423011
5.21836e-18
0.0423011
-3.90344e-18
0.0423011
-6.21182e-19
0.0423011
5.55448e-18
0.0423011
-1.90787e-17
0.0423011
-9.34627e-18
0.0423011
7.99573e-18
0.0423011
9.8775e-18
0.0423011
5.06241e-18
0.0423011
-1.03336e-18
0.0423011
-2.06714e-17
0.0423011
1.66856e-17
0.0423011
9.22418e-19
0.0423011
1.21383e-17
0.0423011
1.47348e-17
0.0423011
3.25101e-18
0.0423011
-1.03516e-17
0.0423011
-1.77264e-19
0.0423011
2.55769e-17
0.0423011
4.24973e-18
0.0423011
-2.71144e-17
0.0423011
-8.70529e-18
0.0423011
-9.45715e-18
0.0423011
-1.28338e-17
0.0423011
5.17674e-18
0.0423011
2.22678e-17
0.0423011
2.49884e-18
0.0423011
9.44288e-19
0.0423011
-8.49185e-18
0.0423011
2.58988e-17
0.0423011
2.37842e-17
0.0423011
3.49286e-17
0.0423011
5.77624e-17
0.0423011
4.6425e-17
0.0423011
1.95878e-17
0.0423011
1.65309e-17
0.0423011
1.51338e-17
8.89753e-18
0.0423011
0.0423011
-6.84514e-18
0.0423011
-1.17431e-18
0.0423011
-1.7526e-17
0.0423011
-4.01091e-17
0.0423011
-1.78819e-17
0.0423011
4.91894e-18
0.0423011
-3.45698e-18
0.0423011
-2.1228e-19
0.0423011
1.32715e-17
0.0423011
-1.625e-17
0.0423011