/*--------------------------------*- C++ -*----------------------------------*\
| =========                 |                                                 |
| \\      /  F ield         | OpenFOAM: The Open Source CFD Toolbox           |
|  \\    /   O peration     | Version:  v1812                                 |
|   \\  /    A nd           | Web:      www.OpenFOAM.com                      |
|    \\/     M anipulation  |                                                 |
\*---------------------------------------------------------------------------*/
FoamFile
{
    version     2.0;
    format      ascii;
    class       volVectorField;
    location    "0.0005";
    object      U;
}
// * * * * * * * * * * * * * * * * * * * * * * * * * * * * * * * * * * * * * //

dimensions      [0 1 -1 0 0 0 0];


internalField   nonuniform List<vector> 
8475
(
(851.84 8.96889e-14 0)
(851.84 9.04945e-15 0)
(851.84 -9.95307e-14 0)
(851.84 -2.46463e-13 0)
(851.84 -2.7142e-13 0)
(851.84 -2.5654e-13 0)
(851.84 -3.56024e-13 0)
(851.84 -5.07952e-13 0)
(851.84 -7.64269e-13 0)
(851.84 -8.15248e-13 0)
(851.84 -6.24248e-13 0)
(851.84 -6.41185e-13 0)
(851.84 -5.21757e-13 0)
(851.84 -6.85608e-13 0)
(851.84 -4.11783e-13 0)
(851.84 9.027e-14 0)
(851.84 5.68702e-13 0)
(851.84 9.16095e-13 0)
(851.84 1.14904e-12 0)
(851.84 1.75425e-12 0)
(851.84 2.41931e-12 0)
(851.84 3.06058e-12 0)
(851.84 3.85668e-12 0)
(851.84 3.58663e-12 0)
(851.84 3.07376e-12 0)
(851.84 3.04429e-12 0)
(851.84 3.34375e-12 0)
(851.84 3.13492e-12 0)
(851.84 3.17529e-12 0)
(851.84 2.88028e-12 0)
(851.84 2.99115e-12 0)
(851.84 1.23433e-12 0)
(851.84 2.4089e-10 0)
(851.84 -1.0155e-08 0)
(851.84 1.06397e-06 0)
(851.84 -4.51245e-05 0)
(851.832 0.00488669 0)
(851.349 -0.205737 0)
(851.84 2.18563e-15 0)
(851.84 -2.65744e-14 0)
(851.84 3.4392e-14 0)
(851.84 -1.02301e-13 0)
(851.84 -2.37331e-13 0)
(851.84 -3.66193e-13 0)
(851.84 -2.56812e-13 0)
(851.84 -4.17138e-13 0)
(851.84 -4.48578e-13 0)
(851.84 -7.30715e-13 0)
(851.84 -5.75218e-13 0)
(851.84 -7.37081e-13 0)
(851.84 -5.69427e-13 0)
(851.84 -5.94447e-13 0)
(851.84 -6.13235e-13 0)
(851.84 -3.77615e-13 0)
(851.84 -4.00085e-14 0)
(851.84 -5.5834e-14 0)
(851.84 5.77614e-13 0)
(851.84 9.28895e-13 0)
(851.84 1.24785e-12 0)
(851.84 1.2913e-12 0)
(851.84 1.03135e-12 0)
(851.84 1.12665e-12 0)
(851.84 1.19164e-12 0)
(851.84 1.10881e-12 0)
(851.84 1.73856e-12 0)
(851.84 1.82828e-12 0)
(851.84 1.59258e-12 0)
(851.84 1.70311e-12 0)
(851.84 1.45815e-12 0)
(851.84 4.01869e-12 0)
(851.84 1.53705e-10 0)
(851.84 1.14962e-08 0)
(851.84 4.8819e-07 0)
(851.84 4.92408e-05 0)
(851.837 0.00130783 0)
(851.721 0.195044 0)
(851.84 -1.13493e-13 0)
(851.84 -2.18566e-14 0)
(851.84 -1.04261e-13 0)
(851.84 -1.57534e-13 0)
(851.84 -1.00499e-13 0)
(851.84 6.65023e-14 0)
(851.84 1.92912e-14 0)
(851.84 1.02409e-13 0)
(851.84 2.11868e-14 0)
(851.84 -1.07346e-13 0)
(851.84 -1.63774e-13 0)
(851.84 -1.99468e-13 0)
(851.84 -3.88819e-13 0)
(851.84 -8.10874e-13 0)
(851.84 -7.26736e-13 0)
(851.84 -6.23083e-13 0)
(851.84 -2.65489e-13 0)
(851.84 1.14556e-13 0)
(851.84 1.56316e-13 0)
(851.84 3.68258e-13 0)
(851.84 5.42996e-13 0)
(851.84 5.94648e-13 0)
(851.84 5.83225e-13 0)
(851.84 7.79295e-13 0)
(851.84 1.36554e-12 0)
(851.84 1.30652e-12 0)
(851.84 1.40363e-12 0)
(851.84 1.78857e-12 0)
(851.84 2.0463e-12 0)
(851.84 1.97303e-12 0)
(851.84 1.88578e-12 0)
(851.84 3.14935e-12 0)
(851.84 4.29409e-11 0)
(851.84 5.49154e-09 0)
(851.84 9.16165e-08 0)
(851.84 1.48574e-05 0)
(851.84 0.000159081 0)
(851.823 0.0326653 0)
(851.84 1.18152e-13 0)
(851.84 -6.9512e-14 0)
(851.84 2.53374e-15 0)
(851.84 -2.48449e-13 0)
(851.84 -2.05355e-13 0)
(851.84 -2.02377e-13 0)
(851.84 -1.98687e-13 0)
(851.84 -4.04663e-13 0)
(851.84 -6.9923e-13 0)
(851.84 -4.16656e-13 0)
(851.84 -4.327e-13 0)
(851.84 -2.86028e-13 0)
(851.84 -3.70955e-13 0)
(851.84 -7.09956e-13 0)
(851.84 -7.01766e-13 0)
(851.84 -4.69925e-13 0)
(851.84 -2.94208e-13 0)
(851.84 -4.20364e-13 0)
(851.84 -1.09801e-13 0)
(851.84 -2.65763e-13 0)
(851.84 -2.39065e-13 0)
(851.84 -7.86518e-14 0)
(851.84 -6.87002e-14 0)
(851.84 -2.43368e-14 0)
(851.84 4.83358e-13 0)
(851.84 1.45001e-12 0)
(851.84 1.98265e-12 0)
(851.84 2.00026e-12 0)
(851.84 1.8202e-12 0)
(851.84 1.9532e-12 0)
(851.84 1.68036e-12 0)
(851.84 2.17696e-12 0)
(851.84 3.79052e-14 0)
(851.84 1.13178e-09 0)
(851.84 7.06735e-10 0)
(851.84 2.03247e-06 0)
(851.84 1.42881e-06 0)
(851.839 0.00312987 0)
(851.84 -3.14505e-14 0)
(851.84 -1.33697e-13 0)
(851.84 -2.5318e-13 0)
(851.84 -8.53703e-14 0)
(851.84 -2.00884e-13 0)
(851.84 -2.9521e-13 0)
(851.84 -2.81745e-13 0)
(851.84 -3.34748e-13 0)
(851.84 -4.46438e-13 0)
(851.84 -7.42281e-13 0)
(851.84 -6.59773e-13 0)
(851.84 -6.32013e-13 0)
(851.84 -6.80332e-13 0)
(851.84 -7.04484e-13 0)
(851.84 -5.68961e-13 0)
(851.84 -4.07725e-13 0)
(851.84 -2.61244e-13 0)
(851.84 -3.19431e-13 0)
(851.84 -3.09573e-13 0)
(851.84 -3.51564e-13 0)
(851.84 -4.32322e-13 0)
(851.84 -4.17927e-13 0)
(851.84 -2.00032e-13 0)
(851.84 3.04935e-13 0)
(851.84 8.61665e-13 0)
(851.84 1.57991e-12 0)
(851.84 1.25842e-12 0)
(851.84 1.26182e-12 0)
(851.84 1.28705e-12 0)
(851.84 1.03297e-12 0)
(851.84 9.29569e-13 0)
(851.84 8.68595e-13 0)
(851.84 1.01117e-12 0)
(851.84 1.01487e-10 0)
(851.84 -1.75149e-10 0)
(851.84 1.31961e-07 0)
(851.84 -8.3749e-08 0)
(851.84 0.00018017 0)
(851.84 6.5068e-14 0)
(851.84 5.77307e-14 0)
(851.84 -8.88977e-14 0)
(851.84 -1.60469e-13 0)
(851.84 -2.575e-13 0)
(851.84 -3.29569e-13 0)
(851.84 -4.35282e-13 0)
(851.84 -3.34663e-13 0)
(851.84 -3.78887e-13 0)
(851.84 -5.21707e-13 0)
(851.84 -7.05602e-13 0)
(851.84 -7.46548e-13 0)
(851.84 -5.7791e-13 0)
(851.84 -4.53393e-13 0)
(851.84 -2.78503e-13 0)
(851.84 -2.39992e-13 0)
(851.84 -1.10596e-13 0)
(851.84 -2.33575e-13 0)
(851.84 -9.87589e-14 0)
(851.84 -1.62354e-13 0)
(851.84 -1.3953e-13 0)
(851.84 -3.08715e-13 0)
(851.84 9.01758e-14 0)
(851.84 3.9029e-13 0)
(851.84 6.08996e-13 0)
(851.84 -3.14998e-14 0)
(851.84 -1.10005e-13 0)
(851.84 5.3992e-13 0)
(851.84 6.41721e-13 0)
(851.84 5.60736e-13 0)
(851.84 7.43132e-13 0)
(851.84 3.87441e-13 0)
(851.84 7.84225e-13 0)
(851.84 3.57227e-12 0)
(851.84 -1.11002e-11 0)
(851.84 5.46856e-09 0)
(851.84 -4.40031e-09 0)
(851.84 7.52368e-06 0)
(851.84 -1.31339e-13 0)
(851.84 7.63441e-14 0)
(851.84 1.0394e-13 0)
(851.84 -8.59472e-14 0)
(851.84 -1.84259e-13 0)
(851.84 -3.27793e-13 0)
(851.84 -5.96383e-13 0)
(851.84 -5.71978e-13 0)
(851.84 -2.91833e-13 0)
(851.84 -3.03538e-13 0)
(851.84 -2.66991e-13 0)
(851.84 -7.83531e-14 0)
(851.84 -3.11312e-13 0)
(851.84 -1.481e-13 0)
(851.84 -1.01816e-13 0)
(851.84 -4.44814e-14 0)
(851.84 -1.15274e-13 0)
(851.84 -2.57208e-14 0)
(851.84 -2.28914e-13 0)
(851.84 -3.58407e-13 0)
(851.84 -2.02649e-13 0)
(851.84 4.42279e-14 0)
(851.84 2.26579e-13 0)
(851.84 1.90105e-13 0)
(851.84 -5.4455e-14 0)
(851.84 -1.9531e-13 0)
(851.84 -4.38205e-13 0)
(851.84 -3.1819e-13 0)
(851.84 -2.66336e-13 0)
(851.84 -1.4279e-13 0)
(851.84 -2.48393e-13 0)
(851.84 -4.5252e-14 0)
(851.84 6.0808e-14 0)
(851.84 4.09373e-14 0)
(851.84 -5.51869e-15 0)
(851.84 1.62059e-10 0)
(851.84 -4.97209e-11 0)
(851.84 2.39319e-07 0)
(851.84 -1.67679e-14 0)
(851.84 -1.91049e-13 0)
(851.84 -3.45216e-15 0)
(851.84 8.44433e-14 0)
(851.84 -6.07987e-15 0)
(851.84 -4.06051e-13 0)
(851.84 -5.28686e-13 0)
(851.84 -5.59816e-13 0)
(851.84 -6.11588e-13 0)
(851.84 -1.23466e-13 0)
(851.84 1.63833e-13 0)
(851.84 4.75595e-13 0)
(851.84 2.29077e-13 0)
(851.84 2.26573e-13 0)
(851.84 -8.57421e-14 0)
(851.84 -2.6023e-13 0)
(851.84 -2.42619e-13 0)
(851.84 -3.13729e-13 0)
(851.84 -2.97398e-13 0)
(851.84 -2.409e-13 0)
(851.84 -2.23364e-13 0)
(851.84 -2.21838e-13 0)
(851.84 -2.36514e-13 0)
(851.84 -2.41086e-13 0)
(851.84 -3.10249e-13 0)
(851.84 -4.42249e-13 0)
(851.84 -5.62095e-13 0)
(851.84 -5.84099e-13 0)
(851.84 -5.19909e-13 0)
(851.84 -4.15374e-13 0)
(851.84 -2.86143e-13 0)
(851.84 2.94574e-14 0)
(851.84 -3.3202e-13 0)
(851.84 -2.13945e-14 0)
(851.84 -5.19238e-13 0)
(851.84 1.68951e-12 0)
(851.84 -4.57435e-12 0)
(851.84 6.13791e-09 0)
(851.84 5.38964e-14 0)
(851.84 1.81437e-13 0)
(851.84 1.19207e-14 0)
(851.84 8.33253e-14 0)
(851.84 1.58986e-13 0)
(851.84 1.3034e-13 0)
(851.84 -3.17902e-14 0)
(851.84 2.80772e-14 0)
(851.84 4.05328e-14 0)
(851.84 2.85735e-14 0)
(851.84 1.10446e-14 0)
(851.84 -7.16528e-14 0)
(851.84 6.22327e-14 0)
(851.84 -2.16516e-13 0)
(851.84 -6.34781e-14 0)
(851.84 -7.5006e-14 0)
(851.84 2.82725e-14 0)
(851.84 1.27306e-13 0)
(851.84 -1.92219e-13 0)
(851.84 -3.85372e-13 0)
(851.84 -2.07384e-13 0)
(851.84 -2.31369e-13 0)
(851.84 -1.61113e-13 0)
(851.84 2.55695e-14 0)
(851.84 -1.18583e-13 0)
(851.84 -3.66369e-13 0)
(851.84 -2.89361e-13 0)
(851.84 -4.78653e-13 0)
(851.84 -4.72447e-13 0)
(851.84 -4.0086e-13 0)
(851.84 -4.02075e-13 0)
(851.84 -3.58845e-13 0)
(851.84 -8.90701e-14 0)
(851.84 1.34013e-13 0)
(851.84 6.73392e-14 0)
(851.84 4.63527e-13 0)
(851.84 -4.94674e-13 0)
(851.84 1.3561e-10 0)
(851.84 7.25991e-14 0)
(851.84 -5.77273e-14 0)
(851.84 -3.40945e-14 0)
(851.84 4.48725e-14 0)
(851.84 7.22838e-14 0)
(851.84 6.80317e-14 0)
(851.84 2.84317e-13 0)
(851.84 2.41596e-13 0)
(851.84 2.48401e-13 0)
(851.84 3.18797e-13 0)
(851.84 1.3648e-13 0)
(851.84 -6.51539e-14 0)
(851.84 7.09128e-14 0)
(851.84 2.71499e-13 0)
(851.84 3.73911e-13 0)
(851.84 6.9229e-13 0)
(851.84 6.2923e-13 0)
(851.84 4.30872e-13 0)
(851.84 3.90578e-13 0)
(851.84 1.43599e-13 0)
(851.84 3.58847e-13 0)
(851.84 -1.26247e-13 0)
(851.84 -1.68825e-13 0)
(851.84 -2.94526e-13 0)
(851.84 -3.55411e-13 0)
(851.84 -4.06952e-13 0)
(851.84 -4.68875e-13 0)
(851.84 -4.73411e-13 0)
(851.84 -4.39484e-13 0)
(851.84 -4.52233e-13 0)
(851.84 -4.0588e-13 0)
(851.84 -5.26789e-14 0)
(851.84 -9.7197e-14 0)
(851.84 2.01046e-13 0)
(851.84 1.5942e-13 0)
(851.84 1.93296e-13 0)
(851.84 2.29246e-13 0)
(851.84 1.44413e-12 0)
(851.84 -8.12517e-14 0)
(851.84 -5.17274e-14 0)
(851.84 -1.54556e-13 0)
(851.84 -1.62517e-14 0)
(851.84 -7.87583e-15 0)
(851.84 2.76165e-13 0)
(851.84 1.84626e-13 0)
(851.84 3.6833e-13 0)
(851.84 2.42357e-15 0)
(851.84 1.80248e-13 0)
(851.84 1.72675e-13 0)
(851.84 2.90242e-13 0)
(851.84 4.6807e-13 0)
(851.84 3.79072e-13 0)
(851.84 4.83271e-13 0)
(851.84 4.68423e-13 0)
(851.84 3.29917e-13 0)
(851.84 2.81996e-13 0)
(851.84 5.98656e-13 0)
(851.84 1.91154e-13 0)
(851.84 1.37225e-13 0)
(851.84 1.02065e-13 0)
(851.84 -4.60048e-14 0)
(851.84 -2.20404e-13 0)
(851.84 -4.93801e-13 0)
(851.84 -3.97392e-13 0)
(851.84 -1.20545e-13 0)
(851.84 -6.98928e-14 0)
(851.84 4.28254e-14 0)
(851.84 4.79887e-14 0)
(851.84 -1.63999e-13 0)
(851.84 -2.47864e-13 0)
(851.84 5.4676e-14 0)
(851.84 4.1227e-14 0)
(851.84 1.11761e-13 0)
(851.84 8.13625e-13 0)
(851.84 3.34338e-13 0)
(851.84 3.73728e-13 0)
(851.84 2.0117e-13 0)
(851.84 -7.35599e-14 0)
(851.84 -6.44751e-14 0)
(851.84 -1.62235e-13 0)
(851.84 -2.24279e-13 0)
(851.84 -2.42462e-13 0)
(851.84 -1.09357e-13 0)
(851.84 -1.7373e-13 0)
(851.84 1.3261e-14 0)
(851.84 -7.90717e-14 0)
(851.84 -1.33184e-13 0)
(851.84 -8.38598e-14 0)
(851.84 -1.01015e-13 0)
(851.84 3.49305e-13 0)
(851.84 3.84594e-13 0)
(851.84 4.52252e-13 0)
(851.84 2.28023e-13 0)
(851.84 5.5229e-13 0)
(851.84 5.37979e-13 0)
(851.84 4.50099e-13 0)
(851.84 2.80062e-13 0)
(851.84 1.62732e-13 0)
(851.84 8.40616e-14 0)
(851.84 -1.85625e-13 0)
(851.84 -1.06663e-13 0)
(851.84 8.99055e-14 0)
(851.84 -1.7281e-14 0)
(851.84 -8.30523e-14 0)
(851.84 -2.84558e-13 0)
(851.84 -3.03707e-13 0)
(851.84 2.61908e-14 0)
(851.84 -3.16355e-13 0)
(851.84 -7.80525e-14 0)
(851.84 -1.08873e-13 0)
(851.84 -1.87264e-13 0)
(851.84 -4.06801e-13 0)
(851.84 -2.35278e-13 0)
(851.84 -2.19679e-13 0)
(851.84 -7.04173e-14 0)
(851.84 6.14066e-14 0)
(851.84 5.26046e-14 0)
(851.84 -7.27894e-14 0)
(851.84 -1.87093e-13 0)
(851.84 -8.84852e-14 0)
(851.84 2.39374e-13 0)
(851.84 4.04e-14 0)
(851.84 4.59895e-14 0)
(851.84 -1.70068e-13 0)
(851.84 -1.50332e-13 0)
(851.84 -1.50738e-13 0)
(851.84 -2.32021e-13 0)
(851.84 -2.8718e-14 0)
(851.84 1.74997e-14 0)
(851.84 1.87685e-13 0)
(851.84 4.41596e-13 0)
(851.84 2.65557e-13 0)
(851.84 5.97701e-14 0)
(851.84 1.24018e-13 0)
(851.84 3.8265e-13 0)
(851.84 3.17768e-13 0)
(851.84 5.21991e-14 0)
(851.84 1.75411e-13 0)
(851.84 2.53771e-13 0)
(851.84 -2.06794e-14 0)
(851.84 -1.60498e-13 0)
(851.84 -5.00148e-13 0)
(851.84 -3.01911e-13 0)
(851.84 -9.4257e-14 0)
(851.84 -1.11624e-13 0)
(851.84 -4.2421e-14 0)
(851.84 -3.34569e-13 0)
(851.84 -2.37967e-13 0)
(851.84 -3.35191e-13 0)
(851.84 -4.58834e-13 0)
(851.84 -7.39661e-13 0)
(851.84 -6.79974e-13 0)
(851.84 7.0465e-14 0)
(851.84 9.34534e-14 0)
(851.84 1.83185e-13 0)
(851.84 1.06512e-13 0)
(851.84 9.17326e-14 0)
(851.84 -2.69662e-14 0)
(851.84 3.01634e-13 0)
(851.84 3.71466e-13 0)
(851.84 1.02456e-13 0)
(851.84 -1.0828e-13 0)
(851.84 -2.59367e-13 0)
(851.84 -4.58083e-13 0)
(851.84 -2.83213e-13 0)
(851.84 -2.7818e-13 0)
(851.84 -1.31357e-14 0)
(851.84 6.95424e-14 0)
(851.84 -7.75522e-14 0)
(851.84 -3.21278e-14 0)
(851.84 -2.69769e-14 0)
(851.84 8.71754e-14 0)
(851.84 2.46988e-13 0)
(851.84 6.63645e-13 0)
(851.84 5.78933e-13 0)
(851.84 6.08621e-13 0)
(851.84 6.78903e-13 0)
(851.84 5.55607e-13 0)
(851.84 2.39579e-13 0)
(851.84 -2.11785e-15 0)
(851.84 -1.06434e-13 0)
(851.84 -1.23482e-13 0)
(851.84 3.648e-13 0)
(851.84 -9.00064e-14 0)
(851.84 -4.40367e-13 0)
(851.84 -5.08847e-13 0)
(851.84 -5.77063e-13 0)
(851.84 -7.98123e-13 0)
(851.84 -7.67861e-13 0)
(851.84 -9.41099e-13 0)
(851.84 -4.42838e-14 0)
(851.84 -6.59703e-15 0)
(851.84 5.77912e-14 0)
(851.84 2.58279e-14 0)
(851.84 2.17874e-13 0)
(851.84 1.45489e-13 0)
(851.84 1.1285e-13 0)
(851.84 1.36224e-13 0)
(851.84 3.06982e-13 0)
(851.84 3.14022e-13 0)
(851.84 3.8751e-13 0)
(851.84 3.20953e-13 0)
(851.84 -8.13804e-14 0)
(851.84 -1.94453e-13 0)
(851.84 -3.4141e-13 0)
(851.84 -2.55724e-13 0)
(851.84 -3.18194e-13 0)
(851.84 -1.98936e-13 0)
(851.84 -2.20327e-13 0)
(851.84 -2.46988e-15 0)
(851.84 3.24776e-14 0)
(851.84 -3.50041e-13 0)
(851.84 1.1574e-13 0)
(851.84 3.88379e-13 0)
(851.84 5.68972e-13 0)
(851.84 2.82543e-13 0)
(851.84 3.29563e-13 0)
(851.84 5.65426e-14 0)
(851.84 9.51566e-14 0)
(851.84 5.19747e-14 0)
(851.84 3.35002e-14 0)
(851.84 -2.99167e-13 0)
(851.84 -2.83741e-13 0)
(851.84 -4.74965e-13 0)
(851.84 -5.82938e-13 0)
(851.84 -5.90766e-13 0)
(851.84 -5.84346e-13 0)
(851.84 -8.07493e-13 0)
(851.84 -3.74892e-14 0)
(851.84 -6.97874e-14 0)
(851.84 -2.24606e-14 0)
(851.84 1.1554e-13 0)
(851.84 1.03015e-13 0)
(851.84 1.6448e-13 0)
(851.84 1.75709e-13 0)
(851.84 7.67613e-14 0)
(851.84 2.84263e-14 0)
(851.84 3.21613e-14 0)
(851.84 -1.23615e-13 0)
(851.84 -5.42022e-14 0)
(851.84 -6.0097e-14 0)
(851.84 -1.85416e-13 0)
(851.84 -2.7498e-13 0)
(851.84 -3.51373e-13 0)
(851.84 -2.72039e-13 0)
(851.84 -8.93916e-14 0)
(851.84 1.19918e-13 0)
(851.84 1.55786e-13 0)
(851.84 1.10385e-13 0)
(851.84 1.34559e-13 0)
(851.84 4.07448e-13 0)
(851.84 5.75165e-13 0)
(851.84 4.29229e-13 0)
(851.84 1.94829e-13 0)
(851.84 2.36989e-13 0)
(851.84 2.68001e-13 0)
(851.84 1.28514e-13 0)
(851.84 1.38808e-13 0)
(851.84 -1.0269e-14 0)
(851.84 7.8489e-14 0)
(851.84 -1.74903e-13 0)
(851.84 -3.77372e-13 0)
(851.84 -6.37726e-13 0)
(851.84 -4.36014e-13 0)
(851.84 -3.98984e-13 0)
(851.84 -3.56019e-13 0)
(851.84 -1.06857e-14 0)
(851.84 4.19424e-14 0)
(851.84 1.75576e-14 0)
(851.84 -9.63173e-14 0)
(851.84 -1.24072e-13 0)
(851.84 1.42031e-14 0)
(851.84 4.90144e-14 0)
(851.84 2.62327e-13 0)
(851.84 8.91663e-14 0)
(851.84 -8.78716e-15 0)
(851.84 -1.35993e-13 0)
(851.84 -4.38156e-13 0)
(851.84 -2.02523e-13 0)
(851.84 -2.63743e-13 0)
(851.84 4.37604e-14 0)
(851.84 1.38872e-13 0)
(851.84 1.34446e-13 0)
(851.84 -7.72232e-14 0)
(851.84 1.49709e-13 0)
(851.84 1.72448e-13 0)
(851.84 2.38383e-13 0)
(851.84 1.99295e-13 0)
(851.84 2.43412e-13 0)
(851.84 3.21673e-13 0)
(851.84 3.71878e-13 0)
(851.84 5.09173e-13 0)
(851.84 4.29901e-13 0)
(851.84 2.60342e-13 0)
(851.84 8.04054e-15 0)
(851.84 -8.41143e-14 0)
(851.84 -1.5169e-14 0)
(851.84 3.23394e-14 0)
(851.84 2.94057e-13 0)
(851.84 5.61551e-13 0)
(851.84 4.10153e-13 0)
(851.84 1.09272e-14 0)
(851.84 -1.15176e-13 0)
(851.84 -3.78105e-13 0)
(851.84 9.10686e-14 0)
(851.84 -6.97549e-14 0)
(851.84 -5.58564e-14 0)
(851.84 7.78346e-14 0)
(851.84 1.07096e-13 0)
(851.84 -1.6517e-14 0)
(851.84 -2.38295e-14 0)
(851.84 -1.24779e-13 0)
(851.84 -1.76349e-13 0)
(851.84 -1.74524e-13 0)
(851.84 -9.72302e-14 0)
(851.84 1.76857e-14 0)
(851.84 -8.08594e-14 0)
(851.84 2.14759e-13 0)
(851.84 -5.93679e-14 0)
(851.84 1.88367e-13 0)
(851.84 1.72808e-13 0)
(851.84 2.64881e-13 0)
(851.84 2.06069e-13 0)
(851.84 2.3491e-13 0)
(851.84 5.04202e-13 0)
(851.84 6.2771e-13 0)
(851.84 7.2041e-13 0)
(851.84 4.05765e-13 0)
(851.84 2.71676e-13 0)
(851.84 1.30475e-13 0)
(851.84 2.70825e-13 0)
(851.84 1.69998e-13 0)
(851.84 -6.12245e-14 0)
(851.84 -3.32223e-13 0)
(851.84 -1.77478e-13 0)
(851.84 5.13963e-15 0)
(851.84 5.10325e-14 0)
(851.84 7.24124e-13 0)
(851.84 3.39254e-13 0)
(851.84 2.84709e-13 0)
(851.84 1.56328e-13 0)
(851.84 2.13084e-13 0)
(851.84 8.14472e-14 0)
(851.84 3.31041e-13 0)
(851.84 1.75017e-13 0)
(851.84 8.89234e-14 0)
(851.84 2.28966e-13 0)
(851.84 1.98587e-13 0)
(851.84 -1.29595e-13 0)
(851.84 -2.73422e-13 0)
(851.84 -2.39762e-13 0)
(851.84 -1.27574e-13 0)
(851.84 4.55715e-14 0)
(851.84 1.97568e-13 0)
(851.84 6.23574e-13 0)
(851.84 5.48687e-13 0)
(851.84 3.27232e-13 0)
(851.84 -1.97571e-13 0)
(851.84 -5.83254e-14 0)
(851.84 -1.05571e-13 0)
(851.84 -3.51215e-13 0)
(851.84 3.65226e-13 0)
(851.84 4.78422e-13 0)
(851.84 3.43069e-13 0)
(851.84 3.13741e-13 0)
(851.84 -3.8119e-16 0)
(851.84 2.7027e-14 0)
(851.84 2.78779e-13 0)
(851.84 7.78962e-14 0)
(851.84 1.0302e-13 0)
(851.84 1.28637e-13 0)
(851.84 -3.63727e-13 0)
(851.84 -3.74941e-13 0)
(851.84 -1.00885e-13 0)
(851.84 -8.39693e-14 0)
(851.84 1.91157e-14 0)
(851.84 1.27322e-13 0)
(851.84 3.35287e-13 0)
(851.84 1.48155e-13 0)
(851.84 2.22213e-13 0)
(851.84 1.93321e-14 0)
(851.84 -2.30333e-14 0)
(851.84 -2.02286e-14 0)
(851.84 1.06104e-13 0)
(851.84 1.15427e-13 0)
(851.84 -5.47107e-14 0)
(851.84 9.87643e-14 0)
(851.84 -3.03873e-13 0)
(851.84 -2.53422e-13 0)
(851.84 -1.03615e-13 0)
(851.84 6.36197e-14 0)
(851.84 3.95277e-13 0)
(851.84 2.2954e-13 0)
(851.84 2.66838e-13 0)
(851.84 2.03682e-13 0)
(851.84 2.27704e-13 0)
(851.84 1.48593e-13 0)
(851.84 2.52074e-13 0)
(851.84 3.22395e-13 0)
(851.84 2.20717e-13 0)
(851.84 2.16447e-13 0)
(851.84 2.72553e-13 0)
(851.84 4.60472e-14 0)
(851.84 8.64703e-14 0)
(851.84 -3.98571e-14 0)
(851.84 3.8537e-14 0)
(851.84 1.30728e-13 0)
(851.84 9.82837e-14 0)
(851.84 2.94978e-13 0)
(851.84 5.17845e-13 0)
(851.84 3.8609e-13 0)
(851.84 4.20627e-13 0)
(851.84 5.95699e-13 0)
(851.84 3.87542e-13 0)
(851.84 2.02025e-13 0)
(851.84 2.02893e-13 0)
(851.84 4.42717e-15 0)
(851.84 -1.14352e-13 0)
(851.84 -1.29919e-14 0)
(851.84 6.11961e-14 0)
(851.84 1.18146e-14 0)
(851.84 -8.61772e-14 0)
(851.84 -6.66647e-14 0)
(851.84 -1.21777e-13 0)
(851.84 -7.0638e-14 0)
(851.84 -1.70826e-13 0)
(851.84 9.82829e-14 0)
(851.84 3.56702e-14 0)
(851.84 2.10801e-13 0)
(851.84 8.30918e-14 0)
(851.84 -1.1372e-14 0)
(851.84 -1.12648e-13 0)
(851.84 5.89798e-14 0)
(851.84 2.36515e-13 0)
(851.84 2.94151e-13 0)
(851.84 2.75591e-13 0)
(851.84 6.188e-13 0)
(851.84 2.58967e-13 0)
(851.84 2.14384e-13 0)
(851.84 4.2266e-13 0)
(851.84 2.4302e-13 0)
(851.84 2.02195e-13 0)
(851.84 5.76426e-13 0)
(851.84 3.16337e-13 0)
(851.84 4.25692e-14 0)
(851.84 1.51071e-13 0)
(851.84 5.99153e-13 0)
(851.84 5.58925e-13 0)
(851.84 6.58371e-13 0)
(851.84 2.67995e-13 0)
(851.84 4.90248e-14 0)
(851.84 -6.49789e-15 0)
(851.84 2.67674e-13 0)
(851.84 -4.01531e-14 0)
(851.84 -1.03028e-13 0)
(851.84 -2.71876e-13 0)
(851.84 2.45759e-14 0)
(851.84 1.21309e-13 0)
(851.84 3.01211e-13 0)
(851.84 2.72088e-13 0)
(851.84 -1.34329e-13 0)
(851.84 -1.31944e-13 0)
(851.84 -2.42612e-13 0)
(851.84 2.37596e-13 0)
(851.84 2.96076e-13 0)
(851.84 4.98572e-13 0)
(851.84 1.50071e-13 0)
(851.84 -9.40747e-14 0)
(851.84 -2.91407e-13 0)
(851.84 -2.19851e-13 0)
(851.84 3.77093e-14 0)
(851.84 1.99969e-13 0)
(851.84 3.86861e-13 0)
(851.84 1.58943e-13 0)
(851.84 -5.99318e-14 0)
(851.84 -5.58429e-14 0)
(851.84 -9.01924e-14 0)
(851.84 3.90595e-14 0)
(851.84 3.39044e-13 0)
(851.84 5.86077e-13 0)
(851.84 3.89127e-13 0)
(851.84 7.83743e-14 0)
(851.84 -1.47107e-13 0)
(851.84 -1.22174e-13 0)
(851.84 -5.00574e-13 0)
(851.84 -3.98977e-13 0)
(851.84 -3.5918e-13 0)
(851.84 -2.96645e-13 0)
(851.84 -3.37051e-13 0)
(851.84 -2.71239e-13 0)
(851.84 -1.68298e-13 0)
(851.84 -1.34957e-13 0)
(851.84 -1.66536e-13 0)
(851.84 -3.32496e-13 0)
(851.84 -4.43398e-14 0)
(851.84 -1.74397e-13 0)
(851.84 -2.31065e-13 0)
(851.84 1.29002e-14 0)
(851.84 -1.04237e-13 0)
(851.84 -1.90098e-13 0)
(851.84 7.40627e-14 0)
(851.84 6.96715e-14 0)
(851.84 9.23739e-14 0)
(851.84 -3.08674e-14 0)
(851.84 5.83934e-14 0)
(851.84 1.5039e-13 0)
(851.84 7.10771e-14 0)
(851.84 -4.98997e-14 0)
(851.84 7.1318e-14 0)
(851.84 1.24404e-13 0)
(851.84 -7.40853e-15 0)
(851.84 5.05544e-14 0)
(851.84 1.4428e-13 0)
(851.84 -1.37157e-14 0)
(851.84 2.8713e-13 0)
(851.84 2.2181e-13 0)
(851.84 4.03398e-13 0)
(851.84 3.76525e-13 0)
(851.84 2.74913e-13 0)
(851.84 1.98426e-13 0)
(851.84 1.91997e-13 0)
(851.84 -7.95246e-14 0)
(851.84 -1.55704e-13 0)
(851.84 -5.24792e-14 0)
(851.84 -1.28073e-14 0)
(851.84 1.6474e-14 0)
(851.84 -6.18853e-14 0)
(851.84 -1.78994e-13 0)
(851.84 -2.76895e-13 0)
(851.84 -1.07503e-13 0)
(851.84 -1.79167e-14 0)
(851.84 -1.06122e-13 0)
(851.84 -1.76747e-13 0)
(851.84 -3.42147e-13 0)
(851.84 -3.58906e-13 0)
(851.84 -1.70573e-13 0)
(851.84 -7.73896e-14 0)
(851.84 -4.59558e-15 0)
(851.84 -6.70075e-15 0)
(851.84 -1.14534e-13 0)
(851.84 -5.01308e-14 0)
(851.84 -2.00368e-13 0)
(851.84 -1.98198e-13 0)
(851.84 -2.45939e-13 0)
(851.84 7.29143e-14 0)
(851.84 3.16688e-14 0)
(851.84 1.43308e-13 0)
(851.84 1.49439e-13 0)
(851.84 -7.37539e-16 0)
(851.84 -2.14948e-13 0)
(851.84 -1.1445e-13 0)
(851.84 4.94235e-14 0)
(851.84 1.00149e-13 0)
(851.84 6.24853e-15 0)
(851.84 -2.44993e-13 0)
(851.84 -1.83375e-13 0)
(851.84 -2.58515e-13 0)
(851.84 -8.35239e-14 0)
(851.84 -8.06323e-14 0)
(851.84 3.67796e-14 0)
(851.84 -6.17401e-14 0)
(851.84 8.3609e-14 0)
(851.84 1.00257e-13 0)
(851.84 1.22454e-13 0)
(851.84 2.05754e-13 0)
(851.84 3.6025e-14 0)
(851.84 8.63747e-15 0)
(851.84 -2.77546e-13 0)
(851.84 -3.10449e-13 0)
(851.84 -3.85049e-13 0)
(851.84 1.25584e-13 0)
(851.84 6.62603e-14 0)
(851.84 -1.56507e-14 0)
(851.84 -2.01377e-13 0)
(851.84 -2.3563e-13 0)
(851.84 9.84988e-14 0)
(851.84 5.07594e-14 0)
(851.84 5.66631e-14 0)
(851.84 -7.33704e-14 0)
(851.84 -2.52038e-13 0)
(851.84 -3.68634e-13 0)
(851.84 -3.82768e-13 0)
(851.84 -2.50838e-13 0)
(851.84 -1.91997e-13 0)
(851.84 -1.01511e-13 0)
(851.84 -1.53496e-13 0)
(851.84 -1.10641e-13 0)
(851.84 -7.65625e-14 0)
(851.84 1.04951e-13 0)
(851.84 -1.15012e-15 0)
(851.84 -7.00108e-14 0)
(851.84 -1.29258e-13 0)
(851.84 -2.45734e-13 0)
(851.84 -2.76171e-13 0)
(851.84 -1.10294e-13 0)
(851.84 -1.19327e-13 0)
(851.84 -1.44028e-14 0)
(851.84 -6.68582e-14 0)
(851.84 1.60985e-13 0)
(851.84 -3.43442e-14 0)
(851.84 -2.47056e-14 0)
(851.84 -4.84974e-14 0)
(851.84 8.35351e-14 0)
(851.84 7.46622e-14 0)
(851.84 3.59087e-14 0)
(851.84 -4.99093e-13 0)
(851.84 -5.057e-13 0)
(851.84 -5.67408e-13 0)
(851.84 4.25561e-14 0)
(851.84 -3.85234e-14 0)
(851.84 -1.65079e-13 0)
(851.84 -2.7808e-13 0)
(851.84 -2.22028e-13 0)
(851.84 -5.98716e-14 0)
(851.84 1.7061e-14 0)
(851.84 -2.89363e-14 0)
(851.84 -6.9596e-15 0)
(851.84 4.88273e-15 0)
(851.84 -1.61808e-14 0)
(851.84 6.11544e-14 0)
(851.84 3.61661e-13 0)
(851.84 -2.15271e-13 0)
(851.84 -4.2723e-13 0)
(851.84 -5.02496e-13 0)
(851.84 -4.58543e-13 0)
(851.84 -2.05537e-13 0)
(851.84 -6.45499e-14 0)
(851.84 -9.78514e-15 0)
(851.84 -1.62971e-13 0)
(851.84 -2.64808e-13 0)
(851.84 7.01609e-14 0)
(851.84 2.88439e-14 0)
(851.84 1.354e-15 0)
(851.84 1.63983e-13 0)
(851.84 -1.08607e-14 0)
(851.84 -2.99618e-14 0)
(851.84 8.75736e-14 0)
(851.84 -5.07884e-14 0)
(851.84 -3.59249e-13 0)
(851.84 -1.89944e-13 0)
(851.84 -1.30988e-14 0)
(851.84 -1.30986e-13 0)
(851.84 -2.05869e-13 0)
(851.84 -5.51666e-14 0)
(851.84 -5.13869e-14 0)
(851.84 -7.35326e-14 0)
(851.84 -5.60263e-14 0)
(851.84 -1.36581e-13 0)
(851.84 -4.12811e-13 0)
(851.84 -1.8664e-13 0)
(851.84 1.7823e-13 0)
(851.84 4.50212e-14 0)
(851.84 2.03298e-13 0)
(851.84 2.82857e-13 0)
(851.84 1.54235e-13 0)
(851.84 1.3689e-13 0)
(851.84 2.5694e-13 0)
(851.84 2.09886e-13 0)
(851.84 2.88343e-13 0)
(851.84 8.44626e-14 0)
(851.84 6.24339e-15 0)
(851.84 -3.89949e-14 0)
(851.84 -1.56678e-13 0)
(851.84 -4.41488e-15 0)
(851.84 -4.13865e-14 0)
(851.84 2.25167e-13 0)
(851.84 -2.65408e-13 0)
(851.84 -1.44785e-13 0)
(851.84 -1.44603e-13 0)
(851.84 -3.62381e-14 0)
(851.84 1.38754e-13 0)
(851.84 1.32097e-13 0)
(851.84 1.41068e-13 0)
(851.84 5.5044e-14 0)
(851.84 -1.30849e-13 0)
(851.84 -4.58322e-14 0)
(851.84 8.04131e-14 0)
(851.84 -1.8985e-13 0)
(851.84 -1.20095e-13 0)
(851.84 2.28349e-15 0)
(851.84 -1.37107e-13 0)
(851.84 1.17243e-13 0)
(851.84 2.68309e-13 0)
(851.84 5.39051e-13 0)
(851.84 -1.40183e-13 0)
(851.84 9.80355e-14 0)
(851.84 1.62417e-13 0)
(851.84 3.37743e-13 0)
(851.84 1.48629e-13 0)
(851.84 2.40725e-13 0)
(851.84 5.74146e-14 0)
(851.84 -3.66345e-14 0)
(851.84 3.25477e-14 0)
(851.84 1.92137e-13 0)
(851.84 1.88091e-13 0)
(851.84 2.76127e-13 0)
(851.84 1.16597e-13 0)
(851.84 2.28005e-13 0)
(851.84 2.02894e-13 0)
(851.84 -7.37767e-14 0)
(851.84 -2.42302e-14 0)
(851.84 -1.56424e-13 0)
(851.84 2.57849e-13 0)
(851.84 5.8959e-14 0)
(851.84 1.6321e-13 0)
(851.84 -2.53628e-14 0)
(851.84 -2.03676e-13 0)
(851.84 1.78612e-13 0)
(851.84 5.81869e-14 0)
(851.84 2.48661e-13 0)
(851.84 2.84192e-13 0)
(851.84 1.44933e-13 0)
(851.84 -2.99519e-14 0)
(851.84 -1.4446e-13 0)
(851.84 -4.11066e-13 0)
(851.84 -3.42587e-13 0)
(851.84 -1.0534e-13 0)
(851.84 1.08244e-13 0)
(851.84 6.33658e-15 0)
(851.84 1.14319e-13 0)
(851.84 1.24506e-13 0)
(851.84 3.02724e-13 0)
(851.84 1.52452e-15 0)
(851.84 1.74981e-13 0)
(851.84 3.52466e-13 0)
(851.84 2.91161e-13 0)
(851.84 3.04614e-13 0)
(851.84 1.22001e-13 0)
(851.84 5.54161e-14 0)
(851.84 -3.76818e-14 0)
(851.84 -5.46443e-14 0)
(851.84 -9.15555e-15 0)
(851.84 2.25169e-13 0)
(851.84 3.57814e-13 0)
(851.84 3.08874e-13 0)
(851.84 4.09076e-13 0)
(851.84 2.75464e-13 0)
(851.84 5.63292e-14 0)
(851.84 2.09566e-13 0)
(851.84 1.74107e-13 0)
(851.84 1.34103e-13 0)
(851.84 1.5322e-13 0)
(851.84 3.12948e-13 0)
(851.84 3.05989e-13 0)
(851.84 4.60486e-13 0)
(851.84 1.22485e-13 0)
(851.84 1.62771e-15 0)
(851.84 -1.58022e-13 0)
(851.84 -1.0294e-13 0)
(851.84 -8.8581e-15 0)
(851.84 -7.54009e-14 0)
(851.84 -2.26456e-13 0)
(851.84 -2.36357e-13 0)
(851.84 -4.2923e-13 0)
(851.84 -2.74439e-13 0)
(851.84 -2.21218e-13 0)
(851.84 -3.18072e-13 0)
(851.84 -4.55359e-14 0)
(851.84 2.45213e-13 0)
(851.84 3.10251e-13 0)
(851.84 -9.62914e-15 0)
(851.84 9.73785e-14 0)
(851.84 4.14059e-13 0)
(851.84 2.867e-13 0)
(851.84 7.27228e-14 0)
(851.84 1.92027e-13 0)
(851.84 -1.09016e-13 0)
(851.84 -4.08312e-14 0)
(851.84 -2.45919e-13 0)
(851.84 -1.82733e-13 0)
(851.84 -1.53528e-13 0)
(851.84 -3.03798e-13 0)
(851.84 -3.48468e-13 0)
(851.84 -2.69177e-13 0)
(851.84 9.84112e-14 0)
(851.84 2.67706e-13 0)
(851.84 2.99067e-13 0)
(851.84 2.54202e-13 0)
(851.84 4.4287e-13 0)
(851.84 6.03712e-13 0)
(851.84 6.52188e-13 0)
(851.84 5.8011e-13 0)
(851.84 1.44191e-13 0)
(851.84 2.39709e-13 0)
(851.84 2.63715e-14 0)
(851.84 -2.12462e-13 0)
(851.84 -1.66897e-13 0)
(851.84 7.55114e-15 0)
(851.84 1.02355e-13 0)
(851.84 7.81046e-14 0)
(851.84 1.57236e-13 0)
(851.84 1.29565e-14 0)
(851.84 -5.01726e-13 0)
(851.84 -4.17822e-13 0)
(851.84 -1.26678e-13 0)
(851.84 9.31441e-14 0)
(851.84 1.34945e-13 0)
(851.84 4.58601e-13 0)
(851.84 8.7019e-14 0)
(851.84 3.51687e-14 0)
(851.84 2.17341e-14 0)
(851.84 2.17732e-13 0)
(851.84 2.79195e-13 0)
(851.84 5.67324e-14 0)
(851.84 4.8951e-15 0)
(851.84 1.39936e-13 0)
(851.84 2.29116e-13 0)
(851.84 2.33356e-13 0)
(851.84 1.31442e-13 0)
(851.84 1.68527e-13 0)
(851.84 -2.24982e-13 0)
(851.84 -4.54331e-13 0)
(851.84 -4.61539e-13 0)
(851.84 2.91719e-14 0)
(851.84 1.57066e-13 0)
(851.84 3.17481e-13 0)
(851.84 2.98549e-13 0)
(851.84 1.25289e-13 0)
(851.84 2.32355e-14 0)
(851.84 1.51632e-13 0)
(851.84 6.2245e-14 0)
(851.84 -1.16192e-13 0)
(851.84 -1.37312e-13 0)
(851.84 -3.49782e-14 0)
(851.84 7.3904e-14 0)
(851.84 1.31716e-13 0)
(851.84 3.38148e-13 0)
(851.84 4.82678e-13 0)
(851.84 6.30143e-13 0)
(851.84 6.76546e-13 0)
(851.84 8.10021e-13 0)
(851.84 5.01262e-13 0)
(851.84 4.80512e-13 0)
(851.84 4.53689e-13 0)
(851.84 3.11674e-13 0)
(851.84 -2.4192e-14 0)
(851.84 5.48036e-14 0)
(851.84 -8.81425e-14 0)
(851.84 -1.65705e-13 0)
(851.84 -3.57971e-14 0)
(851.84 2.09022e-13 0)
(851.84 1.95465e-13 0)
(851.84 5.95024e-14 0)
(851.84 6.34358e-14 0)
(851.84 1.3427e-13 0)
(851.84 3.91616e-13 0)
(851.84 2.76854e-13 0)
(851.84 9.41988e-14 0)
(851.84 1.05431e-13 0)
(851.84 5.13334e-14 0)
(851.84 4.14579e-14 0)
(851.84 -1.17859e-14 0)
(851.84 -1.29764e-13 0)
(851.84 -2.4561e-14 0)
(851.84 -5.27862e-14 0)
(851.84 -5.30362e-15 0)
(851.84 -6.82032e-14 0)
(851.84 -9.00951e-15 0)
(851.84 -1.2519e-13 0)
(851.84 -2.81569e-13 0)
(851.84 -4.06038e-13 0)
(851.84 -1.59564e-13 0)
(851.84 -5.26166e-14 0)
(851.84 -5.55675e-15 0)
(851.84 4.53947e-13 0)
(851.84 4.6975e-13 0)
(851.84 2.89057e-13 0)
(851.84 7.54683e-13 0)
(851.84 7.99584e-13 0)
(851.84 6.63191e-13 0)
(851.84 4.91134e-13 0)
(851.84 3.5142e-13 0)
(851.84 2.6268e-13 0)
(851.84 2.96518e-13 0)
(851.84 -4.93661e-14 0)
(851.84 2.86065e-14 0)
(851.84 -2.68017e-14 0)
(851.84 -2.47722e-14 0)
(851.84 2.85563e-14 0)
(851.84 1.36199e-13 0)
(851.84 1.06812e-13 0)
(851.84 2.91896e-13 0)
(851.84 4.01257e-13 0)
(851.84 2.50609e-13 0)
(851.84 3.27123e-13 0)
(851.84 -7.40759e-14 0)
(851.84 -1.88511e-13 0)
(851.84 5.66801e-14 0)
(851.84 7.30827e-14 0)
(851.84 -3.07118e-14 0)
(851.84 9.14321e-14 0)
(851.84 1.58278e-13 0)
(851.84 1.57705e-13 0)
(851.84 1.00141e-13 0)
(851.84 -7.40292e-14 0)
(851.84 -2.46002e-13 0)
(851.84 -1.26372e-13 0)
(851.84 4.26686e-14 0)
(851.84 1.90859e-13 0)
(851.84 -1.15568e-13 0)
(851.84 6.6201e-14 0)
(851.84 2.39589e-13 0)
(851.84 4.28072e-13 0)
(851.84 3.69566e-13 0)
(851.84 5.29181e-13 0)