/*--------------------------------*- C++ -*----------------------------------*\
| =========                 |                                                 |
| \\      /  F ield         | OpenFOAM: The Open Source CFD Toolbox           |
|  \\    /   O peration     | Version:  v1812                                 |
|   \\  /    A nd           | Web:      www.OpenFOAM.com                      |
|    \\/     M anipulation  |                                                 |
\*---------------------------------------------------------------------------*/
FoamFile
{
    version     2.0;
    format      ascii;
    class       volScalarField;
    location    "0.5";
    object      p;
}
// * * * * * * * * * * * * * * * * * * * * * * * * * * * * * * * * * * * * * //

dimensions      [1 -1 -2 0 0 0 0];


internalField   nonuniform List<scalar> 
64512
(
1
1
1
1
1
1
1
1
1
1
1
1
1
1
1
1
1
1
1
1
1
1
1
1
1
1
1
1
1
1
1
1
1
1
1
1
1
1
1
1
1
1
1
1
1
1
1
1
1
1
1
1
1
1
1
1
1
1
1.00001
1.00088
1.0564
4.36388
10.1246
10.9902
11.0282
11.1479
11.298
11.4664
11.623
11.7438
11.8407
11.9103
11.9581
11.9913
12.0151
12.0311
12.0464
12.0678
12.0946
12.123
12.1512
12.1799
12.2112
12.2476
12.2918
12.3441
12.3999
12.4494
12.4837
12.5003
12.4982
12.482
12.4574
12.4342
12.4125
12.4003
1
1
1
1
1
1
1
1
1
1
1
1
1
1
1
1
1
1
1
1
1
1
1
1
1
1
1
1
1
1
1
1
1
1
1
1
1
1
1
1
1
1
1
1
1
1
1
1
1
1
1
1
1
1
1
1
1
1
1.00001
1.00085
1.05494
4.2812
10.0589
10.9192
11.0651
11.1758
11.313
11.4654
11.6148
11.7402
11.8318
11.9016
11.9505
11.9842
12.0089
12.0281
12.0455
12.0667
12.0924
12.1198
12.1474
12.1761
12.2078
12.2448
12.2897
12.3425
12.3987
12.4484
12.4828
12.499
12.4966
12.4801
12.4552
12.4316
12.4103
12.3993
1
1
1
1
1
1
1
1
1
1
1
1
1
1
1
1
1
1
1
1
1
1
1
1
1
1
1
1
1
1
1
1
1
1
1
1
1
1
1
1
1
1
1
1
1
1
1
1
1
1
1
1
1
1
1
1
1
1
1.00001
1.00079
1.05105
4.06514
10.0355
11.0203
11.0944
11.1819
11.3145
11.4629
11.6095
11.7289
11.8187
11.8862
11.9351
11.9731
12.0026
12.0252
12.0445
12.0655
12.09
12.1157
12.1419
12.1694
12.2004
12.2374
12.2828
12.3366
12.3941
12.4453
12.4809
12.4974
12.495
12.478
12.4523
12.4283
12.4065
12.3972
1
1
1
1
1
1
1
1
1
1
1
1
1
1
1
1
1
1
1
1
1
1
1
1
1
1
1
1
1
1
1
1
1
1
1
1
1
1
1
1
1
1
1
1
1
1
1
1
1
1
1
1
1
1
1
1
1
1
1.00001
1.00072
1.04686
3.8375
9.99838
11.0342
11.1045
11.1907
11.3254
11.4657
11.6022
11.7155
11.8009
11.8678
11.919
11.9601
11.9926
12.0172
12.0375
12.0586
12.0822
12.1069
12.132
12.1589
12.19
12.2278
12.2744
12.3298
12.3885
12.4409
12.477
12.4932
12.4899
12.4718
12.4453
12.4214
12.3985
12.3913
1
1
1
1
1
1
1
1
1
1
1
1
1
1
1
1
1
1
1
1
1
1
1
1
1
1
1
1
1
1
1
1
1
1
1
1
1
1
1
1
1
1
1
1
1
1
1
1
1
1
1
1
1
1
1
1
1
1
1.00001
1.00066
1.04327
3.64533
9.88043
10.9975
11.0979
11.212
11.3347
11.4622
11.5919
11.7032
11.7834
11.8485
11.9017
11.9459
11.9822
12.0098
12.032
12.0532
12.0756
12.0985
12.1217
12.1472
12.1778
12.2162
12.2641
12.3208
12.3805
12.4335
12.4699
12.4858
12.4824
12.4641
12.4376
12.4147
12.3906
12.3829
1
1
1
1
1
1
1
1
1
1
1
1
1
1
1
1
1
1
1
1
1
1
1
1
1
1
1
1
1
1
1
1
1
1
1
1
1
1
1
1
1
1
1
1
1
1
1
1
1
1
1
1
1
1
1
1
1
1
1.00001
1.00059
1.03838
3.36999
9.72688
10.9778
11.1012
11.2214
11.3342
11.4609
11.5882
11.6948
11.7699
11.8307
11.8825
11.9274
11.9665
11.9971
12.0215
12.0434
12.0654
12.0872
12.1092
12.1342
12.1651
12.2047
12.254
12.3115
12.3711
12.4236
12.4592
12.4746
12.4713
12.4535
12.4275
12.4048
12.38
12.3706
1
1
1
1
1
1
1
1
1
1
1
1
1
1
1
1
1
1
1
1
1
1
1
1
1
1
1
1
1
1
1
1
1
1
1
1
1
1
1
1
1
1
1
1
1
1
1
1
1
1
1
1
1
1
1
1
1
1
1.00001
1.00049
1.03231
3.02801
9.56939
10.9725
11.109
11.2341
11.3455
11.4666
11.5847
11.6823
11.7518
11.8101
11.8613
11.9078
11.9497
11.9835
12.0097
12.0318
12.053
12.0735
12.0945
12.1192
12.1511
12.1924
12.2433
12.3012
12.36
12.4109
12.4453
12.4603
12.4577
12.4413
12.4158
12.3927
12.367
12.3543
1
1
1
1
1
1
1
1
1
1
1
1
1
1
1
1
1
1
1
1
1
1
1
1
1
1
1
1
1
1
1
1
1
1
1
1
1
1
1
1
1
1
1
1
1
1
1
1
1
1
1
1
1
1
1
1
1
1
1.00001
1.00038
1.02531
2.62432
9.37435
10.9695
11.1173
11.2424
11.3571
11.4729
11.58
11.6682
11.7315
11.7874
11.8386
11.8864
11.9307
11.9671
11.9947
12.0168
12.0374
12.0573
12.0781
12.1035
12.1371
12.1802
12.2323
12.2897
12.3466
12.3953
12.4284
12.4434
12.442
12.4272
12.402
12.3781
12.3523
12.3301
1
1
1
1
1
1
1
1
1
1
1
1
1
1
1
1
1
1
1
1
1
1
1
1
1
1
1
1
1
1
1
1
1
1
1
1
1
1
1
1
1
1
1
1
1
1
1
1
1
1
1
1
1
1
1
1
1
1
1
1.00026
1.01769
2.17812
9.14825
10.9672
11.1278
11.2587
11.3773
11.4803
11.5717
11.6475
11.7033
11.7571
11.8099
11.8604
11.9078
11.947
11.9761
11.9982
12.0186
12.0385
12.0601
12.0873
12.1229
12.1676
12.22
12.2758
12.33
12.3762
12.4088
12.424
12.4242
12.411
12.3858
12.3611
12.3398
12.2939
1
1
1
1
1
1
1
1
1
1
1
1
1
1
1
1
1
1
1
1
1
1
1
1
1
1
1
1
1
1
1
1
1
1
1
1
1
1
1
1
1
1
1
1
1
1
1
1
1
1
1
1
1
1
1
1
1
1
1
1.00014
1.0101
1.69555
8.87945
10.9541
11.148
11.2813
11.393
11.4832
11.5608
11.6247
11.673
11.7247
11.7791
11.8322
11.8826
11.9238
11.954
11.9762
11.9968
12.0177
12.0413
12.0711
12.1091
12.1548
12.2064
12.2597
12.3105
12.3545
12.3867
12.4025
12.4037
12.3912
12.3659
12.3377
12.3198
12.2634
1
1
1
1
1
1
1
1
1
1
1
1
1
1
1
1
1
1
1
1
1
1
1
1
1
1
1
1
1
1
1
1
1
1
1
1
1
1
1
1
1
1
1
1
1
1
1
1
1
1
1
1
1
1
1
1
1
1
1
1.00007
1.00474
1.33098
8.52282
10.8925
11.1518
11.298
11.3959
11.4767
11.5428
11.5969
11.6406
11.6912
11.7476
11.8027
11.8555
11.8979
11.9287
11.9513
11.9727
11.9955
12.0221
12.0551
12.0952
12.1409
12.1905
12.2403
12.2877
12.3296
12.3618
12.378
12.3794
12.3664
12.3405
12.3061
12.2837
12.2565
1
1
1
1
1
1
1
1
1
1
1
1
1
1
1
1
1
1
1
1
1
1
1
1
1
1
1
1
1
1
1
1
1
1
1
1
1
1
1
1
1
1
1
1
1
1
1
1
1
1
1
1
1
1
1
1
1
1
1
1.00004
1.00239
1.14428
8.10024
10.7686
11.1407
11.2921
11.389
11.4632
11.5188
11.5661
11.6074
11.6576
11.7155
11.772
11.8262
11.8689
11.9001
11.9236
11.9466
11.9722
12.0025
12.0388
12.0804
12.1253
12.172
12.2182
12.2622
12.3025
12.3343
12.3499
12.3499
12.3349
12.307
12.2699
12.2463
12.2571
1
1
1
1
1
1
1
1
1
1
1
1
1
1
1
1
1
1
1
1
1
1
1
1
1
1
1
1
1
1
1
1
1
1
1
1
1
1
1
1
1
1
1
1
1
1
1
1
1
1
1
1
1
1
1
1
1
1
1
1.00003
1.00204
1.12428
7.59259
10.5929
11.1144
11.2668
11.3667
11.4393
11.4907
11.5358
11.5753
11.6241
11.6821
11.7394
11.7943
11.8371
11.8688
11.8937
11.9191
11.9483
11.9826
12.0219
12.0642
12.1074
12.1507
12.1931
12.234
12.2725
12.3025
12.3161
12.3136
12.2955
12.2683
12.2379
12.2202
12.2439
1
1
1
1
1
1
1
1
1
1
1
1
1
1
1
1
1
1
1
1
1
1
1
1
1
1
1
1
1
1
1
1
1
1
1
1
1
1
1
1
1
1
1
1
1
1
1
1
1
1
1
1
1
1
1
1
1
1
1
1.00003
1.00184
1.11266
7.0665
10.3606
11.0695
11.2356
11.3308
11.4074
11.4617
11.5066
11.543
11.5897
11.6475
11.7055
11.7608
11.8036
11.836
11.8627
11.8909
11.9239
11.962
12.0035
12.0458
12.0866
12.1265
12.1653
12.2031
12.239
12.2654
12.2756
12.27
12.251
12.2293
12.2091
12.1968
12.2179
1
1
1
1
1
1
1
1
1
1
1
1
1
1
1
1
1
1
1
1
1
1
1
1
1
1
1
1
1
1
1
1
1
1
1
1
1
1
1
1
1
1
1
1
1
1
1
1
1
1
1
1
1
1
1
1
1
1
1
1.00003
1.00161
1.0993
6.44804
10.1024
11.0302
11.1883
11.3004
11.3822
11.4331
11.4739
11.5069
11.5534
11.6118
11.671
11.7265
11.7691
11.802
11.8306
11.862
11.8987
11.94
11.983
12.0244
12.0626
12.0992
12.1343
12.1685
12.2003
12.2213
12.2272
12.2203
12.2046
12.1907
12.181
12.1706
12.1818
1
1
1
1
1
1
1
1
1
1
1
1
1
1
1
1
1
1
1
1
1
1
1
1
1
1
1
1
1
1
1
1
1
1
1
1
1
1
1
1
1
1
1
1
1
1
1
1
1
1
1
1
1
1
1
1
1
1
1
1.00002
1.00131
1.08284
5.67947
9.88606
11.0186
11.153
11.2889
11.3595
11.3983
11.4332
11.4659
11.5156
11.5763
11.6375
11.6929
11.7349
11.7677
11.7976
11.8317
11.8716
11.9153
11.9591
11.9992
12.0349
12.0682
12.0996
12.1292
12.1552
12.1703
12.1727
12.1676
12.1587
12.152
12.1489
12.1371
12.1368
1
1
1
1
1
1
1
1
1
1
1
1
1
1
1
1
1
1
1
1
1
1
1
1
1
1
1
1
1
1
1
1
1
1
1
1
1
1
1
1
1
1
1
1
1
1
1
1
1
1
1
1
1
1
1
1
1
1
1
1.00001
1.00095
1.06206
4.67395
9.7749
11.0409
11.1729
11.2792
11.321
11.3509
11.3847
11.4224
11.479
11.5435
11.6062
11.6606
11.7009
11.7328
11.7635
11.7997
11.842
11.8873
11.9314
11.9702
12.0035
12.0335
12.0603
12.0839
12.1025
12.1125
12.114
12.1131
12.1124
12.1105
12.1106
12.0998
12.0806
1
1
1
1
1
1
1
1
1
1
1
1
1
1
1
1
1
1
1
1
1
1
1
1
1
1
1
1
1
1
1
1
1
1
1
1
1
1
1
1
1
1
1
1
1
1
1
1
1
1
1
1
1
1
1
1
1
1
1
1.00001
1.00056
1.03758
3.37783
9.74054
11.1463
11.1516
11.2315
11.2612
11.296
11.3373
11.3824
11.4452
11.5125
11.5756
11.6282
11.666
11.6966
11.7277
11.7655
11.8095
11.8557
11.8994
11.9369
11.9678
11.9938
12.015
12.0312
12.0425
12.0489
12.0529
12.0583
12.064
12.0641
12.0644
12.0671
12.0052
1
1
1
1
1
1
1
1
1
1
1
1
1
1
1
1
1
1
1
1
1
1
1
1
1
1
1
1
1
1
1
1
1
1
1
1
1
1
1
1
1
1
1
1
1
1
1
1
1
1
1
1
1
1
1
1
1
1
1
1
1.00023
1.01629
2.10988
9.32863
11.1452
11.1207
11.1696
11.2116
11.2488
11.2981
11.3471
11.4135
11.4829
11.545
11.5939
11.6285
11.658
11.6897
11.7287
11.7735
11.8197
11.8627
11.8985
11.9267
11.9483
11.963
11.9716
11.9769
11.9815
11.9897
12.0003
12.009
12.0107
12.006
12.0151
11.9492
1
1
1
1
1
1
1
1
1
1
1
1
1
1
1
1
1
1
1
1
1
1
1
1
1
1
1
1
1
1
1
1
1
1
1
1
1
1
1
1
1
1
1
1
1
1
1
1
1
1
1
1
1
1
1
1
1
1
1
1
1.00006
1.00436
1.28206
8.41482
10.9119
11.0946
11.1254
11.1532
11.2107
11.2585
11.3126
11.3866
11.4542
11.5109
11.5542
11.5865
11.6164
11.6492
11.689
11.7337
11.7789
11.8205
11.8544
11.8796
11.8961
11.9036
11.9054
11.9067
11.9111
11.9234
11.9364
11.9436
11.9436
11.9292
11.9252
11.9404
1
1
1
1
1
1
1
1
1
1
1
1
1
1
1
1
1
1
1
1
1
1
1
1
1
1
1
1
1
1
1
1
1
1
1
1
1
1
1
1
1
1
1
1
1
1
1
1
1
1
1
1
1
1
1
1
1
1
1
1
1.00003
1.00205
1.12476
7.4491
10.5413
10.9643
11.0466
11.1049
11.172
11.2169
11.2892
11.3626
11.4186
11.4691
11.5079
11.5408
11.5724
11.6064
11.6461
11.6892
11.7326
11.7721
11.8035
11.8253
11.8362
11.8367
11.8337
11.8324
11.8372
11.8517
11.8619
11.8633
11.8598
11.8477
11.8465
11.9107
1
1
1
1
1
1
1
1
1
1
1
1
1
1
1
1
1
1
1
1
1
1
1
1
1
1
1
1
1
1
1
1
1
1
1
1
1
1
1
1
1
1
1
1
1
1
1
1
1
1
1
1
1
1
1
1
1
1
1
1
1.00003
1.00167
1.10274
6.60594
10.1385
10.8305
10.9855
11.0643
11.1152
11.2031
11.2714
11.3286
11.3761
11.42
11.4585
11.4934
11.5266
11.5611
11.5993
11.6397
11.6801
11.7168
11.7451
11.7629
11.7688
11.7636
11.7568
11.7538
11.7582
11.7703
11.7743
11.7703
11.7676
11.7691
11.7785
11.8458
1
1
1
1
1
1
1
1
1
1
1
1
1
1
1
1
1
1
1
1
1
1
1
1
1
1
1
1
1
1
1
1
1
1
1
1
1
1
1
1
1
1
1
1
1
1
1
1
1
1
1
1
1
1
1
1
1
1
1
1
1.00002
1.00133
1.08323
5.66644
9.6954
10.7466
10.9381
11.0125
11.1213
11.1904
11.2375
11.2872
11.3282
11.3685
11.4086
11.4448
11.479
11.5132
11.5488
11.585
11.6214
11.6545
11.6792
11.6926
11.6935
11.6846
11.6748
11.6694
11.6705
11.6761
11.6735
11.669
11.6726
11.6904
11.7069
11.7479
1
1
1
1
1
1
1
1
1
1
1
1
1
1
1
1
1
1
1
1
1
1
1
1
1
1
1
1
1
1
1
1
1
1
1
1
1
1
1
1
1
1
1
1
1
1
1
1
1
1
1
1
1
1
1
1
1
1
1
1
1.00001
1.00089
1.05759
4.40237
9.4761
10.751
10.9377
11.0622
11.1024
11.147
11.1934
11.2368
11.2785
11.3173
11.3576
11.3955
11.4303
11.4627
11.4941
11.5251
11.5564
11.5852
11.6057
11.615
11.6109
11.5989
11.5868
11.5771
11.5722
11.5697
11.5645
11.565
11.5775
11.6054
11.6245
11.607
1
1
1
1
1
1
1
1
1
1
1
1
1
1
1
1
1
1
1
1
1
1
1
1
1
1
1
1
1
1
1
1
1
1
1
1
1
1
1
1
1
1
1
1
1
1
1
1
1
1
1
1
1
1
1
1
1
1
1
1
1.00001
1.00041
1.02759
2.7485
9.4021
10.9303
10.9406
10.9939
11.0509
11.1013
11.1413
11.1868
11.2262
11.2645
11.3073
11.3467
11.3796
11.4084
11.4349
11.4601
11.4859
11.5092
11.5247
11.5293
11.5209
11.5057
11.4905
11.4757
11.4631
11.4526
11.4466
11.4534
11.473
11.4999
11.5277
11.4352
1
1
1
1
1
1
1
1
1
1
1
1
1
1
1
1
1
1
1
1
1
1
1
1
1
1
1
1
1
1
1
1
1
1
1
1
1
1
1
1
1
1
1
1
1
1
1
1
1
1
1
1
1
1
1
1
1
1
1
1
1
1.0001
1.00676
1.40234
8.55573
10.7777
10.8965
10.9549
11.0172
11.055
11.0968
11.1319
11.1697
11.2137
11.2598
11.2959
11.3242
11.3492
11.371
11.3906
11.4101
11.4268
11.4366
11.4356
11.4229
11.404
11.3841
11.3632
11.3432
11.3274
11.3216
11.3313
11.348
11.3563
11.3675
11.2863
1
1
1
1
1
1
1
1
1
1
1
1
1
1
1
1
1
1
1
1
1
1
1
1
1
1
1
1
1
1
1
1
1
1
1
1
1
1
1
1
1
1
1
1
1
1
1
1
1
1
1
1
1
1
1
1
1
1
1
1
1
1.00003
1.00209
1.12492
7.21077
10.3824
10.8109
10.905
10.9539
11.003
11.0406
11.072
11.1216
11.1689
11.208
11.2385
11.2633
11.285
11.3024
11.3165
11.3289
11.3382
11.3414
11.334
11.3165
11.2931
11.267
11.2394
11.2125
11.1915
11.182
11.1839
11.1859
11.1775
11.1696
11.128
1
1
1
1
1
1
1
1
1
1
1
1
1
1
1
1
1
1
1
1
1
1
1
1
1
1
1
1
1
1
1
1
1
1
1
1
1
1
1
1
1
1
1
1
1
1
1
1
1
1
1
1
1
1
1
1
1
1
1
1
1
1.00002
1.00143
1.08965
5.99187
9.86678
10.7021
10.8457
10.8971
10.9336
10.9846
11.0393
11.078
11.1127
11.1476
11.1748
11.1976
11.2161
11.2293
11.2376
11.2421
11.2434
11.2389
11.2251
11.2023
11.1732
11.1401
11.1049
11.0699
11.0409
11.0215
11.0082
10.9904
10.9655
10.9466
10.9062
1
1
1
1
1
1
1
1
1
1
1
1
1
1
1
1
1
1
1
1
1
1
1
1
1
1
1
1
1
1
1
1
1
1
1
1
1
1
1
1
1
1
1
1
1
1
1
1
1
1
1
1
1
1
1
1
1
1
1
1
1
1.00001
1.00096
1.06197
4.63968
9.44065
10.6563
10.7802
10.8264
10.9172
10.9673
10.9929
11.0194
11.0517
11.0832
11.1075
11.1275
11.1423
11.1516
11.1524
11.1491
11.1419
11.1293
11.1093
11.0808
11.0451
11.0041
10.9594
10.9136
10.8713
10.8339
10.7965
10.7514
10.7022
10.6541
10.6336
1
1
1
1
1
1
1
1
1
1
1
1
1
1
1
1
1
1
1
1
1
1
1
1
1
1
1
1
1
1
1
1
1
1
1
1
1
1
1
1
1
1
1
1
1
1
1
1
1
1
1
1
1
1
1
1
1
1
1
1
1
1.00001
1.00044
1.02933
2.85153
9.21936
10.6757
10.8109
10.8484
10.8703
10.9058
10.9348
10.9605
10.9886
11.0163
11.0352
11.0515
11.0636
11.0685
11.0608
11.0489
11.0338
11.0144
10.9885
10.9537
10.9105
10.8598
10.803
10.7421
10.6801
10.6171
10.5493
10.4698
10.3788
10.286
10.2003
1
1
1
1
1
1
1
1
1
1
1
1
1
1
1
1
1
1
1
1
1
1
1
1
1
1
1
1
1
1
1
1
1
1
1
1
1
1
1
1
1
1
1
1
1
1
1
1
1
1
1
1
1
1
1
1
1
1
1
1
1
1
1.0001
1.00622
1.31867
8.28213
10.5922
10.7224
10.776
10.8138
10.8518
10.8776
10.9013
10.9254
10.9428
10.9583
10.9723
10.9802
10.9771
10.9629
10.9431
10.9208
10.8952
10.8628
10.8212
10.7693
10.7074
10.6357
10.5555
10.4679
10.3717
10.2604
10.1215
9.93754
9.70425
9.57863
1
1
1
1
1
1
1
1
1
1
1
1
1
1
1
1
1
1
1
1
1
1
1
1
1
1
1
1
1
1
1
1
1
1
1
1
1
1
1
1
1
1
1
1
1
1
1
1
1
1
1
1
1
1
1
1
1
1
1
1
1
1
1.00003
1.00175
1.10551
6.45925
10.2379
10.6787
10.7344
10.7604
10.7885
10.8149
10.8338
10.85
10.8656
10.88
10.8889
10.8901
10.8806
10.8615
10.8351
10.8056
10.7727
10.7334
10.6841
10.6226
10.5481
10.4595
10.3563
10.2372
10.0983
9.92894
9.7105
9.40923
8.95268
8.3465
1
1
1
1
1
1
1
1
1
1
1
1
1
1
1
1
1
1
1
1
1
1
1
1
1
1
1
1
1
1
1
1
1
1
1
1
1
1
1
1
1
1
1
1
1
1
1
1
1
1
1
1
1
1
1
1
1
1
1
1
1
1
1.00002
1.00101
1.06464
4.75829
9.74393
10.5578
10.6412
10.6835
10.7137
10.7334
10.7506
10.7699
10.7878
10.7976
10.8007
10.7975
10.7844
10.7609
10.7266
10.6887
10.6476
10.5998
10.5419
10.4702
10.3824
10.2757
10.1472
9.99242
9.80371
9.5646
9.23779
8.72355
7.78764
5.67286
1
1
1
1
1
1
1
1
1
1
1
1
1
1
1
1
1
1
1
1
1
1
1
1
1
1
1
1
1
1
1
1
1
1
1
1
1
1
1
1
1
1
1
1
1
1
1
1
1
1
1
1
1
1
1
1
1
1
1
1
1
1
1.00001
1.00049
1.03221
2.98656
9.36475
10.4136
10.55
10.5979
10.6282
10.6536
10.6763
10.6928
10.705
10.7106
10.711
10.7058
10.6891
10.6596
10.6173
10.5707
10.5204
10.4633
10.3959
10.3138
10.2124
10.0871
9.9322
9.74016
9.4989
9.18548
8.73681
8.03262
6.84075
4.77132
1
1
1
1
1
1
1
1
1
1
1
1
1
1
1
1
1
1
1
1
1
1
1
1
1
1
1
1
1
1
1
1
1
1
1
1
1
1
1
1
1
1
1
1
1
1
1
1
1
1
1
1
1
1
1
1
1
1
1
1
1
1
1
1.00012
1.00767
1.42346
8.25057
10.1468
10.4767
10.5344
10.5654
10.5925
10.6105
10.619
10.6241
10.6238
10.6206
10.6111
10.5906
10.5561
10.5084
10.4538
10.3937
10.3265
10.2488
10.1551
10.0393
9.89518
9.71458
9.4876
9.19763
8.81788
8.28045
7.4881
6.28359
4.47386
1
1
1
1
1
1
1
1
1
1
1
1
1
1
1
1
1
1
1
1
1
1
1
1
1
1
1
1
1
1
1
1
1
1
1
1
1
1
1
1
1
1
1
1
1
1
1
1
1
1
1
1
1
1
1
1
1
1
1
1
1
1
1
1.00003
1.00179
1.1066
6.27643
9.69436
10.4402
10.4953
10.5202
10.5382
10.5456
10.5472
10.5453
10.5361
10.5263
10.5119
10.4897
10.4536
10.4022
10.3404
10.2701
10.1917
10.1017
9.99479
9.86388
9.70169
9.49816
9.2418
8.91439
8.4854
7.91109
7.12559
6.12399
4.87448
1
1
1
1
1
1
1
1
1
1
1
1
1
1
1
1
1
1
1
1
1
1
1
1
1
1
1
1
1
1
1
1
1
1
1
1
1
1
1
1
1
1
1
1
1
1
1
1
1
1
1
1
1
1
1
1
1
1
1
1
1
1
1
1.00001
1.00081
1.05398
4.21756
9.37056
10.4117
10.4248
10.4529
10.4706
10.474
10.4704
10.4618
10.4472
10.4339
10.4158
10.3904
10.3523
10.2969
10.2279
10.1477
10.0581
9.9559
9.83582
9.69035
9.51142
9.28907
9.01068
8.65965
8.20885
7.64048
6.90689
6.06135
5.03212
1
1
1
1
1
1
1
1
1
1
1
1
1
1
1
1
1
1
1
1
1
1
1
1
1
1
1
1
1
1
1
1
1
1
1
1
1
1
1
1
1
1
1
1
1
1
1
1
1
1
1
1
1
1
1
1
1
1
1
1
1
1
1
1
1.00026
1.01774
2.08724
8.76223
10.3089
10.3623
10.3602
10.3841
10.3957
10.395
10.3866
10.3693
10.3493
10.3229
10.2898
10.2468
10.1876
10.1134
10.026
9.92732
9.81377
9.68084
9.5212
9.32693
9.09
8.79676
8.4356
7.98265
7.43954
6.76801
6.00973
5.12175
1
1
1
1
1
1
1
1
1
1
1
1
1
1
1
1
1
1
1
1
1
1
1
1
1
1
1
1
1
1
1
1
1
1
1
1
1
1
1
1
1
1
1
1
1
1
1
1
1
1
1
1
1
1
1
1
1
1
1
1
1
1
1
1
1.00005
1.00314
1.16909
6.98624
9.94587
10.2694
10.3106
10.3256
10.3352
10.3318
10.3209
10.2978
10.2691
10.2335
10.191
10.1407
10.0776
9.99951
9.90726
9.80066
9.67672
9.53215
9.35992
9.15386
8.90659
8.60546
8.24434
7.80191
7.2877
6.67432
5.97745
5.20634
1
1
1
1
1
1
1
1
1
1
1
1
1
1
1
1
1
1
1
1
1
1
1
1
1
1
1
1
1
1
1
1
1
1
1
1
1
1
1
1
1
1
1
1
1
1
1
1
1
1
1
1
1
1
1
1
1
1
1
1
1
1
1
1
1.00002
1.00101
1.06609
4.74844
9.5176
10.1775
10.2159
10.2468
10.2605
10.2585
10.2503
10.2275
10.1945
10.1521
10.1
10.041
9.97164
9.88868
9.79096
9.6772
9.54451
9.38992
9.20786
8.99241
8.73801
8.43367
8.07782
7.65296
7.16722
6.60664
5.96682
5.28369
1
1
1
1
1
1
1
1
1
1
1
1
1
1
1
1
1
1
1
1
1
1
1
1
1
1
1
1
1
1
1
1
1
1
1
1
1
1
1
1
1
1
1
1
1
1
1
1
1
1
1
1
1
1
1
1
1
1
1
1
1
1
1
1
1.00001
1.00033
1.02278
2.40011
8.81544
10.0947
10.1132
10.154
10.1785
10.1824
10.1808
10.1601
10.1254
10.0776
10.0163
9.94631
9.8674
9.77792
9.67534
9.55635
9.41751
9.25576
9.06688
8.84535
8.58783
8.28502
7.93776
7.53293
7.07189
6.55651
5.97505
5.35619
1
1
1
1
1
1
1
1
1
1
1
1
1
1
1
1
1
1
1
1
1
1
1
1
1
1
1
1
1
1
1
1
1
1
1
1
1
1
1
1
1
1
1
1
1
1
1
1
1
1
1
1
1
1
1
1
1
1
1
1
1
1
1
1
1
1.00006
1.00393
1.20267
6.92747
9.66403
10.0918
10.1244
10.1367
10.1301
10.1219
10.0921
10.0507
9.99503
9.92713
9.84984
9.76504
9.67167
9.56576
9.44261
9.29849
9.13047
8.93586
8.70978
8.45117
8.1522
7.81465
7.43022
6.99378
6.51845
5.9866
5.42884
1
1
1
1
1
1
1
1
1
1
1
1
1
1
1
1
1
1
1
1
1
1
1
1
1
1
1
1
1
1
1
1
1
1
1
1
1
1
1
1
1
1
1
1
1
1
1
1
1
1
1
1
1
1
1
1
1
1
1
1
1
1
1
1
1
1.00002
1.00096
1.06216
4.48514
9.19794
10.1134
10.1021
10.0794
10.0678
10.0542
10.0178
9.96937
9.90998
9.83938
9.75862
9.66924
9.57082
9.45954
9.33161
9.18318
9.01109
8.81375
8.58682
8.3306
8.03835
7.71121
7.34483
6.93177
6.49021
6.00053
5.49797
1
1
1
1
1
1
1
1
1
1
1
1
1
1
1
1
1
1
1
1
1
1
1
1
1
1
1
1
1
1
1
1
1
1
1
1
1
1
1
1
1
1
1
1
1
1
1
1
1
1
1
1
1
1
1
1
1
1
1
1
1
1
1
1
1
1
1.00026
1.01766
2.056
8.33753
10.0397
10.0254
10.007
9.99292
9.98709
9.94839
9.89534
9.83136
9.75405
9.6667
9.57148
9.46828
9.35427
9.22511
9.07576
8.90227
8.7035
8.47602
8.22132
7.93508
7.61838
7.26945
6.88109
6.46824
6.01699
5.55811
1
1
1
1
1
1
1
1
1
1
1
1
1
1
1
1
1
1
1
1
1
1
1
1
1
1
1
1
1
1
1
1
1
1
1
1
1
1
1
1
1
1
1
1
1
1
1
1
1
1
1
1
1
1
1
1
1
1
1
1
1
1
1
1
1
1
1.00005
1.00287
1.15041
6.18831
9.54861
9.93734
9.95576
9.94637
9.93018
9.88044
9.82053
9.74967
9.66707
9.57627
9.47756
9.37137
9.25644
9.12622
8.97493
8.79951
8.59968
8.37351
8.12282
7.84523
7.54012
7.20604
6.84053
6.45219
6.03618
5.61405
1
1
1
1
1
1
1
1
1
1
1
1
1
1
1
1
1
1
1
1
1
1
1
1
1
1
1
1
1
1
1
1
1
1
1
1
1
1
1
1
1
1
1
1
1
1
1
1
1
1
1
1
1
1
1
1
1
1
1
1
1
1
1
1
1
1
1.00001
1.00071
1.04616
3.64521
9.03752
9.91179
9.90573
9.89424
9.85995
9.80425
9.74345
9.67395
9.59201
9.49951
9.39538
9.28295
9.16306
9.02904
8.87636
8.70198
8.5044
8.28235
8.03578
7.76491
7.46967
7.14975
6.80696
6.44019
6.05496
5.66374
1
1
1
1
1
1
1
1
1
1
1
1
1
1
1
1
1
1
1
1
1
1
1
1
1
1
1
1
1
1
1
1
1
1
1
1
1
1
1
1
1
1
1
1
1
1
1
1
1
1
1
1
1
1
1
1
1
1
1
1
1
1
1
1
1
1
1
1.00015
1.00936
1.47131
7.72381
9.78459
9.84325
9.81134
9.77043
9.72382
9.66596
9.5996
9.51675
9.42114
9.31125
9.19425
9.07226
8.93699
8.78521
8.61309
8.417
8.19743
7.9541
7.69144
7.40847
7.10222
6.77952
6.43245
6.07417
5.70919
1
1
1
1
1
1
1
1
1
1
1
1
1
1
1
1
1
1
1
1
1
1
1
1
1
1
1
1
1
1
1
1
1
1
1
1
1
1
1
1
1
1
1
1
1
1
1
1
1
1
1
1
1
1
1
1
1
1
1
1
1
1
1
1
1
1
1
1.00003
1.00155
1.08907
5.14905
9.35893
9.75152
9.7223
9.68956
9.63537
9.58078
9.51599
9.43655
9.3427
9.23305
9.11703
8.9918
8.85221
8.69787
8.52571
8.33124
8.11718
7.8812
7.62791
7.3549
7.06043
6.75602
6.42731
6.09088
5.74922
1
1
1
1
1
1
1
1
1
1
1
1
1
1
1
1
1
1
1
1
1
1
1
1
1
1
1
1
1
1
1
1
1
1
1
1
1
1
1
1
1
1
1
1
1
1
1
1
1
1
1
1
1
1
1
1
1
1
1
1
1
1
1
1
1
1
1
1.00001
1.00038
1.02579
2.51427
8.60675
9.57494
9.64315
9.62416
9.56219
9.5056
9.44008
9.36376
9.27233
9.16254
9.04232
8.91293
8.77016
8.61543
8.44621
8.25693
8.04871
7.81651
7.56899
7.30616
7.02405
6.73651
6.42532
6.10711
5.78721
1
1
1
1
1
1
1
1
1
1
1
1
1
1
1
1
1
1
1
1
1
1
1
1
1
1
1
1
1
1
1
1
1
1
1
1
1
1
1
1
1
1
1
1
1
1
1
1
1
1
1
1
1
1
1
1
1
1
1
1
1
1
1
1
1
1
1
1
1.00007
1.00405
1.20432
6.3122
9.14388
9.56824
9.56917
9.51408
9.44047
9.36373
9.28288
9.18965
9.08504
8.97033
8.84204
8.69928
8.5444
8.37496
8.18553
7.98032
7.75526
7.5184
7.26689
6.99457
6.72066
6.42498
6.11765
5.82139
1
1
1
1
1
1
1
1
1
1
1
1
1
1
1
1
1
1
1
1
1
1
1
1
1
1
1
1
1
1
1
1
1
1
1
1
1
1
1
1
1
1
1
1
1
1
1
1
1
1
1
1
1
1
1
1
1
1
1
1
1
1
1
1
1
1
1
1
1.00001
1.00069
1.04412
3.39472
8.76591
9.48947
9.5051
9.45653
9.38558
9.30326
9.21181
9.11293
9.01607
8.90338
8.77455
8.63023
8.47434
8.30519
8.11896
7.92241
7.70689
7.47582
7.23066
6.96875
6.70589
6.42725
6.13388
5.85373
1
1
1
1
1
1
1
1
1
1
1
1
1
1
1
1
1
1
1
1
1
1
1
1
1
1
1
1
1
1
1
1
1
1
1
1
1
1
1
1
1
1
1
1
1
1
1
1
1
1
1
1
1
1
1
1
1
1
1
1
1
1
1
1
1
1
1
1
1
1.00011
1.0071
1.36541
7.12568
9.12703
9.4374
9.4132
9.34931
9.26072
9.15843
9.04704
8.94141
8.82781
8.70196
8.56172
8.41026
8.24538
8.06191
7.8664
7.6555
7.43266
7.20112
6.94997
6.6965
6.43245
6.14596
5.88191
1
1
1
1
1
1
1
1
1
1
1
1
1
1
1
1
1
1
1
1
1
1
1
1
1
1
1
1
1
1
1
1
1
1
1
1
1
1
1
1
1
1
1
1
1
1
1
1
1
1
1
1
1
1
1
1
1
1
1
1
1
1
1
1
1
1
1
1
1
1.00002
1.00103
1.06329
4.09131
8.68123
9.38077
9.35603
9.30385
9.21854
9.10821
8.98889
8.87955
8.76285
8.63753
8.49842
8.34826
8.18481
8.00189
7.81063
7.61098
7.3986
7.17355
6.93164
6.68511
6.43678
6.16451
5.90652
1
1
1
1
1
1
1
1
1
1
1
1
1
1
1
1
1
1
1
1
1
1
1
1
1
1
1
1
1
1
1
1
1
1
1
1
1
1
1
1
1
1
1
1
1
1
1
1
1
1
1
1
1
1
1
1
1
1
1
1
1
1
1
1
1
1
1
1
1
1
1.00016
1.01039
1.54235
7.41103
9.11974
9.25049
9.23445
9.17172
9.07076
8.94856
8.82951
8.7042
8.57385
8.43483
8.28778
8.13006
7.95432
7.76595
7.56853
7.35954
7.14429
6.91746
6.67943
6.44464
6.18234
5.9258
1
1
1
1
1
1
1
1
1
1
1
1
1
1
1
1
1
1
1
1
1
1
1
1
1
1
1
1
1
1
1
1
1
1
1
1
1
1
1
1
1
1
1
1
1
1
1
1
1
1
1
1
1
1
1
1
1
1
1
1
1
1
1
1
1
1
1
1
1
1
1.00002
1.00132
1.07775
4.3575
8.69061
9.17465
9.15302
9.10617
9.01181
8.89316
8.77496
8.64547
8.51487
8.3795
8.23574
8.0814
7.90717
7.71958
7.52761
7.32934
7.12244
6.90278
6.67265
6.44411
6.20304
5.95087
1
1
1
1
1
1
1
1
1
1
1
1
1
1
1
1
1
1
1
1
1
1
1
1
1
1
1
1
1
1
1
1
1
1
1
1
1
1
1
1
1
1
1
1
1
1
1
1
1
1
1
1
1
1
1
1
1
1
1
1
1
1
1
1
1
1
1
1
1
1
1
1.00019
1.01198
1.62792
7.29978
8.99137
9.05025
9.02433
8.94738
8.84384
8.72918
8.60057
8.46699
8.32887
8.1852
8.03358
7.86699
7.68635
7.49876
7.30104
7.09759
6.888
6.66913
6.44956
6.22479
5.97202
1
1
1
1
1
1
1
1
1
1
1
1
1
1
1
1
1
1
1
1
1
1
1
1
1
1
1
1
1
1
1
1
1
1
1
1
1
1
1
1
1
1
1
1
1
1
1
1
1
1
1
1
1
1
1
1
1
1
1
1
1
1
1
1
1
1
1
1
1
1
1
1.00002
1.00138
1.07989
4.16839
8.57137
8.99932
8.94113
8.88215
8.78679
8.67777
8.54912
8.41474
8.28103
8.14211
7.99551
7.8325
7.65253
7.46758
7.27583
7.08129
6.87822
6.66825
6.4488
6.23588
5.993
1
1
1
1
1
1
1
1
1
1
1
1
1
1
1
1
1
1
1
1
1
1
1
1
1
1
1
1
1
1
1
1
1
1
1
1
1
1
1
1
1
1
1
1
1
1
1
1
1
1
1
1
1
1
1
1
1
1
1
1
1
1
1
1
1
1
1
1
1
1
1
1
1.00017
1.01089
1.56202
6.96049
8.76923
8.84697
8.80833
8.72973
8.62955
8.50779
8.3776
8.24246
8.10245
7.95586
7.79751
7.62578
7.44911
7.25885
7.06811
6.86601
6.66744
6.45195
6.2531
6.01562
1
1
1
1
1
1
1
1
1
1
1
1
1
1
1
1
1
1
1
1
1
1
1
1
1
1
1
1
1
1
1
1
1
1
1
1
1
1
1
1
1
1
1
1
1
1
1
1
1
1
1
1
1
1
1
1
1
1
1
1
1
1
1
1
1
1
1
1
1
1
1
1
1.00002
1.00115
1.06765
3.68537
8.31802
8.8514
8.74343
8.67859
8.58895
8.47076
8.3368
8.20273
8.06783
7.92649
7.77312
7.60214
7.42687
7.24008
7.05598
6.85964
6.67052
6.45548
6.26408
6.03171
1
1
1
1
1
1
1
1
1
1
1
1
1
1
1
1
1
1
1
1
1
1
1
1
1
1
1
1
1
1
1
1
1
1
1
1
1
1
1
1
1
1
1
1
1
1
1
1
1
1
1
1
1
1
1
1
1
1
1
1
1
1
1
1
1
1
1
1
1
1
1
1
1
1.00013
1.00822
1.41942
6.37753
8.58581
8.66807
8.6246
8.54566
8.43297
8.307
8.17716
8.03936
7.89662
7.74426
7.57888
7.41218
7.22956
7.04934
6.85388
6.67015
6.45893
6.27745
6.0533
1
1
1
1
1
1
1
1
1
1
1
1
1
1
1
1
1
1
1
1
1
1
1
1
1
1
1
1
1
1
1
1
1
1
1
1
1
1
1
1
1
1
1
1
1
1
1
1
1
1
1
1
1
1
1
1
1
1
1
1
1
1
1
1
1
1
1
1
1
1
1
1
1
1.00001
1.0008
1.04782
2.94655
8.02659
8.72722
8.59671
8.50948
8.40481
8.27713
8.14644
8.0131
7.87411
7.72584
7.56152
7.39468
7.21496
7.03843
6.84919
6.67256
6.46524
6.28989
6.07089
1
1
1
1
1
1
1
1
1
1
1
1
1
1
1
1
1
1
1
1
1
1
1
1
1
1
1
1
1
1
1
1
1
1
1
1
1
1
1
1
1
1
1
1
1
1
1
1
1
1
1
1
1
1
1
1
1
1
1
1
1
1
1
1
1
1
1
1
1
1
1
1
1
1
1.00008
1.00512
1.25836
5.64085
8.36269
8.50708
8.4645
8.36211
8.25471
8.13149
7.99054
7.84824
7.69932
7.53916
7.37977
7.20696
7.03581
6.85007
6.67481
6.47231
6.30286
6.09191
1
1
1
1
1
1
1
1
1
1
1
1
1
1
1
1
1
1
1
1
1
1
1
1
1
1
1
1
1
1
1
1
1
1
1
1
1
1
1
1
1
1
1
1
1
1
1
1
1
1
1
1
1
1
1
1
1
1
1
1
1
1
1
1
1
1
1
1
1
1
1
1
1
1
1.00001
1.00049
1.02955
2.25082
7.49427
8.55819
8.48075
8.35974
8.23098
8.09713
7.96561
7.82778
7.68353
7.5269
7.36704
7.19843
7.03142
6.84952
6.67901
6.48562
6.31775
6.11304
1
1
1
1
1
1
1
1
1
1
1
1
1
1
1
1
1
1
1
1
1
1
1
1
1
1
1
1
1
1
1
1
1
1
1
1
1
1
1
1
1
1
1
1
1
1
1
1
1
1
1
1
1
1
1
1
1
1
1
1
1
1
1
1
1
1
1
1
1
1
1
1
1
1
1
1.00005
1.00292
1.14867
4.56573
8.22389
8.42982
8.33759
8.20964
8.07831
7.94455
7.8036
7.6613
7.51057
7.35828
7.19508
7.03526
6.85352
6.68687
6.50566
6.33141
6.1395
1
1
1
1
1
1
1
1
1
1
1
1
1
1
1
1
1
1
1
1
1
1
1
1
1
1
1
1
1
1
1
1
1
1
1
1
1
1
1
1
1
1
1
1
1
1
1
1
1
1
1
1
1
1
1
1
1
1
1
1
1
1
1
1
1
1
1
1
1
1
1
1
1
1
1
1
1.00027
1.01581
1.69853
6.68331
8.31815
8.28532
8.18132
8.03432
7.91601
7.79056
7.65527
7.50949
7.35568
7.19458
7.03649
6.85428
6.69645
6.52116
6.3413
6.1666
1
1
1
1
1
1
1
1
1
1
1
1
1
1
1
1
1
1
1
1
1
1
1
1
1
1
1
1
1
1
1
1
1
1
1
1
1
1
1
1
1
1
1
1
1
1
1
1
1
1
1
1
1
1
1
1
1
1
1
1
1
1
1
1
1
1
1
1
1
1
1
1
1
1
1
1
1.00002
1.00136
1.07261
3.21042
7.86181
8.23499
8.16002
8.02185
7.89827
7.77533
7.64386
7.50373
7.35414
7.19688
7.04225
6.86119
6.71246
6.5341
6.35445
6.19839
1
1
1
1
1
1
1
1
1
1
1
1
1
1
1
1
1
1
1
1
1
1
1
1
1
1
1
1
1
1
1
1
1
1
1
1
1
1
1
1
1
1
1
1
1
1
1
1
1
1
1
1
1
1
1
1
1
1
1
1
1
1
1
1
1
1
1
1
1
1
1
1
1
1
1
1
1
1.00012
1.0067
1.30763
5.53153
7.88469
8.04145
7.97604
7.88062
7.77676
7.64904
7.5055
7.34919
7.19143
7.03815
6.86143
6.72223
6.53752
6.36678
6.22069
1
1
1
1
1
1
1
1
1
1
1
1
1
1
1
1
1
1
1
1
1
1
1
1
1
1
1
1
1
1
1
1
1
1
1
1
1
1
1
1
1
1
1
1
1
1
1
1
1
1
1
1
1
1
1
1
1
1
1
1
1
1
1
1
1
1
1
1
1
1
1
1
1
1
1
1
1
1.00001
1.00053
1.03007
2.15876
6.92932
7.95451
7.93811
7.87657
7.76245
7.64064
7.50419
7.34857
7.19467
7.04242
6.87124
6.73715
6.53906
6.38744
6.23924
1
1
1
1
1
1
1
1
1
1
1
1
1
1
1
1
1
1
1
1
1
1
1
1
1
1
1
1
1
1
1
1
1
1
1
1
1
1
1
1
1
1
1
1
1
1
1
1
1
1
1
1
1
1
1
1
1
1
1
1
1
1
1
1
1
1
1
1
1
1
1
1
1
1
1
1
1
1
1.00004
1.0024
1.12159
3.75938
7.41987
7.97649
7.91281
7.75659
7.6422
7.50613
7.34555
7.19673
7.0431
6.8846
6.75214
6.54611
6.41287
6.25336
1
1
1
1
1
1
1
1
1
1
1
1
1
1
1
1
1
1
1
1
1
1
1
1
1
1
1
1
1
1
1
1
1
1
1
1
1
1
1
1
1
1
1
1
1
1
1
1
1
1
1
1
1
1
1
1
1
1
1
1
1
1
1
1
1
1
1
1
1
1
1
1
1
1
1
1
1
1
1
1.00017
1.00969
1.42826
5.2825
7.64327
7.8695
7.75369
7.62464
7.50896
7.3517
7.20205
7.04611
6.89879
6.75681
6.55524
6.43832
6.26325
1
1
1
1
1
1
1
1
1
1
1
1
1
1
1
1
1
1
1
1
1
1
1
1
1
1
1
1
1
1
1
1
1
1
1
1
1
1
1
1
1
1
1
1
1
1
1
1
1
1
1
1
1
1
1
1
1
1
1
1
1
1
1
1
1
1
1
1
1
1
1
1
1
1
1
1
1
1
1
1.00001
1.00062
1.03325
2.1076
6.3046
7.78849
7.75099
7.63601
7.50174
7.34756
7.20249
7.0559
6.91951
6.76409
6.5776
6.46834
6.27907
1
1
1
1
1
1
1
1
1
1
1
1
1
1
1
1
1
1
1
1
1
1
1
1
1
1
1
1
1
1
1
1
1
1
1
1
1
1
1
1
1
1
1
1
1
1
1
1
1
1
1
1
1
1
1
1
1
1
1
1
1
1
1
1
1
1
1
1
1
1
1
1
1
1
1
1
1
1
1
1
1.00004
1.00209
1.10243
3.12172
6.95319
7.72587
7.66973
7.49388
7.32977
7.18464
7.05469
6.92086
6.75777
6.59853
6.49348
6.29547
1
1
1
1
1
1
1
1
1
1
1
1
1
1
1
1
1
1
1
1
1
1
1
1
1
1
1
1
1
1
1
1
1
1
1
1
1
1
1
1
1
1
1
1
1
1
1
1
1
1
1
1
1
1
1
1
1
1
1
1
1
1
1
1
1
1
1
1
1
1
1
1
1
1
1
1
1
1
1
1
1
1.00012
1.00649
1.27734
4.24805
7.33673
7.61764
7.4839
7.32008
7.18891
7.07831
6.93737
6.76502
6.62185
6.51578
6.31041
1
1
1
1
1
1
1
1
1
1
1
1
1
1
1
1
1
1
1
1
1
1
1
1
1
1
1
1
1
1
1
1
1
1
1
1
1
1
1
1
1
1
1
1
1
1
1
1
1
1
1
1
1
1
1
1
1
1
1
1
1
1
1
1
1
1
1
1
1
1
1
1
1
1
1
1
1
1
1
1
1
1.00001
1.00035
1.01853
1.64153
5.32327
7.45974
7.44812
7.31855
7.20183
7.10428
6.95479
6.7855
6.65395
6.55334
6.34185
1
1
1
1
1
1
1
1
1
1
1
1
1
1
1
1
1
1
1
1
1
1
1
1
1
1
1
1
1
1
1
1
1
1
1
1
1
1
1
1
1
1
1
1
1
1
1
1
1
1
1
1
1
1
1
1
1
1
1
1
1
1
1
1
1
1
1
1
1
1
1
1
1
1
1
1
1
1
1
1
1
1
1.00002
1.00101
1.04939
2.22591
6.20666
7.31677
7.29896
7.23081
7.12538
6.94952
6.79398
6.67711
6.58981
6.38179
1
1
1
1
1
1
1
1
1
1
1
1
1
1
1
1
1
1
1
1
1
1
1
1
1
1
1
1
1
1
1
1
1
1
1
1
1
1
1
1
1
1
1
1
1
1
1
1
1
1
1
1
1
1
1
1
1
1
1
1
1
1
1
1
1
1
1
1
1
1
1
1
1
1
1
1
1
1
1
1
1
1
1
1.00005
1.00278
1.11993
3.07672
6.47376
7.2824
7.27799
7.13845
6.91741
6.79738
6.7022
6.61975
6.40889
1
1
1
1
1
1
1
1
1
1
1
1
1
1
1
1
1
1
1
1
1
1
1
1
1
1
1
1
1
1
1
1
1
1
1
1
1
1
1
1
1
1
1
1
1
1
1
1
1
1
1
1
1
1
1
1
1
1
1
1
1
1
1
1
1
1
1
1
1
1
1
1
1
1
1
1
1
1
1
1
1
1
1
1
1.00014
1.00708
1.27332
3.87346
6.96069
7.24292
7.08367
6.87873
6.81469
6.74087
6.64704
6.42526
1
1
1
1
1
1
1
1
1
1
1
1
1
1
1
1
1
1
1
1
1
1
1
1
1
1
1
1
1
1
1
1
1
1
1
1
1
1
1
1
1
1
1
1
1
1
1
1
1
1
1
1
1
1
1
1
1
1
1
1
1
1
1
1
1
1
1
1
1
1
1
1
1
1
1
1
1
1
1
1
1
1
1
1
1.00001
1.00035
1.01713
1.52784
4.8739
6.86121
6.9598
6.92947
6.87644
6.78325
6.63924
6.44562
1
1
1
1
1
1
1
1
1
1
1
1
1
1
1
1
1
1
1
1
1
1
1
1
1
1
1
1
1
1
1
1
1
1
1
1
1
1
1
1
1
1
1
1
1
1
1
1
1
1
1
1
1
1
1
1
1
1
1
1
1
1
1
1
1
1
1
1
1
1
1
1
1
1
1
1
1
1
1
1
1
1
1
1
1
1.00002
1.00084
1.03732
1.95545
5.16553
6.90191
7.03093
6.95498
6.79062
6.59803
6.44244
1
1
1
1
1
1
1
1
1
1
1
1
1
1
1
1
1
1
1
1
1
1
1
1
1
1
1
1
1
1
1
1
1
1
1
1
1
1
1
1
1
1
1
1
1
1
1
1
1
1
1
1
1
1
1
1
1
1
1
1
1
1
1
1
1
1
1
1
1
1
1
1
1
1
1
1
1
1
1
1
1
1
1
1
1
1
1.00004
1.00181
1.07584
2.29616
5.771
7.0142
6.94066
6.74061
6.59093
6.48987
1
1
1
1
1
1
1
1
1
1
1
1
1
1
1
1
1
1
1
1
1
1
1
1
1
1
1
1
1
1
1
1
1
1
1
1
1
1
1
1
1
1
1
1
1