/*--------------------------------*- C++ -*----------------------------------*\
| =========                 |                                                 |
| \\      /  F ield         | OpenFOAM: The Open Source CFD Toolbox           |
|  \\    /   O peration     | Version:  v1812                                 |
|   \\  /    A nd           | Web:      www.OpenFOAM.com                      |
|    \\/     M anipulation  |                                                 |
\*---------------------------------------------------------------------------*/
FoamFile
{
    version     2.0;
    format      ascii;
    class       surfaceScalarField;
    location    "0.5";
    object      phi;
}
// * * * * * * * * * * * * * * * * * * * * * * * * * * * * * * * * * * * * * //

dimensions      [1 0 -1 0 0 0 0];
oriented        oriented;


internalField   nonuniform List<scalar> 
128384
(
0.00262501
-1.0842e-19
0.00262501
1.46367e-18
0.00262501
5.42101e-20
0.00262501
-1.35525e-18
0.00262501
-1.0842e-19
0.00262501
-2.27682e-18
0.00262501
-5.42101e-20
0.00262501
1.78893e-18
0.00262501
-4.33681e-19
0.00262501
-8.13152e-19
0.00262501
-7.58942e-19
0.00262501
-4.33681e-19
0.00262501
1.89735e-18
0.00262501
1.30104e-18
0.00262501
1.40946e-18
0.00262501
1.24683e-18
0.00262501
-3.79471e-19
0.00262501
-9.21572e-19
0.00262501
-1.68051e-18
0.00262501
-1.89735e-18
0.00262501
1.84314e-18
0.00262501
4.33681e-19
0.00262501
1.46367e-18
0.00262501
5.96311e-19
0.00262501
-5.42101e-20
0.00262501
5.96311e-19
0.00262501
3.79471e-19
0.00262501
1.95156e-18
0.00262501
1.51788e-18
0.00262501
1.68051e-18
0.00262501
3.79471e-19
0.00262501
7.58942e-19
0.00262501
1.30104e-18
0.00262501
1.19262e-18
0.00262501
-1.6263e-19
0.00262501
-2.1684e-19
0.00262501
-1.13841e-18
0.00262501
-2.38524e-18
0.00262501
-1.89735e-18
0.00262501
-1.13841e-18
0.00262501
-2.00577e-18
0.00262501
-6.50521e-19
0.00262501
-1.02999e-18
0.00262501
-4.87891e-19
0.00262501
-1.89735e-18
0.00262501
-5.42101e-19
0.00262501
1.6263e-19
0.00262501
9.21572e-19
0.00262501
5.42101e-19
0.00262501
3.25261e-19
0.00262501
-4.33681e-19
0.00262501
-1.0842e-19
0.00262501
0
0.00262501
-1.13841e-18
0.00262501
1.78893e-18
0.00262501
2.39392e-16
0.00262501
1.5726e-14
0.00262501
1.15301e-12
0.00262501
6.82906e-11
0.00262476
5.50534e-09
0.00261095
2.65821e-07
0.00228157
4.80934e-05
0.00223739
-4.81922e-05
0.00216611
3.49993e-05
0.00207491
8.45023e-05
0.00197899
0.000112775
0.00191035
0.000107147
0.00189158
7.18022e-05
0.0019026
2.89792e-05
0.00189961
2.59227e-05
0.00185536
4.96014e-05
0.00176149
8.54618e-05
0.00164524
0.00010117
0.00154127
8.75057e-05
0.00145979
6.504e-05
0.00138722
5.55033e-05
0.00131075
5.8506e-05
0.00122753
6.4918e-05
0.00114153
6.96629e-05
0.0010583
7.17892e-05
0.000981454
7.19208e-05
0.000911091
7.12406e-05
0.000844051
7.11086e-05
0.000775842
7.20017e-05
0.000703226
7.29381e-05
0.000625615
7.26452e-05
0.000545006
7.07793e-05
0.000464941
6.80351e-05
0.000389653
6.42185e-05
0.000321731
5.9127e-05
0.000261784
5.48263e-05
0.000206531
5.31879e-05
0.000152825
5.27697e-05
9.92163e-05
5.36803e-05
4.80853e-05
5.1369e-05
4.97588e-05
0.00262501
1.89735e-18
0.00262501
-1.68051e-18
0.00262501
0
0.00262501
8.67362e-19
0.00262501
5.42101e-20
0.00262501
2.71051e-19
0.00262501
9.21572e-19
0.00262501
-2.87314e-18
0.00262501
-1.89735e-18
0.00262501
1.0842e-18
0.00262501
-5.96311e-19
0.00262501
-1.02999e-18
0.00262501
-1.51788e-18
0.00262501
-2.38524e-18
0.00262501
-5.96311e-19
0.00262501
-1.0842e-19
0.00262501
-7.58942e-19
0.00262501
2.71051e-19
0.00262501
2.71051e-19
0.00262501
-1.19262e-18
0.00262501
5.96311e-19
0.00262501
1.24683e-18
0.00262501
2.05998e-18
0.00262501
9.75782e-19
0.00262501
1.24683e-18
0.00262501
2.1684e-19
0.00262501
1.13841e-18
0.00262501
1.78893e-18
0.00262501
1.78893e-18
0.00262501
-5.96311e-19
0.00262501
0
0.00262501
8.13152e-19
0.00262501
-9.75782e-19
0.00262501
-3.79471e-19
0.00262501
-1.73472e-18
0.00262501
-1.30104e-18
0.00262501
-1.13841e-18
0.00262501
-5.42101e-19
0.00262501
-1.02999e-18
0.00262501
-1.51788e-18
0.00262501
-2.71051e-19
0.00262501
-2.38524e-18
0.00262501
1.40946e-18
0.00262501
1.6263e-19
0.00262501
2.27682e-18
0.00262501
-7.58942e-19
0.00262501
-2.22261e-18
0.00262501
-8.67362e-19
0.00262501
-1.30104e-18
0.00262501
-6.50521e-19
0.00262501
1.0842e-19
0.00262501
-5.42101e-19
0.00262501
-3.79471e-19
0.00262501
-4.33681e-19
0.00262501
7.53521e-18
0.00262501
5.29633e-16
0.00262501
3.64623e-14
0.00262501
2.61779e-12
0.00262501
1.64678e-10
0.00262477
1.23591e-08
0.00261137
6.58753e-07
0.00228956
9.07594e-05
0.00208587
5.97725e-05
0.00205756
2.45148e-05
0.00206518
8.43557e-05
0.00205921
0.000136439
0.00203604
0.000165918
0.00200411
0.000149146
0.00196783
0.000105184
0.00191921
9.59325e-05
0.00185219
0.000122613
0.00177088
0.00016075
0.00168366
0.000175959
0.0015974
0.000159323
0.00151576
0.000131515
0.00143641
0.000118334
0.0013541
0.000122664
0.00126809
0.000132232
0.00118191
0.000139188
0.00109977
0.000142375
0.00102426
0.000142602
0.000955179
0.000141471
0.000889414
0.000141343
0.000822417
0.000143239
0.000750533
0.000145549
0.000672419
0.00014603
0.000589367
0.00014398
0.000505253
0.000139834
0.000425471
0.000132424
0.000353575
0.00012169
0.000291047
0.000111919
0.000234152
0.000107989
0.000178109
0.000108041
0.000120314
0.000111695
6.10573e-05
0.000111079
0.000112397
0.00262501
-1.78893e-18
0.00262501
-1.46367e-18
0.00262501
1.40946e-18
0.00262501
1.19262e-18
0.00262501
-7.58942e-19
0.00262501
6.50521e-19
0.00262501
5.42101e-20
0.00262501
2.71051e-19
0.00262501
1.35525e-18
0.00262501
-6.50521e-19
0.00262501
-5.96311e-19
0.00262501
-2.49366e-18
0.00262501
-2.11419e-18
0.00262501
-4.33681e-19
0.00262501
-9.21572e-19
0.00262501
5.96311e-19
0.00262501
1.24683e-18
0.00262501
1.6263e-18
0.00262501
4.87891e-19
0.00262501
7.58942e-19
0.00262501
-5.96311e-19
0.00262501
-7.58942e-19
0.00262501
-5.96311e-19
0.00262501
1.30104e-18
0.00262501
1.02999e-18
0.00262501
1.13841e-18
0.00262501
5.42101e-19
0.00262501
-5.42101e-19
0.00262501
4.33681e-19
0.00262501
-1.0842e-18
0.00262501
1.0842e-18
0.00262501
-1.30104e-18
0.00262501
-1.57209e-18
0.00262501
0
0.00262501
-1.0842e-19
0.00262501
1.0842e-19
0.00262501
-4.87891e-19
0.00262501
0
0.00262501
-5.42101e-19
0.00262501
-4.87891e-19
0.00262501
5.42101e-19
0.00262501
-7.58942e-19
0.00262501
-5.42101e-20
0.00262501
5.96311e-19
0.00262501
5.96311e-19
0.00262501
2.33103e-18
0.00262501
-6.50521e-19
0.00262501
-5.42101e-19
0.00262501
-1.13841e-18
0.00262501
7.58942e-19
0.00262501
-6.50521e-19
0.00262501
1.6263e-19
0.00262501
7.58942e-19
0.00262501
2.71051e-19
0.00262501
6.451e-18
0.00262501
4.79651e-16
0.00262501
3.09669e-14
0.00262501
2.12719e-12
0.00262501
1.24953e-10
0.00262479
9.34182e-09
0.00261206
4.62604e-07
0.00232799
8.87869e-05
0.00215083
0.000156291
0.00212455
6.75291e-06
0.0021105
0.000101694
0.00208225
0.000183179
0.00202396
0.000252182
0.00195902
0.000251479
0.00189998
0.000198276
0.00185553
0.000159574
0.00181436
0.000169906
0.00176758
0.000203523
0.00170722
0.000227096
0.00163403
0.000220874
0.0015535
0.000198346
0.00146922
0.000186539
0.00138223
0.000191321
0.00129441
0.000200812
0.00120913
0.000206996
0.00112954
0.000209525
0.0010572
0.000209454
0.000991289
0.000208323
0.000928564
0.000208851
0.000864428
0.000212351
0.000794815
0.000216809
0.000717848
0.000219067
0.000634186
0.000218183
0.000547673
0.000213891
0.000463846
0.00020409
0.000386427
0.000188983
0.000317531
0.00017472
0.000254258
0.000168891
0.000191878
0.000169501
0.000128269
0.00017519
6.37288e-05
0.000176081
0.00017772
0.00262501
-9.21572e-19
0.00262501
2.87314e-18
0.00262501
-1.30104e-18
0.00262501
-1.6263e-18
0.00262501
1.30104e-18
0.00262501
3.25261e-19
0.00262501
1.78893e-18
0.00262501
3.79471e-19
0.00262501
-1.6263e-18
0.00262501
-2.6563e-18
0.00262501
-2.00577e-18
0.00262501
4.33681e-19
0.00262501
-3.25261e-19
0.00262501
-3.79471e-19
0.00262501
1.35525e-18
0.00262501
-1.95156e-18
0.00262501
-1.24683e-18
0.00262501
-7.58942e-19
0.00262501
7.58942e-19
0.00262501
1.95156e-18
0.00262501
-1.19262e-18
0.00262501
-1.0842e-19
0.00262501
-1.0842e-19
0.00262501
-1.0842e-19
0.00262501
5.42101e-20
0.00262501
2.22261e-18
0.00262501
1.95156e-18
0.00262501
6.50521e-19
0.00262501
8.13152e-19
0.00262501
2.49366e-18
0.00262501
2.71051e-19
0.00262501
-1.6263e-19
0.00262501
1.35525e-18
0.00262501
2.1684e-19
0.00262501
2.1684e-19
0.00262501
1.6263e-18
0.00262501
-1.24683e-18
0.00262501
-1.46367e-18
0.00262501
1.02999e-18
0.00262501
0
0.00262501
-2.1684e-19
0.00262501
-8.67362e-19
0.00262501
-2.05998e-18
0.00262501
1.57209e-18
0.00262501
8.67362e-19
0.00262501
0
0.00262501
-2.71051e-19
0.00262501
1.0842e-19
0.00262501
1.68051e-18
0.00262501
-2.71051e-19
0.00262501
-1.0842e-19
0.00262501
-1.35525e-18
0.00262501
-1.0842e-19
0.00262501
2.60209e-18
0.00262501
8.61941e-18
0.00262501
3.21845e-16
0.00262501
1.92485e-14
0.00262501
1.18405e-12
0.00262501
6.16711e-11
0.0026248
4.26646e-09
0.00261255
1.73562e-07
0.00235308
6.30478e-05
0.00223139
0.000212663
0.00215005
4.16023e-05
0.00208664
0.000151613
0.00201255
0.000271576
0.00193964
0.000351693
0.00188622
0.000340341
0.00184813
0.000268915
0.00182079
0.000203679
0.00179448
0.000201922
0.00175746
0.000238013
0.00170054
0.000276549
0.00162634
0.000285293
0.00154361
0.000268781
0.00145796
0.000257206
0.00137166
0.000259931
0.00128651
0.000266629
0.00120506
0.000270366
0.00112971
0.000271622
0.00106163
0.00027141
0.000999989
0.00027072
0.000941773
0.00027218
0.000882653
0.00027716
0.000818276
0.000283672
0.000745764
0.000288312
0.000664199
0.000290533
0.000576565
0.000288838
0.000488124
0.000279709
0.000403176
0.000263003
0.000325844
0.00024526
0.000255555
0.000236372
0.000188775
0.000235035
0.000123266
0.000239983
5.98868e-05
0.00023992
0.000239946
0.00262501
1.02999e-18
0.00262501
-1.78893e-18
0.00262501
3.25261e-19
0.00262501
-2.71051e-19
0.00262501
-1.24683e-18
0.00262501
-2.22261e-18
0.00262501
-4.33681e-19
0.00262501
9.21572e-19
0.00262501
-8.13152e-19
0.00262501
-9.21572e-19
0.00262501
-3.25261e-19
0.00262501
-1.46367e-18
0.00262501
0
0.00262501
-4.33681e-19
0.00262501
-2.1684e-19
0.00262501
-3.79471e-19
0.00262501
-3.79471e-19
0.00262501
-3.25261e-19
0.00262501
2.1684e-19
0.00262501
-3.79471e-19
0.00262501
1.6263e-19
0.00262501
1.0842e-18
0.00262501
8.13152e-19
0.00262501
7.04731e-19
0.00262501
2.11419e-18
0.00262501
-2.1684e-19
0.00262501
4.33681e-19
0.00262501
1.24683e-18
0.00262501
9.21572e-19
0.00262501
2.1684e-19
0.00262501
-1.0842e-18
0.00262501
2.00577e-18
0.00262501
-8.67362e-19
0.00262501
-8.13152e-19
0.00262501
9.75782e-19
0.00262501
-6.50521e-19
0.00262501
1.0842e-18
0.00262501
6.50521e-19
0.00262501
-1.0842e-19
0.00262501
-1.02999e-18
0.00262501
4.87891e-19
0.00262501
1.40946e-18
0.00262501
7.58942e-19
0.00262501
-2.71051e-19
0.00262501
-1.51788e-18
0.00262501
7.04731e-19
0.00262501
1.57209e-18
0.00262501
1.95156e-18
0.00262501
9.75782e-19
0.00262501
-5.42101e-20
0.00262501
2.71051e-19
0.00262501
1.6263e-18
0.00262501
5.42101e-20
0.00262501
8.67362e-19
0.00262501
7.37257e-18
0.00262501
5.08599e-16
0.00262501
3.26311e-14
0.00262501
2.11971e-12
0.00262501
1.28885e-10
0.0026248
9.17898e-09
0.00261259
5.19456e-07
0.00231123
8.69731e-05
0.00216195
0.00029916
0.0020743
7.87862e-05
0.00202341
0.000197202
0.00197536
0.00033863
0.00192682
0.000426318
0.00188844
0.000412564
0.00185437
0.000333214
0.00182135
0.000249791
0.00178915
0.000237799
0.00174323
0.000280883
0.00167948
0.000333522
0.00160525
0.00035191
0.00152727
0.000337027
0.00144686
0.000324573
0.00136394
0.000326011
0.00127997
0.000331196
0.00119817
0.000333276
0.00112198
0.00033349
0.00105328
0.000333118
0.000991773
0.000332671
0.000934938
0.000334455
0.000878828
0.00033976
0.000818859
0.000347114
0.000751192
0.000353601
0.000673388
0.00035966
0.000587453
0.000362148
0.00049829
0.000355575
0.00041088
0.000338704
0.000330516
0.000317976
0.000257551
0.000305688
0.000188957
0.000301713
0.00012198
0.000305669
5.85138e-05
0.000303929
0.000302119
0.00262501
1.02999e-18
0.00262501
7.04731e-19
0.00262501
-1.51788e-18
0.00262501
2.71051e-19
0.00262501
-2.71051e-19
0.00262501
9.21572e-19
0.00262501
-6.50521e-19
0.00262501
-7.04731e-19
0.00262501
9.75782e-19
0.00262501
-7.58942e-19
0.00262501
-4.33681e-19
0.00262501
1.57209e-18
0.00262501
5.42101e-19
0.00262501
-1.19262e-18
0.00262501
-1.24683e-18
0.00262501
-1.40946e-18
0.00262501
-1.73472e-18
0.00262501
-2.1684e-19
0.00262501
-4.87891e-19
0.00262501
5.42101e-19
0.00262501
9.75782e-19
0.00262501
8.67362e-19
0.00262501
1.0842e-19
0.00262501
1.19262e-18
0.00262501
6.50521e-19
0.00262501
1.24683e-18
0.00262501
1.02999e-18
0.00262501
1.35525e-18
0.00262501
2.05998e-18
0.00262501
1.6263e-19
0.00262501
1.73472e-18
0.00262501
5.42101e-20
0.00262501
2.1684e-19
0.00262501
-1.0842e-19
0.00262501
5.42101e-19
0.00262501
7.04731e-19
0.00262501
-4.33681e-19
0.00262501
2.1684e-19
0.00262501
3.25261e-19
0.00262501
1.35525e-18
0.00262501
2.71051e-19
0.00262501
-5.42101e-19
0.00262501
1.02999e-18
0.00262501
7.58942e-19
0.00262501
-2.1684e-19
0.00262501
-8.13152e-19
0.00262501
-1.6263e-19
0.00262501
-9.75782e-19
0.00262501
5.42101e-19
0.00262501
1.24683e-18
0.00262501
3.95734e-18
0.00262501
1.13841e-18
0.00262501
1.68051e-18
0.00262501
2.11419e-18
0.00262501
1.33357e-17
0.00262501
7.09339e-16
0.00262501
4.57269e-14
0.00262501
2.85249e-12
0.00262501
1.73938e-10
0.00262482
1.15909e-08
0.00261332
6.39589e-07
0.00231458
0.00011056
0.00217523
0.000379775
0.00209613
0.000105858
0.00204714
0.000237775
0.0020076
0.000397322
0.00197388
0.000485596
0.00194338
0.000476576
0.00190268
0.000402594
0.0018485
0.000314114
0.00179128
0.000294641
0.00172778
0.000338828
0.00165892
0.000395363
0.0015901
0.000414826
0.00152071
0.000399138
0.00144751
0.000386944
0.00136831
0.000389551
0.00128456
0.000395661
0.00120045
0.000397835
0.00112073
0.000397901
0.0010484
0.00039768
0.000983903
0.000397397
0.000925249
0.00039896
0.000868864
0.000403453
0.000810265
0.000410153
0.000745188
0.000417213
0.000670405
0.000426428
0.000587084
0.000433073
0.000499534
0.000429445
0.000412772
0.000412977
0.000332253
0.000389854
0.000258739
0.000374522
0.00018957
0.000368298
0.000122559
0.000371225
5.87544e-05
0.000368741
0.000365763
0.00262501
1.0842e-19
0.00262501
-3.79471e-19
0.00262501
-5.42101e-19
0.00262501
-5.96311e-19
0.00262501
2.71051e-19
0.00262501
-2.71051e-19
0.00262501
-1.51788e-18
0.00262501
1.02999e-18
0.00262501
1.0842e-19
0.00262501
4.33681e-18
0.00262501
8.67362e-19
0.00262501
-5.42101e-19
0.00262501
-4.87891e-19
0.00262501
2.05998e-18
0.00262501
-3.79471e-19
0.00262501
5.42101e-20
0.00262501
5.42101e-20
0.00262501
-1.57209e-18
0.00262501
-9.21572e-19
0.00262501
1.19262e-18
0.00262501
2.11419e-18
0.00262501
-2.71051e-19
0.00262501
1.0842e-19
0.00262501
3.25261e-19
0.00262501
3.79471e-19
0.00262501
8.13152e-19
0.00262501
0
0.00262501
4.87891e-19
0.00262501
1.35525e-18
0.00262501
4.33681e-19
0.00262501
1.6263e-19
0.00262501
-1.0842e-19
0.00262501
-1.19262e-18
0.00262501
-3.25261e-19
0.00262501
-2.38524e-18
0.00262501
-1.19262e-18
0.00262501
-8.13152e-19
0.00262501
3.79471e-19
0.00262501
-2.1684e-19
0.00262501
-6.50521e-19
0.00262501
-4.87891e-19
0.00262501
7.58942e-19
0.00262501
-1.13841e-18
0.00262501
2.1684e-19
0.00262501
-3.79471e-19
0.00262501
5.42101e-19
0.00262501
2.60209e-18
0.00262501
1.35525e-18
0.00262501
5.42101e-19
0.00262501
1.46367e-18
0.00262501
-7.04731e-19
0.00262501
1.95156e-18
0.00262501
1.40946e-18
0.00262501
-9.75782e-19
0.00262501
9.32414e-18
0.00262501
8.04153e-16
0.00262501
5.27269e-14
0.00262501
3.22311e-12
0.00262501
2.04694e-10
0.00262483
1.27216e-08
0.00261412
7.59555e-07
0.00233135
0.00012428
0.00222722
0.000425284
0.00215973
0.000125908
0.00210413
0.000286133
0.00206175
0.000459289
0.00203079
0.000542923
0.00200438
0.000535425
0.00195719
0.000473756
0.00188344
0.000393854
0.00180465
0.00036855
0.0017286
0.000406949
0.00165657
0.000460288
0.00159001
0.000477081
0.00152415
0.000459839
0.00145421
0.000447845
0.0013766
0.000452346
0.00129244
0.000460502
0.00120648
0.000463619
0.00112434
0.000463919
0.00104964
0.000464006
0.000983119
0.000464053
0.000922788
0.000465561
0.000865057
0.000469255
0.000805792
0.000474829
0.000740824
0.000481704
0.000666924
0.00049308
0.000584821
0.000503011
0.000498389
0.000501684
0.000412518
0.000485347
0.000332411
0.000460096
0.000258932
0.000442212
0.000189703
0.000434444
0.000123086
0.000436578
5.90941e-05
0.000434308
0.000431513
0.00262501
5.42101e-20
0.00262501
-1.0842e-19
0.00262501
9.21572e-19
0.00262501
1.6263e-19
0.00262501
-1.0842e-19
0.00262501
-1.51788e-18
0.00262501
2.87314e-18
0.00262501
-1.30104e-18
0.00262501
-1.0842e-19
0.00262501
-1.6263e-19
0.00262501
4.33681e-19
0.00262501
-2.71051e-19
0.00262501
-2.71051e-19
0.00262501
-2.05998e-18
0.00262501
5.42101e-20
0.00262501
-1.0842e-18
0.00262501
1.0842e-19
0.00262501
3.79471e-19
0.00262501
1.0842e-19
0.00262501
-7.58942e-19
0.00262501
-2.6563e-18
0.00262501
3.79471e-19
0.00262501
-9.21572e-19
0.00262501
-1.6263e-19
0.00262501
-4.33681e-19
0.00262501
-1.78893e-18
0.00262501
-2.71051e-19
0.00262501
2.1684e-19
0.00262501
-3.79471e-19
0.00262501
-4.33681e-19
0.00262501
-9.75782e-19
0.00262501
-1.30104e-18
0.00262501
-4.87891e-19
0.00262501
-4.33681e-19
0.00262501
1.40946e-18
0.00262501
-5.42101e-19
0.00262501
1.0842e-19
0.00262501
-5.42101e-19
0.00262501
-4.22839e-18
0.00262501
5.42101e-19
0.00262501
2.1684e-19
0.00262501
3.79471e-19
0.00262501
9.21572e-19
0.00262501
9.75782e-19
0.00262501
3.25261e-19
0.00262501
5.42101e-19
0.00262501
-8.67362e-19
0.00262501
5.96311e-19
0.00262501
2.1684e-19
0.00262501
1.46367e-18
0.00262501
4.22839e-18
0.00262501
1.19262e-18
0.00262501
1.13841e-18
0.00262501
2.71051e-18
0.00262501
1.42573e-17
0.00262501
7.67507e-16
0.00262501
5.37374e-14
0.00262501
3.46527e-12
0.00262501
2.34632e-10
0.00262485
1.41259e-08
0.00261524
8.90096e-07
0.00235574
0.000127156
0.00229326
0.000418904
0.00221251
0.000158695
0.00213225
0.000361268
0.00208044
0.000532599
0.00205824
0.000594229
0.0020372
0.000585823
0.00199267
0.000536625
0.0019168
0.00047161
0.00182906
0.000447995
0.00174525
0.00048122
0.00166893
0.000529445
0.00159976
0.000542771
0.00153238
0.000523443
0.00146221
0.000510205
0.00138491
0.00051549
0.00130077
0.00052541
0.00121437
0.000529547
0.00113151
0.000530229
0.00105601
0.000530877
0.000988592
0.000531711
0.00092713
0.000533773
0.000867853
0.000537355
0.00080695
0.000542086
0.000740563
0.000548588
0.000665823
0.000561255
0.000583314
0.000573344
0.000496737
0.000573257
0.000410848
0.00055647
0.000330684
0.000529099
0.00025718
0.000508988
0.000188101
0.00050013
0.000121972
0.000501608
5.86798e-05
0.00049854
0.000500692
0.00262501
-5.42101e-20
0.00262501
9.75782e-19
0.00262501
-1.6263e-19
0.00262501
-2.1684e-19
0.00262501
-2.1684e-19
0.00262501
8.67362e-19
0.00262501
6.50521e-19
0.00262501
5.42101e-20
0.00262501
1.0842e-19
0.00262501
-5.42101e-20
0.00262501
-1.35525e-18
0.00262501
0
0.00262501
-1.24683e-18
0.00262501
1.68051e-18
0.00262501
2.1684e-19
0.00262501
8.13152e-19
0.00262501
1.13841e-18
0.00262501
1.30104e-18
0.00262501
1.0842e-18
0.00262501
4.33681e-19
0.00262501
4.33681e-19
0.00262501
1.0842e-18
0.00262501
1.0842e-18
0.00262501
5.42101e-19
0.00262501
-6.50521e-19
0.00262501
-4.33681e-19
0.00262501
-1.6263e-18
0.00262501
-1.19262e-18
0.00262501
-2.27682e-18
0.00262501
-1.35525e-18
0.00262501
-1.19262e-18
0.00262501
-5.42101e-20
0.00262501
2.71051e-19
0.00262501
9.75782e-19
0.00262501
-2.1684e-19
0.00262501
4.98733e-18
0.00262501
9.21572e-19
0.00262501
1.02999e-18
0.00262501
3.79471e-19
0.00262501
-3.79471e-19
0.00262501
-7.04731e-19
0.00262501
7.04731e-19
0.00262501
3.25261e-19
0.00262501
-9.21572e-19
0.00262501
9.75782e-19
0.00262501
-2.1684e-19
0.00262501
3.25261e-19
0.00262501
-7.58942e-19
0.00262501
-5.42101e-20
0.00262501
0
0.00262501
5.42101e-19
0.00262501
4.87891e-19
0.00262501
1.57209e-18
0.00262501
1.51788e-18
0.00262501
7.80626e-18
0.00262501
5.75495e-16
0.00262501
4.2976e-14
0.00262501
3.03468e-12
0.00262501
2.20532e-10
0.00262488
1.45714e-08
0.00261631
1.06328e-06
0.00238393
0.00011894
0.00236396
0.000353485
0.00221652
0.000244293
0.00212059
0.000463218
0.00207911
0.000601727
0.00206131
0.00064181
0.00203491
0.000633869
0.00198755
0.000593562
0.00191479
0.000540064
0.00183052
0.000520555
0.0017501
0.000551193
0.00167662
0.00059621
0.00160814
0.000608673
0.00154024
0.000588658
0.00146989
0.000573655
0.00139322
0.000578558
0.00131016
0.000589546
0.00122479
0.000594581
0.00114259
0.000595909
0.00106732
0.000597625
0.000999693
0.00059991
0.000937516
0.000603261
0.000876895
0.000607551
0.000814266
0.000611965
0.000746079
0.000618114
0.000669813
0.00063135
0.000585925
0.000644591
0.000498024
0.000644898
0.000411204
0.000627204
0.000330289
0.00059777
0.000256131
0.0005757
0.000186898
0.000565958
0.000120421
0.000567443
5.24677e-05
0.00056496
0.000569506
0.00262501
2.1684e-19
0.00262501
-1.02999e-18
0.00262501
-3.79471e-19
0.00262501
-2.71051e-19
0.00262501
-2.1684e-19
0.00262501
4.33681e-19
0.00262501
4.87891e-19
0.00262501
9.21572e-19
0.00262501
1.0842e-18
0.00262501
2.1684e-19
0.00262501
-5.42101e-20
0.00262501
9.21572e-19
0.00262501
8.67362e-19
0.00262501
2.1684e-19
0.00262501
5.42101e-19
0.00262501
1.95156e-18
0.00262501
1.51788e-18
0.00262501
4.87891e-19
0.00262501
2.71051e-19
0.00262501
-1.6263e-19
0.00262501
4.33681e-19
0.00262501
1.6263e-19
0.00262501
-4.33681e-19
0.00262501
-1.6263e-19
0.00262501
-4.87891e-19
0.00262501
5.42101e-20
0.00262501
-5.96311e-19
0.00262501
3.25261e-19
0.00262501
8.13152e-19
0.00262501
6.50521e-19
0.00262501
0
0.00262501
5.96311e-19
0.00262501
-3.79471e-19
0.00262501
-5.42101e-19
0.00262501
-5.42101e-20
0.00262501
1.24683e-18
0.00262501
1.68051e-18
0.00262501
1.89735e-18
0.00262501
2.87314e-18
0.00262501
1.19262e-18
0.00262501
6.50521e-19
0.00262501
0
0.00262501
5.96311e-19
0.00262501
-7.04731e-19
0.00262501
-1.30104e-18
0.00262501
-3.25261e-19
0.00262501
-1.13841e-18
0.00262501
-1.13841e-18
0.00262501
-4.33681e-19
0.00262501
-1.78893e-18
0.00262501
-1.84314e-18
0.00262501
1.02999e-18
0.00262501
-9.75782e-19
0.00262501
-1.0842e-19
0.00262501
2.54788e-18
0.00262501
2.74899e-16
0.00262501
2.34653e-14
0.00262501
1.8263e-12
0.00262501
1.38973e-10
0.00262492
1.01144e-08
0.00261919
7.2197e-07
0.00247656
7.16894e-05
0.0024466
0.000251059
0.00218711
0.000428473
0.00209716
0.000569143
0.00207396
0.000654826
0.0020573
0.000683401
0.00202471
0.000680058
0.00197219
0.000647249
0.00190135
0.000600689
0.0018237
0.000583913
0.00175044
0.000613919
0.00168204
0.000658873
0.00161545
0.000673645
0.00154779
0.00065441
0.00147774
0.000637404
0.0014024
0.000640874
0.00132132
0.000652309
0.00123774
0.000658409
0.00115658
0.000661022
0.00108157
0.000664582
0.00101357
0.000669033
0.000950496
0.000674294
0.000888455
0.000679908
0.000823992
0.000684427
0.000753786
0.000690181
0.000675554
0.000703312
0.00058974
0.000716787
0.000500062
0.000716789
0.000411876
0.000698104
0.000329851
0.000666767
0.000255126
0.000642702
0.000185474
0.000632326
0.000121009
0.000634611
5.55399e-05
0.000634685
0.000632746
0.00262501
-1.13841e-18
0.00262501
1.6263e-19
0.00262501
2.33103e-18
0.00262501
-4.87891e-19
0.00262501
1.0842e-18
0.00262501
1.6263e-18
0.00262501
9.21572e-19
0.00262501
1.13841e-18
0.00262501
4.87891e-19
0.00262501
1.0842e-19
0.00262501
1.73472e-18
0.00262501
4.33681e-19
0.00262501
-6.50521e-19
0.00262501
-7.04731e-19
0.00262501
-2.1684e-19
0.00262501
-5.96311e-19
0.00262501
8.13152e-19
0.00262501
0
0.00262501
1.6263e-19
0.00262501
-2.71051e-19
0.00262501
-1.51788e-18
0.00262501
-2.71051e-19
0.00262501
-2.1684e-19
0.00262501
9.21572e-19
0.00262501
2.1684e-19
0.00262501
6.50521e-19
0.00262501
1.46367e-18
0.00262501
1.13841e-18
0.00262501
5.96311e-19
0.00262501
2.27682e-18
0.00262501
-7.04731e-19
0.00262501
5.42101e-20
0.00262501
1.51788e-18
0.00262501
5.96311e-19
0.00262501
1.0842e-19
0.00262501
8.13152e-19
0.00262501
-2.1684e-19
0.00262501
1.73472e-18
0.00262501
2.1684e-19
0.00262501
-3.79471e-19
0.00262501
1.0842e-18
0.00262501
1.19262e-18
0.00262501
-3.79471e-19
0.00262501
-2.49366e-18
0.00262501
-1.30104e-18
0.00262501
-3.36103e-18
0.00262501
-1.68051e-18
0.00262501
1.30104e-18
0.00262501
1.0842e-19
0.00262501
-1.13841e-18
0.00262501
1.0842e-19
0.00262501
-3.7405e-18
0.00262501
-1.95156e-18
0.00262501
-1.84314e-18
0.00262501
-9.75782e-19
0.00262501
2.72677e-17
0.00262501
4.09839e-15
0.00262501
3.2811e-13
0.00262501
3.57817e-11
0.00262497
3.40263e-09
0.00262222
3.26939e-07
0.0025574
3.09032e-05
0.00247915
0.000165113
0.00217004
0.000656749
0.00208712
0.000671224
0.00207802
0.000693927
0.00206311
0.000716946
0.00202795
0.000720595
0.00197128
0.00069709
0.00190002
0.000656575
0.00182559
0.000642225
0.00175622
0.000673194
0.00169023
0.000720235
0.00162451
0.000738543
0.00155722
0.000720317
0.00148782
0.000700995
0.0014141
0.000702322
0.00133514
0.000713924
0.00125324
0.000721545
0.00117289
0.000726196
0.00109792
0.000732254
0.00102951
0.000739285
0.000965816
0.000746667
0.00090294
0.000753775
0.000837294
0.00075857
0.000765581
0.000763806
0.000685575
0.000776358
0.000597826
0.000789493
0.000506239
0.000788994
0.000416595
0.000769581
0.000333315
0.000736791
0.000257737
0.000711027
0.000187637
0.000700451
0.000125122
0.000703627
6.85993e-05
0.000705681
0.00069493
0.00262501
1.0842e-19
0.00262501
2.71051e-19
0.00262501
-1.35525e-18
0.00262501
1.0842e-18
0.00262501
5.42101e-19
0.00262501
3.79471e-19
0.00262501
4.87891e-19
0.00262501
0
0.00262501
-4.33681e-19
0.00262501
-4.87891e-19
0.00262501
-5.96311e-19
0.00262501
-3.25261e-19
0.00262501
-1.13841e-18
0.00262501
-1.02999e-18
0.00262501
1.0842e-19
0.00262501
4.87891e-19
0.00262501
-1.02999e-18
0.00262501
-3.25261e-19
0.00262501
-4.87891e-19
0.00262501
-3.79471e-19
0.00262501
2.00577e-18
0.00262501
-1.30104e-18
0.00262501
8.67362e-19
0.00262501
-1.73472e-18
0.00262501
1.13841e-18
0.00262501
6.50521e-19
0.00262501
9.21572e-19
0.00262501
1.0842e-19
0.00262501
5.42101e-19
0.00262501
1.19262e-18
0.00262501
4.44523e-18
0.00262501
1.68051e-18
0.00262501
1.73472e-18
0.00262501
1.78893e-18
0.00262501
1.02999e-18
0.00262501
-1.24683e-18
0.00262501
-6.50521e-19
0.00262501
-1.19262e-18
0.00262501
-1.89735e-18
0.00262501
9.21572e-19
0.00262501
8.67362e-19
0.00262501
2.1684e-19
0.00262501
3.79471e-19
0.00262501
5.96311e-19
0.00262501
6.50521e-19
0.00262501
-1.6263e-19
0.00262501
4.87891e-19
0.00262501
-2.6563e-18
0.00262501
-1.19262e-18
0.00262501
-1.68051e-18
0.00262501
-2.54788e-18
0.00262501
-8.13152e-19
0.00262501
-1.30104e-18
0.00262501
-1.51788e-18
0.00262501
1.0842e-19
0.00262501
-1.15468e-17
0.00262501
5.95281e-16
0.00262501
-4.51096e-14
0.00262501
7.63209e-13
0.00262501
-1.44765e-10
0.00262487
-6.37598e-09
0.00263284
1.35632e-08
0.00244907
0.000152394
0.00217584
0.000854879
0.00209984
0.000770194
0.00209649
0.000724291
0.00208489
0.000739932
0.00204877
0.000753063
0.00198765
0.00074391
0.001913
0.000711695
0.0018374
0.000700982
0.00176734
0.000733977
0.00170061
0.000783258
0.00163512
0.000803722
0.00156898
0.000785426
0.00150105
0.000763669
0.00142923
0.0007629
0.00135219
0.000774966
0.00127153
0.000784796
0.00119159
0.000792127
0.00111649
0.00080104
0.00104774
0.000810731
0.000983663
0.000820155
0.000920234
0.00082871
0.000853514
0.000833918
0.000780109
0.000838633
0.000697822
0.000850423
0.000607586
0.000863
0.000513556
0.000862229
0.000422148
0.000842484
0.000337663
0.000808595
0.000261407
0.000781285
0.000192453
0.000769893
0.000129046
0.000772109
6.8297e-05
0.000775722
0.000760991
0.00262501
0
0.00262501
0
0.00262501
0
0.00262501
-1.24683e-18
0.00262501
1.6263e-19
0.00262501
5.42101e-20
0.00262501
1.02999e-18
0.00262501
3.79471e-19
0.00262501
-8.13152e-19
0.00262501
-6.50521e-19
0.00262501
0
0.00262501
-3.25261e-19
0.00262501
2.60209e-18
0.00262501
5.42101e-20
0.00262501
6.50521e-19
0.00262501
-1.57209e-18
0.00262501
-1.02999e-18
0.00262501
-1.68051e-18
0.00262501
-2.71051e-19
0.00262501
4.87891e-19
0.00262501
1.0842e-19
0.00262501
2.98156e-18
0.00262501
-9.21572e-19
0.00262501
2.05998e-18
0.00262501
-8.67362e-19
0.00262501
5.96311e-19
0.00262501
1.30104e-18
0.00262501
1.6263e-19
0.00262501
4.87891e-19
0.00262501
9.21572e-19
0.00262501
3.79471e-19
0.00262501
1.46367e-18
0.00262501
1.0842e-19
0.00262501
2.71051e-19
0.00262501
1.0842e-19
0.00262501
-1.6263e-18
0.00262501
-5.96311e-19
0.00262501
1.6263e-19
0.00262501
7.58942e-19
0.00262501
9.75782e-19
0.00262501
1.51788e-18
0.00262501
2.38524e-18
0.00262501
-1.0842e-19
0.00262501
1.46367e-18
0.00262501
5.96311e-19
0.00262501
2.1684e-19
0.00262501
4.33681e-19
0.00262501
-1.0842e-18
0.00262501
-2.27682e-18
0.00262501
-8.67362e-19
0.00262501
-1.0842e-18
0.00262501
-2.27682e-18
0.00262501
-9.75782e-19
0.00262501
-1.6263e-18
0.00262501
-1.6263e-19
0.00262501
1.87567e-17
0.00262501
1.96522e-15
0.00262501
2.72938e-14
0.00262501
5.6098e-12
0.00262501
2.02151e-11
0.00262481
1.31551e-08
0.00261486
3.79208e-07
0.00238893
0.000185662
0.0021727
0.00099816
0.00213877
0.000834731
0.0021367
0.000745848
0.00212702
0.000753705
0.00208688
0.000782178
0.00201503
0.000795766
0.00193141
0.000773856
0.00185045
0.000765386
0.00177737
0.00079862
0.00170984
0.000847703
0.0016463
0.0008673
0.00158325
0.000847816
0.0015178
0.000824648
0.00144771
0.000823151
0.00137167
0.000836687
0.00129125
0.000849436
0.00121107
0.00085969
0.00113561
0.000871328
0.00106658
0.000883378
0.00100227
0.000894512
0.000938377
0.000904293
0.000870583
0.00090999
0.000795383
0.000914201
0.000710815
0.000925117
0.000618341
0.000937125
0.000522818
0.000936618
0.000429833
0.000916957
0.000344073
0.00088222
0.000267386
0.000853531
0.000197317
0.000840339
0.000129611
0.000841622
6.32429e-05
0.000845814
0.000828837
0.00262501
-1.0842e-19
0.00262501
-6.50521e-19
0.00262501
-1.95156e-18
0.00262501
-3.79471e-19
0.00262501
-1.95156e-18
0.00262501
-2.71051e-19
0.00262501
-1.40946e-18
0.00262501
1.0842e-19
0.00262501
-8.13152e-19
0.00262501
2.71051e-19
0.00262501
-3.25261e-19
0.00262501
-8.67362e-19
0.00262501
2.1684e-19
0.00262501
2.1684e-19
0.00262501
7.58942e-19
0.00262501
1.0842e-19
0.00262501
-1.6263e-19
0.00262501
-5.42101e-19
0.00262501
1.0842e-19
0.00262501
-2.1684e-19
0.00262501