/*--------------------------------*- C++ -*----------------------------------*\
| =========                 |                                                 |
| \\      /  F ield         | OpenFOAM: The Open Source CFD Toolbox           |
|  \\    /   O peration     | Version:  v1812                                 |
|   \\  /    A nd           | Web:      www.OpenFOAM.com                      |
|    \\/     M anipulation  |                                                 |
\*---------------------------------------------------------------------------*/
FoamFile
{
    version     2.0;
    format      ascii;
    class       volScalarField;
    location    "0.5";
    object      rho;
}
// * * * * * * * * * * * * * * * * * * * * * * * * * * * * * * * * * * * * * //

dimensions      [1 -3 0 0 0 0 0];


internalField   nonuniform List<scalar> 
64512
(
1.40001
1.40001
1.40001
1.40001
1.40001
1.40001
1.40001
1.40001
1.40001
1.40001
1.40001
1.40001
1.40001
1.40001
1.40001
1.40001
1.40001
1.40001
1.40001
1.40001
1.40001
1.40001
1.40001
1.40001
1.40001
1.40001
1.40001
1.40001
1.40001
1.40001
1.40001
1.40001
1.40001
1.40001
1.40001
1.40001
1.40001
1.40001
1.40001
1.40001
1.40001
1.40001
1.40001
1.40001
1.40001
1.40001
1.40001
1.40001
1.40001
1.40001
1.40001
1.40001
1.40001
1.40001
1.40001
1.40001
1.40001
1.40001
1.40002
1.40088
1.45525
2.91563
5.10942
5.51953
5.52129
5.53966
5.57337
5.62841
5.68528
5.72924
5.76033
5.77605
5.77903
5.77481
5.76819
5.7604
5.75317
5.74735
5.74075
5.73103
5.71785
5.70207
5.68391
5.66183
5.63205
5.5883
5.52363
5.43629
5.33661
5.24465
5.17667
5.1375
5.11895
5.11332
5.11983
5.13606
1.40001
1.40001
1.40001
1.40001
1.40001
1.40001
1.40001
1.40001
1.40001
1.40001
1.40001
1.40001
1.40001
1.40001
1.40001
1.40001
1.40001
1.40001
1.40001
1.40001
1.40001
1.40001
1.40001
1.40001
1.40001
1.40001
1.40001
1.40001
1.40001
1.40001
1.40001
1.40001
1.40001
1.40001
1.40001
1.40001
1.40001
1.40001
1.40001
1.40001
1.40001
1.40001
1.40001
1.40001
1.40001
1.40001
1.40001
1.40001
1.40001
1.40001
1.40001
1.40001
1.40001
1.40001
1.40001
1.40001
1.40001
1.40001
1.40002
1.40085
1.45384
2.89036
5.0753
5.47247
5.53361
5.56024
5.59308
5.6378
5.68568
5.72575
5.75407
5.77295
5.78073
5.78013
5.77496
5.76735
5.75904
5.75155
5.74394
5.73418
5.72153
5.70641
5.68898
5.66788
5.63958
5.59795
5.53567
5.44994
5.34975
5.25462
5.18236
5.13963
5.11947
5.11322
5.11896
5.13426
1.40001
1.40001
1.40001
1.40001
1.40001
1.40001
1.40001
1.40001
1.40001
1.40001
1.40001
1.40001
1.40001
1.40001
1.40001
1.40001
1.40001
1.40001
1.40001
1.40001
1.40001
1.40001
1.40001
1.40001
1.40001
1.40001
1.40001
1.40001
1.40001
1.40001
1.40001
1.40001
1.40001
1.40001
1.40001
1.40001
1.40001
1.40001
1.40001
1.40001
1.40001
1.40001
1.40001
1.40001
1.40001
1.40001
1.40001
1.40001
1.40001
1.40001
1.40001
1.40001
1.40001
1.40001
1.40001
1.40001
1.40001
1.40001
1.40002
1.40079
1.4501
2.81623
5.08869
5.53316
5.55503
5.56761
5.58943
5.6255
5.67033
5.7087
5.74052
5.765
5.77895
5.78401
5.78124
5.77304
5.76309
5.75405
5.74561
5.73581
5.72355
5.70897
5.69232
5.67264
5.64681
5.60892
5.55117
5.46912
5.36922
5.26991
5.19113
5.14289
5.12015
5.11291
5.11763
5.1329
1.40001
1.40001
1.40001
1.40001
1.40001
1.40001
1.40001
1.40001
1.40001
1.40001
1.40001
1.40001
1.40001
1.40001
1.40001
1.40001
1.40001
1.40001
1.40001
1.40001
1.40001
1.40001
1.40001
1.40001
1.40001
1.40001
1.40001
1.40001
1.40001
1.40001
1.40001
1.40001
1.40001
1.40001
1.40001
1.40001
1.40001
1.40001
1.40001
1.40001
1.40001
1.40001
1.40001
1.40001
1.40001
1.40001
1.40001
1.40001
1.40001
1.40001
1.40001
1.40001
1.40001
1.40001
1.40001
1.40001
1.40001
1.40001
1.40002
1.40073
1.44606
2.73132
5.10626
5.53745
5.54436
5.55152
5.57423
5.6106
5.65726
5.69739
5.73001
5.75689
5.77366
5.78027
5.77778
5.76941
5.75955
5.75064
5.74238
5.7329
5.72105
5.70693
5.69099
5.67275
5.64945
5.61537
5.56219
5.48408
5.38497
5.28211
5.19733
5.14388
5.11875
5.11089
5.11492
5.13087
1.40001
1.40001
1.40001
1.40001
1.40001
1.40001
1.40001
1.40001
1.40001
1.40001
1.40001
1.40001
1.40001
1.40001
1.40001
1.40001
1.40001
1.40001
1.40001
1.40001
1.40001
1.40001
1.40001
1.40001
1.40001
1.40001
1.40001
1.40001
1.40001
1.40001
1.40001
1.40001
1.40001
1.40001
1.40001
1.40001
1.40001
1.40001
1.40001
1.40001
1.40001
1.40001
1.40001
1.40001
1.40001
1.40001
1.40001
1.40001
1.40001
1.40001
1.40001
1.40001
1.40001
1.40001
1.40001
1.40001
1.40001
1.40001
1.40002
1.40067
1.44257
2.64781
5.06743
5.50262
5.51637
5.53965
5.5659
5.60655
5.65545
5.69593
5.72469
5.74941
5.76594
5.77315
5.77248
5.76582
5.757
5.74829
5.73976
5.72978
5.71733
5.70269
5.68658
5.66884
5.64697
5.61534
5.56539
5.4905
5.39281
5.28851
5.20037
5.14369
5.11708
5.10909
5.11248
5.12843
1.40001
1.40001
1.40001
1.40001
1.40001
1.40001
1.40001
1.40001
1.40001
1.40001
1.40001
1.40001
1.40001
1.40001
1.40001
1.40001
1.40001
1.40001
1.40001
1.40001
1.40001
1.40001
1.40001
1.40001
1.40001
1.40001
1.40001
1.40001
1.40001
1.40001
1.40001
1.40001
1.40001
1.40001
1.40001
1.40001
1.40001
1.40001
1.40001
1.40001
1.40001
1.40001
1.40001
1.40001
1.40001
1.40001
1.40001
1.40001
1.40001
1.40001
1.40001
1.40001
1.40001
1.40001
1.40001
1.40001
1.40001
1.40001
1.40001
1.40059
1.4378
2.53579
5.02187
5.49165
5.50814
5.53728
5.56683
5.61391
5.66564
5.70381
5.7261
5.74414
5.75737
5.76416
5.76532
5.7609
5.7536
5.74548
5.73687
5.72639
5.71328
5.69811
5.68181
5.6643
5.64306
5.61243
5.56393
5.49077
5.39427
5.2898
5.20023
5.14191
5.1145
5.10628
5.10931
5.12472
1.40001
1.40001
1.40001
1.40001
1.40001
1.40001
1.40001
1.40001
1.40001
1.40001
1.40001
1.40001
1.40001
1.40001
1.40001
1.40001
1.40001
1.40001
1.40001
1.40001
1.40001
1.40001
1.40001
1.40001
1.40001
1.40001
1.40001
1.40001
1.40001
1.40001
1.40001
1.40001
1.40001
1.40001
1.40001
1.40001
1.40001
1.40001
1.40001
1.40001
1.40001
1.40001
1.40001
1.40001
1.40001
1.40001
1.40001
1.40001
1.40001
1.40001
1.40001
1.40001
1.40001
1.40001
1.40001
1.40001
1.40001
1.40001
1.40001
1.40049
1.43187
2.39331
4.98121
5.49147
5.50838
5.54265
5.57722
5.62718
5.67647
5.71012
5.72675
5.73999
5.75054
5.75692
5.7592
5.75653
5.75045
5.74267
5.73378
5.72269
5.70897
5.69342
5.67711
5.65986
5.6391
5.60881
5.56067
5.48805
5.3922
5.28801
5.19814
5.13924
5.11139
5.10285
5.10547
5.11981
1.40001
1.40001
1.40001
1.40001
1.40001
1.40001
1.40001
1.40001
1.40001
1.40001
1.40001
1.40001
1.40001
1.40001
1.40001
1.40001
1.40001
1.40001
1.40001
1.40001
1.40001
1.40001
1.40001
1.40001
1.40001
1.40001
1.40001
1.40001
1.40001
1.40001
1.40001
1.40001
1.40001
1.40001
1.40001
1.40001
1.40001
1.40001
1.40001
1.40001
1.40001
1.40001
1.40001
1.40001
1.40001
1.40001
1.40001
1.40001
1.40001
1.40001
1.40001
1.40001
1.40001
1.40001
1.40001
1.40001
1.40001
1.40001
1.40001
1.40038
1.425
2.2178
4.93255
5.49087
5.50909
5.54647
5.58803
5.63776
5.68261
5.7125
5.72567
5.73618
5.7452
5.75091
5.75339
5.75161
5.74635
5.73889
5.72996
5.71861
5.70469
5.68921
5.67323
5.65633
5.63572
5.60513
5.5566
5.48387
5.38839
5.2846
5.19489
5.13585
5.10758
5.09864
5.10115
5.11242
1.40001
1.40001
1.40001
1.40001
1.40001
1.40001
1.40001
1.40001
1.40001
1.40001
1.40001
1.40001
1.40001
1.40001
1.40001
1.40001
1.40001
1.40001
1.40001
1.40001
1.40001
1.40001
1.40001
1.40001
1.40001
1.40001
1.40001
1.40001
1.40001
1.40001
1.40001
1.40001
1.40001
1.40001
1.40001
1.40001
1.40001
1.40001
1.40001
1.40001
1.40001
1.40001
1.40001
1.40001
1.40001
1.40001
1.40001
1.40001
1.40001
1.40001
1.40001
1.40001
1.40001
1.40001
1.40001
1.40001
1.40001
1.40001
1.40001
1.40026
1.41754
2.0145
4.88679
5.48324
5.50851
5.5541
5.60072
5.64427
5.68112
5.70561
5.71624
5.72656
5.73654
5.74307
5.74639
5.74558
5.74119
5.7342
5.72547
5.71422
5.70054
5.68555
5.67016
5.65361
5.63285
5.6015
5.55213
5.47906
5.38399
5.28059
5.19112
5.13195
5.10306
5.09374
5.09721
5.10174
1.40001
1.40001
1.40001
1.40001
1.40001
1.40001
1.40001
1.40001
1.40001
1.40001
1.40001
1.40001
1.40001
1.40001
1.40001
1.40001
1.40001
1.40001
1.40001
1.40001
1.40001
1.40001
1.40001
1.40001
1.40001
1.40001
1.40001
1.40001
1.40001
1.40001
1.40001
1.40001
1.40001
1.40001
1.40001
1.40001
1.40001
1.40001
1.40001
1.40001
1.40001
1.40001
1.40001
1.40001
1.40001
1.40001
1.40001
1.40001
1.40001
1.40001
1.40001
1.40001
1.40001
1.40001
1.40001
1.40001
1.40001
1.40001
1.40001
1.40015
1.41007
1.79499
4.81849
5.47253
5.51071
5.56396
5.61073
5.64833
5.67802
5.69663
5.70447
5.7149
5.72646
5.73425
5.73868
5.7388
5.73529
5.72891
5.72059
5.70972
5.69665
5.68249
5.66788
5.65164
5.63049
5.59812
5.54775
5.47433
5.37967
5.27661
5.18704
5.12721
5.09753
5.08679
5.09161
5.09238
1.40001
1.40001
1.40001
1.40001
1.40001
1.40001
1.40001
1.40001
1.40001
1.40001
1.40001
1.40001
1.40001
1.40001
1.40001
1.40001
1.40001
1.40001
1.40001
1.40001
1.40001
1.40001
1.40001
1.40001
1.40001
1.40001
1.40001
1.40001
1.40001
1.40001
1.40001
1.40001
1.40001
1.40001
1.40001
1.40001
1.40001
1.40001
1.40001
1.40001
1.40001
1.40001
1.40001
1.40001
1.40001
1.40001
1.40001
1.40001
1.40001
1.40001
1.40001
1.40001
1.40001
1.40001
1.40001
1.40001
1.40001
1.40001
1.40001
1.40007
1.40476
1.62209
4.6831
5.44045
5.51086
5.57473
5.61838
5.65203
5.67512
5.68764
5.69283
5.70321
5.71613
5.72501
5.73058
5.73164
5.7291
5.72346
5.71561
5.70525
5.69297
5.67981
5.666
5.64993
5.6282
5.5948
5.54353
5.46999
5.37579
5.27283
5.18256
5.12141
5.09068
5.0774
5.08149
5.0897
1.40001
1.40001
1.40001
1.40001
1.40001
1.40001
1.40001
1.40001
1.40001
1.40001
1.40001
1.40001
1.40001
1.40001
1.40001
1.40001
1.40001
1.40001
1.40001
1.40001
1.40001
1.40001
1.40001
1.40001
1.40001
1.40001
1.40001
1.40001
1.40001
1.40001
1.40001
1.40001
1.40001
1.40001
1.40001
1.40001
1.40001
1.40001
1.40001
1.40001
1.40001
1.40001
1.40001
1.40001
1.40001
1.40001
1.40001
1.40001
1.40001
1.40001
1.40001
1.40001
1.40001
1.40001
1.40001
1.40001
1.40001
1.40001
1.40001
1.40004
1.40239
1.53803
4.4794
5.37758
5.51244
5.58231
5.62737
5.65716
5.67217
5.67837
5.6815
5.69185
5.70563
5.71533
5.72204
5.72422
5.72279
5.71801
5.71063
5.70075
5.68931
5.67721
5.66416
5.64816
5.62582
5.59156
5.53972
5.46636
5.37256
5.26915
5.17734
5.11395
5.08171
5.06692
5.07028
5.08953
1.40001
1.40001
1.40001
1.40001
1.40001
1.40001
1.40001
1.40001
1.40001
1.40001
1.40001
1.40001
1.40001
1.40001
1.40001
1.40001
1.40001
1.40001
1.40001
1.40001
1.40001
1.40001
1.40001
1.40001
1.40001
1.40001
1.40001
1.40001
1.40001
1.40001
1.40001
1.40001
1.40001
1.40001
1.40001
1.40001
1.40001
1.40001
1.40001
1.40001
1.40001
1.40001
1.40001
1.40001
1.40001
1.40001
1.40001
1.40001
1.40001
1.40001
1.40001
1.40001
1.40001
1.40001
1.40001
1.40001
1.40001
1.40001
1.40001
1.40004
1.40204
1.51998
4.23949
5.28658
5.51626
5.58963
5.63477
5.65977
5.66662
5.66839
5.6704
5.68037
5.69438
5.70482
5.71292
5.71659
5.71653
5.71269
5.7057
5.69618
5.68548
5.67436
5.66196
5.64593
5.62304
5.58813
5.536
5.46298
5.36921
5.26492
5.17089
5.10464
5.07134
5.05809
5.06218
5.08532
1.40001
1.40001
1.40001
1.40001
1.40001
1.40001
1.40001
1.40001
1.40001
1.40001
1.40001
1.40001
1.40001
1.40001
1.40001
1.40001
1.40001
1.40001
1.40001
1.40001
1.40001
1.40001
1.40001
1.40001
1.40001
1.40001
1.40001
1.40001
1.40001
1.40001
1.40001
1.40001
1.40001
1.40001
1.40001
1.40001
1.40001
1.40001
1.40001
1.40001
1.40001
1.40001
1.40001
1.40001
1.40001
1.40001
1.40001
1.40001
1.40001
1.40001
1.40001
1.40001
1.40001
1.40001
1.40001
1.40001
1.40001
1.40001
1.40001
1.40003
1.40184
1.50898
3.99713
5.16986
5.52044
5.59927
5.63642
5.65536
5.65725
5.65755
5.65884
5.66821
5.68229
5.69374
5.70361
5.70909
5.7105
5.70754
5.70077
5.6914
5.68129
5.67102
5.65912
5.643
5.61971
5.58439
5.53221
5.45952
5.36537
5.25971
5.16315
5.09438
5.06099
5.05007
5.05521
5.07701
1.40001
1.40001
1.40001
1.40001
1.40001
1.40001
1.40001
1.40001
1.40001
1.40001
1.40001
1.40001
1.40001
1.40001
1.40001
1.40001
1.40001
1.40001
1.40001
1.40001
1.40001
1.40001
1.40001
1.40001
1.40001
1.40001
1.40001
1.40001
1.40001
1.40001
1.40001
1.40001
1.40001
1.40001
1.40001
1.40001
1.40001
1.40001
1.40001
1.40001
1.40001
1.40001
1.40001
1.40001
1.40001
1.40001
1.40001
1.40001
1.40001
1.40001
1.40001
1.40001
1.40001
1.40001
1.40001
1.40001
1.40001
1.40001
1.40001
1.40003
1.40161
1.49622
3.73386
5.0559
5.52813
5.59882
5.63466
5.64734
5.64469
5.64497
5.6466
5.65628
5.67061
5.6832
5.69472
5.70188
5.70457
5.70228
5.69557
5.68623
5.67661
5.66704
5.65552
5.63934
5.61576
5.58012
5.52792
5.45527
5.36039
5.25314
5.15446
5.0842
5.05084
5.04235
5.04762
5.06559
1.40001
1.40001
1.40001
1.40001
1.40001
1.40001
1.40001
1.40001
1.40001
1.40001
1.40001
1.40001
1.40001
1.40001
1.40001
1.40001
1.40001
1.40001
1.40001
1.40001
1.40001
1.40001
1.40001
1.40001
1.40001
1.40001
1.40001
1.40001
1.40001
1.40001
1.40001
1.40001
1.40001
1.40001
1.40001
1.40001
1.40001
1.40001
1.40001
1.40001
1.40001
1.40001
1.40001
1.40001
1.40001
1.40001
1.40001
1.40001
1.40001
1.40001
1.40001
1.40001
1.40001
1.40001
1.40001
1.40001
1.40001
1.40001
1.40001
1.40003
1.40132
1.48035
3.42372
4.99177
5.5459
5.59356
5.63123
5.63424
5.62848
5.63126
5.63536
5.6465
5.66091
5.67419
5.68666
5.69483
5.69822
5.69619
5.68936
5.68001
5.6709
5.66204
5.65088
5.63472
5.61092
5.57499
5.52264
5.44967
5.35415
5.24574
5.14579
5.07481
5.04106
5.03337
5.03784
5.05132
1.40001
1.40001
1.40001
1.40001
1.40001
1.40001
1.40001
1.40001
1.40001
1.40001
1.40001
1.40001
1.40001
1.40001
1.40001
1.40001
1.40001
1.40001
1.40001
1.40001
1.40001
1.40001
1.40001
1.40001
1.40001
1.40001
1.40001
1.40001
1.40001
1.40001
1.40001
1.40001
1.40001
1.40001
1.40001
1.40001
1.40001
1.40001
1.40001
1.40001
1.40001
1.40001
1.40001
1.40001
1.40001
1.40001
1.40001
1.40001
1.40001
1.40001
1.40001
1.40001
1.40001
1.40001
1.40001
1.40001
1.40001
1.40001
1.40001
1.40002
1.40096
1.46033
3.03834
5.0116
5.57239
5.60331
5.61796
5.61086
5.60935
5.61893
5.62754
5.64031
5.65405
5.66689
5.67931
5.68762
5.69108
5.68896
5.68196
5.67276
5.66427
5.65614
5.64536
5.62922
5.60509
5.56866
5.51583
5.44228
5.34666
5.23807
5.13751
5.06599
5.03077
5.02266
5.02684
5.03397
1.40001
1.40001
1.40001
1.40001
1.40001
1.40001
1.40001
1.40001
1.40001
1.40001
1.40001
1.40001
1.40001
1.40001
1.40001
1.40001
1.40001
1.40001
1.40001
1.40001
1.40001
1.40001
1.40001
1.40001
1.40001
1.40001
1.40001
1.40001
1.40001
1.40001
1.40001
1.40001
1.40001
1.40001
1.40001
1.40001
1.40001
1.40001
1.40001
1.40001
1.40001
1.40001
1.40001
1.40001
1.40001
1.40001
1.40001
1.40001
1.40001
1.40001
1.40001
1.40001
1.40001
1.40001
1.40001
1.40001
1.40001
1.40001
1.40001
1.40001
1.40056
1.43683
2.55125
5.085
5.62336
5.58166
5.58267
5.57995
5.5939
5.61196
5.62399
5.63656
5.64847
5.66031
5.67226
5.68015
5.68327
5.68085
5.67369
5.66471
5.65684
5.64935
5.63879
5.62248
5.59773
5.56054
5.50695
5.43313
5.33832
5.23088
5.13035
5.0573
5.01937
5.00976
5.01702
5.01119
1.40001
1.40001
1.40001
1.40001
1.40001
1.40001
1.40001
1.40001
1.40001
1.40001
1.40001
1.40001
1.40001
1.40001
1.40001
1.40001
1.40001
1.40001
1.40001
1.40001
1.40001
1.40001
1.40001
1.40001
1.40001
1.40001
1.40001
1.40001
1.40001
1.40001
1.40001
1.40001
1.40001
1.40001
1.40001
1.40001
1.40001
1.40001
1.40001
1.40001
1.40001
1.40001
1.40001
1.40001
1.40001
1.40001
1.40001
1.40001
1.40001
1.40001
1.40001
1.40001
1.40001
1.40001
1.40001
1.40001
1.40001
1.40001
1.40001
1.40001
1.40024
1.41616
2.01371
4.99657
5.60146
5.54594
5.5474
5.56499
5.58765
5.60953
5.62101
5.63195
5.6427
5.65372
5.66486
5.67202
5.67473
5.67197
5.66465
5.65586
5.64849
5.64142
5.63087
5.61416
5.58859
5.55048
5.49629
5.42289
5.32967
5.2242
5.12329
5.04737
5.00612
4.99375
5.00294
4.99298
1.40001
1.40001
1.40001
1.40001
1.40001
1.40001
1.40001
1.40001
1.40001
1.40001
1.40001
1.40001
1.40001
1.40001
1.40001
1.40001
1.40001
1.40001
1.40001
1.40001
1.40001
1.40001
1.40001
1.40001
1.40001
1.40001
1.40001
1.40001
1.40001
1.40001
1.40001
1.40001
1.40001
1.40001
1.40001
1.40001
1.40001
1.40001
1.40001
1.40001
1.40001
1.40001
1.40001
1.40001
1.40001
1.40001
1.40001
1.40001
1.40001
1.40001
1.40001
1.40001
1.40001
1.40001
1.40001
1.40001
1.40001
1.40001
1.40001
1.40001
1.40007
1.40434
1.61024
4.63045
5.46953
5.52061
5.5336
5.55558
5.58802
5.60529
5.61407
5.62567
5.6352
5.64528
5.65596
5.66306
5.66576
5.66268
5.65509
5.64635
5.63923
5.63227
5.62145
5.60406
5.57748
5.53821
5.48383
5.41177
5.32093
5.21763
5.11567
5.03521
4.98979
4.97229
4.97644
4.98903
1.40001
1.40001
1.40001
1.40001
1.40001
1.40001
1.40001
1.40001
1.40001
1.40001
1.40001
1.40001
1.40001
1.40001
1.40001
1.40001
1.40001
1.40001
1.40001
1.40001
1.40001
1.40001
1.40001
1.40001
1.40001
1.40001
1.40001
1.40001
1.40001
1.40001
1.40001
1.40001
1.40001
1.40001
1.40001
1.40001
1.40001
1.40001
1.40001
1.40001
1.40001
1.40001
1.40001
1.40001
1.40001
1.40001
1.40001
1.40001
1.40001
1.40001
1.40001
1.40001
1.40001
1.40001
1.40001
1.40001
1.40001
1.40001
1.40001
1.40001
1.40004
1.40206
1.52071
4.19415
5.28469
5.46358
5.51732
5.55905
5.58942
5.59652
5.60652
5.61631
5.62323
5.63449
5.6461
5.65409
5.65679
5.65311
5.64503
5.63612
5.62887
5.62158
5.61009
5.59177
5.56386
5.52357
5.46988
5.39973
5.31175
5.21034
5.10586
5.01947
4.96886
4.94953
4.95296
4.97964
1.40001
1.40001
1.40001
1.40001
1.40001
1.40001
1.40001
1.40001
1.40001
1.40001
1.40001
1.40001
1.40001
1.40001
1.40001
1.40001
1.40001
1.40001
1.40001
1.40001
1.40001
1.40001
1.40001
1.40001
1.40001
1.40001
1.40001
1.40001
1.40001
1.40001
1.40001
1.40001
1.40001
1.40001
1.40001
1.40001
1.40001
1.40001
1.40001
1.40001
1.40001
1.40001
1.40001
1.40001
1.40001
1.40001
1.40001
1.40001
1.40001
1.40001
1.40001
1.40001
1.40001
1.40001
1.40001
1.40001
1.40001
1.40001
1.40001
1.40001
1.40003
1.40167
1.49966
3.81946
5.0892
5.43453
5.52456
5.56806
5.57924
5.59406
5.59619
5.60131
5.60988
5.62368
5.6372
5.64565
5.64748
5.64285
5.63423
5.625
5.61723
5.60909
5.59644
5.57684
5.54772
5.50705
5.4544
5.38663
5.30153
5.20099
5.09319
5.001
4.94581
4.92792
4.9329
4.95915
1.40001
1.40001
1.40001
1.40001
1.40001
1.40001
1.40001
1.40001
1.40001
1.40001
1.40001
1.40001
1.40001
1.40001
1.40001
1.40001
1.40001
1.40001
1.40001
1.40001
1.40001
1.40001
1.40001
1.40001
1.40001
1.40001
1.40001
1.40001
1.40001
1.40001
1.40001
1.40001
1.40001
1.40001
1.40001
1.40001
1.40001
1.40001
1.40001
1.40001
1.40001
1.40001
1.40001
1.40001
1.40001
1.40001
1.40001
1.40001
1.40001
1.40001
1.40001
1.40001
1.40001
1.40001
1.40001
1.40001
1.40001
1.40001
1.40001
1.40001
1.40003
1.40133
1.48075
3.43309
4.90799
5.44657
5.54425
5.56647
5.58674
5.58255
5.57689
5.58594
5.59918
5.61536
5.6296
5.6368
5.63692
5.63146
5.62251
5.61287
5.60422
5.59476
5.58061
5.55942
5.529
5.48867
5.43733
5.37175
5.28904
5.18845
5.07754
4.98101
4.92256
4.90631
4.91198
4.9295
1.40001
1.40001
1.40001
1.40001
1.40001
1.40001
1.40001
1.40001
1.40001
1.40001
1.40001
1.40001
1.40001
1.40001
1.40001
1.40001
1.40001
1.40001
1.40001
1.40001
1.40001
1.40001
1.40001
1.40001
1.40001
1.40001
1.40001
1.40001
1.40001
1.40001
1.40001
1.40001
1.40001
1.40001
1.40001
1.40001
1.40001
1.40001
1.40001
1.40001
1.40001
1.40001
1.40001
1.40001
1.40001
1.40001
1.40001
1.40001
1.40001
1.40001
1.40001
1.40001
1.40001
1.40001
1.40001
1.40001
1.40001
1.40001
1.40001
1.40001
1.40002
1.40089
1.4559
2.95524
4.91641
5.4983
5.5667
5.58707
5.56677
5.55456
5.55859
5.57433
5.59264
5.60926
5.62163
5.6263
5.62468
5.61868
5.60972
5.59972
5.58996
5.5787
5.5626
5.53971
5.50816
5.46805
5.41815
5.35431
5.27349
5.17296
5.06057
4.96149
4.90022
4.8831
4.88748
4.8869
1.40001
1.40001
1.40001
1.40001
1.40001
1.40001
1.40001
1.40001
1.40001
1.40001
1.40001
1.40001
1.40001
1.40001
1.40001
1.40001
1.40001
1.40001
1.40001
1.40001
1.40001
1.40001
1.40001
1.40001
1.40001
1.40001
1.40001
1.40001
1.40001
1.40001
1.40001
1.40001
1.40001
1.40001
1.40001
1.40001
1.40001
1.40001
1.40001
1.40001
1.40001
1.40001
1.40001
1.40001
1.40001
1.40001
1.40001
1.40001
1.40001
1.40001
1.40001
1.40001
1.40001
1.40001
1.40001
1.40001
1.40001
1.40001
1.40001
1.40001
1.40001
1.40042
1.42692
2.33054
5.02541
5.60424
5.55196
5.53366
5.53088
5.53621
5.5492
5.56992
5.5883
5.60262
5.61183
5.61353
5.61023
5.60431
5.59594
5.58573
5.57458
5.56089
5.5424
5.51744
5.48493
5.44493
5.39612
5.3339
5.25442
5.15446
5.04209
4.94075
4.87592
4.85398
4.86048
4.8331
1.40001
1.40001
1.40001
1.40001
1.40001
1.40001
1.40001
1.40001
1.40001
1.40001
1.40001
1.40001
1.40001
1.40001
1.40001
1.40001
1.40001
1.40001
1.40001
1.40001
1.40001
1.40001
1.40001
1.40001
1.40001
1.40001
1.40001
1.40001
1.40001
1.40001
1.40001
1.40001
1.40001
1.40001
1.40001
1.40001
1.40001
1.40001
1.40001
1.40001
1.40001
1.40001
1.40001
1.40001
1.40001
1.40001
1.40001
1.40001
1.40001
1.40001
1.40001
1.40001
1.40001
1.40001
1.40001
1.40001
1.40001
1.40001
1.40001
1.40001
1.40001
1.40011
1.4065
1.68784
4.72722
5.50236
5.49685
5.49778
5.51829
5.53277
5.55254
5.56786
5.58167
5.59329
5.59902
5.59722
5.5934
5.58886
5.58145
5.57093
5.55779
5.54105
5.51985
5.49253
5.45906
5.41885
5.37058
5.3099
5.23196
5.13355
5.02225
4.91854
4.84677
4.81405
4.81391
4.78635
1.40001
1.40001
1.40001
1.40001
1.40001
1.40001
1.40001
1.40001
1.40001
1.40001
1.40001
1.40001
1.40001
1.40001
1.40001
1.40001
1.40001
1.40001
1.40001
1.40001
1.40001
1.40001
1.40001
1.40001
1.40001
1.40001
1.40001
1.40001
1.40001
1.40001
1.40001
1.40001
1.40001
1.40001
1.40001
1.40001
1.40001
1.40001
1.40001
1.40001
1.40001
1.40001
1.40001
1.40001
1.40001
1.40001
1.40001
1.40001
1.40001
1.40001
1.40001
1.40001
1.40001
1.40001
1.40001
1.40001
1.40001
1.40001
1.40001
1.40001
1.40001
1.40004
1.40209
1.52029
4.11622
5.26366
5.43411
5.48245
5.50946
5.53705
5.55235
5.56012
5.57217
5.57941
5.5798
5.5773
5.57555
5.57297
5.56614
5.55454
5.53863
5.51859
5.49444
5.46502
5.43026
5.38956
5.34142
5.28214
5.20601
5.10947
4.99855
4.88996
4.80691
4.76349
4.75506
4.73839
1.40001
1.40001
1.40001
1.40001
1.40001
1.40001
1.40001
1.40001
1.40001
1.40001
1.40001
1.40001
1.40001
1.40001
1.40001
1.40001
1.40001
1.40001
1.40001
1.40001
1.40001
1.40001
1.40001
1.40001
1.40001
1.40001
1.40001
1.40001
1.40001
1.40001
1.40001
1.40001
1.40001
1.40001
1.40001
1.40001
1.40001
1.40001
1.40001
1.40001
1.40001
1.40001
1.40001
1.40001
1.40001
1.40001
1.40001
1.40001
1.40001
1.40001
1.40001
1.40001
1.40001
1.40001
1.40001
1.40001
1.40001
1.40001
1.40001
1.40001
1.40001
1.40003
1.40144
1.48693
3.58
5.00656
5.40617
5.48909
5.52037
5.53239
5.54574
5.55358
5.55343
5.55419
5.5561
5.55693
5.55816
5.55667
5.5493
5.53537
5.51599
5.49279
5.4661
5.4349
5.39883
5.35735
5.3091
5.25055
5.17601
5.0812
4.96905
4.85368
4.75857
4.70409
4.68943
4.66999
1.40001
1.40001
1.40001
1.40001
1.40001
1.40001
1.40001
1.40001
1.40001
1.40001
1.40001
1.40001
1.40001
1.40001
1.40001
1.40001
1.40001
1.40001
1.40001
1.40001
1.40001
1.40001
1.40001
1.40001
1.40001
1.40001
1.40001
1.40001
1.40001
1.40001
1.40001
1.40001
1.40001
1.40001
1.40001
1.40001
1.40001
1.40001
1.40001
1.40001
1.40001
1.40001
1.40001
1.40001
1.40001
1.40001
1.40001
1.40001
1.40001
1.40001
1.40001
1.40001
1.40001
1.40001
1.40001
1.40001
1.40001
1.40001
1.40001
1.40001
1.40001
1.40002
1.40096
1.46013
3.04756
4.86116
5.44783
5.50812
5.52327
5.54281
5.53806
5.52814
5.52448
5.5287
5.53483
5.53866
5.5411
5.53889
5.5294
5.51156
5.4891
5.46355
5.43492
5.40241
5.36526
5.32271
5.27364
5.21485
5.14118
5.04713
4.93207
4.80707
4.69759
4.62912
4.60035
4.5878
1.40001
1.40001
1.40001
1.40001
1.40001
1.40001
1.40001
1.40001
1.40001
1.40001
1.40001
1.40001
1.40001
1.40001
1.40001
1.40001
1.40001
1.40001
1.40001
1.40001
1.40001
1.40001
1.40001
1.40001
1.40001
1.40001
1.40001
1.40001
1.40001
1.40001
1.40001
1.40001
1.40001
1.40001
1.40001
1.40001
1.40001
1.40001
1.40001
1.40001
1.40001
1.40001
1.40001
1.40001
1.40001
1.40001
1.40001
1.40001
1.40001
1.40001
1.40001
1.40001
1.40001
1.40001
1.40001
1.40001
1.40001
1.40001
1.40001
1.40001
1.40001
1.40001
1.40044
1.42852
2.37884
4.90221
5.51267
5.54841
5.52868
5.51064
5.50323
5.50042
5.50282
5.51025
5.51792
5.52163
5.52248
5.51802
5.50464
5.48285
5.458
5.43134
5.40204
5.36877
5.33043
5.28618
5.23531
5.17512
5.10086
5.00593
4.88661
4.75089
4.62543
4.53856
4.49091
4.45194
1.40001
1.40001
1.40001
1.40001
1.40001
1.40001
1.40001
1.40001
1.40001
1.40001
1.40001
1.40001
1.40001
1.40001
1.40001
1.40001
1.40001
1.40001
1.40001
1.40001
1.40001
1.40001
1.40001
1.40001
1.40001
1.40001
1.40001
1.40001
1.40001
1.40001
1.40001
1.40001
1.40001
1.40001
1.40001
1.40001
1.40001
1.40001
1.40001
1.40001
1.40001
1.40001
1.40001
1.40001
1.40001
1.40001
1.40001
1.40001
1.40001
1.40001
1.40001
1.40001
1.40001
1.40001
1.40001
1.40001
1.40001
1.40001
1.40001
1.40001
1.40001
1.40001
1.40011
1.40578
1.65293
4.60548
5.4841
5.48951
5.47665
5.47231
5.47875
5.48525
5.49209
5.49991
5.50388
5.50464
5.50166
5.49254
5.47433
5.45058
5.42464
5.39764
5.36826
5.33424
5.29413
5.24749
5.19393
5.13118
5.05471
4.9573
4.83242
4.68298
4.53321
4.41143
4.30889
4.25692
1.40001
1.40001
1.40001
1.40001
1.40001
1.40001
1.40001
1.40001
1.40001
1.40001
1.40001
1.40001
1.40001
1.40001
1.40001
1.40001
1.40001
1.40001
1.40001
1.40001
1.40001
1.40001
1.40001
1.40001
1.40001
1.40001
1.40001
1.40001
1.40001
1.40001
1.40001
1.40001
1.40001
1.40001
1.40001
1.40001
1.40001
1.40001
1.40001
1.40001
1.40001
1.40001
1.40001
1.40001
1.40001
1.40001
1.40001
1.40001
1.40001
1.40001
1.40001
1.40001
1.40001
1.40001
1.40001
1.40001
1.40001
1.40001
1.40001
1.40001
1.40001
1.40001
1.40003
1.40176
1.502
3.84871
5.29395
5.42945
5.43999
5.44981
5.46174
5.47631
5.4852
5.49032
5.49069
5.48617
5.47667
5.4625
5.44235
5.41793
5.39151
5.36422
5.33451
5.29915
5.2567
5.20715
5.15023
5.0839
5.00367
4.90177
4.76881
4.60264
4.42698
4.2654
4.09605
3.88745
1.40001
1.40001
1.40001
1.40001
1.40001
1.40001
1.40001
1.40001
1.40001
1.40001
1.40001
1.40001
1.40001
1.40001
1.40001
1.40001
1.40001
1.40001
1.40001
1.40001
1.40001
1.40001
1.40001
1.40001
1.40001
1.40001
1.40001
1.40001
1.40001
1.40001
1.40001
1.40001
1.40001
1.40001
1.40001
1.40001
1.40001
1.40001
1.40001
1.40001
1.40001
1.40001
1.40001
1.40001
1.40001
1.40001
1.40001
1.40001
1.40001
1.40001
1.40001
1.40001
1.40001
1.40001
1.40001
1.40001
1.40001
1.40001
1.40001
1.40001
1.40001
1.40001
1.40002
1.40101
1.46264
3.15343
5.0727
5.3772
5.40673
5.4271
5.44546
5.46136
5.4718
5.4767
5.47323
5.46169
5.44759
5.43273
5.41302
5.38818
5.36041
5.33182
5.30054
5.26305
5.21784
5.16497
5.10421
5.03346
4.94811
4.83981
4.6965
4.51114
4.30512
4.07161
3.72541
2.95233
1.40001
1.40001
1.40001
1.40001
1.40001
1.40001
1.40001
1.40001
1.40001
1.40001
1.40001
1.40001
1.40001
1.40001
1.40001
1.40001
1.40001
1.40001
1.40001
1.40001
1.40001
1.40001
1.40001
1.40001
1.40001
1.40001
1.40001
1.40001
1.40001
1.40001
1.40001
1.40001
1.40001
1.40001
1.40001
1.40001
1.40001
1.40001
1.40001
1.40001
1.40001
1.40001
1.40001
1.40001
1.40001
1.40001
1.40001
1.40001
1.40001
1.40001
1.40001
1.40001
1.40001
1.40001
1.40001
1.40001
1.40001
1.40001
1.40001
1.40001
1.40001
1.40001
1.40001
1.4005
1.43129
2.4573
4.97702
5.3526
5.39346
5.41026
5.42656
5.44174
5.45194
5.4522
5.44484
5.43218
5.41861
5.406
5.38762
5.36151
5.33124
5.30038
5.26655
5.22642
5.17831
5.12202
5.05712
4.98132
4.88977
4.77381
4.61976
4.41904
4.1755
3.86812
3.41656
2.63508
1.40001
1.40001
1.40001
1.40001
1.40001
1.40001
1.40001
1.40001
1.40001
1.40001
1.40001
1.40001
1.40001
1.40001
1.40001
1.40001
1.40001
1.40001
1.40001
1.40001
1.40001
1.40001
1.40001
1.40001
1.40001
1.40001
1.40001
1.40001
1.40001
1.40001
1.40001
1.40001
1.40001
1.40001
1.40001
1.40001
1.40001
1.40001
1.40001
1.40001
1.40001
1.40001
1.40001
1.40001
1.40001
1.40001
1.40001
1.40001
1.40001
1.40001
1.40001
1.40001
1.40001
1.40001
1.40001
1.40001
1.40001
1.40001
1.40001
1.40001
1.40001
1.40001
1.40001
1.40013
1.4072
1.71167
4.58495
5.29286
5.39655
5.40257
5.41174
5.42129
5.42658
5.42355
5.41569
5.4034
5.39104
5.37968
5.36284
5.33701
5.30462
5.27048
5.23319
5.19001
5.13877
5.07858
5.00883
4.92729
4.82894
4.70509
4.54148
4.33031
4.06149
3.70745
3.22642
2.58459
1.40001
1.40001
1.40001
1.40001
1.40001
1.40001
1.40001
1.40001
1.40001
1.40001
1.40001
1.40001
1.40001
1.40001
1.40001
1.40001
1.40001
1.40001
1.40001
1.40001
1.40001
1.40001
1.40001
1.40001
1.40001
1.40001
1.40001
1.40001
1.40001
1.40001
1.40001
1.40001
1.40001
1.40001
1.40001
1.40001
1.40001
1.40001
1.40001
1.40001
1.40001
1.40001
1.40001
1.40001
1.40001
1.40001
1.40001
1.40001
1.40001
1.40001
1.40001
1.40001
1.40001
1.40001
1.40001
1.40001
1.40001
1.40001
1.40001
1.40001
1.40001
1.40001
1.40001
1.40004
1.4018
1.50249
3.76986
5.11482
5.40876
5.40189
5.40377
5.40639
5.40458
5.39788
5.3889
5.3763
5.36402
5.35279
5.3373
5.31277
5.27936
5.24176
5.20074
5.1542
5.0996
5.03523
4.96026
4.87292
4.76829
4.63778
4.46932
4.25134
3.97358
3.61657
3.19371
2.72163
1.40001
1.40001
1.40001
1.40001
1.40001
1.40001
1.40001
1.40001
1.40001
1.40001
1.40001
1.40001
1.40001
1.40001
1.40001
1.40001
1.40001
1.40001
1.40001
1.40001
1.40001
1.40001
1.40001
1.40001
1.40001
1.40001
1.40001
1.40001
1.40001
1.40001
1.40001
1.40001
1.40001
1.40001
1.40001
1.40001
1.40001
1.40001
1.40001
1.40001
1.40001
1.40001
1.40001
1.40001
1.40001
1.40001
1.40001
1.40001
1.40001
1.40001
1.40001
1.40001
1.40001
1.40001
1.40001
1.40001
1.40001
1.40001
1.40001
1.40001
1.40001
1.40001
1.40001
1.40002
1.40082
1.45181
2.97205
5.02273
5.41077
5.39131
5.39168
5.39159
5.38314
5.37288
5.36328
5.35121
5.33894
5.32641
5.31034
5.28637
5.25265
5.21239
5.16819
5.11859
5.06093
4.99252
4.91239
4.81938
4.70883
4.57305
4.40267
4.18476
3.91492
3.57971
3.19825
2.78964
1.40001
1.40001
1.40001
1.40001
1.40001
1.40001
1.40001
1.40001
1.40001
1.40001
1.40001
1.40001
1.40001
1.40001
1.40001
1.40001
1.40001
1.40001
1.40001
1.40001
1.40001
1.40001
1.40001
1.40001
1.40001
1.40001
1.40001
1.40001
1.40001
1.40001
1.40001
1.40001
1.40001
1.40001
1.40001
1.40001
1.40001
1.40001
1.40001
1.40001
1.40001
1.40001
1.40001
1.40001
1.40001
1.40001
1.40001
1.40001
1.40001
1.40001
1.40001
1.40001
1.40001
1.40001
1.40001
1.40001
1.40001
1.40001
1.40001
1.40001
1.40001
1.40001
1.40001
1.40001
1.40027
1.41691
2.06325
4.84081
5.3956
5.38089
5.36696
5.36711
5.36059
5.35268
5.34547
5.33288
5.31668
5.29914
5.27957
5.25468
5.22138
5.18043
5.13478
5.08316
5.02298
4.95112
4.86658
4.7684
4.65277
4.5137
4.34474
4.13301
3.87876
3.57337
3.21811
2.84469
1.40001
1.40001
1.40001
1.40001
1.40001
1.40001
1.40001
1.40001
1.40001
1.40001
1.40001
1.40001
1.40001
1.40001