/*--------------------------------*- C++ -*----------------------------------*\
| =========                 |                                                 |
| \\      /  F ield         | OpenFOAM: The Open Source CFD Toolbox           |
|  \\    /   O peration     | Version:  v1812                                 |
|   \\  /    A nd           | Web:      www.OpenFOAM.com                      |
|    \\/     M anipulation  |                                                 |
\*---------------------------------------------------------------------------*/
FoamFile
{
    version     2.0;
    format      ascii;
    class       volScalarField;
    location    "0.5";
    object      T;
}
// * * * * * * * * * * * * * * * * * * * * * * * * * * * * * * * * * * * * * //

dimensions      [0 0 0 1 0 0 0];


internalField   nonuniform List<scalar> 
64512
(
1
1
1
1
1
1
1
1
1
1
1
1
1
1
1
1
1
1
1
1
1
1
1
1
1
1
1
1
1
1
1
1
1
1
1
1
1
1
1
1
1
1
1
1
1
1
1
1
1
1
1
1
1
1
1
1
1
1
1
1.00025
1.01629
2.09542
2.77419
2.78761
2.79635
2.81734
2.83802
2.85214
2.86217
2.86973
2.87779
2.88683
2.89692
2.90709
2.9162
2.92405
2.93143
2.93962
2.94953
2.96146
2.97519
2.99048
3.00774
3.02848
3.05548
3.09251
3.14285
3.20608
3.27497
3.33682
3.38007
3.40145
3.40704
3.40443
3.39417
3.38012
1
1
1
1
1
1
1
1
1
1
1
1
1
1
1
1
1
1
1
1
1
1
1
1
1
1
1
1
1
1
1
1
1
1
1
1
1
1
1
1
1
1
1
1
1
1
1
1
1
1
1
1
1
1
1
1
1
1
1
1.00025
1.01587
2.07369
2.77471
2.79342
2.79949
2.81395
2.83177
2.84715
2.85997
2.87061
2.87876
2.88627
2.89424
2.90268
2.91127
2.91978
2.92823
2.93721
2.94736
2.95906
2.97236
2.98728
3.00422
3.02455
3.05086
3.08678
3.13571
3.1978
3.2667
3.33016
3.37595
3.39951
3.40608
3.40378
3.39414
3.38102
1
1
1
1
1
1
1
1
1
1
1
1
1
1
1
1
1
1
1
1
1
1
1
1
1
1
1
1
1
1
1
1
1
1
1
1
1
1
1
1
1
1
1
1
1
1
1
1
1
1
1
1
1
1
1
1
1
1
1
1.00023
1.01474
2.02086
2.76097
2.78837
2.79605
2.81175
2.83399
2.85275
2.86637
2.87641
2.88235
2.88651
2.8914
2.89805
2.90659
2.9162
2.92591
2.93564
2.9459
2.95723
2.96996
2.98429
3.00064
3.02019
3.04525
3.07926
3.12578
3.18579
3.25435
3.32007
3.3698
3.39678
3.40484
3.40308
3.39398
3.38136
1
1
1
1
1
1
1
1
1
1
1
1
1
1
1
1
1
1
1
1
1
1
1
1
1
1
1
1
1
1
1
1
1
1
1
1
1
1
1
1
1
1
1
1
1
1
1
1
1
1
1
1
1
1
1
1
1
1
1
1.00021
1.01352
1.967
2.7413
2.78972
2.804
2.82212
2.84446
2.86102
2.8712
2.87881
2.88329
2.8861
2.89014
2.89678
2.9059
2.91608
2.92602
2.93569
2.94567
2.95656
2.96884
2.98279
2.99878
3.01775
3.04175
3.07402
3.11819
3.17598
3.24383
3.31127
3.3644
3.39444
3.40385
3.40254
3.3936
3.38109
1
1
1
1
1
1
1
1
1
1
1
1
1
1
1
1
1
1
1
1
1
1
1
1
1
1
1
1
1
1
1
1
1
1
1
1
1
1
1
1
1
1
1
1
1
1
1
1
1
1
1
1
1
1
1
1
1
1
1
1.00019
1.01249
1.92743
2.72972
2.79805
2.81655
2.83355
2.85106
2.86222
2.86957
2.87654
2.8817
2.88516
2.88982
2.89692
2.90607
2.91611
2.92598
2.93557
2.94541
2.95612
2.96824
2.98213
2.99811
3.01698
3.04053
3.0718
3.11437
3.17039
3.23725
3.30532
3.36041
3.39246
3.40286
3.40191
3.39304
3.38039
1
1
1
1
1
1
1
1
1
1
1
1
1
1
1
1
1
1
1
1
1
1
1
1
1
1
1
1
1
1
1
1
1
1
1
1
1
1
1
1
1
1
1
1
1
1
1
1
1
1
1
1
1
1
1
1
1
1
1
1.00017
1.01108
1.86057
2.71167
2.79861
2.82161
2.83715
2.85044
2.85814
2.86351
2.8705
2.87769
2.88347
2.88943
2.89695
2.90586
2.91551
2.92515
2.93462
2.94441
2.95512
2.9673
2.98132
2.9975
3.01656
3.04013
3.07107
3.11284
3.1677
3.2336
3.30156
3.35751
3.39075
3.40181
3.40107
3.39225
3.37947
1
1
1
1
1
1
1
1
1
1
1
1
1
1
1
1
1
1
1
1
1
1
1
1
1
1
1
1
1
1
1
1
1
1
1
1
1
1
1
1
1
1
1
1
1
1
1
1
1
1
1
1
1
1
1
1
1
1
1
1.00014
1.00934
1.77128
2.68955
2.79735
2.82345
2.8376
2.84797
2.85282
2.85716
2.86425
2.87295
2.88054
2.88771
2.89581
2.90486
2.91441
2.92387
2.93322
2.94296
2.95368
2.96593
2.9801
2.99653
3.01587
3.03961
3.07049
3.11187
3.16603
3.23123
3.29889
3.35521
3.38919
3.40068
3.40003
3.39123
3.37827
1
1
1
1
1
1
1
1
1
1
1
1
1
1
1
1
1
1
1
1
1
1
1
1
1
1
1
1
1
1
1
1
1
1
1
1
1
1
1
1
1
1
1
1
1
1
1
1
1
1
1
1
1
1
1
1
1
1
1
1.00011
1.00733
1.65662
2.66072
2.79689
2.8252
2.83774
2.84538
2.84903
2.85292
2.85961
2.86852
2.8769
2.88485
2.89364
2.90318
2.91292
2.92231
2.9315
2.94112
2.95181
2.96411
2.97845
2.99512
3.01474
3.0387
3.06963
3.11077
3.16445
3.22914
3.29653
3.35309
3.38759
3.39944
3.39883
3.39008
3.37652
1
1
1
1
1
1
1
1
1
1
1
1
1
1
1
1
1
1
1
1
1
1
1
1
1
1
1
1
1
1
1
1
1
1
1
1
1
1
1
1
1
1
1
1
1
1
1
1
1
1
1
1
1
1
1
1
1
1
1
1.00007
1.00511
1.51372
2.62086
2.8002
2.82816
2.83795
2.84398
2.84757
2.85162
2.85798
2.86633
2.87434
2.88221
2.89124
2.90113
2.91107
2.9204
2.92936
2.93882
2.94947
2.96185
2.97636
2.99324
3.01307
3.03719
3.06815
3.10908
3.16237
3.22666
3.2939
3.35071
3.38574
3.39799
3.39743
3.38925
3.37366
1
1
1
1
1
1
1
1
1
1
1
1
1
1
1
1
1
1
1
1
1
1
1
1
1
1
1
1
1
1
1
1
1
1
1
1
1
1
1
1
1
1
1
1
1
1
1
1
1
1
1
1
1
1
1
1
1
1
1
1.00004
1.00289
1.32244
2.57991
2.80231
2.83216
2.8386
2.84281
2.84626
2.8505
2.85689
2.86482
2.87225
2.87976
2.8888
2.89887
2.90887
2.91801
2.9267
2.936
2.94669
2.95926
2.97398
2.99103
3.01095
3.03509
3.06595
3.10662
3.15953
3.2235
3.29067
3.34782
3.38346
3.39622
3.39562
3.3875
3.37148
1
1
1
1
1
1
1
1
1
1
1
1
1
1
1
1
1
1
1
1
1
1
1
1
1
1
1
1
1
1
1
1
1
1
1
1
1
1
1
1
1
1
1
1
1
1
1
1
1
1
1
1
1
1
1
1
1
1
1
1.00002
1.00134
1.14875
2.54788
2.80299
2.83307
2.83731
2.83965
2.84277
2.8475
2.85457
2.86271
2.86992
2.87723
2.88626
2.89635
2.90616
2.91498
2.92338
2.93265
2.94357
2.95646
2.97143
2.98858
3.00842
3.03236
3.06294
3.10322
3.15568
3.21934
3.28652
3.34415
3.38053
3.39379
3.3932
3.38428
3.37136
1
1
1
1
1
1
1
1
1
1
1
1
1
1
1
1
1
1
1
1
1
1
1
1
1
1
1
1
1
1
1
1
1
1
1
1
1
1
1
1
1
1
1
1
1
1
1
1
1
1
1
1
1
1
1
1
1
1
1
1.00001
1.00068
1.04159
2.53168
2.80351
2.82941
2.83197
2.83342
2.83686
2.84308
2.85162
2.86023
2.86739
2.87465
2.88363
2.8935
2.90285
2.91121
2.91938
2.9288
2.94017
2.95354
2.96878
2.98591
3.00549
3.02905
3.05917
3.09893
3.15084
3.21413
3.28134
3.33955
3.37682
3.39055
3.39022
3.38145
3.37161
1
1
1
1
1
1
1
1
1
1
1
1
1
1
1
1
1
1
1
1
1
1
1
1
1
1
1
1
1
1
1
1
1
1
1
1
1
1
1
1
1
1
1
1
1
1
1
1
1
1
1
1
1
1
1
1
1
1
1
1.00001
1.00058
1.03554
2.5073
2.80523
2.8208
2.82194
2.82415
2.82963
2.8389
2.84915
2.85791
2.86493
2.87214
2.88095
2.8903
2.89892
2.90673
2.91478
2.92459
2.93666
2.95062
2.96609
2.98306
3.00223
3.02525
3.05477
3.09388
3.1451
3.20783
3.27501
3.33387
3.37219
3.3868
3.38728
3.37963
3.37079
1
1
1
1
1
1
1
1
1
1
1
1
1
1
1
1
1
1
1
1
1
1
1
1
1
1
1
1
1
1
1
1
1
1
1
1
1
1
1
1
1
1
1
1
1
1
1
1
1
1
1
1
1
1
1
1
1
1
1
1.00001
1.00053
1.03231
2.47506
2.80567
2.80727
2.80928
2.81441
2.82394
2.83642
2.84741
2.85575
2.86256
2.8697
2.87821
2.88679
2.89451
2.90174
2.9098
2.9202
2.93312
2.94772
2.96331
2.98
2.99862
3.021
3.04983
3.08817
3.13849
3.20045
3.26746
3.32704
3.36674
3.38294
3.38468
3.37781
3.36914
1
1
1
1
1
1
1
1
1
1
1
1
1
1
1
1
1
1
1
1
1
1
1
1
1
1
1
1
1
1
1
1
1
1
1
1
1
1
1
1
1
1
1
1
1
1
1
1
1
1
1
1
1
1
1
1
1
1
1
1.00001
1.00046
1.02861
2.41768
2.7974
2.7934
2.79767
2.80773
2.82172
2.83566
2.84564
2.85301
2.85962
2.86681
2.87506
2.88286
2.88972
2.89643
2.90461
2.91574
2.92958
2.94472
2.96033
2.97661
2.99462
3.01632
3.04441
3.08181
3.13101
3.19192
3.25865
3.31916
3.36072
3.37904
3.38206
3.37563
3.36675
1
1
1
1
1
1
1
1
1
1
1
1
1
1
1
1
1
1
1
1
1
1
1
1
1
1
1
1
1
1
1
1
1
1
1
1
1
1
1
1
1
1
1
1
1
1
1
1
1
1
1
1
1
1
1
1
1
1
1
1.00001
1.00038
1.02407
2.32241
2.77267
2.78152
2.79148
2.80659
2.82263
2.83516
2.84244
2.8485
2.8552
2.86294
2.87136
2.87868
2.88487
2.89122
2.89961
2.91147
2.92609
2.94159
2.95702
2.97281
2.99019
3.0112
3.03848
3.07478
3.12262
3.18229
3.2487
3.31042
3.35426
3.37485
3.37916
3.37288
3.36378
1
1
1
1
1
1
1
1
1
1
1
1
1
1
1
1
1
1
1
1
1
1
1
1
1
1
1
1
1
1
1
1
1
1
1
1
1
1
1
1
1
1
1
1
1
1
1
1
1
1
1
1
1
1
1
1
1
1
1
1
1.00027
1.01819
2.15366
2.73064
2.77391
2.79158
2.81079
2.82479
2.83301
2.83659
2.84164
2.84924
2.8583
2.86732
2.87446
2.88018
2.88627
2.8949
2.90737
2.92253
2.93812
2.95324
2.96852
2.98531
3.00567
3.03206
3.06708
3.11333
3.17161
3.23776
3.30091
3.34732
3.37022
3.37568
3.36986
3.35975
1
1
1
1
1
1
1
1
1
1
1
1
1
1
1
1
1
1
1
1
1
1
1
1
1
1
1
1
1
1
1
1
1
1
1
1
1
1
1
1
1
1
1
1
1
1
1
1
1
1
1
1
1
1
1
1
1
1
1
1
1.00016
1.01098
1.85359
2.68177
2.77502
2.79706
2.81659
2.82542
2.82709
2.82829
2.83347
2.84276
2.85343
2.86308
2.87004
2.87537
2.88131
2.8902
2.90318
2.91865
2.93414
2.94888
2.96371
2.97999
2.99969
3.02507
3.05863
3.1031
3.1599
3.22586
3.29057
3.33966
3.36494
3.37147
3.36734
3.35395
1
1
1
1
1
1
1
1
1
1
1
1
1
1
1
1
1
1
1
1
1
1
1
1
1
1
1
1
1
1
1
1
1
1
1
1
1
1
1
1
1
1
1
1
1
1
1
1
1
1
1
1
1
1
1
1
1
1
1
1
1.00007
1.0047
1.46687
2.61382
2.78559
2.80729
2.8189
2.82054
2.81843
2.81974
2.82618
2.8372
2.84901
2.85884
2.86531
2.87022
2.87612
2.88534
2.89873
2.91432
2.92957
2.94391
2.95833
2.97417
2.99317
3.01744
3.04939
3.09203
3.14732
3.21306
3.27923
3.33098
3.35889
3.36592
3.36225
3.35049
1
1
1
1
1
1
1
1
1
1
1
1
1
1
1
1
1
1
1
1
1
1
1
1
1
1
1
1
1
1
1
1
1
1
1
1
1
1
1
1
1
1
1
1
1
1
1
1
1
1
1
1
1
1
1
1
1
1
1
1
1.00002
1.00126
1.11467
2.5442
2.79307
2.81354
2.81474
2.8106
2.80869
2.81197
2.82107
2.83368
2.84566
2.85464
2.85997
2.86439
2.87041
2.88008
2.89381
2.90934
2.92426
2.93822
2.95231
2.96775
2.98604
3.00912
3.03942
3.08022
3.13397
3.19932
3.26665
3.32084
3.35105
3.35881
3.35487
3.35067
1
1
1
1
1
1
1
1
1
1
1
1
1
1
1
1
1
1
1
1
1
1
1
1
1
1
1
1
1
1
1
1
1
1
1
1
1
1
1
1
1
1
1
1
1
1
1
1
1
1
1
1
1
1
1
1
1
1
1
1
1.00001
1.00059
1.03549
2.48651
2.79258
2.80953
2.80303
2.79669
2.79829
2.80598
2.81902
2.8324
2.84287
2.84972
2.85349
2.85761
2.86408
2.87436
2.8883
2.90359
2.9181
2.93174
2.94559
2.96068
2.97828
3.00013
3.0288
3.06782
3.11991
3.18451
3.25248
3.30884
3.34158
3.35119
3.34854
3.34865
1
1
1
1
1
1
1
1
1
1
1
1
1
1
1
1
1
1
1
1
1
1
1
1
1
1
1
1
1
1
1
1
1
1
1
1
1
1
1
1
1
1
1
1
1
1
1
1
1
1
1
1
1
1
1
1
1
1
1
1
1.00001
1.00048
1.02946
2.42138
2.78904
2.79007
2.7839
2.78195
2.78916
2.80375
2.81979
2.8315
2.83903
2.84298
2.84574
2.85012
2.85743
2.86833
2.88222
2.89701
2.91108
2.92447
2.93815
2.95294
2.96994
2.99055
3.01766
3.05486
3.10505
3.16834
3.23651
3.29503
3.33104
3.34355
3.34286
3.34415
1
1
1
1
1
1
1
1
1
1
1
1
1
1
1
1
1
1
1
1
1
1
1
1
1
1
1
1
1
1
1
1
1
1
1
1
1
1
1
1
1
1
1
1
1
1
1
1
1
1
1
1
1
1
1
1
1
1
1
1
1.00001
1.00038
1.02417
2.31076
2.76562
2.76234
2.76204
2.76972
2.78693
2.80635
2.82103
2.82891
2.83248
2.83437
2.83716
2.84253
2.85096
2.86223
2.87564
2.88963
2.90316
2.91638
2.92996
2.9445
2.96092
2.98041
3.00604
3.04132
3.08917
3.15057
3.21869
3.2798
3.31976
3.33584
3.33668
3.33648
1
1
1
1
1
1
1
1
1
1
1
1
1
1
1
1
1
1
1
1
1
1
1
1
1
1
1
1
1
1
1
1
1
1
1
1
1
1
1
1
1
1
1
1
1
1
1
1
1
1
1
1
1
1
1
1
1
1
1
1
1
1.00025
1.01699
2.08556
2.69843
2.73748
2.75079
2.77195
2.79217
2.80957
2.81921
2.82215
2.82336
2.82467
2.82848
2.83556
2.84505
2.85617
2.86856
2.88143
2.89431
2.90738
2.92094
2.93536
2.95114
2.96971
2.99393
3.0271
3.07217
3.13122
3.19932
3.26334
3.30774
3.32733
3.32981
3.32517
1
1
1
1
1
1
1
1
1
1
1
1
1
1
1
1
1
1
1
1
1
1
1
1
1
1
1
1
1
1
1
1
1
1
1
1
1
1
1
1
1
1
1
1
1
1
1
1
1
1
1
1
1
1
1
1
1
1
1
1
1
1.00012
1.00821
1.65108
2.61928
2.73052
2.75883
2.78143
2.79725
2.80731
2.81083
2.81181
2.81244
2.81483
2.82087
2.82984
2.83973
2.84992
2.86081
2.87234
2.88457
2.89754
2.91113
2.92546
2.94065
2.95836
2.98117
3.01206
3.05427
3.11065
3.17832
3.24543
3.2942
3.31683
3.32042
3.31245
1
1
1
1
1
1
1
1
1
1
1
1
1
1
1
1
1
1
1
1
1
1
1
1
1
1
1
1
1
1
1
1
1
1
1
1
1
1
1
1
1
1
1
1
1
1
1
1
1
1
1
1
1
1
1
1
1
1
1
1
1
1.00003
1.00211
1.16319
2.53385
2.74224
2.77524
2.78965
2.79509
2.79733
2.79791
2.79906
2.80161
2.8068
2.81546
2.82538
2.83441
2.84298
2.8522
2.86251
2.8742
2.8871
2.90068
2.91484
2.92947
2.94632
2.9676
2.99602
3.03529
3.08916
3.15601
3.22531
3.2779
3.30261
3.30596
3.30124
1
1
1
1
1
1
1
1
1
1
1
1
1
1
1
1
1
1
1
1
1
1
1
1
1
1
1
1
1
1
1
1
1
1
1
1
1
1
1
1
1
1
1
1
1
1
1
1
1
1
1
1
1
1
1
1
1
1
1
1
1
1.00001
1.0006
1.03592
2.45252
2.76148
2.78524
2.78472
2.78348
2.78202
2.78386
2.78787
2.7943
2.80254
2.81216
2.82106
2.82818
2.83496
2.84279
2.85228
2.86363
2.87637
2.88985
2.9035
2.91757
2.93353
2.95313
2.97895
3.01528
3.06649
3.13189
3.20196
3.25787
3.28511
3.28861
3.28789
1
1
1
1
1
1
1
1
1
1
1
1
1
1
1
1
1
1
1
1
1
1
1
1
1
1
1
1
1
1
1
1
1
1
1
1
1
1
1
1
1
1
1
1
1
1
1
1
1
1
1
1
1
1
1
1
1
1
1
1
1
1.00001
1.00041
1.02596
2.3432
2.75909
2.77145
2.76623
2.7636
2.76681
2.77302
2.7829
2.79273
2.80111
2.80893
2.81536
2.82049
2.82591
2.83299
2.8422
2.85335
2.86572
2.87857
2.89153
2.90494
2.91984
2.93764
2.961
2.99418
3.04205
3.10525
3.17522
3.23347
3.26349
3.26806
3.26955
1
1
1
1
1
1
1
1
1
1
1
1
1
1
1
1
1
1
1
1
1
1
1
1
1
1
1
1
1
1
1
1
1
1
1
1
1
1
1
1
1
1
1
1
1
1
1
1
1
1
1
1
1
1
1
1
1
1
1
1
1
1
1.00027
1.01824
2.13141
2.71889
2.73849
2.74002
2.7442
2.75748
2.7725
2.78395
2.79252
2.79856
2.80343
2.80764
2.81147
2.81632
2.8235
2.83286
2.84359
2.85504
2.86685
2.87892
2.8914
2.90514
2.92129
2.94221
2.9719
3.01556
3.07528
3.14436
3.20419
3.23671
3.24232
3.24492
1
1
1
1
1
1
1
1
1
1
1
1
1
1
1
1
1
1
1
1
1
1
1
1
1
1
1
1
1
1
1
1
1
1
1
1
1
1
1
1
1
1
1
1
1
1
1
1
1
1
1
1
1
1
1
1
1
1
1
1
1
1
1.00012
1.00879
1.6782
2.63293
2.71122
2.72787
2.7471
2.76166
2.77441
2.78319
2.78853
2.79191
2.79504
2.79797
2.80166
2.80701
2.81507
2.8243
2.8341
2.84411
2.85453
2.86545
2.87693
2.88955
2.90409
2.92249
2.94833
2.98689
3.04179
3.1087
3.16896
3.20153
3.20657
3.20769
1
1
1
1
1
1
1
1
1
1
1
1
1
1
1
1
1
1
1
1
1
1
1
1
1
1
1
1
1
1
1
1
1
1
1
1
1
1
1
1
1
1
1
1
1
1
1
1
1
1
1
1
1
1
1
1
1
1
1
1
1
1
1.00003
1.00209
1.11689
2.51766
2.70401
2.73456
2.75469
2.76655
2.77299
2.7763
2.77888
2.78108
2.7835
2.78704
2.7921
2.79877
2.80729
2.81587
2.82423
2.83257
2.84139
2.85102
2.86162
2.87319
2.88614
2.90188
2.92357
2.95626
3.00478
3.0674
3.12586
3.15376
3.15301
3.1502
1
1
1
1
1
1
1
1
1
1
1
1
1
1
1
1
1
1
1
1
1
1
1
1
1
1
1
1
1
1
1
1
1
1
1
1
1
1
1
1
1
1
1
1
1
1
1
1
1
1
1
1
1
1
1
1
1
1
1
1
1
1
1.00001
1.0005
1.03043
2.34961
2.70746
2.75355
2.76253
2.76424
2.76541
2.76481
2.76514
2.7667
2.77049
2.77645
2.78355
2.79106
2.79896
2.80664
2.81353
2.82016
2.82723
2.8357
2.84546
2.85601
2.86732
2.88034
2.89765
2.92388
2.96461
3.02013
3.07089
3.08833
3.05998
3.00586
1
1
1
1
1
1
1
1
1
1
1
1
1
1
1
1
1
1
1
1
1
1
1
1
1
1
1
1
1
1
1
1
1
1
1
1
1
1
1
1
1
1
1
1
1
1
1
1
1
1
1
1
1
1
1
1
1
1
1
1
1
1
1
1.00029
1.01904
2.1125
2.68921
2.74883
2.7554
2.75597
2.75446
2.75148
2.75063
2.7531
2.75942
2.76778
2.77574
2.7825
2.78923
2.79599
2.80153
2.80658
2.81229
2.81962
2.82851
2.83804
2.84774
2.85809
2.87102
2.89049
2.92244
2.96831
3.00409
2.99955
2.92659
2.69009
1
1
1
1
1
1
1
1
1
1
1
1
1
1
1
1
1
1
1
1
1
1
1
1
1
1
1
1
1
1
1
1
1
1
1
1
1
1
1
1
1
1
1
1
1
1
1
1
1
1
1
1
1
1
1
1
1
1
1
1
1
1
1
1.00014
1.00965
1.70154
2.63424
2.72374
2.7385
2.7424
2.74199
2.74088
2.74156
2.74568
2.75252
2.76037
2.7674
2.77252
2.77762
2.78344
2.78813
2.79207
2.79664
2.80281
2.81064
2.81907
2.82719
2.835
2.84372
2.85648
2.87862
2.91007
2.92937
2.90728
2.80313
2.53498
1
1
1
1
1
1
1
1
1
1
1
1
1
1
1
1
1
1
1
1
1
1
1
1
1
1
1
1
1
1
1
1
1
1
1
1
1
1
1
1
1
1
1
1
1
1
1
1
1
1
1
1
1
1
1
1
1
1
1
1
1
1
1
1.00003
1.00252
1.16427
2.5193
2.68391
2.71792
2.72985
2.73325
2.73542
2.73741
2.74113
2.74641
2.75258
2.75807
2.76143
2.76476
2.76908
2.77341
2.77686
2.78057
2.78558
2.79217
2.79943
2.80606
2.81155
2.81645
2.82304
2.83536
2.85085
2.85429
2.82765
2.72657
2.42338
1
1
1
1
1
1
1
1
1
1
1
1
1
1
1
1
1
1
1
1
1
1
1
1
1
1
1
1
1
1
1
1
1
1
1
1
1
1
1
1
1
1
1
1
1
1
1
1
1
1
1
1
1
1
1
1
1
1
1
1
1
1
1
1.00001
1.0005
1.03112
2.33086
2.6535
2.70234
2.72005
2.72556
2.72891
2.73173
2.73554
2.7396
2.74362
2.74735
2.74937
2.7515
2.75471
2.75849
2.76178
2.76465
2.76832
2.77325
2.77897
2.78402
2.78732
2.78873
2.78982
2.79241
2.79432
2.7873
2.75838
2.68454
2.50743
1
1
1
1
1
1
1
1
1
1
1
1
1
1
1
1
1
1
1
1
1
1
1
1
1
1
1
1
1
1
1
1
1
1
1
1
1
1
1
1
1
1
1
1
1
1
1
1
1
1
1
1
1
1
1
1
1
1
1
1
1
1
1
1
1.00023
1.01637
1.98671
2.61189
2.69396
2.7071
2.7142
2.71883
2.72401
2.72825
2.7309
2.73324
2.73604
2.73771
2.73931
2.74163
2.74445
2.74713
2.7489
2.75103
2.7541
2.75816
2.7617
2.76302
2.76178
2.75856
2.75368
2.74626
2.73229
2.70125
2.6533
2.52541
1
1
1
1
1
1
1
1
1
1
1
1
1
1
1
1
1
1
1
1
1
1
1
1
1
1
1
1
1
1
1
1
1
1
1
1
1
1
1
1
1
1
1
1
1
1
1
1
1
1
1
1
1
1
1
1
1
1
1
1
1
1
1
1
1.00007
1.0056
1.41628
2.53412
2.67486
2.69608
2.70252
2.70869
2.71501
2.71882
2.72031
2.72219
2.72521
2.72727
2.7286
2.73004
2.7316
2.73312
2.73361
2.73419
2.7353
2.73741
2.73904
2.73839
2.73516
2.72847
2.7182
2.70403
2.68524
2.65163
2.61447
2.52065
1
1
1
1
1
1
1
1
1
1
1
1
1
1
1
1
1
1
1
1
1
1
1
1
1
1
1
1
1
1
1
1
1
1
1
1
1
1
1
1
1
1
1
1
1
1
1
1
1
1
1
1
1
1
1
1
1
1
1
1
1
1
1
1
1.00001
1.00097
1.05618
2.3794
2.66426
2.6914
2.68984
2.6942
2.7033
2.70707
2.70902
2.7115
2.71534
2.71803
2.71896
2.71946
2.71956
2.71958
2.71892
2.71797
2.71726
2.71738
2.71702
2.71511
2.71026
2.70144
2.68809
2.6696
2.64762
2.61138
2.57594
2.50827
1
1
1
1
1
1
1
1
1
1
1
1
1
1
1
1
1
1
1
1
1
1
1
1
1
1
1
1
1
1
1
1
1
1
1
1
1
1
1
1
1
1
1
1
1
1
1
1
1
1
1
1
1
1
1
1
1
1
1
1
1
1
1
1
1
1.00028
1.02022
2.06871
2.6288
2.68015
2.67563
2.67878
2.68812
2.6935
2.69736
2.70123
2.70612
2.70928
2.70944
2.70918
2.70832
2.70709
2.70522
2.70299
2.70065
2.69875
2.69637
2.6927
2.68613
2.67552
2.66018
2.63889
2.61508
2.57861
2.54039
2.48604
1
1
1
1
1
1
1
1
1
1
1
1
1
1
1
1
1
1
1
1
1
1
1
1
1
1
1
1
1
1
1
1
1
1
1
1
1
1
1
1
1
1
1
1
1
1
1
1
1
1
1
1
1
1
1
1
1
1
1
1
1
1
1
1
1
1.00009
1.00731
1.5044
2.54134
2.66541
2.65774
2.66322
2.6744
2.68112
2.68697
2.69194
2.69693
2.69967
2.69949
2.69873
2.6971
2.69489
2.692
2.68868
2.68499
2.68145
2.67736
2.67213
2.66431
2.65272
2.63674
2.61424
2.58886
2.55282
2.51547
2.46446
1
1
1
1
1
1
1
1
1
1
1
1
1
1
1
1
1
1
1
1
1
1
1
1
1
1
1
1
1
1
1
1
1
1
1
1
1
1
1
1
1
1
1
1
1
1
1
1
1
1
1
1
1
1
1
1
1
1
1
1
1
1
1
1
1
1.00002
1.0013
1.06901
2.36341
2.64753
2.64265
2.64882
2.66205
2.67072
2.67832
2.6835
2.68716
2.68778
2.6874
2.68646
2.68472
2.68236
2.67919
2.67535
2.67078
2.6659
2.66018
2.65321
2.6438
2.63085
2.61427
2.59145
2.56534
2.53124
2.49365
2.44684
1
1
1
1
1
1
1
1
1
1
1
1
1
1
1
1
1
1
1
1
1
1
1
1
1
1
1
1
1
1
1
1
1
1
1
1
1
1
1
1
1
1
1
1
1
1
1
1
1
1
1
1
1
1
1
1
1
1
1
1
1
1
1
1
1
1
1.00026
1.01888
2.00045
2.59644
2.64554
2.64206
2.64958
2.66006
2.66909
2.6741
2.6757
2.67427
2.67287
2.67226
2.67126
2.66956
2.66663
2.66252
2.65715
2.65105
2.64389
2.63548
2.6251
2.61151
2.59498
2.57249
2.54588
2.51384
2.47615
2.43432
1
1
1
1
1
1
1
1
1
1
1
1
1
1
1
1
1
1
1
1
1
1
1
1
1
1
1
1
1
1
1
1
1
1
1
1
1
1
1
1
1
1
1
1
1
1
1
1
1
1
1
1
1
1
1
1
1
1
1
1
1
1
1
1
1
1
1.00007
1.00588
1.38795
2.49279
2.62563
2.62765
2.6413
2.65071
2.65935
2.66295
2.66306
2.66054
2.65781
2.65715
2.65682
2.6558
2.65331
2.6493
2.6436
2.63672
2.62855
2.61898
2.60758
2.59301
2.57615
2.5542
2.52816
2.49826
2.4615
2.42406
1
1
1
1
1
1
1
1
1
1
1
1
1
1
1
1
1
1
1
1
1
1
1
1
1
1
1
1
1
1
1
1
1
1
1
1
1
1
1
1
1
1
1
1
1
1
1
1
1
1
1
1
1
1
1
1
1
1
1
1
1
1
1
1
1
1
1.00001
1.00093
1.04914
2.26692
2.59171
2.61553
2.63476
2.64153
2.64774
2.65026
2.64993
2.64656
2.64257
2.64141
2.64167
2.6411
2.63944
2.63608
2.63041
2.6229
2.6137
2.60291
2.59063
2.57559
2.55906
2.53783
2.51266
2.48451
2.44972
2.41619
1
1
1
1
1
1
1
1
1
1
1
1
1
1
1
1
1
1
1
1
1
1
1
1
1
1
1
1
1
1
1
1
1
1
1
1
1
1
1
1
1
1
1
1
1
1
1
1
1
1
1
1
1
1
1
1
1
1
1
1
1
1
1
1
1
1
1
1.00019
1.01439
1.8069
2.54016
2.61448
2.62802
2.63101
2.63349
2.63528
2.63489
2.63157
2.62761
2.62663
2.62732
2.62701
2.62569
2.62247
2.61662
2.60847
2.59841
2.58685
2.57423
2.55901
2.54248
2.52179
2.49817
2.47149
2.43897
2.40823
1
1
1
1
1
1
1
1
1
1
1
1
1
1
1
1
1
1
1
1
1
1
1
1
1
1
1
1
1
1
1
1
1
1
1
1
1
1
1
1
1
1
1
1
1
1
1
1
1
1
1
1
1
1
1
1
1
1
1
1
1
1
1
1
1
1
1
1.00004
1.00346
1.16356
2.41695
2.5995
2.61456
2.61496
2.61675
2.61977
2.6197
2.61798
2.61434
2.6127
2.61301
2.61241
2.61105
2.60791
2.60229
2.59432
2.58416
2.57204
2.5585
2.54271
2.52639
2.50629
2.48427
2.45877
2.42903
2.40107
1
1
1
1
1
1
1
1
1
1
1
1
1
1
1
1
1
1
1
1
1
1
1
1
1
1
1
1
1
1
1
1
1
1
1
1
1
1
1
1
1
1
1
1
1
1
1
1
1
1
1
1
1
1
1
1
1
1
1
1
1
1
1
1
1
1
1
1.00001
1.00044
1.0267
2.09876
2.56787
2.59821
2.59798
2.60179
2.60524
2.60538
2.60377
2.60037
2.59873
2.59842
2.59818
2.5971
2.59391
2.58827
2.58019
2.56949
2.55656
2.54265
2.52725
2.51131
2.49158
2.47111
2.44678
2.41894
2.39291
1
1
1
1
1
1
1
1
1
1
1
1
1
1
1
1
1
1
1
1
1
1
1
1
1
1
1
1
1
1
1
1
1
1
1
1
1
1
1
1
1
1
1
1
1
1
1
1
1
1
1
1
1
1
1
1
1
1
1
1
1
1
1
1
1
1
1
1
1.0001
1.00859
1.51745
2.50251
2.56911
2.58343
2.58895
2.59094
2.59109
2.5894
2.58712
2.58638
2.5857
2.58479
2.58302
2.57915
2.5732
2.56526
2.55532
2.54329
2.52928
2.51343
2.49697
2.4772
2.45789
2.43439
2.40894
2.38585
1
1
1
1
1
1
1
1
1
1
1
1
1
1
1
1
1
1
1
1
1
1
1
1
1
1
1
1
1
1
1
1
1
1
1
1
1
1
1
1
1
1
1
1
1
1
1
1
1
1
1
1
1
1
1
1
1
1
1
1
1
1
1
1
1
1
1
1
1.00002
1.00139
1.06955
2.25981
2.52768
2.56231
2.57951
2.5803
2.57909
2.57606
2.57359
2.57271
2.57155
2.57045
2.56841
2.56454
2.55912
2.55186
2.54223
2.52992
2.51534
2.4998
2.48425
2.46476
2.44669
2.42401
2.39718
2.37709
1
1
1
1
1
1
1
1
1
1
1
1
1
1
1
1
1
1
1
1
1
1
1
1
1
1
1
1
1
1
1
1
1
1
1
1
1
1
1
1
1
1
1
1
1
1
1
1
1
1
1
1
1
1
1
1
1
1
1
1
1
1
1
1
1
1
1
1
1
1.00019
1.01425
1.72637
2.49811
2.54536
2.56865
2.56995
2.56806
2.56337
2.55998
2.558
2.55803
2.55748
2.55523
2.55072
2.54475
2.53716
2.52761
2.51665
2.50378
2.48922
2.47316
2.45334
2.43521
2.4137
2.38809
2.36971
1
1
1
1
1
1
1
1
1
1
1
1
1
1
1
1
1
1
1
1
1
1
1
1
1
1
1
1
1
1
1
1
1
1
1
1
1
1
1
1
1
1
1
1
1
1
1
1
1
1
1
1
1
1
1
1
1
1
1
1
1
1
1
1
1
1
1
1
1
1.00003
1.00257
1.12638
2.34185
2.51906
2.54969
2.55747
2.55653
2.55245
2.54827
2.54513
2.54425
2.54327
2.54057
2.5358
2.53025
2.52359
2.51508
2.50443
2.49142
2.47691
2.46235
2.44369
2.42648
2.40675
2.37911
2.36207
1
1
1
1
1
1
1
1
1
1
1
1
1
1
1
1
1
1
1
1
1
1
1
1
1
1
1
1
1
1
1
1
1
1
1
1
1
1
1
1
1
1
1
1
1
1
1
1
1
1
1
1
1
1
1
1
1
1
1
1
1
1
1
1
1
1
1
1
1
1.00001
1.00028
1.02016
1.86209
2.47024
2.54235
2.54436
2.54374
2.53897
2.5335
2.52957
2.52964
2.52904
2.52729
2.52291
2.51708
2.50995
2.50062
2.48986
2.4784
2.46636
2.45282
2.43455
2.41685
2.39854
2.37238
2.35451
1
1
1
1
1
1
1
1
1
1
1
1
1
1
1
1
1
1
1
1
1
1
1
1
1
1
1
1
1
1
1
1
1
1
1
1
1
1
1
1
1
1
1
1
1
1
1
1
1
1
1
1
1
1
1
1
1
1
1
1
1
1
1
1
1
1
1
1
1
1
1.00004
1.00382
1.18555
2.36031
2.5147
2.53081
2.52908
2.52402
2.51976
2.51656
2.51667
2.51621
2.51384
2.509
2.50301
2.49605
2.48764
2.47761
2.46637
2.45393
2.44133
2.42546
2.40824
2.39257
2.36775
2.3459
1
1
1
1
1
1
1
1
1
1
1
1
1
1
1
1
1
1
1
1
1
1
1
1
1
1
1
1
1
1
1
1
1
1
1
1
1
1
1
1
1
1
1
1
1
1
1
1
1
1
1
1
1
1
1
1
1
1
1
1
1
1
1
1
1
1
1
1
1
1
1.00001
1.00037
1.02538
1.90103
2.46468
2.51742
2.51433
2.50997
2.50379
2.50036
2.50074
2.5011
2.50006
2.49669
2.49112
2.48395
2.47448
2.46316
2.45177
2.44129
2.43082
2.41642
2.39954
2.38372
2.36247
2.33857
1
1
1
1
1
1
1
1
1
1
1
1
1
1
1
1
1
1
1
1
1
1
1
1
1
1
1
1
1
1
1
1
1
1
1
1
1
1
1
1
1
1
1
1
1
1
1
1
1
1
1
1
1
1
1
1
1
1
1
1
1
1
1
1
1
1
1
1
1
1
1
1.00005
1.00439
1.21386
2.33561
2.48696
2.49827
2.49442
2.48775
2.48564
2.48694
2.48831
2.48748
2.48376
2.47788
2.47028
2.46109
2.45073
2.44022
2.42933
2.41875
2.40585
2.39012
2.37614
2.35868
2.33222
1
1
1
1
1
1
1
1
1
1
1
1
1
1
1
1
1
1
1
1
1
1
1
1
1
1
1
1
1
1
1
1
1
1
1
1
1
1
1
1
1
1
1
1
1
1
1
1
1
1
1
1
1
1
1
1
1
1
1
1
1
1
1
1
1
1
1
1
1
1
1
1.00001
1.0004
1.02682
1.85677
2.43888
2.4869
2.47924
2.47524
2.47192
2.47221
2.47366
2.47327
2.47104
2.46595
2.4587
2.44916
2.43747
2.42606
2.41565
2.40675
2.39604
2.38176
2.36646
2.35084
2.32488
1
1
1
1
1
1
1
1
1
1
1
1
1
1
1
1
1
1
1
1
1
1
1
1
1
1
1
1
1
1
1
1
1
1
1
1
1
1
1
1
1
1
1
1
1
1
1
1
1
1
1
1
1
1
1
1
1
1
1
1
1
1
1
1
1
1
1
1
1
1
1
1
1.00005
1.00399
1.19307
2.27867
2.46008
2.46031
2.45736
2.45705
2.45937
2.46134
2.46139
2.45848
2.45264
2.44491
2.43544
2.42476
2.41493
2.40453
2.39572
2.3848
2.37225
2.35686
2.34459
2.32009
1
1
1
1
1
1
1
1
1
1
1
1
1
1
1
1
1
1
1
1
1
1
1
1
1
1
1
1
1
1
1
1
1
1
1
1
1
1
1
1
1
1
1
1
1
1
1
1
1
1
1
1
1
1
1
1
1
1
1
1
1
1
1
1
1
1
1
1
1
1
1
1
1.00001
1.00033
1.02309
1.74542
2.40731
2.45824
2.4401
2.44372
2.44653
2.44836
2.44789
2.44564
2.44043
2.43303
2.42391
2.41249
2.40181
2.39127
2.38343
2.37386
2.36383
2.34741
2.33605
2.31226
1
1
1
1
1
1
1
1
1
1
1
1
1
1
1
1
1
1
1
1
1
1
1
1
1
1
1
1
1
1
1
1
1
1
1
1
1
1
1
1
1
1
1
1
1
1
1
1
1
1
1
1
1
1
1
1
1
1
1
1
1
1
1
1
1
1
1
1
1
1
1
1
1
1.00003
1.003
1.14557
2.19743
2.42596
2.42552
2.42875
2.43411
2.43555
2.43602
2.43381
2.4273
2.41923
2.40998
2.39924
2.39037
2.38044
2.37308
2.36304
2.35406
2.3376
2.32815
2.3066
1
1
1
1
1
1
1
1
1
1
1
1
1
1
1
1
1
1
1
1
1
1
1
1
1
1
1
1
1
1
1
1
1
1
1
1
1
1
1
1
1
1
1
1
1
1
1
1
1
1
1
1
1
1
1
1
1
1
1
1
1
1
1
1
1
1
1
1
1
1
1
1
1
1
1.00022
1.01664
1.56802
2.35835
2.43535
2.41518
2.41975
2.42228
2.42238
2.42116
2.41547
2.40738
2.3983
2.38709
2.37732
2.36765
2.36088
2.35167
2.34459
2.32844
2.31936
2.2988
1
1
1
1
1
1
1
1
1
1
1
1
1
1
1
1
1
1
1
1
1
1
1
1
1
1
1
1
1
1
1
1
1
1
1
1
1
1
1
1
1
1
1
1
1
1
1
1
1
1
1
1
1
1
1
1
1
1
1
1
1
1
1
1
1
1
1
1
1
1
1
1
1
1
1.00002
1.00185
1.08888
2.08388
2.37864
2.40062
2.40791
2.4074
2.40977
2.40909
2.40241
2.39367
2.38431
2.37332
2.36487
2.35618
2.35033
2.34144
2.33481
2.31935
2.3109
2.29192
1
1
1
1
1
1
1
1
1
1
1
1
1
1
1
1
1
1
1
1
1
1
1
1
1
1
1
1
1
1
1
1
1
1
1
1
1
1
1
1
1
1
1
1
1
1
1
1
1
1
1
1
1
1
1
1
1
1
1
1
1
1
1
1
1
1
1
1
1
1
1
1
1
1
1
1.00013
1.0106
1.3834
2.29919
2.39934
2.39561
2.39416
2.39498
2.39411
2.38999
2.38157
2.37242
2.36126
2.35171
2.34377
2.33854
2.33028
2.32479
2.31065
2.30183
2.28373
1
1
1
1
1
1
1
1
1
1
1
1
1
1
1
1
1
1
1
1
1
1
1
1
1
1
1
1
1
1
1
1
1
1
1
1
1
1
1
1
1
1
1
1
1
1
1
1
1
1
1
1
1
1
1
1
1
1
1
1
1
1
1
1
1
1
1
1
1
1
1
1
1
1
1
1.00001
1.001
1.05159
1.89273
2.34805
2.38582
2.38019
2.38044
2.38048
2.37694
2.36868
2.35987
2.349
2.33995
2.33214
2.32836
2.32007
2.31517
2.30363
2.293
2.27662
1
1
1
1
1
1
1
1
1
1
1
1
1
1
1
1
1
1
1
1
1
1
1
1
1
1
1
1
1
1
1
1
1
1
1
1
1
1
1
1
1
1
1
1
1
1
1
1
1
1
1
1
1
1
1
1
1
1
1
1
1
1
1
1
1
1
1
1
1
1
1
1
1
1
1
1
1.00007
1.00576
1.22996
2.20512
2.34824
2.36698
2.36575
2.36499
2.36428
2.358
2.34974
2.33884
2.32851
2.32009
2.31713
2.3089
2.30514
2.29542
2.28304
2.26878
1
1
1
1
1
1
1
1
1
1
1
1
1
1
1
1
1
1
1
1
1
1
1
1
1
1
1
1
1
1
1
1
1
1
1
1
1
1
1
1
1
1
1
1
1
1
1
1
1
1
1
1
1
1
1
1
1
1
1
1
1
1
1
1
1
1
1
1
1
1
1
1
1
1
1
1
1.00001
1.00041
1.02633
1.60754
2.30815
2.35732
2.35464
2.35292
2.35189
2.34648
2.3388
2.32828
2.31801
2.30912
2.30653
2.29813
2.29577
2.28606
2.27334
2.26221
1
1
1
1
1
1
1
1
1
1
1
1
1
1
1
1
1
1
1
1
1
1
1
1
1
1
1
1
1
1
1
1
1
1
1
1
1
1
1
1
1
1
1
1
1
1
1
1
1
1
1
1
1
1
1
1
1
1
1
1
1
1
1
1
1
1
1
1
1
1
1
1
1
1
1
1
1
1.00003
1.0024
1.10654
2.05361
2.28516
2.33123
2.33811
2.33982
2.33615
2.32903
2.31839
2.30723
2.29774
2.29545
2.28709
2.28599
2.27578
2.26322
2.25397
1
1
1
1
1
1
1
1
1
1
1
1
1
1
1
1
1
1
1
1
1
1
1
1
1
1
1
1
1
1
1
1
1
1
1
1
1
1
1
1
1
1
1
1
1
1
1
1
1
1
1
1
1
1
1
1
1
1
1
1
1
1
1
1
1
1
1
1
1
1
1
1
1
1
1
1
1
1
1.00014
1.01073
1.36195
2.21327
2.30561
2.31807
2.32634
2.32148
2.31638
2.30755
2.29664
2.28694
2.28461
2.27689
2.27672
2.26433
2.25471
2.2449
1
1
1
1
1
1
1
1
1
1
1
1
1
1
1
1
1
1
1
1
1
1
1
1
1
1
1
1
1
1
1
1
1
1
1
1
1
1
1
1
1
1
1
1
1
1
1
1
1
1
1
1
1
1
1
1
1
1
1
1
1
1
1
1
1
1
1
1
1
1
1
1
1
1
1
1
1
1
1.00001
1.00077
1.04552
1.72451
2.21873
2.31901
2.31836
2.30973
2.30502
2.29642
2.28531
2.27718
2.27368
2.26732
2.2672
2.25322
2.24695
2.23509
1
1
1
1
1
1
1
1
1
1
1
1
1
1
1
1
1
1
1
1
1
1
1
1
1
1
1
1
1
1
1
1
1
1
1
1
1
1
1
1
1
1
1
1
1
1
1
1
1
1
1
1
1
1
1
1
1
1
1
1
1
1
1
1
1
1
1
1
1
1
1
1
1
1
1
1
1
1
1
1.00005
1.00334
1.15594
1.96529
2.24898
2.30449
2.29905
2.29111
2.2848
2.27257
2.26528
2.26143
2.25762
2.25667
2.24224
2.23895
2.22403
1
1
1
1
1
1
1
1
1
1
1
1
1
1
1
1
1
1
1
1
1
1
1
1
1
1
1
1
1
1
1
1
1
1
1
1
1
1
1
1
1
1
1
1
1
1
1
1
1
1
1
1
1
1
1
1
1
1
1
1
1
1
1
1
1
1
1
1
1
1
1
1
1
1
1
1
1
1
1
1
1.00017
1.01214
1.34976
2.09202
2.28521
2.28562
2.28034
2.27062
2.2587
2.25237
2.24883
2.24707
2.2445
2.23229
2.231
2.21375
1
1
1
1
1
1
1
1
1
1
1
1
1
1
1
1
1
1
1
1
1
1
1
1
1
1
1
1
1
1
1
1
1
1
1
1
1
1
1
1
1
1
1
1
1
1
1
1
1
1
1
1
1
1
1
1
1
1
1
1
1
1
1
1
1
1
1
1
1
1
1
1
1
1
1
1
1
1
1
1
1.00001
1.00066
1.03986
1.57642
2.16885
2.2751
2.273
2.25927
2.24527
2.23717
2.23531
2.23411
2.22996
2.22106
2.22144
2.20364
1
1
1
1
1
1
1
1
1
1
1
1
1
1
1
1
1
1
1
1
1
1
1
1
1
1
1
1
1
1
1
1
1
1
1
1
1
1
1
1
1
1
1
1
1
1
1
1
1
1
1
1
1
1
1
1
1
1
1
1
1
1
1
1
1
1
1
1
1
1
1
1
1
1
1
1
1
1
1
1
1
1.00003
1.00217
1.10547
1.78174
2.22168
2.25544
2.24573
2.23351
2.22218
2.2223
2.22066
2.21522
2.20968
2.2113
2.19368
1
1
1
1
1
1
1
1
1
1
1
1
1
1
1
1
1
1
1
1
1
1
1
1
1
1
1
1
1
1
1
1
1
1
1
1
1
1
1
1
1
1
1
1
1
1
1
1
1
1
1
1
1
1
1
1
1
1
1
1
1
1
1
1
1
1
1
1
1
1
1
1
1
1
1
1
1
1
1
1
1
1
1.0001
1.00653
1.22118
1.95207
2.23752
2.22958
2.22156
2.21193
2.21128
2.20603
2.20052
2.19749
2.20127
2.18526
1
1
1
1
1
1
1
1
1
1
1
1
1
1
1
1
1
1
1
1
1
1
1
1
1
1
1
1
1
1
1
1
1
1
1
1
1
1
1
1
1
1
1
1
1
1
1
1
1
1
1
1
1
1
1
1
1
1
1
1
1
1
1
1
1
1
1
1
1
1
1
1
1
1
1
1
1
1
1
1
1
1
1.00001
1.0003
1.01928
1.37174
2.07562
2.21851
2.2114
2.20418
2.19742
2.18934
2.18463
2.18358
2.19006
2.17541
1
1
1
1
1
1
1
1
1
1
1
1
1
1
1
1
1
1
1
1
1
1
1
1
1
1
1
1
1
1
1
1
1
1
1
1
1
1
1
1
1
1
1
1
1
1
1
1
1
1
1
1
1
1
1
1
1
1
1
1
1
1
1
1
1
1
1
1
1
1
1
1
1
1
1
1
1
1
1
1
1
1
1
1.00001
1.00091
1.04587
1.56714
2.10921
2.20729
2.20566
2.1938
2.17227
2.17003
2.17035
2.17772
2.16294
1
1
1
1
1
1
1
1
1
1
1
1
1
1
1
1
1
1
1
1
1
1
1
1
1
1
1
1
1
1
1
1
1
1
1
1
1
1
1
1
1
1
1
1
1
1
1
1
1
1
1
1
1
1
1
1
1
1
1
1
1
1
1
1
1
1
1
1
1
1
1
1
1
1
1
1
1
1
1
1
1
1
1
1
1.00004
1.00231
1.10712
1.71083
2.16389
2.20031
2.18303
2.15652
2.1579
2.15925
2.16487
2.14805
1
1
1
1
1
1
1
1
1
1
1
1
1
1
1
1
1
1
1
1
1
1
1
1
1
1
1
1
1
1
1
1
1
1
1
1
1
1
1
1
1
1
1
1
1
1
1
1
1
1
1
1
1
1
1
1
1
1
1
1
1
1
1
1
1
1
1
1
1
1
1
1
1
1
1
1
1
1
1
1
1
1
1
1
1
1.0001
1.00626
1.18106
1.8821
2.16081
2.15008
2.14786
2.1503
2.14859
2.14699
2.13454
1
1
1
1
1
1
1
1
1
1
1
1
1
1
1
1
1
1
1
1
1
1
1
1
1
1
1
1
1
1
1
1
1
1
1
1
1
1
1
1
1
1
1
1
1
1
1
1
1
1
1
1
1
1
1
1
1
1
1
1
1
1
1
1
1
1
1
1
1
1
1
1
1
1
1
1
1
1
1
1
1
1
1
1
1
1
1.00026
1.01359
1.32237
1.91758
2.16286
2.15024
2.14182
2.13598
2.12753
2.11674
1
1
1
1
1
1
1
1
1
1
1
1
1
1
1
1
1
1
1
1
1
1
1
1
1
1
1
1
1
1
1
1
1
1
1
1
1
1
1
1
1
1
1
1
1
1
1
1
1
1
1
1
1
1
1
1
1
1
1
1
1
1
1
1
1
1
1
1
1
1
1
1
1
1
1
1
1
1
1
1
1
1
1
1
1
1
1.00001
1.00055
1.03176
1.38741
2.01166
2.16626
2.14379
2.11759
2.11181
2.11072
1
1
1
1
1
1
1
1
1
1
1
1
1
1
1
1
1
1
1
1
1
1
1
1
1
1
1
1
1
1
1
1
1
1
1
1
1
1
1
1
1
1
1
1
1
1
1
1
1
1
1
1
1
1
1
1
1
1
1
1
1
1
1
1
1
1
1
1
1
1
1
1
1
1
1
1
1
1
1
1
1
1
1
1
1
1
1
1.00002
1.00115
1.05226
1.51028
2.07813
2.12089
2.09959
2.10119
2.1119
1
1
1
1
1
1
1
1
1
1
1
1
1
1
1
1
1