/*--------------------------------*- C++ -*----------------------------------*\
| =========                 |                                                 |
| \\      /  F ield         | OpenFOAM: The Open Source CFD Toolbox           |
|  \\    /   O peration     | Version:  v1812                                 |
|   \\  /    A nd           | Web:      www.OpenFOAM.com                      |
|    \\/     M anipulation  |                                                 |
\*---------------------------------------------------------------------------*/
FoamFile
{
    version     2.0;
    format      ascii;
    class       volVectorField;
    location    "0.5";
    object      U;
}
// * * * * * * * * * * * * * * * * * * * * * * * * * * * * * * * * * * * * * //

dimensions      [0 1 -1 0 0 0 0];


internalField   nonuniform List<vector> 
64512
(
(3 -1.07933e-16 0)
(3 2.07881e-16 0)
(3 -4.673e-17 0)
(3 -3.68684e-16 0)
(3 -5.00883e-16 0)
(3 -9.96519e-16 0)
(3 -3.63037e-16 0)
(3 -4.40048e-17 0)
(3 4.62899e-17 0)
(3 -1.8083e-16 0)
(3 -1.9252e-16 0)
(3 2.83003e-16 0)
(3 5.47469e-16 0)
(3 7.31824e-16 0)
(3 7.34148e-16 0)
(3 7.56187e-16 0)
(3 -8.39149e-17 0)
(3 -9.23139e-16 0)
(3 -1.02099e-15 0)
(3 -1.13758e-15 0)
(3 -3.66002e-16 0)
(3 9.71647e-17 0)
(3 6.12776e-16 0)
(3 2.20991e-16 0)
(3 3.77686e-16 0)
(3 -1.53284e-16 0)
(3 -2.47551e-16 0)
(3 6.36446e-16 0)
(3 6.6407e-16 0)
(3 1.20106e-15 0)
(3 1.08223e-15 0)
(3 1.19953e-15 0)
(3 1.34266e-15 0)
(3 1.36773e-15 0)
(3 9.01669e-16 0)
(3 4.64551e-16 0)
(3 7.10573e-18 0)
(3 -7.27893e-16 0)
(3 -9.56588e-16 0)
(3 -1.13865e-15 0)
(3 -1.39728e-15 0)
(3 -1.31993e-15 0)
(3 -1.28777e-15 0)
(3 -9.10803e-16 0)
(3 -9.75429e-16 0)
(3 -5.51395e-16 0)
(3 4.9482e-16 0)
(3 1.19116e-15 0)
(3 1.43511e-15 0)
(3 1.24998e-15 0)
(3 7.28533e-16 0)
(3 2.49357e-16 0)
(3 7.30711e-17 0)
(3 2.55816e-18 0)
(3 -1.67665e-16 0)
(3 2.03003e-14 0)
(3 3.76349e-13 0)
(3 1.34744e-10 0)
(3 -1.97013e-09 0)
(2.99981 9.24036e-07 0)
(2.98758 -3.44591e-05 0)
(2.02301 0.00719736 0)
(0.837223 -0.0259626 0)
(0.644306 -0.0118137 0)
(0.619754 0.0285678 0)
(0.585659 0.0354893 0)
(0.555648 0.026234 0)
(0.540017 0.00759095 0)
(0.534248 -0.00360488 0)
(0.531457 -0.00269408 0)
(0.522025 0.00312848 0)
(0.500984 0.0100901 0)
(0.47115 0.0143294 0)
(0.440835 0.0135991 0)
(0.416112 0.0103981 0)
(0.395552 0.00895914 0)
(0.375414 0.00924451 0)
(0.353452 0.00996114 0)
(0.330126 0.0105187 0)
(0.306991 0.0107905 0)
(0.285309 0.0108518 0)
(0.265524 0.01087 0)
(0.24714 0.0109818 0)
(0.229058 0.011234 0)
(0.210237 0.0114728 0)
(0.190243 0.0114763 0)
(0.169379 0.0111739 0)
(0.148302 0.0107338 0)
(0.127741 0.010205 0)
(0.108535 0.0095455 0)
(0.0893532 0.00904065 0)
(0.0727219 0.00891006 0)
(0.0559225 0.00877471 0)
(0.0397587 0.00859993 0)
(0.0224876 0.00788366 0)
(0.00746416 0.00717673 0)
(3 2.25912e-16 0)
(3 2.45604e-16 0)
(3 5.89422e-17 0)
(3 -6.38479e-16 0)
(3 -7.17362e-16 0)
(3 -7.12015e-16 0)
(3 -2.70018e-17 0)
(3 -3.19631e-16 0)
(3 -7.59279e-16 0)
(3 -1.32534e-16 0)
(3 -5.37542e-16 0)
(3 -4.03098e-16 0)
(3 -4.32244e-16 0)
(3 -4.70182e-16 0)
(3 1.16754e-16 0)
(3 2.44231e-16 0)
(3 -1.76459e-16 0)
(3 -5.66894e-16 0)
(3 -3.8722e-16 0)
(3 -8.00257e-16 0)
(3 6.43617e-16 0)
(3 5.57719e-16 0)
(3 1.54483e-15 0)
(3 9.22125e-16 0)
(3 1.52388e-15 0)
(3 1.17461e-15 0)
(3 1.56195e-15 0)
(3 2.7596e-15 0)
(3 2.13537e-15 0)
(3 2.30897e-15 0)
(3 9.22006e-16 0)
(3 1.14294e-15 0)
(3 1.24429e-15 0)
(3 3.95969e-16 0)
(3 -1.19955e-15 0)
(3 -1.3139e-15 0)
(3 -1.63058e-15 0)
(3 -1.40458e-15 0)
(3 -1.58268e-15 0)
(3 -1.589e-15 0)
(3 -1.85782e-15 0)
(3 -1.57296e-15 0)
(3 -9.24326e-16 0)
(3 -4.0416e-16 0)
(3 -2.75561e-16 0)
(3 -9.18319e-16 0)
(3 -7.90579e-16 0)
(3 -3.21977e-16 0)
(3 -2.71329e-16 0)
(3 -5.41794e-16 0)
(3 -8.56406e-16 0)
(3 -1.05256e-15 0)
(3 -9.27205e-16 0)
(3 -9.82154e-16 0)
(3 1.50235e-15 0)
(3 2.19197e-13 0)
(3 1.45568e-11 0)
(3 1.0877e-09 0)
(3 6.34701e-08 0)
(2.99981 5.41466e-06 0)
(2.98789 0.000227243 0)
(2.04254 0.0340907 0)
(0.829628 0.000480058 0)
(0.598729 0.0182879 0)
(0.594796 0.0236452 0)
(0.59391 0.0326691 0)
(0.585123 0.036255 0)
(0.573127 0.0312795 0)
(0.559416 0.0220583 0)
(0.543088 0.0209214 0)
(0.524483 0.0269031 0)
(0.502447 0.0351511 0)
(0.477849 0.0386292 0)
(0.453825 0.0339091 0)
(0.431344 0.0265104 0)
(0.409527 0.0232483 0)
(0.387726 0.0244523 0)
(0.364834 0.026859 0)
(0.341246 0.0286392 0)
(0.318277 0.0295166 0)
(0.296927 0.0296932 0)
(0.277502 0.0295424 0)
(0.259489 0.0296135 0)
(0.241788 0.0301313 0)
(0.223286 0.0307537 0)
(0.203389 0.0310553 0)
(0.182205 0.0309549 0)
(0.160341 0.0305949 0)
(0.138771 0.0296051 0)
(0.118533 0.027746 0)
(0.0986504 0.0258245 0)
(0.081468 0.0250087 0)
(0.0642135 0.0249218 0)
(0.0469583 0.0256871 0)
(0.0279439 0.0252316 0)
(0.00983791 0.0252618 0)
(3 2.03413e-16 0)
(3 -4.73395e-16 0)
(3 7.13601e-16 0)
(3 1.22441e-15 0)
(3 4.33411e-16 0)
(3 6.51903e-16 0)
(3 1.64874e-16 0)
(3 -6.63202e-16 0)
(3 -3.35463e-16 0)
(3 -1.67023e-16 0)
(3 -7.13265e-16 0)
(3 -1.67802e-15 0)
(3 -2.56107e-15 0)
(3 -2.15834e-15 0)
(3 -1.96435e-15 0)
(3 -1.29343e-15 0)
(3 -3.28413e-16 0)
(3 8.38648e-16 0)
(3 6.47493e-16 0)
(3 4.81853e-16 0)
(3 1.61738e-16 0)
(3 6.10175e-16 0)
(3 7.92809e-16 0)
(3 1.13515e-15 0)
(3 1.21437e-15 0)
(3 8.75566e-16 0)
(3 8.56763e-16 0)
(3 1.24893e-16 0)
(3 1.13382e-17 0)
(3 -9.15365e-16 0)
(3 -9.71026e-16 0)
(3 -1.06222e-15 0)
(3 -1.78399e-15 0)
(3 -2.03219e-15 0)
(3 -1.50116e-15 0)
(3 -1.27016e-15 0)
(3 -3.35395e-16 0)
(3 2.42166e-16 0)
(3 3.84233e-16 0)
(3 3.68625e-16 0)
(3 4.71782e-16 0)
(3 2.32078e-16 0)
(3 8.47318e-16 0)
(3 8.12889e-16 0)
(3 1.22448e-15 0)
(3 9.18907e-16 0)
(3 -7.72341e-16 0)
(3 -8.50236e-16 0)
(3 -1.28488e-15 0)
(3 -7.9052e-16 0)
(3 -2.49436e-16 0)
(3 5.45415e-16 0)
(3 6.65902e-16 0)
(3 2.8589e-17 0)
(3 6.44134e-15 0)
(3 4.26618e-13 0)
(3 2.80338e-11 0)
(3 2.05654e-09 0)
(3 1.15976e-07 0)
(2.99983 9.8717e-06 0)
(2.98878 0.000409649 0)
(2.09831 0.0581627 0)
(0.848019 0.0448633 0)
(0.619029 0.00911265 0)
(0.608794 0.0261508 0)
(0.605317 0.0464482 0)
(0.58776 0.0615651 0)
(0.565188 0.0590202 0)
(0.545016 0.0442464 0)
(0.526028 0.0356678 0)
(0.511076 0.0407339 0)
(0.497844 0.0508435 0)
(0.481051 0.0557924 0)
(0.461886 0.0522854 0)
(0.441107 0.0452359 0)
(0.418772 0.041874 0)
(0.395796 0.0432461 0)
(0.372212 0.0460549 0)
(0.348615 0.0480002 0)
(0.32616 0.048865 0)
(0.305602 0.048937 0)
(0.287054 0.0486806 0)
(0.269903 0.0488203 0)
(0.253029 0.049724 0)
(0.235246 0.0509315 0)
(0.215822 0.0517183 0)
(0.194735 0.0518747 0)
(0.172537 0.0514185 0)
(0.150267 0.0497474 0)
(0.128939 0.0466638 0)
(0.107588 0.0436369 0)
(0.0885765 0.0426164 0)
(0.0694774 0.0430708 0)
(0.0503729 0.0447479 0)
(0.0296125 0.0448705 0)
(0.0106735 0.0452833 0)
(3 -4.85578e-16 0)
(3 6.76537e-17 0)
(3 4.56717e-16 0)
(3 4.94351e-16 0)
(3 5.17865e-16 0)
(3 6.52016e-16 0)
(3 7.80263e-16 0)
(3 5.21008e-16 0)
(3 4.41919e-16 0)
(3 -8.15246e-16 0)
(3 -1.18981e-15 0)
(3 -1.10128e-15 0)
(3 -8.8693e-16 0)
(3 -3.2642e-16 0)
(3 -4.38839e-16 0)
(3 -1.12055e-15 0)
(3 -6.37801e-16 0)
(3 -4.47132e-16 0)
(3 3.72292e-16 0)
(3 2.95409e-16 0)
(3 -6.88061e-16 0)
(3 -1.8525e-16 0)
(3 8.53425e-17 0)
(3 9.40436e-16 0)
(3 1.00219e-15 0)
(3 1.38961e-15 0)
(3 6.99857e-16 0)
(3 -1.20674e-16 0)
(3 2.0459e-16 0)
(3 5.76271e-16 0)
(3 7.53247e-16 0)
(3 -1.95135e-16 0)
(3 -1.7565e-16 0)
(3 1.17041e-16 0)
(3 2.98505e-17 0)
(3 -2.88498e-16 0)
(3 -1.25152e-15 0)
(3 -1.67376e-15 0)
(3 -1.3893e-15 0)
(3 -1.2507e-15 0)
(3 -1.1303e-15 0)
(3 -9.59803e-16 0)
(3 -1.17691e-15 0)
(3 3.98134e-16 0)
(3 1.94802e-16 0)
(3 4.13385e-16 0)
(3 2.88225e-16 0)
(3 -9.42831e-17 0)
(3 1.31606e-16 0)
(3 1.20862e-16 0)
(3 -7.50854e-17 0)
(3 -1.23308e-16 0)
(3 2.06712e-16 0)
(3 1.21429e-15 0)
(3 8.58375e-15 0)
(3 4.54351e-13 0)
(3 2.8995e-11 0)
(3 1.91402e-09 0)
(3 1.12025e-07 0)
(2.99984 7.94344e-06 0)
(2.98974 0.000390775 0)
(2.15447 0.0415048 0)
(0.873696 0.0531153 0)
(0.638459 -0.000246987 0)
(0.612147 0.0346996 0)
(0.59387 0.0655588 0)
(0.567719 0.0852927 0)
(0.543357 0.0826075 0)
(0.528481 0.0648451 0)
(0.515736 0.0506902 0)
(0.504029 0.0516092 0)
(0.494303 0.0611193 0)
(0.479491 0.0696938 0)
(0.460082 0.070167 0)
(0.438797 0.0649134 0)
(0.416077 0.0617829 0)
(0.392996 0.0628827 0)
(0.369856 0.0651684 0)
(0.347152 0.0666049 0)
(0.32579 0.0672289 0)
(0.30638 0.0673187 0)
(0.288989 0.0672082 0)
(0.273028 0.0676379 0)
(0.257447 0.0689909 0)
(0.241058 0.0707475 0)
(0.222937 0.0720793 0)
(0.202737 0.0729097 0)
(0.180693 0.0730698 0)
(0.157723 0.0716397 0)
(0.134769 0.0683116 0)
(0.11128 0.0646158 0)
(0.0899957 0.0630859 0)
(0.0691547 0.0633164 0)
(0.0492067 0.0650798 0)
(0.0279406 0.0651584 0)
(0.010212 0.0651964 0)
(3 4.91094e-17 0)
(3 3.99039e-16 0)
(3 -1.23612e-16 0)
(3 -5.26299e-16 0)
(3 -5.64055e-17 0)
(3 -4.65135e-16 0)
(3 3.09602e-17 0)
(3 6.86122e-17 0)
(3 -1.47519e-15 0)
(3 -1.77084e-15 0)
(3 -1.68715e-15 0)
(3 -8.89937e-16 0)
(3 -5.77315e-16 0)
(3 -5.122e-16 0)
(3 1.28018e-17 0)
(3 -5.34871e-17 0)
(3 -7.4974e-16 0)
(3 -6.38757e-16 0)
(3 1.15427e-16 0)
(3 3.10616e-16 0)
(3 -2.25122e-16 0)
(3 1.03888e-16 0)
(3 4.23783e-16 0)
(3 3.36285e-16 0)
(3 8.6729e-16 0)
(3 9.70836e-16 0)
(3 1.00589e-15 0)
(3 8.96682e-16 0)
(3 9.2324e-16 0)
(3 8.74919e-16 0)
(3 2.83672e-16 0)
(3 5.22688e-16 0)
(3 5.31122e-16 0)
(3 -1.96254e-17 0)
(3 1.97948e-16 0)
(3 3.58322e-16 0)
(3 4.10067e-16 0)
(3 2.14517e-16 0)
(3 6.6466e-16 0)
(3 3.08139e-16 0)
(3 5.83211e-16 0)
(3 8.50384e-16 0)
(3 2.9539e-16 0)
(3 3.79474e-16 0)
(3 3.51046e-16 0)
(3 6.71245e-16 0)
(3 1.02557e-15 0)
(3 7.17063e-16 0)
(3 1.70131e-16 0)
(3 -3.71797e-16 0)
(3 -8.12812e-16 0)
(3 -5.65775e-16 0)
(3 -2.19802e-17 0)
(3 1.37146e-15 0)
(3 9.52003e-15 0)
(3 5.0982e-13 0)
(3 3.21795e-11 0)
(3 2.05852e-09 0)
(3 1.21136e-07 0)
(2.99986 8.2888e-06 0)
(2.99055 0.000436048 0)
(2.19014 0.0428116 0)
(0.869024 0.0815055 0)
(0.62098 0.0207255 0)
(0.593085 0.0518077 0)
(0.580847 0.0884127 0)
(0.561253 0.112773 0)
(0.541938 0.109025 0)
(0.529652 0.0866509 0)
(0.517811 0.0644366 0)
(0.503611 0.0614693 0)
(0.491889 0.0719527 0)
(0.475483 0.0844939 0)
(0.45482 0.0882094 0)
(0.434049 0.083853 0)
(0.412613 0.0806279 0)
(0.390587 0.0813421 0)
(0.368015 0.0831267 0)
(0.345425 0.0840478 0)
(0.323915 0.0843836 0)
(0.304322 0.0844839 0)
(0.286871 0.0845608 0)
(0.271106 0.0852948 0)
(0.256106 0.0870631 0)
(0.240718 0.0894031 0)
(0.223834 0.0914985 0)
(0.204785 0.0934835 0)
(0.183457 0.0948428 0)
(0.160617 0.0942139 0)
(0.137235 0.0909949 0)
(0.113098 0.086623 0)
(0.0910169 0.0842891 0)
(0.0694648 0.0838989 0)
(0.0491788 0.0854125 0)
(0.0271863 0.0850664 0)
(0.00946944 0.0844844 0)
(3 4.09111e-16 0)
(3 -3.8703e-16 0)
(3 -4.02597e-16 0)
(3 7.43186e-17 0)
(3 -4.24338e-16 0)
(3 -2.5703e-16 0)
(3 -7.76727e-16 0)
(3 -5.30071e-16 0)
(3 -3.24924e-16 0)
(3 -1.17093e-15 0)
(3 -6.42476e-16 0)
(3 -5.08959e-17 0)
(3 2.2181e-16 0)
(3 -4.08276e-16 0)
(3 -2.93053e-16 0)
(3 -1.7869e-16 0)
(3 -5.68929e-16 0)
(3 -3.32133e-16 0)
(3 6.81148e-17 0)
(3 4.07131e-16 0)
(3 7.53376e-16 0)
(3 9.11358e-16 0)
(3 7.40359e-16 0)
(3 8.95939e-16 0)
(3 1.09613e-15 0)
(3 7.62259e-16 0)
(3 1.07263e-15 0)
(3 1.3444e-15 0)
(3 1.03862e-15 0)
(3 -2.3943e-18 0)
(3 2.90538e-16 0)
(3 6.87332e-16 0)
(3 2.03258e-16 0)
(3 2.06851e-16 0)
(3 9.37433e-16 0)
(3 1.19352e-15 0)
(3 1.33104e-15 0)
(3 1.0978e-15 0)
(3 8.37424e-16 0)
(3 4.56063e-16 0)
(3 7.61157e-16 0)
(3 3.13517e-17 0)
(3 -1.25328e-16 0)
(3 -6.15636e-16 0)
(3 -3.87112e-16 0)
(3 8.56276e-16 0)
(3 1.33479e-15 0)
(3 1.75791e-15 0)
(3 1.81628e-15 0)
(3 2.03927e-15 0)
(3 2.39431e-15 0)
(3 2.76191e-15 0)
(3 2.71121e-15 0)
(3 2.14982e-15 0)
(3 1.10761e-14 0)
(3 6.6061e-13 0)
(3 4.25755e-11 0)
(3 2.73236e-09 0)
(3 1.62567e-07 0)
(2.99987 1.14252e-05 0)
(2.99166 0.000591257 0)
(2.25563 0.0648866 0)
(0.884832 0.114055 0)
(0.628534 0.0290317 0)
(0.599333 0.0651867 0)
(0.589289 0.107701 0)
(0.572217 0.132413 0)
(0.556197 0.127736 0)
(0.543986 0.104043 0)
(0.527956 0.0786948 0)
(0.507304 0.0742903 0)
(0.489956 0.0862895 0)
(0.471319 0.101257 0)
(0.450669 0.106456 0)
(0.431687 0.102246 0)
(0.412229 0.098927 0)
(0.39154 0.0995965 0)
(0.369438 0.101276 0)
(0.346541 0.101991 0)
(0.324233 0.102189 0)
(0.303667 0.102313 0)
(0.285306 0.102457 0)
(0.268861 0.1032 0)
(0.253525 0.104892 0)
(0.238249 0.107291 0)
(0.221876 0.109831 0)
(0.203593 0.113004 0)
(0.183012 0.115844 0)
(0.160712 0.116407 0)
(0.137615 0.113675 0)
(0.11367 0.108902 0)
(0.0915053 0.105851 0)
(0.069783 0.104821 0)
(0.0493409 0.10606 0)
(0.0273165 0.105318 0)
(0.00871434 0.104269 0)
(3 4.49107e-17 0)
(3 -8.58945e-17 0)
(3 -3.66563e-16 0)
(3 -4.63544e-17 0)
(3 5.84141e-17 0)
(3 2.81249e-16 0)
(3 -7.56714e-16 0)
(3 -4.04163e-16 0)
(3 4.88268e-16 0)
(3 7.77186e-16 0)
(3 8.1933e-16 0)
(3 8.17555e-16 0)
(3 7.88204e-16 0)
(3 5.54292e-16 0)
(3 -3.28957e-16 0)
(3 -1.07937e-15 0)
(3 -7.53433e-16 0)
(3 -8.52233e-16 0)
(3 -2.63245e-16 0)
(3 6.96891e-16 0)
(3 1.83661e-15 0)
(3 1.05286e-15 0)
(3 9.70511e-16 0)
(3 1.28224e-15 0)
(3 9.40695e-16 0)
(3 7.61165e-16 0)
(3 4.97633e-16 0)
(3 9.14932e-16 0)
(3 1.30395e-15 0)
(3 7.64328e-16 0)
(3 9.17006e-16 0)
(3 3.6301e-16 0)
(3 -3.16108e-16 0)
(3 -5.33537e-16 0)
(3 -6.89513e-16 0)
(3 -6.94277e-16 0)
(3 -7.06388e-16 0)
(3 -2.41656e-16 0)
(3 -2.75492e-16 0)
(3 -2.77217e-16 0)
(3 -1.0568e-15 0)
(3 -9.34325e-16 0)
(3 -5.45573e-16 0)
(3 -2.3821e-16 0)
(3 -5.03448e-16 0)
(3 -1.18099e-15 0)
(3 -6.06458e-16 0)
(3 -6.1409e-16 0)
(3 1.05091e-16 0)
(3 3.36239e-16 0)
(3 5.48194e-16 0)
(3 9.55293e-16 0)
(3 1.25589e-15 0)
(3 6.22734e-16 0)
(3 1.14681e-14 0)
(3 7.7664e-13 0)
(3 5.18638e-11 0)
(3 3.2317e-09 0)
(3 2.0452e-07 0)
(2.9999 1.32772e-05 0)
(2.99304 0.000739605 0)
(2.34371 0.0781212 0)
(0.91545 0.132927 0)
(0.646923 0.0338935 0)
(0.616776 0.0745075 0)
(0.604476 0.12224 0)
(0.587223 0.146737 0)
(0.572351 0.143177 0)
(0.559336 0.122903 0)
(0.539694 0.0988924 0)
(0.513953 0.0927232 0)
(0.491942 0.104212 0)
(0.471623 0.119251 0)
(0.450901 0.124067 0)
(0.432693 0.119357 0)
(0.413994 0.116012 0)
(0.393858 0.117116 0)
(0.371875 0.119267 0)
(0.348654 0.120204 0)
(0.325772 0.120505 0)
(0.304568 0.120786 0)
(0.285609 0.121083 0)
(0.26864 0.121855 0)
(0.252846 0.123366 0)
(0.237238 0.12554 0)
(0.220741 0.128185 0)
(0.202596 0.132245 0)
(0.182301 0.136408 0)
(0.160273 0.138106 0)
(0.137413 0.135884 0)
(0.113721 0.130807 0)
(0.0916098 0.127148 0)
(0.0698855 0.12565 0)
(0.0493933 0.126645 0)
(0.0276131 0.125796 0)
(0.00801396 0.12458 0)
(3 9.45798e-17 0)
(3 2.06941e-16 0)
(3 2.88981e-16 0)
(3 -7.69632e-17 0)
(3 -1.88055e-16 0)
(3 -1.09233e-15 0)
(3 -5.39829e-16 0)
(3 -5.63963e-16 0)
(3 8.53098e-17 0)
(3 9.08709e-16 0)
(3 7.19572e-16 0)
(3 -2.30852e-16 0)
(3 -5.1842e-16 0)
(3 -7.97522e-16 0)
(3 -1.14402e-15 0)
(3 -1.02579e-15 0)
(3 -7.97858e-16 0)
(3 -1.61012e-15 0)
(3 -1.86535e-15 0)
(3 -1.6659e-15 0)
(3 -1.33147e-15 0)
(3 -9.96348e-16 0)
(3 -5.85022e-16 0)
(3 -2.75484e-16 0)
(3 -4.16962e-16 0)
(3 -2.0185e-16 0)
(3 1.63135e-16 0)
(3 5.5059e-16 0)
(3 8.37255e-16 0)
(3 5.80828e-16 0)
(3 3.90448e-17 0)
(3 -5.57576e-16 0)
(3 -1.9093e-16 0)
(3 -2.99075e-16 0)
(3 -2.86734e-17 0)
(3 -9.84828e-16 0)
(3 -3.71078e-16 0)
(3 -5.44983e-16 0)
(3 -1.26902e-15 0)
(3 -7.43245e-16 0)
(3 -5.97075e-16 0)
(3 4.15535e-16 0)
(3 4.8519e-16 0)
(3 6.61402e-16 0)
(3 -9.35207e-17 0)
(3 1.1175e-16 0)
(3 1.4918e-16 0)
(3 5.84213e-16 0)
(3 5.64896e-16 0)
(3 9.41569e-16 0)
(3 1.4733e-15 0)
(3 1.36178e-15 0)
(3 1.07765e-15 0)
(3 3.29646e-16 0)
(3 1.19336e-14 0)
(3 7.68423e-13 0)
(3 5.34132e-11 0)
(3 3.39079e-09 0)
(3 2.30122e-07 0)
(2.99992 1.42528e-05 0)
(2.99464 0.000876602 0)
(2.45278 0.0913941 0)
(0.962971 0.14209 0)
(0.66765 0.0394137 0)
(0.62907 0.0929446 0)
(0.610053 0.143026 0)
(0.592698 0.162807 0)
(0.580328 0.158915 0)
(0.568224 0.142055 0)
(0.548927 0.121024 0)
(0.52233 0.113866 0)
(0.497879 0.123743 0)
(0.47598 0.13777 0)
(0.454418 0.141845 0)
(0.435654 0.136693 0)
(0.416622 0.13323 0)
(0.396426 0.134726 0)
(0.374456 0.13744 0)
(0.351149 0.138692 0)
(0.328105 0.139129 0)
(0.306694 0.139586 0)
(0.287492 0.140094 0)
(0.270221 0.140988 0)
(0.254023 0.142429 0)
(0.237938 0.144395 0)
(0.22099 0.147067 0)
(0.202541 0.151788 0)
(0.182077 0.156999 0)
(0.159912 0.159567 0)
(0.136993 0.157693 0)
(0.113273 0.152326 0)
(0.0911246 0.14817 0)
(0.0694113 0.146391 0)
(0.0489427 0.147222 0)
(0.0278731 0.146363 0)
(0.00729911 0.14572 0)
(3 7.3044e-17 0)
(3 5.92931e-16 0)
(3 1.53014e-16 0)
(3 1.71271e-16 0)
(3 -3.14051e-16 0)
(3 -1.50246e-16 0)
(3 2.60098e-16 0)
(3 -1.2664e-16 0)
(3 2.73406e-16 0)
(3 3.54446e-16 0)
(3 3.44212e-16 0)
(3 1.65523e-16 0)
(3 1.08268e-16 0)
(3 -5.50208e-17 0)
(3 2.54673e-16 0)
(3 4.27967e-16 0)
(3 7.72661e-16 0)
(3 1.0168e-15 0)
(3 6.40179e-16 0)
(3 4.6373e-17 0)
(3 -2.85106e-17 0)
(3 5.53699e-16 0)
(3 3.18196e-16 0)
(3 -4.27191e-16 0)
(3 -4.118e-16 0)
(3 -4.49085e-16 0)
(3 -7.04333e-16 0)
(3 -5.32962e-16 0)
(3 -1.62278e-15 0)
(3 -1.52697e-15 0)
(3 -1.46214e-15 0)
(3 -1.01673e-15 0)
(3 -7.46992e-16 0)
(3 -4.40391e-16 0)
(3 -2.2356e-16 0)
(3 2.28465e-16 0)
(3 1.86101e-16 0)
(3 -8.58976e-16 0)
(3 -1.57087e-15 0)
(3 -1.12405e-15 0)
(3 -4.93286e-16 0)
(3 2.92726e-16 0)
(3 6.63354e-17 0)
(3 2.53726e-16 0)
(3 9.13692e-16 0)
(3 1.12998e-15 0)
(3 8.65274e-16 0)
(3 8.65847e-16 0)
(3 8.78787e-16 0)
(3 1.11392e-15 0)
(3 1.87737e-15 0)
(3 1.49258e-15 0)
(3 9.60592e-16 0)
(3 7.09771e-16 0)
(3 9.11999e-15 0)
(3 5.92513e-13 0)
(3 4.39814e-11 0)
(3 2.97272e-09 0)
(3 2.17046e-07 0)
(2.99995 1.35686e-05 0)
(2.99637 0.00096363 0)
(2.58417 0.0992216 0)
(1.03489 0.130376 0)
(0.684258 0.0561838 0)
(0.627555 0.120391 0)
(0.607423 0.163817 0)
(0.591811 0.176782 0)
(0.580052 0.172874 0)
(0.566961 0.159197 0)
(0.548222 0.142005 0)
(0.523308 0.135688 0)
(0.499679 0.144308 0)
(0.478409 0.157032 0)
(0.457243 0.160419 0)
(0.438445 0.154832 0)
(0.419226 0.150917 0)
(0.399006 0.152459 0)
(0.377244 0.155581 0)
(0.354191 0.15712 0)
(0.331364 0.157724 0)
(0.310063 0.158435 0)
(0.290839 0.159286 0)
(0.273407 0.160474 0)
(0.2569 0.162053 0)
(0.240377 0.163941 0)
(0.222941 0.166653 0)
(0.204053 0.171852 0)
(0.183204 0.17783 0)
(0.160625 0.180997 0)
(0.137311 0.179315 0)
(0.113362 0.173659 0)
(0.0909274 0.169092 0)
(0.0691117 0.167137 0)
(0.048433 0.167914 0)
(0.0287058 0.16697 0)
(0.0071125 0.167567 0)
(3 -1.1326e-17 0)
(3 -1.00984e-16 0)
(3 -1.96386e-16 0)
(3 -1.74563e-16 0)
(3 -8.56855e-17 0)
(3 4.25839e-16 0)
(3 1.11978e-16 0)
(3 1.86421e-16 0)
(3 -2.53997e-16 0)
(3 -2.95266e-16 0)
(3 -4.9836e-16 0)
(3 1.23794e-16 0)
(3 3.47065e-16 0)
(3 1.42705e-15 0)
(3 1.95616e-15 0)
(3 2.53326e-15 0)
(3 2.29742e-15 0)
(3 1.91138e-15 0)
(3 1.02937e-15 0)
(3 5.75254e-16 0)
(3 7.45975e-16 0)
(3 6.09356e-16 0)
(3 4.23893e-16 0)
(3 -6.65715e-16 0)
(3 -1.11724e-15 0)
(3 -1.23821e-15 0)
(3 -1.50535e-15 0)
(3 -9.75074e-16 0)
(3 -7.35425e-16 0)
(3 -5.50754e-16 0)
(3 -6.86706e-16 0)
(3 1.37302e-16 0)
(3 2.18523e-16 0)
(3 3.76371e-16 0)
(3 3.59261e-16 0)
(3 1.86425e-15 0)
(3 2.13328e-15 0)
(3 2.24521e-15 0)
(3 2.50155e-15 0)
(3 1.06903e-15 0)
(3 4.7839e-16 0)
(3 9.73917e-17 0)
(3 -1.63368e-16 0)
(3 -6.59276e-16 0)
(3 -4.91637e-16 0)
(3 -5.44257e-16 0)
(3 -5.83154e-16 0)
(3 -1.12719e-15 0)
(3 -6.33166e-16 0)
(3 -5.27505e-16 0)
(3 -2.20023e-16 0)
(3 9.36017e-16 0)
(3 1.66907e-15 0)
(3 2.26304e-15 0)
(3 6.37666e-15 0)
(3 3.16552e-13 0)
(3 2.51048e-11 0)
(3 1.87592e-09 0)
(3 1.44486e-07 0)
(2.99997 9.9475e-06 0)
(2.99799 0.000779115 0)
(2.74685 0.0841954 0)
(1.125 0.103597 0)
(0.702955 0.0961328 0)
(0.618185 0.150384 0)
(0.601891 0.180954 0)
(0.589656 0.189115 0)
(0.577784 0.185956 0)
(0.563262 0.174658 0)
(0.544704 0.160112 0)
(0.521618 0.154909 0)
(0.499906 0.163166 0)
(0.480116 0.175401 0)
(0.459709 0.178938 0)
(0.44107 0.173319 0)
(0.421874 0.168856 0)
(0.401778 0.170137 0)
(0.380439 0.173469 0)
(0.357868 0.175284 0)
(0.335401 0.176166 0)
(0.314247 0.177303 0)
(0.294959 0.178687 0)
(0.27731 0.180364 0)
(0.260464 0.182289 0)
(0.243494 0.184246 0)
(0.225546 0.187013 0)
(0.206128 0.19251 0)
(0.184758 0.198989 0)
(0.161606 0.202529 0)
(0.137718 0.200962 0)
(0.113574 0.195053 0)
(0.0907585 0.190122 0)
(0.0689272 0.188067 0)
(0.0478873 0.189014 0)
(0.0299866 0.188286 0)
(0.00757252 0.188701 0)
(3 -1.95934e-16 0)
(3 -4.42483e-16 0)
(3 2.2109e-16 0)
(3 -3.79851e-16 0)
(3 6.59631e-16 0)
(3 7.77284e-16 0)
(3 1.32967e-15 0)
(3 1.79834e-15 0)
(3 1.11003e-15 0)
(3 4.87845e-16 0)
(3 6.02757e-16 0)
(3 5.49604e-16 0)
(3 8.51619e-17 0)
(3 -1.62417e-17 0)
(3 1.0191e-16 0)
(3 2.9825e-16 0)
(3 3.97851e-16 0)
(3 1.12121e-16 0)
(3 -1.43415e-16 0)
(3 -9.89323e-17 0)
(3 -3.61667e-16 0)
(3 -4.3723e-16 0)
(3 -5.14534e-16 0)
(3 2.53413e-17 0)
(3 2.78515e-17 0)
(3 3.13656e-16 0)
(3 5.27069e-16 0)
(3 9.37683e-16 0)
(3 1.16163e-15 0)
(3 1.15862e-15 0)
(3 -2.17994e-16 0)
(3 -8.3493e-16 0)
(3 -7.44777e-16 0)
(3 -4.45089e-16 0)
(3 -1.57397e-16 0)
(3 1.04588e-15 0)
(3 1.09274e-15 0)
(3 2.16648e-15 0)
(3 2.07226e-15 0)
(3 1.45518e-15 0)
(3 1.25184e-15 0)
(3 7.66868e-16 0)
(3 6.8387e-16 0)
(3 -5.67751e-16 0)
(3 -1.74511e-15 0)
(3 -1.91719e-15 0)
(3 -1.90211e-15 0)
(3 -1.03056e-15 0)
(3 -5.83764e-16 0)
(3 -1.41309e-15 0)
(3 -2.13965e-15 0)
(3 -2.6106e-15 0)
(3 -2.51065e-15 0)
(3 -1.45655e-15 0)
(3 3.68173e-16 0)
(3 9.49898e-14 0)
(3 8.5092e-12 0)
(3 6.44135e-10 0)
(3 5.09099e-08 0)
(2.99999 4.25556e-06 0)
(2.99904 0.000334783 0)
(2.88773 0.0426495 0)
(1.20881 0.0671747 0)
(0.719099 0.159565 0)
(0.614981 0.179635 0)
(0.598872 0.194225 0)
(0.59041 0.199859 0)
(0.578735 0.198735 0)
(0.563472 0.189936 0)
(0.544987 0.177127 0)
(0.522801 0.172479 0)
(0.502058 0.180634 0)
(0.483021 0.193042 0)
(0.462867 0.197351 0)
(0.444226 0.191945 0)
(0.425154 0.186862 0)
(0.405243 0.187634 0)
(0.384369 0.191046 0)
(0.362287 0.193221 0)
(0.340126 0.194577 0)
(0.319045 0.196339 0)
(0.299649 0.19841 0)
(0.281815 0.200682 0)
(0.264761 0.20306 0)
(0.247535 0.20517 0)
(0.229255 0.207968 0)
(0.209412 0.213593 0)
(0.187551 0.220347 0)
(0.163837 0.224125 0)
(0.139424 0.222712 0)
(0.114952 0.216674 0)
(0.0917748 0.211461 0)
(0.0699006 0.209425 0)
(0.0485691 0.210763 0)
(0.0310855 0.210895 0)
(0.0079334 0.208523 0)
(3 -3.01786e-16 0)
(3 7.34973e-17 0)
(3 2.50915e-16 0)
(3 5.7081e-16 0)
(3 6.14446e-16 0)
(3 4.38428e-16 0)
(3 3.55146e-16 0)
(3 4.83957e-16 0)
(3 5.0649e-16 0)
(3 2.95924e-17 0)
(3 1.3988e-16 0)
(3 -2.29118e-16 0)
(3 -1.17623e-15 0)
(3 -1.73143e-15 0)
(3 -1.54773e-15 0)
(3 -1.28961e-15 0)
(3 -8.0342e-16 0)
(3 -1.76705e-16 0)
(3 -1.19932e-16 0)
(3 -3.35455e-16 0)
(3 -5.33687e-16 0)
(3 -8.87607e-16 0)
(3 -4.28405e-16 0)
(3 -3.20657e-16 0)
(3 5.44705e-16 0)
(3 1.33803e-15 0)
(3 1.68273e-15 0)
(3 1.16057e-15 0)
(3 6.79769e-16 0)
(3 8.09422e-16 0)
(3 1.81296e-15 0)
(3 1.40286e-15 0)
(3 1.39553e-15 0)
(3 1.31031e-15 0)
(3 1.05046e-15 0)
(3 5.18027e-16 0)
(3 -3.17079e-16 0)
(3 -6.45859e-17 0)
(3 -3.75313e-16 0)
(3 5.74377e-16 0)
(3 6.10987e-16 0)
(3 5.40262e-16 0)
(3 3.29135e-16 0)
(3 -7.78923e-17 0)
(3 -2.77355e-16 0)
(3 -1.36169e-15 0)
(3 -9.38461e-16 0)
(3 -5.37249e-16 0)
(3 -1.07156e-16 0)
(3 -3.62522e-16 0)
(3 -1.77336e-15 0)
(3 -2.29411e-15 0)
(3 -2.82002e-15 0)
(3 -2.65326e-15 0)
(3 -1.78834e-15 0)
(3 2.26051e-14 0)
(3 3.17292e-12 0)
(3 1.37431e-10 0)
(3 1.35956e-08 0)
(2.99999 8.75657e-07 0)
(2.99945 5.35818e-05 0)
(2.96599 0.00735405 0)
(1.27993 0.0496033 0)
(0.727553 0.224709 0)
(0.619031 0.209597 0)
(0.601687 0.204105 0)
(0.595188 0.208387 0)
(0.5843 0.209604 0)
(0.568669 0.203865 0)
(0.549763 0.192967 0)
(0.527352 0.189155 0)
(0.506303 0.197735 0)
(0.486973 0.210765 0)
(0.466578 0.215878 0)
(0.447973 0.210571 0)
(0.42925 0.204784 0)
(0.409643 0.204922 0)
(0.389227 0.208389 0)
(0.367548 0.211074 0)
(0.34558 0.213099 0)
(0.324494 0.215623 0)
(0.304976 0.21844 0)
(0.287003 0.221322 0)
(0.26982 0.224172 0)
(0.2524 0.226487 0)
(0.233777 0.229302 0)
(0.213411 0.234966 0)
(0.190898 0.241886 0)
(0.166504 0.24592 0)
(0.141511 0.244788 0)
(0.11651 0.238806 0)
(0.0931164 0.233444 0)
(0.071243 0.231453 0)
(0.0499713 0.232992 0)
(0.0300935 0.233791 0)
(0.0073485 0.228572 0)
(3 -5.36846e-18 0)
(3 2.24836e-16 0)
(3 -3.82344e-16 0)
(3 2.24487e-16 0)
(3 6.74234e-16 0)
(3 7.31674e-16 0)
(3 7.43041e-16 0)
(3 3.75886e-16 0)
(3 -5.88488e-16 0)
(3 -1.00396e-15 0)
(3 -6.67749e-16 0)
(3 -5.03262e-16 0)
(3 -5.74403e-17 0)
(3 -2.86403e-16 0)
(3 -7.43401e-17 0)
(3 -8.17145e-16 0)
(3 -9.15226e-16 0)
(3 -8.17785e-16 0)
(3 -3.28412e-16 0)
(3 -1.28415e-16 0)
(3 3.88477e-16 0)
(3 2.83606e-16 0)
(3 1.48452e-16 0)
(3 5.48408e-16 0)
(3 5.60366e-16 0)
(3 6.04881e-16 0)
(3 5.68892e-16 0)
(3 1.89349e-16 0)
(3 5.55129e-16 0)
(3 1.05506e-15 0)
(3 2.20775e-15 0)
(3 2.7559e-15 0)
(3 2.46112e-15 0)
(3 2.06995e-15 0)
(3 9.40417e-16 0)
(3 -1.31026e-15 0)
(3 -9.28794e-16 0)
(3 -8.19811e-16 0)
(3 -1.49514e-16 0)
(3 1.33474e-15 0)
(3 1.47189e-15 0)
(3 1.50607e-15 0)
(3 4.62949e-16 0)
(3 6.16155e-16 0)
(3 2.28181e-16 0)
(3 -5.91357e-16 0)
(3 -7.89557e-16 0)
(3 -2.33893e-15 0)
(3 -2.39569e-15 0)
(3 -2.28637e-15 0)
(3 -1.90877e-15 0)
(3 -1.56179e-15 0)
(3 -1.13113e-15 0)
(3 -1.10146e-15 0)
(3 -6.38292e-16 0)
(3 1.93064e-14 0)
(3 2.61287e-12 0)
(3 6.88344e-11 0)
(3 8.95153e-09 0)
(2.99999 2.84964e-07 0)
(2.99953 2.77288e-05 0)
(2.97116 0.00131551 0)
(1.35386 0.0583223 0)
(0.725981 0.280196 0)
(0.62328 0.234453 0)
(0.611989 0.211795 0)
(0.605829 0.212778 0)
(0.595691 0.217468 0)
(0.578168 0.217207 0)
(0.556895 0.209375 0)
(0.532848 0.206683 0)
(0.510587 0.215723 0)
(0.490644 0.229073 0)
(0.470258 0.234335 0)
(0.452258 0.228773 0)
(0.434236 0.222357 0)
(0.415008 0.222028 0)
(0.394882 0.225733 0)
(0.373347 0.229149 0)
(0.35135 0.231991 0)
(0.330148 0.235323 0)
(0.310492 0.238858 0)
(0.292411 0.242294 0)
(0.275134 0.245587 0)
(0.257534 0.248141 0)
(0.238542 0.250972 0)
(0.217637 0.25662 0)
(0.194512 0.263654 0)
(0.169573 0.268059 0)
(0.144122 0.267368 0)
(0.118825 0.261597 0)
(0.0952827 0.256189 0)
(0.0730865 0.254009 0)
(0.051298 0.255299 0)
(0.0294081 0.256314 0)
(0.00592879 0.249895 0)
(3 6.22435e-17 0)
(3 -2.32512e-16 0)
(3 -9.02067e-16 0)
(3 -1.00988e-15 0)
(3 -8.29657e-16 0)
(3 5.20701e-17 0)
(3 1.0948e-16 0)
(3 3.42586e-16 0)
(3 -1.54229e-16 0)
(3 1.53081e-16 0)
(3 1.47634e-16 0)
(3 7.43712e-17 0)
(3 1.15201e-15 0)
(3 1.16963e-15 0)
(3 6.46291e-16 0)
(3 -3.7099e-17 0)
(3 -7.43182e-16 0)
(3 -9.15632e-16 0)
(3 -4.04548e-16 0)
(3 2.31567e-16 0)
(3 2.05112e-16 0)
(3 3.04322e-16 0)
(3 6.60711e-17 0)
(3 8.8447e-16 0)
(3 1.35155e-15 0)
(3 7.67317e-16 0)
(3 1.40083e-15 0)
(3 8.63105e-16 0)
(3 6.66499e-16 0)
(3 6.79124e-16 0)
(3 2.50936e-16 0)
(3 1.6344e-16 0)
(3 -2.38596e-16 0)
(3 -8.83401e-16 0)
(3 -1.0707e-15 0)
(3 -1.02662e-15 0)
(3 -7.30636e-16 0)
(3 -4.47526e-16 0)
(3 -2.52431e-16 0)
(3 1.89695e-16 0)
(3 4.74895e-16 0)
(3 6.08798e-16 0)
(3 4.47491e-16 0)
(3 7.57663e-16 0)
(3 7.41343e-16 0)
(3 7.24046e-16 0)
(3 1.62848e-16 0)
(3 -3.51918e-16 0)
(3 -1.15354e-15 0)
(3 -7.44457e-16 0)
(3 -9.03494e-17 0)
(3 5.8746e-17 0)
(3 -1.32341e-16 0)
(3 -8.92029e-16 0)
(3 -5.16486e-16 0)
(3 3.14066e-14 0)
(3 3.10599e-12 0)
(3 8.98874e-11 0)
(3 1.10699e-08 0)
(2.99999 2.77504e-07 0)
(2.99958 3.49983e-05 0)
(2.97394 0.00114723 0)
(1.44418 0.0948831 0)
(0.719113 0.321488 0)
(0.634525 0.248069 0)
(0.629871 0.216709 0)
(0.622905 0.21539 0)
(0.611703 0.225673 0)
(0.588876 0.234231 0)
(0.562789 0.229295 0)
(0.536306 0.226389 0)
(0.512907 0.234817 0)
(0.493031 0.247573 0)
(0.473518 0.25216 0)
(0.456908 0.24615 0)
(0.439845 0.23953 0)
(0.421015 0.23925 0)
(0.400984 0.24353 0)
(0.379357 0.24784 0)
(0.357203 0.251488 0)
(0.335889 0.255512 0)
(0.316182 0.259631 0)
(0.298084 0.263506 0)
(0.280759 0.267175 0)
(0.262963 0.269988 0)
(0.243554 0.272863 0)
(0.222076 0.278495 0)
(0.198361 0.285686 0)
(0.17297 0.290663 0)
(0.147046 0.290615 0)
(0.121585 0.28516 0)
(0.097608 0.27969 0)
(0.0746006 0.277034 0)
(0.0517918 0.277699 0)
(0.0292179 0.279031 0)
(0.00394068 0.27248 0)
(3 5.34114e-17 0)
(3 -1.91661e-16 0)
(3 -3.65377e-16 0)
(3 -3.4275e-16 0)
(3 -1.29103e-15 0)
(3 -1.01378e-15 0)
(3 -1.20882e-15 0)
(3 -3.89786e-16 0)
(3 -1.41343e-18 0)
(3 2.86107e-16 0)
(3 5.09735e-17 0)
(3 -1.40266e-16 0)
(3 -4.88351e-16 0)
(3 9.34782e-17 0)
(3 3.43765e-17 0)
(3 2.248e-16 0)
(3 -7.79016e-18 0)
(3 -8.89608e-17 0)
(3 -2.59566e-16 0)
(3 -2.44168e-16 0)
(3 -6.85263e-16 0)
(3 -1.02758e-15 0)
(3 -8.53959e-16 0)
(3 -1.32955e-15 0)
(3 -5.36409e-16 0)
(3 -3.27679e-16 0)
(3 -1.29957e-16 0)
(3 -3.09583e-16 0)
(3 -5.93812e-17 0)
(3 4.22393e-17 0)
(3 3.75513e-16 0)
(3 3.6436e-16 0)
(3 7.90698e-16 0)
(3 6.44873e-16 0)
(3 6.39852e-16 0)
(3 7.48368e-16 0)
(3 2.34034e-16 0)
(3 6.28316e-17 0)
(3 -5.44141e-16 0)
(3 -8.30954e-16 0)
(3 -1.13799e-15 0)
(3 -9.09661e-16 0)
(3 -1.1108e-16 0)
(3 4.14414e-16 0)
(3 8.4736e-16 0)
(3 1.5896e-15 0)
(3 5.73388e-16 0)
(3 1.20129e-15 0)
(3 8.22206e-16 0)
(3 1.16091e-15 0)
(3 1.59004e-15 0)
(3 2.21281e-15 0)
(3 1.46017e-15 0)
(3 1.34697e-15 0)
(3 1.68074e-15 0)
(3 4.47356e-14 0)
(3 3.56426e-12 0)
(3 1.37287e-10 0)
(3 1.36644e-08 0)
(2.99999 3.7986e-07 0)
(2.99963 4.83304e-05 0)
(2.97718 0.00117837 0)
(1.56151 0.153312 0)
(0.722236 0.344811 0)
(0.654539 0.245322 0)
(0.653755 0.21462 0)
(0.645837 0.218639 0)
(0.628229 0.24232 0)
(0.595582 0.258767 0)
(0.564948 0.252993 0)
(0.537606 0.24744 0)
(0.514627 0.253925 0)
(0.496122 0.265245 0)
(0.478259 0.268619 0)
(0.463232 0.262233 0)
(0.446835 0.256105 0)
(0.428161 0.256624 0)
(0.407931 0.261918 0)
(0.385937 0.267244 0)
(0.363483 0.271581 0)
(0.342046 0.276098 0)
(0.322338 0.280635 0)
(0.304247 0.284837 0)
(0.286847 0.288834 0)
(0.268781 0.291931 0)
(0.248895 0.294934 0)
(0.226858 0.30062 0)
(0.202709 0.308075 0)
(0.177085 0.313817 0)
(0.150782 0.314559 0)
(0.125193 0.309415 0)
(0.100433 0.303715 0)
(0.0762205 0.30047 0)
(0.0529569 0.300452 0)
(0.0291689 0.302557 0)
(0.00267593 0.296299 0)
(3 1.41394e-17 0)
(3 -7.29861e-17 0)
(3 4.41376e-16 0)
(3 3.78687e-16 0)
(3 2.42526e-16 0)
(3 -4.50346e-16 0)
(3 -3.87271e-16 0)
(3 -1.0416e-15 0)
(3 -7.62366e-16 0)
(3 -6.3462e-16 0)
(3 2.72707e-17 0)
(3 5.85646e-16 0)
(3 5.46403e-16 0)
(3 1.93847e-16 0)
(3 4.49855e-17 0)
(3 -1.53136e-16 0)
(3 -9.6385e-17 0)
(3 -7.12499e-16 0)
(3 -1.25195e-15 0)
(3 -1.37979e-15 0)
(3 -1.5225e-15 0)
(3 -1.5536e-15 0)
(3 -6.57799e-16 0)
(3 -2.78674e-16 0)