/*--------------------------------*- C++ -*----------------------------------*\
| =========                 |                                                 |
| \\      /  F ield         | OpenFOAM: The Open Source CFD Toolbox           |
|  \\    /   O peration     | Version:  v1812                                 |
|   \\  /    A nd           | Web:      www.OpenFOAM.com                      |
|    \\/     M anipulation  |                                                 |
\*---------------------------------------------------------------------------*/
FoamFile
{
    version     2.0;
    format      ascii;
    class       volScalarField;
    location    "0.012";
    object      p;
}
// * * * * * * * * * * * * * * * * * * * * * * * * * * * * * * * * * * * * * //

dimensions      [1 -1 -2 0 0 0 0];


internalField   nonuniform List<scalar> 
800
(
100
100
100
100
100
100
100
100
100
100
100
100
100
100
100
100
100
100
100
100
100
100
100
100
100
100
100
100
100
100
100
100
100
100
100
100
100
100
100
100
100
100
100
100
100
100
100
100
100
100
100
100
100
100
100
100
100
100
100
100
100
100
100
100
100
100
100
100
100
100
100
100
100
100
100
100
100
100
100
100
100
100
100
100
100
100
100
100
100
100
100
100
100
100
100
100
100
100
100
100
100
100
100
100
100
100
100
100
100
100
100
100
100
100
100
100
100
100
100
100
100
100
100
100
100
100
100
100
100
100
100
100
100
100
100
100
100
100
100
100
100
100
100
100
100
100
100
100
100
100
100
100
100
100
100
100
100
100
100
100
100
100
100
100
100
100
100
100
100
100
100
100
100
100
100
100
100
100
100
100
100
100
100
100
100
100
100
100
100
100
100
100
100
100
100
100
100
100
100
100
100
100
100
100
100
100
100
100
100
100
100
100
100
100
100
100
100
100
100
100
100
100
100
100
100
100
100
100
100
100
100
100
100
100
100
100
100
100
100
100
100
100
100
100
100
100
100
100
100
100
99.9999
99.9999
99.9998
99.9997
99.9996
99.9993
99.9989
99.9982
99.9972
99.9957
99.9934
99.9898
99.9851
99.9775
99.9673
99.9526
99.9333
99.9061
99.8719
99.8254
99.7681
99.6934
99.608
99.4976
99.3643
99.2045
99.0326
98.8172
98.5903
98.3227
98.0211
97.6927
97.3561
96.9662
96.5566
96.114
95.6472
95.156
94.6058
94.0387
93.3992
92.7876
92.1383
91.4655
90.7553
90.0204
89.2552
88.526
87.8024
87.0374
86.2665
85.46
84.6363
83.9127
83.0935
82.3875
81.5674
80.8012
80.0168
79.2314
78.4918
77.7524
77.0274
76.2485
75.4749
74.6058
73.7521
73.0404
72.3853
71.7765
71.0893
70.1828
69.3693
68.561
67.8367
67.2074
66.6018
65.8674
65.1551
64.4352
63.6919
62.958
62.3846
61.6961
61.0454
60.4019
59.6803
58.908
58.3798
57.6873
57.0623
56.4536
55.7653
55.1596
54.6697
54.0066
53.3987
52.9047
52.3747
51.7451
51.2531
50.7807
50.2894
49.8305
49.415
49.0357
48.7033
48.4432
48.2469
48.1064
48.0232
47.9778
47.9619
47.9629
47.9672
47.9849
48.0276
48.0916
48.1561
48.2124
48.2608
48.3037
48.3432
48.3792
48.4104
48.436
48.4561
48.4737
48.4882
48.5011
48.5104
48.5179
48.5235
48.5272
48.5293
48.5302
48.5301
48.5301
48.5295
48.5282
48.5269
48.526
48.5263
48.5278
48.5302
48.5342
48.5396
48.5449
48.5484
48.5501
48.5509
48.5509
48.5497
48.5465
48.542
48.5368
48.5313
48.5253
48.5184
48.5102
48.5003
48.489
48.4771
48.4654
48.4542
48.4432
48.4318
48.4196
48.4065
48.3927
48.3786
48.3646
48.3511
48.3382
48.3262
48.315
48.3049
48.2958
48.2878
48.2808
48.2747
48.2691
48.2638
48.2584
48.2528
48.2468
48.241
48.2359
48.2316
48.2281
48.2249
48.2216
48.2184
48.2151
48.2123
48.2095
48.2081
48.2065
48.2057
48.2061
48.2066
48.208
48.2124
48.221
48.2355
48.253
48.272
48.2968
48.3056
48.2922
48.3017
48.3575
48.3951
48.4042
48.3571
48.1218
47.322
45.0168
39.3542
25.9617
7.00352
0.0905671
0.00997536
0.00999992
0.01
0.01
0.01
0.01
0.01
0.01
0.01
0.01
0.01
0.01
0.01
0.01
0.01
0.01
0.01
0.01
0.01
0.01
0.01
0.01
0.01
0.01
0.01
0.01
0.01
0.01
0.01
0.01
0.01
0.01
0.01
0.01
0.01
0.01
0.01
0.01
0.01
0.01
0.01
0.01
0.01
0.01
0.01
0.01
0.01
0.01
0.01
0.01
0.01
0.01
0.01
0.01
0.01
0.01
0.01
0.01
0.01
0.01
0.01
0.01
0.01
0.01
0.01
0.01
0.01
0.01
0.01
0.01
0.01
0.01
0.01
0.01
0.01
0.01
0.01
0.01
0.01
0.01
0.01
0.01
0.01
0.01
0.01
0.01
0.01
0.01
0.01
0.01
0.01
0.01
0.01
0.01
0.01
0.01
0.01
0.01
0.01
0.01
0.01
0.01
0.01
0.01
0.01
0.01
0.01
0.01
0.01
0.01
0.01
0.01
0.01
0.01
0.01
0.01
0.01
0.01
0.01
0.01
0.01
0.01
0.01
0.01
0.01
0.01
0.01
0.01
0.01
0.01
0.01
0.01
0.01
0.01
0.01
0.01
0.01
0.01
0.01
0.01
0.01
0.01
0.01
0.01
0.01
0.01
0.01
0.01
0.01
0.01
0.01
0.01
0.01
0.01
0.01
0.01
0.01
0.01
0.01
0.01
0.01
0.01
0.01
0.01
0.01
0.01
0.01
0.01
0.01
0.01
0.01
0.01
0.01
0.01
0.01
0.01
0.01
0.01
0.01
0.01
0.01
0.01
0.01
0.01
0.01
0.01
0.01
0.01
0.01
0.01
0.01
0.01
0.01
0.01
0.01
0.01
0.01
0.01
0.01
0.01
0.01
0.01
0.01
0.01
0.01
0.01
0.01
0.01
0.01
0.01
0.01
0.01
0.01
0.01
0.01
0.01
0.01
0.01
0.01
0.01
0.01
0.01
0.01
0.01
0.01
0.01
0.01
0.01
0.01
0.01
0.01
0.01
0.01
0.01
0.01
0.01
0.01
0.01
0.01
0.01
0.01
0.01
0.01
0.01
0.01
0.01
0.01
0.01
0.01
0.01
0.01
0.01
0.01
0.01
0.01
0.01
0.01
0.01
0.01
0.01
0.01
0.01
0.01
0.01
0.01
0.01
0.01
0.01
0.01
0.01
0.01
0.01
0.01
0.01
0.01
0.01
0.01
0.01
0.01
0.01
0.01
0.01
0.01
0.01
0.01
0.01
0.01
0.01
0.01
0.01
0.01
0.01
0.01
0.01
0.01
0.01
0.01
0.01
0.01
0.01
0.01
0.01
0.01
0.01
0.01
0.01
0.01
0.01
0.01
0.01
0.01
0.01
0.01
0.01
0.01
0.01
0.01
0.01
0.01
0.01
0.01
0.01
0.01
0.01
0.01
0.01
0.01
0.01
)
;

boundaryField
{
    sides
    {
        type            zeroGradient;
    }
    empty1
    {
        type            empty;
    }
    empty2
    {
        type            empty;
    }
}


// ************************************************************************* //
