/*--------------------------------*- C++ -*----------------------------------*\
| =========                 |                                                 |
| \\      /  F ield         | OpenFOAM: The Open Source CFD Toolbox           |
|  \\    /   O peration     | Version:  v1812                                 |
|   \\  /    A nd           | Web:      www.OpenFOAM.com                      |
|    \\/     M anipulation  |                                                 |
\*---------------------------------------------------------------------------*/
FoamFile
{
    version     2.0;
    format      ascii;
    class       surfaceScalarField;
    location    "0.012";
    object      phi;
}
// * * * * * * * * * * * * * * * * * * * * * * * * * * * * * * * * * * * * * //

dimensions      [1 0 -1 0 0 0 0];
oriented        oriented;


internalField   nonuniform List<scalar> 
799
(
-1.73472e-18
-1.73472e-18
-2.1684e-18
-1.30104e-18
-4.33681e-19
0
-8.67362e-19
8.67362e-19
-8.67362e-19
-1.30104e-18
-4.33681e-19
1.73472e-18
8.67362e-19
4.33681e-19
-4.33681e-19
8.67362e-19
1.30104e-18
4.33681e-19
2.1684e-18
1.30104e-18
-4.33681e-19
0
0
-8.67362e-19
-2.1684e-18
-1.73472e-18
-1.73472e-18
-2.1684e-18
-1.30104e-18
-1.73472e-18
-1.73472e-18
-5.20417e-18
-4.33681e-18
-2.60209e-18
-2.60209e-18
-4.33681e-18
-4.33681e-18
-4.77049e-18
-4.33681e-18
-6.07153e-18
-5.63785e-18
-4.77049e-18
-1.73472e-18
-2.60209e-18
-3.03577e-18
-1.73472e-18
-4.33681e-18
-4.33681e-18
-3.46945e-18
-3.90313e-18
-3.90313e-18
-2.60209e-18
-3.46945e-18
-3.46945e-18
-3.03577e-18
-1.73472e-18
-3.46945e-18
-3.90313e-18
-3.03577e-18
-3.46945e-18
-5.20417e-18
-6.07153e-18
-6.07153e-18
-3.46945e-18
-2.1684e-18
-3.03577e-18
0
-1.30104e-18
0
-8.67362e-19
1.73472e-18
-8.67362e-19
-3.90313e-18
-8.67362e-19
-4.77049e-18
-6.50521e-18
-5.20417e-18
-6.50521e-18
-6.50521e-18
-4.33681e-18
-4.77049e-18
-2.60209e-18
-4.33681e-18
-2.60209e-18
-2.60209e-18
-2.60209e-18
-3.46945e-18
-4.33681e-18
-5.63785e-18
-4.33681e-18
-2.60209e-18
-8.67362e-19
0
-1.73472e-18
-3.46945e-18
-4.33681e-18
-3.90313e-18
-2.60209e-18
-2.1684e-18
-8.67362e-19
0
0
-1.30104e-18
-1.30104e-18
-1.30104e-18
-1.73472e-18
-2.60209e-18
-3.03577e-18
-3.46945e-18
-4.33681e-18
-3.90313e-18
-5.20417e-18
-3.46945e-18
-3.03577e-18
-2.60209e-18
-2.1684e-18
0
-1.73472e-18
-2.60209e-18
-2.1684e-18
-3.03577e-18
-3.03577e-18
-2.1684e-18
-2.1684e-18
-2.1684e-18
-8.67362e-19
-1.30104e-18
-1.30104e-18
-1.73472e-18
4.33681e-19
0
-2.1684e-18
-1.30104e-18
-4.33681e-19
-4.33681e-19
1.73472e-18
8.67362e-19
-8.67362e-19
0
-8.67362e-19
-4.33681e-19
-2.1684e-18
-1.73472e-18
-2.1684e-18
-3.03577e-18
-1.30104e-18
-1.73472e-18
-1.30104e-18
-1.30104e-18
-4.33681e-19
-1.30104e-18
-1.73472e-18
0
8.67362e-19
-1.30104e-18
0
-1.73472e-18
-8.67362e-19
-1.73472e-18
-2.1684e-18
-2.60209e-18
-1.73472e-18
-1.30104e-18
-8.67362e-19
-2.1684e-18
-1.30104e-18
8.67362e-19
1.30104e-18
1.73472e-18
1.73472e-18
2.60209e-18
4.77049e-18
3.46945e-18
2.1684e-18
1.30104e-18
-1.30104e-18
-1.73472e-18
-2.1684e-18
-4.33681e-18
-4.77049e-18
-5.63785e-18
-5.63785e-18
-6.07153e-18
-5.63785e-18
-4.33681e-18
-2.60209e-18
-3.46945e-18
-4.33681e-18
-1.30104e-18
-2.1684e-18
-1.73472e-18
4.33681e-19
-8.67362e-19
8.67362e-19
4.33681e-19
8.67362e-19
1.73472e-18
2.60209e-18
2.60209e-18
2.1684e-18
2.1684e-18
0
-8.67362e-19
-3.03577e-18
-3.46945e-18
-1.30104e-18
-3.46945e-18
-3.03577e-18
-3.46945e-18
1.73472e-18
1.73472e-18
1.73472e-18
3.90313e-18
4.33681e-18
3.90313e-18
2.60209e-18
2.60209e-18
3.46945e-18
5.63785e-18
9.97466e-18
2.73219e-17
6.07153e-17
1.26201e-16
2.55872e-16
5.2432e-16
1.01742e-15
2.06475e-15
3.8307e-15
7.60459e-15
1.35382e-14
2.67416e-14
4.79677e-14
9.31377e-14
1.6466e-13
3.10215e-13
5.45659e-13
1.00076e-12
1.7635e-12
3.09713e-12
5.5536e-12
9.31575e-12
1.70941e-11
2.87498e-11
5.4464e-11
8.98561e-11
1.65586e-10
2.75953e-10
5.05134e-10
8.19874e-10
1.43517e-09
2.33018e-09
3.95e-09
6.48023e-09
1.10276e-08
1.78461e-08
2.98709e-08
4.68839e-08
7.46552e-08
1.12815e-07
1.77202e-07
2.64063e-07
4.08202e-07
5.96006e-07
8.959e-07
1.28144e-06
1.86427e-06
2.59889e-06
3.64152e-06
4.93838e-06
6.71202e-06
8.89484e-06
1.16771e-05
1.48767e-05
1.91619e-05
2.36584e-05
2.91943e-05
3.6105e-05
4.35821e-05
5.18572e-05
6.16683e-05
7.13361e-05
8.2068e-05
9.53017e-05
0.000108279
0.000122785
0.000137595
0.000153804
0.000170878
0.000188271
0.000205178
0.000227363
0.00024771
0.000269841
0.000291717
0.00031511
0.000339339
0.00036061
0.000385645
0.00040704
0.000432101
0.000454998
0.00047733
0.000502464
0.00052543
0.000550562
0.000573816
0.000596264
0.000620332
0.000642923
0.000665107
0.000684576
0.000704627
0.000725597
0.000746252
0.000774508
0.000798263
0.000820735
0.000836789
0.000852409
0.000866987
0.00088412
0.00091308
0.000935862
0.000956845
0.000971614
0.000984674
0.000998653
0.00102247
0.00104313
0.00106181
0.00107751
0.00108826
0.00110425
0.00112289
0.00113869
0.00115159
0.00116529
0.00117818
0.00119606
0.00121299
0.00122653
0.00123819
0.00124788
0.00125986
0.00127502
0.00129019
0.00130115
0.00130922
0.00131786
0.00132728
0.00133935
0.00135022
0.00136005
0.0013664
0.00137183
0.00137684
0.00138197
0.00138714
0.0013909
0.00139257
0.00139281
0.00139219
0.00139166
0.00139141
0.00139139
0.00139117
0.00139046
0.00138939
0.00138822
0.00138709
0.00138597
0.00138478
0.00138353
0.00138233
0.00138154
0.00138121
0.00138111
0.00138126
0.00138162
0.00138205
0.00138243
0.00138267
0.00138275
0.00138272
0.00138265
0.00138259
0.00138256
0.00138257
0.00138261
0.0013827
0.0013828
0.00138292
0.00138301
0.00138308
0.00138311
0.00138312
0.0013831
0.00138308
0.0013831
0.00138312
0.00138315
0.00138319
0.00138324
0.00138331
0.00138339
0.00138347
0.00138354
0.00138361
0.0013837
0.00138381
0.00138394
0.00138408
0.00138423
0.00138437
0.0013845
0.00138463
0.00138477
0.00138492
0.00138508
0.00138525
0.00138542
0.00138558
0.00138572
0.00138584
0.00138596
0.00138606
0.00138614
0.00138621
0.00138628
0.00138634
0.00138641
0.00138648
0.00138656
0.00138666
0.00138678
0.00138693
0.0013871
0.00138732
0.00138763
0.00138816
0.00138912
0.00139093
0.00139427
0.00140033
0.00141095
0.00142897
0.00145862
0.00150575
0.00157865
0.00168869
0.00185111
0.00208692
0.0024239
0.00289829
0.00355396
0.00443576
0.00557193
0.00694673
0.00847207
0.0100083
0.0114026
0.0125413
0.0133735
0.0139225
0.0142357
0.0143172
0.0140278
0.0130882
0.0105952
0.00545828
0.000711679
-1.81083e-05
-5.46866e-08
-8.21784e-12
-2.67948e-14
-8.60585e-19
2.37169e-19
1.18585e-19
6.43745e-20
-2.37169e-20
-1.76183e-19
-8.80914e-20
-1.35525e-20
9.82558e-20
6.43745e-20
7.45389e-20
2.84603e-19
7.7927e-20
1.11808e-19
2.71051e-20
-9.48677e-20
-1.05032e-19
-4.74338e-20
8.47033e-20
3.38813e-21
-1.0842e-19
-3.38813e-21
2.71051e-20
1.01644e-20
-1.01644e-20
-4.40457e-20
3.38813e-20
-1.01644e-20
2.37169e-20
4.06576e-20
-3.38813e-20
5.0822e-20
-3.38813e-21
-1.52466e-19
-4.40457e-20
1.28749e-19
4.74338e-20
-1.35525e-20
-2.37169e-20
-5.75982e-20
-3.38813e-21
4.74338e-20
1.69407e-20
-8.47033e-20
-6.77626e-21
6.77626e-21
6.43745e-20
-3.38813e-21
-3.38813e-21
-4.74338e-20
-1.96512e-19
-1.49078e-19
-5.0822e-20
1.11808e-19
1.86347e-19
2.03288e-20
4.74338e-20
3.38813e-20
-3.72694e-20
-1.01644e-20
6.77626e-20
6.09864e-20
-2.37169e-20
-4.74338e-20
-9.82558e-20
-9.82558e-20
-5.0822e-20
-7.11508e-20
6.43745e-20
3.38813e-20
8.47033e-20
7.7927e-20
5.42101e-20
-4.06576e-20
-4.74338e-20
-5.42101e-20
-6.09864e-20
-7.45389e-20
-2.37169e-20
-6.09864e-20
-5.0822e-20
1.35525e-20
1.15196e-19
1.35525e-20
-7.7927e-20
-4.06576e-20
9.82558e-20
6.77626e-21
6.43745e-20
-3.04932e-20
-5.42101e-20
-2.71051e-20
-5.42101e-20
-9.48677e-20
-6.09864e-20
8.80914e-20
1.01644e-19
4.06576e-20
6.77626e-21
-5.75982e-20
9.14796e-20
1.69407e-20
-2.71051e-20
-1.66018e-19
-2.27005e-19
-9.82558e-20
-2.03288e-20
1.05032e-19
1.4569e-19
1.01644e-19
2.37169e-20
7.45389e-20
4.74338e-20
1.35525e-20
-8.47033e-20
2.03288e-20
-2.37169e-20
-1.01644e-20
3.38813e-21
5.42101e-20
-4.06576e-20
-3.38813e-20
1.01644e-20
-1.999e-19
-1.32137e-19
6.43745e-20
6.43745e-20
-3.72694e-20
-6.09864e-20
2.71051e-20
8.80914e-20
6.77626e-21
3.38813e-21
-4.06576e-20
4.06576e-20
-6.77626e-21
-1.66018e-19
-8.47033e-20
6.77626e-20
1.59242e-19
5.75982e-20
6.77626e-21
1.69407e-20
-2.37169e-20
-2.03288e-20
3.38813e-21
1.01644e-20
-2.37169e-20
1.35525e-20
5.0822e-20
-2.03288e-20
2.37169e-20
-8.80914e-20
-1.66018e-19
-1.21973e-19
1.28749e-19
1.05032e-19
-4.06576e-20
-1.01644e-20
8.47033e-20
6.09864e-20
7.7927e-20
8.13152e-20
-1.69407e-20
-1.35525e-19
-1.28749e-19
-1.32137e-19
-1.28749e-19
7.11508e-20
1.6263e-19
8.47033e-20
7.11508e-20
1.01644e-20
4.74338e-20
0
-6.43745e-20
-1.11808e-19
-1.35525e-20
9.14796e-20
1.35525e-20
-1.01644e-20
-4.40457e-20
1.69407e-20
8.80914e-20
-4.40457e-20
-1.69407e-20
-2.71051e-20
-5.0822e-20
-6.77626e-20
-8.80914e-20
-1.25361e-19
2.37169e-20
3.04932e-20
3.72694e-20
1.01644e-19
1.4569e-19
-9.14796e-20
-1.38913e-19
-9.14796e-20
-3.72694e-20
-6.77626e-21
6.09864e-20
1.69407e-20
-7.45389e-20
-1.79571e-19
-1.4569e-19
-2.71051e-20
-2.37169e-20
7.7927e-20
8.80914e-20
2.27005e-19
1.25361e-19
6.77626e-20
-3.38813e-21
0
1.01644e-20
-3.72694e-20
-3.38813e-21
-4.40457e-20
1.01644e-20
5.75982e-20
1.01644e-20
-6.09864e-20
-3.38813e-21
-2.71051e-20
2.37169e-20
-6.77626e-21
5.42101e-20
3.38813e-21
-3.38813e-20
-5.75982e-20
-1.38913e-19
-1.66018e-19
-2.71051e-20
1.59242e-19
1.15196e-19
8.13152e-20
-1.69407e-20
4.40457e-20
-1.35525e-20
-8.13152e-20
-6.43745e-20
-8.80914e-20
2.37169e-20
2.10064e-19
1.0842e-19
9.82558e-20
1.69407e-20
-3.04932e-20
-1.28749e-19
-9.14796e-20
-1.69407e-20
1.15196e-19
2.71051e-20
6.77626e-21
-3.72694e-20
1.32137e-19
1.66018e-19
-8.80914e-20
-7.11508e-20
-1.69407e-20
-4.40457e-20
6.77626e-21
-3.38813e-20
-1.05032e-19
6.77626e-21
3.38813e-20
-7.45389e-20
-3.38813e-21
3.38813e-21
-1.01644e-20
-3.38813e-21
-1.66018e-19
-1.0842e-19
1.49078e-19
1.28749e-19
2.06676e-19
-1.01644e-20
-1.15196e-19
-1.15196e-19
-1.01644e-19
-6.77626e-21
1.38913e-19
1.49078e-19
5.75982e-20
6.77626e-21
-4.40457e-20
-6.77626e-20
1.35525e-20
-4.40457e-20
-4.06576e-20
3.72694e-20
4.06576e-20
5.42101e-20
2.71051e-20
0
2.37169e-20
-2.03288e-20
-9.48677e-20
0
-2.03288e-20
0
6.77626e-20
1.01644e-20
2.03288e-20
5.42101e-20
6.09864e-20
-3.38813e-21
-5.0822e-20
5.42101e-20
1.69407e-20
1.01644e-20
-7.11508e-20
-6.77626e-20
4.40457e-20
7.11508e-20
9.14796e-20
-2.71051e-20
3.38813e-20
3.04932e-20
1.35525e-20
-8.13152e-20
-9.82558e-20
-9.82558e-20
)
;

boundaryField
{
    sides
    {
        type            calculated;
        value           uniform 0;
    }
    empty1
    {
        type            empty;
        value           nonuniform 0();
    }
    empty2
    {
        type            empty;
        value           nonuniform 0();
    }
}


// ************************************************************************* //
