/*--------------------------------*- C++ -*----------------------------------*\
| =========                 |                                                 |
| \\      /  F ield         | OpenFOAM: The Open Source CFD Toolbox           |
|  \\    /   O peration     | Version:  v1812                                 |
|   \\  /    A nd           | Web:      www.OpenFOAM.com                      |
|    \\/     M anipulation  |                                                 |
\*---------------------------------------------------------------------------*/
FoamFile
{
    version     2.0;
    format      ascii;
    class       volVectorField;
    location    "0.012";
    object      U;
}
// * * * * * * * * * * * * * * * * * * * * * * * * * * * * * * * * * * * * * //

dimensions      [0 1 -1 0 0 0 0];


internalField   nonuniform List<vector> 
800
(
(7.6868e-17 0 0)
(-1.76414e-15 0 0)
(-5.07589e-15 0 0)
(-5.00847e-15 0 0)
(-2.62086e-15 0 0)
(-6.25528e-16 0 0)
(-1.84332e-15 0 0)
(-2.02842e-15 0 0)
(-2.40311e-15 0 0)
(-1.44298e-15 0 0)
(-1.01506e-15 0 0)
(1.21704e-15 0 0)
(-4.23105e-16 0 0)
(-1.1305e-15 0 0)
(7.55067e-16 0 0)
(-1.2793e-16 0 0)
(-4.96521e-16 0 0)
(-3.25713e-16 0 0)
(2.96394e-15 0 0)
(4.46519e-15 0 0)
(1.91144e-15 0 0)
(1.59991e-15 0 0)
(5.7728e-16 0 0)
(-1.55516e-15 0 0)
(-3.05035e-15 0 0)
(-2.29186e-15 0 0)
(-5.08318e-15 0 0)
(-8.76321e-15 0 0)
(-5.22661e-15 0 0)
(-4.11027e-15 0 0)
(-6.44736e-15 0 0)
(-8.13738e-15 0 0)
(-1.15544e-14 0 0)
(-8.36994e-15 0 0)
(-7.58383e-15 0 0)
(-7.23498e-15 0 0)
(-1.15157e-14 0 0)
(-1.15018e-14 0 0)
(-1.29756e-14 0 0)
(-1.24397e-14 0 0)
(-1.75774e-14 0 0)
(-1.69342e-14 0 0)
(-6.90158e-15 0 0)
(-8.1547e-15 0 0)
(-7.18956e-15 0 0)
(-8.31304e-15 0 0)
(-9.52424e-15 0 0)
(-1.2131e-14 0 0)
(-1.16595e-14 0 0)
(-1.19648e-14 0 0)
(-8.97344e-15 0 0)
(-9.28886e-15 0 0)
(-5.7905e-15 0 0)
(-8.67792e-15 0 0)
(-8.87897e-15 0 0)
(-7.93698e-15 0 0)
(-7.24795e-15 0 0)
(-9.08139e-15 0 0)
(-8.44618e-15 0 0)
(-3.38445e-15 0 0)
(-1.18407e-14 0 0)
(-1.20801e-14 0 0)
(-1.58705e-14 0 0)
(-1.25315e-14 0 0)
(-8.62863e-15 0 0)
(-7.16952e-15 0 0)
(-3.82653e-15 0 0)
(-5.04851e-15 0 0)
(-2.99908e-15 0 0)
(-3.52675e-16 0 0)
(1.09734e-15 0 0)
(-3.91758e-15 0 0)
(-9.05674e-15 0 0)
(-4.29119e-15 0 0)
(-9.45128e-15 0 0)
(-1.14995e-14 0 0)
(-1.39327e-14 0 0)
(-1.4074e-14 0 0)
(-1.82863e-14 0 0)
(-1.33287e-14 0 0)
(-7.75019e-15 0 0)
(-1.03302e-14 0 0)
(-1.17509e-14 0 0)
(-1.11298e-14 0 0)
(-6.83666e-15 0 0)
(-4.48915e-15 0 0)
(-7.63546e-15 0 0)
(-9.32637e-15 0 0)
(-8.51171e-15 0 0)
(-6.34877e-15 0 0)
(-6.69835e-15 0 0)
(-3.20602e-15 0 0)
(-2.12798e-15 0 0)
(-1.57562e-15 0 0)
(-8.00821e-15 0 0)
(-1.21585e-14 0 0)
(-9.55435e-15 0 0)
(-8.79169e-15 0 0)
(-4.68967e-15 0 0)
(-3.84585e-15 0 0)
(-2.23177e-15 0 0)
(-3.85859e-15 0 0)
(-5.2932e-15 0 0)
(-4.72823e-15 0 0)
(-2.83994e-15 0 0)
(-3.15505e-15 0 0)
(-4.88693e-15 0 0)
(-7.94072e-15 0 0)
(-6.33217e-15 0 0)
(-9.3075e-15 0 0)
(-1.19431e-14 0 0)
(-1.25759e-14 0 0)
(-1.05279e-14 0 0)
(-6.07089e-15 0 0)
(-6.08286e-15 0 0)
(-6.83098e-15 0 0)
(-5.95471e-15 0 0)
(-2.89856e-15 0 0)
(-6.09672e-15 0 0)
(-7.85612e-15 0 0)
(-6.54538e-15 0 0)
(-6.19945e-15 0 0)
(-5.92734e-15 0 0)
(-5.68694e-15 0 0)
(-7.15321e-15 0 0)
(-3.77707e-15 0 0)
(-2.08235e-15 0 0)
(-3.79929e-15 0 0)
(-4.65317e-15 0 0)
(-4.14639e-15 0 0)
(-5.14518e-15 0 0)
(-1.93427e-15 0 0)
(-2.2484e-15 0 0)
(-2.6714e-15 0 0)
(-3.52339e-15 0 0)
(7.65488e-16 0 0)
(2.85865e-15 0 0)
(-8.56954e-17 0 0)
(-1.6396e-15 0 0)
(-2.38399e-15 0 0)
(-9.95652e-16 0 0)
(-2.38318e-15 0 0)
(-6.26155e-15 0 0)
(-2.77849e-15 0 0)
(-3.89428e-15 0 0)
(-4.39723e-15 0 0)
(-8.33861e-15 0 0)
(-6.555e-15 0 0)
(-1.25738e-15 0 0)
(-4.10278e-15 0 0)
(-6.46465e-15 0 0)
(-1.15095e-15 0 0)
(-3.31713e-16 0 0)
(-1.05626e-15 0 0)
(1.49301e-16 0 0)
(-3.18003e-16 0 0)
(-2.45988e-15 0 0)
(-1.56415e-15 0 0)
(-4.0027e-15 0 0)
(-5.93236e-15 0 0)
(-5.32144e-15 0 0)
(-3.57513e-15 0 0)
(-2.19402e-15 0 0)
(-4.49589e-15 0 0)
(-5.44802e-15 0 0)
(-4.37681e-15 0 0)
(-2.55376e-15 0 0)
(6.66514e-15 0 0)
(3.29378e-15 0 0)
(3.34101e-15 0 0)
(7.18237e-15 0 0)
(9.18368e-15 0 0)
(9.68747e-15 0 0)
(5.87472e-15 0 0)
(5.21068e-15 0 0)
(1.58174e-15 0 0)
(-2.84251e-15 0 0)
(-1.46899e-15 0 0)
(-7.51952e-15 0 0)
(-1.04401e-14 0 0)
(-1.02037e-14 0 0)
(-1.16651e-14 0 0)
(-1.65135e-14 0 0)
(-1.28568e-14 0 0)
(-1.2361e-14 0 0)
(-9.96971e-15 0 0)
(-7.76218e-15 0 0)
(-1.03127e-14 0 0)
(-7.25907e-15 0 0)
(-2.80778e-15 0 0)
(-5.01916e-15 0 0)
(-3.339e-15 0 0)
(6.64063e-16 0 0)
(-1.90592e-16 0 0)
(-2.58747e-15 0 0)
(2.68618e-15 0 0)
(4.08588e-15 0 0)
(3.38671e-15 0 0)
(6.36938e-15 0 0)
(3.8224e-15 0 0)
(6.06882e-15 0 0)
(3.32645e-15 0 0)
(5.23588e-16 0 0)
(-2.60168e-16 0 0)
(-6.36523e-15 0 0)
(-5.71225e-15 0 0)
(-5.72713e-15 0 0)
(-4.06072e-15 0 0)
(-4.44312e-15 0 0)
(-8.23757e-16 0 0)
(6.97279e-15 0 0)
(3.25119e-15 0 0)
(5.03891e-15 0 0)
(8.08127e-15 0 0)
(8.78039e-15 0 0)
(7.474e-15 0 0)
(7.00989e-15 0 0)
(6.23697e-15 0 0)
(7.11833e-15 0 0)
(2.04184e-14 0 0)
(4.70822e-14 0 0)
(8.55806e-14 0 0)
(2.47688e-13 0 0)
(3.99418e-13 0 0)
(1.02511e-12 0 0)
(1.76139e-12 0 0)
(3.74569e-12 0 0)
(7.4064e-12 0 0)
(1.15965e-11 0 0)
(2.89393e-11 0 0)
(3.48781e-11 0 0)
(1.1303e-10 0 0)
(1.09026e-10 0 0)
(4.0227e-10 0 0)
(3.55823e-10 0 0)
(1.32287e-09 0 0)
(1.18544e-09 0 0)
(4.13892e-09 0 0)
(4.30538e-09 0 0)
(1.26488e-08 0 0)
(1.64763e-08 0 0)
(3.68451e-08 0 0)
(5.93827e-08 0 0)
(9.49044e-08 0 0)
(2.01004e-07 0 0)
(2.52331e-07 0 0)
(6.59204e-07 0 0)
(7.72576e-07 0 0)
(1.97686e-06 0 0)
(2.35667e-06 0 0)
(5.58833e-06 0 0)
(6.89016e-06 0 0)
(1.51658e-05 0 0)
(1.98881e-05 0 0)
(4.112e-05 0 0)
(5.47845e-05 0 0)
(0.000108401 0 0)
(0.000138931 0 0)
(0.000267736 0 0)
(0.000329785 0 0)
(0.00063605 0 0)
(0.00077452 0 0)
(0.00141135 0 0)
(0.00176424 0 0)
(0.00303986 0 0)
(0.00375289 0 0)
(0.00617617 0 0)
(0.00743761 0 0)
(0.0117692 0 0)
(0.0138634 0 0)
(0.0211609 0 0)
(0.0242672 0 0)
(0.035623 0 0)
(0.0392639 0 0)
(0.0590074 0 0)
(0.0613566 0 0)
(0.0882116 0 0)
(0.0952597 0 0)
(0.126056 0 0)
(0.133998 0 0)
(0.179936 0 0)
(0.183863 0 0)
(0.238236 0 0)
(0.250775 0 0)
(0.306453 0 0)
(0.322806 0 0)
(0.388734 0 0)
(0.402025 0 0)
(0.491189 0 0)
(0.495697 0 0)
(0.600183 0 0)
(0.612606 0 0)
(0.712748 0 0)
(0.734707 0 0)
(0.841624 0 0)
(0.868077 0 0)
(0.975459 0 0)
(1.0025 0 0)
(1.11813 0 0)
(1.13523 0 0)
(1.28218 0 0)
(1.28786 0 0)
(1.42436 0 0)
(1.45292 0 0)
(1.54458 0 0)
(1.62628 0 0)
(1.66823 0 0)
(1.81233 0 0)
(1.82616 0 0)
(1.97378 0 0)
(1.98304 0 0)
(2.11796 0 0)
(2.13939 0 0)
(2.27911 0 0)
(2.30638 0 0)
(2.47122 0 0)
(2.49259 0 0)
(2.63084 0 0)
(2.63586 0 0)
(2.77923 0 0)
(2.77874 0 0)
(2.9798 0 0)
(2.99287 0 0)
(3.14146 0 0)
(3.15839 0 0)
(3.28331 0 0)
(3.3037 0 0)
(3.45872 0 0)
(3.48786 0 0)
(3.6373 0 0)
(3.65867 0 0)
(3.81234 0 0)
(3.82321 0 0)
(3.98962 0 0)
(3.99933 0 0)
(4.14727 0 0)
(4.15988 0 0)
(4.34475 0 0)
(4.348 0 0)
(4.51528 0 0)
(4.53231 0 0)
(4.66667 0 0)
(4.68836 0 0)
(4.84752 0 0)
(4.8741 0 0)
(5.00823 0 0)
(5.05791 0 0)
(5.15075 0 0)
(5.20993 0 0)
(5.3177 0 0)
(5.38556 0 0)
(5.44917 0 0)
(5.53352 0 0)
(5.59743 0 0)
(5.66468 0 0)
(5.72068 0 0)
(5.77245 0 0)
(5.81282 0 0)
(5.84251 0 0)
(5.86417 0 0)
(5.87792 0 0)
(5.88528 0 0)
(5.88821 0 0)
(5.88933 0 0)
(5.88898 0 0)
(5.8868 0 0)
(5.8799 0 0)
(5.86987 0 0)
(5.85955 0 0)
(5.8505 0 0)
(5.84244 0 0)
(5.83528 0 0)
(5.82869 0 0)
(5.82264 0 0)
(5.81762 0 0)
(5.81371 0 0)
(5.81034 0 0)
(5.80751 0 0)
(5.80507 0 0)
(5.80303 0 0)
(5.80127 0 0)
(5.79969 0 0)
(5.79833 0 0)
(5.79725 0 0)
(5.79649 0 0)
(5.79597 0 0)
(5.79568 0 0)
(5.79566 0 0)
(5.79582 0 0)
(5.79624 0 0)
(5.79671 0 0)
(5.79722 0 0)
(5.79765 0 0)
(5.79786 0 0)
(5.79785 0 0)
(5.79759 0 0)
(5.79711 0 0)
(5.7966 0 0)
(5.79634 0 0)
(5.79631 0 0)
(5.79641 0 0)
(5.7965 0 0)
(5.79685 0 0)
(5.79743 0 0)
(5.79818 0 0)
(5.79899 0 0)
(5.79982 0 0)
(5.80068 0 0)
(5.80164 0 0)
(5.80279 0 0)
(5.80419 0 0)
(5.8058 0 0)
(5.80749 0 0)
(5.80914 0 0)
(5.81071 0 0)
(5.81225 0 0)
(5.81384 0 0)
(5.81556 0 0)
(5.81743 0 0)
(5.8194 0 0)
(5.82139 0 0)
(5.82334 0 0)
(5.82521 0 0)
(5.82697 0 0)
(5.82861 0 0)
(5.83011 0 0)
(5.83147 0 0)
(5.8327 0 0)
(5.8338 0 0)
(5.83481 0 0)
(5.83574 0 0)
(5.83664 0 0)
(5.83758 0 0)
(5.83859 0 0)
(5.83971 0 0)
(5.84092 0 0)
(5.84217 0 0)
(5.84332 0 0)
(5.84437 0 0)
(5.84531 0 0)
(5.84621 0 0)
(5.84716 0 0)
(5.848 0 0)
(5.84899 0 0)
(5.84968 0 0)
(5.85062 0 0)
(5.85148 0 0)
(5.85251 0 0)
(5.85479 0 0)
(5.85868 0 0)
(5.86563 0 0)
(5.87772 0 0)
(5.89552 0 0)
(5.91997 0 0)
(5.94941 0 0)
(5.98074 0 0)
(6.00954 0 0)
(6.02949 0 0)
(6.03639 0 0)
(6.03543 0 0)
(6.02973 0 0)
(6.02195 0 0)
(6.01679 0 0)
(6.01273 0 0)
(6.00799 0 0)
(5.99659 0 0)
(5.9605 0 0)
(5.84967 0 0)
(5.53456 0 0)
(4.66398 0 0)
(2.48826 0 0)
(0.152749 0 0)
(3.30182e-05 0 0)
(-6.35639e-07 0 0)
(-1.90659e-09 0 0)
(-4.23393e-15 0 0)
(8.41706e-17 0 0)
(5.17442e-16 0 0)
(7.99541e-17 0 0)
(8.38779e-18 0 0)
(-1.42026e-16 0 0)
(-4.53075e-16 0 0)
(-7.1328e-17 0 0)
(1.43586e-16 0 0)
(7.96623e-17 0 0)
(2.72973e-17 0 0)
(3.65651e-16 0 0)
(2.09513e-16 0 0)
(2.45175e-16 0 0)
(-6.44251e-17 0 0)
(-2.4002e-16 0 0)
(1.51595e-17 0 0)
(-4.02654e-16 0 0)
(-3.09899e-17 0 0)
(4.10479e-16 0 0)
(-1.33027e-16 0 0)
(-3.42579e-16 0 0)
(1.41827e-16 0 0)
(9.43425e-17 0 0)
(-1.1124e-16 0 0)
(-2.24949e-16 0 0)
(4.01713e-17 0 0)
(-3.44236e-17 0 0)
(-1.5078e-16 0 0)
(2.24573e-16 0 0)
(1.52701e-16 0 0)
(-8.76055e-17 0 0)
(5.73288e-17 0 0)
(-2.14003e-16 0 0)
(-2.2472e-16 0 0)
(1.10046e-16 0 0)
(4.35373e-16 0 0)
(2.59802e-17 0 0)
(-1.66744e-16 0 0)
(-9.20925e-17 0 0)
(-1.06087e-16 0 0)
(1.66922e-16 0 0)
(-1.62726e-17 0 0)
(-1.35282e-16 0 0)
(-8.64789e-18 0 0)
(-2.18666e-17 0 0)
(1.56459e-16 0 0)
(1.25581e-16 0 0)
(-1.44071e-17 0 0)
(1.53019e-17 0 0)
(-2.6997e-16 0 0)
(-4.88694e-16 0 0)
(-2.68161e-16 0 0)
(4.53755e-17 0 0)
(4.32875e-16 0 0)
(2.3874e-16 0 0)
(3.53782e-17 0 0)
(1.46519e-16 0 0)
(2.5562e-17 0 0)
(-6.53726e-17 0 0)
(2.62835e-17 0 0)
(2.9175e-16 0 0)
(1.02112e-16 0 0)
(2.65165e-17 0 0)
(-1.08005e-16 0 0)
(-3.96961e-16 0 0)
(-6.86317e-17 0 0)
(-1.36782e-16 0 0)
(1.3273e-17 0 0)
(2.12498e-16 0 0)
(1.29345e-16 0 0)
(1.53552e-17 0 0)
(3.86333e-16 0 0)
(7.38324e-17 0 0)
(-2.21367e-16 0 0)
(-3.57474e-17 0 0)
(-1.45183e-16 0 0)
(-1.28075e-16 0 0)
(-1.8543e-16 0 0)
(-1.22107e-16 0 0)
(-9.646e-17 0 0)
(1.95706e-17 0 0)
(3.08479e-16 0 0)
(2.09657e-16 0 0)
(-1.82012e-16 0 0)
(-1.67609e-16 0 0)
(-8.8812e-17 0 0)
(1.67525e-16 0 0)
(8.87374e-17 0 0)
(2.50355e-17 0 0)
(1.14998e-17 0 0)
(-1.21122e-16 0 0)
(3.94968e-18 0 0)
(-2.19757e-16 0 0)
(-3.08917e-16 0 0)
(1.17763e-16 0 0)
(2.90849e-16 0 0)
(2.26222e-16 0 0)
(-5.95132e-17 0 0)
(-7.89164e-17 0 0)
(2.10908e-16 0 0)
(1.27948e-16 0 0)
(-2.23174e-17 0 0)
(-1.13815e-16 0 0)
(-4.74179e-16 0 0)
(-4.35505e-16 0 0)
(-1.00676e-16 0 0)
(1.44091e-16 0 0)
(2.77905e-16 0 0)
(4.23727e-16 0 0)
(1.81927e-16 0 0)
(1.22902e-17 0 0)
(2.82587e-16 0 0)
(5.51352e-17 0 0)
(-2.08442e-16 0 0)
(-1.86054e-17 0 0)
(1.39518e-16 0 0)
(3.40712e-17 0 0)
(-1.9547e-16 0 0)
(3.01592e-16 0 0)
(6.62341e-17 0 0)
(-2.71258e-16 0 0)
(8.57684e-17 0 0)
(-2.06033e-16 0 0)
(-4.85753e-16 0 0)
(-6.35645e-17 0 0)
(2.45058e-16 0 0)
(-2.99494e-17 0 0)
(-2.32577e-16 0 0)
(6.4e-17 0 0)
(2.39446e-16 0 0)
(1.50289e-16 0 0)
(1.66387e-16 0 0)
(4.32497e-17 0 0)
(-9.92245e-17 0 0)
(1.04279e-16 0 0)
(-1.28182e-16 0 0)
(-6.08258e-16 0 0)
(-5.48886e-17 0 0)
(5.1388e-16 0 0)
(1.41537e-16 0 0)
(-1.12214e-16 0 0)
(9.46632e-17 0 0)
(-2.15113e-17 0 0)
(-1.64932e-16 0 0)
(-3.74064e-17 0 0)
(8.76876e-18 0 0)
(-2.76336e-18 0 0)
(2.99143e-17 0 0)
(2.12678e-17 0 0)
(9.31206e-17 0 0)
(6.05247e-17 0 0)
(-1.14673e-16 0 0)
(-2.83525e-16 0 0)
(-4.01531e-16 0 0)
(-1.82899e-17 0 0)
(4.2236e-16 0 0)
(1.09904e-16 0 0)
(-1.35404e-16 0 0)
(1.1048e-16 0 0)
(3.13538e-16 0 0)
(1.13522e-16 0 0)
(2.81528e-16 0 0)
(1.81372e-18 0 0)
(-3.24779e-16 0 0)
(-9.95901e-17 0 0)
(-2.93933e-16 0 0)
(-5.28584e-16 0 0)
(-1.80034e-16 0 0)
(4.01857e-16 0 0)
(3.28386e-16 0 0)
(8.24322e-17 0 0)
(2.99327e-16 0 0)
(1.34386e-16 0 0)
(1.24215e-16 0 0)
(-1.3162e-16 0 0)
(-3.90109e-16 0 0)
(2.19088e-17 0 0)
(1.12507e-16 0 0)
(1.77442e-16 0 0)
(-4.72865e-17 0 0)
(-1.5944e-16 0 0)
(-6.47928e-17 0 0)
(2.95501e-16 0 0)
(1.60918e-16 0 0)
(-6.98874e-17 0 0)
(-9.5625e-17 0 0)
(-7.17771e-17 0 0)
(-4.58414e-17 0 0)
(-1.04706e-16 0 0)
(-2.00619e-16 0 0)
(-2.22549e-16 0 0)
(2.49447e-16 0 0)
(2.02679e-16 0 0)
(-1.50171e-17 0 0)
(4.36319e-16 0 0)
(8.7814e-17 0 0)
(-4.23521e-16 0 0)
(-2.46693e-16 0 0)
(-1.79153e-16 0 0)
(5.48129e-17 0 0)
(7.27392e-17 0 0)
(5.03206e-17 0 0)
(4.05153e-17 0 0)
(-2.03045e-16 0 0)
(-3.21354e-16 0 0)
(-2.41371e-16 0 0)
(-8.79059e-17 0 0)
(1.3599e-16 0 0)
(1.52516e-16 0 0)
(2.62234e-16 0 0)
(3.30746e-16 0 0)
(2.93573e-16 0 0)
(-7.03675e-17 0 0)
(-2.00508e-16 0 0)
(2.11631e-16 0 0)
(3.5903e-17 0 0)
(-1.81289e-16 0 0)
(-6.71939e-17 0 0)
(9.37321e-17 0 0)
(1.28294e-18 0 0)
(4.66571e-17 0 0)
(2.58494e-17 0 0)
(-6.36806e-17 0 0)
(-3.12194e-17 0 0)
(-3.40447e-17 0 0)
(7.26264e-18 0 0)
(5.24241e-17 0 0)
(2.04393e-16 0 0)
(-4.07763e-17 0 0)
(-8.21087e-17 0 0)
(-3.04444e-16 0 0)
(-5.9717e-16 0 0)
(-9.6127e-17 0 0)
(1.7189e-16 0 0)
(3.63787e-16 0 0)
(2.4386e-16 0 0)
(-2.62579e-18 0 0)
(-3.8245e-17 0 0)
(1.65497e-16 0 0)
(-1.83739e-18 0 0)
(-3.63122e-16 0 0)
(-2.75206e-16 0 0)
(-5.12294e-17 0 0)
(2.51016e-16 0 0)
(5.45204e-16 0 0)
(1.06535e-16 0 0)
(1.02012e-16 0 0)
(-6.81806e-17 0 0)
(-3.85815e-16 0 0)
(-2.59638e-16 0 0)
(-3.2417e-16 0 0)
(8.71626e-17 0 0)
(3.52416e-16 0 0)
(1.17533e-16 0 0)
(-1.06813e-16 0 0)
(-6.60688e-17 0 0)
(6.98721e-16 0 0)
(1.01688e-16 0 0)
(-5.21839e-16 0 0)
(1.75834e-16 0 0)
(-2.79462e-17 0 0)
(3.35785e-17 0 0)
(3.04131e-17 0 0)
(-3.48056e-16 0 0)
(-1.13581e-16 0 0)
(1.4322e-16 0 0)
(-4.89797e-17 0 0)
(-1.66253e-16 0 0)
(-2.15788e-17 0 0)
(2.21417e-17 0 0)
(2.72962e-17 0 0)
(-1.65469e-16 0 0)
(-5.19919e-16 0 0)
(4.37058e-17 0 0)
(4.75877e-16 0 0)
(5.18062e-16 0 0)
(1.00938e-16 0 0)
(-2.23497e-16 0 0)
(-2.10694e-16 0 0)
(-3.68112e-16 0 0)
(-1.56925e-16 0 0)
(2.26741e-16 0 0)
(5.10035e-16 0 0)
(8.62887e-17 0 0)
(3.95526e-17 0 0)
(-3.55804e-17 0 0)
(-2.23603e-16 0 0)
(2.04763e-17 0 0)
(7.61838e-17 0 0)
(-1.35907e-16 0 0)
(-7.62451e-17 0 0)
(7.35226e-17 0 0)
(1.69475e-16 0 0)
(8.62393e-17 0 0)
(7.68257e-18 0 0)
(1.99091e-17 0 0)
(-8.26249e-17 0 0)
(1.07091e-16 0 0)
(1.15373e-18 0 0)
(-1.98909e-16 0 0)
(9.08939e-17 0 0)
(1.93079e-17 0 0)
(2.17696e-17 0 0)
(-1.66244e-17 0 0)
(-8.11645e-17 0 0)
(4.37301e-16 0 0)
(3.92006e-17 0 0)
(-2.96909e-16 0 0)
(6.08614e-17 0 0)
(6.61138e-17 0 0)
(3.33976e-18 0 0)
(-5.51501e-17 0 0)
(-3.21399e-16 0 0)
(-1.36343e-16 0 0)
(2.37298e-16 0 0)
(1.79434e-16 0 0)
(-6.73898e-17 0 0)
(3.55252e-17 0 0)
(8.02241e-17 0 0)
(-5.51825e-17 0 0)
(2.79518e-17 0 0)
(-1.50495e-16 0 0)
(-3.73486e-16 0 0)
(-7.85372e-17 0 0)
)
;

boundaryField
{
    sides
    {
        type            fixedValue;
        value           uniform (0 0 0);
    }
    empty1
    {
        type            empty;
    }
    empty2
    {
        type            empty;
    }
}


// ************************************************************************* //
