/*--------------------------------*- C++ -*----------------------------------*\
| =========                 |                                                 |
| \\      /  F ield         | OpenFOAM: The Open Source CFD Toolbox           |
|  \\    /   O peration     | Version:  v1812                                 |
|   \\  /    A nd           | Web:      www.OpenFOAM.com                      |
|    \\/     M anipulation  |                                                 |
\*---------------------------------------------------------------------------*/
FoamFile
{
    version     2.0;
    format      ascii;
    class       volVectorField;
    location    "0.0045";
    object      U;
}
// * * * * * * * * * * * * * * * * * * * * * * * * * * * * * * * * * * * * * //

dimensions      [0 1 -1 0 0 0 0];


internalField   nonuniform List<vector> 
8475
(
(851.84 4.55351e-14 0)
(851.84 -4.97024e-14 0)
(851.84 -2.7788e-14 0)
(851.84 -1.29465e-13 0)
(851.84 -1.43642e-13 0)
(851.84 -1.44426e-13 0)
(851.84 -4.73991e-13 0)
(851.84 -5.47032e-13 0)
(851.84 -5.49194e-13 0)
(851.84 -5.23415e-13 0)
(851.84 -4.67754e-13 0)
(851.84 -3.46196e-13 0)
(851.84 -7.01235e-13 0)
(851.84 -6.97278e-13 0)
(851.84 -6.4273e-13 0)
(851.84 -3.88307e-13 0)
(851.84 -5.95265e-14 0)
(851.84 3.74752e-14 0)
(851.84 3.46267e-13 0)
(851.84 4.72944e-13 0)
(851.84 1.03334e-12 0)
(851.84 1.0714e-12 0)
(851.84 1.07759e-12 0)
(851.84 1.05405e-12 0)
(851.84 1.16383e-12 0)
(851.84 1.21253e-12 0)
(851.84 1.05995e-12 0)
(851.84 8.89934e-13 0)
(851.84 9.54102e-13 0)
(851.84 6.84532e-13 0)
(851.84 1.7867e-12 0)
(851.84 -1.76924e-11 0)
(851.84 1.10091e-09 0)
(851.84 -7.93815e-08 0)
(851.84 5.15053e-06 0)
(851.84 -0.00038332 0)
(851.835 0.0256529 0)
(851.551 -1.65027 0)
(851.84 -1.62745e-14 0)
(851.84 7.11272e-14 0)
(851.84 -1.58407e-14 0)
(851.84 -2.79775e-13 0)
(851.84 -1.89353e-13 0)
(851.84 -4.5458e-13 0)
(851.84 -5.64448e-13 0)
(851.84 -5.93174e-13 0)
(851.84 -7.85509e-13 0)
(851.84 -7.06001e-13 0)
(851.84 -6.84761e-13 0)
(851.84 -8.38884e-13 0)
(851.84 -1.26077e-12 0)
(851.84 -1.07637e-12 0)
(851.84 -6.73574e-13 0)
(851.84 -3.36046e-13 0)
(851.84 2.64306e-13 0)
(851.84 7.8279e-13 0)
(851.84 9.58887e-13 0)
(851.84 1.29352e-12 0)
(851.84 1.85707e-12 0)
(851.84 1.74e-12 0)
(851.84 1.64045e-12 0)
(851.84 1.5572e-12 0)
(851.84 1.54271e-12 0)
(851.84 1.62787e-12 0)
(851.84 1.40587e-12 0)
(851.84 1.1402e-12 0)
(851.84 1.13919e-12 0)
(851.84 1.2532e-12 0)
(851.84 1.40723e-12 0)
(851.84 8.40522e-13 0)
(851.84 1.25805e-10 0)
(851.84 4.70336e-09 0)
(851.84 6.36594e-09 0)
(851.84 4.21793e-05 0)
(851.837 -0.0031326 0)
(851.766 0.242055 0)
(851.84 -2.46807e-14 0)
(851.84 5.30218e-14 0)
(851.84 -2.50414e-14 0)
(851.84 -1.09544e-13 0)
(851.84 -2.99951e-13 0)
(851.84 -4.34297e-13 0)
(851.84 -3.18792e-13 0)
(851.84 -3.12033e-13 0)
(851.84 -4.68847e-13 0)
(851.84 -4.79683e-13 0)
(851.84 -6.50609e-13 0)
(851.84 -8.3891e-13 0)
(851.84 -7.7539e-13 0)
(851.84 -6.83324e-13 0)
(851.84 -6.81045e-13 0)
(851.84 -4.59882e-13 0)
(851.84 -3.25319e-13 0)
(851.84 -2.58764e-14 0)
(851.84 1.67148e-13 0)
(851.84 4.56109e-13 0)
(851.84 6.31269e-13 0)
(851.84 9.21333e-13 0)
(851.84 9.87151e-13 0)
(851.84 9.12504e-13 0)
(851.84 9.74672e-13 0)
(851.84 9.98084e-13 0)
(851.84 1.30985e-12 0)
(851.84 1.2278e-12 0)
(851.84 1.26911e-12 0)
(851.84 1.34429e-12 0)
(851.84 1.27422e-12 0)
(851.84 6.51099e-12 0)
(851.84 -2.25927e-10 0)
(851.84 2.30546e-08 0)
(851.84 -1.27668e-06 0)
(851.84 0.000102213 0)
(851.839 -0.00374606 0)
(851.811 0.175234 0)
(851.84 -8.73771e-15 0)
(851.84 -1.23357e-13 0)
(851.84 -3.66366e-14 0)
(851.84 1.51796e-13 0)
(851.84 -1.43336e-13 0)
(851.84 -2.80215e-13 0)
(851.84 -3.59866e-13 0)
(851.84 -4.79446e-13 0)
(851.84 -6.70188e-13 0)
(851.84 -8.28726e-13 0)
(851.84 -8.30705e-13 0)
(851.84 -8.372e-13 0)
(851.84 -6.20594e-13 0)
(851.84 -4.49412e-13 0)
(851.84 -4.64037e-13 0)
(851.84 -4.02047e-13 0)
(851.84 -4.96561e-13 0)
(851.84 -5.39646e-13 0)
(851.84 -4.0454e-13 0)
(851.84 -4.10137e-13 0)
(851.84 -2.00274e-13 0)
(851.84 5.68138e-14 0)
(851.84 2.04632e-13 0)
(851.84 5.25695e-13 0)
(851.84 5.99159e-13 0)
(851.84 6.87655e-13 0)
(851.84 1.09006e-12 0)
(851.84 1.10129e-12 0)
(851.84 9.98563e-13 0)
(851.84 9.50492e-13 0)
(851.84 8.60509e-13 0)
(851.84 2.05177e-12 0)
(851.84 -7.16877e-12 0)
(851.84 1.96395e-09 0)
(851.84 5.34849e-10 0)
(851.84 3.29562e-06 0)
(851.84 6.30771e-05 0)
(851.828 0.0119748 0)
(851.84 -2.74262e-14 0)
(851.84 -2.03228e-13 0)
(851.84 -8.36692e-14 0)
(851.84 -9.50252e-14 0)
(851.84 -2.28662e-13 0)
(851.84 -2.34728e-13 0)
(851.84 -2.04343e-13 0)
(851.84 -5.03346e-13 0)
(851.84 -6.48728e-13 0)
(851.84 -8.35627e-13 0)
(851.84 -7.75483e-13 0)
(851.84 -7.73366e-13 0)
(851.84 -4.90185e-13 0)
(851.84 -4.12564e-13 0)
(851.84 -4.27623e-14 0)
(851.84 -2.7802e-13 0)
(851.84 -5.41667e-13 0)
(851.84 -5.9274e-13 0)
(851.84 -4.63578e-13 0)
(851.84 -5.00226e-13 0)
(851.84 -4.31805e-13 0)
(851.84 -4.27562e-13 0)
(851.84 -3.59895e-13 0)
(851.84 5.96225e-15 0)
(851.84 1.67471e-13 0)
(851.84 3.42477e-13 0)
(851.84 6.18905e-13 0)
(851.84 8.14662e-13 0)
(851.84 7.71514e-13 0)
(851.84 9.40875e-13 0)
(851.84 1.01673e-12 0)
(851.84 1.35863e-12 0)
(851.84 1.15351e-12 0)
(851.84 3.49444e-10 0)
(851.84 -1.37841e-10 0)
(851.84 1.15336e-06 0)
(851.84 -1.40928e-06 0)
(851.838 0.00404524 0)
(851.84 -3.87933e-14 0)
(851.84 -2.30539e-14 0)
(851.84 -1.92139e-13 0)
(851.84 -3.84742e-13 0)
(851.84 -2.11595e-13 0)
(851.84 -8.90546e-14 0)
(851.84 -7.70869e-14 0)
(851.84 -4.58265e-14 0)
(851.84 -1.89417e-13 0)
(851.84 -1.55078e-13 0)
(851.84 -3.5645e-13 0)
(851.84 -2.02325e-13 0)
(851.84 -3.33096e-13 0)
(851.84 -5.00655e-13 0)
(851.84 -3.19097e-13 0)
(851.84 -4.65898e-13 0)
(851.84 -4.43488e-13 0)
(851.84 -5.47683e-13 0)
(851.84 -6.4966e-13 0)
(851.84 -4.93133e-13 0)
(851.84 -5.43547e-13 0)
(851.84 -4.99905e-13 0)
(851.84 -4.73455e-13 0)
(851.84 -4.24538e-13 0)
(851.84 -2.97103e-13 0)
(851.84 -3.37701e-13 0)
(851.84 -8.06874e-14 0)
(851.84 2.63139e-13 0)
(851.84 6.76552e-13 0)
(851.84 9.45176e-13 0)
(851.84 9.52761e-13 0)
(851.84 1.01872e-12 0)
(851.84 1.41704e-12 0)
(851.84 2.68428e-11 0)
(851.84 3.57368e-10 0)
(851.84 6.79102e-08 0)
(851.84 7.43267e-07 0)
(851.84 0.000204154 0)
(851.84 -1.66093e-14 0)
(851.84 2.42731e-13 0)
(851.84 5.94067e-15 0)
(851.84 -5.52455e-14 0)
(851.84 -7.98798e-14 0)
(851.84 2.2939e-13 0)
(851.84 1.154e-13 0)
(851.84 1.19812e-14 0)
(851.84 -7.85839e-14 0)
(851.84 9.1083e-15 0)
(851.84 5.61785e-14 0)
(851.84 -1.12553e-13 0)
(851.84 -2.31002e-13 0)
(851.84 -3.34751e-13 0)
(851.84 -6.66803e-13 0)
(851.84 -6.06965e-13 0)
(851.84 -3.87744e-13 0)
(851.84 -4.26934e-13 0)
(851.84 -5.1914e-13 0)
(851.84 -4.62852e-13 0)
(851.84 -5.14082e-13 0)
(851.84 -5.52681e-13 0)
(851.84 -5.24734e-13 0)
(851.84 -6.55098e-13 0)
(851.84 -5.49212e-13 0)
(851.84 -4.32047e-13 0)
(851.84 -3.70774e-13 0)
(851.84 -7.87441e-14 0)
(851.84 1.90956e-13 0)
(851.84 4.55278e-13 0)
(851.84 6.73723e-13 0)
(851.84 6.6784e-13 0)
(851.84 5.81031e-13 0)
(851.84 2.04199e-12 0)
(851.84 1.66259e-11 0)
(851.84 3.02106e-09 0)
(851.84 2.35403e-08 0)
(851.84 5.86351e-06 0)
(851.84 7.62993e-14 0)
(851.84 1.13128e-14 0)
(851.84 -3.30875e-14 0)
(851.84 8.24393e-15 0)
(851.84 -7.78335e-14 0)
(851.84 5.48422e-14 0)
(851.84 -4.53477e-14 0)
(851.84 4.89109e-15 0)
(851.84 3.98389e-14 0)
(851.84 -8.07183e-14 0)
(851.84 -2.31179e-14 0)
(851.84 -6.13026e-14 0)
(851.84 2.68697e-14 0)
(851.84 -1.92189e-13 0)
(851.84 -4.14805e-13 0)
(851.84 -4.0802e-13 0)
(851.84 -3.94741e-13 0)
(851.84 -1.99694e-13 0)
(851.84 -1.46265e-13 0)
(851.84 -5.59976e-14 0)
(851.84 -7.99488e-14 0)
(851.84 -3.04637e-13 0)
(851.84 -3.84286e-13 0)
(851.84 -4.69758e-13 0)
(851.84 -4.86958e-13 0)
(851.84 -4.53638e-13 0)
(851.84 -4.10954e-13 0)
(851.84 -4.8264e-13 0)
(851.84 -1.68668e-13 0)
(851.84 1.91575e-14 0)
(851.84 7.57092e-13 0)
(851.84 5.46798e-13 0)
(851.84 4.57717e-13 0)
(851.84 7.74481e-13 0)
(851.84 1.18727e-12 0)
(851.84 1.34361e-10 0)
(851.84 5.61211e-10 0)
(851.84 1.94497e-07 0)
(851.84 -1.04999e-14 0)
(851.84 -2.22249e-13 0)
(851.84 -2.11309e-13 0)
(851.84 -2.89342e-13 0)
(851.84 -2.95031e-13 0)
(851.84 -5.06817e-13 0)
(851.84 -3.40846e-13 0)
(851.84 -1.4373e-14 0)
(851.84 7.24551e-14 0)
(851.84 1.05881e-13 0)
(851.84 1.71387e-14 0)
(851.84 1.37108e-13 0)
(851.84 1.2494e-13 0)
(851.84 4.8015e-14 0)
(851.84 -2.04988e-13 0)
(851.84 -2.58331e-13 0)
(851.84 -2.42638e-13 0)
(851.84 -2.43761e-13 0)
(851.84 -7.62785e-14 0)
(851.84 -9.18584e-14 0)
(851.84 -4.0636e-14 0)
(851.84 -1.63805e-13 0)
(851.84 -3.05384e-13 0)
(851.84 -4.00356e-13 0)
(851.84 -4.7414e-13 0)
(851.84 -5.62326e-13 0)
(851.84 -6.45956e-13 0)
(851.84 -6.46366e-13 0)
(851.84 -4.43161e-13 0)
(851.84 -3.50924e-13 0)
(851.84 -1.82134e-13 0)
(851.84 4.21893e-14 0)
(851.84 2.61736e-13 0)
(851.84 4.99116e-13 0)
(851.84 -1.30965e-13 0)
(851.84 7.46035e-12 0)
(851.84 1.70159e-11 0)
(851.84 9.4974e-09 0)
(851.84 -2.14478e-14 0)
(851.84 -9.45827e-14 0)
(851.84 -1.01191e-13 0)
(851.84 -8.92852e-14 0)
(851.84 -8.61164e-14 0)
(851.84 -1.09846e-13 0)
(851.84 -7.40037e-14 0)
(851.84 -1.03026e-13 0)
(851.84 1.21024e-13 0)
(851.84 2.71363e-13 0)
(851.84 5.15765e-13 0)
(851.84 3.59915e-13 0)
(851.84 2.29254e-13 0)
(851.84 1.46391e-13 0)
(851.84 7.39149e-14 0)
(851.84 -8.94341e-15 0)
(851.84 2.63133e-14 0)
(851.84 -1.52973e-13 0)
(851.84 -2.61735e-13 0)
(851.84 -3.18292e-13 0)
(851.84 -3.40752e-13 0)
(851.84 -3.75089e-13 0)
(851.84 -3.1661e-13 0)
(851.84 -2.87184e-13 0)
(851.84 -3.25389e-13 0)
(851.84 -3.45658e-13 0)
(851.84 -2.96138e-13 0)
(851.84 -2.3971e-13 0)
(851.84 -3.30361e-13 0)
(851.84 -4.43244e-13 0)
(851.84 -5.08515e-13 0)
(851.84 -3.52385e-14 0)
(851.84 -4.98518e-14 0)
(851.84 -7.41509e-14 0)
(851.84 -3.8274e-14 0)
(851.84 8.20881e-13 0)
(851.84 8.97327e-13 0)
(851.84 5.64431e-10 0)
(851.84 -2.63953e-14 0)
(851.84 6.61242e-14 0)
(851.84 7.42987e-14 0)
(851.84 2.0715e-13 0)
(851.84 3.4546e-13 0)
(851.84 2.31169e-13 0)
(851.84 8.37508e-14 0)
(851.84 7.3195e-14 0)
(851.84 9.57121e-14 0)
(851.84 1.20359e-13 0)
(851.84 1.72049e-13 0)
(851.84 3.71411e-13 0)
(851.84 2.27016e-13 0)
(851.84 1.69245e-13 0)
(851.84 1.46742e-13 0)
(851.84 7.09892e-14 0)
(851.84 -1.36869e-13 0)
(851.84 -5.91956e-15 0)
(851.84 1.87485e-16 0)
(851.84 -2.19836e-14 0)
(851.84 -2.44276e-13 0)
(851.84 -3.94563e-13 0)
(851.84 -3.81083e-13 0)
(851.84 -2.33148e-13 0)
(851.84 -1.16569e-13 0)
(851.84 -2.13618e-13 0)
(851.84 -8.70304e-14 0)
(851.84 -1.2206e-13 0)
(851.84 -2.7482e-13 0)
(851.84 -3.43951e-13 0)
(851.84 -4.05859e-13 0)
(851.84 -4.28683e-13 0)
(851.84 -3.7623e-13 0)
(851.84 -4.14478e-13 0)
(851.84 -2.86775e-13 0)
(851.84 -9.83662e-14 0)
(851.84 6.05503e-13 0)
(851.84 3.5836e-11 0)
(851.84 -5.9498e-14 0)
(851.84 -9.38509e-14 0)
(851.84 2.68266e-13 0)
(851.84 3.39523e-13 0)
(851.84 2.84129e-13 0)
(851.84 2.08952e-13 0)
(851.84 2.09465e-13 0)
(851.84 1.76891e-13 0)
(851.84 -5.93204e-14 0)
(851.84 -1.35391e-13 0)
(851.84 -1.0838e-13 0)
(851.84 1.60391e-14 0)
(851.84 1.43356e-13 0)
(851.84 3.95454e-13 0)
(851.84 3.52315e-13 0)
(851.84 3.42394e-13 0)
(851.84 4.50238e-14 0)
(851.84 3.32258e-14 0)
(851.84 8.8167e-14 0)
(851.84 -3.68782e-14 0)
(851.84 -1.74798e-13 0)
(851.84 -2.26018e-13 0)
(851.84 -5.44157e-13 0)
(851.84 -5.16907e-13 0)
(851.84 -5.08033e-13 0)
(851.84 -3.0573e-13 0)
(851.84 -4.16404e-13 0)
(851.84 -3.62409e-13 0)
(851.84 -3.61227e-13 0)
(851.84 -3.79465e-13 0)
(851.84 -5.38949e-13 0)
(851.84 -6.94161e-13 0)
(851.84 -6.8679e-13 0)
(851.84 -4.45635e-13 0)
(851.84 -3.62858e-13 0)
(851.84 -1.80214e-13 0)
(851.84 -4.21498e-13 0)
(851.84 2.26848e-12 0)
(851.84 4.26138e-14 0)
(851.84 4.46872e-14 0)
(851.84 7.50097e-14 0)
(851.84 2.67086e-13 0)
(851.84 2.31159e-13 0)
(851.84 1.33095e-13 0)
(851.84 3.63915e-14 0)
(851.84 6.55898e-14 0)
(851.84 -2.17567e-14 0)
(851.84 8.59787e-14 0)
(851.84 -1.62266e-13 0)
(851.84 -2.5245e-13 0)
(851.84 7.58775e-15 0)
(851.84 7.96339e-14 0)
(851.84 3.93502e-13 0)
(851.84 3.99927e-13 0)
(851.84 2.75625e-13 0)
(851.84 5.98842e-14 0)
(851.84 -1.49604e-14 0)
(851.84 -1.53478e-13 0)
(851.84 -3.15757e-13 0)
(851.84 -3.56793e-13 0)
(851.84 -4.21678e-13 0)
(851.84 -7.16373e-13 0)
(851.84 -8.71037e-13 0)
(851.84 -5.53173e-13 0)
(851.84 -6.78312e-13 0)
(851.84 -6.89622e-13 0)
(851.84 -6.00033e-13 0)
(851.84 -5.80097e-13 0)
(851.84 -5.8358e-13 0)
(851.84 -6.75695e-13 0)
(851.84 -6.49558e-13 0)
(851.84 -2.05827e-13 0)
(851.84 -2.42403e-13 0)
(851.84 4.62097e-15 0)
(851.84 -1.69237e-13 0)
(851.84 -1.86639e-13 0)
(851.84 4.1415e-14 0)
(851.84 1.57246e-13 0)
(851.84 1.31095e-14 0)
(851.84 1.67426e-14 0)
(851.84 -5.36953e-14 0)
(851.84 -4.22986e-14 0)
(851.84 -1.16977e-13 0)
(851.84 -3.75504e-14 0)
(851.84 -1.80991e-13 0)
(851.84 8.81161e-15 0)
(851.84 -8.83643e-15 0)
(851.84 -7.13027e-14 0)
(851.84 -1.45693e-13 0)
(851.84 -3.34437e-13 0)
(851.84 1.16121e-14 0)
(851.84 9.62451e-15 0)
(851.84 -4.48337e-15 0)
(851.84 -4.735e-14 0)
(851.84 -9.06141e-14 0)
(851.84 -1.23424e-13 0)
(851.84 -1.98287e-13 0)
(851.84 -3.31863e-13 0)
(851.84 -5.64607e-13 0)
(851.84 -6.49493e-13 0)
(851.84 -6.52127e-13 0)
(851.84 -7.30454e-13 0)
(851.84 -7.9711e-13 0)
(851.84 -8.35628e-13 0)
(851.84 -9.36972e-13 0)
(851.84 -9.78178e-13 0)
(851.84 -7.76589e-13 0)
(851.84 -6.37017e-13 0)
(851.84 -4.391e-13 0)
(851.84 -2.79243e-13 0)
(851.84 -3.94783e-13 0)
(851.84 -2.97328e-13 0)
(851.84 -3.1971e-13 0)
(851.84 -2.56658e-13 0)
(851.84 -2.13275e-14 0)
(851.84 -3.89971e-14 0)
(851.84 1.26274e-14 0)
(851.84 -1.03873e-13 0)
(851.84 -5.01259e-14 0)
(851.84 6.60535e-14 0)
(851.84 2.0464e-13 0)
(851.84 8.98504e-14 0)
(851.84 -1.4446e-14 0)
(851.84 -2.54125e-13 0)
(851.84 -1.94921e-13 0)
(851.84 -1.01471e-13 0)
(851.84 -1.02157e-13 0)
(851.84 5.73176e-15 0)
(851.84 7.64533e-14 0)
(851.84 1.93979e-13 0)
(851.84 1.01295e-13 0)
(851.84 4.1004e-14 0)
(851.84 -5.04424e-14 0)
(851.84 -1.89084e-13 0)
(851.84 -2.23116e-13 0)
(851.84 -2.91816e-13 0)
(851.84 -4.44797e-13 0)
(851.84 -3.4427e-13 0)
(851.84 -4.28759e-13 0)
(851.84 -6.41678e-13 0)
(851.84 -5.47054e-13 0)
(851.84 -6.94752e-13 0)
(851.84 -8.0468e-13 0)
(851.84 -8.15173e-13 0)
(851.84 -9.23035e-13 0)
(851.84 -6.5763e-13 0)
(851.84 -5.92826e-13 0)
(851.84 -5.36868e-13 0)
(851.84 -4.42994e-13 0)
(851.84 -5.27056e-13 0)
(851.84 -4.57658e-13 0)
(851.84 -2.06783e-13 0)
(851.84 -8.90807e-14 0)
(851.84 4.11137e-14 0)
(851.84 8.77902e-14 0)
(851.84 -1.27985e-14 0)
(851.84 1.69697e-14 0)
(851.84 1.69907e-13 0)
(851.84 1.1301e-13 0)
(851.84 1.93287e-13 0)
(851.84 5.10435e-13 0)
(851.84 -1.41569e-13 0)
(851.84 -2.22112e-13 0)
(851.84 -2.3928e-13 0)
(851.84 -7.67926e-14 0)
(851.84 1.67235e-13 0)
(851.84 2.29412e-13 0)
(851.84 2.34938e-13 0)
(851.84 2.07487e-13 0)
(851.84 1.75839e-13 0)
(851.84 -2.00391e-13 0)
(851.84 -2.97364e-13 0)
(851.84 -3.32231e-13 0)
(851.84 -2.76159e-13 0)
(851.84 -1.34883e-13 0)
(851.84 -1.28016e-13 0)
(851.84 -3.11201e-13 0)
(851.84 -3.71597e-13 0)
(851.84 -4.73394e-13 0)
(851.84 -5.73594e-13 0)
(851.84 -6.04939e-13 0)
(851.84 -6.92254e-13 0)
(851.84 -6.7239e-13 0)
(851.84 -7.30416e-13 0)
(851.84 -8.40998e-13 0)
(851.84 -8.56261e-13 0)
(851.84 -7.77883e-13 0)
(851.84 -7.68494e-13 0)
(851.84 -6.52983e-13 0)
(851.84 -3.9753e-13 0)
(851.84 2.47182e-14 0)
(851.84 1.43619e-13 0)
(851.84 1.32437e-14 0)
(851.84 -9.49672e-14 0)
(851.84 -1.15258e-13 0)
(851.84 -1.47271e-13 0)
(851.84 -1.07694e-13 0)
(851.84 -7.88876e-14 0)
(851.84 -7.67117e-14 0)
(851.84 1.05064e-13 0)
(851.84 6.66393e-14 0)
(851.84 -6.28385e-14 0)
(851.84 -1.52126e-13 0)
(851.84 -5.91388e-14 0)
(851.84 8.00286e-14 0)
(851.84 1.5392e-13 0)
(851.84 5.12999e-14 0)
(851.84 -1.32849e-14 0)
(851.84 -1.96168e-13 0)
(851.84 -1.59668e-13 0)
(851.84 -3.21618e-13 0)
(851.84 -1.7385e-13 0)
(851.84 -6.04718e-14 0)
(851.84 -2.09298e-13 0)
(851.84 -2.47367e-13 0)
(851.84 -3.46273e-13 0)
(851.84 -4.81339e-13 0)
(851.84 -4.32994e-13 0)
(851.84 -3.5452e-13 0)
(851.84 -3.8875e-13 0)
(851.84 -3.08147e-13 0)
(851.84 -3.35481e-13 0)
(851.84 -4.82276e-13 0)
(851.84 -4.67086e-13 0)
(851.84 -6.26453e-13 0)
(851.84 -5.30758e-13 0)
(851.84 -5.44361e-13 0)
(851.84 -4.65012e-13 0)
(851.84 7.17671e-14 0)
(851.84 3.36849e-14 0)
(851.84 -4.08595e-14 0)
(851.84 2.08496e-14 0)
(851.84 -2.52407e-13 0)
(851.84 -2.29172e-13 0)
(851.84 -1.01572e-13 0)
(851.84 -2.85482e-13 0)
(851.84 -2.31358e-13 0)
(851.84 -2.93296e-14 0)
(851.84 5.06196e-14 0)
(851.84 7.43192e-14 0)
(851.84 3.69852e-14 0)
(851.84 -2.52924e-14 0)
(851.84 -1.03227e-13 0)
(851.84 4.94204e-14 0)
(851.84 1.57998e-13 0)
(851.84 2.4146e-13 0)
(851.84 3.99377e-14 0)
(851.84 -2.75492e-14 0)
(851.84 -5.75778e-16 0)
(851.84 -3.97854e-14 0)
(851.84 2.62926e-14 0)
(851.84 -7.31339e-14 0)
(851.84 -1.56045e-13 0)
(851.84 -1.52603e-13 0)
(851.84 -1.35539e-13 0)
(851.84 -1.71754e-13 0)
(851.84 -3.77044e-13 0)
(851.84 -3.28539e-13 0)
(851.84 -2.70879e-13 0)
(851.84 -1.2744e-13 0)
(851.84 -3.65505e-15 0)
(851.84 -6.93768e-14 0)
(851.84 -1.34073e-13 0)
(851.84 -2.01441e-13 0)
(851.84 -1.66413e-13 0)
(851.84 -1.08685e-13 0)
(851.84 1.75582e-14 0)
(851.84 -1.9369e-13 0)
(851.84 -4.86678e-14 0)
(851.84 6.42196e-14 0)
(851.84 -4.25936e-15 0)
(851.84 -4.41424e-14 0)
(851.84 -3.94207e-14 0)
(851.84 1.04657e-13 0)
(851.84 -2.57408e-14 0)
(851.84 -8.77321e-14 0)
(851.84 -8.77973e-14 0)
(851.84 8.57865e-14 0)
(851.84 2.49458e-13 0)
(851.84 -7.77468e-14 0)
(851.84 -2.96261e-13 0)
(851.84 -1.93829e-13 0)
(851.84 -1.05905e-13 0)
(851.84 -5.49439e-14 0)
(851.84 -2.40037e-15 0)
(851.84 -5.03113e-14 0)
(851.84 1.16885e-13 0)
(851.84 5.1539e-14 0)
(851.84 1.42604e-13 0)
(851.84 2.56966e-13 0)
(851.84 1.60831e-13 0)
(851.84 2.97276e-13 0)
(851.84 1.33606e-13 0)
(851.84 3.52221e-14 0)
(851.84 -8.29125e-14 0)
(851.84 -2.4016e-13 0)
(851.84 -1.00147e-13 0)
(851.84 -5.24174e-14 0)
(851.84 1.41713e-13 0)
(851.84 6.98551e-14 0)
(851.84 1.27853e-13 0)
(851.84 -8.68613e-14 0)
(851.84 -1.04305e-13 0)
(851.84 -1.58156e-13 0)
(851.84 -3.46137e-14 0)
(851.84 -1.50446e-13 0)
(851.84 2.4925e-14 0)
(851.84 5.06311e-14 0)
(851.84 -4.50567e-15 0)
(851.84 -4.91914e-14 0)
(851.84 6.55111e-14 0)
(851.84 1.51784e-13 0)
(851.84 2.40517e-13 0)
(851.84 8.63954e-15 0)
(851.84 -1.74349e-13 0)
(851.84 -6.97641e-14 0)
(851.84 1.40744e-14 0)
(851.84 -5.43569e-14 0)
(851.84 -2.86897e-15 0)
(851.84 -1.41143e-13 0)
(851.84 -2.17431e-13 0)
(851.84 -2.33412e-13 0)
(851.84 -2.55983e-13 0)
(851.84 -3.62205e-14 0)
(851.84 -1.47094e-13 0)
(851.84 -6.9572e-14 0)
(851.84 -1.55359e-13 0)
(851.84 3.55197e-14 0)
(851.84 3.05015e-13 0)
(851.84 1.67343e-13 0)
(851.84 1.85668e-13 0)
(851.84 -2.21363e-14 0)
(851.84 1.55772e-13 0)
(851.84 1.03596e-13 0)
(851.84 1.10942e-13 0)
(851.84 1.077e-13 0)
(851.84 2.03963e-14 0)
(851.84 1.43047e-13 0)
(851.84 4.20108e-14 0)
(851.84 -4.22659e-15 0)
(851.84 -5.96012e-14 0)
(851.84 -9.13302e-14 0)
(851.84 -2.40965e-14 0)
(851.84 1.13084e-13 0)
(851.84 1.55978e-13 0)
(851.84 4.48664e-14 0)
(851.84 8.93917e-14 0)
(851.84 2.33732e-14 0)
(851.84 4.67208e-14 0)
(851.84 2.69673e-14 0)
(851.84 1.18409e-14 0)
(851.84 -1.97662e-14 0)
(851.84 5.56396e-14 0)
(851.84 -3.17602e-14 0)
(851.84 5.30755e-15 0)
(851.84 -9.63333e-14 0)
(851.84 -7.83771e-14 0)
(851.84 -3.50887e-13 0)
(851.84 -2.52633e-13 0)
(851.84 -1.2642e-13 0)
(851.84 -1.51951e-13 0)
(851.84 -5.69133e-14 0)
(851.84 3.4999e-14 0)
(851.84 1.05442e-13 0)
(851.84 -8.94356e-15 0)
(851.84 1.30434e-13 0)
(851.84 3.27768e-13 0)
(851.84 2.54721e-13 0)
(851.84 2.25559e-13 0)
(851.84 1.99529e-13 0)
(851.84 9.47173e-14 0)
(851.84 1.17829e-13 0)
(851.84 1.38029e-13 0)
(851.84 -3.69939e-14 0)
(851.84 -2.08614e-13 0)
(851.84 -2.22899e-13 0)
(851.84 -2.16766e-13 0)
(851.84 -5.25662e-14 0)
(851.84 -5.34536e-15 0)
(851.84 -2.0173e-14 0)
(851.84 5.42152e-14 0)
(851.84 4.20335e-14 0)
(851.84 2.35978e-14 0)
(851.84 2.52486e-14 0)
(851.84 -5.85376e-14 0)
(851.84 -2.91196e-14 0)
(851.84 -1.16585e-13 0)
(851.84 -2.08933e-14 0)
(851.84 6.88422e-15 0)
(851.84 7.21645e-14 0)
(851.84 2.16813e-13 0)
(851.84 1.37743e-13 0)
(851.84 1.16896e-14 0)
(851.84 -1.0874e-13 0)
(851.84 -2.97649e-13 0)
(851.84 -2.5176e-13 0)
(851.84 -3.61099e-13 0)
(851.84 -2.93436e-13 0)
(851.84 -8.2457e-14 0)
(851.84 -1.80165e-13 0)
(851.84 -1.77775e-14 0)
(851.84 7.25162e-14 0)
(851.84 3.1218e-13 0)
(851.84 1.98387e-13 0)
(851.84 2.33233e-13 0)
(851.84 2.97365e-13 0)
(851.84 2.3137e-13 0)
(851.84 1.87745e-13 0)
(851.84 8.17876e-14 0)
(851.84 -2.55825e-15 0)
(851.84 -2.34393e-14 0)
(851.84 -1.43882e-13 0)
(851.84 -2.00837e-13 0)
(851.84 -1.80892e-13 0)
(851.84 5.57616e-14 0)
(851.84 -8.75896e-14 0)
(851.84 -9.02187e-14 0)
(851.84 -8.74067e-14 0)
(851.84 2.84063e-14 0)
(851.84 6.16365e-14 0)
(851.84 -1.66791e-13 0)
(851.84 -3.32624e-14 0)
(851.84 -1.15294e-13 0)
(851.84 -2.61847e-14 0)
(851.84 -2.15818e-13 0)
(851.84 -1.94166e-13 0)
(851.84 -5.70447e-14 0)
(851.84 6.43999e-14 0)
(851.84 8.18116e-14 0)
(851.84 -5.80819e-14 0)
(851.84 -7.95894e-14 0)
(851.84 1.21852e-13 0)
(851.84 5.7456e-14 0)
(851.84 2.06542e-14 0)
(851.84 -6.61901e-14 0)
(851.84 -2.24321e-13 0)
(851.84 -4.17604e-14 0)
(851.84 -6.70352e-14 0)
(851.84 -3.42122e-14 0)
(851.84 -8.15966e-15 0)
(851.84 1.07652e-13 0)
(851.84 -1.73541e-13 0)
(851.84 -7.51412e-14 0)
(851.84 -2.78837e-14 0)
(851.84 1.12004e-13 0)
(851.84 2.28312e-13 0)
(851.84 2.68153e-13 0)
(851.84 2.53361e-13 0)
(851.84 8.03672e-14 0)
(851.84 1.02242e-13 0)
(851.84 1.47861e-13 0)
(851.84 1.66032e-13 0)
(851.84 1.60085e-13 0)
(851.84 -4.54083e-14 0)
(851.84 -2.09512e-13 0)
(851.84 -8.95638e-14 0)
(851.84 -5.19908e-14 0)
(851.84 -6.5979e-14 0)
(851.84 -2.14009e-13 0)
(851.84 -3.75221e-14 0)
(851.84 1.15423e-13 0)
(851.84 -6.68421e-14 0)
(851.84 -5.26447e-14 0)
(851.84 -1.35524e-13 0)
(851.84 -2.27962e-13 0)
(851.84 -1.57901e-13 0)
(851.84 -1.64025e-13 0)
(851.84 -4.54558e-14 0)
(851.84 -1.26408e-13 0)
(851.84 -4.40066e-14 0)
(851.84 -8.29701e-14 0)
(851.84 -1.56133e-13 0)
(851.84 -1.16606e-13 0)
(851.84 -1.66702e-13 0)
(851.84 -1.13816e-13 0)
(851.84 1.32864e-13 0)
(851.84 -8.95591e-14 0)
(851.84 -9.7805e-14 0)
(851.84 -1.23875e-13 0)
(851.84 -7.50005e-14 0)
(851.84 -1.14395e-13 0)
(851.84 1.25959e-14 0)
(851.84 7.74397e-14 0)
(851.84 1.73766e-13 0)
(851.84 2.10613e-13 0)
(851.84 1.88301e-13 0)
(851.84 2.10177e-13 0)
(851.84 2.17253e-13 0)
(851.84 2.83782e-13 0)
(851.84 3.23834e-13 0)
(851.84 1.05513e-13 0)
(851.84 1.98504e-13 0)
(851.84 1.83525e-13 0)
(851.84 5.71054e-14 0)
(851.84 2.23786e-14 0)
(851.84 -1.45683e-13 0)
(851.84 -1.28161e-13 0)
(851.84 -1.64631e-13 0)
(851.84 -6.09152e-15 0)
(851.84 1.645e-13 0)
(851.84 2.71393e-13 0)
(851.84 1.13528e-13 0)
(851.84 8.04291e-16 0)
(851.84 -6.0718e-15 0)
(851.84 -1.28466e-13 0)
(851.84 -1.2904e-15 0)
(851.84 -2.12774e-13 0)
(851.84 -3.74969e-13 0)
(851.84 -1.6842e-13 0)
(851.84 -6.88955e-14 0)
(851.84 -5.53389e-14 0)
(851.84 2.0186e-14 0)
(851.84 -6.42706e-14 0)
(851.84 3.41805e-14 0)
(851.84 -1.3462e-13 0)
(851.84 -1.73992e-13 0)
(851.84 -2.17492e-13 0)
(851.84 3.52406e-14 0)
(851.84 6.58074e-14 0)
(851.84 1.06531e-13 0)
(851.84 6.15014e-14 0)
(851.84 1.71981e-14 0)
(851.84 1.09341e-13 0)
(851.84 2.25837e-14 0)
(851.84 4.1302e-14 0)
(851.84 1.53329e-13 0)
(851.84 8.32253e-14 0)
(851.84 1.6055e-13 0)
(851.84 1.42629e-13 0)
(851.84 9.84352e-14 0)
(851.84 2.1641e-13 0)
(851.84 2.35685e-13 0)
(851.84 7.05991e-14 0)
(851.84 1.4237e-13 0)
(851.84 9.187e-14 0)
(851.84 7.18473e-14 0)
(851.84 1.4038e-13 0)
(851.84 2.48449e-13 0)
(851.84 2.36886e-13 0)
(851.84 1.51885e-13 0)
(851.84 9.67665e-14 0)
(851.84 5.82621e-16 0)
(851.84 -6.93914e-15 0)
(851.84 1.02192e-13 0)
(851.84 -2.17534e-14 0)
(851.84 -4.41374e-15 0)
(851.84 1.4953e-13 0)
(851.84 1.92032e-13 0)
(851.84 1.78512e-13 0)
(851.84 2.00932e-13 0)
(851.84 -4.80325e-14 0)
(851.84 -7.42373e-14 0)
(851.84 1.83188e-13 0)
(851.84 9.16799e-14 0)
(851.84 1.12005e-13 0)
(851.84 2.79358e-13 0)
(851.84 3.22402e-13 0)
(851.84 1.36618e-13 0)
(851.84 9.53131e-14 0)
(851.84 1.71243e-13 0)
(851.84 6.35237e-14 0)
(851.84 -6.94927e-14 0)
(851.84 -1.5744e-13 0)
(851.84 -5.62503e-14 0)
(851.84 -7.89929e-15 0)
(851.84 -1.36288e-13 0)
(851.84 8.32528e-14 0)
(851.84 1.01164e-13 0)
(851.84 2.06024e-13 0)
(851.84 3.46166e-13 0)
(851.84 2.18256e-14 0)
(851.84 1.7623e-13 0)
(851.84 1.26599e-13 0)
(851.84 1.17477e-13 0)
(851.84 -3.54617e-14 0)
(851.84 -1.27434e-13 0)
(851.84 -7.57467e-14 0)
(851.84 2.29985e-14 0)
(851.84 1.56642e-13 0)
(851.84 2.96844e-13 0)
(851.84 2.31089e-13 0)
(851.84 1.25389e-13 0)
(851.84 3.6142e-14 0)
(851.84 1.63334e-14 0)
(851.84 1.07537e-13 0)
(851.84 1.38087e-13 0)
(851.84 6.16277e-15 0)
(851.84 -1.50277e-15 0)
(851.84 -1.26169e-13 0)
(851.84 -5.32513e-15 0)
(851.84 1.40415e-13 0)
(851.84 1.50625e-13 0)
(851.84 4.59432e-14 0)
(851.84 2.92911e-13 0)
(851.84 2.64318e-13 0)
(851.84 2.82227e-13 0)
(851.84 2.92044e-13 0)
(851.84 5.79384e-14 0)
(851.84 -2.55583e-13 0)
(851.84 -3.71779e-13 0)
(851.84 -3.62578e-13 0)
(851.84 -3.32829e-13 0)
(851.84 -1.68573e-13 0)
(851.84 -1.11763e-13 0)
(851.84 -3.72031e-14 0)
(851.84 2.95131e-13 0)
(851.84 2.41005e-13 0)
(851.84 2.13147e-13 0)
(851.84 -3.03454e-14 0)
(851.84 5.72005e-14 0)
(851.84 1.05666e-13 0)
(851.84 -9.47565e-14 0)
(851.84 -1.55457e-13 0)
(851.84 -2.49043e-14 0)
(851.84 6.23047e-15 0)
(851.84 7.22592e-14 0)
(851.84 3.82465e-14 0)
(851.84 1.11604e-13 0)
(851.84 2.48136e-13 0)
(851.84 8.65151e-15 0)
(851.84 -1.34165e-14 0)
(851.84 6.15297e-14 0)
(851.84 -4.49038e-14 0)
(851.84 -4.74173e-14 0)
(851.84 -7.09688e-14 0)
(851.84 -2.41945e-13 0)
(851.84 -1.56904e-13 0)
(851.84 -6.1285e-14 0)
(851.84 -1.74832e-14 0)
(851.84 -2.56831e-14 0)
(851.84 -1.40255e-14 0)
(851.84 6.88744e-14 0)
(851.84 3.00017e-14 0)
(851.84 2.08712e-13 0)
(851.84 1.19098e-13 0)
(851.84 -1.7435e-13 0)
(851.84 -2.55831e-13 0)
(851.84 -3.1777e-13 0)
(851.84 -2.82995e-13 0)
(851.84 -2.45065e-13 0)
(851.84 -4.54071e-13 0)
(851.84 1.20962e-13 0)
(851.84 2.33872e-14 0)
(851.84 2.23073e-14 0)
(851.84 -7.67245e-14 0)
(851.84 -7.69292e-14 0)
(851.84 -2.61516e-14 0)
(851.84 -3.62311e-14 0)
(851.84 5.33679e-14 0)
(851.84 6.24982e-14 0)
(851.84 1.54353e-13 0)
(851.84 2.74418e-13 0)
(851.84 3.05353e-13 0)
(851.84 2.81337e-13 0)
(851.84 1.25245e-13 0)
(851.84 1.60531e-13 0)
(851.84 1.71217e-13 0)
(851.84 1.3216e-13 0)
(851.84 7.51496e-14 0)
(851.84 2.37995e-13 0)
(851.84 -1.07364e-13 0)
(851.84 -2.23892e-13 0)
(851.84 -9.42488e-14 0)
(851.84 -1.07206e-13 0)
(851.84 5.54987e-14 0)
(851.84 -6.2532e-14 0)
(851.84 -4.4906e-14 0)
(851.84 1.85099e-13 0)
(851.84 3.14326e-13 0)
(851.84 1.85844e-13 0)
(851.84 1.48039e-13 0)
(851.84 1.02167e-13 0)
(851.84 4.05249e-15 0)
(851.84 2.18991e-14 0)
(851.84 8.0298e-14 0)
(851.84 7.39757e-14 0)
(851.84 2.01168e-14 0)
(851.84 -4.73574e-14 0)
(851.84 2.08673e-14 0)
(851.84 1.83875e-14 0)
(851.84 2.27572e-13 0)
(851.84 1.64665e-13 0)
(851.84 1.2963e-13 0)
(851.84 1.62171e-13 0)
(851.84 3.26514e-14 0)
(851.84 -4.49111e-14 0)
(851.84 -6.9531e-14 0)
(851.84 3.55932e-13 0)
(851.84 2.2765e-13 0)
(851.84 2.00398e-13 0)
(851.84 1.23785e-13 0)
(851.84 8.16245e-14 0)
(851.84 2.32722e-13 0)
(851.84 3.09577e-13 0)
(851.84 1.87322e-13 0)
(851.84 2.46823e-13 0)
(851.84 2.75548e-13 0)
(851.84 1.22188e-13 0)
(851.84 -5.55385e-15 0)
(851.84 -2.67144e-13 0)
(851.84 -4.60895e-14 0)
(851.84 1.67008e-13 0)
(851.84 2.56222e-13 0)
(851.84 1.09913e-13 0)
(851.84 1.59735e-13 0)
(851.84 3.6574e-13 0)
(851.84 2.06973e-13 0)
(851.84 2.30154e-13 0)
(851.84 2.09453e-13 0)
(851.84 -1.47446e-14 0)
(851.84 1.51581e-13 0)
(851.84 2.15636e-13 0)
(851.84 3.28892e-13 0)
(851.84 4.49251e-13 0)
(851.84 3.4398e-13 0)
(851.84 3.98419e-13 0)
(851.84 3.61765e-13 0)
(851.84 2.88525e-13 0)
(851.84 3.27423e-13 0)
(851.84 4.41866e-13 0)
(851.84 4.99238e-13 0)
(851.84 2.05103e-13 0)
(851.84 7.80315e-15 0)
(851.84 -4.72158e-14 0)
(851.84 2.60289e-14 0)
(851.84 4.08433e-14 0)
(851.84 -5.45876e-14 0)
(851.84 -1.05605e-13 0)
(851.84 -9.60625e-14 0)
(851.84 -5.15105e-14 0)
(851.84 3.66398e-16 0)
(851.84 -1.50557e-13 0)
(851.84 -1.94631e-13 0)
(851.84 -1.35543e-13 0)
(851.84 -9.6601e-14 0)
(851.84 -1.66308e-13 0)
(851.84 -1.06131e-13 0)
(851.84 -6.487e-14 0)
(851.84 5.14921e-14 0)
(851.84 2.6776e-13 0)
(851.84 2.3959e-13 0)
(851.84 1.70479e-13 0)
(851.84 1.66059e-13 0)
(851.84 7.76223e-14 0)
(851.84 8.05947e-14 0)
(851.84 -2.31102e-14 0)
(851.84 -8.4336e-14 0)
(851.84 -9.26193e-14 0)
(851.84 2.36598e-14 0)
(851.84 3.2155e-13 0)
(851.84 5.2326e-13 0)
(851.84 7.38643e-13 0)
(851.84 7.759e-13 0)
(851.84 7.7568e-13 0)
(851.84 6.76929e-13 0)
(851.84 5.17848e-13 0)
(851.84 3.482e-13 0)
(851.84 3.12177e-13 0)
(851.84 3.70617e-13 0)
(851.84 1.48065e-13 0)
(851.84 -3.22459e-16 0)
(851.84 1.9928e-14 0)
(851.84 -1.305e-13 0)
(851.84 -9.63258e-14 0)
(851.84 -3.80342e-15 0)
(851.84 -7.46211e-14 0)
(851.84 -8.28506e-14 0)
(851.84 -9.95601e-15 0)
(851.84 -2.61253e-14 0)
(851.84 -2.44599e-14 0)
(851.84 -3.9867e-14 0)
(851.84 -1.56117e-13 0)
(851.84 -3.19108e-13 0)
(851.84 2.01514e-14 0)
(851.84 -2.99095e-14 0)
(851.84 1.94063e-13 0)
(851.84 9.73661e-14 0)
(851.84 1.43455e-13 0)
(851.84 1.81846e-13 0)
(851.84 2.39176e-13 0)
(851.84 1.16336e-13 0)
(851.84 1.93378e-14 0)
(851.84 1.03456e-13 0)
(851.84 -3.52445e-13 0)
(851.84 -3.82152e-13 0)
(851.84 -1.27796e-13 0)
(851.84 -1.96329e-14 0)
(851.84 2.20042e-13 0)
(851.84 3.23851e-13 0)
(851.84 3.97462e-13 0)
(851.84 3.99159e-13 0)
(851.84 4.3271e-13 0)
(851.84 4.94274e-13 0)
(851.84 4.29643e-13 0)
(851.84 2.69413e-13 0)
(851.84 7.14848e-14 0)
(851.84 -2.42901e-14 0)
(851.84 -8.83951e-15 0)
(851.84 -4.61353e-14 0)
(851.84 -2.45286e-14 0)
(851.84 2.75757e-14 0)
(851.84 9.62313e-14 0)
(851.84 4.5387e-14 0)
(851.84 7.56424e-14 0)
(851.84 -1.16536e-13 0)
(851.84 -8.27602e-14 0)
(851.84 1.09021e-13 0)
(851.84 1.08885e-13 0)
(851.84 5.67426e-14 0)
(851.84 -1.42067e-13 0)
(851.84 -8.0963e-14 0)
(851.84 8.78955e-14 0)
(851.84 2.18488e-13 0)
(851.84 3.31642e-13 0)
(851.84 3.22895e-13 0)
(851.84 2.33096e-13 0)
(851.84 4.71433e-13 0)
(851.84 4.40198e-13 0)
(851.84 2.4359e-13 0)
(851.84 4.62127e-14 0)
(851.84 -3.92719e-13 0)
(851.84 -4.41653e-13 0)
(851.84 -3.58667e-13 0)
(851.84 -1.73104e-13 0)
(851.84 -1.69031e-14 0)
(851.84 1.03848e-13 0)