/*--------------------------------*- C++ -*----------------------------------*\
| =========                 |                                                 |
| \\      /  F ield         | OpenFOAM: The Open Source CFD Toolbox           |
|  \\    /   O peration     | Version:  v1812                                 |
|   \\  /    A nd           | Web:      www.OpenFOAM.com                      |
|    \\/     M anipulation  |                                                 |
\*---------------------------------------------------------------------------*/
FoamFile
{
    version     2.0;
    format      ascii;
    class       volScalarField;
    location    "0.5";
    object      p;
}
// * * * * * * * * * * * * * * * * * * * * * * * * * * * * * * * * * * * * * //

dimensions      [1 -1 -2 0 0 0 0];


internalField   nonuniform List<scalar> 
20400
(
97059.6
97066.7
97067.6
97074.6
97078.6
97088.5
97097.5
97109.5
97122.7
97136.4
97152.2
97166.8
97184.2
97201.1
97218.1
97235.5
97252.7
97269
97284.4
97298.8
97312.1
97323.9
97334.5
97342.3
97347.9
97351.2
97353
97351.2
97345.7
97338.7
97328.6
97315
97298.8
97277.6
97258.2
97232.2
97207.1
97168.3
97134.5
97091.7
97047
96998.8
96950.5
96901.4
96849
96792.1
96730.4
96665.5
96600.1
96531.9
96464.8
96396.9
96330.3
96263.2
96199.7
96132.7
96069.1
96011.9
95957.8
95906.6
95853.6
95805.6
95758.7
95718
95680.3
95647.6
95617.9
95591.3
95572.6
95551.5
95534.1
95518.2
95504.8
95492.8
95481.5
95471
95463
95455.9
95450.8
95447.5
95445.2
95443.5
95441.1
95445
95445.1
95446.2
95447.7
95457.2
95449
95451.1
95457.9
95468.4
95473.2
95482.2
95504.7
95521.3
95518.8
95533.1
95549.7
95568.4
95587
95605.8
95624.6
95644.9
95666.2
95689.7
95715.4
95742
95770.9
95796.5
95823.9
95857.4
95885
95912.6
95942.4
95973.2
96006
96039.5
96072.9
96107.9
96143.3
96179
96214.7
96250.4
96286.2
96321.2
96355.7
96389.7
96422.7
96453.4
96481.7
96507.5
96537.7
96567.9
96600.8
96640.4
96671.3
96701
96725.9
96754.4
96783.3
96811.1
96838.3
96862.8
96886.7
96909.8
96931.5
96950.1
96969.6
96991.4
97007.9
97026.2
97042.1
97058.1
97073
97086.6
97100.2
97111.5
97122.6
97132.8
97142
97150.5
97157.8
97163.9
97168.8
97172.1
97173.7
97175.4
97176.8
97177.4
97176.6
97174.7
97171.8
97167.2
97161.1
97154.1
97146.6
97138.2
97128.3
97116.8
97105
97092.5
97079.5
97065.9
97051.4
97035.2
97019.8
97002.9
96985.4
96967.1
96948.1
96928.3
96908.2
96887.4
96866.1
96844.2
96821.9
96799.2
96776.1
96752.7
96728.9
96704.8
96680.4
96655.7
96630.8
96605.8
96580.7
96555.6
96530.6
96505.6
96480.9
96456.3
96432.1
96408
96384.3
96360.8
96337.7
96315
96292.8
96271.1
96250
96229.4
96209.4
96189.9
96171.1
96152.8
96135
96117.9
96101.5
96085.7
96070.7
96056.3
96042.8
96030.1
96018.3
96007.2
95997.2
95988.1
95980.1
95973.2
95967.4
95962.6
95958.8
95956.1
95955
95955
95955.8
95957.8
95961.1
95965.8
95971.9
95979.3
95987.9
95997.7
96008.8
96021.1
96034.6
96049.4
96065.5
96083
96101.4
96121
96141.8
96163.8
96187
96211.3
96236.7
96263.2
96290.7
96319.3
96348.9
96379.5
96411.1
96443.6
96477
96511.4
96546.5
96582.5
96619.3
96656.9
96695.2
96734.2
96773.9
96814.2
96855.2
96896.7
96938.8
96981.4
97024.5
97068
97111.9
97156.2
97200.9
97245.9
97291.3
97337
97382.9
97429.1
97475.6
97522.2
97569
97615.8
97662.8
97709.8
97756.8
97803.9
97851.1
97898.2
97945.4
97992.5
98039.6
98086.7
98133.8
98180.8
98227.7
98274.5
98321.3
98368
98414.5
98460.9
98507.2
98553.3
98599.2
98645
98690.5
98735.8
98780.9
98825.8
98870.4
98914.9
98959
99002.9
99046.5
99089.8
99132.7
99175.3
99217.6
99259.4
99300.9
99342
99382.7
99422.9
99462.6
99501.8
99540.6
99578.8
99616.5
99653.7
99690.3
99726.5
99762
99797.1
99831.6
99865.6
99899
99932
99964.4
99996.4
100028
100059
100089
100119
100149
100178
100207
100235
100263
100291
100318
100345
100371
100398
100423
100449
100474
100499
100524
100549
100573
100597
100621
100644
100667
100690
100713
100735
100757
100779
100800
100821
100842
100862
100882
100902
100921
100940
100958
100976
100993
101010
101026
101042
101057
101072
101086
101100
101113
101125
101137
101148
101158
101168
101178
101187
101195
101203
101210
101217
101223
101228
101234
101238
101243
101247
101250
101254
101257
101259
101262
101264
101266
101267
101269
101270
101271
101272
101273
101273
101274
101274
101274
101275
101275
101275
101275
101275
101275
101275
101274
101274
101274
101274
101273
101273
101273
101272
101272
101271
101271
101271
101270
101270
101269
101269
101269
101269
101268
101268
101268
101268
101268
101268
101268
101269
101269
101270
101270
101271
101272
101273
101275
101276
101278
101279
101281
101283
101285
101288
101290
101293
101296
101298
101301
101304
101307
101311
101314
101317
101320
101323
97046.1
97053.4
97049.7
97056.4
97064.4
97076.3
97087.4
97100.5
97114.5
97128.4
97144
97159.2
97175.9
97192.5
97209.6
97227.2
97244.4
97260.8
97276.3
97290.5
97303.5
97315.1
97325.3
97332.9
97339
97343.1
97345.9
97345.2
97340.9
97335.3
97326.4
97314
97298.7
97277.4
97254.8
97227.2
97198.2
97165
97130
97092.2
97068
97016
96973.3
96926.2
96875.8
96822.4
96765.8
96707.3
96648
96586.9
96522.6
96456.2
96389.1
96319.4
96250.5
96175.8
96103.6
96038.9
95974.9
95914.9
95854.9
95802.4
95756.5
95733
95689
95654.2
95620.7
95590.8
95562.9
95535.4
95510.7
95487.3
95466.7
95449.3
95434
95421.5
95409.5
95398.6
95387.8
95375.9
95364.5
95354.9
95346.9
95333.8
95331.4
95329.2
95329.8
95344.8
95367.7
95374.7
95384.8
95397.3
95421.4
95438.5
95465.5
95481.7
95484.1
95501.5
95524.5
95551.6
95574.7
95598.2
95621.8
95646
95671
95697.9
95727.7
95759.9
95792.5
95820.3
95831.2
95857
95884.5
95914.4
95946.9
95980
96016.8
96052.7
96086.4
96119.2
96151.2
96184
96217.7
96253.5
96291.4
96330.4
96369.8
96408.6
96446.8
96483.4
96516.8
96548.4
96572
96593
96617.7
96650.3
96680.7
96710.7
96738
96765.8
96793.1
96818.9
96843.5
96867
96889.7
96913.2
96934
96954.4
96973.6
96991.9
97007.3
97023.9
97038.8
97053.5
97067.3
97080.6
97093.9
97105.2
97116
97126.7
97136.2
97144.4
97151.6
97157.5
97162.1
97165.5
97167.3
97169.7
97172.7
97174.7
97175.2
97173.3
97170.2
97165.9
97160.2
97153.8
97147
97139.1
97129
97117.6
97105.3
97092.6
97078.6
97065
97050.4
97035.1
97019.7
97002.8
96985.3
96967.3
96948.5
96928.8
96908.8
96888
96866.7
96844.8
96822.4
96799.7
96776.6
96753.1
96729.4
96705.3
96681.1
96656.6
96632
96607.1
96582.2
96557.2
96532.1
96507.2
96482.3
96457.7
96433.3
96409.2
96385.4
96362
96338.9
96316.3
96294.1
96272.4
96251.3
96230.7
96210.7
96191.3
96172.4
96154.2
96136.5
96119.4
96102.9
96087.1
96072
96057.6
96044
96031.3
96019.4
96008.4
95998.3
95989.3
95981.3
95974.4
95968.6
95963.8
95960
95957.1
95956
95956
95956.8
95958.7
95962
95966.8
95972.8
95980.2
95988.8
95998.6
96009.6
96021.9
96035.4
96050.1
96066.1
96083.3
96101.7
96121.2
96142
96164
96187.1
96211.4
96236.8
96263.3
96290.8
96319.4
96349
96379.6
96411.1
96443.6
96477
96511.2
96546.3
96582.3
96619
96656.6
96694.9
96733.8
96773.5
96813.8
96854.8
96896.3
96938.4
96981
97024.1
97067.6
97111.5
97155.8
97200.5
97245.5
97290.8
97336.5
97382.4
97428.6
97475
97521.6
97568.4
97615.3
97662.3
97709.4
97756.4
97803.5
97850.7
97897.8
97945
97992.1
98039.2
98086.3
98133.3
98180.3
98227.2
98274.1
98320.9
98367.6
98414.1
98460.6
98506.9
98553
98599
98644.7
98690.3
98735.6
98780.7
98825.6
98870.2
98914.7
98958.8
99002.7
99046.3
99089.5
99132.5
99175.1
99217.3
99259.2
99300.6
99341.7
99382.3
99422.5
99462.2
99501.5
99540.2
99578.5
99616.2
99653.4
99690
99726.1
99761.7
99796.7
99831.2
99865.2
99898.6
99931.6
99964
99996
100027
100058
100089
100119
100149
100178
100207
100235
100263
100290
100318
100344
100371
100397
100423
100449
100474
100499
100524
100548
100573
100597
100620
100644
100667
100690
100712
100735
100757
100778
100800
100821
100842
100862
100882
100902
100921
100940
100958
100976
100993
101010
101026
101042
101057
101072
101086
101099
101112
101125
101136
101148
101158
101168
101178
101186
101195
101202
101210
101216
101223
101228
101234
101238
101243
101247
101250
101254
101256
101259
101262
101264
101266
101267
101269
101270
101271
101272
101273
101273
101274
101274
101275
101275
101275
101275
101275
101275
101275
101275
101275
101275
101274
101274
101274
101273
101273
101273
101272
101272
101272
101271
101271
101270
101270
101270
101269
101269
101269
101269
101269
101269
101269
101269
101269
101269
101270
101270
101271
101272
101273
101274
101275
101277
101278
101280
101282
101284
101286
101288
101291
101293
101296
101299
101302
101305
101308
101311
101314
101317
101320
101323
97033
97043.1
97038.7
97047.4
97056
97067
97078.5
97091.7
97106.5
97121.5
97138
97153.2
97170.2
97187.5
97205.2
97223.1
97241
97257.7
97273.5
97288.2
97301.9
97314
97324.7
97332.6
97339.1
97343.5
97346.4
97345.3
97340.7
97334.4
97324.2
97310.5
97292.2
97273.4
97253.9
97227.7
97202.8
97170.2
97141.3
97102.5
97054.9
97008.9
96964.4
96913.8
96859.9
96803.5
96743.9
96680.6
96615.6
96547.3
96477.4
96407.2
96338
96272
96216.1
96161.3
96107.2
96028
95967.8
95908.8
95854.9
95799
95742.9
95694.1
95644.3
95602.5
95562.5
95527.9
95497.7
95469.6
95446
95425.9
95412.5
95404.9
95403.6
95405.2
95407.3
95409.4
95410.5
95410.4
95409.9
95409.5
95409
95413.6
95416.9
95421.5
95431.4
95435.8
95441.2
95451.1
95461.9
95476.2
95484
95494.9
95515.4
95534
95537.5
95552
95559.1
95565.9
95578.1
95595.1
95612.5
95632
95653.2
95677.1
95703.6
95733.4
95767.6
95791.5
95818.9
95850.5
95879.7
95908.4
95938.9
95971.2
96002.2
96036.3
96072.6
96110
96146.5
96182.7
96217.7
96252.5
96288.8
96326.6
96364.8
96400
96430.1
96455.3
96478.1
96500.5
96526
96553.3
96586.5
96631.2
96662.8
96698.6
96728.2
96756.1
96782.8
96812
96838.6
96863.7
96888.2
96911.7
96932.2
96949.7
96968.4
96990.7
97007.5
97023.7
97039.9
97056.3
97070.5
97083.6
97095.7
97105.9
97116.2
97126.6
97137.8
97146.6
97155
97162.9
97170.3
97177.3
97182.6
97186
97185
97181.3
97175.8
97170.7
97165.1
97158.9
97151.9
97144.7
97138.3
97132.5
97124.5
97114.2
97103.3
97092.7
97081.5
97069.4
97055.8
97038.7
97020.2
97003
96985.3
96966
96946.9
96927.4
96907.6
96887.4
96866.2
96844.5
96822.1
96799.3
96776.2
96752.8
96729
96705
96680.7
96656.1
96631.3
96606.3
96581.2
96556
96530.9
96505.9
96481.1
96456.5
96432.2
96408.2
96384.5
96361.2
96338.1
96315.5
96293.3
96271.6
96250.4
96229.8
96209.9
96190.5
96171.6
96153.4
96135.7
96118.5
96102.1
96086.3
96071.2
96056.9
96043.4
96030.8
96019
96008.1
95998.1
95989.1
95981.1
95974.3
95968.3
95963.8
95960.1
95957.4
95956.1
95956
95956.9
95958.9
95962.2
95966.9
95973
95980.3
95988.9
95998.7
96009.7
96022
96035.4
96050.2
96066.1
96083.3
96101.7
96121.3
96142.1
96164
96187.1
96211.4
96236.7
96263.1
96290.6
96319.1
96348.6
96379.2
96410.7
96443.1
96476.4
96510.7
96545.7
96581.6
96618.4
96655.8
96694.1
96733
96772.7
96812.9
96853.9
96895.3
96937.4
96979.9
97023
97066.5
97110.4
97154.7
97199.3
97244.3
97289.6
97335.3
97381.2
97427.4
97473.8
97520.4
97567.2
97614.1
97661.1
97708.1
97755.2
97802.3
97849.4
97896.6
97943.7
97990.9
98038
98085.2
98132.3
98179.3
98226.2
98273.1
98319.9
98366.5
98413.1
98459.6
98505.9
98552
98598
98643.8
98689.3
98734.6
98779.7
98824.6
98869.3
98913.7
98957.9
99001.7
99045.4
99088.6
99131.6
99174.2
99216.4
99258.3
99299.8
99340.8
99381.5
99421.7
99461.4
99500.7
99539.4
99577.6
99615.3
99652.5
99689.1
99725.2
99760.8
99795.8
99830.3
99864.3
99897.7
99930.7
99963.1
99995.1
100027
100057
100088
100118
100148
100177
100206
100234
100262
100289
100317
100343
100370
100396
100422
100448
100473
100498
100523
100547
100572
100596
100619
100643
100666
100689
100712
100734
100756
100778
100799
100820
100841
100861
100881
100901
100920
100939
100957
100975
100992
101009
101025
101041
101056
101071
101085
101099
101112
101124
101136
101147
101158
101168
101177
101186
101194
101202
101209
101216
101222
101228
101233
101238
101242
101246
101250
101253
101256
101259
101261
101264
101265
101267
101269
101270
101271
101272
101273
101273
101274
101274
101275
101275
101275
101275
101276
101276
101276
101275
101275
101275
101275
101275
101274
101274
101274
101274
101273
101273
101272
101272
101272
101271
101271
101271
101270
101270
101270
101270
101270
101270
101270
101270
101270
101270
101271
101271
101272
101273
101274
101275
101276
101277
101279
101281
101282
101284
101286
101289
101291
101294
101296
101299
101302
101305
101308
101311
101314
101317
101320
101323
97014.9
97018.4
97013.8
97023.3
97030.5
97041.2
97052.5
97064.8
97079.3
97093.6
97109.2
97125.7
97143.1
97161.2
97178.4
97194.6
97210.4
97226.9
97242.3
97257.4
97271.7
97284.8
97296.6
97305.7
97314.4
97321
97326.9
97327.5
97325.3
97322.1
97313.8
97304.1
97289.2
97271
97249.3
97224.8
97199.3
97169.9
97139
97098.1
97051.6
97009.2
96962.5
96911.2
96859.2
96805.3
96746.1
96679.5
96611.1
96539.2
96467.6
96397
96325.8
96250.3
96181.1
96113.5
96053.3
95997.1
95932.5
95870.2
95816
95768.3
95723.5
95682.8
95642.9
95610.6
95579
95552.8
95530.8
95511.7
95499.7
95489.4
95481.2
95473.4
95465.3
95457.2
95449.8
95442.6
95437.1
95433.3
95431.3
95429.3
95426
95423.6
95421.4
95421.4
95427
95428
95431.7
95438.5
95446.8
95457.8
95467.8
95478.8
95499.5
95516.9
95525.3
95547.1
95562.9
95576
95592.9
95610.8
95629.7
95649.9
95670.8
95693.2
95716.8
95743.8
95771
95798.1
95822.8
95851
95876
95901.2
95930.1
95964
95998.7
96034.6
96071.4
96108
96143.8
96180.3
96216.8
96250.7
96282.2
96315
96349.5
96383.4
96415.2
96445.8
96474
96499.5
96527.1
96557.9
96591.4
96638.4
96677.7
96708.1
96732
96756.5
96784.3
96811.7
96834.3
96856.8
96879.1
96903.8
96926.3
96948.5
96974.1
96986.8
97002.7
97021.1
97037.9
97055.1
97069.9
97084.8
97100.3
97114.1
97125.7
97137.7
97141.4
97145.7
97151.5
97157.7
97163.9
97170
97174.5
97178
97180.5
97180.4
97180.6
97180
97178.9
97176.9
97173.6
97168.9
97159.9
97145.5
97129.8
97115.8
97103.2
97089.5
97076.1
97062.8
97049.4
97034.8
97019.8
97003.1
96986.6
96970.3
96951.3
96930.5
96909.1
96887.6
96866.1
96844.2
96821.9
96799.3
96776.3
96752.9
96729
96704.9
96680.6
96656
96631.1
96606.2
96581.1
96556
96530.9
96506
96481.2
96456.6
96432.2
96408.2
96384.5
96361.2
96338.2
96315.6
96293.4
96271.8
96250.6
96230
96210
96190.6
96171.7
96153.5
96135.8
96118.8
96102.4
96086.7
96071.7
96057.4
96043.9
96031.2
96019.5
96008.6
95998.6
95989.5
95981.6
95975
95969.2
95964.4
95960.7
95958.1
95956.8
95956.7
95957.7
95959.7
95963.1
95967.8
95973.8
95981
95989.5
95999.3
96010.3
96022.5
96036
96050.7
96066.6
96083.7
96102
96121.5
96142.3
96164.2
96187.3
96211.5
96236.8
96263.1
96290.5
96319
96348.4
96378.9
96410.3
96442.7
96476
96510.1
96545.1
96581
96617.7
96655.1
96693.3
96732.2
96771.8
96812
96852.9
96894.3
96936.3
96978.8
97021.9
97065.3
97109.2
97153.5
97198.1
97243.1
97288.4
97334.1
97380
97426.2
97472.6
97519.2
97566
97612.9
97659.9
97706.9
97754
97801.2
97848.3
97895.5
97942.7
97989.9
98037.1
98084.2
98131.3
98178.3
98225.3
98272.2
98319
98365.7
98412.3
98458.8
98505.1
98551.2
98597.2
98643
98688.5
98733.9
98779
98823.9
98868.6
98913
98957.2
99001.1
99044.7
99088
99130.9
99173.5
99215.8
99257.7
99299.1
99340.2
99380.8
99421
99460.7
99499.9
99538.6
99576.8
99614.5
99651.7
99688.3
99724.4
99760
99795
99829.5
99863.4
99896.9
99929.8
99962.2
99994.2
100026
100057
100087
100117
100147
100176
100205
100233
100261
100288
100316
100342
100369
100395
100421
100447
100472
100497
100522
100546
100571
100595
100618
100642
100665
100688
100711
100733
100755
100777
100798
100819
100840
100861
100881
100900
100919
100938
100956
100974
100992
101008
101025
101041
101056
101071
101085
101098
101111
101124
101135
101147
101157
101167
101177
101185
101194
101202
101209
101216
101222
101228
101233
101238
101242
101246
101250
101253
101256
101259
101261
101263
101265
101267
101269
101270
101271
101272
101273
101274
101274
101275
101275
101276
101276
101276
101276
101276
101276
101276
101276
101276
101276
101276
101276
101275
101275
101275
101275
101274
101274
101274
101273
101273
101273
101272
101272
101272
101272
101272
101272
101272
101272
101272
101272
101272
101273
101273
101274
101274
101275
101276
101277
101279
101280
101282
101284
101285
101288
101290
101292
101294
101297
101300
101303
101305
101308
101311
101314
101317
101320
101324
97000.9
97003.4
97003.2
97014.1
97021.6
97032.3
97044.8
97057.4
97072.5
97087.9
97105.5
97122.1
97139.7
97157.8
97175.4
97194
97211.6
97228.6
97245.2
97261
97275.7
97289.1
97300.8
97309.5
97317.5
97323.1
97329.6
97330.3
97324.7
97321.7
97312.8
97301
97285.9
97266.5
97248.4
97223.9
97195.5
97165.8
97135.5
97095
97049.3
97005.8
96958.7
96908.4
96854
96794.5
96731.7
96664.2
96596.7
96525.7
96453.3
96384.3
96311.2
96237.8
96168.6
96097.4
96031.5
95973.2
95916.6
95860.9
95810.3
95764.2
95720.6
95685.3
95651.9
95623.5
95596.8
95576
95555
95530.5
95510.8
95496
95484.8
95475
95466.1
95458.3
95451.6
95447.1
95443.9
95442
95444
95449.3
95453.2
95453
95450.8
95448.1
95448.5
95443.9
95444.6
95447.8
95451.6
95457.4
95463.3
95470.8
95485.4
95499.7
95499.3
95510.7
95528.5
95549.4
95568.2
95587.9
95609
95631.5
95655.2
95680
95706.1
95735.2
95765.9
95794.5
95822.2
95851.7
95877.6
95904.4
95934.1
95964.3
95996.2
96024.3
96057.4
96091.5
96127.2
96162.8
96197.4
96231.8
96268.1
96306.7
96345.9
96385.2
96423.8
96466
96504.6
96532.9
96551
96565.3
96589.8
96627.2
96656.7
96687.7
96714.6
96739
96774.8
96801.6
96829.4
96854.6
96880.5
96907.7
96929.9
96947.6
96961.3
96984.8
97009.6
97025.2
97039.7
97054.9
97068.8
97084.9
97099.2
97112.9
97124.1
97136.7
97146.9
97155.9
97163.4
97170.2
97174.9
97179.3
97180.2
97177.1
97172.8
97171.6
97170.9
97169.1
97167.8
97165.7
97162
97157.6
97152
97142.1
97130.8
97120.3
97110.1
97099.3
97087
97073.9
97058.4
97036.6
97020
97002
96984.3
96965.7
96947.6
96928.1
96908.2
96888
96866.8
96845.3
96822.7
96799.7
96776.3
96752.8
96729
96704.8
96680.4
96655.8
96630.9
96606
96580.9
96555.8
96530.7
96505.7
96481
96456.4
96432.1
96408.1
96384.5
96361.2
96338.2
96315.6
96293.5
96271.9
96250.7
96230.2
96210.2
96190.8
96172.1
96153.8
96136.2
96119.1
96102.7
96086.9
96072
96057.8
96044.3
96031.8
96020.1
96009.3
95999.2
95990.1
95982.6
95975.8
95970
95965.3
95961.6
95959.1
95957.8
95957.7
95958.6
95960.7
95964
95968.7
95974.7
95982
95990.5
96000.2
96011.2
96023.3
96036.7
96051.4
96067.2
96084.3
96102.6
96122.1
96142.7
96164.5
96187.5
96211.6
96236.8
96263.1
96290.5
96318.9
96348.3
96378.6
96410
96442.3
96475.4
96509.5
96544.5
96580.2
96616.8
96654.2
96692.3
96731.1
96770.6
96810.8
96851.6
96893
96934.9
96977.4
97020.4
97063.8
97107.7
97151.9
97196.6
97241.6
97286.9
97332.5
97378.4
97424.5
97470.9
97517.6
97564.3
97611.3
97658.3
97705.4
97752.5
97799.6
97846.8
97894
97941.2
97988.5
98035.7
98082.9
98130
98177.1
98224.1
98271
98317.8
98364.5
98411.1
98457.6
98504
98550.2
98596.2
98642
98687.6
98733
98778.1
98823
98867.7
98912.1
98956.3
99000.2
99043.8
99087.1
99130.1
99172.7
99214.9
99256.8
99298.2
99339.3
99379.9
99420
99459.7
99498.9
99537.7
99575.8
99613.5
99650.7
99687.3
99723.3
99758.9
99793.9
99828.4
99862.3
99895.7
99928.6
99961.1
99993
100024
100055
100086
100116
100145
100175
100203
100232
100260
100287
100314
100341
100368
100394
100420
100445
100471
100496
100521
100545
100569
100593
100617
100641
100664
100687
100710
100732
100754
100776
100797
100818
100839
100860
100880
100899
100918
100937
100956
100973
100991
101008
101024
101040
101055
101070
101084
101097
101110
101123
101135
101146
101156
101166
101176
101185
101193
101201
101208
101215
101221
101227
101232
101237
101242
101246
101249
101253
101256
101259
101261
101263
101265
101267
101269
101270
101271
101272
101273
101274
101275
101275
101276
101276
101277
101277
101277
101277
101277
101277
101277
101277
101277
101277
101277
101277
101277
101277
101276
101276
101276
101275
101275
101275
101275
101274
101274
101274
101274
101274
101274
101274
101274
101274
101274
101274
101275
101275
101276
101276
101277
101278
101279
101281
101282
101283
101285
101287
101289
101291
101293
101296
101298
101301
101303
101306
101309
101312
101315
101318
101321
101324
96972.9
96975.7
96977.8
96990.4
96997.8
97008.3
97021.4
97033.7
97048.6
97064.1
97080.5
97097.2
97114.8
97131.7
97151
97169.6
97187.5
97205
97221.9
97237.9
97252.8
97266.9
97279.7
97290.1
97299.3
97305.8
97312.8
97314
97312.9
97309.3
97301.5
97292.5
97278.8
97260.3
97242
97220.1
97192.2
97161
97129.8
97091
97046.8
97002
96955.1
96903.9
96848
96787.4
96723.4
96653
96584.6
96510.8
96441.9
96367.2
96297.1
96222.6
96152.2
96084.9
96015.2
95952
95896.4
95851.2
95795.8
95748.4
95708.5
95674.9
95639.9
95614.9
95591.4
95572.9
95561.7
95545.1
95526.8
95510.5
95495.2
95481.2
95468.9
95458.6
95449.3
95441.8
95435
95427.2
95418.2
95413.6
95414.9
95417.5
95420.4
95422.3
95427.1
95428.3
95431.9
95437.8
95444.7
95453.2
95461.4
95470.5
95489.5
95508.2
95513.2
95523.7
95535.6
95551.5
95568
95585.5
95604.2
95624.3
95645.8
95668.1
95691.5
95717.4
95742.6
95769.8
95800.4
95831.9
95860.3
95888
95920.5
95954.1
95988
96020.1
96052.9
96087.7
96122.9
96157.8
96193.2
96229.3
96267.1
96306.4
96345.3
96385.4
96418.4
96444
96467.4
96489.7
96508.3
96533.3
96569.7
96613.3
96654.9
96693.9
96728
96763.1
96784.5
96813
96843.9
96866.4
96882.9
96904.1
96922.1
96943.1
96957
96984.7
97002.7
97019.2
97033.9
97052.4
97067.5
97082.5
97096.3
97110.3
97117.7
97125.9
97140.5
97150.1
97158.2
97165.9
97172
97178
97183.6
97187
97185.7
97185.3
97184.1
97181.1
97177.5
97173.1
97166.9
97156.5
97144.9
97137.4
97127.2
97116
97104.6
97093.5
97081
97068.2
97054.3
97037.9
97022.2
97005.7
96988.5
96971.2
96951.2
96928.6
96908.6
96887.7
96866.1
96844.3
96822.1
96799.3
96776.1
96752.6
96728.7
96704.4
96680
96655.4
96630.6
96605.6
96580.6
96555.5
96530.5
96505.6
96480.8
96456.3
96432
96408
96384.3
96361
96338
96315.5
96293.4
96271.8
96250.7
96230.2
96210.3
96190.9
96172.2
96154
96136.4
96119.4
96103.1
96087.4
96072.5
96058.3
96044.9
96032.4
96020.7
96010
96000
95990.9
95983.4
95976.8
95971
95966.3
95962.7
95960.2
95959
95959
95959.9
95961.9
95965.3
95969.9
95975.9
95983.1
95991.5
96001.2
96012.1
96024.2
96037.5
96052.1
96067.9
96084.9
96103.1
96122.5
96143.1
96164.8
96187.7
96211.7
96236.8
96263
96290.3
96318.6
96347.9
96378.1
96409.4
96441.6
96474.6
96508.6
96543.5
96579.1
96615.6
96652.9
96690.9
96729.6
96769.1
96809.2
96849.9
96891.2
96933.1
96975.6
97018.5
97061.9
97105.7
97149.9
97194.6
97239.5
97284.8
97330.5
97376.4
97422.5
97468.9
97515.5
97562.3
97609.3
97656.3
97703.4
97750.6
97797.8
97845
97892.3
97939.6
97986.8
98034.1
98081.3
98128.5
98175.6
98222.6
98269.6
98316.5
98363.2
98409.9
98456.4
98502.7
98549
98595
98640.8
98686.5
98731.9
98777.1
98822
98866.7
98911.2
98955.3
98999.2
99042.9
99086.2
99129.1
99171.7
99214
99255.8
99297.3
99338.3
99378.9
99419
99458.7
99497.9
99536.5
99574.7
99612.4
99649.5
99686.1
99722.1
99757.7
99792.7
99827.1
99861
99894.4
99927.3
99959.7
99991.6
100023
100054
100084
100114
100144
100173
100202
100230
100258
100286
100313
100340
100366
100393
100418
100444
100469
100494
100519
100544
100568
100592
100616
100639
100663
100686
100708
100731
100753
100775
100796
100817
100838
100858
100878
100898
100917
100936
100955
100972
100990
101007
101023
101039
101054
101069
101083
101097
101110
101122
101134
101145
101156
101166
101175
101184
101192
101200
101208
101214
101221
101226
101232
101237
101241
101245
101249
101252
101256
101258
101261
101263
101265
101267
101269
101270
101271
101273
101274
101274
101275
101276
101277
101277
101277
101278
101278
101278
101279
101279
101279
101279
101279
101279
101279
101279
101279
101279
101279
101278
101278
101278
101278
101278
101277
101277
101277
101277
101277
101277
101277
101277
101277
101277
101277
101277
101277
101278
101278
101279
101280
101281
101282
101283
101284
101286
101287
101289
101291
101293
101295
101297
101299
101302
101304
101307
101310
101312
101315
101318
101321
101324
96947.6
96940.5
96944.6
96958.9
96968.8
96979.8
96992.9
97006.1
97021.8
97038.7
97056.4
97073.8
97093.8
97112.6
97131
97150.8
97170.3
97188.6
97206.9
97225.1
97242.2
97257.7
97271.2
97282.1
97291.9
97299.3
97310.5
97313
97308.1
97306.2
97299.2
97288.8
97276.1
97257.5
97239.4
97218.1
97190.3
97159.4
97128.4
97088.5
97043.3
96998.1
96949.4
96896.5
96839.4
96778.2
96713.9
96641.5
96573
96501.3
96421.2
96349.5
96280.6
96207.2
96141.7
96064.6
96001.7
95947.3
95884.4
95835.6
95796.9
95748
95701.7
95670.1
95636.7
95610.2
95582
95557.2
95533.7
95516.3
95504.2
95493
95483.1
95474
95465.9
95459.5
95454.5
95450.4
95449.7
95450.8
95446
95436.5
95429.6
95423.9
95420.6
95418.5
95419
95418.4
95420.5
95424.5
95429.7
95436.1
95442.6
95449.3
95460.5
95477.2
95489.7
95505.8
95521.7
95539.8
95558.7
95578.4
95599.1
95621
95644
95667.4
95692.8
95719.9
95744.6
95768.8
95796
95824
95850.7
95877
95905.8
95936.8
95971.7
96004.9
96038.4
96073.6
96108.9
96143.9
96180.2
96215.6
96252.3
96289.3
96323.7
96356.5
96388.3
96421
96451.4
96487.9
96518.9
96555.5
96602
96650.4
96689.2
96719.1
96743.2
96758.4
96781.6
96803
96827.4
96849.7
96866.3
96888.7
96916
96935.2
96959.8
96985.4
97002.7
97020.7
97037.1
97055
97066
97082.4
97094.9
97111.9
97121.6
97134.3
97142.1
97149.4
97156
97162.8
97164.3
97164.2
97167.9
97172.9
97175.6
97177
97177.1
97175.8
97174.2
97172.1
97169
97164
97154.5
97145
97134.4
97123.3
97110.9
97098.7
97085
97068.5
97052.4
97035.3
97020.7
97003.2
96985.5
96968.1
96949.4
96929.5
96908.9
96888.8
96866.9
96845.1
96822.1
96799.3
96776
96752.3
96728.5
96704.2
96679.6
96654.9
96630
96605
96580
96555
96530
96505.1
96480.3
96455.8
96431.6
96407.6
96384
96360.8
96337.9
96315.4
96293.4
96271.8
96250.8
96230.3
96210.3
96191
96172.2
96154
96136.5
96119.6
96103.3
96087.7
96072.9
96058.8
96045.5
96033
96021.4
96010.7
96000.8
95991.8
95984.2
95977.7
95972.1
95967.4
95963.8
95961.4
95960.2
95960.2
95961.1
95963.2
95966.5
95971.1
95977.1
95984.3
95992.7
96002.3
96013.2
96025.2
96038.5
96053
96068.7
96085.6
96103.7
96123
96143.5
96165.1
96187.8
96211.7
96236.7
96262.8
96289.9
96318.1
96347.3
96377.5
96408.6
96440.7
96473.7
96507.5
96542.2
96577.8
96614.2
96651.3
96689.3
96727.9
96767.3
96807.3
96847.9
96889.2
96931
96973.4
97016.2
97059.6
97103.4
97147.6
97192.2
97237.1
97282.4
97328
97373.9
97420.1
97466.5
97513.1
97559.9
97606.9
97653.9
97701.1
97748.3
97795.6
97842.9
97890.2
97937.5
97984.8
98032.1
98079.4
98126.6
98173.8
98220.9
98267.9
98314.8
98361.6
98408.3
98454.9
98501.3
98547.5
98593.6
98639.4
98685.1
98730.6
98775.8
98820.8
98865.5
98910
98954.2
98998.1
99041.7
99085
99128
99170.6
99212.8
99254.7
99296.1
99337.1
99377.7
99417.8
99457.4
99496.6
99535.2
99573.4
99611
99648.1
99684.7
99720.7
99756.2
99791.2
99825.6
99859.5
99892.9
99925.8
99958.2
99990
100021
100052
100083
100113
100142
100171
100200
100228
100256
100284
100311
100338
100365
100391
100417
100442
100468
100493
100518
100542
100566
100591
100614
100638
100661
100684
100707
100729
100751
100773
100795
100816
100837
100857
100877
100897
100916
100935
100953
100971
100989
101006
101022
101038
101053
101068
101082
101096
101109
101121
101133
101144
101155
101165
101174
101183
101192
101200
101207
101214
101220
101226
101231
101236
101241
101245
101249
101252
101255
101258
101261
101263
101265
101267
101269
101270
101272
101273
101274
101275
101276
101277
101277
101278
101279
101279
101279
101280
101280
101280
101281
101281
101281
101281
101281
101281
101281
101281
101281
101281
101281
101281
101281
101281
101280
101280
101280
101280
101280
101280
101280
101280
101280
101280
101280
101280
101281
101281
101281
101282
101283
101283
101284
101285
101287
101288
101289
101291
101293
101295
101297
101299
101301
101303
101305
101308
101310
101313
101316
101318
101321
101324
96910.9
96901.3
96907.8
96923.4
96933.2
96944.2
96957.1
96971
96987.2
97004.8
97023
97041.7
97060.9
97079.8
97099.7
97119.5
97139
97158.2
97177.3
97196.2
97213.6
97229.2
97242.9
97254.8
97267.7
97279.2
97286.1
97288.2
97291.6
97288.4
97282.5
97274
97262.7
97248.3
97230.7
97210.5
97182.8
97153.3
97121.9
97082.2
97037
96991.3
96941.9
96887
96828.5
96766.9
96704.1
96628.3
96553.7
96476.9
96406.4
96331.6
96262.1
96191.1
96116.9
96057.5
95988.4
95931.2
95877.5
95824.5
95780.4
95732.6
95693.4
95662.1
95632.7
95607.6
95589
95570.6
95544.3
95522.8
95505.3
95491
95478
95465.8
95454.3
95444.1
95434.9
95425.6
95417.2
95414.9
95415.6
95415.3
95414.7
95413.7
95413.8
95414
95415.2
95415.6
95418.2
95422.8
95429
95436.9
95447
95456.6
95465.8
95477.7
95486.2
95499.6
95513.5
95529.1
95545.6
95562.8
95581
95600.7
95621.7
95644
95670
95699
95727
95755
95783.8
95813.3
95841.9
95870.3
95902.1
95931.3
95963.2
95994.2
96026.5
96060.8
96095.6
96131.6
96167.9
96204.5
96240.2
96276.2
96310.6
96346.5
96383.5
96422
96458.6
96497.3
96530.5
96556.6
96589.3
96622
96656.8
96684.7
96711
96735.1
96767.9
96798.3
96826.7
96852.6
96879.3
96900.1
96934.5
96955
96966.2
96985.3
97000.9
97018.6
97029.3
97048.8
97065.9
97077.8
97092
97104.7
97120
97132.3
97143.1
97152.3
97158.9
97167.2
97174.1
97177
97178.1
97179.1
97179.2
97178.8
97177.4
97174.8
97168.8
97161.8
97156.7
97152.7
97147
97139.1
97129.8
97119.5
97108.3
97097.9
97086
97073.4
97057.2
97040.9
97025.1
97008.1
96990.3
96972.3
96946.7
96927.2
96907.2
96887.8
96866.4
96844.2
96821.9
96799
96775.7
96752.1
96728
96703.6
96679
96654.3
96629.5
96604.5
96579.5
96554.5
96529.5
96504.6
96479.9
96455.4
96431.2
96407.2
96383.6
96360.4
96337.5
96315
96293
96271.5
96250.6
96230.1
96210.2
96191
96172.3
96154.1
96136.6
96119.8
96103.6
96088.1
96073.3
96059.3
96046.1
96033.7
96022.1
96011.5
96001.8
95992.8
95985.1
95978.8
95973.2
95968.7
95965.2
95962.8
95961.6
95961.7
95962.6
95964.7
95968
95972.7
95978.6
95985.7
95994
96003.6
96014.3
96026.3
96039.5
96053.9
96069.5
96086.4
96104.4
96123.6
96143.9
96165.5
96188.1
96211.9
96236.7
96262.6
96289.6
96317.6
96346.7
96376.7
96407.7
96439.7
96472.5
96506.2
96540.8
96576.2
96612.5
96649.5
96687.3
96725.9
96765.1
96805
96845.6
96886.7
96928.5
96970.8
97013.6
97056.9
97100.6
97144.8
97189.4
97234.3
97279.6
97325.2
97371.1
97417.3
97463.7
97510.3
97557.1
97604.1
97651.2
97698.4
97745.7
97793
97840.4
97887.8
97935.2
97982.5
98029.9
98077.2
98124.5
98171.8
98218.9
98266
98313
98359.8
98406.6
98453.2
98499.6
98545.9
98592
98637.9
98683.7
98729.2
98774.4
98819.4
98864.2
98908.7
98952.9
98996.8
99040.5
99083.8
99126.7
99169.3
99211.6
99253.4
99294.8
99335.8
99376.4
99416.5
99456.1
99495.2
99533.8
99571.9
99609.5
99646.6
99683.1
99719.1
99754.6