/*--------------------------------*- C++ -*----------------------------------*\
| =========                 |                                                 |
| \\      /  F ield         | OpenFOAM: The Open Source CFD Toolbox           |
|  \\    /   O peration     | Version:  v1812                                 |
|   \\  /    A nd           | Web:      www.OpenFOAM.com                      |
|    \\/     M anipulation  |                                                 |
\*---------------------------------------------------------------------------*/
FoamFile
{
    version     2.0;
    format      ascii;
    class       surfaceScalarField;
    location    "0.5";
    object      phi;
}
// * * * * * * * * * * * * * * * * * * * * * * * * * * * * * * * * * * * * * //

dimensions      [1 0 -1 0 0 0 0];
oriented        oriented;


internalField   nonuniform List<scalar> 
40240
(
-0.000213446
0.000157006
-0.000171508
-0.000102526
-0.000169901
-7.23896e-05
-0.000104766
-0.000131854
3.13811e-05
-0.000199917
0.000248583
-0.000275585
0.000459708
-0.000266506
0.000641463
-0.000234665
0.000767228
-0.000177305
0.000822287
-0.000104226
0.000836727
-6.23233e-05
0.00082239
-2.84292e-05
0.000785201
-1.13342e-06
0.000740056
1.0974e-05
0.000705825
2.09929e-06
0.000703553
-2.88256e-05
0.000733534
-6.00442e-05
0.000796942
-9.52631e-05
0.000886522
-0.000121976
0.000998434
-0.000145329
0.00114224
-0.000178294
0.00133351
-0.000227179
0.00158384
-0.000288326
0.00185795
-0.000314726
0.00212825
-0.000314785
0.00239547
-0.000314736
0.00268781
-0.000343775
0.00298799
-0.000354698
0.00327224
-0.000340665
0.00357645
-0.000362502
0.00390565
-0.000389329
0.0042351
-0.000392742
0.00453531
-0.000364821
0.00481231
-0.000346234
0.00514626
-0.00040253
0.00551851
-0.000448387
0.00571153
-0.000276813
0.00587842
-0.000262387
0.00594421
-0.000171743
0.00610479
-0.000268558
0.0059592
2.21182e-05
0.00560232
0.000231134
0.0052252
0.000246332
0.00495259
0.000141001
0.00476525
5.45055e-05
0.0045599
7.05107e-05
0.00418927
0.000231648
0.00349812
0.000546464
0.00243376
0.000916484
0.000985463
0.00130153
-0.000776663
0.00162062
-0.00283758
0.00191719
-0.00516311
0.0021762
-0.00773214
0.00241295
-0.0104235
0.00253611
-0.0132213
0.00264448
-0.0159576
0.00257271
-0.0184274
0.00229284
-0.0205443
0.00193989
-0.0223224
0.00160042
-0.023893
0.00139404
-0.0252554
0.00118505
-0.026419
0.000989308
-0.0273701
0.000777015
-0.028114
0.00057187
-0.0285886
0.00030337
-0.0288311
7.38703e-05
-0.0288658
-0.000128367
-0.0287242
-0.000301012
-0.0283026
-0.000579132
-0.0276353
-0.000820615
-0.026799
-0.000984857
-0.0258372
-0.00110455
-0.0247772
-0.00119832
-0.0236289
-0.00128261
-0.0223956
-0.00136305
-0.0210795
-0.0014392
-0.0197018
-0.00149352
-0.0182875
-0.00152171
-0.0168284
-0.00155832
-0.0153367
-0.00158327
-0.0138504
-0.00157217
-0.0123956
-0.00153146
-0.0108702
-0.00160022
-0.00936119
-0.00157971
-0.00789822
-0.00152991
-0.00646164
-0.00149869
-0.0050147
-0.00151087
-0.00387155
-0.00120257
-0.0026609
-0.00126222
-0.00127859
-0.00143023
0.000209457
-0.00152751
0.00176456
-0.00159015
0.003309
-0.00157304
0.00459194
-0.00130373
0.00491085
-0.000328865
0.00553998
-0.0006335
0.00651205
-0.000967988
0.00768906
-0.0011653
0.00888112
-0.00117357
0.00990562
-0.000997814
0.0106844
-0.000744442
0.0112485
-0.000521762
0.011661
-0.000361501
0.011978
-0.0002563
0.0122592
-0.000209435
0.0125224
-0.00018007
0.0127284
-0.000110073
0.0128381
-7.28405e-06
0.0127851
0.000169196
0.0124789
0.000431003
0.0120328
0.000586495
0.0114538
0.00072241
0.0107244
0.000879644
0.00992405
0.000957749
0.00910902
0.000980609
0.00831547
0.000966105
0.00751652
0.000977356
0.00668607
0.00101413
0.00585773
0.00101672
0.00506814
0.000982979
0.0043485
0.000919006
0.00371456
0.000840224
0.00317374
0.000754439
0.00271916
0.000674436
0.00231721
0.000627343
0.00194502
0.000603372
0.00157666
0.000605639
0.00117561
0.000643795
0.000673425
0.000750352
8.393e-06
0.00091803
-0.000840118
0.00110551
-0.00171517
0.0011287
-0.00232243
0.000864869
-0.00248535
0.000422206
-0.00238651
0.000162924
-0.00222935
0.000105957
-0.00217094
0.000204843
-0.00229996
0.000393235
-0.00251445
0.000481464
-0.0026548
0.000407386
-0.00267621
0.000287687
-0.00263977
0.000229444
-0.00257132
0.000195519
-0.00249678
0.000188117
-0.00243935
0.00020084
-0.00243039
0.000244386
-0.00248473
0.000304896
-0.00253825
0.000298593
-0.00250568
0.000207519
-0.00241782
0.00014761
-0.00225523
6.7142e-05
-0.00202723
-5.50479e-06
-0.00174874
-6.32157e-05
-0.00144298
-9.77854e-05
-0.00113069
-0.000112521
-0.000808281
-0.000130838
-0.000504292
-0.000121339
-0.000200044
-0.000130608
0.000118034
-0.00015466
0.000452113
-0.000180806
0.000803551
-0.000208805
0.00116156
-0.000226212
0.00151371
-0.00023132
0.00184822
-0.000225269
0.00215606
-0.000213141
0.0024509
-0.00021375
0.00278015
-0.000258659
0.00315916
-0.000319499
0.00356067
-0.000353457
0.00393494
-0.000338063
0.00426171
-0.000304475
0.00454783
-0.000278488
0.00478825
-0.000246734
0.00498163
-0.000212938
0.00514005
-0.000190443
0.00527569
-0.000179429
0.0053669
-0.000147506
0.00540023
-9.92977e-05
0.00539828
-7.8299e-05
0.00538602
-7.8003e-05
0.00537915
-9.50206e-05
0.00538102
-0.000114399
0.00538835
-0.000130177
0.00539243
-0.000138497
0.00535369
-0.000103174
0.00527055
-6.82915e-05
0.00514399
-3.44716e-05
0.00498034
-6.21256e-06
0.00478583
1.60399e-05
0.0045657
3.37248e-05
0.00432397
4.78677e-05
0.00407062
5.2631e-05
0.0038065
5.68244e-05
0.00353549
5.77923e-05
0.00326246
5.43398e-05
0.00299293
4.61279e-05
0.00273207
3.33998e-05
0.0024795
2.18053e-05
0.00223271
1.3466e-05
0.00198745
1.01561e-05
0.00173891
1.24097e-05
0.00148133
2.11349e-05
0.00120917
3.61174e-05
0.000919334
5.48686e-05
0.000612502
7.3558e-05
0.000293059
8.84957e-05
-3.22124e-05
9.72638e-05
-0.000356681
9.96555e-05
-0.00067433
9.65873e-05
-0.000980493
8.93718e-05
-0.00127289
8.03711e-05
-0.00155208
7.23996e-05
-0.00182128
6.80736e-05
-0.00208552
6.91585e-05
-0.00234948
7.526e-05
-0.00261524
8.37509e-05
-0.00288162
9.13479e-05
-0.00314536
9.59384e-05
-0.00340308
9.736e-05
-0.00365234
9.65035e-05
-0.0038922
9.47974e-05
-0.00412344
9.39403e-05
-0.00434864
9.56528e-05
-0.00457127
0.000100787
-0.00479428
0.000108806
-0.00501845
0.000117517
-0.00524166
0.000123982
-0.00545985
0.000126278
-0.00566926
0.000124732
-0.00586742
0.000120696
-0.00605325
0.000115542
-0.00622685
0.000110561
-0.00639009
0.000107527
-0.00654574
0.000107417
-0.00669651
0.000110197
-0.00684409
0.000115027
-0.0069889
0.000120614
-0.00713033
0.000125652
-0.00726781
0.000129858
-0.00739992
0.000132342
-0.00752526
0.000132718
-0.00764327
0.000132639
-0.00775168
0.000131735
-0.0078473
0.00012728
-0.00793333
0.000123723
-0.00801064
0.000120991
-0.00807811
0.000119327
-0.00813618
0.000119109
-0.00818705
0.000120884
-0.00823338
0.000124571
-0.00827729
0.000129755
-0.00831974
0.000135568
-0.00836011
0.000140652
-0.00839665
0.000143927
-0.00842722
0.000144847
-0.00845013
0.000143643
-0.00846433
0.00014094
-0.00846557
0.000137972
-0.00846009
0.000134123
-0.00844415
0.000130049
-0.00841919
0.000127406
-0.0083868
0.000126334
-0.00834852
0.000126635
-0.00830562
0.00012807
-0.00825891
0.000130143
-0.00820872
0.000132364
-0.00815499
0.000134362
-0.00809737
0.00013586
-0.00803543
0.000136829
-0.0079689
0.000137438
-0.00789773
0.000137869
-0.00782196
0.000138258
-0.00774166
0.000138589
-0.00765695
0.000139085
-0.00756803
0.000139742
-0.00747499
0.000140409
-0.00737778
0.000140958
-0.00727623
0.000141308
-0.00717024
0.000141507
-0.00705976
0.000141621
-0.00694488
0.000141779
-0.00682578
0.000142099
-0.00670271
0.00014261
-0.00657586
0.00014329
-0.00644545
0.00014413
-0.00631168
0.000145141
-0.0061749
0.000146433
-0.00603546
0.000148039
-0.00589365
0.000149884
-0.00574958
0.000151781
-0.00560309
0.000153483
-0.00545351
0.000154452
-0.00529951
0.000154021
-0.00513955
0.000151964
-0.00497251
0.000148672
-0.00479804
0.000144923
-0.00461663
0.000141528
-0.00442949
0.000139216
-0.00423857
0.000138703
-0.00404628
0.000140418
-0.00385487
0.000144198
-0.00366571
0.000149139
-0.0034787
0.000153781
-0.0032924
0.000156761
-0.0031048
0.000157514
-0.00291424
0.00015638
-0.0027198
0.00015411
-0.00252124
0.000151367
-0.00231862
0.00014849
-0.00211225
0.000145706
-0.00190259
0.000143186
-0.00169016
0.000140984
-0.00147527
0.000138886
-0.00125801
0.000136684
-0.00103857
0.000134473
-0.000817342
0.000132463
-0.000594899
0.000130864
-0.000372122
0.000129991
-0.000150169
0.000130126
6.97964e-05
0.000131208
0.000286852
0.000133032
0.000500535
0.000135216
0.000710849
0.000137309
0.00091833
0.000138777
0.00112396
0.000139184
0.00132885
0.000138426
0.00153387
0.000136751
0.0017394
0.000134647
0.00194537
0.000132602
0.00215142
0.000130888
0.00235719
0.000129525
0.00256242
0.000128394
0.00276707
0.00012731
0.00297134
0.000126023
0.00317566
0.000124296
0.00338058
0.00012204
0.00358654
0.000119349
0.00379379
0.000116435
0.00400227
0.000113607
0.00421161
0.000111163
0.00442127
0.000109298
0.00463066
0.000108031
0.00483927
0.000107319
0.00504667
0.000107049
0.00525261
0.000107055
0.00545699
0.000107205
0.00565977
0.000107391
0.00586108
0.000107475
0.00606122
0.000107288
0.00626055
0.000106737
0.00645951
0.000105756
0.0066586
0.000104283
0.00685818
0.000102435
0.00705834
0.000100483
0.00725881
9.87493e-05
0.00745908
9.74945e-05
0.00765842
9.68958e-05
0.00785616
9.69137e-05
0.00805176
9.73835e-05
0.00824488
9.80816e-05
0.00843544
9.87802e-05
0.00862346
9.93267e-05
0.00880908
9.96331e-05
0.0089924
9.97123e-05
0.00917347
9.96398e-05
0.00935227
9.94803e-05
0.00952878
9.92184e-05
0.00970306
9.87982e-05
0.00987526
9.81434e-05
0.0100455
9.72369e-05
0.010214
9.61288e-05
0.0103806
9.49232e-05
0.0105453
9.3722e-05
0.010708
9.25946e-05
0.0108684
9.16116e-05
0.0110262
9.08594e-05
0.011181
9.03733e-05
0.0113326
9.01407e-05
0.0114805
9.00978e-05
0.0116248
9.01651e-05
0.0117652
9.02274e-05
0.0119017
9.02104e-05
0.0120346
9.00452e-05
0.0121638
8.96345e-05
0.0122898
8.89473e-05
0.0124126
8.79918e-05
0.0125326
8.67749e-05
0.01265
8.52843e-05
0.012765
8.35609e-05
0.0128777
8.17874e-05
0.012988
8.01239e-05
0.0130957
7.86471e-05
0.0132008
7.73382e-05
0.0133032
7.60501e-05
0.0134031
7.46136e-05
0.013501
7.28909e-05
0.0135971
7.08026e-05
0.0136918
6.84094e-05
0.0137854
6.5874e-05
0.0138778
6.33638e-05
0.0139689
6.10033e-05
0.0140586
5.88542e-05
0.0141466
5.69366e-05
0.0142328
5.52016e-05
0.0143171
5.35662e-05
0.0143994
5.19349e-05
0.0144799
5.02495e-05
0.0145586
4.84654e-05
0.0146356
4.65704e-05
0.0147111
4.45856e-05
0.014785
4.25316e-05
0.0148573
4.04623e-05
0.0149281
3.84585e-05
0.014997
3.66431e-05
0.0150637
3.5148e-05
0.0151279
3.40417e-05
0.015189
3.33606e-05
0.0152466
3.30317e-05
0.0153006
3.29673e-05
0.0153508
3.2998e-05
0.0153975
3.27441e-05
0.0154414
3.17798e-05
0.0154833
3.00914e-05
0.0155239
2.78145e-05
0.0155637
2.49618e-05
0.015603
2.18739e-05
0.0156417
1.90855e-05
0.0156792
1.68703e-05
0.0157149
1.53476e-05
0.0157484
1.44858e-05
0.0157793
1.40129e-05
0.0158076
1.35878e-05
0.0158334
1.30811e-05
0.0158568
1.25737e-05
0.015878
1.20692e-05
0.0158972
1.15912e-05
0.0159145
1.11307e-05
0.0159299
1.06821e-05
0.0159434
1.02483e-05
0.0159551
9.81992e-06
0.0159651
9.38124e-06
0.0159736
8.91721e-06
0.0159808
8.37992e-06
0.015987
7.73161e-06
0.0159923
6.96656e-06
0.0159971
6.15343e-06
0.0160013
5.40841e-06
0.016005
4.75791e-06
0.0160083
4.24135e-06
0.0160112
3.83383e-06
0.0160138
3.50584e-06
0.0160162
3.25169e-06
0.0160184
3.0408e-06
0.0160206
2.81717e-06
0.0160229
2.53148e-06
0.0160256
2.1732e-06
0.0160287
1.75349e-06
0.0160325
1.27177e-06
0.016037
7.10893e-07
0.0160425
9.31129e-08
0.0160491
-6.20289e-07
0.0160566
-1.39083e-06
0.0160653
-2.14772e-06
0.0160748
-2.80915e-06
0.0160852
-3.33929e-06
0.0160961
-3.56912e-06
0.0161074
-3.66176e-06
0.016119
-3.59902e-06
0.0161307
-3.41251e-06
0.0161422
-3.15502e-06
0.0161537
-2.87508e-06
0.016165
-2.59289e-06
0.0161762
-2.33137e-06
0.0161872
-2.10436e-06
0.0161979
-1.91554e-06
0.0162084
-1.76623e-06
0.0162186
-1.5711e-06
0.0162282
-1.25799e-06
0.0162371
-6.6316e-07
0.0162447
1.66102e-07
0.0162511
1.14471e-06
0.0162561
2.01302e-06
0.0162601
2.49074e-06
0.0162638
2.50364e-06
0.0162676
1.95852e-06
0.016272
8.86906e-07
0.0162776
-6.40558e-07
0.0162843
-2.5177e-06
0.0162922
-4.2169e-06
0.0163006
-5.40646e-06
0.0163085
-5.50032e-06
0.0163152
-4.78688e-06
0.0163202
-3.48966e-06
0.016323
-1.56362e-06
0.0163237
1.35444e-07
0.0163236
7.63812e-07
0.0163227
1.25054e-06
0.0163222
6.43488e-07
-7.59763e-07
-2.13422e-05
0.000111538
0.000101176
-0.000286028
0.000260224
-0.000295163
0.000492802
-0.000421305
0.000821709
-0.000579595
0.00123113
-0.000731219
0.00166436
-0.000744697
0.00208468
-0.000698437
0.00246466
-0.000599804
0.00277501
-0.000455678
0.00301824
-0.000345304
0.00318406
-0.000230089
0.00331478
-0.000164303
0.00341816
-0.000122254
0.00351474
-0.00012282
0.00363047
-0.000173632
0.0037763
-0.000238162
0.00395883
-0.000309884
0.00418352
-0.000379147
0.00445222
-0.000447234
0.00476967
-0.000529971
0.00513547
-0.000628655
0.00553701
-0.000727646
0.00593009
-0.00074851
0.00629584
-0.000725329
0.00663559
-0.000702735
0.0069725
-0.000733678
0.0072775
-0.000716729
0.00752322
-0.000646441
0.00775024
-0.000652681
0.00796133
-0.000665632
0.00813236
-0.000631433
0.00821882
-0.000519061
0.0082152
-0.000418009
0.00818418
-0.000441787
0.00815115
-0.00049887
0.00798219
-0.00018931
0.0075103
0.000112084
0.00680174
0.000434848
0.00588582
0.000530596
0.00521365
0.000574628
0.00421325
0.0011061
0.00284324
0.00148724
0.00121899
0.00163457
-0.00060753
0.00175144
-0.00263344
0.00196636
-0.00491231
0.0023768
-0.00750813
0.00300395
-0.0104403
0.00370853
-0.0137092
0.00442939
-0.0172935
0.00505379
-0.021087
0.00554484
-0.0249506
0.00585603
-0.0287818
0.00605817
-0.032435
0.00602348
-0.0359105
0.00596753
-0.0391608
0.0056549
-0.0420481
0.00497533
-0.044504
0.00419831
-0.0464393
0.00335187
-0.0478619
0.00262932
-0.0486455
0.00178079
-0.048764
0.000923205
-0.0485032
0.000329066
-0.0478887
-0.000226689
-0.0470457
-0.000723499
-0.0460052
-0.00114814
-0.0447705
-0.00154174
-0.0433798
-0.00186686
-0.0418829
-0.00224753
-0.0402472
-0.00262469
-0.0384596
-0.00293783
-0.0364843
-0.00323852
-0.0342864
-0.00354562
-0.0318821
-0.00383538
-0.0293006
-0.00408974
-0.0266413
-0.00423834
-0.024
-0.00426614
-0.0214826
-0.00416215
-0.0191688
-0.00398764
-0.017059
-0.0038012
-0.0151189
-0.00361106
-0.0133619
-0.003388
-0.0118173
-0.00323179
-0.01023
-0.00325138
-0.00859345
-0.00324729
-0.00691565
-0.00325022
-0.00458737
-0.00390487
-0.00141956
-0.00444299
0.00178248
-0.00453162
0.00472375
-0.00443486
0.00749134
-0.00435137
0.0105315
-0.00468076
0.013725
-0.0048122
0.0168288
-0.00444534
0.0195827
-0.00311092
0.0218018
-0.00287294
0.0237138
-0.00289188
0.0255861
-0.00303964
0.0274868
-0.00307433
0.0292637
-0.00277098
0.0309251
-0.00239365
0.0325186
-0.00209639
0.0340593
-0.00187507
0.0356011
-0.00176254
0.0372178
-0.00178228
0.038925
-0.00183639
0.0405685
-0.00169925
0.0417561
-0.00113342
0.0420662
-5.97354e-05
0.0419727
0.000603576
0.0412565
0.00141103
0.0400166
0.002091
0.0385114
0.00252241
0.036982
0.00263267
0.0355373
0.00257753
0.0342342
0.00243144
0.0329732
0.00241022
0.0316085
0.00256001
0.03004
0.00277548
0.0282123
0.00300856
0.0261573
0.00317916
0.0239789
0.00323152
0.0218245
0.00313043
0.0197991
0.00292887
0.0179062
0.00275392
0.0160919
0.00265191
0.0142826
0.00265066
0.0124315
0.00272989
0.0105505
0.00286594
0.0087477
0.0029581
0.00720551
0.00288783
0.00596086
0.00262546
0.00504532
0.00203632
0.00450726
0.00121963
0.00427053
0.000662663
0.00411889
0.000522005
0.00391497
0.000674642
0.00361327
0.000963257
0.00329372
0.00107178
0.00304943
0.000922324
0.00288057
0.000726068
0.00276797
0.000610442
0.0027086
0.000521548
0.00269784
0.00046302
0.00270774
0.000451402
0.00273662
0.000471828
0.00274793
0.000544087
0.00279478
0.000498467
0.00290179
0.000343066
0.00308927
0.000196784
0.00334591
4.15136e-05
0.00366368
-9.97612e-05
0.0040409
-0.000224782
0.00446854
-0.000317325
0.00495003
-0.000394304
0.00548876
-0.000478158
0.00605116
-0.000501619
0.00664398
-0.000550338
0.00728385
-0.000631597
0.00795181
-0.000696904
0.00862067
-0.00073706
0.00926767
-0.000744088
0.00986812
-0.00071411
0.0104065
-0.000658145
0.0108807
-0.000595964
0.0113053
-0.000560846
0.0117554
-0.000642599
0.012299
-0.000808032
0.0129314
-0.000943676
0.0135887
-0.000967111
0.0141981
-0.000897181
0.0147451
-0.000822949
0.0152358
-0.00074883
0.0156718
-0.000673207
0.0160667
-0.000621677
0.0164291
-0.000589729
0.0167244
-0.000502677
0.0169168
-0.000362917
0.0170195
-0.000263435
0.0170733
-0.000225682
0.0170856
-0.000212877
0.0170725
-0.000216648
0.0170677
-0.00025021
0.017065
-0.000273726
0.017031
-0.000214078
0.0169712
-0.00016195
0.0168848
-0.000110906
0.0167651
-5.74926e-05
0.0166186
-1.65292e-05
0.0164438
2.16464e-05
0.0162417
5.56332e-05
0.0160222
7.11561e-05
0.0157874
8.43157e-05
0.0155401
9.18549e-05
0.0152847
9.10935e-05
0.0150278
7.98063e-05
0.0147755
5.85469e-05
0.0145268
3.99966e-05
0.0142795
2.77583e-05
0.0140305
2.42509e-05
0.0137771
2.99535e-05
0.0135165
4.55391e-05
0.0132461
7.06917e-05
0.0129647
0.000101496
0.0126734
0.000131957
0.0123748
0.000156361
0.012073
0.000170944
0.011773
0.000175069
0.0114792
0.000169581
0.011195
0.000157077
0.0109224
0.000141179
0.0106617
0.000126479
0.0104116
0.000117222
0.0101694
0.000116264
0.00993282
0.000123196
0.00970037
0.00013423
0.00947213
0.000144678
0.00924925
0.000151189
0.00903319
0.000153246
0.00882515
0.000151938
0.0086257
0.000149285
0.00843479
0.000147555
0.00825169
0.000149127
0.00807513
0.000155375
0.00790398
0.000165619
0.00773818
0.000176556
0.00757877
0.000184098
0.00742753
0.000185594
0.00728644
0.0001812
0.00715669
0.000173084
0.0070385
0.0001636
0.00693159
0.000154612
0.00683512
0.000148522
0.00674828
0.000146314
0.00667009
0.000148068
0.00659915
0.000153544
0.00653513
0.000160612
0.00647841
0.000166888
0.00642866
0.000171999
0.00638622
0.000175193
0.00635301
0.000174154
0.00632836
0.000171455
0.00631468
0.000167461
0.00631371
0.000162115
0.00632112
0.000154577
0.00633839
0.000147896
0.00636657
0.000143551
0.00640475
0.000142323
0.00645133
0.000144574
0.00650449
0.000149905
0.00656297
0.000157426
0.00662623
0.000165797
0.00669453
0.000173058
0.00676883
0.000177452
0.00685048
0.000177963
0.0069408
0.00017476
0.00704098
0.000168908
0.00715233
0.000161499
0.00727429
0.000152876
0.00740634
0.000144856
0.007548
0.000138814
0.00769828
0.000135359
0.00785583
0.0001345
0.00801931
0.00013602
0.00818758
0.000139057
0.00836
0.000142765
0.00853628
0.00014642
0.00871657
0.000149319
0.00890115
0.000151418
0.00909025
0.000152776
0.00928401
0.000153657
0.00948251
0.000154317
0.00968573
0.000154848
0.00989357
0.000155578
0.0101059
0.000156508
0.0103228
0.000157409
0.0105444
0.000158076
0.0107706
0.000158378
0.0110017
0.000158438
0.0112374
0.000158406
0.0114778
0.000158533
0.0117225
0.00015904
0.0119712
0.000159995
0.0122236
0.000161345
0.0124796
0.000163067
0.0127389
0.000165163
0.013001
0.000167815
0.0132658
0.000171063
0.013533
0.000174705
0.0138027
0.000178302
0.0140751
0.000181364
0.014351
0.000182945
0.0146315
0.000181845
0.0149182
0.000177613
0.015212
0.000171016
0.015513
0.000163691
0.0158206
0.000157374
0.0161331
0.000153486
0.0164486
0.000153228
0.0167649
0.000157238
0.0170799
0.000165196
0.0173922
0.000175546
0.0177016
0.000185627
0.0180092
0.000192663
0.0183172
0.000195188
0.0186275
0.000193562
0.0189414
0.000189266
0.0192594
0.000183875
0.0195812
0.000178323
0.0199063
0.000173135
0.0202343
0.000168608
0.0205644
0.000164838
0.0208962
0.00016144
0.0212294
0.000157999
0.0215638
0.000154685
0.0218986
0.000152003
0.022233
0.00015049
0.0225656
0.000150819
0.0228948
0.000153513
0.0232193
0.000158404
0.0235382
0.000164821
0.0238511
0.000171859
0.0241582
0.000178518
0.0244603
0.000183689
0.0247587
0.000186468
0.0250546
0.00018661
0.0253493
0.0001846
0.0256435
0.000181461
0.0259372
0.000178258
0.02623
0.000175664
0.0265218
0.00017382
0.026812
0.00017252
0.0271007
0.000171343
0.0273881
0.000169707
0.0276748
0.000167055
0.0279614
0.000163171
0.0282487
0.000158281
0.0285367
0.000152901
0.0288255
0.000147706
0.0291147
0.000143312
0.0294037
0.000140127
0.0296917
0.000138206
0.0299783
0.000137497
0.0302628
0.000137828
0.0305447
0.000138913
0.0308238
0.000140502
0.0310998
0.000142353
0.0313726
0.000144143
0.0316426
0.000145442
0.0319103
0.000145939
0.0321761
0.000145382
0.032441
0.000143548
0.0327056
0.00014061
0.0329703
0.000137182
0.0332349
0.00013408
0.0334989
0.000132025
0.0337611
0.000131532
0.0340207
0.000132605
0.0342768
0.000134888
0.0345289
0.000137827
0.0347767
0.00014083
0.0350205
0.000143477
0.0352604
0.000145537
0.0354967
0.000147035
0.0357293
0.000148163
0.0359585
0.000149089
0.0361841
0.000149785
0.0364064
0.00015008
0.0366256
0.000149729
0.0368422
0.000148619
0.0370566
0.000146861
0.0372687
0.000144765
0.0374787
0.000142678
0.0376861
0.000140835
0.0378907
0.000139401
0.0380921
0.000138533
0.0382897
0.000138304
0.0384832
0.000138719
0.038672
0.00013969
0.0388558
0.000141089
0.0390342
0.000142699
0.0392071
0.000144342
0.0393744
0.000145808
0.0395364
0.000146784
0.0396935
0.000147054
0.0398461
0.000146495
0.0399948
0.000145049
0.0401403
0.000142703
0.0402831
0.000139634
0.0404233
0.000136373
0.0405606
0.000133414
0.0406949
0.00013099
0.0408258
0.00012904
0.0409533
0.000127204
0.0410777
0.000125057
0.0411993
0.00012223
0.0413188
0.000118474
0.0414367
0.000113883
0.0415534
0.000108877
0.0416688
0.000103982
0.0417825
9.96302e-05
0.0418941
9.60315e-05
0.042003
9.31989e-05
0.0421089
9.0928e-05
0.0422116
8.89106e-05
0.0423113
8.68243e-05
0.0424081
8.44683e-05
0.0425023
8.17362e-05
0.0425941
7.8637e-05
0.0426838
7.5269e-05
0.0427713
7.17133e-05
0.0428569
6.80792e-05
0.0429403
6.45217e-05
0.0430215
6.13095e-05
0.0431001
5.88045e-05
0.0431753
5.72681e-05
0.0432465
5.68849e-05
0.0433129
5.75342e-05
0.0433741
5.89124e-05
0.0434301
6.04591e-05
0.0434814
6.12012e-05
0.0435291
6.01662e-05
0.0435743
5.72649e-05
0.0436181
5.27759e-05
0.0436616
4.66566e-05
0.0437056
3.94496e-05
0.0437502
3.26581e-05
0.0437944
2.73911e-05
0.0438372
2.40099e-05
0.0438776
2.23265e-05
0.0439152
2.17017e-05
0.0439497
2.1307e-05
0.0439813
2.08069e-05
0.0440102
2.0135e-05
0.0440366
1.93402e-05
0.0440608
1.85211e-05
0.0440829
1.77699e-05
0.0441029
1.71496e-05
0.0441206
1.66685e-05
0.0441361
1.62624e-05
0.0441494
1.58195e-05
0.0441608
1.52528e-05
0.0441706
1.4464e-05
0.0441792
1.33654e-05
0.0441869
1.19742e-05
0.0441938
1.04827e-05
0.0442
9.14807e-06
0.0442055
8.09372e-06
0.0442102
7.41163e-06
0.0442142
7.01282e-06
0.0442173
6.77908e-06
0.0442199
6.63759e-06
0.0442221
6.47565e-06
0.0442241
6.16092e-06
0.0442263
5.59241e-06
0.0442289
4.76261e-06
0.0442322
3.73178e-06
0.0442363
2.5472e-06
0.0442415
1.20196e-06
0.0442477
-4.21304e-07
0.0442553
-1.89758e-06
0.0442641
-3.65273e-06
0.0442741
-5.33458e-06
0.0442851
-6.78445e-06
0.044297
-7.89358e-06
0.0443093
-8.21881e-06
0.0443217
-8.13564e-06
0.044334
-7.59574e-06
0.0443459
-6.70026e-06
0.0443571
-5.60661e-06
0.0443676
-4.50019e-06
0.0443774
-3.46361e-06
0.0443868
-2.56805e-06
0.0443956
-1.85289e-06
0.0444039
-1.27543e-06
0.0444118
-8.27508e-07
0.0444193
-2.65719e-07
0.0444263
4.90882e-07
0.0444324
1.78738e-06
0.0444371
3.49195e-06
0.0444403
5.65731e-06
0.0444421
7.54749e-06
0.0444431
8.40739e-06
0.0444439
8.13745e-06
0.0444456
6.34768e-06
0.0444491
3.09197e-06
0.0444553
-1.59133e-06
0.0444648
-7.38304e-06
0.0444774
-1.28503e-05
0.0444922
-1.69883e-05
0.0445077
-1.82418e-05
0.0445223
-1.72905e-05
0.0445352
-1.45864e-05
0.0445454
-1.03879e-05
0.0445529
-6.17364e-06
0.044557
-2.55685e-06
0.0445589
-7.89017e-08
0.0445605
-4.47432e-07
-2.03369e-06
0.000228785
-0.000171183
0.000640968
-0.000755819
0.00107887
-0.000787489
0.00149399
-0.000892864
0.00189734
-0.0010396
0.00230328
-0.00119209
0.00271315
-0.00120825
0.00310534
-0.00114131
0.00346242
-0.00100581
0.00376563
-0.000805627
0.00401361
-0.000633923
0.00419805
-0.000444875
0.00436476
-0.000364025
0.00451171
-0.000305118
0.0046606
-0.000309219
0.00484087
-0.000385151
0.00507185
-0.000502791
0.00536076
-0.000633073
0.00572268
-0.000775187
0.00616125
-0.000920234
0.00667502
-0.00107894
0.00725105
-0.0012414
0.00785565
-0.00137123
0.00843917
-0.0013742
0.00899109
-0.00132334
0.00951826
-0.00127928
0.0100238
-0.00129249
0.0104486
-0.00119772
0.0107702
-0.00102655
0.0110096
-0.000955178
0.0111158
-0.000836744
0.0111205
-0.000704718
0.0109651
-0.000427642
0.0105291
-4.92975e-05
0.00994775
7.25008e-05
0.00937969
-2.58979e-06
0.00877428
0.000337301
0.00807838
0.000718527
0.00738893
0.00102358
0.00643794
0.00136625
0.00491714
0.00196841
0.00285145
0.00304702
0.00033332
0.00387773
-0.00263226
0.0044742
-0.00600256
0.0049987
-0.00966429
0.00550406
-0.0135353
0.00611761
-0.0175921
0.00692123
-0.0217824
0.0077523
-0.0260432
0.00854495
-0.0302275
0.00909786
-0.0341438
0.00931822
-0.0376534
0.00919724
-0.0406566
0.00884981
-0.0430141
0.00814579
-0.0447105
0.00745977
-0.0458113
0.00665666
-0.0468385
0.00593381
-0.0475822
0.00478232
-0.0482054
0.00377965
-0.0485823
0.00281633
-0.0488393
0.00184927
-0.0489421
0.000833761
-0.0486705
-0.000134461
-0.0481709
-0.00091658
-0.0474391
-0.00164261
-0.0464978
-0.00227339
-0.0453383
-0.00288007
-0.0439561
-0.00342425
-0.042417
-0.00395687
-0.0407056
-0.00450069
-0.0387905
-0.00501128
-0.0365672
-0.00561643
-0.0339356
-0.00632834
-0.0308926
-0.00702021
-0.0275983
-0.00751847
-0.0242302
-0.00773536
-0.020912
-0.00770855
-0.0176972
-0.00749524
-0.0146088
-0.00718621
-0.0116337
-0.00687687
-0.0087481
-0.00658854
-0.00589868
-0.00632126
-0.00293881
-0.00627222
0.000124451
-0.00639046
0.00329826
-0.00649439
0.00657708
-0.00659374
0.00980213
-0.00719991
0.0129069
-0.00761365
0.0160149
-0.00770366
0.019177
-0.00765822
0.0223667
-0.00759787
0.025361
-0.00772901
0.0282004
-0.00770262
0.0310405
-0.00733277
0.034011
-0.006123
0.0368847
-0.0057843
0.0394519
-0.00548678
0.0415401
-0.00515742
0.043194
-0.00474814
0.0447516
-0.00433935
0.0463657
-0.00401177
0.0480286
-0.00375578
0.049707
-0.00354117
0.0513708
-0.00340475
0.0530212
-0.00340261
0.0546435
-0.00342477
0.0561324
-0.00315767
0.0572727
-0.00224258
0.0581733
-0.000932398
0.0587811
2.95967e-05
0.0590701
0.00117558
0.0590974
0.00213677
0.0590244
0.00266954
0.0589275
0.00283811
0.0586642
0.00295354
0.0579996
0.00321635
0.056737
0.0038093
0.0549327
0.00451484
0.0527186
0.00516201
0.050217
0.00570275
0.0475544
0.00604709
0.0448511
0.00614774
0.0422343
0.00597059
0.0398375
0.00556701
0.0377056
0.00514688
0.0357535
0.00487768
0.0337851
0.00489142
0.031602
0.00517805
0.0290978
0.00562988
0.0263172
0.00599864
0.0234206
0.00604419
0.0207423
0.00556499
0.0186361
0.0044094
0.0173152
0.00281273
0.0167062
0.00154631
0.0163684
0.00113574
0.0159207
0.00139674
0.0152881
0.00187085
0.0144185
0.00221765
0.0135074
0.0021091
0.0128463
0.00166458
0.0124609
0.0012711
0.0122797
0.000975115
0.0122182
0.000794793
0.0121982
0.00073725
0.0121687
0.000763763
0.0121275
0.000839836
0.0120559
0.00082114
0.0121342
0.000514716
0.0123907
0.000180829
0.0127636
-9.59243e-05
0.013255
-0.000363351
0.0138561
-0.000606648
0.0144906
-0.00074137
0.0151016
-0.000804829
0.015678
-0.000862232
0.0162198
-0.000860564
0.016765
-0.000921556
0.0173831
-0.00108528
0.0181396
-0.00130016
0.0189886
-0.00144462
0.0199204
-0.00154626
0.0209514
-0.00162756
0.0220977
-0.00169962
0.0233391
-0.00174691
0.0245761
-0.00171987
0.0256882
-0.00169258
0.0265444
-0.00161437
0.027137
-0.0015003
0.0275615
-0.00136803
0.0279441
-0.00126845
0.0283254
-0.00120652
0.0287023
-0.00114173
0.0290545
-0.0010548
0.0293879
-0.000996673
0.0297376
-0.000992323
0.0301384
-0.000967873
0.030564
-0.000863995
0.0309767
-0.000762762
0.0313745
-0.000720447
0.0317841
-0.000730153
0.0321852
-0.000735473
0.0325097
-0.000702648
0.0326769
-0.000579878
0.0326825
-0.000371445
0.0325727
-0.000209595
0.032352
-5.61779e-05
0.032088
3.22082e-05
0.0318149
7.40113e-05
0.0315805
6.63673e-05
0.0313953
4.40561e-05
0.0312469
1.65016e-05
0.031116
5.85367e-06
0.0309764
1.65851e-05
0.0308186
2.89488e-05
0.0306381
3.60267e-05
0.0304424
2.63056e-05
0.0302401
1.12164e-05
0.0300365
-1.9839e-06
0.0298308
-5.18701e-06
0.02962
4.7011e-06
0.0293998
2.92964e-05
0.0291653
6.92184e-05
0.0289125
0.0001193
0.0286414
0.000169779
0.0283567
0.00021029
0.0280662
0.000233509
0.027779
0.000237837
0.027503
0.000225097
0.0272438
0.000200176
0.0270039
0.000169761
0.0267826
0.000141747
0.0265763
0.00012311
0.0263791
0.000118974
0.0261843
0.000129789
0.0259872
0.000149734
0.0257876
0.000169723
0.0255893
0.000182204
0.0253977
0.00018491
0.0252178
0.000179549
0.0250522
0.000170165
0.0249011
0.000161698
0.0247617
0.000159241
0.0246296
0.000165843
0.0244999
0.000181178
0.0243695
0.000200375
0.0242386
0.00021582
0.0241113
0.000220932
0.0239933
0.000214691
0.0238892
0.000199827
0.0238033
0.000179535
0.0237365
0.000158632
0.0236868
0.000142996
0.0236489
0.000136572
0.0236174
0.000139372
0.0235888
0.000149855
0.0235619
0.000163652
0.023538
0.00017549
0.0235198
0.000182507
0.0235093
0.000185569
0.0235094
0.000183878
0.0235182
0.000176982
0.0235412
0.000167771
0.0235777
0.000157425
0.0236238
0.000147528
0.0236773
0.000139389
0.0237409
0.000133274
0.0238153
0.000129968
0.0239004
0.000130315
0.0239946
0.000134869
0.0240949
0.000143856
0.0241984
0.000156366
0.0243035
0.000169341
0.0244107
0.000178767
0.0245227
0.000181543
0.024643
0.000176826
0.0247753
0.000165721
0.0249222
0.000150138
0.0250838
0.000132916
0.0252591
0.000117597
0.0254452
0.000106903
0.025639
0.000101985
0.0258378
0.000102283
0.02604
0.0001063
0.0262454
0.000111982
0.0264546
0.000117621
0.0266685
0.0001223
0.0268876
0.000125483
0.0271119
0.000127557
0.0273413
0.000129041
0.0275753
0.000130455
0.0278136
0.000132014
0.0280556
0.000133731
0.0283013
0.000135752
0.0285502
0.00013815
0.0288024
0.00014067
0.0290577
0.000142927
0.0293164
0.000144487
0.029579
0.000145236
0.0298463
0.000145202
0.0301187
0.000144769
0.0303963
0.00014452
0.0306789
0.000144922
0.030966
0.000146193
0.031257
0.000148387
0.0315515
0.000151382
0.031849
0.00015525
0.0321494
0.00015994
0.0324523
0.000165217
0.0327575
0.000170648
0.0330646