/*--------------------------------*- C++ -*----------------------------------*\
| =========                 |                                                 |
| \\      /  F ield         | OpenFOAM: The Open Source CFD Toolbox           |
|  \\    /   O peration     | Version:  v1812                                 |
|   \\  /    A nd           | Web:      www.OpenFOAM.com                      |
|    \\/     M anipulation  |                                                 |
\*---------------------------------------------------------------------------*/
FoamFile
{
    version     2.0;
    format      ascii;
    class       volScalarField;
    location    "0.5";
    object      T;
}
// * * * * * * * * * * * * * * * * * * * * * * * * * * * * * * * * * * * * * //

dimensions      [0 0 0 1 0 0 0];


internalField   nonuniform List<scalar> 
20400
(
289.386
289.367
289.316
289.253
289.178
289.103
289.031
288.967
288.914
288.876
288.856
288.85
288.859
288.878
288.905
288.937
288.971
289.006
289.041
289.076
289.11
289.143
289.173
289.196
289.208
289.206
289.182
289.126
289.031
288.891
288.696
288.443
288.138
287.796
287.449
287.135
286.911
286.807
286.831
286.966
287.22
287.57
288.006
288.513
289.059
289.607
290.108
290.528
290.856
291.1
291.276
291.397
291.47
291.498
291.494
291.454
291.39
291.312
291.228
291.142
291.055
290.971
290.887
290.808
290.73
290.656
290.585
290.518
290.46
290.405
290.359
290.321
290.29
290.267
290.25
290.24
290.237
290.24
290.249
290.262
290.276
290.29
290.302
290.318
290.331
290.346
290.359
290.382
290.388
290.401
290.419
290.44
290.454
290.472
290.497
290.51
290.505
290.491
290.467
290.437
290.399
290.353
290.301
290.243
290.172
290.082
289.968
289.825
289.657
289.468
289.269
289.074
288.891
288.736
288.61
288.503
288.41
288.33
288.262
288.211
288.179
288.169
288.175
288.198
288.237
288.287
288.349
288.415
288.48
288.542
288.597
288.645
288.695
288.744
288.796
288.855
288.907
288.959
289.006
289.053
289.096
289.139
289.182
289.222
289.262
289.302
289.338
289.372
289.405
289.438
289.468
289.5
289.531
289.563
289.594
289.623
289.652
289.678
289.704
289.731
289.757
289.783
289.808
289.832
289.855
289.875
289.893
289.911
289.928
289.944
289.96
289.974
289.988
290
290.009
290.016
290.021
290.023
290.023
290.02
290.016
290.011
290.006
290
289.993
289.985
289.976
289.967
289.956
289.943
289.93
289.914
289.898
289.881
289.864
289.847
289.829
289.811
289.794
289.776
289.757
289.738
289.718
289.698
289.677
289.656
289.636
289.616
289.596
289.576
289.555
289.535
289.515
289.495
289.476
289.458
289.439
289.422
289.404
289.386
289.369
289.352
289.336
289.321
289.306
289.292
289.278
289.264
289.251
289.238
289.226
289.215
289.205
289.196
289.187
289.179
289.171
289.164
289.158
289.153
289.149
289.147
289.145
289.144
289.144
289.145
289.147
289.15
289.154
289.16
289.166
289.173
289.182
289.191
289.202
289.213
289.226
289.24
289.255
289.271
289.288
289.306
289.325
289.345
289.366
289.388
289.411
289.434
289.459
289.484
289.511
289.538
289.566
289.594
289.624
289.654
289.685
289.716
289.749
289.782
289.816
289.85
289.885
289.92
289.956
289.992
290.029
290.067
290.105
290.143
290.182
290.221
290.26
290.299
290.339
290.379
290.42
290.46
290.501
290.542
290.583
290.624
290.665
290.705
290.746
290.787
290.828
290.869
290.91
290.952
290.993
291.034
291.075
291.116
291.156
291.197
291.238
291.279
291.32
291.36
291.4
291.44
291.48
291.519
291.558
291.598
291.637
291.675
291.714
291.752
291.79
291.828
291.865
291.903
291.94
291.976
292.013
292.049
292.085
292.12
292.155
292.19
292.224
292.258
292.292
292.325
292.357
292.389
292.421
292.452
292.483
292.513
292.543
292.572
292.601
292.63
292.658
292.686
292.713
292.74
292.767
292.792
292.818
292.843
292.868
292.893
292.917
292.941
292.965
292.988
293.011
293.034
293.056
293.079
293.101
293.123
293.144
293.166
293.187
293.208
293.228
293.249
293.269
293.289
293.309
293.328
293.347
293.366
293.385
293.404
293.422
293.44
293.457
293.474
293.491
293.507
293.523
293.538
293.553
293.568
293.582
293.596
293.61
293.623
293.635
293.647
293.659
293.67
293.68
293.69
293.7
293.709
293.718
293.726
293.734
293.741
293.748
293.754
293.76
293.765
293.77
293.775
293.78
293.784
293.788
293.791
293.795
293.798
293.801
293.804
293.807
293.809
293.811
293.814
293.816
293.817
293.819
293.821
293.823
293.824
293.825
293.827
293.828
293.829
293.83
293.832
293.833
293.834
293.835
293.836
293.836
293.837
293.838
293.838
293.839
293.84
293.84
293.841
293.841
293.842
293.842
293.843
293.844
293.844
293.845
293.845
293.846
293.846
293.846
293.847
293.848
293.848
293.849
293.85
293.851
293.852
293.853
293.855
293.856
293.858
293.86
293.862
293.864
293.866
293.868
293.871
293.874
293.877
293.88
293.883
293.887
293.891
293.894
293.898
293.901
293.905
293.909
293.912
293.916
293.919
289.32
289.294
289.226
289.144
289.049
288.951
288.857
288.772
288.703
288.652
288.623
288.613
288.62
288.64
288.669
288.704
288.742
288.781
288.819
288.858
288.897
288.936
288.974
289.01
289.041
289.066
289.077
289.068
289.032
288.958
288.836
288.656
288.408
288.088
287.718
287.344
287.042
286.896
286.914
287.069
287.38
287.788
288.307
288.908
289.537
290.139
290.655
291.047
291.313
291.484
291.581
291.615
291.602
291.535
291.439
291.31
291.157
290.997
290.834
290.676
290.521
290.373
290.233
290.116
289.987
289.868
289.753
289.646
289.546
289.453
289.369
289.293
289.227
289.173
289.132
289.107
289.096
289.094
289.101
289.111
289.125
289.141
289.162
289.175
289.193
289.2
289.196
289.198
289.229
289.263
289.309
289.354
289.407
289.467
289.551
289.676
289.759
289.822
289.875
289.938
290.006
290.069
290.122
290.164
290.197
290.223
290.251
290.289
290.333
290.34
290.312
290.229
290.073
289.891
289.734
289.606
289.49
289.365
289.226
289.079
288.929
288.786
288.655
288.544
288.456
288.39
288.365
288.366
288.391
288.434
288.479
288.515
288.538
288.555
288.577
288.612
288.653
288.7
288.748
288.785
288.809
288.832
288.857
288.887
288.921
288.959
288.993
289.026
289.054
289.075
289.094
289.116
289.14
289.168
289.199
289.23
289.26
289.287
289.312
289.338
289.365
289.394
289.425
289.456
289.488
289.52
289.549
289.577
289.605
289.633
289.661
289.687
289.714
289.741
289.767
289.794
289.818
289.838
289.853
289.863
289.868
289.872
289.874
289.876
289.876
289.876
289.874
289.871
289.866
289.859
289.851
289.84
289.828
289.814
289.799
289.783
289.766
289.749
289.731
289.713
289.695
289.677
289.658
289.64
289.621
289.601
289.581
289.56
289.54
289.518
289.497
289.477
289.457
289.437
289.418
289.4
289.382
289.364
289.345
289.327
289.31
289.293
289.276
289.261
289.247
289.233
289.219
289.205
289.191
289.178
289.166
289.154
289.143
289.134
289.125
289.117
289.11
289.103
289.097
289.092
289.088
289.085
289.083
289.082
289.082
289.082
289.083
289.086
289.09
289.095
289.102
289.11
289.119
289.129
289.139
289.151
289.163
289.176
289.191
289.207
289.223
289.241
289.26
289.281
289.302
289.324
289.347
289.37
289.395
289.421
289.447
289.474
289.502
289.531
289.56
289.59
289.621
289.653
289.685
289.718
289.752
289.786
289.821
289.856
289.892
289.928
289.965
290.002
290.04
290.078
290.117
290.156
290.195
290.234
290.273
290.312
290.352
290.392
290.432
290.473
290.514
290.556
290.597
290.638
290.678
290.719
290.759
290.8
290.841
290.882
290.923
290.964
291.005
291.045
291.086
291.126
291.166
291.207
291.247
291.288
291.329
291.369
291.409
291.449
291.488
291.526
291.565
291.603
291.642
291.68
291.718
291.756
291.794
291.831
291.868
291.904
291.94
291.975
292.011
292.046
292.081
292.115
292.149
292.183
292.216
292.249
292.281
292.313
292.345
292.376
292.406
292.436
292.466
292.495
292.523
292.551
292.579
292.607
292.634
292.661
292.687
292.713
292.739
292.764
292.789
292.813
292.837
292.861
292.885
292.908
292.93
292.953
292.975
292.997
293.019
293.04
293.062
293.083
293.104
293.125
293.145
293.166
293.186
293.206
293.226
293.245
293.264
293.283
293.301
293.319
293.337
293.355
293.373
293.39
293.406
293.423
293.438
293.454
293.468
293.483
293.497
293.511
293.524
293.537
293.55
293.562
293.573
293.584
293.594
293.604
293.613
293.622
293.63
293.638
293.646
293.653
293.66
293.667
293.673
293.679
293.684
293.689
293.693
293.697
293.7
293.703
293.706
293.709
293.712
293.715
293.717
293.72
293.722
293.724
293.725
293.727
293.728
293.73
293.731
293.733
293.734
293.736
293.737
293.738
293.739
293.74
293.741
293.742
293.743
293.744
293.745
293.746
293.746
293.747
293.748
293.748
293.749
293.749
293.75
293.75
293.751
293.751
293.752
293.752
293.753
293.754
293.754
293.755
293.756
293.756
293.757
293.758
293.758
293.759
293.76
293.761
293.763
293.764
293.766
293.768
293.77
293.772
293.774
293.775
293.777
293.779
293.782
293.784
293.786
293.789
293.792
293.796
293.799
293.803
293.806
293.81
293.814
293.817
293.821
293.824
289.204
289.164
289.07
288.95
288.809
288.663
288.526
288.407
288.313
288.246
288.208
288.197
288.207
288.231
288.267
288.308
288.353
288.396
288.44
288.483
288.527
288.574
288.622
288.673
288.726
288.779
288.827
288.866
288.889
288.883
288.841
288.741
288.563
288.293
287.931
287.529
287.195
287.043
287.086
287.299
287.671
288.163
288.773
289.458
290.148
290.769
291.245
291.538
291.67
291.701
291.661
291.567
291.446
291.274
291.061
290.816
290.551
290.255
289.973
289.703
289.448
289.203
288.97
288.76
288.563
288.384
288.215
288.058
287.912
287.775
287.65
287.534
287.434
287.353
287.297
287.265
287.251
287.25
287.259
287.271
287.284
287.299
287.313
287.326
287.336
287.34
287.33
287.31
287.312
287.344
287.399
287.462
287.525
287.601
287.704
287.854
287.995
288.123
288.222
288.318
288.424
288.538
288.65
288.756
288.854
288.943
289.038
289.169
289.369
289.626
289.895
290.13
290.304
290.418
290.493
290.552
290.607
290.627
290.611
290.532
290.368
290.152
289.925
289.702
289.467
289.203
288.931
288.699
288.54
288.454
288.396
288.353
288.325
288.31
288.309
288.32
288.33
288.351
288.378
288.4
288.397
288.382
288.365
288.362
288.37
288.388
288.408
288.428
288.444
288.45
288.45
288.449
288.452
288.462
288.481
288.506
288.531
288.553
288.571
288.585
288.601
288.62
288.644
288.675
288.713
288.758
288.805
288.854
288.899
288.944
288.988
289.033
289.08
289.13
289.184
289.242
289.302
289.361
289.41
289.45
289.482
289.511
289.539
289.568
289.596
289.618
289.636
289.651
289.662
289.669
289.673
289.676
289.676
289.673
289.668
289.66
289.65
289.637
289.623
289.608
289.593
289.576
289.56
289.544
289.527
289.51
289.492
289.473
289.453
289.432
289.411
289.39
289.369
289.348
289.328
289.31
289.292
289.274
289.256
289.238
289.221
289.203
289.186
289.17
289.154
289.14
289.126
289.113
289.1
289.087
289.074
289.061
289.05
289.039
289.03
289.022
289.014
289.008
289.002
288.997
288.993
288.99
288.988
288.986
288.986
288.987
288.988
288.99
288.993
288.998
289.004
289.011
289.02
289.03
289.041
289.052
289.065
289.078
289.091
289.106
289.123
289.14
289.159
289.179
289.2
289.221
289.244
289.268
289.292
289.318
289.344
289.371
289.399
289.427
289.457
289.487
289.518
289.549
289.581
289.614
289.647
289.681
289.715
289.75
289.786
289.822
289.859
289.896
289.933
289.971
290.009
290.048
290.087
290.127
290.166
290.205
290.244
290.283
290.323
290.362
290.402
290.443
290.484
290.525
290.566
290.607
290.647
290.687
290.727
290.767
290.807
290.848
290.889
290.929
290.97
291.011
291.051
291.09
291.13
291.17
291.21
291.251
291.291
291.331
291.371
291.41
291.449
291.487
291.524
291.562
291.6
291.637
291.675
291.713
291.75
291.787
291.823
291.858
291.893
291.928
291.962
291.996
292.03
292.064
292.096
292.129
292.161
292.192
292.224
292.254
292.285
292.315
292.345
292.374
292.402
292.429
292.457
292.484
292.51
292.537
292.563
292.589
292.614
292.639
292.664
292.688
292.712
292.736
292.76
292.783
292.806
292.829
292.851
292.872
292.894
292.915
292.936
292.957
292.978
292.998
293.019
293.039
293.059
293.079
293.098
293.118
293.138
293.157
293.175
293.193
293.211
293.228
293.245
293.262
293.279
293.295
293.311
293.326
293.341
293.355
293.369
293.382
293.395
293.408
293.42
293.433
293.444
293.455
293.465
293.475
293.484
293.493
293.501
293.509
293.516
293.523
293.529
293.535
293.541
293.546
293.552
293.557
293.562
293.566
293.57
293.573
293.576
293.578
293.58
293.583
293.585
293.587
293.589
293.591
293.592
293.594
293.595
293.596
293.597
293.598
293.599
293.6
293.601
293.602
293.603
293.604
293.605
293.606
293.607
293.608
293.609
293.61
293.61
293.611
293.612
293.612
293.613
293.613
293.614
293.614
293.614
293.615
293.615
293.615
293.616
293.616
293.617
293.617
293.618
293.619
293.62
293.621
293.622
293.623
293.623
293.624
293.626
293.627
293.628
293.63
293.632
293.634
293.636
293.639
293.641
293.643
293.645
293.647
293.649
293.651
293.653
293.656
293.659
293.662
293.665
293.668
293.672
293.675
293.679
293.681
289.03
288.961
288.825
288.648
288.441
288.236
288.053
287.902
287.79
287.718
287.683
287.68
287.699
287.733
287.776
287.823
287.87
287.917
287.962
288.007
288.056
288.108
288.167
288.234
288.309
288.389
288.471
288.548
288.616
288.669
288.674
288.637
288.522
288.302
287.968
287.589
287.3
287.233
287.357
287.682
288.137
288.679
289.311
290.002
290.684
291.271
291.648
291.791
291.805
291.703
291.56
291.357
291.09
290.763
290.39
289.988
289.578
289.178
288.787
288.424
288.099
287.809
287.552
287.33
287.137
286.968
286.813
286.675
286.55
286.436
286.337
286.25
286.175
286.113
286.065
286.031
286.009
285.996
285.99
285.989
285.993
285.999
286.004
286.007
286.007
286.008
286.005
285.994
285.991
286.002
286.027
286.063
286.105
286.157
286.226
286.316
286.404
286.503
286.596
286.684
286.772
286.859
286.947
287.034
287.119
287.2
287.283
287.396
287.565
287.802
288.102
288.467
288.849
289.197
289.499
289.772
290.035
290.289
290.523
290.751
290.962
291.127
291.176
291.154
291.052
290.826
290.456
289.975
289.473
289.049
288.756
288.58
288.482
288.426
288.378
288.332
288.272
288.212
288.163
288.125
288.084
288.024
287.952
287.886
287.837
287.809
287.79
287.78
287.777
287.762
287.739
287.709
287.678
287.654
287.641
287.64
287.645
287.653
287.658
287.661
287.655
287.646
287.644
287.652
287.672
287.706
287.75
287.798
287.847
287.894
287.944
287.997
288.058
288.131
288.218
288.321
288.432
288.537
288.629
288.708
288.777
288.84
288.905
288.976
289.048
289.116
289.176
289.226
289.269
289.308
289.341
289.372
289.398
289.42
289.437
289.45
289.457
289.461
289.461
289.459
289.453
289.445
289.436
289.426
289.415
289.402
289.389
289.373
289.357
289.339
289.321
289.301
289.281
289.261
289.24
289.22
289.201
289.182
289.165
289.147
289.13
289.113
289.097
289.08
289.064
289.049
289.035
289.02
289.007
288.994
288.981
288.969
288.958
288.947
288.937
288.928
288.92
288.913
288.907
288.902
288.897
288.894
288.892
288.891
288.891
288.891
288.893
288.895
288.898
288.902
288.908
288.914
288.922
288.931
288.942
288.953
288.966
288.979
288.993
289.008
289.024
289.041
289.06
289.079
289.099
289.12
289.142
289.165
289.19
289.215
289.241
289.269
289.297
289.325
289.354
289.384
289.415
289.446
289.478
289.511
289.544
289.577
289.612
289.646
289.682
289.718
289.754
289.791
289.828
289.866
289.904
289.942
289.981
290.02
290.06
290.1
290.139
290.179
290.218
290.258
290.297
290.337
290.377
290.418
290.458
290.498
290.538
290.579
290.619
290.659
290.699
290.738
290.778
290.818
290.858
290.898
290.938
290.978
291.018
291.057
291.097
291.137
291.177
291.217
291.257
291.296
291.335
291.374
291.412
291.45
291.487
291.525
291.562
291.599
291.635
291.672
291.708
291.744
291.779
291.814
291.849
291.883
291.917
291.95
291.982
292.015
292.046
292.077
292.108
292.139
292.169
292.199
292.228
292.257
292.286
292.314
292.341
292.368
292.394
292.42
292.445
292.471
292.496
292.52
292.544
292.569
292.592
292.616
292.64
292.663
292.686
292.709
292.731
292.753
292.774
292.795
292.816
292.837
292.857
292.877
292.897
292.917
292.937
292.956
292.976
292.995
293.014
293.033
293.052
293.07
293.088
293.105
293.123
293.139
293.156
293.172
293.188
293.203
293.217
293.231
293.245
293.258
293.271
293.283
293.296
293.307
293.319
293.33
293.34
293.35
293.359
293.368
293.376
293.383
293.391
293.397
293.403
293.409
293.414
293.419
293.424
293.429
293.433
293.437
293.441
293.445
293.448
293.451
293.453
293.455
293.457
293.459
293.461
293.462
293.464
293.465
293.466
293.467
293.468
293.468
293.469
293.47
293.471
293.472
293.472
293.473
293.473
293.474
293.474
293.475
293.476
293.477
293.478
293.478
293.479
293.48
293.48
293.481
293.481
293.481
293.481
293.482
293.482
293.482
293.482
293.482
293.482
293.483
293.483
293.484
293.485
293.486
293.486
293.487
293.488
293.489
293.49
293.492
293.493
293.494
293.496
293.497
293.499
293.502
293.504
293.506
293.509
293.511
293.513
293.516
293.518
293.52
293.523
293.525
293.528
293.531
293.533
293.536
293.538
293.541
288.816
288.715
288.529
288.285
288.011
287.753
287.54
287.378
287.272
287.214
287.196
287.208
287.236
287.276
287.322
287.368
287.412
287.454
287.495
287.539
287.588
287.646
287.713
287.792
287.884
287.984
288.09
288.195
288.292
288.38
288.431
288.421
288.351
288.174
287.89
287.581
287.424
287.497
287.801
288.283
288.814
289.37
289.963
290.568
291.14
291.593
291.817
291.854
291.756
291.554
291.265
290.913
290.497
290.031
289.54
289.042
288.562
288.124
287.733
287.389
287.095
286.848
286.641
286.472
286.329
286.207
286.099
286.007
285.922
285.84
285.767
285.703
285.647
285.601
285.562
285.529
285.501
285.476
285.454
285.435
285.422
285.416
285.411
285.404
285.395
285.386
285.378
285.364
285.354
285.35
285.349
285.354
285.364
285.382
285.413
285.453
285.485
285.53
285.582
285.64
285.699
285.759
285.821
285.885
285.95
286.013
286.076
286.152
286.253
286.385
286.551
286.761
287.007
287.273
287.551
287.85
288.201
288.616
289.094
289.593
290.077
290.519
290.874
291.163
291.468
291.678
291.662
291.483
291.077
290.5
289.886
289.384
289.076
288.929
288.851
288.756
288.591
288.392
288.232
288.116
288.02
287.91
287.795
287.681
287.578
287.489
287.413
287.349
287.293
287.251
287.211
287.163
287.116
287.072
287.032
287.001
286.971
286.945
286.918
286.89
286.857
286.821
286.786
286.757
286.737
286.733
286.737
286.745
286.753
286.765
286.782
286.807
286.851
286.918
287.013
287.136
287.277
287.412
287.532
287.639
287.738
287.837
287.945
288.067
288.198
288.321
288.436
288.533
288.618
288.697
288.774
288.848
288.918
288.982
289.038
289.087
289.13
289.167
289.197
289.222
289.242
289.256
289.267
289.274
289.277
289.278
289.275
289.27
289.262
289.251
289.238
289.223
289.206
289.188
289.17
289.151
289.132
289.113
289.095
289.077
289.059
289.043
289.026
289.01
288.995
288.98
288.965
288.951
288.937
288.924
288.911
288.899
288.887
288.876
288.866
288.857
288.849
288.841
288.835
288.83
288.825
288.821
288.819
288.817
288.817
288.818
288.819
288.822
288.825
288.83
288.835
288.841
288.849
288.858
288.868
288.879
288.891
288.904
288.918
288.933
288.949
288.966
288.984
289.003
289.023
289.044
289.066
289.088
289.112
289.137
289.163
289.19
289.217
289.246
289.275
289.305
289.336
289.367
289.399
289.431
289.464
289.498
289.532
289.566
289.601
289.637
289.673
289.71
289.747
289.784
289.822
289.86
289.899
289.938
289.977
290.017
290.056
290.096
290.136
290.176
290.216
290.256
290.296
290.336
290.376
290.416
290.456
290.496
290.536
290.576
290.616
290.655
290.695
290.735
290.774
290.814
290.853
290.893
290.932
290.971
291.011
291.05
291.089
291.129
291.168
291.208
291.247
291.286
291.324
291.362
291.4
291.437
291.474
291.511
291.547
291.583
291.619
291.655
291.69
291.725
291.76
291.794
291.828
291.861
291.894
291.926
291.958
291.989
292.019
292.049
292.079
292.109
292.138
292.166
292.195
292.223
292.25
292.277
292.304
292.329
292.355
292.38
292.404
292.428
292.452
292.476
292.499
292.523
292.546
292.569
292.592
292.614
292.636
292.658
292.68
292.701
292.722
292.743
292.763
292.783
292.803
292.823
292.842
292.861
292.88
292.899
292.918
292.936
292.955
292.973
292.991
293.008
293.026
293.042
293.059
293.075
293.091
293.106
293.12
293.134
293.148
293.16
293.173
293.185
293.197
293.209
293.22
293.231
293.241
293.251
293.26
293.268
293.277
293.284
293.292
293.298
293.304
293.31
293.315
293.32
293.324
293.329
293.332
293.336
293.339
293.343
293.346
293.349
293.351
293.353
293.356
293.357
293.359
293.361
293.362
293.363
293.364
293.365
293.366
293.367
293.367
293.368
293.368
293.369
293.369
293.369
293.369
293.37
293.37
293.37
293.371
293.372
293.372
293.373
293.374
293.374
293.375
293.375
293.376
293.376
293.376
293.376
293.376
293.376
293.376
293.376
293.376
293.376
293.377
293.377
293.377
293.378
293.379
293.38
293.381
293.382
293.383
293.384
293.385
293.386
293.387
293.389
293.39
293.392
293.394
293.396
293.398
293.401
293.403
293.405
293.408
293.41
293.413
293.415
293.418
293.42
293.423
293.425
293.427
293.429
288.588
288.457
288.219
287.912
287.585
287.296
287.077
286.927
286.841
286.805
286.803
286.822
286.852
286.886
286.924
286.957
286.989
287.021
287.057
287.101
287.154
287.218
287.294
287.383
287.487
287.6
287.722
287.845
287.965
288.068
288.14
288.145
288.096
287.961
287.752
287.588
287.616
287.873
288.377
288.987
289.566
290.109
290.63
291.109
291.519
291.79
291.875
291.816
291.602
291.252
290.821
290.33
289.805
289.266
288.743
288.254
287.811
287.429
287.113
286.863
286.649
286.476
286.334
286.214
286.102
286.007
285.921
285.845
285.781
285.717
285.653
285.591
285.533
285.481
285.433
285.388
285.346
285.307
285.269
285.23
285.189
285.151
285.121
285.094
285.069
285.046
285.026
285.004
284.985
284.969
284.955
284.944
284.935
284.93
284.935
284.947
284.953
284.965
284.982
285.007
285.038
285.076
285.121
285.172
285.229
285.289
285.353
285.425
285.505
285.593
285.688
285.793
285.901
286.015
286.143
286.304
286.52
286.81
287.184
287.642
288.179
288.782
289.43
290.09
290.719
291.233
291.621
291.956
291.986
291.837
291.407
290.766
290.181
289.889
289.776
289.644
289.369
288.96
288.586
288.355
288.208
288.09
287.966
287.825
287.675
287.532
287.396
287.278
287.174
287.103
287.04
286.987
286.941
286.903
286.864
286.826
286.783
286.735
286.678
286.618
286.561
286.499
286.435
286.371
286.307
286.246
286.186
286.124
286.06
286.003
285.954
285.912
285.899
285.909
285.948
286.022
286.121
286.229
286.333
286.433
286.535
286.648
286.781
286.938
287.11
287.279
287.434
287.571
287.696
287.818
287.942
288.065
288.187
288.3
288.405
288.501
288.592
288.676
288.754
288.823
288.885
288.94
288.987
289.027
289.062
289.09
289.113
289.129
289.14
289.146
289.146
289.142
289.134
289.123
289.11
289.095
289.079
289.061
289.044
289.026
289.009
288.992
288.975
288.959
288.944
288.929
288.914
288.9
288.886
288.873
288.861
288.848
288.837
288.826
288.816
288.807
288.798
288.791
288.785
288.779
288.774
288.77
288.768
288.766
288.765
288.765
288.767
288.769
288.773
288.777
288.783
288.79
288.797
288.806
288.815
288.826
288.838
288.851
288.865
288.88
288.895
288.912
288.93
288.949
288.969
288.99
289.011
289.034
289.057
289.082
289.107
289.133
289.161
289.189
289.218
289.248
289.278
289.31
289.341
289.374
289.407
289.44
289.474
289.509
289.544
289.579
289.615
289.651
289.688
289.725
289.763
289.801
289.84
289.878
289.917
289.957
289.996
290.036
290.076
290.116
290.156
290.196
290.236
290.276
290.317
290.357
290.397
290.437
290.477
290.517
290.556
290.596
290.636
290.675
290.715
290.754
290.793
290.833
290.872
290.911
290.95
290.989
291.028
291.067
291.106
291.145
291.183
291.222
291.261
291.299
291.337
291.374
291.411
291.448
291.484
291.52
291.555
291.591
291.626
291.661
291.695
291.729
291.763
291.796
291.829
291.861
291.893
291.924
291.955
291.985
292.015
292.044
292.073
292.101
292.129
292.157
292.185
292.212
292.238
292.264
292.29
292.315
292.339
292.363
292.387
292.41
292.433
292.456
292.479
292.501
292.524
292.546
292.568
292.59
292.612
292.633
292.654
292.674
292.695
292.715
292.735
292.754
292.774
292.793
292.812
292.83
292.849
292.867
292.885
292.903
292.921
292.938
292.955
292.972
292.989
293.005
293.02
293.035
293.05
293.064
293.077
293.09
293.103
293.115
293.126
293.138
293.149
293.159
293.169
293.179
293.188
293.197
293.205
293.212
293.22
293.226
293.232
293.238
293.243
293.248
293.253
293.257
293.261
293.264
293.267
293.27
293.272
293.275
293.277
293.28
293.282
293.284
293.285
293.287
293.288
293.289
293.29
293.291
293.292
293.293
293.294
293.294
293.295
293.295
293.296
293.296
293.296
293.296
293.296
293.296
293.296
293.297
293.297
293.298
293.298
293.299
293.299
293.3
293.3
293.301
293.301
293.301
293.301
293.301
293.301
293.301
293.301
293.301
293.301
293.301
293.301
293.301
293.302
293.302
293.303
293.304
293.305
293.306
293.307
293.308
293.309
293.31
293.312
293.313
293.315
293.317
293.319
293.321
293.323
293.325
293.327
293.329
293.332
293.334
293.337
293.339
293.342
293.344
293.346
293.348
288.372
288.205
287.921
287.566
287.21
286.916
286.712
286.586
286.523
286.502
286.504
286.519
286.54
286.562
286.585
286.606
286.631
286.662
286.705
286.76
286.826
286.901
286.986
287.082
287.191
287.308
287.436
287.563
287.68
287.78
287.85
287.863
287.832
287.751
287.676
287.706
287.932
288.387
289.015
289.671
290.248
290.752
291.186
291.532
291.769
291.866
291.859
291.702
291.358
290.882
290.337
289.766
289.202
288.663
288.178
287.751
287.4
287.121
286.889
286.71
286.57
286.439
286.322
286.224
286.131
286.046
285.963
285.881
285.799
285.723
285.653
285.586
285.522
285.462
285.401
285.342
285.283
285.223
285.165
285.11
285.049
284.985
284.924
284.866
284.814
284.766
284.725
284.687
284.656
284.632
284.613
284.599
284.588
284.578
284.573
284.574
284.57
284.569
284.567
284.569
284.578
284.597
284.625
284.665
284.715
284.774
284.845
284.929
285.022
285.115
285.204
285.286
285.353
285.409
285.463
285.527
285.616
285.74
285.912
286.152
286.482
286.924
287.494
288.188
288.971
289.782
290.583
291.274
291.799
292.18
292.186
291.992
291.6
291.276
291.103
290.915
290.553
289.965
289.336
288.903
288.683
288.539
288.39
288.196
287.97
287.758
287.59
287.461
287.375
287.322
287.277
287.239
287.208
287.194
287.185
287.177
287.153
287.109
287.043
286.974
286.901
286.819
286.723
286.612
286.487
286.356
286.225
286.097
285.97
285.845
285.723
285.61
285.509
285.423
285.351
285.305
285.303
285.314
285.345
285.397
285.468
285.562
285.683
285.832
286
286.167
286.326
286.472
286.616
286.767
286.925
287.088
287.249
287.403
287.548
287.689
287.827
287.961
288.091
288.214
288.329
288.436
288.534
288.624
288.706
288.779
288.844
288.899
288.944
288.981
289.008
289.027
289.039
289.044
289.042
289.037
289.028
289.016
289.002
288.987
288.971
288.954
288.938
288.922
288.906
288.891
288.876
288.862
288.848
288.835
288.823
288.811
288.799
288.789
288.779
288.769
288.761
288.753
288.747
288.742
288.737
288.733
288.73
288.728
288.728
288.728
288.729
288.731
288.735
288.739
288.745
288.751
288.759
288.768
288.777
288.788
288.799
288.812
288.826
288.841
288.856
288.873
288.891
288.91
288.929
288.95
288.972
288.994
289.017
289.042
289.067
289.093
289.12
289.147
289.176
289.206
289.236
289.267
289.299
289.331
289.364
289.397
289.431
289.466
289.5
289.536
289.572
289.608
289.645
289.682
289.719
289.757
289.795
289.834
289.873
289.912
289.951
289.991
290.031
290.07
290.111
290.151
290.191
290.231
290.272
290.312
290.352
290.392
290.432
290.472
290.512
290.552
290.592
290.631
290.671
290.71
290.75
290.789
290.828
290.867
290.906
290.945
290.984
291.022
291.061
291.099
291.138
291.176
291.215
291.253
291.291
291.328
291.365
291.402
291.438
291.474
291.509
291.544
291.579
291.614
291.648
291.682
291.716
291.749
291.782
291.814
291.846
291.877
291.908
291.938
291.968
291.997
292.025
292.054
292.082
292.109
292.137
292.164
292.19
292.216
292.242
292.267
292.291
292.316
292.339
292.362
292.385
292.408
292.43
292.453
292.475
292.497
292.519
292.541
292.562
292.583
292.604
292.625
292.645
292.665
292.685
292.705
292.724
292.743
292.762
292.781
292.799
292.817
292.835
292.853
292.87
292.887
292.904
292.921
292.937
292.953
292.969
292.984
292.999
293.013
293.026
293.039
293.052
293.064
293.075
293.087
293.097
293.108
293.118
293.127
293.136
293.145
293.153
293.161
293.168
293.174
293.18
293.186
293.191
293.196
293.201
293.205
293.209
293.212
293.215
293.218
293.22
293.223
293.225
293.227
293.229
293.231
293.233
293.234
293.235
293.236
293.238
293.238
293.239
293.24
293.241
293.242
293.243
293.243
293.244
293.244
293.244
293.244
293.244
293.244
293.244
293.244
293.244
293.245
293.245
293.246
293.246
293.247
293.247
293.248
293.248
293.248
293.248
293.248
293.248
293.248
293.248
293.248
293.248
293.248
293.248
293.248
293.248
293.248
293.249
293.25
293.25
293.251
293.252
293.253
293.254
293.255
293.256
293.258
293.259
293.261
293.262
293.264
293.266
293.268
293.27
293.272
293.274
293.276
293.278
293.281
293.283
293.285
293.288
293.29
288.168
287.974
287.653
287.268
286.902
286.623
286.442
286.339
286.287
286.267
286.261
286.263
286.269
286.279
286.296
286.321
286.36
286.413
286.48
286.559
286.646
286.735
286.828
286.927
287.033
287.143
287.254
287.363
287.464
287.545
287.609
287.641
287.654
287.677
287.755
287.973
288.376
288.937
289.59
290.221
290.753
291.192
291.531
291.752
291.845
291.859
291.786
291.519
291.066
290.504
289.913
289.325
288.779
288.295
287.873
287.533
287.256
287.044
286.879
286.74
286.625
286.518
286.415
286.32
286.224
286.128
286.035
285.946
285.851
285.761
285.674
285.59
285.506
285.419
285.331
285.243
285.156
285.069
284.98
284.898
284.822
284.747
284.674
284.602
284.535
284.473
284.416
284.366
284.325
284.294
284.275
284.266
284.265
284.267
284.273
284.283
284.283
284.283
284.276
284.268
284.266
284.268
284.281
284.306
284.345
284.398
284.469
284.558
284.661
284.768
284.872
284.967
285.041
285.098
285.145
285.185
285.225
285.27
285.33
285.421
285.563
285.779
286.097
286.546
287.145
287.902
288.794
289.768
290.771
291.601
292.102
292.455
292.506
292.45
292.355
292.174
291.794
291.141
290.372
289.779
289.456
289.252
289.038
288.765
288.466
288.209
288.041
287.929
287.853
287.809
287.765
287.76
287.77
287.81
287.869
287.923
287.958
287.969
287.965
287.943
287.906
287.851
287.769
287.661
287.527
287.368
287.185
286.98
286.754
286.511
286.256
285.993
285.732
285.491
285.287
285.123
284.995
284.896
284.817
284.773
284.775
284.8
284.862
284.959
285.076
285.202
285.329
285.457
285.594
285.746
285.906
286.078
286.249