/*--------------------------------*- C++ -*----------------------------------*\
| =========                 |                                                 |
| \\      /  F ield         | OpenFOAM: The Open Source CFD Toolbox           |
|  \\    /   O peration     | Version:  v1812                                 |
|   \\  /    A nd           | Web:      www.OpenFOAM.com                      |
|    \\/     M anipulation  |                                                 |
\*---------------------------------------------------------------------------*/
FoamFile
{
    version     2.0;
    format      ascii;
    class       volVectorField;
    location    "0.5";
    object      U;
}
// * * * * * * * * * * * * * * * * * * * * * * * * * * * * * * * * * * * * * //

dimensions      [0 1 -1 0 0 0 0];


internalField   nonuniform List<vector> 
20400
(
(-0.0658775 0.0373173 0)
(-0.0641178 -0.0431484 0)
(-0.0548713 -0.0376986 0)
(-0.048998 -0.055821 0)
(-0.0109742 -0.0640274 0)
(0.0486089 -0.0572761 0)
(0.121786 -0.0330505 0)
(0.187737 -0.0149531 0)
(0.240356 -0.00187474 0)
(0.271145 0.00378942 0)
(0.2842 -0.000805306 0)
(0.284027 -0.00443931 0)
(0.273617 -0.00594846 0)
(0.260018 -0.00965915 0)
(0.245751 -0.0142757 0)
(0.238436 -0.0211241 0)
(0.243682 -0.0307515 0)
(0.260346 -0.0407414 0)
(0.286971 -0.0469542 0)
(0.321312 -0.05077 0)
(0.364741 -0.0556166 0)
(0.421363 -0.0625307 0)
(0.497062 -0.0689591 0)
(0.5873 -0.0623731 0)
(0.679946 -0.0460146 0)
(0.770731 -0.0298554 0)
(0.865462 -0.0178784 0)
(0.966063 -0.00108038 0)
(1.06575 0.0163227 0)
(1.16454 0.0273125 0)
(1.27209 0.0356444 0)
(1.38318 0.0435983 0)
(1.49118 0.0412733 0)
(1.58361 0.00751876 0)
(1.68632 -0.0145874 0)
(1.80124 0.0322227 0)
(1.90747 0.0535678 0)
(1.97446 -0.146434 0)
(2.00143 -0.3549 0)
(2.06202 -0.271385 0)
(2.07935 0.0032148 0)
(1.97272 0.0769007 0)
(1.84223 0.0833678 0)
(1.73529 0.0471224 0)
(1.66325 0.0180849 0)
(1.59764 0.0246622 0)
(1.50639 0.0807347 0)
(1.32938 0.187861 0)
(1.02716 0.312771 0)
(0.594307 0.441862 0)
(0.0364512 0.53145 0)
(-0.627007 0.532708 0)
(-1.38748 0.505299 0)
(-2.23895 0.47453 0)
(-3.15426 0.444247 0)
(-4.10989 0.471498 0)
(-5.0754 0.530113 0)
(-5.9833 0.537739 0)
(-6.78447 0.521431 0)
(-7.46246 0.47769 0)
(-8.04672 0.433188 0)
(-8.56001 0.375644 0)
(-9.0052 0.284883 0)
(-9.36473 0.140335 0)
(-9.66991 0.105046 0)
(-9.88134 0.0362243 0)
(-10.0071 -0.00882816 0)
(-10.0633 -0.0379402 0)
(-10.0466 -0.0900704 0)
(-9.93889 -0.124446 0)
(-9.74585 -0.110492 0)
(-9.48219 -0.0355708 0)
(-9.16847 0.109308 0)
(-8.82055 0.325629 0)
(-8.44408 0.575403 0)
(-8.03238 0.78459 0)
(-7.58196 0.892208 0)
(-7.10789 0.871617 0)
(-6.62159 0.779021 0)
(-6.12344 0.636028 0)
(-5.61033 0.484037 0)
(-5.09 0.347419 0)
(-4.57822 0.22834 0)
(-4.05879 0.123121 0)
(-3.52669 0.0854788 0)
(-3.00878 0.0365031 0)
(-2.50161 -0.0432722 0)
(-1.99361 -0.198181 0)
(-1.55962 -0.415703 0)
(-1.13946 -0.43788 0)
(-0.691838 -0.495639 0)
(-0.177012 -0.527479 0)
(0.344552 -0.321763 0)
(0.880426 -0.130607 0)
(1.38723 0.0549311 0)
(1.67327 0.315155 0)
(1.82093 0.107439 0)
(2.09821 -0.0148431 0)
(2.47483 -0.0994273 0)
(2.88823 -0.154989 0)
(3.27433 -0.194702 0)
(3.58631 -0.235266 0)
(3.81889 -0.222314 0)
(3.98662 -0.206656 0)
(4.11133 -0.199832 0)
(4.21237 -0.200607 0)
(4.30493 -0.203278 0)
(4.38641 -0.188505 0)
(4.44711 -0.142487 0)
(4.45507 -0.0556162 0)
(4.39427 0.132288 0)
(4.24108 0.209656 0)
(4.06004 0.245666 0)
(3.82803 0.249574 0)
(3.56079 0.215864 0)
(3.28054 0.177237 0)
(3.0011 0.15446 0)
(2.72532 0.17587 0)
(2.44441 0.222828 0)
(2.15752 0.263819 0)
(1.87801 0.285283 0)
(1.61756 0.284943 0)
(1.38415 0.267072 0)
(1.18182 0.235024 0)
(1.01118 0.198424 0)
(0.864344 0.164187 0)
(0.731697 0.132818 0)
(0.604629 0.111376 0)
(0.471339 0.11247 0)
(0.315794 0.155222 0)
(0.118887 0.24834 0)
(-0.133693 0.368227 0)
(-0.440876 0.380888 0)
(-0.70661 0.29024 0)
(-0.845491 0.140306 0)
(-0.847005 0.0532062 0)
(-0.788283 0.0348714 0)
(-0.740556 0.0690001 0)
(-0.753873 0.134433 0)
(-0.825572 0.163061 0)
(-0.891072 0.137207 0)
(-0.918858 0.0972514 0)
(-0.913837 0.0767316 0)
(-0.892796 0.0652531 0)
(-0.867581 0.0622085 0)
(-0.843598 0.0675706 0)
(-0.828584 0.081546 0)
(-0.837868 0.103616 0)
(-0.864158 0.101126 0)
(-0.868888 0.068877 0)
(-0.842781 0.0486925 0)
(-0.801519 0.0206536 0)
(-0.732997 -0.00358966 0)
(-0.646313 -0.0227476 0)
(-0.54575 -0.0343579 0)
(-0.440266 -0.0388095 0)
(-0.331422 -0.0447236 0)
(-0.22414 -0.041526 0)
(-0.120573 -0.0450671 0)
(-0.0141122 -0.0527999 0)
(0.097416 -0.0582379 0)
(0.21471 -0.0626751 0)
(0.33626 -0.061918 0)
(0.457862 -0.0550197 0)
(0.575663 -0.0421843 0)
(0.685588 -0.0259613 0)
(0.78776 -0.0134526 0)
(0.894179 -0.00876443 0)
(1.01588 0.000415299 0)
(1.1495 0.0132475 0)
(1.28277 0.0234315 0)
(1.40319 0.0147817 0)
(1.50722 -0.00990234 0)
(1.59763 -0.0301445 0)
(1.67189 -0.045014 0)
(1.73218 -0.0518019 0)
(1.78306 -0.0451787 0)
(1.823 -0.032654 0)
(1.84462 -0.017265 0)
(1.85062 -0.0111269 0)
(1.84739 -0.00324092 0)
(1.84326 -0.00221722 0)
(1.84201 0.000179687 0)
(1.84495 0.00985385 0)
(1.84808 0.00798042 0)
(1.8422 0.00243081 0)
(1.82042 0.0011262 0)
(1.78511 0.00431187 0)
(1.73548 0.00480225 0)
(1.67437 0.00472714 0)
(1.60359 0.00707935 0)
(1.5246 0.0106365 0)
(1.43989 0.0126207 0)
(1.35144 0.0147443 0)
(1.25979 0.0157254 0)
(1.16662 0.0152712 0)
(1.07363 0.0130184 0)
(0.982763 0.00940092 0)
(0.894815 0.00611572 0)
(0.809232 0.00370531 0)
(0.724868 0.00277889 0)
(0.640168 0.00363765 0)
(0.553344 0.00663284 0)
(0.462438 0.0117418 0)
(0.365939 0.0181886 0)
(0.263415 0.0247239 0)
(0.155735 0.0300776 0)
(0.044849 0.0333119 0)
(-0.0669344 0.0341663 0)
(-0.177452 0.0330812 0)
(-0.284848 0.0306059 0)
(-0.387924 0.0275468 0)
(-0.486382 0.0248604 0)
(-0.580868 0.0234437 0)
(-0.672803 0.0238927 0)
(-0.763876 0.0260453 0)
(-0.85527 0.0289896 0)
(-0.947138 0.0315981 0)
(-1.03869 0.0331639 0)
(-1.12875 0.0336479 0)
(-1.21634 0.0333622 0)
(-1.30087 0.0327953 0)
(-1.3823 0.032534 0)
(-1.46121 0.0331663 0)
(-1.53864 0.0349685 0)
(-1.61571 0.0377403 0)
(-1.69309 0.040728 0)
(-1.77054 0.0429265 0)
(-1.84698 0.0436899 0)
(-1.92103 0.0431553 0)
(-1.99161 0.0417822 0)
(-2.05814 0.0400451 0)
(-2.12042 0.038377 0)
(-2.17878 0.0374031 0)
(-2.23405 0.0374572 0)
(-2.28716 0.0384831 0)
(-2.33887 0.0401735 0)
(-2.38955 0.0420991 0)
(-2.43915 0.0438571 0)
(-2.48747 0.0453029 0)
(-2.53418 0.0461217 0)
(-2.57878 0.0463979 0)
(-2.62105 0.0463932 0)
(-2.66046 0.0457413 0)
(-2.69569 0.0443882 0)
(-2.72635 0.0433283 0)
(-2.75473 0.042442 0)
(-2.77977 0.0418346 0)
(-2.80143 0.0417505 0)
(-2.82018 0.0423437 0)
(-2.83687 0.0435966 0)
(-2.85232 0.0453624 0)
(-2.86707 0.047334 0)
(-2.88118 0.0490302 0)
(-2.89425 0.050094 0)
(-2.9056 0.0503546 0)
(-2.91455 0.0499077 0)
(-2.92064 0.0489954 0)
(-2.92324 0.0478702 0)
(-2.92221 0.04631 0)
(-2.91787 0.0449771 0)
(-2.91034 0.0440934 0)
(-2.89999 0.0437064 0)
(-2.88734 0.043769 0)
(-2.87286 0.0441855 0)
(-2.8569 0.044829 0)
(-2.83967 0.0455353 0)
(-2.82121 0.0461666 0)
(-2.80145 0.046627 0)
(-2.78026 0.0468982 0)
(-2.75753 0.0470389 0)
(-2.73319 0.0471178 0)
(-2.70725 0.0471807 0)
(-2.67973 0.0472515 0)
(-2.65067 0.047354 0)
(-2.62012 0.0475052 0)
(-2.58814 0.0476614 0)
(-2.55474 0.0477779 0)
(-2.51987 0.0478269 0)
(-2.48351 0.0478261 0)
(-2.44561 0.0477991 0)
(-2.40619 0.0477916 0)
(-2.3653 0.0478429 0)
(-2.32302 0.0479624 0)
(-2.27942 0.0481416 0)
(-2.23458 0.0483781 0)
(-2.18857 0.0486764 0)
(-2.14149 0.049074 0)
(-2.09346 0.0495804 0)
(-2.0446 0.0501688 0)
(-1.99496 0.0507747 0)
(-1.94455 0.0513124 0)
(-1.89322 0.0515931 0)
(-1.84065 0.0513925 0)
(-1.78632 0.0506431 0)
(-1.7298 0.0494863 0)
(-1.67082 0.0481886 0)
(-1.60943 0.0470226 0)
(-1.5459 0.0462347 0)
(-1.48078 0.0460679 0)
(-1.41482 0.0466636 0)
(-1.34883 0.0479566 0)
(-1.28342 0.0496277 0)
(-1.21882 0.0511756 0)
(-1.15476 0.0521435 0)
(-1.09063 0.0523571 0)
(-1.02581 0.0519447 0)
(-0.95987 0.0511634 0)
(-0.892608 0.0502312 0)
(-0.824001 0.0492582 0)
(-0.754111 0.0483211 0)
(-0.68307 0.0474762 0)
(-0.611048 0.0467378 0)
(-0.53819 0.0460296 0)
(-0.464562 0.0452852 0)
(-0.390208 0.0445408 0)
(-0.31523 0.0438677 0)
(-0.239792 0.043334 0)
(-0.164137 0.0430417 0)
(-0.0886144 0.0430768 0)
(-0.0136181 0.0434122 0)
(0.060489 0.0439627 0)
(0.133485 0.0446273 0)
(0.205289 0.0452517 0)
(0.275993 0.0456523 0)
(0.345856 0.0456856 0)
(0.415238 0.0453262 0)
(0.484473 0.0446677 0)
(0.553779 0.0438803 0)
(0.623205 0.0431253 0)
(0.692675 0.0424867 0)
(0.762067 0.0419639 0)
(0.831278 0.0415138 0)
(0.900259 0.0410702 0)
(0.969033 0.0405474 0)
(1.03771 0.0398688 0)
(1.10646 0.0390121 0)
(1.17545 0.0380152 0)
(1.2448 0.0369558 0)
(1.31453 0.0359398 0)
(1.38459 0.0350619 0)
(1.4548 0.0343766 0)
(1.52499 0.0338787 0)
(1.59497 0.0335482 0)
(1.66457 0.0333434 0)
(1.7337 0.0332115 0)
(1.80229 0.0331157 0)
(1.87031 0.0330234 0)
(1.93779 0.0328913 0)
(2.0048 0.0326688 0)
(2.07145 0.0323288 0)
(2.13788 0.031846 0)
(2.20424 0.0312016 0)
(2.27068 0.03044 0)
(2.33728 0.029655 0)
(2.40401 0.0289506 0)
(2.47074 0.0284068 0)
(2.53726 0.0280674 0)
(2.60333 0.0279054 0)
(2.66875 0.0278615 0)
(2.73337 0.0278627 0)
(2.79713 0.0278414 0)
(2.86002 0.0277571 0)
(2.92206 0.0275916 0)
(2.9833 0.0273613 0)
(3.04376 0.0270981 0)
(3.10345 0.0268235 0)
(3.16236 0.0265291 0)
(3.2205 0.0261908 0)
(3.2779 0.025778 0)
(3.33462 0.0252832 0)
(3.3907 0.024729 0)
(3.44615 0.024153 0)
(3.50098 0.0235905 0)
(3.55513 0.0230651 0)
(3.60854 0.0226008 0)
(3.66112 0.0222129 0)
(3.71276 0.0219013 0)
(3.76335 0.0216541 0)
(3.81278 0.0214428 0)
(3.86098 0.0212461 0)
(3.9079 0.0210422 0)
(3.95354 0.0208233 0)
(3.99791 0.0205777 0)
(4.04105 0.0202863 0)
(4.08304 0.0199369 0)
(4.12395 0.019519 0)
(4.16386 0.0190248 0)
(4.20285 0.0184603 0)
(4.24101 0.0178682 0)
(4.2784 0.0173198 0)
(4.31499 0.0168545 0)
(4.35077 0.0164673 0)
(4.38567 0.0161223 0)
(4.41968 0.0157667 0)
(4.45285 0.0153507 0)
(4.48525 0.0148358 0)
(4.51702 0.0142182 0)
(4.54828 0.0135403 0)
(4.57914 0.0128627 0)
(4.60961 0.0122369 0)
(4.63969 0.0116924 0)
(4.66933 0.0112338 0)
(4.69846 0.0108476 0)
(4.72703 0.0105028 0)
(4.75498 0.0101643 0)
(4.7823 0.00980284 0)
(4.80901 0.00941135 0)
(4.83513 0.0089911 0)
(4.86069 0.00855429 0)
(4.88572 0.00812018 0)
(4.91025 0.007695 0)
(4.93428 0.00728709 0)
(4.95781 0.00690956 0)
(4.98078 0.00659106 0)
(5.0031 0.00635364 0)
(5.02464 0.00620954 0)
(5.04526 0.0061873 0)
(5.06482 0.00620901 0)
(5.08321 0.00630419 0)
(5.10037 0.00641088 0)
(5.11633 0.00642323 0)
(5.13126 0.00625321 0)
(5.14541 0.00593118 0)
(5.15901 0.00548155 0)
(5.17226 0.00487922 0)
(5.18534 0.00425634 0)
(5.19824 0.00383385 0)
(5.21085 0.00362713 0)
(5.22298 0.00357925 0)
(5.23445 0.00361096 0)
(5.24511 0.00365911 0)
(5.25493 0.00369036 0)
(5.26391 0.00368832 0)
(5.27208 0.00366048 0)
(5.27948 0.00361348 0)
(5.2862 0.00357243 0)
(5.29226 0.0035559 0)
(5.2977 0.0035744 0)
(5.30253 0.0036209 0)
(5.30674 0.00368048 0)
(5.31037 0.00373681 0)
(5.31346 0.00377465 0)
(5.31609 0.00377617 0)
(5.31831 0.00373608 0)
(5.32025 0.00365843 0)
(5.32195 0.00357917 0)
(5.32346 0.00352585 0)
(5.32481 0.00350627 0)
(5.32601 0.00352417 0)
(5.32708 0.00356715 0)
(5.32803 0.00362487 0)
(5.32888 0.00368865 0)
(5.32967 0.00374449 0)
(5.33043 0.00378051 0)
(5.33121 0.00379445 0)
(5.33208 0.00379434 0)
(5.33308 0.00378591 0)
(5.33426 0.00376628 0)
(5.33567 0.0037248 0)
(5.33737 0.00365813 0)
(5.3394 0.00342859 0)
(5.34178 0.00330818 0)
(5.34451 0.00317917 0)
(5.34756 0.003063 0)
(5.35089 0.00312181 0)
(5.35445 0.00296392 0)
(5.35816 0.00296602 0)
(5.36196 0.00299012 0)
(5.3659 0.0030205 0)
(5.36976 0.00303094 0)
(5.3736 0.003035 0)
(5.37739 0.00301905 0)
(5.38113 0.00297338 0)
(5.38481 0.00291877 0)
(5.38841 0.00285692 0)
(5.39193 0.00279675 0)
(5.39535 0.0027578 0)
(5.39863 0.00274644 0)
(5.40168 0.00278335 0)
(5.40439 0.00299142 0)
(5.40668 0.00309447 0)
(5.40852 0.00315118 0)
(5.40998 0.00311508 0)
(5.41121 0.00295687 0)
(5.41239 0.0026797 0)
(5.41368 0.00226614 0)
(5.41526 0.00168834 0)
(5.41724 0.00118064 0)
(5.41961 0.000760958 0)
(5.42223 0.000502502 0)
(5.42486 0.000420115 0)
(5.4272 0.000513788 0)
(5.42907 0.000716797 0)
(5.43026 0.000973465 0)
(5.43076 0.00108421 0)
(5.43078 0.000856141 0)
(5.43046 0.000652622 0)
(5.42994 0.000203382 0)
(5.43015 -0.000626563 0)
(-0.00786228 0.0601122 0)
(0.012047 -0.0500059 0)
(0.070291 -0.0423597 0)
(0.1278 -0.0813672 0)
(0.223238 -0.132345 0)
(0.348923 -0.178438 0)
(0.495186 -0.176805 0)
(0.639953 -0.15712 0)
(0.776812 -0.121856 0)
(0.892508 -0.0770922 0)
(0.987725 -0.0479158 0)
(1.0567 -0.0233397 0)
(1.10651 -0.00690464 0)
(1.14654 0.00284901 0)
(1.18093 0.00107632 0)
(1.21646 -0.0127896 0)
(1.26097 -0.0250473 0)
(1.31677 -0.0390917 0)
(1.38627 -0.0513312 0)
(1.47037 -0.0640947 0)
(1.57014 -0.0826715 0)
(1.68628 -0.109643 0)
(1.81665 -0.144214 0)
(1.95279 -0.165769 0)
(2.08238 -0.176909 0)
(2.20228 -0.186341 0)
(2.31753 -0.208846 0)
(2.42542 -0.222788 0)
(2.52054 -0.22045 0)
(2.59906 -0.233143 0)
(2.67271 -0.245352 0)
(2.73756 -0.243515 0)
(2.78446 -0.219112 0)
(2.79219 -0.183306 0)
(2.78279 -0.197298 0)
(2.76893 -0.22841 0)
(2.74306 -0.149697 0)
(2.62448 -0.0788269 0)
(2.43308 0.0347388 0)
(2.14241 0.0557316 0)
(1.87404 0.0877959 0)
(1.6124 0.173864 0)
(1.20135 0.21008 0)
(0.692976 0.183411 0)
(0.103537 0.158892 0)
(-0.558548 0.176151 0)
(-1.30103 0.253507 0)
(-2.14295 0.3948 0)
(-3.1013 0.558613 0)
(-4.17745 0.733522 0)
(-5.36901 0.90668 0)
(-6.65299 1.08512 0)
(-7.9847 1.23073 0)
(-9.32515 1.33426 0)
(-10.6305 1.3452 0)
(-11.8722 1.30347 0)
(-13.0431 1.15117 0)
(-14.1096 0.958772 0)
(-15.0396 0.758147 0)
(-15.801 0.593086 0)
(-16.3867 0.499526 0)
(-16.7729 0.417319 0)
(-16.9432 0.354832 0)
(-16.9192 0.315305 0)
(-16.7488 0.227127 0)
(-16.498 0.126123 0)
(-16.1695 0.0350265 0)
(-15.7734 -0.0455704 0)
(-15.3129 -0.108392 0)
(-14.8132 -0.216159 0)
(-14.2692 -0.317254 0)
(-13.6737 -0.39759 0)
(-13.0203 -0.473164 0)
(-12.2947 -0.554384 0)
(-11.4958 -0.6513 0)
(-10.63 -0.760677 0)
(-9.72071 -0.872557 0)
(-8.79993 -0.941382 0)
(-7.90372 -0.978107 0)
(-7.0652 -0.995642 0)
(-6.29826 -0.992313 0)
(-5.59534 -0.964567 0)
(-4.9509 -0.907458 0)
(-4.38456 -0.839584 0)
(-3.83644 -0.839152 0)
(-3.27378 -0.829694 0)
(-2.6822 -0.823909 0)
(-2.02036 -1.08133 0)
(-1.0423 -1.2743 0)
(0.0735628 -1.2451 0)
(1.1364 -1.16971 0)
(2.12819 -1.12633 0)
(3.12721 -1.32017 0)
(4.2163 -1.39362 0)
(5.33765 -1.26567 0)
(6.32194 -0.767965 0)
(7.2181 -0.709259 0)
(7.91933 -0.787568 0)
(8.57767 -0.795555 0)
(9.23865 -0.698994 0)
(9.87995 -0.516542 0)
(10.4676 -0.292622 0)
(11.0361 -0.148878 0)
(11.5811 -0.0565587 0)
(12.1146 0.0123123 0)
(12.6606 0.0493658 0)
(13.2345 0.0778877 0)
(13.8137 0.121432 0)
(14.3072 0.156924 0)
(14.5812 0.20284 0)
(14.612 0.179689 0)
(14.4487 0.197052 0)
(14.0951 0.253223 0)
(13.6071 0.359994 0)
(13.0706 0.459051 0)
(12.5462 0.532519 0)
(12.061 0.570393 0)
(11.6101 0.571113 0)
(11.1477 0.550357 0)
(10.6328 0.499389 0)
(10.0387 0.437116 0)
(9.36138 0.377722 0)
(8.62458 0.332758 0)
(7.872 0.310336 0)
(7.1482 0.309382 0)
(6.47158 0.347341 0)
(5.83306 0.414724 0)
(5.21051 0.502625 0)
(4.58222 0.598407 0)
(3.94316 0.697972 0)
(3.3084 0.761837 0)
(2.73096 0.744343 0)
(2.2487 0.674062 0)
(1.87077 0.509074 0)
(1.62787 0.285535 0)
(1.51017 0.138692 0)
(1.43607 0.111625 0)
(1.37418 0.148459 0)
(1.29646 0.22707 0)
(1.18036 0.259157 0)
(1.07909 0.221431 0)
(1.01542 0.159184 0)
(0.966355 0.123774 0)
(0.936597 0.104246 0)
(0.923909 0.0954113 0)
(0.922666 0.0985371 0)
(0.932743 0.111318 0)
(0.937331 0.137924 0)
(0.950372 0.134685 0)
(0.967638 0.0843702 0)
(1.02407 0.0546716 0)
(1.09853 0.0191987 0)
(1.197 -0.0167738 0)
(1.31572 -0.0474572 0)
(1.45361 -0.0678233 0)
(1.6087 -0.0774067 0)
(1.78344 -0.0866811 0)
(1.97175 -0.0822281 0)
(2.16835 -0.0839991 0)
(2.37893 -0.0891617 0)
(2.60266 -0.102517 0)
(2.83095 -0.120167 0)
(3.05591 -0.135541 0)
(3.26936 -0.149901 0)
(3.46428 -0.163654 0)
(3.63802 -0.176078 0)
(3.79221 -0.193397 0)
(3.9403 -0.235429 0)
(4.10807 -0.291325 0)
(4.31195 -0.324141 0)
(4.53395 -0.310359 0)
(4.75143 -0.260208 0)
(4.94818 -0.202474 0)
(5.12602 -0.150182 0)
(5.28469 -0.105704 0)
(5.42761 -0.0805361 0)
(5.5585 -0.0787016 0)
(5.67264 -0.0680083 0)
(5.75686 -0.0507802 0)
(5.80825 -0.042401 0)
(5.83705 -0.0525926 0)
(5.85131 -0.0676124 0)
(5.84741 -0.0879134 0)
(5.84721 -0.111792 0)
(5.84603 -0.116614 0)
(5.84434 -0.0811379 0)
(5.82662 -0.0533701 0)
(5.80254 -0.0316915 0)
(5.76766 -0.0108559 0)
(5.72272 0.00716198 0)
(5.66831 0.0184829 0)
(5.60442 0.025476 0)
(5.53292 0.0271183 0)
(5.45601 0.0280581 0)
(5.37419 0.0277234 0)
(5.28884 0.0255721 0)
(5.20175 0.0219501 0)
(5.11528 0.0164808 0)
(5.03026 0.0113614 0)
(4.94601 0.00778534 0)
(4.86169 0.00650202 0)
(4.7763 0.00751827 0)
(4.68889 0.0112559 0)
(4.59856 0.0175533 0)
(4.50464 0.0253449 0)
(4.40705 0.033035 0)
(4.30644 0.039141 0)
(4.20398 0.0427766 0)
(4.10123 0.0439402 0)
(3.99982 0.0427264 0)
(3.90111 0.0396995 0)
(3.80602 0.0358592 0)
(3.71495 0.032341 0)
(3.62771 0.0302075 0)
(3.54362 0.0302521 0)
(3.46182 0.0324287 0)
(3.38165 0.0357082 0)
(3.30286 0.0387015 0)
(3.22567 0.040527 0)
(3.15054 0.0411017 0)
(3.07794 0.0407661 0)
(3.00818 0.0400554 0)
(2.94134 0.0396147 0)
(2.87729 0.0401394 0)
(2.81569 0.0419935 0)
(2.75613 0.0449988 0)
(2.69839 0.0483272 0)
(2.64262 0.0507718 0)
(2.58932 0.0514945 0)
(2.53916 0.0506653 0)
(2.4927 0.0488419 0)
(2.45018 0.0465398 0)
(2.41159 0.0442879 0)
(2.37672 0.042741 0)
(2.34527 0.0423301 0)
(2.31697 0.0431952 0)
(2.29141 0.0448542 0)
(2.26826 0.0468799 0)
(2.24757 0.0487371 0)
(2.22931 0.050296 0)
(2.21346 0.0510675 0)
(2.20049 0.0508796 0)
(2.1905 0.0502906 0)
(2.18344 0.0493059 0)
(2.18104 0.0481175 0)
(2.18277 0.0463389 0)
(2.18701 0.0446838 0)
(2.19493 0.0436263 0)
(2.20633 0.0433702 0)
(2.22089 0.0439898 0)
(2.238 0.0453872 0)
(2.25714 0.0473789 0)
(2.278 0.049639 0)
(2.30054 0.0516307 0)
(2.32498 0.052895 0)
(2.3517 0.0531859 0)
(2.38115 0.0525654 0)
(2.41378 0.0513351 0)
(2.45002 0.0498997 0)
(2.48998 0.0480041 0)
(2.53347 0.046209 0)
(2.58034 0.0449644 0)
(2.63033 0.0443939 0)
(2.68302 0.0444539 0)
(2.73794 0.0449978 0)
(2.79466 0.0458269 0)
(2.85288 0.0467388 0)
(2.91243 0.0475752 0)
(2.97329 0.0482076 0)
(3.03553 0.0485994 0)
(3.09924 0.0488198 0)
(3.16448 0.0489456 0)
(3.2313 0.0490315 0)
(3.29968 0.0491764 0)
(3.36962 0.0494494 0)
(3.44108 0.049789 0)
(3.51403 0.0501242 0)
(3.5885 0.050413 0)
(3.66452 0.0506265 0)
(3.74211 0.0507811 0)
(3.82127 0.0508976 0)
(3.90197 0.0510205 0)
(3.98414 0.0511943 0)
(4.06766 0.0514362 0)
(4.15245 0.0517418 0)
(4.23843 0.0521106 0)
(4.32549 0.0525427 0)
(4.41356 0.0530723 0)
(4.50251 0.0537076 0)
(4.59225 0.054418 0)
(4.68275 0.0551309 0)
(4.77407 0.055763 0)
(4.86638 0.0561321 0)
(4.96 0.0559968 0)
(5.05538 0.0552608 0)
(5.15296 0.0540537 0)
(5.25293 0.0526593 0)
(5.35518 0.051382 0)
(5.45932 0.0504923 0)
(5.56475 0.0502524 0)
(5.67075 0.0508239 0)
(5.77659 0.0521581 0)
(5.88166 0.0539408 0)
(5.98569 0.0556524 0)
(6.08883 0.0567884 0)
(6.19165 0.0571161 0)
(6.29486 0.0567308 0)
(6.39904 0.0558961 0)
(6.50445 0.0548576 0)
(6.61115 0.0537452 0)
(6.71899 0.0526439 0)
(6.82782 0.0516234 0)
(6.9374 0.0507249 0)
(7.04756 0.0498922 0)
(7.15817 0.0490557 0)
(7.26915 0.0482428 0)
(7.38034 0.0475211 0)
(7.49146 0.0469558 0)
(7.60214 0.0466521 0)
(7.71188 0.0467166 0)
(7.8202 0.0471396 0)
(7.92669 0.0478151 0)
(8.03116 0.0486173 0)
(8.13357 0.0494039 0)
(8.23408 0.0499938 0)
(8.33304 0.0502257 0)
(8.43091 0.0500447 0)
(8.52812 0.0495192 0)
(8.625 0.0488111 0)
(8.72166 0.0480971 0)
(8.81807 0.0474887 0)
(8.9141 0.0470058 0)
(9.00964 0.0466151 0)
(9.10462 0.0462569 0)
(9.19908 0.0458472 0)
(9.29315 0.0452991 0)
(9.38707 0.0445688 0)
(9.48106 0.0436762 0)
(9.57525 0.042685 0)
(9.66969 0.0416993 0)
(9.7643 0.0408313 0)
(9.8589 0.0401702 0)
(9.9533 0.0397395 0)
(10.0473 0.0395353 0)
(10.1406 0.0395212 0)
(10.2332 0.039631 0)
(10.3248 0.0398069 0)
(10.4155 0.0400016 0)
(10.5051 0.0401622 0)
(10.5936 0.0402214 0)
(10.6813 0.0401429 0)
(10.7683 0.0399091 0)
(10.8548 0.0395005 0)
(10.9411 0.0389537 0)
(11.0274 0.038361 0)
(11.1137 0.0378363 0)
(11.1998 0.0374763 0)
(11.2856 0.0373581 0)
(11.3707 0.0374825 0)
(11.4547 0.037797 0)
(11.5374 0.0382226 0)
(11.6188 0.0386722 0)
(11.6988 0.0390822 0)
(11.7774 0.0394102 0)
(11.8548 0.0396466 0)
(11.931 0.0398082 0)
(12.006 0.0399162 0)
(12.0798 0.0399684 0)
(12.1525 0.0399528 0)
(12.2241 0.0398513 0)
(12.2948 0.0396636 0)
(12.3646 0.0394024 0)
(12.4337 0.0390994 0)
(12.5021 0.0387866 0)
(12.5696 0.0384861 0)
(12.6363 0.0382217 0)
(12.702 0.0380378 0)
(12.7665 0.0379591 0)
(12.8297 0.0379894 0)
(12.8914 0.0381137 0)
(12.9515 0.0382991 0)
(13.0099 0.0384886 0)
(13.0665 0.0386394 0)
(13.1212 0.0387158 0)
(13.1742 0.0386723 0)
(13.2254 0.0385015 0)
(13.275 0.0382211 0)
(13.3233 0.037845 0)
(13.3704 0.0373617 0)
(13.4165 0.0367588 0)
(13.4618 0.0360864 0)
(13.5061 0.0354088 0)
(13.5496 0.034779 0)
(13.5919 0.0342184 0)
(13.6332 0.0336816 0)
(13.6734 0.0331062 0)
(13.7127 0.0324402 0)
(13.7511 0.0316388 0)
(13.789 0.0307047 0)
(13.8265 0.0296864 0)
(13.8636 0.028642 0)
(13.9003 0.0276217 0)
(13.9363 0.0266586 0)
(13.9716 0.0257769 0)
(14.0061 0.0249735 0)
(14.0395 0.0242279 0)
(14.0719 0.0235074 0)
(14.1034 0.0227827 0)
(14.1341 0.0220248 0)
(14.164 0.0212147 0)
(14.1931 0.0203473 0)
(14.2216 0.0194294 0)
(14.2495 0.0184883 0)
(14.2768 0.0175645 0)
(14.3034 0.0167125 0)
(14.3292 0.015995 0)
(14.3541 0.0154442 0)
(14.3778 0.0150562 0)
(14.4002 0.0148481 0)
(14.4209 0.0147387 0)
(14.4399 0.0146736 0)
(14.4573 0.0145096 0)
(14.4733 0.0140601 0)
(14.4884 0.0132934 0)
(14.5028 0.0122718 0)
(14.517 0.011027 0)
(14.5313 0.00967619 0)
(14.5458 0.00834686 0)
(14.5604 0.00718252 0)
(14.5747 0.00630693 0)
(14.5884 0.00576922 0)
(14.6013 0.00545592 0)
(14.6131 0.00518777 0)
(14.6241 0.00489696 0)
(14.634 0.00463429 0)
(14.6432 0.0043914 0)
(14.6516 0.00416111 0)
(14.6592 0.00392227 0)
(14.6662 0.0036621 0)
(14.6725 0.00338557 0)
(14.6781 0.00310019 0)
(14.6829 0.0028096 0)
(14.687 0.00251697 0)
(14.6906 0.00221232 0)
(14.6937 0.00187313 0)
(14.6964 0.00149557 0)
(14.6989 0.00109819 0)
(14.7012 0.000720524 0)
(14.7032 0.000372258 0)
(14.705 7.41519e-05 0)
(14.7065 -0.000180046 0)
(14.7078 -0.000400577 0)
(14.7088 -0.00058399 0)
(14.7097 -0.000736737 0)
(14.7105 -0.000881953 0)
(14.7112 -0.0010472 0)
(14.7121 -0.00124572 0)
(14.7132 -0.00147649 0)
(14.7145 -0.00173827 0)
(14.7161 -0.00203287 0)
(14.7181 -0.00234181 0)
(14.7205 -0.00256654 0)
(14.7233 -0.00292895 0)
(14.7265 -0.00327348 0)
(14.73 -0.00356907 0)
(14.7339 -0.003917 0)
(14.738 -0.0039277 0)
(14.7422 -0.00397916 0)
(14.7463 -0.0039574 0)
(14.7504 -0.00386617 0)
(14.7543 -0.00372143 0)
(14.7579 -0.00355911 0)
(14.7613 -0.00338093 0)
(14.7645 -0.00319487 0)
(14.7675 -0.00302709 0)
(14.7703 -0.00287596 0)
(14.773 -0.0027472 0)
(14.7755 -0.00260872 0)
(14.7778 -0.00241787 0)
(14.7799 -0.0020916 0)
(14.7817 -0.00177385 0)
(14.7829 -0.00128361 0)
(14.7836 -0.000832947 0)
(14.7839 -0.000555938 0)
(14.784 -0.000445321 0)
(14.7842 -0.000591051 0)
(14.7849 -0.00093384 0)
(14.7863 -0.00142807 0)
(14.7887 -0.00218074 0)
(14.7921 -0.00289161 0)
(14.7964 -0.00341922 0)
(14.8013 -0.00343431 0)
(14.806 -0.00310556 0)
(14.8103 -0.00251586 0)
(14.8139 -0.00158979 0)
(14.8166 -0.000677879 0)
(14.8182 -0.000129626 0)
(14.8189 0.000274576 0)
(14.8192 0.000244956 0)
(14.8196 6.23456e-05 0)
(0.047101 -0.00409232 0)
(0.140355 -0.166137 0)
(0.304512 -0.158141 0)
(0.440826 -0.190156 0)
(0.578967 -0.239133 0)
(0.714106 -0.288788 0)
(0.855527 -0.293225 0)
(0.991941 -0.275106 0)
(1.12046 -0.237579 0)
(1.23005 -0.181731 0)
(1.32552 -0.136742 0)
(1.39524 -0.0896545 0)
(1.45595 -0.064873 0)
(1.5092 -0.0488278 0)
(1.56033 -0.048862 0)
(1.61581 -0.0674295 0)
(1.6854 -0.0930775 0)
(1.77344 -0.12216 0)
(1.88414 -0.15195 0)
(2.02055 -0.181803 0)
(2.18238 -0.216779 0)
(2.36739 -0.255663 0)
(2.56875 -0.29024 0)
(2.7721 -0.290911 0)
(2.96503 -0.275124 0)
(3.14813 -0.259811 0)
(3.32527 -0.265665 0)
(3.48367 -0.252398 0)
(3.60957 -0.219417 0)
(3.70544 -0.216764 0)
(3.76628 -0.218277 0)
(3.78623 -0.205798 0)
(3.76354 -0.169015 0)
(3.65372 -0.129473 0)
(3.47566 -0.128405 0)
(3.2681 -0.142354 0)
(3.07522 -0.0148557 0)
(2.85518 0.116434 0)
(2.62161 0.22985 0)
(2.35043 0.310604 0)
(1.92912 0.440025 0)
(1.33028 0.689478 0)
(0.545562 0.859513 0)
(-0.392391 0.940298 0)
(-1.48359 0.999731 0)
(-2.70108 1.08913 0)
(-4.00778 1.25069 0)
(-5.38273 1.48904 0)
(-6.8142 1.74962 0)
(-8.28189 1.99458 0)
(-9.75256 2.17128 0)
(-11.1635 2.26493 0)
(-12.4547 2.29087 0)
(-13.5861 2.30603 0)
(-14.5127 2.25836 0)
(-15.2198 2.2213 0)
(-15.7117 2.09329 0)
(-16.0721 1.83298 0)
(-16.3728 1.52925 0)
(-16.5896 1.2102 0)
(-16.7848 0.931139 0)
(-16.8602 0.623588 0)
(-16.9551 0.314734 0)
(-16.9181 0.0121934 0)
(-16.7683 -0.243158 0)
(-16.5498 -0.464807 0)
(-16.2506 -0.652108 0)
(-15.8846 -0.830379 0)
(-15.438 -0.991901 0)
(-14.9297 -1.156 0)
(-14.3657 -1.32182 0)
(-13.7351 -1.48191 0)
(-13.0194 -1.68288 0)
(-12.1837 -1.93019 0)
(-11.1988 -2.18149 0)
(-10.1007 -2.37058 0)
(-8.94696 -2.45958 0)
(-7.79183 -2.48372 0)
(-6.6633 -2.42037 0)
(-5.57668 -2.30394 0)
(-4.53032 -2.17402 0)
(-3.51781 -2.04107 0)
(-2.52838 -1.89549 0)
(-1.52784 -1.77833 0)
(-0.485533 -1.69044 0)
(0.588952 -1.59637 0)
(1.70698 -1.5185 0)
(2.83153 -1.65411 0)
(3.91956 -1.80123 0)
(4.99143 -1.84681 0)
(6.07338 -1.81244 0)
(7.1736 -1.75387 0)
(8.24534 -1.78456 0)
(9.25111 -1.79222 0)
(10.2471 -1.6614 0)
(11.2241 -1.20533 0)
(12.2602 -1.08607 0)
(13.2041 -1.04212 0)
(14.0137 -1.16442 0)
(14.6584 -1.30294 0)
(15.2168 -1.27302 0)
(15.7684 -1.2156 0)
(16.3403 -1.15488 0)
(16.9216 -1.10022 0)
(17.503 -1.08374 0)
(18.0773 -1.11834 0)
(18.6444 -1.16351 0)
(19.2036 -1.10447 0)
(19.7107 -0.791741 0)
(19.9917 -0.223469 0)
(20.3356 0.203309 0)
(20.4609 0.67063 0)
(20.5375 1.04219 0)
(20.5176 1.23168 0)
(20.4748 1.23498 0)
(20.4244 1.15268 0)
(20.26 1.02469 0)
(19.9058 1.0099 0)
(19.3656 1.13322 0)
(18.659 1.33981 0)
(17.8284 1.58061 0)
(16.916 1.78913 0)
(15.9677 1.91327 0)
(15.0268 1.90952 0)
(14.1434 1.79966 0)
(13.3471 1.64678 0)
(12.6309 1.49857 0)
(11.945 1.3914 0)
(11.2225 1.32438 0)
(10.4107 1.27999 0)
(9.49959 1.24065 0)
(8.5228 1.18117 0)
(7.55893 1.07181 0)
(6.72656 0.839499 0)
(6.14412 0.508785 0)
(5.82539 0.295162 0)
(5.65619 0.22089 0)
(5.52097 0.313427 0)
(5.34751 0.445626 0)
(5.07658 0.486428 0)
(4.77002 0.412789 0)
(4.49944 0.348943 0)
(4.31868 0.315052 0)
(4.22039 0.273566 0)
(4.1797 0.240167 0)
(4.16746 0.226477 0)
(4.15838 0.225192 0)
(4.14572 0.237987 0)
(4.11549 0.201826 0)
(4.11552 0.159312 0)
(4.17806 0.083669 0)
(4.28493 0.00839527 0)
(4.43279 -0.0520737 0)
(4.61952 -0.104076 0)
(4.83149 -0.146845 0)
(5.04344 -0.195125 0)
(5.24405 -0.250444 0)
(5.43604 -0.274719 0)
(5.62058 -0.310048 0)
(5.81543 -0.365166 0)
(6.05126 -0.394502 0)
(6.32591 -0.395033 0)
(6.62914 -0.375025 0)
(6.96307 -0.329411 0)
(7.33333 -0.266406 0)
(7.74062 -0.200813 0)
(8.16445 -0.15185 0)
(8.56957 -0.163946 0)
(8.90627 -0.231222 0)
(9.15295 -0.304352 0)
(9.32636 -0.348733 0)
(9.46618 -0.354574 0)
(9.5987 -0.367868 0)
(9.73112 -0.376944 0)
(9.8586 -0.377357 0)
(9.9782 -0.374212 0)
(10.0987 -0.35526 0)
(10.23 -0.298921 0)
(10.3696 -0.211928 0)
(10.5168 -0.147332 0)
(10.6575 -0.106257 0)
(10.7976 -0.0776805 0)
(10.9384 -0.0534925 0)
(11.066 -0.049742 0)
(11.1539 -0.058448 0)
(11.188 -0.057118 0)
(11.1713 -0.0562576 0)
(11.1157 -0.0435948 0)
(11.0355 -0.0284041 0)
(10.9458 -0.0217361 0)
(10.8609 -0.00784064 0)
(10.7919 0.00900301 0)
(10.7369 0.0185183 0)
(10.6916 0.0280512 0)
(10.6475 0.0341503 0)
(10.5984 0.0365765 0)
(10.5422 0.0323247 0)
(10.4797 0.0227977 0)
(10.4134 0.0152079 0)
(10.3457 0.0104488 0)
(10.2774 0.00930244 0)
(10.2079 0.012239 0)
(10.1359 0.0191199 0)
(10.0598 0.0299052 0)
(9.97822 0.0429676 0)
(9.89022 0.0558122 0)
(9.79659 0.0660559 0)
(9.69952 0.0721348 0)
(9.60198 0.0735995 0)
(9.50688 0.0709735 0)
(9.41656 0.065467 0)
(9.33245 0.0585103 0)
(9.25481 0.0521121 0)
(9.18287 0.0481167 0)
(9.11506 0.0476567 0)
(9.04925 0.0503621 0)
(8.98342 0.0546744 0)
(8.91665 0.0588251 0)
(8.84955 0.0614414 0)
(8.78379 0.0622673 0)
(8.72115 0.0617116 0)
(8.66293 0.0606436 0)
(8.60964 0.0599682 0)
(8.56083 0.0605871 0)
(8.51527 0.0630759 0)
(8.47139 0.0671411 0)
(8.42775 0.0713032 0)
(8.38374 0.073986 0)
(8.34019 0.0742988 0)
(8.29883 0.072147 0)
(8.26143 0.0684559 0)
(8.22951 0.0644194 0)
(8.20399 0.0607287 0)
(8.18467 0.0584012 0)
(8.17033 0.0576082 0)
(8.15901 0.0581045 0)
(8.14927 0.0603212 0)
(8.14034 0.0632428 0)
(8.13209 0.06573 0)
(8.12527 0.0677186 0)
(8.12058 0.0689555 0)
(8.11894 0.0688246 0)
(8.12053 0.0675713 0)
(8.12628 0.0656265 0)
(8.13673 0.0633729 0)
(8.15178 0.0600253 0)
(8.16862 0.0569447 0)
(8.18874 0.0549108 0)
(8.21235 0.0542798 0)
(8.23963 0.055187 0)
(8.27021 0.0574365 0)
(8.30335 0.0605962 0)
(8.33805 0.0640757 0)
(8.37349 0.0670697 0)
(8.40949 0.0688318 0)
(8.44657 0.0689137 0)
(8.4858 0.0673541 0)
(8.52846 0.0645626 0)
(8.57562 0.0609979 0)
(8.62777 0.0570407 0)
(8.68473 0.0533566 0)
(8.74585 0.0504773 0)
(8.81008 0.0487138 0)
(8.87637 0.0481178 0)
(8.94399 0.048543 0)
(9.01264 0.0496691 0)
(9.08242 0.0511247 0)
(9.15356 0.0525804 0)
(9.22631 0.0538322 0)
(9.30078 0.0547664 0)
(9.37692 0.0553866 0)
(9.45462 0.0557858 0)
(9.53372 0.0560755 0)
(9.61409 0.0563223 0)
(9.69564 0.0565984 0)
(9.77828 0.0569233 0)
(9.86195 0.0572071 0)
(9.94659 0.0573616 0)
(10.0322 0.0573356 0)
(10.1191 0.0571996 0)
(10.2072 0.0570384 0)
(10.297 0.0569771 0)
(10.3884 0.0571156 0)
(10.4815 0.0574747 0)
(10.5761 0.058018 0)
(10.672 0.0587257 0)
(10.7691 0.0595985 0)
(10.8673 0.0607286 0)
(10.9663 0.0621436 0)
(11.0661 0.0637549 0)
(11.1667 0.0653538 0)
(11.268 0.0667032 0)
(11.3697 0.0673602 0)
(11.4719 0.0667698 0)
(11.575 0.0647248 0)
(11.6793 0.0615937 0)
(11.7856 0.0581657 0)
(11.8942 0.0552729 0)
(12.0054 0.0535703 0)
(12.1189 0.0535724 0)
(12.234 0.0555224 0)
(12.3497 0.0592487 0)
(12.4649 0.0640461 0)
(12.5788 0.0687114 0)
(12.6912 0.0719654 0)
(12.8025 0.07311 0)
(12.9137 0.0723033 0)
(13.0259 0.0702586 0)
(13.1397 0.067762 0)
(13.2558 0.0652859 0)
(13.374 0.063067 0)
(13.494 0.0612007 0)