/*--------------------------------*- C++ -*----------------------------------*\
| =========                 |                                                 |
| \\      /  F ield         | OpenFOAM: The Open Source CFD Toolbox           |
|  \\    /   O peration     | Version:  v1812                                 |
|   \\  /    A nd           | Web:      www.OpenFOAM.com                      |
|    \\/     M anipulation  |                                                 |
\*---------------------------------------------------------------------------*/
FoamFile
{
    version     2.0;
    format      ascii;
    class       volScalarField;
    location    "0.6";
    object      p;
}
// * * * * * * * * * * * * * * * * * * * * * * * * * * * * * * * * * * * * * //

dimensions      [1 -1 -2 0 0 0 0];


internalField   nonuniform List<scalar> 
64512
(
1
1
1
1
1
1
1
1
1
1
1
1
1
1
1
1
1
1
1
1
1
1
1
1
1
1
1
1
1
1
1
1
1
1
1
1
1
1
1
1
1
1
1
1
1
1
1
1
1
1
1
1
1
1
1
1
1.00001
1.00081
1.05398
4.35581
10.2217
10.9886
10.9612
11.1199
11.2204
11.2957
11.424
11.4862
11.5261
11.5948
11.6802
11.7651
11.844
11.9086
11.974
12.0463
12.0905
12.1058
12.1079
12.1151
12.1348
12.1682
12.2073
12.2486
12.2916
12.3339
12.3718
12.405
12.4293
12.4405
12.445
12.4467
12.4426
12.4385
12.4335
12.4335
1
1
1
1
1
1
1
1
1
1
1
1
1
1
1
1
1
1
1
1
1
1
1
1
1
1
1
1
1
1
1
1
1
1
1
1
1
1
1
1
1
1
1
1
1
1
1
1
1
1
1
1
1
1
1
1
1.00001
1.00084
1.05744
4.68017
10.3326
10.9915
10.9895
11.1053
11.2435
11.3632
11.4786
11.5409
11.595
11.654
11.7171
11.7856
11.8633
11.9436
12.0115
12.049
12.0958
12.1202
12.1287
12.1317
12.1474
12.1787
12.2189
12.2647
12.3117
12.3546
12.3921
12.4238
12.4451
12.4523
12.4535
12.453
12.4486
12.4449
12.4395
12.4374
1
1
1
1
1
1
1
1
1
1
1
1
1
1
1
1
1
1
1
1
1
1
1
1
1
1
1
1
1
1
1
1
1
1
1
1
1
1
1
1
1
1
1
1
1
1
1
1
1
1
1
1
1
1
1
1
1.00001
1.00064
1.04077
3.41844
9.9366
11.1321
11.1813
11.2755
11.3109
11.3931
11.5029
11.5897
11.6737
11.7439
11.8058
11.862
11.9365
12.0111
12.0751
12.1308
12.1667
12.1849
12.1918
12.1967
12.2112
12.2393
12.276
12.3188
12.3546
12.3893
12.4212
12.4485
12.466
12.4705
12.4698
12.4683
12.4645
12.4608
12.4552
12.4538
1
1
1
1
1
1
1
1
1
1
1
1
1
1
1
1
1
1
1
1
1
1
1
1
1
1
1
1
1
1
1
1
1
1
1
1
1
1
1
1
1
1
1
1
1
1
1
1
1
1
1
1
1
1
1
1
1.00001
1.00086
1.06034
4.95053
10.0388
10.8785
10.8902
11.0539
11.1924
11.338
11.4505
11.5157
11.5271
11.5923
11.6573
11.7227
11.7973
11.8824
11.9596
12.0291
12.0703
12.0895
12.0973
12.1044
12.1216
12.1526
12.1936
12.239
12.2843
12.3276
12.3662
12.3974
12.4174
12.4241
12.425
12.4254
12.4255
12.4244
12.426
12.429
1
1
1
1
1
1
1
1
1
1
1
1
1
1
1
1
1
1
1
1
1
1
1
1
1
1
1
1
1
1
1
1
1
1
1
1
1
1
1
1
1
1
1
1
1
1
1
1
1
1
1
1
1
1
1
1
1.00001
1.00056
1.0379
3.40708
9.82537
11.0205
11.1407
11.2602
11.276
11.3787
11.4897
11.5904
11.6936
11.7315
11.7676
11.806
11.8597
11.9079
11.9645
12.0242
12.062
12.0814
12.0881
12.0908
12.1032
12.1314
12.1729
12.2192
12.2689
12.317
12.3588
12.3921
12.4117
12.4178
12.4179
12.4179
12.4186
12.4173
12.4201
12.4235
1
1
1
1
1
1
1
1
1
1
1
1
1
1
1
1
1
1
1
1
1
1
1
1
1
1
1
1
1
1
1
1
1
1
1
1
1
1
1
1
1
1
1
1
1
1
1
1
1
1
1
1
1
1
1
1
1.00001
1.00042
1.0289
2.91536
9.92959
10.877
11.0085
11.1388
11.2217
11.364
11.4929
11.5804
11.6514
11.6861
11.7253
11.7777
11.8477
11.9326
12.0037
12.0582
12.0908
12.1049
12.1
12.0944
12.0982
12.1203
12.1565
12.2001
12.2508
12.3033
12.3474
12.3814
12.4
12.4046
12.4033
12.4027
12.4034
12.4022
12.4064
12.4085
1
1
1
1
1
1
1
1
1
1
1
1
1
1
1
1
1
1
1
1
1
1
1
1
1
1
1
1
1
1
1
1
1
1
1
1
1
1
1
1
1
1
1
1
1
1
1
1
1
1
1
1
1
1
1
1
1
1.00031
1.02145
2.44765
9.70617
10.9422
11.0135
11.1693
11.2654
11.4184
11.5413
11.6243
11.703
11.7363
11.7731
11.7968
11.839
11.9025
11.955
12.0033
12.0369
12.0562
12.0627
12.0625
12.0727
12.1002
12.1404
12.1878
12.2397
12.2928
12.3372
12.3707
12.3876
12.39
12.3871
12.386
12.3864
12.3842
12.3887
12.3885
1
1
1
1
1
1
1
1
1
1
1
1
1
1
1
1
1
1
1
1
1
1
1
1
1
1
1
1
1
1
1
1
1
1
1
1
1
1
1
1
1
1
1
1
1
1
1
1
1
1
1
1
1
1
1
1
1
1.00025
1.01805
2.26685
9.43867
10.9578
11.0231
11.1457
11.2322
11.3835
11.4914
11.5407
11.5965
11.6292
11.6665
11.7189
11.7788
11.8565
11.9234
11.9866
12.0241
12.0455
12.0519
12.0517
12.061
12.087
12.1267
12.1761
12.2305
12.2852
12.3298
12.3621
12.3769
12.376
12.3708
12.3682
12.3668
12.3618
12.3649
12.3654
1
1
1
1
1
1
1
1
1
1
1
1
1
1
1
1
1
1
1
1
1
1
1
1
1
1
1
1
1
1
1
1
1
1
1
1
1
1
1
1
1
1
1
1
1
1
1
1
1
1
1
1
1
1
1
1
1
1.00016
1.01128
1.79323
8.96223
11.1025
11.0873
11.1936
11.2618
11.3967
11.4844
11.537
11.5871
11.6238
11.6533
11.7065
11.7616
11.8379
11.9028
11.9652
11.9988
12.0206
12.0293
12.0318
12.0429
12.0692
12.1098
12.1616
12.2181
12.2737
12.3185
12.3498
12.3632
12.3604
12.3534
12.3491
12.345
12.3357
12.3368
12.3449
1
1
1
1
1
1
1
1
1
1
1
1
1
1
1
1
1
1
1
1
1
1
1
1
1
1
1
1
1
1
1
1
1
1
1
1
1
1
1
1
1
1
1
1
1
1
1
1
1
1
1
1
1
1
1
1
1
1.00009
1.00666
1.48614
8.49244
11.1192
11.0815
11.1701
11.2592
11.3811
11.4632
11.5306
11.5823
11.6253
11.6509
11.6971
11.7489
11.8198
11.8836
11.9437
11.9748
11.9946
12.0013
12.0045
12.018
12.0459
12.0894
12.1446
12.2046
12.2614
12.3065
12.3375
12.3499
12.3452
12.3356
12.3283
12.3205
12.3042
12.3066
12.3282
1
1
1
1
1
1
1
1
1
1
1
1
1
1
1
1
1
1
1
1
1
1
1
1
1
1
1
1
1
1
1
1
1
1
1
1
1
1
1
1
1
1
1
1
1
1
1
1
1
1
1
1
1
1
1
1
1
1.00004
1.00319
1.22845
7.93264
11.0364
11.1111
11.1541
11.2618
11.3834
11.4419
11.5198
11.5718
11.6145
11.6425
11.6882
11.7436
11.8126
11.8764
11.9327
11.9582
11.9722
11.972
11.9729
11.9858
12.0149
12.0609
12.1198
12.1838
12.2423
12.2882
12.3192
12.3307
12.3252
12.3143
12.3058
12.2952
12.2731
12.2714
12.3016
1
1
1
1
1
1
1
1
1
1
1
1
1
1
1
1
1
1
1
1
1
1
1
1
1
1
1
1
1
1
1
1
1
1
1
1
1
1
1
1
1
1
1
1
1
1
1
1
1
1
1
1
1
1
1
1
1
1.00003
1.00184
1.11825
7.48214
10.9427
11.1065
11.138
11.2523
11.369
11.3977
11.4817
11.5356
11.5777
11.6078
11.6536
11.7098
11.781
11.8441
11.8993
11.9232
11.9373
11.9373
11.9395
11.9534
11.9822
12.0299
12.0916
12.1589
12.2191
12.2663
12.2979
12.309
12.3025
12.289
12.2781
12.2673
12.2476
12.2376
12.2595
1
1
1
1
1
1
1
1
1
1
1
1
1
1
1
1
1
1
1
1
1
1
1
1
1
1
1
1
1
1
1
1
1
1
1
1
1
1
1
1
1
1
1
1
1
1
1
1
1
1
1
1
1
1
1
1
1
1.00002
1.00161
1.10387
6.96421
10.8369
11.082
11.1301
11.2282
11.3466
11.3659
11.4509
11.5188
11.5595
11.5892
11.6333
11.6887
11.76
11.82
11.8715
11.8941
11.9084
11.9077
11.9095
11.9232
11.9504
11.9994
12.0621
12.1317
12.1931
12.2407
12.2716
12.2819
12.2746
12.259
12.2462
12.2351
12.2161
12.1991
12.2212
1
1
1
1
1
1
1
1
1
1
1
1
1
1
1
1
1
1
1
1
1
1
1
1
1
1
1
1
1
1
1
1
1
1
1
1
1
1
1
1
1
1
1
1
1
1
1
1
1
1
1
1
1
1
1
1
1
1.00002
1.00146
1.09436
6.48259
10.692
11.0176
11.1029
11.1936
11.2904
11.3489
11.4215
11.4888
11.5266
11.5601
11.6037
11.6597
11.7298
11.7878
11.8366
11.8592
11.8741
11.8746
11.8778
11.8922
11.9197
11.9697
12.0332
12.1034
12.165
12.2122
12.2424
12.2517
12.2434
12.2257
12.2107
12.1993
12.1822
12.1618
12.1769
1
1
1
1
1
1
1
1
1
1
1
1
1
1
1
1
1
1
1
1
1
1
1
1
1
1
1
1
1
1
1
1
1
1
1
1
1
1
1
1
1
1
1
1
1
1
1
1
1
1
1
1
1
1
1
1
1
1.00002
1.0013
1.08445
5.97059
10.5058
10.9636
11.046
11.1661
11.2195
11.3161
11.3947
11.4567
11.4973
11.5335
11.5754
11.6316
11.6996
11.7563
11.8037
11.8272
11.8407
11.8411
11.8442
11.8586
11.8866
11.9378
12.0017
12.072
12.1333
12.1798
12.2088
12.2172
12.2082
12.189
12.1726
12.1609
12.1453
12.1145
12.133
1
1
1
1
1
1
1
1
1
1
1
1
1
1
1
1
1
1
1
1
1
1
1
1
1
1
1
1
1
1
1
1
1
1
1
1
1
1
1
1
1
1
1
1
1
1
1
1
1
1
1
1
1
1
1
1
1
1.00002
1.00112
1.07363
5.41812
10.2809
10.9266
11.0043
11.1352
11.1603
11.2727
11.3729
11.4215
11.466
11.5042
11.544
11.5965
11.6615
11.717
11.7654
11.79
11.8029
11.8044
11.8087
11.8235
11.853
11.9051
11.969
12.0386
12.0986
12.1437
12.1712
12.1788
12.1694
12.1489
12.1306
12.1165
12.1002
12.0607
12.0924
1
1
1
1
1
1
1
1
1
1
1
1
1
1
1
1
1
1
1
1
1
1
1
1
1
1
1
1
1
1
1
1
1
1
1
1
1
1
1
1
1
1
1
1
1
1
1
1
1
1
1
1
1
1
1
1
1
1.00001
1.00091
1.06061
4.74914
10.0872
10.8875
10.9729
11.0587
11.155
11.2494
11.3511
11.3807
11.4363
11.4705
11.5094
11.5592
11.62
11.6731
11.7212
11.7469
11.7605
11.7646
11.77
11.7854
11.8167
11.8687
11.9325
12
12.0584
12.1018
12.1279
12.1349
12.1257
12.1047
12.0847
12.0686
12.0546
12.0136
12.0351
1
1
1
1
1
1
1
1
1
1
1
1
1
1
1
1
1
1
1
1
1
1
1
1
1
1
1
1
1
1
1
1
1
1
1
1
1
1
1
1
1
1
1
1
1
1
1
1
1
1
1
1
1
1
1
1
1
1.00001
1.00063
1.04337
3.83257
9.82672
10.9311
10.9704
11.0566
11.1754
11.2664
11.3225
11.3535
11.4035
11.4305
11.4725
11.5193
11.5773
11.6277
11.6748
11.7022
11.7159
11.7226
11.7289
11.7449
11.7771
11.8281
11.8911
11.9559
12.0122
12.054
12.0788
12.0857
12.0771
12.0561
12.0351
12.0165
12.0016
11.954
11.9791
1
1
1
1
1
1
1
1
1
1
1
1
1
1
1
1
1
1
1
1
1
1
1
1
1
1
1
1
1
1
1
1
1
1
1
1
1
1
1
1
1
1
1
1
1
1
1
1
1
1
1
1
1
1
1
1
1
1
1.00033
1.02371
2.65554
9.37826
11.0865
11.0675
11.1613
11.2037
11.2604
11.2732
11.3299
11.3781
11.3851
11.4275
11.4754
11.5296
11.5788
11.6243
11.6543
11.6693
11.6791
11.6871
11.7036
11.7344
11.7829
11.8431
11.9049
11.9588
11.9988
12.0226
12.0298
12.0222
12.0024
11.9816
11.9621
11.9434
11.882
11.9202
1
1
1
1
1
1
1
1
1
1
1
1
1
1
1
1
1
1
1
1
1
1
1
1
1
1
1
1
1
1
1
1
1
1
1
1
1
1
1
1
1
1
1
1
1
1
1
1
1
1
1
1
1
1
1
1
1
1
1.0001
1.00788
1.58726
8.86649
11.193
11.1406
11.1188
11.1632
11.1957
11.2442
11.2817
11.3327
11.3376
11.3772
11.4295
11.4772
11.5249
11.5698
11.6036
11.6223
11.6351
11.6449
11.6606
11.6883
11.7329
11.7889
11.8472
11.8987
11.937
11.9599
11.9674
11.9608
11.9425
11.9227
11.9053
11.8825
11.7935
11.86
1
1
1
1
1
1
1
1
1
1
1
1
1
1
1
1
1
1
1
1
1
1
1
1
1
1
1
1
1
1
1
1
1
1
1
1
1
1
1
1
1
1
1
1
1
1
1
1
1
1
1
1
1
1
1
1
1
1
1.00003
1.00212
1.13442
7.75118
11.1388
11.0271
11.0393
11.0861
11.1484
11.191
11.2402
11.2609
11.2937
11.3284
11.3781
11.4217
11.468
11.5125
11.5499
11.5732
11.5895
11.6015
11.6158
11.639
11.678
11.7287
11.7829
11.8315
11.868
11.8898
11.8964
11.889
11.8709
11.8528
11.8413
11.8178
11.7132
11.8012
1
1
1
1
1
1
1
1
1
1
1
1
1
1
1
1
1
1
1
1
1
1
1
1
1
1
1
1
1
1
1
1
1
1
1
1
1
1
1
1
1
1
1
1
1
1
1
1
1
1
1
1
1
1
1
1
1
1
1.00002
1.00141
1.09206
6.41998
10.8489
10.9267
10.9583
11.0157
11.0756
11.1358
11.1964
11.1963
11.2449
11.2843
11.3247
11.3634
11.4081
11.4536
11.4953
11.5237
11.5435
11.5572
11.5691
11.5869
11.619
11.6635
11.7126
11.7581
11.7927
11.8134
11.819
11.81
11.7892
11.7675
11.7571
11.7438
11.6542
11.6988
1
1
1
1
1
1
1
1
1
1
1
1
1
1
1
1
1
1
1
1
1
1
1
1
1
1
1
1
1
1
1
1
1
1
1
1
1
1
1
1
1
1
1
1
1
1
1
1
1
1
1
1
1
1
1
1
1
1
1.00002
1.00113
1.07337
5.40855
10.4727
10.8322
10.8587
10.9225
11.0016
11.0856
11.1131
11.1731
11.2065
11.2423
11.266
11.3021
11.3456
11.3943
11.4412
11.4742
11.4964
11.5108
11.5197
11.5317
11.556
11.5929
11.636
11.6775
11.7095
11.7281
11.7316
11.7205
11.6983
11.6719
11.6505
11.636
11.625
11.5714
1
1
1
1
1
1
1
1
1
1
1
1
1
1
1
1
1
1
1
1
1
1
1
1
1
1
1
1
1
1
1
1
1
1
1
1
1
1
1
1
1
1
1
1
1
1
1
1
1
1
1
1
1
1
1
1
1
1
1.00001
1.00087
1.05713
4.51337
10.1613
10.6849
10.7361
10.8219
10.9176
10.9775
11.074
11.1395
11.1753
11.1927
11.2113
11.2398
11.287
11.3372
11.3885
11.4244
11.4469
11.4609
11.4662
11.4721
11.4884
11.5166
11.5529
11.5896
11.6183
11.6348
11.6358
11.6219
11.598
11.5687
11.5439
11.5228
11.5104
11.4773
1
1
1
1
1
1
1
1
1
1
1
1
1
1
1
1
1
1
1
1
1
1
1
1
1
1
1
1
1
1
1
1
1
1
1
1
1
1
1
1
1
1
1
1
1
1
1
1
1
1
1
1
1
1
1
1
1
1
1.00001
1.0006
1.03981
3.53919
9.79113
10.5316
10.6084
10.7144
10.8307
10.9594
11.0576
11.1121
11.1364
11.1431
11.1599
11.1816
11.2321
11.2841
11.336
11.3738
11.395
11.4068
11.4081
11.4079
11.4152
11.435
11.4638
11.494
11.5176
11.5309
11.5282
11.5099
11.4828
11.4497
11.4221
11.396
11.3973
11.3562
1
1
1
1
1
1
1
1
1
1
1
1
1
1
1
1
1
1
1
1
1
1
1
1
1
1
1
1
1
1
1
1
1
1
1
1
1
1
1
1
1
1
1
1
1
1
1
1
1
1
1
1
1
1
1
1
1
1
1
1.0003
1.02071
2.38964
9.47418
10.3637
10.5523
10.7494
10.8596
10.9309
10.9976
11.0444
11.0871
11.0956
11.1169
11.129
11.1793
11.2329
11.2838
11.3209
11.3386
11.3463
11.3434
11.3383
11.338
11.3476
11.3683
11.3906
11.4074
11.4157
11.4088
11.3863
11.3553
11.3182
11.2863
11.2508
11.2533
11.2058
1
1
1
1
1
1
1
1
1
1
1
1
1
1
1
1
1
1
1
1
1
1
1
1
1
1
1
1
1
1
1
1
1
1
1
1
1
1
1
1
1
1
1
1
1
1
1
1
1
1
1
1
1
1
1
1
1
1
1
1.00009
1.006
1.40197
8.38678
10.4243
10.7531
10.8064
10.835
10.8849
10.9462
11.0031
11.034
11.046
11.0709
11.0746
11.1183
11.1746
11.2246
11.2596
11.2743
11.2791
11.2719
11.2613
11.2543
11.2551
11.2655
11.2783
11.2873
11.2878
11.2739
11.2455
11.2076
11.1643
11.1251
11.0784
11.075
11.0323
1
1
1
1
1
1
1
1
1
1
1
1
1
1
1
1
1
1
1
1
1
1
1
1
1
1
1
1
1
1
1
1
1
1
1
1
1
1
1
1
1
1
1
1
1
1
1
1
1
1
1
1
1
1
1
1
1
1
1
1.00003
1.00174
1.11031
6.78194
10.1954
10.6708
10.7509
10.7924
10.8471
10.9149
10.9626
10.9918
11.0029
11.0084
11.0233
11.0667
11.1184
11.1608
11.1916
11.2018
11.2021
11.1916
11.1757
11.1618
11.1545
11.1548
11.1568
11.1557
11.1466
11.1241
11.0878
11.042
10.9904
10.9384
10.8753
10.8541
10.811
1
1
1
1
1
1
1
1
1
1
1
1
1
1
1
1
1
1
1
1
1
1
1
1
1
1
1
1
1
1
1
1
1
1
1
1
1
1
1
1
1
1
1
1
1
1
1
1
1
1
1
1
1
1
1
1
1
1
1
1.00002
1.00106
1.07036
5.26462
9.94167
10.6135
10.6681
10.6884
10.7787
10.8716
10.9141
10.9506
10.9572
10.9718
10.9984
11.0173
11.0504
11.085
11.1148
11.1218
11.1209
11.1057
11.0832
11.0612
11.0448
11.0349
11.0257
11.0127
10.9919
10.9588
10.9113
10.8517
10.7795
10.6988
10.6096
10.574
10.5317
1
1
1
1
1
1
1
1
1
1
1
1
1
1
1
1
1
1
1
1
1
1
1
1
1
1
1
1
1
1
1
1
1
1
1
1
1
1
1
1
1
1
1
1
1
1
1
1
1
1
1
1
1
1
1
1
1
1
1
1.00001
1.00064
1.04363
3.8255
9.59508
10.5623
10.602
10.6338
10.7008
10.7833
10.8334
10.9073
10.9529
10.9499
10.9439
10.9538
10.9784
11.0104
11.0356
11.0398
11.0372
11.0161
10.9855
10.954
10.9272
10.9063
10.885
10.8587
10.8239
10.7761
10.7121
10.6332
10.5401
10.4371
10.3219
10.2226
10.051
1
1
1
1
1
1
1
1
1
1
1
1
1
1
1
1
1
1
1
1
1
1
1
1
1
1
1
1
1
1
1
1
1
1
1
1
1
1
1
1
1
1
1
1
1
1
1
1
1
1
1
1
1
1
1
1
1
1
1
1
1.00026
1.01841
2.2752
9.05546
10.5384
10.6731
10.7327
10.7883
10.8172
10.8401
10.8647
10.8897
10.8881
10.8861
10.8949
10.9122
10.9342
10.9498
10.9538
10.9482
10.9223
10.8843
10.8423
10.8038
10.7704
10.7359
10.6949
10.6437
10.5778
10.492
10.3849
10.2519
10.0873
9.88749
9.66951
9.50258
1
1
1
1
1
1
1
1
1
1
1
1
1
1
1
1
1
1
1
1
1
1
1
1
1
1
1
1
1
1
1
1
1
1
1
1
1
1
1
1
1
1
1
1
1
1
1
1
1
1
1
1
1
1
1
1
1
1
1
1
1.00005
1.00355
1.2054
7.9495
10.5794
10.6323
10.6174
10.6662
10.7174
10.7612
10.7832
10.8205
10.8192
10.8266
10.8399
10.8516
10.8613
10.8646
10.8642
10.8522
10.8229
10.779
10.7277
10.6774
10.6302
10.5808
10.523
10.4527
10.3643
10.2496
10.1028
9.91454
9.68265
9.3816
9.01053
8.41319
1
1
1
1
1
1
1
1
1
1
1
1
1
1
1
1
1
1
1
1
1
1
1
1
1
1
1
1
1
1
1
1
1
1
1
1
1
1
1
1
1
1
1
1
1
1
1
1
1
1
1
1
1
1
1
1
1
1
1
1
1.00002
1.00134
1.08846
6.05927
10.1162
10.599
10.6167
10.6589
10.6894
10.6924
10.7377
10.7706
10.7737
10.7879
10.7868
10.7846
10.7859
10.7824
10.7725
10.7521
10.719
10.6697
10.6109
10.5495
10.488
10.422
10.3454
10.2531
10.1386
9.99105
9.80023
9.54857
9.21349
8.6735
7.71158
5.64401
1
1
1
1
1
1
1
1
1
1
1
1
1
1
1
1
1
1
1
1
1
1
1
1
1
1
1
1
1
1
1
1
1
1
1
1
1
1
1
1
1
1
1
1
1
1
1
1
1
1
1
1
1
1
1
1
1
1
1
1
1.00001
1.00076
1.05191
4.31374
9.62377
10.5712
10.6009
10.6414
10.6613
10.6476
10.6703
10.705
10.7049
10.7181
10.7072
10.7031
10.703
10.6989
10.6791
10.6487
10.6104
10.5569
10.4921
10.4208
10.3453
10.2619
10.1648
10.0485
9.90562
9.72301
9.48301
9.15615
8.68898
7.94643
6.75682
4.55496
1
1
1
1
1
1
1
1
1
1
1
1
1
1
1
1
1
1
1
1
1
1
1
1
1
1
1
1
1
1
1
1
1
1
1
1
1
1
1
1
1
1
1
1
1
1
1
1
1
1
1
1
1
1
1
1
1
1
1
1
1
1.00029
1.02078
2.4045
9.08785
10.5113
10.5291
10.5511
10.5673
10.5533
10.5922
10.6231
10.6443
10.6684
10.6607
10.6479
10.6264
10.604
10.5748
10.5417
10.4994
10.4426
10.3723
10.2918
10.2028
10.1016
9.98343
9.84229
9.67042
9.45294
9.16592
8.77381
8.22505
7.42221
6.20379
4.22559
1
1
1
1
1
1
1
1
1
1
1
1
1
1
1
1
1
1
1
1
1
1
1
1
1
1
1
1
1
1
1
1
1
1
1
1
1
1
1
1
1
1
1
1
1
1
1
1
1
1
1
1
1
1
1
1
1
1
1
1
1
1.00006
1.00388
1.20614
7.81196
10.4906
10.4767
10.4772
10.4864
10.5148
10.5526
10.584
10.5863
10.5839
10.5743
10.5538
10.5304
10.5053
10.4742
10.4373
10.3888
10.3271
10.2509
10.1616
10.0596
9.94142
9.80314
9.63856
9.44026
9.19237
8.87262
8.4446
7.87609
7.07122
6.03737
4.7572
1
1
1
1
1
1
1
1
1
1
1
1
1
1
1
1
1
1
1
1
1
1
1
1
1
1
1
1
1
1
1
1
1
1
1
1
1
1
1
1
1
1
1
1
1
1
1
1
1
1
1
1
1
1
1
1
1
1
1
1
1
1.00002
1.00125
1.08302
5.72414
10.1085
10.3327
10.3409
10.4008
10.4107
10.4493
10.5077
10.5207
10.5227
10.5113
10.4821
10.4476
10.4117
10.3735
10.3302
10.2765
10.2092
10.1261
10.028
9.91443
9.78188
9.62621
9.44152
9.22162
8.95079
8.61237
8.17246
7.61057
6.86208
5.9557
4.89398
1
1
1
1
1
1
1
1
1
1
1
1
1
1
1
1
1
1
1
1
1
1
1
1
1
1
1
1
1
1
1
1
1
1
1
1
1
1
1
1
1
1
1
1
1
1
1
1
1
1
1
1
1
1
1
1
1
1
1
1
1
1.00001
1.00061
1.04203
3.71816
9.545
10.3324
10.3067
10.3628
10.3548
10.3926
10.4433
10.452
10.4519
10.4332
10.3987
10.3546
10.3089
10.2643
10.2165
10.1583
10.0866
9.99849
9.89339
9.76989
9.62566
9.45584
9.2552
9.01931
8.73341
8.38629
7.94964
7.41233
6.72507
5.90102
4.98638
1
1
1
1
1
1
1
1
1
1
1
1
1
1
1
1
1
1
1
1
1
1
1
1
1
1
1
1
1
1
1
1
1
1
1
1
1
1
1
1
1
1
1
1
1
1
1
1
1
1
1
1
1
1
1
1
1
1
1
1
1
1
1.00017
1.01161
1.7296
8.57357
10.3734
10.3148
10.3243
10.3349
10.3402
10.3714
10.3828
10.3722
10.3458
10.3042
10.2513
10.1954
10.1455
10.0977
10.0392
9.96594
9.87443
9.76283
9.63058
9.47618
9.29486
9.08218
8.83533
8.54099
8.19126
7.76576
7.25161
6.62122
5.88141
5.08349
1
1
1
1
1
1
1
1
1
1
1
1
1
1
1
1
1
1
1
1
1
1
1
1
1
1
1
1
1
1
1
1
1
1
1
1
1
1
1
1
1
1
1
1
1
1
1
1
1
1
1
1
1
1
1
1
1
1
1
1
1
1
1.00003
1.00219
1.12879
6.6542
10.0019
10.1864
10.2499
10.259
10.2571
10.2873
10.3021
10.2855
10.2577
10.2109
10.152
10.0876
10.0316
9.98091
9.92303
9.84902
9.75465
9.63717
9.49726
9.33356
9.14317
8.9216
8.66767
8.37055
8.0237
7.61183
7.11956
6.54429
5.88888
5.17428
1
1
1
1
1
1
1
1
1
1
1
1
1
1
1
1
1
1
1
1
1
1
1
1
1
1
1
1
1
1
1
1
1
1
1
1
1
1
1
1
1
1
1
1
1
1
1
1
1
1
1
1
1
1
1
1
1
1
1
1
1
1
1.00001
1.00085
1.05804
4.5347
9.46904
10.061
10.1903
10.209
10.2178
10.2471
10.2455
10.218
10.1787
10.1212
10.0546
9.98374
9.92069
9.86392
9.80498
9.73078
9.63483
9.51407
9.3692
9.19865
9.00177
8.77445
8.51658
8.21998
7.87883
7.48108
7.01424
6.48677
5.90663
5.26557
1
1
1
1
1
1
1
1
1
1
1
1
1
1
1
1
1
1
1
1
1
1
1
1
1
1
1
1
1
1
1
1
1
1
1
1
1
1
1
1
1
1
1
1
1
1
1
1
1
1
1
1
1
1
1
1
1
1
1
1
1
1
1
1.0003
1.0206
2.33517
8.90133
10.0402
10.1194
10.1527
10.1765
10.1933
10.1801
10.1415
10.0921
10.0284
9.957
9.88191
9.81226
9.75124
9.68982
9.61602
9.52034
9.39821
9.25014
9.07493
8.87283
8.64113
8.38034
8.086
7.75239
7.37087
6.93176
6.44634
5.92525
5.33796
1
1
1
1
1
1
1
1
1
1
1
1
1
1
1
1
1
1
1
1
1
1
1
1
1
1
1
1
1
1
1
1
1
1
1
1
1
1
1
1
1
1
1
1
1
1
1
1
1
1
1
1
1
1
1
1
1
1
1
1
1
1
1
1.00006
1.00365
1.18813
7.05977
9.81064
10.076
10.0843
10.0992
10.1018
10.0919
10.0489
9.99914
9.93981
9.86971
9.79241
9.71874
9.65186
9.58488
9.50748
9.40964
9.28496
9.13401
8.95644
8.75229
8.51926
8.25759
7.9671
7.64226
7.27912
6.86739
6.42163
5.94552
5.41698
1
1
1
1
1
1
1
1
1
1
1
1
1
1
1
1
1
1
1
1
1
1
1
1
1
1
1
1
1
1
1
1
1
1
1
1
1
1
1
1
1
1
1
1
1
1
1
1
1
1
1
1
1
1
1
1
1
1
1
1
1
1
1
1.00002
1.00097
1.06496
4.73388
9.3482
9.96405
10.0321
10.0469
10.0422
10.0271
9.9707
9.91168
9.85133
9.78124
9.70579
9.63065
9.55765
9.48383
9.40001
9.2988
9.17289
9.02217
8.84616
8.64378
8.41228
8.15139
7.86525
7.54925
7.20472
6.81638
6.40565
5.95927
5.48606
1
1
1
1
1
1
1
1
1
1
1
1
1
1
1
1
1
1
1
1
1
1
1
1
1
1
1
1
1
1
1
1
1
1
1
1
1
1
1
1
1
1
1
1
1
1
1
1
1
1
1
1
1
1
1
1
1
1
1
1
1
1
1
1
1.0003
1.02114
2.35589
8.8598
9.99463
9.98327
9.98446
9.98305
9.96259
9.89821
9.82484
9.75886
9.6897
9.61818
9.54521
9.46987
9.3917
9.30301
9.19848
9.07074
8.91801
8.74111
8.53999
8.31185
8.05555
7.77651
7.47008
7.14288
6.77502
6.39705
5.97581
5.56934
1
1
1
1
1
1
1
1
1
1
1
1
1
1
1
1
1
1
1
1
1
1
1
1
1
1
1
1
1
1
1
1
1
1
1
1
1
1
1
1
1
1
1
1
1
1
1
1
1
1
1
1
1
1
1
1
1
1
1
1
1
1
1
1
1.00005
1.0036
1.18675
6.95812
9.75726
9.94746
9.92276
9.89858
9.87011
9.81154
9.74233
9.68333
9.61979
9.54722
9.47204
9.39199
9.30747
9.21182
9.10057
8.96852
8.81349
8.63801
8.44096
8.2191
7.97072
7.7007
7.40568
7.09482
6.74449
6.39381
5.99128
5.62393
1
1
1
1
1
1
1
1
1
1
1
1
1
1
1
1
1
1
1
1
1
1
1
1
1
1
1
1
1
1
1
1
1
1
1
1
1
1
1
1
1
1
1
1
1
1
1
1
1
1
1
1
1
1
1
1
1
1
1
1
1
1
1
1
1.00001
1.00087
1.05887
4.36652
9.22636
9.90098
9.86652
9.84538
9.80499
9.74641
9.67559
9.61522
9.55191
9.47644
9.39539
9.31065
9.22012
9.12016
9.00618
8.87349
8.71927
8.54533
8.35039
8.1323
7.89196
7.63135
7.34836
7.05167
6.72024
6.39193
6.01481
5.67751
1
1
1
1
1
1
1
1
1
1
1
1
1
1
1
1
1
1
1
1
1
1
1
1
1
1
1
1
1
1
1
1
1
1
1
1
1
1
1
1
1
1
1
1
1
1
1
1
1
1
1
1
1
1
1
1
1
1
1
1
1
1
1
1
1
1.0002
1.01425
1.86317
8.39558
9.91102
9.83499
9.7964
9.74606
9.68506
9.60756
9.54854
9.49078
9.41529
9.33096
9.24002
9.14174
9.03569
8.91793
8.78276
8.62734
8.45178
8.26134
8.04971
7.81956
7.56945
7.29994
7.01691
6.70575
6.39517
6.04005
5.71906
1
1
1
1
1
1
1
1
1
1
1
1
1
1
1
1
1
1
1
1
1
1
1
1
1
1
1
1
1
1
1
1
1
1
1
1
1
1
1
1
1
1
1
1
1
1
1
1
1
1
1
1
1
1
1
1
1
1
1
1
1
1
1
1
1
1.00003
1.0023
1.12961
6.11158
9.55253
9.70164
9.68291
9.65463
9.60911
9.5427
9.49666
9.44285
9.36655
9.27759
9.17568
9.06556
8.94863
8.82473
8.68766
8.5352
8.36562
8.1822
7.97744
7.75549
7.5131
7.25517
6.98343
6.69145
6.39432
6.06288
5.75702
1
1
1
1
1
1
1
1
1
1
1
1
1
1
1
1
1
1
1
1
1
1
1
1
1
1
1
1
1
1
1
1
1
1
1
1
1
1
1
1
1
1
1
1
1
1
1
1
1
1
1
1
1
1
1
1
1
1
1
1
1
1
1
1
1
1.00001
1.00056
1.03921
3.35233
9.09514
9.66266
9.60792
9.57575
9.52798
9.46798
9.4228
9.37192
9.30744
9.22362
9.11888
9.00166
8.87692
8.74331
8.60405
8.45154
8.28318
8.10223
7.90372
7.69188
7.45934
7.21495
6.955
6.68043
6.39356
6.09266
5.78838
1
1
1
1
1
1
1
1
1
1
1
1
1
1
1
1
1
1
1
1
1
1
1
1
1
1
1
1
1
1
1
1
1
1
1
1
1
1
1
1
1
1
1
1
1
1
1
1
1
1
1
1
1
1
1
1
1
1
1
1
1
1
1
1
1
1
1.0001
1.00648
1.33424
7.38367
9.727
9.633
9.51705
9.43661
9.37751
9.33327
9.29114
9.24331
9.16894
9.0701
8.95105
8.81834
8.6742
8.52446
8.36748
8.20028
8.02598
7.83816
7.63907
7.41614
7.18233
6.92688
6.66863
6.38941
6.11393
5.81409
1
1
1
1
1
1
1
1
1
1
1
1
1
1
1
1
1
1
1
1
1
1
1
1
1
1
1
1
1
1
1
1
1
1
1
1
1
1
1
1
1
1
1
1
1
1
1
1
1
1
1
1
1
1
1
1
1
1
1
1
1
1
1
1
1
1
1.00002
1.0011
1.07129
4.60422
9.35269
9.55418
9.4606
9.38742
9.3157
9.25754
9.21067
9.16268
9.09462
9.00593
8.89514
8.76375
8.61643
8.46057
8.30062
8.13192
7.95817
7.77389
7.58383
7.3697
7.14859
6.90375
6.66173
6.39068
6.13308
5.83553
1
1
1
1
1
1
1
1
1
1
1
1
1
1
1
1
1
1
1
1
1
1
1
1
1
1
1
1
1
1
1
1
1
1
1
1
1
1
1
1
1
1
1
1
1
1
1
1
1
1
1
1
1
1
1
1
1
1
1
1
1
1
1
1
1
1
1
1.0002
1.01436
1.8452
8.25667
9.48246
9.42921
9.36014
9.2747
9.20677
9.14479
9.08647
9.0135
8.93564
8.83836
8.71328
8.56818
8.40864
8.24131
8.06721
7.89275
7.71301
7.53381
7.33225
7.12389
6.88733
6.65356
6.38633
6.14759
5.85842
1
1
1
1
1
1
1
1
1
1
1
1
1
1
1
1
1
1
1
1
1
1
1
1
1
1
1
1
1
1
1
1
1
1
1
1
1
1
1
1
1
1
1
1
1
1
1
1
1
1
1
1
1
1
1
1
1
1
1
1
1
1
1
1
1
1
1
1.00003
1.00206
1.11905
5.57736
9.08049
9.32651
9.28936
9.24464
9.18295
9.10768
9.02787
8.93822
8.85279
8.75921
8.6439
8.50907
8.35513
8.1905
8.01767
7.84364
7.66378
7.48781
7.29193
7.09347
6.86827
6.64783
6.3933
6.16353
5.88263
1
1
1
1
1
1
1
1
1
1
1
1
1
1
1
1
1
1
1
1
1
1
1
1
1
1
1
1
1
1
1
1
1
1
1
1
1
1
1
1
1
1
1
1
1
1
1
1
1
1
1
1
1
1
1
1
1
1
1
1
1
1
1
1
1
1
1
1.00001
1.00036
1.02594
2.52214
8.54686
9.19304
9.2618
9.23674
9.16798
9.08128
8.98221
8.87463
8.77856
8.68187
8.57324
8.44819
8.30436
8.14545
7.97261
7.79603
7.61553
7.44236
7.25357
7.06706
6.8533
6.64216
6.39453
6.1728
5.90376
1
1
1
1
1
1
1
1
1
1
1
1
1
1
1
1
1
1
1
1
1
1
1
1
1
1
1
1
1
1
1
1
1
1
1
1
1
1
1
1
1
1
1
1
1
1
1
1
1
1
1
1
1
1
1
1
1
1
1
1
1
1
1
1
1
1
1
1
1.00005
1.00349
1.18836
6.24196
8.85417
9.17762
9.17292
9.1267
9.05011
8.9515
8.83172
8.71506
8.61017
8.49868
8.37782
8.24392
8.09519
7.93141
7.76067
7.58151
7.40964
7.22279
7.04011
6.83425
6.63432
6.39875
6.18826
5.92995
1
1
1
1
1
1
1
1
1
1
1
1
1
1
1
1
1
1
1
1
1
1
1
1
1
1
1
1
1
1
1
1
1
1
1
1
1
1
1
1
1
1
1
1
1
1
1
1
1
1
1
1
1
1
1
1
1
1
1
1
1
1
1
1
1
1
1
1
1.00001
1.00051
1.03545
2.92769
8.51885
9.09307
9.11437
9.08341
9.01159
8.91211
8.78939
8.66022
8.54635
8.43044
8.31062
8.18503
8.04769
7.89439
7.72655
7.54771
7.37717
7.19302
7.01612
6.81856
6.62769
6.40021
6.1979
5.94844
1
1
1
1
1
1
1
1
1
1
1
1
1
1
1
1
1
1
1
1
1
1
1
1
1
1
1
1
1
1
1
1
1
1
1
1
1
1
1
1
1
1
1
1
1
1
1
1
1
1
1
1
1
1
1
1
1
1
1
1
1
1
1
1
1
1
1
1
1
1.00007
1.00455
1.24321
6.58214
8.77997
9.02835
9.00904
8.94636
8.86229
8.75133
8.61645
8.49621
8.37516
8.25222
8.12839
7.9978
7.85332
7.69549
7.52464
7.35802
7.17577
7.00005
6.80552
6.61912
6.40264
6.21073
5.96916
1
1
1
1
1
1
1
1
1
1
1
1
1
1
1
1
1
1
1
1
1
1
1
1
1
1
1
1
1
1
1
1
1
1
1
1
1
1
1
1
1
1
1
1
1
1
1
1
1
1
1
1
1
1
1
1
1
1
1
1
1
1
1
1
1
1
1
1
1
1.00001
1.00062
1.04251
3.18907
8.41059
8.94363
8.93483
8.89245
8.81699
8.70998
8.5749
8.44974
8.32168
8.19638
8.07605
7.95249
7.81842
7.66933
7.50277
7.336
7.15708
6.98291
6.79268
6.61264
6.40322
6.21826
5.98281
1
1
1
1
1
1
1
1
1
1
1
1
1
1
1
1
1
1
1
1
1
1
1
1
1
1
1
1
1
1
1
1
1
1
1
1
1
1
1
1
1
1
1
1
1
1
1
1
1
1
1
1
1
1
1
1
1
1
1
1
1
1
1
1
1
1
1
1
1
1
1.00008
1.0053
1.28531
6.56615
8.65712
8.86065
8.83689
8.75745
8.66265
8.53937
8.41022
8.28328
8.15666
8.03444
7.91117
7.78175
7.63949
7.48204
7.32041
7.1471
6.97412
6.78862
6.60813
6.40839
6.22875
6.00109
1
1
1
1
1
1
1
1
1
1
1
1
1
1
1
1
1
1
1
1
1
1
1
1
1
1
1
1
1
1
1
1
1
1
1
1
1
1
1
1
1
1
1
1
1
1
1
1
1
1
1
1
1
1
1
1
1
1
1
1
1
1
1
1
1
1
1
1
1
1
1.00001
1.00063
1.0431
3.08987
8.27298
8.79648
8.77449
8.70524
8.62061
8.50173
8.37197
8.24826
8.11787
7.99417
7.87404
7.75123
7.6167
7.46676
7.30365
7.13575
6.96222
6.78279
6.60341
6.41304
6.2337
6.01723
1
1
1
1
1
1
1
1
1
1
1
1
1
1
1
1
1
1
1
1
1
1
1
1
1
1
1
1
1
1
1
1
1
1
1
1
1
1
1
1
1
1
1
1
1
1
1
1
1
1
1
1
1
1
1
1
1
1
1
1
1
1
1
1
1
1
1
1
1
1
1
1.00007
1.00496
1.26794
6.24641
8.50603
8.68538
8.64352
8.55986
8.45258
8.33375
8.21928
8.09284
7.96851
7.84701
7.7243
7.5912
7.44722
7.28816
7.12883
6.9562
6.78504
6.60299
6.42367
6.24008
6.04274
1
1
1
1
1
1
1
1
1
1
1
1
1
1
1
1
1
1
1
1
1
1
1
1
1
1
1
1
1
1
1
1
1
1
1
1
1
1
1
1
1
1
1
1
1
1
1
1
1
1
1
1
1
1
1
1
1
1
1
1
1
1
1
1
1
1
1
1
1
1
1
1.00001
1.00053
1.03612
2.68786
8.03765
8.68486
8.60733
8.52387
8.42362
8.3022
8.19257
8.06586
7.93823
7.81851
7.69984
7.57257
7.43508
7.27652
7.12109
6.94845
6.78434
6.60052
6.43306
6.24412
6.06832
1
1
1
1
1
1
1
1
1
1
1
1
1
1
1
1
1
1
1
1
1
1
1
1
1
1
1
1
1
1
1
1
1
1
1
1
1
1
1
1
1
1
1
1
1
1
1
1
1
1
1
1
1
1
1
1
1
1
1
1
1
1
1
1
1
1
1
1
1
1
1
1
1.00006
1.00385
1.20819
5.6778
8.38735
8.51015
8.45684
8.37137
8.26609
8.16649
8.04713
7.92167
7.8003
7.67959
7.5517
7.41584
7.26113
7.11323
6.94406
6.78772
6.6047
6.44372
6.25448
6.09452
1
1
1
1
1
1
1
1
1
1
1
1
1
1
1
1
1
1
1
1
1
1
1
1
1
1
1
1
1
1
1
1
1
1
1
1
1
1
1
1
1
1
1
1
1
1
1
1
1
1
1
1
1
1
1
1
1
1
1
1
1
1
1
1
1
1
1
1
1
1
1
1
1.00001
1.00037
1.02564
2.20718
7.59007
8.52887
8.44998
8.36207
8.25111
8.14794
8.02781
7.89855
7.77593
7.6576
7.53506
7.40471
7.25349
7.10603
6.93984
6.78842
6.60577
6.45242
6.26475
6.11574
1
1
1
1
1
1
1
1
1
1
1
1
1
1
1
1
1
1
1
1
1
1
1
1
1
1
1
1
1
1
1
1
1
1
1
1
1
1
1
1
1
1
1
1
1
1
1
1
1
1
1
1
1
1
1
1
1
1
1
1
1
1
1
1
1
1
1
1
1
1
1
1
1
1.00004
1.0025
1.13906
4.72431
8.20447
8.40507
8.33261
8.22889
8.13041
8.0164
7.89027
7.76728
7.64502
7.52018
7.38903
7.24098
7.09843
6.93646
6.79098
6.61064
6.46391
6.27831
6.13555
1
1
1
1
1
1
1
1
1
1
1
1
1
1
1
1
1
1
1
1
1
1
1
1
1
1
1
1
1
1
1
1
1
1
1
1
1
1
1
1
1
1
1
1
1
1
1
1
1
1
1
1
1
1
1
1
1
1
1
1
1
1
1
1
1
1
1
1
1
1
1
1
1
1
1.00021
1.01445
1.69805
6.85546
8.37448
8.30108
8.19752
8.10265
7.995
7.86899
7.74509
7.62829
7.5083
7.38112
7.23791
7.0946
6.93651
6.79402
6.61527
6.47489
6.29193
6.15644
1
1
1
1
1
1
1
1
1
1
1
1
1
1
1
1
1
1
1
1
1
1
1
1
1
1
1
1
1
1
1
1
1
1
1
1
1
1
1
1
1
1
1
1
1
1
1
1
1
1
1
1
1
1
1
1
1
1
1
1
1
1
1
1
1
1
1
1
1
1
1
1
1
1
1.00002
1.00126
1.07512
3.47688
7.92163
8.29544
8.20086
8.09034
7.99139
7.87132
7.74656
7.6253
7.49796
7.36762
7.2286
7.08667
6.93559
6.79456
6.6212
6.48724
6.30506
6.17681
1
1
1
1
1
1
1
1
1
1
1
1
1
1
1
1
1
1
1
1
1
1
1
1
1
1
1
1
1
1
1
1
1
1
1
1
1
1
1
1
1
1
1
1
1
1
1
1
1
1
1
1
1
1
1
1
1
1
1
1
1
1
1
1
1
1
1
1
1
1
1
1
1
1
1
1.0001
1.00669
1.33645
5.86028
8.17222
8.14306
8.05479
7.95063
7.84519
7.73392
7.61883
7.49416
7.3636
7.22815
7.08283
6.93708
6.79119
6.62722
6.49723
6.32005
6.19952
1
1
1
1
1
1
1
1
1
1
1
1
1
1
1
1
1
1
1
1
1
1
1
1
1
1
1
1
1
1
1
1
1
1
1
1
1
1
1
1
1
1
1
1
1
1
1
1
1
1
1
1
1
1
1
1
1
1
1
1
1
1
1
1
1
1
1
1
1
1
1
1
1
1
1
1.00001
1.00054
1.03533
2.39206
7.31021
8.15851
8.07302
7.94825
7.84902
7.74015
7.61101
7.47773
7.34722
7.22101
7.07631
6.93521
6.78206
6.6337
6.50206
6.33396
6.21534
1
1
1
1
1
1
1
1
1
1
1
1
1
1
1
1
1
1
1
1
1
1
1
1
1
1
1
1
1
1
1
1
1
1
1
1
1
1
1
1
1
1
1
1
1
1
1
1
1
1
1
1
1
1
1
1
1
1
1
1
1
1
1
1
1
1
1
1
1
1
1
1
1
1
1
1
1.00004
1.00293
1.15563
4.42353
7.97736
7.99404
7.90653
7.83807
7.73691
7.60153
7.47651
7.35277
7.22867
7.08112
6.93656
6.77906
6.64934
6.50621
6.35591
6.2263
1
1
1
1
1
1
1
1
1
1
1
1
1
1
1
1
1
1
1
1
1
1
1
1
1
1
1
1
1
1
1
1
1
1
1
1
1
1
1
1
1
1
1
1
1
1
1
1
1
1
1
1
1
1
1
1
1
1
1
1
1
1
1
1
1
1
1
1
1
1
1
1
1
1
1
1
1
1.0002
1.01337
1.59296
6.26534
7.89566
7.91706
7.87692
7.72873
7.582
7.46381
7.35823
7.23786
7.09237
6.93988
6.79029
6.67388
6.51773
6.38297
6.2215
1
1
1
1
1
1
1
1
1
1
1
1
1
1
1
1
1
1
1
1
1
1
1
1
1
1
1
1
1
1
1
1
1
1
1
1
1
1
1
1
1
1
1
1
1
1
1
1
1
1
1
1
1
1
1
1
1
1
1
1
1
1
1
1
1
1
1
1
1
1
1
1
1
1
1
1
1
1.00001
1.00093
1.05577
2.69174
7.37017
7.97047
7.90213
7.7008
7.56619
7.46797
7.36974
7.24136
7.0917
6.94119
6.81204
6.70236
6.5335
6.40698
6.22119
1
1
1
1
1
1
1
1
1
1
1
1
1
1
1
1
1
1
1
1
1
1
1
1
1
1
1
1
1
1
1
1
1
1
1
1
1
1
1
1
1
1
1
1
1
1
1
1
1
1
1
1
1
1
1
1
1
1
1
1
1
1
1
1
1
1
1
1
1
1
1
1
1
1
1
1
1
1
1.00006
1.00388
1.19069
4.7676
7.62295
7.75053
7.60799
7.51202
7.46628
7.3685
7.2365
7.08474
6.95196
6.83953
6.73121
6.54747
6.4162
6.23303
1
1
1
1
1
1
1
1
1
1
1
1
1
1
1
1
1
1
1
1
1
1
1
1
1
1
1
1
1
1
1
1
1
1
1
1
1
1
1
1
1
1
1
1
1
1
1
1
1
1
1
1
1
1
1
1
1
1
1
1
1
1
1
1
1
1
1
1
1
1
1
1
1
1
1
1
1
1
1
1.00025
1.01686
1.69242
6.34275
7.5483
7.54186
7.55364
7.5212
7.3652
7.21182
7.05694
6.95618
6.85401
6.74407
6.55366
6.41539
6.24896
1
1
1
1
1
1
1
1
1
1
1
1
1
1
1
1
1
1
1
1
1
1
1
1
1
1
1
1
1
1
1
1
1
1
1
1
1
1
1
1
1
1
1
1
1
1
1
1
1
1
1
1
1
1
1
1
1
1
1
1
1
1
1
1
1
1
1
1
1
1
1
1
1
1
1
1
1
1
1
1.00002
1.00115
1.06543
2.85791
6.86971
7.65355
7.64017
7.55307
7.3627
7.19304
7.05575
6.97935
6.87517
6.74241
6.55054
6.40839
6.26344
1
1
1
1
1
1
1
1
1
1
1
1
1
1
1
1
1
1
1
1
1
1
1
1
1
1
1
1
1
1