/*--------------------------------*- C++ -*----------------------------------*\
| =========                 |                                                 |
| \\      /  F ield         | OpenFOAM: The Open Source CFD Toolbox           |
|  \\    /   O peration     | Version:  v1812                                 |
|   \\  /    A nd           | Web:      www.OpenFOAM.com                      |
|    \\/     M anipulation  |                                                 |
\*---------------------------------------------------------------------------*/
FoamFile
{
    version     2.0;
    format      ascii;
    class       surfaceScalarField;
    location    "0.6";
    object      phi;
}
// * * * * * * * * * * * * * * * * * * * * * * * * * * * * * * * * * * * * * //

dimensions      [1 0 -1 0 0 0 0];
oriented        oriented;


internalField   nonuniform List<scalar> 
128384
(
0.00262501
1.62136e-19
0.00262501
-2.76681e-19
0.00262501
-7.44205e-20
0.00262501
1.33756e-18
0.00262501
4.31705e-19
0.00262501
-9.74683e-20
0.00262501
1.03437e-18
0.00262501
-8.12559e-19
0.00262501
-1.30057e-18
0.00262501
-1.25296e-19
0.00262501
3.04553e-19
0.00262501
1.22827e-18
0.00262501
5.25921e-19
0.00262501
2.21042e-18
0.00262501
-6.71781e-19
0.00262501
5.67373e-19
0.00262501
7.73397e-19
0.00262501
-5.04255e-19
0.00262501
-4.48167e-20
0.00262501
-9.04187e-19
0.00262501
5.14248e-19
0.00262501
6.4933e-19
0.00262501
5.25632e-19
0.00262501
2.07535e-18
0.00262501
-5.77623e-19
0.00262501
8.95473e-19
0.00262501
1.10513e-18
0.00262501
-8.83632e-19
0.00262501
-4.24477e-19
0.00262501
9.26043e-19
0.00262501
-1.14449e-18
0.00262501
1.14478e-18
0.00262501
4.06481e-19
0.00262501
7.48078e-19
0.00262501
-8.69836e-19
0.00262501
-3.39564e-19
0.00262501
-1.75473e-19
0.00262501
1.76986e-19
0.00262501
-6.18728e-20
0.00262501
-9.12492e-19
0.00262501
4.17837e-19
0.00262501
-6.17465e-19
0.00262501
-3.41214e-19
0.00262501
2.94906e-19
0.00262501
-1.36294e-19
0.00262501
-6.73861e-19
0.00262501
-8.10509e-19
0.00262501
-5.81713e-19
0.00262501
-8.05219e-19
0.00262501
3.94075e-19
0.00262501
7.78152e-19
0.00262501
5.17022e-19
0.00262501
4.07936e-18
0.00262501
1.10754e-16
0.00262501
-4.16436e-15
0.00262501
6.17195e-13
0.00262501
-7.11846e-11
0.00262485
-3.94799e-09
0.00261619
-1.06084e-06
0.00233594
3.08665e-05
0.00239769
-9.97351e-05
0.0025085
-5.4908e-05
0.00246407
6.5054e-05
0.00224505
0.000184485
0.0020294
0.000166669
0.00196611
6.23322e-05
0.00198041
-1.94628e-06
0.00202185
-4.87938e-06
0.00202074
2.17828e-05
0.00195788
7.34194e-05
0.0018698
8.6602e-05
0.00180005
7.03394e-05
0.00173254
7.13867e-05
0.00163878
9.70365e-05
0.00150783
0.000131035
0.00139781
0.000103881
0.00132396
7.46e-05
0.00126588
6.15046e-05
0.00120165
6.25377e-05
0.00112658
6.58092e-05
0.0010401
6.87709e-05
0.000941302
7.57673e-05
0.000832318
8.80316e-05
0.000721348
9.81016e-05
0.000623654
9.57901e-05
0.000545678
8.62592e-05
0.000483062
7.75947e-05
0.00042903
7.11015e-05
0.000374917
6.63596e-05
0.00031437
6.38052e-05
0.000251433
6.11869e-05
0.000191958
5.62806e-05
0.000132907
5.2157e-05
7.66085e-05
4.63357e-05
2.92087e-05
3.66384e-05
1.99007e-05
0.00262501
1.82112e-19
0.00262501
-4.10707e-19
0.00262501
-1.19319e-19
0.00262501
-4.82832e-19
0.00262501
-8.07417e-19
0.00262501
-4.90498e-20
0.00262501
-8.93718e-19
0.00262501
-2.6514e-19
0.00262501
-5.55115e-20
0.00262501
8.30491e-19
0.00262501
4.1263e-19
0.00262501
4.25359e-19
0.00262501
-4.60028e-19
0.00262501
-8.42524e-19
0.00262501
4.19824e-19
0.00262501
-3.24544e-19
0.00262501
-2.91524e-19
0.00262501
5.34533e-19
0.00262501
9.83113e-20
0.00262501
8.51763e-19
0.00262501
6.36849e-19
0.00262501
-6.48703e-19
0.00262501
3.13806e-19
0.00262501
-6.26728e-19
0.00262501
4.09047e-19
0.00262501
-1.94507e-18
0.00262501
-8.78031e-19
0.00262501
-3.16547e-19
0.00262501
1.04559e-18
0.00262501
1.54895e-18
0.00262501
1.34701e-18
0.00262501
2.91786e-19
0.00262501
1.35713e-18
0.00262501
2.24666e-19
0.00262501
-2.72168e-20
0.00262501
-1.58952e-19
0.00262501
2.72052e-19
0.00262501
7.94774e-19
0.00262501
-8.58434e-19
0.00262501
5.88923e-19
0.00262501
-1.17329e-19
0.00262501
5.85714e-19
0.00262501
1.06896e-18
0.00262501
5.16641e-19
0.00262501
3.75888e-20
0.00262501
7.20786e-19
0.00262501
7.61857e-19
0.00262501
5.32878e-19
0.00262501
7.06279e-19
0.00262501
-9.0269e-19
0.00262501
-7.57552e-19
0.00262501
4.04451e-19
0.00262501
1.39266e-17
0.00262501
1.49946e-15
0.00262501
1.16629e-13
0.00262501
1.04041e-11
0.00262501
7.74514e-10
0.00262477
6.91335e-08
0.00260867
5.22254e-06
0.00201655
0.000371108
0.00176434
9.14151e-05
0.00179719
-5.24966e-05
0.00180123
6.38166e-05
0.00178064
0.00017128
0.00174709
0.00018808
0.00171362
0.000111133
0.00169227
3.96483e-05
0.00168097
3.01087e-05
0.0016559
6.06695e-05
0.00162628
0.00010676
0.00160767
0.000109592
0.00159084
9.05615e-05
0.00157546
9.13636e-05
0.00155424
0.000121694
0.00151959
0.000166058
0.00145616
0.000168809
0.00139883
0.000136995
0.00134867
0.000117092
0.00128711
0.000122759
0.00120647
0.00013678
0.00110935
0.000147645
0.00100437
0.000157282
0.000901275
0.000170103
0.000806191
0.00018089
0.000718483
0.000182085
0.00063461
0.000178209
0.000555741
0.000170616
0.000485838
0.000157706
0.000421565
0.000142773
0.000357178
0.000131321
0.000294285
0.000121901
0.000236167
0.000110668
0.000179268
0.000102063
0.000119749
9.61756e-05
5.50067e-05
9.04318e-05
6.50907e-05
0.00262501
1.44272e-19
0.00262501
8.44945e-19
0.00262501
-7.22207e-19
0.00262501
-8.68537e-19
0.00262501
-3.31175e-19
0.00262501
-6.07609e-19
0.00262501
9.02405e-20
0.00262501
7.08711e-19
0.00262501
1.42637e-18
0.00262501
3.32827e-19
0.00262501
1.90561e-18
0.00262501
1.9296e-19
0.00262501
7.28342e-19
0.00262501
2.65228e-19
0.00262501
1.12243e-18
0.00262501
-3.0121e-19
0.00262501
-6.29736e-19
0.00262501
-2.18461e-19
0.00262501
2.51251e-19
0.00262501
1.16027e-18
0.00262501
4.93884e-20
0.00262501
7.85344e-20
0.00262501
-1.75724e-18
0.00262501
-5.67038e-19
0.00262501
-7.11082e-19
0.00262501
-3.58254e-19
0.00262501
5.4317e-19
0.00262501
-6.14366e-19
0.00262501
-1.48308e-18
0.00262501
-4.84654e-19
0.00262501
-1.0224e-18
0.00262501
6.7994e-19
0.00262501
1.88697e-18
0.00262501
1.37619e-19
0.00262501
-1.09761e-18
0.00262501
-4.44959e-19
0.00262501
-6.97611e-19
0.00262501
-3.56384e-19
0.00262501
7.16754e-19
0.00262501
-3.27632e-19
0.00262501
-1.46093e-19
0.00262501
1.15289e-18
0.00262501
7.22429e-19
0.00262501
1.76564e-18
0.00262501
1.96915e-18
0.00262501
2.56611e-18
0.00262501
1.83314e-18
0.00262501
5.44108e-19
0.00262501
-5.10225e-19
0.00262501
6.86547e-19
0.00262501
-1.6658e-20
0.00262501
-3.08008e-20
0.00262501
-5.2837e-18
0.00262501
-8.16859e-16
0.00262501
-9.17847e-14
0.00262501
-7.92728e-12
0.00262501
-8.12569e-10
0.00262499
-6.64399e-08
0.00262729
-6.394e-06
0.00299601
-0.000264696
0.00297625
8.29029e-05
0.00287108
6.7622e-05
0.00266247
0.000203273
0.0024568
0.000295538
0.00236547
0.000271745
0.0023214
0.000178189
0.00230263
9.67069e-05
0.00226525
9.58102e-05
0.00219308
0.00014844
0.00208667
0.000200631
0.00198421
0.000199245
0.00190154
0.000173135
0.0018206
0.000173858
0.00173809
0.000205548
0.00165658
0.000247129
0.00158784
0.000238838
0.0015242
0.000203085
0.0014571
0.000186258
0.00138276
0.000193632
0.00130152
0.000207057
0.00121603
0.000214506
0.00112927
0.00022093
0.00104705
0.000231134
0.000973919
0.000240991
0.000898815
0.000254863
0.000817316
0.00026689
0.000732854
0.000267914
0.000651406
0.000255023
0.000571928
0.000234498
0.000490906
0.000215738
0.000410602
0.000198748
0.000335552
0.0001793
0.000265028
0.00016489
0.000188881
0.000162598
9.6098e-05
0.000172
0.00015059
0.00262501
2.60789e-19
0.00262501
1.31554e-19
0.00262501
1.46677e-19
0.00262501
-3.08927e-19
0.00262501
-5.74359e-19
0.00262501
-5.12507e-20
0.00262501
5.99394e-19
0.00262501
-7.03735e-19
0.00262501
-9.20378e-19
0.00262501
-1.91201e-18
0.00262501
1.03564e-19
0.00262501
4.88779e-19
0.00262501
9.51854e-19
0.00262501
2.09575e-19
0.00262501
-8.94979e-19
0.00262501
1.54767e-19
0.00262501
4.77504e-19
0.00262501
3.37426e-19
0.00262501
5.22791e-19
0.00262501
3.29463e-19
0.00262501
2.99461e-19
0.00262501
6.16679e-19
0.00262501
1.28671e-19
0.00262501
-2.06035e-19
0.00262501
-1.42094e-18
0.00262501
3.50907e-19
0.00262501
-3.44233e-20
0.00262501
5.21985e-19
0.00262501
1.52088e-18
0.00262501
3.33012e-19
0.00262501
7.68982e-19
0.00262501
9.72717e-19
0.00262501
1.12309e-19
0.00262501
1.00353e-18
0.00262501
3.15335e-19
0.00262501
-8.6331e-19
0.00262501
-9.62249e-19
0.00262501
-2.05504e-18
0.00262501
-1.58177e-18
0.00262501
-4.60899e-19
0.00262501
5.89646e-19
0.00262501
1.34504e-19
0.00262501
2.34733e-18
0.00262501
1.70343e-18
0.00262501
1.62527e-18
0.00262501
4.53011e-19
0.00262501
2.78818e-19
0.00262501
1.30911e-18
0.00262501
1.19706e-18
0.00262501
-9.35185e-19
0.00262501
-6.11286e-19
0.00262501
5.46224e-19
0.00262501
3.0129e-17
0.00262501
2.16483e-15
0.00262501
1.57027e-13
0.00262501
1.23617e-11
0.002625
9.14647e-10
0.00262469
7.45e-08
0.00260228
5.58657e-06
0.00163405
0.000445493
0.0013729
0.000285118
0.00145184
4.34946e-05
0.00155421
9.32081e-05
0.00161917
0.000221941
0.00163149
0.000250194
0.00164628
0.000180189
0.0016723
9.87926e-05
0.00170134
9.04655e-05
0.00168887
0.00016969
0.00165717
0.000228893
0.00162073
0.000227152
0.00158667
0.000200416
0.00154982
0.000208292
0.00150671
0.000249576
0.00146432
0.000291213
0.00142307
0.000281221
0.00137955
0.000245536
0.00133289
0.000234367
0.0012769
0.000245598
0.00121421
0.000258984
0.00114725
0.000263027
0.00107857
0.000266402
0.00101065
0.00027755
0.000944947
0.000293584
0.000879004
0.000319009
0.000810864
0.000342596
0.000741287
0.000350342
0.000671064
0.000340334
0.000597345
0.000320221
0.000517066
0.000299775
0.000433415
0.000277838
0.000351417
0.000252283
0.000273364
0.000234438
0.000190468
0.000235871
9.49044e-05
0.000256419
0.000235324
0.00262501
-1.84341e-20
0.00262501
1.65761e-19
0.00262501
3.28044e-19
0.00262501
3.79775e-19
0.00262501
-2.84402e-19
0.00262501
1.81875e-19
0.00262501
-6.89158e-19
0.00262501
-8.53001e-19
0.00262501
9.96014e-19
0.00262501
1.34048e-18
0.00262501
-1.7348e-19
0.00262501
7.71526e-20
0.00262501
-1.47739e-18
0.00262501
-2.33541e-18
0.00262501
-1.75924e-18
0.00262501
2.12606e-19
0.00262501
1.06029e-18
0.00262501
4.31986e-19
0.00262501
1.3703e-19
0.00262501
-6.15454e-19
0.00262501
4.4672e-19
0.00262501
1.51336e-19
0.00262501
3.16557e-20
0.00262501
1.32365e-19
0.00262501
1.08827e-18
0.00262501
-7.14704e-19
0.00262501
1.02285e-19
0.00262501
9.8821e-19
0.00262501
5.36523e-19
0.00262501
1.0147e-18
0.00262501
-7.51085e-19
0.00262501
-1.79021e-19
0.00262501
-7.34002e-19
0.00262501
-1.6207e-20
0.00262501
1.30755e-18
0.00262501
-5.01204e-19
0.00262501
-1.51905e-18
0.00262501
1.36649e-19
0.00262501
9.18442e-19
0.00262501
5.42448e-19
0.00262501
1.50055e-18
0.00262501
4.21604e-19
0.00262501
4.96115e-19
0.00262501
2.46725e-18
0.00262501
4.65201e-19
0.00262501
1.20279e-18
0.00262501
8.50601e-19
0.00262501
2.6484e-20
0.00262501
1.20602e-19
0.00262501
-1.5419e-19
0.00262501
1.47409e-18
0.00262501
1.36734e-18
0.00262501
1.58431e-17
0.00262501
1.11576e-15
0.00262501
6.68318e-14
0.00262501
4.52047e-12
0.00262501
2.35094e-10
0.0026249
1.60879e-08
0.00261871
6.65858e-07
0.00247792
0.000279193
0.00246901
0.000309279
0.00243435
0.000152989
0.00218852
0.000271568
0.00194667
0.000383551
0.00182614
0.000362098
0.00177415
0.000264288
0.00174622
0.000171668
0.00168784
0.000170703
0.00162237
0.000237752
0.00153964
0.000293941
0.00147471
0.000284428
0.00142347
0.000247463
0.0013827
0.000248168
0.00133007
0.000303437
0.00127717
0.000345692
0.00123557
0.000327106
0.00119929
0.000287193
0.00115998
0.000276237
0.00111524
0.000286547
0.00106548
0.000296796
0.00101117
0.000297375
0.000955718
0.000298052
0.000902683
0.00030974
0.000850909
0.000333513
0.000799544
0.000369724
0.000748391
0.00040209
0.000696989
0.000414889
0.000644501
0.000408222
0.00058517
0.000391438
0.000514252
0.000373974
0.00043498
0.00035125
0.000352967
0.000322975
0.000273961
0.000303852
0.000190993
0.000308901
9.63172e-05
0.000339764
0.000322069
0.00262501
-1.1713e-18
0.00262501
1.98059e-19
0.00262501
3.04169e-19
0.00262501
4.19935e-19
0.00262501
4.47595e-19
0.00262501
1.18161e-20
0.00262501
-8.31061e-19
0.00262501
-4.93416e-19
0.00262501
-7.33953e-19
0.00262501
-2.05804e-19
0.00262501
-9.16073e-20
0.00262501
-2.28456e-18
0.00262501
-2.31461e-18
0.00262501
5.38966e-19
0.00262501
5.61089e-19
0.00262501
-1.01052e-19
0.00262501
3.63495e-19
0.00262501
3.82623e-19
0.00262501
1.57461e-18
0.00262501
4.48012e-19
0.00262501
-4.17684e-20
0.00262501
4.56865e-20
0.00262501
1.0272e-18
0.00262501
-6.72987e-19
0.00262501
-1.32324e-18
0.00262501
3.08206e-19
0.00262501
-1.19039e-18
0.00262501
3.02311e-20
0.00262501
2.13825e-19
0.00262501
-3.60149e-19
0.00262501
2.62108e-19
0.00262501
4.38932e-19
0.00262501
1.1081e-18
0.00262501
-1.37268e-18
0.00262501
-1.32754e-19
0.00262501
3.65404e-19
0.00262501
8.25157e-19
0.00262501
4.15843e-19
0.00262501
-4.53172e-19
0.00262501
-1.99015e-19
0.00262501
-5.78865e-19
0.00262501
1.47658e-18
0.00262501
4.01552e-20
0.00262501
-1.54076e-18
0.00262501
6.47974e-19
0.00262501
-7.70742e-20
0.00262501
1.36273e-18
0.00262501
6.34195e-19
0.00262501
-1.4161e-18
0.00262501
7.40422e-19
0.00262501
6.09531e-20
0.00262501
1.78939e-18
0.00262501
7.89165e-18
0.00262501
4.66828e-16
0.00262501
3.19862e-14
0.00262501
2.49328e-12
0.00262501
1.54516e-10
0.00262488
1.348e-08
0.00261608
8.47553e-07
0.00247014
0.000164255
0.00243835
0.000289271
0.00245835
0.00016638
0.00239366
0.00028971
0.00225789
0.000450494
0.00218342
0.000451941
0.00212921
0.000361215
0.00208331
0.000262518
0.00200915
0.000268432
0.00189691
0.000351541
0.00174711
0.000419937
0.00161117
0.000407052
0.00149606
0.000358424
0.00139682
0.000347082
0.0013134
0.000386062
0.00125281
0.000404826
0.00120896
0.000376252
0.00117115
0.000332174
0.00113249
0.000319014
0.00108639
0.000328211
0.00102967
0.000339231
0.000962229
0.000343995
0.00089027
0.000347184
0.000823391
0.000357712
0.000764994
0.000381829
0.00071729
0.000417718
0.000678183
0.000450274
0.000642602
0.000463954
0.000605573
0.000460273
0.000559556
0.000448997
0.000498603
0.000437828
0.000424883
0.00041854
0.0003445
0.00039161
0.000265422
0.000373081
0.000183337
0.00038091
9.2333e-05
0.000419477
0.000405835
0.00262501
9.20108e-19
0.00262501
-2.40129e-18
0.00262501
-1.5523e-18
0.00262501
-7.63231e-19
0.00262501
-2.1546e-19
0.00262501
-3.73327e-19
0.00262501
2.46701e-19
0.00262501
-3.56798e-19
0.00262501
-9.09749e-19
0.00262501
-7.35817e-19
0.00262501
-2.04371e-18
0.00262501
-6.91907e-20
0.00262501
1.5105e-18
0.00262501
-4.76051e-19
0.00262501
2.70623e-19
0.00262501
-2.68514e-19
0.00262501
-2.34097e-19
0.00262501
-4.56166e-19
0.00262501
-7.69084e-19
0.00262501
2.68511e-19
0.00262501
-1.843e-19
0.00262501
-9.69877e-19
0.00262501
-1.23504e-18
0.00262501
5.38211e-19
0.00262501
-2.06924e-19
0.00262501
-1.28131e-18
0.00262501
3.30542e-19
0.00262501
-9.83382e-19
0.00262501
1.19355e-18
0.00262501
2.54867e-18
0.00262501
1.22128e-19
0.00262501
-5.30997e-19
0.00262501
-2.87778e-18
0.00262501
-5.76071e-19
0.00262501
-2.29075e-18
0.00262501
-1.3614e-18
0.00262501
-5.71776e-19
0.00262501
-2.4746e-19
0.00262501
1.32631e-18
0.00262501
7.60975e-19
0.00262501
-1.06429e-18
0.00262501
-1.39779e-19
0.00262501
-1.91353e-18
0.00262501
3.02606e-20
0.00262501
-9.55365e-20
0.00262501
9.30091e-19
0.00262501
1.832e-19
0.00262501
-2.58787e-20
0.00262501
6.51507e-19
0.00262501
1.46082e-18
0.00262501
1.10048e-18
0.00262501
1.32411e-18
0.00262501
4.33841e-18
0.00262501
2.12139e-16
0.00262501
1.29243e-14
0.00262501
7.96296e-13
0.00262501
4.58375e-11
0.00262491
2.4661e-09
0.00261806
1.32558e-07
0.00246285
6.59326e-05
0.00245416
0.000259231
0.00245632
0.000175638
0.00236416
0.00032004
0.00226004
0.000509503
0.00221963
0.00052462
0.0021777
0.000442331
0.00213161
0.000345172
0.00207844
0.00034819
0.00201167
0.000423874
0.00191172
0.00049755
0.00181763
0.000485257
0.00171886
0.000446516
0.00161877
0.000443538
0.00152101
0.000480659
0.00142649
0.000497012
0.00134812
0.000461376
0.00127749
0.000411284
0.00120885
0.000391808
0.00113759
0.000394095
0.00105991
0.000402151
0.000972975
0.00041035
0.000880247
0.000418557
0.000792838
0.000427594
0.000720863
0.000444612
0.00066938
0.000470476
0.000633462
0.000496068
0.000604255
0.000507393
0.000573907
0.000505761
0.000534341
0.000499982
0.000478825
0.000496095
0.000408228
0.0004823
0.000329211
0.000458715
0.000250722
0.000441928
0.000170951
0.000451033
8.53622e-05
0.000494418
0.000482924
0.00262501
-8.7307e-20
0.00262501
8.64567e-19
0.00262501
1.63436e-18
0.00262501
1.36537e-20
0.00262501
-3.02707e-20
0.00262501
-8.17441e-19
0.00262501
6.60116e-20
0.00262501
1.87567e-18
0.00262501
1.83353e-18
0.00262501
-1.84148e-18
0.00262501
-1.22676e-18
0.00262501
-1.9729e-18
0.00262501
-1.23535e-18
0.00262501
3.08799e-19
0.00262501
-7.39491e-22
0.00262501
-1.10697e-20
0.00262501
-8.3751e-19
0.00262501
1.08228e-18
0.00262501
-7.22989e-19
0.00262501
-1.49044e-18
0.00262501
-1.01807e-18
0.00262501
-7.9473e-19
0.00262501
-1.19233e-18
0.00262501
-8.80101e-19
0.00262501
5.56734e-19
0.00262501
5.11024e-19
0.00262501
-7.61954e-19
0.00262501
-1.24418e-19
0.00262501
-1.47041e-18
0.00262501
-2.11253e-18
0.00262501
5.45429e-19
0.00262501
5.12931e-19
0.00262501
1.57251e-19
0.00262501
-1.67736e-18
0.00262501
-1.23082e-19
0.00262501
-8.97372e-19
0.00262501
-1.43477e-18
0.00262501
1.28426e-18
0.00262501
2.17789e-18
0.00262501
1.28666e-18
0.00262501
1.72017e-18
0.00262501
3.73271e-19
0.00262501
8.80908e-19
0.00262501
4.95319e-19
0.00262501
2.17575e-19
0.00262501
-5.32082e-19
0.00262501
-1.3214e-18
0.00262501
-5.83391e-19
0.00262501
9.76794e-19
0.00262501
-2.50065e-19
0.00262501
1.05958e-18
0.00262501
1.16699e-18
0.00262501
6.89777e-18
0.00262501
4.23057e-16
0.00262501
3.10786e-14
0.00262501
2.30221e-12
0.00262501
1.79796e-10
0.0026249
1.32345e-08
0.00261682
1.13138e-06
0.00230626
0.000136695
0.00224031
0.000281135
0.0022723
0.000138861
0.0022169
0.000337001
0.00214037
0.000564333
0.00210996
0.000589175
0.00207683
0.000512243
0.00203331
0.000415897
0.00198623
0.00040994
0.00192909
0.00048047
0.00185567
0.000548876
0.00178788
0.00053823
0.00173051
0.00049799
0.00168186
0.000491813
0.00162981
0.000531785
0.00156045
0.000565605
0.00148068
0.000545242
0.00139227
0.000505868
0.0012943
0.000491806
0.00118944
0.00049126
0.00108342
0.000491669
0.000979313
0.000493761
0.000879636
0.000497824
0.000788621
0.000502239
0.000713371
0.000511479
0.000658878
0.000526985
0.000621636
0.000543998
0.000591584
0.000552436
0.00055975
0.000552668
0.000518714
0.000552062
0.000462448
0.000554879
0.000390852
0.000546546
0.000311795
0.000526038
0.000234049
0.000510772
0.00015797
0.000518436
7.85084e-05
0.000564399
0.000552267
0.00262501
9.06069e-20
0.00262501
-7.86756e-19
0.00262501
-6.89146e-19
0.00262501
7.51995e-19
0.00262501
-1.48264e-19
0.00262501
1.19227e-18
0.00262501
-9.77819e-19
0.00262501
-1.07667e-18
0.00262501
-1.60994e-18
0.00262501
1.18457e-18
0.00262501
7.34034e-19
0.00262501
-3.28469e-19
0.00262501
5.17936e-19
0.00262501
1.64919e-18
0.00262501
-1.11442e-19
0.00262501
-8.5365e-19
0.00262501
1.29749e-19
0.00262501
-9.83295e-19
0.00262501
-2.23e-18
0.00262501
-1.05075e-18
0.00262501
-2.25072e-18
0.00262501
-7.29821e-20
0.00262501
5.54218e-20
0.00262501
-4.81548e-19
0.00262501
1.77365e-18
0.00262501
-8.37017e-19
0.00262501
-1.05545e-18
0.00262501
3.04926e-19
0.00262501
-8.92362e-19
0.00262501
-7.67999e-19
0.00262501
-2.43117e-19
0.00262501
4.35923e-19
0.00262501
3.0358e-19
0.00262501
1.62108e-18
0.00262501
1.01445e-19
0.00262501
9.90042e-19
0.00262501
4.23738e-19
0.00262501
-9.35116e-19
0.00262501
5.97159e-20
0.00262501
1.59047e-18
0.00262501
8.82841e-19
0.00262501
1.18243e-18
0.00262501
1.30779e-18
0.00262501
-3.36484e-19
0.00262501
-1.36789e-18
0.00262501
2.61388e-20
0.00262501
-5.3032e-19
0.00262501
-7.03813e-19
0.00262501
-1.66059e-18
0.00262501
-1.0731e-18
0.00262501
-1.4062e-19
0.00262501
1.34877e-18
0.00262501
4.93914e-18
0.00262501
2.87188e-16
0.00262501
2.178e-14
0.00262501
1.6058e-12
0.00262501
1.12361e-10
0.00262494
7.0535e-09
0.0026206
5.1519e-07
0.00247626
7.97616e-05
0.00246698
0.000199815
0.0024176
0.000190355
0.00219979
0.000494071
0.00205535
0.000699386
0.0020057
0.000671044
0.00199624
0.000562154
0.00196894
0.000464117
0.00193103
0.000459647
0.00187336
0.000528561
0.00181082
0.000589265
0.00176149
0.000580732
0.00171852
0.000536546
0.00168019
0.000530183
0.00163764
0.000573325
0.00158277
0.000619305
0.00151668
0.00061395
0.0014379
0.000589163
0.00134688
0.000584348
0.00124451
0.000586926
0.00113611
0.000584565
0.00102791
0.000582481
0.000924877
0.000582059
0.000830368
0.000581903
0.000750361
0.000584089
0.000689627
0.000589968
0.00064563
0.000598372
0.000608524
0.000604052
0.000569478
0.000606198
0.000521362
0.000610458
0.000459166
0.000619011
0.0003829
0.000615373
0.000301796
0.000596373
0.000223655
0.000581206
0.000151376
0.000583097
7.6303e-05
0.00063038
0.000618438
0.00262501
1.57942e-18
0.00262501
1.08192e-18
0.00262501
5.88733e-20
0.00262501
-3.47389e-19
0.00262501
3.78131e-19
0.00262501
-2.18498e-20
0.00262501
1.9255e-18
0.00262501
-3.01796e-20
0.00262501
-1.13358e-19
0.00262501
9.03215e-20
0.00262501
-1.29863e-20
0.00262501
1.33326e-18
0.00262501
-1.01303e-18
0.00262501
-1.39905e-18
0.00262501
-2.92405e-19
0.00262501
-5.06611e-19
0.00262501
-2.55892e-19
0.00262501
-4.47316e-19
0.00262501
1.37843e-18
0.00262501
1.22658e-18
0.00262501
9.19314e-19
0.00262501
-8.04731e-19
0.00262501
-1.74773e-19
0.00262501
2.62101e-20
0.00262501
-1.29472e-18
0.00262501
-1.78705e-18
0.00262501
9.68826e-19
0.00262501
-4.28777e-19
0.00262501
5.4893e-19
0.00262501
-5.71772e-19
0.00262501
-6.37393e-19
0.00262501
-1.30324e-18
0.00262501
1.54578e-18
0.00262501
-2.31137e-18
0.00262501
-1.02481e-18
0.00262501
-1.79536e-18
0.00262501
9.10916e-20
0.00262501
1.11912e-19
0.00262501
3.1677e-19
0.00262501
-2.73765e-19
0.00262501
5.8384e-19
0.00262501
1.62803e-18
0.00262501
1.1931e-19
0.00262501
5.17421e-19
0.00262501
4.41659e-19
0.00262501
-7.78694e-19
0.00262501
-7.36845e-19
0.00262501
1.18624e-18
0.00262501
6.21305e-20
0.00262501
9.05624e-20
0.00262501
9.41207e-19
0.00262501
1.99724e-18
0.00262501
4.19612e-18
0.00262501
1.21521e-16
0.00262501
9.85984e-15
0.00262501
9.37472e-13
0.00262501
6.62052e-11
0.00262496
5.59734e-09
0.00262141
4.30508e-07
0.00249388
5.48687e-05
0.00255792
8.68564e-06
0.0023987
0.000261131
0.00215541
0.000685173
0.00205604
0.000802238
0.00201524
0.000743275
0.00201383
0.000609373
0.00198578
0.000507796
0.00194469
0.000511056
0.00187343
0.000584082
0.00180588
0.000637387
0.00175753
0.000626087
0.00171144
0.000578948
0.00166917
0.000571996
0.00162313
0.000617655
0.00157144
0.000668766
0.00151847
0.000669208
0.00145969
0.000651452
0.00139085
0.000654241
0.00130525
0.000665963
0.0012067
0.000668568
0.00110386
0.000666685
0.00100273
0.000665396
0.000906792
0.000664045
0.000820986
0.000663192
0.000750439
0.000662801
0.000693969
0.000664889
0.000643826
0.000668312
0.000592291
0.000671718
0.000533289
0.000678979
0.00046279
0.000690936
0.000381012
0.000689757
0.000297343
0.000670176
0.000218186
0.000653822
0.000149453
0.000644651
7.77439e-05
0.000691952
0.000686792
0.00262501
-1.23361e-18
0.00262501
-1.74456e-18
0.00262501
-1.61896e-18
0.00262501
-5.97494e-19
0.00262501
-4.01187e-20
0.00262501
-1.37276e-18
0.00262501
-1.2034e-19
0.00262501
1.48085e-18
0.00262501
-9.4297e-19
0.00262501
-3.51147e-19
0.00262501
-1.79293e-18
0.00262501
-1.57864e-18
0.00262501
-1.69114e-18
0.00262501
-1.29523e-18
0.00262501
-1.64808e-18
0.00262501
-1.53012e-18
0.00262501
-1.3471e-18
0.00262501
-1.11986e-18
0.00262501
-1.93034e-19
0.00262501
2.90306e-19
0.00262501
-1.59055e-19
0.00262501
-5.64255e-20
0.00262501
-1.26415e-18
0.00262501
1.09702e-19
0.00262501
2.03715e-19
0.00262501
7.54139e-19
0.00262501
1.65823e-19
0.00262501
3.10594e-19
0.00262501
2.17417e-19
0.00262501
6.84416e-19
0.00262501
-1.79038e-19
0.00262501
-1.13438e-19
0.00262501
-3.0711e-18
0.00262501
7.47688e-19
0.00262501
-1.5783e-18
0.00262501
-5.65873e-19
0.00262501
-5.07176e-19
0.00262501
-2.97498e-19
0.00262501
-1.6697e-18
0.00262501
4.32506e-19
0.00262501
9.21108e-19
0.00262501
5.35346e-19
0.00262501
1.16661e-18
0.00262501
-1.97889e-19
0.00262501
5.38275e-19
0.00262501
-3.59442e-19
0.00262501
4.31135e-20
0.00262501
9.92428e-19
0.00262501
1.55002e-18
0.00262501
1.66448e-18
0.00262501
1.11972e-18
0.00262501
7.98547e-19
0.00262501
-3.61983e-19
0.00262501
2.16669e-17
0.00262501
5.87146e-16
0.00262501
1.93478e-13
0.00262501
7.96117e-12
0.00262499
1.58669e-09
0.00262355
9.56672e-08
0.00258345
1.91149e-05
0.0025474
-9.49322e-05
0.00232428
0.000377806
0.00215052
0.000820146
0.0021131
0.000856731
0.00209097
0.000794265
0.00209607
0.000654708
0.00206428
0.000555529
0.00201217
0.000568007
0.0019294
0.000646861
0.0018519
0.000697708
0.00179379
0.000683188
0.00173671
0.000633302
0.00167981
0.000627541
0.00161754
0.000676059
0.00155859
0.000724126
0.00150715
0.000721628
0.00145513
0.000704636
0.00139712
0.000711398
0.00132524
0.000730654
0.00124079
0.000738671
0.00115231
0.000737548
0.00106371
0.000737446
0.000975112
0.000739801
0.000888019
0.000743993
0.000808997
0.00074367
0.000739632
0.000743211
0.000676284
0.000744554
0.000613521
0.000747232
0.000546236
0.000754683
0.00047024
0.000767816
0.000384754
0.000768072
0.000298076
0.000748141
0.000216994
0.000729712
0.000147765
0.000707776
7.84146e-05
0.000748894
0.000757436
0.00262501
-5.68237e-19
0.00262501
-2.37112e-19
0.00262501
-1.08779e-19
0.00262501
-7.8318e-19
0.00262501
4.93106e-19
0.00262501
7.73154e-19
0.00262501
-1.65127e-18
0.00262501
-1.57555e-18
0.00262501
-6.79469e-20
0.00262501
-4.3554e-20
0.00262501
1.18268e-18
0.00262501
-6.25468e-19
0.00262501
-7.27973e-19
0.00262501
-2.17133e-18
0.00262501
-5.66176e-19
0.00262501
-1.16189e-18
0.00262501
-8.23114e-19
0.00262501
-5.32661e-19
0.00262501
7.13147e-19
0.00262501
2.11205e-18
0.00262501
1.9096e-18
0.00262501
5.00167e-19
0.00262501
1.42628e-18
0.00262501
1.79124e-19
0.00262501
1.38214e-19
0.00262501
-1.61624e-19
0.00262501
7.28504e-19
0.00262501
1.17107e-19
0.00262501
2.40451e-19
0.00262501
-2.00619e-19
0.00262501
4.19871e-19
0.00262501
-3.79125e-20
0.00262501
-1.2952e-18
0.00262501
-1.7212e-18
0.00262501
2.69133e-19
0.00262501
8.30783e-19
0.00262501
-8.56459e-19
0.00262501
-1.09978e-20
0.00262501
8.37191e-19
0.00262501
-2.92396e-19
0.00262501
-9.27909e-19
0.00262501
-4.31051e-19
0.00262501
-1.09518e-18
0.00262501
-3.18602e-19
0.00262501
-3.65176e-19
0.00262501
6.56483e-20
0.00262501
8.15314e-19
0.00262501
1.37752e-18
0.00262501
1.37516e-18
0.00262501
2.26132e-18
0.00262501
2.41012e-18
0.00262501
6.3173e-19
0.00262501
1.31284e-18
0.00262501
1.54348e-17
0.00262501
-2.55335e-16
0.00262501
6.81133e-14
0.00262501
-2.80498e-12
0.00262501
3.5611e-10
0.00262487
-1.87571e-08
0.00262471
2.40506e-06
0.00249489
-0.000114855
0.00223713
0.000525647
0.00211393
0.000916333
0.00208876
0.000901111
0.00209896
0.00081953
0.00212464
0.000678715
0.00209468
0.0005955
0.00202944
0.000624387
0.00193407
0.000717386
0.00185185
0.000766825
0.00178111
0.000752913
0.00170774
0.00070485
0.00163706
0.000695286
0.00156977
0.00073786
0.00151523
0.000774901
0.00146958
0.000767523
0.0014237
0.000750807
0.00137191
0.000761558
0.00130751
0.000787709
0.0012327
0.000800198
0.00115544
0.000798927
0.00107864
0.000799676
0.00100036
0.00080693
0.000920923
0.000817483
0.000843072
0.000822426
0.000769632
0.000823744
0.000699736
0.000825401
0.000630188
0.000827833
0.000557238
0.000834878
0.000477894
0.000847748
0.000391477
0.000847762
0.000304509
0.000826734
0.000221919
0.000806563
0.000143558
0.000779512
7.27182e-05
0.000810089
0.00082079
0.00262501
1.76177e-19
0.00262501
1.66005e-19
0.00262501
-7.92292e-19
0.00262501
1.08449e-18
0.00262501
-4.37462e-19
0.00262501
8.96521e-19
0.00262501
1.74136e-18
0.00262501
7.20468e-19
0.00262501
1.58205e-20
0.00262501
-7.09084e-20
0.00262501
1.7357e-19
0.00262501
-2.21711e-18
0.00262501
-1.04233e-18
0.00262501
-8.63985e-19
0.00262501
-1.08437e-18
0.00262501
-8.19094e-19
0.00262501
-7.43802e-19
0.00262501
1.63922e-18
0.00262501
-7.15036e-19
0.00262501
-2.12008e-18
0.00262501
4.08049e-20
0.00262501
1.99699e-18
0.00262501
1.59446e-19
0.00262501
9.39827e-19
0.00262501
1.02247e-18
0.00262501
2.68375e-18
0.00262501
1.50155e-19
0.00262501
-3.0534e-19
0.00262501
-7.28682e-19
0.00262501
-3.5207e-19
0.00262501
-1.40257e-18
0.00262501
-1.00068e-18
0.00262501
-3.29288e-20
0.00262501
-6.95881e-19
0.00262501
-1.00034e-18
0.00262501
-1.49918e-18
0.00262501
2.53817e-19
0.00262501
-5.05781e-19
0.00262501
-1.05004e-18
0.00262501
-2.09291e-18
0.00262501
-1.00675e-18
0.00262501
-9.81267e-19
0.00262501
-7.91004e-19
0.00262501
1.05498e-18
0.00262501
-1.40442e-18
0.00262501
1.16338e-18
0.00262501
1.71986e-18
0.00262501
-5.93299e-19
0.00262501
1.06827e-18
0.00262501
-5.83984e-19
0.00262501
-1.42647e-18
0.00262501
1.03982e-18
0.00262501
1.70386e-18
0.00262501
1.99707e-17
0.00262501
3.81505e-16
0.00262501
8.62776e-14
0.00262501
-1.28112e-13
0.00262501
4.10236e-10
0.00262487
-7.9144e-09
0.00261802
2.14705e-06
0.00247839
-0.00011631
0.00220043
0.000702204
0.00211149
0.000983413
0.00208761
0.000948542
0.00212238
0.00082503
0.00214383
0.000684554
0.00211729
0.000627015
0.00204361
0.000680696
0.00193976
0.00079365
0.00185712
0.000842654
0.00177868
0.000831847
0.00169569
0.000787772
0.00161789
0.000769317
0.00155036
0.000798365
0.00149935
0.000821561
0.00145387
0.000811795
0.00140576
0.000798218
0.00135028
0.0008145
0.0012832
0.000846897
0.00120906
0.000862085
0.0011366
0.000858477
0.00106741
0.0008573
0.000997352
0.00086793
0.000925368
0.000884407
0.000851969
0.000895644
0.000779462
0.000901366
0.000707518
0.000906009
0.000634702
0.000909644
0.000559347
0.000916232
0.000479575
0.000927936
0.00039455
0.000926684
0.000309604
0.000903774
0.000229064
0.000881388
0.000147558
0.000854551
7.37778e-05
0.000875413
0.00088527
0.00262501
5.12037e-19
0.00262501
1.6408e-18
0.00262501
5.31048e-19
0.00262501
-3.86799e-19
0.00262501
1.30185e-18
0.00262501
-1.14695e-18
0.00262501
1.40177e-18
0.00262501
1.8882e-19
0.00262501
4.95886e-19
0.00262501