/*--------------------------------*- C++ -*----------------------------------*\
| =========                 |                                                 |
| \\      /  F ield         | OpenFOAM: The Open Source CFD Toolbox           |
|  \\    /   O peration     | Version:  v1812                                 |
|   \\  /    A nd           | Web:      www.OpenFOAM.com                      |
|    \\/     M anipulation  |                                                 |
\*---------------------------------------------------------------------------*/
FoamFile
{
    version     2.0;
    format      ascii;
    class       volScalarField;
    location    "0.6";
    object      rho;
}
// * * * * * * * * * * * * * * * * * * * * * * * * * * * * * * * * * * * * * //

dimensions      [1 -3 0 0 0 0 0];


internalField   nonuniform List<scalar> 
64512
(
1.40001
1.40001
1.40001
1.40001
1.40001
1.40001
1.40001
1.40001
1.40001
1.40001
1.40001
1.40001
1.40001
1.40001
1.40001
1.40001
1.40001
1.40001
1.40001
1.40001
1.40001
1.40001
1.40001
1.40001
1.40001
1.40001
1.40001
1.40001
1.40001
1.40001
1.40001
1.40001
1.40001
1.40001
1.40001
1.40001
1.40001
1.40001
1.40001
1.40001
1.40001
1.40001
1.40001
1.40001
1.40001
1.40001
1.40001
1.40001
1.40001
1.40001
1.40001
1.40001
1.40001
1.40001
1.40001
1.40001
1.40002
1.40081
1.45298
3.12048
5.0708
5.55988
5.66561
5.67784
5.57433
5.5376
5.60303
5.67952
5.74515
5.77176
5.77618
5.78165
5.80854
5.83386
5.84441
5.82258
5.78372
5.7792
5.78377
5.79222
5.79742
5.79727
5.78848
5.7736
5.75249
5.72174
5.6773
5.6155
5.52664
5.40117
5.26882
5.20475
5.19209
5.16707
5.0823
5.18277
1.40001
1.40001
1.40001
1.40001
1.40001
1.40001
1.40001
1.40001
1.40001
1.40001
1.40001
1.40001
1.40001
1.40001
1.40001
1.40001
1.40001
1.40001
1.40001
1.40001
1.40001
1.40001
1.40001
1.40001
1.40001
1.40001
1.40001
1.40001
1.40001
1.40001
1.40001
1.40001
1.40001
1.40001
1.40001
1.40001
1.40001
1.40001
1.40001
1.40001
1.40001
1.40001
1.40001
1.40001
1.40001
1.40001
1.40001
1.40001
1.40001
1.40001
1.40001
1.40001
1.40001
1.40001
1.40001
1.40001
1.40002
1.40084
1.45628
3.171
4.96821
5.42988
5.52311
5.51847
5.47494
5.50601
5.57515
5.63817
5.67324
5.69134
5.70334
5.73163
5.77288
5.81158
5.83373
5.82412
5.81066
5.81442
5.82102
5.82576
5.8276
5.82316
5.8116
5.79693
5.77665
5.74436
5.6968
5.63379
5.54845
5.42944
5.29424
5.21407
5.19572
5.17696
5.10058
5.15549
1.40001
1.40001
1.40001
1.40001
1.40001
1.40001
1.40001
1.40001
1.40001
1.40001
1.40001
1.40001
1.40001
1.40001
1.40001
1.40001
1.40001
1.40001
1.40001
1.40001
1.40001
1.40001
1.40001
1.40001
1.40001
1.40001
1.40001
1.40001
1.40001
1.40001
1.40001
1.40001
1.40001
1.40001
1.40001
1.40001
1.40001
1.40001
1.40001
1.40001
1.40001
1.40001
1.40001
1.40001
1.40001
1.40001
1.40001
1.40001
1.40001
1.40001
1.40001
1.40001
1.40001
1.40001
1.40001
1.40001
1.40001
1.40064
1.44023
2.81015
5.25098
5.89822
5.84493
5.7068
5.62952
5.67499
5.76572
5.84988
5.88658
5.87326
5.83234
5.83394
5.86171
5.88823
5.89648
5.88811
5.87434
5.86474
5.86282
5.86141
5.86119
5.85801
5.84898
5.83623
5.81538
5.78353
5.73624
5.67576
5.60078
5.50022
5.36913
5.253
5.20746
5.18983
5.1297
5.13579
1.40001
1.40001
1.40001
1.40001
1.40001
1.40001
1.40001
1.40001
1.40001
1.40001
1.40001
1.40001
1.40001
1.40001
1.40001
1.40001
1.40001
1.40001
1.40001
1.40001
1.40001
1.40001
1.40001
1.40001
1.40001
1.40001
1.40001
1.40001
1.40001
1.40001
1.40001
1.40001
1.40001
1.40001
1.40001
1.40001
1.40001
1.40001
1.40001
1.40001
1.40001
1.40001
1.40001
1.40001
1.40001
1.40001
1.40001
1.40001
1.40001
1.40001
1.40001
1.40001
1.40001
1.40001
1.40001
1.40001
1.40002
1.40086
1.45904
3.14894
4.67286
5.25337
5.38454
5.41831
5.41798
5.4649
5.53616
5.61937
5.6649
5.6901
5.69964
5.71281
5.74682
5.78649
5.81398
5.82166
5.80455
5.79949
5.80479
5.81251
5.8174
5.8183
5.81281
5.80506
5.79481
5.77458
5.73816
5.68685
5.62306
5.53913
5.42008
5.28411
5.20635
5.18443
5.13363
5.12833
1.40001
1.40001
1.40001
1.40001
1.40001
1.40001
1.40001
1.40001
1.40001
1.40001
1.40001
1.40001
1.40001
1.40001
1.40001
1.40001
1.40001
1.40001
1.40001
1.40001
1.40001
1.40001
1.40001
1.40001
1.40001
1.40001
1.40001
1.40001
1.40001
1.40001
1.40001
1.40001
1.40001
1.40001
1.40001
1.40001
1.40001
1.40001
1.40001
1.40001
1.40001
1.40001
1.40001
1.40001
1.40001
1.40001
1.40001
1.40001
1.40001
1.40001
1.40001
1.40001
1.40001
1.40001
1.40001
1.40001
1.40001
1.40057
1.43745
2.71253
5.07625
5.77173
5.72862
5.55203
5.46054
5.52039
5.63804
5.72425
5.75586
5.71494
5.69395
5.71044
5.73515
5.7538
5.76709
5.77482
5.776
5.78171
5.78517
5.78579
5.78567
5.78254
5.78047
5.77984
5.77668
5.76218
5.73024
5.68584
5.63208
5.55783
5.44438
5.30058
5.20905
5.18213
5.13051
5.1274
1.40001
1.40001
1.40001
1.40001
1.40001
1.40001
1.40001
1.40001
1.40001
1.40001
1.40001
1.40001
1.40001
1.40001
1.40001
1.40001
1.40001
1.40001
1.40001
1.40001
1.40001
1.40001
1.40001
1.40001
1.40001
1.40001
1.40001
1.40001
1.40001
1.40001
1.40001
1.40001
1.40001
1.40001
1.40001
1.40001
1.40001
1.40001
1.40001
1.40001
1.40001
1.40001
1.40001
1.40001
1.40001
1.40001
1.40001
1.40001
1.40001
1.40001
1.40001
1.40001
1.40001
1.40001
1.40001
1.40001
1.40001
1.40042
1.4285
2.49033
5.10064
5.68595
5.69729
5.5705
5.51699
5.58966
5.68521
5.76013
5.78183
5.73772
5.70091
5.71923
5.74953
5.77648
5.78217
5.78607
5.79669
5.80259
5.79776
5.7825
5.76194
5.74683
5.74251
5.74532
5.74781
5.74002
5.71471
5.67645
5.62613
5.55402
5.44026
5.29536
5.20503
5.17644
5.12252
5.12476
1.40001
1.40001
1.40001
1.40001
1.40001
1.40001
1.40001
1.40001
1.40001
1.40001
1.40001
1.40001
1.40001
1.40001
1.40001
1.40001
1.40001
1.40001
1.40001
1.40001
1.40001
1.40001
1.40001
1.40001
1.40001
1.40001
1.40001
1.40001
1.40001
1.40001
1.40001
1.40001
1.40001
1.40001
1.40001
1.40001
1.40001
1.40001
1.40001
1.40001
1.40001
1.40001
1.40001
1.40001
1.40001
1.40001
1.40001
1.40001
1.40001
1.40001
1.40001
1.40001
1.40001
1.40001
1.40001
1.40001
1.40001
1.40031
1.42127
2.26122
5.05812
5.7204
5.66112
5.56567
5.55764
5.63401
5.71478
5.77906
5.80892
5.77831
5.74971
5.7591
5.77881
5.79858
5.79116
5.78705
5.80186
5.81114
5.80725
5.78454
5.75708
5.73893
5.72969
5.72436
5.72085
5.71353
5.69448
5.66355
5.61755
5.54567
5.43073
5.28586
5.19864
5.16894
5.11078
5.12228
1.40001
1.40001
1.40001
1.40001
1.40001
1.40001
1.40001
1.40001
1.40001
1.40001
1.40001
1.40001
1.40001
1.40001
1.40001
1.40001
1.40001
1.40001
1.40001
1.40001
1.40001
1.40001
1.40001
1.40001
1.40001
1.40001
1.40001
1.40001
1.40001
1.40001
1.40001
1.40001
1.40001
1.40001
1.40001
1.40001
1.40001
1.40001
1.40001
1.40001
1.40001
1.40001
1.40001
1.40001
1.40001
1.40001
1.40001
1.40001
1.40001
1.40001
1.40001
1.40001
1.40001
1.40001
1.40001
1.40001
1.40001
1.40026
1.41793
2.13582
4.96104
5.67411
5.57504
5.50708
5.51991
5.60132
5.68401
5.73152
5.75151
5.72656
5.71166
5.7318
5.7603
5.79117
5.80121
5.8058
5.81848
5.82748
5.82161
5.79517
5.76225
5.73993
5.72802
5.72066
5.71364
5.70365
5.68553
5.65651
5.61051
5.5359
5.4176
5.27267
5.19052
5.1601
5.09595
5.12062
1.40001
1.40001
1.40001
1.40001
1.40001
1.40001
1.40001
1.40001
1.40001
1.40001
1.40001
1.40001
1.40001
1.40001
1.40001
1.40001
1.40001
1.40001
1.40001
1.40001
1.40001
1.40001
1.40001
1.40001
1.40001
1.40001
1.40001
1.40001
1.40001
1.40001
1.40001
1.40001
1.40001
1.40001
1.40001
1.40001
1.40001
1.40001
1.40001
1.40001
1.40001
1.40001
1.40001
1.40001
1.40001
1.40001
1.40001
1.40001
1.40001
1.40001
1.40001
1.40001
1.40001
1.40001
1.40001
1.40001
1.40001
1.40016
1.41125
1.90664
4.92884
5.76674
5.55518
5.47467
5.50714
5.59702
5.68483
5.718
5.72297
5.6965
5.69259
5.71855
5.74659
5.77869
5.7934
5.80372
5.81543
5.82457
5.82089
5.79887
5.76913
5.74752
5.73451
5.72396
5.71305
5.70068
5.68169
5.65225
5.60538
5.52898
5.40675
5.26108
5.18228
5.15055
5.0824
5.11922
1.40001
1.40001
1.40001
1.40001
1.40001
1.40001
1.40001
1.40001
1.40001
1.40001
1.40001
1.40001
1.40001
1.40001
1.40001
1.40001
1.40001
1.40001
1.40001
1.40001
1.40001
1.40001
1.40001
1.40001
1.40001
1.40001
1.40001
1.40001
1.40001
1.40001
1.40001
1.40001
1.40001
1.40001
1.40001
1.40001
1.40001
1.40001
1.40001
1.40001
1.40001
1.40001
1.40001
1.40001
1.40001
1.40001
1.40001
1.40001
1.40001
1.40001
1.40001
1.40001
1.40001
1.40001
1.40001
1.40001
1.40001
1.40009
1.40667
1.72698
4.80625
5.76113
5.51812
5.45705
5.50533
5.60339
5.69276
5.72531
5.71741
5.68261
5.68588
5.71047
5.73613
5.7656
5.78181
5.79454
5.80751
5.8165
5.81331
5.79501
5.77118
5.75449
5.7453
5.73588
5.72215
5.7052
5.68316
5.65195
5.60312
5.52399
5.39938
5.25246
5.17411
5.14038
5.07101
5.11672
1.40001
1.40001
1.40001
1.40001
1.40001
1.40001
1.40001
1.40001
1.40001
1.40001
1.40001
1.40001
1.40001
1.40001
1.40001
1.40001
1.40001
1.40001
1.40001
1.40001
1.40001
1.40001
1.40001
1.40001
1.40001
1.40001
1.40001
1.40001
1.40001
1.40001
1.40001
1.40001
1.40001
1.40001
1.40001
1.40001
1.40001
1.40001
1.40001
1.40001
1.40001
1.40001
1.40001
1.40001
1.40001
1.40001
1.40001
1.40001
1.40001
1.40001
1.40001
1.40001
1.40001
1.40001
1.40001
1.40001
1.40001
1.40005
1.4032
1.58098
4.63801
5.69142
5.4883
5.45777
5.5188
5.62878
5.71005
5.7418
5.72152
5.68101
5.68647
5.70955
5.73462
5.75829
5.77256
5.78739
5.79994
5.80667
5.80053
5.78134
5.75897
5.74879
5.74793
5.74609
5.73525
5.71515
5.6884
5.65325
5.60122
5.51948
5.39291
5.24538
5.16683
5.13129
5.05907
5.10968
1.40001
1.40001
1.40001
1.40001
1.40001
1.40001
1.40001
1.40001
1.40001
1.40001
1.40001
1.40001
1.40001
1.40001
1.40001
1.40001
1.40001
1.40001
1.40001
1.40001
1.40001
1.40001
1.40001
1.40001
1.40001
1.40001
1.40001
1.40001
1.40001
1.40001
1.40001
1.40001
1.40001
1.40001
1.40001
1.40001
1.40001
1.40001
1.40001
1.40001
1.40001
1.40001
1.40001
1.40001
1.40001
1.40001
1.40001
1.40001
1.40001
1.40001
1.40001
1.40001
1.40001
1.40001
1.40001
1.40001
1.40001
1.40003
1.40183
1.51461
4.48586
5.57389
5.4425
5.45238
5.52877
5.65205
5.70827
5.73359
5.7036
5.66974
5.68081
5.70219
5.72352
5.74257
5.75591
5.77284
5.78456
5.79021
5.78203
5.7621
5.74125
5.73376
5.73947
5.74588
5.74176
5.72301
5.69369
5.65477
5.59927
5.51512
5.38726
5.2393
5.15975
5.12488
5.04992
5.09627
1.40001
1.40001
1.40001
1.40001
1.40001
1.40001
1.40001
1.40001
1.40001
1.40001
1.40001
1.40001
1.40001
1.40001
1.40001
1.40001
1.40001
1.40001
1.40001
1.40001
1.40001
1.40001
1.40001
1.40001
1.40001
1.40001
1.40001
1.40001
1.40001
1.40001
1.40001
1.40001
1.40001
1.40001
1.40001
1.40001
1.40001
1.40001
1.40001
1.40001
1.40001
1.40001
1.40001
1.40001
1.40001
1.40001
1.40001
1.40001
1.40001
1.40001
1.40001
1.40001
1.40001
1.40001
1.40001
1.40001
1.40001
1.40003
1.40161
1.50074
4.28772
5.46383
5.41992
5.45147
5.54476
5.67782
5.71053
5.72184
5.68447
5.66554
5.68226
5.70335
5.72157
5.73574
5.74723
5.76426
5.77371
5.77676
5.76339
5.73963
5.72027
5.71726
5.72655
5.73653
5.73687
5.72143
5.69301
5.65258
5.59481
5.50914
5.3813
5.23352
5.15181
5.11691
5.04092
5.08352
1.40001
1.40001
1.40001
1.40001
1.40001
1.40001
1.40001
1.40001
1.40001
1.40001
1.40001
1.40001
1.40001
1.40001
1.40001
1.40001
1.40001
1.40001
1.40001
1.40001
1.40001
1.40001
1.40001
1.40001
1.40001
1.40001
1.40001
1.40001
1.40001
1.40001
1.40001
1.40001
1.40001
1.40001
1.40001
1.40001
1.40001
1.40001
1.40001
1.40001
1.40001
1.40001
1.40001
1.40001
1.40001
1.40001
1.40001
1.40001
1.40001
1.40001
1.40001
1.40001
1.40001
1.40001
1.40001
1.40001
1.40001
1.40003
1.40146
1.49174
4.08084
5.31269
5.38466
5.44771
5.56909
5.68935
5.71422
5.69412
5.64848
5.65387
5.68082
5.70618
5.72412
5.73473
5.74304
5.75738
5.76426
5.76437
5.74886
5.72411
5.70547
5.70343
5.71397
5.72483
5.72644
5.71328
5.68722
5.64761
5.58921
5.50301
5.37602
5.22832
5.14329
5.1084
5.03314
5.06878
1.40001
1.40001
1.40001
1.40001
1.40001
1.40001
1.40001
1.40001
1.40001
1.40001
1.40001
1.40001
1.40001
1.40001
1.40001
1.40001
1.40001
1.40001
1.40001
1.40001
1.40001
1.40001
1.40001
1.40001
1.40001
1.40001
1.40001
1.40001
1.40001
1.40001
1.40001
1.40001
1.40001
1.40001
1.40001
1.40001
1.40001
1.40001
1.40001
1.40001
1.40001
1.40001
1.40001
1.40001
1.40001
1.40001
1.40001
1.40001
1.40001
1.40001
1.40001
1.40001
1.40001
1.40001
1.40001
1.40001
1.40001
1.40002
1.4013
1.48235
3.8512
5.17038
5.36401
5.44942
5.61794
5.69802
5.71478
5.65965
5.62129
5.64458
5.68601
5.71479
5.7323
5.73967
5.74357
5.75369
5.7578
5.7547
5.73698
5.71108
5.69257
5.69101
5.70179
5.71228
5.71374
5.70194
5.67841
5.64077
5.5831
5.49745
5.37207
5.22423
5.13463
5.0985
5.02003
5.0567
1.40001
1.40001
1.40001
1.40001
1.40001
1.40001
1.40001
1.40001
1.40001
1.40001
1.40001
1.40001
1.40001
1.40001
1.40001
1.40001
1.40001
1.40001
1.40001
1.40001
1.40001
1.40001
1.40001
1.40001
1.40001
1.40001
1.40001
1.40001
1.40001
1.40001
1.40001
1.40001
1.40001
1.40001
1.40001
1.40001
1.40001
1.40001
1.40001
1.40001
1.40001
1.40001
1.40001
1.40001
1.40001
1.40001
1.40001
1.40001
1.40001
1.40001
1.40001
1.40001
1.40001
1.40001
1.40001
1.40001
1.40001
1.40002
1.40112
1.472
3.59102
5.03397
5.35563
5.49198
5.6784
5.70608
5.69354
5.61952
5.6016
5.63886
5.69505
5.724
5.73848
5.74084
5.73991
5.74697
5.74935
5.74483
5.72765
5.70281
5.68464
5.68223
5.69143
5.69987
5.69995
5.68887
5.66784
5.63274
5.57675
5.49252
5.36914
5.22054
5.12469
5.08651
5.00641
5.04327
1.40001
1.40001
1.40001
1.40001
1.40001
1.40001
1.40001
1.40001
1.40001
1.40001
1.40001
1.40001
1.40001
1.40001
1.40001
1.40001
1.40001
1.40001
1.40001
1.40001
1.40001
1.40001
1.40001
1.40001
1.40001
1.40001
1.40001
1.40001
1.40001
1.40001
1.40001
1.40001
1.40001
1.40001
1.40001
1.40001
1.40001
1.40001
1.40001
1.40001
1.40001
1.40001
1.40001
1.40001
1.40001
1.40001
1.40001
1.40001
1.40001
1.40001
1.40001
1.40001
1.40001
1.40001
1.40001
1.40001
1.40001
1.40002
1.40091
1.45943
3.28266
4.92556
5.37561
5.58707
5.69721
5.708
5.64146
5.57543
5.58472
5.6415
5.70478
5.72868
5.73607
5.72969
5.72711
5.73482
5.73747
5.73364
5.72019
5.69924
5.68206
5.67731
5.68269
5.68744
5.68485
5.67411
5.65554
5.62331
5.56966
5.48754
5.36661
5.21726
5.11457
5.07458
4.99613
5.02347
1.40001
1.40001
1.40001
1.40001
1.40001
1.40001
1.40001
1.40001
1.40001
1.40001
1.40001
1.40001
1.40001
1.40001
1.40001
1.40001
1.40001
1.40001
1.40001
1.40001
1.40001
1.40001
1.40001
1.40001
1.40001
1.40001
1.40001
1.40001
1.40001
1.40001
1.40001
1.40001
1.40001
1.40001
1.40001
1.40001
1.40001
1.40001
1.40001
1.40001
1.40001
1.40001
1.40001
1.40001
1.40001
1.40001
1.40001
1.40001
1.40001
1.40001
1.40001
1.40001
1.40001
1.40001
1.40001
1.40001
1.40001
1.40001
1.40063
1.44278
2.8789
4.82403
5.50704
5.68763
5.71015
5.66338
5.56904
5.5454
5.57762
5.65267
5.70908
5.72708
5.72248
5.70969
5.71091
5.72186
5.72551
5.72139
5.71157
5.69583
5.68117
5.6744
5.67525
5.67531
5.66902
5.65784
5.64138
5.61203
5.56108
5.48141
5.36323
5.21348
5.10379
5.06028
4.9805
5.00581
1.40001
1.40001
1.40001
1.40001
1.40001
1.40001
1.40001
1.40001
1.40001
1.40001
1.40001
1.40001
1.40001
1.40001
1.40001
1.40001
1.40001
1.40001
1.40001
1.40001
1.40001
1.40001
1.40001
1.40001
1.40001
1.40001
1.40001
1.40001
1.40001
1.40001
1.40001
1.40001
1.40001
1.40001
1.40001
1.40001
1.40001
1.40001
1.40001
1.40001
1.40001
1.40001
1.40001
1.40001
1.40001
1.40001
1.40001
1.40001
1.40001
1.40001
1.40001
1.40001
1.40001
1.40001
1.40001
1.40001
1.40001
1.40001
1.40033
1.42365
2.3455
4.74782
5.75072
5.7553
5.70202
5.56616
5.50838
5.52076
5.58558
5.67281
5.70645
5.71626
5.69928
5.68577
5.69439
5.70924
5.71449
5.70861
5.69887
5.68623
5.67477
5.66854
5.66708
5.66308
5.65273
5.64005
5.62482
5.59804
5.54998
5.47312
5.35819
5.20891
5.09288
5.04439
4.96114
4.98742
1.40001
1.40001
1.40001
1.40001
1.40001
1.40001
1.40001
1.40001
1.40001
1.40001
1.40001
1.40001
1.40001
1.40001
1.40001
1.40001
1.40001
1.40001
1.40001
1.40001
1.40001
1.40001
1.40001
1.40001
1.40001
1.40001
1.40001
1.40001
1.40001
1.40001
1.40001
1.40001
1.40001
1.40001
1.40001
1.40001
1.40001
1.40001
1.40001
1.40001
1.40001
1.40001
1.40001
1.40001
1.40001
1.40001
1.40001
1.40001
1.40001
1.40001
1.40001
1.40001
1.40001
1.40001
1.40001
1.40001
1.40001
1.40001
1.40011
1.40797
1.8056
4.80477
5.87299
5.73277
5.56602
5.46759
5.47211
5.51787
5.60162
5.68635
5.69906
5.69487
5.66678
5.65985
5.67833
5.69736
5.70462
5.69591
5.68237
5.66986
5.66098
5.6573
5.65654
5.65079
5.63685
5.62155
5.60626
5.58135
5.53613
5.46228
5.35105
5.20319
5.08201
5.02792
4.93647
4.96884
1.40001
1.40001
1.40001
1.40001
1.40001
1.40001
1.40001
1.40001
1.40001
1.40001
1.40001
1.40001
1.40001
1.40001
1.40001
1.40001
1.40001
1.40001
1.40001
1.40001
1.40001
1.40001
1.40001
1.40001
1.40001
1.40001
1.40001
1.40001
1.40001
1.40001
1.40001
1.40001
1.40001
1.40001
1.40001
1.40001
1.40001
1.40001
1.40001
1.40001
1.40001
1.40001
1.40001
1.40001
1.40001
1.40001
1.40001
1.40001
1.40001
1.40001
1.40001
1.40001
1.40001
1.40001
1.40001
1.40001
1.40001
1.40001
1.40004
1.40208
1.53073
4.54062
5.83269
5.5736
5.43429
5.41842
5.45855
5.53067
5.63755
5.68552
5.69115
5.66196
5.62689
5.63589
5.66267
5.68455
5.69325
5.68133
5.66348
5.65064
5.6439
5.64267
5.64379
5.63834
5.62186
5.60287
5.58589
5.56178
5.51893
5.4481
5.34071
5.19537
5.07018
5.01071
4.91457
4.95009
1.40001
1.40001
1.40001
1.40001
1.40001
1.40001
1.40001
1.40001
1.40001
1.40001
1.40001
1.40001
1.40001
1.40001
1.40001
1.40001
1.40001
1.40001
1.40001
1.40001
1.40001
1.40001
1.40001
1.40001
1.40001
1.40001
1.40001
1.40001
1.40001
1.40001
1.40001
1.40001
1.40001
1.40001
1.40001
1.40001
1.40001
1.40001
1.40001
1.40001
1.40001
1.40001
1.40001
1.40001
1.40001
1.40001
1.40001
1.40001
1.40001
1.40001
1.40001
1.40001
1.40001
1.40001
1.40001
1.40001
1.40001
1.40001
1.40003
1.40141
1.48974
4.05188
5.63283
5.42192
5.37013
5.39854
5.46214
5.57911
5.67623
5.68203
5.6661
5.61457
5.5924
5.61364
5.64785
5.6712
5.67985
5.66507
5.64446
5.63168
5.62682
5.62722
5.62978
5.62551
5.60771
5.58462
5.56448
5.54015
5.49933
5.43162
5.3276
5.18373
5.05355
4.99153
4.89915
4.91879
1.40001
1.40001
1.40001
1.40001
1.40001
1.40001
1.40001
1.40001
1.40001
1.40001
1.40001
1.40001
1.40001
1.40001
1.40001
1.40001
1.40001
1.40001
1.40001
1.40001
1.40001
1.40001
1.40001
1.40001
1.40001
1.40001
1.40001
1.40001
1.40001
1.40001
1.40001
1.40001
1.40001
1.40001
1.40001
1.40001
1.40001
1.40001
1.40001
1.40001
1.40001
1.40001
1.40001
1.40001
1.40001
1.40001
1.40001
1.40001
1.40001
1.40001
1.40001
1.40001
1.40001
1.40001
1.40001
1.40001
1.40001
1.40001
1.40002
1.40113
1.47188
3.63098
5.33244
5.32854
5.33972
5.39378
5.50859
5.64364
5.67827
5.6747
5.61594
5.56325
5.56586
5.596
5.6346
5.65776
5.66471
5.64785
5.62694
5.61513
5.61146
5.61225
5.61483
5.6113
5.59317
5.56637
5.54198
5.51617
5.4765
5.41209
5.31232
5.16989
5.03065
4.96242
4.89631
4.87812
1.40001
1.40001
1.40001
1.40001
1.40001
1.40001
1.40001
1.40001
1.40001
1.40001
1.40001
1.40001
1.40001
1.40001
1.40001
1.40001
1.40001
1.40001
1.40001
1.40001
1.40001
1.40001
1.40001
1.40001
1.40001
1.40001
1.40001
1.40001
1.40001
1.40001
1.40001
1.40001
1.40001
1.40001
1.40001
1.40001
1.40001
1.40001
1.40001
1.40001
1.40001
1.40001
1.40001
1.40001
1.40001
1.40001
1.40001
1.40001
1.40001
1.40001
1.40001
1.40001
1.40001
1.40001
1.40001
1.40001
1.40001
1.40001
1.40002
1.40087
1.45625
3.23065
5.06804
5.28235
5.3289
5.43542
5.58381
5.6503
5.66703
5.61905
5.54578
5.52994
5.54861
5.59016
5.62474
5.64491
5.64778
5.6306
5.61273
5.60302
5.59876
5.59799
5.59882
5.59458
5.57654
5.54726
5.51858
5.49052
5.45117
5.3897
5.29429
5.1545
5.00872
4.93061
4.86128
4.85351
1.40001
1.40001
1.40001
1.40001
1.40001
1.40001
1.40001
1.40001
1.40001
1.40001
1.40001
1.40001
1.40001
1.40001
1.40001
1.40001
1.40001
1.40001
1.40001
1.40001
1.40001
1.40001
1.40001
1.40001
1.40001
1.40001
1.40001
1.40001
1.40001
1.40001
1.40001
1.40001
1.40001
1.40001
1.40001
1.40001
1.40001
1.40001
1.40001
1.40001
1.40001
1.40001
1.40001
1.40001
1.40001
1.40001
1.40001
1.40001
1.40001
1.40001
1.40001
1.40001
1.40001
1.40001
1.40001
1.40001
1.40001
1.40001
1.40001
1.4006
1.43942
2.77742
4.88888
5.2575
5.36149
5.50793
5.5942
5.63512
5.6065
5.52665
5.49956
5.51105
5.55014
5.59489
5.6205
5.63363
5.62928
5.61484
5.60334
5.59668
5.59023
5.58527
5.58157
5.57468
5.55623
5.52579
5.49358
5.46281
5.42259
5.36299
5.27156
5.13492
4.98421
4.89609
4.8278
4.81708
1.40001
1.40001
1.40001
1.40001
1.40001
1.40001
1.40001
1.40001
1.40001
1.40001
1.40001
1.40001
1.40001
1.40001
1.40001
1.40001
1.40001
1.40001
1.40001
1.40001
1.40001
1.40001
1.40001
1.40001
1.40001
1.40001
1.40001
1.40001
1.40001
1.40001
1.40001
1.40001
1.40001
1.40001
1.40001
1.40001
1.40001
1.40001
1.40001
1.40001
1.40001
1.40001
1.40001
1.40001
1.40001
1.40001
1.40001
1.40001
1.40001
1.40001
1.40001
1.40001
1.40001
1.40001
1.40001
1.40001
1.40001
1.40001
1.40001
1.4003
1.4207
2.23547
4.82853
5.29846
5.46523
5.54969
5.56847
5.53728
5.478
5.45531
5.47803
5.51082
5.57123
5.60493
5.62191
5.62119
5.60948
5.60118
5.598
5.5947
5.58572
5.57438
5.56332
5.55115
5.53133
5.5007
5.46644
5.43285
5.39094
5.3325
5.24469
5.11177
4.95683
4.85707
4.7868
4.7709
1.40001
1.40001
1.40001
1.40001
1.40001
1.40001
1.40001
1.40001
1.40001
1.40001
1.40001
1.40001
1.40001
1.40001
1.40001
1.40001
1.40001
1.40001
1.40001
1.40001
1.40001
1.40001
1.40001
1.40001
1.40001
1.40001
1.40001
1.40001
1.40001
1.40001
1.40001
1.40001
1.40001
1.40001
1.40001
1.40001
1.40001
1.40001
1.40001
1.40001
1.40001
1.40001
1.40001
1.40001
1.40001
1.40001
1.40001
1.40001
1.40001
1.40001
1.40001
1.40001
1.40001
1.40001
1.40001
1.40001
1.40001
1.40001
1.40001
1.40009
1.40597
1.70553
4.68159
5.4508
5.55601
5.50611
5.44288
5.40868
5.41283
5.43781
5.46824
5.52592
5.59094
5.60434
5.60851
5.59563
5.58468
5.5881
5.59344
5.59379
5.58295
5.56358
5.5426
5.52379
5.5017
5.47113
5.43635
5.39971
5.35538
5.29639
5.21084
5.08174
4.92306
4.81051
4.7358
4.71776
1.40001
1.40001
1.40001
1.40001
1.40001
1.40001
1.40001
1.40001
1.40001
1.40001
1.40001
1.40001
1.40001
1.40001
1.40001
1.40001
1.40001
1.40001
1.40001
1.40001
1.40001
1.40001
1.40001
1.40001
1.40001
1.40001
1.40001
1.40001
1.40001
1.40001
1.40001
1.40001
1.40001
1.40001
1.40001
1.40001
1.40001
1.40001
1.40001
1.40001
1.40001
1.40001
1.40001
1.40001
1.40001
1.40001
1.40001
1.40001
1.40001
1.40001
1.40001
1.40001
1.40001
1.40001
1.40001
1.40001
1.40001
1.40001
1.40001
1.40003
1.40172
1.50782
4.13795
5.34434
5.46839
5.41484
5.38023
5.38485
5.40831
5.43581
5.48264
5.54301
5.57776
5.58142
5.57728
5.56117
5.55743
5.57357
5.58628
5.588
5.57566
5.54849
5.51728
5.49183
5.46715
5.43691
5.40189
5.36303
5.31574
5.25482
5.17041
5.04482
4.88211
4.75516
4.6714
4.65115
1.40001
1.40001
1.40001
1.40001
1.40001
1.40001
1.40001
1.40001
1.40001
1.40001
1.40001
1.40001
1.40001
1.40001
1.40001
1.40001
1.40001
1.40001
1.40001
1.40001
1.40001
1.40001
1.40001
1.40001
1.40001
1.40001
1.40001
1.40001
1.40001
1.40001
1.40001
1.40001
1.40001
1.40001
1.40001
1.40001
1.40001
1.40001
1.40001
1.40001
1.40001
1.40001
1.40001
1.40001
1.40001
1.40001
1.40001
1.40001
1.40001
1.40001
1.40001
1.40001
1.40001
1.40001
1.40001
1.40001
1.40001
1.40001
1.40001
1.40002
1.40106
1.46887
3.51025
5.10765
5.41806
5.40658
5.37593
5.38577
5.42401
5.45617
5.51115
5.54306
5.55132
5.54639
5.52367
5.51189
5.52537
5.55095
5.57102
5.57285
5.55722
5.52384
5.48539
5.45522
5.42811
5.39769
5.36247
5.32182
5.27148
5.20716
5.12115
4.99525
4.82557
4.6811
4.59024
4.5616
1.40001
1.40001
1.40001
1.40001
1.40001
1.40001
1.40001
1.40001
1.40001
1.40001
1.40001
1.40001
1.40001
1.40001
1.40001
1.40001
1.40001
1.40001
1.40001
1.40001
1.40001
1.40001
1.40001
1.40001
1.40001
1.40001
1.40001
1.40001
1.40001
1.40001
1.40001
1.40001
1.40001
1.40001
1.40001
1.40001
1.40001
1.40001
1.40001
1.40001
1.40001
1.40001
1.40001
1.40001
1.40001
1.40001
1.40001
1.40001
1.40001
1.40001
1.40001
1.40001
1.40001
1.40001
1.40001
1.40001
1.40001
1.40001
1.40001
1.40001
1.40064
1.44312
2.88659
4.89738
5.43852
5.4779
5.47721
5.46994
5.47584
5.49087
5.52648
5.53408
5.50787
5.47584
5.46298
5.47221
5.49385
5.52468
5.544
5.54395
5.52457
5.48789
5.44704
5.41466
5.38552
5.35388
5.31763
5.27511
5.22124
5.15194
5.0622
4.93609
4.76342
4.60144
4.48321
4.41488
1.40001
1.40001
1.40001
1.40001
1.40001
1.40001
1.40001
1.40001
1.40001
1.40001
1.40001
1.40001
1.40001
1.40001
1.40001
1.40001
1.40001
1.40001
1.40001
1.40001
1.40001
1.40001
1.40001
1.40001
1.40001
1.40001
1.40001
1.40001
1.40001
1.40001
1.40001
1.40001
1.40001
1.40001
1.40001
1.40001
1.40001
1.40001
1.40001
1.40001
1.40001
1.40001
1.40001
1.40001
1.40001
1.40001
1.40001
1.40001
1.40001
1.40001
1.40001
1.40001
1.40001
1.40001
1.40001
1.40001
1.40001
1.40001
1.40001
1.40001
1.40026
1.41844
2.18325
4.81771
5.47453
5.53601
5.55566
5.57163
5.56213
5.53731
5.51711
5.492
5.45561
5.43446
5.43478
5.44432
5.46563
5.49245
5.50424
5.50099
5.48056
5.4445
5.4049
5.37165
5.34042
5.30636
5.26777
5.22261
5.16492
5.08962
4.99314
4.86097
4.67569
4.47788
4.3086
4.24042
1.40001
1.40001
1.40001
1.40001
1.40001
1.40001
1.40001
1.40001
1.40001
1.40001
1.40001
1.40001
1.40001
1.40001
1.40001
1.40001
1.40001
1.40001
1.40001
1.40001
1.40001
1.40001
1.40001
1.40001
1.40001
1.40001
1.40001
1.40001
1.40001
1.40001
1.40001
1.40001
1.40001
1.40001
1.40001
1.40001
1.40001
1.40001
1.40001
1.40001
1.40001
1.40001
1.40001
1.40001
1.40001
1.40001
1.40001
1.40001
1.40001
1.40001
1.40001
1.40001
1.40001
1.40001
1.40001
1.40001
1.40001
1.40001
1.40001
1.40001
1.40006
1.40325
1.60008
4.63696
5.46297
5.48206
5.48426
5.51116
5.52491
5.5065
5.4802
5.46039
5.43206
5.41853
5.42122
5.42904
5.44584
5.45917
5.4606
5.45267
5.43116
5.39794
5.36166
5.32818
5.29431
5.25641
5.21378
5.16461
5.10217
5.01932
4.91227
4.76869
4.57109
4.33673
4.11058
3.91684
1.40001
1.40001
1.40001
1.40001
1.40001
1.40001
1.40001
1.40001
1.40001
1.40001
1.40001
1.40001
1.40001
1.40001
1.40001
1.40001
1.40001
1.40001
1.40001
1.40001
1.40001
1.40001
1.40001
1.40001
1.40001
1.40001
1.40001
1.40001
1.40001
1.40001
1.40001
1.40001
1.40001
1.40001
1.40001
1.40001
1.40001
1.40001
1.40001
1.40001
1.40001
1.40001
1.40001
1.40001
1.40001
1.40001
1.40001
1.40001
1.40001
1.40001
1.40001
1.40001
1.40001
1.40001
1.40001
1.40001
1.40001
1.40001
1.40001
1.40001
1.40003
1.40134
1.48587
3.89735
5.26283
5.37698
5.3948
5.43905
5.46208
5.45579
5.46184
5.45779
5.44681
5.44196
5.43253
5.43032
5.43339
5.43025
5.41803
5.40309
5.38085
5.35127
5.3187
5.28508
5.24824
5.20539
5.15706
5.10215
5.03378
4.94278
4.82396
4.66574
4.44552
4.13162
3.70467
2.9215
1.40001
1.40001
1.40001
1.40001
1.40001
1.40001
1.40001
1.40001
1.40001
1.40001
1.40001
1.40001
1.40001
1.40001
1.40001
1.40001
1.40001
1.40001
1.40001
1.40001
1.40001
1.40001
1.40001
1.40001
1.40001
1.40001
1.40001
1.40001
1.40001
1.40001
1.40001
1.40001
1.40001
1.40001
1.40001
1.40001
1.40001
1.40001
1.40001
1.40001
1.40001
1.40001
1.40001
1.40001
1.40001
1.40001
1.40001
1.40001
1.40001
1.40001
1.40001
1.40001
1.40001
1.40001
1.40001
1.40001
1.40001
1.40001
1.40001
1.40001
1.40002
1.40076
1.45094
3.11298
5.06121
5.36062
5.37381
5.39414
5.41002
5.41428
5.433
5.45801
5.47355
5.4793
5.46634
5.44627
5.42623
5.40337
5.37484
5.35411
5.3329
5.30701
5.27687
5.24255
5.20236
5.15414
5.09891
5.03692
4.96131
4.86193
4.72982
4.55227
4.29638
3.92625
3.40566
2.54512
1.40001
1.40001
1.40001
1.40001
1.40001
1.40001
1.40001
1.40001
1.40001
1.40001
1.40001
1.40001
1.40001
1.40001
1.40001
1.40001
1.40001
1.40001
1.40001
1.40001
1.40001
1.40001
1.40001
1.40001
1.40001
1.40001
1.40001
1.40001
1.40001
1.40001
1.40001
1.40001
1.40001
1.40001
1.40001
1.40001
1.40001
1.40001
1.40001
1.40001
1.40001
1.40001
1.40001
1.40001
1.40001
1.40001
1.40001
1.40001
1.40001
1.40001
1.40001
1.40001
1.40001
1.40001
1.40001
1.40001
1.40001
1.40001
1.40001
1.40001
1.40001
1.4003
1.42063
2.26579
4.99395
5.43808
5.40115
5.39217
5.39179
5.38502
5.41175
5.4429
5.46799
5.48522
5.47896
5.45282
5.41201
5.37084
5.33243
5.31046
5.29121
5.26682
5.23716
5.20133
5.15628
5.10225
5.0405
4.97066
4.88738
4.77911
4.63467
4.44006
4.16733
3.78497
3.23387
2.50105
1.40001
1.40001
1.40001
1.40001
1.40001
1.40001
1.40001
1.40001
1.40001
1.40001
1.40001
1.40001
1.40001
1.40001
1.40001
1.40001
1.40001
1.40001
1.40001
1.40001
1.40001
1.40001
1.40001
1.40001
1.40001
1.40001
1.40001
1.40001
1.40001
1.40001
1.40001
1.40001
1.40001
1.40001
1.40001
1.40001
1.40001
1.40001
1.40001
1.40001
1.40001
1.40001
1.40001
1.40001
1.40001
1.40001
1.40001
1.40001
1.40001
1.40001
1.40001
1.40001
1.40001
1.40001
1.40001
1.40001
1.40001
1.40001
1.40001
1.40001
1.40001
1.40007
1.40344
1.59998
4.62521
5.46775
5.44681
5.43713
5.41983
5.40205
5.40862
5.42557
5.43344
5.44118
5.43768
5.41614
5.37904
5.3403
5.30463
5.27988
5.25919
5.23312
5.20044
5.16049
5.10997
5.05024
4.9823
4.90517
4.81444
4.6986
4.5462
4.34365
4.07319
3.7017
3.22041
2.68386
1.40001
1.40001
1.40001
1.40001
1.40001
1.40001
1.40001
1.40001
1.40001
1.40001
1.40001
1.40001
1.40001
1.40001
1.40001
1.40001
1.40001
1.40001
1.40001
1.40001
1.40001
1.40001
1.40001
1.40001
1.40001
1.40001
1.40001
1.40001
1.40001
1.40001
1.40001
1.40001
1.40001
1.40001
1.40001
1.40001
1.40001
1.40001
1.40001
1.40001
1.40001
1.40001
1.40001
1.40001
1.40001
1.40001
1.40001
1.40001
1.40001
1.40001
1.40001
1.40001
1.40001
1.40001
1.40001
1.40001
1.40001
1.40001
1.40001
1.40001
1.40001
1.40002
1.40126
1.48069
3.7589
5.25423
5.37186
5.38951
5.40624
5.3816
5.37524
5.38941
5.39801
5.40446
5.40283
5.3818
5.34735
5.3158
5.28876
5.26368
5.23901
5.20773
5.16818
5.12081
5.06421
4.99898
4.92539
4.84216
4.74507
4.62379
4.46849
4.26621
4.00598
3.6687
3.23986
2.77125
1.40001
1.40001
1.40001
1.40001
1.40001
1.40001
1.40001
1.40001
1.40001
1.40001
1.40001
1.40001
1.40001
1.40001
1.40001
1.40001
1.40001
1.40001
1.40001
1.40001
1.40001
1.40001
1.40001
1.40001
1.40001
1.40001
1.40001
1.40001
1.40001
1.40001
1.40001
1.40001
1.40001
1.40001
1.40001
1.40001
1.40001
1.40001
1.40001
1.40001
1.40001
1.40001
1.40001
1.40001
1.40001
1.40001
1.40001
1.40001
1.40001
1.40001
1.40001
1.40001
1.40001
1.40001
1.40001
1.40001
1.40001
1.40001
1.40001
1.40001
1.40001
1.40001
1.40061
1.44113
2.88101
5.04124
5.35892
5.36011
5.37959
5.36124
5.35936
5.36704
5.36946
5.37043
5.36501
5.34266
5.31081
5.28677
5.27145
5.25374
5.22716
5.19009
5.14242
5.08444
5.02149
4.95049
4.87155
4.78313
4.68138
4.55684
4.40173
4.20509
3.95789
3.65401
3.26785
2.84519
1.40001
1.40001
1.40001
1.40001
1.40001
1.40001
1.40001
1.40001
1.40001
1.40001
1.40001
1.40001
1.40001
1.40001