/*--------------------------------*- C++ -*----------------------------------*\
| =========                 |                                                 |
| \\      /  F ield         | OpenFOAM: The Open Source CFD Toolbox           |
|  \\    /   O peration     | Version:  v1812                                 |
|   \\  /    A nd           | Web:      www.OpenFOAM.com                      |
|    \\/     M anipulation  |                                                 |
\*---------------------------------------------------------------------------*/
FoamFile
{
    version     2.0;
    format      ascii;
    class       volScalarField;
    location    "0.6";
    object      T;
}
// * * * * * * * * * * * * * * * * * * * * * * * * * * * * * * * * * * * * * //

dimensions      [0 0 0 1 0 0 0];


internalField   nonuniform List<scalar> 
64512
(
1
1
1
1
1
1
1
1
1
1
1
1
1
1
1
1
1
1
1
1
1
1
1
1
1
1
1
1
1
1
1
1
1
1
1
1
1
1
1
1
1
1
1
1
1
1
1
1
1
1
1
1
1
1
1
1
1
1.00023
1.01555
1.95424
2.82212
2.76698
2.70857
2.74188
2.81802
2.85576
2.85446
2.83137
2.80873
2.81245
2.83099
2.84888
2.85469
2.85782
2.86831
2.89647
2.92661
2.93261
2.93081
2.92828
2.93041
2.93854
2.95247
2.9701
2.99145
3.01787
3.05085
3.09271
3.14857
3.22462
3.30683
3.34798
3.35506
3.37017
3.42501
3.35862
1
1
1
1
1
1
1
1
1
1
1
1
1
1
1
1
1
1
1
1
1
1
1
1
1
1
1
1
1
1
1
1
1
1
1
1
1
1
1
1
1
1
1
1
1
1
1
1
1
1
1
1
1
1
1
1
1
1.00024
1.01657
2.06631
2.91164
2.83399
2.78564
2.81734
2.8751
2.8893
2.88246
2.86571
2.86133
2.86675
2.87621
2.87874
2.87701
2.8772
2.88258
2.89634
2.91433
2.91833
2.91706
2.91539
2.91826
2.92801
2.94351
2.96203
2.98381
3.01105
3.04539
3.08732
3.14019
3.21088
3.29319
3.34369
3.35432
3.36547
3.41438
3.37746
1
1
1
1
1
1
1
1
1
1
1
1
1
1
1
1
1
1
1
1
1
1
1
1
1
1
1
1
1
1
1
1
1
1
1
1
1
1
1
1
1
1
1
1
1
1
1
1
1
1
1
1
1
1
1
1
1
1.00018
1.0117
1.70305
2.64928
2.64233
2.6782
2.76614
2.8129
2.81065
2.79309
2.77367
2.77636
2.79939
2.83389
2.8466
2.85092
2.8558
2.86699
2.88432
2.89965
2.90872
2.91132
2.91319
2.91676
2.92508
2.93837
2.95504
2.97427
2.99905
3.03155
3.07059
3.11607
3.1742
3.25151
3.323
3.35102
3.36142
3.39929
3.39489
1
1
1
1
1
1
1
1
1
1
1
1
1
1
1
1
1
1
1
1
1
1
1
1
1
1
1
1
1
1
1
1
1
1
1
1
1
1
1
1
1
1
1
1
1
1
1
1
1
1
1
1
1
1
1
1
1
1.00025
1.01743
2.20099
3.00765
2.89908
2.8315
2.85614
2.89211
2.90457
2.89564
2.86901
2.84878
2.8522
2.8634
2.87282
2.874
2.87486
2.87986
2.89278
2.91124
2.91841
2.91765
2.91548
2.91716
2.92417
2.93682
2.95167
2.96784
2.98875
3.01713
3.05202
3.09163
3.14017
3.20939
3.29207
3.34126
3.3551
3.38872
3.39304
1
1
1
1
1
1
1
1
1
1
1
1
1
1
1
1
1
1
1
1
1
1
1
1
1
1
1
1
1
1
1
1
1
1
1
1
1
1
1
1
1
1
1
1
1
1
1
1
1
1
1
1
1
1
1
1
1
1.00016
1.01086
1.75848
2.70979
2.67316
2.72264
2.83938
2.89101
2.88571
2.85306
2.83472
2.84426
2.87391
2.89338
2.89442
2.89506
2.89742
2.90447
2.91506
2.92363
2.92543
2.9253
2.92564
2.9287
2.93711
2.94822
2.95976
2.97342
2.9926
3.01949
3.05125
3.08527
3.12801
3.19322
3.27985
3.33766
3.35467
3.38919
3.39215
1
1
1
1
1
1
1
1
1
1
1
1
1
1
1
1
1
1
1
1
1
1
1
1
1
1
1
1
1
1
1
1
1
1
1
1
1
1
1
1
1
1
1
1
1
1
1
1
1
1
1
1
1
1
1
1
1
1.00012
1.00838
1.63894
2.72544
2.67815
2.70513
2.79946
2.84765
2.84626
2.83016
2.81462
2.82127
2.85141
2.87944
2.88306
2.8849
2.89202
2.90638
2.91762
2.92015
2.92057
2.92182
2.92819
2.93956
2.95265
2.96371
2.9729
2.98396
3.00081
3.0249
3.05367
3.08561
3.12684
3.19189
3.27908
3.33617
3.35426
3.39071
3.3898
1
1
1
1
1
1
1
1
1
1
1
1
1
1
1
1
1
1
1
1
1
1
1
1
1
1
1
1
1
1
1
1
1
1
1
1
1
1
1
1
1
1
1
1
1
1
1
1
1
1
1
1
1
1
1
1
1
1.00009
1.00617
1.51543
2.68651
2.67798
2.72365
2.80956
2.83783
2.83738
2.82739
2.81605
2.82053
2.84355
2.86664
2.86775
2.86819
2.87372
2.8901
2.90385
2.90454
2.90456
2.90805
2.91943
2.93583
2.95182
2.96641
2.98076
2.9953
3.01214
3.03313
3.05798
3.08725
3.12787
3.19332
3.28054
3.33568
3.35424
3.39364
3.386
1
1
1
1
1
1
1
1
1
1
1
1
1
1
1
1
1
1
1
1
1
1
1
1
1
1
1
1
1
1
1
1
1
1
1
1
1
1
1
1
1
1
1
1
1
1
1
1
1
1
1
1
1
1
1
1
1
1.00007
1.00518
1.48589
2.66359
2.70369
2.76813
2.83346
2.84881
2.84521
2.8304
2.81897
2.82277
2.84306
2.85961
2.86237
2.86276
2.86628
2.87748
2.89043
2.89316
2.89384
2.89828
2.91148
2.93036
2.9481
2.96392
2.97983
2.99681
3.0155
3.0361
3.05965
3.08843
3.12984
3.19683
3.28401
3.3356
3.35392
3.39701
3.38078
1
1
1
1
1
1
1
1
1
1
1
1
1
1
1
1
1
1
1
1
1
1
1
1
1
1
1
1
1
1
1
1
1
1
1
1
1
1
1
1
1
1
1
1
1
1
1
1
1
1
1
1
1
1
1
1
1
1.00005
1.00322
1.31673
2.54566
2.69538
2.7942
2.86247
2.86294
2.85071
2.82827
2.82473
2.83453
2.85674
2.86594
2.86596
2.8654
2.86797
2.87637
2.88632
2.88858
2.88929
2.89322
2.90479
2.92247
2.93988
2.95646
2.97456
2.9941
3.01425
3.03535
3.05893
3.08785
3.1298
3.19874
3.28616
3.33504
3.35303
3.39832
3.3761
1
1
1
1
1
1
1
1
1
1
1
1
1
1
1
1
1
1
1
1
1
1
1
1
1
1
1
1
1
1
1
1
1
1
1
1
1
1
1
1
1
1
1
1
1
1
1
1
1
1
1
1
1
1
1
1
1
1.00003
1.00189
1.20477
2.47375
2.70206
2.81149
2.86569
2.8632
2.84357
2.81912
2.81957
2.83613
2.86408
2.86874
2.86772
2.86754
2.87008
2.8775
2.8857
2.88674
2.88705
2.89024
2.90014
2.91539
2.93065
2.94591
2.96424
2.98603
3.00884
3.03162
3.05605
3.08575
3.12877
3.1985
3.28601
3.33366
3.3511
3.3976
3.37318
1
1
1
1
1
1
1
1
1
1
1
1
1
1
1
1
1
1
1
1
1
1
1
1
1
1
1
1
1
1
1
1
1
1
1
1
1
1
1
1
1
1
1
1
1
1
1
1
1
1
1
1
1
1
1
1
1
1.00001
1.00091
1.08783
2.39451
2.71479
2.83431
2.8612
2.8569
2.83132
2.80536
2.80884
2.83152
2.86223
2.86637
2.86598
2.867
2.87197
2.88036
2.88659
2.8865
2.88652
2.88953
2.89934
2.91374
2.92598
2.93763
2.95293
2.97414
2.99893
3.02432
3.0508
3.082
3.12625
3.19682
3.28446
3.33152
3.34855
3.39589
3.37053
1
1
1
1
1
1
1
1
1
1
1
1
1
1
1
1
1
1
1
1
1
1
1
1
1
1
1
1
1
1
1
1
1
1
1
1
1
1
1
1
1
1
1
1
1
1
1
1
1
1
1
1
1
1
1
1
1
1.00001
1.00053
1.03363
2.33512
2.7485
2.85699
2.85991
2.84932
2.81608
2.79538
2.80354
2.83152
2.85884
2.86069
2.8612
2.86429
2.87215
2.88083
2.88576
2.8857
2.88629
2.89038
2.90091
2.91483
2.92568
2.93441
2.94616
2.96468
2.98912
3.01613
3.04471
3.07765
3.12296
3.19358
3.28087
3.32852
3.34579
3.39267
3.36784
1
1
1
1
1
1
1
1
1
1
1
1
1
1
1
1
1
1
1
1
1
1
1
1
1
1
1
1
1
1
1
1
1
1
1
1
1
1
1
1
1
1
1
1
1
1
1
1
1
1
1
1
1
1
1
1
1
1.00001
1.00047
1.02977
2.27392
2.77676
2.86258
2.85835
2.83503
2.79779
2.78648
2.80178
2.83691
2.85646
2.85536
2.85564
2.8601
2.87043
2.87931
2.88332
2.88407
2.88601
2.89254
2.90496
2.91813
2.92634
2.93357
2.94377
2.96058
2.98358
3.01018
3.03937
3.07333
3.11927
3.18932
3.27594
3.3249
3.34237
3.38804
3.36572
1
1
1
1
1
1
1
1
1
1
1
1
1
1
1
1
1
1
1
1
1
1
1
1
1
1
1
1
1
1
1
1
1
1
1
1
1
1
1
1
1
1
1
1
1
1
1
1
1
1
1
1
1
1
1
1
1
1.00001
1.00042
1.02706
2.22397
2.81756
2.86458
2.85333
2.81396
2.77829
2.78052
2.8082
2.84756
2.8542
2.84892
2.84696
2.85172
2.86357
2.87356
2.87827
2.88032
2.88389
2.89179
2.90507
2.9181
2.92589
2.93276
2.94271
2.95905
2.98095
3.00625
3.0348
3.06884
3.11481
3.18378
3.2697
3.32066
3.33866
3.38289
3.36328
1
1
1
1
1
1
1
1
1
1
1
1
1
1
1
1
1
1
1
1
1
1
1
1
1
1
1
1
1
1
1
1
1
1
1
1
1
1
1
1
1
1
1
1
1
1
1
1
1
1
1
1
1
1
1
1
1
1.00001
1.00038
1.02421
2.17045
2.8447
2.8615
2.83783
2.78262
2.75664
2.77221
2.81866
2.85333
2.85162
2.83976
2.83573
2.8408
2.85373
2.86561
2.87212
2.87577
2.88061
2.8896
2.90347
2.91645
2.92414
2.93119
2.94147
2.95794
2.9791
3.00291
3.03015
3.06355
3.10899
3.17654
3.26204
3.31579
3.33501
3.37854
3.35917
1
1
1
1
1
1
1
1
1
1
1
1
1
1
1
1
1
1
1
1
1
1
1
1
1
1
1
1
1
1
1
1
1
1
1
1
1
1
1
1
1
1
1
1
1
1
1
1
1
1
1
1
1
1
1
1
1
1
1.00032
1.02112
2.11232
2.85923
2.8563
2.80518
2.74537
2.73821
2.77188
2.83336
2.85458
2.84674
2.82807
2.8235
2.82918
2.84386
2.85785
2.86613
2.87094
2.87635
2.88535
2.89896
2.91187
2.92039
2.92848
2.93983
2.95688
2.97741
2.9996
3.02513
3.0574
3.10189
3.16784
3.25309
3.31007
3.33044
3.3727
3.35684
1
1
1
1
1
1
1
1
1
1
1
1
1
1
1
1
1
1
1
1
1
1
1
1
1
1
1
1
1
1
1
1
1
1
1
1
1
1
1
1
1
1
1
1
1
1
1
1
1
1
1
1
1
1
1
1
1
1
1.00026
1.01743
2.02544
2.8671
2.83549
2.7496
2.71751
2.73599
2.79168
2.85029
2.85296
2.83804
2.81498
2.81273
2.82127
2.83925
2.85351
2.86141
2.86638
2.87161
2.87936
2.89127
2.9038
2.91395
2.92402
2.93726
2.95523
2.97524
2.99576
3.01941
3.05026
3.09355
3.15778
3.24283
3.30352
3.3257
3.36643
3.35408
1
1
1
1
1
1
1
1
1
1
1
1
1
1
1
1
1
1
1
1
1
1
1
1
1
1
1
1
1
1
1
1
1
1
1
1
1
1
1
1
1
1
1
1
1
1
1
1
1
1
1
1
1
1
1
1
1
1
1.00018
1.01244
1.86378
2.85186
2.77892
2.70035
2.71084
2.7626
2.83226
2.85851
2.84977
2.82433
2.80304
2.8045
2.81819
2.83872
2.85048
2.85655
2.86143
2.86685
2.87342
2.88289
2.8943
2.90568
2.91783
2.93333
2.95259
2.97237
2.99141
3.01323
3.04259
3.0846
3.14711
3.23184
3.29622
3.32043
3.36025
3.35027
1
1
1
1
1
1
1
1
1
1
1
1
1
1
1
1
1
1
1
1
1
1
1
1
1
1
1
1
1
1
1
1
1
1
1
1
1
1
1
1
1
1
1
1
1
1
1
1
1
1
1
1
1
1
1
1
1
1
1.0001
1.00671
1.58506
2.7654
2.699
2.69222
2.74041
2.81795
2.86193
2.85877
2.8398
2.80803
2.79319
2.79879
2.81889
2.83894
2.84672
2.85048
2.8552
2.86184
2.86914
2.87748
2.88735
2.89813
2.91088
2.92781
2.94848
2.96849
2.98647
3.0067
3.03457
3.07524
3.13603
3.2203
3.28833
3.31474
3.35304
3.34608
1
1
1
1
1
1
1
1
1
1
1
1
1
1
1
1
1
1
1
1
1
1
1
1
1
1
1
1
1
1
1
1
1
1
1
1
1
1
1
1
1
1
1
1
1
1
1
1
1
1
1
1
1
1
1
1
1
1
1.00003
1.00218
1.23071
2.5835
2.6682
2.72066
2.79667
2.8584
2.86435
2.8529
2.81963
2.79017
2.78514
2.79694
2.82371
2.83896
2.84149
2.84304
2.84772
2.85665
2.86663
2.87537
2.88376
2.8925
2.90391
2.92075
2.94245
2.96327
2.98093
2.99998
3.02637
3.06559
3.12454
3.208
3.27971
3.30864
3.34469
3.34163
1
1
1
1
1
1
1
1
1
1
1
1
1
1
1
1
1
1
1
1
1
1
1
1
1
1
1
1
1
1
1
1
1
1
1
1
1
1
1
1
1
1
1
1
1
1
1
1
1
1
1
1
1
1
1
1
1
1
1.00001
1.00063
1.03754
2.38991
2.67361
2.76984
2.844
2.86441
2.85933
2.83282
2.79134
2.77288
2.77821
2.80113
2.83094
2.83726
2.83528
2.83532
2.8402
2.8519
2.86492
2.8744
2.88137
2.88777
2.89687
2.91226
2.93427
2.95637
2.97452
2.99288
3.0178
3.05512
3.11183
3.194
3.26967
3.30191
3.33673
3.33766
1
1
1
1
1
1
1
1
1
1
1
1
1
1
1
1
1
1
1
1
1
1
1
1
1
1
1
1
1
1
1
1
1
1
1
1
1
1
1
1
1
1
1
1
1
1
1
1
1
1
1
1
1
1
1
1
1
1
1.00001
1.0004
1.02628
2.21823
2.69642
2.8214
2.85685
2.85671
2.8388
2.7944
2.76151
2.75867
2.77845
2.81376
2.83503
2.83396
2.82788
2.82746
2.83344
2.84785
2.86315
2.87305
2.8785
2.88272
2.8894
2.90267
2.92413
2.94763
2.96701
2.98525
3.00886
3.04403
3.098
3.17813
3.25711
3.29386
3.33037
3.32975
1
1
1
1
1
1
1
1
1
1
1
1
1
1
1
1
1
1
1
1
1
1
1
1
1
1
1
1
1
1
1
1
1
1
1
1
1
1
1
1
1
1
1
1
1
1
1
1
1
1
1
1
1
1
1
1
1
1
1
1.00033
1.02095
2.08539
2.74954
2.84602
2.847
2.83503
2.79605
2.74999
2.73998
2.7565
2.79369
2.82915
2.83379
2.82755
2.81899
2.81951
2.82765
2.84427
2.86034
2.86994
2.87405
2.87664
2.88137
2.8924
2.91256
2.93703
2.95803
2.9766
2.99906
3.03186
3.08297
3.16074
3.24226
3.28275
3.32393
3.32096
1
1
1
1
1
1
1
1
1
1
1
1
1
1
1
1
1
1
1
1
1
1
1
1
1
1
1
1
1
1
1
1
1
1
1
1
1
1
1
1
1
1
1
1
1
1
1
1
1
1
1
1
1
1
1
1
1
1
1
1.00025
1.0163
1.95587
2.80697
2.83187
2.82058
2.78741
2.73731
2.71995
2.73575
2.77543
2.82114
2.83365
2.82879
2.81491
2.80934
2.81176
2.82306
2.84058
2.85525
2.86368
2.86719
2.86905
2.87272
2.88195
2.90039
2.92497
2.94744
2.9667
2.98837
3.01886
3.06694
3.14215
3.22668
3.27181
3.31489
3.31064
1
1
1
1
1
1
1
1
1
1
1
1
1
1
1
1
1
1
1
1
1
1
1
1
1
1
1
1
1
1
1
1
1
1
1
1
1
1
1
1
1
1
1
1
1
1
1
1
1
1
1
1
1
1
1
1
1
1
1
1.00017
1.01134
1.78399
2.80384
2.80444
2.7701
2.72338
2.7105
2.72278
2.76121
2.81491
2.83496
2.83075
2.81505
2.79797
2.79778
2.80419
2.81927
2.83593
2.84706
2.8534
2.85703
2.85951
2.86324
2.87174
2.88853
2.91211
2.9352
2.95513
2.97636
3.00466
3.04956
3.1217
3.20832
3.25861
3.30508
3.3005
1
1
1
1
1
1
1
1
1
1
1
1
1
1
1
1
1
1
1
1
1
1
1
1
1
1
1
1
1
1
1
1
1
1
1
1
1
1
1
1
1
1
1
1
1
1
1
1
1
1
1
1
1
1
1
1
1
1
1
1.00009
1.00584
1.49656
2.74698
2.73839
2.70314
2.71172
2.73029
2.76368
2.81063
2.83434
2.83351
2.8188
2.79358
2.77982
2.78395
2.79766
2.8162
2.82964
2.83568
2.83927
2.8431
2.84761
2.85319
2.86188
2.87737
2.89906
2.92155
2.94174
2.96282
2.98939
3.03115
3.09983
3.1877
3.24293
3.29127
3.28831
1
1
1
1
1
1
1
1
1
1
1
1
1
1
1
1
1
1
1
1
1
1
1
1
1
1
1
1
1
1
1
1
1
1
1
1
1
1
1
1
1
1
1
1
1
1
1
1
1
1
1
1
1
1
1
1
1
1
1
1.00002
1.00174
1.15082
2.50802
2.67741
2.70958
2.74769
2.78696
2.81749
2.83118
2.83283
2.82498
2.79853
2.77222
2.76652
2.77538
2.79583
2.81385
2.8209
2.82189
2.82293
2.82659
2.83375
2.84271
2.8526
2.8667
2.88601
2.90678
2.92663
2.94723
2.97254
3.01117
3.07573
3.16372
3.22415
3.274
3.27386
1
1
1
1
1
1
1
1
1
1
1
1
1
1
1
1
1
1
1
1
1
1
1
1
1
1
1
1
1
1
1
1
1
1
1
1
1
1
1
1
1
1
1
1
1
1
1
1
1
1
1
1
1
1
1
1
1
1
1
1.00001
1.00051
1.03092
2.29455
2.6708
2.73193
2.77964
2.80831
2.82013
2.82546
2.82345
2.80679
2.77902
2.76309
2.76502
2.77796
2.79901
2.81158
2.81118
2.80735
2.80654
2.81012
2.81986
2.83229
2.84355
2.85648
2.87288
2.89123
2.90978
2.92974
2.95404
2.98988
3.04998
3.13671
3.20187
3.25295
3.25412
1
1
1
1
1
1
1
1
1
1
1
1
1
1
1
1
1
1
1
1
1
1
1
1
1
1
1
1
1
1
1
1
1
1
1
1
1
1
1
1
1
1
1
1
1
1
1
1
1
1
1
1
1
1
1
1
1
1
1
1
1.00031
1.02019
2.09971
2.72501
2.74249
2.76243
2.78347
2.80186
2.80609
2.80046
2.78179
2.76744
2.76702
2.77618
2.7924
2.80678
2.80868
2.80326
2.79493
2.79378
2.7978
2.809
2.8231
2.83449
2.8461
2.85975
2.87515
2.89164
2.91045
2.93364
2.9666
3.02114
3.10397
3.17307
3.22503
3.23229
1
1
1
1
1
1
1
1
1
1
1
1
1
1
1
1
1
1
1
1
1
1
1
1
1
1
1
1
1
1
1
1
1
1
1
1
1
1
1
1
1
1
1
1
1
1
1
1
1
1
1
1
1
1
1
1
1
1
1
1
1.00019
1.01245
1.85538
2.74293
2.719
2.70959
2.71806
2.73881
2.75697
2.76218
2.76311
2.77085
2.78328
2.79802
2.80714
2.80871
2.80579
2.79652
2.78783
2.78721
2.79163
2.8025
2.81542
2.82533
2.83517
2.84635
2.85883
2.87265
2.88948
2.91094
2.94074
2.98945
3.06755
3.14048
3.19229
3.18727
1
1
1
1
1
1
1
1
1
1
1
1
1
1
1
1
1
1
1
1
1
1
1
1
1
1
1
1
1
1
1
1
1
1
1
1
1
1
1
1
1
1
1
1
1
1
1
1
1
1
1
1
1
1
1
1
1
1
1
1
1.00008
1.00517
1.45897
2.63148
2.695
2.69911
2.70459
2.71083
2.72273
2.74072
2.757
2.77596
2.79407
2.80444
2.80654
2.80607
2.80077
2.79107
2.78609
2.78631
2.79008
2.7988
2.80842
2.81578
2.82349
2.83251
2.84235
2.85322
2.86721
2.88603
2.91178
2.95263
3.02037
3.09132
3.14194
3.13734
1
1
1
1
1
1
1
1
1
1
1
1
1
1
1
1
1
1
1
1
1
1
1
1
1
1
1
1
1
1
1
1
1
1
1
1
1
1
1
1
1
1
1
1
1
1
1
1
1
1
1
1
1
1
1
1
1
1
1
1
1.00001
1.00123
1.05468
2.40014
2.71121
2.71528
2.71037
2.70953
2.71577
2.73598
2.75473
2.77429
2.78844
2.79732
2.79935
2.79834
2.79219
2.78623
2.78538
2.78635
2.78986
2.79563
2.80116
2.80555
2.81102
2.81811
2.82565
2.83349
2.84389
2.85884
2.87931
2.91074
2.96554
3.02862
3.06886
3.00714
1
1
1
1
1
1
1
1
1
1
1
1
1
1
1
1
1
1
1
1
1
1
1
1
1
1
1
1
1
1
1
1
1
1
1
1
1
1
1
1
1
1
1
1
1
1
1
1
1
1
1
1
1
1
1
1
1
1
1
1
1.00001
1.00038
1.02556
2.17661
2.69109
2.75967
2.75514
2.74358
2.73983
2.74376
2.75233
2.76283
2.76918
2.77529
2.77985
2.78041
2.77917
2.77987
2.7836
2.78599
2.78891
2.79141
2.79303
2.79454
2.79775
2.80303
2.8085
2.8134
2.81977
2.82989
2.84421
2.86515
2.90155
2.93902
2.91423
2.70466
1
1
1
1
1
1
1
1
1
1
1
1
1
1
1
1
1
1
1
1
1
1
1
1
1
1
1
1
1
1
1
1
1
1
1
1
1
1
1
1
1
1
1
1
1
1
1
1
1
1
1
1
1
1
1
1
1
1
1
1
1
1.00022
1.01498
1.94002
2.66208
2.76082
2.7618
2.7619
2.75894
2.7532
2.74959
2.74587
2.73807
2.73855
2.74227
2.75131
2.76144
2.77206
2.78163
2.78445
2.78546
2.78495
2.78367
2.78284
2.78401
2.7874
2.79095
2.79296
2.79521
2.79977
2.80693
2.81588
2.83136
2.8335
2.7776
2.50556
1
1
1
1
1
1
1
1
1
1
1
1
1
1
1
1
1
1
1
1
1
1
1
1
1
1
1
1
1
1
1
1
1
1
1
1
1
1
1
1
1
1
1
1
1
1
1
1
1
1
1
1
1
1
1
1
1
1
1
1
1
1.00008
1.00596
1.48571
2.54769
2.70607
2.72919
2.73946
2.74385
2.74368
2.74016
2.73245
2.72533
2.72292
2.72407
2.73384
2.7489
2.76411
2.77637
2.77912
2.77803
2.77581
2.77275
2.77017
2.77022
2.77178
2.77291
2.77212
2.77012
2.76917
2.76877
2.76649
2.76319
2.74536
2.68574
2.36535
1
1
1
1
1
1
1
1
1
1
1
1
1
1
1
1
1
1
1
1
1
1
1
1
1
1
1
1
1
1
1
1
1
1
1
1
1
1
1
1
1
1
1
1
1
1
1
1
1
1
1
1
1
1
1
1
1
1
1
1
1
1.00002
1.00142
1.05539
2.3646
2.68609
2.69284
2.69776
2.70877
2.72502
2.7315
2.73106
2.72772
2.72322
2.72251
2.72803
2.74076
2.75404
2.76436
2.76753
2.7655
2.76278
2.75965
2.75677
2.75607
2.75591
2.75464
2.75098
2.74516
2.73898
2.73233
2.72179
2.70711
2.67437
2.62462
2.48154
1
1
1
1
1
1
1
1
1
1
1
1
1
1
1
1
1
1
1
1
1
1
1
1
1
1
1
1
1
1
1
1
1
1
1
1
1
1
1
1
1
1
1
1
1
1
1
1
1
1
1
1
1
1
1
1
1
1
1
1
1
1.00001
1.00035
1.02401
2.13196
2.69343
2.69288
2.68619
2.6934
2.70831
2.72156
2.72958
2.7286
2.72586
2.72373
2.72677
2.73533
2.7421
2.746
2.74758
2.74616
2.74455
2.74305
2.7416
2.74085
2.7395
2.73618
2.72981
2.72078
2.71015
2.69831
2.68188
2.65973
2.61862
2.57357
2.47238
1
1
1
1
1
1
1
1
1
1
1
1
1
1
1
1
1
1
1
1
1
1
1
1
1
1
1
1
1
1
1
1
1
1
1
1
1
1
1
1
1
1
1
1
1
1
1
1
1
1
1
1
1
1
1
1
1
1
1
1
1
1
1.00017
1.01229
1.80681
2.65075
2.69932
2.69201
2.69685
2.70399
2.71483
2.72417
2.72521
2.72469
2.72254
2.72491
2.72961
2.72993
2.72602
2.72247
2.72072
2.72081
2.72205
2.72415
2.72387
2.72215
2.71745
2.70896
2.6973
2.68318
2.66733
2.64668
2.62193
2.57666
2.5281
2.4536
1
1
1
1
1
1
1
1
1
1
1
1
1
1
1
1
1
1
1
1
1
1
1
1
1
1
1
1
1
1
1
1
1
1
1
1
1
1
1
1
1
1
1
1
1
1
1
1
1
1
1
1
1
1
1
1
1
1
1
1
1
1
1.00004
1.00365
1.25198
2.44707
2.68295
2.68396
2.68963
2.70173
2.70705
2.71269
2.71586
2.71768
2.71675
2.71915
2.72071
2.71848
2.70955
2.70058
2.69771
2.69821
2.70074
2.70557
2.70559
2.70373
2.69823
2.68855
2.67523
2.6586
2.6396
2.61545
2.58843
2.54227
2.49278
2.42857
1
1
1
1
1
1
1
1
1
1
1
1
1
1
1
1
1
1
1
1
1
1
1
1
1
1
1
1
1
1
1
1
1
1
1
1
1
1
1
1
1
1
1
1
1
1
1
1
1
1
1
1
1
1
1
1
1
1
1
1
1
1
1.00001
1.00072
1.03435
2.231
2.65748
2.66675
2.6764
2.69139
2.69425
2.6982
2.70184
2.70401
2.704
2.70665
2.70866
2.70687
2.69933
2.68893
2.68407
2.68375
2.68485
2.68781
2.6873
2.68454
2.67826
2.66796
2.65383
2.63581
2.61482
2.58864
2.55897
2.51534
2.46888
2.40312
1
1
1
1
1
1
1
1
1
1
1
1
1
1
1
1
1
1
1
1
1
1
1
1
1
1
1
1
1
1
1
1
1
1
1
1
1
1
1
1
1
1
1
1
1
1
1
1
1
1
1
1
1
1
1
1
1
1
1
1
1
1
1
1.00024
1.0171
1.95021
2.64105
2.65864
2.66715
2.6814
2.68446
2.68867
2.69238
2.69228
2.6908
2.69139
2.69442
2.69424
2.69067
2.68288
2.67703
2.67493
2.67394
2.67288
2.66996
2.66468
2.65685
2.64604
2.632
2.61384
2.59211
2.56466
2.53325
2.49167
2.44967
2.39034
1
1
1
1
1
1
1
1
1
1
1
1
1
1
1
1
1
1
1
1
1
1
1
1
1
1
1
1
1
1
1
1
1
1
1
1
1
1
1
1
1
1
1
1
1
1
1
1
1
1
1
1
1
1
1
1
1
1
1
1
1
1
1
1.00008
1.00625
1.44052
2.52453
2.65444
2.65514
2.66578
2.67385
2.67909
2.68347
2.68294
2.68017
2.6774
2.67919
2.68174
2.68087
2.67674
2.67158
2.66816
2.66526
2.66118
2.65486
2.64611
2.63564
2.62355
2.60945
2.5918
2.5706
2.54368
2.51214
2.47237
2.43309
2.37529
1
1
1
1
1
1
1
1
1
1
1
1
1
1
1
1
1
1
1
1
1
1
1
1
1
1
1
1
1
1
1
1
1
1
1
1
1
1
1
1
1
1
1
1
1
1
1
1
1
1
1
1
1
1
1
1
1
1
1
1
1
1
1
1.00001
1.0014
1.04862
2.28115
2.64729
2.64405
2.64965
2.65772
2.66448
2.67346
2.67358
2.67182
2.66669
2.66679
2.66921
2.67015
2.66861
2.66531
2.66169
2.65763
2.65171
2.64268
2.6304
2.61625
2.60154
2.58648
2.56931
2.54914
2.52373
2.49327
2.45616
2.41964
2.36664
1
1
1
1
1
1
1
1
1
1
1
1
1
1
1
1
1
1
1
1
1
1
1
1
1
1
1
1
1
1
1
1
1
1
1
1
1
1
1
1
1
1
1
1
1
1
1
1
1
1
1
1
1
1
1
1
1
1
1
1
1
1
1
1
1.00027
1.019
1.97382
2.63117
2.63022
2.63825
2.64602
2.65199
2.66356
2.66517
2.66424
2.65852
2.65636
2.65742
2.65842
2.65786
2.65606
2.65281
2.64814
2.64119
2.63093
2.61713
2.60084
2.58357
2.56647
2.54877
2.52927
2.50627
2.47754
2.44408
2.40824
2.35764
1
1
1
1
1
1
1
1
1
1
1
1
1
1
1
1
1
1
1
1
1
1
1
1
1
1
1
1
1
1
1
1
1
1
1
1
1
1
1
1
1
1
1
1
1
1
1
1
1
1
1
1
1
1
1
1
1
1
1
1
1
1
1
1
1.00008
1.00661
1.43802
2.52593
2.62954
2.62234
2.62886
2.6374
2.65121
2.65612
2.65556
2.64956
2.64546
2.6453
2.64509
2.64441
2.64304
2.64031
2.63606
2.62962
2.61997
2.60667
2.59017
2.57155
2.55232
2.53299
2.51256
2.49045
2.46253
2.43265
2.39787
2.35993
1
1
1
1
1
1
1
1
1
1
1
1
1
1
1
1
1
1
1
1
1
1
1
1
1
1
1
1
1
1
1
1
1
1
1
1
1
1
1
1
1
1
1
1
1
1
1
1
1
1
1
1
1
1
1
1
1
1
1
1
1
1
1
1
1.00001
1.0014
1.04722
2.28994
2.61569
2.60941
2.61389
2.62221
2.63812
2.64511
2.64457
2.63951
2.63467
2.63354
2.63261
2.63147
2.62995
2.62721
2.62294
2.61674
2.6077
2.59554
2.58037
2.56248
2.54298
2.5226
2.50103
2.47951
2.45179
2.42571
2.3891
2.35781
1
1
1
1
1
1
1
1
1
1
1
1
1
1
1
1
1
1
1
1
1
1
1
1
1
1
1
1
1
1
1
1
1
1
1
1
1
1
1
1
1
1
1
1
1
1
1
1
1
1
1
1
1
1
1
1
1
1
1
1
1
1
1
1
1
1.00024
1.01753
1.90887
2.58486
2.59826
2.60521
2.6149
2.62797
2.6344
2.63345
2.62938
2.62372
2.62136
2.61986
2.6185
2.61671
2.61349
2.60859
2.60227
2.59423
2.58417
2.57148
2.55546
2.53708
2.51691
2.49466
2.47241
2.44374
2.41848
2.38225
2.35668
1
1
1
1
1
1
1
1
1
1
1
1
1
1
1
1
1
1
1
1
1
1
1
1
1
1
1
1
1
1
1
1
1
1
1
1
1
1
1
1
1
1
1
1
1
1
1
1
1
1
1
1
1
1
1
1
1
1
1
1
1
1
1
1
1
1.00005
1.0049
1.28053
2.43495
2.59531
2.59197
2.60322
2.61582
2.62204
2.6205
2.61614
2.60988
2.60707
2.60664
2.60608
2.60481
2.60209
2.59736
2.59083
2.58269
2.57269
2.56103
2.54646
2.52974
2.51069
2.48923
2.46776
2.44036
2.41654
2.38123
2.3564
1
1
1
1
1
1
1
1
1
1
1
1
1
1
1
1
1
1
1
1
1
1
1
1
1
1
1
1
1
1
1
1
1
1
1
1
1
1
1
1
1
1
1
1
1
1
1
1
1
1
1
1
1
1
1
1
1
1
1
1
1
1
1
1
1
1.00001
1.00082
1.03284
2.17262
2.57207
2.58082
2.59234
2.60303
2.60832
2.60649
2.60413
2.59909
2.59487
2.59457
2.59445
2.59345
2.59092
2.58623
2.57907
2.57007
2.55993
2.54944
2.53662
2.52179
2.5043
2.48438
2.46333
2.43709
2.41318
2.37871
2.35535
1
1
1
1
1
1
1
1
1
1
1
1
1
1
1
1
1
1
1
1
1
1
1
1
1
1
1
1
1
1
1
1
1
1
1
1
1
1
1
1
1
1
1
1
1
1
1
1
1
1
1
1
1
1
1
1
1
1
1
1
1
1
1
1
1
1
1.00015
1.01221
1.68598
2.52131
2.57506
2.58326
2.59063
2.59462
2.59319
2.59112
2.58599
2.5813
2.58113
2.58168
2.58113
2.57932
2.57521
2.56887
2.56029
2.54995
2.53873
2.52544
2.51083
2.49382
2.47553
2.45639
2.43322
2.41102
2.38156
2.3563
1
1
1
1
1
1
1
1
1
1
1
1
1
1
1
1
1
1
1
1
1
1
1
1
1
1
1
1
1
1
1
1
1
1
1
1
1
1
1
1
1
1
1
1
1
1
1
1
1
1
1
1
1
1
1
1
1
1
1
1
1
1
1
1
1
1
1.00003
1.0026
1.09135
2.31064
2.56873
2.57234
2.57784
2.58074
2.57962
2.57732
2.57267
2.56872
2.56864
2.56995
2.57006
2.56874
2.56486
2.55837
2.54927
2.53788
2.5261
2.51313
2.4996
2.48363
2.46692
2.44793
2.42714
2.40416
2.37925
2.35407
1
1
1
1
1
1
1
1
1
1
1
1
1
1
1
1
1
1
1
1
1
1
1
1
1
1
1
1
1
1
1
1
1
1
1
1
1
1
1
1
1
1
1
1
1
1
1
1
1
1
1
1
1
1
1
1
1
1
1
1
1
1
1
1
1
1
1
1.00032
1.02019
1.94008
2.53865
2.56648
2.56516
2.56862
2.56785
2.56516
2.56084
2.55607
2.55541
2.55659
2.55696
2.55584
2.55223
2.54608
2.53795
2.52748
2.51608
2.503
2.48943
2.47243
2.45559
2.43651
2.41903
2.39817
2.37756
2.35087
1
1
1
1
1
1
1
1
1
1
1
1
1
1
1
1
1
1
1
1
1
1
1
1
1
1
1
1
1
1
1
1
1
1
1
1
1
1
1
1
1
1
1
1
1
1
1
1
1
1
1
1
1
1
1
1
1
1
1
1
1
1
1
1
1
1
1
1.00005
1.00514
1.26951
2.39328
2.5437
2.55163
2.55864
2.55742
2.55506
2.54915
2.54288
2.54071
2.54224
2.5446
2.54404
2.54114
2.53517
2.52662
2.5155
2.50352
2.49048
2.47813
2.46248
2.44725
2.42828
2.41089
2.38721
2.37067
2.34352
1
1
1
1
1
1
1
1
1
1
1
1
1
1
1
1
1
1
1
1
1
1
1
1
1
1
1
1
1
1
1
1
1
1
1
1
1
1
1
1
1
1
1
1
1
1
1
1
1
1
1
1
1
1
1
1
1
1
1
1
1
1
1
1
1
1
1
1.00001
1.00074
1.02992
2.09216
2.48857
2.54042
2.54364
2.54715
2.54615
2.54086
2.5327
2.52752
2.52793
2.53023
2.53005
2.52774
2.52183
2.5134
2.50301
2.49232
2.48019
2.46918
2.45426
2.43937
2.41989
2.40343
2.38088
2.3657
2.33866
1
1
1
1
1
1
1
1
1
1
1
1
1
1
1
1
1
1
1
1
1
1
1
1
1
1
1
1
1
1
1
1
1
1
1
1
1
1
1
1
1
1
1
1
1
1
1
1
1
1
1
1
1
1
1
1
1
1
1
1
1
1
1
1
1
1
1
1
1.0001
1.00872
1.46781
2.41458
2.51385
2.53579
2.54058
2.53858
2.53165
2.52012
2.51257
2.51251
2.51492
2.5161
2.51489
2.51028
2.50247
2.49181
2.47994
2.46715
2.45696
2.44361
2.43143
2.41387
2.39811
2.37434
2.35769
2.3293
1
1
1
1
1
1
1
1
1
1
1
1
1
1
1
1
1
1
1
1
1
1
1
1
1
1
1
1
1
1
1
1
1
1
1
1
1
1
1
1
1
1
1
1
1
1
1
1
1
1
1
1
1
1
1
1
1
1
1
1
1
1
1
1
1
1
1
1
1.00001
1.0014
1.04591
2.16183
2.46955
2.51734
2.52732
2.52602
2.52158
2.51228
2.50243
2.49915
2.5011
2.50216
2.50099
2.49712
2.48981
2.47921
2.46792
2.45563
2.4468
2.43478
2.42387
2.40742
2.39275
2.37023
2.35505
2.32767
1
1
1
1
1
1
1
1
1
1
1
1
1
1
1
1
1
1
1
1
1
1
1
1
1
1
1
1
1
1
1
1
1
1
1
1
1
1
1
1
1
1
1
1
1
1
1
1
1
1
1
1
1
1
1
1
1
1
1
1
1
1
1
1
1
1
1
1
1
1.00014
1.01154
1.55713
2.41075
2.49988
2.51508
2.51465
2.51109
2.50173
2.48933
2.48399
2.48543
2.4872
2.48669
2.48439
2.47874
2.4696
2.45784
2.44388
2.43422
2.42248
2.41346
2.3992
2.38698
2.36555
2.34988
2.3224
1
1
1
1
1
1
1
1
1
1
1
1
1
1
1
1
1
1
1
1
1
1
1
1
1
1
1
1
1
1
1
1
1
1
1
1
1
1
1
1
1
1
1
1
1
1
1
1
1
1
1
1
1
1
1
1
1
1
1
1
1
1
1
1
1
1
1
1
1
1.00002
1.00187
1.06054
2.20523
2.45985
2.49372
2.49885
2.4961
2.48957
2.47986
2.47213
2.47233
2.47425
2.47384
2.47147
2.46637
2.45775
2.44649
2.43287
2.42388
2.41262
2.40444
2.39113
2.37976
2.36057
2.34674
2.32073
1
1
1
1
1
1
1
1
1
1
1
1
1
1
1
1
1
1
1
1
1
1
1
1
1
1
1
1
1
1
1
1
1
1
1
1
1
1
1
1
1
1
1
1
1
1
1
1
1
1
1
1
1
1
1
1
1
1
1
1
1
1
1
1
1
1
1
1
1
1
1.00017
1.0136
1.61512
2.39525
2.48092
2.48472
2.48321
2.47841
2.46836
2.45838
2.45781
2.45966
2.45954
2.45829
2.45466
2.44772
2.43775
2.424
2.41296
2.401
2.39291
2.38042
2.37104
2.35321
2.3403
2.31503
1
1
1
1
1
1
1
1
1
1
1
1
1
1
1
1
1
1
1
1
1
1
1
1
1
1
1
1
1
1
1
1
1
1
1
1
1
1
1
1
1
1
1
1
1
1
1
1
1
1
1
1
1
1
1
1
1
1
1
1
1
1
1
1
1
1
1
1
1
1
1.00002
1.00217
1.0734
2.19986
2.43783
2.46884
2.47003
2.46474
2.45712
2.44858
2.4457
2.4472
2.44779
2.44633
2.44235
2.43567
2.4263
2.41342
2.40291
2.39163
2.38371
2.37192
2.3623
2.34619
2.33442
2.31068
1
1
1
1
1
1
1
1
1
1
1
1
1
1
1
1
1
1
1
1
1
1
1
1
1
1
1
1
1
1
1
1
1
1
1
1
1
1
1
1
1
1
1
1
1
1
1
1
1
1
1
1
1
1
1
1
1
1
1
1
1
1
1
1
1
1
1
1
1
1
1
1.00017
1.01373
1.58576
2.37027
2.45786
2.45906
2.45433
2.44797
2.4376
2.43201
2.43343
2.4342
2.43328
2.43036
2.42481
2.41687
2.40548
2.39348
2.38197
2.37321
2.36224
2.35288
2.33814
2.32664
2.30389
1
1
1
1
1
1
1
1
1
1
1
1
1
1
1
1
1
1
1
1
1
1
1
1
1
1
1
1
1
1
1
1
1
1
1
1
1
1
1
1
1
1
1
1
1
1
1
1
1
1
1
1
1
1
1
1
1
1
1
1
1
1
1
1
1
1
1
1
1
1
1
1.00002
1.00204
1.0684
2.14976
2.4115
2.44367
2.44193
2.43561
2.42621
2.42004
2.42104
2.42234
2.42188
2.41874
2.41311
2.4053
2.39479
2.38305
2.37326
2.36417
2.35491
2.34477
2.33172
2.31928
2.29984
1
1
1
1
1
1
1
1
1
1
1
1
1
1
1
1
1
1
1
1
1
1
1
1
1
1
1
1
1
1
1
1
1
1
1
1
1
1
1
1
1
1
1
1
1
1
1
1
1
1
1
1
1
1
1
1
1
1
1
1
1
1
1
1
1
1
1
1
1
1
1
1
1.00014
1.012
1.47911
2.33456
2.43736
2.43151
2.42575
2.41634
2.40705
2.40763
2.40866
2.40845
2.40657
2.40202
2.39532
2.38637
2.37419
2.3643
2.35444
2.34669
2.33565
2.32548
2.31142
2.29577
1
1
1
1
1
1
1
1
1
1
1
1
1
1
1
1
1
1
1
1
1
1
1
1
1
1
1
1
1
1
1
1
1
1
1
1
1
1
1
1
1
1
1
1
1
1
1
1
1
1
1
1
1
1
1
1
1
1
1
1
1
1
1
1
1
1
1
1
1
1
1
1
1.00001
1.00158
1.05109
2.05957
2.38781
2.41498
2.41171
2.40479
2.3965
2.39639
2.39664
2.3969
2.39513
2.39048
2.38384
2.37527
2.36321
2.3548
2.34469
2.33894
2.32784
2.31912
2.30428
2.29164
1
1
1
1
1
1
1
1
1
1
1
1
1
1
1
1
1
1
1
1
1
1
1
1
1
1
1
1
1
1
1
1
1
1
1
1
1
1
1
1
1
1
1
1
1
1
1
1
1
1
1
1
1
1
1
1
1
1
1
1
1
1
1
1
1
1
1
1
1
1
1
1
1
1.0001
1.00905
1.35196
2.27837
2.40943
2.40244
2.39469
2.38536
2.38485
2.38432
2.38392
2.38288
2.3791
2.37316
2.36565
2.35396
2.34489
2.33459
2.32994
2.31882
2.31219
2.29721
2.2869
1
1
1
1
1
1
1
1
1
1
1
1
1
1
1
1
1
1
1
1
1
1
1
1
1
1
1
1
1
1
1
1
1
1
1
1
1
1
1
1
1
1
1
1
1
1
1
1
1
1
1
1
1
1
1
1
1
1
1
1
1
1
1
1
1
1
1
1
1
1
1
1
1
1.00001
1.00099
1.03397
1.89512
2.35608
2.38784
2.38355
2.37766
2.37562
2.37448
2.3733
2.3723
2.3681
2.36171
2.35411
2.34271
2.33421
2.32375
2.32043
2.30984
2.3048
2.2899
2.28085
1
1
1
1
1
1
1
1
1
1
1
1
1
1
1
1
1
1
1
1
1
1
1
1
1
1
1
1
1
1
1
1
1
1
1
1
1
1
1
1
1
1
1
1
1
1
1
1
1
1
1
1
1
1
1
1
1
1
1
1
1
1
1
1
1
1
1
1
1
1
1
1
1
1
1.00005
1.00546
1.203
2.19243
2.38325
2.37168
2.36589
2.36449
2.36332
2.36131
2.36047
2.35739
2.3513
2.34406
2.33313
2.3239
2.3129
2.31029
2.3001
2.29688
2.28287
2.27513
1
1
1
1
1
1
1
1
1
1
1
1
1
1
1
1
1
1
1
1
1
1
1
1
1
1
1
1
1
1
1
1
1
1
1
1
1
1
1
1
1
1
1
1
1
1
1
1
1
1
1
1
1
1
1
1
1
1
1
1
1
1
1
1
1
1
1
1
1
1
1
1
1
1
1
1.00045
1.02013
1.64616
2.30688
2.36371
2.35908
2.35422
2.35321
2.35087
2.34951
2.34691
2.34022
2.33268
2.32236
2.31296
2.30213
2.29958
2.28989
2.28829
2.27495
2.26853
1
1
1
1
1
1
1
1
1
1
1
1
1
1
1
1
1
1
1
1
1
1
1
1
1
1
1
1
1
1
1
1
1
1
1
1
1
1
1
1
1
1
1
1
1
1
1
1
1
1
1
1
1
1
1
1
1
1
1
1
1
1
1
1
1
1
1
1
1
1
1
1
1
1
1
1.00002
1.00273
1.08849
2.06028
2.3517
2.3419
2.3408
2.33823
2.33586
2.33645
2.33603
2.331
2.32345
2.31347
2.30268
2.29207
2.28815
2.27922
2.27894
2.26702
2.2624
1
1
1
1
1
1
1
1
1
1
1
1
1
1
1
1
1
1
1
1
1
1
1
1
1
1
1
1
1
1
1
1
1
1
1
1
1
1
1
1
1
1
1
1
1
1
1
1
1
1
1
1
1
1
1
1
1
1
1
1
1
1
1
1
1
1
1
1
1
1
1
1
1
1
1
1
1.00016
1.01145
1.39194
2.23759
2.33456
2.32967
2.32393
2.32376
2.32411
2.32345
2.31945
2.3126
2.30409
2.29267
2.28235
2.27604
2.26874
2.26857
2.25846
2.25491
1
1
1
1
1
1
1
1
1
1
1
1
1
1
1
1
1
1
1
1
1
1
1
1
1
1
1
1
1
1
1
1
1
1
1
1
1
1
1
1
1
1
1
1
1
1
1
1
1
1
1
1
1
1
1
1
1
1
1
1
1
1
1
1
1
1
1
1
1
1
1
1
1
1
1
1
1.00001
1.00119
1.03821
1.82921
2.30534
2.31264
2.31214
2.31355
2.31367
2.3126
2.31016
2.3035
2.2954
2.28277
2.27214
2.26264
2.25967
2.25725
2.25055
2.2465
1
1
1
1
1
1
1
1
1
1
1
1
1
1
1
1
1
1
1
1
1
1
1
1
1
1
1
1
1
1
1
1
1
1
1
1
1
1
1
1
1
1
1
1
1
1
1
1
1
1
1
1
1
1
1
1
1
1
1
1
1
1
1
1
1
1
1
1
1
1
1
1
1
1
1
1
1
1.00005
1.00501
1.16924
2.10825
2.28057
2.29803
2.30615
2.3017
2.29998
2.29956
2.29541
2.28732
2.2751
2.26234
2.25119
2.25149
2.24571
2.24323
2.23563
1
1
1
1
1
1
1
1
1
1
1
1
1
1
1
1
1
1
1
1
1
1
1
1
1
1
1
1
1
1
1
1
1
1
1
1
1
1
1
1
1
1
1
1
1
1
1
1
1
1
1
1
1
1
1
1
1
1
1
1
1
1
1
1
1
1
1
1
1
1
1
1
1
1
1
1
1
1
1.00032
1.01584
1.46069
2.21647
2.30113
2.30092
2.28844
2.28888
2.29027
2.28786
2.27869
2.2661
2.25144
2.24132
2.24245
2.23308
2.23378
2.2223
1
1
1
1
1
1
1
1
1
1
1
1
1
1
1
1
1
1
1
1
1
1
1
1
1
1
1
1
1
1
1
1
1
1
1
1
1
1
1
1
1
1
1
1
1
1
1
1
1
1
1
1
1
1
1
1
1
1
1
1
1
1
1
1
1
1
1
1
1
1
1
1
1
1
1
1
1
1
1.00001
1.00159
1.04613
1.89716
2.22804
2.28441
2.27635
2.27872
2.28266
2.27824
2.26928
2.25663
2.24278
2.23229
2.23284
2.22113
2.22206
2.2104
1
1
1
1
1
1
1
1
1
1
1
1
1
1
1
1
1
1
1
1
1
1
1
1
1
1
1
1
1
1
1
1
1
1
1
1
1
1
1
1
1
1
1
1
1
1
1
1
1
1
1
1
1
1
1
1
1
1
1
1
1
1
1
1
1
1
1
1
1
1
1
1
1
1
1
1
1
1
1
1.00007
1.00618
1.19773
2.11267
2.25198
2.24355
2.25758
2.2741
2.26441
2.25541
2.24358
2.23366
2.22284
2.22154
2.20936
2.20987
2.19963
1
1
1
1
1
1
1
1
1
1
1
1
1
1
1
1
1
1
1
1
1
1
1
1
1
1
1
1
1
1
1
1
1
1
1
1
1
1
1
1
1
1
1
1
1
1
1
1
1
1
1
1
1
1
1
1
1
1
1
1
1
1
1
1
1
1
1
1
1
1
1
1
1
1
1
1
1
1
1
1
1.00041
1.01802
1.50643
2.15229
2.25113
2.2595
2.26172
2.25154
2.24319
2.23083
2.22504
2.21497
2.20913
2.19624
2.19663
2.18898
1
1
1
1
1
1
1
1
1
1
1
1
1
1
1
1
1
1
1
1
1
1
1
1
1
1
1
1
1
1
1
1
1
1
1
1
1
1
1
1
1
1
1
1
1
1
1
1
1
1
1
1
1
1
1
1
1
1
1
1
1
1
1
1
1
1
1
1
1
1
1
1
1
1
1
1
1
1
1
1
1.00002
1.00162
1.05142
1.81394
2.16146
2.23931
2.24629
2.23108
2.22678
2.22271
2.2198
2.21091
2.19764