/*--------------------------------*- C++ -*----------------------------------*\
| =========                 |                                                 |
| \\      /  F ield         | OpenFOAM: The Open Source CFD Toolbox           |
|  \\    /   O peration     | Version:  v1812                                 |
|   \\  /    A nd           | Web:      www.OpenFOAM.com                      |
|    \\/     M anipulation  |                                                 |
\*---------------------------------------------------------------------------*/
FoamFile
{
    version     2.0;
    format      ascii;
    class       volVectorField;
    location    "0.6";
    object      U;
}
// * * * * * * * * * * * * * * * * * * * * * * * * * * * * * * * * * * * * * //

dimensions      [0 1 -1 0 0 0 0];


internalField   nonuniform List<vector> 
64512
(
(3 2.03449e-16 0)
(3 -6.47263e-17 0)
(3 -2.70297e-16 0)
(3 8.08109e-16 0)
(3 5.41093e-16 0)
(3 3.48326e-16 0)
(3 3.62486e-17 0)
(3 1.59722e-18 0)
(3 -5.13547e-16 0)
(3 -6.51096e-17 0)
(3 9.0934e-16 0)
(3 2.32241e-15 0)
(3 1.6296e-15 0)
(3 1.28649e-15 0)
(3 1.21568e-15 0)
(3 1.47114e-15 0)
(3 1.00556e-15 0)
(3 7.41769e-16 0)
(3 9.47647e-16 0)
(3 5.72714e-16 0)
(3 5.44586e-16 0)
(3 1.28024e-15 0)
(3 2.22209e-15 0)
(3 2.26135e-15 0)
(3 2.03693e-15 0)
(3 1.96658e-15 0)
(3 1.11513e-15 0)
(3 6.74008e-16 0)
(3 -1.47997e-16 0)
(3 7.67998e-16 0)
(3 1.19474e-15 0)
(3 1.95168e-15 0)
(3 1.76706e-15 0)
(3 1.53044e-15 0)
(3 9.44179e-16 0)
(3 6.82608e-16 0)
(3 4.47841e-16 0)
(3 5.06252e-16 0)
(3 3.50577e-16 0)
(3 5.04418e-17 0)
(3 1.02349e-16 0)
(3 2.23776e-16 0)
(3 3.30052e-16 0)
(3 7.8912e-16 0)
(3 -2.00792e-16 0)
(3 -3.63681e-16 0)
(3 -9.33264e-16 0)
(3 -7.57993e-16 0)
(3 -1.84849e-16 0)
(3 9.4249e-17 0)
(3 4.49868e-16 0)
(3 5.10775e-16 0)
(3 4.93261e-16 0)
(3 1.02903e-13 0)
(3 -6.11267e-12 0)
(3 6.1854e-10 0)
(3 -5.62081e-08 0)
(2.99982 3.60994e-06 0)
(2.98788 -0.000467253 0)
(1.88172 0.0207428 0)
(0.745302 -0.0491892 0)
(0.718947 -0.0196509 0)
(0.714955 0.0206578 0)
(0.662784 0.0508186 0)
(0.606182 0.0472621 0)
(0.571198 0.0174104 0)
(0.562749 -0.000892576 0)
(0.566453 -0.000991088 0)
(0.566092 0.00673478 0)
(0.551953 0.0207913 0)
(0.528672 0.0241628 0)
(0.507402 0.0188867 0)
(0.486713 0.0189697 0)
(0.462846 0.0269601 0)
(0.430414 0.0241596 0)
(0.3983 0.0157482 0)
(0.37608 0.0141303 0)
(0.358841 0.0151588 0)
(0.341492 0.0159001 0)
(0.321769 0.0145998 0)
(0.29911 0.0128389 0)
(0.273484 0.0125555 0)
(0.245207 0.0144827 0)
(0.215304 0.0176965 0)
(0.186849 0.0183026 0)
(0.163396 0.0157256 0)
(0.144969 0.012952 0)
(0.130046 0.011126 0)
(0.116605 0.0101716 0)
(0.102061 0.00998102 0)
(0.0856612 0.00999312 0)
(0.0680681 0.00971293 0)
(0.0501208 0.00963684 0)
(0.0323964 0.00910127 0)
(0.0162096 0.00669051 0)
(0.00399522 0.00280147 0)
(3 6.82237e-17 0)
(3 -1.88843e-16 0)
(3 -1.55297e-16 0)
(3 -4.337e-16 0)
(3 -2.79988e-16 0)
(3 -1.54355e-16 0)
(3 -2.32699e-16 0)
(3 -4.73379e-16 0)
(3 -7.1519e-16 0)
(3 -1.14827e-17 0)
(3 4.26907e-17 0)
(3 -3.98805e-17 0)
(3 -2.61383e-16 0)
(3 3.98307e-16 0)
(3 5.90426e-17 0)
(3 -3.0728e-16 0)
(3 -1.36219e-16 0)
(3 4.09978e-16 0)
(3 3.59247e-16 0)
(3 1.64329e-15 0)
(3 9.56394e-16 0)
(3 4.93771e-16 0)
(3 4.07564e-17 0)
(3 3.00317e-16 0)
(3 -9.88309e-18 0)
(3 -8.08956e-16 0)
(3 -8.3947e-16 0)
(3 -6.24181e-16 0)
(3 5.28671e-16 0)
(3 1.35361e-15 0)
(3 7.16083e-16 0)
(3 5.59879e-16 0)
(3 6.19552e-16 0)
(3 -3.84919e-16 0)
(3 1.9116e-16 0)
(3 -1.24404e-16 0)
(3 -1.12654e-16 0)
(3 8.03284e-17 0)
(3 -3.39806e-16 0)
(3 -5.51155e-16 0)
(3 -6.6238e-16 0)
(3 -8.93747e-16 0)
(3 1.48513e-16 0)
(3 -7.43523e-16 0)
(3 -1.01043e-15 0)
(3 -1.73961e-15 0)
(3 -8.73427e-16 0)
(3 -5.60988e-16 0)
(3 -9.21325e-16 0)
(3 -1.18271e-15 0)
(3 -1.34041e-15 0)
(3 -5.14334e-16 0)
(3 7.45539e-15 0)
(3 3.06042e-13 0)
(3 1.27398e-11 0)
(3 1.74748e-09 0)
(3 7.14733e-08 0)
(2.99981 1.01008e-05 0)
(2.98705 0.000496588 0)
(1.70163 0.0770217 0)
(0.620009 -0.00250055 0)
(0.52834 -0.0124858 0)
(0.531508 0.016391 0)
(0.520198 0.051152 0)
(0.511331 0.0488279 0)
(0.502961 0.0233705 0)
(0.4902 0.00377731 0)
(0.478253 0.00131944 0)
(0.470231 0.00887075 0)
(0.462139 0.0223382 0)
(0.452888 0.0248784 0)
(0.446682 0.0204862 0)
(0.438205 0.0207616 0)
(0.431291 0.027483 0)
(0.422736 0.0388146 0)
(0.407241 0.0407472 0)
(0.392763 0.0299414 0)
(0.378471 0.021243 0)
(0.362296 0.0209913 0)
(0.342631 0.0245154 0)
(0.318052 0.0283578 0)
(0.290345 0.0325561 0)
(0.262319 0.0370791 0)
(0.235635 0.039793 0)
(0.211204 0.0393813 0)
(0.188552 0.0382515 0)
(0.167145 0.0372164 0)
(0.147908 0.0355459 0)
(0.131017 0.0334446 0)
(0.114732 0.0319356 0)
(0.0981863 0.0305754 0)
(0.0812111 0.0279296 0)
(0.0639542 0.0252755 0)
(0.0462469 0.0223619 0)
(0.027013 0.0195366 0)
(0.00710934 0.0129107 0)
(3 1.63447e-16 0)
(3 1.69782e-16 0)
(3 -2.54026e-16 0)
(3 -7.98145e-16 0)
(3 -5.44135e-16 0)
(3 -4.1625e-16 0)
(3 -2.81822e-16 0)
(3 3.72201e-16 0)
(3 6.98895e-16 0)
(3 8.28059e-16 0)
(3 7.31535e-16 0)
(3 7.89301e-16 0)
(3 5.91228e-16 0)
(3 2.91301e-16 0)
(3 -2.21724e-16 0)
(3 -4.81211e-16 0)
(3 -4.66256e-16 0)
(3 -5.33453e-16 0)
(3 -5.49546e-17 0)
(3 -2.17339e-16 0)
(3 6.5915e-16 0)
(3 -2.8268e-18 0)
(3 -1.90559e-16 0)
(3 -5.18015e-16 0)
(3 -1.83224e-16 0)
(3 -6.76999e-16 0)
(3 -3.96884e-16 0)
(3 -1.20862e-16 0)
(3 -2.47652e-16 0)
(3 -5.437e-17 0)
(3 -2.36649e-17 0)
(3 5.69082e-16 0)
(3 1.52297e-15 0)
(3 1.09955e-15 0)
(3 -4.11781e-16 0)
(3 -1.79806e-16 0)
(3 -3.13368e-17 0)
(3 5.01368e-16 0)
(3 7.05791e-16 0)
(3 7.79818e-16 0)
(3 4.01978e-16 0)
(3 8.78716e-16 0)
(3 1.22772e-15 0)
(3 1.79739e-15 0)
(3 2.01941e-15 0)
(3 2.47791e-15 0)
(3 1.52096e-15 0)
(3 9.38963e-16 0)
(3 1.3923e-17 0)
(3 5.31512e-16 0)
(3 2.94996e-16 0)
(3 5.35545e-17 0)
(3 -2.60322e-15 0)
(3 1.47585e-13 0)
(3 -1.62553e-12 0)
(3 8.78982e-10 0)
(3 -4.45836e-08 0)
(2.99986 4.24714e-06 0)
(2.99095 -0.000421242 0)
(2.26743 0.021807 0)
(0.979762 0.017047 0)
(0.804668 -0.00258945 0)
(0.762304 0.0380148 0)
(0.715274 0.066174 0)
(0.680369 0.0662339 0)
(0.660033 0.0422524 0)
(0.643533 0.019821 0)
(0.625004 0.0180449 0)
(0.606115 0.029461 0)
(0.582068 0.0429917 0)
(0.556847 0.0429639 0)
(0.533407 0.0362386 0)
(0.507868 0.0358316 0)
(0.483517 0.0440652 0)
(0.460788 0.0562068 0)
(0.439909 0.0553147 0)
(0.424231 0.0459829 0)
(0.406754 0.0411731 0)
(0.38744 0.0430044 0)
(0.366397 0.0467825 0)
(0.343797 0.0492073 0)
(0.320341 0.0513413 0)
(0.297587 0.0545237 0)
(0.277055 0.0575248 0)
(0.257779 0.0582208 0)
(0.23748 0.058123 0)
(0.216094 0.0568005 0)
(0.195112 0.0533922 0)
(0.174959 0.049016 0)
(0.154631 0.0458024 0)
(0.134105 0.0434476 0)
(0.113319 0.0402966 0)
(0.0922482 0.0377502 0)
(0.0700874 0.0372866 0)
(0.044106 0.0394132 0)
(0.0128805 0.0333154 0)
(3 6.2345e-17 0)
(3 6.49967e-16 0)
(3 6.95192e-17 0)
(3 -1.64619e-16 0)
(3 -5.7275e-16 0)
(3 -4.19312e-16 0)
(3 -1.08287e-16 0)
(3 -1.04941e-16 0)
(3 -5.77553e-16 0)
(3 -4.50078e-16 0)
(3 6.58371e-16 0)
(3 1.095e-15 0)
(3 1.26048e-15 0)
(3 8.91552e-16 0)
(3 4.26584e-16 0)
(3 -1.47453e-17 0)
(3 -3.22598e-17 0)
(3 -4.57668e-17 0)
(3 3.63737e-16 0)
(3 7.79372e-16 0)
(3 1.5437e-16 0)
(3 7.67053e-18 0)
(3 -6.86563e-16 0)
(3 -1.16601e-15 0)
(3 -1.08963e-15 0)
(3 -8.66776e-16 0)
(3 5.11674e-17 0)
(3 2.60751e-16 0)
(3 7.65496e-16 0)
(3 5.3415e-16 0)
(3 7.97428e-16 0)
(3 7.92295e-16 0)
(3 4.62615e-16 0)
(3 4.74491e-16 0)
(3 -2.46552e-16 0)
(3 -8.97452e-16 0)
(3 -7.04724e-16 0)
(3 -9.4892e-16 0)
(3 -6.68253e-16 0)
(3 -6.932e-16 0)
(3 4.12178e-16 0)
(3 5.45018e-16 0)
(3 1.86928e-15 0)
(3 1.96807e-15 0)
(3 1.91205e-15 0)
(3 1.64993e-15 0)
(3 1.22532e-15 0)
(3 1.08412e-15 0)
(3 9.94109e-16 0)
(3 1.50766e-16 0)
(3 -2.84968e-16 0)
(3 -1.29245e-16 0)
(3 1.00471e-14 0)
(3 2.29532e-13 0)
(3 6.34261e-12 0)
(3 1.01183e-09 0)
(3 -6.29608e-09 0)
(2.99981 4.55858e-06 0)
(2.98639 -0.000284625 0)
(1.49455 0.0340509 0)
(0.482511 0.0458355 0)
(0.435627 0.0148679 0)
(0.457799 0.0430967 0)
(0.470803 0.0767778 0)
(0.480604 0.0759219 0)
(0.478478 0.0529973 0)
(0.478124 0.0288392 0)
(0.48287 0.0273132 0)
(0.482928 0.0373149 0)
(0.471328 0.052719 0)
(0.459417 0.0542942 0)
(0.449187 0.0486112 0)
(0.435556 0.0505723 0)
(0.423203 0.0627001 0)
(0.409313 0.0756692 0)
(0.395969 0.0745807 0)
(0.386586 0.0661398 0)
(0.374083 0.0629904 0)
(0.359565 0.0659581 0)
(0.343 0.0700612 0)
(0.324811 0.0716708 0)
(0.306053 0.0727475 0)
(0.28753 0.0750549 0)
(0.269439 0.077912 0)
(0.251933 0.0826094 0)
(0.234275 0.0868012 0)
(0.216301 0.0876742 0)
(0.198626 0.0844174 0)
(0.180715 0.0790692 0)
(0.161034 0.07441 0)
(0.140115 0.0702736 0)
(0.118549 0.0653307 0)
(0.0959963 0.061426 0)
(0.0716055 0.0616559 0)
(0.0443046 0.0669519 0)
(0.010761 0.0603332 0)
(3 1.44752e-16 0)
(3 -2.62403e-18 0)
(3 6.8281e-16 0)
(3 -1.18948e-16 0)
(3 -4.86016e-16 0)
(3 1.99449e-16 0)
(3 -2.45994e-16 0)
(3 -7.91606e-16 0)
(3 -2.43891e-16 0)
(3 -5.32381e-17 0)
(3 4.22981e-17 0)
(3 -2.95598e-16 0)
(3 -5.65761e-16 0)
(3 -7.85342e-16 0)
(3 -8.57061e-16 0)
(3 5.30906e-17 0)
(3 8.1168e-16 0)
(3 9.90643e-16 0)
(3 6.18382e-16 0)
(3 -2.37861e-17 0)
(3 1.49353e-16 0)
(3 -1.48843e-16 0)
(3 -1.00311e-16 0)
(3 -1.10337e-16 0)
(3 -2.55139e-16 0)
(3 -1.43453e-16 0)
(3 7.86954e-17 0)
(3 7.78551e-16 0)
(3 1.00003e-15 0)
(3 7.16725e-16 0)
(3 3.1073e-16 0)
(3 2.94269e-17 0)
(3 -8.20608e-17 0)
(3 4.75317e-16 0)
(3 5.10318e-16 0)
(3 -5.9505e-17 0)
(3 -9.3643e-16 0)
(3 -4.63754e-16 0)
(3 -3.72663e-16 0)
(3 4.65764e-16 0)
(3 5.87399e-16 0)
(3 8.87271e-16 0)
(3 8.67173e-16 0)
(3 1.39907e-15 0)
(3 1.30604e-15 0)
(3 1.2602e-15 0)
(3 5.91497e-16 0)
(3 -6.32068e-17 0)
(3 -3.05644e-17 0)
(3 -5.76457e-16 0)
(3 -1.71315e-17 0)
(3 1.29669e-15 0)
(3 1.31656e-14 0)
(3 1.39681e-12 0)
(3 9.47173e-11 0)
(3 6.57287e-09 0)
(3 4.7113e-07 0)
(2.99988 3.18048e-05 0)
(2.99175 0.00229192 0)
(2.1661 0.217512 0)
(0.813202 0.132533 0)
(0.692445 0.0257988 0)
(0.644527 0.0396803 0)
(0.593168 0.0762787 0)
(0.550074 0.0878888 0)
(0.520814 0.0661257 0)
(0.502068 0.042542 0)
(0.478404 0.0426256 0)
(0.461225 0.05857 0)
(0.442084 0.0743035 0)
(0.42231 0.0723475 0)
(0.406389 0.0629984 0)
(0.390766 0.0638656 0)
(0.377911 0.0724885 0)
(0.36177 0.0825256 0)
(0.347042 0.0788737 0)
(0.337899 0.0687161 0)
(0.326402 0.0657758 0)
(0.314585 0.0688934 0)
(0.30158 0.0721704 0)
(0.287332 0.0731993 0)
(0.272004 0.0743844 0)
(0.257042 0.0789321 0)
(0.242494 0.085976 0)
(0.228795 0.0958214 0)
(0.215384 0.104361 0)
(0.201774 0.107814 0)
(0.188687 0.106026 0)
(0.174978 0.101471 0)
(0.158335 0.0971053 0)
(0.139328 0.0924035 0)
(0.118708 0.0867038 0)
(0.0962919 0.0825144 0)
(0.0716491 0.0839863 0)
(0.0447852 0.0928572 0)
(0.00991357 0.0868272 0)
(3 -1.8102e-17 0)
(3 -1.15948e-17 0)
(3 1.466e-17 0)
(3 4.68103e-16 0)
(3 3.41341e-16 0)
(3 1.71826e-16 0)
(3 -5.79227e-16 0)
(3 -5.70488e-16 0)
(3 -4.63341e-16 0)
(3 -5.31428e-16 0)
(3 -5.67791e-16 0)
(3 -1.19543e-15 0)
(3 -1.54702e-15 0)
(3 -1.14609e-15 0)
(3 -1.04163e-16 0)
(3 2.26076e-16 0)
(3 4.96775e-16 0)
(3 7.84192e-16 0)
(3 9.80077e-16 0)
(3 3.95608e-16 0)
(3 5.94216e-16 0)
(3 5.05853e-16 0)
(3 8.28276e-16 0)
(3 1.23879e-16 0)
(3 -5.87618e-17 0)
(3 -1.55927e-16 0)
(3 -1.01848e-16 0)
(3 -3.63708e-16 0)
(3 2.64728e-17 0)
(3 -8.74994e-17 0)
(3 1.33614e-16 0)
(3 5.14343e-17 0)
(3 -1.51689e-16 0)
(3 1.46181e-16 0)
(3 1.83053e-16 0)
(3 6.91954e-16 0)
(3 4.97369e-16 0)
(3 7.95869e-16 0)
(3 2.9783e-16 0)
(3 -1.08877e-16 0)
(3 1.09405e-16 0)
(3 8.57433e-16 0)
(3 4.27357e-16 0)
(3 -4.95564e-17 0)
(3 6.71265e-16 0)
(3 8.57961e-16 0)
(3 1.16798e-15 0)
(3 8.94385e-16 0)
(3 3.87838e-16 0)
(3 9.27074e-16 0)
(3 1.26031e-15 0)
(3 1.41031e-15 0)
(3 1.15971e-14 0)
(3 7.983e-13 0)
(3 4.65106e-11 0)
(3 3.85356e-09 0)
(3 1.85239e-07 0)
(2.99991 1.77204e-05 0)
(2.99368 0.000658545 0)
(2.31227 0.125462 0)
(0.845013 0.0941598 0)
(0.685318 0.0456758 0)
(0.685162 0.0748845 0)
(0.664985 0.114114 0)
(0.638879 0.111598 0)
(0.617941 0.0822308 0)
(0.595124 0.053316 0)
(0.567099 0.0529178 0)
(0.541281 0.0737946 0)
(0.507327 0.0938359 0)
(0.470069 0.0957371 0)
(0.435152 0.0884955 0)
(0.402108 0.0891744 0)
(0.375962 0.100066 0)
(0.354342 0.105348 0)
(0.339466 0.0975924 0)
(0.329478 0.0856689 0)
(0.317505 0.0824261 0)
(0.306205 0.0852576 0)
(0.292601 0.087827 0)
(0.276823 0.0882731 0)
(0.257924 0.0883822 0)
(0.23856 0.0909316 0)
(0.220709 0.0974889 0)
(0.206133 0.108037 0)
(0.195066 0.118029 0)
(0.185055 0.122725 0)
(0.175948 0.122347 0)
(0.166002 0.119608 0)
(0.152401 0.117053 0)
(0.135615 0.113296 0)
(0.116044 0.10803 0)
(0.0937975 0.104109 0)
(0.0690295 0.106669 0)
(0.043264 0.118617 0)
(0.00860705 0.113624 0)
(3 -2.2225e-16 0)
(3 -3.32607e-16 0)
(3 -7.65748e-16 0)
(3 -2.79472e-16 0)
(3 -2.00781e-16 0)
(3 -1.96163e-16 0)
(3 -4.14913e-16 0)
(3 -1.13595e-16 0)
(3 -1.13251e-15 0)
(3 -6.95509e-16 0)
(3 -1.80341e-15 0)
(3 -9.77099e-16 0)
(3 -8.38091e-16 0)
(3 -2.30766e-16 0)
(3 -1.26084e-16 0)
(3 -7.80357e-17 0)
(3 -1.00577e-16 0)
(3 -3.72763e-16 0)
(3 -3.25603e-16 0)
(3 9.44788e-17 0)
(3 -5.85912e-16 0)
(3 -8.69574e-17 0)
(3 -4.983e-16 0)
(3 -2.77627e-16 0)
(3 -4.05919e-16 0)
(3 -3.48315e-16 0)
(3 -1.80104e-16 0)
(3 2.83192e-17 0)
(3 5.08581e-16 0)
(3 9.61396e-16 0)
(3 2.28117e-16 0)
(3 -9.62638e-17 0)
(3 -6.52034e-16 0)
(3 -1.00368e-15 0)
(3 -8.84462e-16 0)
(3 -1.16881e-15 0)
(3 -5.19038e-16 0)
(3 2.93962e-17 0)
(3 5.91641e-16 0)
(3 4.14939e-16 0)
(3 -1.65639e-16 0)
(3 -6.30285e-16 0)
(3 -6.28798e-16 0)
(3 -8.17463e-16 0)
(3 -6.2865e-16 0)
(3 -2.99337e-16 0)
(3 3.61905e-16 0)
(3 -1.03779e-17 0)
(3 4.45052e-16 0)
(3 1.24518e-15 0)
(3 1.65998e-15 0)
(3 2.12786e-15 0)
(3 7.76614e-15 0)
(3 3.67937e-13 0)
(3 2.82083e-11 0)
(3 1.93863e-09 0)
(3 1.23707e-07 0)
(2.99993 8.79683e-06 0)
(2.99539 0.000528107 0)
(2.45099 0.0632369 0)
(0.868985 0.0845445 0)
(0.684972 0.0508003 0)
(0.684545 0.088655 0)
(0.664578 0.141004 0)
(0.641473 0.143333 0)
(0.625344 0.116759 0)
(0.605274 0.0870293 0)
(0.580401 0.0861691 0)
(0.565239 0.106789 0)
(0.542584 0.127195 0)
(0.516945 0.124055 0)
(0.492375 0.108359 0)
(0.461316 0.1044 0)
(0.433815 0.11674 0)
(0.406345 0.123425 0)
(0.382653 0.114874 0)
(0.362701 0.101568 0)
(0.34233 0.0968267 0)
(0.323187 0.0987037 0)
(0.303989 0.102007 0)
(0.282807 0.104616 0)
(0.258468 0.106735 0)
(0.23353 0.109398 0)
(0.211203 0.114756 0)
(0.194062 0.123069 0)
(0.182769 0.131344 0)
(0.174089 0.135527 0)
(0.1666 0.135823 0)
(0.158157 0.134801 0)
(0.146054 0.134575 0)
(0.130421 0.132667 0)
(0.111379 0.128718 0)
(0.0893196 0.125463 0)
(0.0647093 0.128793 0)
(0.0406437 0.14306 0)
(0.00704236 0.138817 0)
(3 -1.26559e-16 0)
(3 2.39632e-16 0)
(3 2.11453e-16 0)
(3 6.75121e-18 0)
(3 -2.70625e-16 0)
(3 -6.73911e-16 0)
(3 2.49323e-16 0)
(3 8.63947e-16 0)
(3 1.24595e-15 0)
(3 6.55185e-17 0)
(3 -1.2739e-15 0)
(3 -1.75278e-15 0)
(3 -4.56223e-16 0)
(3 -4.15211e-16 0)
(3 -1.13255e-16 0)
(3 -3.29462e-16 0)
(3 -1.32167e-16 0)
(3 -3.5962e-17 0)
(3 -2.44668e-16 0)
(3 -6.51156e-16 0)
(3 -7.61632e-16 0)
(3 -8.05082e-16 0)
(3 -1.21391e-15 0)
(3 -6.17877e-16 0)
(3 -2.95866e-16 0)
(3 -3.5273e-16 0)
(3 -4.47667e-16 0)
(3 -1.96367e-16 0)
(3 -5.55669e-16 0)
(3 -2.52165e-16 0)
(3 -1.78072e-16 0)
(3 -1.57455e-16 0)
(3 -1.01456e-15 0)
(3 -1.23803e-15 0)
(3 -1.5997e-15 0)
(3 -1.04631e-15 0)
(3 -6.46496e-16 0)
(3 6.65833e-16 0)
(3 1.56387e-15 0)
(3 1.89516e-15 0)
(3 9.0881e-16 0)
(3 4.86887e-16 0)
(3 1.67039e-16 0)
(3 3.38447e-16 0)
(3 2.61258e-16 0)
(3 2.94667e-17 0)
(3 -5.08884e-16 0)
(3 -2.31213e-16 0)
(3 7.19439e-16 0)
(3 6.24736e-16 0)
(3 8.09463e-16 0)
(3 1.65439e-15 0)
(3 7.11887e-15 0)
(3 4.08418e-13 0)
(3 2.54251e-11 0)
(3 1.73654e-09 0)
(3 1.25057e-07 0)
(2.99995 7.82371e-06 0)
(2.99616 0.000593627 0)
(2.47599 0.0615782 0)
(0.818443 0.0835641 0)
(0.637842 0.0460721 0)
(0.647443 0.0929621 0)
(0.636316 0.15273 0)
(0.613669 0.160529 0)
(0.598931 0.136334 0)
(0.581394 0.106765 0)
(0.558134 0.104111 0)
(0.546063 0.125007 0)
(0.528444 0.146325 0)
(0.508986 0.14394 0)
(0.491781 0.132594 0)
(0.473103 0.129786 0)
(0.458502 0.138796 0)
(0.439274 0.144681 0)
(0.418578 0.13621 0)
(0.395547 0.123606 0)
(0.368931 0.11944 0)
(0.341205 0.120849 0)
(0.313674 0.123519 0)
(0.286558 0.126119 0)
(0.259269 0.128427 0)
(0.233087 0.130576 0)
(0.209924 0.134376 0)
(0.191925 0.140234 0)
(0.179792 0.146232 0)
(0.170882 0.149289 0)
(0.163119 0.149684 0)
(0.154071 0.149865 0)
(0.141697 0.151686 0)
(0.125715 0.151747 0)
(0.106338 0.149274 0)
(0.0842423 0.146745 0)
(0.0599327 0.150229 0)
(0.0376935 0.166132 0)
(0.00539981 0.161756 0)
(3 2.20337e-16 0)
(3 -2.03143e-16 0)
(3 -6.82231e-17 0)
(3 -6.2408e-17 0)
(3 2.69123e-16 0)
(3 2.689e-16 0)
(3 2.43292e-16 0)
(3 -2.62141e-16 0)
(3 -7.56532e-16 0)
(3 -8.65978e-16 0)
(3 -1.45996e-16 0)
(3 -3.59976e-16 0)
(3 1.88205e-16 0)
(3 3.45199e-16 0)
(3 1.24334e-16 0)
(3 5.90323e-17 0)
(3 -1.43513e-16 0)
(3 -4.33069e-16 0)
(3 -1.33326e-15 0)
(3 -1.56963e-15 0)
(3 -1.21014e-15 0)
(3 -9.92907e-16 0)
(3 -4.12836e-16 0)
(3 -2.57399e-16 0)
(3 4.42207e-16 0)
(3 -9.30902e-18 0)
(3 -1.05984e-15 0)
(3 -8.63614e-16 0)
(3 -1.36861e-15 0)
(3 -1.16582e-15 0)
(3 -1.71942e-16 0)
(3 3.19881e-16 0)
(3 4.549e-16 0)
(3 7.32311e-16 0)
(3 1.3818e-15 0)
(3 8.67494e-16 0)
(3 3.59784e-16 0)
(3 -8.74864e-16 0)
(3 4.47676e-16 0)
(3 9.24699e-16 0)
(3 1.54896e-15 0)
(3 2.12154e-15 0)
(3 2.04561e-15 0)
(3 1.63947e-15 0)
(3 2.26353e-16 0)
(3 -5.15579e-17 0)
(3 -9.028e-16 0)
(3 -1.09639e-15 0)
(3 -9.92274e-16 0)
(3 -1.48231e-15 0)
(3 -4.50153e-16 0)
(3 4.5502e-16 0)
(3 4.9073e-15 0)
(3 3.2555e-13 0)
(3 2.56979e-11 0)
(3 1.87358e-09 0)
(3 1.43198e-07 0)
(2.99997 9.40713e-06 0)
(2.99764 0.000767198 0)
(2.66593 0.0920503 0)
(0.926272 0.0984329 0)
(0.695069 0.0444642 0)
(0.675193 0.119787 0)
(0.622204 0.182762 0)
(0.585981 0.180824 0)
(0.573852 0.152129 0)
(0.560846 0.122797 0)
(0.542731 0.120727 0)
(0.532751 0.139476 0)
(0.517144 0.158057 0)
(0.500768 0.156144 0)
(0.487833 0.144157 0)
(0.471829 0.142033 0)
(0.460324 0.153104 0)
(0.444665 0.163794 0)
(0.426857 0.159846 0)
(0.406755 0.150638 0)
(0.38257 0.147945 0)
(0.356046 0.148516 0)
(0.328334 0.149013 0)
(0.30014 0.150105 0)
(0.271967 0.151427 0)
(0.245011 0.152454 0)
(0.220926 0.154283 0)
(0.201545 0.15745 0)
(0.187468 0.161145 0)
(0.176745 0.16338 0)
(0.16705 0.164304 0)
(0.155869 0.166013 0)
(0.141867 0.169852 0)
(0.124277 0.171866 0)
(0.103801 0.170614 0)
(0.0812779 0.168532 0)
(0.0571018 0.171079 0)
(0.0363949 0.187997 0)
(0.00488894 0.182957 0)
(3 1.14754e-16 0)
(3 5.54669e-16 0)
(3 2.04939e-16 0)
(3 7.47886e-17 0)
(3 -1.10721e-18 0)
(3 1.464e-16 0)
(3 4.81795e-16 0)
(3 -3.33118e-16 0)
(3 -3.8551e-16 0)
(3 -2.33545e-16 0)
(3 6.04903e-16 0)
(3 6.57964e-16 0)
(3 2.26107e-16 0)
(3 -1.42575e-16 0)
(3 1.50912e-16 0)
(3 -2.47465e-17 0)
(3 -8.75956e-17 0)
(3 2.25898e-17 0)
(3 8.52055e-17 0)
(3 1.26569e-16 0)
(3 -2.87673e-16 0)
(3 -4.9311e-16 0)
(3 -2.10406e-16 0)
(3 -2.85308e-16 0)
(3 -6.93001e-16 0)
(3 -1.29589e-15 0)
(3 -2.56205e-16 0)
(3 -1.3556e-16 0)
(3 1.11791e-16 0)
(3 -8.20235e-16 0)
(3 -7.55794e-16 0)
(3 -2.11095e-16 0)
(3 2.41257e-16 0)
(3 -7.54508e-16 0)
(3 -8.81759e-16 0)
(3 -5.32742e-16 0)
(3 -2.53668e-16 0)
(3 -4.18047e-16 0)
(3 1.07472e-16 0)
(3 3.57146e-16 0)
(3 1.04791e-15 0)
(3 9.35898e-16 0)
(3 9.2443e-16 0)
(3 5.86073e-16 0)
(3 1.2694e-16 0)
(3 -1.93588e-16 0)
(3 -7.1624e-16 0)
(3 3.72831e-17 0)
(3 -2.85233e-16 0)
(3 4.04072e-16 0)
(3 2.04838e-16 0)
(3 1.87595e-15 0)
(3 4.50582e-15 0)
(3 1.67682e-13 0)
(3 1.3785e-11 0)
(3 1.14161e-09 0)
(3 8.44224e-08 0)
(2.99998 5.957e-06 0)
(2.99865 0.000495123 0)
(2.77926 0.0590272 0)
(1.00859 0.0298739 0)
(0.707069 0.0605228 0)
(0.671186 0.174589 0)
(0.617487 0.220607 0)
(0.586297 0.207504 0)
(0.578397 0.170484 0)
(0.564719 0.139435 0)
(0.54662 0.138022 0)
(0.534873 0.157227 0)
(0.517062 0.173366 0)
(0.500137 0.170313 0)
(0.48726 0.156361 0)
(0.470091 0.153296 0)
(0.457282 0.164551 0)
(0.442432 0.177706 0)
(0.426278 0.176945 0)
(0.410435 0.170768 0)
(0.392213 0.169963 0)
(0.370935 0.171705 0)
(0.346698 0.17212 0)
(0.320269 0.172335 0)
(0.293007 0.172785 0)
(0.266053 0.173044 0)
(0.241025 0.173528 0)
(0.219655 0.174617 0)
(0.202588 0.176578 0)
(0.188456 0.178681 0)
(0.175288 0.180658 0)
(0.160797 0.184034 0)
(0.144312 0.189708 0)
(0.124699 0.19338 0)
(0.102956 0.192882 0)
(0.0799573 0.190894 0)
(0.0558827 0.191029 0)
(0.036601 0.208717 0)
(0.00764226 0.204331 0)
(3 -2.82262e-17 0)
(3 -5.81086e-16 0)
(3 -6.44899e-16 0)
(3 -4.75512e-16 0)
(3 -4.99745e-16 0)
(3 -2.34739e-17 0)
(3 -1.0712e-16 0)
(3 4.5495e-16 0)
(3 1.99935e-17 0)
(3 3.28553e-16 0)
(3 -5.42616e-16 0)
(3 -8.23444e-16 0)
(3 -1.40473e-15 0)
(3 -1.62945e-15 0)
(3 -1.59208e-15 0)
(3 -1.6115e-15 0)
(3 -1.28688e-15 0)
(3 -1.11283e-15 0)
(3 -5.63773e-16 0)
(3 -1.05204e-16 0)
(3 -1.10656e-16 0)
(3 -3.83991e-16 0)
(3 -3.38224e-16 0)
(3 2.68547e-17 0)
(3 -1.5806e-17 0)
(3 5.85916e-17 0)
(3 -4.08293e-17 0)
(3 1.84261e-16 0)
(3 3.51877e-17 0)
(3 1.63559e-16 0)
(3 2.43667e-18 0)
(3 -6.03474e-16 0)
(3 -1.49489e-15 0)
(3 -1.12408e-15 0)
(3 -1.37332e-15 0)
(3 -9.08494e-16 0)
(3 -6.00837e-16 0)
(3 -1.4997e-16 0)
(3 -8.65052e-16 0)
(3 -6.23883e-16 0)
(3 4.23685e-16 0)
(3 1.41675e-15 0)
(3 9.23385e-16 0)
(3 4.99005e-16 0)
(3 3.9284e-16 0)
(3 -5.09994e-16 0)
(3 -1.50989e-16 0)
(3 -1.9502e-16 0)
(3 7.66646e-16 0)
(3 1.53042e-15 0)
(3 1.38515e-15 0)
(3 8.32647e-16 0)
(3 4.24805e-16 0)
(3 5.15028e-14 0)
(3 3.48402e-12 0)
(3 4.51716e-10 0)
(3 2.49174e-08 0)
(2.99999 2.76295e-06 0)
(2.99934 0.000199701 0)
(2.90819 0.0298572 0)
(1.10094 -0.0170821 0)
(0.707866 0.0904419 0)
(0.657827 0.222224 0)
(0.623475 0.24383 0)
(0.604841 0.22226 0)
(0.600456 0.177609 0)
(0.584713 0.146929 0)
(0.565274 0.148494 0)
(0.551804 0.170679 0)
(0.531313 0.1868 0)
(0.511943 0.183253 0)
(0.495753 0.169489 0)
(0.475256 0.167395 0)
(0.458461 0.180255 0)
(0.440461 0.193492 0)
(0.423665 0.192686 0)
(0.40874 0.187545 0)
(0.393134 0.188616 0)
(0.375503 0.192908 0)
(0.355059 0.194737 0)
(0.332416 0.194711 0)
(0.308576 0.194513 0)
(0.283999 0.194439 0)
(0.259502 0.194955 0)
(0.23671 0.195378 0)
(0.216816 0.196546 0)
(0.199233 0.198395 0)
(0.182825 0.200672 0)
(0.165667 0.204737 0)
(0.147414 0.211445 0)
(0.126521 0.216284 0)
(0.103795 0.216331 0)
(0.0799307 0.214228 0)
(0.0560247 0.210783 0)
(0.036311 0.227811 0)
(0.0158314 0.225823 0)
(3 -4.54364e-16 0)
(3 -5.57481e-16 0)
(3 -4.83974e-16 0)
(3 -4.72014e-16 0)
(3 1.54727e-16 0)
(3 3.77319e-16 0)
(3 -4.7563e-16 0)
(3 -6.57623e-16 0)
(3 -5.92534e-16 0)
(3 -4.65265e-17 0)
(3 -4.29962e-16 0)
(3 -8.16195e-16 0)
(3 -1.77364e-15 0)
(3 -1.70223e-15 0)
(3 -1.7002e-15 0)
(3 -1.62509e-15 0)
(3 -1.46768e-15 0)
(3 -1.01048e-15 0)
(3 3.23608e-16 0)
(3 1.04314e-15 0)
(3 7.41081e-16 0)
(3 5.10014e-16 0)
(3 4.06663e-16 0)
(3 2.10137e-16 0)
(3 2.92436e-16 0)
(3 6.43399e-16 0)
(3 8.08508e-16 0)
(3 3.65753e-16 0)
(3 4.05468e-16 0)
(3 1.74627e-16 0)
(3 -1.44319e-16 0)
(3 -6.37112e-16 0)
(3 -1.60174e-15 0)
(3 -1.5868e-15 0)
(3 -1.08017e-15 0)
(3 -5.95314e-16 0)
(3 -7.0494e-16 0)
(3 -5.94057e-16 0)
(3 -4.10012e-18 0)
(3 1.21323e-16 0)
(3 -9.61197e-17 0)
(3 -4.83482e-16 0)
(3 -6.43648e-16 0)
(3 -7.66799e-16 0)
(3 -4.63263e-16 0)
(3 -2.89343e-17 0)
(3 3.18587e-16 0)
(3 1.55451e-15 0)
(3 1.64101e-15 0)
(3 1.82062e-15 0)
(3 2.30597e-15 0)
(3 1.41033e-15 0)
(3 1.83329e-15 0)
(3 2.90186e-14 0)
(3 3.58748e-13 0)
(3 1.64852e-10 0)
(3 1.64357e-09 0)
(2.99999 9.70243e-07 0)
(2.99957 8.84808e-06 0)
(2.97276 0.00665543 0)
(1.16564 -0.0371972 0)
(0.705172 0.129251 0)
(0.640801 0.252971 0)
(0.616149 0.257432 0)
(0.602821 0.234182 0)
(0.606131 0.190111 0)
(0.592315 0.161706 0)
(0.572856 0.166749 0)
(0.556357 0.191344 0)
(0.53311 0.206643 0)
(0.510883 0.202301 0)
(0.490524 0.187699 0)
(0.466373 0.184516 0)
(0.446899 0.196205 0)
(0.428928 0.20741 0)
(0.413725 0.205588 0)
(0.40017 0.200716 0)
(0.38631 0.203241 0)
(0.370898 0.210122 0)
(0.35267 0.213896 0)
(0.332711 0.214408 0)
(0.311918 0.214666 0)
(0.290045 0.2156 0)
(0.267651 0.217248 0)
(0.245805 0.217987 0)
(0.225485 0.218827 0)
(0.206547 0.220427 0)
(0.188453 0.222731 0)
(0.169634 0.227061 0)
(0.150195 0.23433 0)
(0.128742 0.239958 0)
(0.1059 0.240507 0)
(0.0818505 0.238245 0)
(0.0575284 0.232144 0)
(0.0342983 0.246884 0)
(0.0221922 0.247694 0)
(3 1.13861e-16 0)
(3 -2.83028e-16 0)
(3 -6.30375e-16 0)
(3 1.24714e-16 0)
(3 5.19728e-16 0)
(3 6.8082e-16 0)
(3 6.81874e-16 0)
(3 2.28087e-16 0)
(3 -1.35294e-16 0)
(3 -1.52638e-16 0)
(3 1.32172e-16 0)
(3 -2.88313e-16 0)
(3 -1.04891e-15 0)
(3 -1.42628e-15 0)
(3 -8.84105e-16 0)
(3 -5.98956e-16 0)
(3 -8.94245e-16 0)
(3 -1.71792e-16 0)
(3 -6.15626e-17 0)
(3 3.6604e-17 0)
(3 6.54082e-16 0)
(3 1.38065e-15 0)
(3 1.02804e-15 0)
(3 8.25608e-16 0)
(3 1.05121e-15 0)
(3 1.5654e-15 0)
(3 8.61979e-16 0)
(3 1.41972e-16 0)
(3 -3.50673e-16 0)
(3 -6.32142e-16 0)
(3 -5.90792e-16 0)
(3 -6.91023e-16 0)
(3 -7.55125e-16 0)
(3 -1.0309e-15 0)
(3 -9.86276e-16 0)
(3 -5.91829e-16 0)
(3 -1.32122e-16 0)
(3 -4.00277e-16 0)
(3 -6.25161e-16 0)
(3 -1.0834e-15 0)
(3 -1.79791e-15 0)
(3 -1.70897e-15 0)
(3 -1.06248e-15 0)
(3 -4.18951e-16 0)
(3 -9.61631e-17 0)
(3 6.02301e-16 0)
(3 1.15424e-15 0)
(3 1.22443e-15 0)
(3 1.76106e-15 0)
(3 1.19814e-15 0)
(3 4.54557e-16 0)
(3 4.10384e-16 0)
(3 6.76485e-16 0)
(3 2.60693e-14 0)
(3 4.52803e-13 0)
(3 1.15223e-10 0)
(3 -7.52312e-11 0)
(2.99999 5.75514e-07 0)
(2.99962 -5.93103e-06 0)
(2.9758 0.0026533 0)
(1.25405 -0.0480441 0)
(0.719343 0.181873 0)
(0.634286 0.281558 0)
(0.612633 0.270703 0)
(0.607079 0.238447 0)
(0.610244 0.192912 0)
(0.596842 0.171102 0)
(0.579976 0.182124 0)
(0.560842 0.212501 0)
(0.535548 0.227093 0)
(0.511414 0.223007 0)
(0.488199 0.20955 0)
(0.462488 0.205259 0)
(0.441977 0.214802 0)
(0.424475 0.222707 0)
(0.410158 0.219557 0)
(0.396183 0.214714 0)
(0.381657 0.218099 0)
(0.365736 0.226523 0)
(0.347353 0.231253 0)
(0.32799 0.231471 0)
(0.308651 0.231746 0)
(0.288675 0.233985 0)
(0.268345 0.237367 0)
(0.247916 0.239604 0)
(0.228205 0.241221 0)
(0.209065 0.243316 0)
(0.190247 0.245931 0)
(0.17068 0.250424 0)
(0.150864 0.257881 0)
(0.129554 0.26382 0)
(0.10724 0.264559 0)
(0.0838355 0.262169 0)
(0.0597854 0.25557 0)
(0.0347862 0.26752 0)
(0.0226008 0.268386 0)
(3 5.88801e-17 0)
(3 4.59128e-16 0)
(3 3.58747e-16 0)
(3 -3.63168e-17 0)
(3 1.67523e-16 0)
(3 2.78203e-16 0)
(3 8.89816e-16 0)
(3 1.05293e-15 0)
(3 1.08711e-15 0)
(3 5.89613e-16 0)
(3 4.3985e-16 0)
(3 -5.04615e-16 0)
(3 4.83086e-16 0)
(3 1.93752e-16 0)
(3 -9.15577e-17 0)
(3 1.02724e-16 0)
(3 1.66042e-16 0)
(3 3.59808e-16 0)
(3 3.6655e-16 0)
(3 -5.31195e-16 0)
(3 8.69035e-16 0)
(3 2.05027e-15 0)
(3 2.12488e-15 0)
(3 1.93499e-15 0)
(3 8.87145e-16 0)
(3 2.52304e-16 0)
(3 -1.0127e-15 0)
(3 -8.58744e-16 0)
(3 -1.10231e-15 0)
(3 -7.97272e-16 0)
(3 -8.19063e-16 0)
(3 -6.95596e-16 0)
(3 4.15115e-16 0)
(3 2.1101e-16 0)
(3 3.88178e-16 0)
(3 4.27503e-16 0)
(3 3.26357e-17 0)
(3 -1.99645e-16 0)
(3 -1.42256e-15 0)
(3 -1.26461e-15 0)
(3 -3.57928e-17 0)
(3 -5.84782e-16 0)
(3 -1.177e-16 0)
(3 2.64209e-16 0)
(3 6.40692e-16 0)
(3 1.7194e-15 0)
(3 1.58381e-15 0)
(3 8.62808e-16 0)
(3 7.79425e-17 0)
(3 2.88492e-16 0)
(3 1.35352e-16 0)
(3 -1.1699e-16 0)
(3 -2.03693e-16 0)
(3 2.48861e-14 0)
(3 7.58688e-13 0)
(3 1.1092e-10 0)
(3 1.86887e-09 0)
(2.99999 5.3473e-07 0)
(2.99966 -5.90665e-07 0)
(2.97805 0.00258696 0)
(1.33583 -0.0349802 0)
(0.709597 0.238953 0)
(0.616972 0.29557 0)
(0.608649 0.280874 0)
(0.613288 0.234792 0)
(0.614649 0.191304 0)
(0.600698 0.182136 0)
(0.582338 0.201792 0)
(0.55795 0.23648 0)
(0.532627 0.248233 0)
(0.511814 0.244182 0)
(0.493041 0.232059 0)
(0.470752 0.226199 0)
(0.450907 0.232553 0)
(0.432981 0.237068 0)
(0.417552 0.233216 0)
(0.401429 0.229567 0)
(0.384839 0.234966 0)
(0.366599 0.245353 0)
(0.34599 0.250631 0)
(0.325687 0.24967 0)
(0.306369 0.248652 0)
(0.287208 0.251215 0)
(0.26828 0.25601 0)
(0.248964 0.259946 0)
(0.229799 0.262965 0)
(0.210691 0.266077 0)
(0.191618 0.269248 0)
(0.171811 0.273914 0)
(0.152012 0.281408 0)
(0.131018 0.287457 0)
(0.109222 0.28821 0)
(0.0864357 0.285589 0)
(0.0623831 0.279745 0)
(0.0361274 0.289626 0)
(0.0225797 0.28978 0)
(3 2.93259e-16 0)
(3 7.15827e-17 0)
(3 3.7135e-16 0)
(3 8.59342e-17 0)
(3 1.89168e-16 0)
(3 4.69557e-16 0)
(3 -1.54563e-16 0)
(3 -4.06318e-16 0)
(3 -5.85167e-16 0)
(3 -7.99055e-16 0)
(3 -1.01854e-15 0)
(3 -5.13768e-16 0)
(3 -4.9511e-16 0)
(3 -5.02125e-16 0)
(3 -4.27839e-16 0)
(3 8.34143e-17 0)
(3 1.40374e-16 0)
(3 -4.38449e-16 0)
(3 -2.94903e-16 0)
(3 6.18646e-16 0)
(3 8.33958e-16 0)
(3 1.32422e-15 0)
(3 1.46052e-15 0)
(3 1.10231e-15 0)
(3 9.65227e-16 0)
(3 3.97885e-16 0)
(3 5.48112e-16 0)
(3 -4.95913e-17 0)
(3 -7.29892e-16 0)
(3 -1.29849e-15 0)
(3 -1.40946e-15 0)
(3 -1.62935e-15 0)
(3 -1.22921e-15 0)
(3 -6.32904e-16 0)
(3 4.10761e-17 0)
(3 -1.88378e-16 0)
(3 -2.97017e-16 0)
(3 -6.7833e-16 0)
(3 -8.64538e-16 0)
(3 -9.19939e-16 0)
(3 -5.28881e-16 0)
(3 -7.88948e-17 0)
(3 2.50386e-16 0)
(3 7.39531e-16 0)
(3 1.33974e-15 0)
(3 1.38092e-15 0)
(3 2.00975e-15 0)
(3 1.42972e-15 0)
(3 6.04998e-16 0)
(3 4.4449e-16 0)
(3 3.73888e-16 0)
(3 9.30019e-17 0)
(3 3.98541e-16 0)
(3 2.67406e-14 0)
(3 1.10493e-12 0)
(3 1.13275e-10 0)
(3 3.69354e-09 0)
(3 5.12709e-07 0)
(2.9997 7.95451e-06 0)
(2.98046 0.00240273 0)
(1.43957 -0.00328571 0)
(0.705015 0.300319 0)
(0.617561 0.307243 0)
(0.615543 0.281796 0)
(0.629874 0.225422 0)
(0.6322 0.189386 0)
(0.616436 0.193108 0)
(0.592245 0.227841 0)
(0.560524 0.263631 0)
(0.53565 0.267695 0)
(0.519816 0.261038 0)
(0.506069 0.249366 0)
(0.487515 0.243206 0)
(0.468678 0.247226 0)
(0.449772 0.250359 0)
(0.431538 0.247214 0)
(0.41204 0.245706 0)
(0.392637 0.25365 0)
(0.372264 0.266091 0)
(0.350104 0.271593 0)
(0.329155 0.269235 0)
(0.309424 0.266431 0)
(0.290027 0.268576 0)
(0.271386 0.274253 0)
(0.252331 0.279759 0)
(0.233182 0.284337 0)
(0.213936 0.28863 0)
(0.194625 0.292458 0)
(0.174627 0.297335 0)
(0.154741 0.30485 0)
(0.133756 0.311013 0)
(0.111903 0.311834 0)
(0.0889764 0.309141 0)
(0.0642729 0.305038 0)
(0.0372113 0.31327 0)
(0.023719 0.311886 0)
(3 -2.49213e-16 0)
(3 8.81911e-17 0)
(3 -2.756e-18 0)
(3 3.79113e-16 0)
(3 2.65898e-16 0)
(3 -5.02055e-16 0)
(3 -6.73759e-16 0)
(3 -5.94833e-16 0)
(3 -1.5541e-16 0)
(3 -4.24092e-16 0)
(3 6.3317e-16 0)
(3 4.34641e-16 0)
(3 6.3977e-16 0)
(3 7.42587e-16 0)
(3 5.14021e-16 0)
(3 -3.58551e-16 0)
(3 -1.76959e-17 0)