/*--------------------------------*- C++ -*----------------------------------*\
| =========                 |                                                 |
| \\      /  F ield         | OpenFOAM: The Open Source CFD Toolbox           |
|  \\    /   O peration     | Version:  v1812                                 |
|   \\  /    A nd           | Web:      www.OpenFOAM.com                      |
|    \\/     M anipulation  |                                                 |
\*---------------------------------------------------------------------------*/
FoamFile
{
    version     2.0;
    format      ascii;
    class       surfaceScalarField;
    location    "0.4";
    object      phi;
}
// * * * * * * * * * * * * * * * * * * * * * * * * * * * * * * * * * * * * * //

dimensions      [1 0 -1 0 0 0 0];
oriented        oriented;


internalField   nonuniform List<scalar> 
128384
(
0.00262501
-4.74815e-19
0.00262501
1.55024e-18
0.00262501
2.44773e-19
0.00262501
2.07129e-18
0.00262501
1.63407e-18
0.00262501
4.02349e-19
0.00262501
4.52832e-18
0.00262501
1.87324e-18
0.00262501
-6.78008e-19
0.00262501
-1.44499e-18
0.00262501
9.0562e-19
0.00262501
6.55988e-19
0.00262501
8.39104e-19
0.00262501
2.25697e-18
0.00262501
1.72047e-18
0.00262501
1.26197e-18
0.00262501
1.15895e-18
0.00262501
-1.29219e-18
0.00262501
1.10351e-18
0.00262501
-1.71161e-19
0.00262501
-1.14371e-19
0.00262501
-6.3056e-19
0.00262501
-1.73008e-19
0.00262501
-4.13351e-19
0.00262501
4.91028e-20
0.00262501
3.65696e-19
0.00262501
1.97577e-18
0.00262501
3.09817e-18
0.00262501
1.08217e-18
0.00262501
8.43448e-19
0.00262501
4.97623e-19
0.00262501
-1.61388e-19
0.00262501
-7.6643e-19
0.00262501
-6.09282e-19
0.00262501
-1.26195e-18
0.00262501
1.30252e-19
0.00262501
1.33724e-18
0.00262501
1.11896e-18
0.00262501
-5.40316e-19
0.00262501
1.13725e-18
0.00262501
-8.58949e-19
0.00262501
-4.96348e-19
0.00262501
1.32257e-18
0.00262501
-4.84675e-19
0.00262501
1.00589e-18
0.00262501
-2.64177e-18
0.00262501
-1.18649e-18
0.00262501
1.93187e-19
0.00262501
-7.59961e-19
0.00262501
3.24443e-20
0.00262501
-1.68663e-19
0.00262501
-1.99214e-19
0.00262501
-1.71623e-18
0.00262501
-1.41343e-18
0.00262501
-9.54153e-19
0.00262501
-3.21302e-18
0.00262501
-1.05871e-18
0.00262501
8.7577e-17
0.00262501
7.02218e-15
0.00262501
6.56426e-13
0.00262501
4.8266e-11
0.0026248
4.88077e-09
0.00261082
3.11169e-07
0.00217308
4.63797e-05
0.00225499
-0.000181332
0.00214937
8.65821e-05
0.00198012
0.000172901
0.00187758
0.000123676
0.0018695
4.19857e-05
0.00187981
1.6942e-05
0.00187325
2.60305e-05
0.00181184
6.92357e-05
0.00168734
0.000112245
0.00155799
0.000103725
0.00145446
7.82864e-05
0.00136856
6.43233e-05
0.00129023
6.07765e-05
0.00120813
7.04076e-05
0.0011206
8.4921e-05
0.00103686
9.03935e-05
0.00096285
8.69646e-05
0.000897278
8.01484e-05
0.000833558
7.39565e-05
0.000762826
7.02897e-05
0.000680774
6.91415e-05
0.000589525
6.86502e-05
0.000497594
6.61989e-05
0.000418424
6.04007e-05
0.000354751
5.42408e-05
0.000304049
5.24569e-05
0.000262422
5.36766e-05
0.000224104
5.63923e-05
0.000178307
5.98034e-05
0.00011555
6.37338e-05
4.99224e-05
5.94489e-05
3.55717e-05
0.00262501
7.12018e-19
0.00262501
-3.62413e-19
0.00262501
5.00396e-19
0.00262501
4.99495e-19
0.00262501
7.06573e-19
0.00262501
2.16625e-18
0.00262501
1.35368e-19
0.00262501
1.35896e-18
0.00262501
2.93163e-19
0.00262501
1.12941e-18
0.00262501
1.60722e-18
0.00262501
2.03525e-18
0.00262501
3.37598e-18
0.00262501
1.25325e-18
0.00262501
3.5877e-19
0.00262501
1.88782e-19
0.00262501
1.29382e-18
0.00262501
2.40389e-18
0.00262501
2.9841e-19
0.00262501
8.07112e-19
0.00262501
8.97135e-19
0.00262501
7.99586e-19
0.00262501
1.41817e-18
0.00262501
-2.49079e-20
0.00262501
-2.16393e-19
0.00262501
6.42615e-20
0.00262501
-1.8081e-19
0.00262501
-1.76441e-19
0.00262501
1.90685e-18
0.00262501
3.0625e-19
0.00262501
-9.93842e-19
0.00262501
-5.5776e-19
0.00262501
-6.42211e-19
0.00262501
-9.53727e-19
0.00262501
-3.29072e-19
0.00262501
6.96027e-20
0.00262501
-8.22629e-20
0.00262501
1.79508e-18
0.00262501
-3.74729e-20
0.00262501
5.31796e-19
0.00262501
6.9983e-19
0.00262501
3.50581e-19
0.00262501
-2.70772e-18
0.00262501
1.01061e-19
0.00262501
-7.34716e-19
0.00262501
8.69562e-19
0.00262501
4.21167e-19
0.00262501
-1.3322e-18
0.00262501
-2.54459e-19
0.00262501
-1.03102e-18
0.00262501
-7.51372e-20
0.00262501
-9.43055e-19
0.00262501
4.3225e-19
0.00262501
1.12762e-18
0.00262501
-1.4207e-18
0.00262501
2.57952e-19
0.00262501
-5.85925e-18
0.00262501
-2.57415e-16
0.00262501
-1.77305e-14
0.00262501
-1.03514e-12
0.00262501
-7.36364e-11
0.00262481
-2.69399e-09
0.00261196
-2.21577e-07
0.00228208
-1.80886e-05
0.00235537
-0.000373295
0.00229404
0.000140398
0.00214294
0.000322457
0.00201256
0.000267533
0.00193887
0.000139082
0.00191596
5.93017e-05
0.00188769
6.94534e-05
0.00182538
0.000134007
0.00172792
0.000199158
0.00163323
0.000178489
0.00154368
0.000145596
0.00144279
0.000143361
0.00132245
0.000160908
0.00120798
0.0001719
0.0011199
0.000170701
0.00105086
0.000166742
0.000990453
0.000160832
0.000932323
0.000153173
0.000871046
0.000145737
0.000800727
0.000140407
0.000719447
0.00013787
0.000628925
0.000136694
0.000536632
0.00013223
0.000455111
0.000122042
0.000388232
0.000111281
0.000334905
0.000107212
0.000291818
0.000108704
0.000253376
0.000113063
0.000208883
0.000117929
0.000146965
0.000126326
7.09415e-05
0.000128828
9.27236e-05
0.00262501
-6.72825e-20
0.00262501
-1.72396e-21
0.00262501
5.78506e-19
0.00262501
-3.69887e-19
0.00262501
-1.50416e-19
0.00262501
-7.7867e-19
0.00262501
-5.85617e-20
0.00262501
-9.46022e-19
0.00262501
-1.85006e-19
0.00262501
6.85135e-19
0.00262501
-2.27474e-20
0.00262501
1.76436e-18
0.00262501
1.56689e-18
0.00262501
1.76143e-18
0.00262501
1.37488e-18
0.00262501
6.57051e-19
0.00262501
7.89587e-19
0.00262501
1.66832e-18
0.00262501
1.52061e-18
0.00262501
1.80055e-18
0.00262501
1.65706e-19
0.00262501
7.39336e-19
0.00262501
4.25305e-19
0.00262501
1.3876e-18
0.00262501
1.09349e-18
0.00262501
-1.39838e-18
0.00262501
-1.28261e-18
0.00262501
4.40759e-19
0.00262501
-1.57157e-18
0.00262501
-5.70984e-19
0.00262501
-7.30067e-20
0.00262501
6.5459e-19
0.00262501
-4.60667e-19
0.00262501
-1.46101e-20
0.00262501
-6.58801e-19
0.00262501
-7.30999e-19
0.00262501
-6.41674e-19
0.00262501
-5.98551e-19
0.00262501
-2.86283e-20
0.00262501
-2.1549e-20
0.00262501
1.16585e-18
0.00262501
2.30752e-18
0.00262501
7.7747e-19
0.00262501
4.01925e-19
0.00262501
-9.73512e-20
0.00262501
7.90933e-19
0.00262501
7.66277e-19
0.00262501
4.35821e-19
0.00262501
7.53511e-19
0.00262501
3.91535e-19
0.00262501
7.04462e-19
0.00262501
2.32253e-18
0.00262501
1.61568e-18
0.00262501
2.48665e-19
0.00262501
9.22773e-19
0.00262501
8.70398e-19
0.00262501
-3.55886e-18
0.00262501
-4.1447e-16
0.00262501
-4.224e-14
0.00262501
-3.29144e-12
0.00262501
-3.07792e-10
0.00262482
-2.26808e-08
0.00261359
-2.27929e-06
0.00231313
-9.83212e-05
0.00225532
-0.000413276
0.00220118
0.000213734
0.00211179
0.000431703
0.00202469
0.000376632
0.00197085
0.000213256
0.00193626
0.000104844
0.00188948
0.000122074
0.00181302
0.000206298
0.00172514
0.000270349
0.00163577
0.000245185
0.00154284
0.000215702
0.00144072
0.000223118
0.00133826
0.000242296
0.00125206
0.000244593
0.0011848
0.000236045
0.00113003
0.000229795
0.00108007
0.000225288
0.00102832
0.000220459
0.000970668
0.000215364
0.000901717
0.000211079
0.00081869
0.000209679
0.000725149
0.000209355
0.000625941
0.00020474
0.000534117
0.000191972
0.000457661
0.000176703
0.000397
0.000168685
0.000349082
0.000168804
0.000307901
0.000172793
0.000264982
0.00017611
0.000210256
0.000182344
0.000122249
0.000209807
0.000202937
0.00262501
-7.74963e-19
0.00262501
2.31159e-19
0.00262501
1.15551e-18
0.00262501
1.24682e-20
0.00262501
-1.74621e-19
0.00262501
-1.30694e-18
0.00262501
-1.56795e-18
0.00262501
-7.16454e-19
0.00262501
-5.43148e-19
0.00262501
-1.06225e-18
0.00262501
4.16823e-20
0.00262501
1.44145e-18
0.00262501
1.70409e-18
0.00262501
2.25277e-18
0.00262501
2.06918e-18
0.00262501
2.66826e-18
0.00262501
-5.44963e-19
0.00262501
4.24254e-19
0.00262501
8.21442e-19
0.00262501
3.66017e-19
0.00262501
1.29725e-18
0.00262501
-3.54014e-19
0.00262501
-6.872e-19
0.00262501
8.93073e-19
0.00262501
1.5542e-18
0.00262501
1.24171e-18
0.00262501
1.45065e-18
0.00262501
-1.83332e-18
0.00262501
-4.94483e-19
0.00262501
-2.1398e-19
0.00262501
4.39667e-19
0.00262501
9.12838e-19
0.00262501
1.77713e-18
0.00262501
1.0249e-19
0.00262501
-8.11037e-20
0.00262501
-2.49565e-18
0.00262501
-7.27706e-19
0.00262501
-1.17608e-18
0.00262501
-1.10897e-18
0.00262501
6.04526e-19
0.00262501
8.89436e-20
0.00262501
-9.441e-19
0.00262501
-2.22026e-19
0.00262501
-5.40991e-19
0.00262501
-2.48873e-19
0.00262501
-8.83061e-19
0.00262501
3.186e-19
0.00262501
7.85049e-19
0.00262501
-8.08049e-19
0.00262501
5.39299e-19
0.00262501
1.57632e-19
0.00262501
7.24012e-19
0.00262501
1.33127e-18
0.00262501
1.2316e-18
0.00262501
1.26258e-18
0.00262501
1.37335e-18
0.00262501
1.17948e-17
0.00262501
8.62718e-16
0.00262501
6.36791e-14
0.00262501
5.22982e-12
0.00262501
4.09524e-10
0.00262472
3.41794e-08
0.00260578
2.61881e-06
0.00190581
0.000257263
0.001668
-0.000262936
0.00172535
0.000192564
0.00173747
0.000445383
0.00171323
0.00042822
0.00167076
0.000274802
0.0016226
0.000152153
0.00159488
0.000149811
0.00157614
0.000221755
0.00153558
0.000303614
0.00147828
0.000288573
0.00141218
0.000263087
0.00134204
0.00027298
0.00127469
0.000292439
0.00121559
0.000294299
0.0011648
0.000287311
0.00111991
0.000283305
0.00107468
0.000283441
0.0010234
0.00028441
0.000962306
0.00028444
0.000888084
0.000283045
0.000800617
0.000283368
0.000702765
0.00028411
0.00060083
0.000279551
0.00050732
0.00026407
0.000429492
0.000244644
0.000367305
0.000232679
0.00031669
0.000231542
0.000271375
0.000235574
0.00022102
0.000238789
0.000158001
0.000244617
7.93483e-05
0.000280959
0.000271928
0.00262501
4.54056e-19
0.00262501
-2.01387e-19
0.00262501
-1.40369e-18
0.00262501
2.17084e-19
0.00262501
4.12467e-19
0.00262501
3.65127e-19
0.00262501
8.43456e-20
0.00262501
-1.36345e-18
0.00262501
-4.09183e-19
0.00262501
8.40071e-20
0.00262501
1.37316e-18
0.00262501
-8.56539e-20
0.00262501
6.5716e-19
0.00262501
3.77846e-19
0.00262501
1.23456e-18
0.00262501
-1.05842e-19
0.00262501
-4.98423e-19
0.00262501
5.71211e-20
0.00262501
-1.17952e-19
0.00262501
1.30446e-19
0.00262501
-1.63804e-18
0.00262501
-2.87644e-20
0.00262501
7.6315e-19
0.00262501
2.85284e-18
0.00262501
2.01853e-18
0.00262501
1.77153e-18
0.00262501
2.66656e-18
0.00262501
2.55459e-18
0.00262501
1.13686e-18
0.00262501
-1.02059e-18
0.00262501
7.6513e-19
0.00262501
-1.24807e-18
0.00262501
-2.68597e-18
0.00262501
-9.69936e-19
0.00262501
-9.60523e-19
0.00262501
-7.35238e-19
0.00262501
3.70724e-19
0.00262501
9.54434e-19
0.00262501
1.19143e-18
0.00262501
-8.58603e-19
0.00262501
1.11578e-19
0.00262501
-6.40971e-19
0.00262501
-2.34555e-19
0.00262501
-9.20973e-19
0.00262501
-1.4119e-18
0.00262501
3.59471e-19
0.00262501
-6.62363e-19
0.00262501
-4.00673e-19
0.00262501
4.58584e-19
0.00262501
1.11056e-18
0.00262501
1.0027e-18
0.00262501
1.20737e-18
0.00262501
9.08362e-19
0.00262501
9.69554e-19
0.00262501
2.35443e-18
0.00262501
2.30967e-18
0.00262501
8.51315e-18
0.00262501
4.576e-16
0.00262501
3.38876e-14
0.00262501
2.30712e-12
0.00262501
1.49825e-10
0.00262485
9.34656e-09
0.00261564
4.9665e-07
0.00238714
0.000156665
0.00222668
-0.000223126
0.00208152
0.000352809
0.00195284
0.000596142
0.00186245
0.000542826
0.00180572
0.000364096
0.00174097
0.00022645
0.00166457
0.000222549
0.00156921
0.000296473
0.00149891
0.000356882
0.00143558
0.000338808
0.00137229
0.00031277
0.00130849
0.000323192
0.00124912
0.00033874
0.001198
0.000339813
0.00115437
0.000334301
0.00111345
0.000333897
0.0010688
0.000340305
0.00101604
0.000348249
0.000952566
0.000353497
0.000876951
0.000354879
0.000790203
0.000356287
0.00069359
0.000358209
0.000593545
0.000353684
0.000500593
0.000336854
0.000421541
0.000314489
0.000356791
0.000299539
0.000302865
0.000297151
0.000253226
0.00030066
0.00019873
0.000303696
0.000137713
0.000304287
6.99416e-05
0.000341649
0.000333707
0.00262501
-2.82454e-19
0.00262501
2.01584e-19
0.00262501
8.38323e-19
0.00262501
-1.47352e-19
0.00262501
-3.08574e-20
0.00262501
6.22675e-19
0.00262501
-1.08624e-18
0.00262501
4.00902e-19
0.00262501
1.23847e-18
0.00262501
1.89109e-19
0.00262501
-2.3383e-18
0.00262501
9.69181e-19
0.00262501
1.45875e-18
0.00262501
-1.65931e-18
0.00262501
-1.31326e-18
0.00262501
1.57981e-19
0.00262501
-2.53358e-18
0.00262501
-2.18372e-18
0.00262501
-2.38589e-18
0.00262501
-2.41386e-18
0.00262501
3.16857e-19
0.00262501
3.55493e-19
0.00262501
4.47446e-20
0.00262501
-1.53962e-19
0.00262501
-8.65568e-19
0.00262501
1.62878e-18
0.00262501
9.28739e-19
0.00262501
9.03917e-19
0.00262501
1.89191e-18
0.00262501
3.72543e-18
0.00262501
1.07843e-18
0.00262501
1.84922e-18
0.00262501
1.61974e-18
0.00262501
-2.04123e-19
0.00262501
-1.25781e-18
0.00262501
7.02676e-19
0.00262501
-9.98845e-19
0.00262501
-5.18703e-19
0.00262501
7.34325e-19
0.00262501
8.00947e-19
0.00262501
1.36017e-18
0.00262501
2.87334e-19
0.00262501
4.59128e-19
0.00262501
1.07626e-18
0.00262501
-4.56253e-19
0.00262501
-1.69855e-18
0.00262501
-2.55621e-18
0.00262501
-1.8786e-18
0.00262501
-9.42687e-19
0.00262501
6.52256e-19
0.00262501
1.44502e-18
0.00262501
1.44027e-18
0.00262501
1.12993e-18
0.00262501
1.83796e-18
0.00262501
1.21437e-18
0.00262501
1.88473e-18
0.00262501
2.77211e-18
0.00262501
1.57141e-16
0.00262501
1.19584e-14
0.00262501
8.75169e-13
0.00262501
5.88218e-11
0.00262486
4.06218e-09
0.00261485
2.40506e-07
0.00235973
8.26249e-05
0.00225089
-0.000256623
0.00213323
0.000450635
0.00208664
0.000678106
0.00203511
0.000628391
0.0019988
0.000437556
0.00194243
0.00028505
0.00186557
0.000295455
0.00174091
0.000396458
0.00160476
0.000466427
0.00149687
0.00043252
0.00141319
0.000385022
0.00134376
0.000382144
0.00128128
0.000391333
0.00122662
0.000391633
0.0011795
0.000387005
0.00113429
0.000389949
0.00108403
0.000402301
0.00102431
0.000417049
0.00095317
0.000427431
0.000870573
0.000431319
0.000779303
0.000433165
0.000680875
0.000434707
0.000581468
0.000428661
0.000490152
0.000409461
0.000412898
0.000383691
0.000349384
0.000365729
0.000295916
0.000362208
0.000245677
0.000365581
0.000191106
0.000367638
0.00013176
0.000362072
7.09356e-05
0.00039478
0.000397815
0.00262501
8.90167e-20
0.00262501
1.16891e-18
0.00262501
-9.71203e-19
0.00262501
-5.31238e-19
0.00262501
-1.51432e-19
0.00262501
-3.98577e-20
0.00262501
4.04041e-19
0.00262501
1.66401e-18
0.00262501
-3.21459e-19
0.00262501
2.15381e-18
0.00262501
6.27625e-19
0.00262501
-1.34826e-18
0.00262501
-3.31165e-18
0.00262501
3.04051e-18
0.00262501
7.47026e-19
0.00262501
-3.21296e-19
0.00262501
1.2636e-18
0.00262501
7.05311e-19
0.00262501
6.20598e-19
0.00262501
3.01352e-19
0.00262501
2.6928e-19
0.00262501
-1.08676e-18
0.00262501
2.02865e-19
0.00262501
2.45725e-19
0.00262501
8.13562e-19
0.00262501
2.10124e-19
0.00262501
-5.87267e-19
0.00262501
1.7501e-18
0.00262501
6.29338e-19
0.00262501
8.99606e-19
0.00262501
2.02686e-19
0.00262501
7.94749e-19
0.00262501
-2.13246e-19
0.00262501
8.46749e-20
0.00262501
1.69695e-18
0.00262501
9.92265e-19
0.00262501
7.42596e-19
0.00262501
1.16715e-18
0.00262501
2.67895e-18
0.00262501
-3.35443e-19
0.00262501
-7.74384e-19
0.00262501
-1.31862e-18
0.00262501
-1.26347e-20
0.00262501
-4.21089e-19
0.00262501
1.08087e-18
0.00262501
-1.95794e-18
0.00262501
-6.75104e-19
0.00262501
-1.40334e-18
0.00262501
-9.60293e-19
0.00262501
-6.81844e-19
0.00262501
-3.44762e-19
0.00262501
-2.53192e-19
0.00262501
1.25021e-18
0.00262501
1.60252e-19
0.00262501
7.38213e-19
0.00262501
1.28953e-18
0.00262501
3.99904e-18
0.00262501
1.32122e-16
0.00262501
1.06391e-14
0.00262501
9.00074e-13
0.00262501
7.20995e-11
0.00262488
5.314e-09
0.00261565
4.53993e-07
0.00231923
7.55201e-05
0.0021713
-0.000247733
0.00210472
0.000532761
0.00207443
0.000737379
0.00202828
0.000693289
0.00198748
0.0004925
0.00192824
0.000333312
0.00186933
0.00034802
0.00178296
0.000458506
0.00167722
0.000541685
0.00158067
0.000512116
0.00149662
0.000459717
0.00142188
0.000451366
0.00135011
0.000458975
0.00128144
0.000460126
0.00121808
0.000457426
0.00115683
0.00046244
0.00109232
0.000476846
0.00102181
0.00049358
0.000943591
0.000504905
0.000857944
0.000507976
0.000767052
0.000508644
0.00067177
0.000508927
0.000576998
0.000501078
0.000490235
0.000479645
0.000416236
0.000451026
0.000354803
0.000430374
0.000302073
0.000426164
0.000250686
0.000430416
0.000192446
0.000434049
0.00012403
0.000429378
6.55487e-05
0.000446776
0.000455954
0.00262501
-2.2148e-19
0.00262501
-6.22527e-19
0.00262501
-4.31091e-21
0.00262501
9.9353e-19
0.00262501
-1.80358e-19
0.00262501
-1.67129e-18
0.00262501
7.41962e-19
0.00262501
-2.2326e-19
0.00262501
-1.74262e-19
0.00262501
-1.02426e-18
0.00262501
7.81956e-19
0.00262501
-3.75739e-19
0.00262501
8.80213e-19
0.00262501
-1.268e-18
0.00262501
-2.34508e-19
0.00262501
1.02681e-18
0.00262501
2.87655e-18
0.00262501
4.78104e-19
0.00262501
2.97464e-18
0.00262501
1.56072e-18
0.00262501
2.51438e-18
0.00262501
2.52226e-18
0.00262501
5.72943e-19
0.00262501
3.81548e-19
0.00262501
4.12734e-19
0.00262501
2.45997e-18
0.00262501
6.4461e-19
0.00262501
6.42708e-19
0.00262501
7.06392e-19
0.00262501
1.31772e-18
0.00262501
2.39462e-18
0.00262501
1.22944e-18
0.00262501
2.50226e-18
0.00262501
2.6296e-18
0.00262501
1.59281e-18
0.00262501
2.26479e-18
0.00262501
2.11899e-18
0.00262501
3.56622e-18
0.00262501
-5.33238e-19
0.00262501
-1.68436e-18
0.00262501
-2.59102e-18
0.00262501
7.00775e-19
0.00262501
2.41244e-19
0.00262501
-7.78538e-19
0.00262501
-8.27809e-19
0.00262501
1.26988e-18
0.00262501
8.47329e-19
0.00262501
2.00347e-18
0.00262501
5.44019e-19
0.00262501
-9.66717e-19
0.00262501
-1.70712e-18
0.00262501
1.2453e-20
0.00262501
-2.97225e-19
0.00262501
1.39816e-18
0.00262501
2.56871e-18
0.00262501
1.13458e-18
0.00262501
-2.53594e-20
0.00262501
7.85429e-17
0.00262501
6.40197e-15
0.00262501
5.68116e-13
0.00262501
4.67111e-11
0.00262491
3.45204e-09
0.00261804
3.4096e-07
0.00238816
5.47997e-05
0.00216393
-0.000185787
0.00208768
0.000624002
0.00206166
0.000783286
0.00202932
0.00073609
0.00198283
0.000543947
0.00191709
0.000380554
0.00186343
0.000392411
0.00178803
0.000507107
0.00169341
0.000600233
0.0016025
0.000580849
0.00151592
0.000533034
0.00143714
0.00052499
0.00136392
0.000532025
0.00129639
0.000532522
0.0012341
0.000530645
0.00117293
0.000536405
0.00110737
0.000551275
0.00103517
0.000568654
0.000955213
0.000580419
0.0008689
0.000582717
0.000778499
0.000582659
0.000685205
0.000582073
0.000593173
0.000573097
0.000508403
0.00055009
0.000434757
0.000519558
0.000372219
0.000496941
0.000317284
0.000492362
0.000262991
0.000497397
0.000202431
0.000501898
0.000129332
0.00050085
6.85757e-05
0.000500908
0.000518578
0.00262501
-6.09052e-19
0.00262501
-3.9586e-19
0.00262501
2.80132e-19
0.00262501
6.9532e-19
0.00262501
9.75116e-19
0.00262501
1.32068e-18
0.00262501
-1.73432e-20
0.00262501
-2.12258e-18
0.00262501
6.16189e-19
0.00262501
7.29373e-19
0.00262501
-9.64726e-19
0.00262501
-2.10935e-18
0.00262501
-5.95153e-19
0.00262501
-5.48703e-19
0.00262501
2.50651e-19
0.00262501
-9.86524e-19
0.00262501
-1.14247e-18
0.00262501
1.56358e-18
0.00262501
3.73049e-20
0.00262501
6.2934e-19
0.00262501
-8.39697e-20
0.00262501
-1.50407e-19
0.00262501
1.26146e-18
0.00262501
1.50877e-18
0.00262501
1.87047e-19
0.00262501
-1.8211e-18
0.00262501
1.9799e-19
0.00262501
9.74128e-20
0.00262501
1.47859e-19
0.00262501
3.87263e-19
0.00262501
7.49412e-19
0.00262501
1.0844e-18
0.00262501
8.65712e-19
0.00262501
1.16552e-18
0.00262501
8.61159e-19
0.00262501
1.23385e-18
0.00262501
4.08295e-19
0.00262501
-7.66919e-19
0.00262501
2.23665e-19
0.00262501
-2.3339e-19
0.00262501
4.14445e-19
0.00262501
6.65129e-19
0.00262501
7.53518e-19
0.00262501
2.30014e-19
0.00262501
-5.52494e-19
0.00262501
2.76274e-19
0.00262501
7.16466e-19
0.00262501
3.59444e-19
0.00262501
-3.44952e-19
0.00262501
-3.58811e-19
0.00262501
5.44788e-19
0.00262501
-2.10064e-19
0.00262501
7.43355e-19
0.00262501
9.80774e-19
0.00262501
5.77742e-19
0.00262501
-1.20309e-18
0.00262501
1.99544e-18
0.00262501
5.98908e-17
0.00262501
6.54524e-15
0.00262501
6.91869e-13
0.00262501
6.09831e-11
0.00262494
4.80285e-09
0.00262036
3.67905e-07
0.00245549
3.80093e-05
0.00205022
1.81854e-05
0.00201242
0.00067054
0.00199732
0.00081368
0.00198328
0.000766051
0.00194818
0.000588828
0.00189278
0.000419328
0.00183498
0.000438391
0.00174803
0.000562178
0.00164974
0.000659058
0.00156233
0.000645329
0.0014836
0.000600746
0.00141776
0.000591464
0.00135774
0.000598025
0.00130004
0.000601023
0.00124417
0.000601791
0.00118482
0.0006096
0.00111798
0.000624965
0.00104294
0.00064231
0.000960608
0.000654142
0.000873543
0.000655925
0.000782388
0.00065593
0.000689644
0.000655249
0.000599018
0.000645771
0.000515218
0.000621661
0.000441503
0.000589905
0.000377814
0.000565637
0.000320952
0.000560322
0.000263999
0.000565716
0.000201379
0.000570232
0.000128607
0.000571213
6.98276e-05
0.00055216
0.000583076
0.00262501
4.4187e-19
0.00262501
2.69413e-19
0.00262501
-7.6963e-19
0.00262501
1.6716e-19
0.00262501
1.7761e-18
0.00262501
1.24431e-18
0.00262501
-4.73396e-19
0.00262501
5.03752e-19
0.00262501
-8.44913e-19
0.00262501
-2.8699e-18
0.00262501
-2.27387e-18
0.00262501
1.34229e-18
0.00262501
-9.86599e-19
0.00262501
-2.26352e-18
0.00262501
-9.86735e-19
0.00262501
2.79006e-19
0.00262501
5.63109e-19
0.00262501
-7.45986e-19
0.00262501
-5.78758e-19
0.00262501
-7.98499e-19
0.00262501
-6.48312e-19
0.00262501
1.45238e-18
0.00262501
-7.1743e-20
0.00262501
-1.41631e-19
0.00262501
-5.89808e-19
0.00262501
-4.36967e-19
0.00262501
8.4257e-20
0.00262501
3.78505e-19
0.00262501
-7.01405e-19
0.00262501
-2.97937e-19
0.00262501
4.23729e-20
0.00262501
7.26093e-19
0.00262501
6.01875e-19
0.00262501
1.72403e-18
0.00262501
2.49806e-18
0.00262501
3.1628e-19
0.00262501
-8.45758e-19
0.00262501
-2.85747e-19
0.00262501
-1.55964e-19
0.00262501
2.88435e-19
0.00262501
1.87065e-18
0.00262501
3.94578e-19
0.00262501
5.83735e-19
0.00262501
7.31342e-19
0.00262501
9.16248e-19
0.00262501
-3.86152e-19
0.00262501
2.43906e-19
0.00262501
-3.05973e-19
0.00262501
1.24794e-18
0.00262501
1.12246e-18
0.00262501
1.18869e-18
0.00262501
1.43381e-18
0.00262501
1.62975e-18
0.00262501
7.61042e-19
0.00262501
-2.072e-20
0.00262501
2.23334e-19
0.00262501
9.10313e-20
0.00262501
1.76623e-17
0.00262501
1.18262e-15
0.00262501
1.16632e-13
0.00262501
1.12573e-11
0.00262498
1.43871e-09
0.0026221
1.63695e-07
0.00250103
2.5502e-05
0.00216129
0.000139093
0.00203769
0.000782078
0.00200974
0.000850153
0.00199537
0.000802835
0.00195406
0.000644915
0.0018895
0.000476049
0.00180547
0.000499478
0.00170164
0.000621818
0.00161118
0.000709707
0.00153991
0.000696111
0.00147667
0.000656424
0.00142337
0.000650682
0.001372
0.0006607
0.00131979
0.000668624
0.0012649
0.000674312
0.00120283
0.000685639
0.00113057
0.000701501
0.00104947
0.000717497
0.000962699
0.0007279
0.000873547
0.00072872
0.000782768
0.000728331
0.000692132
0.0007276
0.000604143
0.000717965
0.000523162
0.000693196
0.000451447
0.000660685
0.000388638
0.00063455
0.000331517
0.000627726
0.000272508
0.000633627
0.000205853
0.000640158
0.00013013
0.000644137
6.86416e-05
0.000608707
0.000646208
0.00262501
-1.28892e-19
0.00262501
-4.91077e-19
0.00262501
-2.52221e-19
0.00262501
-1.08755e-18
0.00262501
-6.1462e-19
0.00262501
-4.78363e-19
0.00262501
6.55028e-20
0.00262501
5.3574e-19
0.00262501
9.91053e-19
0.00262501
-5.63731e-20
0.00262501
1.07482e-18
0.00262501
-1.24434e-18
0.00262501
-1.96179e-18
0.00262501
2.82996e-19
0.00262501
-1.2517e-18
0.00262501
-7.07451e-19
0.00262501
-2.88605e-18
0.00262501
-1.87019e-18
0.00262501
-1.4788e-18
0.00262501
-5.72069e-19
0.00262501
1.2325e-18
0.00262501
-2.20247e-18
0.00262501
-1.28992e-19
0.00262501
4.68251e-19
0.00262501
-8.47953e-19
0.00262501
5.70935e-19
0.00262501
5.34724e-19
0.00262501
-2.645e-19
0.00262501
9.06908e-19
0.00262501
1.41238e-18
0.00262501
-1.27548e-18
0.00262501
1.14918e-18
0.00262501
1.31351e-18
0.00262501
1.68923e-18
0.00262501
9.72815e-19
0.00262501
4.02755e-19
0.00262501
3.84226e-19
0.00262501
-1.60809e-18
0.00262501
-8.19769e-19
0.00262501
2.64933e-18
0.00262501
4.73747e-19
0.00262501
1.88066e-19
0.00262501
-1.66772e-19
0.00262501
7.50506e-19
0.00262501
1.2827e-18
0.00262501
4.80186e-19
0.00262501
-5.41803e-19
0.00262501
2.42009e-19
0.00262501
-1.49344e-19
0.00262501
-1.22281e-19
0.00262501
-5.03124e-19
0.00262501
-1.33478e-19
0.00262501
-1.13054e-18
0.00262501
-5.54562e-19
0.00262501
-2.12008e-19
0.00262501
-4.4244e-19
0.00262501
-1.83141e-20
0.00262501
1.77658e-17
0.00262501
7.61824e-16
0.00262501
3.3209e-14
0.00262501
1.53319e-12
0.002625
5.74846e-11
0.00262468
2.32878e-09
0.00262346
1.35465e-06
0.00231246
0.000146887
0.00219132
0.000855071
0.0021561
0.000898376
0.00212396
0.000868753
0.00203376
0.000748791
0.00190159
0.000598779
0.00177488
0.000586429
0.00167007
0.000679765
0.00159951
0.000749412
0.00154412
0.000737763
0.00149243
0.000704917
0.00144699
0.000706548
0.00139966
0.000723418
0.00134882
0.000737578
0.00129293
0.000748777
0.00122742
0.000764005
0.00114964
0.0007797
0.00106366
0.000792913
0.000975061
0.000800384
0.000884659
0.000800447
0.000794204
0.00080022
0.000704973
0.00080021
0.000618369
0.000791245
0.000538154
0.000766917
0.000466148
0.000734305
0.000402087
0.000705887
0.00034421
0.000695378
0.00028584
0.000698442
0.000221063
0.000704967
0.000144701
0.000716945
5.33896e-05
0.000700798
0.0006906
0.00262501
-8.64235e-19
0.00262501
6.47432e-19
0.00262501
7.1907e-19
0.00262501
6.37223e-22
0.00262501
-8.90933e-19
0.00262501
-7.35002e-19
0.00262501
1.56178e-18
0.00262501
2.65899e-19
0.00262501
-6.53508e-19
0.00262501
1.51065e-18
0.00262501
9.62517e-20
0.00262501
-9.68137e-19
0.00262501
8.04083e-20
0.00262501
-2.60685e-19
0.00262501
1.22522e-18
0.00262501
-4.17291e-19
0.00262501
2.61362e-19
0.00262501
1.42165e-18
0.00262501
-3.25797e-19
0.00262501
2.61495e-18
0.00262501
-2.43599e-18
0.00262501
3.16133e-19
0.00262501
-9.71574e-19
0.00262501
-4.7889e-19
0.00262501
1.19448e-19
0.00262501
-3.62746e-19
0.00262501
-7.0863e-19
0.00262501
-9.10009e-19
0.00262501
9.44721e-19
0.00262501
3.12119e-19
0.00262501
2.07211e-18
0.00262501
4.43086e-19
0.00262501
1.97911e-19
0.00262501
1.31285e-19
0.00262501
-6.69278e-19
0.00262501
-8.44767e-19
0.00262501
2.19314e-18
0.00262501
7.9221e-19
0.00262501
-4.8258e-19
0.00262501
-1.19096e-18
0.00262501
-4.69133e-19
0.00262501
1.36288e-19
0.00262501
3.20393e-19
0.00262501
1.83058e-19
0.00262501
1.29534e-19
0.00262501
-4.73652e-19
0.00262501
-1.11983e-18
0.00262501
-1.85382e-18
0.00262501
7.17793e-19
0.00262501
-4.50275e-19
0.00262501
-5.59027e-19
0.00262501
-2.98791e-19
0.00262501
-8.22754e-19
0.00262501
-1.726e-18
0.00262501
-2.90288e-18
0.00262501
-1.49996e-18
0.00262501
6.808e-19
0.00262501
2.46955e-17
0.00262501
1.38109e-15
0.00262501
8.00329e-14
0.00262501
4.85575e-12
0.002625
2.4988e-10
0.00262469
1.84085e-08
0.00260939
9.76262e-07
0.00223807
0.000204577
0.00222338
0.000832956
0.00223204
0.000913511
0.00222201
0.000891022
0.00211749
0.0008518
0.00195278
0.000747037
0.00179977
0.000700632
0.00168413
0.000753921
0.00161482
0.000792961
0.00156327
0.000780434
0.0015154
0.000755008
0.00146971
0.000766838
0.00141906
0.000791465
0.00136511
0.000810152
0.00130734
0.000824467
0.00124103
0.000840574
0.00116248
0.000854501
0.00107577
0.000864694
0.000986177
0.000870864
0.00089502
0.000871502
0.000803953
0.000873124
0.000714378
0.000874922
0.000627899
0.000866839
0.000548176
0.000843183
0.000476056
0.000810476
0.000410379
0.000779544
0.000349347
0.000764906
0.000289559
0.000763219
0.000230797
0.000763677
0.000165877
0.000776149
7.08657e-05
0.000790229
0.000756619
0.00262501
3.58472e-19
0.00262501
-2.00636e-19
0.00262501
1.09265e-18
0.00262501
7.72569e-19
0.00262501
-2.26726e-19
0.00262501
-1.78398e-18
0.00262501
-1.67262e-18
0.00262501
1.58241e-19
0.00262501
4.98221e-19
0.00262501
-9.24041e-20
0.00262501
-1.79916e-19
0.00262501
5.53876e-19
0.00262501
1.57817e-18
0.00262501
1.39674e-18
0.00262501
-4.08027e-19
0.00262501
9.47828e-19
0.00262501
-1.89149e-19
0.00262501
-6.03547e-19
0.00262501
7.10609e-19
0.00262501
7.53716e-19
0.00262501
4.43199e-19
0.00262501
1.64719e-18
0.00262501
8.42409e-19
0.00262501
7.30015e-19
0.00262501
1.32336e-18
0.00262501
1.42435e-19
0.00262501
2.26221e-19
0.00262501
1.88305e-18
0.00262501
2.83174e-19
0.00262501
4.41871e-19
0.00262501
3.97385e-20
0.00262501
1.40437e-19
0.00262501
-1.06852e-19
0.00262501
1.75006e-19
0.00262501
-3.76136e-19
0.00262501
-2.61949e-19
0.00262501
-7.59279e-19
0.00262501
-8.32592e-19
0.00262501
1.44044e-18
0.00262501
-1.4796e-18
0.00262501
-6.44624e-19
0.00262501
-1.74352e-19
0.00262501
-1.33108e-19
0.00262501
1.04596e-18
0.00262501
3.01684e-19
0.00262501
1.2101e-19
0.00262501
-4.2527e-19
0.00262501
1.39123e-18
0.00262501
-1.16864e-18
0.00262501
-2.3473e-19
0.00262501
-1.40839e-18
0.00262501
-2.50179e-18
0.00262501
-1.29554e-18
0.00262501
-1.22891e-18
0.00262501
-2.83788e-19
0.00262501
2.75351e-19
0.00262501
5.6216e-19
0.00262501
3.01902e-17
0.00262501
1.90716e-15
0.00262501
1.18593e-13
0.00262501
7.27767e-12
0.002625
3.9306e-10
0.0026247
2.6815e-08
0.00260925
1.20322e-06
0.00212902
0.000359505
0.00214161
0.000808113
0.00222153
0.000875317
0.00221925
0.000881533
0.00214149
0.000915297
0.00200317
0.000871088
0.00185782
0.000820842
0.00173972
0.000840969
0.00165962
0.000855143
0.00159742
0.000839646
0.00153938
0.000822522
0.00148365
0.000840341
0.00142638
0.000866208
0.00137287
0.000882421
0.00131812
0.000895185
0.00125398
0.000911559
0.00117562
0.00092479
0.00108782
0.000933728
0.000996394
0.000940725
0.000904079
0.00094317
0.000812866
0.000947151
0.00072368
0.000950603
0.000639307
0.000943433
0.00056182
0.000920435
0.000490568
0.000887879
0.00042368
0.000854908
0.000358772
0.000836911
0.000293544
0.000831538
0.000228773
0.000827345
0.000160681
0.000836897
8.08006e-05
0.000863723
0.000838815
0.00262501
3.18782e-20
0.00262501
1.43855e-19
0.00262501
-2.25901e-19
0.00262501
-1.23491e-18
0.00262501
-9.38357e-19
0.00262501
-1.12139e-20
0.00262501
-2.919e-19
0.00262501
-5.57963e-19
0.00262501
-3.60934e-19
0.00262501
9.47531e-19
0.00262501