/*--------------------------------*- C++ -*----------------------------------*\
| =========                 |                                                 |
| \\      /  F ield         | OpenFOAM: The Open Source CFD Toolbox           |
|  \\    /   O peration     | Version:  v1812                                 |
|   \\  /    A nd           | Web:      www.OpenFOAM.com                      |
|    \\/     M anipulation  |                                                 |
\*---------------------------------------------------------------------------*/
FoamFile
{
    version     2.0;
    format      ascii;
    class       volScalarField;
    location    "0.4";
    object      rho;
}
// * * * * * * * * * * * * * * * * * * * * * * * * * * * * * * * * * * * * * //

dimensions      [1 -3 0 0 0 0 0];


internalField   nonuniform List<scalar> 
64512
(
1.40001
1.40001
1.40001
1.40001
1.40001
1.40001
1.40001
1.40001
1.40001
1.40001
1.40001
1.40001
1.40001
1.40001
1.40001
1.40001
1.40001
1.40001
1.40001
1.40001
1.40001
1.40001
1.40001
1.40001
1.40001
1.40001
1.40001
1.40001
1.40001
1.40001
1.40001
1.40001
1.40001
1.40001
1.40001
1.40001
1.40001
1.40001
1.40001
1.40001
1.40001
1.40001
1.40001
1.40001
1.40001
1.40001
1.40001
1.40001
1.40001
1.40001
1.40001
1.40001
1.40001
1.40001
1.40001
1.40001
1.40001
1.40001
1.40001
1.40001
1.40001
1.40036
1.42545
2.34853
5.15594
5.68264
5.59501
5.57608
5.60755
5.65465
5.68518
5.70759
5.7076
5.68281
5.65939
5.64624
5.63709
5.62406
5.60817
5.59488
5.58283
5.56756
5.5443
5.50468
5.44223
5.35742
5.26327
5.20029
5.18107
5.17952
5.18481
5.19266
5.18588
5.10588
5.06131
5.2358
1.40001
1.40001
1.40001
1.40001
1.40001
1.40001
1.40001
1.40001
1.40001
1.40001
1.40001
1.40001
1.40001
1.40001
1.40001
1.40001
1.40001
1.40001
1.40001
1.40001
1.40001
1.40001
1.40001
1.40001
1.40001
1.40001
1.40001
1.40001
1.40001
1.40001
1.40001
1.40001
1.40001
1.40001
1.40001
1.40001
1.40001
1.40001
1.40001
1.40001
1.40001
1.40001
1.40001
1.40001
1.40001
1.40001
1.40001
1.40001
1.40001
1.40001
1.40001
1.40001
1.40001
1.40001
1.40001
1.40001
1.40001
1.40001
1.40001
1.40001
1.40001
1.40035
1.42441
2.32789
5.10883
5.74138
5.6386
5.62754
5.65681
5.69124
5.71625
5.73052
5.71964
5.70286
5.68629
5.67155
5.65128
5.62689
5.60854
5.59856
5.59171
5.58162
5.5625
5.52569
5.46529
5.38231
5.28661
5.21431
5.18598
5.1815
5.18571
5.19325
5.1902
5.12415
5.06375
5.19864
1.40001
1.40001
1.40001
1.40001
1.40001
1.40001
1.40001
1.40001
1.40001
1.40001
1.40001
1.40001
1.40001
1.40001
1.40001
1.40001
1.40001
1.40001
1.40001
1.40001
1.40001
1.40001
1.40001
1.40001
1.40001
1.40001
1.40001
1.40001
1.40001
1.40001
1.40001
1.40001
1.40001
1.40001
1.40001
1.40001
1.40001
1.40001
1.40001
1.40001
1.40001
1.40001
1.40001
1.40001
1.40001
1.40001
1.40001
1.40001
1.40001
1.40001
1.40001
1.40001
1.40001
1.40001
1.40001
1.40001
1.40001
1.40001
1.40001
1.40001
1.40001
1.40038
1.42613
2.36942
4.97272
5.68303
5.62379
5.63815
5.67764
5.69869
5.72532
5.74139
5.73053
5.71914
5.70559
5.69063
5.66734
5.64028
5.62141
5.61311
5.60928
5.60225
5.58593
5.55364
5.49972
5.42398
5.33074
5.24713
5.20512
5.19556
5.19854
5.20596
5.20515
5.14533
5.08036
5.2115
1.40001
1.40001
1.40001
1.40001
1.40001
1.40001
1.40001
1.40001
1.40001
1.40001
1.40001
1.40001
1.40001
1.40001
1.40001
1.40001
1.40001
1.40001
1.40001
1.40001
1.40001
1.40001
1.40001
1.40001
1.40001
1.40001
1.40001
1.40001
1.40001
1.40001
1.40001
1.40001
1.40001
1.40001
1.40001
1.40001
1.40001
1.40001
1.40001
1.40001
1.40001
1.40001
1.40001
1.40001
1.40001
1.40001
1.40001
1.40001
1.40001
1.40001
1.40001
1.40001
1.40001
1.40001
1.40001
1.40001
1.40001
1.40001
1.40001
1.40001
1.40001
1.40047
1.43327
2.50001
4.84025
5.42679
5.50985
5.57117
5.61953
5.62636
5.62151
5.6343
5.6347
5.64709
5.64526
5.63735
5.62285
5.60809
5.5995
5.59806
5.59751
5.59084
5.57301
5.53773
5.4814
5.40521
5.31259
5.22878
5.18658
5.17819
5.18255
5.1904
5.18632
5.11494
5.05861
5.20402
1.40001
1.40001
1.40001
1.40001
1.40001
1.40001
1.40001
1.40001
1.40001
1.40001
1.40001
1.40001
1.40001
1.40001
1.40001
1.40001
1.40001
1.40001
1.40001
1.40001
1.40001
1.40001
1.40001
1.40001
1.40001
1.40001
1.40001
1.40001
1.40001
1.40001
1.40001
1.40001
1.40001
1.40001
1.40001
1.40001
1.40001
1.40001
1.40001
1.40001
1.40001
1.40001
1.40001
1.40001
1.40001
1.40001
1.40001
1.40001
1.40001
1.40001
1.40001
1.40001
1.40001
1.40001
1.40001
1.40001
1.40001
1.40001
1.40001
1.40001
1.40001
1.40033
1.42253
2.24844
5.0374
5.61427
5.53793
5.55734
5.64984
5.70594
5.71509
5.67372
5.633
5.63224
5.62999
5.62699
5.6133
5.59827
5.59341
5.59565
5.59629
5.58885
5.56976
5.53336
5.47659
5.40119
5.3107
5.22909
5.18755
5.17826
5.18223
5.18961
5.18313
5.1055
5.05352
5.2095
1.40001
1.40001
1.40001
1.40001
1.40001
1.40001
1.40001
1.40001
1.40001
1.40001
1.40001
1.40001
1.40001
1.40001
1.40001
1.40001
1.40001
1.40001
1.40001
1.40001
1.40001
1.40001
1.40001
1.40001
1.40001
1.40001
1.40001
1.40001
1.40001
1.40001
1.40001
1.40001
1.40001
1.40001
1.40001
1.40001
1.40001
1.40001
1.40001
1.40001
1.40001
1.40001
1.40001
1.40001
1.40001
1.40001
1.40001
1.40001
1.40001
1.40001
1.40001
1.40001
1.40001
1.40001
1.40001
1.40001
1.40001
1.40001
1.40001
1.40001
1.40001
1.40024
1.41721
2.10035
4.96135
5.60702
5.53555
5.58861
5.67037
5.71966
5.7349
5.71208
5.65
5.62924
5.63058
5.63204
5.61967
5.60205
5.5952
5.59723
5.59794
5.58913
5.56772
5.52939
5.47153
5.39571
5.30593
5.22632
5.18582
5.17645
5.18067
5.18786
5.18023
5.09959
5.04831
5.20698
1.40001
1.40001
1.40001
1.40001
1.40001
1.40001
1.40001
1.40001
1.40001
1.40001
1.40001
1.40001
1.40001
1.40001
1.40001
1.40001
1.40001
1.40001
1.40001
1.40001
1.40001
1.40001
1.40001
1.40001
1.40001
1.40001
1.40001
1.40001
1.40001
1.40001
1.40001
1.40001
1.40001
1.40001
1.40001
1.40001
1.40001
1.40001
1.40001
1.40001
1.40001
1.40001
1.40001
1.40001
1.40001
1.40001
1.40001
1.40001
1.40001
1.40001
1.40001
1.40001
1.40001
1.40001
1.40001
1.40001
1.40001
1.40001
1.40001
1.40001
1.40001
1.40019
1.41356
1.97472
4.83995
5.55068
5.54466
5.59173
5.65047
5.67813
5.69768
5.69708
5.6464
5.62466
5.63101
5.64013
5.63632
5.61955
5.60873
5.60697
5.60378
5.59046
5.56466
5.52356
5.46489
5.38915
5.30083
5.22346
5.18388
5.17438
5.17872
5.18584
5.17843
5.09858
5.04161
5.19812
1.40001
1.40001
1.40001
1.40001
1.40001
1.40001
1.40001
1.40001
1.40001
1.40001
1.40001
1.40001
1.40001
1.40001
1.40001
1.40001
1.40001
1.40001
1.40001
1.40001
1.40001
1.40001
1.40001
1.40001
1.40001
1.40001
1.40001
1.40001
1.40001
1.40001
1.40001
1.40001
1.40001
1.40001
1.40001
1.40001
1.40001
1.40001
1.40001
1.40001
1.40001
1.40001
1.40001
1.40001
1.40001
1.40001
1.40001
1.40001
1.40001
1.40001
1.40001
1.40001
1.40001
1.40001
1.40001
1.40001
1.40001
1.40001
1.40001
1.40001
1.40001
1.40013
1.40962
1.83642
4.7385
5.52958
5.55852
5.60805
5.65645
5.67441
5.6897
5.68821
5.6369
5.61408
5.61813
5.62745
5.62845
5.61853
5.61252
5.61261
5.60818
5.59136
5.56154
5.51819
5.45957
5.38473
5.29855
5.22297
5.18327
5.17316
5.17729
5.18393
5.17601
5.09775
5.03468
5.18967
1.40001
1.40001
1.40001
1.40001
1.40001
1.40001
1.40001
1.40001
1.40001
1.40001
1.40001
1.40001
1.40001
1.40001
1.40001
1.40001
1.40001
1.40001
1.40001
1.40001
1.40001
1.40001
1.40001
1.40001
1.40001
1.40001
1.40001
1.40001
1.40001
1.40001
1.40001
1.40001
1.40001
1.40001
1.40001
1.40001
1.40001
1.40001
1.40001
1.40001
1.40001
1.40001
1.40001
1.40001
1.40001
1.40001
1.40001
1.40001
1.40001
1.40001
1.40001
1.40001
1.40001
1.40001
1.40001
1.40001
1.40001
1.40001
1.40001
1.40001
1.40001
1.40009
1.40631
1.7123
4.62442
5.49196
5.54562
5.6006
5.65248
5.66973
5.68417
5.67004
5.61514
5.59397
5.59933
5.61214
5.61739
5.61303
5.61268
5.6165
5.61203
5.59236
5.55878
5.51321
5.45469
5.38104
5.29692
5.22252
5.18207
5.17088
5.17455
5.18064
5.17225
5.09541
5.02652
5.18064
1.40001
1.40001
1.40001
1.40001
1.40001
1.40001
1.40001
1.40001
1.40001
1.40001
1.40001
1.40001
1.40001
1.40001
1.40001
1.40001
1.40001
1.40001
1.40001
1.40001
1.40001
1.40001
1.40001
1.40001
1.40001
1.40001
1.40001
1.40001
1.40001
1.40001
1.40001
1.40001
1.40001
1.40001
1.40001
1.40001
1.40001
1.40001
1.40001
1.40001
1.40001
1.40001
1.40001
1.40001
1.40001
1.40001
1.40001
1.40001
1.40001
1.40001
1.40001
1.40001
1.40001
1.40001
1.40001
1.40001
1.40001
1.40001
1.40001
1.40001
1.40001
1.40005
1.40346
1.60292
4.5209
5.4761
5.52818
5.60014
5.67327
5.68588
5.68577
5.6427
5.58169
5.57401
5.58461
5.60231
5.61134
5.61047
5.61372
5.61945
5.61429
5.59147
5.55435
5.50695
5.4484
5.37661
5.29503
5.2221
5.18099
5.16835
5.17119
5.17683
5.16905
5.09449
5.0186
5.1755
1.40001
1.40001
1.40001
1.40001
1.40001
1.40001
1.40001
1.40001
1.40001
1.40001
1.40001
1.40001
1.40001
1.40001
1.40001
1.40001
1.40001
1.40001
1.40001
1.40001
1.40001
1.40001
1.40001
1.40001
1.40001
1.40001
1.40001
1.40001
1.40001
1.40001
1.40001
1.40001
1.40001
1.40001
1.40001
1.40001
1.40001
1.40001
1.40001
1.40001
1.40001
1.40001
1.40001
1.40001
1.40001
1.40001
1.40001
1.40001
1.40001
1.40001
1.40001
1.40001
1.40001
1.40001
1.40001
1.40001
1.40001
1.40001
1.40001
1.40001
1.40001
1.40003
1.40184
1.51402
4.3612
5.48349
5.55872
5.644
5.71277
5.71758
5.67015
5.59248
5.55298
5.55777
5.57477
5.59574
5.60723
5.60815
5.61361
5.62037
5.61426
5.58828
5.54799
5.49974
5.44201
5.37267
5.29379
5.22249
5.18066
5.16605
5.16699
5.1709
5.16243
5.09116
5.01878
5.15707
1.40001
1.40001
1.40001
1.40001
1.40001
1.40001
1.40001
1.40001
1.40001
1.40001
1.40001
1.40001
1.40001
1.40001
1.40001
1.40001
1.40001
1.40001
1.40001
1.40001
1.40001
1.40001
1.40001
1.40001
1.40001
1.40001
1.40001
1.40001
1.40001
1.40001
1.40001
1.40001
1.40001
1.40001
1.40001
1.40001
1.40001
1.40001
1.40001
1.40001
1.40001
1.40001
1.40001
1.40001
1.40001
1.40001
1.40001
1.40001
1.40001
1.40001
1.40001
1.40001
1.40001
1.40001
1.40001
1.40001
1.40001
1.40001
1.40001
1.40001
1.40001
1.40003
1.4016
1.50004
4.11967
5.36861
5.59123
5.66848
5.71146
5.71528
5.66086
5.57953
5.54537
5.55222
5.57006
5.59233
5.60334
5.60417
5.61126
5.61869
5.61124
5.58278
5.54071
5.49198
5.43558
5.3687
5.29213
5.22231
5.17996
5.16337
5.16227
5.16384
5.1521
5.08074
5.01178
5.15328
1.40001
1.40001
1.40001
1.40001
1.40001
1.40001
1.40001
1.40001
1.40001
1.40001
1.40001
1.40001
1.40001
1.40001
1.40001
1.40001
1.40001
1.40001
1.40001
1.40001
1.40001
1.40001
1.40001
1.40001
1.40001
1.40001
1.40001
1.40001
1.40001
1.40001
1.40001
1.40001
1.40001
1.40001
1.40001
1.40001
1.40001
1.40001
1.40001
1.40001
1.40001
1.40001
1.40001
1.40001
1.40001
1.40001
1.40001
1.40001
1.40001
1.40001
1.40001
1.40001
1.40001
1.40001
1.40001
1.40001
1.40001
1.40001
1.40001
1.40001
1.40001
1.40003
1.40141
1.4887
3.81477
5.31401
5.6151
5.64772
5.67107
5.68103
5.65318
5.5904
5.55084
5.55704
5.5734
5.59375
5.6001
5.6
5.60921
5.61703
5.60775
5.57635
5.53268
5.48362
5.42858
5.36402
5.28978
5.22187
5.17952
5.16088
5.15719
5.15663
5.14329
5.07162
5.00249
5.14194
1.40001
1.40001
1.40001
1.40001
1.40001
1.40001
1.40001
1.40001
1.40001
1.40001
1.40001
1.40001
1.40001
1.40001
1.40001
1.40001
1.40001
1.40001
1.40001
1.40001
1.40001
1.40001
1.40001
1.40001
1.40001
1.40001
1.40001
1.40001
1.40001
1.40001
1.40001
1.40001
1.40001
1.40001
1.40001
1.40001
1.40001
1.40001
1.40001
1.40001
1.40001
1.40001
1.40001
1.40001
1.40001
1.40001
1.40001
1.40001
1.40001
1.40001
1.40001
1.40001
1.40001
1.40001
1.40001
1.40001
1.40001
1.40001
1.40001
1.40001
1.40001
1.40002
1.40118
1.47585
3.50682
5.32131
5.65984
5.63574
5.6199
5.63569
5.63684
5.60628
5.56794
5.56644
5.58207
5.59902
5.60188
5.60063
5.60921
5.61513
5.6023
5.56799
5.52358
5.47519
5.42193
5.35952
5.28776
5.22175
5.17934
5.15842
5.15146
5.14879
5.13428
5.06235
4.98993
5.13185
1.40001
1.40001
1.40001
1.40001
1.40001
1.40001
1.40001
1.40001
1.40001
1.40001
1.40001
1.40001
1.40001
1.40001
1.40001
1.40001
1.40001
1.40001
1.40001
1.40001
1.40001
1.40001
1.40001
1.40001
1.40001
1.40001
1.40001
1.40001
1.40001
1.40001
1.40001
1.40001
1.40001
1.40001
1.40001
1.40001
1.40001
1.40001
1.40001
1.40001
1.40001
1.40001
1.40001
1.40001
1.40001
1.40001
1.40001
1.40001
1.40001
1.40001
1.40001
1.40001
1.40001
1.40001
1.40001
1.40001
1.40001
1.40001
1.40001
1.40001
1.40001
1.40002
1.40087
1.45791
3.14111
5.3606
5.68924
5.59966
5.57642
5.60198
5.61192
5.6002
5.57469
5.57402
5.59259
5.60971
5.61164
5.60826
5.61161
5.61095
5.59225
5.55634
5.51301
5.4666
5.41557
5.35525
5.28593
5.22165
5.17898
5.15553
5.14451
5.13956
5.12521
5.05665
4.97567
5.11588
1.40001
1.40001
1.40001
1.40001
1.40001
1.40001
1.40001
1.40001
1.40001
1.40001
1.40001
1.40001
1.40001
1.40001
1.40001
1.40001
1.40001
1.40001
1.40001
1.40001
1.40001
1.40001
1.40001
1.40001
1.40001
1.40001
1.40001
1.40001
1.40001
1.40001
1.40001
1.40001
1.40001
1.40001
1.40001
1.40001
1.40001
1.40001
1.40001
1.40001
1.40001
1.40001
1.40001
1.40001
1.40001
1.40001
1.40001
1.40001
1.40001
1.40001
1.40001
1.40001
1.40001
1.40001
1.40001
1.40001
1.40001
1.40001
1.40001
1.40001
1.40001
1.40001
1.40053
1.43663
2.66908
5.36889
5.69783
5.56546
5.55678
5.58655
5.59617
5.58581
5.57134
5.57861
5.60259
5.62296
5.62658
5.61867
5.61239
5.6015
5.57669
5.54107
5.50094
5.45806
5.40971
5.35134
5.28421
5.22128
5.17789
5.15177
5.13651
5.129
5.11387
5.04688
4.96122
5.10046
1.40001
1.40001
1.40001
1.40001
1.40001
1.40001
1.40001
1.40001
1.40001
1.40001
1.40001
1.40001
1.40001
1.40001
1.40001
1.40001
1.40001
1.40001
1.40001
1.40001
1.40001
1.40001
1.40001
1.40001
1.40001
1.40001
1.40001
1.40001
1.40001
1.40001
1.40001
1.40001
1.40001
1.40001
1.40001
1.40001
1.40001
1.40001
1.40001
1.40001
1.40001
1.40001
1.40001
1.40001
1.40001
1.40001
1.40001
1.40001
1.40001
1.40001
1.40001
1.40001
1.40001
1.40001
1.40001
1.40001
1.40001
1.40001
1.40001
1.40001
1.40001
1.40001
1.40027
1.41893
2.18961
5.19617
5.6246
5.54455
5.5477
5.58031
5.58416
5.57366
5.56847
5.58226
5.60928
5.62987
5.63301
5.62147
5.60759
5.58865
5.55997
5.52564
5.48911
5.44972
5.40373
5.34734
5.28223
5.22024
5.17567
5.14657
5.12708
5.11724
5.10201
5.03662
4.94374
5.08589
1.40001
1.40001
1.40001
1.40001
1.40001
1.40001
1.40001
1.40001
1.40001
1.40001
1.40001
1.40001
1.40001
1.40001
1.40001
1.40001
1.40001
1.40001
1.40001
1.40001
1.40001
1.40001
1.40001
1.40001
1.40001
1.40001
1.40001
1.40001
1.40001
1.40001
1.40001
1.40001
1.40001
1.40001
1.40001
1.40001
1.40001
1.40001
1.40001
1.40001
1.40001
1.40001
1.40001
1.40001
1.40001
1.40001
1.40001
1.40001
1.40001
1.40001
1.40001
1.40001
1.40001
1.40001
1.40001
1.40001
1.40001
1.40001
1.40001
1.40001
1.40001
1.40001
1.40012
1.4084
1.79592
4.84661
5.53485
5.51602
5.5384
5.57749
5.57753
5.56971
5.57274
5.58668
5.61013
5.62532
5.62669
5.61539
5.59874
5.5752
5.54484
5.51165
5.47781
5.44092
5.39684
5.34278
5.27989
5.21855
5.17218
5.1397
5.116
5.10378
5.08895
5.02614
4.92526
5.06959
1.40001
1.40001
1.40001
1.40001
1.40001
1.40001
1.40001
1.40001
1.40001
1.40001
1.40001
1.40001
1.40001
1.40001
1.40001
1.40001
1.40001
1.40001
1.40001
1.40001
1.40001
1.40001
1.40001
1.40001
1.40001
1.40001
1.40001
1.40001
1.40001
1.40001
1.40001
1.40001
1.40001
1.40001
1.40001
1.40001
1.40001
1.40001
1.40001
1.40001
1.40001
1.40001
1.40001
1.40001
1.40001
1.40001
1.40001
1.40001
1.40001
1.40001
1.40001
1.40001
1.40001
1.40001
1.40001
1.40001
1.40001
1.40001
1.40001
1.40001
1.40001
1.40001
1.40004
1.40253
1.56127
4.46832
5.47228
5.50533
5.53684
5.56903
5.56449
5.56526
5.58009
5.59077
5.60486
5.61285
5.61498
5.60662
5.58899
5.56272
5.53194
5.49963
5.46693
5.43106
5.3885
5.33733
5.27713
5.2163
5.16745
5.13107
5.10231
5.08663
5.0732
5.01633
4.9124
5.05231
1.40001
1.40001
1.40001
1.40001
1.40001
1.40001
1.40001
1.40001
1.40001
1.40001
1.40001
1.40001
1.40001
1.40001
1.40001
1.40001
1.40001
1.40001
1.40001
1.40001
1.40001
1.40001
1.40001
1.40001
1.40001
1.40001
1.40001
1.40001
1.40001
1.40001
1.40001
1.40001
1.40001
1.40001
1.40001
1.40001
1.40001
1.40001
1.40001
1.40001
1.40001
1.40001
1.40001
1.40001
1.40001
1.40001
1.40001
1.40001
1.40001
1.40001
1.40001
1.40001
1.40001
1.40001
1.40001
1.40001
1.40001
1.40001
1.40001
1.40001
1.40001
1.40001
1.40003
1.40157
1.49747
4.04731
5.40361
5.51661
5.54591
5.56287
5.56129
5.57654
5.5964
5.5954
5.59395
5.59612
5.60172
5.59783
5.57927
5.55073
5.52044
5.48945
5.45701
5.42071
5.37954
5.33151
5.27434
5.21395
5.16202
5.12134
5.08725
5.06622
5.05058
5.00134
4.91352
5.01556
1.40001
1.40001
1.40001
1.40001
1.40001
1.40001
1.40001
1.40001
1.40001
1.40001
1.40001
1.40001
1.40001
1.40001
1.40001
1.40001
1.40001
1.40001
1.40001
1.40001
1.40001
1.40001
1.40001
1.40001
1.40001
1.40001
1.40001
1.40001
1.40001
1.40001
1.40001
1.40001
1.40001
1.40001
1.40001
1.40001
1.40001
1.40001
1.40001
1.40001
1.40001
1.40001
1.40001
1.40001
1.40001
1.40001
1.40001
1.40001
1.40001
1.40001
1.40001
1.40001
1.40001
1.40001
1.40001
1.40001
1.40001
1.40001
1.40001
1.40001
1.40001
1.40001
1.40002
1.40123
1.47771
3.61553
5.35889
5.52164
5.53734
5.54969
5.56537
5.59236
5.61433
5.59851
5.58025
5.57939
5.58934
5.5896
5.56932
5.53796
5.50864
5.47988
5.44791
5.41057
5.37013
5.32492
5.27068
5.21045
5.15488
5.10951
5.071
5.04549
5.02646
4.97636
4.89617
4.99983
1.40001
1.40001
1.40001
1.40001
1.40001
1.40001
1.40001
1.40001
1.40001
1.40001
1.40001
1.40001
1.40001
1.40001
1.40001
1.40001
1.40001
1.40001
1.40001
1.40001
1.40001
1.40001
1.40001
1.40001
1.40001
1.40001
1.40001
1.40001
1.40001
1.40001
1.40001
1.40001
1.40001
1.40001
1.40001
1.40001
1.40001
1.40001
1.40001
1.40001
1.40001
1.40001
1.40001
1.40001
1.40001
1.40001
1.40001
1.40001
1.40001
1.40001
1.40001
1.40001
1.40001
1.40001
1.40001
1.40001
1.40001
1.40001
1.40001
1.40001
1.40001
1.40001
1.40002
1.40089
1.45825
3.16743
5.3218
5.54253
5.52122
5.53942
5.57345
5.61114
5.62855
5.59917
5.56355
5.56348
5.57687
5.57996
5.55827
5.52391
5.4953
5.46949
5.4389
5.40108
5.36078
5.31766
5.26602
5.20577
5.14626
5.09603
5.05298
5.02271
5.00172
4.95227
4.87598
4.97368
1.40001
1.40001
1.40001
1.40001
1.40001
1.40001
1.40001
1.40001
1.40001
1.40001
1.40001
1.40001
1.40001
1.40001
1.40001
1.40001
1.40001
1.40001
1.40001
1.40001
1.40001
1.40001
1.40001
1.40001
1.40001
1.40001
1.40001
1.40001
1.40001
1.40001
1.40001
1.40001
1.40001
1.40001
1.40001
1.40001
1.40001
1.40001
1.40001
1.40001
1.40001
1.40001
1.40001
1.40001
1.40001
1.40001
1.40001
1.40001
1.40001
1.40001
1.40001
1.40001
1.40001
1.40001
1.40001
1.40001
1.40001
1.40001
1.40001
1.40001
1.40001
1.40001
1.40001
1.40052
1.43531
2.62855
5.31053
5.58107
5.52207
5.53653
5.58672
5.62442
5.63097
5.58574
5.54141
5.54569
5.56093
5.5652
5.54285
5.50619
5.47866
5.4563
5.42846
5.39162
5.35138
5.30944
5.25956
5.1987
5.13509
5.08004
5.03245
4.9972
4.97438
4.92552
4.85184
4.94556
1.40001
1.40001
1.40001
1.40001
1.40001
1.40001
1.40001
1.40001
1.40001
1.40001
1.40001
1.40001
1.40001
1.40001
1.40001
1.40001
1.40001
1.40001
1.40001
1.40001
1.40001
1.40001
1.40001
1.40001
1.40001
1.40001
1.40001
1.40001
1.40001
1.40001
1.40001
1.40001
1.40001
1.40001
1.40001
1.40001
1.40001
1.40001
1.40001
1.40001
1.40001
1.40001
1.40001
1.40001
1.40001
1.40001
1.40001
1.40001
1.40001
1.40001
1.40001
1.40001
1.40001
1.40001
1.40001
1.40001
1.40001
1.40001
1.40001
1.40001
1.40001
1.40001
1.40001
1.4002
1.4144
2.02916
5.16525
5.62722
5.52337
5.52711
5.59935
5.62674
5.61337
5.55407
5.51216
5.52289
5.54259
5.54709
5.52464
5.48623
5.45957
5.4405
5.41619
5.38144
5.34151
5.29992
5.25071
5.18898
5.12182
5.06185
5.00961
4.96928
4.94435
4.89521
4.82078
4.91261
1.40001
1.40001
1.40001
1.40001
1.40001
1.40001
1.40001
1.40001
1.40001
1.40001
1.40001
1.40001
1.40001
1.40001
1.40001
1.40001
1.40001
1.40001
1.40001
1.40001
1.40001
1.40001
1.40001
1.40001
1.40001
1.40001
1.40001
1.40001
1.40001
1.40001
1.40001
1.40001
1.40001
1.40001
1.40001
1.40001
1.40001
1.40001
1.40001
1.40001
1.40001
1.40001
1.40001
1.40001
1.40001
1.40001
1.40001
1.40001
1.40001
1.40001
1.40001
1.40001
1.40001
1.40001
1.40001
1.40001
1.40001
1.40001
1.40001
1.40001
1.40001
1.40001
1.40001
1.40005
1.40309
1.59556
4.60423
5.43916
5.48825
5.54027
5.62126
5.62402
5.5792
5.50742
5.48322
5.50173
5.52625
5.5293
5.50581
5.4658
5.43927
5.42269
5.4019
5.36958
5.33015
5.28838
5.23883
5.17584
5.10533
5.04027
4.98325
4.93751
4.90982
4.85933
4.78464
4.87793
1.40001
1.40001
1.40001
1.40001
1.40001
1.40001
1.40001
1.40001
1.40001
1.40001
1.40001
1.40001
1.40001
1.40001
1.40001
1.40001
1.40001
1.40001
1.40001
1.40001
1.40001
1.40001
1.40001
1.40001
1.40001
1.40001
1.40001
1.40001
1.40001
1.40001
1.40001
1.40001
1.40001
1.40001
1.40001
1.40001
1.40001
1.40001
1.40001
1.40001
1.40001
1.40001
1.40001
1.40001
1.40001
1.40001
1.40001
1.40001
1.40001
1.40001
1.40001
1.40001
1.40001
1.40001
1.40001
1.40001
1.40001
1.40001
1.40001
1.40001
1.40001
1.40001
1.40001
1.40003
1.40142
1.49
3.91508
5.20618
5.46075
5.56013
5.61191
5.59645
5.52696
5.45974
5.45798
5.48577
5.51289
5.5142
5.48874
5.44655
5.41902
5.40379
5.38541
5.35502
5.31621
5.27352
5.22284
5.15922
5.08552
5.01568
4.95464
4.90401
4.87241
4.81851
4.73016
4.83862
1.40001
1.40001
1.40001
1.40001
1.40001
1.40001
1.40001
1.40001
1.40001
1.40001
1.40001
1.40001
1.40001
1.40001
1.40001
1.40001
1.40001
1.40001
1.40001
1.40001
1.40001
1.40001
1.40001
1.40001
1.40001
1.40001
1.40001
1.40001
1.40001
1.40001
1.40001
1.40001
1.40001
1.40001
1.40001
1.40001
1.40001
1.40001
1.40001
1.40001
1.40001
1.40001
1.40001
1.40001
1.40001
1.40001
1.40001
1.40001
1.40001
1.40001
1.40001
1.40001
1.40001
1.40001
1.40001
1.40001
1.40001
1.40001
1.40001
1.40001
1.40001
1.40001
1.40001
1.40002
1.40093
1.4613
3.29667
5.04809
5.48034
5.59654
5.59158
5.55352
5.46624
5.42248
5.43607
5.47664
5.50313
5.50297
5.47474
5.42946
5.39957
5.38408
5.3668
5.33736
5.29849
5.2544
5.20303
5.13843
5.06207
4.98689
4.92059
4.86345
4.82601
4.77306
4.6807
4.77766
1.40001
1.40001
1.40001
1.40001
1.40001
1.40001
1.40001
1.40001
1.40001
1.40001
1.40001
1.40001
1.40001
1.40001
1.40001
1.40001
1.40001
1.40001
1.40001
1.40001
1.40001
1.40001
1.40001
1.40001
1.40001
1.40001
1.40001
1.40001
1.40001
1.40001
1.40001
1.40001
1.40001
1.40001
1.40001
1.40001
1.40001
1.40001
1.40001
1.40001
1.40001
1.40001
1.40001
1.40001
1.40001
1.40001
1.40001
1.40001
1.40001
1.40001
1.40001
1.40001
1.40001
1.40001
1.40001
1.40001
1.40001
1.40001
1.40001
1.40001
1.40001
1.40001
1.40001
1.40001
1.40049
1.43419
2.62371
5.00819
5.55311
5.61545
5.56639
5.47939
5.42319
5.40159
5.429
5.47486
5.49633
5.49464
5.46388
5.41457
5.38098
5.36389
5.34644
5.31688
5.27672
5.23116
5.1786
5.11284
5.03436
4.95402
4.8819
4.81807
4.77352
4.71834
4.62055
4.70247
1.40001
1.40001
1.40001
1.40001
1.40001
1.40001
1.40001
1.40001
1.40001
1.40001
1.40001
1.40001
1.40001
1.40001
1.40001
1.40001
1.40001
1.40001
1.40001
1.40001
1.40001
1.40001
1.40001
1.40001
1.40001
1.40001
1.40001
1.40001
1.40001
1.40001
1.40001
1.40001
1.40001
1.40001
1.40001
1.40001
1.40001
1.40001
1.40001
1.40001
1.40001
1.40001
1.40001
1.40001
1.40001
1.40001
1.40001
1.40001
1.40001
1.40001
1.40001
1.40001
1.40001
1.40001
1.40001
1.40001
1.40001
1.40001
1.40001
1.40001
1.40001
1.40001
1.40001
1.40001
1.40016
1.41143
1.93269
4.99731
5.50981
5.52745
5.48881
5.46005
5.42341
5.41044
5.43722
5.47502
5.4914
5.48808
5.45464
5.40059
5.36312
5.34401
5.32477
5.29362
5.25119
5.20315
5.14875
5.08177
5.00124
4.91617
4.83658
4.763
4.70728
4.64604
4.54059
4.61149
1.40001
1.40001
1.40001
1.40001
1.40001
1.40001
1.40001
1.40001
1.40001
1.40001
1.40001
1.40001
1.40001
1.40001
1.40001
1.40001
1.40001
1.40001
1.40001
1.40001
1.40001
1.40001
1.40001
1.40001
1.40001
1.40001
1.40001
1.40001
1.40001
1.40001
1.40001
1.40001
1.40001
1.40001
1.40001
1.40001
1.40001
1.40001
1.40001
1.40001
1.40001
1.40001
1.40001
1.40001
1.40001
1.40001
1.40001
1.40001
1.40001
1.40001
1.40001
1.40001
1.40001
1.40001
1.40001
1.40001
1.40001
1.40001
1.40001
1.40001
1.40001
1.40001
1.40001
1.40001
1.40004
1.40221
1.53635
4.3631
5.25904
5.47278
5.48619
5.49359
5.46302
5.43316
5.44954
5.47392
5.48667
5.48139
5.44416
5.38564
5.34514
5.32321
5.30156
5.26793
5.22215
5.17068
5.11367
5.04514
4.96267
4.87272
4.78509
4.70049
4.63148
4.55892
4.44455
4.47292
1.40001
1.40001
1.40001
1.40001
1.40001
1.40001
1.40001
1.40001
1.40001
1.40001
1.40001
1.40001
1.40001
1.40001
1.40001
1.40001
1.40001
1.40001
1.40001
1.40001
1.40001
1.40001
1.40001
1.40001
1.40001
1.40001
1.40001
1.40001
1.40001
1.40001
1.40001
1.40001
1.40001
1.40001
1.40001
1.40001
1.40001
1.40001
1.40001
1.40001
1.40001
1.40001
1.40001
1.40001
1.40001
1.40001
1.40001
1.40001
1.40001
1.40001
1.40001
1.40001
1.40001
1.40001
1.40001
1.40001
1.40001
1.40001
1.40001
1.40001
1.40001
1.40001
1.40001
1.40001
1.40002
1.40105
1.46933
3.49901
5.07286
5.47712
5.55674
5.55947
5.50217
5.44164
5.45223
5.46927
5.47807
5.46904
5.42776
5.36623
5.32564
5.30164
5.27751
5.24051
5.19035
5.13422
5.07341
5.0024
4.91772
4.82252
4.72514
4.62459
4.53168
4.43163
4.28298
4.28204
1.40001
1.40001
1.40001
1.40001
1.40001
1.40001
1.40001
1.40001
1.40001
1.40001
1.40001
1.40001
1.40001
1.40001
1.40001
1.40001
1.40001
1.40001
1.40001
1.40001
1.40001
1.40001
1.40001
1.40001
1.40001
1.40001
1.40001
1.40001
1.40001
1.40001
1.40001
1.40001
1.40001
1.40001
1.40001
1.40001
1.40001
1.40001
1.40001
1.40001
1.40001
1.40001
1.40001
1.40001
1.40001
1.40001
1.40001
1.40001
1.40001
1.40001
1.40001
1.40001
1.40001
1.40001
1.40001
1.40001
1.40001
1.40001
1.40001
1.40001
1.40001
1.40001
1.40001
1.40001
1.40001
1.40047
1.4328
2.62653
5.0194
5.61645
5.6162
5.59947
5.51805
5.44682
5.4406
5.45356
5.45644
5.44266
5.39753
5.33833
5.30218
5.27827
5.25187
5.21127
5.15631
5.09486
5.02938
4.95494
4.86728
4.76599
4.65689
4.53812
4.41744
4.28408
4.09487
3.94895
1.40001
1.40001
1.40001
1.40001
1.40001
1.40001
1.40001
1.40001
1.40001
1.40001
1.40001
1.40001
1.40001
1.40001
1.40001
1.40001
1.40001
1.40001
1.40001
1.40001
1.40001
1.40001
1.40001
1.40001
1.40001
1.40001
1.40001
1.40001
1.40001
1.40001
1.40001
1.40001
1.40001
1.40001
1.40001
1.40001
1.40001
1.40001
1.40001
1.40001
1.40001
1.40001
1.40001
1.40001
1.40001
1.40001
1.40001
1.40001
1.40001
1.40001
1.40001
1.40001
1.40001
1.40001
1.40001
1.40001
1.40001
1.40001
1.40001
1.40001
1.40001
1.40001
1.40001
1.40001
1.40001
1.40011
1.40758
1.79935
4.91762
5.60901
5.52662
5.48982
5.44733
5.41737
5.4262
5.43393
5.42751
5.40374
5.35611
5.30458
5.27579
5.25312
5.22498
5.18085
5.12086
5.05376
4.98293
4.90373
4.8114
4.70271
4.58122
4.43929
4.28215
4.06629
3.68783
2.94642
1.40001
1.40001
1.40001
1.40001
1.40001
1.40001
1.40001
1.40001
1.40001
1.40001
1.40001
1.40001
1.40001
1.40001
1.40001
1.40001
1.40001
1.40001
1.40001
1.40001
1.40001
1.40001
1.40001
1.40001
1.40001
1.40001
1.40001
1.40001
1.40001
1.40001
1.40001
1.40001
1.40001
1.40001
1.40001
1.40001
1.40001
1.40001
1.40001
1.40001
1.40001
1.40001
1.40001
1.40001
1.40001
1.40001
1.40001
1.40001
1.40001
1.40001
1.40001
1.40001
1.40001
1.40001
1.40001
1.40001
1.40001
1.40001
1.40001
1.40001
1.40001
1.40001
1.40001
1.40001
1.40001
1.40003
1.40174
1.51094
4.14069
5.36177
5.4114
5.42707
5.41716
5.4064
5.41984
5.41537
5.39734
5.36247
5.313
5.2708
5.248
5.22618
5.19621
5.14871
5.084
5.01157
4.93539
4.85085
4.75266
4.63598
4.49959
4.33532
4.13084
3.83988
3.38721
2.5711
1.40001
1.40001
1.40001
1.40001
1.40001
1.40001
1.40001
1.40001
1.40001
1.40001
1.40001
1.40001
1.40001
1.40001
1.40001
1.40001
1.40001
1.40001
1.40001
1.40001
1.40001
1.40001
1.40001
1.40001
1.40001
1.40001
1.40001
1.40001
1.40001
1.40001
1.40001
1.40001
1.40001
1.40001
1.40001
1.40001
1.40001
1.40001
1.40001
1.40001
1.40001
1.40001
1.40001
1.40001
1.40001
1.40001
1.40001
1.40001
1.40001
1.40001
1.40001
1.40001
1.40001
1.40001
1.40001
1.40001
1.40001
1.40001
1.40001
1.40001
1.40001
1.40001
1.40001
1.40001
1.40001
1.40002
1.40083
1.45549
3.20261
5.13554
5.41667
5.40242
5.39443
5.39427
5.40871
5.39987
5.37096
5.32742
5.27864
5.24426
5.22258
5.19862
5.1658
5.11507
5.04652
4.96976
4.8887
4.79839
4.69324
4.56697
4.416
4.2313
3.99352
3.66407
3.17831
2.52674
1.40001
1.40001
1.40001
1.40001
1.40001
1.40001
1.40001
1.40001
1.40001
1.40001
1.40001
1.40001
1.40001
1.40001
1.40001
1.40001
1.40001
1.40001
1.40001
1.40001
1.40001
1.40001
1.40001
1.40001
1.40001
1.40001
1.40001
1.40001
1.40001
1.40001
1.40001
1.40001
1.40001
1.40001
1.40001
1.40001
1.40001
1.40001
1.40001
1.40001
1.40001
1.40001
1.40001
1.40001
1.40001
1.40001
1.40001
1.40001
1.40001
1.40001
1.40001
1.40001
1.40001
1.40001
1.40001
1.40001
1.40001
1.40001
1.40001
1.40001
1.40001
1.40001
1.40001
1.40001
1.40001
1.40001
1.40027
1.41859
2.20926
5.06701
5.53287
5.44599
5.40453
5.38753
5.39258
5.3839
5.35427
5.30937
5.25773
5.22468
5.19851
5.17074
5.13409
5.08028
5.00844
4.92787
4.8424
4.74656
4.63499
4.49886
4.33936
4.14133
3.89163
3.5612
3.14223
2.68343
1.40001
1.40001
1.40001
1.40001
1.40001
1.40001
1.40001
1.40001
1.40001
1.40001
1.40001
1.40001
1.40001
1.40001
1.40001
1.40001
1.40001
1.40001
1.40001
1.40001
1.40001
1.40001
1.40001
1.40001
1.40001
1.40001
1.40001
1.40001
1.40001
1.40001
1.40001
1.40001
1.40001
1.40001
1.40001
1.40001
1.40001
1.40001
1.40001
1.40001
1.40001
1.40001
1.40001
1.40001
1.40001
1.40001
1.40001
1.40001
1.40001
1.40001
1.40001
1.40001
1.40001
1.40001
1.40001
1.40001
1.40001
1.40001
1.40001
1.40001
1.40001
1.40001
1.40001
1.40001
1.40001
1.40001
1.40005
1.40291
1.5753
4.42414
5.42985
5.44056
5.3831
5.36649
5.37621
5.37111
5.34875
5.30867
5.25193
5.20906
5.17712
5.14415
5.10335
5.04595
4.97064
4.88652
4.79746
4.6976
4.58039
4.43922
4.2721
4.07125
3.81745
3.50636
3.12871
2.7243
1.40001
1.40001
1.40001
1.40001
1.40001
1.40001
1.40001
1.40001
1.40001
1.40001
1.40001
1.40001
1.40001
1.40001
1.40001
1.40001
1.40001
1.40001
1.40001
1.40001
1.40001
1.40001
1.40001
1.40001
1.40001
1.40001
1.40001
1.40001
1.40001
1.40001
1.40001
1.40001
1.40001
1.40001
1.40001
1.40001
1.40001
1.40001
1.40001
1.40001
1.40001
1.40001
1.40001
1.40001
1.40001
1.40001
1.40001
1.40001
1.40001
1.40001
1.40001
1.40001
1.40001
1.40001
1.40001
1.40001
1.40001
1.40001
1.40001
1.40001
1.40001
1.40001
1.40001
1.40001
1.40001
1.40001
1.40002
1.401
1.46532
3.40809
5.16837
5.4004
5.35096
5.34555
5.35386
5.35073
5.33501
5.30798
5.25509
5.19947
5.1572
5.11827
5.07249
5.01142
4.93362
4.84703
4.75507
4.65216
4.53122
4.38603
4.21599
4.01483
3.7654
3.47888
3.13574
2.77005
1.40001
1.40001
1.40001
1.40001
1.40001
1.40001
1.40001
1.40001
1.40001
1.40001
1.40001
1.40001