/*--------------------------------*- C++ -*----------------------------------*\
| =========                 |                                                 |
| \\      /  F ield         | OpenFOAM: The Open Source CFD Toolbox           |
|  \\    /   O peration     | Version:  v1812                                 |
|   \\  /    A nd           | Web:      www.OpenFOAM.com                      |
|    \\/     M anipulation  |                                                 |
\*---------------------------------------------------------------------------*/
FoamFile
{
    version     2.0;
    format      ascii;
    class       volVectorField;
    location    "0.4";
    object      U;
}
// * * * * * * * * * * * * * * * * * * * * * * * * * * * * * * * * * * * * * //

dimensions      [0 1 -1 0 0 0 0];


internalField   nonuniform List<vector> 
64512
(
(3 -1.49484e-16 0)
(3 3.51116e-16 0)
(3 3.23207e-16 0)
(3 1.82052e-15 0)
(3 2.40568e-15 0)
(3 2.64515e-15 0)
(3 3.23909e-15 0)
(3 2.58936e-15 0)
(3 1.19596e-15 0)
(3 5.42735e-16 0)
(3 6.5578e-16 0)
(3 1.60136e-15 0)
(3 2.64021e-15 0)
(3 3.30426e-15 0)
(3 3.10246e-15 0)
(3 2.48445e-15 0)
(3 1.22151e-15 0)
(3 2.36408e-16 0)
(3 -8.26954e-17 0)
(3 -3.79636e-16 0)
(3 -3.95619e-16 0)
(3 -6.19209e-16 0)
(3 -3.90665e-16 0)
(3 -1.27755e-16 0)
(3 8.43711e-16 0)
(3 1.25507e-15 0)
(3 2.76408e-15 0)
(3 3.28648e-15 0)
(3 2.77429e-15 0)
(3 2.57042e-15 0)
(3 1.85619e-15 0)
(3 7.05873e-16 0)
(3 -2.26795e-16 0)
(3 -4.71929e-16 0)
(3 -8.1191e-16 0)
(3 7.27121e-16 0)
(3 8.42871e-16 0)
(3 1.5818e-15 0)
(3 1.29866e-15 0)
(3 2.00863e-15 0)
(3 1.23881e-15 0)
(3 1.65271e-15 0)
(3 2.45974e-15 0)
(3 2.61524e-15 0)
(3 2.28583e-15 0)
(3 8.87453e-16 0)
(3 -4.65366e-17 0)
(3 1.46505e-16 0)
(3 4.41931e-17 0)
(3 1.67429e-16 0)
(3 1.47089e-16 0)
(3 2.41823e-16 0)
(3 -2.14589e-16 0)
(3 -2.64015e-16 0)
(3 -6.85718e-16 0)
(3 -8.31404e-16 0)
(3 -1.25863e-15 0)
(3 4.11965e-14 0)
(3 9.72175e-13 0)
(3 1.3837e-10 0)
(3 4.00272e-09 0)
(2.99993 1.26153e-06 0)
(2.99474 -1.10503e-05 0)
(2.31726 0.0199238 0)
(0.749346 -0.0407494 0)
(0.638148 0.0279572 0)
(0.592748 0.0336869 0)
(0.551631 0.0247859 0)
(0.531933 0.00922422 0)
(0.530695 0.00334711 0)
(0.528733 0.00399906 0)
(0.516846 0.0103129 0)
(0.490163 0.0169892 0)
(0.455876 0.0202921 0)
(0.425231 0.0175193 0)
(0.400207 0.0129376 0)
(0.377613 0.00928076 0)
(0.355652 0.00972017 0)
(0.332375 0.0121742 0)
(0.308544 0.0131352 0)
(0.286595 0.0127504 0)
(0.267419 0.0118988 0)
(0.250202 0.0111071 0)
(0.232478 0.0106772 0)
(0.212083 0.0107165 0)
(0.189601 0.0109079 0)
(0.164666 0.0108489 0)
(0.140815 0.0101393 0)
(0.119425 0.00920852 0)
(0.101814 0.00883964 0)
(0.087515 0.00893009 0)
(0.0751915 0.00929525 0)
(0.0625489 0.00981131 0)
(0.0459883 0.0105857 0)
(0.0260629 0.0094015 0)
(0.0066902 0.00500336 0)
(3 1.77697e-16 0)
(3 1.84553e-16 0)
(3 4.31332e-16 0)
(3 6.52974e-16 0)
(3 5.98221e-16 0)
(3 1.19072e-15 0)
(3 1.39608e-15 0)
(3 1.69462e-15 0)
(3 1.80975e-15 0)
(3 9.8215e-16 0)
(3 1.72869e-15 0)
(3 2.14044e-15 0)
(3 1.9983e-15 0)
(3 1.41126e-15 0)
(3 -1.90694e-16 0)
(3 1.40325e-16 0)
(3 9.32903e-16 0)
(3 1.27804e-15 0)
(3 4.83001e-16 0)
(3 7.35012e-16 0)
(3 6.07157e-16 0)
(3 3.3057e-16 0)
(3 4.71336e-16 0)
(3 -3.53682e-16 0)
(3 -8.79926e-17 0)
(3 2.15095e-17 0)
(3 5.43826e-16 0)
(3 8.99932e-16 0)
(3 1.4502e-15 0)
(3 1.10422e-15 0)
(3 -1.09406e-15 0)
(3 -1.59242e-15 0)
(3 -1.49565e-15 0)
(3 -1.23515e-15 0)
(3 -5.85677e-16 0)
(3 -5.64486e-16 0)
(3 4.40147e-16 0)
(3 9.41784e-16 0)
(3 8.18723e-16 0)
(3 -6.85793e-17 0)
(3 -3.54702e-16 0)
(3 -1.19973e-15 0)
(3 -1.54738e-15 0)
(3 -1.51799e-15 0)
(3 -8.82399e-16 0)
(3 -9.18678e-16 0)
(3 -7.48481e-16 0)
(3 -8.13155e-16 0)
(3 -7.2156e-16 0)
(3 -5.16112e-16 0)
(3 -4.44593e-16 0)
(3 -4.32493e-16 0)
(3 -5.25891e-16 0)
(3 -5.49114e-16 0)
(3 -8.2152e-16 0)
(3 -2.09609e-15 0)
(3 -1.51171e-15 0)
(3 -4.36335e-14 0)
(3 -1.9445e-12 0)
(3 -2.76245e-11 0)
(3 -8.29604e-09 0)
(2.99993 6.83438e-07 0)
(2.99498 -3.95494e-05 0)
(2.3606 0.0166392 0)
(0.772364 -0.0886991 0)
(0.677086 0.0316947 0)
(0.631505 0.0688271 0)
(0.587879 0.0525672 0)
(0.558417 0.0193887 0)
(0.541657 0.00795792 0)
(0.531862 0.0122522 0)
(0.520316 0.028081 0)
(0.496268 0.0425254 0)
(0.471079 0.0365434 0)
(0.447207 0.0283008 0)
(0.421592 0.0265554 0)
(0.391793 0.0295325 0)
(0.359557 0.0339193 0)
(0.331976 0.0369011 0)
(0.310396 0.0379038 0)
(0.292235 0.0370996 0)
(0.275794 0.035267 0)
(0.259841 0.0334148 0)
(0.24248 0.0323338 0)
(0.222337 0.0321491 0)
(0.200312 0.0323134 0)
(0.17581 0.0316597 0)
(0.152025 0.0293414 0)
(0.130153 0.0265535 0)
(0.111702 0.0255379 0)
(0.096771 0.0258479 0)
(0.0841767 0.0268331 0)
(0.0716234 0.0282006 0)
(0.055546 0.0304457 0)
(0.0340731 0.0304883 0)
(0.00837244 0.0200965 0)
(3 1.03587e-16 0)
(3 8.99566e-17 0)
(3 2.10742e-16 0)
(3 -2.06979e-16 0)
(3 1.47872e-16 0)
(3 -1.91467e-16 0)
(3 -1.39839e-17 0)
(3 -2.00942e-16 0)
(3 -3.64374e-16 0)
(3 7.34793e-16 0)
(3 1.49352e-15 0)
(3 2.0985e-15 0)
(3 2.18593e-15 0)
(3 1.92804e-15 0)
(3 1.15107e-15 0)
(3 3.81025e-16 0)
(3 7.28639e-16 0)
(3 1.97834e-15 0)
(3 1.78836e-15 0)
(3 1.91437e-15 0)
(3 1.23017e-15 0)
(3 1.1979e-15 0)
(3 6.08432e-16 0)
(3 7.89634e-16 0)
(3 3.69122e-16 0)
(3 -4.2063e-16 0)
(3 -4.7162e-16 0)
(3 -3.38316e-16 0)
(3 -5.31435e-16 0)
(3 -8.85268e-16 0)
(3 -4.65067e-16 0)
(3 -2.52367e-17 0)
(3 -2.82339e-16 0)
(3 -3.8761e-16 0)
(3 -2.64755e-16 0)
(3 -4.88553e-16 0)
(3 -5.94837e-16 0)
(3 -3.47609e-16 0)
(3 -2.57211e-16 0)
(3 9.729e-18 0)
(3 7.42443e-16 0)
(3 3.71398e-16 0)
(3 3.47668e-16 0)
(3 5.66619e-16 0)
(3 -1.21151e-16 0)
(3 6.71247e-16 0)
(3 8.42265e-16 0)
(3 6.32147e-16 0)
(3 1.34202e-15 0)
(3 7.59492e-16 0)
(3 1.0432e-15 0)
(3 1.48953e-15 0)
(3 1.76845e-15 0)
(3 1.40536e-15 0)
(3 1.3682e-15 0)
(3 1.49071e-15 0)
(3 -4.12152e-15 0)
(3 -2.55908e-13 0)
(3 -2.41023e-11 0)
(3 -1.39828e-09 0)
(3 -1.5446e-07 0)
(2.99992 -6.11371e-06 0)
(2.9946 -0.000973041 0)
(2.33985 -0.0278015 0)
(0.751829 -0.160103 0)
(0.656983 0.0568469 0)
(0.61223 0.119831 0)
(0.581012 0.10039 0)
(0.565042 0.050967 0)
(0.548356 0.0228971 0)
(0.532962 0.0273569 0)
(0.518195 0.0508242 0)
(0.49315 0.0681827 0)
(0.47 0.0610805 0)
(0.445808 0.0530237 0)
(0.419472 0.0543489 0)
(0.392309 0.0587588 0)
(0.367239 0.0594041 0)
(0.346879 0.0572006 0)
(0.330118 0.055169 0)
(0.315415 0.0531888 0)
(0.3013 0.0510759 0)
(0.286607 0.0492454 0)
(0.27014 0.0482607 0)
(0.250235 0.0484163 0)
(0.227658 0.0491095 0)
(0.202304 0.0488535 0)
(0.176673 0.0464013 0)
(0.152419 0.043077 0)
(0.131645 0.041527 0)
(0.114865 0.0419635 0)
(0.101052 0.0433519 0)
(0.0882535 0.0448207 0)
(0.0738669 0.0477944 0)
(0.0525131 0.0527254 0)
(0.017095 0.0450878 0)
(3 -2.56962e-16 0)
(3 3.1029e-16 0)
(3 6.61986e-16 0)
(3 4.56363e-16 0)
(3 4.46051e-18 0)
(3 -8.54827e-16 0)
(3 -1.24858e-15 0)
(3 -9.23754e-16 0)
(3 -4.89536e-16 0)
(3 -3.13107e-16 0)
(3 -5.39078e-16 0)
(3 1.03275e-15 0)
(3 9.96093e-16 0)
(3 1.47195e-15 0)
(3 2.14591e-15 0)
(3 2.13513e-15 0)
(3 9.17649e-16 0)
(3 6.73641e-16 0)
(3 1.47031e-15 0)
(3 1.12883e-15 0)
(3 1.0753e-15 0)
(3 2.05945e-16 0)
(3 1.36262e-16 0)
(3 7.61255e-17 0)
(3 9.71566e-16 0)
(3 4.01091e-16 0)
(3 4.67945e-16 0)
(3 -2.27782e-16 0)
(3 -1.20261e-15 0)
(3 -4.64388e-16 0)
(3 5.08827e-16 0)
(3 1.04612e-15 0)
(3 9.49866e-16 0)
(3 7.78851e-16 0)
(3 -4.40151e-16 0)
(3 -1.12487e-15 0)
(3 -9.14254e-16 0)
(3 -1.01058e-15 0)
(3 -6.05124e-16 0)
(3 3.47038e-16 0)
(3 9.26397e-17 0)
(3 9.43852e-16 0)
(3 2.10531e-16 0)
(3 -4.0284e-17 0)
(3 -2.96291e-16 0)
(3 -3.29822e-16 0)
(3 2.90636e-16 0)
(3 9.43686e-17 0)
(3 -3.95643e-16 0)
(3 2.21559e-16 0)
(3 2.67963e-16 0)
(3 1.27159e-15 0)
(3 1.30648e-15 0)
(3 1.22889e-15 0)
(3 3.64777e-16 0)
(3 8.86577e-16 0)
(3 3.18863e-15 0)
(3 1.49554e-13 0)
(3 1.42575e-12 0)
(3 3.36171e-10 0)
(3 -1.80825e-10 0)
(2.9999 2.68427e-06 0)
(2.99291 -0.0001008 0)
(2.06906 0.040586 0)
(0.590321 -0.11387 0)
(0.488591 0.0609087 0)
(0.502133 0.126516 0)
(0.493321 0.116048 0)
(0.486158 0.070197 0)
(0.468999 0.0366031 0)
(0.454746 0.0400038 0)
(0.453763 0.0605809 0)
(0.442507 0.0749998 0)
(0.427235 0.0697789 0)
(0.409307 0.0629601 0)
(0.390613 0.0667732 0)
(0.372463 0.0737013 0)
(0.355222 0.0757138 0)
(0.340203 0.0744138 0)
(0.326682 0.0732783 0)
(0.313845 0.0726615 0)
(0.300436 0.0720839 0)
(0.285409 0.071662 0)
(0.26768 0.0715326 0)
(0.246275 0.0722086 0)
(0.222447 0.0732402 0)
(0.195743 0.073085 0)
(0.169445 0.0698239 0)
(0.144499 0.0649632 0)
(0.123199 0.0618734 0)
(0.105661 0.0616155 0)
(0.0908922 0.0627969 0)
(0.0763377 0.0637949 0)
(0.0587571 0.0666754 0)
(0.0381817 0.0776105 0)
(0.00879813 0.0728606 0)
(3 2.1626e-17 0)
(3 -8.98195e-17 0)
(3 -2.19148e-16 0)
(3 7.53987e-17 0)
(3 -2.0049e-16 0)
(3 -6.45561e-16 0)
(3 -7.67236e-16 0)
(3 -6.88937e-16 0)
(3 -8.35296e-16 0)
(3 8.09089e-17 0)
(3 8.80987e-16 0)
(3 3.435e-16 0)
(3 1.525e-15 0)
(3 9.34477e-16 0)
(3 1.17709e-15 0)
(3 1.06544e-15 0)
(3 6.03935e-16 0)
(3 6.61007e-16 0)
(3 1.35992e-16 0)
(3 1.61688e-16 0)
(3 -9.38633e-18 0)
(3 7.87745e-17 0)
(3 9.11524e-16 0)
(3 1.96612e-15 0)
(3 1.93301e-15 0)
(3 2.26361e-15 0)
(3 2.15518e-15 0)
(3 1.93327e-15 0)
(3 7.94374e-16 0)
(3 1.28286e-16 0)
(3 -1.38327e-16 0)
(3 -3.94954e-16 0)
(3 -7.86343e-16 0)
(3 -1.21222e-15 0)
(3 -1.06991e-15 0)
(3 -1.02638e-15 0)
(3 -4.19201e-16 0)
(3 -2.94106e-17 0)
(3 2.51899e-16 0)
(3 -1.24335e-16 0)
(3 1.05794e-16 0)
(3 -9.59464e-16 0)
(3 -7.31105e-16 0)
(3 -1.24264e-15 0)
(3 -7.6077e-16 0)
(3 -2.93119e-16 0)
(3 -3.37651e-16 0)
(3 5.96969e-16 0)
(3 7.38148e-17 0)
(3 7.78549e-16 0)
(3 1.06172e-15 0)
(3 1.80468e-15 0)
(3 1.80777e-15 0)
(3 1.68031e-15 0)
(3 2.58172e-15 0)
(3 2.79799e-15 0)
(3 8.42923e-15 0)
(3 5.06229e-13 0)
(3 4.09168e-11 0)
(3 2.9686e-09 0)
(3 2.34465e-07 0)
(2.99993 1.57722e-05 0)
(2.99536 0.00122636 0)
(2.41915 0.144716 0)
(0.797092 -0.0578886 0)
(0.63278 0.0695976 0)
(0.588827 0.143773 0)
(0.543996 0.137858 0)
(0.522 0.0925035 0)
(0.499838 0.0539297 0)
(0.4741 0.0529871 0)
(0.456657 0.0764755 0)
(0.434984 0.0941904 0)
(0.416685 0.0886401 0)
(0.398895 0.0812396 0)
(0.38095 0.0843382 0)
(0.364594 0.089732 0)
(0.349659 0.0907166 0)
(0.336631 0.089321 0)
(0.324419 0.0886927 0)
(0.312125 0.0893924 0)
(0.298619 0.0904995 0)
(0.283114 0.0914247 0)
(0.264835 0.0920659 0)
(0.243311 0.0933334 0)
(0.219685 0.0951243 0)
(0.193333 0.0954109 0)
(0.167328 0.0919636 0)
(0.14224 0.0862345 0)
(0.120367 0.0822063 0)
(0.101908 0.0815655 0)
(0.0860694 0.0825694 0)
(0.0702824 0.0836674 0)
(0.0519239 0.0859918 0)
(0.0334077 0.0986906 0)
(0.00652359 0.0928075 0)
(3 1.26167e-16 0)
(3 -5.75882e-17 0)
(3 3.01854e-16 0)
(3 5.55703e-17 0)
(3 1.26373e-16 0)
(3 5.94772e-16 0)
(3 5.55178e-16 0)
(3 -2.48478e-16 0)
(3 7.1251e-16 0)
(3 3.27158e-16 0)
(3 -1.76246e-16 0)
(3 4.81421e-16 0)
(3 1.62096e-16 0)
(3 1.27643e-17 0)
(3 -3.6513e-16 0)
(3 -4.96075e-16 0)
(3 -7.39846e-16 0)
(3 -1.6108e-15 0)
(3 -1.75428e-15 0)
(3 -1.54315e-15 0)
(3 -1.41724e-15 0)
(3 4.80075e-17 0)
(3 -1.27143e-16 0)
(3 1.28537e-16 0)
(3 2.37574e-16 0)
(3 1.46009e-15 0)
(3 1.55021e-15 0)
(3 1.10429e-15 0)
(3 2.12049e-15 0)
(3 2.4951e-15 0)
(3 1.62034e-15 0)
(3 1.02431e-15 0)
(3 6.31505e-17 0)
(3 -1.44095e-16 0)
(3 -8.79463e-16 0)
(3 -4.29357e-16 0)
(3 -5.57102e-16 0)
(3 1.12662e-17 0)
(3 5.44755e-16 0)
(3 4.84643e-16 0)
(3 4.46101e-16 0)
(3 -3.66662e-16 0)
(3 -5.24512e-16 0)
(3 -1.67139e-16 0)
(3 -4.16309e-16 0)
(3 -1.26102e-15 0)
(3 -1.57093e-15 0)
(3 -2.38739e-15 0)
(3 -1.31179e-15 0)
(3 -5.69035e-17 0)
(3 1.43558e-15 0)
(3 7.40663e-16 0)
(3 1.29568e-15 0)
(3 1.5186e-15 0)
(3 1.36775e-15 0)
(3 1.40395e-15 0)
(3 5.39114e-15 0)
(3 2.59171e-13 0)
(3 2.19463e-11 0)
(3 1.6418e-09 0)
(3 1.05428e-07 0)
(2.99995 8.04681e-06 0)
(2.99651 0.00037615 0)
(2.51289 0.0776601 0)
(0.812399 -0.0833893 0)
(0.655304 0.115812 0)
(0.605783 0.184244 0)
(0.584963 0.166752 0)
(0.572752 0.11202 0)
(0.554261 0.0713688 0)
(0.529275 0.0690332 0)
(0.506327 0.0923928 0)
(0.472332 0.114431 0)
(0.440026 0.110078 0)
(0.413874 0.100637 0)
(0.391578 0.101762 0)
(0.373798 0.104927 0)
(0.358096 0.105192 0)
(0.344191 0.103661 0)
(0.330862 0.103726 0)
(0.317189 0.106152 0)
(0.301987 0.109422 0)
(0.284506 0.112117 0)
(0.264148 0.113659 0)
(0.241013 0.115316 0)
(0.216382 0.117424 0)
(0.189752 0.117803 0)
(0.163967 0.114117 0)
(0.139399 0.107638 0)
(0.11798 0.102797 0)
(0.0997249 0.10183 0)
(0.0839073 0.102755 0)
(0.0677907 0.103659 0)
(0.0499622 0.104357 0)
(0.0321786 0.116659 0)
(0.0104924 0.112463 0)
(3 -1.52654e-16 0)
(3 3.36167e-16 0)
(3 9.39762e-17 0)
(3 -2.17528e-16 0)
(3 -3.49519e-16 0)
(3 5.2797e-17 0)
(3 8.72508e-17 0)
(3 8.28462e-16 0)
(3 6.98174e-16 0)
(3 1.41955e-15 0)
(3 7.65246e-16 0)
(3 -1.26062e-16 0)
(3 -1.79904e-16 0)
(3 1.8079e-16 0)
(3 4.18446e-16 0)
(3 -4.0112e-16 0)
(3 -4.95707e-16 0)
(3 -7.09001e-16 0)
(3 -2.77294e-16 0)
(3 -6.09399e-16 0)
(3 -4.24488e-16 0)
(3 -6.27684e-16 0)
(3 -6.09151e-17 0)
(3 4.56778e-16 0)
(3 7.60909e-16 0)
(3 7.11724e-16 0)
(3 7.782e-16 0)
(3 1.52451e-15 0)
(3 1.36545e-15 0)
(3 1.24939e-15 0)
(3 4.44733e-16 0)
(3 8.95093e-16 0)
(3 7.29537e-18 0)
(3 6.03904e-17 0)
(3 -3.42065e-16 0)
(3 5.63929e-16 0)
(3 6.74014e-16 0)
(3 1.11442e-15 0)
(3 1.85007e-15 0)
(3 1.91951e-15 0)
(3 6.92519e-16 0)
(3 5.74797e-16 0)
(3 5.01943e-16 0)
(3 -2.05825e-16 0)
(3 -2.21781e-16 0)
(3 -1.69102e-15 0)
(3 -2.08925e-15 0)
(3 -2.00302e-15 0)
(3 -1.36942e-15 0)
(3 -6.93453e-16 0)
(3 2.70442e-16 0)
(3 1.91637e-16 0)
(3 8.69375e-16 0)
(3 5.46933e-16 0)
(3 6.58508e-16 0)
(3 1.34142e-15 0)
(3 2.89171e-15 0)
(3 1.75072e-13 0)
(3 1.30863e-11 0)
(3 1.02426e-09 0)
(3 7.918e-08 0)
(2.99996 5.41168e-06 0)
(2.99731 0.00041792 0)
(2.57848 0.0631468 0)
(0.819308 -0.0856976 0)
(0.642722 0.141993 0)
(0.599361 0.203669 0)
(0.582458 0.18875 0)
(0.574226 0.131102 0)
(0.553432 0.0867984 0)
(0.529692 0.0902295 0)
(0.516218 0.119539 0)
(0.489247 0.141768 0)
(0.462242 0.132776 0)
(0.437696 0.117752 0)
(0.413859 0.115688 0)
(0.393453 0.118051 0)
(0.374559 0.11941 0)
(0.356575 0.119593 0)
(0.33897 0.121463 0)
(0.321257 0.125551 0)
(0.302746 0.130234 0)
(0.282911 0.134032 0)
(0.261001 0.136047 0)
(0.237766 0.137902 0)
(0.213453 0.140145 0)
(0.188002 0.14045 0)
(0.163283 0.136342 0)
(0.140009 0.129014 0)
(0.119422 0.123272 0)
(0.101549 0.121931 0)
(0.0856594 0.12289 0)
(0.0688646 0.12386 0)
(0.0496328 0.124046 0)
(0.0297263 0.133344 0)
(0.01872 0.131183 0)
(3 -2.54073e-16 0)
(3 2.29802e-17 0)
(3 -6.61185e-16 0)
(3 1.60957e-16 0)
(3 -5.0712e-17 0)
(3 -2.5271e-16 0)
(3 -4.04434e-16 0)
(3 -3.26865e-16 0)
(3 -6.56554e-16 0)
(3 -4.61152e-16 0)
(3 1.47266e-16 0)
(3 1.35726e-16 0)
(3 -1.89392e-16 0)
(3 1.65016e-18 0)
(3 -6.51565e-17 0)
(3 1.32355e-15 0)
(3 1.74002e-15 0)
(3 1.91352e-15 0)
(3 2.00986e-15 0)
(3 1.77137e-15 0)
(3 1.90882e-15 0)
(3 2.05751e-15 0)
(3 8.5941e-16 0)
(3 3.92023e-16 0)
(3 5.91866e-16 0)
(3 1.16258e-15 0)
(3 6.52134e-16 0)
(3 1.00388e-15 0)
(3 1.6709e-15 0)
(3 1.68671e-15 0)
(3 1.92514e-15 0)
(3 1.6629e-15 0)
(3 2.36395e-15 0)
(3 2.32699e-15 0)
(3 2.68082e-15 0)
(3 2.24743e-15 0)
(3 1.63198e-15 0)
(3 1.68267e-15 0)
(3 8.52299e-16 0)
(3 -6.17165e-16 0)
(3 -1.23732e-15 0)
(3 -7.96579e-16 0)
(3 -5.15004e-16 0)
(3 -6.00824e-16 0)
(3 -5.72373e-16 0)
(3 3.4076e-16 0)
(3 1.64738e-15 0)
(3 2.18028e-15 0)
(3 1.32728e-15 0)
(3 -2.42154e-16 0)
(3 -1.45682e-15 0)
(3 -8.33314e-16 0)
(3 -4.22041e-16 0)
(3 4.87862e-16 0)
(3 1.83025e-15 0)
(3 1.67657e-15 0)
(3 1.44156e-15 0)
(3 1.05648e-13 0)
(3 8.93576e-12 0)
(3 7.91838e-10 0)
(3 6.40853e-08 0)
(2.99998 4.59456e-06 0)
(2.99813 0.000416001 0)
(2.68586 0.0547177 0)
(0.874852 -0.0783085 0)
(0.638943 0.169185 0)
(0.593873 0.220109 0)
(0.580996 0.20499 0)
(0.573211 0.147226 0)
(0.551744 0.101181 0)
(0.527613 0.104413 0)
(0.517524 0.135995 0)
(0.493916 0.162448 0)
(0.468506 0.156408 0)
(0.444806 0.14206 0)
(0.419805 0.139311 0)
(0.398202 0.141086 0)
(0.378816 0.141399 0)
(0.360796 0.140868 0)
(0.343205 0.142446 0)
(0.325472 0.146785 0)
(0.306788 0.152071 0)
(0.28663 0.156195 0)
(0.264351 0.158169 0)
(0.241318 0.159931 0)
(0.217251 0.162075 0)
(0.19274 0.162123 0)
(0.16849 0.157626 0)
(0.145734 0.149654 0)
(0.125072 0.143236 0)
(0.106623 0.141766 0)
(0.089937 0.143051 0)
(0.0720522 0.144598 0)
(0.052263 0.146032 0)
(0.0301361 0.150572 0)
(0.0199436 0.150098 0)
(3 2.70592e-16 0)
(3 -5.0328e-16 0)
(3 2.23091e-16 0)
(3 9.56982e-16 0)
(3 1.35768e-15 0)
(3 9.65832e-16 0)
(3 7.33961e-16 0)
(3 -3.74843e-16 0)
(3 2.76691e-16 0)
(3 1.91267e-16 0)
(3 -8.54111e-17 0)
(3 -5.67658e-16 0)
(3 -3.78828e-16 0)
(3 -3.28528e-16 0)
(3 2.58591e-16 0)
(3 -3.72415e-16 0)
(3 3.16271e-16 0)
(3 7.32982e-16 0)
(3 9.72737e-16 0)
(3 7.54306e-16 0)
(3 9.93102e-16 0)
(3 9.22754e-17 0)
(3 6.95356e-16 0)
(3 6.16891e-16 0)
(3 4.52163e-16 0)
(3 -2.24791e-17 0)
(3 4.29925e-16 0)
(3 3.81143e-16 0)
(3 1.96026e-17 0)
(3 7.70451e-16 0)
(3 1.06208e-15 0)
(3 1.22667e-15 0)
(3 1.07637e-15 0)
(3 1.97087e-15 0)
(3 1.48151e-15 0)
(3 2.07417e-15 0)
(3 1.96608e-15 0)
(3 1.16729e-15 0)
(3 5.46894e-17 0)
(3 -1.16061e-15 0)
(3 -6.55443e-16 0)
(3 9.32222e-16 0)
(3 1.40829e-15 0)
(3 5.72702e-16 0)
(3 -1.084e-16 0)
(3 -4.2021e-17 0)
(3 2.79268e-16 0)
(3 5.64384e-16 0)
(3 3.94316e-16 0)
(3 -3.80441e-16 0)
(3 1.86288e-16 0)
(3 2.51532e-16 0)
(3 6.26577e-16 0)
(3 1.3062e-15 0)
(3 9.04704e-16 0)
(3 2.12453e-16 0)
(3 -1.41551e-16 0)
(3 7.2863e-14 0)
(3 5.85066e-12 0)
(3 5.51765e-10 0)
(3 4.98494e-08 0)
(2.99998 3.71269e-06 0)
(2.99878 0.000387949 0)
(2.79166 0.043128 0)
(0.909078 -0.0200478 0)
(0.60768 0.1892 0)
(0.576034 0.229133 0)
(0.567842 0.213764 0)
(0.562917 0.159769 0)
(0.542969 0.112479 0)
(0.521069 0.116784 0)
(0.508556 0.150744 0)
(0.483809 0.179536 0)
(0.45809 0.175233 0)
(0.436165 0.161839 0)
(0.413702 0.15909 0)
(0.395448 0.160962 0)
(0.378892 0.161688 0)
(0.362787 0.161538 0)
(0.346101 0.163357 0)
(0.328429 0.167722 0)
(0.309431 0.173208 0)
(0.288637 0.177641 0)
(0.26594 0.179696 0)
(0.242783 0.181616 0)
(0.218559 0.18392 0)
(0.194517 0.184078 0)
(0.170425 0.179505 0)
(0.147898 0.171325 0)
(0.12709 0.164475 0)
(0.108124 0.162842 0)
(0.090752 0.164235 0)
(0.0719055 0.165841 0)
(0.0520333 0.168325 0)
(0.0299452 0.167666 0)
(0.0202791 0.169701 0)
(3 -1.84828e-16 0)
(3 1.25787e-16 0)
(3 -2.62315e-16 0)
(3 9.63798e-19 0)
(3 1.09827e-15 0)
(3 1.30955e-15 0)
(3 2.5228e-16 0)
(3 4.81651e-16 0)
(3 -7.13701e-17 0)
(3 -1.45058e-15 0)
(3 -1.48526e-15 0)
(3 -7.30042e-16 0)
(3 -7.30117e-16 0)
(3 -9.69438e-16 0)
(3 -9.88501e-16 0)
(3 -5.31911e-16 0)
(3 -1.84932e-16 0)
(3 -1.60226e-17 0)
(3 -1.04192e-16 0)
(3 1.70622e-16 0)
(3 -7.49701e-17 0)
(3 7.98145e-16 0)
(3 6.86553e-16 0)
(3 4.90105e-16 0)
(3 -4.25665e-16 0)
(3 -4.98645e-16 0)
(3 1.57925e-17 0)
(3 -1.76589e-16 0)
(3 -2.15779e-16 0)
(3 -3.93562e-17 0)
(3 5.57911e-16 0)
(3 2.66704e-16 0)
(3 8.95055e-16 0)
(3 8.65156e-16 0)
(3 9.87702e-16 0)
(3 5.68888e-16 0)
(3 -3.04385e-16 0)
(3 -4.44008e-16 0)
(3 1.81595e-16 0)
(3 4.28854e-16 0)
(3 1.48382e-15 0)
(3 1.315e-15 0)
(3 1.05616e-15 0)
(3 1.26614e-15 0)
(3 1.34547e-15 0)
(3 7.14629e-16 0)
(3 7.42052e-16 0)
(3 1.67308e-16 0)
(3 4.29857e-16 0)
(3 4.73228e-16 0)
(3 1.103e-15 0)
(3 1.41346e-15 0)
(3 1.43456e-15 0)
(3 1.42003e-15 0)
(3 1.58527e-16 0)
(3 -8.03585e-16 0)
(3 1.16005e-15 0)
(3 3.5015e-14 0)
(3 3.10616e-12 0)
(3 3.08021e-10 0)
(3 2.36421e-08 0)
(2.99999 2.26769e-06 0)
(2.99935 0.000211379 0)
(2.88775 0.0250168 0)
(1.02556 0.0437213 0)
(0.633965 0.216088 0)
(0.582996 0.243216 0)
(0.571786 0.227326 0)
(0.563826 0.176009 0)
(0.541085 0.126313 0)
(0.51603 0.131785 0)
(0.498767 0.167286 0)
(0.47427 0.195556 0)
(0.451507 0.192207 0)
(0.433225 0.180248 0)
(0.414293 0.17772 0)
(0.398732 0.179803 0)
(0.383904 0.181297 0)
(0.368502 0.181942 0)
(0.351494 0.184371 0)
(0.332668 0.188974 0)
(0.312233 0.194527 0)
(0.289781 0.199053 0)
(0.266643 0.201187 0)
(0.24307 0.203309 0)
(0.219212 0.205839 0)
(0.195744 0.206132 0)
(0.172448 0.201515 0)
(0.150695 0.193172 0)
(0.130398 0.185825 0)
(0.111508 0.183845 0)
(0.0937263 0.185384 0)
(0.0740887 0.187384 0)
(0.0528621 0.190899 0)
(0.0302381 0.184095 0)
(0.0193269 0.190285 0)
(3 7.23631e-18 0)
(3 -1.1476e-16 0)
(3 -2.84999e-16 0)
(3 -5.42387e-16 0)
(3 -3.13627e-16 0)
(3 -4.74477e-16 0)
(3 -5.16373e-16 0)
(3 -3.6529e-16 0)
(3 -2.70577e-16 0)
(3 -6.29231e-16 0)
(3 -7.44173e-16 0)
(3 -6.73632e-16 0)
(3 -1.42102e-15 0)
(3 -1.41879e-15 0)
(3 -1.07475e-15 0)
(3 -8.0467e-16 0)
(3 -1.11177e-15 0)
(3 -1.37838e-15 0)
(3 -1.38964e-15 0)
(3 -8.32533e-16 0)
(3 -4.62564e-16 0)
(3 -5.29763e-16 0)
(3 -4.59582e-16 0)
(3 -8.97076e-16 0)
(3 -1.20441e-15 0)
(3 -6.52965e-16 0)
(3 6.24194e-17 0)
(3 5.63104e-16 0)
(3 1.06634e-16 0)
(3 1.02181e-16 0)
(3 8.89976e-17 0)
(3 1.09192e-15 0)
(3 1.25126e-15 0)
(3 1.71816e-15 0)
(3 2.11068e-15 0)
(3 8.01289e-16 0)
(3 1.62763e-16 0)
(3 -5.01691e-16 0)
(3 -3.56759e-16 0)
(3 8.67444e-16 0)
(3 1.04205e-15 0)
(3 2.27504e-16 0)
(3 2.04907e-16 0)
(3 5.48449e-16 0)
(3 6.48717e-16 0)
(3 6.31726e-16 0)
(3 2.0996e-17 0)
(3 -1.96696e-16 0)
(3 3.2533e-17 0)
(3 9.98866e-17 0)
(3 -1.64582e-16 0)
(3 -5.36658e-17 0)
(3 -1.92966e-16 0)
(3 -1.47487e-16 0)
(3 -3.24998e-16 0)
(3 -3.20088e-16 0)
(3 2.63193e-16 0)
(3 2.65848e-14 0)
(3 1.60208e-12 0)
(3 1.10523e-10 0)
(3 7.85257e-09 0)
(2.99999 6.76401e-07 0)
(2.99959 4.17672e-05 0)
(2.97366 0.00765051 0)
(1.17658 0.0500562 0)
(0.685056 0.236412 0)
(0.623858 0.250061 0)
(0.608991 0.233482 0)
(0.585987 0.192676 0)
(0.552201 0.149054 0)
(0.514223 0.153238 0)
(0.491972 0.185342 0)
(0.471052 0.210075 0)
(0.451713 0.206689 0)
(0.437115 0.195645 0)
(0.420366 0.194109 0)
(0.406337 0.197273 0)
(0.392149 0.200319 0)
(0.376665 0.202536 0)
(0.35901 0.2061 0)
(0.339045 0.210894 0)
(0.317175 0.216167 0)
(0.293741 0.220369 0)
(0.27041 0.22244 0)
(0.246602 0.224696 0)
(0.223189 0.227468 0)
(0.199829 0.228012 0)
(0.176922 0.223588 0)
(0.155269 0.215338 0)
(0.134851 0.207501 0)
(0.11569 0.204791 0)
(0.0977017 0.206048 0)
(0.0785245 0.208407 0)
(0.0575748 0.213778 0)
(0.0322837 0.20816 0)
(0.0116155 0.206 0)
(3 -2.06963e-16 0)
(3 -1.03316e-16 0)
(3 3.543e-16 0)
(3 -5.53923e-16 0)
(3 -6.98427e-16 0)
(3 -1.03173e-15 0)
(3 6.1783e-16 0)
(3 2.12929e-16 0)
(3 1.08898e-16 0)
(3 6.37062e-16 0)
(3 3.26344e-16 0)
(3 -9.45881e-16 0)
(3 -9.04965e-16 0)
(3 -3.28702e-16 0)
(3 -4.23061e-17 0)
(3 -1.06361e-16 0)
(3 -3.62195e-16 0)
(3 -5.87965e-16 0)
(3 -6.16837e-16 0)
(3 -4.13341e-16 0)
(3 -2.95177e-16 0)
(3 -2.11134e-15 0)
(3 -1.41245e-15 0)
(3 -9.51221e-16 0)
(3 -6.91703e-16 0)
(3 -2.49583e-16 0)
(3 -2.32156e-16 0)
(3 -6.58641e-16 0)
(3 2.52487e-16 0)
(3 4.75492e-16 0)
(3 8.22149e-16 0)
(3 6.52464e-16 0)
(3 6.5551e-16 0)
(3 2.44205e-16 0)
(3 4.657e-17 0)
(3 -4.02913e-16 0)
(3 6.36021e-16 0)
(3 7.13378e-16 0)
(3 -1.93437e-16 0)
(3 -1.55753e-16 0)
(3 1.60517e-17 0)
(3 2.43085e-16 0)
(3 2.72608e-16 0)
(3 2.95104e-16 0)
(3 3.13942e-16 0)
(3 2.55665e-16 0)
(3 -4.36917e-16 0)
(3 -5.05257e-16 0)
(3 -3.65741e-16 0)
(3 -1.19809e-16 0)
(3 -6.65622e-16 0)
(3 -2.47863e-16 0)
(3 -5.90859e-16 0)
(3 -1.05031e-15 0)
(3 -1.25333e-15 0)
(3 -1.12683e-15 0)
(3 -9.05576e-17 0)
(3 2.951e-14 0)
(3 1.54997e-12 0)
(3 9.00181e-11 0)
(3 5.64986e-09 0)
(2.99999 2.97642e-07 0)
(2.99964 1.59081e-05 0)
(2.97665 0.00125478 0)
(1.26061 0.0631829 0)
(0.661832 0.259038 0)
(0.640049 0.259294 0)
(0.635066 0.249682 0)
(0.608032 0.224269 0)
(0.571742 0.188031 0)
(0.526911 0.182386 0)
(0.498314 0.206775 0)
(0.475776 0.223396 0)
(0.457503 0.219335 0)
(0.443467 0.209557 0)
(0.427095 0.210453 0)
(0.412629 0.216041 0)
(0.397507 0.220812 0)
(0.381238 0.224285 0)
(0.363175 0.228493 0)
(0.34306 0.23303 0)
(0.320733 0.237542 0)
(0.297567 0.241301 0)
(0.273924 0.243518 0)
(0.249838 0.246249 0)
(0.22636 0.249595 0)
(0.202753 0.250647 0)
(0.17994 0.24669 0)
(0.158323 0.238648 0)
(0.137777 0.230214 0)
(0.118123 0.226326 0)
(0.0990848 0.226415 0)
(0.0803349 0.227975 0)
(0.0619901 0.235119 0)
(0.0365926 0.238456 0)
(-0.0028682 0.223461 0)
(3 1.15047e-16 0)
(3 5.64937e-16 0)
(3 6.72138e-16 0)
(3 7.11698e-16 0)
(3 -9.77528e-17 0)
(3 -4.59872e-16 0)
(3 -3.20429e-16 0)
(3 1.73525e-16 0)
(3 8.26175e-16 0)
(3 3.35722e-16 0)
(3 1.87926e-16 0)
(3 2.90267e-17 0)
(3 1.60545e-16 0)
(3 1.29669e-15 0)
(3 1.64926e-16 0)
(3 5.17314e-17 0)
(3 -8.53632e-18 0)
(3 9.53625e-17 0)
(3 1.18079e-15 0)
(3 1.78826e-15 0)
(3 1.29335e-15 0)
(3 1.19714e-15 0)
(3 4.0465e-16 0)
(3 3.4309e-16 0)
(3 7.50774e-16 0)
(3 1.01557e-16 0)
(3 -1.90908e-16 0)
(3 6.18347e-16 0)
(3 1.12692e-15 0)
(3 5.78911e-16 0)
(3 6.1206e-16 0)
(3 4.1741e-16 0)
(3 3.2376e-17 0)
(3 2.29796e-16 0)
(3 -5.48978e-16 0)
(3 -8.11844e-16 0)
(3 -9.95318e-16 0)
(3 -7.59908e-16 0)
(3 -6.84583e-16 0)
(3 -9.14545e-16 0)
(3 -9.49057e-16 0)
(3 -3.66585e-16 0)
(3 6.79142e-17 0)
(3 3.84146e-16 0)
(3 5.14111e-16 0)
(3 -2.6284e-16 0)
(3 -9.42268e-16 0)
(3 -8.43131e-16 0)
(3 -2.86527e-16 0)
(3 -5.91185e-16 0)
(3 -1.09536e-15 0)
(3 -1.16374e-15 0)
(3 -1.47276e-15 0)
(3 -1.63644e-15 0)
(3 -1.14056e-15 0)
(3 -5.05569e-16 0)
(3 8.11937e-16 0)
(3 3.10134e-14 0)
(3 1.90017e-12 0)
(3 1.17722e-10 0)
(3 7.43101e-09 0)
(3 4.06719e-07 0)
(2.99969 2.81615e-05 0)
(2.97946 0.00140751 0)
(1.36465 0.119536 0)
(0.633776 0.246217 0)
(0.627185 0.254562 0)
(0.631524 0.250473 0)
(0.613336 0.24897 0)
(0.584579 0.227959 0)
(0.544764 0.21485 0)
(0.513945 0.228116 0)
(0.489483 0.237017 0)
(0.469112 0.232682 0)
(0.450863 0.226174 0)
(0.432445 0.22977 0)
(0.415789 0.236879 0)
(0.399945 0.241994 0)
(0.384099 0.245555 0)
(0.366788 0.249764 0)
(0.347022 0.253929 0)
(0.324466 0.258027 0)
(0.301225 0.261943 0)
(0.277069 0.264738 0)
(0.252809 0.268267 0)
(0.229311 0.27229 0)
(0.205997 0.273836 0)
(0.183805 0.27027 0)
(0.162661 0.262397 0)
(0.142176 0.253418 0)
(0.121892 0.248502 0)
(0.101068 0.247379 0)
(0.0808961 0.247328 0)
(0.0606663 0.254265 0)
(0.0373374 0.264632 0)
(0.000719731 0.248966 0)
(3 1.35651e-17 0)
(3 -4.23815e-17 0)
(3 -7.53903e-17 0)
(3 -4.32003e-16 0)
(3 -1.06459e-15 0)
(3 -9.87238e-16 0)
(3 -7.84229e-16 0)
(3 -6.47151e-16 0)
(3 -5.98844e-16 0)
(3 4.41083e-16 0)
(3 6.67365e-17 0)
(3 7.46691e-16 0)
(3 7.94859e-16 0)
(3 -6.55227e-16 0)
(3 -4.82676e-16 0)
(3 -1.15721e-15 0)
(3 -1.52384e-15 0)
(3 -9.36977e-16 0)
(3 -4.54321e-16 0)
(3 -4.80473e-17 0)
(3 -4.10448e-16 0)
(3 4.19325e-16 0)
(3 1.2946e-15 0)
(3 8.95512e-16 0)
(3 3.96133e-16 0)
(3 3.37845e-16 0)
(3 1.003e-16 0)
(3 1.17234e-16 0)
(3 -3.18839e-16 0)
(3 -1.68911e-16 0)
(3 -1.58089e-16 0)
(3 -1.42852e-16 0)
(3 -1.2351e-16 0)
(3 1.71542e-16 0)
(3 4.06765e-16 0)
(3 4.53526e-16 0)
(3 -2.54658e-16 0)
(3 -5.92535e-16 0)
(3 -1.00409e-15 0)
(3 -2.22896e-15 0)
(3 -2.29497e-15 0)
(3 -1.86283e-15 0)
(3 -1.04916e-15 0)
(3 1.63105e-16 0)
(3 2.5297e-16 0)
(3 -7.04249e-16 0)
(3 -5.41771e-16 0)
(3 -9.99805e-16 0)
(3 -1.0891e-15 0)
(3 -7.95898e-16 0)
(3 -8.86831e-16 0)
(3 -1.57381e-15 0)
(3 -1.54618e-15 0)
(3 -1.00563e-15 0)
(3 -5.11582e-16 0)
(3 -7.12065e-16 0)
(3 -4.45916e-16 0)
(3 3.28541e-14 0)
(3 2.20106e-12 0)
(3 1.45489e-10 0)
(3 9.42206e-09 0)
(3 5.47604e-07 0)
(2.99974 4.01256e-05 0)
(2.98269 0.0017045 0)
(1.5148 0.211963 0)
(0.637303 0.236029 0)
(0.628124 0.232475 0)
(0.633879 0.249744 0)
(0.614708 0.269291 0)
(0.586903 0.260959 0)
(0.555645 0.246808 0)
(0.528016 0.250848 0)
(0.50422 0.256244 0)
(0.481174 0.25245 0)
(0.45867 0.248269 0)
(0.438259 0.252309 0)
(0.421258 0.258648 0)
(0.406264 0.262375 0)
(0.391066 0.265162 0)
(0.373711 0.269506 0)
(0.352978 0.273906 0)
(0.329637 0.278194 0)
(0.305693 0.282642 0)
(0.280981 0.286201 0)
(0.256769 0.290593 0)
(0.233344 0.295252 0)
(0.210595 0.297259 0)
(0.189036 0.294098 0)
(0.168219 0.2865 0)
(0.147534 0.277187 0)
(0.126316 0.27155 0)
(0.103606 0.269736 0)
(0.0815292 0.268898 0)
(0.0591319 0.274872 0)
(0.0362674 0.28677 0)
(0.00950292 0.274648 0)
(3 -2.15945e-16 0)
(3 -5.46716e-16 0)
(3 -4.05855e-16 0)
(3 -3.40587e-16 0)
(3 6.3677e-16 0)
(3 -1.46207e-16 0)
(3 -5.23345e-16 0)
(3 -5.84633e-16 0)
(3 -2.7801e-16 0)
(3 -2.72788e-16 0)
(3 -1.77704e-16 0)
(3 -5.42473e-16 0)
(3 -5.44006e-16 0)
(3 -1.07442e-15 0)
(3 -1.64561e-15 0)
(3 -2.18996e-15 0)
(3 -2.04489e-15 0)
(3 -1.29753e-15 0)
(3 -3.53933e-16 0)
(3 -4.04074e-16 0)
(3 1.06028e-15 0)
(3 1.90518e-15 0)
(3 1.61192e-15 0)
(3 1.21036e-15 0)
(3 8.32739e-16 0)
(3 5.32112e-16 0)
(3 -3.05904e-16 0)
(3 -7.55992e-16 0)
(3 -8.3737e-16 0)
(3 -1.24787e-15 0)
(3 -1.06647e-15 0)
(3 -9.35006e-16 0)
(3 -5.38888e-16 0)
(3 -1.21033e-15 0)
(3 -9.51481e-16 0)
(3 -4.07282e-16 0)
(3 -3.71991e-16 0)
(3 -1.02793e-15 0)
(3 -1.39751e-15 0)
(3 -2.08749e-15 0)
(3 -2.40562e-15 0)
(3 -1.74823e-15 0)
(3 -1.05413e-15 0)
(3 -7.88027e-16 0)
(3 -4.66181e-16 0)
(3 -3.28253e-16 0)
(3 -9.7245e-16 0)
(3 -1.15971e-15 0)
(3 -9.23236e-16 0)
(3 -1.10524e-15 0)
(3 -1.15263e-15 0)
(3 -1.50677e-15 0)
(3 -1.25561e-15 0)
(3 -8.68945e-16 0)
(3 -3.22273e-16 0)
(3 -1.02787e-16 0)
(3 -4.79411e-16 0)
(3 2.39658e-14 0)
(3 2.05378e-12 0)
(3 1.44659e-10 0)
(3 9.62852e-09 0)
(3 6.38247e-07 0)
(2.99982 4.48545e-05 0)
(2.98726 0.00238665 0)
(1.78178 0.286015 0)
(0.680771 0.230518 0)
(0.642294 0.218673 0)
(0.638134 0.260321 0)
(0.60841 0.292823 0)
(0.580632 0.285362 0)
(0.557254 0.270656 0)
(0.534948 0.270975 0)
(0.514064 0.277846 0)
(0.490795 0.276707 0)
(0.467981 0.273404 0)
(0.448488 0.275021 0)
(0.432634 0.278331 0)
(0.417805 0.280478 0)
(0.401293 0.283647 0)
(0.381874 0.28931 0)
(0.358692 0.294512 0)
(0.334179 0.29901 0)
(0.309461 0.30367 0)
(0.284785 0.307781 0)
(0.26124 0.312968 0)
(0.238364 0.318285 0)
(0.216331 0.320877 0)
(0.195257 0.318278 0)
(0.174422 0.311131 0)
(0.153157 0.301707 0)
(0.130784 0.295515 0)
(0.10653 0.293325 0)
(0.082625 0.292472 0)
(0.0576458 0.298419 0)
(0.0321779 0.307373 0)
(0.0207242 0.299618 0)
(3 2.28214e-16 0)
(3 1.35326e-16 0)
(3 -6.72301e-16 0)
(3 -1.27904e-16 0)
(3 -2.27555e-16 0)
(3 3.35628e-16 0)
(3 5.3702e-16 0)
(3 4.35346e-16 0)
(3 -7.76581e-17 0)
(3 -1.59987e-16 0)
(3 -3.66646e-17 0)
(3 -1.10244e-16 0)
(3 -8.91807e-16 0)
(3 -9.39412e-16 0)
(3 -1.82077e-15 0)
(3 -1.51593e-15 0)
(3 -7.4351e-16 0)
(3 -3.77572e-16 0)
(3 -3.34653e-16 0)
(3 1.20259e-16 0)
(3 1.24436e-15 0)
(3 1.3452e-15 0)
(3 1.78555e-15 0)
(3 1.67777e-15 0)
(3 1.12981e-15 0)
(3 1.00098e-16 0)
(3 -3.88293e-16 0)
(3 -1.24332e-15 0)
(3 -1.15569e-15 0)
(3 -7.48567e-16 0)
(3 -1.26426e-15 0)
(3 -1.56652e-15 0)
(3 -1.3705e-15 0)