/*--------------------------------*- C++ -*----------------------------------*\
| =========                 |                                                 |
| \\      /  F ield         | OpenFOAM: The Open Source CFD Toolbox           |
|  \\    /   O peration     | Version:  v1812                                 |
|   \\  /    A nd           | Web:      www.OpenFOAM.com                      |
|    \\/     M anipulation  |                                                 |
\*---------------------------------------------------------------------------*/
FoamFile
{
    version     2.0;
    format      ascii;
    class       volScalarField;
    location    "1";
    object      p;
}
// * * * * * * * * * * * * * * * * * * * * * * * * * * * * * * * * * * * * * //

dimensions      [1 -1 -2 0 0 0 0];


internalField   nonuniform List<scalar> 
20400
(
106385
106386
106388
106390
106394
106397
106402
106407
106412
106418
106424
106430
106437
106443
106451
106458
106465
106472
106479
106486
106492
106498
106503
106508
106512
106515
106519
106520
106521
106520
106519
106515
106511
106503
106497
106486
106473
106461
106446
106432
106409
106389
106366
106340
106310
106289
106269
106242
106215
106186
106155
106122
106088
106050
106024
105996
105968
105939
105908
105881
105854
105830
105809
105790
105773
105757
105749
105739
105740
105737
105743
105748
105758
105768
105777
105788
105800
105814
105828
105842
105855
105868
105879
105890
105899
105908
105915
105920
105925
105928
105934
105939
105940
105940
105941
105940
105940
105940
105941
105944
105948
105952
105958
105963
105974
105986
105999
106012
106027
106049
106066
106089
106104
106120
106143
106164
106188
106213
106237
106257
106277
106301
106336
106372
106379
106396
106417
106439
106458
106476
106493
106508
106524
106543
106560
106569
106581
106591
106602
106611
106622
106632
106640
106648
106653
106660
106661
106664
106667
106669
106671
106672
106672
106671
106670
106667
106662
106657
106651
106645
106638
106630
106621
106611
106599
106586
106572
106557
106545
106531
106525
106513
106497
106475
106463
106448
106423
106403
106388
106371
106348
106319
106294
106268
106243
106218
106182
106152
106126
106098
106067
106035
106008
105986
105963
105940
105916
105895
105873
105855
105841
105825
105815
105809
105802
105803
105804
105804
105806
105809
105813
105817
105823
105829
105834
105836
105838
105845
105850
105845
105848
105850
105852
105852
105856
105863
105867
105865
105868
105868
105869
105870
105871
105872
105874
105876
105878
105880
105881
105884
105886
105887
105888
105889
105891
105891
105892
105887
105886
105884
105882
105879
105877
105874
105872
105870
105869
105866
105864
105866
105863
105859
105856
105853
105846
105841
105836
105832
105828
105822
105819
105817
105808
105795
105787
105778
105767
105756
105743
105729
105717
105697
105684
105662
105643
105623
105603
105582
105560
105535
105519
105489
105484
105433
105405
105376
105349
105315
105282
105251
105214
105180
105154
105107
105062
105023
104981
104946
104909
104864
104834
104785
104733
104686
104640
104595
104548
104502
104454
104408
104363
104314
104269
104216
104170
104121
104073
104024
103974
103925
103875
103825
103773
103722
103657
103610
103557
103509
103461
103411
103363
103315
103269
103222
103176
103131
103086
103041
102997
102954
102911
102868
102826
102785
102745
102705
102665
102627
102589
102551
102515
102479
102445
102411
102378
102346
102315
102285
102256
102229
102202
102174
102151
102129
102104
102082
102068
102044
102031
102007
101987
101973
101963
101943
101946
101924
101908
101900
101893
101890
101887
101878
101872
101866
101867
101869
101866
101865
101867
101873
101872
101872
101881
101890
101890
101893
101902
101907
101919
101928
101949
101954
101962
101976
101990
102003
102019
102017
102034
102048
102063
102082
102085
102105
102110
102128
102142
102152
102165
102174
102187
102197
102210
102225
102240
102250
102262
102256
102274
102285
102292
102301
102304
102314
102319
102330
102332
102337
102331
102337
102335
102337
102336
102337
102335
102337
102320
102322
102321
102307
102300
102290
102280
102272
102263
102243
102234
102223
102206
102188
102172
102153
102124
102114
102092
102077
102044
102025
101997
101974
101950
101924
101892
101866
101842
101806
101777
101739
101712
101683
101651
101621
101582
101551
101515
101476
101448
101414
101382
101350
106380
106380
106382
106384
106387
106390
106394
106399
106404
106409
106415
106422
106429
106435
106442
106449
106456
106463
106470
106476
106482
106487
106492
106496
106499
106502
106504
106505
106505
106503
106500
106496
106491
106483
106478
106466
106458
106447
106435
106420
106405
106390
106374
106354
106327
106312
106292
106269
106245
106219
106192
106164
106137
106108
106066
106033
105998
105963
105929
105898
105869
105842
105820
105800
105782
105766
105755
105741
105739
105735
105740
105746
105754
105764
105775
105787
105802
105816
105831
105845
105858
105870
105881
105891
105901
105909
105917
105924
105930
105935
105939
105942
105945
105948
105950
105951
105952
105954
105955
105957
105960
105962
105967
105973
105978
105985
105990
106001
106012
106024
106039
106050
106078
106097
106116
106137
106157
106178
106206
106238
106268
106297
106335
106368
106379
106401
106425
106447
106468
106488
106508
106527
106546
106559
106561
106566
106579
106589
106600
106610
106618
106629
106638
106645
106651
106658
106663
106667
106671
106673
106674
106674
106673
106672
106670
106666
106662
106658
106653
106647
106640
106632
106624
106614
106603
106590
106575
106558
106543
106529
106523
106515
106496
106474
106465
106452
106425
106405
106381
106355
106333
106306
106282
106259
106225
106188
106178
106157
106134
106113
106089
106064
106039
106019
105998
105967
105940
105919
105893
105874
105855
105838
105826
105815
105802
105799
105795
105788
105785
105783
105782
105784
105787
105793
105800
105807
105816
105830
105836
105834
105842
105847
105852
105857
105861
105862
105862
105862
105867
105869
105870
105874
105876
105879
105881
105883
105884
105886
105884
105883
105885
105884
105883
105883
105884
105885
105886
105886
105887
105888
105889
105889
105889
105888
105888
105886
105883
105878
105870
105866
105863
105862
105859
105855
105855
105852
105849
105844
105838
105832
105823
105822
105813
105802
105794
105786
105777
105766
105754
105742
105727
105719
105712
105673
105652
105632
105610
105586
105560
105531
105509
105484
105469
105434
105410
105373
105343
105319
105288
105257
105222
105181
105156
105109
105069
105031
104991
104957
104899
104856
104825
104780
104733
104684
104636
104591
104547
104505
104461
104424
104364
104304
104259
104208
104163
104112
104062
104013
103962
103911
103861
103810
103760
103711
103663
103623
103561
103511
103463
103414
103368
103321
103274
103228
103182
103138
103093
103050
103006
102964
102921
102880
102838
102798
102757
102717
102678
102639
102601
102564
102527
102492
102457
102423
102390
102358
102327
102297
102267
102239
102211
102181
102157
102136
102114
102096
102073
102020
102014
101998
102000
101990
101959
101936
101926
101919
101916
101909
101905
101894
101863
101866
101878
101882
101868
101845
101857
101878
101861
101855
101866
101885
101870
101870
101886
101903
101913
101924
101938
101912
101931
101954
101978
101975
101973
101992
102017
102031
102051
102070
102055
102065
102072
102107
102128
102127
102128
102141
102165
102181
102201
102217
102235
102223
102219
102236
102259
102277
102265
102266
102287
102310
102325
102333
102305
102311
102321
102330
102325
102337
102341
102353
102356
102332
102316
102335
102343
102313
102302
102294
102307
102309
102281
102254
102263
102263
102232
102207
102197
102189
102178
102166
102152
102125
102078
102058
102033
102029
102019
101974
101931
101914
101901
101856
101826
101794
101780
101753
101727
101685
101635
101610
101570
101554
101521
101494
101462
101396
101366
101335
106379
106379
106382
106384
106387
106390
106394
106398
106403
106409
106415
106421
106428
106434
106441
106448
106455
106462
106469
106475
106481
106487
106493
106497
106501
106505
106508
106509
106510
106510
106508
106505
106501
106495
106490
106480
106469
106460
106447
106433
106414
106395
106376
106353
106330
106304
106281
106254
106229
106201
106172
106140
106108
106072
106044
106017
105988
105957
105925
105896
105866
105837
105812
105790
105770
105752
105746
105736
105735
105727
105727
105729
105733
105739
105747
105757
105768
105781
105794
105807
105820
105832
105844
105855
105865
105874
105881
105887
105894
105905
105901
105895
105900
105902
105905
105907
105910
105914
105918
105922
105927
105932
105939
105946
105954
105963
105975
105998
106009
106025
106042
106064
106085
106108
106133
106158
106185
106213
106242
106267
106292
106308
106319
106352
106375
106391
106412
106432
106453
106473
106492
106511
106534
106552
106561
106571
106586
106598
106612
106623
106634
106642
106642
106646
106650
106655
106658
106661
106663
106666
106668
106670
106671
106671
106670
106668
106665
106657
106651
106645
106640
106632
106624
106613
106601
106586
106570
106554
106541
106526
106521
106515
106500
106475
106454
106441
106424
106403
106375
106346
106326
106307
106284
106260
106236
106216
106200
106176
106146
106117
106088
106063
106036
106004
105969
105945
105926
105905
105881
105861
105843
105827
105814
105803
105797
105797
105793
105793
105795
105797
105800
105802
105805
105809
105814
105820
105826
105837
105846
105847
105852
105855
105858
105865
105870
105868
105874
105874
105865
105860
105862
105863
105865
105866
105868
105871
105873
105876
105878
105880
105883
105884
105886
105887
105889
105891
105892
105893
105895
105897
105899
105900
105901
105900
105900
105898
105894
105889
105881
105875
105869
105865
105862
105858
105854
105850
105843
105839
105831
105825
105815
105812
105798
105788
105777
105765
105753
105741
105727
105712
105702
105695
105686
105667
105650
105632
105614
105594
105573
105550
105529
105502
105471
105440
105416
105386
105343
105308
105276
105245
105211
105177
105133
105116
105069
105028
104987
104951
104906
104858
104823
104772
104750
104694
104645
104598
104550
104500
104451
104406
104355
104310
104263
104206
104157
104109
104061
104011
103961
103912
103863
103814
103766
103699
103689
103631
103580
103525
103471
103424
103377
103330
103282
103235
103189
103144
103099
103054
103010
102966
102923
102880
102838
102797
102756
102716
102676
102637
102599
102561
102525
102489
102453
102419
102386
102353
102322
102292
102262
102234
102207
102181
102156
102128
102101
102083
102064
102050
102031
102010
101987
101973
101962
101958
101933
101925
101907
101898
101892
101888
101888
101878
101871
101867
101865
101872
101866
101864
101864
101872
101871
101873
101877
101888
101892
101893
101900
101906
101919
101936
101944
101953
101959
101975
101993
102003
102011
102019
102029
102050
102062
102085
102089
102101
102107
102128
102146
102153
102162
102170
102183
102192
102212
102225
102244
102250
102256
102257
102278
102293
102294
102295
102298
102316
102322
102333
102338
102339
102339
102332
102331
102333
102337
102338
102342
102334
102320
102325
102325
102313
102296
102284
102283
102279
102261
102238
102236
102228
102212
102190
102166
102149
102125
102116
102093
102080
102050
102020
101991
101977
101958
101926
101890
101871
101848
101814
101773
101735
101710
101683
101650
101627
101591
101546
101508
101471
101449
101414
101389
101356
106374
106373
106376
106379
106383
106387
106391
106396
106402
106408
106414
106421
106428
106435
106443
106450
106458
106465
106472
106479
106485
106491
106497
106502
106506
106510
106513
106514
106516
106515
106514
106511
106507
106500
106495
106486
106471
106460
106447
106434
106418
106402
106383
106359
106333
106312
106287
106259
106230
106199
106168
106134
106100
106066
106032
106000
105967
105934
105901
105874
105846
105823
105799
105777
105759
105741
105726
105714
105706
105695
105692
105694
105698
105707
105717
105732
105747
105765
105783
105802
105820
105838
105855
105871
105885
105898
105909
105918
105925
105932
105936
105937
105938
105940
105942
105943
105943
105944
105945
105947
105949
105952
105956
105961
105970
105980
105993
106004
106013
106025
106042
106063
106086
106109
106135
106162
106190
106219
106248
106273
106304
106330
106348
106373
106384
106405
106425
106444
106463
106481
106499
106512
106522
106535
106553
106563
106575
106586
106598
106610
106621
106631
106636
106644
106649
106656
106662
106667
106671
106673
106673
106672
106670
106669
106666
106663
106661
106656
106651
106645
106638
106630
106621
106612
106600
106587
106575
106561
106552
106540
106521
106505
106496
106479
106448
106433
106425
106405
106381
106357
106341
106326
106305
106281
106253
106228
106197
106173
106144
106108
106071
106046
106025
105999
105967
105940
105918
105897
105875
105858
105835
105820
105807
105797
105789
105786
105786
105790
105796
105803
105811
105817
105824
105831
105836
105839
105842
105851
105854
105848
105849
105849
105854
105864
105865
105866
105868
105867
105866
105864
105863
105865
105866
105868
105870
105872
105874
105877
105879
105882
105884
105885
105887
105888
105890
105891
105892
105892
105893
105893
105892
105891
105889
105887
105885
105883
105880
105877
105873
105868
105864
105859
105855
105851
105845
105839
105834
105828
105824
105818
105814
105812
105806
105798
105791
105781
105771
105760
105746
105731
105718
105699
105682
105666
105646
105625
105604
105582
105560
105538
105522
105484
105460
105429
105409
105390
105351
105318
105285
105254
105218
105181
105152
105119
105070
105030
104983
104949
104913
104863
104826
104782
104729
104687
104645
104595
104547
104499
104450
104398
104357
104334
104278
104223
104176
104122
104068
104019
103967
103914
103861
103809
103754
103700
103647
103600
103548
103503
103464
103413
103364
103315
103268
103221
103175
103129
103084
103039
102994
102950
102907
102864
102822
102781
102740
102700
102660
102621
102583
102546
102509
102473
102438
102404
102371
102340
102309
102279
102249
102222
102196
102172
102149
102123
102092
102071
102063
102051
102029
102008
101982
101966
101969
101955
101942
101917
101906
101893
101883
101887
101888
101887
101868
101859
101866
101871
101869
101861
101868
101875
101870
101871
101884
101887
101888
101892
101897
101903
101912
101941
101950
101950
101955
101975
101991
102006
102010
102015
102029
102040
102070
102087
102097
102098
102105
102128
102143
102155
102162
102167
102183
102193
102201
102228
102247
102257
102254
102257
102281
102293
102295
102290
102301
102303
102329
102336
102337
102338
102335
102338
102332
102334
102330
102341
102344
102331
102319
102327
102325
102315
102296
102283
102285
102278
102260
102238
102234
102228
102212
102189
102166
102149
102128
102108
102103
102078
102052
102015
101995
101976
101958
101925
101890
101871
101844
101813
101774
101737
101707
101681
101654
101624
101590
101553
101506
101475
101442
101421
101383
101355
106366
106366
106370
106372
106376
106381
106385
106391
106397
106404
106410
106417
106424
106431
106439
106446
106454
106461
106469
106475
106482
106488
106494
106500
106504
106508
106512
106514
106516
106515
106515
106512
106509
106503
106497
106487
106474
106464
106448
106431
106415
106398
106378
106354
106332
106310
106289
106263
106236
106205
106171
106135
106098
106064
106028
105993
105959
105923
105889
105860
105830
105806
105782
105757
105738
105723
105714
105700
105704
105698
105703
105711
105719
105729
105744
105758
105771
105783
105796
105809
105821
105834
105846
105859
105872
105886
105898
105910
105919
105928
105936
105940
105943
105945
105945
105945
105944
105943
105942
105941
105944
105946
105950
105957
105968
105980
105995
106010
106023
106042
106059
106078
106098
106118
106139
106161
106184
106204
106214
106234
106268
106302
106330
106360
106378
106401
106423
106444
106463
106481
106498
106520
106537
106548
106560
106570
106582
106593
106604
106615
106625
106632
106635
106641
106646
106652
106657
106662
106666
106670
106671
106670
106670
106670
106668
106666
106662
106654
106649
106642
106636
106629
106621
106610
106599
106586
106573
106556
106533
106523
106514
106500
106495
106485
106467
106445
106441
106428
106405
106373
106342
106319
106297
106271
106242
106211
106182
106161
106135
106107
106076
106048
106023
105993
105962
105932
105904
105879
105855
105835
105822
105817
105806
105800
105794
105788
105782
105780
105782
105786
105794
105803
105812
105822
105833
105839
105844
105854
105858
105855
105856
105857
105859
105859
105862
105864
105869
105866
105871
105875
105877
105877
105880
105880
105880
105881
105882
105884
105886
105887
105888
105890
105892
105894
105894
105894
105894
105893
105893
105892
105890
105888
105886
105883
105881
105878
105875
105872
105869
105865
105862
105856
105853
105848
105843
105838
105834
105829
105824
105817
105810
105800
105789
105778
105768
105758
105749
105742
105734
105724
105713
105699
105684
105671
105655
105637
105620
105600
105577
105556
105539
105503
105473
105446
105415
105382
105349
105318
105284
105249
105207
105174
105141
105109
105064
105025
104987
104947
104904
104858
104821
104773
104736
104701
104654
104607
104560
104511
104460
104409
104356
104305
104256
104206
104158
104105
104056
104008
103955
103904
103853
103804
103755
103703
103655
103608
103559
103517
103477
103427
103378
103330
103283
103236
103190
103145
103100
103055
103011
102967
102924
102881
102839
102797
102757
102716
102677
102638
102599
102562
102525
102489
102454
102420
102387
102354
102323
102292
102263
102234
102206
102178
102155
102134
102107
102088
102064
102049
102021
102004
101993
101980
101956
101948
101930
101924
101916
101904
101897
101885
101880
101874
101872
101874
101864
101862
101861
101870
101863
101865
101868
101879
101877
101878
101888
101901
101907
101914
101920
101931
101937
101952
101967
101974
101985
101992
102016
102027
102038
102052
102061
102077
102084
102105
102118
102127
102137
102141
102169
102181
102193
102201
102212
102222
102236
102241
102258
102269
102273
102279
102292
102305
102308
102315
102320
102326
102328
102330
102325
102342
102343
102341
102340
102334
102329
102333
102330
102321
102315
102303
102303
102297
102283
102266
102263
102251
102234
102219
102199
102190
102178
102157
102134
102112
102092
102068
102044
102026
102003
101972
101944
101920
101896
101864
101837
101799
101783
101746
101718
101681
101647
101615
101576
101555
101519
101482
101447
101412
101373
101343
106357
106358
106360
106364
106367
106372
106377
106383
106390
106396
106403
106410
106418
106425
106433
106441
106449
106457
106464
106472
106479
106486
106492
106498
106503
106507
106511
106514
106517
106517
106517
106514
106510
106505
106499
106489
106479
106469
106451
106435
106418
106400
106378
106354
106328
106303
106276
106248
106218
106186
106151
106114
106076
106041
106002
105965
105929
105896
105858
105829
105801
105775
105759
105736
105723
105706
105702
105685
105680
105678
105683
105694
105706
105722
105743
105767
105790
105811
105832
105851
105869
105885
105898
105908
105916
105923
105929
105934
105939
105944
105948
105949
105949
105952
105952
105952
105952
105952
105952
105952
105951
105954
105957
105961
105968
105975
105981
105989
106009
106030
106050
106073
106097
106120
106145
106169
106193
106219
106240
106261
106283
106302
106325
106351
106366
106386
106405
106424
106442
106457
106473
106496
106522
106539
106552
106564
106577
106588
106600
106611
106623
106634
106640
106646
106651
106657
106662
106666
106669
106669
106665
106667
106667
106666
106664
106662
106658
106653
106647
106641
106634
106626
106616
106606
106594
106581
106570
106555
106543
106535
106533
106529
106521
106508
106480
106454
106423
106404
106385
106355
106323
106304
106292
106269
106246
106223
106199
106173
106145
106113
106077
106044
106009
105978
105946
105918
105897
105871
105854
105833
105821
105815
105807
105804
105803
105803
105802
105805
105808
105811
105817
105822
105825
105823
105824
105826
105830
105840
105846
105847
105854
105857
105861
105864
105864
105869
105870
105873
105871
105873
105871
105871
105871
105872
105872
105875
105876
105878
105881
105883
105887
105890
105890
105890
105890
105889
105888
105887
105886
105885
105883
105881
105878
105875
105872
105870
105867
105864
105862
105860
105857
105853
105849
105843
105839
105836
105834
105832
105829
105826
105823
105818
105811
105803
105794
105784
105772
105760
105747
105732
105718
105701
105683
105665
105646
105624
105597
105572
105548
105527
105513
105491
105465
105437
105410
105381
105349
105317
105285
105249
105213
105181
105141
105108
105066
105029
104988
104948
104905
104860
104821
104779
104733
104689
104644
104599
104553
104505
104455
104406
104358
104310
104262
104212
104164
104114
104072
104026
103975
103923
103869
103818
103767
103714
103660
103607
103557
103510
103460
103412
103364
103317
103270
103223
103177
103131
103086
103042
102998
102954
102911
102868
102827
102786
102745
102705
102666
102627
102589
102551
102515
102479
102444
102411
102378
102346
102315
102285
102256
102228
102201
102175
102150
102127
102105
102085
102063
102045
102024
102004
101988
101977
101960
101945
101935
101920
101910
101901
101892
101887
101882
101877
101870
101868
101865
101864
101866
101864
101865
101868
101871
101874
101879
101886
101890
101894
101901
101909
101918
101932
101943
101951
101961
101974
101986
102002
102011
102021
102035
102047
102063
102078
102092
102100
102111
102126
102139
102153
102162
102172
102187
102198
102209
102221
102238
102248
102256
102264
102277
102286
102294
102299
102308
102312
102322
102328
102332
102334
102335
102335
102337
102338
102337
102337
102336
102332
102327
102324
102320
102311
102301
102291
102284
102273
102261
102247
102233
102223
102207
102189
102169
102152
102133
102110
102095
102072
102049
102022
101999
101975
101951
101923
101893
101868
101839
101809
101776
101742
101712
101682
101652
101620
101585
101549
101514
101480
101446
101415
101380
101348
106348
106348
106351
106353
106358
106362
106368
106374
106381
106388
106395
106403
106410
106418
106426
106434
106442
106450
106458
106466
106473
106480
106487
106493
106499
106503
106507
106510
106514
106516
106515
106514
106512
106506
106503
106493
106483
106474
106458
106443
106427
106409
106386
106361
106334
106307
106279
106247
106215
106180
106144
106107
106067
106034
105990
105952
105919
105883
105844
105815
105781
105764
105740
105729
105721
105701
105704
105697
105690
105690
105695
105703
105710
105719
105726
105737
105753
105773
105794
105815
105835
105856
105874
105891
105905
105918
105928
105936
105942
105949
105954
105955
105954
105955
105953
105951
105948
105946
105944
105944
105944
105949
105955
105963
105972
105980
105990
106003
106016
106030
106046
106063
106082
106101
106120
106136
106155
106184
106217
106243
106271
106295
106321
106348
106366
106388
106408
106427
106445
106463
106480
106497
106515
106531
106543
106555
106567
106580
106591
106602
106612
106623
106633
106640
106647
106653
106659
106663
106668
106670
106669
106669
106669
106668
106664
106661
106652
106648
106643
106636
106630
106621
106613
106601
106591
106581
106569
106557
106550
106540
106532
106519
106496
106474
106455
106428
106412
106401
106387
106372
106352
106327
106309
106282
106257
106229
106197
106163
106130
106093
106057
106026
106003
105971
105942
105916
105895
105872
105848
105828
105813
105792
105782
105772
105777
105776
105782
105788
105798
105805
105816
105828
105840
105844
105847
105852
105854
105859
105857
105857
105860
105861
105864
105865
105868
105871
105874
105872
105869
105870
105872
105872
105873
105876
105879
105883
105887
105887
105886
105888
105890
105889
105887
105888
105890
105890
105889
105889
105888
105887
105885
105882
105879
105876
105873
105870
105867
105864
105862
105859
105856
105852
105849
105846
105842
105838
105835
105821
105811
105804
105798
105793
105786
105781
105775
105769
105761
105752
105743
105732
105721
105708
105694
105679
105661
105644
105622
105598
105575
105551
105524
105496
105467
105436
105406
105372
105336
105304
105267
105242
105210
105176
105139
105104
105063
105025
104987
104948
104905
104860
104820
104778
104734
104691
104646
104602
104556
104510
104463
104418
104369
104322
104272
104219
104165
104113
104060
104011
103958
103908
103857
103808
103758
103707
103656
103603
103558
103511
103464
103419
103372
103325
103278
103232
103186
103140
103095
103050
103006
102962
102918
102876
102834
102792
102752
102711
102672
102634
102596
102559
102522
102486
102451
102416
102383
102351
102319
102290
102261
102232
102205
102178
102154
102130
102106
102087
102062
102044
102023
102006
101991
101976
101958
101945
101933
101922
101911
101901
101894
101886
101880
101876
101871
101869
101864
101863
101863
101865
101865
101868
101869
101875
101878
101883
101890
101896
101904
101912
101920
101930
101940
101952
101963
101974
101986
101999
102011
102023
102036
102049
102062
102076
102088
102101
102114
102126
102139
102150
102164
102176
102189
102200
102212
102221
102235
102244
102257
102267
102276
102283
102294
102300
102308
102314
102320
102326
102330
102332
102334
102337
102339
102338
102338
102336
102334
102332
102328
102323
102317
102310
102302
102293
102284
102272
102262
102249
102234
102222
102205
102190
102172
102155
102134
102111
102093
102070
102048
102024
102001
101974
101948
101921
101894
101866
101838
101807
101778
101745
101715
101682
101649
101618
101583
101551
101515
101482
101446
101413
101377
101345
106336
106336
106339
106343
106347
106351
106357
106364
106371
106378
106386
106394
106402
106410
106419
106427
106435
106443
106451
106459
106467
106474
106482
106489
106495
106500
106505
106509
106513
106515
106516
106515
106512
106510
106505
106495
106485
106477
106463
106446
106429
106414
106390
106366
106338
106309
106280
106246
106212
106175
106138
106098
106056
106016
105978
105938
105896
105861
105828
105784
105771
105734
105727
105708
105696
105672
105670
105680
105669
105681
105694
105709
105728
105749
105766
105778
105794
105810
105826
105843
105859
105876
105889
105899
105907
105916
105924
105931
105936
105941
105945
105947
105950
105953
105955
105955
105955
105955
105953
105953
105954
105954
105953
105953
105957
105963
105977
105993
106010
106028
106047
106068
106089
106110
106132
106154
106177
106198
106217
106239
106260
106282
106305
106328
106348
106370
106390
106410
106431
106451
106473
106492
106510
106527
106540
106553
106565
106577
106589
106601
106612
106621
106629
106636
106642
106648
106652
106655
106658
106663
106665
106664
106664
106663
106661
106658
106652
106647
106641
106634
106624
106616
106607
106597
106586
106575
106566
106552
106541
106524
106510
106499
106482
106470
106457
106445
106437
106427
106409
106382
106355
106316
106285
106258
106234
106210
106184
106154
106122
106087
106056
106025
106001
105975
105945
105906
105886
105853
105840
105821
105798
105791
105787
105780
105777
105775
105778
105782
105788
105790
105791
105800
105812
105823
105833
105840
105849
105855
105856
105858
105862
105863
105868
105869
105869
105869
105868
105869
105867
105870
105876
105878
105879
105881
105880
105877
105879
105878
105878
105883
105884
105884
105886
105889
105892
105894
105892
105890
105886
105883
105881
105878
105874
105871
105868
105866
105862
105859
105856
105854
105853
105850
105849
105847
105846
105843
105841
105837
105831
105826
105820
105813
105805
105797
105787
105777
105766
105754
105741
105727
105712
105692
105668
105648
105629
105614
105601
105583
105563
105541
105519
105495
105468
105440
105409
105379
105346
105313
105282
105248
105210
105175
105136
105100
105061
105023
104984
104945
104904
104859
104818
104776
104732
104688
104643
104599
104553
104507
104459
104411
104361
104312
104261
104211
104161
104113
104063
104015
103964
103914
103867
103819
103770
103720
103667
103612
103561
103510
103460
103410
103363
103319
103272
103225
103179
103134
103090
103045
103001
102958
102915
102873
102831
102790
102750
102710
102670
102630
102591
102554
102518
102483
102448
102415
102382
102350
102320
102289
102260
102231
102203
102177
102152
102129
102105
102085
102062
102043
102024
102005
101988
101975
101959
101944
101933
101921
101910
101902
101893
101886
101880
101875
101870
101868
101864
101863
101864
101864
101864
101867
101870
101874
101878
101884
101890
101896
101903
101911
101920
101930
101941
101951
101962
101974
101986
101999
102011
102023
102036
102048
102062
102075
102089
102100
102113
102126
102139
102152
102163
102175
102188
102199
102211
102221
102235
102246
102256
102266
102275
102284
102293
102301
102308
102314
102320
102326
102330
102332
102335
102336
102338
102338
102338
102337
102334
102332
102328
102323
102317
102311
102303
102293
102284
102272
102262
102249
102234
102222
102206
102189
102172
102154
102134
102111
102094
102071
102048
102024
102000
101975
101949
101923
101894
101866
101838
101808
101777
101745
101714
101682
101651
101619
101584
101550
101515
101482
101446
101414
101378
101346
106324
106323
106324
106328
106334
106339
106345
106352
106359
106366
106374
106383
106391
106400
106409
106418
106426
106435
106443
106452
106460
106468
106475
106483
106490
106496
106501
106507
106511
106515
106517
106515
106515
106510
106507
106499
106489
106480
106468
106450
106431
106415
106392
106368
106340
106309
106278
106243
106207
106168
106129
106088
106043
106005
105959
105917
105881
105849
105799
105777
105740
105728
105712
105701
105706
105671
105658
105655
105647
105647
105647
105646
105660
105681
105706
105732
105756
105781
105805
105829
105852
105876
105896
105913
105925
105933
105941
105946
105951
105955
105958
105958
105955
105949
105944
105943
105942
105942
105942
105944
105948
105952
105956
105962
105968
105976
105986
105998
106010
106021
106035
106052
106071
106089
106109
106135
106161
106185
106208
106231
106255
106278
106302
106325
106346
106367
106388
106407
106426
106444
106462
106480
106497
106514
106530
106545
106558
106572
106584
106597
106609
106619
106628
106635
106641
106647
106653
106657
106659
106661
106662
106662
106658
106656
106652
106651
106647
106641
106634
106629
106620
106611
106603