/*--------------------------------*- C++ -*----------------------------------*\
| =========                 |                                                 |
| \\      /  F ield         | OpenFOAM: The Open Source CFD Toolbox           |
|  \\    /   O peration     | Version:  v1812                                 |
|   \\  /    A nd           | Web:      www.OpenFOAM.com                      |
|    \\/     M anipulation  |                                                 |
\*---------------------------------------------------------------------------*/
FoamFile
{
    version     2.0;
    format      ascii;
    class       surfaceScalarField;
    location    "1";
    object      phi;
}
// * * * * * * * * * * * * * * * * * * * * * * * * * * * * * * * * * * * * * //

dimensions      [1 0 -1 0 0 0 0];
oriented        oriented;


internalField   nonuniform List<scalar> 
40240
(
2.12857e-05
-9.22578e-05
8.62757e-05
-0.000136411
0.000191522
-0.000177138
0.000309299
-0.000190213
0.000426037
-0.000189999
0.000527266
-0.000175216
0.000611735
-0.000160049
0.000689404
-0.000155724
0.000762205
-0.000153832
0.000828437
-0.000150455
0.000883809
-0.000142873
0.000927372
-0.000133975
0.000965211
-0.000131098
0.00100082
-0.000131694
0.0010398
-0.000138123
0.00108763
-0.000150144
0.00115154
-0.000169377
0.00123254
-0.00018942
0.0013335
-0.000212055
0.00145583
-0.000235973
0.00159885
-0.000259215
0.00176537
-0.000285395
0.00196458
-0.000320737
0.00219498
-0.000354689
0.00244986
-0.000382107
0.00273397
-0.000414486
0.00305644
-0.000455341
0.0033997
-0.000477957
0.00377212
-0.000509728
0.00414932
-0.0005179
0.00453522
-0.000528948
0.00492795
-0.000537461
0.00531754
-0.000536058
0.00569783
-0.000529914
0.00610987
-0.000562793
0.0065047
-0.000543476
0.00687723
-0.000520479
0.00727482
-0.000545092
0.00761706
-0.000490432
0.00781395
-0.000343379
0.00798133
-0.000311798
0.00810221
-0.000264599
0.00811371
-0.000155496
0.00806967
-9.95568e-05
0.00762243
0.000308192
0.00716013
0.000323667
0.00658627
0.000437494
0.00603203
0.000419758
0.00547135
0.00042891
0.00483744
0.000504885
0.00401395
0.000697573
0.00287873
0.00101376
0.00138247
0.00138019
-0.000393636
0.00167311
-0.00232452
0.00182504
-0.00427663
0.00184643
-0.00623843
0.00185686
-0.00826546
0.00192448
-0.0103847
0.00201985
-0.0125537
0.0020727
-0.0147468
0.00210078
-0.0169046
0.00207085
-0.0189483
0.00196204
-0.0208773
0.00185256
-0.0227095
0.00176063
-0.0243948
0.00161748
-0.0258078
0.00134909
-0.026936
0.00106793
-0.0276834
0.000696949
-0.0282129
0.000486212
-0.0284534
0.000201685
-0.0284909
9.18621e-08
-0.0283649
-0.000157882
-0.027881
-0.000513432
-0.0270737
-0.00083228
-0.0260227
-0.00107086
-0.0247832
-0.00125459
-0.0234049
-0.00138958
-0.0219314
-0.00148122
-0.0203997
-0.00153582
-0.0188368
-0.00156333
-0.0172552
-0.00157825
-0.0156781
-0.00156947
-0.0141342
-0.00153224
-0.0126577
-0.00146117
-0.0112825
-0.00135652
-0.0100367
-0.00122422
-0.00893966
-0.00107277
-0.00799178
-0.000921237
-0.00711404
-0.000849014
-0.0061918
-0.000891315
-0.00527431
-0.00088406
-0.0045165
-0.000722069
-0.00397918
-0.000499932
-0.00368012
-0.000259207
-0.00357552
-6.35935e-05
-0.00358577
5.35407e-05
-0.00374843
0.000208569
-0.00405282
0.000351984
-0.004414
0.000409893
-0.00476065
0.000396533
-0.0050976
0.000387655
-0.00536453
0.000317752
-0.00550107
0.000186249
-0.00568973
0.000239438
-0.00587946
0.000240821
-0.00595927
0.000133896
-0.00598954
8.32054e-05
-0.00600582
6.96534e-05
-0.00581867
-0.000136074
-0.00539265
-0.000376648
-0.00487257
-0.000473099
-0.00446996
-0.000356455
-0.00396197
-0.000460796
-0.00337317
-0.000541951
-0.00268551
-0.000641496
-0.00187112
-0.000770448
-0.000914294
-0.000911861
9.08076e-05
-0.000985992
0.00116219
-0.00103769
0.00231996
-0.00112481
0.00362078
-0.00126745
0.00491547
-0.00126483
0.00534479
-0.000398777
0.00631239
-0.000941804
0.00755494
-0.00121798
0.00880147
-0.00122275
0.00991395
-0.00108978
0.01085
-0.000914859
0.0116059
-0.000735905
0.012201
-0.000577506
0.0126929
-0.000475386
0.0131554
-0.000445723
0.0136825
-0.000511899
0.0142005
-0.000506666
0.0144834
-0.000272856
0.0146079
-0.000116093
0.0146661
-5.17287e-05
0.0146902
-1.95023e-05
0.0147584
-6.54771e-05
0.0148846
-0.000123497
0.0150567
-0.000172636
0.0151738
-0.000119318
0.0152027
-3.27072e-05
0.0152059
-9.3072e-06
0.015214
-1.45631e-05
0.0151826
2.39973e-05
0.0150677
0.000103533
0.01491
0.000145327
0.0147601
0.000135955
0.0146602
8.43815e-05
0.0146134
3.00103e-05
0.0145841
1.00587e-05
0.0145326
2.90005e-05
0.0144401
6.87413e-05
0.0142972
0.000117312
0.0140782
0.000190049
0.0138105
0.000238176
0.0135219
0.000256177
0.0132559
0.00023199
0.0130177
0.000201893
0.0128004
0.000178598
0.0125823
0.000176321
0.0123203
0.00021651
0.0119764
0.000294403
0.0115426
0.000381186
0.0110692
0.000416704
0.0106518
0.000358279
0.0104137
0.000176115
0.0103685
-1.85763e-05
0.01048
-0.000177649
0.0107687
-0.000359053
0.0108456
-0.000152216
0.0108322
-5.9209e-05
0.0109183
-0.000159383
0.0110529
-0.000211807
0.0110263
-5.37804e-05
0.0109905
-4.21301e-05
0.0110397
-0.00012336
0.0112658
-0.000304585
0.0113314
-0.00014753
0.0111375
0.000111762
0.0107936
0.000261655
0.0104839
0.000227196
0.0103886
1.13722e-05
0.0103879
-8.41047e-05
0.00999403
0.000308227
0.00912178
0.000788057
0.00804982
0.000988371
0.00698005
0.000984788
0.00575317
0.00114122
0.00429145
0.00137478
0.00282217
0.00138345
0.0015789
0.00116017
0.000506514
0.000992944
-0.000586227
0.00101137
-0.00177188
0.00110534
-0.00299689
0.00114645
-0.00422288
0.0011501
-0.00527286
0.000976366
-0.00609583
0.000753667
-0.00688695
0.000723917
-0.00753083
0.00057514
-0.00795401
0.000356464
-0.00812275
0.000111526
-0.00810862
-6.70832e-05
-0.00790067
-0.000261494
-0.00750955
-0.00044223
-0.00694487
-0.000613107
-0.0062691
-0.000719461
-0.00552794
-0.000782002
-0.00471229
-0.000852565
-0.00378102
-0.000964776
-0.00274621
-0.00106561
-0.00168607
-0.00108843
-0.000705255
-0.00100549
0.000161815
-0.000889295
0.000822393
-0.000681139
0.000995328
-0.000189456
0.00142436
-0.000442035
0.00211032
-0.000695739
0.00286174
-0.000757472
0.00351619
-0.000656465
0.00401054
-0.000491411
0.00443758
-0.000418639
0.00477247
-0.000322
0.00487575
-8.36334e-05
0.00515304
-0.000253812
0.00553097
-0.000350507
0.00593459
-0.000373109
0.00627005
-0.00029942
0.00652489
-0.000213444
0.00671431
-0.00014241
0.00685738
-9.07561e-05
0.00698197
-6.68809e-05
0.00710662
-6.22442e-05
0.00722968
-5.62202e-05
0.00735559
-5.50164e-05
0.00746938
-3.87126e-05
0.007587
-3.78891e-05
0.00767576
-6.12526e-06
0.00773471
2.73174e-05
0.0077846
4.09832e-05
0.00786773
1.19366e-05
0.00796819
-1.22071e-06
0.00804093
3.00394e-05
0.00806295
8.47889e-05
0.00802027
0.000157589
0.00782152
0.000314845
0.00748502
0.000456546
0.007068
0.000540948
0.00660948
0.000586772
0.00613181
0.000610613
0.00564649
0.000622633
0.00518925
0.000598637
0.00476257
0.000572448
0.00436805
0.000544433
0.00406449
0.000459005
0.00393763
0.000279853
0.00378983
0.000309249
0.00361877
0.00033251
0.0033844
0.000396868
0.003059
0.000491141
0.00274289
0.000485024
0.0024142
0.000500209
0.00216807
0.000419311
0.00205705
0.000285899
0.00204884
0.000182762
0.00208691
0.000140454
0.0022119
5.51639e-05
0.00247138
-7.93802e-05
0.00262857
2.6252e-05
0.00289695
-8.63656e-05
0.00325359
-0.00017191
0.00362362
-0.000182884
0.00404381
-0.000232544
0.00451936
-0.000288234
0.00505738
-0.000351306
0.00567695
-0.000433292
0.00637967
-0.000516558
0.00703441
-0.000469872
0.00742343
-0.000201923
0.00752947
7.86617e-05
0.00784766
-0.000133807
0.00830024
-0.000269554
0.00883604
-0.000355741
0.00938859
-0.000373144
0.00994867
-0.0003817
0.0105159
-0.000387854
0.0110894
-0.000395525
0.0115437
-0.000283328
0.0121017
-0.000391904
0.0125449
-0.00027992
0.0131644
-0.000468893
0.0136072
-0.00027884
0.0140635
-0.000289405
0.014521
-0.000293203
0.0150091
-0.000323897
0.0155356
-0.0003672
0.0161011
-0.000409699
0.0165385
-0.000281991
0.0172592
-0.000568357
0.0181438
-0.000746323
0.0183889
-0.000100287
0.0183847
0.000149725
0.0184946
3.43305e-05
0.0186405
-5.21908e-06
0.0187898
-1.01498e-05
0.0192348
-0.000310704
0.0195831
-0.000215043
0.0197859
-6.33692e-05
0.0203956
-0.000482491
0.0203432
0.000179749
0.0202544
0.000215919
0.0202457
0.000134238
0.0202656
0.000103829
0.0203619
2.62895e-05
0.0204651
1.74966e-05
0.0205186
6.89007e-05
0.0205602
8.21244e-05
0.0206626
1.68479e-05
0.0207038
7.98334e-05
0.0206764
0.000143576
0.0205017
0.000289156
0.0204577
0.000160687
0.0204743
0.000101093
0.020507
8.51684e-05
0.0205105
0.000113697
0.0205
0.000127747
0.0205036
0.000112639
0.0205684
5.21445e-05
0.02078
-9.52597e-05
0.0212019
-0.000305687
0.0215489
-0.000231324
0.0208496
0.000816928
0.0201857
0.000783398
0.019941
0.000366836
0.0198631
0.000199242
0.0197597
0.000227567
0.0196584
0.000227675
0.019616
0.000170442
0.0196258
0.000120636
0.0196961
6.05613e-05
0.0198095
1.9033e-05
0.0199528
-9.43273e-06
0.0201108
-2.21957e-05
0.0202743
-2.6003e-05
0.0204365
-2.30822e-05
0.0205951
-1.76946e-05
0.0207505
-1.27375e-05
0.0209037
-8.38981e-06
0.0210551
-4.52557e-06
0.0212048
-5.64234e-07
0.0213595
-3.37738e-06
0.0215182
-5.17401e-06
0.0216797
-6.13097e-06
0.0218434
-6.62986e-06
0.0220083
-6.1521e-06
0.0221737
-5.20027e-06
0.0223395
-4.26803e-06
0.0225053
-3.238e-06
0.0226699
-1.08418e-06
0.0228317
2.30032e-06
0.0229895
7.05174e-06
0.0231436
1.11519e-05
0.0232957
1.36784e-05
0.0234454
1.63554e-05
0.0235912
2.10007e-05
0.0237293
2.95679e-05
0.0238525
4.53166e-05
0.0239418
7.93549e-05
0.024015
9.36076e-05
0.0240929
8.38919e-05
0.0242085
4.20995e-05
0.0243101
5.56507e-05
0.0244832
-1.5222e-05
0.02473
-8.26994e-05
0.0249544
-6.56942e-05
0.025057
5.2638e-05
0.0250575
0.00015166
0.0250283
0.000181643
0.0250413
0.000147838
0.0253954
-0.000206734
0.0256286
-7.74203e-05
0.025788
-1.66325e-05
0.0255646
0.000365819
0.0254814
0.000216971
0.0254138
0.000201427
0.0254532
9.58794e-05
0.0256367
-4.49567e-05
0.0257193
4.66693e-05
0.0258831
-4.49624e-05
0.0258029
0.000159103
0.0257499
0.000223111
0.0257767
8.89369e-05
0.0258323
5.62834e-05
0.0258763
5.94119e-05
0.025857
0.000122168
0.0259025
5.62602e-05
0.0259627
4.17586e-05
0.0259287
0.000124755
0.0258658
0.000153247
0.0259679
-1.30082e-05
0.0260353
2.09693e-05
0.0259208
0.000192651
0.0258513
0.000145424
0.0256718
0.000252253
0.025526
0.000211532
0.0255308
4.3672e-05
0.0256666
-7.33002e-05
0.0257627
-3.2671e-05
0.0257048
0.000109486
0.0256658
8.44252e-05
0.0256192
8.88623e-05
0.0256334
2.43048e-05
0.0257183
-4.4364e-05
0.02562
0.000138871
0.0255046
0.000143105
0.0252103
0.000310018
0.0250666
0.000171416
0.02524
-0.000148838
0.0253452
-8.62375e-05
0.0254281
-7.59837e-05
0.0253056
0.000126778
0.0252054
9.56469e-05
0.025113
9.00903e-05
0.0251315
-2.84587e-05
0.0251851
-6.61476e-05
0.0250465
0.000120741
0.0249882
3.67096e-05
0.0248048
0.000160953
0.0244723
0.000308124
0.0242646
0.000180831
0.0243413
-0.000108936
0.0244996
-0.000200231
0.0245051
-4.77547e-05
0.0244436
4.11914e-06
0.0243172
0.000104766
0.0242574
1.99508e-05
0.0242483
-3.40195e-05
0.0241589
4.32991e-05
0.0241351
-2.74569e-05
0.0238605
0.000224271
0.0236259
0.000180921
0.0236639
-9.48447e-05
0.023814
-0.000208757
0.023881
-0.000130508
0.0238788
-6.1642e-05
0.0238103
-1.1539e-06
0.0236214
0.000118858
0.0235417
3.98126e-06
0.0232695
0.000199972
0.0230232
0.000175302
0.023007
-5.33387e-05
0.0230196
-8.44063e-05
0.0230095
-5.67903e-05
0.0228872
3.67697e-05
0.0228259
-1.96339e-05
0.022859
-0.000115257
0.0228297
-5.39096e-05
0.0227753
-3.79764e-05
0.0226366
6.67046e-05
0.0225037
4.89458e-05
0.0224828
-6.49743e-05
0.022434
-3.32088e-05
0.022332
1.5568e-05
0.0222746
-2.70966e-05
0.0223225
-0.000130985
0.0223067
-7.1787e-05
0.0222187
6.24553e-06
0.0221149
2.48094e-05
0.0218855
0.000153132
0.0216822
0.000132507
0.0216395
-3.1366e-05
0.0217048
-0.000137088
0.0217828
-0.000151374
0.0217338
-2.51383e-05
0.0217217
-6.30598e-05
0.0215863
7.41997e-05
0.0215119
1.11854e-05
0.0215144
-6.79029e-05
0.0215099
-5.45448e-05
0.0214483
2.57559e-06
0.0214387
-4.55189e-05
0.0214905
-0.000104072
0.0215069
-6.4703e-05
0.0214252
3.7598e-05
0.0213379
4.17276e-05
0.0212147
8.81548e-05
0.0212674
-8.92161e-05
0.0213936
-0.000159234
0.0214965
-0.0001254
0.0215273
-6.28974e-05
0.0215198
-2.06925e-05
0.0215064
-1.63367e-05
0.0213648
0.000128711
0.0213441
9.51301e-06
0.0213986
-5.51306e-05
0.0215581
-0.000164108
-7.26465e-05
0.000128864
-0.000290869
0.000280221
-0.000357445
0.000447831
-0.000414563
0.000638154
-0.000450925
0.000847191
-0.000470411
0.00105669
-0.000457282
0.00125092
-0.000428935
0.00142583
-0.000408255
0.00157405
-0.000382915
0.00170145
-0.000362185
0.001818
-0.000347297
0.00192985
-0.000337155
0.00204452
-0.000340218
0.00216491
-0.000349336
0.0022947
-0.000368014
0.00243534
-0.000393988
0.00258913
-0.000429529
0.0027568
-0.0004663
0.00294232
-0.000509316
0.00315157
-0.000559493
0.00339035
-0.000615001
0.00366424
-0.000678969
0.00398103
-0.000759298
0.004342
-0.000839436
0.004738
-0.000904549
0.00516191
-0.000968349
0.00561449
-0.00104051
0.00608184
-0.00107943
0.00656957
-0.00113304
0.00704735
-0.00113286
0.00749988
-0.00112536
0.0079054
-0.00108964
0.00824738
-0.0010208
0.00852858
-0.000951835
0.00877781
-0.000960649
0.00892202
-0.000846987
0.00909784
-0.000846993
0.00928219
-0.000875673
0.0094089
-0.000762084
0.00940545
-0.000487322
0.00930948
-0.000359231
0.00915612
-0.000254295
0.00891879
-6.00489e-05
0.00849381
0.000182827
0.00768175
0.00097943
0.00635857
0.0015085
0.00481903
0.00183995
0.00312029
0.00198331
0.00132764
0.00208874
-0.000534867
0.00223731
-0.00250403
0.00253921
-0.00465193
0.00303631
-0.00707167
0.00367612
-0.00999802
0.00446604
-0.0137382
0.00543969
-0.0180156
0.00600179
-0.0224403
0.00616505
-0.0267674
0.00614044
-0.0308335
0.00597991
-0.0344952
0.00563306
-0.0377355
0.0052453
-0.0405471
0.00479213
-0.0429129
0.00424215
-0.0449091
0.00376738
-0.0465902
0.00336395
-0.0479256
0.00287743
-0.048933
0.00228706
-0.0495839
0.00164915
-0.0499311
0.000983006
-0.050068
0.000575055
-0.0499295
1.86796e-05
-0.0492691
-0.000702737
-0.0481316
-0.00133292
-0.0466432
-0.00203568
-0.0449056
-0.00259849
-0.0429899
-0.00301027
-0.0409294
-0.00333391
-0.0387545
-0.00357945
-0.0365082
-0.00373873
-0.0342334
-0.00381816
-0.0319658
-0.00383463
-0.0297427
-0.0038006
-0.0275781
-0.00372887
-0.0254851
-0.00361558
-0.0234811
-0.00345119
-0.0215812
-0.00323845
-0.0197944
-0.0029893
-0.0181257
-0.0027163
-0.0165924
-0.00242633
-0.0152182
-0.00219221
-0.0140161
-0.00206041
-0.0130131
-0.0018518
-0.0121482
-0.00154924
-0.0114061
-0.00120221
-0.0107978
-0.000825348
-0.0103284
-0.000488815
-0.0100038
-0.000224293
-0.00978967
4.37477e-05
-0.00962972
0.00024338
-0.00947536
0.000308805
-0.00929305
0.000268784
-0.00912212
0.000272134
-0.00894908
0.000200296
-0.00876511
5.78651e-05
-0.0084919
2.35842e-05
-0.00818801
-5.0098e-06
-0.00788553
-0.00011019
-0.0074732
-0.000271528
-0.00695759
-0.000386435
-0.00636449
-0.000669897
-0.00570439
-0.000980277
-0.00502653
-0.00109119
-0.00400753
-0.00131935
-0.00279855
-0.00161374
-0.00152472
-0.00175941
-0.000217053
-0.00189291
0.00116766
-0.00209956
0.00271219
-0.00239741
0.00459859
-0.00279422
0.00683247
-0.00321154
0.00916626
-0.00340114
0.0115521
-0.00359962
0.0140489
-0.00371117
0.016841
-0.00314349
0.0192835
-0.00334127
0.0214157
-0.00331537
0.0233889
-0.00316557
0.0252672
-0.00294223
0.0271096
-0.00273617
0.0289843
-0.00259319
0.0309273
-0.00250715
0.0328557
-0.00239418
0.0344387
-0.00202246
0.0351851
-0.00125773
0.0352421
-0.000561049
0.0352264
-0.000251342
0.0353088
-0.000193611
0.0355729
-0.000312291
0.0359786
-0.000424087
0.0363699
-0.000457738
0.0366456
-0.000398619
0.0368631
-0.000390714
0.0370724
-0.000331088
0.0372743
-0.000237384
0.0374486
-0.000186503
0.037597
-0.000167554
0.0377071
-9.32241e-05
0.0378062
-5.7776e-06
0.0378967
4.35853e-05
0.0379543
6.59278e-05
0.0379434
8.11413e-05
0.0378653
9.13313e-05
0.0377167
0.000138932
0.0374855
0.000236946
0.0372058
0.000322137
0.0368901
0.000403287
0.0365289
0.00051876
0.0361163
0.000618046
0.0356504
0.000686153
0.0351065
0.000738829
0.0344707
0.000798743
0.0337577
0.000851303
0.0329772
0.000913681
0.0321067
0.00104062
0.0311235
0.00122777
0.0299997
0.00145208
0.0287454
0.00161414
0.0275047
0.00154054
0.0265722
0.00104807
0.0261392
0.000349913
0.026148
-0.00025374
0.0262354
-0.000520202
0.0261914
-0.000186088
0.0260887
-3.41771e-05
0.0260754
-0.000224276
0.0261105
-0.000330279
0.0259525
1.83125e-05
0.0253083
0.000518349
0.0242008
0.000899748
0.0228179
0.00099517
0.0213589
0.00122704
0.0199012
0.00148534
0.0185247
0.00155376
0.017139
0.00152912
0.0153784
0.00168455
0.0131603
0.00205339
0.0113624
0.00202349
0.00990185
0.00216439
0.00859041
0.00221653
0.00737209
0.00212008
0.00605066
0.00237774
0.00450057
0.00283768
0.00279912
0.00299706
0.00114886
0.00272263
-0.000433366
0.00248108
-0.00214915
0.00263882
-0.00379606
0.00266946
-0.00520533
0.00247476
-0.00644304
0.00230606
-0.00743506
0.00188657
-0.0082419
0.00148664
-0.00882785
0.00124455
-0.00910661
0.000794663
-0.00928133
0.000464238
-0.00931734
8.98069e-05
-0.00903334
-0.000401559
-0.00847675
-0.000868788
-0.00784613
-0.00112346
-0.00719612
-0.00131178
-0.00649887
-0.00146181
-0.00573551
-0.00158619
-0.00488349
-0.00174218
-0.00387713
-0.00200432
-0.00268587
-0.00228461
-0.00135005
-0.00244872
8.9473e-05
-0.00246873
0.00165304
-0.00247365
0.00329036
-0.0023389
0.00482597
-0.00174175
0.00619045
-0.00181946
0.00749586
-0.00201089
0.0087862
-0.00205393
0.0100488
-0.00192098
0.0111883
-0.00162779
0.0120239
-0.00124628
0.012368
-0.000653187
0.012418
-0.000115831
0.0124447
-0.000257993
0.0126605
-0.000537573
0.0130157
-0.000697631
0.0134168
-0.000663633
0.0138464
-0.00060054
0.014273
-0.000520765
0.0146564
-0.00042036
0.0149726
-0.0003241
0.0152025
-0.000228125
0.0153355
-0.000121983
0.0153692
-1.68886e-05
0.0153527
5.15844e-05
0.0152618
0.000134532
0.0151206
0.000218422
0.0148904
0.000345176
0.0145523
0.000470623
0.0141288
0.000531538
0.0136937
0.000534023
0.0132763
0.000552547
0.0128703
0.000600108
0.0124374
0.000704921
0.0119919
0.000878552
0.0115142
0.00105683
0.010993
0.0011889
0.0104271
0.00128303
0.00981713
0.00135573
0.00916533
0.00141396
0.00849572
0.00141103
0.00780401
0.00141052
0.0070626
0.00143588
0.00622561
0.00144873
0.00528944
0.00137147
0.00444242
0.00131651
0.00380428
0.00113513
0.00340387
0.00096488
0.00313033
0.000934849
0.00294814
0.000841894
0.00292571
0.000702076
0.00291859
0.000603463
0.00290754
0.000474874
0.00290927
0.000359461
0.0029357
0.000294793
0.00298154
0.000190471
0.0029794
0.000107772
0.00306897
0.000122546
0.0033995
-0.000229279
0.00384645
-0.0004296
0.00435212
-0.000498401
0.00490005
-0.000590437
0.00548408
-0.000682801
0.00609775
-0.000776331
0.00674616
-0.000893616
0.00744503
-0.0010275
0.00829116
-0.00112831
0.00959874
-0.00132455
0.0112939
-0.00142996
0.0124457
-0.0010985
0.0133874
-0.00102758
0.01429
-0.00107668
0.0151911
-0.00109419
0.0160627
-0.00107518
0.0168711
-0.00101895
0.0176004
-0.000950241
0.0182975
-0.000807563
0.0193599
-0.00127723
0.02094
-0.00169722
0.0224304
-0.00179641
0.0235876
-0.00127168
0.0241023
-0.000639304
0.0244643
-0.000493553
0.0250409
-0.000736964
0.025947
-0.00111631
0.027034
-0.00134314
0.0280346
-0.00112995
0.0289004
-0.00128922
0.0294561
-0.00116794
0.030057
-0.000556295
0.030706
-0.00035915
0.0316096
-0.000730038
0.032515
-0.000770913
0.0330371
-0.000408825
0.0327955
5.88315e-05
0.0327329
-2.33191e-05
0.0328476
-4.9123e-05
0.0329476
-0.000456506
0.0331181
0.000133359
0.0331229
0.000331802
0.0330648
0.000314958
0.033044
0.000248963
0.0332635
-6.9175e-05
0.0338275
-0.0004243
0.0345323
-0.000514646
0.0349775
-0.000240673
0.0349418
0.000148568
0.0343459
0.000796193
0.0338106
0.000796588
0.0335896
0.000624715
0.0332826
0.00058348
0.0328654
0.000637343
0.032486
0.000583497
0.032175
0.000542507
0.0318834
0.000537068
0.0315892
0.00052397
0.0312679
0.000490729
0.0308816
0.000407669
0.0304175
0.000274965
0.0300341
0.000269141
0.030223
0.000745294
0.0303473
0.000776928
0.030271
0.000564388
0.0301381
0.000453412
0.0300603
0.000428992
0.0300202
0.000393255
0.0300432
0.000275504
0.0302004
9.30301e-05
0.0304506
-5.95289e-05
0.0307477
-0.000146318
0.0310642
-0.000192746
0.0313833
-0.000206201
0.0316984
-0.000204272
0.0320069
-0.000193094
0.0323103
-0.000181022
0.0326131
-0.000173681
0.0329205
-0.000172158
0.0332387
-0.000176922
0.0335705
-0.000184473
0.0339052
-0.000188067
0.0342387
-0.000186594
0.0345719
-0.000185461
0.034907
-0.000186202
0.0352444
-0.000186475
0.035583
-0.000185289
0.0359212
-0.00018268
0.0362566
-0.000177748
0.0365864
-0.000168989
0.0369088
-0.00015751
0.037224
-0.000144968
0.0375346
-0.000135704
0.0378456
-0.000132977
0.0381643
-0.000137597
0.0384991
-0.000148406
0.0388522
-0.000157326
0.0392061
-0.000141703
0.0394983
-4.57391e-05
0.0397155
4.23224e-05
0.039986
-2.48046e-05
0.0405057
-0.000320519
0.0412684
-0.000550775
0.0420577
-0.000644471
0.0422467
-0.000127155
0.0417946
0.000551252
0.0414228
0.000582192
0.0414158
0.000315476
0.0418489
-0.000102062
0.0425256
-0.000371793
0.0424734
-2.14191e-06
0.0420417
0.000519692
0.0419037
0.000251866
0.0420213
0.000390126
0.0423258
4.79923e-05
0.0429634
-0.000298871
0.0437336
-0.000536778
0.0439018
-8.88593e-05
0.0436172
0.000454006
0.0433494
0.000349521
0.0436272
5.38205e-06
0.0441906
-0.00021314
0.0443443
3.81531e-05
0.0441101
0.000399392
0.0440046
0.00027593
0.0442568
-2.108e-05
0.0442154
0.000192743
0.0440671
0.00028983
0.0440603
0.000228555
0.0442464
6.07572e-05
0.0439672
0.000351146
0.0437794
0.000301511
0.043709
0.000347254
0.0438655
6.67584e-05
0.0444266
-0.000236306
0.0452075
-0.000500033
0.0455926
-0.000287841
0.0451823
0.00040416
0.0448289
0.000360423
0.0449012
9.31722e-05
0.0450745
-4.10325e-05
0.0450634
0.000133938
0.0446989
0.00041941
0.0442896
0.000404101
0.0443814
6.88293e-05
0.0448247
-0.000267909
0.045636
-0.000479487
0.046195
-0.000362724
0.0459666
9.26523e-05
0.0451695
0.000726055
0.0446689
0.00042892
0.0448033
3.81359e-06
0.0449605
-6.38948e-05
0.0448791
0.000161141
0.044407
0.000435982
0.0439562
0.000370473
0.0439503
0.000107816
0.0440773
-0.000109154
0.0445904
-0.000372082
0.0454887
-0.000613137
0.0461595
-0.000515074
0.0460439
-3.48099e-05
0.0452332
0.000575674
0.0446301
0.000507484
0.0446547
-6.89922e-05
0.0447963
-7.15241e-05
0.0444234
0.000350174
0.0440766
0.000268384
0.0439295
0.000152617
0.0443031
-0.000439541
0.0450462
-0.00056363
0.0455029
-0.000334545
0.0451577
0.000182505
0.0441999
0.000692425
0.0433266
0.0006781
0.0427104
0.000489053
0.0423984
0.000244009
0.0424909
-4.52099e-05
0.0428472
-0.000423173
0.0434908
-0.000511114
0.0440323
-0.000439205
0.0438459
5.41059e-05
0.0435364
0.000149929
0.0435641
-0.000150799
0.0437593
-0.000239659
0.0435565
9.47722e-05
0.0428832
0.000476674
0.0424318
0.000315425
0.0426053
-0.000296164
0.0428263
-0.000237054
0.0427871
-7.21112e-06
0.0425063
0.000128122
0.0425435
-0.000150423
0.0427468
-0.00027303
0.0426617
-3.57889e-05
0.0418964
0.000553041
0.041246
0.000489689
0.0410842
9.089e-05
0.0412164
-0.000187528
0.0418222
-0.000523982
0.0425355
-0.000649155
0.042697
-0.000274525
0.0421568
0.000328804
0.041398
0.000535638
0.0410533
0.000251065
0.0412673
-0.000338455
0.0416672
-0.000392051
0.0416971
-9.11215e-05
0.0414677
9.7028e-05
0.041333
2.79474e-05
0.0414744
-0.00019663
0.0413198
5.10562e-05
0.0408215
0.000342081
0.040453
0.000257006
0.0405777
-0.000127173
0.0411391
-0.000561264
0.0416976
-0.000510519
0.0417392
-0.00017781
0.0412109
0.000337888
0.040573
0.000486227
0.0402708
0.00021197
0.0403836
-0.000155858
0.0410005
-0.000652768
0.0418402
-0.000726457
0.0422385
-0.000405374
0.0419414
0.000217808
0.0414971
0.000278225
1.96704e-05
0.000104468
-0.000466672
0.000255204
-0.000579779
0.000411838
-0.000642545
0.000595766
-0.000706813
0.000807109
-0.00075493
0.00102506
-0.000750163
0.00122695
-0.000707307
0.00140311
-0.000662658
0.00154802
-0.000608417
0.00167781
-0.000575356
0.00180007
-0.00055582
0.00191774
-0.000543931
0.00203821
-0.000552632
0.00216329
-0.000569465
0.00229787
-0.00060085
0.00244166
-0.000639092
0.00259815
-0.000690404
0.00276768
-0.000743454
0.00295622
-0.000808659
0.00317121
-0.000888075
0.00341827
-0.000978048
0.00370137
-0.00108039
0.00402945
-0.00120856
0.00439993
-0.00133439
0.00479804
-0.00143003
0.00521707
-0.00151703
0.00566075
-0.00161595
0.00611245
-0.00166622
0.00657595
-0.00173525
0.00702912
-0.00172712
0.00745377
-0.0016896
0.00782605
-0.00160418
0.00814362
-0.00148815
0.00841905
-0.00137953
0.00864614
-0.00133408
0.00881651
-0.00115801
0.00896979
-0.00114999
0.00913402
-0.0011899
0.00927731
-0.00105571
0.00932765
-0.00068411
0.00920693
-0.000381848
0.00874965
6.04865e-05
0.00795144
0.000597064
0.00683479
0.00115876
0.00535397
0.00232162
0.00325327
0.00346833
0.000532541
0.00442096
-0.00271314
0.00509081
-0.00629114
0.00553134
-0.0100463
0.00586084
-0.013906
0.00627143
-0.0178444
0.00685046
-0.0218351
0.00754322
-0.0258384
0.00835279
-0.0297164
0.00920753
-0.0334913
0.00966891
-0.0372327
0.00980098
-0.040932
0.00973558
-0.0444509
0.00939627
-0.0475906
0.00867247
-0.0502963
0.00785528
-0.052536
0.00694186
-0.054296
0.00591728
-0.0556119
0.00500315
-0.0565199
0.00419592
-0.056998
0.00328287
-0.0570979
0.00232195
-0.0569739
0.00146257
-0.056462
0.000414082
-0.0556987
-0.000232225
-0.0548399
-0.000879031
-0.0538026
-0.00177349
-0.052494
-0.00267176
-0.0509558
-0.00360115
-0.0491942
-0.00438298
-0.0472608
-0.00496218
-0.0451945
-0.00541422
-0.043005
-0.00577896
-0.0407171
-0.00603277
-0.0383609
-0.0061767
-0.0359587
-0.0062358
-0.0335514
-0.00620267
-0.0311661
-0.00610495
-0.0288229
-0.00594475
-0.0265466
-0.00570894
-0.024363
-0.00539943
-0.0222889
-0.00503686
-0.0203082
-0.00466686
-0.0183726
-0.00432858
-0.0165908
-0.00393781
-0.0154299
-0.00318393
-0.0146978
-0.00254291
-0.0140183
-0.00218525
-0.0133615
-0.00181344
-0.0127391
-0.00139971
-0.0121596
-0.0010182
-0.0116365
-0.000695283
-0.011167
-0.000371706
-0.0107416
-0.000125687
-0.0103499
-2.54184e-05
-0.00997444
-4.72047e-05
-0.00962983
-1.26902e-05
-0.00930898
-6.01722e-05
-0.00899833
-0.000191734
-0.00866702
-0.000245856
-0.0083119
-0.000297448
-0.00783675
-0.000522122
-0.00685025
-0.00119493
-0.00539336
-0.00177889
-0.00379391
-0.00220532
-0.00214253
-0.00256782
-0.000343796
-0.00282815
0.00158416
-0.00318474
0.00367272
-0.00363939
0.00597111
-0.00399532
0.00846063
-0.00432003
0.0111579
-0.00473482
0.0140638
-0.0052396
0.0170885
-0.00576234
0.0200298
-0.00609557
0.0226375
-0.00595509
0.024543
-0.00545269
0.0259744
-0.00509221
0.0275316
-0.00465118
0.0293634
-0.00511845
0.0314531
-0.00535381
0.0336058
-0.00526799
0.0357529
-0.0050408
0.0378497
-0.00478752
0.0398606
-0.00456353
0.0417554
-0.00436834
0.0434464
-0.00405962
0.0449071
-0.00346489
0.0460948
-0.00243864
0.0470894
-0.00154995
0.0481379
-0.0012936
0.0492525
-0.00130438
0.0504028
-0.0014634
0.0515426
-0.00157096
0.0525532
-0.00148184
0.0532716
-0.00113196
0.0535434
-0.000678489
0.0535258
-0.000326851
0.0534649
-0.000182725
0.0534648
-0.000192062
0.0534847
-0.000194584
0.0535172
-0.000133717
0.0535427
-4.11571e-05
0.0535693
6.9394e-06
0.0536343
-9.68617e-06
0.0537437
-3.87205e-05
0.0538896
-6.56119e-05
0.0540548
-4.06376e-05
0.0542341
3.70386e-05
0.0543985
0.000133909
0.0544912
0.000282006
0.0544999
0.000472973
0.0543111
0.000769135
0.0538091
0.00114643
0.0530849
0.00142062
0.0522448
0.0015943
0.0513128
0.00173678
0.0502567
0.00192014
0.0490024
0.00224162
0.047494
0.00267909
0.0457164
0.00317072
0.0437926
0.00347829
0.0420073
0.00326753
0.0406434
0.00235308
0.0398799
0.00105271
0.039702
-0.000141672
0.0397141
-0.000604956
0.0396559
-0.000217666
0.0387985
0.000736295
0.0369986
0.00148953
0.0349736
0.00160816
0.0329744
0.00192687
0.0309302
0.00247175
0.0286651
0.00307213
0.026309
0.00326184
0.0242894
0.00316294
0.022593
0.00309463
0.0209607
0.00309881
0.0193057
0.00309718
0.017679
0.00322586
0.0164107
0.00323854
0.0153891
0.0029573
0.0142616
0.00320211
0.0128505
0.00353709
0.0111456
0.00373388
0.00918872
0.00424425
0.00713798
0.00479695
0.00496838
0.00507484
0.00259151
0.00500719
0.000114499
0.00487218
-0.0019815
0.0046481
-0.00355145
0.00415272
-0.00483263
0.00367314
-0.00598944
0.00338437
-0.00700936
0.00282919
-0.00790686
0.00230689
-0.00858558
0.00184644
-0.00902592
0.00116474
-0.00912102
0.000502306
-0.00884975
-0.000240519
-0.00815784
-0.00114649
-0.00719422
-0.00188082
-0.0060704
-0.00229014
-0.00483527
-0.0025856
-0.00351457
-0.00281784
-0.00215199
-0.00298122
-0.000790148
-0.00313364
0.000602064
-0.00342348
0.00207244
-0.00377978
0.00358435
-0.00398521
0.00508046
-0.00398422
0.00647734
-0.00388861
0.00773798
-0.00361596
0.00885991
-0.00287897
0.00983139
-0.00280564
0.0107032
-0.00289581
0.0115308
-0.00289181
0.0124077
-0.00280414
0.0135187
-0.002741
0.0146398
-0.00236462
0.0154702
-0.00147534
0.0160781
-0.000711405
0.0165935
-0.000752038
0.0166271
-0.000550709
0.0165268
-0.00056795
0.0163923
-0.000492741
0.0163292
-0.000494889
0.0163093
-0.000451763
0.0163092
-0.000364432
0.0163218
-0.000274611
0.0163357
-0.000173721
0.0163381
-5.24141e-05
0.016318
7.91808e-05
0.0162397
0.000208942
0.0161079
0.000349914
0.0159417
0.000471226
0.0157179
0.000659607
0.0153887
0.000894199
0.0149248
0.00109411
0.0143904
0.00117161
0.0138497
0.00120098
0.0133224
0.00123872
0.0127865
0.00135758
0.0122639
0.00152169
0.0117351
0.00171034
0.0111784
0.00187462
0.010587
0.00200812
0.00995904
0.00212069
0.00929052
0.00222257
0.00860212
0.0022435
0.00788824
0.00227213
0.00711368
0.00236019
0.00623743
0.00247761
0.00526277
0.00250166
0.00434684
0.00239208
0.00360726
0.00203836
0.00309494
0.00164379
0.00281308
0.00138555
0.0026653
0.00116223
0.0025941
0.000946759
0.00258909
0.000784455
0.0025977
0.000643019
0.0026668
0.000468327
0.00278922
0.000353819
0.00294071
0.000222575
0.00314883
8.77466e-05
0.0036222
-0.000163486
0.00417587
-0.000590354
0.00484815
-0.000910469
0.00565725
-0.00111463
0.0065532
-0.00129339
0.0074918
-0.00142836
0.00839695
-0.00148844
0.00918687
-0.00149022
0.00987059
-0.00151714
0.010509
-0.00157391
0.0113793
-0.00200413
0.0125725
-0.00242884
0.0139637
-0.00229744
0.0153748
-0.0022471
0.0167873
-0.00229957
0.0182083