/*--------------------------------*- C++ -*----------------------------------*\
| =========                 |                                                 |
| \\      /  F ield         | OpenFOAM: The Open Source CFD Toolbox           |
|  \\    /   O peration     | Version:  v1812                                 |
|   \\  /    A nd           | Web:      www.OpenFOAM.com                      |
|    \\/     M anipulation  |                                                 |
\*---------------------------------------------------------------------------*/
FoamFile
{
    version     2.0;
    format      ascii;
    class       volScalarField;
    location    "1";
    object      T;
}
// * * * * * * * * * * * * * * * * * * * * * * * * * * * * * * * * * * * * * //

dimensions      [0 0 0 1 0 0 0];


internalField   nonuniform List<scalar> 
20400
(
295.745
295.728
295.697
295.656
295.609
295.561
295.514
295.473
295.439
295.414
295.399
295.394
295.4
295.416
295.443
295.48
295.527
295.583
295.646
295.716
295.789
295.866
295.942
296.017
296.089
296.156
296.218
296.272
296.321
296.365
296.405
296.443
296.483
296.526
296.575
296.626
296.681
296.735
296.783
296.827
296.856
296.88
296.889
296.883
296.866
296.852
296.851
296.87
296.931
297.042
297.196
297.375
297.557
297.717
297.852
297.95
298.014
298.05
298.06
298.049
298.02
297.977
297.924
297.865
297.802
297.735
297.67
297.601
297.54
297.475
297.412
297.347
297.284
297.221
297.158
297.099
297.042
296.986
296.931
296.876
296.821
296.766
296.71
296.654
296.597
296.54
296.483
296.427
296.372
296.32
296.27
296.221
296.172
296.123
296.072
296.021
295.968
295.917
295.869
295.826
295.79
295.76
295.736
295.721
295.717
295.723
295.735
295.75
295.766
295.785
295.8
295.817
295.824
295.819
295.81
295.803
295.81
295.836
295.882
295.923
295.958
295.991
296.036
296.089
296.118
296.154
296.199
296.245
296.291
296.332
296.367
296.394
296.414
296.431
296.446
296.453
296.46
296.461
296.458
296.45
296.443
296.436
296.428
296.422
296.414
296.408
296.396
296.383
296.367
296.351
296.335
296.319
296.303
296.283
296.261
296.237
296.211
296.188
296.171
296.163
296.163
296.169
296.185
296.212
296.249
296.294
296.35
296.412
296.481
296.553
296.634
296.713
296.788
296.854
296.923
296.982
297.022
297.055
297.079
297.09
297.086
297.067
297.042
297.01
296.974
296.935
296.888
296.841
296.797
296.753
296.708
296.663
296.623
296.588
296.554
296.523
296.494
296.47
296.448
296.434
296.424
296.414
296.413
296.42
296.428
296.447
296.471
296.497
296.528
296.567
296.612
296.664
296.726
296.795
296.869
296.947
297.032
297.126
297.22
297.312
297.404
297.492
297.576
297.652
297.719
297.775
297.814
297.833
297.838
297.827
297.799
297.755
297.697
297.629
297.555
297.48
297.405
297.335
297.269
297.209
297.154
297.104
297.057
297.014
296.974
296.935
296.898
296.858
296.821
296.782
296.743
296.703
296.664
296.624
296.588
296.553
296.522
296.492
296.468
296.447
296.426
296.407
296.391
296.375
296.357
296.342
296.33
296.321
296.313
296.306
296.3
296.298
296.29
296.281
296.277
296.275
296.273
296.273
296.275
296.277
296.284
296.288
296.299
296.303
296.309
296.317
296.325
296.334
296.343
296.352
296.369
296.376
296.405
296.397
296.412
296.425
296.439
296.448
296.458
296.47
296.473
296.474
296.48
296.471
296.46
296.452
296.438
296.426
296.409
296.386
296.368
296.335
296.298
296.264
296.229
296.194
296.159
296.122
296.084
296.047
296.011
295.972
295.938
295.895
295.858
295.819
295.781
295.743
295.704
295.666
295.628
295.589
295.55
295.51
295.464
295.433
295.395
295.359
295.324
295.288
295.253
295.219
295.186
295.154
295.123
295.092
295.062
295.032
295.002
294.973
294.944
294.916
294.888
294.86
294.833
294.806
294.78
294.753
294.728
294.703
294.678
294.653
294.63
294.607
294.584
294.563
294.542
294.521
294.501
294.482
294.463
294.444
294.428
294.413
294.395
294.381
294.371
294.349
294.341
294.326
294.315
294.306
294.298
294.28
294.282
294.269
294.262
294.26
294.258
294.252
294.245
294.24
294.242
294.243
294.244
294.241
294.239
294.246
294.249
294.25
294.252
294.259
294.267
294.269
294.273
294.281
294.292
294.299
294.307
294.31
294.327
294.336
294.35
294.361
294.368
294.378
294.398
294.401
294.417
294.428
294.438
294.451
294.457
294.479
294.489
294.503
294.51
294.517
294.534
294.547
294.56
294.568
294.579
294.588
294.598
294.609
294.626
294.624
294.635
294.643
294.653
294.666
294.669
294.674
294.678
294.688
294.692
294.697
294.693
294.701
294.704
294.708
294.705
294.702
294.701
294.709
294.697
294.695
294.693
294.685
294.687
294.679
294.667
294.659
294.657
294.644
294.633
294.622
294.611
294.601
294.592
294.577
294.554
294.541
294.521
294.511
294.489
294.478
294.454
294.432
294.411
294.393
294.369
294.345
294.324
294.297
294.276
294.246
294.218
294.19
294.161
294.136
294.104
294.076
294.047
294.012
293.984
293.953
293.932
293.899
295.689
295.673
295.641
295.6
295.554
295.507
295.464
295.426
295.395
295.374
295.364
295.364
295.374
295.395
295.427
295.47
295.522
295.583
295.652
295.726
295.804
295.884
295.962
296.038
296.109
296.175
296.234
296.286
296.332
296.372
296.409
296.446
296.484
296.527
296.577
296.629
296.686
296.738
296.782
296.818
296.846
296.869
296.886
296.9
296.91
296.934
296.976
297.052
297.17
297.323
297.492
297.657
297.807
297.927
297.994
298.016
298.011
297.985
297.926
297.846
297.752
297.651
297.552
297.452
297.35
297.246
297.143
297.037
296.943
296.851
296.761
296.675
296.595
296.524
296.461
296.406
296.357
296.313
296.272
296.232
296.193
296.154
296.114
296.072
296.03
295.987
295.944
295.903
295.865
295.828
295.787
295.745
295.704
295.663
295.62
295.573
295.524
295.474
295.423
295.373
295.328
295.289
295.254
295.231
295.221
295.218
295.217
295.223
295.23
295.235
295.243
295.245
295.248
295.232
295.212
295.193
295.177
295.173
295.19
295.215
295.235
295.251
295.278
295.318
295.343
295.381
295.428
295.481
295.545
295.615
295.691
295.772
295.855
295.931
295.984
296.023
296.059
296.089
296.118
296.142
296.157
296.162
296.159
296.147
296.135
296.126
296.12
296.115
296.105
296.091
296.073
296.056
296.042
296.036
296.036
296.038
296.04
296.043
296.045
296.046
296.048
296.051
296.06
296.076
296.101
296.131
296.164
296.198
296.24
296.291
296.361
296.445
296.533
296.623
296.723
296.822
296.905
296.982
297.043
297.084
297.11
297.113
297.105
297.087
297.056
297.016
296.99
296.96
296.928
296.897
296.862
296.826
296.797
296.774
296.749
296.714
296.684
296.66
296.637
296.621
296.606
296.586
296.574
296.563
296.552
296.55
296.549
296.548
296.554
296.566
296.585
296.612
296.647
296.691
296.744
296.807
296.883
296.977
297.074
297.169
297.269
297.367
297.463
297.554
297.637
297.711
297.77
297.807
297.826
297.823
297.807
297.773
297.718
297.648
297.568
297.481
297.393
297.308
297.226
297.153
297.088
297.029
296.974
296.924
296.879
296.837
296.798
296.76
296.725
296.688
296.651
296.614
296.575
296.537
296.5
296.465
296.433
296.404
296.374
296.351
296.331
296.312
296.295
296.279
296.268
296.257
296.246
296.236
296.227
296.217
296.206
296.201
296.191
296.178
296.169
296.16
296.15
296.141
296.131
296.121
296.112
296.108
296.102
296.083
296.077
296.069
296.06
296.051
296.042
296.034
296.032
296.028
296.035
296.032
296.043
296.055
296.074
296.095
296.11
296.129
296.151
296.165
296.19
296.2
296.214
296.228
296.242
296.265
296.267
296.271
296.269
296.251
296.227
296.198
296.167
296.136
296.104
296.073
296.039
296.012
295.971
295.923
295.885
295.842
295.804
295.762
295.72
295.679
295.637
295.595
295.554
295.512
295.471
295.43
295.395
295.362
295.314
295.273
295.235
295.197
295.16
295.124
295.089
295.056
295.023
294.992
294.962
294.932
294.903
294.875
294.846
294.819
294.792
294.765
294.738
294.712
294.687
294.661
294.637
294.612
294.589
294.566
294.543
294.521
294.499
294.478
294.458
294.438
294.419
294.401
294.382
294.363
294.347
294.333
294.319
294.306
294.29
294.258
294.261
294.248
294.245
294.236
294.216
294.203
294.201
294.195
294.191
294.187
294.181
294.173
294.158
294.162
294.171
294.171
294.161
294.152
294.162
294.173
294.163
294.163
294.173
294.184
294.176
294.179
294.193
294.204
294.212
294.219
294.23
294.219
294.238
294.256
294.269
294.269
294.276
294.293
294.311
294.32
294.335
294.35
294.345
294.358
294.368
294.395
294.407
294.409
294.415
294.428
294.447
294.457
294.472
294.484
294.499
294.497
294.501
294.52
294.536
294.546
294.54
294.546
294.566
294.579
294.585
294.597
294.584
294.592
294.601
294.608
294.604
294.613
294.614
294.618
294.622
294.61
294.608
294.618
294.62
294.599
294.599
294.594
294.598
294.596
294.578
294.565
294.568
294.565
294.541
294.527
294.525
294.515
294.501
294.487
294.473
294.457
294.428
294.417
294.397
294.385
294.37
294.338
294.316
294.299
294.283
294.249
294.229
294.204
294.185
294.155
294.132
294.104
294.068
294.045
294.008
293.986
293.952
293.925
293.9
293.855
293.833
293.795
295.585
295.567
295.535
295.494
295.449
295.406
295.368
295.336
295.314
295.302
295.3
295.31
295.332
295.365
295.409
295.464
295.53
295.604
295.685
295.77
295.856
295.941
296.022
296.098
296.167
296.228
296.282
296.328
296.368
296.404
296.439
296.476
296.518
296.566
296.622
296.677
296.729
296.776
296.811
296.843
296.874
296.909
296.952
297.004
297.068
297.146
297.252
297.391
297.555
297.717
297.85
297.937
297.97
297.966
297.946
297.9
297.816
297.703
297.563
297.41
297.252
297.097
296.95
296.81
296.674
296.536
296.411
296.288
296.177
296.068
295.966
295.87
295.784
295.708
295.641
295.583
295.532
295.488
295.45
295.417
295.388
295.361
295.337
295.313
295.287
295.261
295.234
295.208
295.186
295.172
295.145
295.111
295.08
295.047
295.011
294.973
294.933
294.892
294.852
294.815
294.784
294.76
294.745
294.739
294.74
294.745
294.753
294.77
294.78
294.791
294.801
294.813
294.821
294.826
294.829
294.829
294.83
294.833
294.836
294.836
294.833
294.823
294.809
294.815
294.81
294.8
294.793
294.786
294.785
294.789
294.805
294.839
294.902
294.988
295.07
295.138
295.198
295.254
295.32
295.401
295.49
295.565
295.602
295.614
295.613
295.607
295.601
295.6
295.597
295.587
295.567
295.54
295.513
295.504
295.507
295.519
295.542
295.573
295.613
295.653
295.692
295.728
295.764
295.803
295.849
295.895
295.933
295.956
295.973
295.991
296.034
296.112
296.218
296.339
296.471
296.611
296.748
296.874
296.981
297.065
297.134
297.18
297.201
297.205
297.2
297.195
297.196
297.19
297.18
297.167
297.147
297.129
297.121
297.118
297.104
297.09
297.083
297.073
297.061
297.056
297.048
297.028
297.009
296.985
296.959
296.933
296.896
296.854
296.813
296.771
296.734
296.705
296.686
296.68
296.686
296.708
296.747
296.807
296.885
296.976
297.081
297.192
297.303
297.413
297.517
297.612
297.698
297.76
297.793
297.802
297.794
297.763
297.706
297.625
297.528
297.421
297.311
297.205
297.105
297.017
296.941
296.874
296.816
296.762
296.714
296.671
296.633
296.595
296.561
296.527
296.493
296.458
296.424
296.39
296.358
296.328
296.301
296.278
296.255
296.236
296.221
296.208
296.198
296.188
296.181
296.176
296.169
296.166
296.162
296.158
296.153
296.151
296.139
296.127
296.113
296.097
296.078
296.057
296.033
296.007
295.983
295.962
295.936
295.905
295.875
295.844
295.812
295.778
295.742
295.705
295.672
295.635
295.6
295.569
295.55
295.536
295.52
295.514
295.512
295.518
295.537
295.57
295.614
295.674
295.707
295.752
295.809
295.88
295.942
295.984
296.021
296.031
296.057
296.051
296.051
296.044
296.028
296.003
295.972
295.941
295.902
295.866
295.826
295.778
295.733
295.689
295.644
295.598
295.552
295.507
295.462
295.418
295.372
295.325
295.304
295.246
295.197
295.15
295.106
295.065
295.023
294.982
294.943
294.907
294.872
294.839
294.807
294.776
294.746
294.716
294.688
294.66
294.633
294.607
294.582
294.557
294.534
294.511
294.488
294.467
294.446
294.427
294.407
294.388
294.37
294.353
294.336
294.319
294.303
294.288
294.274
294.261
294.247
294.232
294.216
294.208
294.2
294.192
294.182
294.172
294.159
294.15
294.145
294.142
294.127
294.127
294.119
294.113
294.108
294.106
294.106
294.101
294.1
294.099
294.1
294.104
294.102
294.103
294.104
294.111
294.113
294.116
294.12
294.129
294.135
294.137
294.143
294.148
294.158
294.17
294.179
294.189
294.196
294.211
294.224
294.234
294.243
294.251
294.26
294.275
294.286
294.303
294.31
294.323
294.329
294.346
294.36
294.367
294.377
294.386
294.397
294.405
294.418
294.43
294.445
294.453
294.462
294.465
294.48
294.492
294.495
294.5
294.503
294.515
294.52
294.531
294.537
294.538
294.538
294.536
294.536
294.54
294.54
294.541
294.543
294.54
294.532
294.535
294.535
294.526
294.517
294.508
294.504
294.499
294.487
294.473
294.469
294.462
294.451
294.435
294.417
294.403
294.384
294.373
294.356
294.346
294.323
294.302
294.279
294.264
294.246
294.221
294.195
294.179
294.158
294.13
294.097
294.069
294.045
294.02
293.991
293.969
293.937
293.9
293.868
293.835
293.812
293.777
293.757
293.716
295.443
295.425
295.392
295.352
295.31
295.273
295.244
295.224
295.215
295.217
295.232
295.259
295.299
295.352
295.416
295.492
295.578
295.672
295.769
295.866
295.959
296.046
296.124
296.192
296.251
296.301
296.343
296.379
296.413
296.447
296.483
296.525
296.573
296.626
296.684
296.738
296.778
296.813
296.85
296.9
296.963
297.043
297.143
297.259
297.375
297.493
297.625
297.768
297.897
297.978
298.003
297.983
297.933
297.86
297.753
297.619
297.461
297.287
297.101
296.917
296.74
296.577
296.427
296.291
296.168
296.054
295.949
295.849
295.757
295.665
295.581
295.501
295.424
295.35
295.279
295.212
295.149
295.091
295.038
294.99
294.947
294.908
294.872
294.841
294.815
294.793
294.773
294.756
294.741
294.73
294.716
294.698
294.68
294.662
294.643
294.624
294.605
294.589
294.578
294.573
294.577
294.589
294.608
294.633
294.664
294.697
294.732
294.768
294.799
294.829
294.862
294.898
294.934
294.97
295.008
295.046
295.083
295.116
295.137
295.139
295.128
295.101
295.063
295.027
294.984
294.942
294.889
294.828
294.762
294.692
294.619
294.55
294.491
294.45
294.423
294.397
294.388
294.39
294.409
294.462
294.557
294.672
294.768
294.829
294.858
294.877
294.895
294.917
294.937
294.946
294.943
294.926
294.893
294.858
294.85
294.854
294.872
294.906
294.957
295.016
295.079
295.146
295.219
295.301
295.393
295.487
295.57
295.618
295.638
295.655
295.693
295.778
295.921
296.096
296.268
296.433
296.591
296.737
296.876
297.004
297.122
297.226
297.301
297.35
297.382
297.412
297.439
297.467
297.491
297.508
297.514
297.528
297.563
297.605
297.635
297.657
297.682
297.701
297.716
297.74
297.756
297.762
297.766
297.759
297.742
297.719
297.679
297.624
297.556
297.474
297.382
297.283
297.185
297.086
296.985
296.893
296.824
296.793
296.792
296.822
296.882
296.959
297.055
297.168
297.288
297.413
297.532
297.632
297.708
297.753
297.761
297.747
297.702
297.623
297.517
297.392
297.258
297.125
296.998
296.885
296.788
296.706
296.637
296.577
296.525
296.479
296.438
296.4
296.365
296.331
296.299
296.268
296.239
296.212
296.19
296.173
296.161
296.154
296.15
296.149
296.153
296.16
296.17
296.182
296.191
296.202
296.214
296.228
296.246
296.266
296.287
296.308
296.319
296.322
296.323
296.319
296.308
296.288
296.258
296.22
296.179
296.133
296.092
296.046
295.994
295.939
295.88
295.817
295.75
295.681
295.614
295.532
295.463
295.39
295.328
295.268
295.198
295.136
295.077
295.023
294.98
294.966
294.979
295.007
295.038
295.09
295.158
295.25
295.348
295.427
295.503
295.565
295.625
295.696
295.763
295.812
295.848
295.861
295.859
295.848
295.822
295.804
295.762
295.719
295.678
295.629
295.577
295.527
295.475
295.422
295.369
295.318
295.266
295.214
295.165
295.117
295.064
295.015
294.966
294.913
294.863
294.816
294.77
294.727
294.688
294.649
294.612
294.576
294.541
294.507
294.475
294.444
294.414
294.386
294.359
294.334
294.31
294.288
294.267
294.248
294.231
294.214
294.199
294.184
294.171
294.158
294.147
294.136
294.125
294.116
294.108
294.101
294.094
294.085
294.071
294.072
294.073
294.071
294.061
294.054
294.044
294.045
294.048
294.041
294.038
294.029
294.027
294.023
294.023
294.027
294.03
294.032
294.021
294.025
294.032
294.036
294.035
294.035
294.044
294.049
294.049
294.052
294.066
294.068
294.071
294.076
294.082
294.089
294.096
294.118
294.123
294.127
294.135
294.153
294.165
294.176
294.183
294.189
294.201
294.211
294.232
294.245
294.253
294.258
294.268
294.288
294.298
294.307
294.316
294.323
294.336
294.344
294.352
294.372
294.385
294.393
294.395
294.402
294.421
294.428
294.432
294.431
294.442
294.445
294.462
294.468
294.469
294.471
294.471
294.476
294.473
294.475
294.472
294.478
294.48
294.471
294.466
294.471
294.469
294.461
294.447
294.441
294.441
294.434
294.419
294.407
294.402
294.395
294.382
294.365
294.351
294.335
294.319
294.302
294.295
294.274
294.255
294.227
294.214
294.196
294.178
294.15
294.126
294.109
294.085
294.058
294.029
293.999
293.975
293.95
293.923
293.896
293.866
293.837
293.797
293.769
293.738
293.715
293.681
293.645
295.279
295.263
295.232
295.193
295.158
295.13
295.113
295.109
295.117
295.14
295.176
295.227
295.291
295.37
295.46
295.562
295.671
295.783
295.892
295.995
296.086
296.164
296.228
296.28
296.32
296.353
296.382
296.41
296.441
296.478
296.521
296.571
296.627
296.682
296.732
296.775
296.809
296.853
296.923
297.026
297.155
297.31
297.481
297.642
297.771
297.879
297.977
298.046
298.074
298.052
297.985
297.903
297.779
297.632
297.465
297.289
297.113
296.942
296.787
296.652
296.532
296.431
296.343
296.259
296.186
296.121
296.073
296.036
296.018
295.993
295.966
295.935
295.892
295.832
295.753
295.653
295.537
295.412
295.286
295.163
295.049
294.946
294.857
294.782
294.722
294.675
294.641
294.618
294.601
294.59
294.584
294.578
294.573
294.57
294.569
294.57
294.576
294.586
294.603
294.629
294.663
294.705
294.754
294.81
294.871
294.935
295.002
295.069
295.134
295.201
295.266
295.332
295.397
295.461
295.524
295.586
295.649
295.712
295.763
295.81
295.847
295.86
295.856
295.842
295.814
295.778
295.727
295.657
295.566
295.45
295.303
295.127
294.924
294.715
294.529
294.373
294.244
294.134
294.042
293.982
293.968
293.973
293.992
294.026
294.059
294.089
294.12
294.157
294.199
294.239
294.258
294.258
294.25
294.228
294.213
294.215
294.228
294.253
294.295
294.347
294.407
294.475
294.557
294.656
294.771
294.896
295.011
295.088
295.131
295.18
295.26
295.398
295.611
295.854
296.066
296.226
296.369
296.51
296.662
296.826
297.004
297.181
297.339
297.458
297.543
297.612
297.677
297.744
297.807
297.866
297.916
297.973
298.051
298.138
298.2
298.249
298.292
298.323
298.343
298.362
298.377
298.385
298.381
298.368
298.348
298.325
298.3
298.275
298.248
298.217
298.175
298.116
298.037
297.934
297.797
297.622
297.431
297.239
297.059
296.928
296.864
296.846
296.86
296.904
296.983
297.098
297.24
297.382
297.513
297.618
297.686
297.709
297.7
297.655
297.567
297.445
297.298
297.139
296.979
296.827
296.693
296.581
296.489
296.414
296.352
296.299
296.253
296.214
296.18
296.15
296.124
296.103
296.087
296.077
296.076
296.081
296.093
296.112
296.136
296.161
296.189
296.222
296.259
296.298
296.338
296.378
296.422
296.468
296.517
296.566
296.616
296.662
296.7
296.73
296.756
296.775
296.787
296.787
296.776
296.752
296.719
296.678
296.635
296.587
296.529
296.463
296.391
296.308
296.214
296.111
296.001
295.873
295.751
295.633
295.515
295.4
295.283
295.165
295.047
294.93
294.813
294.715
294.631
294.566
294.506
294.485
294.49
294.521
294.578
294.646
294.725
294.806
294.909
295.037
295.171
295.308
295.435
295.541
295.619
295.672
295.689
295.688
295.677
295.651
295.617
295.573
295.527
295.477
295.422
295.365
295.307
295.252
295.196
295.139
295.085
295.03
294.974
294.92
294.864
294.803
294.747
294.693
294.641
294.59
294.54
294.491
294.443
294.396
294.35
294.305
294.262
294.22
294.18
294.142
294.106
294.072
294.04
294.011
293.985
293.961
293.94
293.922
293.906
293.891
293.879
293.869
293.86
293.854
293.849
293.845
293.841
293.839
293.84
293.844
293.844
293.848
293.851
293.859
293.857
293.861
293.868
293.873
293.87
293.877
293.878
293.887
293.892
293.896
293.901
293.903
293.908
293.914
293.921
293.93
293.93
293.936
293.942
293.955
293.955
293.961
293.969
293.982
293.983
293.988
294
294.011
294.017
294.023
294.031
294.043
294.05
294.064
294.075
294.083
294.095
294.103
294.122
294.13
294.139
294.151
294.16
294.175
294.182
294.198
294.208
294.217
294.227
294.233
294.255
294.263
294.272
294.279
294.289
294.299
294.312
294.319
294.333
294.341
294.346
294.353
294.364
294.373
294.376
294.383
294.389
294.396
294.398
294.4
294.397
294.409
294.409
294.408
294.407
294.403
294.403
294.405
294.402
294.395
294.394
294.386
294.384
294.377
294.367
294.356
294.353
294.343
294.329
294.319
294.307
294.298
294.284
294.266
294.248
294.231
294.216
294.201
294.181
294.164
294.142
294.117
294.098
294.079
294.058
294.031
294.01
293.98
293.963
293.93
293.905
293.876
293.848
293.822
293.789
293.766
293.732
293.699
293.669
293.64
293.61
293.572
295.11
295.097
295.069
295.037
295.011
294.997
294.997
295.013
295.044
295.092
295.156
295.235
295.33
295.438
295.558
295.683
295.81
295.932
296.042
296.136
296.21
296.266
296.305
296.332
296.352
296.371
296.391
296.417
296.452
296.497
296.55
296.608
296.667
296.718
296.759
296.794
296.842
296.929
297.063
297.233
297.426
297.637
297.84
297.999
298.094
298.143
298.159
298.148
298.082
298.002
297.885
297.741
297.581
297.426
297.283
297.15
297.029
296.921
296.822
296.755
296.717
296.706
296.736
296.777
296.832
296.884
296.947
297.008
297.088
297.159
297.214
297.258
297.285
297.298
297.281
297.235
297.152
297.034
296.881
296.696
296.482
296.247
295.997
295.742
295.495
295.269
295.078
294.927
294.817
294.744
294.698
294.672
294.66
294.659
294.664
294.675
294.693
294.716
294.747
294.783
294.826
294.877
294.932
294.991
295.055
295.123
295.195
295.272
295.361
295.455
295.549
295.645
295.739
295.83
295.919
296.003
296.085
296.17
296.253
296.333
296.405
296.458
296.497
296.521
296.525
296.523
296.51
296.48
296.435
296.371
296.281
296.157
295.987
295.766
295.515
295.248
294.973
294.691
294.41
294.151
293.939
293.787
293.683
293.616
293.57
293.548
293.546
293.554
293.581
293.62
293.652
293.669
293.669
293.663
293.66
293.665
293.678
293.703
293.738
293.779
293.825
293.88
293.948
294.034
294.137
294.252
294.363
294.454
294.534
294.625
294.758
294.951
295.207
295.493
295.743
295.928
296.064
296.202
296.366
296.569
296.811
297.07
297.302
297.492
297.654
297.787
297.895
297.996
298.094
298.191
298.278
298.367
298.464
298.554
298.61
298.638
298.637
298.613
298.576
298.529
298.485
298.443
298.396
298.352
298.32
298.298
298.287
298.29
298.305
298.333
298.372
298.412
298.438
298.441
298.431
298.395
298.299
298.139
297.912
297.652
297.399
297.166
296.982
296.868
296.826
296.835
296.897
297.021
297.175
297.331
297.466
297.568
297.628
297.633
297.609
297.537
297.416
297.258
297.079
296.894
296.717
296.557
296.418
296.308
296.223
296.156
296.103
296.06
296.027
296.003
295.987
295.98
295.981
295.992
296.013
296.044
296.081
296.122
296.167
296.22
296.277
296.34
296.407
296.475
296.543
296.613
296.684
296.754
296.823
296.891
296.959
297.025
297.084
297.134
297.177
297.211
297.237
297.252
297.252
297.246
297.23
297.204
297.171
297.129
297.076
297.011
296.933
296.846
296.751
296.648
296.539
296.415
296.285
296.149
296.011
295.871
295.722
295.565
295.398
295.222
295.042
294.866
294.69
294.531
294.381
294.254
294.148
294.071
294.022
294.001
294.005
294.022
294.068
294.158
294.289
294.461
294.661
294.873
295.071
295.238
295.362
295.442
295.491
295.508
295.508
295.495
295.476
295.444
295.402
295.354
295.301
295.247
295.191
295.134
295.075
295.016
294.959
294.904
294.846
294.79
294.732
294.676
294.618
294.56
294.501
294.442
294.383
294.324
294.266
294.207
294.15
294.093
294.037
293.982
293.927
293.874
293.823
293.773
293.727
293.684
293.646
293.611
293.58
293.554
293.532
293.513
293.499
293.488
293.481
293.477
293.476
293.477
293.481
293.489
293.498
293.51
293.522
293.537
293.548
293.56
293.576
293.594
293.606
293.62
293.637
293.652
293.669
293.684
293.699
293.716
293.73
293.744
293.757
293.772
293.786
293.8
293.815
293.827
293.84
293.853
293.865
293.878
293.89
293.903
293.913
293.922
293.933
293.944
293.955
293.969
293.98
293.99
294.002
294.015
294.027
294.041
294.051
294.061
294.073
294.083
294.096
294.108
294.119
294.128
294.139
294.152
294.163
294.174
294.183
294.193
294.205
294.214
294.222
294.232
294.245
294.254
294.262
294.27
294.281
294.289
294.297
294.301
294.309
294.313
294.32
294.325
294.329
294.332
294.334
294.335
294.338
294.338
294.337
294.336
294.335
294.333
294.33
294.328
294.325
294.319
294.312
294.304
294.298
294.289
294.28
294.269
294.259
294.251
294.238
294.224
294.209
294.195
294.178
294.159
294.147
294.128
294.11
294.089
294.07
294.049
294.03
294.007
293.983
293.962
293.938
293.913
293.886
293.858
293.832
293.806
293.78
293.752
293.723
293.693
293.662
293.632
293.602
293.573
293.543
293.505
294.951
294.941
294.919
294.897
294.886
294.89
294.912
294.954
295.012
295.089
295.185
295.297
295.425
295.564
295.708
295.851
295.983
296.097
296.189
296.256
296.299
296.321
296.333
296.339
296.345
296.355
296.374
296.406
296.45
296.505
296.566
296.628
296.685
296.73
296.769
296.815
296.906
297.071
297.289
297.519
297.744
297.964
298.146
298.259
298.295
298.292
298.242
298.159
298.056
297.935
297.803
297.669
297.539
297.423
297.307
297.212
297.143
297.104
297.094
297.158
297.233
297.344
297.457
297.57
297.663
297.723
297.783
297.831
297.88
297.932
297.99
298.053
298.121
298.194
298.263
298.326
298.379
298.414
298.424
298.394
298.311
298.172
297.972
297.711
297.394
297.037
296.658
296.28
295.926
295.615
295.361
295.17
295.037
294.948
294.892
294.863
294.853
294.857
294.874
294.903
294.939
294.984
295.037
295.096
295.161
295.232
295.309
295.398
295.497
295.607
295.727
295.851
295.976
296.098
296.214
296.321
296.425
296.533
296.64
296.74
296.833
296.909
296.972
297.021
297.052
297.076
297.088
297.089
297.086
297.077
297.056
297.015
296.94
296.815
296.636
296.41
296.136
295.816
295.452
295.056
294.656
294.288
293.976
293.727
293.541
293.409
293.317
293.255
293.233
293.232
293.234
293.239
293.244
293.247
293.251
293.262
293.275
293.299
293.326
293.354
293.386
293.424
293.476
293.54
293.616
293.703
293.791
293.878
293.969
294.072
294.212
294.405
294.656
294.957
295.259
295.498
295.686
295.861
296.06
296.304
296.586
296.875
297.15
297.387
297.595
297.778
297.959
298.13
298.28
298.41
298.518
298.607
298.676
298.7
298.694
298.663
298.615
298.526
298.401
298.252
298.087
297.918
297.769
297.644
297.553
297.485
297.449
297.439
297.46
297.516
297.618
297.773
297.973
298.19
298.394
298.553
298.647
298.67
298.646
298.558
298.379
298.119
297.804
297.467
297.141
296.884
296.772
296.771
296.831
296.961
297.117
297.265
297.392
297.495
297.558
297.562
297.534
297.443
297.289
297.092
296.875
296.661
296.472
296.318
296.194
296.095
296.02
295.966
295.927
295.906
295.9
295.904
295.92
295.948
295.986
296.034
296.088
296.148
296.214
296.285
296.362
296.442
296.525
296.61
296.696
296.782
296.87
296.949
297.029
297.106
297.179
297.247
297.308
297.36
297.404
297.437
297.463
297.478
297.481
297.477
297.465
297.443
297.412
297.372
297.323
297.266
297.199
297.122
297.039
296.949
296.85
296.743
296.628
296.503
296.371
296.23
296.078
295.919
295.746
295.57
295.384
295.191
294.99
294.786
294.577
294.372
294.175
293.997
293.841
293.709
293.606
293.525
293.482
293.484
293.511
293.595
293.747
293.962
294.213
294.471
294.7
294.892
295.041
295.156
295.24
295.3
295.333
295.337
295.328
295.306
295.274
295.237
295.196
295.151
295.104
295.054
295.009
294.963
294.918
294.875
294.831
294.785
294.735
294.683
294.626
294.565
294.502
294.437
294.371
294.303
294.234
294.163
294.09
294.016
293.94
293.863
293.787
293.711
293.637
293.565
293.495
293.429
293.367
293.308
293.253
293.204
293.162
293.126
293.098
293.076
293.06
293.05
293.047
293.049
293.053
293.064
293.076
293.095
293.113
293.135
293.16
293.185
293.209
293.237
293.265
293.294
293.325
293.356
293.389
293.419
293.448
293.476
293.504
293.532
293.558
293.586
293.612
293.638
293.662
293.686
293.708
293.732
293.752
293.773
293.792
293.81
293.828
293.845
293.861
293.878
293.893
293.909
293.925
293.939
293.954
293.968
293.981
293.994
294.006
294.019
294.031
294.043
294.054
294.066
294.077
294.088
294.099
294.109
294.121
294.13
294.142
294.151
294.16
294.168
294.18
294.188
294.199
294.207
294.215
294.222
294.232
294.237
294.244
294.249
294.255
294.26
294.263
294.266
294.268
294.27
294.272
294.272
294.272
294.27
294.269
294.267
294.264
294.261
294.257
294.252
294.245
294.238
294.231
294.222
294.214
294.203
294.191
294.182
294.169
294.157
294.142
294.127
294.111
294.092
294.078
294.06
294.042
294.022
294.003
293.981
293.96
293.938
293.916
293.892
293.869
293.844
293.819
293.792
293.766
293.739
293.712
293.685
293.656
293.627
293.597
293.568
293.538
293.509
293.479
293.441
294.81
294.805
294.793
294.786
294.793
294.821
294.87
294.939
295.03
295.141
295.272
295.42
295.579
295.743
295.901
296.044
296.162
296.25
296.306
296.331
296.335
296.327
296.313
296.303
296.303
296.314
296.341
296.385
296.441
296.506
296.572
296.634
296.686
296.729
296.77
296.84
296.984
297.228
297.527
297.805
298.04
298.234
298.365
298.421
298.422
298.366
298.272
298.163
298.047
297.925
297.805
297.689
297.588
297.508
297.453
297.428
297.431
297.479
297.572
297.671
297.767
297.814
297.863
297.89
297.902
297.889
297.875
297.875
297.876
297.903
297.945
298.011
298.106
298.223
298.351
298.486
298.627
298.764
298.895
299.016
299.136
299.227
299.262
299.235
299.124
298.936
298.676
298.344
297.951
297.515
297.066
296.638
296.256
295.933
295.671
295.469
295.322
295.221
295.159
295.133
295.131
295.143
295.177
295.225
295.289
295.366
295.461
295.567
295.688
295.822
295.969
296.122
296.277
296.426
296.57
296.706
296.834
296.954
297.069
297.178
297.274
297.357
297.426
297.483
297.526
297.562
297.585
297.599
297.611
297.622
297.628
297.624
297.604
297.553
297.461
297.327
297.142
296.897
296.585
296.205
295.772
295.311
294.852
294.423
294.042
293.72
293.461
293.27
293.147
293.075
293.032
293.006
292.993
292.993
292.996
293.005
293.017
293.033
293.051
293.07
293.091
293.12
293.154
293.197
293.244
293.301
293.366
293.432
293.506
293.592
293.71
293.878
294.102
294.384
294.69
294.966
295.202
295.431
295.683
295.967
296.271
296.554
296.821
297.083
297.352
297.623
297.881
298.11
298.313
298.476
298.592
298.658